FOO
141312
    1MOL0     O    1   3.665   6.693   9.812 -0.2777 -0.0702  0.5957
    1MOL0     C    2   3.604   6.589   9.810  0.5540 -0.7816  0.2200
    1MOL0     O    3   3.626   6.495   9.725 -0.1071  0.5209  0.5642
    1MOL0     C    4   3.729   6.510   9.640 -0.2039 -0.1262 -0.0366
    1MOL0     C    5   3.707   6.543   9.498 -0.6778 -0.4037 -0.7758
    1MOL0     C    6   3.817   6.558   9.415 -0.6086  0.5466  0.1222
    1MOL0     C    7   3.947   6.539   9.458 -0.0616 -0.3387 -0.4583
    1MOL0     O    8   4.050   6.557   9.376 -0.3754 -0.7987 -0.2813
    1MOL0     C    9   4.118   6.433   9.339 -0.1060  0.3091 -0.6276
    1MOL0     C   10   4.148   6.408   9.182  0.3864  0.5268 -0.0851
    1MOL0     C   11   4.241   6.530   9.125 -0.4251  0.4432 -0.4004
    1MOL0     C   12   4.293   6.494   8.979 -0.6522 -0.4196 -0.5780
    1MOL0     C   13   4.187   6.510   8.878 -0.3259  0.1003  0.6346
    1MOL0     C   14   4.238   6.483   8.737 -0.1613  0.1697 -1.5766
    1MOL0     C   15   4.133   6.544   8.636 -0.6806 -0.4263  0.1059
    1MOL0     C   16   4.013   6.444   8.631 -0.1457 -0.3697 -0.1857
    1MOL0     N   17   4.044   6.319   8.557  0.6663 -0.3459 -0.3499
    1MOL0     C   18   4.096   6.308   8.428  0.3492 -0.6250  0.7739
    1MOL0     C   19   4.122   6.183   8.399 -0.4579  0.2795 -0.3128
    1MOL0     C   20   4.188   6.124   8.279  0.6352 -0.5109  0.4718
    1MOL0     C   21   4.138   6.190   8.142 -0.0004 -0.2196 -0.6930
    1MOL0     C   22   4.216   6.138   8.015  0.3725  1.2999  0.1281
    1MOL0     C   23   4.217   5.983   8.003  0.2097 -0.3437  0.6568
    1MOL0     O   24   4.089   5.933   8.046  0.2414 -0.0527 -0.7308
    1MOL0     C   25   4.085   5.805   8.086  0.1855 -0.3687  0.3349
    1MOL0     C   26   4.036   5.764   8.210 -0.6884  0.4612 -0.8253
    1MOL0     C   27   4.019   5.621   8.237  0.1126  0.0660 -0.5274
    1MOL0     C   28   3.952   5.593   8.367 -0.2132 -0.7342 -1.1684
    1MOL0     C   29   4.046   5.530   8.143  0.5410  0.4530  0.2413
    1MOL0     C   30   4.038   5.381   8.169 -1.2459  0.5055  0.8253
    1MOL0     O   31   4.061   5.301   8.061  0.4509 -0.2067 -0.3313
    1MOL0     C   32   4.077   5.165   8.092  0.6938  0.6187 -1.2096
    1MOL0     C   33   3.967   5.080   8.082  0.3431  1.1369 -0.5481
    1MOL0     C   34   3.984   4.939   8.094  0.4832 -0.7343  0.0438
    1MOL0     C   35   4.110   4.887   8.110 -0.0889  1.3696  0.2629
    1MOL0     O   36   4.117   4.752   8.107 -0.5383  0.3956 -0.1704
    1MOL0     C   37   4.245   4.683   8.085  0.4081 -0.2095  0.4374
    1MOL0     C   38   4.308   4.699   7.936 -1.0232  0.8068 -0.1273
    1MOL0     C   39   4.439   4.630   7.935  0.4679 -0.3972  0.2966
    1MOL0     C   40   4.547   4.712   8.009 -0.2579  0.8741 -0.7336
    1MOL0     C   41   4.697   4.676   7.966 -0.2692  0.6088  0.8819
    1MOL0     C   42   4.807   4.776   8.009 -0.8347  0.2187 -0.6478
    1MOL0     C   43   4.826   4.808   8.154  0.4008 -0.2414 -0.0350
    1MOL0     C   44   4.846   4.957   8.177 -0.4134  0.0206 -0.2455
    1MOL0    Cl   45   4.990   5.004   8.084  0.2893  0.5262  0.5571
    1MOL0     C   46   4.217   4.974   8.133 -0.4417 -0.1556  0.2246
    1MOL0     C   47   4.204   5.113   8.117 -0.0077  0.0891 -0.0959
    1MOL0     O   48   4.027   5.337   8.281  0.0951  0.5745  0.5377
    1MOL0     C   49   4.101   5.574   8.019 -0.5364  0.3534 -1.0354
    1MOL0     C   50   4.124   5.711   7.993 -0.8418  0.3570  0.1582
    1MOL0     N   51   4.073   6.111   8.507 -0.5094  0.3605 -0.9572
    1MOL0     N   52   4.033   6.189   8.604  0.3559  0.2518  0.9447
    1MOL0     C   53   3.971   6.494   9.587  0.3820 -0.0875  0.6227
    1MOL0     C   54   3.862   6.481   9.677 -0.7410  0.2234  0.1052
    1MOL0     C   55   3.518   6.564   9.922  1.2287 -0.6020 -0.0588
    1MOL0     C   56   3.511   6.654  10.024  0.3366 -0.9635  0.1974
    1MOL0     C   57   3.435   6.635  10.136 -0.4665 -0.0255 -0.5903
    1MOL0     C   58   3.355   6.529  10.156 -0.3155  0.4995 -1.0657
    1MOL0     O   59   3.300   6.487  10.276  0.8252  0.0229 -0.7118
    1MOL0     C   60   3.202   6.574  10.328  0.7444 -0.3002 -0.0923
    1MOL0     C   61   3.218   6.579  10.478  0.3568 -0.9786  0.6074
    1MOL0     C   62   3.334   6.663  10.545 -0.2822  0.0975 -0.5291
    1MOL0     C   63   3.297   6.810  10.536  0.0017 -1.2006  0.2603
    1MOL0     C   64   3.343   6.875  10.412  0.6342 -0.1642 -0.0308
    1MOL0     C   65   3.373   6.951  10.320 -0.0338 -0.0372 -0.3629
    1MOL0     C   66   3.358   6.427  10.061  0.0919  0.0740 -0.0003
    1MOL0     C   67   3.432   6.442   9.939  0.1303  0.8805 -0.0283
    1MOL0     C   68   3.415   6.328   9.847  0.1679  1.1653 -0.3817
    1MOL0     H   69   3.611   6.560   9.450 -0.3425 -1.0342 -1.6910
    1MOL0     H   70   3.805   6.590   9.312  0.6777 -2.4367 -1.0374
    1MOL0     H   71   4.063   6.350   9.384 -0.8288  2.1302  2.0935
    1MOL0     H   72   4.217   6.428   9.385  1.2800 -1.5970 -3.5306
    1MOL0     H   73   4.199   6.315   9.158  3.1022  2.0739 -0.7265
    1MOL0     H   74   4.054   6.415   9.127  0.9321  0.5365 -1.0171
    1MOL0     H   75   4.199   6.630   9.119  1.0058  1.0782 -0.2385
    1MOL0     H   76   4.328   6.542   9.191 -1.9080  2.3008  1.3346
    1MOL0     H   77   4.378   6.557   8.953 -0.5322 -1.0969 -1.9162
    1MOL0     H   78   4.332   6.393   8.963 -2.0874 -1.1282  0.1059
    1MOL0     H   79   4.148   6.612   8.882 -1.1557 -0.1069 -1.1374
    1MOL0     H   80   4.104   6.443   8.901 -0.5116  0.1025  0.0035
    1MOL0     H   81   4.337   6.529   8.727  2.0075 -3.7838 -0.4236
    1MOL0     H   82   4.239   6.374   8.725 -0.9243  0.1700 -1.7036
    1MOL0     H   83   4.178   6.549   8.537 -0.7437 -4.1547 -0.2442
    1MOL0     H   84   4.098   6.646   8.654  1.0834  0.0428  1.1356
    1MOL0     H   85   3.964   6.423   8.727 -0.7085 -1.9270 -0.7807
    1MOL0     H   86   3.937   6.484   8.564  0.2724 -0.2704 -0.6064
    1MOL0     H   87   4.112   6.389   8.358 -0.4163 -0.4119  0.8360
    1MOL0     H   88   4.168   6.017   8.274  0.2248 -0.4662 -5.0273
    1MOL0     H   89   4.296   6.138   8.292  0.3292  0.5046  2.2282
    1MOL0     H   90   4.029   6.184   8.139 -0.3391  3.1186  0.3611
    1MOL0     H   91   4.162   6.297   8.142  0.4306 -0.3103 -1.0746
    1MOL0     H   92   4.184   6.184   7.921 -1.2246  0.3615  0.1785
    1MOL0     H   93   4.318   6.177   8.006  0.5321  1.6606  2.8390
    1MOL0     H   94   4.244   5.958   7.900 -0.0408 -0.1659  0.5481
    1MOL0     H   95   4.294   5.956   8.076  0.8024  0.8032  0.4619
    1MOL0     H   96   4.017   5.835   8.290 -0.5177  0.2990 -0.6389
    1MOL0     H   97   3.907   5.691   8.386  3.0469  0.9830 -1.5981
    1MOL0     H   98   4.027   5.568   8.442 -1.1466 -2.2223 -0.6988
    1MOL0     H   99   3.879   5.512   8.362  0.9771 -1.9411  0.2288
    1MOL0     H  100   3.867   5.117   8.062  0.2241  1.8263  1.2300
    1MOL0     H  101   3.901   4.871   8.077 -2.2893  3.0880 -3.5532
    1MOL0     H  102   4.317   4.722   8.157 -0.0574  0.9592  0.2808
    1MOL0     H  103   4.229   4.576   8.101 -0.3399 -0.2115 -0.2179
    1MOL0     H  104   4.247   4.664   7.853 -0.5061 -0.4619  0.0090
    1MOL0     H  105   4.320   4.807   7.923 -2.9298  1.3400  1.8751
    1MOL0     H  106   4.461   4.609   7.830 -2.4553 -0.5285 -0.3669
    1MOL0     H  107   4.440   4.534   7.989  0.4767  0.7079  2.3390
    1MOL0     H  108   4.547   4.676   8.112  1.5037 -3.3495 -1.9739
    1MOL0     H  109   4.520   4.818   8.015  0.2032  0.9097  1.3617
    1MOL0     H  110   4.733   4.579   7.999  0.2958  0.5216  0.0504
    1MOL0     H  111   4.703   4.672   7.857 -1.9028  0.0885  0.7833
    1MOL0     H  112   4.791   4.871   7.958  3.8158  1.6616  0.1630
    1MOL0     H  113   4.896   4.729   7.966 -1.4326 -2.2658  0.6347
    1MOL0     H  114   4.900   4.743   8.201  0.6695 -0.6455 -0.9974
    1MOL0     H  115   4.737   4.790   8.216  1.0005 -0.9558  0.6449
    1MOL0     H  116   4.865   4.971   8.284  3.1281 -0.3652 -0.6976
    1MOL0     H  117   4.760   5.021   8.154  0.5388  1.1685 -0.6795
    1MOL0     H  118   4.320   4.944   8.148 -0.0400  1.8596  1.9094
    1MOL0     H  119   4.294   5.173   8.127 -0.3275  1.0848 -2.4552
    1MOL0     H  120   4.129   5.489   7.958  0.1440 -1.2454  1.3519
    1MOL0     H  121   4.176   5.741   7.903  2.5330  0.2425  1.9142
    1MOL0     H  122   4.072   6.495   9.627 -0.0499  5.3973  2.3721
    1MOL0     H  123   3.904   6.469   9.777  0.3364  5.5520  0.5937
    1MOL0     H  124   3.563   6.748  10.020 -1.7581  0.2272 -2.0789
    1MOL0     H  125   3.462   6.709  10.212  1.4496 -1.9741  0.7515
    1MOL0     H  126   3.202   6.670  10.277  2.3046 -1.1521 -1.7954
    1MOL0     H  127   3.109   6.520  10.308  0.4527 -0.7527  2.1973
    1MOL0     H  128   3.235   6.474  10.505  2.0647 -2.3240 -4.4300
    1MOL0     H  129   3.125   6.609  10.526 -1.4838 -1.8434 -2.1512
    1MOL0     H  130   3.352   6.630  10.648 -0.4134 -4.4174 -1.7164
    1MOL0     H  131   3.432   6.649  10.498  0.4541  1.8701  0.3917
    1MOL0     H  132   3.348   6.864  10.616 -0.6980 -0.3132  0.1151
    1MOL0     H  133   3.189   6.827  10.538 -0.5893 -2.5376 -5.0350
    1MOL0     H  134   3.385   7.028  10.246  0.9358  1.3018  1.1131
    1MOL0     H  135   3.294   6.341  10.079 -1.7784  1.1821 -1.0099
    1MOL0     H  136   3.505   6.269   9.863 -2.0247 -1.4912  4.7985
    1MOL0     H  137   3.341   6.253   9.879  4.1412 -3.1265 -0.1802
    1MOL0     H  138   3.390   6.374   9.751  1.2047  1.0327 -0.7264
    2MOL0     O  139  11.413   9.132  10.055  0.1405  0.2300  0.4836
    2MOL0     C  140  11.324   9.219  10.046  0.0308 -0.0231 -0.3598
    2MOL0     O  141  11.343   9.357  10.039  0.3739  0.8339 -0.0796
    2MOL0     C  142  11.473   9.405  10.043 -0.4682  0.3048 -0.3427
    2MOL0     C  143  11.586   9.350   9.981 -0.7696 -0.0637 -0.0525
    2MOL0     C  144  11.721   9.416   9.991  0.9572  0.2248 -0.7711
    2MOL0     C  145  11.732   9.545  10.035  0.1734  0.3023 -0.0705
    2MOL0     O  146  11.860   9.598  10.039  0.4732  0.1753 -0.4008
    2MOL0     C  147  11.912   9.643  10.170  1.0076  0.9044  0.6780
    2MOL0     C  148  11.934   9.793  10.168 -0.0196 -0.0805 -0.3399
    2MOL0     C  149  11.966   9.853  10.305 -0.8417  0.4459 -1.0360
    2MOL0     C  150  11.954  10.004  10.306  0.3085  1.0201 -0.4859
    2MOL0     C  151  11.982  10.060  10.443 -1.0219 -0.2518  0.1016
    2MOL0     C  152  11.865  10.040  10.536  0.2626 -0.0331  0.4226
    2MOL0     C  153  11.890  10.089  10.670 -0.3028  0.0007 -0.1657
    2MOL0     C  154  11.770  10.064  10.754  0.4205 -1.0067  0.0569
    2MOL0     N  155  11.760   9.924  10.794  0.4684 -0.6607  0.1603
    2MOL0     C  156  11.654   9.837  10.761  0.2862 -0.1233 -0.0114
    2MOL0     C  157  11.671   9.727  10.842 -1.0709  0.7497 -0.0268
    2MOL0     C  158  11.587   9.610  10.843 -0.0359 -0.4015 -0.4852
    2MOL0     C  159  11.650   9.474  10.808 -0.4673 -1.1301 -0.1597
    2MOL0     C  160  11.544   9.366  10.790 -0.2484 -0.8525  0.0171
    2MOL0     C  161  11.439   9.345  10.908 -0.1550 -0.1958  0.7226
    2MOL0     O  162  11.519   9.327  11.024 -0.1450  0.3250  0.4561
    2MOL0     C  163  11.467   9.247  11.113  0.0729  0.4951 -0.7425
    2MOL0     C  164  11.327   9.242  11.142 -0.6172  0.1490 -0.1074
    2MOL0     C  165  11.273   9.152  11.243  0.4057 -0.2594  2.0209
    2MOL0     C  166  11.126   9.170  11.273  0.3471 -0.0114 -0.3339
    2MOL0     C  167  11.357   9.054  11.304 -0.1348  0.3955  0.1143
    2MOL0     C  168  11.316   8.950  11.399  1.1212  0.0701  0.1539
    2MOL0     O  169  11.417   8.888  11.465 -0.0840  0.1521 -0.5735
    2MOL0     C  170  11.401   8.796  11.567  0.2311  0.0841  0.3434
    2MOL0     C  171  11.466   8.670  11.558 -1.5256 -1.2404 -1.1723
    2MOL0     C  172  11.462   8.591  11.675  0.0799 -0.7731 -0.2553
    2MOL0     C  173  11.376   8.620  11.786 -0.0349  0.3240  0.6676
    2MOL0     O  174  11.360   8.527  11.891  0.7130 -0.0230 -0.3454
    2MOL0     C  175  11.294   8.570  12.016 -0.2704  0.6576 -0.6869
    2MOL0     C  176  11.286   8.455  12.124  0.1742  0.4165  0.5096
    2MOL0     C  177  11.293   8.307  12.064  0.4964 -1.3006 -0.3473
    2MOL0     C  178  11.168   8.287  11.985 -0.4037 -0.1507 -0.0596
    2MOL0     C  179  11.174   8.152  11.923  0.2415 -0.0519  0.4957
    2MOL0     C  180  11.277   8.146  11.809  0.3811  0.4733 -0.1273
    2MOL0     C  181  11.295   7.999  11.780 -0.4499  0.3153 -0.0939
    2MOL0     C  182  11.408   7.975  11.685  0.1839 -0.3525 -0.8748
    2MOL0    Cl  183  11.444   7.794  11.674  0.4055 -0.5497  0.0929
    2MOL0     C  184  11.305   8.739  11.792  0.1878 -0.7067  0.3890
    2MOL0     C  185  11.337   8.830  11.685  0.7776 -0.3781 -0.4990
    2MOL0     O  186  11.197   8.926  11.402 -0.3106  0.3734 -0.7826
    2MOL0     C  187  11.496   9.064  11.270  0.3143 -0.6113  0.1945
    2MOL0     C  188  11.542   9.154  11.180  0.2526  0.2947  0.0035
    2MOL0     N  189  11.783   9.747  10.915 -0.2917  0.5244 -0.5671
    2MOL0     N  190  11.828   9.864  10.892 -0.2508  0.3138 -1.4826
    2MOL0     C  191  11.614   9.611  10.083 -0.0262  0.5518  0.1383
    2MOL0     C  192  11.492   9.536  10.090  0.6426 -0.0854 -0.3826
    2MOL0     C  193  11.188   9.166  10.012 -0.2086 -0.4523  0.0670
    2MOL0     C  194  11.095   9.259   9.991  0.5308 -0.9727  0.0771
    2MOL0     C  195  10.962   9.226   9.957  0.7792 -0.1516 -0.4544
    2MOL0     C  196  10.914   9.090   9.954 -0.4729 -0.5778 -0.6541
    2MOL0     O  197  10.784   9.033   9.936  1.1332 -0.4325 -0.1299
    2MOL0     C  198  10.672   9.111   9.890  0.4397 -0.6198  0.9344
    2MOL0     C  199  10.564   9.129  10.008 -1.9829 -0.6257  0.2113
    2MOL0     C  200  10.440   9.208   9.969  0.3805 -0.0142  0.0967
    2MOL0     C  201  10.470   9.359   9.931 -0.2248  0.4371 -0.0153
    2MOL0     C  202  10.522   9.373   9.792 -0.0298 -0.3428 -0.2456
    2MOL0     C  203  10.557   9.381   9.678  0.6248  0.2148  0.1492
    2MOL0     C  204  11.020   8.993   9.964 -0.4647  0.4982 -0.0879
    2MOL0     C  205  11.158   9.029   9.994 -0.1087 -0.5797  0.0464
    2MOL0     C  206  11.256   8.917  10.010  0.5659  0.2677 -0.4528
    2MOL0     H  207  11.589   9.257   9.926  0.4375  1.8637 -3.5843
    2MOL0     H  208  11.813   9.359   9.973  0.3007 -1.3887  0.7151
    2MOL0     H  209  12.002   9.592  10.206  0.4037  2.8290  5.5598
    2MOL0     H  210  11.842   9.622  10.252  1.1639  2.1729  1.1511
    2MOL0     H  211  12.011   9.826  10.098  0.3249 -0.1967 -0.0185
    2MOL0     H  212  11.846   9.849  10.134  2.8623  3.4031 -2.7824
    2MOL0     H  213  11.891   9.813  10.375 -1.2910 -0.0067 -1.7684
    2MOL0     H  214  12.060   9.804  10.334 -1.0585  1.7527  2.3850
    2MOL0     H  215  12.041  10.034  10.247  1.7101 -2.3109 -0.3236
    2MOL0     H  216  11.858  10.024  10.258  0.3449  0.3135 -0.8713
    2MOL0     H  217  11.997  10.168  10.436 -4.4979  0.3255 -0.4275
    2MOL0     H  218  12.071  10.021  10.492  0.6006  1.7797 -1.0837
    2MOL0     H  219  11.778  10.092  10.494  2.7919  3.3123 -1.1850
    2MOL0     H  220  11.841   9.934  10.542 -0.9022  0.1890  0.1393
    2MOL0     H  221  11.921  10.194  10.669 -0.9313  0.1817 -0.4849
    2MOL0     H  222  11.980  10.038  10.708 -1.0418  0.1552  1.9337
    2MOL0     H  223  11.784  10.113  10.851  2.1257 -0.8517 -0.2490
    2MOL0     H  224  11.680  10.104  10.707  1.2330  1.0602  0.1818
    2MOL0     H  225  11.575   9.858  10.690  0.3741  0.8062  0.1447
    2MOL0     H  226  11.507   9.629  10.770 -0.8721 -0.2877  0.4406
    2MOL0     H  227  11.543   9.609  10.943 -1.2800 -3.2806 -0.9422
    2MOL0     H  228  11.707   9.481  10.715  1.7870 -2.7986  0.9988
    2MOL0     H  229  11.716   9.438  10.887 -3.2782 -1.5154  2.1824
    2MOL0     H  230  11.491   9.378  10.695 -0.7275 -0.3491  0.3387
    2MOL0     H  231  11.596   9.272  10.770  1.0105  0.0969 -1.5048
    2MOL0     H  232  11.374   9.433  10.911 -1.0409 -0.7892 -0.1471
    2MOL0     H  233  11.377   9.257  10.888 -1.5794  0.5479  1.6230
    2MOL0     H  234  11.267   9.310  11.082 -0.4165  0.4953  0.0802
    2MOL0     H  235  11.063   9.091  11.233 -1.8111  1.9224 -0.9994
    2MOL0     H  236  11.100   9.265  11.224  0.9004  1.0226  1.2735
    2MOL0     H  237  11.094   9.187  11.377 -0.3328  2.2373 -0.8508
    2MOL0     H  238  11.532   8.653  11.474 -0.7125 -0.0293 -0.8094
    2MOL0     H  239  11.525   8.503  11.682 -0.0770 -0.7499  2.6788
    2MOL0     H  240  11.355   8.649  12.059 -1.2623  1.2487 -0.3351
    2MOL0     H  241  11.193   8.609  12.000  0.4478  2.5281 -0.8394
    2MOL0     H  242  11.376   8.455  12.186  0.8945 -0.3537 -0.5118
    2MOL0     H  243  11.204   8.485  12.191 -1.6236  3.9679 -2.9175
    2MOL0     H  244  11.305   8.232  12.142 -2.2598 -0.9925  0.4696
    2MOL0     H  245  11.383   8.309  12.001  2.4036  1.4581  2.1502
    2MOL0     H  246  11.155   8.364  11.908 -2.4639 -0.2009  0.1715
    2MOL0     H  247  11.078   8.291  12.047 -0.1105 -0.8136  0.4204
    2MOL0     H  248  11.198   8.081  12.003  0.9033 -2.6047 -1.8126
    2MOL0     H  249  11.074   8.121  11.891  0.1992  1.3353 -0.8270
    2MOL0     H  250  11.372   8.170  11.858  0.2319  1.1216 -0.1450
    2MOL0     H  251  11.266   8.214  11.724  1.8058 -0.7020 -1.3061
    2MOL0     H  252  11.208   7.942  11.746  0.3766 -0.5357 -0.8597
    2MOL0     H  253  11.312   7.947  11.875 -0.6913  0.8593  0.2546
    2MOL0     H  254  11.501   8.027  11.709  0.2297 -0.6655 -0.3589
    2MOL0     H  255  11.374   8.015  11.589  2.6323  1.0921 -1.2145
    2MOL0     H  256  11.233   8.782  11.860  1.8965  2.5614  0.3174
    2MOL0     H  257  11.292   8.929  11.686  1.3962 -0.0823  0.8194
    2MOL0     H  258  11.565   8.988  11.306 -1.1751 -0.5636  3.5451
    2MOL0     H  259  11.648   9.161  11.155 -0.2541  4.0692 -1.8084
    2MOL0     H  260  11.619   9.710  10.127  0.0330  0.0651  1.2509
    2MOL0     H  261  11.407   9.595  10.121 -1.6950 -0.8643 -4.5668
    2MOL0     H  262  11.121   9.361   9.965  0.1038 -1.5087 -2.7667
    2MOL0     H  263  10.886   9.301   9.938 -0.1841 -1.3242 -1.4726
    2MOL0     H  264  10.712   9.211   9.867 -0.4162 -0.5718 -0.4836
    2MOL0     H  265  10.638   9.075   9.793  0.0192 -2.7582  1.8196
    2MOL0     H  266  10.619   9.169  10.094 -0.6186 -0.3218 -0.7693
    2MOL0     H  267  10.528   9.031  10.040 -3.0604 -0.4648 -0.4505
    2MOL0     H  268  10.395   9.149   9.888  1.8751 -1.4036  0.2204
    2MOL0     H  269  10.378   9.205  10.059  1.2477 -0.1979  0.6926
    2MOL0     H  270  10.547   9.393  10.001 -0.0983  2.5563 -1.1216
    2MOL0     H  271  10.382   9.422   9.945 -1.9922 -1.5660 -1.3142
    2MOL0     H  272  10.581   9.405   9.576  0.0264  0.9316  0.1626
    2MOL0     H  273  10.986   8.890   9.963  1.0842 -0.0958  1.7008
    2MOL0     H  274  11.214   8.817   9.991 -0.5416 -0.1867  3.5118
    2MOL0     H  275  11.341   8.929   9.943  0.4318 -1.0357 -0.8858
    2MOL0     H  276  11.290   8.926  10.114  0.3616  0.5150 -0.4057
    3MOL0     O  277   3.146   0.606   7.793  0.0821 -0.8958 -0.8833
    3MOL0     C  278   3.196   0.513   7.846 -0.1213 -0.2598  0.1077
    3MOL0     O  279   3.123   0.401   7.882  0.8683  0.0356 -0.6625
    3MOL0     C  280   2.994   0.398   7.830 -0.4941 -0.8217 -0.5994
    3MOL0     C  281   2.889   0.456   7.900 -0.2648 -0.4486 -0.0837
    3MOL0     C  282   2.760   0.456   7.860  1.3856 -1.0770 -0.3855
    3MOL0     C  283   2.722   0.387   7.747 -0.3305 -0.2809 -0.7203
    3MOL0     O  284   2.594   0.352   7.718 -0.4239 -0.4848  0.1287
    3MOL0     C  285   2.484   0.413   7.779 -0.1648 -0.0690 -0.0383
    3MOL0     C  286   2.458   0.562   7.730 -0.5498  0.5171 -0.4875
    3MOL0     C  287   2.428   0.561   7.585 -0.2627 -0.5089  0.6533
    3MOL0     C  288   2.428   0.707   7.526  0.0820 -0.6597 -0.9715
    3MOL0     C  289   2.407   0.723   7.376  0.7231  0.1093  0.1806
    3MOL0     C  290   2.291   0.642   7.313 -0.5905 -0.7928 -0.8528
    3MOL0     C  291   2.251   0.709   7.182  0.4015 -0.8309 -1.2829
    3MOL0     C  292   2.173   0.610   7.083  0.3959  0.2452 -1.0991
    3MOL0     N  293   2.142   0.679   6.956 -0.3550  0.0313 -0.7452
    3MOL0     C  294   2.230   0.728   6.871 -0.7880  0.6450 -0.1458
    3MOL0     C  295   2.155   0.800   6.786 -0.4725 -0.2924 -0.4838
    3MOL0     C  296   2.214   0.894   6.678 -0.4392  0.4699  0.8509
    3MOL0     C  297   2.239   1.029   6.740 -0.2387 -0.5004 -0.9016
    3MOL0     C  298   2.322   1.120   6.647  0.5791  0.2693 -0.0288
    3MOL0     C  299   2.341   1.250   6.719 -0.2183 -0.4098 -0.1329
    3MOL0     O  300   2.373   1.349   6.618 -0.3486  0.2040  0.6972
    3MOL0     C  301   2.385   1.480   6.658 -0.2882  0.0361 -0.4644
    3MOL0     C  302   2.405   1.522   6.790  0.4126  0.0273 -0.4113
    3MOL0     C  303   2.410   1.656   6.826 -0.3693 -0.0715  0.2520
    3MOL0     C  304   2.439   1.688   6.973  0.6363 -0.2173  1.4203
    3MOL0     C  305   2.379   1.747   6.722 -0.4639 -0.3953 -0.5587
    3MOL0     C  306   2.361   1.896   6.740 -0.2809 -0.9743 -0.0076
    3MOL0     O  307   2.304   1.984   6.647 -0.6854 -0.6346  0.1598
    3MOL0     C  308   2.309   2.120   6.695  0.8278  0.6906 -0.3257
    3MOL0     C  309   2.215   2.170   6.772 -0.0328 -0.3768 -0.3541
    3MOL0     C  310   2.214   2.315   6.798 -0.5784  0.7855 -0.0947
    3MOL0     C  311   2.304   2.399   6.731 -0.4352  1.1652  0.2214
    3MOL0     O  312   2.310   2.537   6.754  0.1943  0.5833  0.5434
    3MOL0     C  313   2.299   2.581   6.889 -0.4047  0.6274  0.4829
    3MOL0     C  314   2.373   2.713   6.908 -0.2504  0.5979 -0.8808
    3MOL0     C  315   2.522   2.715   6.900  0.1350  0.1832  0.6179
    3MOL0     C  316   2.585   2.697   6.764  0.3338 -0.2856 -0.0569
    3MOL0     C  317   2.732   2.734   6.769 -1.3369  0.3034 -0.9170
    3MOL0     C  318   2.822   2.705   6.651  0.2823 -1.1931  0.4715
    3MOL0     C  319   2.784   2.807   6.536 -0.5025 -0.3329  0.0929
    3MOL0     C  320   2.867   2.803   6.408  0.5781  0.4210 -0.2755
    3MOL0    Cl  321   3.044   2.834   6.448  0.3705  0.2996 -0.0546
    3MOL0     C  322   2.385   2.345   6.628 -0.5851 -0.1955 -0.5162
    3MOL0     C  323   2.384   2.204   6.620 -0.0557 -0.0926 -0.3146
    3MOL0     O  324   2.419   1.939   6.834 -0.2408 -0.0673 -0.0936
    3MOL0     C  325   2.356   1.707   6.593 -0.3576 -0.2892  0.6881
    3MOL0     C  326   2.361   1.574   6.560  0.8308  0.3899  0.6096
    3MOL0     N  327   2.021   0.797   6.825  0.3905  0.1849 -0.1446
    3MOL0     N  328   2.015   0.720   6.929  0.0671 -0.1417  0.5371
    3MOL0     C  329   2.825   0.325   7.675  0.6031  0.8703  0.7627
    3MOL0     C  330   2.957   0.344   7.715 -0.0022  0.6642  0.4033
    3MOL0     C  331   3.339   0.517   7.869 -0.1163 -0.2454 -0.0015
    3MOL0     C  332   3.378   0.419   7.952  0.4431  0.3227 -0.1952
    3MOL0     C  333   3.512   0.409   7.979  1.0009  0.3638  0.0272
    3MOL0     C  334   3.613   0.499   7.939  0.0142  0.6625 -0.3437
    3MOL0     O  335   3.742   0.476   7.974 -0.6773  0.0992  0.1122
    3MOL0     C  336   3.846   0.539   7.898  1.2027  0.0535 -1.0929
    3MOL0     C  337   3.986   0.502   7.959 -0.0996 -0.2252  0.0875
    3MOL0     C  338   4.068   0.395   7.900  0.1331  0.0489  0.2709
    3MOL0     C  339   4.007   0.260   7.925  0.6525 -0.4165  1.0923
    3MOL0     C  340   4.064   0.154   7.837  0.0299  1.0313  0.7320
    3MOL0     C  341   4.110   0.072   7.762  0.0446  0.0910  0.7403
    3MOL0     C  342   3.569   0.608   7.858 -0.1349  0.1327 -0.1827
    3MOL0     C  343   3.431   0.617   7.823 -0.6671  0.2397  0.0278
    3MOL0     C  344   3.396   0.743   7.749  0.3688  0.0527  0.2047
    3MOL0     H  345   2.910   0.498   7.998  1.3713 -0.1274 -0.5402
    3MOL0     H  346   2.683   0.518   7.904 -0.0531 -3.3046  0.4001
    3MOL0     H  347   2.484   0.407   7.888 -2.4449  1.7377  0.1392
    3MOL0     H  348   2.411   0.339   7.745  0.1520 -0.1682 -0.5305
    3MOL0     H  349   2.370   0.608   7.776 -0.1326  0.8808 -0.0334
    3MOL0     H  350   2.546   0.619   7.762 -0.5183 -0.5030  1.3358
    3MOL0     H  351   2.506   0.505   7.533 -1.9808 -0.3484 -2.3537
    3MOL0     H  352   2.344   0.493   7.573 -0.5383  0.0005 -0.3705
    3MOL0     H  353   2.338   0.751   7.569  2.6129  2.7577  1.4079
    3MOL0     H  354   2.520   0.759   7.555 -0.6618  0.8994 -1.2828
    3MOL0     H  355   2.499   0.684   7.330  0.7487  1.5885 -1.0838
    3MOL0     H  356   2.395   0.829   7.352 -1.5779 -0.7640 -3.0976
    3MOL0     H  357   2.318   0.535   7.308 -2.4175 -1.2384 -1.9482
    3MOL0     H  358   2.199   0.640   7.371 -0.1214 -1.0834 -0.0936
    3MOL0     H  359   2.334   0.729   7.114 -0.0438  1.8088 -1.1561
    3MOL0     H  360   2.192   0.798   7.207  1.4936 -1.2910  3.8578
    3MOL0     H  361   2.221   0.514   7.064 -1.7024 -1.1232  0.1191
    3MOL0     H  362   2.074   0.583   7.121  1.6988 -2.6052  0.6389
    3MOL0     H  363   2.338   0.728   6.860 -1.0190  1.7495 -3.4452
    3MOL0     H  364   2.151   0.901   6.589  1.3530 -0.4190 -0.5433
    3MOL0     H  365   2.307   0.848   6.642 -0.8085  0.0599  0.4048
    3MOL0     H  366   2.148   1.080   6.772  1.7037  2.3594  0.4665
    3MOL0     H  367   2.295   1.014   6.833  2.1204 -0.8459 -2.2959
    3MOL0     H  368   2.418   1.080   6.612  1.2633  2.3313 -0.6507
    3MOL0     H  369   2.267   1.144   6.556 -2.4520 -0.7132  1.4348
    3MOL0     H  370   2.250   1.281   6.771 -0.5808  1.8191 -1.9375
    3MOL0     H  371   2.416   1.247   6.798 -1.7599  2.1959  1.6124
    3MOL0     H  372   2.416   1.450   6.871  2.9417  3.0014  2.1850
    3MOL0     H  373   2.449   1.597   7.034  0.8674 -0.9612  0.3017
    3MOL0     H  374   2.346   1.736   7.005  1.3869  1.3511  1.3010
    3MOL0     H  375   2.524   1.754   6.987 -0.3922  1.7830 -1.0659
    3MOL0     H  376   2.144   2.098   6.812 -1.1337  0.1704 -1.2806
    3MOL0     H  377   2.143   2.359   6.867 -1.7226 -1.8234  0.5187
    3MOL0     H  378   2.200   2.592   6.935  1.0530  1.6963  3.6890
    3MOL0     H  379   2.355   2.516   6.957  1.6823  0.9537 -0.8308
    3MOL0     H  380   2.327   2.788   6.843 -1.5506  0.5358 -0.0523
    3MOL0     H  381   2.352   2.762   7.004 -2.9679  1.1986 -1.6986
    3MOL0     H  382   2.560   2.628   6.955  0.4257 -0.3097 -0.3293
    3MOL0     H  383   2.561   2.808   6.942 -2.5062  1.6371  0.0779
    3MOL0     H  384   2.537   2.762   6.691 -1.9658  2.0690  3.2924
    3MOL0     H  385   2.561   2.597   6.726 -0.7300  1.3921 -4.2913
    3MOL0     H  386   2.743   2.834   6.812  1.6039 -0.8170  1.3480
    3MOL0     H  387   2.778   2.669   6.845  0.5534 -0.3117 -2.5013
    3MOL0     H  388   2.802   2.606   6.610  1.6091 -0.1125 -3.1169
    3MOL0     H  389   2.925   2.726   6.682  0.6463 -1.4230 -0.5424
    3MOL0     H  390   2.796   2.911   6.568 -1.5807 -0.0053 -0.5360
    3MOL0     H  391   2.678   2.800   6.513 -0.8140  0.2843  1.2647
    3MOL0     H  392   2.823   2.884   6.348 -3.2567 -0.8784  0.4973
    3MOL0     H  393   2.851   2.718   6.341 -1.1980  0.6881 -0.2496
    3MOL0     H  394   2.451   2.390   6.555 -0.3490 -2.5777 -1.8868
    3MOL0     H  395   2.442   2.164   6.539  0.5610  0.3691 -0.1095
    3MOL0     H  396   2.350   1.780   6.513  3.5876  1.1044  1.4146
    3MOL0     H  397   2.339   1.532   6.462  5.4271 -1.4671  0.1141
    3MOL0     H  398   2.806   0.268   7.585  0.8747  1.3554  0.3894
    3MOL0     H  399   3.032   0.289   7.658 -0.4738 -0.3088  0.6957
    3MOL0     H  400   3.306   0.344   7.986 -0.6520  1.6389  0.4958
    3MOL0     H  401   3.558   0.328   8.037  2.2573  0.2825 -1.0380
    3MOL0     H  402   3.839   0.523   7.790 -1.6190  3.7719 -1.6596
    3MOL0     H  403   3.835   0.648   7.905 -2.3416 -0.2435  0.2127
    3MOL0     H  404   3.986   0.491   8.068  0.7645  1.8132  0.3472
    3MOL0     H  405   4.044   0.593   7.937  3.0601 -2.7616 -3.3001
    3MOL0     H  406   4.093   0.412   7.795  4.5332 -3.0589  0.5314
    3MOL0     H  407   4.164   0.400   7.951 -0.3782 -0.1911  1.2920
    3MOL0     H  408   3.898   0.270   7.916  0.6053 -2.3582 -2.1366
    3MOL0     H  409   4.013   0.230   8.030  1.5814 -2.1628  0.5838
    3MOL0     H  410   4.154   0.004   7.692 -2.7375 -1.4553  0.3005
    3MOL0     H  411   3.638   0.689   7.839 -1.2475  1.3680  0.8775
    3MOL0     H  412   3.343   0.816   7.811  0.0511 -1.1835  1.4292
    3MOL0     H  413   3.489   0.787   7.712 -0.8249  2.4926 -0.0937
    3MOL0     H  414   3.340   0.710   7.661  3.9033 -2.1526 -1.4232
    4MOL0     O  415  10.338   8.413   6.116  0.4391  0.1794  0.6244
    4MOL0     C  416  10.337   8.338   6.029 -0.6064  0.4257  1.1073
    4MOL0     O  417  10.326   8.387   5.902 -0.0219 -0.0953  0.2366
    4MOL0     C  418  10.223   8.342   5.813 -0.3781  0.1648  1.1687
    4MOL0     C  419  10.119   8.263   5.846  0.8168  0.1850  0.1505
    4MOL0     C  420  10.038   8.214   5.753 -0.3807 -0.0217  0.3152
    4MOL0     C  421  10.042   8.234   5.616  0.2308 -0.6919 -0.1796
    4MOL0     O  422   9.959   8.167   5.542 -0.5313 -1.1136 -0.0617
    4MOL0     C  423   9.935   8.229   5.414  0.2058 -0.0162 -0.8505
    4MOL0     C  424  10.029   8.192   5.290  0.4029  0.9064 -0.1728
    4MOL0     C  425  10.143   8.110   5.318  0.8739 -0.1363 -0.1914
    4MOL0     C  426  10.198   8.043   5.201 -1.2932 -0.3111  0.6331
    4MOL0     C  427  10.263   7.908   5.224 -0.4638 -0.2062 -0.4247
    4MOL0     C  428  10.353   7.889   5.352  0.4981 -0.2453 -0.4349
    4MOL0     C  429  10.447   7.773   5.351  0.3946 -0.3668  0.7847
    4MOL0     C  430  10.580   7.816   5.289  0.1660  0.2006  0.2283
    4MOL0     N  431  10.666   7.890   5.387 -0.0675  0.3941  0.8025
    4MOL0     C  432  10.660   8.023   5.403 -0.1518 -0.4690  1.1285
    4MOL0     C  433  10.718   8.044   5.523  0.2910  0.6848 -0.3643
    4MOL0     C  434  10.735   8.180   5.593 -0.2246  0.7325 -0.3145
    4MOL0     C  435  10.814   8.270   5.512 -0.4795 -0.2807 -0.7406
    4MOL0     C  436  10.864   8.379   5.598 -0.3355 -0.8277 -0.0071
    4MOL0     C  437  10.922   8.496   5.532  1.1371  0.1882 -0.6825
    4MOL0     O  438  11.041   8.452   5.464  0.4110 -0.2438 -0.4408
    4MOL0     C  439  11.130   8.548   5.420  0.0444 -0.1115  0.2553
    4MOL0     C  440  11.104   8.689   5.408 -0.0776 -0.3995 -0.0682
    4MOL0     C  441  11.205   8.773   5.364  1.4959 -0.9810  0.5791
    4MOL0     C  442  11.187   8.922   5.384  0.2446 -0.4927 -1.3358
    4MOL0     C  443  11.330   8.714   5.315 -0.0246 -0.3222  0.5644
    4MOL0     C  444  11.436   8.795   5.255  0.6482 -0.1181  0.6633
    4MOL0     O  445  11.399   8.908   5.185  0.2387 -0.6358  0.2046
    4MOL0     C  446  11.498   8.995   5.142 -0.5848  0.3459  0.2648
    4MOL0     C  447  11.518   9.004   5.010  1.2652  0.6119  0.5200
    4MOL0     C  448  11.603   9.093   4.948  0.4749 -0.7821 -0.6767
    4MOL0     C  449  11.688   9.171   5.033  0.0137 -0.7456  0.2662
    4MOL0     O  450  11.780   9.253   4.973  0.5920  0.0443  0.1965
    4MOL0     C  451  11.799   9.374   5.037  0.2520 -0.9922  0.3789
    4MOL0     C  452  11.897   9.452   4.951  0.1791  0.3022  0.0390
    4MOL0     C  453  11.841   9.495   4.813 -0.0844 -0.4967 -0.6070
    4MOL0     C  454  11.857   9.395   4.701 -0.0144  0.1769  0.0756
    4MOL0     C  455  11.851   9.466   4.564 -0.1294  0.5264  0.3921
    4MOL0     C  456  11.899   9.368   4.458  0.6878  0.0485  0.8222
    4MOL0     C  457  11.880   9.407   4.308  0.0446  1.0948  0.0495
    4MOL0     C  458  11.950   9.532   4.269 -0.5173 -0.1861 -0.2080
    4MOL0    Cl  459  11.956   9.536   4.092 -0.1762  0.0369 -0.2418
    4MOL0     C  460  11.669   9.164   5.175 -0.3142  0.4677 -0.2447
    4MOL0     C  461  11.574   9.081   5.220 -0.1014  1.0674 -0.1434
    4MOL0     O  462  11.551   8.764   5.277  0.4980 -0.4720 -0.5217
    4MOL0     C  463  11.354   8.572   5.325 -0.0597  0.0587 -0.0007
    4MOL0     C  464  11.254   8.493   5.379  0.1396 -0.1984  0.2195
    4MOL0     N  465  10.739   7.922   5.582  0.4418  0.3678  0.1091
    4MOL0     N  466  10.706   7.826   5.503  0.0068  0.1599 -0.4146
    4MOL0     C  467  10.148   8.329   5.580  0.6430 -0.1730 -0.0979
    4MOL0     C  468  10.231   8.388   5.678 -0.9662 -0.6940  0.5623
    4MOL0     C  469  10.359   8.199   6.074  0.5959  0.2851  0.1853
    4MOL0     C  470  10.327   8.161   6.213 -0.2058 -0.0019 -0.2182
    4MOL0     C  471  10.361   8.039   6.269 -0.4296 -0.4044 -0.7749
    4MOL0     C  472  10.426   7.943   6.193  0.0751 -0.4430 -0.0745
    4MOL0     O  473  10.455   7.821   6.255 -0.1825  0.2090 -0.0559
    4MOL0     C  474  10.539   7.735   6.184 -0.2291  0.4872 -0.4180
    4MOL0     C  475  10.604   7.643   6.291  0.5469 -0.1979  0.0562
    4MOL0     C  476  10.672   7.729   6.395 -0.0984 -0.4943  0.8896
    4MOL0     C  477  10.784   7.670   6.467 -0.0038 -0.5693  0.7744
    4MOL0     C  478  10.842   7.767   6.569 -0.5213  0.1385 -0.0871
    4MOL0     C  479  10.863   7.834   6.669 -0.4434  0.3698  0.4727
    4MOL0     C  480  10.456   7.974   6.057 -0.2799  0.3767 -0.2648
    4MOL0     C  481  10.427   8.099   6.002  0.1752 -0.1136 -0.0441
    4MOL0     C  482  10.471   8.137   5.861 -0.3958  0.8023 -0.1975
    4MOL0     H  483  10.102   8.223   5.946 -0.6750 -1.5922 -0.7585
    4MOL0     H  484   9.957   8.151   5.789 -1.9125  1.9430  0.4900
    4MOL0     H  485   9.926   8.336   5.434  0.8899 -0.6697  4.3447
    4MOL0     H  486   9.837   8.194   5.383 -1.6158  2.2688  1.8314
    4MOL0     H  487   9.967   8.141   5.215  1.7760 -3.7339  1.4592
    4MOL0     H  488  10.067   8.286   5.249  2.2408 -0.5202 -1.9643
    4MOL0     H  489  10.227   8.166   5.361  2.5659 -1.9194 -1.0028
    4MOL0     H  490  10.111   8.047   5.401 -0.9910  0.4026 -0.4666
    4MOL0     H  491  10.122   8.017   5.126 -1.5214  0.7838  0.4749
    4MOL0     H  492  10.276   8.108   5.160 -1.2018  0.1704  1.5452
    4MOL0     H  493  10.322   7.886   5.135 -2.4165 -2.2439 -1.3204
    4MOL0     H  494  10.185   7.831   5.225  1.1224 -1.9335 -1.9653
    4MOL0     H  495  10.405   7.981   5.379  0.7754 -0.5597  0.1077
    4MOL0     H  496  10.285   7.881   5.437  2.2730  1.7767  1.2779
    4MOL0     H  497  10.403   7.699   5.284 -0.8003  1.9356 -1.1411
    4MOL0     H  498  10.466   7.727   5.448 -3.6119 -2.1136  0.9326
    4MOL0     H  499  10.632   7.727   5.253 -0.1909 -0.2956  0.9148
    4MOL0     H  500  10.548   7.877   5.203  1.2111  0.1379 -0.2212
    4MOL0     H  501  10.626   8.106   5.343  0.5319 -1.2065 -0.3125
    4MOL0     H  502  10.777   8.173   5.694  1.4428 -0.1542 -1.0219
    4MOL0     H  503  10.636   8.226   5.596  0.4100  2.2542 -1.3722
    4MOL0     H  504  10.906   8.223   5.479  0.3581  3.8814 -5.6607
    4MOL0     H  505  10.758   8.309   5.426 -1.3495  2.9646  1.1082
    4MOL0     H  506  10.780   8.411   5.661  0.9569  3.0454  0.0639
    4MOL0     H  507  10.944   8.338   5.660  0.7500 -0.1648 -0.9333
    4MOL0     H  508  10.854   8.555   5.469  0.0976 -1.0499 -0.7764
    4MOL0     H  509  10.951   8.560   5.616 -5.0515  2.7006  0.0623
    4MOL0     H  510  11.010   8.739   5.430 -1.3300 -2.0631 -1.3795
    4MOL0     H  511  11.169   8.976   5.291 -2.4205  2.1275  0.5337
    4MOL0     H  512  11.281   8.952   5.431  0.2307 -1.3388 -0.7301
    4MOL0     H  513  11.106   8.943   5.455 -1.4114 -2.9232 -2.3622
    4MOL0     H  514  11.453   8.939   4.953  2.3003  1.1956 -1.4224
    4MOL0     H  515  11.620   9.091   4.841  1.1601 -0.8807 -0.5731
    4MOL0     H  516  11.705   9.430   5.032  0.9539  0.1372 -1.1867
    4MOL0     H  517  11.837   9.351   5.137  1.3346 -0.4878  0.0902
    4MOL0     H  518  11.915   9.545   5.005 -0.2405  2.1470 -2.7828
    4MOL0     H  519  11.990   9.395   4.939  1.1412  1.1991  2.5645
    4MOL0     H  520  11.891   9.589   4.787 -1.8380  0.4167 -0.8413
    4MOL0     H  521  11.734   9.516   4.818  0.2301  1.7204 -1.6681
    4MOL0     H  522  11.777   9.321   4.712 -1.0130  1.5173  2.7286
    4MOL0     H  523  11.955   9.348   4.712 -0.7373 -1.2211  0.8249
    4MOL0     H  524  11.745   9.485   4.544 -0.6902 -1.3574  1.3118
    4MOL0     H  525  11.903   9.562   4.567 -0.6500  0.8370 -0.3073
    4MOL0     H  526  11.855   9.269   4.475  3.4625 -1.8137 -1.8055
    4MOL0     H  527  12.003   9.351   4.485  0.9753 -1.7354 -1.1081
    4MOL0     H  528  11.776   9.420   4.275 -0.2102 -2.2922 -0.8306
    4MOL0     H  529  11.927   9.339   4.236 -0.5255  1.1998 -0.4379
    4MOL0     H  530  12.051   9.528   4.311  0.1839 -0.0130 -1.8019
    4MOL0     H  531  11.897   9.615   4.317  1.6422  0.4131  1.2798
    4MOL0     H  532  11.733   9.223   5.240  2.0853 -1.0522 -1.1270
    4MOL0     H  533  11.559   9.072   5.327 -3.2956 -2.3362 -0.6623
    4MOL0     H  534  11.449   8.534   5.290  0.6719 -0.5693  2.4843
    4MOL0     H  535  11.272   8.388   5.396  1.7306 -0.0495 -0.4142
    4MOL0     H  536  10.171   8.364   5.480  1.2089  0.4503  0.2395
    4MOL0     H  537  10.304   8.465   5.657 -1.9727  0.0548 -0.3217
    4MOL0     H  538  10.286   8.228   6.288  3.5061 -1.6481  3.6723
    4MOL0     H  539  10.340   8.028   6.375  2.1533  4.9268  0.6139
    4MOL0     H  540  10.485   7.677   6.108  0.4655 -0.5619 -0.1370
    4MOL0     H  541  10.616   7.792   6.132 -0.7292  2.4674  0.9162
    4MOL0     H  542  10.683   7.582   6.247  0.9926  2.3252 -3.0472
    4MOL0     H  543  10.523   7.583   6.333  0.6786 -0.4291 -0.0205
    4MOL0     H  544  10.702   7.815   6.334  1.0457 -0.7675  1.0410
    4MOL0     H  545  10.598   7.764   6.468  0.8354 -0.4818  1.8678
    4MOL0     H  546  10.861   7.647   6.393  0.7607  0.8564  1.0911
    4MOL0     H  547  10.747   7.582   6.520 -1.1639  0.7350  2.2208
    4MOL0     H  548  10.901   7.869   6.763 -0.2424  1.3751  0.0337
    4MOL0     H  549  10.500   7.900   5.991  0.2768  1.1655 -0.7867
    4MOL0     H  550  10.562   8.081   5.836  1.0896  3.4635 -1.2019
    4MOL0     H  551  10.396   8.117   5.784 -1.1019  1.8963  0.1816
    4MOL0     H  552  10.522   8.234   5.857  4.2736 -1.2502  1.4338
    5MOL0     O  553   1.922   9.764   6.146  0.0982 -0.1760 -0.6065
    5MOL0     C  554   1.851   9.854   6.183  0.7769  0.0306  0.4001
    5MOL0     O  555   1.865   9.975   6.142 -0.5190  0.2359 -0.2445
    5MOL0     C  556   1.944  10.014   6.033  0.5549  0.2092 -0.2541
    5MOL0     C  557   2.081  10.007   6.029 -0.3596 -0.9098  0.7386
    5MOL0     C  558   2.163  10.051   5.925  0.0122  0.1536  0.5890
    5MOL0     C  559   2.102  10.115   5.818  1.4547 -1.4130 -0.3152
    5MOL0     O  560   2.166  10.164   5.706 -0.4141  0.2439 -0.9374
    5MOL0     C  561   2.279  10.090   5.657 -0.1327  0.3769 -0.1929
    5MOL0     C  562   2.300  10.150   5.521 -0.2749 -0.3353 -0.6317
    5MOL0     C  563   2.361  10.293   5.542 -0.3084  0.8159  1.5128
    5MOL0     C  564   2.436  10.342   5.418 -0.1496  0.1326 -0.9801
    5MOL0     C  565   2.486  10.488   5.446 -0.8516  0.1071 -0.0028
    5MOL0     C  566   2.550  10.540   5.310 -0.0646 -0.9707 -1.5689
    5MOL0     C  567   2.557  10.686   5.297  0.2660 -0.1278  0.1830
    5MOL0     C  568   2.663  10.722   5.196  0.4447 -0.5971 -0.7720
    5MOL0     N  569   2.801  10.701   5.248  0.2609 -0.2853 -0.6526
    5MOL0     C  570   2.905  10.653   5.172  0.2090 -0.1312 -0.5075
    5MOL0     C  571   3.017  10.672   5.252  0.6052  0.8968  0.1661
    5MOL0     C  572   3.161  10.621   5.223  0.3184 -0.7473 -0.3369
    5MOL0     C  573   3.262  10.653   5.331  0.0769 -0.5019  0.7859
    5MOL0     C  574   3.399  10.596   5.307  0.5275 -0.1172 -0.8381
    5MOL0     C  575   3.487  10.617   5.434  0.4823  0.4075  0.5046
    5MOL0     O  576   3.629  10.589   5.403  0.0990 -0.8003 -0.2591
    5MOL0     C  577   3.696  10.560   5.516  0.3235  1.2819  1.0736
    5MOL0     C  578   3.684  10.623   5.640  0.2520 -0.4908  0.0622
    5MOL0     C  579   3.748  10.574   5.758  0.1864 -0.0816 -0.6588
    5MOL0     C  580   3.698  10.647   5.884  0.3370  0.4996 -0.7560
    5MOL0     C  581   3.847  10.479   5.750 -0.5214  0.1750 -0.5357
    5MOL0     C  582   3.938  10.432   5.862 -0.5417  0.2078 -0.4311
    5MOL0     O  583   4.046  10.366   5.834 -0.3530 -0.7202  0.0748
    5MOL0     C  584   4.163  10.377   5.897 -0.3624  0.1466  0.4094
    5MOL0     C  585   4.273  10.311   5.836 -0.3318  0.6455 -0.4030
    5MOL0     C  586   4.407  10.320   5.879  0.0383 -0.0595  0.3631
    5MOL0     C  587   4.433  10.395   5.995 -0.3813  0.7589 -0.4237
    5MOL0     O  588   4.554  10.388   6.060  0.3775  0.2258 -1.1510
    5MOL0     C  589   4.667  10.341   5.992 -0.1812 -0.3252  0.3750
    5MOL0     C  590   4.750  10.306   6.111 -0.2619 -0.8255  0.8817
    5MOL0     C  591   4.882  10.283   6.068 -0.8420 -0.5353  0.4074
    5MOL0     C  592   4.970  10.416   6.070 -0.3222  0.0717  1.1298
    5MOL0     C  593   5.112  10.398   5.991 -0.3698 -0.0563 -1.1874
    5MOL0     C  594   5.089  10.355   5.848 -0.3809 -0.1969  0.6876
    5MOL0     C  595   5.095  10.203   5.826 -0.0220 -0.3811  1.1108
    5MOL0     C  596   5.236  10.165   5.785 -0.3760 -0.2222 -0.8773
    5MOL0    Cl  597   5.259   9.989   5.768 -0.2651  0.2769  0.1340
    5MOL0     C  598   4.323  10.455   6.062 -1.0825 -0.5277 -0.7101
    5MOL0     C  599   4.193  10.452   6.013  0.8501 -0.4548 -0.0996
    5MOL0     O  600   3.901  10.446   5.977  0.3153  0.4276  0.3163
    5MOL0     C  601   3.877  10.424   5.628  0.2357 -0.4340 -0.1953
    5MOL0     C  602   3.805  10.466   5.508 -0.7632 -0.2070 -0.0271
    5MOL0     N  603   2.973  10.711   5.376  0.1877  0.0443 -0.7408
    5MOL0     N  604   2.845  10.729   5.376 -0.7870 -0.0469  0.1222
    5MOL0     C  605   1.963  10.129   5.810 -1.0728 -0.1652  1.1048
    5MOL0     C  606   1.883  10.063   5.914  0.7765  0.4244  0.3865
    5MOL0     C  607   1.746   9.830   6.277 -0.2399  0.2723  0.5632
    5MOL0     C  608   1.691   9.930   6.340 -0.0829 -0.3204 -0.0683
    5MOL0     C  609   1.577   9.923   6.414 -0.1154 -0.5421 -0.3266
    5MOL0     C  610   1.502   9.806   6.424  0.7506 -0.4844 -0.3211
    5MOL0     O  611   1.370   9.800   6.474  0.6299  0.0471  0.2308
    5MOL0     C  612   1.313   9.895   6.558 -0.3811 -0.6204  0.0758
    5MOL0     C  613   1.195   9.837   6.628 -1.1680  0.0141 -0.5240
    5MOL0     C  614   1.225   9.709   6.699  0.2985  0.3343 -0.1005
    5MOL0     C  615   1.098   9.671   6.776  0.5762 -0.7026  0.1166
    5MOL0     C  616   1.115   9.542   6.833  0.2916 -0.0014  0.0530
    5MOL0     C  617   1.130   9.430   6.875  0.6461 -0.1452  1.2497
    5MOL0     C  618   1.559   9.697   6.358 -0.1261  0.1563 -0.1361
    5MOL0     C  619   1.686   9.700   6.288 -1.0112  0.3005  0.9011
    5MOL0     C  620   1.729   9.566   6.236 -0.1904 -0.3417  0.2569
    5MOL0     H  621   2.123   9.951   6.112  0.8201  0.0314  0.8169
    5MOL0     H  622   2.271  10.042   5.921  0.1644  1.7045  0.6267
    5MOL0     H  623   2.248   9.985   5.654  2.3814 -0.4017 -1.9997
    5MOL0     H  624   2.373  10.104   5.710  1.6642 -1.2885 -2.7144
    5MOL0     H  625   2.366  10.086   5.462 -2.8177  0.5093 -4.8024
    5MOL0     H  626   2.203  10.154   5.470  0.4809 -3.6948 -2.6573
    5MOL0     H  627   2.282  10.364   5.568 -1.8188  0.7643 -2.2639
    5MOL0     H  628   2.434  10.290   5.624 -0.4037 -0.1084  1.5763
    5MOL0     H  629   2.527  10.284   5.400 -0.2232 -0.0699 -0.6982
    5MOL0     H  630   2.386  10.321   5.322  0.0316 -2.5352 -0.5660
    5MOL0     H  631   2.555  10.487   5.531  0.1094 -0.0699 -0.7690
    5MOL0     H  632   2.401  10.544   5.485 -2.0993 -3.9194  3.9431
    5MOL0     H  633   2.652  10.500   5.310  0.8594  1.1980 -3.0622
    5MOL0     H  634   2.498  10.504   5.221 -1.2669 -0.0641 -1.2551
    5MOL0     H  635   2.586  10.743   5.386  1.8730 -1.0514  0.2790
    5MOL0     H  636   2.464  10.737   5.269  0.0011 -0.6009  0.2039
    5MOL0     H  637   2.632  10.668   5.106 -2.5267  0.6122 -0.5769
    5MOL0     H  638   2.654  10.825   5.160  1.2889 -0.3580 -0.3310
    5MOL0     H  639   2.894  10.603   5.076 -3.6002  0.9657 -0.8058
    5MOL0     H  640   3.198  10.667   5.131 -1.3011  3.6558  0.9372
    5MOL0     H  641   3.165  10.513   5.204 -0.2422 -0.6855 -0.8288
    5MOL0     H  642   3.276  10.762   5.334 -2.0851 -0.1792  1.4259
    5MOL0     H  643   3.222  10.616   5.425 -0.7692 -2.8690 -0.4260
    5MOL0     H  644   3.405  10.488   5.287  0.8919 -1.3027  4.2177
    5MOL0     H  645   3.438  10.652   5.221 -1.9458  2.8397 -0.1988
    5MOL0     H  646   3.481  10.723   5.457  0.2829  1.0635 -2.2794
    5MOL0     H  647   3.458  10.553   5.519 -0.5946  0.9414  0.5514
    5MOL0     H  648   3.618  10.709   5.638 -0.4886 -1.0654 -1.0067
    5MOL0     H  649   3.754  10.645   5.978 -1.7209 -0.5082  0.5170
    5MOL0     H  650   3.601  10.610   5.919  0.7420  0.5629  0.4860
    5MOL0     H  651   3.690  10.755   5.863 -2.0891  0.8622  1.5164
    5MOL0     H  652   4.242  10.250   5.752  2.3213  0.3667 -1.2760
    5MOL0     H  653   4.472  10.246   5.835 -0.2855 -0.7805  1.0716
    5MOL0     H  654   4.648  10.252   5.931  0.7703  0.2114 -0.7377
    5MOL0     H  655   4.715  10.427   5.945  0.0529  1.3998  3.4998
    5MOL0     H  656   4.745  10.388   6.183 -1.2466 -0.8007  0.8005
    5MOL0     H  657   4.720  10.212   6.158  0.9991 -2.8720 -2.1007
    5MOL0     H  658   4.878  10.244   5.965  0.4199 -2.7889  1.1400
    5MOL0     H  659   4.940  10.212   6.128  0.9330  0.8383  0.3829
    5MOL0     H  660   4.997  10.441   6.173  4.0885  1.3258 -0.0819
    5MOL0     H  661   4.920  10.499   6.019  0.5876 -0.1183 -0.1365
    5MOL0     H  662   5.176  10.486   5.998  0.9999 -1.0474  4.4190
    5MOL0     H  663   5.174  10.320   6.037  1.0143  1.2684 -0.7487
    5MOL0     H  664   5.161  10.403   5.780 -0.0060 -2.9050 -0.9751
    5MOL0     H  665   4.991  10.393   5.820 -0.3704  0.7232  1.8359
    5MOL0     H  666   5.041  10.167   5.737 -1.1838 -1.3590  2.1749
    5MOL0     H  667   5.060  10.146   5.912 -1.7119 -2.6343 -0.9282
    5MOL0     H  668   5.306  10.197   5.863 -1.4494  0.1979 -0.0580
    5MOL0     H  669   5.268  10.215   5.693  1.8724  0.9953  0.4824
    5MOL0     H  670   4.347  10.511   6.152 -1.9839 -0.0513 -0.7519
    5MOL0     H  671   4.112  10.514   6.049 -0.5230 -1.3864 -1.4740
    5MOL0     H  672   3.944  10.340   5.623  1.7762  0.7861 -1.0671
    5MOL0     H  673   3.828  10.410   5.418  2.1303 -0.5352  0.8163
    5MOL0     H  674   1.927  10.177   5.719 -0.6513  2.1452  2.0979
    5MOL0     H  675   1.775  10.056   5.906  0.8985 -1.9751  0.0946
    5MOL0     H  676   1.723  10.032   6.319 -4.8745  1.6199  0.5363
    5MOL0     H  677   1.549  10.023   6.446  0.1635  0.7039 -3.5202
    5MOL0     H  678   1.384   9.922   6.637 -1.9151  0.2239  1.2300
    5MOL0     H  679   1.283   9.987   6.507 -0.5710 -1.2524 -0.9827
    5MOL0     H  680   1.118   9.810   6.554 -1.1299  2.3730 -1.4972
    5MOL0     H  681   1.155   9.915   6.693 -1.1717  0.3143 -0.8859
    5MOL0     H  682   1.261   9.629   6.633 -0.1352  1.7410 -2.1274
    5MOL0     H  683   1.301   9.733   6.774 -1.5225  1.6300  1.3986
    5MOL0     H  684   1.010   9.669   6.712 -0.6291 -4.3348  1.6343
    5MOL0     H  685   1.091   9.750   6.851  0.8683  0.5717 -1.1485
    5MOL0     H  686   1.116   9.344   6.938 -1.8433  1.1604  2.6646
    5MOL0     H  687   1.498   9.608   6.350 -0.5000  0.2497  1.4064
    5MOL0     H  688   1.704   9.492   6.312 -1.1655  0.2064  0.4879
    5MOL0     H  689   1.691   9.541   6.136  1.4681 -1.8496 -0.0492
    5MOL0     H  690   1.837   9.554   6.226  0.1381  2.0937  0.4042
    6MOL0     O  691   2.567   5.255   6.468 -0.6795 -0.2058  0.3629
    6MOL0     C  692   2.638   5.328   6.396  0.2536  0.1004  0.6661
    6MOL0     O  693   2.638   5.464   6.378  0.7024 -0.1013 -0.6748
    6MOL0     C  694   2.617   5.549   6.481 -0.2436 -0.3515 -0.4472
    6MOL0     C  695   2.585   5.684   6.456  0.6878  0.0762 -0.6573
    6MOL0     C  696   2.577   5.777   6.556  0.1934  0.1939  0.1460
    6MOL0     C  697   2.591   5.743   6.692 -0.1033 -0.0897 -0.0135
    6MOL0     O  698   2.569   5.828   6.799  0.1894 -0.2224 -0.0166
    6MOL0     C  699   2.597   5.972   6.790 -0.1344  0.7106  0.2082
    6MOL0     C  700   2.587   6.034   6.927 -0.1283 -1.1969  0.2597
    6MOL0     C  701   2.441   6.031   6.962  0.6667  0.0916 -0.0819
    6MOL0     C  702   2.403   6.078   7.105  0.5498 -0.1804 -0.5974
    6MOL0     C  703   2.262   6.146   7.118  0.3175 -0.3180 -0.1375
    6MOL0     C  704   2.251   6.257   7.008  0.3230  0.1498 -0.8170
    6MOL0     C  705   2.143   6.370   7.034 -0.5714 -0.2763 -0.2473
    6MOL0     C  706   2.151   6.492   6.940  1.0748 -0.4592 -0.9746
    6MOL0     N  707   2.113   6.473   6.798 -0.4192  0.4574 -0.6681
    6MOL0     C  708   2.199   6.448   6.705  0.2240 -0.4669 -1.1109
    6MOL0     C  709   2.125   6.421   6.595  0.3247  0.6191  0.3747
    6MOL0     C  710   2.167   6.352   6.466  0.4096 -0.3395  1.0746
    6MOL0     C  711   2.052   6.355   6.358 -0.1459 -0.0458  0.6749
    6MOL0     C  712   2.046   6.499   6.285  0.0437  0.7978  0.0809
    6MOL0     C  713   1.935   6.504   6.174  0.7984  0.3942 -0.4863
    6MOL0     O  714   1.807   6.523   6.224 -0.2737 -0.4149  0.5146
    6MOL0     C  715   1.753   6.649   6.203 -0.1593  0.7565 -0.4156
    6MOL0     C  716   1.821   6.774   6.204 -0.5099 -0.0529  0.3415
    6MOL0     C  717   1.751   6.894   6.191 -0.2255  0.6482 -0.6125
    6MOL0     C  718   1.820   7.017   6.167 -0.2631  0.5732 -0.5804
    6MOL0     C  719   1.609   6.884   6.203  1.1145 -0.9747 -0.1181
    6MOL0     C  720   1.533   7.003   6.234  0.5942 -0.6716 -0.4874
    6MOL0     O  721   1.416   7.007   6.179  0.6037 -0.2098  1.3657
    6MOL0     C  722   1.337   7.116   6.172  0.0324 -1.1122  0.0557
    6MOL0     C  723   1.387   7.248   6.154  0.3790  0.8097  0.2476
    6MOL0     C  724   1.297   7.349   6.145 -0.0062 -1.4307 -0.6735
    6MOL0     C  725   1.154   7.321   6.133  0.3334 -0.9752  0.7470
    6MOL0     O  726   1.061   7.420   6.113  0.5114 -0.8567 -0.2802
    6MOL0     C  727   1.031   7.497   6.234 -0.1018  0.1134  0.8963
    6MOL0     C  728   0.931   7.407   6.317 -0.0936  0.2215  0.2571
    6MOL0     C  729   0.793   7.411   6.256  0.7564  0.5346  0.7062
    6MOL0     C  730   0.681   7.325   6.322 -0.3376 -1.0380  1.0492
    6MOL0     C  731   0.683   7.178   6.277 -0.6135  0.1150 -0.1716
    6MOL0     C  732   0.576   7.086   6.344  0.4721  0.2412  1.1048
    6MOL0     C  733   0.549   6.942   6.285  0.4363  0.6521 -0.4184
    6MOL0     C  734   0.507   6.853   6.405  0.2827  0.0368  0.1566
    6MOL0    Cl  735   0.357   6.913   6.475  0.0759  0.2684  0.0658
    6MOL0     C  736   1.109   7.191   6.153 -0.5199 -0.1078 -0.4721
    6MOL0     C  737   1.198   7.094   6.176 -0.4079  0.3921 -0.1494
    6MOL0     O  738   1.584   7.085   6.307  0.1754 -0.1039  0.4638
    6MOL0     C  739   1.540   6.762   6.208 -0.8249 -0.8918 -1.1380
    6MOL0     C  740   1.618   6.650   6.214  1.2381 -0.0198  0.4149
    6MOL0     N  741   1.989   6.434   6.629  0.1795 -0.4975  0.1768
    6MOL0     N  742   1.982   6.455   6.759  0.0336 -0.0382  1.0551
    6MOL0     C  743   2.621   5.612   6.721 -0.0596  0.0151  0.9901
    6MOL0     C  744   2.632   5.513   6.613  0.4873  0.3059 -0.0998
    6MOL0     C  745   2.711   5.252   6.294 -0.5255  0.3344 -0.2430
    6MOL0     C  746   2.741   5.315   6.177  0.2531 -0.2789  0.5289
    6MOL0     C  747   2.810   5.262   6.065  0.0299  0.3156 -0.4459
    6MOL0     C  748   2.847   5.119   6.076 -0.2765 -0.0453 -0.5904
    6MOL0     O  749   2.902   5.055   5.966 -1.3288  0.9787  0.0540
    6MOL0     C  750   2.922   5.116   5.835  0.5756  0.0618  0.8442
    6MOL0     C  751   2.923   5.020   5.716  0.1920  0.2522 -0.5021
    6MOL0     C  752   3.030   4.909   5.745 -0.3663 -1.2999 -0.1373
    6MOL0     C  753   3.188   4.954   5.729  0.2667  0.2461  1.0119
    6MOL0     C  754   3.222   5.063   5.634  0.3120 -0.6859 -0.6409
    6MOL0     C  755   3.229   5.142   5.542 -0.4445 -0.1414  0.9310
    6MOL0     C  756   2.798   5.046   6.187 -1.2401  0.2264  0.5343
    6MOL0     C  757   2.746   5.108   6.304 -0.1293 -0.4648  0.1160
    6MOL0     C  758   2.725   5.022   6.430  0.2500  0.3658 -0.6462
    6MOL0     H  759   2.573   5.727   6.358 -1.3252  0.0208 -0.4663
    6MOL0     H  760   2.548   5.877   6.526  3.4619  1.0187 -0.6004
    6MOL0     H  761   2.547   6.026   6.709  1.8003  2.8321  0.3285
    6MOL0     H  762   2.701   5.959   6.759  0.2480 -0.5668  1.8640
    6MOL0     H  763   2.637   5.984   7.010 -0.0566 -0.3401  0.7511
    6MOL0     H  764   2.627   6.136   6.930 -0.0313 -1.2638  2.0277
    6MOL0     H  765   2.391   6.093   6.887  1.6908 -0.5529 -1.3336
    6MOL0     H  766   2.398   5.933   6.942  1.8023 -0.7757  1.4669
    6MOL0     H  767   2.425   5.984   7.156  2.0623  0.3547 -0.2043
    6MOL0     H  768   2.479   6.150   7.139  0.4228 -0.2883 -0.0759
    6MOL0     H  769   2.234   6.177   7.219 -1.1937 -2.5447  0.1803
    6MOL0     H  770   2.185   6.072   7.094 -0.5775  0.7317 -0.6052
    6MOL0     H  771   2.349   6.307   7.002  1.1584 -1.5384 -2.3552
    6MOL0     H  772   2.223   6.201   6.918  2.3568 -1.4728 -0.5287
    6MOL0     H  773   2.158   6.389   7.141  0.9308  0.0246 -0.4972
    6MOL0     H  774   2.043   6.327   7.025  0.4655 -2.9642  0.0518
    6MOL0     H  775   2.079   6.565   6.978  1.3731  0.7946 -2.7270
    6MOL0     H  776   2.249   6.540   6.948  1.2454 -0.9185  5.2696
    6MOL0     H  777   2.303   6.425   6.724  0.8559  0.2242 -3.3715
    6MOL0     H  778   2.180   6.244   6.477 -1.0290 -0.4229  2.4851
    6MOL0     H  779   2.263   6.395   6.437  0.0675  0.4347  1.0796
    6MOL0     H  780   2.074   6.275   6.287 -1.1656  0.0306  0.2637
    6MOL0     H  781   1.951   6.334   6.393 -0.9864  3.2168  0.5960
    6MOL0     H  782   2.014   6.573   6.359 -1.2615  0.5110 -0.1831
    6MOL0     H  783   2.145   6.527   6.248 -0.1203 -1.0037 -1.8545
    6MOL0     H  784   1.956   6.570   6.090  0.5187 -1.3445 -1.9640
    6MOL0     H  785   1.931   6.405   6.128  1.0006  0.7936 -1.3699
    6MOL0     H  786   1.929   6.783   6.210 -0.6426  0.6079  2.8472
    6MOL0     H  787   1.908   6.995   6.107 -0.6458 -1.4627 -0.4494
    6MOL0     H  788   1.861   7.044   6.265  0.1464 -1.4863 -0.1352
    6MOL0     H  789   1.762   7.089   6.109 -1.2177 -0.6486 -1.1884
    6MOL0     H  790   1.491   7.277   6.161  1.4826 -2.5424 -0.6614
    6MOL0     H  791   1.328   7.453   6.149  1.0419 -1.7570  0.0269
    6MOL0     H  792   1.123   7.517   6.290  0.6646  0.5016 -0.4416
    6MOL0     H  793   0.990   7.595   6.207 -1.2552 -0.9360 -1.4767
    6MOL0     H  794   0.966   7.305   6.336  1.9044  0.4745 -1.7453
    6MOL0     H  795   0.920   7.440   6.421 -1.9287 -0.4135  0.3069
    6MOL0     H  796   0.810   7.380   6.153  2.6722 -2.7056  1.8570
    6MOL0     H  797   0.761   7.515   6.268  0.0909  0.0744  4.0554
    6MOL0     H  798   0.586   7.368   6.289  0.7581 -0.0363 -1.0078
    6MOL0     H  799   0.698   7.343   6.429  2.3526 -0.9341  0.6835
    6MOL0     H  800   0.656   7.172   6.171  1.7412  1.1316 -0.8847
    6MOL0     H  801   0.788   7.148   6.284 -0.2297  1.1221 -1.3206
    6MOL0     H  802   0.481   7.140   6.348 -0.6665 -0.9575 -3.5406
    6MOL0     H  803   0.601   7.083   6.450  4.7358  4.3495  0.5370
    6MOL0     H  804   0.633   6.902   6.227 -0.2234 -1.7958  0.2033
    6MOL0     H  805   0.468   6.947   6.211  0.1173 -1.4936 -0.2953
    6MOL0     H  806   0.583   6.860   6.484  0.1068 -2.1803  0.5907
    6MOL0     H  807   0.502   6.751   6.366  3.2366 -0.1520  0.0175
    6MOL0     H  808   1.002   7.173   6.143 -0.6779  1.0016 -0.9459
    6MOL0     H  809   1.171   6.989   6.179 -0.6462  0.4396 -0.6537
    6MOL0     H  810   1.436   6.754   6.235 -1.0410  1.3057 -1.1904
    6MOL0     H  811   1.580   6.549   6.224  1.5358 -0.1796 -0.0615
    6MOL0     H  812   2.625   5.584   6.826  1.4098 -1.3646  0.6087
    6MOL0     H  813   2.652   5.410   6.640  1.5161  0.3683 -0.5905
    6MOL0     H  814   2.714   5.420   6.169  2.0682  0.3248  1.5291
    6MOL0     H  815   2.817   5.328   5.979 -0.8834  0.3390 -0.5140
    6MOL0     H  816   2.843   5.191   5.821  0.5021 -0.1249  0.2117
    6MOL0     H  817   3.014   5.173   5.822  0.7162 -0.4559 -0.6628
    6MOL0     H  818   2.924   5.060   5.614 -0.4783  1.2593 -0.1280
    6MOL0     H  819   2.825   4.971   5.710 -1.1869  2.9876 -3.5531
    6MOL0     H  820   3.011   4.867   5.845 -0.8686 -0.3060  0.2063
    6MOL0     H  821   3.009   4.842   5.662 -0.3866 -0.2434 -1.0042
    6MOL0     H  822   3.252   4.867   5.714 -2.1354 -1.0814 -3.4640
    6MOL0     H  823   3.212   5.001   5.824 -3.4779  0.9510  1.7573
    6MOL0     H  824   3.239   5.216   5.465  1.0789  0.3905  1.5990
    6MOL0     H  825   2.828   4.944   6.210 -3.1876 -0.1975  1.3331
    6MOL0     H  826   2.726   5.069   6.529  0.8930  0.4440 -0.6822
    6MOL0     H  827   2.626   4.979   6.416 -0.0717 -0.2698  2.6573
    6MOL0     H  828   2.789   4.932   6.430 -2.0535 -1.4222  1.8136
    7MOL0     O  829   3.483   1.268   0.399 -0.1187  0.5023  0.0623
    7MOL0     C  830   3.374   1.320   0.415  0.2471 -0.5485  0.5417
    7MOL0     O  831   3.355   1.414   0.506  0.1502 -0.1193 -0.3213
    7MOL0     C  832   3.463   1.448   0.590  0.4442  0.8062  0.1091
    7MOL0     C  833   3.499   1.583   0.582  1.5027 -0.0718  0.5184
    7MOL0     C  834   3.617   1.627   0.646  0.2957  0.2562 -0.3008
    7MOL0     C  835   3.681   1.547   0.732 -0.1309 -0.3031  0.5886
    7MOL0     O  836   3.787   1.601   0.801  0.8308 -0.2709 -0.1751
    7MOL0     C  837   3.903   1.524   0.838  0.5782  0.1308  0.1837
    7MOL0     C  838   3.978   1.464   0.723  0.4973  0.1054  0.5229
    7MOL0     C  839   4.002   1.573   0.615 -0.2054 -0.3475 -0.0361
    7MOL0     C  840   4.091   1.520   0.500  1.0664 -0.3070  0.4228
    7MOL0     C  841   4.002   1.509   0.363 -0.0513  0.1996 -0.1367
    7MOL0     C  842   4.069   1.436   0.250 -0.1642  0.6928 -0.8317
    7MOL0     C  843   4.011   1.452   0.115  0.2115  0.0862 -0.0440
    7MOL0     C  844   3.871   1.382   0.099  0.3928 -0.0013  0.6366
    7MOL0     N  845   3.859   1.247   0.158 -1.0212  0.3202 -1.1546
    7MOL0     C  846   3.805   1.214   0.286  0.6442 -0.2753  0.2538
    7MOL0     C  847   3.804   1.075   0.274 -0.6455  0.0231 -0.0451
    7MOL0     C  848   3.761   0.986   0.398  0.4451 -0.5325  0.0099
    7MOL0     C  849   3.665   0.874   0.362  1.0823  0.2111 -0.0186
    7MOL0     C  850   3.642   0.790   0.489  1.1574 -0.2832  0.7261
    7MOL0     C  851   3.726   0.658   0.497  0.2827 -0.2779  0.0726
    7MOL0     O  852   3.863   0.690   0.511  0.5427 -0.7803 -0.6083
    7MOL0     C  853   3.910   0.714   0.637 -0.4220  0.3530  0.4408
    7MOL0     C  854   4.021   0.807   0.644 -0.7405 -0.6401 -0.3521
    7MOL0     C  855   4.077   0.835   0.770  0.5690 -0.4602  1.1760
    7MOL0     C  856   4.182   0.949   0.770 -0.0867  0.8580  0.0766
    7MOL0     C  857   4.021   0.781   0.886  1.0771  0.4779 -0.3621
    7MOL0     C  858   4.057   0.806   1.020 -0.1435 -0.4162 -0.2678
    7MOL0     O  859   4.043   0.704   1.108 -1.0014 -0.1320 -0.3466
    7MOL0     C  860   4.111   0.716   1.230  0.1007 -0.2003  0.6726
    7MOL0     C  861   4.191   0.599   1.270  0.2400 -0.3361  1.0911
    7MOL0     C  862   4.252   0.603   1.395  0.2273  0.6385  0.2321
    7MOL0     C  863   4.249   0.710   1.475 -0.5132 -0.0997 -0.2269
    7MOL0     O  864   4.317   0.699   1.591  0.4010 -1.1992 -0.6323
    7MOL0     C  865   4.456   0.726   1.564 -0.1022 -0.1560  0.2839
    7MOL0     C  866   4.547   0.720   1.697 -0.7833 -0.3145 -0.8610
    7MOL0     C  867   4.559   0.574   1.745 -0.7319 -0.0240  0.2087
    7MOL0     C  868   4.656   0.557   1.856 -0.3674  0.4612 -0.4023
    7MOL0     C  869   4.624   0.428   1.947 -0.0696 -0.4086 -0.0525
    7MOL0     C  870   4.496   0.445   2.037 -0.5145 -0.4365 -0.8777
    7MOL0     C  871   4.459   0.323   2.118  0.5230  1.0318  0.5852
    7MOL0     C  872   4.357   0.246   2.045  0.3609  0.0468 -0.0261
    7MOL0    Cl  873   4.358   0.079   2.114  0.2203 -0.3812 -0.1450
    7MOL0     C  874   4.166   0.819   1.441 -0.0063  0.3471  1.0899
    7MOL0     C  875   4.094   0.819   1.324  0.2263 -0.7013 -0.6362
    7MOL0     O  876   4.108   0.908   1.045  0.0519  0.4541  0.2764
    7MOL0     C  877   3.919   0.675   0.875  0.4031 -1.0050  0.5550
    7MOL0     C  878   3.875   0.643   0.754  0.3668  0.0240  0.5215
    7MOL0     N  879   3.865   1.026   0.156  0.1631  0.0399 -1.0697
    7MOL0     N  880   3.886   1.128   0.083  0.9391  0.8842 -0.1722
    7MOL0     C  881   3.652   1.406   0.728  0.1486 -0.6729  0.3754
    7MOL0     C  882   3.548   1.356   0.659  0.6604 -0.3364 -0.5418
    7MOL0     C  883   3.258   1.284   0.317 -0.5217 -0.4615 -0.7320
    7MOL0     C  884   3.179   1.388   0.280  0.5213  0.0871 -0.1704
    7MOL0     C  885   3.082   1.370   0.180 -0.2387 -0.0789 -0.7932
    7MOL0     C  886   3.068   1.251   0.111  0.1808 -0.3908 -0.5291
    7MOL0     O  887   2.964   1.232   0.029  0.0560 -0.4940 -0.2003
    7MOL0     C  888   2.976   1.116  -0.059  0.5241 -0.6804 -0.3695
    7MOL0     C  889   2.855   1.107  -0.145  0.3281  0.1819  0.0584
    7MOL0     C  890   2.856   0.976  -0.224 -0.3398 -0.1064  0.5647
    7MOL0     C  891   2.966   0.955  -0.331  1.0655  0.1576 -0.5575
    7MOL0     C  892   2.959   1.059  -0.430  0.1827 -0.7500  0.4081
    7MOL0     C  893   2.958   1.149  -0.521  0.2946  0.0996 -0.4962
    7MOL0     C  894   3.153   1.149   0.149 -0.2006  0.3284  1.0396
    7MOL0     C  895   3.250   1.161   0.258  0.6165 -1.5625  1.0844
    7MOL0     C  896   3.324   1.041   0.301 -0.3078 -0.1457 -0.2480
    7MOL0     H  897   3.442   1.654   0.523  0.5915 -0.8259  0.4701
    7MOL0     H  898   3.641   1.733   0.640 -2.0478  0.8322 -0.4019
    7MOL0     H  899   3.868   1.445   0.906 -0.4992  0.6351  0.2350
    7MOL0     H  900   3.962   1.594   0.898 -0.8750  1.1035  0.5308
    7MOL0     H  901   4.074   1.424   0.755  0.4413 -1.1059 -0.7152
    7MOL0     H  902   3.928   1.373   0.688 -1.0916  1.2704 -0.3681
    7MOL0     H  903   3.905   1.599   0.571  1.7923  1.9997 -3.5714
    7MOL0     H  904   4.039   1.666   0.659  0.0072 -0.0222 -0.8812
    7MOL0     H  905   4.176   1.586   0.484  0.7861 -0.2586 -0.9209
    7MOL0     H  906   4.135   1.423   0.524  1.4035 -0.1586  0.4083
    7MOL0     H  907   3.976   1.612   0.335  1.4642  0.5364 -0.3813
    7MOL0     H  908   3.908   1.460   0.391  2.1475 -4.2710  0.2322
    7MOL0     H  909   4.174   1.467   0.248 -0.6203  2.3276 -2.6946
    7MOL0     H  910   4.070   1.331   0.280  0.8404  1.3194  1.5414
    7MOL0     H  911   4.087   1.404   0.053  0.6606 -0.6855  1.0550
    7MOL0     H  912   4.018   1.554   0.074  2.2350 -0.1459 -0.4022
    7MOL0     H  913   3.800   1.449   0.147 -0.3842 -2.2389  2.8226
    7MOL0     H  914   3.850   1.376  -0.008  0.4361 -1.4428  0.6842
    7MOL0     H  915   3.791   1.279   0.372  1.0066 -0.5165  0.4955
    7MOL0     H  916   3.715   1.053   0.472  0.5578 -0.4614  0.0162
    7MOL0     H  917   3.850   0.945   0.449  1.2292 -0.3071 -1.1451
    7MOL0     H  918   3.567   0.898   0.321  0.9534 -4.7879 -3.6108
    7MOL0     H  919   3.718   0.805   0.296  0.0705 -0.7403  0.1454
    7MOL0     H  920   3.652   0.858   0.574  0.8651 -0.7405  1.1358
    7MOL0     H  921   3.534   0.774   0.479  1.2238  0.9982 -5.4552
    7MOL0     H  922   3.687   0.588   0.572 -3.0048  1.8740  0.5553
    7MOL0     H  923   3.699   0.603   0.406  0.6457 -0.9963  0.3910
    7MOL0     H  924   4.028   0.864   0.553 -2.4174  0.3382  0.0776
    7MOL0     H  925   4.148   1.046   0.808  0.4945  1.8053 -1.7239
    7MOL0     H  926   4.225   0.964   0.671 -0.7935 -1.0930 -0.5666
    7MOL0     H  927   4.260   0.906   0.833 -0.1281  1.3820  0.4900
    7MOL0     H  928   4.203   0.512   1.207 -2.7934 -2.7916  3.5859
    7MOL0     H  929   4.320   0.523   1.422 -0.7669 -0.7186 -1.0661
    7MOL0     H  930   4.491   0.649   1.494 -0.9645  0.9984 -1.4823
    7MOL0     H  931   4.473   0.818   1.508  2.3538 -2.4123 -3.1374
    7MOL0     H  932   4.649   0.750   1.667 -1.3309  0.1119 -2.4185
    7MOL0     H  933   4.528   0.793   1.776  1.6347  0.8056 -1.1884
    7MOL0     H  934   4.600   0.509   1.667 -0.8434  1.1951 -0.8858
    7MOL0     H  935   4.459   0.542   1.775 -2.5699  4.0783 -0.9751
    7MOL0     H  936   4.638   0.644   1.920  0.6046 -0.3631  1.0468
    7MOL0     H  937   4.761   0.561   1.826 -1.0096 -0.8023 -3.1179
    7MOL0     H  938   4.600   0.349   1.875 -2.4536  2.1897 -2.4164
    7MOL0     H  939   4.712   0.398   2.003  0.2168 -0.3071 -0.4430
    7MOL0     H  940   4.411   0.458   1.969 -1.3726 -2.1564 -0.1808
    7MOL0     H  941   4.500   0.540   2.092  2.7210 -0.8041 -0.2452
    7MOL0     H  942   4.428   0.366   2.213 -3.4364  2.3791 -1.0778
    7MOL0     H  943   4.546   0.258   2.128 -0.8221 -1.9924 -3.8656
    7MOL0     H  944   4.393   0.243   1.942  0.8392  4.0355 -0.1293
    7MOL0     H  945   4.256   0.289   2.044  1.5574  3.0600 -1.3714
    7MOL0     H  946   4.161   0.905   1.506  0.7606  0.4118  1.0786
    7MOL0     H  947   4.032   0.901   1.289 -2.5915 -1.5740  1.8858
    7MOL0     H  948   3.889   0.610   0.957  2.7361  0.2747  2.5421
    7MOL0     H  949   3.802   0.564   0.744  0.8291 -0.7416  2.6253
    7MOL0     H  950   3.707   1.331   0.782  2.2947  0.8566  0.4509
    7MOL0     H  951   3.534   1.249   0.669  2.5140 -0.9729 -3.3906
    7MOL0     H  952   3.190   1.487   0.322  2.2344 -0.2537  0.3008
    7MOL0     H  953   3.014   1.454   0.168 -0.1714 -0.1719 -1.9332
    7MOL0     H  954   3.068   1.126  -0.116  0.4805  0.0020 -0.3263
    7MOL0     H  955   2.970   1.027   0.004 -0.3264  0.9327  1.9743
    7MOL0     H  956   2.867   1.194  -0.210 -1.6645  0.8656  0.5509
    7MOL0     H  957   2.766   1.122  -0.083  2.1941  0.8550  2.7852
    7MOL0     H  958   2.869   0.894  -0.152 -2.8275  1.5117  3.0518
    7MOL0     H  959   2.763   0.967  -0.280  0.7843  0.2239 -1.4312
    7MOL0     H  960   2.937   0.863  -0.384 -0.2123  2.5550 -4.4345
    7MOL0     H  961   3.060   0.931  -0.280  0.5420  3.5585  2.4591
    7MOL0     H  962   2.937   1.225  -0.594  1.1501 -0.2425 -1.1072
    7MOL0     H  963   3.142   1.051   0.104 -0.4079  1.0365 -0.5336
    7MOL0     H  964   3.277   0.949   0.266  2.0522 -0.7976 -1.9503
    7MOL0     H  965   3.424   1.045   0.257 -0.3456  1.5117 -0.2241
    7MOL0     H  966   3.338   1.056   0.409  0.5147  4.1707 -0.8103
    8MOL0     O  967  11.165   9.760  10.800 -0.5241  0.4596  0.2798
    8MOL0     C  968  11.159   9.879  10.801 -0.9057 -0.2284 -0.1359
    8MOL0     O  969  11.077   9.947  10.721  0.1553 -0.5337  0.2078
    8MOL0     C  970  10.997   9.885  10.627 -1.0689  1.0108 -1.7975
    8MOL0     C  971  11.010   9.757  10.570  0.4566  0.0738 -1.0321
    8MOL0     C  972  10.926   9.710  10.466 -0.5316  0.2648 -0.2235
    8MOL0     C  973  10.834   9.801  10.413 -0.0409  0.3356  0.2657
    8MOL0     O  974  10.735   9.765  10.319 -0.4135 -0.5538  0.9642
    8MOL0     C  975  10.635   9.683  10.382  0.1631  0.1848  0.2377
    8MOL0     C  976  10.516   9.648  10.296  0.7330 -0.2938 -0.2083
    8MOL0     C  977  10.418   9.568  10.375 -1.1497  0.5437  0.1579
    8MOL0     C  978  10.289   9.528  10.293  0.1395 -0.9164  0.2780
    8MOL0     C  979  10.179   9.482  10.384 -0.2055 -0.2329  1.3985
    8MOL0     C  980  10.116   9.590  10.457 -0.6980 -0.6649 -0.4298
    8MOL0     C  981   9.991   9.546  10.520  0.1047  0.5014  0.2144
    8MOL0     C  982   9.920   9.645  10.616 -0.0314 -0.6689  0.1782
    8MOL0     N  983  10.013   9.677  10.721  0.4487 -0.2479 -1.2505
    8MOL0     C  984  10.034   9.590  10.830  0.6586 -0.4313  0.2388
    8MOL0     C  985  10.114   9.663  10.920 -0.4945 -1.0652  0.2310
    8MOL0     C  986  10.180   9.598  11.035 -1.0749  1.0461 -0.2969
    8MOL0     C  987  10.315   9.534  10.993  0.2467  0.1741 -0.3366
    8MOL0     C  988  10.419   9.626  10.941 -0.8826  0.3064  0.4756
    8MOL0     C  989  10.421   9.628  10.792  0.1933 -0.4805  0.7576
    8MOL0     O  990  10.549   9.623  10.738  0.7283  0.3742 -0.2040
    8MOL0     C  991  10.632   9.517  10.755 -0.3684 -0.0356  0.1598
    8MOL0     C  992  10.771   9.532  10.754 -0.4233 -0.2149 -0.2190
    8MOL0     C  993  10.857   9.426  10.768  0.5698 -0.2953 -0.2706
    8MOL0     C  994  11.016   9.453  10.774 -0.1634 -0.1631 -0.5526
    8MOL0     C  995  10.800   9.293  10.796 -0.9406 -0.5563  0.8044
    8MOL0     C  996  10.876   9.173  10.831 -0.6678  0.2436 -0.1952
    8MOL0     O  997  10.991   9.195  10.903 -0.1250 -0.0458 -0.4784
    8MOL0     C  998  11.050   9.072  10.926 -0.5393  0.3203 -0.2056
    8MOL0     C  999  11.177   9.052  10.891 -0.9863  0.6464  0.0948
    8MOL0     C 1000  11.253   8.937  10.934  0.3695 -0.2686  0.8182
    8MOL0     C 1001  11.192   8.837  11.010  0.1233  0.5985  0.1642
    8MOL0     O 1002  11.256   8.720  11.043 -0.8425 -0.8416 -0.2014
    8MOL0     C 1003  11.381   8.745  11.111 -0.0237 -0.0847 -0.5557
    8MOL0     C 1004  11.431   8.621  11.192  0.3149 -0.1429  0.1063
    8MOL0     C 1005  11.435   8.492  11.104  0.2785 -0.4366 -0.2112
    8MOL0     C 1006  11.305   8.409  11.127 -0.7049  0.5249 -0.7464
    8MOL0     C 1007  11.288   8.282  11.038 -0.2226  0.0469  0.0203
    8MOL0     C 1008  11.372   8.161  11.088 -0.4105  0.5051 -0.0827
    8MOL0     C 1009  11.355   8.048  10.983 -0.0990 -0.0679  1.4047
    8MOL0     C 1010  11.237   7.955  10.994 -0.4521  0.4177  0.1429
    8MOL0    Cl 1011  11.259   7.864  11.143 -0.0348 -0.2692  0.0226
    8MOL0     C 1012  11.057   8.854  11.044  0.3956  0.4665 -0.2252
    8MOL0     C 1013  10.993   8.970  11.006  0.0158  0.6036  0.6800
    8MOL0     O 1014  10.829   9.062  10.795  0.0633 -0.2803  0.2454
    8MOL0     C 1015  10.665   9.279  10.783 -1.0259 -0.1255 -1.2402
    8MOL0     C 1016  10.584   9.391  10.762 -0.7094 -0.2476  0.6524
    8MOL0     N 1017  10.132   9.789  10.867  0.0284  0.1318  0.2589
    8MOL0     N 1018  10.074   9.802  10.748 -0.4188  0.6431 -0.1277
    8MOL0     C 1019  10.818   9.931  10.464  0.1407 -0.2564 -0.9765
    8MOL0     C 1020  10.904   9.975  10.577  1.3621 -0.5790 -0.1897
    8MOL0     C 1021  11.263   9.950  10.877  0.7408  0.5036  0.0902
    8MOL0     C 1022  11.331  10.062  10.820 -0.0715 -0.0805 -0.4204
    8MOL0     C 1023  11.439  10.125  10.884 -0.0611  0.1218 -0.1065
    8MOL0     C 1024  11.493  10.062  10.997 -0.4735 -0.2901  0.8615
    8MOL0     O 1025  11.589  10.149  11.044  0.1064  0.1202 -0.2636
    8MOL0     C 1026  11.603  10.163  11.179 -0.3356  0.1572 -0.2399
    8MOL0     C 1027  11.546  10.291  11.236  0.0009  0.0552  0.0026
    8MOL0     C 1028  11.628  10.411  11.194 -0.1849 -0.0845 -0.7779
    8MOL0     C 1029  11.717  10.451  11.324  0.5237 -0.2407 -0.3959
    8MOL0     C 1030  11.642  10.497  11.442 -0.2350 -0.9490  0.4541
    8MOL0     C 1031  11.597  10.553  11.536  1.4551  0.5861  0.2656
    8MOL0     C 1032  11.437   9.946  11.052 -0.0592  0.0754  0.7411
    8MOL0     C 1033  11.322   9.891  10.988 -0.3137 -0.4769 -0.9512
    8MOL0     C 1034  11.262   9.768  11.057  0.6135 -0.0975  0.7097
    8MOL0     H 1035  11.100   9.703  10.595 -0.2890 -0.6501  0.1705
    8MOL0     H 1036  10.926   9.610  10.425  0.8128  0.0967  0.1531
    8MOL0     H 1037  10.604   9.731  10.475  2.0674  1.1477  0.4299
    8MOL0     H 1038  10.678   9.584  10.400  0.6503 -0.4451 -3.5168
    8MOL0     H 1039  10.474   9.742  10.257 -0.9222 -1.3780 -1.1410
    8MOL0     H 1040  10.523   9.582  10.209 -2.3000 -1.5116  0.3458
    8MOL0     H 1041  10.473   9.474  10.389  0.9300  1.5018 -1.1192
    8MOL0     H 1042  10.392   9.610  10.472  1.4682 -1.6805  1.9428
    8MOL0     H 1043  10.241   9.605  10.232 -0.2415 -0.5601  1.0274
    8MOL0     H 1044  10.320   9.441  10.233  3.3477 -0.8498  1.6341
    8MOL0     H 1045  10.206   9.397  10.448 -2.7182 -1.3827  1.0568
    8MOL0     H 1046  10.102   9.453  10.313  0.6644  0.5237  0.1054
    8MOL0     H 1047  10.186   9.624  10.534 -0.4274 -1.3873 -0.3421
    8MOL0     H 1048  10.102   9.684  10.402  2.2066  1.5400  2.2731
    8MOL0     H 1049  10.014   9.447  10.562 -1.0503  0.0796 -0.0824
    8MOL0     H 1050   9.921   9.530  10.438  1.5709 -3.3120 -0.5296
    8MOL0     H 1051   9.876   9.735  10.572  0.5082  1.3164  3.2980
    8MOL0     H 1052   9.842   9.585  10.662  0.2104 -3.0558 -2.2755
    8MOL0     H 1053   9.987   9.496  10.856 -1.1425  0.7657  1.5747
    8MOL0     H 1054  10.116   9.528  11.088  0.0715  0.7060  0.6683
    8MOL0     H 1055  10.212   9.678  11.103  3.1067  0.0772 -0.8311
    8MOL0     H 1056  10.352   9.498  11.089 -1.2793  1.7442  0.9156
    8MOL0     H 1057  10.296   9.444  10.934 -1.4546  2.0317 -2.8710
    8MOL0     H 1058  10.401   9.729  10.972 -2.3846  0.7945 -1.7471
    8MOL0     H 1059  10.518   9.602  10.980  0.5740  4.5527 -0.0328
    8MOL0     H 1060  10.357   9.546  10.759 -1.0943  0.7580  0.0855
    8MOL0     H 1061  10.378   9.721  10.754 -0.7728 -1.5812 -0.9617
    8MOL0     H 1062  10.814   9.632  10.756 -1.6022  0.2942  0.3641
    8MOL0     H 1063  11.040   9.501  10.678  1.6413 -0.8742 -0.5022
    8MOL0     H 1064  11.069   9.357  10.771  0.0915 -0.1439  1.6855
    8MOL0     H 1065  11.049   9.512  10.860 -1.1813 -3.4108  2.2693
    8MOL0     H 1066  11.227   9.123  10.826  1.5216 -1.9836 -1.0718
    8MOL0     H 1067  11.358   8.944  10.906  1.1261  0.0305  3.4859
    8MOL0     H 1068  11.461   8.759  11.037 -1.6358  1.8812 -2.0606
    8MOL0     H 1069  11.373   8.835  11.173 -1.8520 -1.8940  2.0014
    8MOL0     H 1070  11.526   8.649  11.240  0.1866 -1.4001  1.1378
    8MOL0     H 1071  11.359   8.598  11.272  0.2539  1.3710  0.5288
    8MOL0     H 1072  11.519   8.427  11.129 -0.7976 -3.2663 -3.2237
    8MOL0     H 1073  11.435   8.534  11.003  0.0356  1.8248  0.6603
    8MOL0     H 1074  11.213   8.462  11.103 -1.0188 -0.0791 -0.9025
    8MOL0     H 1075  11.307   8.359  11.224 -0.3870 -1.1233 -1.5575
    8MOL0     H 1076  11.180   8.266  11.033 -0.5967  1.7548  1.5541
    8MOL0     H 1077  11.307   8.289  10.930 -0.2103 -0.2817  0.0011
    8MOL0     H 1078  11.340   8.122  11.185 -0.2222 -1.0312 -0.6050
    8MOL0     H 1079  11.478   8.187  11.093  0.3140 -2.3107  3.4205
    8MOL0     H 1080  11.448   7.992  10.995  1.8229  2.2911 -1.0340
    8MOL0     H 1081  11.353   8.103  10.888 -1.4790 -0.2296  1.3177
    8MOL0     H 1082  11.232   7.878  10.916 -3.8884  2.1387 -1.5386
    8MOL0     H 1083  11.136   7.995  10.992 -1.9551 -3.0065  0.7590
    8MOL0     H 1084  11.004   8.768  11.084 -3.5251  2.9494  0.5342
    8MOL0     H 1085  10.886   8.979  11.023 -1.0407 -5.2668 -0.5540
    8MOL0     H 1086  10.606   9.188  10.797  0.6079 -0.9175  1.2707
    8MOL0     H 1087  10.475   9.390  10.767 -0.7648  2.1565  1.5318
    8MOL0     H 1088  10.738   9.993  10.427  0.3054  0.7248  0.2663
    8MOL0     H 1089  10.884  10.070  10.625  0.8853 -0.7113 -0.1220
    8MOL0     H 1090  11.287  10.094  10.726 -2.0831 -1.6956 -0.0824
    8MOL0     H 1091  11.486  10.216  10.850 -0.3582  0.5966  0.7339
    8MOL0     H 1092  11.559  10.072  11.223  0.2628 -1.5184 -2.8939
    8MOL0     H 1093  11.711  10.171  11.193  0.1971 -2.1336 -2.2102
    8MOL0     H 1094  11.556  10.279  11.344  1.8835  1.3924  0.0324
    8MOL0     H 1095  11.442  10.300  11.204  0.1874  0.7479 -0.4311
    8MOL0     H 1096  11.691  10.391  11.107 -0.7601 -1.1359 -0.9734
    8MOL0     H 1097  11.564  10.495  11.164 -1.8154  0.1105  2.7288
    8MOL0     H 1098  11.765  10.537  11.278  0.3976 -0.5646 -1.1505
    8MOL0     H 1099  11.787  10.374  11.358 -1.6331 -1.2081  2.1205
    8MOL0     H 1100  11.554  10.601  11.622 -1.3790  1.0030 -1.2500
    8MOL0     H 1101  11.473   9.897  11.141  1.0887  3.1843  2.1223
    8MOL0     H 1102  11.153   9.774  11.056  0.5808 -0.4147  1.7377
    8MOL0     H 1103  11.300   9.676  11.012 -1.7633 -1.3846  1.1876
    8MOL0     H 1104  11.285   9.770  11.164 -2.4454  1.4748  1.4649
    9MOL0     O 1105   8.734  11.343   2.613 -0.2165 -0.9396 -0.0861
    9MOL0     C 1106   8.721  11.295   2.506 -0.9551  0.0726  0.0906
    9MOL0     O 1107   8.793  11.194   2.455 -0.1191 -0.5841  1.1234
    9MOL0     C 1108   8.898  11.139   2.532 -1.0262 -0.4836  0.2705
    9MOL0     C 1109   8.904  10.999   2.546  0.3644 -0.4343 -0.5270
    9MOL0     C 1110   9.013  10.937   2.603 -0.0548  0.0104 -0.2906
    9MOL0     C 1111   9.127  11.012   2.654 -1.1691 -0.4476  0.2407
    9MOL0     O 1112   9.233  10.957   2.710 -0.0253 -0.3872 -0.4998
    9MOL0     C 1113   9.250  10.817   2.732 -0.3873 -0.0813  0.5542
    9MOL0     C 1114   9.331  10.783   2.857 -1.0351  0.4724 -0.2467
    9MOL0     C 1115   9.243  10.791   2.982 -0.5269 -0.2755 -0.4973
    9MOL0     C 1116   9.277  10.669   3.066 -0.2250  0.6082  0.6156
    9MOL0     C 1117   9.219  10.655   3.202 -0.2128 -0.4035  0.1842
    9MOL0     C 1118   9.240  10.514   3.259  0.5829 -0.1419  0.6688
    9MOL0     C 1119   9.147  10.496   3.380  0.1711 -0.2070  0.6027
    9MOL0     C 1120   9.163  10.348   3.430  0.0138  0.5759 -0.1692
    9MOL0     N 1121   9.305  10.297   3.454  0.7813  0.0594 -0.4248
    9MOL0     C 1122   9.404  10.371   3.503  0.2775 -0.0559  1.3722
    9MOL0     C 1123   9.514  10.298   3.497  0.0160 -0.8261  0.3666
    9MOL0     C 1124   9.645  10.338   3.548 -0.2059  0.3904  0.0524
    9MOL0     C 1125   9.752  10.239   3.508 -0.2609  0.0047  0.7301
    9MOL0     C 1126   9.888  10.255   3.587  0.0636 -0.2228 -0.5353
    9MOL0     C 1127   9.998  10.166   3.534 -0.0022 -0.1912  0.4507
    9MOL0     O 1128  10.052  10.196   3.403  0.9778  0.1461  0.2160
    9MOL0     C 1129  10.154  10.294   3.389  0.5640 -0.2370 -0.2879
    9MOL0     C 1130  10.215  10.313   3.265  0.2927  0.5375 -1.1362
    9MOL0     C 1131  10.313  10.407   3.242  0.3951 -0.1876  0.3368
    9MOL0     C 1132  10.358  10.419   3.096  0.0270 -1.2695 -0.5369
    9MOL0     C 1133  10.342  10.505   3.338  0.1074  0.6284 -0.0551
    9MOL0     C 1134  10.433  10.610   3.317  0.0329 -0.1115  0.5875
    9MOL0     O 1135  10.384  10.731   3.336  0.2691 -0.3783 -0.3802
    9MOL0     C 1136  10.438  10.856   3.288 -0.4207  0.3118 -0.4206
    9MOL0     C 1137  10.561  10.882   3.232 -0.1108 -0.5761 -0.1375
    9MOL0     C 1138  10.585  11.009   3.180 -0.3441 -0.0014  0.3569
    9MOL0     C 1139  10.490  11.113   3.179  0.1308  0.2990  1.1539
    9MOL0     O 1140  10.507  11.245   3.133  0.2829 -0.1431  0.7903
    9MOL0     C 1141  10.434  11.356   3.197 -0.3035 -0.5650  0.0441
    9MOL0     C 1142  10.498  11.492   3.159 -0.5884 -0.4213  0.0121
    9MOL0     C 1143  10.638  11.514   3.213  0.4493 -0.3328  0.7822
    9MOL0     C 1144  10.696  11.634   3.131 -0.4258 -0.3406 -1.0120
    9MOL0     C 1145  10.822  11.687   3.203 -0.3055 -1.1159  0.7723
    9MOL0     C 1146  10.876  11.810   3.133  0.3031 -0.2896 -0.9142
    9MOL0     C 1147  10.989  11.867   3.220 -0.5495 -0.3624  0.1233
    9MOL0     C 1148  11.055  11.995   3.162  0.9637  0.0435  0.2584
    9MOL0    Cl 1149  11.182  12.049   3.282  0.0537  0.1410  0.3781
    9MOL0     C 1150  10.379  11.093   3.250  0.8294  1.7505 -0.6976
    9MOL0     C 1151  10.346  10.966   3.307 -0.1767  0.3434  0.1310
    9MOL0     O 1152  10.549  10.576   3.276 -0.2084  0.1717  0.0078
    9MOL0     C 1153  10.286  10.489   3.465 -0.3899 -0.2647 -0.8288
    9MOL0     C 1154  10.192  10.383   3.492 -0.4817 -0.8816  0.7042
    9MOL0     N 1155   9.478  10.174   3.452  0.0855 -0.5393  0.0079
    9MOL0     N 1156   9.348  10.173   3.430  0.5268  1.0596 -0.1760
    9MOL0     C 1157   9.116  11.146   2.655  0.3045  0.0629 -0.5251
    9MOL0     C 1158   9.003  11.212   2.592  0.9464 -0.2469 -0.4566
    9MOL0     C 1159   8.598  11.340   2.432  0.1741  0.4786 -0.5151
    9MOL0     C 1160   8.544  11.472   2.449  1.0186  0.6219 -0.1450
    9MOL0     C 1161   8.423  11.503   2.391  0.6421  0.3632  0.4635
    9MOL0     C 1162   8.366  11.434   2.292  0.8792  0.7731 -0.0236
    9MOL0     O 1163   8.253  11.469   2.246 -0.2507  0.1217 -0.2179
    9MOL0     C 1164   8.262  11.513   2.114 -0.3868 -0.2949  0.8820
    9MOL0     C 1165   8.122  11.523   2.058  0.3874 -0.2951  0.7833
    9MOL0     C 1166   8.058  11.658   2.092 -0.4638 -0.2285 -0.1892
    9MOL0     C 1167   8.101  11.774   2.005 -0.0885 -0.7783 -0.1761
    9MOL0     C 1168   8.126  11.748   1.860  0.3146  0.4993 -0.0098
    9MOL0     C 1169   8.152  11.729   1.741 -0.3019 -0.0474  0.3285
    9MOL0     C 1170   8.417  11.308   2.255  0.5098  0.3252 -0.5266
    9MOL0     C 1171   8.528  11.261   2.335 -0.6861 -0.4521  0.5096
    9MOL0     C 1172   8.569  11.115   2.315  0.5314 -0.0198 -0.3984
    9MOL0     H 1173   8.815  10.943   2.520  0.5679 -0.7646 -0.5118
    9MOL0     H 1174   9.020  10.829   2.605 -1.7576 -0.1320 -0.4592
    9MOL0     H 1175   9.307  10.778   2.648  0.2318 -0.3209  1.0788
    9MOL0     H 1176   9.151  10.771   2.737 -1.8912  2.8201 -0.3641
    9MOL0     H 1177   9.375  10.685   2.841 -3.9515 -1.3835  1.9962
    9MOL0     H 1178   9.412  10.856   2.872 -1.8852  1.0045  2.2263
    9MOL0     H 1179   9.257  10.878   3.047 -1.4278 -0.5009  0.0253
    9MOL0     H 1180   9.136  10.793   2.956 -0.2068  3.0254 -2.0850
    9MOL0     H 1181   9.248  10.583   3.005  0.4256  1.4509 -0.9579
    9MOL0     H 1182   9.386  10.677   3.071 -0.0374 -0.1122 -1.3194
    9MOL0     H 1183   9.112  10.658   3.178  0.3466 -1.0106 -2.8272
    9MOL0     H 1184   9.253  10.732   3.272 -2.8129  0.8095  0.2563
    9MOL0     H 1185   9.220  10.437   3.185 -0.7730 -1.9390  2.7831
    9MOL0     H 1186   9.345  10.505   3.291 -0.6833 -0.4758  5.6472
    9MOL0     H 1187   9.046  10.527   3.351  0.6302  1.5129  0.7390
    9MOL0     H 1188   9.173  10.559   3.465 -1.6059 -0.2617  1.2200
    9MOL0     H 1189   9.107  10.344   3.524  2.2488 -0.8410  1.2073
    9MOL0     H 1190   9.118  10.284   3.353 -0.0684 -1.2461  1.3241
    9MOL0     H 1191   9.404  10.465   3.559  0.4804  1.2634 -0.7202
    9MOL0     H 1192   9.650  10.349   3.657 -0.4745  2.6619 -0.1172
    9MOL0     H 1193   9.677  10.437   3.514  0.1984 -0.0026 -0.7517
    9MOL0     H 1194   9.724  10.138   3.537  0.3935  0.1175  1.8289
    9MOL0     H 1195   9.772  10.237   3.401  0.1587 -2.0088  0.8200
    9MOL0     H 1196   9.917  10.360   3.580 -3.3105  0.9818  1.4324
    9MOL0     H 1197   9.856  10.249   3.691  0.4743  2.7060 -0.1649
    9MOL0     H 1198  10.078  10.153   3.608 -0.0428  0.6746  0.6553
    9MOL0     H 1199   9.951  10.070   3.513 -1.0871  0.7032 -1.4659
    9MOL0     H 1200  10.181  10.246   3.186  0.5457 -1.7501  0.5897
    9MOL0     H 1201  10.353  10.315   3.065  2.9600 -1.6591  0.0668
    9MOL0     H 1202  10.460  10.452   3.078 -0.2151  0.5169  0.9896
    9MOL0     H 1203  10.290  10.488   3.044  1.2851 -0.6809 -1.4384
    9MOL0     H 1204  10.640  10.808   3.232 -0.5720 -1.0776 -0.2919
    9MOL0     H 1205  10.685  11.014   3.137 -2.1837  0.3812 -4.4719
    9MOL0     H 1206  10.328  11.364   3.172 -0.5608 -1.3551  0.8283
    9MOL0     H 1207  10.435  11.332   3.304 -1.0983  0.0750  0.2060
    9MOL0     H 1208  10.495  11.503   3.051  0.5698  3.7145  0.2254
    9MOL0     H 1209  10.438  11.570   3.208  0.4854  0.0127  0.6895
    9MOL0     H 1210  10.688  11.418   3.196  0.8427 -0.6776  3.5036
    9MOL0     H 1211  10.646  11.534   3.320  1.5554  0.5312  0.5596
    9MOL0     H 1212  10.616  11.709   3.126 -1.6941 -1.6852 -1.5448
    9MOL0     H 1213  10.713  11.611   3.025 -0.4573 -1.1030 -0.8561
    9MOL0     H 1214  10.798  11.723   3.304  0.7948  0.7804  0.4054
    9MOL0     H 1215  10.899  11.608   3.201 -0.4139 -1.2714  1.9980
    9MOL0     H 1216  10.796  11.883   3.115 -1.8396 -2.1169  0.6179
    9MOL0     H 1217  10.917  11.777   3.038  2.2428  1.2532 -0.6839
    9MOL0     H 1218  11.069  11.794   3.232  0.1219 -0.0661 -2.1935
    9MOL0     H 1219  10.955  11.898   3.320  0.3339 -0.4083  0.4446
    9MOL0     H 1220  10.976  12.062   3.126 -0.7485 -2.1246 -0.2832
    9MOL0     H 1221  11.104  11.956   3.072 -0.2588  1.6214 -1.1546
    9MOL0     H 1222  10.300  11.162   3.279 -0.3120  0.1226  0.2346
    9MOL0     H 1223  10.250  10.950   3.355 -0.8580  1.8083 -0.6437
    9MOL0     H 1224  10.316  10.557   3.544 -1.2738  0.3903 -1.0448
    9MOL0     H 1225  10.160  10.368   3.594  3.8119 -2.0435  2.0771
    9MOL0     H 1226   9.204  11.197   2.693  0.3176 -1.1369  1.1831
    9MOL0     H 1227   8.985  11.316   2.570 -0.7467 -0.6234 -0.9761
    9MOL0     H 1228   8.577  11.531   2.534 -0.8870 -0.0257  1.1139
    9MOL0     H 1229   8.374  11.591   2.433  1.8182  0.4268  1.7731
    9MOL0     H 1230   8.302  11.615   2.118  3.3638 -1.2790 -3.4639
    9MOL0     H 1231   8.334  11.456   2.055  2.0123  4.3860 -1.2371
    9MOL0     H 1232   8.049  11.450   2.094 -1.7801  0.8893 -0.9353
    9MOL0     H 1233   8.128  11.508   1.949  0.3506 -1.5425  0.9362
    9MOL0     H 1234   7.950  11.654   2.071 -0.6608  0.6258  0.5804
    9MOL0     H 1235   8.057  11.680   2.199  0.8852 -2.2916  0.3102
    9MOL0     H 1236   8.180  11.832   2.054  0.9096 -0.8247 -1.6635
    9MOL0     H 1237   8.027  11.855   2.000  1.1632  0.4746  0.5882
    9MOL0     H 1238   8.197  11.703   1.647  0.9653  2.1029  0.2823
    9MOL0     H 1239   8.368  11.242   2.184 -0.5743  1.0209 -0.4513
    9MOL0     H 1240   8.611  11.066   2.403  2.5220  1.8639 -0.2300
    9MOL0     H 1241   8.488  11.051   2.277 -1.3743  0.1386  3.0581
    9MOL0     H 1242   8.654  11.120   2.246  1.2141  1.8274  0.5021
   10MOL0     O 1243   1.546   6.544   4.993  0.0102  0.5629  0.3563
   10MOL0     C 1244   1.485   6.650   4.980 -0.7403  0.2457  1.0776
   10MOL0     O 1245   1.351   6.676   5.009  0.5828 -0.2435  0.1220
   10MOL0     C 1246   1.276   6.578   5.070  0.7302  0.9388  0.3088
   10MOL0     C 1247   1.281   6.436   5.044  0.5792 -0.7980  0.3750
   10MOL0     C 1248   1.210   6.344   5.114 -0.1551  0.0043 -0.2866
   10MOL0     C 1249   1.133   6.398   5.231  0.1980  0.2164  0.1547
   10MOL0     O 1250   1.050   6.318   5.306  0.1490  0.1774  0.1923
   10MOL0     C 1251   1.094   6.183   5.324  0.2191 -0.2815  0.1565
   10MOL0     C 1252   1.208   6.185   5.425  0.2348  0.4896  0.0309
   10MOL0     C 1253   1.198   6.063   5.512 -0.5900 -0.2028  0.2790
   10MOL0     C 1254   1.244   5.935   5.450  0.2746  0.0887  0.4462
   10MOL0     C 1255   1.308   5.822   5.535  0.5344 -0.1506 -0.2469
   10MOL0     C 1256   1.208   5.749   5.622 -0.3610  0.0063  0.6577
   10MOL0     C 1257   1.289   5.639   5.710 -0.2823 -0.0152 -0.5288
   10MOL0     C 1258   1.197   5.559   5.806  0.6188 -0.0850  0.3261
   10MOL0     N 1259   1.268   5.465   5.889 -0.6769  0.6502  0.1476
   10MOL0     C 1260   1.214   5.399   5.994  0.1843 -0.1784  0.2659
   10MOL0     C 1261   1.317   5.344   6.066  0.5129  0.5605  0.0502
   10MOL0     C 1262   1.303   5.290   6.210  0.7589  0.6310 -0.1693
   10MOL0     C 1263   1.333   5.141   6.207 -0.5070  0.0406 -0.6219
   10MOL0     C 1264   1.225   5.032   6.179  0.2816  0.9495 -0.2556
   10MOL0     C 1265   1.089   5.053   6.254  0.4366  1.0437 -0.7968
   10MOL0     O 1266   1.098   5.007   6.388 -0.4982  0.0841  0.1191
   10MOL0     C 1267   1.089   4.870   6.415 -0.1391  0.2398 -0.1992
   10MOL0     C 1268   1.095   4.832   6.553 -0.0209  0.1009  0.7320
   10MOL0     C 1269   1.094   4.697   6.593 -0.1877  0.2084  0.0596
   10MOL0     C 1270   1.087   4.675   6.739  0.3561  0.6709  0.0129
   10MOL0     C 1271   1.082   4.593   6.490 -0.6893  1.1528 -1.4789
   10MOL0     C 1272   1.048   4.445   6.515 -0.1168 -0.1296 -0.6951
   10MOL0     O 1273   1.046   4.357   6.404  0.7992  0.1257 -0.2971
   10MOL0     C 1274   1.022   4.225   6.428 -0.1824  0.2753 -0.2307
   10MOL0     C 1275   1.125   4.134   6.471  0.2979 -0.3609  0.7649
   10MOL0     C 1276   1.097   4.000   6.505 -0.0483 -0.5573 -0.4230
   10MOL0     C 1277   0.963   3.956   6.514 -1.0128 -0.1156 -0.9950
   10MOL0     O 1278   0.944   3.828   6.554 -0.3004 -0.7316  0.1160
   10MOL0     C 1279   0.870   3.818   6.680 -0.1550 -0.8917  0.7254
   10MOL0     C 1280   0.728   3.766   6.649 -0.7055 -0.2207  0.7345
   10MOL0     C 1281   0.713   3.666   6.532 -0.3070 -0.1959 -0.7223
   10MOL0     C 1282   0.811   3.537   6.543 -0.2132 -0.0399 -0.9343
   10MOL0     C 1283   0.823   3.464   6.405 -0.1835 -0.6759 -0.1983
   10MOL0     C 1284   0.702   3.382   6.367  0.5036  1.0028 -0.1701
   10MOL0     C 1285   0.712   3.343   6.220 -0.5547  0.2431 -0.0096
   10MOL0     C 1286   0.606   3.236   6.166 -0.3731 -0.7295 -0.1079
   10MOL0    Cl 1287   0.445   3.307   6.203 -0.1345  0.5092 -0.2144
   10MOL0     C 1288   0.862   4.051   6.484 -0.2627  0.0838  0.4265
   10MOL0     C 1289   0.889   4.181   6.451 -0.6397  0.6390  0.7586
   10MOL0     O 1290   1.002   4.416   6.629  0.0574 -0.0992  0.4113
   10MOL0     C 1291   1.086   4.634   6.359  0.1557  0.0060 -0.4018
   10MOL0     C 1292   1.086   4.770   6.315  0.5416  0.2674 -0.1083
   10MOL0     N 1293   1.434   5.385   5.997 -0.8575  0.2500 -0.9087
   10MOL0     N 1294   1.404   5.449   5.894  0.3889  0.0447 -0.5466
   10MOL0     C 1295   1.107   6.539   5.240  0.0148  0.1335 -1.5080
   10MOL0     C 1296   1.191   6.619   5.168 -0.3013  0.6506 -0.8088
   10MOL0     C 1297   1.566   6.771   4.937 -0.7811 -0.0482  0.5158
   10MOL0     C 1298   1.684   6.804   5.007 -0.5406 -0.0112  0.0956
   10MOL0     C 1299   1.775   6.898   4.965 -0.1813  0.2246 -0.9231
   10MOL0     C 1300   1.752   6.966   4.846 -0.2544  0.5422  0.4408
   10MOL0     O 1301   1.845   7.062   4.798  0.8120  0.3951  0.0243
   10MOL0     C 1302   1.807   7.198   4.830 -0.4088  0.1440 -0.5774
   10MOL0     C 1303   1.923   7.276   4.902 -0.2977 -0.8462  0.2637
   10MOL0     C 1304   1.961   7.212   5.031 -0.1476 -0.3378 -1.8976
   10MOL0     C 1305   1.852   7.236   5.141 -0.2547 -0.9939  0.6099
   10MOL0     C 1306   1.862   7.136   5.247 -1.0584 -0.7975 -0.3476
   10MOL0     C 1307   1.868   7.052   5.329 -0.7059 -1.0429 -0.4720
   10MOL0     C 1308   1.633   6.930   4.767  0.0806  0.0006 -0.4091
   10MOL0     C 1309   1.541   6.839   4.812 -0.9567  0.9168 -0.3266
   10MOL0     C 1310   1.424   6.794   4.728 -0.5770 -0.4328  0.1045
   10MOL0     H 1311   1.350   6.399   4.969  0.7048 -0.5648  0.3752
   10MOL0     H 1312   1.213   6.240   5.082  1.9872  1.0548 -4.2276
   10MOL0     H 1313   1.127   6.141   5.229 -4.3563  0.8306 -2.2336
   10MOL0     H 1314   1.009   6.124   5.360 -1.7880  0.2248 -3.2433
   10MOL0     H 1315   1.299   6.197   5.366  0.5667  1.9845  0.7999
   10MOL0     H 1316   1.201   6.275   5.487  3.6800  0.2114  1.0094
   10MOL0     H 1317   1.270   6.072   5.594 -0.3096  2.2334 -0.1538
   10MOL0     H 1318   1.099   6.043   5.555 -0.2566  1.6677  2.0611
   10MOL0     H 1319   1.157   5.905   5.390 -1.2464  0.3627  2.4189
   10MOL0     H 1320   1.327   5.959   5.382  1.4299 -0.6343  1.5648
   10MOL0     H 1321   1.389   5.872   5.589  0.6378 -1.1478  0.5409
   10MOL0     H 1322   1.358   5.753   5.466  0.4480  0.8700 -1.3775
   10MOL0     H 1323   1.152   5.812   5.692 -2.7466  0.3985 -1.4630
   10MOL0     H 1324   1.147   5.687   5.556  1.2435 -1.0381  0.1050
   10MOL0     H 1325   1.368   5.680   5.773  0.5505 -3.2570  0.7486
   10MOL0     H 1326   1.339   5.576   5.636 -0.2813  1.1010 -1.5233
   10MOL0     H 1327   1.146   5.636   5.865  0.0676  1.3969 -1.9846
   10MOL0     H 1328   1.116   5.506   5.756 -1.5873  2.0805  1.4060
   10MOL0     H 1329   1.108   5.408   6.016 -0.5343  0.7081 -3.0382
   10MOL0     H 1330   1.208   5.311   6.260 -0.9000 -1.0807 -2.3206
   10MOL0     H 1331   1.379   5.343   6.267  0.8091  1.4689 -0.9879
   10MOL0     H 1332   1.419   5.136   6.139  0.5059  1.3371  0.5067
   10MOL0     H 1333   1.373   5.123   6.307 -0.4427  4.3512  0.3119
   10MOL0     H 1334   1.192   5.049   6.076 -1.8739 -0.5347  0.1103
   10MOL0     H 1335   1.270   4.933   6.195  1.6251  1.4748 -0.6775
   10MOL0     H 1336   1.054   5.156   6.260  2.3872  1.7047 -0.0338
   10MOL0     H 1337   1.010   4.994   6.205 -0.1102  0.0290  1.1913
   10MOL0     H 1338   1.092   4.914   6.624 -3.5831  0.7147  0.0632
   10MOL0     H 1339   1.136   4.579   6.757 -0.9478  0.2886  1.9509
   10MOL0     H 1340   0.989   4.640   6.774 -0.0721  2.0842  0.2744
   10MOL0     H 1341   1.123   4.756   6.802  0.0264  0.7080  0.1578
   10MOL0     H 1342   1.220   4.185   6.457 -0.0743  0.3254  0.6645
   10MOL0     H 1343   1.177   3.933   6.532 -0.5786 -1.2469 -0.5263
   10MOL0     H 1344   0.918   3.738   6.736 -0.3512 -0.9996  0.7396
   10MOL0     H 1345   0.864   3.908   6.742  1.8031 -0.0407 -0.2419
   10MOL0     H 1346   0.700   3.720   6.744 -0.0748 -1.7634  0.2010
   10MOL0     H 1347   0.675   3.861   6.634 -0.4602  0.0352  1.4967
   10MOL0     H 1348   0.725   3.724   6.440 -1.0704  1.8993  0.4166
   10MOL0     H 1349   0.608   3.634   6.530 -0.2925 -0.2194 -1.7465
   10MOL0     H 1350   0.788   3.472   6.628  0.1108  0.1768 -0.6800
   10MOL0     H 1351   0.916   3.558   6.564 -0.0654 -1.3324 -0.2654
   10MOL0     H 1352   0.839   3.540   6.328  2.4434  1.8238  2.4756
   10MOL0     H 1353   0.920   3.413   6.418  1.3127  2.4998  3.3325
   10MOL0     H 1354   0.612   3.442   6.385 -0.2866 -0.9644  3.4490
   10MOL0     H 1355   0.704   3.295   6.434  1.3350  2.6616  2.0727
   10MOL0     H 1356   0.808   3.297   6.197 -1.2380 -0.2255 -2.1113
   10MOL0     H 1357   0.695   3.439   6.170 -0.8100  0.7978  1.0955
   10MOL0     H 1358   0.608   3.144   6.224  2.1237  0.0409  1.1921
   10MOL0     H 1359   0.621   3.219   6.059 -2.2879  0.5959 -0.6370
   10MOL0     H 1360   0.756   4.028   6.490 -1.1777  1.8188 -4.5393
   10MOL0     H 1361   0.815   4.261   6.453  0.6264  1.8987  3.7048
   10MOL0     H 1362   1.086   4.556   6.284 -0.9519 -1.1198  0.6993
   10MOL0     H 1363   1.090   4.789   6.208 -3.0194 -0.2883 -0.4840
   10MOL0     H 1364   1.036   6.567   5.318 -1.9409  0.6409 -3.3601
   10MOL0     H 1365   1.175   6.726   5.172 -0.2042  0.6588 -0.6614
   10MOL0     H 1366   1.701   6.749   5.099  2.7500  3.8739  2.1241
   10MOL0     H 1367   1.871   6.911   5.014 -1.4812 -0.5361  1.9903
   10MOL0     H 1368   1.797   7.256   4.738  1.0685  1.3954 -0.0050
   10MOL0     H 1369   1.716   7.199   4.890  1.2537 -1.4126  2.1606
   10MOL0     H 1370   1.909   7.384   4.916  0.3883 -0.7116 -0.0293
   10MOL0     H 1371   2.002   7.256   4.829 -0.7925 -1.9033  0.0020
   10MOL0     H 1372   1.969   7.105   5.011 -0.7974 -1.3981  2.5254
   10MOL0     H 1373   2.058   7.232   5.078 -1.3081  1.2266  0.0428
   10MOL0     H 1374   1.755   7.242   5.091 -0.5064 -0.2867  1.1757
   10MOL0     H 1375   1.871   7.334   5.185  2.0322 -1.0068 -0.1907
   10MOL0     H 1376   1.871   6.974   5.402 -1.7424  0.3397  1.1017
   10MOL0     H 1377   1.613   6.983   4.674 -2.4869 -0.1634 -0.0282
   10MOL0     H 1378   1.353   6.871   4.756  1.0316  0.9921  0.4455
   10MOL0     H 1379   1.448   6.805   4.621 -0.9108  0.1352  0.0842
   10MOL0     H 1380   1.381   6.694   4.738 -1.6052 -0.0819 -0.6548
   11MOL0     O 1381   7.707   9.257   5.475 -0.1053 -0.5179 -0.4158
   11MOL0     C 1382   7.807   9.232   5.542 -1.2352  0.7395  0.9303
   11MOL0     O 1383   7.924   9.189   5.489 -0.5477  0.8262  1.1136
   11MOL0     C 1384   7.930   9.157   5.353 -0.0947  0.5211  0.3551
   11MOL0     C 1385   7.976   9.026   5.312 -0.3802  0.8130 -0.1796
   11MOL0     C 1386   7.983   8.995   5.175 -0.1442 -0.2349  0.0455
   11MOL0     C 1387   7.965   9.100   5.082 -0.5155 -0.1235  0.2487
   11MOL0     O 1388   7.980   9.069   4.952  0.1604 -0.0724  0.3292
   11MOL0     C 1389   7.883   8.970   4.903  0.3878 -0.3241  0.8221
   11MOL0     C 1390   7.803   9.022   4.775 -0.8802  0.0023 -0.2912
   11MOL0     C 1391   7.896   9.113   4.687  0.4001  0.7801 -0.5519
   11MOL0     C 1392   7.824   9.154   4.562 -0.1329 -0.3146  1.0831
   11MOL0     C 1393   7.918   9.257   4.492  0.7209  0.1217 -0.4203
   11MOL0     C 1394   7.849   9.282   4.362 -0.1258  0.5766  0.7212
   11MOL0     C 1395   7.937   9.382   4.272 -0.6087  0.1827  0.4500
   11MOL0     C 1396   7.969   9.516   4.334  0.1988  0.1613 -0.5035
   11MOL0     N 1397   7.856   9.603   4.382  0.2936  0.6137  0.1536
   11MOL0     C 1398   7.762   9.650   4.297 -0.5210 -0.1864 -0.3170
   11MOL0     C 1399   7.684   9.742   4.372 -0.3329 -0.4058 -0.6646
   11MOL0     C 1400   7.566   9.833   4.338 -0.9296 -0.2010  0.2699
   11MOL0     C 1401   7.426   9.774   4.323 -0.4615 -0.4719 -0.1583
   11MOL0     C 1402   7.339   9.886   4.247 -0.2799 -0.3055 -0.0778
   11MOL0     C 1403   7.307  10.020   4.323 -0.7871 -0.3875  0.1458
   11MOL0     O 1404   7.227  10.011   4.440 -0.3683  0.0776  0.2224
   11MOL0     C 1405   7.200  10.120   4.514  1.4792  0.8411 -0.5454
   11MOL0     C 1406   7.147  10.089   4.636 -0.5417 -0.3556 -0.9056
   11MOL0     C 1407   7.132  10.181   4.739 -0.1330  0.5469  0.4072
   11MOL0     C 1408   7.073  10.127   4.868 -0.2243 -0.1254  0.3789
   11MOL0     C 1409   7.182  10.311   4.731 -0.4843  0.7663 -0.4513
   11MOL0     C 1410   7.208  10.400   4.845  0.4398  0.2375  1.0206
   11MOL0     O 1411   7.199  10.523   4.812  0.5661 -0.1848  0.0247
   11MOL0     C 1412   7.273  10.620   4.879 -0.5190 -0.7791  0.6070
   11MOL0     C 1413   7.227  10.754   4.871  0.2234 -0.1093 -0.3851
   11MOL0     C 1414   7.298  10.860   4.926  0.0336  0.6121  1.2438
   11MOL0     C 1415   7.408  10.837   5.009 -0.1447  0.3628  0.7256
   11MOL0     O 1416   7.469  10.945   5.079  0.3993  0.7556  0.3773
   11MOL0     C 1417   7.419  11.086   5.076  0.1340  0.6635 -0.4183
   11MOL0     C 1418   7.529  11.177   5.134  0.4165 -0.6888  1.1875
   11MOL0     C 1419   7.519  11.324   5.089  0.8089  0.2641  0.0236
   11MOL0     C 1420   7.635  11.399   5.137  0.4295  0.2031  0.4108
   11MOL0     C 1421   7.628  11.550   5.090 -0.0821 -0.5259 -0.4811
   11MOL0     C 1422   7.697  11.563   4.952  0.3027 -0.7218  0.5092
   11MOL0     C 1423   7.849  11.564   4.978  0.4257  0.8113 -0.6242
   11MOL0     C 1424   7.903  11.620   4.849  0.1303  0.6237  0.4797
   11MOL0    Cl 1425   7.859  11.514   4.706  0.1741  0.0327 -0.0660
   11MOL0     C 1426   7.457  10.704   5.021 -0.3494  0.3202  0.9951
   11MOL0     C 1427   7.387  10.598   4.961 -0.4593  0.2864 -0.9961
   11MOL0     O 1428   7.234  10.358   4.959 -0.1301  0.1792  0.9703
   11MOL0     C 1429   7.231  10.342   4.598 -0.4420  0.5563 -0.4475
   11MOL0     C 1430   7.246  10.250   4.494 -0.3621 -0.1844 -0.4406
   11MOL0     N 1431   7.743   9.751   4.498 -0.8721 -0.5007  1.2109
   11MOL0     N 1432   7.851   9.682   4.490 -0.4099 -0.2187  0.2134
   11MOL0     C 1433   7.940   9.229   5.122  1.3237  0.0571  0.2206
   11MOL0     C 1434   7.909   9.249   5.251 -0.6886 -0.1213  0.1184
   11MOL0     C 1435   7.824   9.260   5.681 -0.9678 -0.0830  0.8237
   11MOL0     C 1436   7.944   9.214   5.742  0.4204 -0.3578  0.5557
   11MOL0     C 1437   7.965   9.234   5.881 -0.3093 -0.3325  0.6653
   11MOL0     C 1438   7.866   9.302   5.956 -0.1085  0.1111 -0.0998
   11MOL0     O 1439   7.874   9.303   6.099 -0.2326  0.2453  0.2682
   11MOL0     C 1440   7.988   9.371   6.145  0.6036 -1.0799  0.0467
   11MOL0     C 1441   7.961   9.374   6.293  0.6483  0.0786 -0.2594
   11MOL0     C 1442   8.044   9.482   6.352  0.0555 -0.4889  0.2918
   11MOL0     C 1443   8.051   9.476   6.507 -0.0695 -0.2102  0.6663
   11MOL0     C 1444   7.949   9.539   6.590  0.4565 -0.1600 -0.2197
   11MOL0     C 1445   7.846   9.582   6.654  0.2311  0.2333  0.3875
   11MOL0     C 1446   7.751   9.342   5.899 -0.3088  0.1446  0.5238
   11MOL0     C 1447   7.723   9.324   5.762 -0.3225 -0.6292 -0.0037
   11MOL0     C 1448   7.580   9.364   5.708 -0.6664  0.5906  0.2546
   11MOL0     H 1449   7.997   8.953   5.390  0.0479  1.4290  0.2869
   11MOL0     H 1450   8.012   8.892   5.158 -0.3130 -0.1740 -0.6389
   11MOL0     H 1451   7.802   8.948   4.973 -3.6068 -2.3228 -3.8096
   11MOL0     H 1452   7.930   8.872   4.898 -1.1754 -1.3660  3.7708
   11MOL0     H 1453   7.767   8.944   4.706 -2.8098  0.9629 -0.4507
   11MOL0     H 1454   7.716   9.078   4.810  0.0331  0.0744  2.0497
   11MOL0     H 1455   7.933   9.195   4.751 -1.8478  1.4463 -0.0181
   11MOL0     H 1456   7.988   9.062   4.657  1.2870  0.0532  2.8982
   11MOL0     H 1457   7.814   9.065   4.500 -2.2911  0.8854 -0.4649
   11MOL0     H 1458   7.732   9.203   4.597 -0.2780  0.8570 -0.7991
   11MOL0     H 1459   8.018   9.217   4.473  2.1310  1.5334  3.1318
   11MOL0     H 1460   7.919   9.347   4.554 -2.7233 -0.4874  0.7526
   11MOL0     H 1461   7.829   9.187   4.312 -1.0083  1.2296 -0.2152
   11MOL0     H 1462   7.751   9.326   4.382 -0.4158  0.8725 -1.1282
   11MOL0     H 1463   7.876   9.410   4.187 -0.8911  1.5971  1.0939
   11MOL0     H 1464   8.027   9.339   4.227  1.3232  3.5866  0.7122
   11MOL0     H 1465   8.039   9.501   4.416 -0.6464  0.8860  0.3785
   11MOL0     H 1466   8.007   9.570   4.246 -0.9471  0.8441 -0.6132
   11MOL0     H 1467   7.757   9.620   4.192  0.6071 -3.6040  0.4921
   11MOL0     H 1468   7.614   9.884   4.254  0.7749  0.5145  1.6208
   11MOL0     H 1469   7.557   9.894   4.428  0.5829  0.6790 -0.1326
   11MOL0     H 1470   7.431   9.678   4.272 -0.0512 -0.9537  0.7671
   11MOL0     H 1471   7.369   9.764   4.416  1.6587 -0.0634  1.2360
   11MOL0     H 1472   7.389   9.909   4.153 -1.2924  0.0295 -0.5524
   11MOL0     H 1473   7.249   9.836   4.210  0.3885 -1.3935 -0.2812
   11MOL0     H 1474   7.402  10.068   4.349 -0.3099  0.3642 -2.6589
   11MOL0     H 1475   7.242  10.088   4.267  1.4429  2.5653  0.8861
   11MOL0     H 1476   7.118   9.987   4.659 -3.1351  0.5780  0.4177
   11MOL0     H 1477   7.146  10.088   4.940 -1.6860 -2.9131  0.4827
   11MOL0     H 1478   7.000  10.045   4.861 -0.5677  0.2879 -4.6524
   11MOL0     H 1479   7.008  10.194   4.925  0.4235 -1.1646  2.4502
   11MOL0     H 1480   7.138  10.782   4.815 -1.1160 -1.3833  1.0317
   11MOL0     H 1481   7.263  10.959   4.897 -2.3306 -1.2987 -3.6048
   11MOL0     H 1482   7.388  11.112   4.974  0.1976  0.2152 -0.5560
   11MOL0     H 1483   7.335  11.096   5.145  1.2919  0.0209  1.1392
   11MOL0     H 1484   7.536  11.163   5.242 -0.1708 -1.9447  1.0787
   11MOL0     H 1485   7.619  11.144   5.081 -0.3938  2.1977 -2.3703
   11MOL0     H 1486   7.421  11.363   5.121  0.4339 -0.1930 -0.5419
   11MOL0     H 1487   7.527  11.329   4.980  2.9032 -1.9771  0.0001
   11MOL0     H 1488   7.728  11.355   5.101  0.3687  0.5414 -0.1724
   11MOL0     H 1489   7.634  11.411   5.246  0.3569  2.3656  0.2139
   11MOL0     H 1490   7.524  11.581   5.080  0.5762  2.8382  1.4866
   11MOL0     H 1491   7.677  11.629   5.149 -0.6301  0.1388 -0.9114
   11MOL0     H 1492   7.658  11.650   4.899  2.4651 -1.0824 -1.8955
   11MOL0     H 1493   7.674  11.478   4.887  3.1391 -1.6076  0.5344
   11MOL0     H 1494   7.893  11.465   4.990 -0.5861  0.4074 -0.1292
   11MOL0     H 1495   7.886  11.619   5.065 -0.9645  0.8693 -0.0432
   11MOL0     H 1496   8.011  11.607   4.845  0.2101  1.1090  0.8947
   11MOL0     H 1497   7.880  11.725   4.830  1.5406  0.8839  0.1315
   11MOL0     H 1498   7.547  10.684   5.078  0.6089 -0.0542 -0.6013
   11MOL0     H 1499   7.424  10.498   4.982 -0.2393  0.7397  0.9505
   11MOL0     H 1500   7.261  10.443   4.575 -1.0365  1.7683  3.3853
   11MOL0     H 1501   7.289  10.289   4.402 -0.0407  2.0763  0.6018
   11MOL0     H 1502   7.938   9.314   5.055  2.4571  0.4611  0.6765
   11MOL0     H 1503   7.893   9.353   5.275 -0.9450  0.1132 -1.0343
   11MOL0     H 1504   8.032   9.166   5.702  0.1177 -1.6175  1.3751
   11MOL0     H 1505   8.055   9.196   5.929  0.4939 -1.7136 -1.7567
   11MOL0     H 1506   8.085   9.334   6.112  0.4372  0.4121 -2.3230
   11MOL0     H 1507   7.992   9.477   6.119  1.3156 -1.1844 -0.3031
   11MOL0     H 1508   7.980   9.271   6.326 -2.4265 -0.5596 -0.2084
   11MOL0     H 1509   7.854   9.390   6.304  0.2405 -3.0153  1.3612
   11MOL0     H 1510   8.147   9.472   6.316 -0.1388  1.6472 -1.0080
   11MOL0     H 1511   8.003   9.580   6.327  4.7708  1.3637 -1.2971
   11MOL0     H 1512   8.150   9.520   6.523 -0.0675  0.5370 -1.1954
   11MOL0     H 1513   8.042   9.370   6.531 -2.6210 -0.7900 -2.2241
   11MOL0     H 1514   7.768   9.620   6.717 -0.5643 -0.6001 -0.0679
   11MOL0     H 1515   7.698   9.393   5.979 -1.7629  2.1531 -1.5744
   11MOL0     H 1516   7.535   9.431   5.782  1.2125  0.2244  1.8303
   11MOL0     H 1517   7.584   9.416   5.612  1.5312  2.3116  1.1767
   11MOL0     H 1518   7.517   9.275   5.699  0.2104  0.1154 -1.6866
   12MOL0     O 1519   7.116   0.637   2.946  0.6592 -0.2602 -0.1639
   12MOL0     C 1520   6.991   0.656   2.939  0.7693 -0.5444  0.4168
   12MOL0     O 1521   6.896   0.555   2.909  0.3520  0.5986  0.8781
   12MOL0     C 1522   6.766   0.592   2.908 -0.3324  0.8658  0.0979
   12MOL0     C 1523   6.702   0.638   3.023 -0.3811 -0.1200  1.0993
   12MOL0     C 1524   6.567   0.659   3.025  0.1068  0.3444  0.3387
   12MOL0     C 1525   6.475   0.618   2.914  0.1382  0.7744 -0.5223
   12MOL0     O 1526   6.342   0.626   2.940 -0.2287  0.1495 -0.0233
   12MOL0     C 1527   6.262   0.679   2.830  0.8898  0.0941  0.0843
   12MOL0     C 1528   6.123   0.737   2.885 -0.5113 -0.9093  1.1423
   12MOL0     C 1529   6.047   0.626   2.953  1.1587 -0.2376 -0.5334
   12MOL0     C 1530   5.895   0.653   2.949 -1.6043  0.7426 -0.0371
   12MOL0     C 1531   5.851   0.785   3.003 -1.0348  0.7009  0.0411
   12MOL0     C 1532   5.874   0.805   3.159  0.5995 -0.6594 -0.2680
   12MOL0     C 1533   5.851   0.948   3.195 -0.8307 -0.7539  0.3839
   12MOL0     C 1534   5.966   1.056   3.190  0.3644  0.6432 -0.3273
   12MOL0     N 1535   5.918   1.188   3.219 -0.3260  0.2795  0.5141
   12MOL0     C 1536   5.789   1.241   3.202 -0.3510 -0.0334  0.2654
   12MOL0     C 1537   5.787   1.364   3.251 -0.1441  0.4751 -0.2455
   12MOL0     C 1538   5.658   1.421   3.276  0.9709 -0.5476 -0.0266
   12MOL0     C 1539   5.605   1.369   3.412  0.2811  0.0617  0.5045
   12MOL0     C 1540   5.472   1.415   3.465  0.6142  0.2713 -0.5238
   12MOL0     C 1541   5.354   1.418   3.361  0.2361 -0.3262  0.9452
   12MOL0     O 1542   5.322   1.287   3.316  0.1436 -0.2412 -0.6607
   12MOL0     C 1543   5.207   1.223   3.351 -0.2423  0.1670 -0.8138
   12MOL0     C 1544   5.170   1.101   3.284  0.1290  0.0177  0.2578
   12MOL0     C 1545   5.035   1.040   3.296 -0.5278 -0.1834  0.5866
   12MOL0     C 1546   5.023   0.923   3.212 -0.1064 -0.0046  0.1086
   12MOL0     C 1547   4.942   1.082   3.398 -0.4273  0.7001  1.1676
   12MOL0     C 1548   4.825   0.999   3.425 -0.1284 -0.7188 -0.8081
   12MOL0     O 1549   4.776   1.023   3.558  0.3395 -0.6003 -0.6443
   12MOL0     C 1550   4.644   1.017   3.587  0.0671  0.5981  0.5894
   12MOL0     C 1551   4.606   0.957   3.704  0.0168  0.6021  0.3071
   12MOL0     C 1552   4.471   0.959   3.748 -0.2654  0.1747 -1.5882
   12MOL0     C 1553   4.366   1.018   3.671  0.5044 -0.2936 -0.0204
   12MOL0     O 1554   4.229   1.021   3.686 -0.6532  0.1945 -0.6655
   12MOL0     C 1555   4.176   0.986   3.819 -0.2565 -0.2135 -0.2164
   12MOL0     C 1556   4.179   0.836   3.856  1.0049  0.3553  0.0013
   12MOL0     C 1557   4.077   0.758   3.768  0.4401 -0.4818  0.5830
   12MOL0     C 1558   4.050   0.619   3.852 -0.8843 -0.9098  0.0639
   12MOL0     C 1559   3.985   0.519   3.768  0.1190  0.1360 -0.8961
   12MOL0     C 1560   3.933   0.403   3.848 -0.3315  0.2145  1.5748
   12MOL0     C 1561   3.845   0.298   3.774  1.1584  0.4414 -0.9501
   12MOL0     C 1562   3.804   0.181   3.860 -0.3009  0.0517 -0.5412
   12MOL0    Cl 1563   3.728   0.246   4.001  0.5516  0.2749 -0.0745
   12MOL0     C 1564   4.404   1.078   3.556  0.0888  0.0448 -0.3644
   12MOL0     C 1565   4.543   1.085   3.516 -0.4998 -0.9050  0.2277
   12MOL0     O 1566   4.764   0.943   3.340 -0.3735 -0.0755  0.7312
   12MOL0     C 1567   4.982   1.194   3.470  0.0294 -0.7877  0.1277
   12MOL0     C 1568   5.103   1.261   3.443  0.5037 -0.1214 -0.4952
   12MOL0     N 1569   5.921   1.389   3.293  0.0404  0.3958 -0.0969
   12MOL0     N 1570   5.993   1.284   3.276 -0.3109  0.0339  0.4693
   12MOL0     C 1571   6.545   0.569   2.802 -0.2374  0.2036  0.1956
   12MOL0     C 1572   6.684   0.555   2.803 -1.3194  0.8250 -0.0057
   12MOL0     C 1573   6.949   0.792   2.967 -0.6948  0.0355 -0.3327
   12MOL0     C 1574   6.877   0.868   2.873 -0.4572  0.0058 -0.4575
   12MOL0     C 1575   6.833   1.000   2.912  0.3691 -0.3787  0.7814
   12MOL0     C 1576   6.876   1.064   3.033  0.5200  0.4784  0.3169
   12MOL0     O 1577   6.846   1.198   3.063  0.2069 -0.2826  0.1315
   12MOL0     C 1578   6.709   1.238   3.077  0.5029  0.5130  0.1373
   12MOL0     C 1579   6.603   1.155   3.155 -0.7016  0.0811 -0.7714
   12MOL0     C 1580   6.463   1.213   3.132  0.1890 -1.0372  0.3387
   12MOL0     C 1581   6.356   1.160   3.227 -0.6381 -0.1427  0.7499
   12MOL0     C 1582   6.339   1.015   3.205  0.2209  0.2267  0.6583
   12MOL0     C 1583   6.313   0.895   3.210 -0.2339  0.3975 -0.2160
   12MOL0     C 1584   6.939   0.984   3.122 -0.5879 -1.2589 -0.3789
   12MOL0     C 1585   6.989   0.853   3.091  0.1215 -0.3489 -0.3912
   12MOL0     C 1586   7.073   0.774   3.195  0.3574 -0.2610  1.0338
   12MOL0     H 1587   6.764   0.652   3.111  0.5159  3.8624  0.0267
   12MOL0     H 1588   6.534   0.722   3.107  0.2274  0.3601  0.3766
   12MOL0     H 1589   6.245   0.608   2.748  0.0749  0.3143  0.0498
   12MOL0     H 1590   6.308   0.767   2.785  2.1870 -0.5998  0.0159
   12MOL0     H 1591   6.146   0.818   2.955  0.5565  0.9849 -1.2529
   12MOL0     H 1592   6.072   0.772   2.795  1.6913  0.4578  0.3611
   12MOL0     H 1593   6.064   0.531   2.901 -3.9793 -0.3651 -2.6488
   12MOL0     H 1594   6.079   0.613   3.057 -0.8436 -1.9101 -0.0546
   12MOL0     H 1595   5.867   0.617   2.849 -0.1085  1.0540 -0.5867
   12MOL0     H 1596   5.841   0.584   3.014 -1.6370  1.9424  1.2482
   12MOL0     H 1597   5.744   0.786   2.981 -0.8018  1.2299 -1.1243
   12MOL0     H 1598   5.879   0.871   2.942 -1.4380  1.8533  1.4188
   12MOL0     H 1599   5.809   0.731   3.206  0.0244  0.1459  0.2315
   12MOL0     H 1600   5.978   0.779   3.181  1.4122  0.4157 -2.5885
   12MOL0     H 1601   5.814   0.957   3.297  2.6671  1.5109  1.6511
   12MOL0     H 1602   5.766   0.988   3.139  0.2056  1.8934  0.5633
   12MOL0     H 1603   6.038   1.028   3.268 -2.0547 -2.1392  1.1002
   12MOL0     H 1604   6.013   1.052   3.092  0.9414 -3.5934 -0.0708
   12MOL0     H 1605   5.703   1.196   3.154  0.6325  0.7830 -2.4040
   12MOL0     H 1606   5.582   1.415   3.197  0.5470  0.8159  0.2606
   12MOL0     H 1607   5.660   1.529   3.294  2.1988 -0.2423 -1.7988
   12MOL0     H 1608   5.588   1.262   3.400 -1.5285  0.2561  1.0390
   12MOL0     H 1609   5.675   1.398   3.491 -1.5659  2.7139  1.3015
   12MOL0     H 1610   5.421   1.359   3.543  1.5130 -1.5191 -1.1643
   12MOL0     H 1611   5.476   1.509   3.520 -2.8974  0.0484  0.3352
   12MOL0     H 1612   5.262   1.471   3.388  2.6803  4.1974  1.3514
   12MOL0     H 1613   5.387   1.478   3.276 -2.3691  1.5275  1.1012
   12MOL0     H 1614   5.238   1.081   3.202  1.3101  2.2222  0.5984
   12MOL0     H 1615   4.937   0.855   3.216  1.0643 -1.6053 -0.7770
   12MOL0     H 1616   5.098   0.851   3.246  1.0165  1.1541  0.1763
   12MOL0     H 1617   5.028   0.945   3.105  0.7372 -3.0762 -0.5646
   12MOL0     H 1618   4.680   0.908   3.766  0.8806  3.1084  1.3810
   12MOL0     H 1619   4.458   0.907   3.842  1.1738  1.0096 -0.8836
   12MOL0     H 1620   4.226   1.051   3.891 -3.4032  3.4124 -0.9973
   12MOL0     H 1621   4.070   1.007   3.836 -1.1398 -2.3294 -2.5189
   12MOL0     H 1622   4.270   0.777   3.843  0.0852 -0.8642 -1.2581
   12MOL0     H 1623   4.145   0.831   3.960 -0.2256  2.7438 -0.2296
   12MOL0     H 1624   4.118   0.737   3.669  0.4775 -1.7308  0.8368
   12MOL0     H 1625   3.985   0.817   3.773  1.4166  1.0704  0.7500
   12MOL0     H 1626   3.991   0.646   3.941 -2.1400  0.7170 -1.1997
   12MOL0     H 1627   4.148   0.584   3.885 -1.4722 -2.0360  0.6704
   12MOL0     H 1628   3.896   0.561   3.722 -0.7477 -0.6995 -0.0296
   12MOL0     H 1629   4.054   0.484   3.690  1.3842  0.3415  0.0954
   12MOL0     H 1630   3.883   0.441   3.937 -1.4367 -2.2902  2.1082
   12MOL0     H 1631   4.028   0.359   3.880  0.5699 -0.1388 -1.2784
   12MOL0     H 1632   3.893   0.253   3.686  0.6860  1.7447 -1.9126
   12MOL0     H 1633   3.755   0.357   3.751  0.0109 -0.9695 -0.2536
   12MOL0     H 1634   3.889   0.121   3.893 -1.5895 -0.8180  1.4518
   12MOL0     H 1635   3.734   0.118   3.804  1.7943 -3.3605  0.4099
   12MOL0     H 1636   4.323   1.125   3.501  1.6254  0.9761 -1.9779
   12MOL0     H 1637   4.570   1.146   3.429 -0.8056  1.4723  1.7042
   12MOL0     H 1638   4.912   1.234   3.543 -2.5046  1.0628 -3.0263
   12MOL0     H 1639   5.120   1.354   3.495  2.7222 -0.1665 -1.0527
   12MOL0     H 1640   6.483   0.543   2.717  0.5404  2.9381 -1.3422
   12MOL0     H 1641   6.733   0.507   2.719  0.4151 -2.5601  2.6862
   12MOL0     H 1642   6.831   0.820   2.786 -3.3785  0.5874  0.6588
   12MOL0     H 1643   6.772   1.059   2.844 -0.8775 -1.7904  0.6239
   12MOL0     H 1644   6.715   1.336   3.126  2.0310  0.3495  0.3179
   12MOL0     H 1645   6.666   1.249   2.977 -1.9119 -2.8235  0.6568
   12MOL0     H 1646   6.624   1.169   3.261  2.7293 -0.6088 -1.2521
   12MOL0     H 1647   6.611   1.050   3.125 -2.4470 -0.1526 -0.5037
   12MOL0     H 1648   6.473   1.321   3.146  0.7163 -1.2681  1.8454
   12MOL0     H 1649   6.438   1.208   3.025 -1.9120  1.4802  0.6214
   12MOL0     H 1650   6.258   1.207   3.214 -0.5414 -0.1478 -0.0211
   12MOL0     H 1651   6.371   1.177   3.334 -0.5016  0.2324  0.6736
   12MOL0     H 1652   6.273   0.797   3.221 -0.1477  0.5043  1.2100
   12MOL0     H 1653   6.965   1.031   3.216 -1.4384 -2.8088  0.6763
   12MOL0     H 1654   7.171   0.750   3.153 -0.0018 -0.1160  0.0787
   12MOL0     H 1655   7.101   0.832   3.283 -1.2997 -0.3554  1.6558
   12MOL0     H 1656   7.018   0.688   3.234 -0.7324 -0.3031 -0.4749
   13MOL0     O 1657   5.855  11.077   0.756 -0.0178  0.1097 -0.4013
   13MOL0     C 1658   5.972  11.065   0.776 -1.0075  0.5625 -1.0916
   13MOL0     O 1659   6.030  10.967   0.851 -0.2582  0.1064 -0.2088
   13MOL0     C 1660   5.953  10.867   0.904 -1.2246  0.9919 -0.0896
   13MOL0     C 1661   5.859  10.792   0.821 -1.4450  0.0229 -0.9025
   13MOL0     C 1662   5.786  10.685   0.875  0.3279 -0.0403  0.4265
   13MOL0     C 1663   5.808  10.640   1.015  0.5040  0.0010  0.3470
   13MOL0     O 1664   5.738  10.534   1.071 -0.1039 -0.1600  0.7928
   13MOL0     C 1665   5.647  10.462   0.996  0.0888 -0.2605 -0.7760
   13MOL0     C 1666   5.705  10.343   0.918 -0.2137  0.4944  0.5140
   13MOL0     C 1667   5.760  10.231   0.999  0.5601  0.3068 -0.2223
   13MOL0     C 1668   5.816  10.123   0.905  0.7301 -0.2285  0.4089
   13MOL0     C 1669   5.880   9.999   0.966 -0.4104 -1.4367 -0.2447
   13MOL0     C 1670   5.998  10.033   1.058  0.5863 -0.2551  0.0085
   13MOL0     C 1671   6.120  10.087   0.992  0.6273  0.0286 -0.2793
   13MOL0     C 1672   6.244  10.088   1.079 -0.2869 -0.2543  0.8124
   13MOL0     N 1673   6.250  10.176   1.196 -0.1756 -0.7417 -0.0419
   13MOL0     C 1674   6.214  10.149   1.324 -0.4088 -0.1883 -0.1647
   13MOL0     C 1675   6.226  10.279   1.392 -0.4156  1.1840 -0.0016
   13MOL0     C 1676   6.207  10.278   1.542 -0.3627  0.0465  0.2080
   13MOL0     C 1677   6.316  10.223   1.641  0.5020 -0.6170  0.6555
   13MOL0     C 1678   6.461  10.240   1.593  0.5787  0.3624  0.4557
   13MOL0     C 1679   6.492  10.386   1.578  0.3028 -0.6365  0.3382
   13MOL0     O 1680   6.640  10.417   1.573 -0.3957 -0.8683  0.3678
   13MOL0     C 1681   6.705  10.345   1.476  0.5593 -1.4698  0.8186
   13MOL0     C 1682   6.648  10.311   1.350  0.3395 -0.5754  0.8844
   13MOL0     C 1683   6.725  10.261   1.248 -0.1826  0.7527  0.6120
   13MOL0     C 1684   6.649  10.214   1.132 -0.1677 -0.6448  0.2875
   13MOL0     C 1685   6.859  10.259   1.253  0.0123  0.1516 -0.9982
   13MOL0     C 1686   6.952  10.240   1.134 -0.7882 -0.0014  0.0406
   13MOL0     O 1687   6.913  10.281   1.014 -0.1965  0.3573  0.1978
   13MOL0     C 1688   7.003  10.282   0.911 -0.2273 -0.3814  0.5959
   13MOL0     C 1689   7.089  10.168   0.883  0.3969 -0.2489  0.7622
   13MOL0     C 1690   7.188  10.187   0.777  0.5718  0.4408 -0.0069
   13MOL0     C 1691   7.194  10.310   0.702 -0.3156  0.4054 -0.7301
   13MOL0     O 1692   7.310  10.311   0.622  0.1257 -0.3991  0.3804
   13MOL0     C 1693   7.329  10.420   0.535 -0.4999  0.2589 -0.1759
   13MOL0     C 1694   7.456  10.375   0.455  0.9909 -0.9122  0.4863
   13MOL0     C 1695   7.473  10.479   0.338 -1.0551 -0.0472 -0.0497
   13MOL0     C 1696   7.612  10.470   0.273 -0.0966  0.6115  0.1007
   13MOL0     C 1697   7.629  10.555   0.148  0.5652 -0.0135  0.2505
   13MOL0     C 1698   7.630  10.712   0.157 -1.3335 -1.1683  0.3761
   13MOL0     C 1699   7.650  10.770   0.021  0.4326  0.8764  0.3600
   13MOL0     C 1700   7.663  10.925   0.014  0.2841  0.3116  0.1494
   13MOL0    Cl 1701   7.586  10.979  -0.139 -0.0779  0.5761  0.0139
   13MOL0     C 1702   7.109  10.418   0.735  0.3402  1.2031  0.5821
   13MOL0     C 1703   7.002  10.393   0.828  0.1641 -0.5600  0.8419
   13MOL0     O 1704   7.067  10.203   1.160  0.1000  0.5835  0.1376
   13MOL0     C 1705   6.921  10.318   1.365 -0.4925  0.4054  0.3330
   13MOL0     C 1706   6.843  10.352   1.476 -0.5845 -0.4673  0.6339
   13MOL0     N 1707   6.258  10.365   1.292  0.4489  0.1039 -0.1250
   13MOL0     N 1708   6.266  10.305   1.182  0.6015 -0.6065  1.0713
   13MOL0     C 1709   5.908  10.704   1.090 -0.1875 -0.9357 -0.1514
   13MOL0     C 1710   5.981  10.817   1.033  0.1355  0.1699 -0.6669
   13MOL0     C 1711   6.073  11.159   0.722  0.6047  0.4406 -0.1126
   13MOL0     C 1712   6.206  11.128   0.722 -0.9774 -0.1695  1.1843
   13MOL0     C 1713   6.307  11.218   0.676 -0.4637 -0.5378 -0.2042
   13MOL0     C 1714   6.286  11.339   0.617  0.0430 -0.6236 -1.3394
   13MOL0     O 1715   6.385  11.426   0.576 -0.3172 -1.0912  0.0467
   13MOL0     C 1716   6.491  11.464   0.663  0.2193  0.2929 -0.6546
   13MOL0     C 1717   6.614  11.386   0.629  0.2086  0.3081  0.1275
   13MOL0     C 1718   6.735  11.476   0.649 -0.4569  0.8106  0.0074
   13MOL0     C 1719   6.861  11.408   0.606 -0.1729  0.3857 -0.4545
   13MOL0     C 1720   6.866  11.374   0.460 -0.1917  0.4365  0.9045
   13MOL0     C 1721   6.842  11.354   0.341  0.3162  0.0836 -0.2308
   13MOL0     C 1722   6.145  11.364   0.601 -1.2084 -0.1668 -0.1255
   13MOL0     C 1723   6.040  11.281   0.653 -0.8447  0.4564 -0.4084
   13MOL0     C 1724   5.907  11.330   0.641 -0.2436  0.1855 -0.0119
   13MOL0     H 1725   5.855  10.821   0.716  1.4438  1.5463 -0.7061
   13MOL0     H 1726   5.733  10.615   0.811  3.6763 -0.9632 -1.5776
   13MOL0     H 1727   5.585  10.527   0.933 -0.2473  1.2236  1.0006
   13MOL0     H 1728   5.572  10.424   1.067  0.3715 -1.8897 -1.3323
   13MOL0     H 1729   5.624  10.291   0.866  0.2393 -2.7955  2.8525
   13MOL0     H 1730   5.771  10.381   0.839  0.2016 -1.5683 -0.1958
   13MOL0     H 1731   5.838  10.261   1.070  1.0569 -1.2759 -0.0521
   13MOL0     H 1732   5.683  10.174   1.051  0.3149  0.8931  0.0668
   13MOL0     H 1733   5.731  10.088   0.846  1.2390  1.0252 -1.1461
   13MOL0     H 1734   5.873  10.162   0.820 -2.6908 -0.4534 -2.1742
   13MOL0     H 1735   5.905   9.923   0.891  4.7521 -1.5284  1.2187
   13MOL0     H 1736   5.807   9.955   1.034  1.9308  0.8524  4.1398
   13MOL0     H 1737   5.957  10.096   1.138  0.1489 -0.6099  0.0710
   13MOL0     H 1738   6.027   9.937   1.101 -0.2855 -0.3116  0.5079
   13MOL0     H 1739   6.102  10.188   0.954 -1.1801 -1.2514 -3.1910
   13MOL0     H 1740   6.139  10.022   0.905 -0.4120 -1.5360  0.6059
   13MOL0     H 1741   6.260   9.984   1.107  1.5879 -1.3211 -3.3596
   13MOL0     H 1742   6.323  10.118   1.009 -2.7183  1.9671 -1.2108
   13MOL0     H 1743   6.211  10.059   1.384 -0.2049 -0.6292 -0.8105
   13MOL0     H 1744   6.106  10.245   1.565 -1.3384  1.2091 -2.0869
   13MOL0     H 1745   6.194  10.385   1.563  3.0843  0.9611 -1.5685
   13MOL0     H 1746   6.300  10.257   1.744 -1.9352  2.7523 -0.6614
   13MOL0     H 1747   6.297  10.115   1.641 -0.9066 -0.3950 -0.2080
   13MOL0     H 1748   6.527  10.184   1.660 -2.3334 -3.3251  0.5708
   13MOL0     H 1749   6.470  10.183   1.501  0.8559 -0.9892  1.2975
   13MOL0     H 1750   6.439  10.427   1.492  0.9486  0.3489  0.3962
   13MOL0     H 1751   6.459  10.441   1.666  1.2240  0.7612 -0.1431
   13MOL0     H 1752   6.542  10.326   1.329  0.4860 -0.2458  0.3736
   13MOL0     H 1753   6.545  10.192   1.160 -1.9317  3.5056 -2.1325
   13MOL0     H 1754   6.709  10.132   1.092  0.7593 -0.2940  0.9433
   13MOL0     H 1755   6.634  10.292   1.057  1.2938 -0.0498  0.5873
   13MOL0     H 1756   7.071  10.073   0.933  2.2287 -1.7857 -1.3103
   13MOL0     H 1757   7.256  10.105   0.754 -1.5636 -0.8426 -2.2335
   13MOL0     H 1758   7.249  10.436   0.463 -0.7687 -1.0666 -0.2039
   13MOL0     H 1759   7.347  10.513   0.591 -0.3232 -1.4184  2.7915
   13MOL0     H 1760   7.533  10.347   0.527  0.8491 -0.5867  0.7680
   13MOL0     H 1761   7.427  10.288   0.395  0.7679  1.8886 -3.9036
   13MOL0     H 1762   7.458  10.581   0.373 -1.4796 -0.7047  1.8302
   13MOL0     H 1763   7.394  10.464   0.264 -1.0972 -0.3002  0.0424
   13MOL0     H 1764   7.631  10.365   0.250 -0.0214  0.4502  0.8949
   13MOL0     H 1765   7.694  10.495   0.340 -0.0248 -2.6140  1.3626
   13MOL0     H 1766   7.727  10.528   0.108  1.3678  2.3063  0.4661
   13MOL0     H 1767   7.548  10.517   0.085  0.9881  0.7358 -0.7666
   13MOL0     H 1768   7.692  10.758   0.235 -1.7793  1.4992 -0.7415
   13MOL0     H 1769   7.528  10.737   0.189 -1.4867 -0.6451 -0.4791
   13MOL0     H 1770   7.581  10.725  -0.051 -0.2339 -0.5613  1.8372
   13MOL0     H 1771   7.749  10.742  -0.016  1.1015  3.2286  0.1959
   13MOL0     H 1772   7.769  10.947   0.002 -0.1011  2.2515 -0.1055
   13MOL0     H 1773   7.619  10.951   0.111  0.3208 -1.8114  0.7741
   13MOL0     H 1774   7.109  10.508   0.674  0.4084  0.8645  0.0773
   13MOL0     H 1775   6.920  10.464   0.832 -1.7264 -2.6841  1.9069
   13MOL0     H 1776   7.029  10.324   1.380 -0.6488 -1.0391  2.7662
   13MOL0     H 1777   6.882  10.418   1.553 -0.8771  3.8056 -2.5172
   13MOL0     H 1778   5.947  10.651   1.176 -1.2215 -0.1026  0.8555
   13MOL0     H 1779   6.057  10.855   1.101 -1.0960  1.5298 -0.0083
   13MOL0     H 1780   6.228  11.035   0.773 -0.3353 -0.9629 -0.4631
   13MOL0     H 1781   6.404  11.192   0.716 -0.1540 -0.0348 -0.6123
   13MOL0     H 1782   6.490  11.572   0.650 -3.8343  0.4508 -0.2647
   13MOL0     H 1783   6.467  11.427   0.763  1.7036 -3.8481 -1.5857
   13MOL0     H 1784   6.607  11.353   0.525 -4.0387 -0.5967  0.5299
   13MOL0     H 1785   6.622  11.306   0.703 -0.4300  0.8043  0.7438
   13MOL0     H 1786   6.710  11.560   0.584 -1.8297  0.1731 -0.3237
   13MOL0     H 1787   6.739  11.522   0.749 -2.0834  4.0633 -1.2846
   13MOL0     H 1788   6.879  11.315   0.660 -1.8999  0.6492  0.6780
   13MOL0     H 1789   6.946  11.474   0.627 -0.1871  0.0763  0.6696
   13MOL0     H 1790   6.825  11.321   0.241  1.7680  3.0841 -1.6202
   13MOL0     H 1791   6.116  11.451   0.542 -1.6084 -1.2385 -1.5749
   13MOL0     H 1792   5.847  11.276   0.568  0.0747  0.8976 -0.8141
   13MOL0     H 1793   5.858  11.329   0.739  2.0541  0.9789  1.2051
   13MOL0     H 1794   5.905  11.428   0.592 -2.0259 -0.2970 -1.0067
   14MOL0     O 1795  10.443   3.295   7.486  0.3396  0.0220  0.1916
   14MOL0     C 1796  10.423   3.419   7.492 -0.1790  0.1409  0.3985
   14MOL0     O 1797  10.293   3.480   7.494 -0.1256  0.4250  0.5572
   14MOL0     C 1798  10.178   3.399   7.491  1.0990  1.2739  0.1744
   14MOL0     C 1799  10.112   3.367   7.368  0.3478 -0.1818  0.7198
   14MOL0     C 1800   9.997   3.282   7.369 -0.3357 -0.6286 -0.7060
   14MOL0     C 1801   9.940   3.244   7.493  0.8764  0.5986  0.3832
   14MOL0     O 1802   9.805   3.190   7.488 -0.1032 -0.1552 -0.0040
   14MOL0     C 1803   9.769   3.083   7.575  0.1077 -0.0967  0.5266
   14MOL0     C 1804   9.635   3.024   7.521  0.0088 -0.5932 -0.8732
   14MOL0     C 1805   9.580   2.910   7.601 -0.3113 -0.7217  0.1275
   14MOL0     C 1806   9.555   2.917   7.755 -0.3324  0.4979 -0.1985
   14MOL0     C 1807   9.481   2.793   7.799 -0.2305  0.2015 -0.1740
   14MOL0     C 1808   9.435   2.809   7.941 -0.2629  0.2919  0.2259
   14MOL0     C 1809   9.331   2.704   7.986  0.4991  0.1235  0.2671
   14MOL0     C 1810   9.202   2.727   7.895  0.0652  1.4362 -0.7628
   14MOL0     N 1811   9.079   2.679   7.972  0.1401  0.3551  0.6719
   14MOL0     C 1812   9.027   2.555   7.941 -0.2407 -0.1463  0.1989
   14MOL0     C 1813   8.896   2.555   7.990  0.0469  0.5571  0.1393
   14MOL0     C 1814   8.798   2.432   7.989 -1.1446 -0.7733  0.5910
   14MOL0     C 1815   8.828   2.342   8.117 -0.1952  0.8085  0.3073
   14MOL0     C 1816   8.779   2.419   8.246 -0.5828 -0.4427  0.2555
   14MOL0     C 1817   8.787   2.335   8.375  0.9093 -0.5816 -0.0752
   14MOL0     O 1818   8.755   2.435   8.476 -0.6544  0.6024 -0.1884
   14MOL0     C 1819   8.799   2.413   8.602 -0.2609 -0.1626 -1.1262
   14MOL0     C 1820   8.743   2.497   8.693 -0.1136  0.2605 -0.8960
   14MOL0     C 1821   8.777   2.490   8.830 -0.3094  0.5383  0.8544
   14MOL0     C 1822   8.696   2.586   8.910 -1.1666  0.8708  0.7098
   14MOL0     C 1823   8.876   2.393   8.877  0.2699  0.8455  0.6109
   14MOL0     C 1824   8.906   2.378   9.024 -0.1280 -0.9122 -0.1709
   14MOL0     O 1825   8.845   2.471   9.114  0.0858  1.2160  0.3239
   14MOL0     C 1826   8.906   2.484   9.236 -0.2425 -0.3150  0.2694
   14MOL0     C 1827   8.984   2.602   9.268  0.0480  0.0620 -0.8615
   14MOL0     C 1828   9.033   2.620   9.398  0.6004  0.0665 -0.1907
   14MOL0     C 1829   9.020   2.508   9.500 -1.1470  0.0290 -0.1135
   14MOL0     O 1830   9.069   2.513   9.628  0.9545 -0.7886 -0.7822
   14MOL0     C 1831   9.162   2.605   9.659 -0.4322 -0.9336  1.0203
   14MOL0     C 1832   9.268   2.540   9.753  0.6077 -0.1730 -0.3274
   14MOL0     C 1833   9.356   2.648   9.808 -0.6079  0.7206 -0.2090
   14MOL0     C 1834   9.449   2.604   9.924  0.7246  0.4210  0.8288
   14MOL0     C 1835   9.567   2.537   9.862 -0.9417 -0.8136  0.2806
   14MOL0     C 1836   9.692   2.508   9.950  0.2143  0.4003 -0.5461
   14MOL0     C 1837   9.656   2.416  10.073  0.0495  0.3066 -0.8552
   14MOL0     C 1838   9.773   2.350  10.150 -0.0739 -0.1712 -0.6019
   14MOL0    Cl 1839   9.726   2.249  10.285 -0.0212 -0.2139 -0.1359
   14MOL0     C 1840   8.952   2.395   9.467  0.5680 -0.4770  0.4076
   14MOL0     C 1841   8.890   2.386   9.342  0.0230 -0.6592  1.1303
   14MOL0     O 1842   9.003   2.307   9.055  0.8113 -0.4488 -0.0125
   14MOL0     C 1843   8.927   2.297   8.786  0.6682  0.0256  0.8362
   14MOL0     C 1844   8.894   2.311   8.647  0.5453  0.3903 -0.5347
   14MOL0     N 1845   8.871   2.676   8.054 -0.3806 -0.0231  0.7896
   14MOL0     N 1846   8.977   2.751   8.032  0.1920 -0.2916  0.0348
   14MOL0     C 1847  10.011   3.264   7.615 -0.4234 -0.6441  0.2169
   14MOL0     C 1848  10.130   3.330   7.605 -0.2473  0.2906  0.4023
   14MOL0     C 1849  10.546   3.503   7.512 -0.7335  1.2860  0.2935
   14MOL0     C 1850  10.667   3.453   7.468  0.1253 -0.1318 -0.1405
   14MOL0     C 1851  10.786   3.517   7.490  0.5430 -0.6873 -0.4634
   14MOL0     C 1852  10.792   3.630   7.567  0.5659 -0.6153 -0.2674
   14MOL0     O 1853  10.907   3.703   7.613  0.1066 -0.7331  0.4760
   14MOL0     C 1854  11.027   3.635   7.612 -0.3556  0.0205 -0.0158
   14MOL0     C 1855  11.128   3.679   7.718 -0.3386 -0.2680 -0.8632
   14MOL0     C 1856  11.198   3.821   7.702 -0.4323  0.0271  0.8820
   14MOL0     C 1857  11.271   3.848   7.561  0.9866 -0.2533  0.2525
   14MOL0     C 1858  11.412   3.795   7.559 -0.2820 -0.5084 -1.1861
   14MOL0     C 1859  11.593   3.732   7.540  0.0789  0.0777 -0.5478
   14MOL0     C 1860  10.673   3.689   7.605 -1.2895 -0.0152  0.8432
   14MOL0     C 1861  10.549   3.629   7.583  1.0298  0.5160  0.3948
   14MOL0     C 1862  10.428   3.699   7.643 -0.2608  0.6343  0.2732
   14MOL0     H 1863  10.152   3.401   7.273  2.1583 -2.1459  0.7072
   14MOL0     H 1864   9.952   3.268   7.271  0.7416  1.2275 -1.5087
   14MOL0     H 1865   9.765   3.131   7.673  1.0712 -0.0184  0.5369
   14MOL0     H 1866   9.846   3.006   7.586  0.9935  0.3285 -1.9688
   14MOL0     H 1867   9.558   3.101   7.530  0.4267 -0.1771 -0.7717
   14MOL0     H 1868   9.654   3.008   7.415  0.8753  1.9253 -1.1689
   14MOL0     H 1869   9.491   2.875   7.549 -0.3732  0.7091 -0.8058
   14MOL0     H 1870   9.646   2.827   7.574 -0.9793 -1.5504  0.9910
   14MOL0     H 1871   9.643   2.909   7.820 -2.1299 -1.4413  2.2107
   14MOL0     H 1872   9.493   3.005   7.777 -2.2717 -0.1512 -2.6841
   14MOL0     H 1873   9.546   2.706   7.783 -0.3034  0.4968 -2.4545
   14MOL0     H 1874   9.401   2.776   7.727  1.2005 -1.3834 -1.4911
   14MOL0     H 1875   9.527   2.768   7.986 -1.4979 -2.8118  0.2101
   14MOL0     H 1876   9.419   2.911   7.976  1.0766  0.1653  1.3302
   14MOL0     H 1877   9.303   2.712   8.092 -3.8955 -3.5536 -0.2867
   14MOL0     H 1878   9.387   2.609   7.989 -0.6329 -0.5499  0.9570
   14MOL0     H 1879   9.188   2.828   7.856 -0.8069  1.1106 -1.3268
   14MOL0     H 1880   9.215   2.662   7.808  0.7634 -0.7859  0.8919
   14MOL0     H 1881   9.080   2.470   7.900 -2.1252 -0.1938 -2.4083
   14MOL0     H 1882   8.795   2.370   7.899 -0.7132  1.3625 -0.9874
   14MOL0     H 1883   8.701   2.481   8.007 -0.4540  0.3575  1.3653
   14MOL0     H 1884   8.766   2.252   8.107  0.4487  0.2994  0.8030
   14MOL0     H 1885   8.934   2.314   8.121 -0.2442  0.2041 -1.5626
   14MOL0     H 1886   8.826   2.517   8.253 -1.1955  0.1164 -2.4733
   14MOL0     H 1887   8.672   2.438   8.242 -0.5581 -0.5296 -1.1883
   14MOL0     H 1888   8.709   2.261   8.355  1.3730 -0.6772 -1.6421
   14MOL0     H 1889   8.889   2.297   8.381  0.0310 -2.8970  1.5838
   14MOL0     H 1890   8.674   2.566   8.645  1.2787  1.7007 -0.8906
   14MOL0     H 1891   8.632   2.519   8.967  0.7909 -1.3108  0.4881
   14MOL0     H 1892   8.625   2.651   8.857 -0.7289  1.4791  0.8551
   14MOL0     H 1893   8.745   2.648   8.986 -2.5638  0.4471  1.9927
   14MOL0     H 1894   8.989   2.683   9.196  0.0579  2.0523  1.2749
   14MOL0     H 1895   9.072   2.716   9.428 -1.6836  0.5528  1.5442
   14MOL0     H 1896   9.214   2.643   9.571 -0.5911 -0.7198  1.0175
   14MOL0     H 1897   9.111   2.696   9.694 -0.6545 -0.4461 -0.4749
   14MOL0     H 1898   9.233   2.479   9.838  0.0963  2.7746  1.7469
   14MOL0     H 1899   9.326   2.477   9.686  1.2848  1.7366 -1.6220
   14MOL0     H 1900   9.286   2.722   9.849 -0.2516  0.0318  1.7276
   14MOL0     H 1901   9.412   2.696   9.727  0.2684  2.9054  1.5817
   14MOL0     H 1902   9.405   2.535   9.997  0.7971 -0.2959  0.2151
   14MOL0     H 1903   9.478   2.694   9.979 -0.4839  1.9205 -0.8769
   14MOL0     H 1904   9.522   2.443   9.827 -2.8316  1.0561 -2.7923
   14MOL0     H 1905   9.606   2.588   9.773  0.1157  1.1445  1.8153
   14MOL0     H 1906   9.725   2.609   9.979 -0.5581 -0.3459  3.5876
   14MOL0     H 1907   9.753   2.452   9.879 -2.6003 -2.3642 -0.9882
   14MOL0     H 1908   9.582   2.342  10.042 -0.2938  0.2637  0.0229
   14MOL0     H 1909   9.611   2.483  10.147 -0.0675 -0.9681  0.2889
   14MOL0     H 1910   9.841   2.427  10.185 -1.5985  0.8187  0.3224
   14MOL0     H 1911   9.835   2.289  10.083  0.2409 -0.6351  0.0947
   14MOL0     H 1912   8.930   2.316   9.538 -1.0333 -0.2942  0.1597
   14MOL0     H 1913   8.814   2.310   9.324 -2.3290  0.9096  3.6339
   14MOL0     H 1914   8.989   2.213   8.814  0.9526 -1.1425 -2.7199
   14MOL0     H 1915   8.935   2.238   8.578  1.2105  0.8685 -0.6538
   14MOL0     H 1916   9.978   3.226   7.711  1.0918  0.1431  1.0854
   14MOL0     H 1917  10.191   3.324   7.695 -0.8842  2.4333  1.0272
   14MOL0     H 1918  10.662   3.358   7.415  2.1150  1.0477 -2.6568
   14MOL0     H 1919  10.876   3.460   7.469  2.4418  2.8210 -2.7351
   14MOL0     H 1920  11.012   3.527   7.625 -1.2801  0.2315  0.8243
   14MOL0     H 1921  11.060   3.646   7.509 -0.5002 -2.0450 -0.3321
   14MOL0     H 1922  11.209   3.605   7.721  2.0736  1.8744 -4.8046
   14MOL0     H 1923  11.074   3.676   7.813 -1.6270  0.5937 -1.5408
   14MOL0     H 1924  11.129   3.903   7.723 -0.0001  0.1962  1.7059
   14MOL0     H 1925  11.282   3.825   7.773  1.2076 -2.4644 -0.7603
   14MOL0     H 1926  11.284   3.955   7.538 -1.1619 -0.1826 -0.8964
   14MOL0     H 1927  11.214   3.810   7.476  2.1291 -2.5883  0.4417
   14MOL0     H 1928  11.695   3.698   7.542 -0.7584 -2.7050  0.7426
   14MOL0     H 1929  10.694   3.778   7.663  2.0022 -0.9260  1.2435
   14MOL0     H 1930  10.376   3.742   7.556  0.2293  0.7112  0.0154
   14MOL0     H 1931  10.354   3.635   7.692  0.8999 -1.0524 -0.1264
   14MOL0     H 1932  10.469   3.770   7.716 -1.4379 -0.2028  1.8096
   15MOL0     O 1933   4.979   6.119   9.168 -0.2297 -0.0300 -0.0873
   15MOL0     C 1934   5.054   6.168   9.255 -0.3792 -0.4946  0.0782
   15MOL0     O 1935   5.140   6.090   9.327 -0.1807 -0.2028  0.8199
   15MOL0     C 1936   5.149   5.958   9.308  0.6914  0.3295  0.7867
   15MOL0     C 1937   5.199   5.909   9.182 -0.5131  0.0826  0.2663
   15MOL0     C 1938   5.216   5.778   9.154 -0.0419 -0.2605 -0.3723
   15MOL0     C 1939   5.172   5.687   9.245  0.4977  1.3868 -0.0378
   15MOL0     O 1940   5.203   5.553   9.217  0.0846 -0.3114  0.7524
   15MOL0     C 1941   5.134   5.438   9.284 -0.4153 -0.4947  0.5093
   15MOL0     C 1942   5.231   5.314   9.273  0.9453  0.0400 -0.1239
   15MOL0     C 1943   5.324   5.301   9.402  0.3919  0.7209  0.0981
   15MOL0     C 1944   5.436   5.190   9.388  1.0880  1.0518  0.6825
   15MOL0     C 1945   5.502   5.146   9.517 -1.0491  0.2306 -1.5588
   15MOL0     C 1946   5.636   5.079   9.506 -1.0236  0.3512 -1.1627
   15MOL0     C 1947   5.640   4.934   9.450  1.4582 -0.1126  0.4916
   15MOL0     C 1948   5.770   4.855   9.458 -0.4798  0.0333 -0.4286
   15MOL0     N 1949   5.759   4.718   9.398 -0.0510 -0.4820  0.0059
   15MOL0     C 1950   5.755   4.684   9.266  0.5498  0.2230 -0.5612
   15MOL0     C 1951   5.711   4.549   9.269  0.8040 -0.5712  0.3521
   15MOL0     C 1952   5.690   4.457   9.147  0.3303  0.6561  0.2869
   15MOL0     C 1953   5.808   4.469   9.043  0.1705  0.3716 -0.0196
   15MOL0     C 1954   5.931   4.412   9.104 -0.5898 -0.3945 -1.4086
   15MOL0     C 1955   6.058   4.466   9.034  0.9339  0.1206 -0.4000
   15MOL0     O 1956   6.047   4.456   8.895  0.4159 -0.1424  0.7266
   15MOL0     C 1957   6.053   4.339   8.826 -0.0924 -0.4670  0.0276
   15MOL0     C 1958   6.131   4.234   8.868  0.8029  0.0057  0.3009
   15MOL0     C 1959   6.143   4.118   8.796 -1.0364  0.3927 -0.4157
   15MOL0     C 1960   6.240   4.011   8.847  0.1605 -0.2975  0.5843
   15MOL0     C 1961   6.052   4.099   8.677 -0.6468  0.0841  0.8428
   15MOL0     C 1962   6.056   3.972   8.600  0.3054 -0.6144  0.9451
   15MOL0     O 1963   6.157   3.878   8.634 -0.0099  0.1751 -0.3759
   15MOL0     C 1964   6.143   3.752   8.581  0.0298 -0.7649 -0.2196
   15MOL0     C 1965   6.218   3.714   8.472  0.5555 -0.5931 -0.5144
   15MOL0     C 1966   6.217   3.584   8.417 -0.6087  0.5343 -0.1959
   15MOL0     C 1967   6.133   3.492   8.470  0.4318  0.2031  0.1091
   15MOL0     O 1968   6.135   3.374   8.417 -0.2534  0.6365 -0.0541
   15MOL0     C 1969   6.046   3.265   8.470 -0.7203  0.8621 -0.2739
   15MOL0     C 1970   6.108   3.139   8.404  0.0876  0.5176 -0.0636
   15MOL0     C 1971   6.167   3.041   8.496 -0.6682 -0.1991 -0.2449
   15MOL0     C 1972   6.291   3.088   8.573 -0.1832  0.3179  0.4499
   15MOL0     C 1973   6.406   3.157   8.479  0.4662  0.4915 -0.3330
   15MOL0     C 1974   6.532   3.147   8.563  0.4760  0.5383 -0.9050
   15MOL0     C 1975   6.659   3.161   8.476 -0.4321  0.4084  0.7023
   15MOL0     C 1976   6.788   3.155   8.558 -2.2042  0.7663  0.4808
   15MOL0    Cl 1977   6.913   3.205   8.432 -0.1957 -0.4324 -0.2059
   15MOL0     C 1978   6.042   3.533   8.574  0.3163  0.4807 -0.2653
   15MOL0     C 1979   6.046   3.665   8.622 -0.5412  0.0628  0.5626
   15MOL0     O 1980   5.961   3.956   8.517 -0.3943  0.6850 -0.4726
   15MOL0     C 1981   5.968   4.208   8.640 -1.3156  0.3129  0.0117
   15MOL0     C 1982   5.972   4.328   8.709 -0.8978  0.2196  0.1278
   15MOL0     N 1983   5.723   4.509   9.401  1.0929 -0.0976  0.3814
   15MOL0     N 1984   5.736   4.606   9.477 -0.7098  0.0368 -0.7170
   15MOL0     C 1985   5.115   5.731   9.370  0.2247 -0.3860 -0.0069
   15MOL0     C 1986   5.096   5.866   9.397 -0.5117 -0.7386  0.9663
   15MOL0     C 1987   5.078   6.316   9.252  1.0368 -0.0237 -0.2909
   15MOL0     C 1988   5.196   6.353   9.318 -0.5970  0.4528  1.1641
   15MOL0     C 1989   5.223   6.482   9.349 -0.6958  0.1773  0.8103
   15MOL0     C 1990   5.151   6.587   9.306  0.1164 -0.0613 -0.3283
   15MOL0     O 1991   5.163   6.725   9.330  0.7188  0.0071 -0.0319
   15MOL0     C 1992   5.216   6.772   9.456  0.1536 -0.4662  0.0461
   15MOL0     C 1993   5.130   6.714   9.568  0.1069  0.0440 -0.3569
   15MOL0     C 1994   5.125   6.826   9.675 -0.6820 -0.2468  0.3072
   15MOL0     C 1995   5.065   6.782   9.815 -0.9110  0.5990  0.4178
   15MOL0     C 1996   5.162   6.704   9.891  0.7201  0.6290 -0.3344
   15MOL0     C 1997   5.239   6.629   9.937  0.1571 -0.0804 -1.3192
   15MOL0     C 1998   5.038   6.554   9.229  0.3608 -0.8403  0.6609
   15MOL0     C 1999   4.993   6.425   9.193 -0.9902  0.1402 -0.2127
   15MOL0     C 2000   4.864   6.410   9.119 -0.2105 -0.7875 -0.6286
   15MOL0     H 2001   5.228   5.977   9.102 -0.6140 -1.7229 -1.3946
   15MOL0     H 2002   5.251   5.734   9.061 -0.0014 -4.4996  1.4014
   15MOL0     H 2003   5.052   5.424   9.213  0.6696  2.5545 -1.5644
   15MOL0     H 2004   5.098   5.473   9.381  0.3331 -2.1008  1.4030
   15MOL0     H 2005   5.159   5.231   9.274  0.1630  0.7120  0.1237
   15MOL0     H 2006   5.282   5.330   9.178 -1.6830  1.7126 -1.3535
   15MOL0     H 2007   5.368   5.396   9.433  1.4853  0.1711  0.2839
   15MOL0     H 2008   5.276   5.258   9.490  0.2341  0.8079  0.0535
   15MOL0     H 2009   5.401   5.104   9.332  0.1202  2.4418 -0.9414
   15MOL0     H 2010   5.516   5.236   9.329  0.3019 -0.9487 -2.1135
   15MOL0     H 2011   5.428   5.089   9.573 -0.0223  0.6047  0.2251
   15MOL0     H 2012   5.525   5.241   9.565 -3.0991 -1.1361  2.5766
   15MOL0     H 2013   5.705   5.141   9.448 -0.0298  1.1010  0.7179
   15MOL0     H 2014   5.678   5.076   9.607  0.3335  2.5133 -1.6052
   15MOL0     H 2015   5.606   4.934   9.346  1.3532 -1.4148  0.5100
   15MOL0     H 2016   5.568   4.863   9.492  0.5496 -0.4803 -1.5519
   15MOL0     H 2017   5.851   4.907   9.406 -0.4484 -0.5155 -0.9257
   15MOL0     H 2018   5.803   4.849   9.563 -1.0387  3.4897  0.0778
   15MOL0     H 2019   5.775   4.757   9.187  1.0021  1.3225  0.5390
   15MOL0     H 2020   5.598   4.474   9.091 -0.6429 -1.7119  1.0226
   15MOL0     H 2021   5.671   4.353   9.175 -0.3140  0.2049 -1.7129
   15MOL0     H 2022   5.778   4.427   8.946 -0.0740  2.9490 -1.1282
   15MOL0     H 2023   5.835   4.572   9.020 -2.3397  0.7123 -1.8694
   15MOL0     H 2024   5.947   4.428   9.211  2.4099 -3.8691 -1.1478
   15MOL0     H 2025   5.924   4.305   9.086  2.5148 -0.5859 -1.9559
   15MOL0     H 2026   6.078   4.568   9.065  1.2430 -0.2076  0.5256
   15MOL0     H 2027   6.153   4.419   9.060  0.1411 -2.8926 -2.3085
   15MOL0     H 2028   6.191   4.247   8.958  0.6762  1.8707  0.1545
   15MOL0     H 2029   6.309   3.975   8.770 -0.7587 -0.8020 -0.0206
   15MOL0     H 2030   6.182   3.926   8.885  0.8703 -0.5931  1.0325
   15MOL0     H 2031   6.296   4.049   8.933 -0.1637 -0.6658  0.9659
   15MOL0     H 2032   6.289   3.785   8.430  0.0687 -0.5643 -1.3030
   15MOL0     H 2033   6.284   3.562   8.334  2.7546  0.1172  2.3830
   15MOL0     H 2034   6.070   3.255   8.576 -0.4466 -2.8281 -0.5619
   15MOL0     H 2035   5.939   3.270   8.448 -1.2959 -2.9348  1.0117
   15MOL0     H 2036   6.043   3.077   8.342  0.3443 -1.2302  1.3073
   15MOL0     H 2037   6.182   3.174   8.332 -0.2849  0.9591 -0.2367
   15MOL0     H 2038   6.193   2.959   8.427  2.0038 -0.5449  1.0347
   15MOL0     H 2039   6.105   3.004   8.578 -0.1954  0.6918  0.5256
   15MOL0     H 2040   6.329   2.998   8.621 -2.0067 -0.9308 -0.3522
   15MOL0     H 2041   6.262   3.165   8.645  2.1655 -0.2716  2.1308
   15MOL0     H 2042   6.416   3.108   8.381 -1.6151  1.4506 -1.0972
   15MOL0     H 2043   6.368   3.258   8.464  0.2938  0.6718  1.1599
   15MOL0     H 2044   6.553   3.049   8.608 -0.7562  0.8825  0.5172
   15MOL0     H 2045   6.530   3.199   8.659 -2.6132 -2.9026  1.1800
   15MOL0     H 2046   6.660   3.263   8.437 -1.4885  1.0329  2.2187
   15MOL0     H 2047   6.662   3.090   8.393  1.0185  1.5273 -0.2558
   15MOL0     H 2048   6.815   3.054   8.588  2.8168  1.3141 -1.1444
   15MOL0     H 2049   6.795   3.218   8.647 -0.8103 -1.4331  2.0171
   15MOL0     H 2050   5.961   3.478   8.620 -1.3597  3.2692  0.3818
   15MOL0     H 2051   5.978   3.695   8.700 -1.0224 -1.2611  0.6818
   15MOL0     H 2052   5.907   4.211   8.550 -0.7060 -1.2476 -0.4884
   15MOL0     H 2053   5.915   4.413   8.674 -2.0949 -1.0260 -1.0962
   15MOL0     H 2054   5.079   5.655   9.440  0.1595  0.6879  1.1612
   15MOL0     H 2055   5.053   5.900   9.491  3.3645 -2.5284  3.6779
   15MOL0     H 2056   5.264   6.278   9.356 -2.5165 -1.2139  1.5323
   15MOL0     H 2057   5.312   6.500   9.409  2.4689  0.0562 -3.3719
   15MOL0     H 2058   5.317   6.735   9.480 -0.0140 -1.2201 -0.3891
   15MOL0     H 2059   5.220   6.881   9.452  3.1105 -0.5292 -1.7014
   15MOL0     H 2060   5.185   6.628   9.609 -1.9256 -0.2587  1.9660
   15MOL0     H 2061   5.025   6.696   9.544 -0.6221  0.5574  2.1577
   15MOL0     H 2062   5.228   6.859   9.690 -0.2916  0.5175 -3.1763
   15MOL0     H 2063   5.069   6.910   9.634 -1.7937 -1.2552 -0.3185
   15MOL0     H 2064   4.978   6.718   9.798  0.3461 -0.4927 -2.6321
   15MOL0     H 2065   5.046   6.878   9.864  0.2367  0.5549  0.9599
   15MOL0     H 2066   5.306   6.563   9.988 -1.9787 -0.6681  0.8840
   15MOL0     H 2067   4.975   6.638   9.201  2.9387  0.2178 -2.5226
   15MOL0     H 2068   4.868   6.405   9.010  0.5348  3.9752 -1.0316
   15MOL0     H 2069   4.809   6.325   9.162 -0.2631 -0.3237  0.2471
   15MOL0     H 2070   4.804   6.500   9.137  2.1275  1.1428 -1.8083
   16MOL0     O 2071   9.077   7.240   8.339  0.7762  0.6330 -0.4884
   16MOL0     C 2072   9.063   7.325   8.427 -0.1890  0.0225 -0.0699
   16MOL0     O 2073   9.162   7.411   8.465 -0.3268 -0.5430 -0.0072
   16MOL0     C 2074   9.288   7.361   8.434 -0.0238  0.5869  0.6529
   16MOL0     C 2075   9.359   7.268   8.508  0.1508  0.1620 -0.0042
   16MOL0     C 2076   9.485   7.220   8.473  0.3767  0.4372  0.2474
   16MOL0     C 2077   9.559   7.279   8.368 -0.0472  0.1497  0.0949
   16MOL0     O 2078   9.693   7.237   8.348  0.3571  0.7590 -0.1204
   16MOL0     C 2079   9.787   7.338   8.318  0.1727  0.1720  0.3558
   16MOL0     C 2080   9.930   7.279   8.355 -0.6872 -1.2781 -0.4109
   16MOL0     C 2081   9.942   7.224   8.504  0.0128 -0.3028 -0.6227
   16MOL0     C 2082  10.035   7.316   8.597  0.6710  0.4295 -1.0646
   16MOL0     C 2083  10.011   7.291   8.749 -0.0834 -0.1049 -0.5222
   16MOL0     C 2084  10.120   7.366   8.835 -0.0201 -0.2352 -0.0399
   16MOL0     C 2085  10.214   7.264   8.903 -0.0970 -0.2593  0.0353
   16MOL0     C 2086  10.267   7.326   9.028 -0.3002  0.1660 -1.0244
   16MOL0     N 2087  10.356   7.234   9.111 -0.3119 -0.5303  0.2273
   16MOL0     C 2088  10.485   7.257   9.154  0.1680  0.4206 -0.6355
   16MOL0     C 2089  10.508   7.173   9.256 -0.3247  0.2218 -0.1102
   16MOL0     C 2090  10.629   7.146   9.336  0.2916  0.8510 -0.8376
   16MOL0     C 2091  10.660   7.002   9.393  0.3574  0.5870  0.2419
   16MOL0     C 2092  10.795   7.004   9.469 -0.6763  0.5121  0.0577
   16MOL0     C 2093  10.830   6.872   9.517 -0.2157  0.7767  0.0624
   16MOL0     O 2094  10.739   6.817   9.611 -0.3889 -0.6336 -0.2147
   16MOL0     C 2095  10.762   6.691   9.660 -0.2021 -0.3420  0.8229
   16MOL0     C 2096  10.878   6.614   9.637  1.2700 -0.1298  0.3987
   16MOL0     C 2097  10.898   6.500   9.711 -0.5386  0.4711  0.2727
   16MOL0     C 2098  11.027   6.424   9.674 -0.1163  0.8526  0.0247
   16MOL0     C 2099  10.796   6.461   9.813 -1.1628 -0.4922  0.1356
   16MOL0     C 2100  10.828   6.367   9.919  0.7867  0.3980  0.4823
   16MOL0     O 2101  10.725   6.336  10.005  0.1115 -0.4870  0.3304
   16MOL0     C 2102  10.746   6.246  10.108  1.0358  0.4185  0.1308
   16MOL0     C 2103  10.674   6.280  10.221 -0.4796 -0.2117  0.5423
   16MOL0     C 2104  10.667   6.191  10.333 -0.2464  0.0044 -0.2543
   16MOL0     C 2105  10.727   6.071  10.325 -0.8150  0.6995  0.3378
   16MOL0     O 2106  10.730   5.976  10.431 -0.1241  0.0934  1.1575
   16MOL0     C 2107  10.603   5.924  10.458  0.2637 -0.8365  0.2566
   16MOL0     C 2108  10.609   5.786  10.519 -0.5874 -0.0142 -0.3012
   16MOL0     C 2109  10.716   5.750  10.624 -0.7814 -1.3218  0.6703
   16MOL0     C 2110  10.824   5.649  10.582  0.1052  0.3626  0.1825
   16MOL0     C 2111  10.908   5.627  10.692 -0.4390  0.4936  0.3161
   16MOL0     C 2112  11.041   5.550  10.663 -0.6173  0.1692 -0.7246
   16MOL0     C 2113  11.012   5.395  10.649 -1.1812 -0.0615 -0.3418
   16MOL0     C 2114  11.149   5.317  10.619  0.1231  0.3182 -0.4944
   16MOL0    Cl 2115  11.249   5.254  10.760 -0.3118  0.2770  0.1018
   16MOL0     C 2116  10.789   6.026  10.200 -0.0293 -1.0078  0.0139
   16MOL0     C 2117  10.799   6.117  10.091 -0.2175  0.2414  0.7349
   16MOL0     O 2118  10.944   6.341   9.928 -0.1545  0.2314  0.2460
   16MOL0     C 2119  10.679   6.529   9.820  0.5450 -0.3527 -0.9711
   16MOL0     C 2120  10.664   6.641   9.744  0.4265 -0.4192  0.8275
   16MOL0     N 2121  10.395   7.096   9.264 -0.6591  0.0201 -0.2843
   16MOL0     N 2122  10.309   7.132   9.180  0.5612 -0.5337 -0.0469
   16MOL0     C 2123   9.496   7.365   8.284  0.6947 -1.1826 -0.5890
   16MOL0     C 2124   9.366   7.407   8.320  0.3686  0.7919  0.0083
   16MOL0     C 2125   8.935   7.330   8.512 -0.4220  0.6029  0.2151
   16MOL0     C 2126   8.808   7.308   8.454  0.3386  0.7207 -0.4797
   16MOL0     C 2127   8.689   7.314   8.518 -0.2545 -0.0093 -0.0896
   16MOL0     C 2128   8.682   7.341   8.652 -0.5086  0.5080  1.0779
   16MOL0     O 2129   8.568   7.336   8.726  0.0772 -0.6880  0.2291
   16MOL0     C 2130   8.439   7.381   8.669 -0.4407 -0.1184 -0.1260
   16MOL0     C 2131   8.348   7.429   8.777  0.0249  0.0764  0.2023
   16MOL0     C 2132   8.203   7.440   8.712 -1.2471 -0.6742 -0.6293
   16MOL0     C 2133   8.182   7.521   8.585  0.6658  0.4474 -0.9156
   16MOL0     C 2134   8.237   7.654   8.582 -0.4533 -0.9014  0.3845
   16MOL0     C 2135   8.289   7.768   8.570 -0.6639 -0.2628 -0.5576
   16MOL0     C 2136   8.805   7.361   8.723  0.2255  1.0058 -0.0008
   16MOL0     C 2137   8.927   7.349   8.652 -0.6778 -1.5694  0.1496
   16MOL0     C 2138   9.047   7.370   8.729 -0.9751  0.0222  0.0195
   16MOL0     H 2139   9.303   7.235   8.594  0.9361  0.2846  0.5601
   16MOL0     H 2140   9.533   7.144   8.535  2.6652 -1.1791 -3.1966
   16MOL0     H 2141   9.760   7.434   8.362 -6.4422 -0.1193 -1.9576
   16MOL0     H 2142   9.780   7.354   8.210 -2.4599 -1.7298  0.1429
   16MOL0     H 2143   9.972   7.207   8.283  2.3937 -1.6277  1.5609
   16MOL0     H 2144   9.995   7.366   8.346 -2.0107 -0.2285 -0.0694
   16MOL0     H 2145   9.846   7.210   8.554  1.2805 -0.2494  1.9957
   16MOL0     H 2146   9.991   7.126   8.492  0.6201  0.3225 -4.6012
   16MOL0     H 2147  10.135   7.275   8.581 -0.4816 -2.2779 -1.9390
   16MOL0     H 2148  10.032   7.423   8.576 -5.1066  0.6710 -0.4161
   16MOL0     H 2149   9.988   7.186   8.766 -0.6394 -0.3282 -2.3578
   16MOL0     H 2150   9.914   7.340   8.767 -0.2096 -0.2497 -0.7939
   16MOL0     H 2151  10.164   7.435   8.762 -4.0756  0.8893 -1.7493
   16MOL0     H 2152  10.073   7.420   8.917  0.4442 -2.5436  1.8460
   16MOL0     H 2153  10.293   7.228   8.836  0.4384 -1.7563  1.4028
   16MOL0     H 2154  10.157   7.175   8.932 -1.6706  1.6338  3.1916
   16MOL0     H 2155  10.304   7.426   9.004  0.7999  0.5376  1.8465
   16MOL0     H 2156  10.187   7.336   9.102  1.0698 -0.1275  0.5465
   16MOL0     H 2157  10.544   7.344   9.125  1.2232  0.5300  1.5921
   16MOL0     H 2158  10.634   7.219   9.417  4.6904 -2.6038  2.5276
   16MOL0     H 2159  10.709   7.171   9.266  2.3041 -0.4267  0.8906
   16MOL0     H 2160  10.582   6.974   9.463 -0.8288  0.7236 -0.9916
   16MOL0     H 2161  10.649   6.926   9.315  1.3160  2.4194 -1.8125
   16MOL0     H 2162  10.876   7.053   9.414 -0.2816 -0.8405 -0.6236
   16MOL0     H 2163  10.789   7.069   9.557 -2.1770 -0.2917  0.5734
   16MOL0     H 2164  10.823   6.804   9.433  1.6385  0.7201 -0.0784
   16MOL0     H 2165  10.930   6.877   9.560 -0.8800 -0.0296  1.8257
   16MOL0     H 2166  10.960   6.640   9.570  2.1855  0.2702  1.6290
   16MOL0     H 2167  11.098   6.431   9.757  1.0350 -0.4057 -0.8047
   16MOL0     H 2168  11.086   6.459   9.589  1.1493  0.5896  0.7623
   16MOL0     H 2169  10.998   6.319   9.664 -1.1744  1.2449 -1.2949
   16MOL0     H 2170  10.634   6.380  10.239  1.3520  0.4634  1.0645
   16MOL0     H 2171  10.606   6.219  10.419  0.5782 -0.8060  0.6257
   16MOL0     H 2172  10.559   5.988  10.534  0.2379  0.4325 -0.7800
   16MOL0     H 2173  10.539   5.923  10.369  2.0026 -2.4715 -1.0763
   16MOL0     H 2174  10.515   5.766  10.572 -0.4914  1.1466  0.3275
   16MOL0     H 2175  10.626   5.717  10.436  2.1678 -1.0677  1.0268
   16MOL0     H 2176  10.669   5.713  10.715  1.4802 -0.5259  2.2745
   16MOL0     H 2177  10.769   5.842  10.653 -0.3788  0.6569 -5.0424
   16MOL0     H 2178  10.876   5.692  10.496  1.4794 -1.9224 -0.1932
   16MOL0     H 2179  10.781   5.558  10.540  1.6897  0.4929 -1.8811
   16MOL0     H 2180  10.940   5.725  10.729 -1.7110  1.3180 -0.6833
   16MOL0     H 2181  10.848   5.583  10.771 -2.9873  5.2181  1.3885
   16MOL0     H 2182  11.105   5.549  10.753 -2.4048 -2.3346  0.6568
   16MOL0     H 2183  11.108   5.580  10.583  1.4293  0.1904  0.8997
   16MOL0     H 2184  10.945   5.386  10.562 -0.3891 -2.1316 -0.7899
   16MOL0     H 2185  10.971   5.349  10.739  2.2728 -0.8546  0.9849
   16MOL0     H 2186  11.212   5.376  10.551  0.7099  3.1610  2.2791
   16MOL0     H 2187  11.118   5.220  10.579  0.5772  0.1173 -0.3640
   16MOL0     H 2188  10.844   5.933  10.191  0.7928 -0.4989 -0.3210
   16MOL0     H 2189  10.858   6.104  10.001 -1.1913  0.2856  0.0867
   16MOL0     H 2190  10.594   6.509   9.885  0.5318  0.0793 -0.8510
   16MOL0     H 2191  10.573   6.701   9.751 -0.3055 -1.4406  0.3358
   16MOL0     H 2192   9.553   7.417   8.209  4.0308 -1.6350  1.4300
   16MOL0     H 2193   9.326   7.488   8.260  0.1830  0.7027  0.0114
   16MOL0     H 2194   8.804   7.294   8.346 -0.4016  2.1091 -0.6523
   16MOL0     H 2195   8.595   7.304   8.466 -0.6866  2.3307  0.1662
   16MOL0     H 2196   8.447   7.471   8.608 -1.7594  0.3171  0.3035
   16MOL0     H 2197   8.391   7.298   8.617 -0.1065 -0.3486 -0.0739
   16MOL0     H 2198   8.375   7.524   8.825  2.4675 -0.2099 -0.4761
   16MOL0     H 2199   8.337   7.362   8.863  0.6601  0.3770  0.5234
   16MOL0     H 2200   8.170   7.336   8.699  2.0196 -2.2846  2.2978
   16MOL0     H 2201   8.140   7.475   8.794  1.1776 -2.8528  2.3775
   16MOL0     H 2202   8.073   7.518   8.576  0.2616 -1.5963  2.7778
   16MOL0     H 2203   8.223   7.465   8.501 -0.0514  0.3240 -1.1923
   16MOL0     H 2204   8.325   7.868   8.555  2.3059 -0.8917  1.5853
   16MOL0     H 2205   8.815   7.379   8.830 -0.4478  1.0212  0.0666
   16MOL0     H 2206   9.037   7.334   8.832 -1.1106  4.2782  1.6635
   16MOL0     H 2207   9.129   7.306   8.693 -2.2214 -0.0690 -2.9994
   16MOL0     H 2208   9.071   7.476   8.737 -2.7357  0.3761  1.0225
   17MOL0     O 2209   0.605   6.814   0.050 -0.6494  0.8883 -0.4021
   17MOL0     C 2210   0.637   6.931   0.040  0.0258 -0.6099 -0.4839
   17MOL0     O 2211   0.538   7.027   0.034  0.1442 -0.1465 -0.4409
   17MOL0     C 2212   0.400   6.990   0.019 -0.9568 -0.2241  0.3906
   17MOL0     C 2213   0.367   6.902  -0.083  0.6845  0.5554 -0.4704
   17MOL0     C 2214   0.231   6.901  -0.122  0.2104 -0.1926 -0.0109
   17MOL0     C 2215   0.132   6.963  -0.047  0.2740 -0.7521 -0.1503
   17MOL0     O 2216   0.007   6.935  -0.087 -0.5777 -0.1482  0.4382
   17MOL0     C 2217  -0.095   7.031  -0.056 -0.2952  0.8566 -0.0260
   17MOL0     C 2218  -0.234   6.995  -0.114 -0.0568  0.2974  0.2290
   17MOL0     C 2219  -0.348   7.098  -0.101 -0.0094  0.3357  0.1607
   17MOL0     C 2220  -0.476   7.020  -0.117 -0.0667 -0.5274 -0.4752
   17MOL0     C 2221  -0.601   7.123  -0.114  0.8612  0.4354 -0.1360
   17MOL0     C 2222  -0.745   7.060  -0.091 -0.4371  0.3644 -0.9954
   17MOL0     C 2223  -0.836   7.181  -0.063 -0.6794 -0.6989  0.1139
   17MOL0     C 2224  -0.970   7.135  -0.020  0.2077  0.8055 -0.1197
   17MOL0     N 2225  -0.952   7.093   0.122 -0.4107 -0.1563 -0.5182
   17MOL0     C 2226  -0.932   7.182   0.226 -0.3031  0.2820  0.0824
   17MOL0     C 2227  -0.915   7.104   0.333 -0.0970 -0.5854  0.2979
   17MOL0     C 2228  -0.863   7.139   0.476  0.5255  0.1264 -0.8472
   17MOL0     C 2229  -0.964   7.232   0.545 -0.4838  0.4931  0.4309
   17MOL0     C 2230  -1.092   7.162   0.604 -0.6596  0.0725 -0.8042
   17MOL0     C 2231  -1.078   7.072   0.728 -0.3574 -1.5407 -0.9257
   17MOL0     O 2232  -1.068   7.155   0.853 -0.5056 -0.3431 -0.1137
   17MOL0     C 2233  -1.079   7.078   0.969 -0.5822 -0.9134 -0.1384
   17MOL0     C 2234  -0.998   6.981   0.995 -0.1034 -0.7548  0.8419
   17MOL0     C 2235  -1.015   6.896   1.108  0.0839 -0.5433  0.3114
   17MOL0     C 2236  -0.911   6.783   1.117 -0.7842  0.4417  0.4021
   17MOL0     C 2237  -1.124   6.918   1.199  0.0167 -0.3968 -0.9905
   17MOL0     C 2238  -1.149   6.825   1.316  0.2114  0.0674 -0.4658
   17MOL0     O 2239  -1.236   6.872   1.408  0.1975 -0.5140 -0.4904
   17MOL0     C 2240  -1.341   6.801   1.448 -0.4752 -0.3267 -0.4789
   17MOL0     C 2241  -1.343   6.758   1.582 -0.8579  0.6431 -0.2661
   17MOL0     C 2242  -1.449   6.699   1.639 -0.1459 -0.1462 -0.6022
   17MOL0     C 2243  -1.570   6.684   1.567  0.0147 -1.0949 -0.4291
   17MOL0     O 2244  -1.675   6.631   1.626  0.0766 -0.5243  1.1143
   17MOL0     C 2245  -1.715   6.688   1.747  0.2064 -0.3679  0.1711
   17MOL0     C 2246  -1.867   6.664   1.758  1.2076  1.2028 -0.3286
   17MOL0     C 2247  -1.919   6.704   1.895  0.4169  0.0743 -0.3517
   17MOL0     C 2248  -2.072   6.682   1.895 -0.5277  0.2281  0.4169
   17MOL0     C 2249  -2.128   6.708   2.033  0.4874 -0.2442 -0.7985
   17MOL0     C 2250  -2.274   6.657   2.037 -0.9186  0.2898 -0.7018
   17MOL0     C 2251  -2.365   6.722   2.147 -0.1531  0.2438 -0.0879
   17MOL0     C 2252  -2.324   6.656   2.274 -0.4787 -0.4364 -0.6268
   17MOL0    Cl 2253  -2.396   6.727   2.421  0.3271 -0.7206 -0.2378
   17MOL0     C 2254  -1.573   6.725   1.430 -0.1671  1.1872  0.8650
   17MOL0     C 2255  -1.462   6.781   1.376  1.1080 -0.0925 -0.1617
   17MOL0     O 2256  -1.112   6.706   1.317  0.2364 -0.5697  0.3826
   17MOL0     C 2257  -1.211   7.023   1.169 -0.2399  0.0795 -0.6409
   17MOL0     C 2258  -1.185   7.099   1.053  0.8520 -0.4794 -0.9377
   17MOL0     N 2259  -0.944   6.973   0.299 -0.2681  0.1736  0.2595
   17MOL0     N 2260  -0.964   6.968   0.167  0.1681  0.1556  0.2594
   17MOL0     C 2261   0.163   7.042   0.070 -0.7754  0.4757 -0.1614
   17MOL0     C 2262   0.302   7.060   0.092 -0.4510 -0.1109 -0.2483
   17MOL0     C 2263   0.778   6.982   0.058 -1.4588 -0.7512  0.0289
   17MOL0     C 2264   0.878   6.884   0.070 -0.4500  0.4569  0.3945
   17MOL0     C 2265   1.006   6.921   0.077 -0.7960 -0.0645 -0.6034
   17MOL0     C 2266   1.054   7.058   0.076  0.3409 -1.2575  0.4084
   17MOL0     O 2267   1.183   7.106   0.083  0.0208  0.0049 -0.1464
   17MOL0     C 2268   1.296   7.017   0.034  0.3498 -1.3927 -0.9857
   17MOL0     C 2269   1.341   6.932   0.158  0.2396 -0.4597  0.0651
   17MOL0     C 2270   1.480   6.871   0.130 -0.3511  0.6651  0.5004
   17MOL0     C 2271   1.527   6.755   0.213 -0.2755  0.3834 -0.0319
   17MOL0     C 2272   1.563   6.784   0.347  0.1470 -0.8172 -0.1969
   17MOL0     C 2273   1.600   6.807   0.460  0.7918  0.2630  0.7553
   17MOL0     C 2274   0.955   7.154   0.052  0.0608 -0.5404 -0.5444
   17MOL0     C 2275   0.816   7.121   0.043  0.5900  0.3291 -0.1309
   17MOL0     C 2276   0.727   7.242   0.036 -0.8036 -1.1179  0.0899
   17MOL0     H 2277   0.444   6.849  -0.137  0.5911  0.3630 -0.4146
   17MOL0     H 2278   0.195   6.844  -0.207 -0.6608 -0.4563  0.5289
   17MOL0     H 2279  -0.065   7.131  -0.088 -1.1963  1.0207 -0.4043
   17MOL0     H 2280  -0.104   7.031   0.053 -0.4363 -3.1984  0.1315
   17MOL0     H 2281  -0.225   6.958  -0.217 -0.6501 -0.0946  0.3129
   17MOL0     H 2282  -0.259   6.906  -0.055  2.7144 -1.5888 -1.1978
   17MOL0     H 2283  -0.353   7.147  -0.004 -2.0720 -0.3663  0.4598
   17MOL0     H 2284  -0.339   7.179  -0.174 -1.7819 -0.3852 -0.9208
   17MOL0     H 2285  -0.461   6.984  -0.220  3.7859  2.3671 -1.1643
   17MOL0     H 2286  -0.490   6.935  -0.049  4.6956 -1.8855 -0.7564
   17MOL0     H 2287  -0.603   7.175  -0.210  0.4442  0.2675 -0.2216
   17MOL0     H 2288  -0.571   7.192  -0.035  2.2990  0.9152 -1.0478
   17MOL0     H 2289  -0.774   6.982  -0.162  1.6458 -2.0017  0.5415
   17MOL0     H 2290  -0.736   7.015   0.009 -0.4525  0.7875 -0.8014
   17MOL0     H 2291  -0.849   7.221  -0.165 -0.9784 -0.1979  0.3433
   17MOL0     H 2292  -0.796   7.257   0.004 -0.1301 -0.1870 -0.7826
   17MOL0     H 2293  -1.043   7.215  -0.035  0.7566  0.9582 -2.2472
   17MOL0     H 2294  -1.010   7.051  -0.078  0.2576 -0.1310  1.1549
   17MOL0     H 2295  -0.927   7.290   0.233 -0.4315  0.1882  1.9906
   17MOL0     H 2296  -0.773   7.202   0.481  0.0356  0.7537  0.7738
   17MOL0     H 2297  -0.822   7.052   0.528 -0.6040  0.2014  0.1923
   17MOL0     H 2298  -0.909   7.286   0.623  0.2023 -0.2555  0.4847
   17MOL0     H 2299  -1.000   7.303   0.470  0.3124  0.8694  0.3962
   17MOL0     H 2300  -1.164   7.239   0.633  1.9365  1.0616  4.1718
   17MOL0     H 2301  -1.118   7.099   0.518 -2.0029  2.9412 -2.6451
   17MOL0     H 2302  -1.160   7.000   0.732 -2.2049  0.2213 -3.6501
   17MOL0     H 2303  -0.988   7.013   0.709 -0.0116 -1.0193 -0.9424
   17MOL0     H 2304  -0.914   6.968   0.927 -0.6922  1.9421 -0.5449
   17MOL0     H 2305  -0.861   6.781   1.020  0.4904  2.6557  0.9526
   17MOL0     H 2306  -0.958   6.685   1.108 -2.4214  0.7753  3.5706
   17MOL0     H 2307  -0.837   6.779   1.198 -2.9887 -1.2391  2.5035
   17MOL0     H 2308  -1.261   6.776   1.650 -0.3174  2.2229 -1.2722
   17MOL0     H 2309  -1.444   6.666   1.743 -2.7580  2.2984  0.4303
   17MOL0     H 2310  -1.670   6.633   1.831  4.2230 -0.9233 -2.0956
   17MOL0     H 2311  -1.677   6.791   1.752 -0.0870 -0.2645  0.2651
   17MOL0     H 2312  -1.920   6.717   1.679  0.1523 -0.1460 -0.5551
   17MOL0     H 2313  -1.876   6.555   1.745  0.5491  1.1250  0.6671
   17MOL0     H 2314  -1.899   6.811   1.908 -1.4525  0.6490 -1.7144
   17MOL0     H 2315  -1.868   6.645   1.972  1.7517 -1.6133 -2.4247
   17MOL0     H 2316  -2.097   6.578   1.874 -2.3279  0.1516  2.5014
   17MOL0     H 2317  -2.131   6.736   1.820  5.1802  3.2000 -2.5949
   17MOL0     H 2318  -2.063   6.673   2.114 -2.4308 -4.2210  0.1640
   17MOL0     H 2319  -2.137   6.817   2.031  1.1075 -0.1978 -2.4506
   17MOL0     H 2320  -2.278   6.547   2.036  0.2397  0.2151  0.3746
   17MOL0     H 2321  -2.319   6.681   1.940 -0.5964 -0.2954 -1.0064
   17MOL0     H 2322  -2.473   6.713   2.133 -0.1156  2.9574 -3.6083
   17MOL0     H 2323  -2.353   6.831   2.143  3.2155 -0.0818 -2.9595
   17MOL0     H 2324  -2.216   6.660   2.285 -0.0393 -2.2542 -3.3222
   17MOL0     H 2325  -2.355   6.551   2.271 -1.6000 -0.1378 -0.2895
   17MOL0     H 2326  -1.657   6.702   1.366  0.4479 -1.0468  0.7836
   17MOL0     H 2327  -1.467   6.819   1.275  2.9926 -1.8749 -1.0040
   17MOL0     H 2328  -1.298   7.030   1.234  0.5947 -2.1128  0.8611
   17MOL0     H 2329  -1.259   7.173   1.023  0.0897 -1.2090 -0.8932
   17MOL0     H 2330   0.097   7.098   0.136  0.7457 -0.8096  2.6200
   17MOL0     H 2331   0.348   7.105   0.180  0.0575 -1.9800  0.4891
   17MOL0     H 2332   0.860   6.777   0.065 -0.6229  0.5450 -1.8373
   17MOL0     H 2333   1.069   6.834   0.094 -1.0462 -0.2006 -0.3648
   17MOL0     H 2334   1.261   6.966  -0.056  0.3989 -1.8697 -0.7384
   17MOL0     H 2335   1.383   7.080   0.014  0.7747 -1.5605  0.2749
   17MOL0     H 2336   1.266   6.856   0.182  2.6528 -2.1515  2.8314
   17MOL0     H 2337   1.342   7.009   0.237 -0.0499 -0.5335  0.1441
   17MOL0     H 2338   1.477   6.836   0.026  1.7218  1.4353  0.1284
   17MOL0     H 2339   1.561   6.946   0.131  1.1973 -0.7429 -2.7329
   17MOL0     H 2340   1.614   6.714   0.163  0.3984 -0.2788  1.6241
   17MOL0     H 2341   1.452   6.676   0.218  1.3882 -1.2653 -0.2605
   17MOL0     H 2342   1.646   6.825   0.555  4.3954 -0.5437 -0.7051
   17MOL0     H 2343   0.983   7.258   0.043 -2.3024  0.1513 -0.4231
   17MOL0     H 2344   0.652   7.249   0.115 -0.6145  0.1477  0.1786
   17MOL0     H 2345   0.798   7.326   0.033  1.5926 -3.0305 -0.0086
   17MOL0     H 2346   0.682   7.242  -0.064  1.7882 -1.7973 -1.1799
   18MOL0     O 2347   4.461   9.653  10.990  1.0846  0.4514  0.0216
   18MOL0     C 2348   4.383   9.585  11.063 -0.6506  0.6153 -0.3456
   18MOL0     O 2349   4.425   9.491  11.162  0.2438 -0.9857 -0.8038
   18MOL0     C 2350   4.554   9.468  11.174 -0.4124 -0.2984  0.8953
   18MOL0     C 2351   4.627   9.521  11.276 -0.0577 -0.3278 -0.1627
   18MOL0     C 2352   4.764   9.486  11.303 -0.1994 -0.4356  0.0508
   18MOL0     C 2353   4.826   9.386  11.233 -0.4085 -0.8240 -0.1045
   18MOL0     O 2354   4.949   9.352  11.284  0.4223  0.6159  0.3593
   18MOL0     C 2355   5.006   9.253  11.199  1.0502  0.2434  0.3892
   18MOL0     C 2356   5.153   9.253  11.224  0.8360  0.0680 -0.9502
   18MOL0     C 2357   5.222   9.126  11.168 -0.0145 -0.8528 -0.3197
   18MOL0     C 2358   5.366   9.139  11.190 -0.4620 -0.1675 -1.0026
   18MOL0     C 2359   5.426   9.225  11.080  0.5665  0.7331  0.0327
   18MOL0     C 2360   5.563   9.273  11.113 -0.1052 -0.1174 -1.0423
   18MOL0     C 2361   5.546   9.391  11.215  0.7524 -0.6214  0.7132
   18MOL0     C 2362   5.517   9.529  11.148 -0.7355  0.0764 -0.1129
   18MOL0     N 2363   5.465   9.618  11.250 -0.3561  0.5371 -0.0580
   18MOL0     C 2364   5.544   9.662  11.358  0.2451 -1.1568 -0.2699
   18MOL0     C 2365   5.471   9.754  11.439  0.9822  0.3234 -0.1238
   18MOL0     C 2366   5.514   9.818  11.568  0.1742  0.0707  0.2355
   18MOL0     C 2367   5.390   9.812  11.657  0.0783  0.0459 -0.1535
   18MOL0     C 2368   5.358   9.964  11.703  0.5662 -0.3252 -0.2654
   18MOL0     C 2369   5.206   9.976  11.742 -0.1975 -0.4751  0.5211
   18MOL0     O 2370   5.170  10.099  11.810 -0.0489  0.0896 -0.1494
   18MOL0     C 2371   5.160  10.216  11.732 -0.6855 -0.0221 -1.0696
   18MOL0     C 2372   5.159  10.224  11.598  0.6271 -0.0730  1.1281
   18MOL0     C 2373   5.151  10.353  11.539 -0.3325 -0.0177  0.7818
   18MOL0     C 2374   5.118  10.349  11.387  0.0463 -1.1581  0.7473
   18MOL0     C 2375   5.151  10.467  11.618  1.0709 -0.6163  0.4901
   18MOL0     C 2376   5.129  10.606  11.555 -0.7038 -0.3529 -0.4690
   18MOL0     O 2377   5.074  10.630  11.439  0.6596  0.0930  0.2591
   18MOL0     C 2378   5.101  10.750  11.388 -0.5240 -0.0773  0.8798
   18MOL0     C 2379   5.012  10.854  11.401  0.7014 -0.4261  0.1962
   18MOL0     C 2380   5.036  10.981  11.346 -0.4201  0.2803  0.3285
   18MOL0     C 2381   5.160  11.002  11.279 -0.0539 -0.2471  1.0996
   18MOL0     O 2382   5.180  11.124  11.210  0.5522 -0.2015 -0.0357
   18MOL0     C 2383   5.305  11.152  11.143  1.0394 -0.0847  0.1578
   18MOL0     C 2384   5.322  11.299  11.115 -0.2441 -0.3818 -0.0830
   18MOL0     C 2385   5.436  11.324  11.015  0.0542  0.2031 -1.0719
   18MOL0     C 2386   5.571  11.274  11.070 -0.1185 -0.2350  0.0563
   18MOL0     C 2387   5.682  11.354  10.993  1.2804  1.0848 -0.5258
   18MOL0     C 2388   5.670  11.349  10.842  0.8743 -0.2758 -0.2764
   18MOL0     C 2389   5.785  11.415  10.768  0.2698  0.4993  0.2746
   18MOL0     C 2390   5.815  11.353  10.628  0.1104 -1.0113 -0.0497
   18MOL0    Cl 2391   5.937  11.443  10.514  0.3477 -0.0232 -0.0602
   18MOL0     C 2392   5.250  10.893  11.273 -1.1640 -0.6080 -0.0155
   18MOL0     C 2393   5.218  10.768  11.330 -0.1422 -1.2683  0.5971
   18MOL0     O 2394   5.185  10.691  11.621  1.1375  0.7251 -0.4956
   18MOL0     C 2395   5.152  10.454  11.757  0.1471 -0.2905 -0.2856
   18MOL0     C 2396   5.147  10.331  11.806 -0.3970 -0.6732 -0.2102
   18MOL0     N 2397   5.353   9.773  11.365 -0.4777  0.3541 -0.9387
   18MOL0     N 2398   5.348   9.697  11.262 -0.0253 -0.7867  0.0012
   18MOL0     C 2399   4.752   9.331  11.129  1.3405 -0.3741  1.0773
   18MOL0     C 2400   4.624   9.377  11.097 -0.5032 -0.3136 -0.0870
   18MOL0     C 2401   4.229   9.623  11.061 -0.5957  0.2544 -0.0869
   18MOL0     C 2402   4.148   9.588  11.172  0.2115 -0.7716 -0.5841
   18MOL0     C 2403   4.011   9.608  11.174  0.1741 -1.1157 -0.5228
   18MOL0     C 2404   3.946   9.679  11.068 -1.5360  0.4608  0.2442
   18MOL0     O 2405   3.812   9.704  11.094 -0.3669 -0.7089  0.7827
   18MOL0     C 2406   3.737   9.799  11.018  0.0863 -1.2603 -0.0055
   18MOL0     C 2407   3.603   9.830  11.087  0.1857  0.2875  0.7575
   18MOL0     C 2408   3.610   9.913  11.212  0.2670  0.3202 -0.2410
   18MOL0     C 2409   3.479   9.970  11.268 -0.3704  0.2486 -0.1417
   18MOL0     C 2410   3.422   9.884  11.371  0.7276  0.7502 -0.1691
   18MOL0     C 2411   3.376   9.813  11.459  0.8956 -0.1850 -0.3923
   18MOL0     C 2412   4.024   9.704  10.956  0.9648 -0.2665 -0.4761
   18MOL0     C 2413   4.160   9.677  10.947 -0.1230  0.4095  0.0321
   18MOL0     C 2414   4.224   9.682  10.808  0.6774 -0.1540 -0.9138
   18MOL0     H 2415   4.577   9.586  11.347  0.4368 -0.2968  0.1625
   18MOL0     H 2416   4.814   9.536  11.385  0.2949 -1.6868  0.5251
   18MOL0     H 2417   5.008   9.286  11.094 -1.6097 -0.3492  0.0609
   18MOL0     H 2418   4.955   9.156  11.206  1.1006  0.1004 -0.8789
   18MOL0     H 2419   5.176   9.349  11.177  1.6803  0.5061  0.3216
   18MOL0     H 2420   5.169   9.263  11.332 -0.2455  2.7728 -0.9572
   18MOL0     H 2421   5.181   9.029  11.200  1.8628 -1.3940  0.5350
   18MOL0     H 2422   5.212   9.137  11.059 -0.3979  1.0364 -0.1239
   18MOL0     H 2423   5.383   9.183  11.289  1.9083 -0.7442 -1.0800
   18MOL0     H 2424   5.427   9.049  11.178  3.0666  2.2124 -3.0346
   18MOL0     H 2425   5.359   9.308  11.054 -1.2029 -0.1832  1.4820
   18MOL0     H 2426   5.432   9.162  10.991 -0.4342 -0.7229  0.9612
   18MOL0     H 2427   5.621   9.188  11.149 -0.1261 -0.4349 -1.7341
   18MOL0     H 2428   5.618   9.308  11.025 -0.1950  0.8132 -0.7393
   18MOL0     H 2429   5.637   9.415  11.270  1.5844 -0.3086 -0.7367
   18MOL0     H 2430   5.463   9.373  11.283 -0.4764  0.1627 -0.5347
   18MOL0     H 2431   5.595   9.581  11.090 -0.4237  0.8507  0.9611
   18MOL0     H 2432   5.447   9.516  11.065  0.6242  0.0558 -1.3159
   18MOL0     H 2433   5.642   9.626  11.387  0.7059 -0.3968 -0.8189
   18MOL0     H 2434   5.551   9.920  11.555 -2.2641  0.6207 -4.9533
   18MOL0     H 2435   5.594   9.762  11.617  1.5216  0.7228 -1.1429
   18MOL0     H 2436   5.296   9.783  11.610  0.6752 -0.9373 -0.7809
   18MOL0     H 2437   5.409   9.736  11.733 -4.1142 -0.2212  0.8935
   18MOL0     H 2438   5.423   9.998  11.785  1.0953 -2.3531  0.2077
   18MOL0     H 2439   5.380  10.033  11.621  0.1300  0.9047  0.6235
   18MOL0     H 2440   5.144   9.950  11.655 -0.0324  2.2604 -0.5016
   18MOL0     H 2441   5.191   9.897  11.816 -2.2211 -0.2912  0.3664
   18MOL0     H 2442   5.159  10.133  11.538  1.0041  1.4829 -1.3523
   18MOL0     H 2443   5.157  10.256  11.346 -0.0702 -0.2546 -1.6160
   18MOL0     H 2444   5.164  10.428  11.327 -2.3675 -1.4527 -1.6845
   18MOL0     H 2445   5.011  10.354  11.366  0.2388 -0.9553 -0.2451
   18MOL0     H 2446   4.926  10.843  11.466  2.0714 -0.8894  2.0237
   18MOL0     H 2447   4.972  11.068  11.356  2.1078  2.3185 -0.0851
   18MOL0     H 2448   5.389  11.102  11.192  0.1121 -2.2927 -0.3821
   18MOL0     H 2449   5.303  11.099  11.048 -1.3516 -2.1380  1.2278
   18MOL0     H 2450   5.231  11.354  11.091 -0.4135 -0.4823  0.3311
   18MOL0     H 2451   5.352  11.329  11.215 -3.9275 -0.3394  1.1322
   18MOL0     H 2452   5.432  11.431  10.994 -1.1664  0.4105  0.0707
   18MOL0     H 2453   5.415  11.263  10.927 -0.3998 -1.2688  0.0155
   18MOL0     H 2454   5.579  11.167  11.048  0.8042 -1.0006  3.5038
   18MOL0     H 2455   5.586  11.283  11.178 -0.0757 -2.2138  0.2536
   18MOL0     H 2456   5.683  11.460  11.023 -1.9984  0.9561  0.4384
   18MOL0     H 2457   5.773  11.296  11.013 -1.7883 -3.2437  2.8686
   18MOL0     H 2458   5.575  11.393  10.812  1.7004  0.3187 -2.2403
   18MOL0     H 2459   5.671  11.251  10.792 -0.1346  0.0269 -0.9157
   18MOL0     H 2460   5.882  11.396  10.814  0.8420  0.4207 -0.9345
   18MOL0     H 2461   5.777  11.524  10.762 -3.1811  0.2838 -3.2423
   18MOL0     H 2462   5.718  11.353  10.579  0.1224  2.7893 -0.4015
   18MOL0     H 2463   5.838  11.246  10.638 -0.3884 -1.1460 -0.3160
   18MOL0     H 2464   5.351  10.904  11.236  0.0894 -1.6529  2.7932
   18MOL0     H 2465   5.283  10.685  11.309 -0.4814 -0.7138 -3.4249
   18MOL0     H 2466   5.149  10.533  11.831 -0.5206 -2.2544  1.8980
   18MOL0     H 2467   5.133  10.310  11.911 -0.0647 -2.5922 -0.4980
   18MOL0     H 2468   4.786   9.250  11.066  0.6679 -0.4307  0.7861
   18MOL0     H 2469   4.564   9.315  11.032 -0.0282  2.5674 -3.5492
   18MOL0     H 2470   4.194   9.553  11.264 -1.5963  3.1603  2.1145
   18MOL0     H 2471   3.950   9.584  11.261  0.4380 -0.8774 -0.2718
   18MOL0     H 2472   3.794   9.892  11.006  1.6439 -2.2962 -1.0048
   18MOL0     H 2473   3.713   9.758  10.919 -1.9539 -0.8170  0.2596
   18MOL0     H 2474   3.545   9.740  11.106 -0.6251  0.4662 -0.7671
   18MOL0     H 2475   3.552   9.891  11.012 -0.1102  1.1141  1.6056
   18MOL0     H 2476   3.653   9.853  11.292 -0.8194 -0.9668 -0.5943
   18MOL0     H 2477   3.673   9.998  11.187  1.0532  0.7533  2.7636
   18MOL0     H 2478   3.419  10.001  11.182  1.6277 -0.2806 -1.8061
   18MOL0     H 2479   3.518  10.063  11.312  0.5780 -0.1417 -0.1417
   18MOL0     H 2480   3.340   9.747  11.535 -1.3010  1.1669 -0.1583
   18MOL0     H 2481   3.970   9.748  10.872 -1.0169 -2.8074 -0.6440
   18MOL0     H 2482   4.259   9.581  10.786  0.1334 -0.5778  0.0779
   18MOL0     H 2483   4.142   9.706  10.740 -1.8924 -1.7801  1.3891
   18MOL0     H 2484   4.314   9.743  10.796  1.3911 -0.7647  0.8530
   19MOL0     O 2485   8.577  10.429  10.502 -0.8628  0.0986  0.7123
   19MOL0     C 2486   8.554  10.309  10.498 -0.2685  0.3018 -0.3121
   19MOL0     O 2487   8.574  10.226  10.389  0.5013 -0.4836 -0.1611
   19MOL0     C 2488   8.652  10.277  10.284 -0.3649  0.0960 -0.3270
   19MOL0     C 2489   8.753  10.195  10.239 -1.0954  0.4866  0.1612
   19MOL0     C 2490   8.845  10.251  10.152 -0.5193  0.4873 -0.5984
   19MOL0     C 2491   8.833  10.379  10.098  0.7137  0.3797 -0.0076
   19MOL0     O 2492   8.935  10.412  10.012  0.0623  0.0117  0.1853
   19MOL0     C 2493   8.939  10.552   9.983 -0.1685  0.2011 -0.5161
   19MOL0     C 2494   9.074  10.560   9.894  0.2989  0.1484  0.8486
   19MOL0     C 2495   9.102  10.697   9.830  0.6963 -0.1912 -0.4957
   19MOL0     C 2496   9.154  10.791   9.942 -1.1569 -0.4274  0.6740
   19MOL0     C 2497   9.307  10.771   9.959  0.5669 -0.0831 -0.2680
   19MOL0     C 2498   9.372  10.852  10.073  0.3295  0.1406 -1.2860
   19MOL0     C 2499   9.514  10.816  10.105  0.0117 -0.2287 -0.2710
   19MOL0     C 2500   9.616  10.881  10.001  0.1037 -0.0188  0.0138
   19MOL0     N 2501   9.648  10.787   9.889 -0.4317 -0.0661 -0.1054
   19MOL0     C 2502   9.681  10.650   9.891  1.1570 -0.1005 -0.3010
   19MOL0     C 2503   9.710  10.613   9.763  0.4325 -0.0696 -0.4008
   19MOL0     C 2504   9.766  10.484   9.709 -0.2565  0.2324  0.3054
   19MOL0     C 2505   9.756  10.472   9.559 -0.5079 -0.0712  0.6570
   19MOL0     C 2506   9.840  10.346   9.506  0.2840 -0.0026  0.4204
   19MOL0     C 2507   9.868  10.359   9.359  0.6861 -0.2999 -0.0367
   19MOL0     O 2508   9.742  10.383   9.295 -1.1349  0.3291  0.4082
   19MOL0     C 2509   9.725  10.467   9.191 -0.2564 -1.1186  0.2162
   19MOL0     C 2510   9.819  10.530   9.109  0.4629  0.5988 -0.2127
   19MOL0     C 2511   9.780  10.633   9.024  0.2744 -0.7853 -0.5792
   19MOL0     C 2512   9.897  10.711   8.963 -0.7175 -0.5907  0.0484
   19MOL0     C 2513   9.642  10.666   9.009  0.2276  0.1605  0.1165
   19MOL0     C 2514   9.594  10.768   8.913 -0.0160 -0.2924 -0.1581
   19MOL0     O 2515   9.461  10.771   8.894  0.1007  0.0193  0.4014
   19MOL0     C 2516   9.405  10.879   8.823  0.4105 -0.7681  0.2245
   19MOL0     C 2517   9.435  10.903   8.684 -0.1145 -0.5725 -0.0775
   19MOL0     C 2518   9.373  11.009   8.611 -0.4118  0.1788 -0.3073
   19MOL0     C 2519   9.294  11.101   8.674  0.3929 -0.2345 -0.0536
   19MOL0     O 2520   9.246  11.217   8.600  0.3078  0.4358  0.0756
   19MOL0     C 2521   9.132  11.295   8.637 -0.0393 -0.2814 -0.0192
   19MOL0     C 2522   9.187  11.435   8.658  0.4407  0.4681  0.3698
   19MOL0     C 2523   9.242  11.500   8.530  0.8268  0.0005 -0.5166
   19MOL0     C 2524   9.125  11.508   8.419  0.2915  1.2099 -0.8666
   19MOL0     C 2525   9.131  11.637   8.346  0.3179  0.4772 -1.2326
   19MOL0     C 2526   9.011  11.660   8.254 -0.8793 -0.3590 -0.2443
   19MOL0     C 2527   8.984  11.796   8.192 -0.7214  0.2471  0.4886
   19MOL0     C 2528   9.098  11.829   8.088  0.4637  0.7749  0.0060
   19MOL0    Cl 2529   9.084  11.998   8.049 -0.4020  0.8185  0.1425
   19MOL0     C 2530   9.268  11.083   8.806 -0.6586 -0.2503 -0.8402
   19MOL0     C 2531   9.309  10.963   8.878 -0.5487 -0.7001 -0.4747
   19MOL0     O 2532   9.668  10.836   8.847 -0.5074  0.5249 -0.2663
   19MOL0     C 2533   9.546  10.600   9.090 -0.1607  0.2470  0.7343
   19MOL0     C 2534   9.587  10.512   9.180 -0.3733  0.2114  0.0396
   19MOL0     N 2535   9.670  10.725   9.687  0.3186  0.8681 -0.3254
   19MOL0     N 2536   9.644  10.827   9.759  0.4762  0.0960 -0.3222
   19MOL0     C 2537   8.729  10.462  10.143 -1.0336  0.4264 -0.3950
   19MOL0     C 2538   8.641  10.410  10.235  0.5954 -0.0664  0.5117
   19MOL0     C 2539   8.506  10.233  10.624 -1.0138  0.0529 -0.0847
   19MOL0     C 2540   8.480  10.099  10.612  0.1905  0.0421 -0.8205
   19MOL0     C 2541   8.451  10.024  10.728  0.5332  0.3258 -0.3395
   19MOL0     C 2542   8.461  10.073  10.852 -0.0196  0.2714  0.5068
   19MOL0     O 2543   8.465   9.978  10.951  0.2556  0.0814  0.1674
   19MOL0     C 2544   8.503  10.016  11.086 -0.2641  0.4347  0.0419
   19MOL0     C 2545   8.497   9.897  11.171 -0.6332  0.0334  0.3300
   19MOL0     C 2546   8.605   9.803  11.143  0.1196 -0.5227 -0.0870
   19MOL0     C 2547   8.603   9.658  11.217  0.3323  0.4583  0.7821
   19MOL0     C 2548   8.687   9.549  11.165  0.2870 -0.0359  0.0170
   19MOL0     C 2549   8.741   9.456  11.118  0.4811  0.6597  0.6220
   19MOL0     C 2550   8.483  10.205  10.865 -0.2362 -1.0888 -0.3879
   19MOL0     C 2551   8.502  10.292  10.758  1.0162 -0.8179  1.6172
   19MOL0     C 2552   8.533  10.433  10.788 -0.2996  0.1385  0.8696
   19MOL0     H 2553   8.769  10.095  10.277 -0.8153  0.5217  0.1366
   19MOL0     H 2554   8.925  10.183  10.128 -0.3942  1.1896 -2.2632
   19MOL0     H 2555   8.950  10.621  10.067 -0.3987  0.3780 -0.6308
   19MOL0     H 2556   8.850  10.587   9.930 -2.9897 -2.1895  2.2269
   19MOL0     H 2557   9.149  10.529   9.967 -0.3498 -1.3203  0.9243
   19MOL0     H 2558   9.058  10.477   9.825 -2.4432  0.8603  0.5141
   19MOL0     H 2559   9.192  10.690   9.769  2.3249 -0.2821  1.7900
   19MOL0     H 2560   9.019  10.748   9.781  2.3090  2.3968 -0.6869
   19MOL0     H 2561   9.148  10.893   9.903 -0.2719 -1.0174 -1.1016
   19MOL0     H 2562   9.104  10.785  10.039  1.4053  0.0925  2.1077
   19MOL0     H 2563   9.371  10.797   9.874  2.7707  1.8897  1.8210
   19MOL0     H 2564   9.317  10.664   9.981 -0.0600 -1.4636 -5.4594
   19MOL0     H 2565   9.366  10.956  10.041  1.0969  0.4429 -0.4833
   19MOL0     H 2566   9.319  10.834  10.167  1.2355  1.3145 -0.5266
   19MOL0     H 2567   9.527  10.711  10.135 -2.7199 -0.6841 -0.4506
   19MOL0     H 2568   9.537  10.874  10.195 -0.0606 -0.9602  0.2227
   19MOL0     H 2569   9.575  10.970   9.953  2.2674 -1.0658 -4.2023
   19MOL0     H 2570   9.713  10.909  10.043 -0.7038 -1.5630  3.2483
   19MOL0     H 2571   9.701  10.595   9.982  0.3255 -0.2718 -0.2124
   19MOL0     H 2572   9.736  10.395   9.765  0.5685 -1.3596 -1.6578
   19MOL0     H 2573   9.873  10.501   9.723 -0.0689  1.4063 -1.9583
   19MOL0     H 2574   9.649  10.462   9.537 -0.4941  1.3049 -0.1494
   19MOL0     H 2575   9.800  10.560   9.512 -0.4951 -0.9065 -0.9476
   19MOL0     H 2576   9.932  10.326   9.561  0.8871 -0.1526 -0.6035
   19MOL0     H 2577   9.774  10.259   9.515 -0.0353  0.3285  1.3275
   19MOL0     H 2578   9.928  10.448   9.339 -1.4969  0.9496 -1.3963
   19MOL0     H 2579   9.910  10.269   9.312 -0.2756 -0.5245 -0.4928
   19MOL0     H 2580   9.925  10.509   9.112  0.0033 -2.2184 -0.5692
   19MOL0     H 2581   9.873  10.817   8.977  1.4838  0.0986 -1.0011
   19MOL0     H 2582   9.919  10.680   8.860  0.8983 -2.1167  0.8043
   19MOL0     H 2583   9.981  10.691   9.030 -2.4974 -0.7222  2.3897
   19MOL0     H 2584   9.503  10.829   8.643  0.0053 -1.9935  2.4863
   19MOL0     H 2585   9.413  11.021   8.511 -1.2683 -2.8753 -1.1481
   19MOL0     H 2586   9.057  11.284   8.558 -0.2606 -0.7198  0.2470
   19MOL0     H 2587   9.081  11.251   8.723 -3.0817 -0.2112 -1.6306
   19MOL0     H 2588   9.100  11.496   8.686  0.1876  0.0060  0.6126
   19MOL0     H 2589   9.254  11.446   8.744  1.6107 -1.4536 -0.2472
   19MOL0     H 2590   9.334  11.449   8.498  0.9652  0.5002 -0.9236
   19MOL0     H 2591   9.257  11.604   8.559 -1.1124 -0.3618  2.1305
   19MOL0     H 2592   9.020  11.495   8.446 -0.5776  0.1308 -4.2328
   19MOL0     H 2593   9.133  11.430   8.342 -3.0217 -0.1340 -0.0492
   19MOL0     H 2594   9.125  11.719   8.419 -1.7890  2.0320 -2.9994
   19MOL0     H 2595   9.219  11.647   8.282  2.2171  0.7473  1.2368
   19MOL0     H 2596   8.929  11.644   8.325 -0.3223  0.2862  0.5683
   19MOL0     H 2597   9.000  11.585   8.175 -0.0357 -0.7383 -0.0160
   19MOL0     H 2598   8.972  11.874   8.267 -0.6317  0.8818 -0.1495
   19MOL0     H 2599   8.890  11.782   8.137 -0.5323  1.9349 -0.3427
   19MOL0     H 2600   9.081  11.766   8.000 -0.5737  1.8655 -0.6012
   19MOL0     H 2601   9.197  11.810   8.131 -0.4640 -0.5382  1.6765
   19MOL0     H 2602   9.223  11.156   8.872 -0.1220 -2.0910  1.6746
   19MOL0     H 2603   9.259  10.950   8.973 -2.8456  2.0350 -1.1696
   19MOL0     H 2604   9.440  10.624   9.088  0.1991  1.9518  0.0066
   19MOL0     H 2605   9.515  10.474   9.252  2.2025  0.4831  2.9822
   19MOL0     H 2606   8.697  10.562  10.116 -3.5672 -0.8672 -2.6672
   19MOL0     H 2607   8.572  10.485  10.272  2.2462  0.6206  2.4073
   19MOL0     H 2608   8.488  10.050  10.516 -0.6269  1.6824 -1.7787
   19MOL0     H 2609   8.438   9.920  10.702  3.1439  0.2375 -1.6618
   19MOL0     H 2610   8.607  10.048  11.072 -0.3002  0.3341 -0.4800
   19MOL0     H 2611   8.440  10.095  11.127  2.5780  2.5892  0.5902
   19MOL0     H 2612   8.401   9.849  11.154 -1.9384  2.2359  1.1207
   19MOL0     H 2613   8.499   9.939  11.272  0.6748 -0.5272  0.5666
   19MOL0     H 2614   8.594   9.775  11.038  1.9702 -2.3245  0.1394
   19MOL0     H 2615   8.701   9.855  11.153 -1.8959  3.4362  0.8375
   19MOL0     H 2616   8.496   9.636  11.204  0.5739 -1.0259  1.1865
   19MOL0     H 2617   8.616   9.671  11.325 -2.4788  3.1987  0.9495
   19MOL0     H 2618   8.790   9.368  11.081 -2.6765 -0.6930 -0.6716
   19MOL0     H 2619   8.496  10.247  10.964  2.3219 -0.8107 -0.7565
   19MOL0     H 2620   8.508  10.463  10.890 -1.2632 -1.1936  1.0456
   19MOL0     H 2621   8.640  10.456  10.788 -0.1815 -0.2326  2.6851
   19MOL0     H 2622   8.488  10.503  10.717  0.7303  0.0397  0.0903
   20MOL0     O 2623   2.905   4.576   4.106 -0.1464 -0.1729 -0.0823
   20MOL0     C 2624   3.021   4.599   4.078 -0.9293  1.1990  0.1045
   20MOL0     O 2625   3.119   4.515   4.013  0.6203  0.2840 -0.2423
   20MOL0     C 2626   3.079   4.385   4.005 -0.1101  0.1351  1.2594
   20MOL0     C 2627   3.064   4.338   3.877 -0.7161 -0.3461  0.3748
   20MOL0     C 2628   3.008   4.210   3.857 -0.0942  0.0250 -0.7303
   20MOL0     C 2629   2.974   4.122   3.969  0.2549  0.0163  0.2060
   20MOL0     O 2630   2.914   4.001   3.931  0.0425  0.4546 -0.4157
   20MOL0     C 2631   2.910   3.892   4.024 -0.0800 -0.8377  0.5123
   20MOL0     C 2632   2.803   3.787   3.979 -0.3027  0.5827 -0.0351
   20MOL0     C 2633   2.777   3.684   4.094 -0.0972  0.6252 -0.5710
   20MOL0     C 2634   2.643   3.699   4.152  1.5181  0.0153 -0.5255
   20MOL0     C 2635   2.619   3.594   4.258  0.7096  0.6805  0.5333
   20MOL0     C 2636   2.637   3.445   4.218  0.7026  0.2401 -0.1652
   20MOL0     C 2637   2.633   3.343   4.329  0.1592 -0.4825  0.4763
   20MOL0     C 2638   2.753   3.352   4.429  0.2598  0.5912  0.9781
   20MOL0     N 2639   2.883   3.309   4.364  0.0221 -0.5455 -0.0762
   20MOL0     C 2640   2.940   3.191   4.385 -0.4611 -0.3431  0.0639
   20MOL0     C 2641   3.072   3.210   4.345  0.0590 -0.2810 -0.4597
   20MOL0     C 2642   3.193   3.128   4.338 -1.3207 -0.6089 -1.1654
   20MOL0     C 2643   3.236   3.075   4.201 -0.0730  0.2460 -0.0797
   20MOL0     C 2644   3.127   2.986   4.141 -0.1270 -0.3184  0.5362
   20MOL0     C 2645   3.181   2.915   4.018 -0.7158 -0.1233  0.3925
   20MOL0     O 2646   3.110   2.785   4.000 -0.0458  0.2591  0.8210
   20MOL0     C 2647   2.982   2.774   3.954  0.0208 -0.3802  0.5781
   20MOL0     C 2648   2.918   2.887   3.902 -0.2420 -0.1954  0.0264
   20MOL0     C 2649   2.800   2.883   3.827 -1.0488  0.0124  0.1696
   20MOL0     C 2650   2.737   3.013   3.792  0.9174 -0.3114  0.1267
   20MOL0     C 2651   2.732   2.761   3.804 -0.5487  0.3087 -0.4464
   20MOL0     C 2652   2.590   2.741   3.759 -0.1432  0.5958 -0.0642
   20MOL0     O 2653   2.521   2.831   3.688 -0.2143 -0.0806 -0.5856
   20MOL0     C 2654   2.389   2.826   3.655  0.2141  0.4661 -0.9668
   20MOL0     C 2655   2.286   2.749   3.722 -1.4986 -0.2262  0.2757
   20MOL0     C 2656   2.157   2.740   3.680 -0.2345  0.5295 -0.1077
   20MOL0     C 2657   2.122   2.812   3.563 -0.3671  1.3257 -0.1536
   20MOL0     O 2658   1.990   2.799   3.518 -0.1817 -0.5554  0.0501
   20MOL0     C 2659   1.919   2.919   3.544 -0.2445 -0.7936  0.9925
   20MOL0     C 2660   1.839   2.964   3.431 -0.1323  0.6200  0.4898
   20MOL0     C 2661   1.767   3.101   3.445  0.3028 -0.7323 -0.1326
   20MOL0     C 2662   1.689   3.128   3.578  0.2056 -0.8204 -0.2162
   20MOL0     C 2663   1.616   3.260   3.578 -0.1776 -0.4679 -0.1189
   20MOL0     C 2664   1.511   3.282   3.478  0.8351 -0.0641 -0.4674
   20MOL0     C 2665   1.473   3.427   3.459 -0.8682 -0.6505  0.3775
   20MOL0     C 2666   1.404   3.446   3.329  0.3913  0.8350 -0.4571
   20MOL0    Cl 2667   1.405   3.615   3.260 -0.0707  0.1412  0.3077
   20MOL0     C 2668   2.218   2.881   3.484  0.5797 -0.2435  0.5004
   20MOL0     C 2669   2.346   2.891   3.539  0.2981 -0.0723  0.0690
   20MOL0     O 2670   2.552   2.625   3.785 -0.2041  0.4401  0.0080
   20MOL0     C 2671   2.802   2.653   3.856  1.1295 -0.0393 -0.2256
   20MOL0     C 2672   2.920   2.658   3.917  0.7099 -0.5117  0.3311
   20MOL0     N 2673   3.077   3.341   4.298 -0.3490 -0.0032  0.3578
   20MOL0     N 2674   2.964   3.406   4.315  0.7582  0.7573  0.8639
   20MOL0     C 2675   3.007   4.168   4.098  0.0097  0.0005  0.3386
   20MOL0     C 2676   3.059   4.301   4.110  0.3527 -0.2082 -0.8509
   20MOL0     C 2677   3.084   4.717   4.131  0.7573 -0.0691 -1.1877
   20MOL0     C 2678   3.036   4.759   4.260 -0.3705  0.3047  0.0320
   20MOL0     C 2679   3.111   4.863   4.322  1.3974  1.1692 -0.0621
   20MOL0     C 2680   3.212   4.927   4.260  0.8408  0.8209 -0.0587
   20MOL0     O 2681   3.285   5.017   4.331  0.0963  0.0188  0.2051
   20MOL0     C 2682   3.356   5.116   4.262  0.0441  0.1692  0.4463
   20MOL0     C 2683   3.278   5.215   4.171 -0.9381 -0.0751 -0.8055
   20MOL0     C 2684   3.367   5.323   4.114  1.2709 -0.4169 -0.1278
   20MOL0     C 2685   3.303   5.393   4.000 -0.6917  0.5123  0.2407
   20MOL0     C 2686   3.323   5.320   3.871  0.8431  0.1707 -0.1227
   20MOL0     C 2687   3.338   5.261   3.764 -0.4052 -0.5947  0.4963
   20MOL0     C 2688   3.238   4.896   4.131  0.6579  0.7852  0.1772
   20MOL0     C 2689   3.193   4.787   4.062  0.3582 -0.0692  0.7107
   20MOL0     C 2690   3.242   4.758   3.923 -0.6699  0.8958 -0.0585
   20MOL0     H 2691   3.088   4.403   3.794 -0.8298 -0.3586  0.3327
   20MOL0     H 2692   2.988   4.195   3.752  2.7278  1.0056 -1.4875
   20MOL0     H 2693   2.870   3.923   4.122 -1.3652 -1.7443  0.2970
   20MOL0     H 2694   3.007   3.842   4.026 -0.2051 -1.0844  0.3898
   20MOL0     H 2695   2.711   3.823   3.933 -0.0788 -1.5513 -2.3461
   20MOL0     H 2696   2.844   3.742   3.888  1.1187  0.2917  0.7031
   20MOL0     H 2697   2.789   3.589   4.041  0.4108  0.6825 -0.5677
   20MOL0     H 2698   2.857   3.672   4.167  0.9951 -2.3133 -2.0679
   20MOL0     H 2699   2.630   3.800   4.192 -0.3258 -1.5841  3.3950
   20MOL0     H 2700   2.567   3.673   4.078  0.7114 -4.6219  1.5544
   20MOL0     H 2701   2.525   3.606   4.312  0.2596 -4.3014  1.3552
   20MOL0     H 2702   2.684   3.625   4.342  0.4698 -0.3462  1.1143
   20MOL0     H 2703   2.568   3.422   4.136 -0.6393 -0.0860  1.0053
   20MOL0     H 2704   2.734   3.428   4.169  0.0213 -0.0393 -1.4756
   20MOL0     H 2705   2.636   3.243   4.285 -1.5655 -0.8033  1.0129
   20MOL0     H 2706   2.539   3.353   4.384  1.6612  0.3827  3.0632
   20MOL0     H 2707   2.760   3.451   4.475  1.9442 -0.1736  2.4676
   20MOL0     H 2708   2.723   3.290   4.513  1.2101 -3.8423 -1.6421
   20MOL0     H 2709   2.894   3.109   4.439 -1.3839  0.9496  1.3181
   20MOL0     H 2710   3.177   3.040   4.401  3.1072 -1.7528 -1.2899
   20MOL0     H 2711   3.274   3.185   4.383 -1.5584 -1.2067  0.0753
   20MOL0     H 2712   3.250   3.158   4.132 -1.1490  0.0233 -0.5863
   20MOL0     H 2713   3.332   3.024   4.218 -0.3306 -0.8548 -1.6990
   20MOL0     H 2714   3.109   2.909   4.217 -0.2258  0.0089  0.8466
   20MOL0     H 2715   3.038   3.043   4.112  0.0073  0.1870  1.1020
   20MOL0     H 2716   3.169   2.971   3.925 -1.2868 -2.0139 -0.7482
   20MOL0     H 2717   3.289   2.902   4.019 -0.4571  1.1903 -2.2686
   20MOL0     H 2718   2.948   2.990   3.918  0.2076 -0.2822 -0.2370
   20MOL0     H 2719   2.628   3.020   3.796  0.7113 -3.1525  2.0595
   20MOL0     H 2720   2.757   3.034   3.686 -1.9208 -0.1554 -0.4580
   20MOL0     H 2721   2.773   3.099   3.850 -0.7824  1.3014 -1.0896
   20MOL0     H 2722   2.322   2.701   3.812 -0.3724  0.1151  0.0191
   20MOL0     H 2723   2.085   2.679   3.733  1.9417 -1.3268  0.8977
   20MOL0     H 2724   1.851   2.900   3.628 -2.6104  1.2311 -0.3303
   20MOL0     H 2725   1.986   2.999   3.576 -3.2265  1.2561  2.5762
   20MOL0     H 2726   1.905   2.966   3.344  1.6291 -0.4059  1.7455
   20MOL0     H 2727   1.763   2.890   3.403  0.9660 -1.3253  2.3655
   20MOL0     H 2728   1.701   3.105   3.357  0.5431  0.4516 -0.2764
   20MOL0     H 2729   1.849   3.173   3.436  0.1943 -0.3214  1.7824
   20MOL0     H 2730   1.757   3.125   3.664  0.4300  0.2887 -0.3408
   20MOL0     H 2731   1.612   3.050   3.581  0.2710 -0.9637 -1.4668
   20MOL0     H 2732   1.557   3.285   3.666  1.9792  4.0190  0.3168
   20MOL0     H 2733   1.688   3.343   3.576  1.3849 -1.7668 -0.5672
   20MOL0     H 2734   1.411   3.250   3.508  0.0212  1.0976 -1.7754
   20MOL0     H 2735   1.535   3.231   3.385  1.1639 -0.7387 -0.0166
   20MOL0     H 2736   1.562   3.490   3.462 -0.0882 -1.7221  0.4745
   20MOL0     H 2737   1.420   3.462   3.548 -0.7165 -1.6823  0.8975
   20MOL0     H 2738   1.300   3.413   3.339  0.4315  1.0520  0.7677
   20MOL0     H 2739   1.438   3.377   3.251 -1.1601 -3.3443  2.1795
   20MOL0     H 2740   2.192   2.912   3.383  0.0717 -0.7435  0.4760
   20MOL0     H 2741   2.418   2.960   3.496 -1.6331  2.1170  0.1579
   20MOL0     H 2742   2.753   2.556   3.856 -1.0213  0.9841  0.6115
   20MOL0     H 2743   2.977   2.568   3.941  2.4091  0.8140  1.5746
   20MOL0     H 2744   2.979   4.103   4.180 -0.9414  1.4897  1.2450
   20MOL0     H 2745   3.074   4.353   4.204 -0.7754  0.3543 -0.9615
   20MOL0     H 2746   2.951   4.716   4.312 -0.2096  1.1775  1.0723
   20MOL0     H 2747   3.083   4.896   4.422 -2.1932  0.2580 -0.6420
   20MOL0     H 2748   3.407   5.174   4.340  0.6613  2.3566 -1.4686
   20MOL0     H 2749   3.434   5.067   4.204 -2.5713 -2.1463 -1.3788
   20MOL0     H 2750   3.194   5.255   4.229  2.2030  0.2978  4.0236
   20MOL0     H 2751   3.235   5.159   4.088 -0.2394  1.4240 -2.2463
   20MOL0     H 2752   3.389   5.392   4.197  0.7036 -1.1988  0.6919
   20MOL0     H 2753   3.460   5.278   4.080  2.4437  2.1659 -0.5934
   20MOL0     H 2754   3.342   5.494   3.988 -0.3953  0.5317  1.2779
   20MOL0     H 2755   3.196   5.397   4.023 -1.7678 -2.6017 -3.1736
   20MOL0     H 2756   3.340   5.208   3.671 -0.3294 -0.2058  0.2769
   20MOL0     H 2757   3.310   4.962   4.082  0.2528  1.0938 -0.0058
   20MOL0     H 2758   3.174   4.708   3.854  2.6984  0.4538 -3.3990
   20MOL0     H 2759   3.279   4.850   3.877 -3.3193  1.9877 -0.1745
   20MOL0     H 2760   3.325   4.688   3.935 -3.0762 -2.1962 -0.1992
   21MOL0     O 2761   3.255   8.564   0.032 -0.5611  0.0145 -0.8397
   21MOL0     C 2762   3.350   8.609   0.079 -0.7883 -0.2943  0.0240
   21MOL0     O 2763   3.399   8.570   0.203  0.0848  0.4269  0.0756
   21MOL0     C 2764   3.348   8.450   0.257  0.1952 -0.1678  1.0992
   21MOL0     C 2765   3.362   8.332   0.181  0.2624  0.7070 -0.5513
   21MOL0     C 2766   3.341   8.210   0.253 -0.7280 -0.1769  0.4177
   21MOL0     C 2767   3.317   8.207   0.389 -0.8950  0.2709  0.0617
   21MOL0     O 2768   3.302   8.077   0.441  0.5513 -0.3734  0.1578
   21MOL0     C 2769   3.237   8.039   0.569  0.7321  0.3087  0.0112
   21MOL0     C 2770   3.098   7.969   0.550 -0.1307 -0.1231 -0.4055
   21MOL0     C 2771   3.009   8.035   0.447 -0.9298  0.7081 -0.1148
   21MOL0     C 2772   2.939   8.161   0.506 -0.1031  0.0718  0.5301
   21MOL0     C 2773   2.806   8.181   0.430  0.2211 -0.7587  0.0957
   21MOL0     C 2774   2.831   8.217   0.283  0.3997 -1.0310 -0.1865
   21MOL0     C 2775   2.919   8.350   0.262  0.0526  0.4868  0.6713
   21MOL0     C 2776   2.906   8.396   0.110 -0.4231  0.0338 -0.2082
   21MOL0     N 2777   2.945   8.287   0.018 -1.4232 -0.1486 -0.2763
   21MOL0     C 2778   3.072   8.268  -0.035  0.6555  0.2883  0.2785
   21MOL0     C 2779   3.060   8.161  -0.116 -0.2872  0.3263 -0.1909
   21MOL0     C 2780   3.156   8.088  -0.198  0.3671 -0.3887 -0.0706
   21MOL0     C 2781   3.189   8.175  -0.324 -0.7335  0.1150 -1.1098
   21MOL0     C 2782   3.315   8.266  -0.311  0.1193 -0.4577 -1.0510
   21MOL0     C 2783   3.385   8.323  -0.439 -0.3026  0.5992 -0.0393
   21MOL0     O 2784   3.271   8.348  -0.521 -0.4530  0.3823 -0.0425
   21MOL0     C 2785   3.289   8.439  -0.624 -0.1264 -0.0163  0.6120
   21MOL0     C 2786   3.183   8.469  -0.712  0.0252  0.1332 -0.5532
   21MOL0     C 2787   3.199   8.567  -0.813  1.1695  0.3502  0.5478
   21MOL0     C 2788   3.076   8.587  -0.902  1.1058 -0.4928 -0.2298
   21MOL0     C 2789   3.313   8.645  -0.829 -0.4486 -0.4906 -0.4699
   21MOL0     C 2790   3.339   8.741  -0.945 -0.5690 -0.3163 -0.0794
   21MOL0     O 2791   3.476   8.739  -0.978 -0.0595 -0.5280 -0.3716
   21MOL0     C 2792   3.533   8.791  -1.095 -0.0244 -0.0473 -0.5656
   21MOL0     C 2793   3.668   8.823  -1.091  0.0495 -0.2278 -0.1542
   21MOL0     C 2794   3.729   8.878  -1.198 -0.1541  0.7919  0.6586
   21MOL0     C 2795   3.658   8.915  -1.312 -0.4028  0.9002 -0.5043
   21MOL0     O 2796   3.705   8.984  -1.421 -0.1566  0.4411 -1.6738
   21MOL0     C 2797   3.818   9.073  -1.395  0.2132  0.0262  0.7302
   21MOL0     C 2798   3.787   9.192  -1.302 -0.1821  0.2225 -0.4708
   21MOL0     C 2799   3.651   9.269  -1.350 -0.1889  0.4536 -0.9044
   21MOL0     C 2800   3.661   9.334  -1.496 -0.0665 -0.0216 -0.1516
   21MOL0     C 2801   3.550   9.441  -1.512 -0.3428 -0.1955 -0.5747
   21MOL0     C 2802   3.533   9.488  -1.655  0.0259 -0.4341  0.2307
   21MOL0     C 2803   3.449   9.623  -1.651  0.0392  0.7964  0.0081
   21MOL0     C 2804   3.416   9.693  -1.786 -0.0906  0.3476  0.9039
   21MOL0    Cl 2805   3.561   9.793  -1.819 -0.0810  0.0113 -0.5129
   21MOL0     C 2806   3.527   8.884  -1.318 -1.1638 -0.4756 -0.3782
   21MOL0     C 2807   3.462   8.827  -1.211 -0.2014 -0.0017 -0.0026
   21MOL0     O 2808   3.248   8.808  -1.000 -0.5355 -0.8641 -0.1539
   21MOL0     C 2809   3.410   8.623  -0.731  0.2932 -0.6473  0.8168
   21MOL0     C 2810   3.405   8.521  -0.638 -0.2897  0.7423  0.5434
   21MOL0     N 2811   2.925   8.121  -0.124 -0.2329  0.5835  0.6081
   21MOL0     N 2812   2.859   8.203  -0.045  0.2745 -0.2982  0.2744
   21MOL0     C 2813   3.292   8.327   0.463  0.9308  0.9940  0.4201
   21MOL0     C 2814   3.301   8.447   0.390 -0.9060  0.4351 -0.5207
   21MOL0     C 2815   3.431   8.709   0.011  0.9645 -0.8228  0.1605
   21MOL0     C 2816   3.525   8.790   0.087 -0.1175  0.2977  0.0030
   21MOL0     C 2817   3.604   8.880   0.023 -1.0089 -0.6072 -0.6792
   21MOL0     C 2818   3.599   8.900  -0.113 -0.3583 -0.1742  0.6781
   21MOL0     O 2819   3.672   8.993  -0.190  1.3347  0.0153  0.7489
   21MOL0     C 2820   3.814   9.017  -0.152  0.7158 -0.1017 -0.3053
   21MOL0     C 2821   3.905   9.063  -0.272  0.1152  1.2256  0.1830
   21MOL0     C 2822   3.875   9.206  -0.322 -0.4661  0.1631 -0.8477
   21MOL0     C 2823   3.747   9.211  -0.415 -0.2187 -0.3993 -0.1030
   21MOL0     C 2824   3.694   9.344  -0.466 -0.2480  0.6903 -0.1285
   21MOL0     C 2825   3.668   9.449  -0.511  0.2314 -0.4697  0.4903
   21MOL0     C 2826   3.515   8.823  -0.191 -0.0856  0.2394 -0.5453
   21MOL0     C 2827   3.432   8.726  -0.127  0.4833 -0.0373  0.1633
   21MOL0     C 2828   3.330   8.663  -0.221  0.0835  0.5722  0.5656
   21MOL0     H 2829   3.376   8.326   0.074 -0.4232  3.8982 -0.9098
   21MOL0     H 2830   3.346   8.116   0.200  2.1760  0.6447 -0.9671
   21MOL0     H 2831   3.218   8.134   0.622  0.9552  0.9165 -0.9792
   21MOL0     H 2832   3.314   7.980   0.619  2.3446  1.6536 -0.7716
   21MOL0     H 2833   3.119   7.865   0.527 -1.9610 -1.1254  2.0353
   21MOL0     H 2834   3.051   7.972   0.649 -1.9676 -3.0810 -1.0795
   21MOL0     H 2835   3.069   8.058   0.359 -1.9977 -0.3876 -1.1588
   21MOL0     H 2836   2.933   7.959   0.429 -0.7289  0.1345  1.2981
   21MOL0     H 2837   2.926   8.136   0.612  0.3140  2.0123  1.0755
   21MOL0     H 2838   3.002   8.250   0.515 -1.2932  0.7624  2.4740
   21MOL0     H 2839   2.746   8.261   0.474  2.2207  0.8972 -0.0594
   21MOL0     H 2840   2.748   8.088   0.436 -0.7771 -0.1987 -0.6686
   21MOL0     H 2841   2.884   8.139   0.227 -1.1068 -2.7598  0.6972
   21MOL0     H 2842   2.732   8.238   0.240  1.9522  1.6984 -2.8231
   21MOL0     H 2843   3.025   8.328   0.281  0.3768  0.2952 -1.2078
   21MOL0     H 2844   2.883   8.432   0.324  1.5742  0.8755  1.0907
   21MOL0     H 2845   2.798   8.409   0.105 -0.7209 -1.4707  1.3320
   21MOL0     H 2846   2.967   8.487   0.105 -0.3107  0.0034  0.4586
   21MOL0     H 2847   3.166   8.317  -0.013  0.8961 -0.8887  2.1259
   21MOL0     H 2848   3.118   7.995  -0.242  3.8026  0.1030 -4.8718
   21MOL0     H 2849   3.249   8.078  -0.141  0.2582 -1.4205 -0.0552
   21MOL0     H 2850   3.206   8.108  -0.409 -0.9383  0.4546 -1.4184
   21MOL0     H 2851   3.098   8.231  -0.347 -1.1333  0.1152  0.4113
   21MOL0     H 2852   3.293   8.350  -0.245 -0.2480 -2.2090  1.2172
   21MOL0     H 2853   3.397   8.215  -0.258 -0.9659  0.0154  1.1990
   21MOL0     H 2854   3.445   8.412  -0.414 -1.0740  1.2327 -0.3981
   21MOL0     H 2855   3.444   8.245  -0.488 -4.0654 -2.7438  0.2342
   21MOL0     H 2856   3.096   8.406  -0.698  1.1562 -1.6662 -1.3410
   21MOL0     H 2857   3.033   8.688  -0.909 -0.8617 -1.3796 -2.0412
   21MOL0     H 2858   2.984   8.539  -0.866 -0.6620  2.2496 -0.7455
   21MOL0     H 2859   3.099   8.552  -1.003  1.6319  2.3129 -1.1838
   21MOL0     H 2860   3.723   8.809  -0.999 -0.2162 -1.4716 -0.1699
   21MOL0     H 2861   3.832   8.908  -1.181 -0.1033 -0.3329  2.5238
   21MOL0     H 2862   3.913   9.025  -1.368  1.2559  1.5188 -0.1660
   21MOL0     H 2863   3.847   9.109  -1.494  2.6595 -2.1420  0.5457
   21MOL0     H 2864   3.782   9.148  -1.202  1.5864 -1.6901 -1.1374
   21MOL0     H 2865   3.871   9.258  -1.322 -1.8600  1.5910 -3.8652
   21MOL0     H 2866   3.636   9.340  -1.268  1.2402  0.6442 -0.7858
   21MOL0     H 2867   3.576   9.189  -1.346 -1.0286  1.2358 -0.8375
   21MOL0     H 2868   3.658   9.259  -1.576 -1.1328 -1.5618  1.2460
   21MOL0     H 2869   3.757   9.387  -1.493  0.1490 -0.3877 -0.4837
   21MOL0     H 2870   3.461   9.389  -1.474 -0.7069 -0.5338 -1.8444
   21MOL0     H 2871   3.570   9.526  -1.446  0.3412  0.5220 -1.6727
   21MOL0     H 2872   3.480   9.409  -1.708  0.7148 -0.3178 -0.6482
   21MOL0     H 2873   3.625   9.510  -1.709 -0.8359 -1.4951 -1.7376
   21MOL0     H 2874   3.493   9.684  -1.572  1.3237 -2.8517  2.3809
   21MOL0     H 2875   3.347   9.598  -1.622 -0.5784  2.6727 -0.4015
   21MOL0     H 2876   3.332   9.762  -1.785  0.9449  1.9472 -3.6078
   21MOL0     H 2877   3.416   9.622  -1.869 -1.2578 -0.3366  1.4590
   21MOL0     H 2878   3.479   8.905  -1.412 -0.0570 -0.6782 -1.0064
   21MOL0     H 2879   3.356   8.815  -1.193  0.4021 -3.2290  2.2244
   21MOL0     H 2880   3.498   8.686  -0.730 -0.4542  0.4484  0.1056
   21MOL0     H 2881   3.500   8.516  -0.586  0.6100  0.6871 -1.0528
   21MOL0     H 2882   3.257   8.325   0.566 -2.4021 -0.8023 -0.6181
   21MOL0     H 2883   3.308   8.546   0.432  1.6335  2.0427 -4.2055
   21MOL0     H 2884   3.521   8.790   0.196 -0.6230  1.7187  0.0026
   21MOL0     H 2885   3.673   8.931   0.089 -2.6484  2.3600 -1.0964
   21MOL0     H 2886   3.825   9.080  -0.063  2.1411  0.2242 -0.6930
   21MOL0     H 2887   3.854   8.918  -0.128  0.7994 -2.2747 -7.2781
   21MOL0     H 2888   3.907   8.988  -0.352  1.0560  0.0231  1.3010
   21MOL0     H 2889   4.008   9.064  -0.236  0.1707  2.0966  0.0315
   21MOL0     H 2890   3.856   9.272  -0.238 -1.6626 -0.2572 -0.7698
   21MOL0     H 2891   3.953   9.252  -0.384 -0.1624  0.6891 -0.0837
   21MOL0     H 2892   3.669   9.159  -0.359 -1.0114 -0.2502 -1.0523
   21MOL0     H 2893   3.778   9.143  -0.495 -2.1597 -2.0270  0.4390
   21MOL0     H 2894   3.630   9.543  -0.544  1.1637 -0.7412 -1.5297
   21MOL0     H 2895   3.514   8.832  -0.299 -0.6495 -1.3991 -0.7057
   21MOL0     H 2896   3.338   8.555  -0.208 -1.8190  0.7165  4.2029
   21MOL0     H 2897   3.225   8.688  -0.203  0.3467  2.0516  0.2246
   21MOL0     H 2898   3.352   8.687  -0.325  1.7918  1.5034  1.1062
   22MOL0     O 2899   7.131   8.480   3.851 -0.0459 -0.1156  0.1554
   22MOL0     C 2900   7.169   8.388   3.786 -0.5058 -0.0825 -0.2755
   22MOL0     O 2901   7.183   8.396   3.646 -0.4280  0.6671 -0.3177
   22MOL0     C 2902   7.165   8.522   3.581 -0.9127 -0.2008 -0.5422
   22MOL0     C 2903   7.193   8.654   3.629 -0.2362  0.3742  0.0117
   22MOL0     C 2904   7.155   8.766   3.559 -0.1486 -0.3950  0.1034
   22MOL0     C 2905   7.094   8.756   3.433 -0.1253  0.4907  0.0695
   22MOL0     O 2906   7.074   8.872   3.361 -0.0074  0.5163  0.0030
   22MOL0     C 2907   6.987   8.868   3.246  0.1986 -0.1647 -0.0095
   22MOL0     C 2908   6.956   8.996   3.164  0.2137  0.0420 -0.1678
   22MOL0     C 2909   7.035   9.124   3.210 -0.3794 -0.1473 -0.6125
   22MOL0     C 2910   7.185   9.117   3.186 -0.3756  0.8901  0.7975
   22MOL0     C 2911   7.266   9.219   3.261 -0.3349  0.0562 -0.8477
   22MOL0     C 2912   7.412   9.218   3.218  0.0095 -0.6402 -0.4454
   22MOL0     C 2913   7.471   9.076   3.220 -0.5059 -0.2725  0.0501
   22MOL0     C 2914   7.450   8.995   3.349 -1.1897 -1.3264  0.0240
   22MOL0     N 2915   7.518   8.864   3.353  0.0814  0.9861  0.0111
   22MOL0     C 2916   7.638   8.845   3.411 -1.0800 -0.8313 -0.9331
   22MOL0     C 2917   7.678   8.717   3.373  0.7509  0.4307 -0.1466
   22MOL0     C 2918   7.818   8.654   3.385 -1.2810  0.3651  0.0307
   22MOL0     C 2919   7.838   8.581   3.518 -0.1324 -0.0986  1.0741
   22MOL0     C 2920   7.978   8.599   3.569 -0.1899  0.0287 -0.9224
   22MOL0     C 2921   8.096   8.527   3.485 -0.3084  0.6535 -0.5555
   22MOL0     O 2922   8.098   8.386   3.485 -1.1042 -0.3944  0.1910
   22MOL0     C 2923   8.183   8.320   3.579  0.0311 -0.4631 -0.4459
   22MOL0     C 2924   8.302   8.265   3.531 -0.2830 -0.2731 -0.0858
   22MOL0     C 2925   8.393   8.201   3.615  0.9174 -0.3270 -0.0987
   22MOL0     C 2926   8.523   8.153   3.558  0.3474  0.1565 -0.5422
   22MOL0     C 2927   8.368   8.195   3.751  0.2345 -0.8866 -0.2815
   22MOL0     C 2928   8.474   8.154   3.848 -0.5673 -0.6039 -0.4085
   22MOL0     O 2929   8.604   8.188   3.829 -0.9103 -0.0093 -0.2914
   22MOL0     C 2930   8.711   8.144   3.908  0.3568 -0.3237  0.1657
   22MOL0     C 2931   8.707   8.134   4.046  0.3632 -0.2777 -0.2773
   22MOL0     C 2932   8.813   8.113   4.126  0.4144 -0.5660 -0.0381
   22MOL0     C 2933   8.944   8.089   4.081  0.3470  1.5400 -0.4276
   22MOL0     O 2934   9.040   8.050   4.179  0.8294  0.0906 -0.9057
   22MOL0     C 2935   9.133   7.953   4.127 -0.3593  0.3323  0.4764
   22MOL0     C 2936   9.147   7.847   4.226  0.5356  0.0361 -0.2037
   22MOL0     C 2937   9.190   7.904   4.365 -0.1521  0.7384 -0.1640
   22MOL0     C 2938   9.281   7.798   4.430 -0.0972 -0.7149 -1.2934
   22MOL0     C 2939   9.360   7.858   4.552  0.9073 -0.0062  0.5927
   22MOL0     C 2940   9.469   7.777   4.609  0.2595  1.0284  0.2074
   22MOL0     C 2941   9.602   7.779   4.516  0.4953  0.0223  0.1019
   22MOL0     C 2942   9.725   7.702   4.561 -0.9325 -0.4338 -0.9093
   22MOL0    Cl 2943   9.816   7.775   4.695  0.1423  0.0173  0.0789
   22MOL0     C 2944   8.957   8.082   3.939  0.8883 -0.2419  0.0149
   22MOL0     C 2945   8.843   8.115   3.854  0.2106 -0.7406 -1.1104
   22MOL0     O 2946   8.426   8.083   3.940 -1.3815  0.4900  0.1848
   22MOL0     C 2947   8.251   8.266   3.801  0.4895  0.6524 -0.0894
   22MOL0     C 2948   8.158   8.327   3.717 -0.3969 -0.2595 -0.5864
   22MOL0     N 2949   7.572   8.659   3.308  0.8162 -0.0276  0.6026
   22MOL0     N 2950   7.477   8.747   3.291 -0.2440  0.7830 -0.2460
   22MOL0     C 2951   7.063   8.626   3.392 -0.1335  0.2607  0.4309
   22MOL0     C 2952   7.100   8.518   3.461  0.4111  0.3975  0.4632
   22MOL0     C 2953   7.226   8.264   3.853  0.5132 -0.3621  0.0162
   22MOL0     C 2954   7.328   8.194   3.782 -0.6015 -0.3787  0.1511
   22MOL0     C 2955   7.406   8.090   3.839  0.7012  0.5159  0.4300
   22MOL0     C 2956   7.378   8.068   3.976  0.8964  0.6385  0.3255
   22MOL0     O 2957   7.475   7.985   4.035  0.4532 -0.1685 -0.5488
   22MOL0     C 2958   7.493   7.980   4.178 -0.0193 -0.0247  0.1876
   22MOL0     C 2959   7.503   7.831   4.221  0.4438  0.0925  0.3855
   22MOL0     C 2960   7.549   7.825   4.368  0.8703  0.7379  0.6032
   22MOL0     C 2961   7.526   7.681   4.439 -0.3177 -0.3079 -0.1661
   22MOL0     C 2962   7.390   7.642   4.473  0.1580  0.2697  1.1827
   22MOL0     C 2963   7.271   7.615   4.504 -0.2582  0.3324 -0.1094
   22MOL0     C 2964   7.261   8.112   4.040 -0.8080 -0.5235  0.1678
   22MOL0     C 2965   7.198   8.226   3.985  0.6322  1.0190  0.4079
   22MOL0     C 2966   7.101   8.305   4.079 -0.6239 -0.3385  0.3857
   22MOL0     H 2967   7.238   8.664   3.727 -2.4441  2.7067  0.9192
   22MOL0     H 2968   7.179   8.867   3.591 -2.3263  0.9657 -2.2254
   22MOL0     H 2969   6.892   8.827   3.282 -0.3320 -1.4736 -2.6553
   22MOL0     H 2970   7.023   8.796   3.172  0.1627 -0.3346  0.1385
   22MOL0     H 2971   6.983   8.977   3.060  0.5371  0.7296 -0.2168
   22MOL0     H 2972   6.853   9.033   3.172  0.5483  0.8158  0.8596
   22MOL0     H 2973   7.008   9.210   3.147  0.9448  0.0044 -0.9911
   22MOL0     H 2974   7.029   9.140   3.318 -1.0085 -1.7005 -0.3931
   22MOL0     H 2975   7.224   9.022   3.222 -0.1510  1.3191  1.7255
   22MOL0     H 2976   7.215   9.119   3.080  4.3210  3.2544  1.8947
   22MOL0     H 2977   7.260   9.194   3.367 -1.1255  2.3244 -0.3039
   22MOL0     H 2978   7.235   9.323   3.248  4.1509  1.8158  0.6634
   22MOL0     H 2979   7.418   9.258   3.116 -1.2309  1.6584  0.3049
   22MOL0     H 2980   7.476   9.279   3.283  2.0439 -2.5992 -0.5131
   22MOL0     H 2981   7.575   9.069   3.190 -0.3780  0.5984  0.2493
   22MOL0     H 2982   7.415   9.025   3.142 -0.4971  2.7398 -2.1061
   22MOL0     H 2983   7.498   9.063   3.419 -1.9703  2.5308 -2.8402
   22MOL0     H 2984   7.343   8.987   3.365 -1.4137  1.4922  0.4333
   22MOL0     H 2985   7.702   8.924   3.449 -1.5698 -2.0754  2.8859
   22MOL0     H 2986   7.893   8.733   3.383  1.8574 -2.3857 -0.2940
   22MOL0     H 2987   7.831   8.579   3.306 -1.9048  0.2490  0.0327
   22MOL0     H 2988   7.763   8.622   3.587  0.4422  2.9495  0.0585
   22MOL0     H 2989   7.824   8.473   3.515  0.0214 -0.1089 -2.2249
   22MOL0     H 2990   8.001   8.706   3.571 -2.7685  0.6706 -1.2811
   22MOL0     H 2991   7.980   8.576   3.676 -2.2651  0.4133 -0.7498
   22MOL0     H 2992   8.093   8.552   3.379 -0.1710 -1.5294 -1.1152
   22MOL0     H 2993   8.190   8.559   3.532 -1.6532 -1.4917  4.2509
   22MOL0     H 2994   8.310   8.267   3.423 -1.9380 -0.3693 -0.2278
   22MOL0     H 2995   8.575   8.082   3.622  2.0666  1.6230 -0.2426
   22MOL0     H 2996   8.592   8.238   3.557  2.8948 -1.7854 -1.6195
   22MOL0     H 2997   8.516   8.118   3.454  2.6164 -0.9402 -0.4036
   22MOL0     H 2998   8.615   8.152   4.100  0.0982 -0.3921 -0.6880
   22MOL0     H 2999   8.797   8.114   4.233  3.2750  3.0011  0.5554
   22MOL0     H 3000   9.090   7.901   4.041  1.2336  1.0262 -0.7886
   22MOL0     H 3001   9.224   8.008   4.102  0.7560 -2.1578 -1.2712
   22MOL0     H 3002   9.053   7.795   4.247  0.6142 -0.2310 -0.4963
   22MOL0     H 3003   9.221   7.777   4.185 -1.1642 -1.3605 -1.0235
   22MOL0     H 3004   9.112   7.930   4.436  0.9004  1.1783  0.8676
   22MOL0     H 3005   9.242   7.999   4.349  0.1601  0.6231  0.1370
   22MOL0     H 3006   9.363   7.774   4.362  1.7837 -2.3047  1.3465
   22MOL0     H 3007   9.221   7.709   4.453  0.4100 -1.4512 -2.7416
   22MOL0     H 3008   9.393   7.962   4.539  2.1687 -0.3031  1.2039
   22MOL0     H 3009   9.294   7.858   4.639 -0.4636 -2.1586 -0.3637
   22MOL0     H 3010   9.428   7.675   4.603 -0.4936  1.4088 -1.5915
   22MOL0     H 3011   9.494   7.805   4.712  1.2316 -0.6868  0.4900
   22MOL0     H 3012   9.623   7.883   4.487 -1.7951  0.6803  0.5714
   22MOL0     H 3013   9.582   7.718   4.427  1.2318 -0.2390  0.1093
   22MOL0     H 3014   9.809   7.689   4.491 -0.3564 -1.4701 -0.0581
   22MOL0     H 3015   9.697   7.604   4.599  0.9774 -0.6622  0.0193
   22MOL0     H 3016   9.055   8.074   3.893 -0.1856  3.4615 -3.5112
   22MOL0     H 3017   8.845   8.125   3.745 -3.6050  1.5878 -1.1569
   22MOL0     H 3018   8.225   8.261   3.906 -1.3546  0.7743 -0.5121
   22MOL0     H 3019   8.082   8.399   3.745  1.3731  1.0451  1.0880
   22MOL0     H 3020   7.005   8.604   3.303  1.5255  0.3383 -0.7196
   22MOL0     H 3021   7.057   8.423   3.431  4.9268 -2.1705  1.0831
   22MOL0     H 3022   7.361   8.236   3.688  1.8201  1.4084  1.6748
   22MOL0     H 3023   7.494   8.050   3.790 -0.0012 -1.0051  0.3594
   22MOL0     H 3024   7.584   8.032   4.210 -0.2325  0.4682 -0.0080
   22MOL0     H 3025   7.407   8.032   4.220 -0.7665 -0.7292 -0.4354
   22MOL0     H 3026   7.581   7.785   4.160  0.5358 -0.2287  0.7469
   22MOL0     H 3027   7.409   7.777   4.203 -0.6445  1.4021  1.7999
   22MOL0     H 3028   7.655   7.849   4.371  1.0734  0.2151 -1.0381
   22MOL0     H 3029   7.498   7.904   4.422 -0.4135  0.8716 -0.7297
   22MOL0     H 3030   7.603   7.676   4.516  0.6540 -2.5011 -1.1947
   22MOL0     H 3031   7.563   7.606   4.369  0.3844 -1.3301  1.2530
   22MOL0     H 3032   7.171   7.595   4.535  0.7698 -0.0932  3.2955
   22MOL0     H 3033   7.235   8.067   4.136 -0.1576  1.5954  1.3950
   22MOL0     H 3034   7.130   8.411   4.074 -0.5986 -0.4140 -2.2024
   22MOL0     H 3035   6.998   8.307   4.042 -1.1294  4.2195  1.4222
   22MOL0     H 3036   7.105   8.266   4.181  1.6831 -1.0596  0.0820
   23MOL0     O 3037   1.104   1.381   4.809 -0.4947  0.2838 -0.5498
   23MOL0     C 3038   1.001   1.382   4.873  0.2547 -0.3034  0.0657
   23MOL0     O 3039   0.920   1.274   4.896  0.4555 -0.0306 -0.2677
   23MOL0     C 3040   0.950   1.153   4.836  0.2957  0.4744  0.0887
   23MOL0     C 3041   1.033   1.059   4.893  0.2177  0.3898 -0.2374
   23MOL0     C 3042   1.047   0.934   4.836 -0.2132 -1.1349 -0.6989
   23MOL0     C 3043   0.984   0.895   4.708  0.2264 -0.4684 -0.1676
   23MOL0     O 3044   0.989   0.773   4.644 -0.0877  0.7539  0.1935
   23MOL0     C 3045   1.055   0.660   4.702 -0.8099  0.0340  0.3503
   23MOL0     C 3046   1.123   0.580   4.592 -0.3071  0.5653  0.5687
   23MOL0     C 3047   1.194   0.453   4.649 -0.0941 -0.3992 -0.1626
   23MOL0     C 3048   1.075   0.365   4.692  0.3141  0.3503  0.7074
   23MOL0     C 3049   1.031   0.281   4.550  0.4497 -0.1469 -0.0348
   23MOL0     C 3050   0.915   0.200   4.594  0.0450 -0.0188  0.0313
   23MOL0     C 3051   0.836   0.127   4.479 -0.8325 -0.1830 -0.0389
   23MOL0     C 3052   0.737   0.231   4.421  0.4250  0.2121 -0.1207
   23MOL0     N 3053   0.667   0.176   4.314  1.2928  0.2232 -0.1340
   23MOL0     C 3054   0.724   0.153   4.190 -0.1676 -0.1697 -0.4459
   23MOL0     C 3055   0.624   0.119   4.111 -0.1406 -0.1877  0.7785
   23MOL0     C 3056   0.637   0.097   3.958  0.7453 -0.2035  0.0465
   23MOL0     C 3057   0.754   0.006   3.919  0.4033 -0.4659 -0.3668
   23MOL0     C 3058   0.722  -0.139   3.951 -0.4033  0.2920 -0.4495
   23MOL0     C 3059   0.812  -0.254   3.906 -0.8405 -0.3328 -0.0766
   23MOL0     O 3060   0.951  -0.229   3.934 -0.3978 -0.2209 -0.7305
   23MOL0     C 3061   0.998  -0.219   4.062  0.0731  0.7965 -0.3894
   23MOL0     C 3062   1.104  -0.131   4.082  0.8035  0.4078 -0.1335
   23MOL0     C 3063   1.140  -0.098   4.214 -0.5498  0.2287 -0.0366
   23MOL0     C 3064   1.261  -0.004   4.213 -0.6079  0.0750 -1.8820
   23MOL0     C 3065   1.087  -0.164   4.325 -0.5351  0.9860  0.0815
   23MOL0     C 3066   1.121  -0.138   4.465 -0.8644 -0.6184 -0.9285
   23MOL0     O 3067   1.057  -0.201   4.562  0.0868 -0.0095  0.8405
   23MOL0     C 3068   1.106  -0.208   4.684  0.4479  0.5959  0.1089
   23MOL0     C 3069   1.211  -0.296   4.706  0.2575 -0.7983  0.3010
   23MOL0     C 3070   1.268  -0.297   4.831 -0.1519 -0.0331 -0.0658
   23MOL0     C 3071   1.224  -0.204   4.923  0.2098  1.2685 -1.0808
   23MOL0     O 3072   1.268  -0.221   5.050  0.4151  0.1200 -0.0951
   23MOL0     C 3073   1.286  -0.098   5.137  0.3179  0.7311  0.0051
   23MOL0     C 3074   1.428  -0.100   5.198  1.1471 -0.4302 -0.9301
   23MOL0     C 3075   1.470  -0.234   5.268 -0.5821 -0.7392 -0.2265
   23MOL0     C 3076   1.601  -0.211   5.351  0.0011  0.3173  0.6557
   23MOL0     C 3077   1.577  -0.153   5.489 -0.2771 -0.3957  1.0356
   23MOL0     C 3078   1.713  -0.139   5.558 -0.6303  0.1086  1.1582
   23MOL0     C 3079   1.768  -0.265   5.619  0.1483  0.0479  0.5380
   23MOL0     C 3080   1.921  -0.256   5.633 -0.3661 -0.3318 -0.3170
   23MOL0    Cl 3081   1.954  -0.123   5.751  0.4454 -0.3034  0.0656
   23MOL0     C 3082   1.132  -0.102   4.897  0.8855  0.2982  0.2955
   23MOL0     C 3083   1.058  -0.117   4.780  0.9994 -0.5106  0.2031
   23MOL0     O 3084   1.197  -0.048   4.495  1.2697  0.3128 -0.3924
   23MOL0     C 3085   1.003  -0.266   4.299 -0.4654  0.0759  0.1333
   23MOL0     C 3086   0.956  -0.301   4.169  0.3971 -0.6311 -1.1044
   23MOL0     N 3087   0.500   0.115   4.176  0.4117 -0.5609 -0.5520
   23MOL0     N 3088   0.535   0.155   4.298  0.1516 -0.2781 -0.0931
   23MOL0     C 3089   0.902   0.987   4.652  0.1034 -0.3765 -0.5688
   23MOL0     C 3090   0.885   1.114   4.719 -0.0659  0.6471 -0.1751
   23MOL0     C 3091   0.974   1.512   4.937  0.2826 -0.5696  0.0390
   23MOL0     C 3092   1.069   1.622   4.933 -0.0538 -0.0390 -0.3367
   23MOL0     C 3093   1.035   1.748   4.988 -0.5498  0.7446 -0.0055
   23MOL0     C 3094   0.911   1.770   5.047 -0.2152  1.1176  0.3621
   23MOL0     O 3095   0.861   1.887   5.094 -0.3983  0.4868  0.3843
   23MOL0     C 3096   0.948   1.964   5.164 -0.4546  0.3799 -0.3936
   23MOL0     C 3097   0.879   2.086   5.231  0.0351 -0.1530  0.7609
   23MOL0     C 3098   0.847   2.210   5.146  0.1384 -0.5450 -0.3958
   23MOL0     C 3099   0.769   2.323   5.218 -0.0089 -0.0161  0.1644
   23MOL0     C 3100   0.856   2.383   5.321 -0.1515  0.7599  0.9657
   23MOL0     C 3101   0.933   2.449   5.387  1.1622  0.2367 -0.3227
   23MOL0     C 3102   0.812   1.662   5.043 -0.4761  0.0240  0.0316
   23MOL0     C 3103   0.848   1.536   4.990 -0.1297  0.3409  0.3084
   23MOL0     C 3104   0.736   1.434   5.005  0.3242  0.4009 -0.4987
   23MOL0     H 3105   1.086   1.098   4.980  0.0309 -0.6960  0.3834
   23MOL0     H 3106   1.090   0.859   4.902 -0.6762 -0.3510  0.5366
   23MOL0     H 3107   0.988   0.598   4.763 -0.8377 -0.8292 -0.5323
   23MOL0     H 3108   1.133   0.691   4.772 -2.6862 -0.2598  2.7240
   23MOL0     H 3109   1.054   0.561   4.511  0.6420 -0.9004  0.0701
   23MOL0     H 3110   1.206   0.635   4.546  0.3073 -1.3952 -0.7766
   23MOL0     H 3111   1.268   0.413   4.579 -1.9594 -2.0752 -1.2711
   23MOL0     H 3112   1.254   0.489   4.734 -1.1108  1.6196 -0.2235
   23MOL0     H 3113   1.128   0.295   4.757  3.2706  0.7074 -1.1503
   23MOL0     H 3114   0.988   0.404   4.745 -3.2951 -1.1710 -3.4905
   23MOL0     H 3115   1.113   0.220   4.510  0.6097  1.0964 -1.7184
   23MOL0     H 3116   0.996   0.351   4.474 -0.1002  0.7750  1.0298
   23MOL0     H 3117   0.937   0.118   4.663  3.2072  0.8060  0.1445
   23MOL0     H 3118   0.837   0.263   4.636 -1.5498 -2.2641  0.6057
   23MOL0     H 3119   0.780   0.048   4.530 -2.6311  2.7671  3.0097
   23MOL0     H 3120   0.905   0.076   4.411  2.6442  0.6730  2.5753
   23MOL0     H 3121   0.668   0.263   4.500 -1.5373  2.3037 -2.5252
   23MOL0     H 3122   0.785   0.319   4.377  1.2082 -0.8677 -1.5096
   23MOL0     H 3123   0.828   0.161   4.159 -0.2469  1.3458 -0.3766
   23MOL0     H 3124   0.658   0.196   3.916 -0.7621 -0.1743 -0.7043
   23MOL0     H 3125   0.547   0.055   3.912  2.6183 -2.6261 -1.6461
   23MOL0     H 3126   0.758   0.024   3.811  0.1178  3.0826  0.0804
   23MOL0     H 3127   0.850   0.027   3.967  0.4318 -5.1450  2.2786
   23MOL0     H 3128   0.712  -0.149   4.060 -1.5278  1.2158 -0.4503
   23MOL0     H 3129   0.629  -0.166   3.902  0.2571  0.3363 -1.7581
   23MOL0     H 3130   0.771  -0.351   3.935  1.5688 -1.3161  0.2263
   23MOL0     H 3131   0.813  -0.250   3.796  3.0551 -2.5254 -0.2827
   23MOL0     H 3132   1.143  -0.073   3.999 -4.0545 -0.3717 -3.3206
   23MOL0     H 3133   1.347  -0.069   4.230 -0.1206  1.3741  1.2784
   23MOL0     H 3134   1.262   0.077   4.287  0.3072 -2.3974  0.9991
   23MOL0     H 3135   1.267   0.043   4.114 -0.6061 -1.8933 -2.8583
   23MOL0     H 3136   1.243  -0.354   4.620 -1.5608 -2.5412  0.7223
   23MOL0     H 3137   1.342  -0.372   4.857 -0.1463  0.1797  0.5435
   23MOL0     H 3138   1.262  -0.006   5.083 -0.0406  0.8317  0.3325
   23MOL0     H 3139   1.209  -0.104   5.215 -1.1067  2.3647 -1.2041
   23MOL0     H 3140   1.506  -0.076   5.125  1.5343  2.3238  0.2433
   23MOL0     H 3141   1.431  -0.015   5.267  1.1183  1.3025 -2.9526
   23MOL0     H 3142   1.506  -0.300   5.188 -0.4356  0.8438 -1.5211
   23MOL0     H 3143   1.390  -0.273   5.331 -0.8107  0.4227  0.2064
   23MOL0     H 3144   1.668  -0.149   5.291 -3.2238  2.1107 -1.3827
   23MOL0     H 3145   1.640  -0.312   5.364  1.4132  1.0933  3.3560
   23MOL0     H 3146   1.533  -0.053   5.485 -1.1140 -0.7769  0.3455
   23MOL0     H 3147   1.514  -0.215   5.553 -0.0576  0.4295  2.0722
   23MOL0     H 3148   1.707  -0.061   5.634  1.6320  2.4126 -0.8157
   23MOL0     H 3149   1.779  -0.089   5.487  0.3774 -1.2747  1.0772
   23MOL0     H 3150   1.745  -0.344   5.547  0.4935  0.0772  0.3946
   23MOL0     H 3151   1.715  -0.280   5.713  2.2915 -3.2197  1.3529
   23MOL0     H 3152   1.978  -0.233   5.543  1.8200  3.0366  1.6722
   23MOL0     H 3153   1.966  -0.345   5.678 -0.3773 -0.3151 -0.2718
   23MOL0     H 3154   1.098  -0.026   4.967 -1.1965 -0.6421  0.3498
   23MOL0     H 3155   0.969  -0.060   4.757 -0.3145 -2.2765  0.7087
   23MOL0     H 3156   0.971  -0.330   4.381  2.3868 -1.7509 -0.0623
   23MOL0     H 3157   0.894  -0.387   4.144  0.6926 -1.0820 -0.3181
   23MOL0     H 3158   0.854   0.959   4.559 -0.5439 -0.6735 -0.1494
   23MOL0     H 3159   0.818   1.186   4.673 -0.3718  0.1615 -0.4953
   23MOL0     H 3160   1.173   1.615   4.903 -0.3523 -0.4253 -1.3330
   23MOL0     H 3161   1.105   1.831   4.988  0.1915  0.1369  0.0096
   23MOL0     H 3162   1.000   1.904   5.240 -1.0532 -0.6961 -0.8129
   23MOL0     H 3163   1.024   2.000   5.094 -0.9305 -0.2012 -1.2189
   23MOL0     H 3164   0.935   2.115   5.321 -1.3405 -0.9331  1.9160
   23MOL0     H 3165   0.783   2.054   5.274  1.9700 -4.5432  2.4293
   23MOL0     H 3166   0.937   2.254   5.100 -1.3947  1.9636 -1.1614
   23MOL0     H 3167   0.789   2.179   5.059 -0.3606  0.5243 -0.4551
   23MOL0     H 3168   0.671   2.298   5.260 -0.4939 -1.4488 -1.6717
   23MOL0     H 3169   0.765   2.404   5.145 -1.6140 -2.7174 -3.0392
   23MOL0     H 3170   0.998   2.487   5.463 -1.0481  1.1948  1.1941
   23MOL0     H 3171   0.715   1.671   5.090 -2.6730 -3.6554 -3.2274
   23MOL0     H 3172   0.648   1.458   5.065 -0.8149 -1.0251 -1.5287
   23MOL0     H 3173   0.695   1.404   4.908  1.2409  1.8064 -1.3651
   23MOL0     H 3174   0.781   1.346   5.050 -0.9084 -0.0438 -0.1087
   24MOL0     O 3175   4.260   4.154  11.231 -0.1165 -0.6176  0.2817
   24MOL0     C 3176   4.210   4.265  11.216 -0.2385  0.8227  0.3305
   24MOL0     O 3177   4.083   4.300  11.226  0.7153  0.5395  0.8919
   24MOL0     C 3178   3.983   4.207  11.264 -0.1984 -0.1644  0.0989
   24MOL0     C 3179   3.855   4.207  11.198 -0.7947 -0.7217 -0.5557
   24MOL0     C 3180   3.773   4.099  11.222 -0.0977  0.5277 -0.6600
   24MOL0     C 3181   3.802   4.004  11.318  0.2357  0.2374  0.1406
   24MOL0     O 3182   3.712   3.904  11.335 -0.1485 -0.0430  0.5185
   24MOL0     C 3183   3.724   3.818  11.449 -0.4816  0.2269  0.3542
   24MOL0     C 3184   3.622   3.702  11.416 -0.1420  0.3687 -0.1508
   24MOL0     C 3185   3.622   3.578  11.503 -0.2541 -0.1667 -0.6540
   24MOL0     C 3186   3.521   3.474  11.468 -0.4756  0.2117 -0.5923
   24MOL0     C 3187   3.511   3.372  11.586 -0.0942  0.5543  0.1640
   24MOL0     C 3188   3.413   3.261  11.546 -0.2343 -1.1099 -0.2672
   24MOL0     C 3189   3.443   3.133  11.633  0.2172 -0.2297  1.0921
   24MOL0     C 3190   3.404   3.133  11.784 -0.3658  0.1395  0.0555
   24MOL0     N 3191   3.410   3.004  11.854 -0.0504 -0.0043  0.1113
   24MOL0     C 3192   3.451   2.989  11.980 -0.1413 -0.3206 -0.1703
   24MOL0     C 3193   3.447   2.860  12.009 -0.1613 -0.4761 -0.2940
   24MOL0     C 3194   3.481   2.795  12.140 -0.5467 -0.1724 -0.0092
   24MOL0     C 3195   3.543   2.653  12.121  0.0033 -0.2776  0.8252
   24MOL0     C 3196   3.684   2.647  12.058  0.7179  0.2045 -0.9426
   24MOL0     C 3197   3.711   2.496  12.045  0.0038  0.2574  0.7186
   24MOL0     O 3198   3.834   2.481  11.980  1.2027  0.3521 -0.0116
   24MOL0     C 3199   3.866   2.357  11.930 -0.8150  0.5019 -0.3096
   24MOL0     C 3200   3.793   2.245  11.936 -0.0947 -0.2574  0.2170
   24MOL0     C 3201   3.843   2.117  11.886  0.8462  0.3686  0.1574
   24MOL0     C 3202   3.741   2.000  11.912 -0.7880 -0.4371 -1.0280
   24MOL0     C 3203   3.975   2.094  11.828  0.8922 -0.3679 -0.9854
   24MOL0     C 3204   4.016   1.961  11.779 -0.1262 -0.5800 -0.0034
   24MOL0     O 3205   4.150   1.953  11.752 -0.7127 -0.5936  0.0952
   24MOL0     C 3206   4.202   1.839  11.712 -0.3223  0.3104 -0.4135
   24MOL0     C 3207   4.304   1.785  11.783 -1.3152 -0.2750 -0.2042
   24MOL0     C 3208   4.384   1.684  11.723 -0.5326  0.2308  0.5920
   24MOL0     C 3209   4.347   1.614  11.603  0.0064  0.1352 -0.5498
   24MOL0     O 3210   4.407   1.505  11.536  0.1020 -0.6663  0.3015
   24MOL0     C 3211   4.523   1.436  11.589 -0.2711 -1.4468 -0.1962
   24MOL0     C 3212   4.488   1.354  11.709 -0.1594 -1.0677 -0.5453
   24MOL0     C 3213   4.391   1.250  11.665 -0.3147  0.2758 -0.6185
   24MOL0     C 3214   4.350   1.155  11.786  0.0581 -0.1159  0.1189
   24MOL0     C 3215   4.250   1.041  11.729 -0.0234 -0.0232 -0.0086
   24MOL0     C 3216   4.235   0.921  11.838 -0.3643 -0.4961  0.4198
   24MOL0     C 3217   4.213   0.775  11.785 -0.3013  0.2322 -0.2693
   24MOL0     C 3218   4.079   0.751  11.722 -0.5828 -0.1227  0.2404
   24MOL0    Cl 3219   4.065   0.577  11.671  0.5269  0.1673 -0.1512
   24MOL0     C 3220   4.239   1.664  11.541 -0.3933 -0.3770 -0.3762
   24MOL0     C 3221   4.159   1.768  11.596 -0.6020 -0.3373  0.7305
   24MOL0     O 3222   3.937   1.868  11.758  0.1916 -0.1680 -0.1339
   24MOL0     C 3223   4.048   2.213  11.820  0.3087 -0.3378 -0.8242
   24MOL0     C 3224   3.994   2.332  11.870  0.2918  0.2778 -0.1420
   24MOL0     N 3225   3.414   2.793  11.895 -0.0143 -0.3079 -0.7588
   24MOL0     N 3226   3.394   2.875  11.801  0.5295 -1.1858 -0.1997
   24MOL0     C 3227   3.911   4.016  11.392 -0.0729 -0.1719 -0.9430
   24MOL0     C 3228   4.006   4.108  11.362  0.1912 -0.5043  0.4631
   24MOL0     C 3229   4.298   4.376  11.160  0.1282  0.1931 -0.4022
   24MOL0     C 3230   4.244   4.502  11.123 -0.2994  0.0511 -0.2044
   24MOL0     C 3231   4.322   4.606  11.083  0.1663  0.3388  0.7236
   24MOL0     C 3232   4.462   4.587  11.077  0.1371  0.3615  0.5786
   24MOL0     O 3233   4.539   4.688  11.037 -0.7620  1.0099  0.2775
   24MOL0     C 3234   4.518   4.748  10.912  0.2384  0.7252 -0.8255
   24MOL0     C 3235   4.648   4.775  10.858 -0.0454  0.3050  0.1709
   24MOL0     C 3236   4.644   4.853  10.724 -0.6467  0.2863  0.2608
   24MOL0     C 3237   4.788   4.893  10.679  0.0287  0.3740 -0.1291
   24MOL0     C 3238   4.779   4.932  10.534 -0.0706 -0.0968  0.2100
   24MOL0     C 3239   4.788   4.961  10.414 -0.2649  0.9827  0.2729
   24MOL0     C 3240   4.520   4.468  11.091  0.0280  0.4887  0.1449
   24MOL0     C 3241   4.441   4.356  11.133  0.8252  0.0120 -0.1476
   24MOL0     C 3242   4.527   4.240  11.151 -0.4832  0.1416 -0.6424
   24MOL0     H 3243   3.846   4.268  11.109 -0.4526 -3.2724 -2.4550
   24MOL0     H 3244   3.685   4.072  11.164 -0.4562 -0.0752  0.1481
   24MOL0     H 3245   3.706   3.880  11.538 -1.8476 -2.6062  2.1996
   24MOL0     H 3246   3.818   3.765  11.464 -0.5871  0.3190  1.4459
   24MOL0     H 3247   3.519   3.739  11.414 -1.0400 -1.9738 -0.7039
   24MOL0     H 3248   3.650   3.665  11.317  2.0093 -3.4993  1.6991
   24MOL0     H 3249   3.724   3.539  11.509  0.6728  2.2229  0.5742
   24MOL0     H 3250   3.597   3.614  11.604  0.7504 -0.6831 -0.2031
   24MOL0     H 3251   3.421   3.518  11.480 -1.5441 -2.1997 -0.1775
   24MOL0     H 3252   3.533   3.435  11.367  3.4067  2.9716 -1.4114
   24MOL0     H 3253   3.491   3.417  11.684 -1.0942 -1.0165  0.7173
   24MOL0     H 3254   3.611   3.331  11.599  0.4031  1.2909 -1.1376
   24MOL0     H 3255   3.312   3.301  11.562  0.9697  2.4592 -0.6545
   24MOL0     H 3256   3.422   3.245  11.438 -0.7869 -0.8969 -0.3478
   24MOL0     H 3257   3.550   3.111  11.638  0.7739  2.1134  0.4034
   24MOL0     H 3258   3.382   3.053  11.590 -2.9933  2.8058 -0.5493
   24MOL0     H 3259   3.476   3.194  11.838 -2.5464  1.0144  2.1649
   24MOL0     H 3260   3.299   3.164  11.781 -0.0583  1.1641 -0.7607
   24MOL0     H 3261   3.489   3.067  12.044  1.0461 -1.4542  0.5652
   24MOL0     H 3262   3.389   2.786  12.199 -1.9113  2.9629 -1.4562
   24MOL0     H 3263   3.552   2.865  12.187 -3.1365  3.1475 -0.6709
   24MOL0     H 3264   3.549   2.605  12.220 -1.2887 -2.5237 -0.1066
   24MOL0     H 3265   3.469   2.596  12.064 -3.2574 -0.0086  4.3534
   24MOL0     H 3266   3.674   2.689  11.958 -0.1430 -0.5970 -1.2080
   24MOL0     H 3267   3.757   2.695  12.124 -2.2060  0.8226  2.1164
   24MOL0     H 3268   3.703   2.443  12.140 -0.1994 -1.8890 -0.4271
   24MOL0     H 3269   3.625   2.455  11.991 -1.2266 -0.4283  3.0648
   24MOL0     H 3270   3.695   2.247  11.983 -0.3955 -0.5752 -0.3849
   24MOL0     H 3271   3.678   1.981  11.825 -0.8595 -1.2837 -0.8024
   24MOL0     H 3272   3.675   2.034  11.993 -0.4688  0.1107 -0.9976
   24MOL0     H 3273   3.808   1.918  11.941  0.6516  1.0846  0.1704
   24MOL0     H 3274   4.309   1.834  11.880 -1.4055 -0.4010 -0.1359
   24MOL0     H 3275   4.459   1.655  11.795 -0.3491  2.6352  1.4593
   24MOL0     H 3276   4.559   1.372  11.507 -1.0080 -2.1085 -0.0112
   24MOL0     H 3277   4.594   1.516  11.611 -1.6910 -0.7694  2.1878
   24MOL0     H 3278   4.577   1.305  11.751  0.6622  1.8094  1.4264
   24MOL0     H 3279   4.447   1.413  11.792 -1.0000 -1.4007 -0.7138
   24MOL0     H 3280   4.429   1.186  11.584  0.5889 -1.0105  0.7659
   24MOL0     H 3281   4.297   1.296  11.636 -0.4003  1.0329  0.7735
   24MOL0     H 3282   4.298   1.218  11.859  1.3038 -0.6217  1.5019
   24MOL0     H 3283   4.438   1.105  11.826  1.1968  0.0446 -2.0213
   24MOL0     H 3284   4.156   1.082  11.690  0.4535 -0.4438 -1.7024
   24MOL0     H 3285   4.308   0.997  11.647  0.4962  0.9709 -0.1849
   24MOL0     H 3286   4.159   0.938  11.915  1.4369 -0.8505  2.3809
   24MOL0     H 3287   4.333   0.919  11.887 -0.2144  1.1231  0.2489
   24MOL0     H 3288   4.229   0.706  11.869  2.6728  0.5930 -0.4226
   24MOL0     H 3289   4.304   0.762  11.726  0.8268 -1.7672  1.7493
   24MOL0     H 3290   4.055   0.821  11.642  1.0426  0.4643  0.2395
   24MOL0     H 3291   3.999   0.759  11.796 -1.6821 -0.5023 -0.8822
   24MOL0     H 3292   4.202   1.637  11.443 -2.4879  3.0326 -0.6986
   24MOL0     H 3293   4.078   1.789  11.528 -0.2884 -0.2655  0.3745
   24MOL0     H 3294   4.149   2.214  11.782  1.2374 -0.3887  1.4721
   24MOL0     H 3295   4.052   2.423  11.865  0.2729  0.4513  2.0151
   24MOL0     H 3296   3.941   3.969  11.485  0.9213 -0.0846 -1.2059
   24MOL0     H 3297   4.090   4.110  11.431  1.8292 -0.9226 -1.4565
   24MOL0     H 3298   4.137   4.515  11.139  0.3403  2.2382  3.8456
   24MOL0     H 3299   4.282   4.703  11.055 -1.3646 -0.4084  0.2094
   24MOL0     H 3300   4.473   4.674  10.845 -0.1197  0.3509 -0.1798
   24MOL0     H 3301   4.458   4.838  10.927 -0.8886  0.1920 -1.9511
   24MOL0     H 3302   4.695   4.677  10.848  0.4249  0.4276  1.0487
   24MOL0     H 3303   4.717   4.834  10.920  3.8226  0.3418 -3.6402
   24MOL0     H 3304   4.612   4.785  10.645 -0.0151  0.6852 -0.3376
   24MOL0     H 3305   4.574   4.936  10.734  1.9921  2.7379 -0.5603
   24MOL0     H 3306   4.858   4.809  10.683  1.2221  1.4007  3.0587
   24MOL0     H 3307   4.833   4.977  10.731  2.0818 -2.2792  2.7366
   24MOL0     H 3308   4.788   4.971  10.308  0.9869 -0.9173  0.0627
   24MOL0     H 3309   4.626   4.471  11.070 -0.3118  1.3286 -1.6757
   24MOL0     H 3310   4.630   4.265  11.123 -1.7845  1.8685 -4.5117
   24MOL0     H 3311   4.507   4.212  11.255 -1.8924 -0.5905 -1.0848
   24MOL0     H 3312   4.501   4.163  11.079 -1.6134  0.3976 -0.5239
   25MOL0     O 3313   7.392   4.229   5.911  0.6978  0.2816  0.2817
   25MOL0     C 3314   7.305   4.307   5.933 -0.8490 -0.2447  0.1373
   25MOL0     O 3315   7.318   4.445   5.910 -0.0202  0.3266  0.2029
   25MOL0     C 3316   7.419   4.475   5.831 -0.7214  0.9529 -0.8209
   25MOL0     C 3317   7.552   4.482   5.882 -0.3195 -0.1245  0.4810
   25MOL0     C 3318   7.654   4.534   5.793 -0.1234  0.7615  1.2921
   25MOL0     C 3319   7.628   4.573   5.655  1.0052  0.4409 -0.5196
   25MOL0     O 3320   7.718   4.625   5.580 -1.4301  0.6667  0.5345
   25MOL0     C 3321   7.705   4.650   5.436 -0.1526 -0.6431  0.0181
   25MOL0     C 3322   7.827   4.738   5.396  0.2316  0.4019 -0.0464
   25MOL0     C 3323   7.968   4.685   5.449  0.6291  0.6439 -0.6146
   25MOL0     C 3324   8.075   4.795   5.443  0.7417  0.7909 -0.4492
   25MOL0     C 3325   8.208   4.740   5.517 -0.5346 -0.8195  0.6266
   25MOL0     C 3326   8.342   4.798   5.465  0.7723 -0.3808 -0.1674
   25MOL0     C 3327   8.370   4.767   5.312  0.0736 -0.7437 -0.0596
   25MOL0     C 3328   8.411   4.880   5.223 -0.3816 -0.3113  0.4610
   25MOL0     N 3329   8.545   4.922   5.262 -0.3628  0.3465  0.0349
   25MOL0     C 3330   8.579   5.018   5.356  0.1787 -1.1828  1.2800
   25MOL0     C 3331   8.710   5.016   5.362 -0.4124  0.6593  0.1204
   25MOL0     C 3332   8.807   5.109   5.431 -0.3349 -0.3102 -0.1433
   25MOL0     C 3333   8.878   5.204   5.345 -0.7077 -0.5946 -0.0033
   25MOL0     C 3334   8.967   5.320   5.406 -0.4151 -0.7902 -0.2412
   25MOL0     C 3335   8.916   5.401   5.524  0.4365  0.5035 -0.2414
   25MOL0     O 3336   9.020   5.485   5.577 -0.6515  1.3085 -0.1142
   25MOL0     C 3337   9.018   5.512   5.711 -0.1736  1.1785 -0.1298
   25MOL0     C 3338   9.014   5.408   5.814  0.4606  0.3801  0.2573
   25MOL0     C 3339   9.016   5.436   5.948  0.3598  0.0539 -0.3554
   25MOL0     C 3340   9.013   5.318   6.036 -0.2184  0.4684  0.0482
   25MOL0     C 3341   9.027   5.571   5.989 -0.7498  0.6726  0.3919
   25MOL0     C 3342   9.043   5.608   6.134 -0.0201  0.0121 -0.8671
   25MOL0     O 3343   9.138   5.531   6.205  0.5994  0.1977 -0.1464
   25MOL0     C 3344   9.146   5.541   6.343 -0.7879 -0.1265 -1.0999
   25MOL0     C 3345   9.221   5.646   6.405 -0.0601  0.4930  0.2357
   25MOL0     C 3346   9.223   5.661   6.542  0.7290  0.1132 -0.9880
   25MOL0     C 3347   9.156   5.566   6.625 -1.0225  0.5690  0.2262
   25MOL0     O 3348   9.162   5.557   6.761 -0.0243  0.1483  0.9280
   25MOL0     C 3349   9.190   5.665   6.842 -0.5211 -0.5160 -0.0923
   25MOL0     C 3350   9.247   5.620   6.979  0.9886 -0.4194  0.7695
   25MOL0     C 3351   9.372   5.538   6.948 -0.2634  0.3851  0.2906
   25MOL0     C 3352   9.411   5.458   7.075  1.2221 -0.0108 -0.6222
   25MOL0     C 3353   9.439   5.540   7.198 -0.5677  0.7885 -0.6981
   25MOL0     C 3354   9.468   5.453   7.324  0.1851  0.4493 -0.3453
   25MOL0     C 3355   9.502   5.541   7.439 -0.4533 -0.3910  0.0663
   25MOL0     C 3356   9.394   5.631   7.487  1.0471 -0.1475 -0.2158
   25MOL0    Cl 3357   9.407   5.782   7.406 -0.3135 -0.1169  0.1527
   25MOL0     C 3358   9.088   5.457   6.564 -0.3194 -0.0794 -0.7242
   25MOL0     C 3359   9.083   5.443   6.420 -0.3465  0.5851  0.0838
   25MOL0     O 3360   8.985   5.707   6.175  0.3134 -0.3168 -1.1568
   25MOL0     C 3361   9.023   5.670   5.893  0.1970 -0.6442 -0.2080
   25MOL0     C 3362   9.015   5.640   5.759 -0.6647 -0.0643  0.1827
   25MOL0     N 3363   8.765   4.905   5.293 -0.1374 -0.4535 -0.4572
   25MOL0     N 3364   8.664   4.855   5.230 -0.6035  0.0930  0.6140
   25MOL0     C 3365   7.491   4.553   5.610 -0.1729  0.7088 -0.1863
   25MOL0     C 3366   7.386   4.515   5.701 -0.2402 -0.4839  0.0385
   25MOL0     C 3367   7.191   4.239   5.999 -0.1012  0.4578 -0.8919
   25MOL0     C 3368   7.202   4.118   6.073  0.1370 -0.3290 -0.1415
   25MOL0     C 3369   7.100   4.048   6.138  0.4535 -0.7891  0.0565
   25MOL0     C 3370   6.970   4.097   6.142 -0.3340 -0.5947 -0.5957
   25MOL0     O 3371   6.880   4.023   6.215  0.3116 -0.1159 -0.1126
   25MOL0     C 3372   6.752   4.067   6.260 -0.2149 -0.4956 -0.6137
   25MOL0     C 3373   6.780   4.187   6.357 -0.5637  0.1132 -0.0860
   25MOL0     C 3374   6.664   4.217   6.458 -0.6107 -0.1224  0.4486
   25MOL0     C 3375   6.674   4.365   6.509 -0.2966 -0.2498 -0.2482
   25MOL0     C 3376   6.659   4.465   6.400 -0.7721  0.5577 -0.3206
   25MOL0     C 3377   6.618   4.551   6.328 -0.2460 -0.6669 -0.8019
   25MOL0     C 3378   6.954   4.223   6.069 -0.8556 -0.5939  0.6042
   25MOL0     C 3379   7.055   4.293   6.003 -1.2523  0.7092 -0.0734
   25MOL0     C 3380   7.009   4.430   5.936  0.1825  0.0019  0.3426
   25MOL0     H 3381   7.582   4.439   5.977  0.9734  1.7186  0.9431
   25MOL0     H 3382   7.760   4.541   5.819  0.2328  2.0147 -0.2916
   25MOL0     H 3383   7.617   4.708   5.407  1.4045  3.0091  1.8076
   25MOL0     H 3384   7.713   4.553   5.387 -2.6848 -2.2413  2.4804
   25MOL0     H 3385   7.822   4.735   5.287 -2.0374 -0.4577  0.0367
   25MOL0     H 3386   7.807   4.841   5.427 -2.4620 -0.1642  0.3657
   25MOL0     H 3387   7.962   4.668   5.557 -0.0128  0.8107 -0.6169
   25MOL0     H 3388   8.006   4.600   5.392  0.9162  0.2515  0.1542
   25MOL0     H 3389   8.093   4.812   5.336  1.2667 -2.4469 -0.9663
   25MOL0     H 3390   8.045   4.890   5.489  0.3705  2.0069 -3.0019
   25MOL0     H 3391   8.219   4.632   5.504  0.6279 -0.6532 -0.0003
   25MOL0     H 3392   8.192   4.771   5.620 -1.5253  2.5521 -0.4163
   25MOL0     H 3393   8.341   4.907   5.472  2.0699 -0.1954 -1.9582
   25MOL0     H 3394   8.425   4.762   5.527 -0.3026 -0.8445  1.0239
   25MOL0     H 3395   8.277   4.727   5.270 -0.8514 -0.0415  1.2267
   25MOL0     H 3396   8.454   4.697   5.307  0.6761  0.0522 -1.4647
   25MOL0     H 3397   8.418   4.853   5.117  2.5335 -0.9945  0.7426
   25MOL0     H 3398   8.338   4.962   5.230 -2.5155 -2.0621  0.0444
   25MOL0     H 3399   8.509   5.083   5.407 -1.0397 -0.8142 -0.7455
   25MOL0     H 3400   8.876   5.046   5.487 -0.8244 -1.7143 -1.0798
   25MOL0     H 3401   8.749   5.159   5.509 -1.1386 -1.3116 -0.0824
   25MOL0     H 3402   8.940   5.139   5.282  1.0369 -2.2584  3.1751
   25MOL0     H 3403   8.812   5.264   5.282  0.7729 -2.3001 -3.5223
   25MOL0     H 3404   9.066   5.286   5.436 -1.0026 -0.4607  2.3598
   25MOL0     H 3405   8.971   5.392   5.323 -2.4678 -0.2760  0.0461
   25MOL0     H 3406   8.831   5.454   5.480  0.0841 -1.4209 -2.0014
   25MOL0     H 3407   8.885   5.321   5.593 -0.3881 -1.3044 -2.5825
   25MOL0     H 3408   9.000   5.306   5.781 -1.0991  0.9635 -0.9891
   25MOL0     H 3409   8.967   5.348   6.130  0.7102  0.8542  0.3898
   25MOL0     H 3410   9.107   5.272   6.068 -0.8732  1.3991  3.7494
   25MOL0     H 3411   8.951   5.238   5.994  1.6113 -2.1259  1.9387
   25MOL0     H 3412   9.275   5.708   6.334  1.7260 -1.3004 -0.0610
   25MOL0     H 3413   9.284   5.740   6.585 -0.6679  0.2685  0.8410
   25MOL0     H 3414   9.263   5.738   6.807 -0.0031 -1.4085 -0.9114
   25MOL0     H 3415   9.100   5.723   6.865  1.9868  2.9057  2.0388
   25MOL0     H 3416   9.271   5.705   7.044  0.0524 -1.7468  2.9421
   25MOL0     H 3417   9.176   5.557   7.035  0.5119  0.5758  1.3194
   25MOL0     H 3418   9.456   5.605   6.929  0.3372 -0.2322  0.6803
   25MOL0     H 3419   9.367   5.467   6.865 -1.1816  0.0087  0.6620
   25MOL0     H 3420   9.495   5.391   7.053 -0.5085 -2.3999 -0.4334
   25MOL0     H 3421   9.326   5.397   7.106  1.5859 -1.8789 -3.0200
   25MOL0     H 3422   9.531   5.595   7.179  0.8973 -2.2790 -3.3987
   25MOL0     H 3423   9.361   5.614   7.221  1.0790  1.7196  2.5379
   25MOL0     H 3424   9.554   5.394   7.292 -1.1635 -2.7056  1.3772
   25MOL0     H 3425   9.390   5.378   7.342  1.7315 -1.3701 -0.8144
   25MOL0     H 3426   9.583   5.605   7.402 -1.1175 -0.5282 -1.6855
   25MOL0     H 3427   9.548   5.484   7.520 -1.4931 -1.1221  0.1585
   25MOL0     H 3428   9.410   5.639   7.595 -0.4449 -0.0579  0.0112
   25MOL0     H 3429   9.293   5.596   7.464 -0.3324  2.9172  0.7336
   25MOL0     H 3430   9.034   5.383   6.623 -1.9390  2.0453  0.6157
   25MOL0     H 3431   9.024   5.367   6.370  0.6892 -0.1512 -0.0517
   25MOL0     H 3432   9.044   5.774   5.916 -0.3978 -0.7661  0.9299
   25MOL0     H 3433   9.026   5.726   5.694 -0.0529 -0.3066 -0.0380
   25MOL0     H 3434   7.458   4.575   5.509  1.0959 -0.3373 -0.8443
   25MOL0     H 3435   7.282   4.535   5.682 -0.2977  1.5977  2.0634
   25MOL0     H 3436   7.299   4.071   6.081 -1.2831 -3.4545  0.0871
   25MOL0     H 3437   7.123   3.963   6.201  0.5343 -1.0509 -0.3262
   25MOL0     H 3438   6.692   4.107   6.179  2.0453  4.0311 -0.3752
   25MOL0     H 3439   6.716   3.980   6.316 -1.9662  2.0051  2.5059
   25MOL0     H 3440   6.811   4.271   6.294  1.2946 -2.2035 -2.4591
   25MOL0     H 3441   6.870   4.176   6.418 -0.3368  1.6134 -0.1192
   25MOL0     H 3442   6.562   4.197   6.426 -1.3682  0.2397  2.4877
   25MOL0     H 3443   6.673   4.153   6.546  1.9653 -0.8577 -0.2614
   25MOL0     H 3444   6.770   4.373   6.561 -1.6976  1.3219  2.3749
   25MOL0     H 3445   6.587   4.387   6.572  0.0148 -4.1219  1.8196
   25MOL0     H 3446   6.607   4.637   6.265  5.0573  2.0394  1.2752
   25MOL0     H 3447   6.860   4.276   6.064 -0.2506  0.4726  0.3747
   25MOL0     H 3448   7.072   4.512   5.971  0.2824 -0.0537  0.2920
   25MOL0     H 3449   7.015   4.420   5.827 -2.6395  0.3265  0.0775
   25MOL0     H 3450   6.904   4.449   5.962 -1.1666 -1.5897 -3.2567
   26MOL0     O 3451   8.745   4.923   9.956  0.6873  0.0395 -0.0585
   26MOL0     C 3452   8.654   4.906  10.033 -0.9006  0.3653 -0.0557
   26MOL0     O 3453   8.571   5.006  10.083  0.3890  0.1473 -0.2291
   26MOL0     C 3454   8.561   5.122  10.017 -0.2643  0.0512  0.0163
   26MOL0     C 3455   8.462   5.150   9.927 -0.2087 -0.3877  0.7134
   26MOL0     C 3456   8.469   5.272   9.863 -0.0484 -0.9000  0.1071
   26MOL0     C 3457   8.567   5.373   9.887  0.5117  1.0256  0.6927
   26MOL0     O 3458   8.556   5.493   9.818 -0.2596 -0.3608  0.0156
   26MOL0     C 3459   8.428   5.562   9.830 -0.0433  0.3666  0.3775
   26MOL0     C 3460   8.440   5.694   9.902 -0.8174 -0.7284 -1.0048
   26MOL0     C 3461   8.460   5.672  10.055  0.0158 -0.5751 -0.1647
   26MOL0     C 3462   8.403   5.788  10.134 -0.0100 -0.5205 -0.3135
   26MOL0     C 3463   8.477   5.793  10.280  0.3109  0.1099  0.4709
   26MOL0     C 3464   8.463   5.669  10.369  1.7701 -0.1959 -0.4287
   26MOL0     C 3465   8.479   5.736  10.513  0.0438  0.3617  1.7125
   26MOL0     C 3466   8.514   5.640  10.621  0.1177 -0.2620 -0.5796
   26MOL0     N 3467   8.399   5.545  10.649  0.5943 -0.6548  0.3420
   26MOL0     C 3468   8.268   5.587  10.640 -0.3712 -0.1671 -0.7305
   26MOL0     C 3469   8.203   5.472  10.678 -1.1710  0.5883  0.1920
   26MOL0     C 3470   8.063   5.456  10.688 -0.3549 -0.4028  0.6147
   26MOL0     C 3471   7.997   5.319  10.618  0.1800 -1.1742  0.1585
   26MOL0     C 3472   7.853   5.285  10.664  0.1649 -0.1968  0.5712
   26MOL0     C 3473   7.764   5.394  10.607  0.2933  0.1342  0.1053
   26MOL0     O 3474   7.748   5.372  10.464  0.2463  0.4924 -0.8615
   26MOL0     C 3475   7.752   5.486  10.377 -1.2279  0.3485  0.6344
   26MOL0     C 3476   7.812   5.616  10.401 -0.7223 -0.5169 -0.0705
   26MOL0     C 3477   7.830   5.703  10.290  0.5476 -0.1151  0.3111
   26MOL0     C 3478   7.878   5.843  10.321  0.0205  1.0447 -0.8865
   26MOL0     C 3479   7.798   5.667  10.158  0.2017 -0.8044 -0.4101
   26MOL0     C 3480   7.807   5.763  10.043 -0.6403  0.4865  1.1649
   26MOL0     O 3481   7.698   5.750   9.961 -0.5531  0.2882  0.6102
   26MOL0     C 3482   7.695   5.811   9.841 -0.0719  0.3697 -0.9583
   26MOL0     C 3483   7.642   5.740   9.738  0.3811  0.0792  0.0198
   26MOL0     C 3484   7.641   5.788   9.611 -0.3666 -0.0209  0.0488
   26MOL0     C 3485   7.670   5.924   9.585 -1.0701 -1.2735 -0.0811
   26MOL0     O 3486   7.642   5.994   9.470  0.5108  0.8640 -0.3767
   26MOL0     C 3487   7.526   5.946   9.410  0.6980  0.5342  0.4434
   26MOL0     C 3488   7.466   6.062   9.322 -0.5268  0.3773 -0.3207
   26MOL0     C 3489   7.363   6.012   9.220 -0.6650 -0.2048 -0.1520
   26MOL0     C 3490   7.413   5.924   9.111  0.2295 -0.0652  1.0741
   26MOL0     C 3491   7.465   5.994   8.985 -0.1802  0.0301 -0.1195
   26MOL0     C 3492   7.378   6.108   8.929 -0.1945  0.5597  0.4304
   26MOL0     C 3493   7.460   6.158   8.804  0.1948  0.8870 -0.0808
   26MOL0     C 3494   7.390   6.290   8.756 -0.1965  0.2124 -0.1947
   26MOL0    Cl 3495   7.220   6.273   8.699 -0.2605 -0.1154 -0.3676
   26MOL0     C 3496   7.721   6.011   9.684 -0.7501 -0.3852 -1.3697
   26MOL0     C 3497   7.737   5.943   9.813 -0.1496 -0.5068 -0.1998
   26MOL0     O 3498   7.909   5.830  10.026  0.4158  0.4738  0.5069
   26MOL0     C 3499   7.765   5.532  10.136  0.8988  0.2001  0.0975
   26MOL0     C 3500   7.739   5.445  10.247 -0.2531  0.2202 -0.6943
   26MOL0     N 3501   8.292   5.370  10.711 -0.3907  0.0792 -0.2053
   26MOL0     N 3502   8.410   5.418  10.681 -1.3155  0.5043 -0.5604
   26MOL0     C 3503   8.661   5.346   9.981  0.7052 -0.7331 -0.0230
   26MOL0     C 3504   8.655   5.220  10.042 -0.5090 -0.0736 -0.5421
   26MOL0     C 3505   8.629   4.761  10.085  0.4962 -0.3328  0.4225
   26MOL0     C 3506   8.549   4.743  10.203  0.2635  0.1322 -0.2564
   26MOL0     C 3507   8.528   4.609  10.249  0.0137  0.1682 -0.2198
   26MOL0     C 3508   8.577   4.496  10.173  0.1246  1.4974  0.1261
   26MOL0     O 3509   8.548   4.362  10.215 -0.9270  0.4197  0.9290
   26MOL0     C 3510   8.527   4.273  10.100  0.5641  0.1718 -0.9092
   26MOL0     C 3511   8.436   4.147  10.138 -0.3850 -0.4124  0.3349
   26MOL0     C 3512   8.441   4.052  10.018 -0.3570  0.2665 -0.1343
   26MOL0     C 3513   8.320   3.949  10.021 -0.0224  0.6113  0.4179
   26MOL0     C 3514   8.343   3.837  10.108 -0.1201 -0.5165  0.3057
   26MOL0     C 3515   8.357   3.743  10.182  0.7406 -0.5900  0.7018
   26MOL0     C 3516   8.646   4.520  10.054  0.0227  0.4224  0.6631
   26MOL0     C 3517   8.674   4.650  10.003 -0.3307 -0.4079  0.2822
   26MOL0     C 3518   8.750   4.646   9.870 -0.0390  0.7397  0.1488
   26MOL0     H 3519   8.383   5.078   9.906  2.1687 -2.4901 -1.7230
   26MOL0     H 3520   8.386   5.282   9.794 -0.2659 -4.2359 -0.2555
   26MOL0     H 3521   8.354   5.495   9.875  0.7131 -1.5304 -1.0361
   26MOL0     H 3522   8.399   5.578   9.725  3.4758  1.3730 -0.5591
   26MOL0     H 3523   8.530   5.739   9.859 -2.0581  0.4240 -2.5710
   26MOL0     H 3524   8.358   5.753   9.859 -2.7385 -2.1841  0.4889
   26MOL0     H 3525   8.413   5.582  10.096 -0.6200  0.7634  2.2368
   26MOL0     H 3526   8.566   5.663  10.078 -0.2202 -0.0083  1.2900
   26MOL0     H 3527   8.419   5.890  10.100  4.1487  0.0439  2.4610
   26MOL0     H 3528   8.295   5.779  10.144 -0.2338  2.6640  1.2565
   26MOL0     H 3529   8.445   5.882  10.335 -1.8010  0.3641 -1.0590
   26MOL0     H 3530   8.585   5.798  10.262 -0.1388  2.0121 -2.2691
   26MOL0     H 3531   8.363   5.623  10.361  0.7934  1.8550 -0.7109
   26MOL0     H 3532   8.535   5.589  10.350 -0.3492 -2.3972  0.1604
   26MOL0     H 3533   8.392   5.798  10.537 -1.0646 -1.3790  2.3812
   26MOL0     H 3534   8.557   5.812  10.500  0.5673 -0.4744 -0.7385
   26MOL0     H 3535   8.613   5.595  10.612  0.5314 -0.3542  3.1453
   26MOL0     H 3536   8.523   5.685  10.720 -0.6648 -2.5700  0.6216
   26MOL0     H 3537   8.231   5.684  10.610  1.9147  0.4948 -1.6700
   26MOL0     H 3538   8.024   5.545  10.639 -0.4243  0.8603  2.8282
   26MOL0     H 3539   8.035   5.478  10.791  0.2992 -0.1791  0.7514
   26MOL0     H 3540   7.990   5.315  10.508 -2.4884 -3.3431  0.3055
   26MOL0     H 3541   8.065   5.237  10.641  0.4201 -1.4961 -1.5146
   26MOL0     H 3542   7.813   5.184  10.650 -1.8852  0.1068  3.5260
   26MOL0     H 3543   7.859   5.296  10.772 -0.9044 -0.4213  0.6652
   26MOL0     H 3544   7.662   5.378  10.644  0.7371 -2.8050  0.2543
   26MOL0     H 3545   7.802   5.493  10.636 -2.5999  2.1967 -2.4475
   26MOL0     H 3546   7.833   5.649  10.502 -3.6812 -3.7895  1.8276
   26MOL0     H 3547   7.987   5.839  10.310  0.1143  1.5505 -0.1753
   26MOL0     H 3548   7.861   5.878  10.423  0.3254 -0.2438 -0.3680
   26MOL0     H 3549   7.842   5.913  10.245 -1.1765 -0.3612 -1.6633
   26MOL0     H 3550   7.591   5.645   9.754  2.0013 -0.9226 -0.5319
   26MOL0     H 3551   7.597   5.731   9.530  1.8862 -0.1272 -1.1849
   26MOL0     H 3552   7.558   5.866   9.342  1.3973 -0.1458  1.5267
   26MOL0     H 3553   7.449   5.901   9.474  1.1941 -1.8773 -0.5404
   26MOL0     H 3554   7.419   6.141   9.382  2.5311  1.8108  0.3960
   26MOL0     H 3555   7.549   6.113   9.272  0.2864  1.4348  1.9681
   26MOL0     H 3556   7.303   6.096   9.181  1.7084  1.2460 -0.9021
   26MOL0     H 3557   7.291   5.955   9.279 -0.6503 -2.0972 -1.8530
   26MOL0     H 3558   7.333   5.860   9.073 -0.2881  1.5091 -0.6711
   26MOL0     H 3559   7.484   5.852   9.151  1.4425  0.1554 -0.6124
   26MOL0     H 3560   7.564   6.032   9.014 -0.4158 -1.3160  2.8471
   26MOL0     H 3561   7.486   5.913   8.914  1.5298 -1.5065  1.9897
   26MOL0     H 3562   7.367   6.187   9.004 -2.7407 -1.1768  2.0465
   26MOL0     H 3563   7.274   6.080   8.910 -0.4908 -0.0691  2.6261
   26MOL0     H 3564   7.458   6.087   8.720 -0.4162  0.7465  0.0521
   26MOL0     H 3565   7.565   6.170   8.834  0.1019  0.7518  0.2946
   26MOL0     H 3566   7.459   6.324   8.679  2.0990 -1.6751  0.9024
   26MOL0     H 3567   7.384   6.362   8.839  0.5734 -2.4323  2.3340
   26MOL0     H 3568   7.743   6.115   9.664  0.2661 -0.3367 -0.0916
   26MOL0     H 3569   7.775   5.997   9.899 -0.7319  1.2411 -0.9895
   26MOL0     H 3570   7.743   5.498  10.035 -2.3351  0.6214  0.5438
   26MOL0     H 3571   7.709   5.342  10.229 -2.0086  0.4859  0.4607
   26MOL0     H 3572   8.749   5.408   9.991  0.8390 -1.1264  1.4482
   26MOL0     H 3573   8.740   5.186  10.101  0.1015  1.9087 -0.1912
   26MOL0     H 3574   8.518   4.829  10.262 -2.4058  0.0264 -1.3946
   26MOL0     H 3575   8.482   4.591  10.346  2.1070  0.4608  0.8962
   26MOL0     H 3576   8.468   4.328  10.027 -0.7023 -0.9735 -0.7951
   26MOL0     H 3577   8.619   4.238  10.053  1.1974  2.7768 -1.7651
   26MOL0     H 3578   8.336   4.180  10.168  0.2729  0.2203  1.9739
   26MOL0     H 3579   8.476   4.084  10.218  2.5494  0.8931  0.0160
   26MOL0     H 3580   8.431   4.101   9.920 -2.6697 -2.3609 -1.3689
   26MOL0     H 3581   8.533   3.994  10.025 -1.7812 -2.0664  0.3258
   26MOL0     H 3582   8.312   3.903   9.922 -2.8332  0.9520  0.3867
   26MOL0     H 3583   8.218   3.978  10.048 -0.0572  2.5330 -1.5698
   26MOL0     H 3584   8.365   3.651  10.238  2.0490 -2.4351 -2.2671
   26MOL0     H 3585   8.668   4.434   9.992 -1.9659 -0.8292  1.5927
   26MOL0     H 3586   8.689   4.699   9.796 -0.8322 -0.1534  0.1417
   26MOL0     H 3587   8.845   4.698   9.886 -0.3028  0.5920  2.5607
   26MOL0     H 3588   8.753   4.544   9.833 -1.3475  0.4138  0.8540
   27MOL0     O 3589   8.523   3.186  11.373 -0.6472 -0.2263  0.8472
   27MOL0     C 3590   8.434   3.098  11.377  0.2451  0.6139  0.3621
   27MOL0     O 3591   8.400   3.035  11.494 -0.1693 -0.9016  0.2522
   27MOL0     C 3592   8.409   3.120  11.601  0.3230 -0.7954  0.0117
   27MOL0     C 3593   8.510   3.114  11.697  0.0124  0.0994 -0.1720
   27MOL0     C 3594   8.510   3.205  11.811  0.1555  0.1146 -0.4304
   27MOL0     C 3595   8.410   3.309  11.816  0.1318 -0.0344 -0.3974
   27MOL0     O 3596   8.412   3.403  11.912 -0.2006  0.5489 -1.1604
   27MOL0     C 3597   8.539   3.456  11.932 -0.0933 -0.7809  0.0618
   27MOL0     C 3598   8.584   3.461  12.082 -0.4773  0.1805  0.5440
   27MOL0     C 3599   8.566   3.333  12.166 -0.3732 -0.1371  0.1413
   27MOL0     C 3600   8.695   3.316  12.245 -0.3485 -0.1036  0.4636
   27MOL0     C 3601   8.674   3.191  12.324 -0.5800  0.7506  0.5063
   27MOL0     C 3602   8.796   3.174  12.426 -0.6099 -0.0210 -0.1364
   27MOL0     C 3603   8.780   3.046  12.504  0.5181  0.8287 -0.0388
   27MOL0     C 3604   8.777   2.925  12.410  0.7510  0.3998 -0.3136
   27MOL0     N 3605   8.776   2.796  12.482  0.2374  0.6392  0.1447
   27MOL0     C 3606   8.675   2.692  12.479 -0.2047  0.0902 -0.6815
   27MOL0     C 3607   8.731   2.587  12.555  0.0644 -1.4176 -0.3250
   27MOL0     C 3608   8.650   2.467  12.599 -0.6501 -0.7045  0.2063
   27MOL0     C 3609   8.597   2.463  12.746  0.2490  0.0603 -0.1898
   27MOL0     C 3610   8.476   2.565  12.779 -0.9721 -0.0204  1.2137
   27MOL0     C 3611   8.526   2.710  12.817  0.4849  0.3589  0.4496
   27MOL0     O 3612   8.418   2.801  12.849  0.0400  0.0388 -0.6239
   27MOL0     C 3613   8.351   2.878  12.754 -0.2272  0.8508 -0.3099
   27MOL0     C 3614   8.243   2.946  12.804 -0.1242  0.5323  0.0974
   27MOL0     C 3615   8.193   3.061  12.745 -0.2026 -0.5557 -0.1808
   27MOL0     C 3616   8.080   3.133  12.820 -0.4140  0.2138  0.9428
   27MOL0     C 3617   8.235   3.094  12.610 -0.9951 -0.4386  1.0507
   27MOL0     C 3618   8.204   3.223  12.546  0.1565 -1.0675  0.3589
   27MOL0     O 3619   8.305   3.277  12.468 -0.7632  0.2147  0.1753
   27MOL0     C 3620   8.290   3.392  12.399  0.2746 -0.7074  0.5272
   27MOL0     C 3621   8.191   3.411  12.294  0.3273 -0.0279  0.5083
   27MOL0     C 3622   8.178   3.532  12.226  0.3029 -0.3671 -0.2985
   27MOL0     C 3623   8.263   3.635  12.257  0.1856  0.5505  0.3565
   27MOL0     O 3624   8.248   3.762  12.207  0.5361  0.2506 -1.5498
   27MOL0     C 3625   8.174   3.848  12.299 -0.0893 -0.2031 -0.5178
   27MOL0     C 3626   8.031   3.876  12.255 -0.4300  0.5339 -0.6713
   27MOL0     C 3627   7.953   3.990  12.312 -0.3215  0.7996  0.3013
   27MOL0     C 3628   7.912   3.953  12.456  0.2104 -0.5861  0.0634
   27MOL0     C 3629   7.833   4.075  12.516 -0.1777  0.4429  0.5452
   27MOL0     C 3630   7.898   4.138  12.647 -0.9736 -0.3528 -0.9506
   27MOL0     C 3631   8.047   4.186  12.635 -0.3408 -0.3129 -0.2973
   27MOL0     C 3632   8.105   4.201  12.768  0.3974  0.4390 -0.2828
   27MOL0    Cl 3633   8.109   4.056  12.864 -0.0289 -0.1399  0.0261
   27MOL0     C 3634   8.364   3.623  12.358  0.3688 -0.1920  0.0669
   27MOL0     C 3635   8.373   3.501  12.435  0.1650  0.3382 -0.1703
   27MOL0     O 3636   8.088   3.269  12.560 -0.5057  0.6759  0.3212
   27MOL0     C 3637   8.337   3.010  12.552  0.2702  0.3238 -0.8126
   27MOL0     C 3638   8.394   2.898  12.616  0.6931  0.7699  0.3856
   27MOL0     N 3639   8.863   2.629  12.575  0.3664  1.1176 -0.0069
   27MOL0     N 3640   8.887   2.742  12.535 -0.0627  0.4527  0.5864
   27MOL0     C 3641   8.311   3.304  11.724 -0.0616 -0.9912  0.8686
   27MOL0     C 3642   8.317   3.223  11.610 -0.4459  0.5358 -0.0097
   27MOL0     C 3643   8.356   3.062  11.255  0.2583 -0.4327  0.3681
   27MOL0     C 3644   8.288   2.944  11.264 -0.1973 -0.1335  0.8874
   27MOL0     C 3645   8.208   2.897  11.161 -0.2805 -1.0671 -0.6375
   27MOL0     C 3646   8.189   2.964  11.046  0.0353  1.2525 -1.0446
   27MOL0     O 3647   8.107   2.900  10.953  0.1247  0.3670  0.3416
   27MOL0     C 3648   8.074   2.969  10.830  0.3614 -1.0171  0.4587
   27MOL0     C 3649   7.981   3.084  10.860  0.7572  0.8935 -0.1364
   27MOL0     C 3650   7.941   3.158  10.737 -0.3049 -0.2763 -0.7618
   27MOL0     C 3651   7.877   3.291  10.781  0.3560  0.7549  0.6365
   27MOL0     C 3652   7.980   3.396  10.752  0.8592  0.0446 -0.7961
   27MOL0     C 3653   8.068   3.479  10.739  0.8919  0.4268  0.7879
   27MOL0     C 3654   8.263   3.087  11.027  0.1888  0.3463  0.2139
   27MOL0     C 3655   8.343   3.141  11.130 -0.3544  0.0169 -0.5982
   27MOL0     C 3656   8.389   3.279  11.130 -1.2570 -0.8554  0.5988
   27MOL0     H 3657   8.591   3.043  11.693 -0.3639 -0.2689 -3.0894
   27MOL0     H 3658   8.589   3.195  11.884  0.4444 -2.7703 -1.0019
   27MOL0     H 3659   8.543   3.560  11.899  0.4552 -0.4480  1.1250
   27MOL0     H 3660   8.621   3.408  11.878 -2.2091 -1.6120 -2.6314
   27MOL0     H 3661   8.686   3.500  12.079  0.3089 -1.6324  2.0000
   27MOL0     H 3662   8.527   3.541  12.132  1.5355  0.3633  2.6837
   27MOL0     H 3663   8.483   3.340  12.237 -1.7470 -1.9408 -1.2037
   27MOL0     H 3664   8.549   3.243  12.106 -0.0798  1.5365 -2.6183
   27MOL0     H 3665   8.786   3.305  12.186  0.5911 -1.0199  2.0177
   27MOL0     H 3666   8.710   3.394  12.321 -0.5742 -1.3396  1.8308
   27MOL0     H 3667   8.678   3.112  12.248  1.4594  3.2457 -2.2089
   27MOL0     H 3668   8.581   3.201  12.380 -0.7540  0.8337  0.2028
   27MOL0     H 3669   8.891   3.170  12.371  1.2328  2.2271  2.5826
   27MOL0     H 3670   8.787   3.256  12.497 -3.2720 -0.2932 -0.0810
   27MOL0     H 3671   8.692   3.049  12.569  0.1089  2.5933 -0.6054
   27MOL0     H 3672   8.862   3.047  12.575 -1.9220  1.8183  3.0122
   27MOL0     H 3673   8.688   2.936  12.348 -0.0054 -0.3223  0.5973
   27MOL0     H 3674   8.866   2.926  12.347  0.8651 -0.9803 -0.2229
   27MOL0     H 3675   8.576   2.690  12.436  0.1143 -3.0732 -1.5813
   27MOL0     H 3676   8.700   2.374  12.570  1.7582  0.6932 -0.4200
   27MOL0     H 3677   8.559   2.466  12.539  0.1856 -1.0854 -1.0863
   27MOL0     H 3678   8.557   2.361  12.758  0.9587 -0.5259 -2.3037
   27MOL0     H 3679   8.679   2.476  12.817  0.3369  1.1742 -0.4865
   27MOL0     H 3680   8.412   2.580  12.692 -0.3625 -2.7419  0.2146
   27MOL0     H 3681   8.420   2.515  12.859  0.3162 -2.6314  0.5965
   27MOL0     H 3682   8.596   2.698  12.900 -0.5281  0.0799  1.2837
   27MOL0     H 3683   8.590   2.744  12.735  0.4412  1.4121  0.8399
   27MOL0     H 3684   8.203   2.901  12.895 -0.3026  0.3903 -0.0499
   27MOL0     H 3685   8.111   3.238  12.822  2.0588 -0.1558 -3.6349
   27MOL0     H 3686   8.080   3.109  12.926 -1.1765 -0.1081  0.8734
   27MOL0     H 3687   7.982   3.124  12.773 -0.8843  1.2948  1.6675
   27MOL0     H 3688   8.131   3.327  12.262  0.7187 -0.6249  1.2924
   27MOL0     H 3689   8.097   3.522  12.153 -0.4596 -0.5755  0.5517
   27MOL0     H 3690   8.174   3.803  12.399 -1.5310  4.1264  1.6708
   27MOL0     H 3691   8.239   3.934  12.317  3.0285 -2.8168  2.1992
   27MOL0     H 3692   8.025   3.894  12.147 -0.5938 -1.2119 -0.9693
   27MOL0     H 3693   7.978   3.784  12.278 -2.1284  1.8906  1.2091
   27MOL0     H 3694   7.872   4.024  12.247 -0.4048  0.5183  0.2584
   27MOL0     H 3695   8.025   4.073  12.317  0.2002  0.6675 -2.7904
   27MOL0     H 3696   7.998   3.932  12.519  1.1006 -2.0038 -1.5528
   27MOL0     H 3697   7.839   3.873  12.441  2.3574 -2.3142 -1.8562
   27MOL0     H 3698   7.829   4.156  12.443 -2.9655 -1.9738 -2.3014
   27MOL0     H 3699   7.731   4.040  12.532 -1.4388  3.2580 -0.7916
   27MOL0     H 3700   7.894   4.067  12.731  3.1340  0.3350  0.0613
   27MOL0     H 3701   7.833   4.220  12.679  0.0779  0.6523 -1.3388
   27MOL0     H 3702   8.043   4.269  12.564  1.4608 -0.0162 -0.1073
   27MOL0     H 3703   8.100   4.101  12.590  0.8389 -1.5348  3.0623
   27MOL0     H 3704   8.039   4.276  12.813 -2.2645 -0.8593 -1.7542
   27MOL0     H 3705   8.202   4.251  12.760  1.0883 -0.9734 -1.0359
   27MOL0     H 3706   8.439   3.691  12.395 -0.9278 -0.3361  3.2754
   27MOL0     H 3707   8.454   3.480  12.504 -0.7377  1.9523  1.4805
   27MOL0     H 3708   8.360   3.034  12.449 -2.4447 -3.1698 -2.4402
   27MOL0     H 3709   8.475   2.837  12.578 -0.9700 -1.0180 -0.4550
   27MOL0     H 3710   8.238   3.385  11.722 -1.7170 -2.4193  0.6640
   27MOL0     H 3711   8.244   3.232  11.531 -2.2872 -0.3063  1.4962
   27MOL0     H 3712   8.296   2.880  11.352  2.4561  0.1161  0.8925
   27MOL0     H 3713   8.159   2.802  11.179 -0.1615 -1.1820 -0.9036
   27MOL0     H 3714   8.162   3.014  10.784  0.2726 -2.1450 -0.9162
   27MOL0     H 3715   8.028   2.899  10.759 -2.2220  2.7026 -1.8991
   27MOL0     H 3716   8.032   3.157  10.923 -0.2534  1.6869 -0.2289
   27MOL0     H 3717   7.899   3.035  10.913  1.2642 -3.3415 -2.8060
   27MOL0     H 3718   8.027   3.180  10.674  1.3271 -1.5855  0.9027
   27MOL0     H 3719   7.870   3.103  10.674 -1.1219 -0.3114  0.1772
   27MOL0     H 3720   7.834   3.295  10.882 -1.2461  0.2534  0.0005
   27MOL0     H 3721   7.793   3.316  10.716  1.0109 -0.1441 -0.5997
   27MOL0     H 3722   8.141   3.558  10.736  1.5319 -0.1763  0.1617
   27MOL0     H 3723   8.247   3.146  10.938 -4.8049  1.9275  1.8356
   27MOL0     H 3724   8.497   3.271  11.112 -0.4859  0.1866  4.0530
   27MOL0     H 3725   8.337   3.332  11.049 -3.6943 -2.4238  1.0142
   27MOL0     H 3726   8.373   3.339  11.219 -1.1526  2.7441 -1.6226
   28MOL0     O 3727   0.535   2.754   1.624  0.5122  0.0641  0.2669
   28MOL0     C 3728   0.560   2.756   1.505  0.1995  0.3972  0.1250
   28MOL0     O 3729   0.668   2.812   1.442 -0.5108 -0.1259  0.0758
   28MOL0     C 3730   0.768   2.872   1.513 -0.0218  0.9046  0.7191
   28MOL0     C 3731   0.787   2.861   1.653 -0.0386 -0.0765 -0.4036
   28MOL0     C 3732   0.900   2.924   1.716 -0.0533  0.3479  0.6491
   28MOL0     C 3733   0.999   2.991   1.633  0.3789  0.1390 -0.7696
   28MOL0     O 3734   1.106   3.059   1.683 -0.5446 -0.3140  1.2129
   28MOL0     C 3735   1.146   3.043   1.817 -0.3887  0.2365 -0.5162
   28MOL0     C 3736   1.240   3.151   1.869 -0.2518  0.2149  0.5635
   28MOL0     C 3737   1.167   3.292   1.887 -0.0192 -0.0055 -0.1100
   28MOL0     C 3738   1.190   3.402   1.779  0.0515  1.0769 -1.0110
   28MOL0     C 3739   1.104   3.529   1.787 -1.3188  0.1373 -0.7251
   28MOL0     C 3740   0.966   3.494   1.736 -0.9735 -0.1890  0.1931
   28MOL0     C 3741   0.869   3.609   1.730 -0.5857 -0.5839  2.0193
   28MOL0     C 3742   0.776   3.586   1.604  0.2277 -0.0874 -0.2679
   28MOL0     N 3743   0.689   3.474   1.639 -0.3842 -0.0817 -0.0776
   28MOL0     C 3744   0.665   3.361   1.563 -0.2463  0.7409  0.0998
   28MOL0     C 3745   0.604   3.272   1.642  0.5269 -0.4138 -1.0015
   28MOL0     C 3746   0.567   3.139   1.605  0.3458  0.5902  0.6261
   28MOL0     C 3747   0.414   3.119   1.605 -0.0612 -0.4967 -0.4151
   28MOL0     C 3748   0.344   3.186   1.489  0.2843  0.3615  0.7273
   28MOL0     C 3749   0.199   3.224   1.509 -0.5404  0.5674 -0.3630
   28MOL0     O 3750   0.199   3.360   1.561  0.1791 -0.0037  0.0038
   28MOL0     C 3751   0.082   3.427   1.570 -0.3232 -0.7106 -0.9130
   28MOL0     C 3752  -0.036   3.373   1.521  0.2220  0.9266  0.4448
   28MOL0     C 3753  -0.155   3.443   1.517 -0.7288  0.4037 -0.2625
   28MOL0     C 3754  -0.281   3.365   1.466  1.0511  0.3493 -0.2278
   28MOL0     C 3755  -0.157   3.576   1.558 -0.6158  0.5301  0.3687
   28MOL0     C 3756  -0.275   3.651   1.565  0.0970  0.1203  0.2302
   28MOL0     O 3757  -0.275   3.737   1.674 -0.4369  0.4251 -0.1743
   28MOL0     C 3758  -0.387   3.810   1.695 -0.2039  0.6090  0.0646
   28MOL0     C 3759  -0.368   3.947   1.698  0.6776 -0.3856 -0.4310
   28MOL0     C 3760  -0.472   4.037   1.710  0.9492  1.0197  0.2485
   28MOL0     C 3761  -0.602   3.982   1.741  0.1562 -0.5106 -0.0260
   28MOL0     O 3762  -0.717   4.051   1.752 -0.2220  0.1728  0.8175
   28MOL0     C 3763  -0.725   4.199   1.742  0.3954  1.1468 -0.0787
   28MOL0     C 3764  -0.818   4.264   1.841 -0.5317 -0.3126  0.8781
   28MOL0     C 3765  -0.949   4.189   1.861 -0.7538 -0.2824  0.0546
   28MOL0     C 3766  -1.042   4.186   1.752 -0.3351  1.2783 -0.5394
   28MOL0     C 3767  -1.065   4.315   1.680 -0.0338  0.9251 -0.5168
   28MOL0     C 3768  -1.138   4.420   1.772 -0.0644  0.6525 -0.7096
   28MOL0     C 3769  -1.180   4.542   1.690  0.1632  0.1816 -0.3890
   28MOL0     C 3770  -1.312   4.523   1.613 -0.5727 -0.6486  0.1080
   28MOL0    Cl 3771  -1.448   4.519   1.727 -0.2452  0.3194 -0.0040
   28MOL0     C 3772  -0.622   3.848   1.744 -0.0429 -0.1978 -0.7866
   28MOL0     C 3773  -0.518   3.758   1.721  0.7540 -0.4865 -0.8035
   28MOL0     O 3774  -0.363   3.648   1.476 -0.4641  0.1714  0.5238
   28MOL0     C 3775  -0.036   3.634   1.594 -0.2280 -0.2828 -0.2359
   28MOL0     C 3776   0.086   3.567   1.595  0.3258 -0.7650  0.2263
   28MOL0     N 3777   0.587   3.331   1.767  0.2507 -0.8102 -0.4735
   28MOL0     N 3778   0.630   3.450   1.764  0.2441  0.0488  0.5171
   28MOL0     C 3779   0.979   2.985   1.495  0.3003 -0.2002  0.3875
   28MOL0     C 3780   0.867   2.935   1.430 -0.4004 -0.0699 -0.4787
   28MOL0     C 3781   0.476   2.666   1.413 -0.4538  0.3314 -0.5785
   28MOL0     C 3782   0.544   2.558   1.348 -0.3796  0.0912 -0.1202
   28MOL0     C 3783   0.476   2.472   1.263  0.2263 -0.6591 -0.2841
   28MOL0     C 3784   0.342   2.493   1.225 -1.0140  0.1658  0.4463
   28MOL0     O 3785   0.293   2.416   1.122 -0.4211 -0.4921 -0.0163
   28MOL0     C 3786   0.156   2.450   1.087 -0.3776 -1.0588 -0.4192
   28MOL0     C 3787   0.115   2.379   0.965  0.6013 -0.3843  0.2097
   28MOL0     C 3788  -0.049   2.388   0.960 -0.6226  0.1557  0.0825
   28MOL0     C 3789  -0.105   2.518   0.897 -0.3114  0.5891  0.4879
   28MOL0     C 3790  -0.042   2.558   0.760  0.5555  0.0693 -0.7855
   28MOL0     C 3791   0.016   2.579   0.657  0.0027 -0.0785 -0.3815
   28MOL0     C 3792   0.278   2.592   1.305 -0.0865 -0.3140  0.3273
   28MOL0     C 3793   0.340   2.673   1.398  0.0886  0.2085  0.7412
   28MOL0     C 3794   0.261   2.776   1.470  0.4793 -0.4236 -0.0074
   28MOL0     H 3795   0.738   2.787   1.716 -0.3554 -0.1809 -0.7656
   28MOL0     H 3796   0.908   2.930   1.825  2.2084  1.1027  0.4973
   28MOL0     H 3797   1.195   2.946   1.830  0.8714  1.0543  1.3583
   28MOL0     H 3798   1.063   3.043   1.887  0.2202 -1.5826  0.2708
   28MOL0     H 3799   1.271   3.117   1.968  1.5783 -0.2920 -0.1456
   28MOL0     H 3800   1.326   3.159   1.802 -0.8873 -3.8471 -1.0264
   28MOL0     H 3801   1.058   3.288   1.896  0.1921 -1.0337  3.8420
   28MOL0     H 3802   1.210   3.337   1.978 -1.2393 -0.5785  0.7688
   28MOL0     H 3803   1.294   3.438   1.780  0.1354  0.9105  1.0482
   28MOL0     H 3804   1.169   3.357   1.682 -1.4679  2.5937 -1.4327
   28MOL0     H 3805   1.144   3.610   1.726 -1.9016 -0.3253 -1.7451
   28MOL0     H 3806   1.110   3.565   1.890 -0.7861  0.3440 -0.8236
   28MOL0     H 3807   0.984   3.457   1.634 -3.3556  0.0164 -0.3586
   28MOL0     H 3808   0.912   3.409   1.779 -1.1819  0.8656  2.1015
   28MOL0     H 3809   0.934   3.693   1.702  2.1173 -2.1178  3.3344
   28MOL0     H 3810   0.823   3.631   1.826  0.1541  1.0316  2.0471
   28MOL0     H 3811   0.722   3.680   1.590 -0.0108  0.0813  1.5388
   28MOL0     H 3812   0.834   3.565   1.514 -2.1390 -0.8854 -1.7162
   28MOL0     H 3813   0.709   3.344   1.465  0.0190 -0.0387  0.3490
   28MOL0     H 3814   0.604   3.074   1.685 -0.8515 -1.1226 -0.1709
   28MOL0     H 3815   0.613   3.104   1.512  0.2248 -0.2826  0.8878
   28MOL0     H 3816   0.399   3.012   1.592 -0.2383 -0.5750  0.4028
   28MOL0     H 3817   0.370   3.154   1.699  4.2557 -0.4631  1.8637
   28MOL0     H 3818   0.392   3.282   1.468 -1.0332  0.2097 -3.8697
   28MOL0     H 3819   0.357   3.130   1.396 -2.9967 -0.6052  0.7451
   28MOL0     H 3820   0.148   3.238   1.414  1.9335  1.9539 -1.5717
   28MOL0     H 3821   0.147   3.147   1.568  0.7725  0.3114  0.4907
   28MOL0     H 3822  -0.050   3.268   1.496 -0.1898  1.1870 -0.4647
   28MOL0     H 3823  -0.364   3.352   1.535 -1.6120 -1.3553 -3.4799
   28MOL0     H 3824  -0.253   3.265   1.434  0.6300 -0.0144  0.5284
   28MOL0     H 3825  -0.315   3.411   1.372  1.9393  0.4057 -0.5382
   28MOL0     H 3826  -0.272   3.995   1.681  0.2019  0.2456 -1.4711
   28MOL0     H 3827  -0.464   4.145   1.704  0.1916  1.0615 -0.1951
   28MOL0     H 3828  -0.628   4.246   1.761  1.0009  0.4259 -1.2395
   28MOL0     H 3829  -0.756   4.224   1.640 -3.3744  5.3736  1.7718
   28MOL0     H 3830  -0.768   4.266   1.938 -3.4256 -0.9867  2.5061
   28MOL0     H 3831  -0.849   4.365   1.812 -3.3120 -1.9648 -2.8437
   28MOL0     H 3832  -0.988   4.244   1.948  1.3283  1.2289  0.0816
   28MOL0     H 3833  -0.927   4.089   1.901  2.1106  0.3777  0.3109
   28MOL0     H 3834  -1.144   4.155   1.776 -0.5507 -0.3581 -3.1887
   28MOL0     H 3835  -1.020   4.102   1.685 -3.4825 -0.4299  0.3397
   28MOL0     H 3836  -0.984   4.366   1.626 -1.4672  1.7490 -1.9936
   28MOL0     H 3837  -1.134   4.289   1.599 -1.8104  0.5420  1.0489
   28MOL0     H 3838  -1.066   4.465   1.840  1.7070 -0.9419 -1.4216
   28MOL0     H 3839  -1.228   4.378   1.817  0.5185 -0.6282 -0.7066
   28MOL0     H 3840  -1.104   4.559   1.613 -0.2232 -1.3747 -1.1565
   28MOL0     H 3841  -1.193   4.630   1.754 -1.2051  0.6554 -1.2797
   28MOL0     H 3842  -1.301   4.427   1.563  4.3377  1.8398 -4.7218
   28MOL0     H 3843  -1.315   4.604   1.539 -0.2652  0.6292  1.4282
   28MOL0     H 3844  -0.724   3.812   1.754 -1.9360  3.7760 -3.4267
   28MOL0     H 3845  -0.531   3.651   1.729 -0.3157 -0.2826  0.4781
   28MOL0     H 3846  -0.030   3.739   1.622  2.6163 -0.1874 -0.9083
   28MOL0     H 3847   0.181   3.614   1.620  0.4371 -1.8903  2.0899
   28MOL0     H 3848   1.063   3.017   1.434  1.8598 -0.7789  2.1470
   28MOL0     H 3849   0.859   2.936   1.321 -0.5261  2.0689 -0.4866
   28MOL0     H 3850   0.652   2.548   1.341 -0.2225  1.9147 -0.6573
   28MOL0     H 3851   0.541   2.395   1.222 -0.4863 -1.3921 -0.0490
   28MOL0     H 3852   0.092   2.453   1.175  0.4639  3.4492  0.2732
   28MOL0     H 3853   0.155   2.549   1.041 -0.5798 -2.1373 -2.9201
   28MOL0     H 3854   0.148   2.275   0.973  1.3408 -0.2942 -1.3566
   28MOL0     H 3855   0.172   2.421   0.882  0.5068 -0.9202 -0.1321
   28MOL0     H 3856  -0.089   2.303   0.903  1.9189 -0.6068 -0.7064
   28MOL0     H 3857  -0.094   2.389   1.059 -2.6832 -0.0130 -0.8054
   28MOL0     H 3858  -0.089   2.596   0.973  3.4129  0.2942  0.1749
   28MOL0     H 3859  -0.213   2.507   0.886 -0.2153  0.7346 -0.6875
   28MOL0     H 3860   0.076   2.599   0.571  0.4198 -2.0437 -0.5822
   28MOL0     H 3861   0.171   2.598   1.288 -1.0745  2.1926  5.4742
   28MOL0     H 3862   0.161   2.780   1.425  0.9605  0.3722 -1.0427
   28MOL0     H 3863   0.256   2.759   1.578 -0.8802 -2.8806 -0.3912
   28MOL0     H 3864   0.303   2.877   1.464 -0.1065 -0.1289  0.6324
   29MOL0     O 3865   0.235   6.472   5.371  0.7141  0.1811 -0.5505
   29MOL0     C 3866   0.248   6.447   5.491  0.1176  1.0323  0.8359
   29MOL0     O 3867   0.305   6.529   5.576 -0.7662 -0.7169 -0.1235
   29MOL0     C 3868   0.358   6.646   5.536 -0.0516 -0.3198 -0.0547
   29MOL0     C 3869   0.268   6.747   5.497 -0.0977  0.9397  0.7214
   29MOL0     C 3870   0.319   6.874   5.477 -0.2501 -0.4628  1.0950
   29MOL0     C 3871   0.455   6.899   5.473  0.5422  0.1083 -0.2158
   29MOL0     O 3872   0.493   7.025   5.482  0.1112 -0.2633 -0.3014
   29MOL0     C 3873   0.551   7.083   5.363  0.5087  0.4131 -0.4567
   29MOL0     C 3874   0.429   7.107   5.264 -0.6823 -0.0928  0.3533
   29MOL0     C 3875   0.451   7.238   5.185 -0.1996 -0.5047  0.0901
   29MOL0     C 3876   0.334   7.278   5.084  1.0943 -0.4651  0.3270
   29MOL0     C 3877   0.193   7.238   5.129  0.0638  0.1131 -0.9187
   29MOL0     C 3878   0.076   7.285   5.036 -0.0122  1.0516 -0.4308
   29MOL0     C 3879  -0.069   7.269   5.087  0.4777  0.6195  0.3868
   29MOL0     C 3880  -0.083   7.365   5.214 -0.4260  1.5966  1.1533
   29MOL0     N 3881  -0.073   7.511   5.187  0.3118  0.5119 -0.1389
   29MOL0     C 3882   0.021   7.602   5.222  0.2801 -1.1785 -0.4206
   29MOL0     C 3883  -0.028   7.723   5.171 -0.3622 -0.3080  0.2795
   29MOL0     C 3884   0.030   7.853   5.188 -0.2923  0.8688 -0.1133
   29MOL0     C 3885   0.138   7.869   5.078  0.9873  0.0704  0.1837
   29MOL0     C 3886   0.201   8.004   5.091  0.4588  0.0129 -0.3850
   29MOL0     C 3887   0.293   8.030   4.972 -0.0330  0.2831  0.9372
   29MOL0     O 3888   0.242   7.995   4.844  0.3503 -0.1706  0.1087
   29MOL0     C 3889   0.316   8.020   4.728  0.0524 -0.1161 -0.8946
   29MOL0     C 3890   0.444   8.071   4.724 -0.4397 -0.3809  0.0924
   29MOL0     C 3891   0.511   8.083   4.603  0.5582 -0.4597 -0.0916
   29MOL0     C 3892   0.664   8.102   4.619 -0.0137  0.0957  0.1888
   29MOL0     C 3893   0.439   8.072   4.480 -1.0399  0.5560 -0.1968
   29MOL0     C 3894   0.501   8.105   4.344  0.4807  0.7925 -0.9580
   29MOL0     O 3895   0.423   8.079   4.241  0.0300 -0.4595 -0.4642
   29MOL0     C 3896   0.468   8.066   4.116 -0.1126 -0.4307  0.7800
   29MOL0     C 3897   0.600   8.039   4.071  0.2582 -1.1203 -0.5504
   29MOL0     C 3898   0.627   8.005   3.939  0.1453  0.0490  0.6101
   29MOL0     C 3899   0.521   7.989   3.847 -1.0246 -0.1524  0.0643
   29MOL0     O 3900   0.536   7.954   3.712 -1.0005  0.3693  0.5161
   29MOL0     C 3901   0.648   7.884   3.669 -0.9710  0.7678  0.1392
   29MOL0     C 3902   0.621   7.824   3.533 -0.4617 -0.5752 -0.3390
   29MOL0     C 3903   0.537   7.693   3.541 -0.5993 -0.3700  0.6708
   29MOL0     C 3904   0.510   7.637   3.395 -0.1690  0.3366  1.0826
   29MOL0     C 3905   0.419   7.728   3.313  0.0353 -0.4370 -1.2513
   29MOL0     C 3906   0.383   7.657   3.178 -0.0923  0.0254 -0.0945
   29MOL0     C 3907   0.311   7.760   3.090  0.4362 -0.8262 -0.5301
   29MOL0     C 3908   0.291   7.715   2.950 -0.6064  0.0151  0.7994
   29MOL0    Cl 3909   0.172   7.596   2.954  0.0140  0.2770  0.7821
   29MOL0     C 3910   0.396   8.033   3.892 -0.4079 -0.2977  0.2491
   29MOL0     C 3911   0.365   8.070   4.022 -0.1815 -0.7541 -0.0933
   29MOL0     O 3912   0.614   8.145   4.342  0.2967 -0.6894  0.4426
   29MOL0     C 3913   0.310   8.022   4.488  0.4801 -0.5342  1.2212
   29MOL0     C 3914   0.251   7.989   4.607  0.3430 -0.5491 -0.3184
   29MOL0     N 3915  -0.144   7.691   5.104  0.3230 -0.6467 -0.5065
   29MOL0     N 3916  -0.166   7.568   5.115  0.6851  0.2804  0.7168
   29MOL0     C 3917   0.546   6.792   5.492  0.3500 -0.5619 -0.7546
   29MOL0     C 3918   0.498   6.671   5.544  0.4991 -0.0796  0.9671
   29MOL0     C 3919   0.215   6.304   5.522  0.0656 -0.6378 -0.7954
   29MOL0     C 3920   0.110   6.240   5.450 -0.1264  0.2249 -0.3948
   29MOL0     C 3921   0.093   6.100   5.475 -0.1857  0.7012  0.4408
   29MOL0     C 3922   0.157   6.034   5.582  0.3757  0.9979 -0.1880
   29MOL0     O 3923   0.138   5.899   5.583  0.1612 -0.1541 -0.0328
   29MOL0     C 3924   0.162   5.833   5.712 -0.6189 -0.1048  0.0278
   29MOL0     C 3925   0.072   5.707   5.735  1.0759  0.4156  0.2098
   29MOL0     C 3926  -0.075   5.738   5.720 -0.9817  0.0716  0.4194
   29MOL0     C 3927  -0.173   5.639   5.782 -0.2337  0.0381  1.0894
   29MOL0     C 3928  -0.165   5.512   5.710  0.6173  0.9717 -0.6614
   29MOL0     C 3929  -0.134   5.408   5.653  0.0397 -0.6894 -0.6975
   29MOL0     C 3930   0.236   6.108   5.671 -0.6917  0.6447  0.1889
   29MOL0     C 3931   0.280   6.242   5.641  0.5036 -0.1976 -0.0913
   29MOL0     C 3932   0.399   6.296   5.715  0.7802 -0.0712 -0.4320
   29MOL0     H 3933   0.162   6.724   5.495 -0.0317  0.5536  1.2474
   29MOL0     H 3934   0.262   6.961   5.447  2.2799  0.9702  0.2246
   29MOL0     H 3935   0.635   7.019   5.332 -0.0197 -0.1830 -0.6671
   29MOL0     H 3936   0.599   7.178   5.389  0.8318  0.1516 -0.0810
   29MOL0     H 3937   0.414   7.018   5.201  0.6052  1.0696 -1.7299
   29MOL0     H 3938   0.340   7.119   5.326  0.0070  0.3814  1.2696
   29MOL0     H 3939   0.453   7.324   5.254  0.6127 -0.4571  0.0182
   29MOL0     H 3940   0.543   7.236   5.126  0.9637 -0.6969  1.8239
   29MOL0     H 3941   0.333   7.388   5.082  0.0266 -0.4257  1.7806
   29MOL0     H 3942   0.348   7.239   4.982 -1.8196  2.1268 -1.2551
   29MOL0     H 3943   0.181   7.273   5.232 -0.5972 -1.2324 -0.5076
   29MOL0     H 3944   0.187   7.129   5.135 -0.8842  0.2354  2.2133
   29MOL0     H 3945   0.089   7.393   5.020 -1.1234  1.1348 -0.8508
   29MOL0     H 3946   0.090   7.235   4.939  1.6021 -1.3669  0.9512
   29MOL0     H 3947  -0.103   7.168   5.109  4.3253 -0.2867  3.1436
   29MOL0     H 3948  -0.143   7.312   5.019  0.0206  0.5709  0.8543
   29MOL0     H 3949  -0.191   7.369   5.233 -0.8037  0.4179 -0.5065
   29MOL0     H 3950  -0.028   7.337   5.304 -2.7107 -3.7983  1.2580
   29MOL0     H 3951   0.100   7.589   5.294  0.4593  4.4065  0.9011
   29MOL0     H 3952   0.078   7.861   5.286 -2.4746  0.0775  1.1109
   29MOL0     H 3953  -0.046   7.932   5.191 -2.3657 -1.0281  1.3926
   29MOL0     H 3954   0.215   7.792   5.081  2.1710  1.2373  1.1166
   29MOL0     H 3955   0.091   7.866   4.979  0.3708  2.0112  0.3719
   29MOL0     H 3956   0.124   8.080   5.106 -1.1244 -2.0169  3.0073
   29MOL0     H 3957   0.265   8.014   5.179 -1.3805 -0.0839  1.0184
   29MOL0     H 3958   0.320   8.136   4.965  2.7178 -0.4189 -0.2888
   29MOL0     H 3959   0.379   7.965   4.990 -1.0863 -0.7327  2.5783
   29MOL0     H 3960   0.501   8.094   4.813 -3.2921  0.2446  1.9041
   29MOL0     H 3961   0.693   8.056   4.714  1.1938 -0.8188 -0.5871
   29MOL0     H 3962   0.680   8.209   4.605  0.7392 -0.0933 -0.4805
   29MOL0     H 3963   0.723   8.045   4.546  0.0609  0.0506  0.2836
   29MOL0     H 3964   0.676   8.050   4.148 -1.7770  0.4931  1.3802
   29MOL0     H 3965   0.729   7.975   3.916  0.9352  1.0998  2.4697
   29MOL0     H 3966   0.738   7.945   3.676 -0.1521 -0.4056  0.0295
   29MOL0     H 3967   0.675   7.794   3.725  1.6087  0.9224 -0.7485
   29MOL0     H 3968   0.582   7.902   3.467 -0.5857  0.1378  0.5594
   29MOL0     H 3969   0.721   7.789   3.508 -1.8435 -2.3907 -3.9922
   29MOL0     H 3970   0.440   7.720   3.583 -3.0598 -1.8979 -3.4156
   29MOL0     H 3971   0.603   7.630   3.601  1.6960  0.4824 -0.7927
   29MOL0     H 3972   0.461   7.541   3.413  1.7941 -1.0056 -0.2879
   29MOL0     H 3973   0.602   7.606   3.344 -0.3448 -0.4011  1.2090
   29MOL0     H 3974   0.333   7.757   3.374  0.1312  1.2175 -1.8423
   29MOL0     H 3975   0.467   7.825   3.298 -1.7124  0.5395 -0.7928
   29MOL0     H 3976   0.328   7.564   3.194  0.6020 -0.2065  1.0513
   29MOL0     H 3977   0.465   7.623   3.115 -0.7087  0.0021 -0.8986
   29MOL0     H 3978   0.373   7.850   3.083 -0.9151  0.0725 -1.6907
   29MOL0     H 3979   0.210   7.777   3.129 -0.3083 -2.6080 -1.5490
   29MOL0     H 3980   0.388   7.681   2.910 -0.4845  2.0863 -0.8139
   29MOL0     H 3981   0.256   7.797   2.887  1.1106 -0.2607 -0.6355
   29MOL0     H 3982   0.313   8.032   3.822 -0.1686  1.0582 -0.0847
   29MOL0     H 3983   0.260   8.075   4.049 -0.1299  0.7270 -0.0612
   29MOL0     H 3984   0.255   7.991   4.400 -1.9509 -0.0106  2.4874
   29MOL0     H 3985   0.148   7.955   4.611  0.7597 -1.8545 -0.3124
   29MOL0     H 3986   0.653   6.812   5.495  0.5255 -0.6606 -3.3821
   29MOL0     H 3987   0.561   6.586   5.569  1.5607  1.3160  3.3893
   29MOL0     H 3988   0.055   6.293   5.373  0.5559  1.3102 -0.1567
   29MOL0     H 3989   0.024   6.054   5.407 -0.0238 -1.6986  1.7982
   29MOL0     H 3990   0.270   5.818   5.719 -0.1943  0.9763 -2.9176
   29MOL0     H 3991   0.118   5.896   5.790 -2.0956 -0.6330 -0.3379
   29MOL0     H 3992   0.093   5.644   5.822 -1.9024 -0.3678  0.4771
   29MOL0     H 3993   0.087   5.631   5.658 -0.2956 -1.0587  1.3196
   29MOL0     H 3994  -0.091   5.833   5.773  0.7808  0.2358  0.7136
   29MOL0     H 3995  -0.102   5.763   5.617  0.3408 -0.5967 -0.1188
   29MOL0     H 3996  -0.277   5.674   5.784 -0.3824 -0.1746 -0.8743
   29MOL0     H 3997  -0.161   5.627   5.890 -2.1583  0.0182  1.3488
   29MOL0     H 3998  -0.108   5.310   5.617  3.5248  0.0948 -0.6844
   29MOL0     H 3999   0.291   6.059   5.750 -0.5094 -0.3258 -0.5178
   29MOL0     H 4000   0.459   6.215   5.760 -0.0791 -0.5432 -0.1198
   29MOL0     H 4001   0.464   6.342   5.640 -0.6596 -0.8253 -2.2146
   29MOL0     H 4002   0.364   6.353   5.801 -0.6977  0.0559 -1.0847
   30MOL0     O 4003   3.352   0.343   8.244  0.8935 -0.2064  0.4460
   30MOL0     C 4004   3.352   0.369   8.363  0.0322 -0.4570  0.7987
   30MOL0     O 4005   3.454   0.340   8.448  0.2442  0.2768 -0.5885
   30MOL0     C 4006   3.577   0.319   8.394  0.0916  0.1089  0.1398
   30MOL0     C 4007   3.664   0.425   8.386 -0.0607  0.5950 -0.6061
   30MOL0     C 4008   3.800   0.391   8.348 -0.0752 -0.3062  1.2642
   30MOL0     C 4009   3.842   0.264   8.301 -0.3076 -0.9465 -0.4898
   30MOL0     O 4010   3.978   0.227   8.277 -0.5498 -0.2568  0.1887
   30MOL0     C 4011   4.068   0.296   8.355  0.1584 -0.3377 -0.8225
   30MOL0     C 4012   4.195   0.221   8.350 -0.0528  0.8572  0.4138
   30MOL0     C 4013   4.240   0.202   8.204 -1.2404  0.2510  0.3770
   30MOL0     C 4014   4.383   0.150   8.190 -0.1901  0.5998 -0.3450
   30MOL0     C 4015   4.420   0.123   8.046 -0.3867  0.2738  0.7334
   30MOL0     C 4016   4.569   0.104   8.027  0.0180 -0.7429  0.0689
   30MOL0     C 4017   4.608   0.078   7.876  0.1160  0.6288  0.0118
   30MOL0     C 4018   4.750   0.092   7.829 -0.0062 -0.4741 -0.0858
   30MOL0     N 4019   4.842  -0.011   7.878 -0.5543  0.0709 -0.2022
   30MOL0     C 4020   4.848  -0.143   7.837  0.4596 -0.0126  0.8864
   30MOL0     C 4021   4.939  -0.214   7.909 -0.8823  0.3406 -0.9941
   30MOL0     C 4022   4.975  -0.354   7.905  0.7662  0.4768  0.2952
   30MOL0     C 4023   4.850  -0.445   7.924 -0.0992  0.4863  0.4146
   30MOL0     C 4024   4.877  -0.593   7.884  0.3144  0.6544  1.2303
   30MOL0     C 4025   4.778  -0.688   7.957 -0.4236  0.6196  0.6411
   30MOL0     O 4026   4.807  -0.821   7.908  0.6785  0.5414  0.1717
   30MOL0     C 4027   4.723  -0.877   7.815 -0.0482  0.3582 -0.7580
   30MOL0     C 4028   4.597  -0.940   7.843  0.0762  0.6529  0.0317
   30MOL0     C 4029   4.511  -0.974   7.743  0.6746  0.7832  0.1346
   30MOL0     C 4030   4.386  -1.046   7.784  0.0941 -0.7315  1.0162
   30MOL0     C 4031   4.551  -0.966   7.609  0.3913 -0.6179  0.8854
   30MOL0     C 4032   4.481  -1.026   7.502  0.2705  0.1165 -0.0230
   30MOL0     O 4033   4.484  -1.161   7.477 -0.1347  0.3398 -0.4869
   30MOL0     C 4034   4.373  -1.207   7.412  0.2490  0.3600  0.7433
   30MOL0     C 4035   4.373  -1.232   7.275  0.1440 -0.2829 -0.0876
   30MOL0     C 4036   4.264  -1.284   7.212 -1.0763 -0.0328  0.2855
   30MOL0     C 4037   4.151  -1.320   7.287  0.0562 -0.4049  0.2462
   30MOL0     O 4038   4.043  -1.351   7.223 -0.1843 -0.2162  0.5409
   30MOL0     C 4039   4.026  -1.277   7.096 -0.1475  0.8546  0.4468
   30MOL0     C 4040   3.884  -1.296   7.043  0.3430 -0.5203  0.2151
   30MOL0     C 4041   3.879  -1.229   6.908 -1.2124 -0.9883  0.0537
   30MOL0     C 4042   3.737  -1.225   6.848  0.5000 -0.3873  0.5491
   30MOL0     C 4043   3.633  -1.125   6.908  0.6327  0.4388  0.8662
   30MOL0     C 4044   3.658  -0.982   6.851  0.8902  0.9680  0.0043
   30MOL0     C 4045   3.543  -0.895   6.857 -0.4698 -0.3694  0.6861
   30MOL0     C 4046   3.590  -0.753   6.850  0.7397 -1.2171  0.0797
   30MOL0    Cl 4047   3.464  -0.677   6.745  0.0583  0.3092  0.3615
   30MOL0     C 4048   4.151  -1.312   7.423 -0.9695 -0.0600  0.2209
   30MOL0     C 4049   4.265  -1.262   7.486  0.6806  0.5516  0.5963
   30MOL0     O 4050   4.414  -0.946   7.436  0.2764  0.8050  0.1517
   30MOL0     C 4051   4.680  -0.908   7.579 -0.0514  0.7441  0.0666
   30MOL0     C 4052   4.765  -0.857   7.683  0.9600 -0.1901 -0.2747
   30MOL0     N 4053   4.977  -0.121   8.005 -0.7041 -0.7470 -0.1431
   30MOL0     N 4054   4.924  -0.001   7.991  0.3924 -0.1865 -0.3467
   30MOL0     C 4055   3.745   0.172   8.290  0.2455 -0.4181  0.5786
   30MOL0     C 4056   3.619   0.200   8.338  1.0363 -0.1030 -0.5515
   30MOL0     C 4057   3.223   0.428   8.422  0.4277  0.2632  0.1333
   30MOL0     C 4058   3.099   0.376   8.392  1.0012 -0.6251  0.1739
   30MOL0     C 4059   2.983   0.415   8.446 -0.0052  0.6910 -0.8260
   30MOL0     C 4060   2.979   0.529   8.535 -0.7423  0.3358 -0.7779
   30MOL0     O 4061   2.856   0.560   8.572 -0.3528 -0.7158 -0.1130
   30MOL0     C 4062   2.843   0.661   8.679 -1.2925  0.6834  0.6835
   30MOL0     C 4063   2.870   0.596   8.817  0.5925 -0.0238 -0.0302
   30MOL0     C 4064   2.879   0.689   8.933 -0.7201 -0.1328 -0.2186
   30MOL0     C 4065   2.877   0.612   9.069  0.8272  0.3647  0.1067
   30MOL0     C 4066   2.738   0.577   9.100  1.0678  0.3184  0.7286
   30MOL0     C 4067   2.623   0.552   9.131 -0.1009 -0.0125 -0.6915
   30MOL0     C 4068   3.107   0.589   8.570 -0.7636  0.6994  0.0752
   30MOL0     C 4069   3.224   0.530   8.508  0.7515 -0.6105  0.3104
   30MOL0     C 4070   3.357   0.592   8.556  0.1094  0.4726  0.4311
   30MOL0     H 4071   3.629   0.522   8.421  1.0057  0.1581  1.8852
   30MOL0     H 4072   3.879   0.466   8.351  0.8197 -1.1521  0.0372
   30MOL0     H 4073   4.041   0.312   8.460  1.9049 -0.6219 -0.2956
   30MOL0     H 4074   4.088   0.398   8.321  1.2857  0.4749  2.0282
   30MOL0     H 4075   4.269   0.283   8.402  0.9010 -1.4427  1.9561
   30MOL0     H 4076   4.182   0.124   8.398  0.8939  0.8058  0.5993
   30MOL0     H 4077   4.162   0.150   8.148 -1.0855  0.3080  0.1054
   30MOL0     H 4078   4.242   0.300   8.154  4.5592 -0.2863 -1.0935
   30MOL0     H 4079   4.451   0.217   8.242  0.9152 -2.9744  3.3968
   30MOL0     H 4080   4.396   0.055   8.244  1.2070 -0.7096 -2.8044
   30MOL0     H 4081   4.383   0.201   7.977 -0.8481 -1.6145 -1.2677
   30MOL0     H 4082   4.374   0.030   8.012  0.1800  0.3242 -0.2181
   30MOL0     H 4083   4.608   0.203   8.052 -0.7604 -0.5947  0.7097
   30MOL0     H 4084   4.601   0.036   8.106  3.4653  1.8051  1.1052
   30MOL0     H 4085   4.555   0.141   7.804  2.6512  1.5410 -1.1674
   30MOL0     H 4086   4.571  -0.025   7.871  0.9343  0.2540  1.1840
   30MOL0     H 4087   4.754   0.086   7.720  1.5584 -1.0364 -0.0176
   30MOL0     H 4088   4.778   0.190   7.869  1.3477 -0.3594 -1.2370
   30MOL0     H 4089   4.788  -0.190   7.760  1.0339  1.1065 -0.2878
   30MOL0     H 4090   5.040  -0.373   7.992 -3.1232  2.7375  4.0695
   30MOL0     H 4091   5.036  -0.381   7.818 -0.9643 -0.1502 -0.7572
   30MOL0     H 4092   4.838  -0.441   8.032  0.7430 -0.9483  0.5814
   30MOL0     H 4093   4.771  -0.395   7.868  1.6404  1.3371 -1.4342
   30MOL0     H 4094   4.859  -0.604   7.777 -0.7952 -2.6517  1.6634
   30MOL0     H 4095   4.980  -0.620   7.907  0.1194 -1.6583 -0.3645
   30MOL0     H 4096   4.808  -0.690   8.062 -1.7068 -0.1727  1.0150
   30MOL0     H 4097   4.673  -0.667   7.933 -0.1103  2.0061  0.3678
   30MOL0     H 4098   4.564  -0.952   7.946  0.4691  2.2621  0.3762
   30MOL0     H 4099   4.313  -1.021   7.706  0.8145 -0.5893  0.3663
   30MOL0     H 4100   4.362  -1.008   7.883  2.9821  1.5344  0.9817
   30MOL0     H 4101   4.396  -1.155   7.778  0.3907 -0.6369 -1.5916
   30MOL0     H 4102   4.463  -1.192   7.229  1.2039 -2.7661 -0.3263
   30MOL0     H 4103   4.269  -1.288   7.103  0.0398 -0.8388  0.3350
   30MOL0     H 4104   4.047  -1.170   7.105  0.8452  0.6032  1.3899
   30MOL0     H 4105   4.094  -1.311   7.018  0.3662  0.2863  1.1282
   30MOL0     H 4106   3.869  -1.404   7.037 -0.1847 -0.4124 -0.5533
   30MOL0     H 4107   3.806  -1.246   7.101  2.4501  1.3915  1.6136
   30MOL0     H 4108   3.958  -1.261   6.840 -1.8295  2.9385 -2.8457
   30MOL0     H 4109   3.899  -1.123   6.920  1.6170 -1.2095 -1.8182
   30MOL0     H 4110   3.689  -1.318   6.882  1.8449  0.0766  4.1151
   30MOL0     H 4111   3.745  -1.208   6.741 -0.2770  3.1097  0.9229
   30MOL0     H 4112   3.536  -1.162   6.875  1.2557 -0.1514 -0.3907
   30MOL0     H 4113   3.646  -1.127   7.017 -2.0039  1.7845  1.2721
   30MOL0     H 4114   3.673  -0.989   6.743 -2.4399  1.1967 -0.5908
   30MOL0     H 4115   3.744  -0.947   6.910  2.7429 -3.2090  0.1341
   30MOL0     H 4116   3.481  -0.901   6.947  1.8380  0.3164  2.3960
   30MOL0     H 4117   3.481  -0.923   6.771 -0.6649 -2.0446  1.3307
   30MOL0     H 4118   3.693  -0.744   6.815  0.4497  2.1357 -0.2226
   30MOL0     H 4119   3.593  -0.715   6.952  0.1817 -2.7593  0.7031
   30MOL0     H 4120   4.062  -1.346   7.475  0.9150 -1.1124  3.0158
   30MOL0     H 4121   4.276  -1.252   7.594  1.8894 -1.4427  0.7018
   30MOL0     H 4122   4.707  -0.916   7.474 -2.7476 -1.5586 -0.5587
   30MOL0     H 4123   4.858  -0.804   7.671  0.0146  1.2912 -1.3614
   30MOL0     H 4124   3.762   0.071   8.252 -0.1686 -0.2736  0.0020
   30MOL0     H 4125   3.547   0.119   8.344 -2.0935  2.5476  0.6521
   30MOL0     H 4126   3.089   0.281   8.340  0.4949 -1.2362  1.3603
   30MOL0     H 4127   2.889   0.362   8.439 -0.4628  1.0644  1.5986
   30MOL0     H 4128   2.914   0.744   8.669  0.6665 -0.9250  0.3629
   30MOL0     H 4129   2.736   0.682   8.683 -2.1968 -3.2115  1.2012
   30MOL0     H 4130   2.975   0.567   8.809  1.5273  2.9736  0.0533
   30MOL0     H 4131   2.798   0.517   8.838 -1.0503  1.0244 -1.3970
   30MOL0     H 4132   2.977   0.735   8.919 -0.5155 -0.8229 -1.1849
   30MOL0     H 4133   2.809   0.773   8.922 -0.5039 -0.2498 -3.5122
   30MOL0     H 4134   2.912   0.684   9.143  2.9320 -1.1346  0.6706
   30MOL0     H 4135   2.938   0.521   9.063  0.0777 -0.5929  4.1964
   30MOL0     H 4136   2.530   0.514   9.169  0.5923 -0.0398  1.1147
   30MOL0     H 4137   3.112   0.679   8.629 -3.8851  1.8056 -1.1384
   30MOL0     H 4138   3.416   0.531   8.625  0.0345  2.3654  2.2543
   30MOL0     H 4139   3.413   0.613   8.465  2.8522  2.7954  2.4912
   30MOL0     H 4140   3.348   0.685   8.612 -1.1622  0.3373  0.4857
   31MOL0     O 4141  10.900   6.259   6.388 -0.9226  0.2756 -0.5418
   31MOL0     C 4142  10.846   6.363   6.429 -0.6845  0.1862  0.3092
   31MOL0     O 4143  10.778   6.370   6.546  0.0342 -0.3671  0.3668
   31MOL0     C 4144  10.752   6.249   6.609 -0.3636  0.2839 -0.6632
   31MOL0     C 4145  10.631   6.195   6.567  0.1693  0.6506  0.0147
   31MOL0     C 4146  10.581   6.075   6.622  0.3196 -1.1189  0.3771
   31MOL0     C 4147  10.660   6.004   6.715 -0.1244 -0.9274  0.2813
   31MOL0     O 4148  10.616   5.879   6.747 -0.6069 -0.7096 -0.4211
   31MOL0     C 4149  10.700   5.789   6.827  0.3940  0.2941  0.3571
   31MOL0     C 4150  10.615   5.659   6.845  0.3405 -0.4836  0.1876
   31MOL0     C 4151  10.477   5.718   6.901  0.9588 -0.0456  0.4202
   31MOL0     C 4152  10.401   5.597   6.970  0.2598  0.8344  0.4816
   31MOL0     C 4153  10.247   5.604   6.949 -0.4029 -0.0584  0.8920
   31MOL0     C 4154  10.184   5.568   6.806 -0.3306  0.2297 -0.0980
   31MOL0     C 4155  10.180   5.419   6.775  0.2438  0.3656 -0.3169
   31MOL0     C 4156  10.090   5.341   6.876  0.8773 -0.3380 -0.3480
   31MOL0     N 4157   9.943   5.348   6.859 -0.0138  0.2593 -0.0737
   31MOL0     C 4158   9.876   5.322   6.743 -0.6452 -0.5648 -0.0556
   31MOL0     C 4159   9.743   5.340   6.771 -0.4206 -0.4432 -0.7355
   31MOL0     C 4160   9.619   5.336   6.690  0.5193 -0.4177  1.1164
   31MOL0     C 4161   9.587   5.465   6.605 -1.7585 -0.6490  0.4309
   31MOL0     C 4162   9.508   5.457   6.476  0.6340 -0.6110 -0.2284
   31MOL0     C 4163   9.570   5.423   6.346 -0.4171 -0.4292  0.3498
   31MOL0     O 4164   9.655   5.299   6.353 -0.1199 -0.3761 -0.1782
   31MOL0     C 4165   9.721   5.257   6.246 -0.5637  1.2238 -0.4324
   31MOL0     C 4166   9.754   5.340   6.140  0.8927 -0.2743  0.3844
   31MOL0     C 4167   9.828   5.283   6.034 -0.7275 -0.2288 -0.4530
   31MOL0     C 4168   9.831   5.368   5.910  0.8644  0.4002 -0.2624
   31MOL0     C 4169   9.882   5.159   6.042  0.2808  0.9463 -1.6008
   31MOL0     C 4170   9.978   5.101   5.949  0.1650 -0.6130  0.0161
   31MOL0     O 4171   9.990   4.972   5.927  0.4579  0.8491 -0.4526
   31MOL0     C 4172  10.108   4.936   5.858  0.0674  0.0277 -1.0327
   31MOL0     C 4173  10.099   4.879   5.731 -0.7320 -0.3043  0.5025
   31MOL0     C 4174  10.215   4.812   5.676 -0.2012 -0.7445 -0.3458
   31MOL0     C 4175  10.335   4.815   5.743 -0.6349  0.2152 -0.8592
   31MOL0     O 4176  10.434   4.740   5.684 -0.1762 -0.3906 -0.1562
   31MOL0     C 4177  10.455   4.732   5.541  0.4851  0.7353  0.2170
   31MOL0     C 4178  10.423   4.586   5.506 -1.0972  1.2520 -0.4505
   31MOL0     C 4179  10.337   4.566   5.376 -0.5303 -0.8140  0.1351
   31MOL0     C 4180  10.302   4.412   5.358 -0.2868 -0.5425  0.9284
   31MOL0     C 4181  10.167   4.373   5.417  0.6321  0.6440  0.3931
   31MOL0     C 4182  10.144   4.230   5.384 -0.0250  0.0878 -0.5653
   31MOL0     C 4183  10.011   4.169   5.446  0.2719 -0.5943  0.6037
   31MOL0     C 4184   9.945   4.068   5.361 -0.2965  0.4196  0.4947
   31MOL0    Cl 4185  10.042   3.911   5.389  0.1384  0.1626 -0.0254
   31MOL0     C 4186  10.344   4.859   5.877  0.0102 -0.0437  0.0355
   31MOL0     C 4187  10.232   4.922   5.930 -0.2750  0.4116 -0.5208
   31MOL0     O 4188  10.052   5.185   5.897 -0.0087  0.4765 -0.1621
   31MOL0     C 4189   9.853   5.077   6.153 -0.3937 -0.3035 -0.6755
   31MOL0     C 4190   9.778   5.124   6.257 -0.3205 -0.6409  0.6278
   31MOL0     N 4191   9.741   5.373   6.903 -0.1357  0.6463 -0.0762
   31MOL0     N 4192   9.860   5.365   6.960  0.2273 -0.4654 -0.6667
   31MOL0     C 4193  10.790   6.055   6.752  0.5556 -1.6310 -0.0774
   31MOL0     C 4194  10.837   6.183   6.710 -0.1909 -1.2136 -0.2558
   31MOL0     C 4195  10.859   6.493   6.354  0.5237 -0.3375 -0.1206
   31MOL0     C 4196  10.923   6.483   6.223  0.7942  0.7913 -0.8462
   31MOL0     C 4197  10.937   6.599   6.152 -1.0991 -0.5681 -0.2345
   31MOL0     C 4198  10.898   6.722   6.195 -0.5028 -0.9523 -0.7560
   31MOL0     O 4199  10.903   6.842   6.121  0.4618  0.1357 -0.3407
   31MOL0     C 4200  10.993   6.866   6.017 -0.0567 -0.0291 -0.6939
   31MOL0     C 4201  11.136   6.898   6.074  0.7545 -0.8976  1.0936
   31MOL0     C 4202  11.136   7.019   6.163 -0.1563  0.4513 -0.1960
   31MOL0     C 4203  11.109   7.155   6.085  0.5766  0.0329  0.4407
   31MOL0     C 4204  11.232   7.193   6.012  0.8439 -0.4277  0.2556
   31MOL0     C 4205  11.331   7.231   5.951  0.2058  0.5651 -0.1852
   31MOL0     C 4206  10.822   6.737   6.316 -0.1533  0.4657  0.3680
   31MOL0     C 4207  10.808   6.620   6.403  0.2528  0.4300 -0.4124
   31MOL0     C 4208  10.737   6.637   6.534  0.5030 -0.5263 -1.0578
   31MOL0     H 4209  10.580   6.256   6.493 -1.0479  1.0702  1.1505
   31MOL0     H 4210  10.491   6.026   6.587  1.3190 -0.6944 -3.1451
   31MOL0     H 4211  10.720   5.835   6.924 -0.9921  2.2205 -0.2142
   31MOL0     H 4212  10.799   5.762   6.787  0.7881 -0.2672  1.6380
   31MOL0     H 4213  10.600   5.604   6.752 -0.4400  1.5816 -0.9948
   31MOL0     H 4214  10.674   5.590   6.906 -0.5825 -3.4342 -2.0241
   31MOL0     H 4215  10.478   5.800   6.973 -3.1318  0.3768  0.2254
   31MOL0     H 4216  10.416   5.742   6.814 -2.1622 -2.8930  1.6046
   31MOL0     H 4217  10.442   5.504   6.929 -0.5132 -0.2210  1.9972
   31MOL0     H 4218  10.418   5.603   7.078 -0.9622  1.0063  0.6740
   31MOL0     H 4219  10.221   5.709   6.960 -1.0009 -0.3210  2.0834
   31MOL0     H 4220  10.203   5.554   7.035 -0.7291 -0.7592  0.3356
   31MOL0     H 4221  10.081   5.604   6.793 -0.4566 -0.3006 -0.6328
   31MOL0     H 4222  10.244   5.618   6.729 -1.5356 -1.6555 -2.4223
   31MOL0     H 4223  10.280   5.375   6.784  0.6221  1.3267  0.2266
   31MOL0     H 4224  10.153   5.405   6.669  0.9150 -1.8395 -0.2456
   31MOL0     H 4225  10.111   5.234   6.868 -0.5283 -0.8688  2.1454
   31MOL0     H 4226  10.110   5.371   6.979 -0.9266 -0.7617  0.1530
   31MOL0     H 4227   9.911   5.292   6.645  1.1466 -1.1462  0.7255
   31MOL0     H 4228   9.536   5.307   6.756 -0.6472 -0.6068 -0.3786
   31MOL0     H 4229   9.627   5.251   6.622  0.5394  1.0890 -0.8360
   31MOL0     H 4230   9.529   5.515   6.684 -2.7005  0.3987 -0.8879
   31MOL0     H 4231   9.672   5.527   6.575 -3.7304  1.7646 -0.5636
   31MOL0     H 4232   9.430   5.383   6.495 -2.7336  1.3714 -4.5361
   31MOL0     H 4233   9.457   5.554   6.475 -1.8153 -1.7949  1.2409
   31MOL0     H 4234   9.505   5.426   6.258  3.6103  0.8595 -2.8835
   31MOL0     H 4235   9.643   5.503   6.331  1.0953 -1.5205  1.4401
   31MOL0     H 4236   9.725   5.444   6.143  0.8537 -0.1544 -1.8876
   31MOL0     H 4237   9.873   5.465   5.939  2.1435 -1.3716  5.0100
   31MOL0     H 4238   9.729   5.391   5.879  0.3555  2.3325  2.4969
   31MOL0     H 4239   9.887   5.332   5.823  0.9234  0.9521 -0.4594
   31MOL0     H 4240  10.018   4.885   5.660  0.5257 -0.6175 -1.0045
   31MOL0     H 4241  10.220   4.746   5.590  1.3750 -0.1211 -0.7633
   31MOL0     H 4242  10.384   4.796   5.488 -0.7908 -0.9840 -0.2356
   31MOL0     H 4243  10.558   4.765   5.533 -0.1674  2.9991  0.4501
   31MOL0     H 4244  10.518   4.531   5.511 -2.7216 -1.8855 -1.5754
   31MOL0     H 4245  10.369   4.544   5.592 -1.2475  2.0696 -0.1344
   31MOL0     H 4246  10.393   4.604   5.291 -1.4435  2.0636  0.6901
   31MOL0     H 4247  10.240   4.616   5.385 -0.6453 -0.6428 -1.7416
   31MOL0     H 4248  10.384   4.355   5.403  2.6720  2.0629 -0.8013
   31MOL0     H 4249  10.295   4.386   5.252 -2.1179 -2.0827  1.3582
   31MOL0     H 4250  10.155   4.386   5.525  2.4865  1.0710  0.5897
   31MOL0     H 4251  10.090   4.427   5.362  1.1997  2.6486  1.4845
   31MOL0     H 4252  10.228   4.173   5.424  1.8587  3.6205  0.8948
   31MOL0     H 4253  10.139   4.214   5.275  2.5860  1.1888 -0.9205
   31MOL0     H 4254   9.927   4.233   5.473 -3.0561 -3.0265 -2.9178
   31MOL0     H 4255  10.033   4.109   5.535  0.8859 -6.8916 -3.1548
   31MOL0     H 4256   9.946   4.086   5.253  3.6961 -5.2769 -0.8976
   31MOL0     H 4257   9.841   4.064   5.395  0.0539 -1.4302  1.4878
   31MOL0     H 4258  10.442   4.841   5.918  0.7324 -0.7555 -1.8825
   31MOL0     H 4259  10.248   4.960   6.030  0.7666  2.7346 -1.4864
   31MOL0     H 4260   9.894   4.977   6.168  0.8032  0.3673  0.8013
   31MOL0     H 4261   9.762   5.063   6.346  1.2502  0.5000  1.7482
   31MOL0     H 4262  10.841   5.997   6.828 -1.2407 -2.7238  0.3529
   31MOL0     H 4263  10.930   6.221   6.750 -0.6566 -1.4191  1.0590
   31MOL0     H 4264  10.954   6.384   6.191  4.0976  1.7571 -0.9566
   31MOL0     H 4265  10.994   6.597   6.060 -0.2760 -0.9638  0.2737
   31MOL0     H 4266  10.994   6.782   5.948 -1.2475  0.6230 -1.5326
   31MOL0     H 4267  10.956   6.954   5.963  0.3437  1.3004  1.0698
   31MOL0     H 4268  11.203   6.921   5.991  0.0741  2.8119  1.3920
   31MOL0     H 4269  11.177   6.810   6.124  0.4833  0.0269  3.0772
   31MOL0     H 4270  11.054   7.014   6.235 -0.8383 -2.5079 -1.0452
   31MOL0     H 4271  11.231   7.020   6.217  0.4507  3.5727 -1.1241
   31MOL0     H 4272  11.080   7.238   6.150 -1.2681 -1.7453  2.0374
   31MOL0     H 4273  11.031   7.149   6.008  2.0909  1.0259 -1.2545
   31MOL0     H 4274  11.407   7.279   5.893  2.0368 -0.5434  1.1526
   31MOL0     H 4275  10.767   6.827   6.339  0.3363  1.7114 -2.9046
   31MOL0     H 4276  10.813   6.609   6.608 -1.2504  0.3665  1.1946
   31MOL0     H 4277  10.701   6.739   6.551 -2.1162 -1.1697 -2.2654
   31MOL0     H 4278  10.647   6.576   6.547  0.2795  0.3233  2.4715
   32MOL0     O 4279   7.169   9.381   9.495  0.0550 -0.6093 -0.0476
   32MOL0     C 4280   7.078   9.334   9.430 -0.1147  1.1980 -0.0690
   32MOL0     O 4281   6.958   9.277   9.486  0.1931 -0.0716  0.6865
   32MOL0     C 4282   6.968   9.225   9.612 -1.1083 -0.7127  0.3174
   32MOL0     C 4283   7.055   9.115   9.623  1.3559 -1.0039  0.1957
   32MOL0     C 4284   7.071   9.065   9.752  0.2397 -0.3991  0.6672
   32MOL0     C 4285   7.020   9.125   9.867  0.3586  0.2889 -0.3333
   32MOL0     O 4286   7.054   9.068   9.989  0.1982  0.4112  0.3446
   32MOL0     C 4287   7.022   9.127  10.113 -0.2281 -0.6645 -0.4410
   32MOL0     C 4288   6.888   9.075  10.169  0.4512  0.6858 -0.4007
   32MOL0     C 4289   6.893   8.929  10.218 -0.6407  0.1075  0.6040
   32MOL0     C 4290   6.768   8.881  10.284  0.0936  0.1288  0.7056
   32MOL0     C 4291   6.793   8.738  10.323 -0.7894 -0.7272  0.0305
   32MOL0     C 4292   6.855   8.720  10.461  0.4941  0.5427  0.4605
   32MOL0     C 4293   6.894   8.565  10.498 -0.1956 -0.3968  0.1419
   32MOL0     C 4294   6.985   8.556  10.617 -0.0610 -0.1301 -0.8615
   32MOL0     N 4295   7.000   8.420  10.663 -1.0601 -0.5954  0.0115
   32MOL0     C 4296   7.082   8.317  10.607  0.0169 -1.0482 -0.2242
   32MOL0     C 4297   7.047   8.208  10.668  0.2479  0.2809 -1.3689
   32MOL0     C 4298   7.093   8.070  10.642  0.1601  0.5414 -0.0939
   32MOL0     C 4299   7.018   8.008  10.526 -0.0801 -0.5316 -0.0650
   32MOL0     C 4300   7.038   7.862  10.502  0.5283  0.4451  0.5105
   32MOL0     C 4301   6.947   7.818  10.385  0.6263 -0.2696 -0.2026
   32MOL0     O 4302   7.013   7.869  10.258 -0.3488  0.9957  0.7201
   32MOL0     C 4303   7.112   7.789  10.205  0.0411  0.2723  0.0485
   32MOL0     C 4304   7.193   7.851  10.111 -0.3325 -0.0073  0.5295
   32MOL0     C 4305   7.295   7.774  10.047  0.4172 -1.0074 -0.7718
   32MOL0     C 4306   7.392   7.857   9.963  0.6413 -0.2790  0.9952
   32MOL0     C 4307   7.302   7.627  10.055  1.0663  0.0214 -0.1446
   32MOL0     C 4308   7.393   7.541   9.967 -0.1356 -0.1572  0.0487
   32MOL0     O 4309   7.391   7.411  10.009 -0.5968 -0.5373 -0.1307
   32MOL0     C 4310   7.442   7.328   9.910 -0.2958 -0.5032 -0.2434
   32MOL0     C 4311   7.351   7.274   9.824  0.5359  0.7462 -0.4883
   32MOL0     C 4312   7.393   7.199   9.715 -0.5265  0.6534 -0.7719
   32MOL0     C 4313   7.530   7.171   9.690  0.3422 -0.2409 -0.8144
   32MOL0     O 4314   7.578   7.085   9.591 -0.0997  0.3368 -0.2589
   32MOL0     C 4315   7.510   7.077   9.467 -0.0761 -0.2187  0.2098
   32MOL0     C 4316   7.573   6.974   9.379  0.2658  0.4251 -0.4907
   32MOL0     C 4317   7.502   6.938   9.256 -0.5538 -0.5214  0.2725
   32MOL0     C 4318   7.545   7.033   9.140 -0.3214  0.3235 -0.1609
   32MOL0     C 4319   7.505   6.979   9.009  0.1454  0.6413  0.9514
   32MOL0     C 4320   7.359   6.946   8.977 -0.2131 -0.6523 -0.6746
   32MOL0     C 4321   7.257   7.055   8.992  0.1768  0.3236 -0.3366
   32MOL0     C 4322   7.160   7.065   8.881  0.3590 -0.1887  0.2226
   32MOL0    Cl 4323   7.048   7.203   8.896  0.0581 -0.5206  0.2199
   32MOL0     C 4324   7.616   7.206   9.787 -0.3284 -0.8052  0.2049
   32MOL0     C 4325   7.583   7.292   9.891  1.3277 -0.1285  0.2802
   32MOL0     O 4326   7.454   7.585   9.864 -0.2343  0.1783 -0.2910
   32MOL0     C 4327   7.213   7.565  10.149  0.9632  0.4799 -0.1338
   32MOL0     C 4328   7.130   7.645  10.222 -0.6222  0.2479 -0.9956
   32MOL0     N 4329   6.941   8.239  10.753  0.5367 -0.5983  0.2857
   32MOL0     N 4330   6.924   8.364  10.759  0.8015  0.0850  0.1398
   32MOL0     C 4331   6.925   9.227   9.851 -0.0581  0.2405 -0.5317
   32MOL0     C 4332   6.894   9.274   9.726  0.3924 -0.1781  0.3984
   32MOL0     C 4333   7.097   9.343   9.284 -0.6042 -0.3404  0.7719
   32MOL0     C 4334   7.221   9.398   9.237  0.0369  0.9065 -0.2909
   32MOL0     C 4335   7.249   9.436   9.112 -0.3736 -0.1568  0.2513
   32MOL0     C 4336   7.154   9.405   9.009 -0.3158 -0.1343  0.0895
   32MOL0     O 4337   7.170   9.452   8.883 -0.0324 -0.4959 -0.4083
   32MOL0     C 4338   7.248   9.387   8.782 -0.5756 -0.7866 -0.4204
   32MOL0     C 4339   7.401   9.396   8.817 -0.4677 -0.2929  0.0646
   32MOL0     C 4340   7.470   9.529   8.780  0.2156 -0.0088  0.1691
   32MOL0     C 4341   7.612   9.554   8.826 -0.6617  0.4383  0.7701
   32MOL0     C 4342   7.618   9.541   8.978  0.3655 -0.4659 -0.9910
   32MOL0     C 4343   7.616   9.517   9.099  0.1294 -0.6092  0.1722
   32MOL0     C 4344   7.041   9.340   9.059  0.8353 -0.1240  0.0282
   32MOL0     C 4345   7.011   9.301   9.191 -0.2562  0.9365  0.3132
   32MOL0     C 4346   6.872   9.236   9.208 -0.5727 -0.1088 -0.1768
   32MOL0     H 4347   7.120   9.078   9.544  0.2179 -2.2903 -0.1928
   32MOL0     H 4348   7.144   8.985   9.762 -0.4328 -0.9676  1.0909
   32MOL0     H 4349   7.007   9.233  10.094 -1.1802 -1.0329 -1.9042
   32MOL0     H 4350   7.107   9.110  10.180 -1.1450 -0.1726  0.9010
   32MOL0     H 4351   6.854   9.130  10.258 -2.0491 -0.5662 -0.4900
   32MOL0     H 4352   6.803   9.084  10.101 -0.8122  0.7019  1.1150
   32MOL0     H 4353   6.929   8.863  10.139  0.7371  1.6224 -0.0925
   32MOL0     H 4354   6.975   8.924  10.290 -2.3167  4.3272  3.1884
   32MOL0     H 4355   6.742   8.947  10.366 -0.5152  2.3703 -1.1838
   32MOL0     H 4356   6.682   8.879  10.215  2.0933  0.8076 -1.9614
   32MOL0     H 4357   6.848   8.677  10.251 -0.5472 -2.6066  1.7198
   32MOL0     H 4358   6.695   8.690  10.322 -2.0772  1.7155 -2.0926
   32MOL0     H 4359   6.946   8.780  10.464  0.5160  0.9472 -3.4810
   32MOL0     H 4360   6.779   8.750  10.533 -2.3979 -2.1908 -1.1997
   32MOL0     H 4361   6.947   8.518  10.416  4.7518  1.1407  2.0736
   32MOL0     H 4362   6.807   8.502  10.517 -0.0497 -0.5730  0.2314
   32MOL0     H 4363   7.074   8.614  10.593 -2.3566  4.8299  1.1265
   32MOL0     H 4364   6.942   8.604  10.706 -0.7069 -1.4280 -0.4538
   32MOL0     H 4365   7.148   8.337  10.523 -0.7175  3.2392 -0.0112
   32MOL0     H 4366   7.080   8.010  10.732 -1.0046 -0.2960 -0.7798
   32MOL0     H 4367   7.196   8.063  10.608 -0.4902 -0.0173 -2.1098
   32MOL0     H 4368   6.913   8.024  10.550  0.6243  2.3860  1.5425
   32MOL0     H 4369   7.026   8.060  10.431  0.1846 -2.2735 -1.0462
   32MOL0     H 4370   7.140   7.828  10.481 -0.2665 -0.6389 -2.0575
   32MOL0     H 4371   6.992   7.815  10.589 -0.3776 -0.4346 -0.4040
   32MOL0     H 4372   6.939   7.710  10.394  0.0282 -0.0813  1.9919
   32MOL0     H 4373   6.844   7.854  10.395  0.7467 -0.3056  1.2824
   32MOL0     H 4374   7.194   7.958  10.096  1.5439 -0.1643 -0.8240
   32MOL0     H 4375   7.497   7.827   9.973  1.2078  0.5455 -1.7916
   32MOL0     H 4376   7.383   7.963   9.987  1.6325  0.0040  0.1657
   32MOL0     H 4377   7.380   7.863   9.855  1.8603  0.5821  0.8888
   32MOL0     H 4378   7.245   7.295   9.841 -0.0314 -0.7055 -1.9623
   32MOL0     H 4379   7.321   7.170   9.639 -0.8519  3.3108 -1.5646
   32MOL0     H 4380   7.408   7.047   9.494 -0.4088  1.4026  0.9155
   32MOL0     H 4381   7.496   7.172   9.416 -1.4986 -0.3015  0.4016
   32MOL0     H 4382   7.677   7.004   9.363  0.3581 -0.6314 -2.0650
   32MOL0     H 4383   7.579   6.887   9.445 -0.1827 -0.2620 -1.3284
   32MOL0     H 4384   7.398   6.968   9.270  0.1699  3.1192 -0.9389
   32MOL0     H 4385   7.524   6.833   9.235  1.1510 -0.3263  0.8821
   32MOL0     H 4386   7.655   7.031   9.145 -0.3451  0.6950  0.7353
   32MOL0     H 4387   7.508   7.136   9.145 -0.1454  0.4401 -1.1084
   32MOL0     H 4388   7.522   7.067   8.946 -6.0900  2.3831  1.0423
   32MOL0     H 4389   7.564   6.892   8.979 -1.6584 -0.8481  1.4802
   32MOL0     H 4390   7.330   6.865   9.045  0.5372  0.3881  0.9438
   32MOL0     H 4391   7.358   6.915   8.872 -1.1543  0.8629 -1.1462
   32MOL0     H 4392   7.308   7.152   8.995  1.9497 -0.4427 -2.6158
   32MOL0     H 4393   7.203   7.046   9.086  2.4830  1.1457  1.1557
   32MOL0     H 4394   7.111   6.968   8.866 -3.8997  1.7157  0.3623
   32MOL0     H 4395   7.209   7.084   8.785 -3.6550  0.3570 -1.9365
   32MOL0     H 4396   7.720   7.175   9.773  0.0464  0.7603 -0.7944
   32MOL0     H 4397   7.657   7.337   9.957  2.5390 -1.5668 -0.0381
   32MOL0     H 4398   7.202   7.458  10.163  4.7616 -0.1693 -0.9593
   32MOL0     H 4399   7.067   7.596  10.296  1.0835 -2.2375 -1.0875
   32MOL0     H 4400   6.888   9.284   9.935  2.3288  0.3148  0.5400
   32MOL0     H 4401   6.829   9.358   9.703 -2.4564 -2.2148  0.4882
   32MOL0     H 4402   7.304   9.426   9.300 -1.2001  0.0188  1.8567
   32MOL0     H 4403   7.339   9.488   9.082 -1.6525  1.6171 -0.7139
   32MOL0     H 4404   7.210   9.285   8.773 -0.8372 -0.6797 -0.5600
   32MOL0     H 4405   7.232   9.431   8.683 -2.0523 -3.1273 -1.2879
   32MOL0     H 4406   7.457   9.318   8.765 -1.1859 -1.1785  0.5879
   32MOL0     H 4407   7.399   9.371   8.924 -2.4112  0.4586  0.2526
   32MOL0     H 4408   7.466   9.528   8.671 -0.3000 -1.0479  0.1897
   32MOL0     H 4409   7.412   9.618   8.806  1.1642  0.2747  1.4327
   32MOL0     H 4410   7.641   9.655   8.795  1.2799 -0.3590 -0.1601
   32MOL0     H 4411   7.675   9.480   8.776  0.9454  0.2399  2.9254
   32MOL0     H 4412   7.620   9.501   9.205 -0.3619  1.3354  0.5108
   32MOL0     H 4413   6.962   9.331   8.984 -1.8913  0.5933  2.6265
   32MOL0     H 4414   6.820   9.282   9.292  1.1659 -0.4483  1.1484
   32MOL0     H 4415   6.811   9.242   9.117 -0.1677 -0.1137 -0.4512
   32MOL0     H 4416   6.908   9.135   9.225 -0.0654 -0.6060 -3.4926
   33MOL0     O 4417   2.656  10.857  11.384  0.2925 -0.3485  0.4051
   33MOL0     C 4418   2.611  10.969  11.365 -0.2884  0.4824 -0.0291
   33MOL0     O 4419   2.686  11.086  11.351  0.6229  0.0259  0.1021
   33MOL0     C 4420   2.815  11.059  11.329 -0.5132  0.0579  0.2695
   33MOL0     C 4421   2.895  11.027  11.442  0.2829 -0.3295  0.0457
   33MOL0     C 4422   3.027  10.997  11.423 -0.5730 -0.4116  0.3196
   33MOL0     C 4423   3.080  10.999  11.286 -0.2785  0.2225  0.0533
   33MOL0     O 4424   3.210  10.971  11.264  1.0306 -0.1245 -1.1632
   33MOL0     C 4425   3.268  10.971  11.134 -0.0586 -0.3117 -0.9710
   33MOL0     C 4426   3.411  10.958  11.170 -0.6757  1.0493  0.9212
   33MOL0     C 4427   3.505  10.912  11.047 -0.6532 -0.1899  0.2975
   33MOL0     C 4428   3.511  10.753  11.032 -0.7681  0.5319  0.3777
   33MOL0     C 4429   3.565  10.706  10.890  0.1242 -0.6605  0.2704
   33MOL0     C 4430   3.535  10.546  10.877  0.7289  0.5069  0.3604
   33MOL0     C 4431   3.612  10.466  10.980  0.3996 -0.0786 -0.9025
   33MOL0     C 4432   3.560  10.319  10.986  0.0472  0.8104 -0.6090
   33MOL0     N 4433   3.615  10.236  10.877  0.6221  0.5924  0.0698
   33MOL0     C 4434   3.752  10.209  10.863  0.0948 -0.3264 -0.0907
   33MOL0     C 4435   3.761  10.124  10.760  0.3773  0.1118 -0.4045
   33MOL0     C 4436   3.883  10.058  10.706 -0.4874 -0.0225 -0.6682
   33MOL0     C 4437   3.907  10.050  10.552 -0.8261 -0.2020  0.2917
   33MOL0     C 4438   4.048   9.987  10.527 -0.3523  0.4237 -0.2291
   33MOL0     C 4439   4.091  10.005  10.386 -0.5041  0.2723  0.4780
   33MOL0     O 4440   4.092  10.143  10.351  0.3589  0.1122 -0.3265
   33MOL0     C 4441   4.212  10.219  10.361  0.5400  0.1882  0.9822
   33MOL0     C 4442   4.330  10.179  10.422 -0.3335 -0.4744 -0.3216
   33MOL0     C 4443   4.438  10.268  10.439  0.2930 -1.1298  0.5142
   33MOL0     C 4444   4.549  10.228  10.524 -0.7077 -0.5816 -0.4761
   33MOL0     C 4445   4.431  10.397  10.372 -0.2154 -0.9181  0.1380
   33MOL0     C 4446   4.526  10.502  10.400  0.1145 -0.3839  0.0190
   33MOL0     O 4447   4.660  10.462  10.401 -0.4261 -0.7279  0.0507
   33MOL0     C 4448   4.739  10.574  10.418 -0.0041  0.2099  0.8187
   33MOL0     C 4449   4.832  10.570  10.522  0.4495 -0.1813  1.2384
   33MOL0     C 4450   4.909  10.685  10.544  0.0512 -1.1184  0.1018
   33MOL0     C 4451   4.893  10.799  10.459 -0.7109 -0.1662 -0.7235
   33MOL0     O 4452   4.961  10.920  10.483 -0.0920 -0.6131  0.1226
   33MOL0     C 4453   4.942  11.027  10.380 -0.2458  0.0594  0.1115
   33MOL0     C 4454   4.999  11.162  10.428  0.0027  0.4546  0.0436
   33MOL0     C 4455   4.940  11.275  10.346  1.1549  0.1646  0.1058
   33MOL0     C 4456   4.997  11.298  10.206 -0.4806  0.3610  0.9699
   33MOL0     C 4457   4.941  11.430  10.133  0.1646  0.6797 -0.8297
   33MOL0     C 4458   5.051  11.503  10.057 -0.3472 -0.2017  0.5298
   33MOL0     C 4459   4.990  11.636   9.995  0.3725  0.8646  0.1872
   33MOL0     C 4460   5.001  11.755  10.084  0.1623  0.3585  1.0585
   33MOL0    Cl 4461   5.166  11.818  10.084 -0.1411  0.2019  0.0076
   33MOL0     C 4462   4.822  10.783  10.341  0.7891  1.0597 -0.4840
   33MOL0     C 4463   4.743  10.672  10.323  0.1786  0.1749  0.1679
   33MOL0     O 4464   4.481  10.612  10.429 -0.5487  0.2332 -0.3100
   33MOL0     C 4465   4.315  10.429  10.299 -0.3220 -0.6612 -0.0122
   33MOL0     C 4466   4.209  10.346  10.300  0.1529  0.1275  0.5522
   33MOL0     N 4467   3.626  10.088  10.729 -0.6657  0.0209  0.2927
   33MOL0     N 4468   3.544  10.163  10.792  0.1350  0.4676 -0.4713
   33MOL0     C 4469   3.001  11.046  11.183  0.5640 -0.2233  0.1399
   33MOL0     C 4470   2.865  11.073  11.198 -0.2738  0.8233  0.1848
   33MOL0     C 4471   2.463  10.991  11.347 -0.2861  0.4816  0.2800
   33MOL0     C 4472   2.419  11.133  11.354 -1.1768 -0.4652 -0.0447
   33MOL0     C 4473   2.285  11.161  11.354 -0.4893 -0.5369 -0.0780
   33MOL0     C 4474   2.186  11.058  11.328  0.4106 -0.8869 -0.9040
   33MOL0     O 4475   2.047  11.090  11.315  0.1530  0.4746 -0.6989
   33MOL0     C 4476   2.011  11.202  11.237 -0.1538  0.3389  0.7056
   33MOL0     C 4477   1.967  11.330  11.310 -0.1401  0.3107  0.3136
   33MOL0     C 4478   1.928  11.426  11.207  0.2821  0.1020  0.0431
   33MOL0     C 4479   1.895  11.568  11.269  0.7925  0.1678  0.0699
   33MOL0     C 4480   1.808  11.647  11.179  0.0600  0.3233 -0.2707
   33MOL0     C 4481   1.759  11.708  11.088 -0.6967 -0.0816 -0.2453
   33MOL0     C 4482   2.237  10.935  11.331  0.5014  0.1977  0.2585
   33MOL0     C 4483   2.369  10.897  11.332 -0.2513  0.0709 -0.2369
   33MOL0     C 4484   2.389  10.747  11.324  0.8547  0.2988 -0.9802
   33MOL0     H 4485   2.840  11.003  11.532 -1.7496 -1.4139 -1.3978
   33MOL0     H 4486   3.088  10.968  11.509  1.9685 -3.1680 -2.1766
   33MOL0     H 4487   3.258  11.070  11.090  0.1964 -0.2758 -0.9531
   33MOL0     H 4488   3.229  10.890  11.071  2.0359 -0.0305 -2.7568
   33MOL0     H 4489   3.450  11.058  11.192 -3.3729  2.9091 -1.9515
   33MOL0     H 4490   3.416  10.898  11.262  1.2202 -1.5418 -0.7340
   33MOL0     H 4491   3.487  10.959  10.950  2.7406 -1.2617 -0.9940
   33MOL0     H 4492   3.604  10.951  11.072 -1.3029 -0.3785  3.6184
   33MOL0     H 4493   3.595  10.721  11.093  0.1316 -0.2377 -1.1995
   33MOL0     H 4494   3.418  10.707  11.065  0.3228 -0.9125  1.5268
   33MOL0     H 4495   3.673  10.718  10.882  0.4276 -1.1808  2.6605
   33MOL0     H 4496   3.516  10.761  10.809 -1.2124 -2.3343 -0.1109
   33MOL0     H 4497   3.428  10.531  10.894  0.7760  3.7526  6.1921
   33MOL0     H 4498   3.569  10.516  10.777  1.4099  1.7157  0.2092
   33MOL0     H 4499   3.597  10.510  11.079 -0.6041 -1.1377 -0.5561
   33MOL0     H 4500   3.714  10.465  10.943  0.9843 -0.4456  0.6342
   33MOL0     H 4501   3.606  10.283  11.079  0.2240 -0.2613 -1.0968
   33MOL0     H 4502   3.451  10.314  10.985 -0.2390  3.2619  2.5477
   33MOL0     H 4503   3.830  10.246  10.929  1.5282  0.0330 -1.9089
   33MOL0     H 4504   3.885   9.956  10.745 -0.7156 -0.9685 -2.9270
   33MOL0     H 4505   3.967  10.112  10.750 -0.9345  1.4062 -1.4974
   33MOL0     H 4506   3.824   9.995  10.507 -0.3320 -2.7171  2.2316
   33MOL0     H 4507   3.901  10.155  10.521 -0.9975 -0.5834 -1.0131
   33MOL0     H 4508   4.117  10.040  10.594 -0.3649 -0.5547  0.5890
   33MOL0     H 4509   4.046   9.881  10.556  0.7318  0.3159 -0.4834
   33MOL0     H 4510   4.192   9.963  10.376  0.1643  1.6229  1.3558
   33MOL0     H 4511   4.021   9.951  10.321 -0.5263 -0.5354  1.1502
   33MOL0     H 4512   4.330  10.087  10.479 -2.9491  0.0553  0.6953
   33MOL0     H 4513   4.649  10.244  10.484  0.5249  2.8907  3.3422
   33MOL0     H 4514   4.554  10.121  10.547 -1.9645 -0.6258 -0.3461
   33MOL0     H 4515   4.563  10.289  10.613 -2.8537  0.9756 -1.1239
   33MOL0     H 4516   4.827  10.489  10.595 -0.3924 -0.5299  0.8109
   33MOL0     H 4517   4.966  10.682  10.636 -0.5426  3.5467  0.8457
   33MOL0     H 4518   4.982  10.989  10.285 -1.0794  2.3265 -1.2420
   33MOL0     H 4519   4.837  11.056  10.380 -0.4319 -0.5936  0.7636
   33MOL0     H 4520   4.973  11.173  10.534  2.5182  1.3934  0.6283
   33MOL0     H 4521   5.107  11.147  10.431  0.2308  2.0814  2.2578
   33MOL0     H 4522   4.948  11.368  10.402 -0.1840 -0.5582  1.5670
   33MOL0     H 4523   4.834  11.251  10.334  0.9190  1.6425 -0.9709
   33MOL0     H 4524   5.003  11.212  10.139 -1.6107  2.2682 -1.7705
   33MOL0     H 4525   5.104  11.314  10.219  0.1064  0.4227 -2.7458
   33MOL0     H 4526   4.872  11.396  10.055  0.2129  0.8337 -0.9400
   33MOL0     H 4527   4.890  11.485  10.212  1.4047 -0.1214  0.5679
   33MOL0     H 4528   5.097  11.445   9.977  3.9705  3.8472 -0.3959
   33MOL0     H 4529   5.131  11.528  10.128  0.6010 -3.2265  0.6536
   33MOL0     H 4530   4.884  11.628   9.969 -1.5095  2.4015  6.0018
   33MOL0     H 4531   5.039  11.642   9.898 -0.7754 -1.3892 -0.6171
   33MOL0     H 4532   4.970  11.729  10.186 -0.6118  2.1437  1.3269
   33MOL0     H 4533   4.924  11.826  10.052 -0.1123  0.2106  1.3781
   33MOL0     H 4534   4.825  10.859  10.264  0.8983  0.3795 -1.1561
   33MOL0     H 4535   4.684  10.673  10.232 -2.2734 -0.0669  1.6390
   33MOL0     H 4536   4.303  10.531  10.263  2.1214  0.6809  2.5481
   33MOL0     H 4537   4.116  10.365  10.246  0.2624  1.6219  0.8331
   33MOL0     H 4538   3.027  11.068  11.080 -2.5629  0.5913 -0.5770
   33MOL0     H 4539   2.795  11.080  11.116 -1.7241 -1.6461  1.1042
   33MOL0     H 4540   2.499  11.200  11.385 -2.0558 -0.0843  1.5116
   33MOL0     H 4541   2.262  11.266  11.369  3.1162  0.3061  0.5533
   33MOL0     H 4542   2.090  11.229  11.165 -1.8041  2.4333 -0.4599
   33MOL0     H 4543   1.941  11.176  11.157  0.7769 -0.0368 -0.0029
   33MOL0     H 4544   2.050  11.360  11.375  2.1288 -2.4702 -1.0591
   33MOL0     H 4545   1.869  11.316  11.356  0.2580 -1.8770  0.6164
   33MOL0     H 4546   1.988  11.453  11.119 -2.8986 -0.2312 -2.3974
   33MOL0     H 4547   1.842  11.382  11.156  0.9801  0.3167 -1.3690
   33MOL0     H 4548   1.994  11.610  11.290  0.3146  1.6862 -0.6048
   33MOL0     H 4549   1.848  11.544  11.364  3.3509 -0.6655  1.2141
   33MOL0     H 4550   1.733  11.764  11.000 -4.5111 -1.9702 -0.5561
   33MOL0     H 4551   2.157  10.861  11.327 -0.2539  0.9193  1.3664
   33MOL0     H 4552   2.308  10.692  11.276 -1.4098  1.9245  0.7340
   33MOL0     H 4553   2.490  10.724  11.290  1.4980  2.2234 -0.4663
   33MOL0     H 4554   2.374  10.712  11.427 -1.4542 -0.2204 -1.4351
   34MOL0     O 4555   3.747   5.797   1.092 -0.2067  1.0799  0.8901
   34MOL0     C 4556   3.861   5.743   1.076  0.1395 -0.4894  0.0535
   34MOL0     O 4557   3.877   5.616   1.039 -0.4477 -0.9002  0.7817
   34MOL0     C 4558   3.777   5.546   0.973 -0.2829  0.1674 -0.2663
   34MOL0     C 4559   3.704   5.595   0.862 -0.6573  0.9959  0.3214
   34MOL0     C 4560   3.603   5.524   0.802 -0.2325 -0.2426  0.2843
   34MOL0     C 4561   3.560   5.411   0.863 -0.4525  0.5819 -0.1826
   34MOL0     O 4562   3.454   5.326   0.823 -0.5347  0.3841  0.5031
   34MOL0     C 4563   3.445   5.300   0.683  0.2791  1.0162  0.5403
   34MOL0     C 4564   3.443   5.141   0.668  0.2220  0.5038  0.2230
   34MOL0     C 4565   3.316   5.098   0.584 -0.2668 -0.7636 -0.2733
   34MOL0     C 4566   3.336   4.959   0.514  0.7832 -0.8705 -0.4343
   34MOL0     C 4567   3.203   4.896   0.465  0.8589 -0.0116 -0.5859
   34MOL0     C 4568   3.232   4.792   0.362 -0.4553 -0.4586  0.2786
   34MOL0     C 4569   3.118   4.695   0.330  0.2559 -0.2901  0.4210
   34MOL0     C 4570   3.160   4.578   0.244  0.2297 -0.1285  0.2424
   34MOL0     N 4571   3.206   4.620   0.107  0.3470  0.5489  0.4871
   34MOL0     C 4572   3.332   4.601   0.056  0.0789 -0.4533  0.2748
   34MOL0     C 4573   3.326   4.627  -0.070 -0.3677 -0.8654  0.8325
   34MOL0     C 4574   3.441   4.617  -0.170  0.4681  0.7767  0.4290
   34MOL0     C 4575   3.553   4.522  -0.118  0.2000  0.0388  0.2255
   34MOL0     C 4576   3.663   4.509  -0.216 -0.5900  0.7301 -0.7937
   34MOL0     C 4577   3.738   4.626  -0.280  0.2017  0.3872  0.9902
   34MOL0     O 4578   3.794   4.711  -0.180  1.3112 -0.2311  0.2363
   34MOL0     C 4579   3.864   4.828  -0.212 -0.2372 -0.1558 -0.2592
   34MOL0     C 4580   3.869   4.929  -0.122  0.1099  0.1913 -0.1643
   34MOL0     C 4581   3.929   5.048  -0.151 -0.3347  0.6587 -0.3783
   34MOL0     C 4582   3.919   5.154  -0.033  0.0766  0.8762  0.5993
   34MOL0     C 4583   3.967   5.081  -0.285  0.6432 -0.2700  0.0209
   34MOL0     C 4584   3.983   5.223  -0.326 -0.3570 -0.3493 -0.1391
   34MOL0     O 4585   3.997   5.247  -0.461 -0.0225 -0.6094 -0.1620
   34MOL0     C 4586   4.034   5.365  -0.516  0.4194  0.8509 -0.1557
   34MOL0     C 4587   3.982   5.483  -0.466 -0.9949 -0.0182  1.2513
   34MOL0     C 4588   4.005   5.606  -0.542 -0.4423  0.8301  0.0549
   34MOL0     C 4589   4.084   5.604  -0.655  0.7970 -0.1552  0.2049
   34MOL0     O 4590   4.089   5.721  -0.729 -0.4804 -0.2470 -0.7772
   34MOL0     C 4591   4.203   5.730  -0.819 -0.5684 -0.1684 -0.0618
   34MOL0     C 4592   4.261   5.869  -0.801  0.1386 -0.0356  0.4499
   34MOL0     C 4593   4.325   5.909  -0.673 -0.2245  1.5903 -0.4568
   34MOL0     C 4594   4.459   5.842  -0.631 -0.2810  1.6195 -0.7505
   34MOL0     C 4595   4.558   5.925  -0.544  0.5666 -0.5274  0.6074
   34MOL0     C 4596   4.674   5.837  -0.492 -0.1211  0.5631  0.7944
   34MOL0     C 4597   4.763   5.760  -0.587 -0.3171  0.1763 -0.1390
   34MOL0     C 4598   4.835   5.852  -0.683  0.6216  0.4561  0.1425
   34MOL0    Cl 4599   4.852   5.774  -0.838  0.3302  0.4096 -0.4802
   34MOL0     C 4600   4.126   5.484  -0.699 -1.2107  0.8759 -0.2422
   34MOL0     C 4601   4.105   5.366  -0.635  0.5980  0.5817 -0.3918
   34MOL0     O 4602   4.013   5.299  -0.238  0.4774 -0.5477  0.2848
   34MOL0     C 4603   3.970   4.977  -0.373  0.2083 -0.0850  0.6468
   34MOL0     C 4604   3.922   4.845  -0.337  0.3887  0.7206 -0.0173
   34MOL0     N 4605   3.193   4.661  -0.101  0.3190  1.5421  0.7877
   34MOL0     N 4606   3.124   4.656   0.003  0.6941  0.9690  0.6066
   34MOL0     C 4607   3.613   5.366   0.986 -0.8686 -0.0727 -0.6802
   34MOL0     C 4608   3.728   5.421   1.034  0.4167  0.7647  0.8630
   34MOL0     C 4609   3.975   5.831   1.103 -0.5713 -0.2499  0.2063
   34MOL0     C 4610   4.100   5.773   1.109  0.0703  0.3509 -0.1577
   34MOL0     C 4611   4.212   5.848   1.136  0.3975  1.1594  0.1124
   34MOL0     C 4612   4.203   5.984   1.161  0.6112 -0.1646  0.0340
   34MOL0     O 4613   4.328   6.047   1.190  0.7366  0.3045 -1.0864
   34MOL0     C 4614   4.351   6.184   1.226 -0.0814 -0.7074 -0.2109
   34MOL0     C 4615   4.380   6.263   1.091  0.9087 -0.1314  0.2530
   34MOL0     C 4616   4.509   6.221   1.014 -0.2274  1.0629 -0.0184
   34MOL0     C 4617   4.534   6.303   0.876 -0.1225  0.7074  0.7514
   34MOL0     C 4618   4.586   6.439   0.903  0.0952  1.0207 -0.0690
   34MOL0     C 4619   4.617   6.551   0.932  0.5939 -0.3513  1.5075
   34MOL0     C 4620   4.081   6.043   1.139 -0.2380 -1.1485 -0.3683
   34MOL0     C 4621   3.968   5.976   1.104  1.0999  0.4318  0.4941
   34MOL0     C 4622   3.841   6.042   1.066 -0.3340  0.3197  0.3897
   34MOL0     H 4623   3.736   5.697   0.843  2.8461  0.3666  1.9132
   34MOL0     H 4624   3.561   5.555   0.707  1.8149  0.3881 -0.4682
   34MOL0     H 4625   3.534   5.335   0.629 -0.0827 -1.5130 -1.9294
   34MOL0     H 4626   3.361   5.362   0.649  0.1662  1.1863  1.1225
   34MOL0     H 4627   3.527   5.105   0.608 -0.2937 -0.8397  0.2699
   34MOL0     H 4628   3.436   5.103   0.770  0.2358 -0.1414 -0.0150
   34MOL0     H 4629   3.232   5.107   0.653  1.6552  0.2082  2.1082
   34MOL0     H 4630   3.307   5.170   0.502  1.4012 -0.3497 -0.1475
   34MOL0     H 4631   3.409   4.965   0.432  0.4596  0.7197 -0.6292
   34MOL0     H 4632   3.362   4.876   0.580  0.3009 -1.1359 -0.5720
   34MOL0     H 4633   3.147   4.976   0.416 -0.2484  0.1438  0.8360
   34MOL0     H 4634   3.147   4.858   0.552 -0.9772  2.4209 -0.6150
   34MOL0     H 4635   3.255   4.849   0.272 -0.0233 -0.1571  0.5714
   34MOL0     H 4636   3.321   4.731   0.381  0.2904 -0.1501 -1.9135
   34MOL0     H 4637   3.040   4.757   0.285  1.0788  2.0466  2.0430
   34MOL0     H 4638   3.069   4.658   0.421  1.6995 -2.0304  0.5383
   34MOL0     H 4639   3.246   4.528   0.290 -0.3225 -0.6022  0.7669
   34MOL0     H 4640   3.087   4.497   0.250 -0.3176  0.4875  2.6759
   34MOL0     H 4641   3.419   4.576   0.116 -0.0948 -0.5312  0.4943
   34MOL0     H 4642   3.468   4.719  -0.197 -2.2385  1.5787  0.4895
   34MOL0     H 4643   3.421   4.560  -0.261  2.4896 -2.0060  1.5886
   34MOL0     H 4644   3.595   4.578  -0.034  0.8072  2.1977 -1.4396
   34MOL0     H 4645   3.524   4.420  -0.090  1.4543 -0.4061 -0.0515
   34MOL0     H 4646   3.750   4.462  -0.170 -2.1336  0.5831  2.2393
   34MOL0     H 4647   3.629   4.439  -0.293 -3.0762  1.2630 -0.2506
   34MOL0     H 4648   3.822   4.586  -0.339  0.2991 -2.5643  2.9207
   34MOL0     H 4649   3.668   4.677  -0.347  1.6818  4.2583  2.1148
   34MOL0     H 4650   3.829   4.920  -0.022  1.9007  0.3329  0.6066
   34MOL0     H 4651   3.832   5.217  -0.054  0.6270  1.1614 -0.9619
   34MOL0     H 4652   4.003   5.224  -0.021 -0.3958  1.6929 -0.6206
   34MOL0     H 4653   3.902   5.101   0.061  3.0475 -2.2516 -0.4376
   34MOL0     H 4654   3.930   5.491  -0.371  0.2053  2.5995  1.7690
   34MOL0     H 4655   3.986   5.699  -0.489  1.3483  0.4101  1.5691
   34MOL0     H 4656   4.283   5.658  -0.798  0.9812  1.6305  0.5007
   34MOL0     H 4657   4.171   5.706  -0.921 -1.0704 -1.3206  0.3537
   34MOL0     H 4658   4.337   5.891  -0.877 -0.5527  0.0843 -0.2173
   34MOL0     H 4659   4.183   5.943  -0.820 -0.1865 -0.7738 -1.2988
   34MOL0     H 4660   4.245   5.904  -0.597  0.2270  0.9314 -0.0129
   34MOL0     H 4661   4.350   6.015  -0.678  1.3909  1.4516  2.3377
   34MOL0     H 4662   4.506   5.804  -0.722 -3.3176 -1.7575 -1.1199
   34MOL0     H 4663   4.435   5.753  -0.573  3.8998  1.3234  0.8383
   34MOL0     H 4664   4.604   6.003  -0.606  2.2484 -0.4211  1.9239
   34MOL0     H 4665   4.517   5.980  -0.459  4.0418  1.4858  1.1948
   34MOL0     H 4666   4.637   5.766  -0.417 -0.6786  2.2708  2.2158
   34MOL0     H 4667   4.731   5.906  -0.428  0.3007  1.4377 -0.4823
   34MOL0     H 4668   4.703   5.686  -0.640  1.0698 -0.7470 -0.4716
   34MOL0     H 4669   4.845   5.705  -0.540 -0.0632 -0.0075 -0.7911
   34MOL0     H 4670   4.926   5.883  -0.632  0.5542  1.7663 -0.4855
   34MOL0     H 4671   4.774   5.943  -0.697  0.2707 -0.1805 -3.5404
   34MOL0     H 4672   4.173   5.473  -0.797  1.7193 -1.9572  1.3043
   34MOL0     H 4673   4.146   5.275  -0.679  2.8899  0.9408  0.8592
   34MOL0     H 4674   3.982   4.979  -0.481 -0.1886 -0.6771  0.5842
   34MOL0     H 4675   3.916   4.764  -0.409 -2.1914  2.2023 -1.6354
   34MOL0     H 4676   3.571   5.282   1.042 -0.8917  0.0756 -0.4732
   34MOL0     H 4677   3.770   5.383   1.127 -1.7915 -0.0450  1.5820
   34MOL0     H 4678   4.110   5.665   1.103 -3.0544  0.0764 -2.6068
   34MOL0     H 4679   4.312   5.806   1.134 -0.5593 -1.1918 -1.6537
   34MOL0     H 4680   4.262   6.213   1.282  0.7775 -1.7828  1.8093
   34MOL0     H 4681   4.436   6.197   1.293 -0.5859  3.2949 -0.1162
   34MOL0     H 4682   4.391   6.370   1.107 -1.3755  0.7358 -3.0492
   34MOL0     H 4683   4.283   6.258   1.041 -0.8928  2.2715  3.1393
   34MOL0     H 4684   4.600   6.220   1.075 -0.0890 -0.7457 -0.1989
   34MOL0     H 4685   4.496   6.117   0.983  0.5775  1.0168 -0.2354
   34MOL0     H 4686   4.450   6.300   0.806  0.2896 -0.0332  0.2856
   34MOL0     H 4687   4.615   6.253   0.824  0.8787 -1.9632  4.4497
   34MOL0     H 4688   4.643   6.655   0.938 -1.0154  0.1568  0.2573
   34MOL0     H 4689   4.068   6.151   1.147 -0.9256 -1.2588  0.1568
   34MOL0     H 4690   3.862   6.147   1.044 -1.8021  1.6753  4.5585
   34MOL0     H 4691   3.802   6.000   0.973  0.1366  1.4321 -0.3334
   34MOL0     H 4692   3.764   6.032   1.142 -1.1735 -1.2686 -0.6204
   35MOL0     O 4693   3.159   2.249   3.759  0.0629 -0.5025 -0.5435
   35MOL0     C 4694   3.266   2.217   3.708  0.0899  0.6046 -0.5956
   35MOL0     O 4695   3.339   2.286   3.611 -0.0430  0.4146  0.1251
   35MOL0     C 4696   3.317   2.418   3.610  0.0695  0.1034 -0.2797
   35MOL0     C 4697   3.333   2.484   3.490  0.0841  1.2476  0.5262
   35MOL0     C 4698   3.312   2.621   3.461 -0.0273  0.6030  0.1744
   35MOL0     C 4699   3.262   2.690   3.574  0.6241  0.0757  0.2113
   35MOL0     O 4700   3.237   2.827   3.546  0.7728 -0.5136  0.4619
   35MOL0     C 4701   3.246   2.916   3.662  0.1447 -0.4480  0.3962
   35MOL0     C 4702   3.242   3.065   3.624 -0.2904  0.2001  0.0543
   35MOL0     C 4703   3.378   3.096   3.571  0.2066 -0.3850  0.7130
   35MOL0     C 4704   3.376   3.248   3.542 -0.3785 -0.0940  0.4096
   35MOL0     C 4705   3.503   3.295   3.472 -0.1582 -0.1790 -1.3496
   35MOL0     C 4706   3.523   3.255   3.325 -0.3213  0.1611 -0.0739
   35MOL0     C 4707   3.435   3.330   3.231  0.0080 -0.0025  0.0747
   35MOL0     C 4708   3.468   3.482   3.224  0.1032 -0.4405  0.1158
   35MOL0     N 4709   3.383   3.568   3.308 -0.1980  0.0736  1.3433
   35MOL0     C 4710   3.248   3.561   3.308  0.5909  0.4788 -0.6218
   35MOL0     C 4711   3.214   3.663   3.392 -0.7007 -0.6952  0.1854
   35MOL0     C 4712   3.060   3.678   3.416  0.1269 -1.0559 -0.1690
   35MOL0     C 4713   3.028   3.788   3.515  0.2090  0.1105  0.4138
   35MOL0     C 4714   2.875   3.753   3.559 -0.6173 -0.6290 -0.5858
   35MOL0     C 4715   2.808   3.885   3.612 -0.3491 -0.0201 -0.0264
   35MOL0     O 4716   2.809   3.988   3.511 -0.4215  0.5789  0.8767
   35MOL0     C 4717   2.695   3.969   3.430 -0.2897  0.7109  0.2596
   35MOL0     C 4718   2.573   4.025   3.468 -0.0290 -0.2741  0.3030
   35MOL0     C 4719   2.452   4.021   3.389  0.5930  0.4859 -0.3189
   35MOL0     C 4720   2.333   4.099   3.446  0.0697 -0.3783  0.0888
   35MOL0     C 4721   2.438   3.931   3.280  0.2889  1.1563 -0.2436
   35MOL0     C 4722   2.321   3.897   3.198  0.6538 -0.3590  0.4873
   35MOL0     O 4723   2.197   3.943   3.232  0.3212  0.4872 -0.3024
   35MOL0     C 4724   2.084   3.889   3.166 -0.0651 -0.8386  1.0452
   35MOL0     C 4725   2.067   3.753   3.146 -0.2746 -0.5800  0.2968
   35MOL0     C 4726   1.964   3.707   3.070  0.9408 -0.1849 -0.6032
   35MOL0     C 4727   1.877   3.804   3.007 -0.2526 -0.1553 -0.5401
   35MOL0     O 4728   1.775   3.779   2.914  0.6409  0.2832 -0.2106
   35MOL0     C 4729   1.708   3.649   2.922  0.0835 -0.6955 -0.5848
   35MOL0     C 4730   1.571   3.626   2.852  0.9660 -0.0249 -0.1730
   35MOL0     C 4731   1.468   3.736   2.904 -0.1930  0.1007 -0.4918
   35MOL0     C 4732   1.499   3.877   2.843  0.6153  1.1032  0.1737
   35MOL0     C 4733   1.380   3.974   2.821 -0.1757  0.1733 -0.1173
   35MOL0     C 4734   1.424   4.092   2.736  0.3357 -0.1022  0.5822
   35MOL0     C 4735   1.303   4.185   2.710  1.2282  0.5813  1.3359
   35MOL0     C 4736   1.317   4.248   2.575  0.2589 -0.1774 -0.0125
   35MOL0    Cl 4737   1.277   4.125   2.444  0.2574 -0.5349 -0.0373
   35MOL0     C 4738   1.907   3.939   3.016  0.8711 -0.6309 -0.2675
   35MOL0     C 4739   2.008   3.988   3.100  0.3154 -0.8139  0.7088
   35MOL0     O 4740   2.343   3.832   3.094  1.0840 -0.5738  0.0329
   35MOL0     C 4741   2.567   3.878   3.232  0.2859  0.9852 -0.7975
   35MOL0     C 4742   2.688   3.898   3.313  0.5687 -0.3902  0.5536
   35MOL0     N 4743   3.322   3.737   3.435  0.1563  0.3775  0.4347
   35MOL0     N 4744   3.424   3.675   3.379  1.0015  0.6219 -0.1294
   35MOL0     C 4745   3.255   2.629   3.698  0.5766 -0.8256 -0.6294
   35MOL0     C 4746   3.284   2.497   3.722  0.9223 -0.7377 -0.2102
   35MOL0     C 4747   3.320   2.081   3.748 -0.0526 -0.3392 -0.4729
   35MOL0     C 4748   3.444   2.050   3.684  1.2233 -0.9670 -1.0896
   35MOL0     C 4749   3.495   1.923   3.688  0.1661 -0.0902  0.6686
   35MOL0     C 4750   3.436   1.822   3.753 -0.6572 -0.4095  0.4380
   35MOL0     O 4751   3.498   1.688   3.750  0.0218  0.2486 -0.5059
   35MOL0     C 4752   3.458   1.589   3.848  0.1744  0.0678 -0.6151
   35MOL0     C 4753   3.364   1.489   3.772  0.7635  0.0519 -0.1527
   35MOL0     C 4754   3.435   1.391   3.679  0.0867  0.2241  0.4986
   35MOL0     C 4755   3.331   1.316   3.591 -0.3329  1.0240 -0.6867
   35MOL0     C 4756   3.272   1.213   3.676  0.2464  0.1766 -0.4532
   35MOL0     C 4757   3.232   1.143   3.767  0.3043  0.3307 -0.2455
   35MOL0     C 4758   3.308   1.846   3.815 -0.1404  0.0254 -0.3861
   35MOL0     C 4759   3.251   1.977   3.808  0.4811 -0.4180  0.0039
   35MOL0     C 4760   3.123   1.996   3.881  0.8752  0.1697 -0.0504
   35MOL0     H 4761   3.372   2.422   3.411 -0.1800  0.3275  1.0987
   35MOL0     H 4762   3.344   2.667   3.368  1.7174 -0.1290  0.3801
   35MOL0     H 4763   3.338   2.895   3.719  2.6325  2.9919 -1.9271
   35MOL0     H 4764   3.157   2.910   3.725 -0.9921  1.9657 -0.8343
   35MOL0     H 4765   3.165   3.082   3.549 -1.0226  0.7772  0.9054
   35MOL0     H 4766   3.230   3.116   3.721  2.3134 -2.7204  2.0867
   35MOL0     H 4767   3.454   3.072   3.646  0.7770 -0.0115  0.2661
   35MOL0     H 4768   3.390   3.041   3.477  0.3871 -0.3529  0.7179
   35MOL0     H 4769   3.289   3.275   3.480 -2.6931 -2.7307  2.2530
   35MOL0     H 4770   3.362   3.293   3.641 -1.0988  0.6715 -0.0266
   35MOL0     H 4771   3.587   3.255   3.529  1.0321  0.9771 -2.2386
   35MOL0     H 4772   3.504   3.404   3.482  0.7747 -0.3445  0.8466
   35MOL0     H 4773   3.627   3.276   3.297 -0.1152  0.3897  0.8267
   35MOL0     H 4774   3.498   3.149   3.317 -2.0804  0.6984 -3.7108
   35MOL0     H 4775   3.330   3.314   3.255  0.3298 -0.5093  1.2321
   35MOL0     H 4776   3.444   3.278   3.136 -1.1112 -2.8934  1.4461
   35MOL0     H 4777   3.576   3.501   3.224 -0.1257  1.0264  0.4087
   35MOL0     H 4778   3.459   3.513   3.119  0.9992 -0.4203  0.0344
   35MOL0     H 4779   3.190   3.479   3.268 -1.2765  2.8435 -3.2061
   35MOL0     H 4780   3.010   3.585   3.445 -1.7070 -0.3949 -1.0488
   35MOL0     H 4781   3.007   3.704   3.324  0.2577 -1.1133 -0.2612
   35MOL0     H 4782   3.092   3.785   3.604 -0.5915 -1.0216  0.9771
   35MOL0     H 4783   3.042   3.888   3.472 -3.0631 -0.2494 -1.8365
   35MOL0     H 4784   2.816   3.704   3.481  0.7085 -0.3605 -1.7926
   35MOL0     H 4785   2.886   3.686   3.645  2.2775 -0.7628 -0.9526
   35MOL0     H 4786   2.713   3.837   3.640  0.5527 -2.0890 -0.3525
   35MOL0     H 4787   2.858   3.923   3.701 -0.6682 -2.0400  1.0742
   35MOL0     H 4788   2.567   4.064   3.569 -2.1229  0.1495  0.0615
   35MOL0     H 4789   2.355   4.165   3.530 -1.7984 -2.3567  2.2779
   35MOL0     H 4790   2.258   4.032   3.487 -1.7489  0.7874 -1.1891
   35MOL0     H 4791   2.284   4.165   3.374  0.0083 -0.5008  0.0159
   35MOL0     H 4792   2.136   3.680   3.187 -0.8698 -0.2215  1.9966
   35MOL0     H 4793   1.944   3.600   3.071  0.6843 -0.1347 -0.1763
   35MOL0     H 4794   1.768   3.572   2.874  1.2833 -1.2652  1.7154
   35MOL0     H 4795   1.683   3.635   3.028  0.4910  2.1595 -0.0290
   35MOL0     H 4796   1.582   3.635   2.743 -0.8619 -0.5870 -0.4266
   35MOL0     H 4797   1.536   3.527   2.883  2.1949  0.3245  2.7018
   35MOL0     H 4798   1.474   3.731   3.013  1.0709 -3.0941 -0.5908
   35MOL0     H 4799   1.369   3.710   2.866 -0.3589  2.3991 -1.8014
   35MOL0     H 4800   1.537   3.854   2.743 -0.5860 -1.5125  0.2371
   35MOL0     H 4801   1.582   3.926   2.895 -2.3258  1.3803  5.1870
   35MOL0     H 4802   1.302   3.914   2.773 -2.1213  2.0912  0.5127
   35MOL0     H 4803   1.347   4.011   2.919  2.7081  2.1873  0.2147
   35MOL0     H 4804   1.443   4.061   2.633 -2.0666  4.0209 -1.4217
   35MOL0     H 4805   1.508   4.148   2.777  1.8140 -1.6966 -0.1780
   35MOL0     H 4806   1.304   4.262   2.788  0.9714  2.3038 -0.2830
   35MOL0     H 4807   1.213   4.123   2.703  1.9491 -0.3444 -0.1334
   35MOL0     H 4808   1.413   4.300   2.561 -0.8645  2.1417  0.3703
   35MOL0     H 4809   1.243   4.328   2.580 -1.5085 -1.7248 -0.5546
   35MOL0     H 4810   1.847   4.013   2.964  2.2361  1.4645  1.0063
   35MOL0     H 4811   2.029   4.094   3.097  1.8544 -1.1092 -0.1194
   35MOL0     H 4812   2.571   3.806   3.151 -0.2192 -0.8533  0.7605
   35MOL0     H 4813   2.783   3.853   3.287  0.6734 -0.3905  0.9364
   35MOL0     H 4814   3.229   2.687   3.786 -0.4218 -0.7110 -0.9888
   35MOL0     H 4815   3.291   2.446   3.817  3.5111  0.0059  0.0836
   35MOL0     H 4816   3.496   2.119   3.619  0.5103 -2.7301 -3.7136
   35MOL0     H 4817   3.577   1.894   3.625 -1.5396 -0.6593 -1.4063
   35MOL0     H 4818   3.542   1.534   3.892 -0.5805 -1.5503 -1.1239
   35MOL0     H 4819   3.392   1.623   3.929 -1.6859 -0.7771 -1.7193
   35MOL0     H 4820   3.285   1.544   3.719 -1.8907 -2.7174  0.6716
   35MOL0     H 4821   3.313   1.445   3.858 -0.6662  1.3687 -0.2841
   35MOL0     H 4822   3.496   1.451   3.612  0.5478 -0.1266  0.6010
   35MOL0     H 4823   3.494   1.309   3.721 -1.1951 -0.7870  0.3952
   35MOL0     H 4824   3.386   1.267   3.509  3.3283  1.6765  1.1783
   35MOL0     H 4825   3.253   1.389   3.567 -0.2963  0.8681 -1.2918
   35MOL0     H 4826   3.190   1.073   3.837  1.0756 -1.1853 -1.2467
   35MOL0     H 4827   3.248   1.769   3.863 -1.3218 -0.1404 -2.0400
   35MOL0     H 4828   3.112   1.911   3.949 -3.1694  0.9543  0.5377
   35MOL0     H 4829   3.130   2.091   3.935  2.1281  0.7046 -1.1055
   35MOL0     H 4830   3.043   2.004   3.806  2.4825 -0.1970 -1.8620
   36MOL0     O 4831   3.842   7.463   5.051  0.4223  0.3916  0.1375
   36MOL0     C 4832   3.877   7.429   5.165  0.1497  0.1219  0.1391
   36MOL0     O 4833   3.985   7.349   5.186 -0.2699  0.0726 -0.7414
   36MOL0     C 4834   4.072   7.303   5.086  0.4838  0.4868 -0.4586
   36MOL0     C 4835   4.139   7.173   5.102 -0.1372  0.5822  0.2897
   36MOL0     C 4836   4.227   7.123   4.999 -0.7639  0.0460 -0.6058
   36MOL0     C 4837   4.251   7.208   4.887 -0.1183 -0.2924 -0.0037
   36MOL0     O 4838   4.345   7.184   4.788 -0.6072  0.1555 -0.9519
   36MOL0     C 4839   4.429   7.075   4.790  0.1477 -1.0642 -0.4093
   36MOL0     C 4840   4.505   7.064   4.659 -1.0335  0.8683 -0.0601
   36MOL0     C 4841   4.593   6.938   4.635  0.1458  0.1322  0.3645
   36MOL0     C 4842   4.726   6.953   4.718  0.9601 -0.4727  0.0362
   36MOL0     C 4843   4.789   6.822   4.777 -0.1027 -0.1583  0.2463
   36MOL0     C 4844   4.721   6.789   4.909  0.3820 -0.1680 -0.0827
   36MOL0     C 4845   4.741   6.639   4.936 -0.2486  0.3752 -0.0991
   36MOL0     C 4846   4.837   6.616   5.048 -0.6330  0.0282 -0.1809
   36MOL0     N 4847   4.833   6.471   5.069  0.1107 -0.1719  0.0446
   36MOL0     C 4848   4.738   6.398   5.141 -0.1696 -0.7456  0.2558
   36MOL0     C 4849   4.800   6.284   5.154  0.4746  0.1720  0.4883
   36MOL0     C 4850   4.743   6.177   5.245 -0.4451 -0.5874  1.0839
   36MOL0     C 4851   4.598   6.178   5.285 -0.3254 -0.7798 -0.4427
   36MOL0     C 4852   4.501   6.168   5.176  0.0260  0.6308  0.7081
   36MOL0     C 4853   4.497   6.027   5.123 -1.0489  0.5953  0.4291
   36MOL0     O 4854   4.397   6.009   5.022 -0.4117  0.5685  0.5584
   36MOL0     C 4855   4.378   5.889   4.962  0.0224  0.6308 -0.3919
   36MOL0     C 4856   4.251   5.833   4.951  0.3499 -0.0660 -0.6418
   36MOL0     C 4857   4.207   5.717   4.892 -0.0282 -0.5131 -0.2070
   36MOL0     C 4858   4.058   5.700   4.866  0.6451 -0.4588 -0.4231
   36MOL0     C 4859   4.308   5.637   4.832  0.3380  0.1863  0.6576
   36MOL0     C 4860   4.275   5.517   4.744 -0.1989 -0.6273 -0.2410
   36MOL0     O 4861   4.390   5.484   4.665 -0.4964 -0.0810  0.6000
   36MOL0     C 4862   4.370   5.390   4.573 -0.5735  0.2432  0.1683
   36MOL0     C 4863   4.456   5.281   4.587  0.4804  0.1112 -0.1599
   36MOL0     C 4864   4.456   5.189   4.473 -0.2084 -0.3390  0.1139
   36MOL0     C 4865   4.358   5.197   4.373  0.1379 -0.6353  0.3320
   36MOL0     O 4866   4.344   5.101   4.272 -0.5578  0.5674  0.2048
   36MOL0     C 4867   4.391   4.968   4.283 -0.1485 -0.2669  0.5186
   36MOL0     C 4868   4.337   4.898   4.159 -0.1882 -0.1150  0.5722
   36MOL0     C 4869   4.446   4.823   4.096  0.0613 -0.2197  0.3028
   36MOL0     C 4870   4.402   4.779   3.955  0.3561  0.0278  0.0954
   36MOL0     C 4871   4.281   4.682   3.947  0.8964  0.2374  0.2890
   36MOL0     C 4872   4.265   4.606   3.810  1.1041  1.4227  0.3273
   36MOL0     C 4873   4.142   4.514   3.822 -0.6847  0.5164  0.7463
   36MOL0     C 4874   4.145   4.434   3.693 -0.0955  0.3721  0.4402
   36MOL0    Cl 4875   4.077   4.510   3.542 -0.1209  0.0724 -0.5390
   36MOL0     C 4876   4.272   5.306   4.363 -0.1051  0.1812  0.3119
   36MOL0     C 4877   4.277   5.400   4.474  0.2586 -0.0780 -0.2624
   36MOL0     O 4878   4.170   5.460   4.733  0.4156 -0.4224 -0.3425
   36MOL0     C 4879   4.445   5.682   4.860 -0.5798 -0.5786  0.1091
   36MOL0     C 4880   4.478   5.798   4.931  0.0772  0.1238 -0.7195
   36MOL0     N 4881   4.919   6.277   5.083  0.8237  0.0283  0.2552
   36MOL0     N 4882   4.941   6.391   5.032 -0.5423  0.7314  0.3599
   36MOL0     C 4883   4.196   7.337   4.877  0.4963  0.0928 -1.2366
   36MOL0     C 4884   4.100   7.376   4.968  0.1045  0.5254 -0.4662
   36MOL0     C 4885   3.803   7.499   5.284 -0.3932  0.1932  0.1608
   36MOL0     C 4886   3.859   7.476   5.408  0.0301 -0.7017 -0.3158
   36MOL0     C 4887   3.828   7.553   5.521  0.1241  0.1840  0.2652
   36MOL0     C 4888   3.719   7.641   5.502 -0.1653 -0.2716 -1.0851
   36MOL0     O 4889   3.665   7.724   5.601  0.2348  0.3541  1.0981
   36MOL0     C 4890   3.741   7.734   5.719 -0.4899 -0.5441  0.3235
   36MOL0     C 4891   3.678   7.844   5.815 -1.0312  0.7068 -0.1105
   36MOL0     C 4892   3.541   7.803   5.871 -0.1484  0.0323  0.1052
   36MOL0     C 4893   3.506   7.898   5.972  0.3065  0.0537 -0.6311
   36MOL0     C 4894   3.473   8.021   5.889  0.0469 -0.1015 -0.6204
   36MOL0     C 4895   3.433   8.113   5.819 -0.4360 -0.7877  0.5549
   36MOL0     C 4896   3.653   7.659   5.378 -0.1382  0.1908  0.2841
   36MOL0     C 4897   3.692   7.588   5.271 -0.0922  0.0736  0.3418
   36MOL0     C 4898   3.609   7.595   5.147 -0.3865 -0.3102 -0.3038
   36MOL0     H 4899   4.109   7.116   5.189 -0.6975  0.9268  0.3277
   36MOL0     H 4900   4.279   7.030   5.021 -2.4277 -0.5371  1.1577
   36MOL0     H 4901   4.372   6.983   4.807  1.1381 -1.2454  2.5895
   36MOL0     H 4902   4.495   7.078   4.877 -1.8505 -0.3415  1.1577
   36MOL0     H 4903   4.434   7.066   4.576 -1.8343 -0.6293  0.5535
   36MOL0     H 4904   4.571   7.151   4.650 -0.2241  0.3684  0.7992
   36MOL0     H 4905   4.541   6.844   4.658  1.5891 -0.7734  0.0611
   36MOL0     H 4906   4.631   6.930   4.533 -0.3289 -1.8082  0.2906
   36MOL0     H 4907   4.800   7.002   4.654 -0.3050 -1.8239 -2.5751
   36MOL0     H 4908   4.704   7.021   4.802 -2.2385 -0.8752 -0.3589
   36MOL0     H 4909   4.894   6.834   4.803  0.4724  2.8314 -2.7357
   36MOL0     H 4910   4.777   6.742   4.703 -0.7882 -0.9895  1.2202
   36MOL0     H 4911   4.731   6.867   4.985  0.3598  0.7330 -0.9856
   36MOL0     H 4912   4.614   6.790   4.889  0.2813 -1.7574  0.2074
   36MOL0     H 4913   4.761   6.586   4.843  1.2298  0.8015 -0.0533
   36MOL0     H 4914   4.642   6.606   4.969 -0.2248 -0.7442 -1.0896
   36MOL0     H 4915   4.935   6.649   5.013 -0.5279 -0.2223 -0.1244
   36MOL0     H 4916   4.816   6.667   5.143 -3.4784 -2.4345  0.6676
   36MOL0     H 4917   4.650   6.435   5.193  0.3581 -1.4519  1.7066
   36MOL0     H 4918   4.802   6.172   5.337  1.9373  1.9959 -0.1404
   36MOL0     H 4919   4.765   6.087   5.186  3.9839  0.7672  0.2782
   36MOL0     H 4920   4.592   6.089   5.349 -0.5122 -2.6930 -2.9620
   36MOL0     H 4921   4.575   6.264   5.348 -2.2672 -1.3594 -0.2910
   36MOL0     H 4922   4.401   6.198   5.209 -0.6593  1.6786 -2.0863
   36MOL0     H 4923   4.525   6.236   5.094 -0.7257 -0.5511 -0.5432
   36MOL0     H 4924   4.599   6.005   5.088 -0.4953  3.6141 -0.1665
   36MOL0     H 4925   4.484   5.962   5.209  2.9003 -1.2766 -0.1371
   36MOL0     H 4926   4.167   5.890   4.991 -2.0941 -3.1073 -1.0598
   36MOL0     H 4927   4.043   5.711   4.758 -0.6509 -0.3154 -0.2400
   36MOL0     H 4928   3.993   5.773   4.914  0.2948  0.6241 -2.4297
   36MOL0     H 4929   4.040   5.599   4.903 -1.1324 -0.4714 -1.2341
   36MOL0     H 4930   4.523   5.269   4.671 -0.5846  0.4659  0.7609
   36MOL0     H 4931   4.513   5.097   4.483 -1.2532 -1.0777 -0.5465
   36MOL0     H 4932   4.497   4.990   4.297 -0.8013  4.4240 -0.1355
   36MOL0     H 4933   4.354   4.921   4.375 -1.3382  1.3893  0.9360
   36MOL0     H 4934   4.253   4.833   4.185 -0.9083  1.2195  1.7811
   36MOL0     H 4935   4.294   4.966   4.085  0.8195  1.3292  1.2687
   36MOL0     H 4936   4.486   4.739   4.154  1.8856  0.0667 -0.4486
   36MOL0     H 4937   4.532   4.890   4.085 -0.2449  0.4632  1.8781
   36MOL0     H 4938   4.490   4.740   3.903  0.7556  1.5928 -0.4580
   36MOL0     H 4939   4.369   4.867   3.899 -3.0549 -0.5611  0.9512
   36MOL0     H 4940   4.306   4.594   4.006  2.3989 -1.2595 -2.3563
   36MOL0     H 4941   4.188   4.730   3.980  0.4894  0.9303 -1.6874
   36MOL0     H 4942   4.356   4.544   3.810 -0.8323 -1.6647  0.8023
   36MOL0     H 4943   4.265   4.666   3.719  1.9978 -1.1812 -1.5377
   36MOL0     H 4944   4.043   4.561   3.829 -2.1637 -2.0064 -1.2706
   36MOL0     H 4945   4.153   4.440   3.902 -0.7552  0.1979  0.4597
   36MOL0     H 4946   4.088   4.342   3.705  0.6715 -0.0671  0.8262
   36MOL0     H 4947   4.251   4.413   3.672 -0.1606 -0.2189  0.6853
   36MOL0     H 4948   4.197   5.311   4.285  3.4816 -1.3389 -3.6077
   36MOL0     H 4949   4.217   5.490   4.483  1.3731  0.8175 -1.3548
   36MOL0     H 4950   4.524   5.612   4.834 -1.4550 -1.3164 -0.6744
   36MOL0     H 4951   4.583   5.814   4.955  0.9509 -2.5924 -2.3298
   36MOL0     H 4952   4.228   7.397   4.792 -3.5996 -0.7117 -3.6350
   36MOL0     H 4953   4.062   7.478   4.971  1.0554  0.8980  2.4081
   36MOL0     H 4954   3.945   7.412   5.423  0.3514 -0.1172  0.3957
   36MOL0     H 4955   3.870   7.528   5.617 -0.1709  2.6236  1.0950
   36MOL0     H 4956   3.733   7.643   5.778 -0.5406 -0.9778 -0.3480
   36MOL0     H 4957   3.847   7.750   5.698 -0.0848  0.5145  2.8170
   36MOL0     H 4958   3.683   7.939   5.761 -1.7589  0.6073 -0.3582
   36MOL0     H 4959   3.744   7.852   5.903  0.4270 -2.1948 -0.8240
   36MOL0     H 4960   3.474   7.784   5.786 -0.8336 -1.2159  0.8926
   36MOL0     H 4961   3.557   7.711   5.927  1.8567  0.5086  0.3911
   36MOL0     H 4962   3.587   7.925   6.040  0.0339 -0.1706 -0.2207
   36MOL0     H 4963   3.421   7.861   6.029 -2.1101 -1.1851 -4.6034
   36MOL0     H 4964   3.393   8.183   5.749  0.1954 -0.3785  0.5966
   36MOL0     H 4965   3.575   7.732   5.361 -1.4563 -0.0462  4.3015
   36MOL0     H 4966   3.661   7.643   5.064  1.5643  1.2198  1.6877
   36MOL0     H 4967   3.578   7.498   5.108 -1.1238 -0.0861 -0.2938
   36MOL0     H 4968   3.513   7.647   5.154 -0.8316 -1.0724 -0.6782
   37MOL0     O 4969   4.174   3.095   3.321 -0.3084 -0.6457  0.0030
   37MOL0     C 4970   4.088   3.081   3.402  0.0276  0.1611  0.0172
   37MOL0     O 4971   4.038   3.182   3.489 -0.4029 -0.0774  0.2966
   37MOL0     C 4972   4.099   3.307   3.516  0.5597 -0.9398  0.4443
   37MOL0     C 4973   4.015   3.399   3.564 -0.6866 -0.4933 -0.3564
   37MOL0     C 4974   4.064   3.533   3.597 -0.0144  0.5695  0.2758
   37MOL0     C 4975   4.204   3.559   3.577  0.1983  0.0097  0.7699
   37MOL0     O 4976   4.242   3.687   3.609  0.0630 -0.4617 -0.1315
   37MOL0     C 4977   4.376   3.736   3.584  1.2383 -0.5518  0.3217
   37MOL0     C 4978   4.365   3.879   3.620  0.3269 -0.6868  0.7839
   37MOL0     C 4979   4.318   3.972   3.509  0.0889 -0.3524  0.0016
   37MOL0     C 4980   4.334   4.120   3.537  0.2793 -0.1828 -0.1818
   37MOL0     C 4981   4.264   4.212   3.423  0.5132  0.0001  0.9053
   37MOL0     C 4982   4.329   4.180   3.281 -0.4355 -0.7163 -0.6322
   37MOL0     C 4983   4.484   4.178   3.265 -0.7049  0.4943  0.2722
   37MOL0     C 4984   4.539   4.148   3.115 -0.7013 -0.8053 -0.1293
   37MOL0     N 4985   4.475   4.026   3.063  0.3005 -0.4031  0.6394
   37MOL0     C 4986   4.464   3.903   3.129 -0.7102 -0.1740 -0.4076
   37MOL0     C 4987   4.411   3.816   3.044 -1.6820 -0.5651 -0.4634
   37MOL0     C 4988   4.389   3.666   3.070 -0.1376 -0.1869  0.6205
   37MOL0     C 4989   4.243   3.637   3.099 -0.1800 -0.7498 -0.0468
   37MOL0     C 4990   4.208   3.494   3.153 -0.3768 -0.6013  0.1641
   37MOL0     C 4991   4.276   3.394   3.054  0.1784 -0.3223 -0.6229
   37MOL0     O 4992   4.193   3.401   2.937  0.1944  0.1520 -0.4809
   37MOL0     C 4993   4.078   3.328   2.949 -0.7784 -1.1034  0.0993
   37MOL0     C 4994   3.953   3.387   2.928  0.6534 -0.3915 -0.6845
   37MOL0     C 4995   3.833   3.310   2.934 -0.1298 -0.5939 -0.1042
   37MOL0     C 4996   3.710   3.391   2.903  0.7038  1.2705  0.1174
   37MOL0     C 4997   3.844   3.164   2.941  0.3356 -0.4640 -0.8674
   37MOL0     C 4998   3.732   3.071   2.937  1.0757  0.1636  0.5599
   37MOL0     O 4999   3.759   2.940   2.919  0.0363 -0.8271  0.1935
   37MOL0     C 5000   3.651   2.852   2.949 -0.5190 -0.5973 -0.7936
   37MOL0     C 5001   3.616   2.756   2.845 -0.3940  0.4951  0.1015
   37MOL0     C 5002   3.493   2.681   2.847 -0.7777  0.5847 -0.7700
   37MOL0     C 5003   3.409   2.691   2.967  0.4163  0.9092  0.6076
   37MOL0     O 5004   3.287   2.629   2.977 -0.1621  0.4946  0.0721
   37MOL0     C 5005   3.199   2.593   2.867 -0.7004 -0.2725  0.4080
   37MOL0     C 5006   3.082   2.509   2.902 -0.6980 -0.2754 -0.5421
   37MOL0     C 5007   2.996   2.571   3.016  0.0846  0.2585  0.5972
   37MOL0     C 5008   2.886   2.481   3.075 -0.0622  0.1179  0.5545
   37MOL0     C 5009   2.768   2.494   2.987  0.5900  0.8295  0.6201
   37MOL0     C 5010   2.690   2.359   3.010  0.0996 -0.4963  0.4254
   37MOL0     C 5011   2.536   2.383   2.991  0.4266  0.2890 -0.0360
   37MOL0     C 5012   2.500   2.433   2.847  0.5414 -0.0215  0.0604
   37MOL0    Cl 5013   2.327   2.413   2.814  0.2571  0.4934 -0.0856
   37MOL0     C 5014   3.447   2.777   3.070  0.0879 -0.3548  0.3029
   37MOL0     C 5015   3.561   2.852   3.059 -0.2502 -0.8329 -0.2987
   37MOL0     O 5016   3.623   3.116   2.974 -0.8761 -0.9192 -0.1599
   37MOL0     C 5017   3.973   3.114   2.956 -0.6673  0.8792  0.5703
   37MOL0     C 5018   4.089   3.189   2.955  0.5078  0.3278  0.3375
   37MOL0     N 5019   4.400   3.886   2.924 -0.1367  0.2360  0.0682
   37MOL0     N 5020   4.425   4.009   2.934 -0.5396  0.4570  0.0735
   37MOL0     C 5021   4.282   3.464   3.533  0.4653 -0.1861  0.2282
   37MOL0     C 5022   4.229   3.339   3.494  0.5382 -0.7612 -0.6535
   37MOL0     C 5023   4.009   2.954   3.391  0.4421  0.6161  1.0006
   37MOL0     C 5024   4.067   2.824   3.437  0.4151 -0.4466  0.3527
   37MOL0     C 5025   3.986   2.712   3.430 -0.0621 -0.0117 -0.3409
   37MOL0     C 5026   3.855   2.724   3.379 -0.1459 -0.2722 -0.6642
   37MOL0     O 5027   3.763   2.620   3.386 -0.7628  0.3501  0.2948
   37MOL0     C 5028   3.797   2.485   3.394 -0.6107  0.5442  0.1669
   37MOL0     C 5029   3.661   2.414   3.369  0.1245 -0.5174  0.2326
   37MOL0     C 5030   3.701   2.263   3.376  0.1141  0.0863  0.6280
   37MOL0     C 5031   3.579   2.183   3.319  0.6146 -0.2338  0.0161
   37MOL0     C 5032   3.620   2.038   3.339  1.1469  0.4747 -1.1473
   37MOL0     C 5033   3.642   1.924   3.374  0.2251 -0.3580  0.0198
   37MOL0     C 5034   3.800   2.846   3.340 -0.3924  0.4367  0.9837
   37MOL0     C 5035   3.877   2.954   3.339  0.4989  0.1944  0.0283
   37MOL0     C 5036   3.814   3.082   3.286  0.9725 -0.8966 -0.2216
   37MOL0     H 5037   3.913   3.371   3.590 -0.6970  0.0183  0.1642
   37MOL0     H 5038   3.994   3.604   3.639  0.6496  1.2582  0.2405
   37MOL0     H 5039   4.399   3.715   3.479  4.4978 -3.0789  1.3619
   37MOL0     H 5040   4.447   3.683   3.648  0.4072 -1.2519  0.6764
   37MOL0     H 5041   4.307   3.899   3.711  0.5843  0.2100  0.7547
   37MOL0     H 5042   4.470   3.906   3.639  1.4822 -1.4663 -3.5011
   37MOL0     H 5043   4.362   3.929   3.419  0.2910 -2.1475  0.9131
   37MOL0     H 5044   4.210   3.958   3.493  0.0796 -1.0186  0.6027
   37MOL0     H 5045   4.272   4.136   3.625 -0.8707 -0.7191 -0.8694
   37MOL0     H 5046   4.437   4.148   3.560 -0.6459  3.5378 -0.0335
   37MOL0     H 5047   4.254   4.319   3.444 -1.2105  0.3103 -1.1220
   37MOL0     H 5048   4.162   4.180   3.403  1.5047 -2.1165 -1.4117
   37MOL0     H 5049   4.288   4.084   3.248 -0.1305 -0.9433 -0.3706
   37MOL0     H 5050   4.294   4.261   3.217  0.2248 -0.8571 -1.1833
   37MOL0     H 5051   4.515   4.101   3.336  0.2358  2.9888  2.7377
   37MOL0     H 5052   4.537   4.266   3.301 -1.4440  0.3819  1.6867
   37MOL0     H 5053   4.533   4.242   3.058  2.4295 -0.4162 -0.0272
   37MOL0     H 5054   4.648   4.138   3.116 -0.5479  0.4950 -0.8954
   37MOL0     H 5055   4.508   3.876   3.225 -1.5813  1.6606  0.5507
   37MOL0     H 5056   4.449   3.628   3.153  0.6971 -4.0076 -1.5233
   37MOL0     H 5057   4.416   3.617   2.976  0.3272  1.0015  0.1109
   37MOL0     H 5058   4.203   3.715   3.165  1.7569  1.7892 -1.6842
   37MOL0     H 5059   4.194   3.639   3.002 -2.2208 -0.0549  0.9385
   37MOL0     H 5060   4.266   3.484   3.245  0.8187  2.5310 -0.1123
   37MOL0     H 5061   4.105   3.464   3.175  0.4076 -3.2420  0.5724
   37MOL0     H 5062   4.377   3.426   3.028 -1.3968  3.9847 -2.3073
   37MOL0     H 5063   4.283   3.291   3.088  0.9403  0.1861  0.8424
   37MOL0     H 5064   3.939   3.491   2.898  0.6309  0.0537  0.7877
   37MOL0     H 5065   3.657   3.372   2.997 -0.6131  0.0351 -0.8201
   37MOL0     H 5066   3.647   3.359   2.819  2.4474  0.8294 -1.0664
   37MOL0     H 5067   3.733   3.496   2.886  3.4751  0.6805 -0.1377
   37MOL0     H 5068   3.681   2.756   2.759 -0.4412 -2.2241 -0.0265
   37MOL0     H 5069   3.472   2.614   2.765  0.5787 -0.4795 -0.2946
   37MOL0     H 5070   3.158   2.689   2.834  0.1911 -0.7761 -2.5217
   37MOL0     H 5071   3.262   2.557   2.785  0.9106  0.6901  1.1686
   37MOL0     H 5072   3.030   2.493   2.807 -0.1296 -0.3019 -0.8529
   37MOL0     H 5073   3.105   2.407   2.935  0.1298  0.4697  1.3014
   37MOL0     H 5074   2.966   2.670   2.981 -0.3482 -0.0286  0.1506
   37MOL0     H 5075   3.070   2.572   3.096  0.4494 -2.5039  0.4121
   37MOL0     H 5076   2.862   2.529   3.171  2.5634  1.2991  0.7082
   37MOL0     H 5077   2.919   2.377   3.081 -1.3062 -0.2277  2.4229
   37MOL0     H 5078   2.715   2.586   3.015 -1.9331 -0.6568  0.9977
   37MOL0     H 5079   2.785   2.504   2.879  2.3958  0.4244  0.8462
   37MOL0     H 5080   2.699   2.314   3.110  2.0172 -1.7590 -0.2496
   37MOL0     H 5081   2.742   2.294   2.938  2.0611 -0.2635  1.5567
   37MOL0     H 5082   2.494   2.466   3.048 -3.2283 -1.7962  0.5904
   37MOL0     H 5083   2.482   2.292   3.017 -3.6592  1.6274 -2.8192
   37MOL0     H 5084   2.547   2.383   2.762 -4.0233  1.5949 -3.8990
   37MOL0     H 5085   2.523   2.540   2.840 -2.1973  0.7599  1.4234
   37MOL0     H 5086   3.382   2.792   3.156  1.6857 -0.2892  1.5430
   37MOL0     H 5087   3.586   2.918   3.141 -2.8352 -1.0780  0.7819
   37MOL0     H 5088   3.996   3.008   2.965 -2.1567  0.5318  0.4996
   37MOL0     H 5089   4.193   3.158   2.949  2.1321  4.2927  3.5551
   37MOL0     H 5090   4.388   3.485   3.531  0.2418  1.2304 -3.0427
   37MOL0     H 5091   4.299   3.259   3.472  2.9067 -0.3473  4.1461
   37MOL0     H 5092   4.167   2.809   3.477  0.2406 -2.2793  0.1931
   37MOL0     H 5093   4.027   2.617   3.462  2.1228  0.2868 -1.9433
   37MOL0     H 5094   3.874   2.455   3.323  1.8553  0.7244  2.5789
   37MOL0     H 5095   3.827   2.460   3.497 -2.5164 -4.8098 -0.2663
   37MOL0     H 5096   3.610   2.434   3.274 -3.2227  0.7177  2.0995
   37MOL0     H 5097   3.580   2.446   3.436 -2.5066 -1.4185 -2.2868
   37MOL0     H 5098   3.790   2.239   3.318 -1.6276 -3.3394 -0.9175
   37MOL0     H 5099   3.716   2.227   3.478  0.3834 -0.2394  0.4724
   37MOL0     H 5100   3.561   2.193   3.212  1.8668 -2.4606 -0.4610
   37MOL0     H 5101   3.486   2.213   3.369  1.3966  1.9676  0.2676
   37MOL0     H 5102   3.673   1.830   3.415 -0.0702 -1.0441 -1.2853
   37MOL0     H 5103   3.698   2.842   3.304 -0.4438 -0.3634  1.1988
   37MOL0     H 5104   3.727   3.101   3.349 -0.5963 -1.7188 -2.0317
   37MOL0     H 5105   3.888   3.162   3.295  0.2679  0.0553 -2.3869
   37MOL0     H 5106   3.783   3.067   3.182  3.4079 -2.7750 -0.7961
   38MOL0     O 5107  11.021   4.370   3.030  0.1287  0.0655 -0.2606
   38MOL0     C 5108  10.964   4.377   2.919  0.6109 -0.1293  0.2574
   38MOL0     O 5109  11.023   4.381   2.805  0.4505  0.2151  0.3081
   38MOL0     C 5110  11.159   4.363   2.797 -1.2776 -0.1940 -0.5344
   38MOL0     C 5111  11.213   4.241   2.748 -0.6120  0.7970  0.1332
   38MOL0     C 5112  11.356   4.221   2.731 -0.5766 -1.1410  0.0835
   38MOL0     C 5113  11.442   4.326   2.781  0.6727  0.5478  0.1602
   38MOL0     O 5114  11.581   4.330   2.772  0.3940  0.2871 -0.7816
   38MOL0     C 5115  11.652   4.206   2.741  1.0065 -1.5876 -0.3075
   38MOL0     C 5116  11.683   4.210   2.590 -0.0824 -0.5246 -0.5887
   38MOL0     C 5117  11.714   4.076   2.523  0.1457 -0.6962  0.1974
   38MOL0     C 5118  11.809   3.992   2.605 -0.3226 -0.9750 -0.2014
   38MOL0     C 5119  11.842   3.866   2.531 -0.1578  0.6354  0.3632
   38MOL0     C 5120  11.897   3.772   2.631 -0.0281  0.1568 -0.2139
   38MOL0     C 5121  12.015   3.692   2.585  0.7113  0.1382  1.0293
   38MOL0     C 5122  12.137   3.777   2.556 -0.0284 -0.6716 -0.4416
   38MOL0     N 5123  12.269   3.710   2.553 -0.8912 -0.0908 -0.2437
   38MOL0     C 5124  12.336   3.652   2.656 -0.9037  0.5508  0.0807
   38MOL0     C 5125  12.459   3.622   2.608 -0.0808  0.2838 -0.1011
   38MOL0     C 5126  12.574   3.559   2.678 -0.0244 -0.6310  0.0575
   38MOL0     C 5127  12.711   3.640   2.672  0.5633 -0.2825 -0.4755
   38MOL0     C 5128  12.759   3.683   2.533  0.1258 -0.9877 -0.0069
   38MOL0     C 5129  12.753   3.566   2.418 -0.7170 -0.1771 -0.4729
   38MOL0     O 5130  12.875   3.554   2.342 -0.0154  0.4955  0.5168
   38MOL0     C 5131  12.982   3.507   2.398 -0.5155 -0.1506  0.1560
   38MOL0     C 5132  13.087   3.496   2.305  0.9486  0.3649  0.2543
   38MOL0     C 5133  13.209   3.448   2.337 -0.8607 -0.4064 -1.3830
   38MOL0     C 5134  13.318   3.452   2.232 -0.0734 -0.1433 -0.2293
   38MOL0     C 5135  13.236   3.420   2.479 -0.4251 -0.6703 -0.1783
   38MOL0     C 5136  13.371   3.378   2.537  0.1007  0.7807  0.7113
   38MOL0     O 5137  13.473   3.358   2.454  0.0135  1.1212  0.2511
   38MOL0     C 5138  13.578   3.276   2.500  0.6553 -0.2114 -0.4579
   38MOL0     C 5139  13.599   3.157   2.436 -0.7055 -0.8107 -0.0824
   38MOL0     C 5140  13.705   3.068   2.473 -0.0808  0.0943 -0.6618
   38MOL0     C 5141  13.785   3.100   2.580 -0.4510 -0.1060  1.4058
   38MOL0     O 5142  13.891   3.030   2.613  0.0523  0.0240  0.4930
   38MOL0     C 5143  13.920   2.904   2.552  1.1436  0.4875 -0.1121
   38MOL0     C 5144  14.051   2.847   2.606  0.5441 -0.0797 -1.8704
   38MOL0     C 5145  14.091   2.725   2.541  0.8154  0.1896  0.1762
   38MOL0     C 5146  14.175   2.755   2.419  0.4371 -0.0897 -0.3608
   38MOL0     C 5147  14.210   2.632   2.329  0.3409  1.2409  0.0076
   38MOL0     C 5148  14.277   2.524   2.410 -0.3778  0.0920 -0.2526
   38MOL0     C 5149  14.411   2.567   2.472 -0.4282  0.4746  0.6357
   38MOL0     C 5150  14.498   2.460   2.534 -0.9837  0.4327  0.1835
   38MOL0    Cl 5151  14.395   2.369   2.653  0.4819 -0.0512 -0.2122
   38MOL0     C 5152  13.756   3.213   2.648 -0.0658 -0.0547 -0.9608
   38MOL0     C 5153  13.667   3.311   2.607  1.4062  0.9955  0.4603
   38MOL0     O 5154  13.376   3.361   2.651  0.0488 -0.6387 -0.6486
   38MOL0     C 5155  13.125   3.425   2.566  0.0973  0.1455  0.3259
   38MOL0     C 5156  12.999   3.470   2.527  1.2112  0.3647 -0.8325
   38MOL0     N 5157  12.457   3.642   2.468  1.1222  0.0644 -0.4745
   38MOL0     N 5158  12.347   3.690   2.443  0.2275 -0.9212 -0.0160
   38MOL0     C 5159  11.393   4.448   2.837  0.3970  1.6498  0.2751
   38MOL0     C 5160  11.249   4.464   2.841 -0.6652 -0.7572 -0.2624
   38MOL0     C 5161  10.821   4.367   2.917 -0.4436  0.3508 -0.7808
   38MOL0     C 5162  10.760   4.242   2.874 -0.9651  0.2558 -0.4216
   38MOL0     C 5163  10.631   4.223   2.872 -0.0246  0.4203  1.4442
   38MOL0     C 5164  10.546   4.318   2.921  0.0436  0.7536  0.2425
   38MOL0     O 5165  10.412   4.291   2.925  0.3184  0.4598 -0.0710
   38MOL0     C 5166  10.341   4.225   2.818 -0.3158  0.3213  0.3679
   38MOL0     C 5167  10.211   4.303   2.790  0.0480  0.5151 -0.5048
   38MOL0     C 5168  10.122   4.283   2.927  0.4711  0.0993  0.8583
   38MOL0     C 5169   9.983   4.354   2.900  0.0281  0.0009 -0.5756
   38MOL0     C 5170   9.999   4.498   2.868  0.0199 -0.3479  0.5665
   38MOL0     C 5171  10.014   4.615   2.844  0.1698  0.0788  0.1225
   38MOL0     C 5172  10.593   4.439   2.957  0.0098  0.1202  0.9586
   38MOL0     C 5173  10.732   4.478   2.950 -0.0784 -0.3665  0.7843
   38MOL0     C 5174  10.778   4.616   2.982 -0.7927  0.1081 -0.3382
   38MOL0     H 5175  11.146   4.156   2.737 -1.2066  1.4136 -1.2988
   38MOL0     H 5176  11.394   4.130   2.686 -2.5623 -1.4417 -1.1158
   38MOL0     H 5177  11.578   4.126   2.747 -0.0889 -0.5758 -0.1166
   38MOL0     H 5178  11.739   4.175   2.800  1.0110 -0.3061  0.3818
   38MOL0     H 5179  11.588   4.241   2.544 -0.9829  1.3408  2.2197
   38MOL0     H 5180  11.759   4.288   2.581 -3.0255  3.3233  3.1981
   38MOL0     H 5181  11.624   4.014   2.508  1.0797 -1.7811 -1.3488
   38MOL0     H 5182  11.759   4.098   2.426 -1.5638  2.0487 -0.0723
   38MOL0     H 5183  11.904   4.045   2.612  0.8784 -2.5170 -2.8772
   38MOL0     H 5184  11.762   3.973   2.702 -0.0128 -2.0212 -0.2465
   38MOL0     H 5185  11.917   3.878   2.452 -0.4290 -2.7352 -0.5478
   38MOL0     H 5186  11.753   3.829   2.480 -0.2598  0.1732  0.8662
   38MOL0     H 5187  11.930   3.822   2.723 -3.2988  2.9944 -0.3611
   38MOL0     H 5188  11.822   3.710   2.681  0.4648  1.3596  2.1902
   38MOL0     H 5189  11.993   3.639   2.492 -0.1106  1.6509  0.3190
   38MOL0     H 5190  12.048   3.616   2.656 -0.6890 -2.9387 -1.3691
   38MOL0     H 5191  12.119   3.825   2.459 -0.1682  0.2031  0.0120
   38MOL0     H 5192  12.163   3.842   2.640  0.9889 -0.8743 -0.5883
   38MOL0     H 5193  12.311   3.639   2.761  0.7261  1.3234  0.5992
   38MOL0     H 5194  12.582   3.459   2.634 -1.1535 -0.5920 -0.2675
   38MOL0     H 5195  12.553   3.562   2.786  1.2262 -1.6889  0.3569
   38MOL0     H 5196  12.715   3.726   2.740  3.3545 -0.7972  0.1672
   38MOL0     H 5197  12.780   3.572   2.724  0.6026 -0.4142 -0.7009
   38MOL0     H 5198  12.708   3.771   2.491 -2.4256 -2.5854 -0.5053
   38MOL0     H 5199  12.862   3.704   2.562 -0.0899  0.8580 -0.4603
   38MOL0     H 5200  12.742   3.470   2.469 -0.6337 -0.4840 -1.0308
   38MOL0     H 5201  12.660   3.570   2.362 -1.7648 -0.8474  1.1469
   38MOL0     H 5202  13.067   3.528   2.203  1.2004 -1.5414 -0.4387
   38MOL0     H 5203  13.358   3.354   2.205 -2.0783 -0.9991 -0.3331
   38MOL0     H 5204  13.401   3.511   2.270 -0.1485 -0.5432  0.5768
   38MOL0     H 5205  13.275   3.511   2.151 -2.6336  1.0135  1.8435
   38MOL0     H 5206  13.532   3.121   2.358 -3.2562 -2.1258  2.5033
   38MOL0     H 5207  13.721   2.989   2.401 -0.2554  0.1035 -0.7115
   38MOL0     H 5208  13.838   2.835   2.577 -0.4396  3.0731  2.3450
   38MOL0     H 5209  13.913   2.904   2.443 -0.6985  0.7779 -0.0276
   38MOL0     H 5210  14.124   2.928   2.601  1.7770 -0.7804  1.6118
   38MOL0     H 5211  14.035   2.825   2.712 -0.2490 -0.6092 -2.0845
   38MOL0     H 5212  14.011   2.657   2.513  2.7379 -1.6352 -1.1846
   38MOL0     H 5213  14.156   2.669   2.608 -0.1558 -1.0564  0.1124
   38MOL0     H 5214  14.266   2.809   2.448 -0.4882  1.0702  0.4645
   38MOL0     H 5215  14.118   2.828   2.361 -1.6628 -0.6548  0.8779
   38MOL0     H 5216  14.118   2.590   2.289  0.9950  1.5188 -1.8498
   38MOL0     H 5217  14.267   2.666   2.243  0.1418  2.1128  0.2074
   38MOL0     H 5218  14.292   2.440   2.341  3.9888 -0.5740  1.1701
   38MOL0     H 5219  14.217   2.486   2.493  0.6427 -0.2654  0.3335
   38MOL0     H 5220  14.392   2.648   2.543  2.7969  2.4588 -0.5072
   38MOL0     H 5221  14.470   2.613   2.392 -1.5826  0.5751 -0.1851
   38MOL0     H 5222  14.577   2.505   2.594  0.9391 -1.8568 -0.4734
   38MOL0     H 5223  14.549   2.390   2.466  1.4012  2.3812 -0.1631
   38MOL0     H 5224  13.831   3.227   2.726  0.2389  2.6504 -1.6615
   38MOL0     H 5225  13.659   3.399   2.670  1.3778  0.5760  1.0466
   38MOL0     H 5226  13.141   3.397   2.669 -2.0879  0.0718  0.6930
   38MOL0     H 5227  12.920   3.476   2.600 -0.5812  1.1785 -2.7492
   38MOL0     H 5228  11.449   4.527   2.885  1.2865  1.2780 -0.1279
   38MOL0     H 5229  11.203   4.556   2.877  1.7024  1.9129 -3.3733
   38MOL0     H 5230  10.816   4.154   2.845 -0.4208  1.5575 -3.8770
   38MOL0     H 5231  10.586   4.134   2.830 -0.3024  1.3743 -0.3745
   38MOL0     H 5232  10.397   4.226   2.724  0.0862 -3.3135  0.4257
   38MOL0     H 5233  10.324   4.120   2.842  1.5752  0.1893  1.3509
   38MOL0     H 5234  10.148   4.257   2.713 -1.6901 -1.7862  2.0786
   38MOL0     H 5235  10.219   4.411   2.776 -0.1737  0.5258 -0.5539
   38MOL0     H 5236  10.097   4.181   2.958 -1.5804  0.3097  0.0333
   38MOL0     H 5237  10.171   4.334   3.010  1.7350  2.1355 -1.0218
   38MOL0     H 5238   9.936   4.367   2.997  0.6268 -0.7116 -0.1785
   38MOL0     H 5239   9.909   4.304   2.838  0.6125  0.1485 -1.4145
   38MOL0     H 5240  10.029   4.715   2.809  0.7467 -1.1215 -3.4071
   38MOL0     H 5241  10.523   4.511   2.998  2.0279  2.8600 -0.1066
   38MOL0     H 5242  10.856   4.639   2.909 -0.4525  0.0760  0.0079
   38MOL0     H 5243  10.690   4.677   2.960 -0.4056  1.0316  0.5785
   38MOL0     H 5244  10.822   4.619   3.082 -0.3295  0.9110 -0.5610
   39MOL0     O 5245   4.946   5.262   0.258 -0.5666 -0.5665  0.2000
   39MOL0     C 5246   4.919   5.234   0.140  0.3298 -0.1472 -0.4676
   39MOL0     O 5247   4.996   5.154   0.060  0.9506  0.2620  0.0462
   39MOL0     C 5248   5.117   5.110   0.108  0.1750 -1.6637 -0.8556
   39MOL0     C 5249   5.223   5.182   0.172 -0.3851 -0.7961  0.5397
   39MOL0     C 5250   5.343   5.114   0.205  0.7112 -0.5417 -0.0088
   39MOL0     C 5251   5.359   4.978   0.179 -0.7407  0.0719 -0.8257
   39MOL0     O 5252   5.472   4.902   0.210 -0.0793 -0.0309 -0.0633
   39MOL0     C 5253   5.557   4.956   0.310  0.2931 -0.1412 -0.6029
   39MOL0     C 5254   5.661   4.847   0.352 -0.2229 -0.6364 -0.1522
   39MOL0     C 5255   5.750   4.907   0.462 -0.1056  1.0142 -0.1679
   39MOL0     C 5256   5.874   4.828   0.492 -0.0098 -0.6697  0.8382
   39MOL0     C 5257   5.927   4.846   0.633  0.6071 -0.3062  1.0491
   39MOL0     C 5258   6.054   4.771   0.667 -0.1556  0.1061 -0.7584
   39MOL0     C 5259   6.119   4.820   0.801 -0.3254  0.2098  0.4093
   39MOL0     C 5260   6.203   4.950   0.780 -0.4664  0.1422 -0.4718
   39MOL0     N 5261   6.316   4.966   0.869  0.3908 -0.6707 -0.2715
   39MOL0     C 5262   6.310   5.035   0.989 -0.5865  0.7840  0.1541
   39MOL0     C 5263   6.440   5.031   1.038 -0.3892 -1.2848  0.6494
   39MOL0     C 5264   6.504   5.094   1.157  0.3943 -0.0772 -0.2219
   39MOL0     C 5265   6.507   4.993   1.272 -0.5840 -0.6577  0.9800
   39MOL0     C 5266   6.565   5.056   1.393 -0.2276 -0.3179 -0.8220
   39MOL0     C 5267   6.717   5.055   1.418 -0.1462 -0.5091  0.0667
   39MOL0     O 5268   6.750   4.921   1.447  0.4621 -0.5255 -0.4513
   39MOL0     C 5269   6.880   4.891   1.472 -0.3243  0.8479  0.6959
   39MOL0     C 5270   6.900   4.757   1.510  0.2110 -0.4126 -0.7246
   39MOL0     C 5271   7.025   4.725   1.549  0.0545 -0.4020 -0.9720
   39MOL0     C 5272   7.031   4.592   1.597  0.2494  0.3502 -0.1883
   39MOL0     C 5273   7.135   4.812   1.555  0.2284  0.1823  0.0053
   39MOL0     C 5274   7.269   4.772   1.613  0.7048 -1.0871  0.2598
   39MOL0     O 5275   7.343   4.882   1.654 -0.6772  0.5118  0.2167
   39MOL0     C 5276   7.475   4.877   1.690  0.0581  0.3937 -0.3311
   39MOL0     C 5277   7.539   4.775   1.762 -0.8072  0.7514  0.6611
   39MOL0     C 5278   7.670   4.787   1.812  0.3928  0.1159  0.8271
   39MOL0     C 5279   7.741   4.901   1.782 -0.8021 -0.7324  0.1791
   39MOL0     O 5280   7.872   4.928   1.811  0.4367 -0.0584  0.4953
   39MOL0     C 5281   7.945   4.827   1.879  0.0382  0.5918 -0.3614
   39MOL0     C 5282   8.072   4.900   1.940  0.1897  0.3584 -0.0491
   39MOL0     C 5283   8.018   5.011   2.038  0.5152 -0.9077 -0.0033
   39MOL0     C 5284   8.126   5.050   2.146 -0.4977  0.2038 -0.7827
   39MOL0     C 5285   8.071   5.149   2.242 -0.0611 -0.8984 -0.1380
   39MOL0     C 5286   8.194   5.158   2.332 -0.2220  0.1058 -0.6962
   39MOL0     C 5287   8.156   5.265   2.443 -0.7954  0.0904  0.2522
   39MOL0     C 5288   8.270   5.274   2.543  0.4619  0.1185 -0.1359
   39MOL0    Cl 5289   8.211   5.375   2.671 -0.3234  0.0150  0.5090
   39MOL0     C 5290   7.676   5.007   1.714  0.6231 -0.5833  0.3196
   39MOL0     C 5291   7.539   4.991   1.673  0.4735  0.1215 -0.0001
   39MOL0     O 5292   7.299   4.658   1.627  0.6783 -0.4267 -0.4443
   39MOL0     C 5293   7.115   4.943   1.508 -0.6610  0.8183  0.1106
   39MOL0     C 5294   6.990   4.981   1.475  0.1133 -0.3955  0.0922
   39MOL0     N 5295   6.520   4.966   0.947 -0.3081 -0.0210  0.5925
   39MOL0     N 5296   6.445   4.934   0.845  0.3967  0.3694 -0.1441
   39MOL0     C 5297   5.248   4.906   0.114 -0.0889 -1.0297  0.0992
   39MOL0     C 5298   5.137   4.979   0.083 -0.1349  0.1118 -0.1393
   39MOL0     C 5299   4.803   5.290   0.082  0.2286 -0.5286  1.0994
   39MOL0     C 5300   4.744   5.217  -0.020  0.1651  0.6242  0.6879
   39MOL0     C 5301   4.632   5.278  -0.090  0.2850 -0.0360  0.0916
   39MOL0     C 5302   4.580   5.404  -0.060 -0.1705 -0.3963  0.5805
   39MOL0     O 5303   4.476   5.472  -0.112  0.1067 -0.3207  0.3129
   39MOL0     C 5304   4.375   5.410  -0.208 -1.1928 -0.8449 -0.3407
   39MOL0     C 5305   4.263   5.504  -0.269 -0.7601  0.3297  0.6046
   39MOL0     C 5306   4.339   5.615  -0.334  1.4681  0.5042 -0.2072
   39MOL0     C 5307   4.362   5.748  -0.264 -0.1374 -0.0740 -0.5245
   39MOL0     C 5308   4.235   5.829  -0.270  0.6840 -0.5565 -0.3813
   39MOL0     C 5309   4.132   5.879  -0.283  0.0764 -0.5071 -0.1060
   39MOL0     C 5310   4.651   5.474   0.050  0.6374  0.0181  0.1754
   39MOL0     C 5311   4.749   5.421   0.125 -0.6531  1.4108 -0.1101
   39MOL0     C 5312   4.813   5.511   0.232  0.0271 -0.6664 -0.4874
   39MOL0     H 5313   5.210   5.289   0.190 -1.6501 -1.0461  1.2713
   39MOL0     H 5314   5.415   5.184   0.246 -0.0757  1.9189 -2.4738
   39MOL0     H 5315   5.489   4.969   0.395 -1.0695 -2.3535 -1.3009
   39MOL0     H 5316   5.610   5.050   0.292  2.0247 -1.0521 -0.4717
   39MOL0     H 5317   5.609   4.754   0.376  0.8892 -1.9556 -2.4646
   39MOL0     H 5318   5.728   4.841   0.265 -0.6948  1.8494 -0.7828
   39MOL0     H 5319   5.789   5.001   0.424  0.8834  1.7722  2.4902
   39MOL0     H 5320   5.691   4.930   0.552 -0.2849  0.7431 -0.2138
   39MOL0     H 5321   5.868   4.719   0.484  3.8246 -1.1757  2.5381
   39MOL0     H 5322   5.963   4.861   0.438  1.2591 -2.4856  1.7085
   39MOL0     H 5323   5.859   4.806   0.708 -1.1300  1.3837  0.4890
   39MOL0     H 5324   5.938   4.951   0.661 -3.0178  0.0418  1.6875
   39MOL0     H 5325   6.027   4.666   0.678  0.3671  0.0419 -0.0252
   39MOL0     H 5326   6.129   4.787   0.588 -1.1089  0.4449 -1.6101
   39MOL0     H 5327   6.199   4.748   0.823  3.0471  3.0848 -1.3401
   39MOL0     H 5328   6.054   4.825   0.889  2.4450 -1.0428  2.7005
   39MOL0     H 5329   6.241   4.943   0.677  3.4151  0.0514  0.8023
   39MOL0     H 5330   6.127   5.029   0.784 -1.0924 -0.3635 -1.6876
   39MOL0     H 5331   6.229   5.079   1.045 -1.4334 -3.7457  3.0909
   39MOL0     H 5332   6.450   5.179   1.200  1.9016 -0.0375  1.7064
   39MOL0     H 5333   6.606   5.116   1.124  0.0858  0.2215 -1.0114
   39MOL0     H 5334   6.401   4.976   1.294  0.2463 -4.5171  2.7858
   39MOL0     H 5335   6.556   4.897   1.254 -2.3263 -2.0996  3.4213
   39MOL0     H 5336   6.538   5.162   1.406  0.4040 -0.0901 -1.3381
   39MOL0     H 5337   6.517   5.004   1.477 -2.4924 -0.5607 -2.1753
   39MOL0     H 5338   6.760   5.073   1.319 -0.5327 -3.5812 -0.7761
   39MOL0     H 5339   6.742   5.129   1.494 -0.6209 -2.0090  1.7685
   39MOL0     H 5340   6.817   4.687   1.511  1.3481 -1.8142 -0.8894
   39MOL0     H 5341   7.081   4.599   1.694  1.8723  1.6651 -1.0663
   39MOL0     H 5342   7.100   4.534   1.535  1.5079  0.0325  1.4350
   39MOL0     H 5343   6.938   4.536   1.608  0.1162  0.3221 -1.3462
   39MOL0     H 5344   7.495   4.684   1.800 -0.3247 -0.3530 -1.2710
   39MOL0     H 5345   7.714   4.706   1.870  1.1434 -1.5908 -1.9271
   39MOL0     H 5346   7.884   4.799   1.965  0.8422 -2.3225 -0.6543
   39MOL0     H 5347   7.972   4.742   1.816  0.4717  1.3922 -1.2844
   39MOL0     H 5348   8.126   4.830   2.004 -0.9765 -3.9349 -3.3114
   39MOL0     H 5349   8.133   4.944   1.861  2.0120 -0.0397  1.0734
   39MOL0     H 5350   7.932   4.970   2.092 -1.0384  0.9636 -0.9215
   39MOL0     H 5351   7.971   5.094   1.983  0.8810 -0.4574  0.3571
   39MOL0     H 5352   8.220   5.076   2.098  1.9160 -3.0293  1.7163
   39MOL0     H 5353   8.156   4.960   2.201  1.1744  0.6455 -0.9460
   39MOL0     H 5354   8.045   5.243   2.193 -3.4358 -0.2657  2.5430
   39MOL0     H 5355   7.985   5.095   2.283  0.2943 -2.4490 -1.3407
   39MOL0     H 5356   8.288   5.182   2.282  0.3260 -0.7710 -0.1151
   39MOL0     H 5357   8.212   5.063   2.384 -1.7576  0.4154  0.4836
   39MOL0     H 5358   8.062   5.237   2.492 -0.3895  0.3636  1.2122
   39MOL0     H 5359   8.142   5.362   2.394 -3.4209 -0.8714 -1.0507
   39MOL0     H 5360   8.353   5.320   2.489  0.8852  2.0531  2.0164
   39MOL0     H 5361   8.305   5.175   2.575 -0.1178 -0.0078  0.1219
   39MOL0     H 5362   7.728   5.101   1.730  2.9587 -1.3973 -1.7920
   39MOL0     H 5363   7.481   5.076   1.637  2.6084  0.8938 -1.8066
   39MOL0     H 5364   7.189   5.021   1.522 -0.4745  0.4151  1.5311
   39MOL0     H 5365   6.981   5.082   1.437 -0.4312 -1.2382 -2.1850
   39MOL0     H 5366   5.251   4.800   0.090 -0.7111 -0.2751 -3.9435
   39MOL0     H 5367   5.055   4.926   0.037  0.8515 -2.0913  0.4930
   39MOL0     H 5368   4.785   5.121  -0.049 -0.3113  0.4173  0.6999
   39MOL0     H 5369   4.592   5.224  -0.175 -3.0575  3.3777 -0.7808
   39MOL0     H 5370   4.433   5.381  -0.296 -1.3948 -2.5714  0.0445
   39MOL0     H 5371   4.319   5.323  -0.171 -0.1756 -0.8223  1.3742
   39MOL0     H 5372   4.187   5.545  -0.203 -0.9775  0.1536  0.4653
   39MOL0     H 5373   4.205   5.454  -0.347 -2.7826  2.1832  0.8176
   39MOL0     H 5374   4.443   5.587  -0.351  1.8331  0.8949  1.1867
   39MOL0     H 5375   4.293   5.643  -0.429  2.4963  2.8373 -0.1039
   39MOL0     H 5376   4.445   5.798  -0.315 -0.2672  1.2140  0.4885
   39MOL0     H 5377   4.398   5.729  -0.162  0.8303 -2.1134 -1.1962
   39MOL0     H 5378   4.033   5.921  -0.278  0.4075  0.2328  0.2638
   39MOL0     H 5379   4.605   5.570   0.075 -0.1615  0.6612 -3.1874
   39MOL0     H 5380   4.910   5.547   0.197  0.7992 -2.5352 -0.4123
   39MOL0     H 5381   4.761   5.602   0.262  1.3896  0.0340 -0.1687
   39MOL0     H 5382   4.819   5.443   0.318  1.9113  0.1285  0.0605
   40MOL0     O 5383   6.058  10.875   5.821 -0.4402  0.8654  0.6802
   40MOL0     C 5384   6.007  10.776   5.883 -0.1711 -0.1026  0.6859
   40MOL0     O 5385   5.880  10.737   5.853  0.5766  0.0913  0.7058
   40MOL0     C 5386   5.823  10.772   5.734 -0.7357  0.1319  0.1938
   40MOL0     C 5387   5.706  10.843   5.733 -0.7665 -0.1285 -0.1624
   40MOL0     C 5388   5.620  10.848   5.615 -0.2928 -0.8596  0.3455
   40MOL0     C 5389   5.672  10.796   5.492 -1.3357 -0.3862 -0.6784
   40MOL0     O 5390   5.606  10.791   5.374 -0.2148  0.4492  0.6379
   40MOL0     C 5391   5.509  10.887   5.346  0.7445  0.7319 -0.6376
   40MOL0     C 5392   5.443  10.867   5.220  0.0334  0.6548  0.4869
   40MOL0     C 5393   5.554  10.854   5.114 -0.5262 -0.1134  0.0548
   40MOL0     C 5394   5.485  10.859   4.972 -0.5864 -0.1859 -0.3039
   40MOL0     C 5395   5.583  10.827   4.858 -1.0269  0.3426  0.0465
   40MOL0     C 5396   5.528  10.772   4.740  0.7039  1.2129 -0.8103
   40MOL0     C 5397   5.643  10.747   4.641 -0.2466  0.2420 -0.8805
   40MOL0     C 5398   5.589  10.636   4.540 -0.7077  0.2433 -0.2273
   40MOL0     N 5399   5.693  10.597   4.438  0.0721  0.4906  0.3006
   40MOL0     C 5400   5.762  10.480   4.440 -1.0126  0.2726 -0.3972
   40MOL0     C 5401   5.825  10.482   4.316 -0.7012 -0.2127  0.3371
   40MOL0     C 5402   5.929  10.382   4.252 -0.1555  0.5540  1.2573
   40MOL0     C 5403   5.993  10.305   4.363  0.6363 -0.1070  0.7779
   40MOL0     C 5404   6.130  10.242   4.338  0.2033 -0.0492 -0.2282
   40MOL0     C 5405   6.196  10.191   4.457 -0.5955 -0.1303 -0.2729
   40MOL0     O 5406   6.287  10.081   4.432  0.0540  0.4097  0.6170
   40MOL0     C 5407   6.231   9.964   4.445  0.3993 -0.0409  0.0128
   40MOL0     C 5408   6.216   9.905   4.570 -1.2916 -0.5486  0.3412
   40MOL0     C 5409   6.158   9.781   4.582 -0.6212 -0.0754 -0.5292
   40MOL0     C 5410   6.157   9.731   4.723 -0.1981 -0.1349 -0.4391
   40MOL0     C 5411   6.100   9.716   4.468  0.1720 -0.0343  0.4858
   40MOL0     C 5412   6.028   9.587   4.472 -0.4012  0.8460  0.2228
   40MOL0     O 5413   5.941   9.561   4.370 -0.4978  0.0988 -0.4346
   40MOL0     C 5414   5.858   9.447   4.374  0.3769  0.1437 -0.1850
   40MOL0     C 5415   5.727   9.451   4.436 -0.1882  0.1524 -0.4371
   40MOL0     C 5416   5.651   9.340   4.427 -0.0312 -0.1335 -0.6780
   40MOL0     C 5417   5.699   9.214   4.384  0.0192  0.3235  0.6596
   40MOL0     O 5418   5.611   9.107   4.388 -0.6778  0.3815 -0.5905
   40MOL0     C 5419   5.668   8.981   4.361  0.4491  0.0018 -0.1321
   40MOL0     C 5420   5.583   8.859   4.404  0.5315 -0.2833 -0.3120
   40MOL0     C 5421   5.441   8.896   4.359  1.2102  1.0209  0.0000
   40MOL0     C 5422   5.346   8.781   4.336  0.0931  0.8604 -0.5488
   40MOL0     C 5423   5.210   8.835   4.302 -0.9384  0.5764  0.0559
   40MOL0     C 5424   5.095   8.727   4.314  0.2064 -1.0838  0.3630
   40MOL0     C 5425   4.964   8.811   4.273 -0.8811  0.5178 -0.3980
   40MOL0     C 5426   4.850   8.720   4.288  0.1438  0.1918 -0.4172
   40MOL0    Cl 5427   4.822   8.688   4.459  0.7405 -0.1618  0.1261
   40MOL0     C 5428   5.821   9.207   4.317 -0.4108  0.5877 -0.4732
   40MOL0     C 5429   5.894   9.326   4.310 -0.3125  0.9589  0.1099
   40MOL0     O 5430   6.047   9.517   4.570  0.0490 -0.1328 -1.1867
   40MOL0     C 5431   6.109   9.777   4.347 -0.5082 -0.4211  0.2346
   40MOL0     C 5432   6.177   9.901   4.327  0.5606  0.3524  0.0344
   40MOL0     N 5433   5.799  10.602   4.260 -0.5245 -0.2399 -0.3307
   40MOL0     N 5434   5.705  10.672   4.318 -0.3967 -0.3598 -0.0120
   40MOL0     C 5435   5.792  10.728   5.496 -0.3494 -0.4252 -0.1466
   40MOL0     C 5436   5.868  10.713   5.616 -1.5570  0.4268  0.4333
   40MOL0     C 5437   6.084  10.687   5.966  0.5972 -0.2811  0.5131
   40MOL0     C 5438   6.032  10.567   6.001  0.5073 -0.2902 -0.1040
   40MOL0     C 5439   6.093  10.472   6.075 -0.4774  0.1927  0.0338
   40MOL0     C 5440   6.219  10.503   6.126 -0.5353 -0.3269 -0.3397
   40MOL0     O 5441   6.304  10.420   6.191 -0.3156  0.5618  0.1228
   40MOL0     C 5442   6.249  10.321   6.277 -1.0028 -0.3806  0.0593
   40MOL0     C 5443   6.351  10.204   6.310 -0.4383  0.4583  0.9617
   40MOL0     C 5444   6.491  10.243   6.346 -0.3953 -0.2948 -0.5866
   40MOL0     C 5445   6.508  10.373   6.434 -0.0548 -1.4351 -0.2664
   40MOL0     C 5446   6.550  10.498   6.365  0.1441 -0.8310 -0.2170
   40MOL0     C 5447   6.582  10.609   6.312 -1.1201  0.2524  0.3880
   40MOL0     C 5448   6.286  10.624   6.078 -0.0751 -0.6604 -1.1944
   40MOL0     C 5449   6.213  10.721   6.009 -0.5877  0.4146 -0.0537
   40MOL0     C 5450   6.290  10.848   5.967  0.1256  0.2041 -0.2448
   40MOL0     H 5451   5.671  10.903   5.816  3.5269  1.5801  0.7006
   40MOL0     H 5452   5.531  10.910   5.617  1.4378  1.7927 -0.0472
   40MOL0     H 5453   5.554  10.986   5.333 -1.3633  1.5439 -2.4158
   40MOL0     H 5454   5.436  10.898   5.427 -0.8753 -0.3933 -1.8904
   40MOL0     H 5455   5.380  10.778   5.219  3.0956 -1.9665  4.4680
   40MOL0     H 5456   5.386  10.957   5.194  0.2923  0.4850 -0.7090
   40MOL0     H 5457   5.625  10.937   5.126 -2.1281  0.9332  3.9068
   40MOL0     H 5458   5.602  10.756   5.127 -0.7753 -0.4529 -1.4846
   40MOL0     H 5459   5.411  10.778   4.966  2.2462 -2.9434 -0.3490
   40MOL0     H 5460   5.432  10.952   4.951 -0.5856 -0.0025  0.5041
   40MOL0     H 5461   5.652  10.757   4.907 -3.1614 -0.3256  2.2693
   40MOL0     H 5462   5.635  10.924   4.857 -0.3041 -0.0301  0.4881
   40MOL0     H 5463   5.469  10.683   4.763  0.7073  0.9148 -1.9124
   40MOL0     H 5464   5.465  10.854   4.704  1.2731  1.3906 -1.3995
   40MOL0     H 5465   5.737  10.719   4.689  0.2719  0.3890 -1.7905
   40MOL0     H 5466   5.664  10.839   4.585  0.5846 -0.7170 -2.1815
   40MOL0     H 5467   5.549  10.556   4.602  0.0461  1.5659  2.1175
   40MOL0     H 5468   5.509  10.685   4.485 -1.5427 -1.6651 -0.7888
   40MOL0     H 5469   5.770  10.400   4.513  2.2519 -0.6559 -1.5925
   40MOL0     H 5470   5.995  10.442   4.188 -3.2858  0.2701 -2.6264
   40MOL0     H 5471   5.877  10.318   4.180  2.0552  0.7810 -0.6849
   40MOL0     H 5472   6.015  10.387   4.432  1.1186  0.9239 -0.5421
   40MOL0     H 5473   5.920  10.236   4.407 -0.4116  0.0907 -0.5735
   40MOL0     H 5474   6.111  10.166   4.261 -2.1231  0.8730 -0.6465
   40MOL0     H 5475   6.198  10.318   4.298  2.0084  0.2209  2.9940
   40MOL0     H 5476   6.249  10.263   4.520 -0.8162 -0.6739  0.5637
   40MOL0     H 5477   6.127  10.147   4.531  1.1416 -0.6480  1.1214
   40MOL0     H 5478   6.268   9.954   4.652  4.9366 -2.5916 -1.7986
   40MOL0     H 5479   6.053   9.698   4.729 -0.6716  1.4773  0.9128
   40MOL0     H 5480   6.200   9.799   4.796  2.0829 -2.2715  0.3427
   40MOL0     H 5481   6.218   9.641   4.735 -0.8799 -0.4994  0.4461
   40MOL0     H 5482   5.699   9.535   4.499  0.8761 -1.8657  3.0001
   40MOL0     H 5483   5.557   9.345   4.482 -0.9812  0.3902 -2.2840
   40MOL0     H 5484   5.684   8.983   4.253 -0.1289  1.7424 -0.2138
   40MOL0     H 5485   5.762   8.972   4.415  0.1287 -0.2530  0.3894
   40MOL0     H 5486   5.619   8.771   4.350  0.2157  1.3573 -3.3890
   40MOL0     H 5487   5.599   8.845   4.511 -1.6676  1.4471  0.3241
   40MOL0     H 5488   5.441   8.947   4.263 -0.4053 -0.5381 -0.9067
   40MOL0     H 5489   5.396   8.960   4.436  0.5400  0.7836 -0.1845
   40MOL0     H 5490   5.342   8.725   4.430  1.1036  0.2297 -0.8733
   40MOL0     H 5491   5.378   8.726   4.247 -1.7986  1.4142 -1.6209
   40MOL0     H 5492   5.184   8.928   4.353 -0.6542  0.2000  0.9240
   40MOL0     H 5493   5.226   8.849   4.195  1.8688  2.5346  0.6221
   40MOL0     H 5494   5.089   8.704   4.420  0.1374  0.6424  0.7710
   40MOL0     H 5495   5.118   8.644   4.247  3.3849  0.4312 -0.6138
   40MOL0     H 5496   4.982   8.835   4.168 -1.6190 -1.4125 -0.9924
   40MOL0     H 5497   4.962   8.906   4.328  0.7432 -0.0207  0.6818
   40MOL0     H 5498   4.856   8.627   4.229  0.9777  1.8259 -3.0830
   40MOL0     H 5499   4.758   8.771   4.258 -2.2326 -1.2644  3.5149
   40MOL0     H 5500   5.862   9.132   4.250 -0.6947  1.8444 -2.0818
   40MOL0     H 5501   5.992   9.336   4.264  0.3397  0.9717  1.4706
   40MOL0     H 5502   6.064   9.724   4.264 -1.6127  0.7431  0.0561
   40MOL0     H 5503   6.182   9.956   4.234  3.0643  0.2229  0.0147
   40MOL0     H 5504   5.817  10.676   5.404 -0.3013 -1.0083  0.1906
   40MOL0     H 5505   5.968  10.670   5.618 -0.7314  2.2551  1.6980
   40MOL0     H 5506   5.936  10.540   5.958  1.1423 -2.9022 -0.0300
   40MOL0     H 5507   6.037  10.383   6.099 -1.6875  0.6079 -1.1586
   40MOL0     H 5508   6.229  10.367   6.374 -2.5707 -1.0468  0.0739
   40MOL0     H 5509   6.165  10.266   6.234  1.7293 -3.7866 -1.4496
   40MOL0     H 5510   6.367  10.139   6.224  0.6803  1.8704  0.0620
   40MOL0     H 5511   6.309  10.144   6.392 -0.4992 -0.3483  0.3489
   40MOL0     H 5512   6.535  10.159   6.401 -2.8875 -2.3399 -1.5149
   40MOL0     H 5513   6.547  10.266   6.255  0.0470  1.9277  0.1792
   40MOL0     H 5514   6.588  10.364   6.508  1.1690  1.9569 -1.0025
   40MOL0     H 5515   6.424  10.381   6.503  1.3638  0.2010  1.3782
   40MOL0     H 5516   6.611  10.705   6.274 -1.4249  1.0258  1.9939
   40MOL0     H 5517   6.386  10.649   6.114 -1.0321 -0.3087  1.4520
   40MOL0     H 5518   6.316  10.827   5.863 -0.5326 -2.7993  0.0903
   40MOL0     H 5519   6.231  10.939   5.978  0.5153  0.5994 -1.3074
   40MOL0     H 5520   6.381  10.863   6.026  0.8608  0.9501 -1.5036
   41MOL0     O 5521   3.450   0.119   7.133 -0.3315 -0.0545 -0.3403
   41MOL0     C 5522   3.365   0.067   7.202  0.1752 -1.4205  1.3547
   41MOL0     O 5523   3.302   0.116   7.316 -0.2497 -0.2043 -0.2896
   41MOL0     C 5524   3.294   0.251   7.330  0.2006  0.0822  0.0234
   41MOL0     C 5525   3.299   0.351   7.224 -0.5261 -0.0831 -0.8777
   41MOL0     C 5526   3.290   0.487   7.241  0.3418  0.4323  0.3621
   41MOL0     C 5527   3.267   0.521   7.372  0.3913  0.0122 -0.6402
   41MOL0     O 5528   3.245   0.652   7.418 -0.2114  0.7218 -0.1595
   41MOL0     C 5529   3.133   0.726   7.358 -0.9905  0.5291  0.4033
   41MOL0     C 5530   3.112   0.853   7.433 -0.3408 -0.3443 -0.4955
   41MOL0     C 5531   3.245   0.933   7.435 -0.5718  0.3513 -0.1883
   41MOL0     C 5532   3.257   1.016   7.566  0.4712 -0.3685 -0.0708
   41MOL0     C 5533   3.385   1.099   7.559  0.2003 -0.7207 -0.1766
   41MOL0     C 5534   3.424   1.200   7.665 -0.4757  0.3857 -0.0251
   41MOL0     C 5535   3.446   1.130   7.801 -0.7962 -0.3072 -0.1376
   41MOL0     C 5536   3.442   1.219   7.928  0.2074 -0.7299 -0.0905
   41MOL0     N 5537   3.483   1.360   7.905  0.5348 -0.0622  0.4533
   41MOL0     C 5538   3.608   1.399   7.861  0.1255  0.1783 -0.0027
   41MOL0     C 5539   3.602   1.537   7.855  0.8264 -0.9882 -0.1915
   41MOL0     C 5540   3.712   1.625   7.799  0.3174  0.4175  0.7053
   41MOL0     C 5541   3.783   1.564   7.676  0.1759  0.3636  0.4513
   41MOL0     C 5542   3.876   1.643   7.597 -0.1213 -0.1112  0.0054
   41MOL0     C 5543   3.820   1.774   7.534 -0.5876  0.3330 -0.3452
   41MOL0     O 5544   3.686   1.750   7.484  0.0609  0.2870  0.4017
   41MOL0     C 5545   3.618   1.865   7.463 -0.2791  0.8650  0.5485
   41MOL0     C 5546   3.591   1.954   7.565  1.0817 -1.4282 -0.1544
   41MOL0     C 5547   3.530   2.076   7.548  0.6952  0.4620  1.7964
   41MOL0     C 5548   3.517   2.169   7.669  0.2778 -0.9639 -0.7461
   41MOL0     C 5549   3.478   2.100   7.414  0.5117  0.9756 -0.7455
   41MOL0     C 5550   3.416   2.234   7.384  0.3315  0.2853 -1.0177
   41MOL0     O 5551   3.340   2.291   7.481  0.0903 -0.0523 -0.4032
   41MOL0     C 5552   3.304   2.424   7.472 -0.6300  0.8602 -0.3863
   41MOL0     C 5553   3.187   2.459   7.532  0.5293 -0.0758  0.1616
   41MOL0     C 5554   3.149   2.598   7.542  0.1711 -0.8861 -1.0644
   41MOL0     C 5555   3.228   2.694   7.483 -0.4101 -0.5788 -0.2367
   41MOL0     O 5556   3.201   2.826   7.475 -0.3993  0.1970 -0.3186
   41MOL0     C 5557   3.127   2.883   7.587 -1.2180  0.6718  1.2869
   41MOL0     C 5558   2.984   2.923   7.531 -0.2682  0.1764  0.0234
   41MOL0     C 5559   2.903   2.980   7.649  0.0405  0.0414  0.7664
   41MOL0     C 5560   2.756   2.996   7.620 -0.1858 -0.1957  0.5777
   41MOL0     C 5561   2.661   3.056   7.725  0.4086  0.0249 -0.2380
   41MOL0     C 5562   2.692   2.969   7.853  0.0247 -1.6880  0.0694
   41MOL0     C 5563   2.585   2.981   7.959 -0.8058  0.0616  1.0996
   41MOL0     C 5564   2.570   3.119   8.017 -0.4285 -0.3392  0.3665
   41MOL0    Cl 5565   2.429   3.111   8.131  0.7883 -0.1783  0.6882
   41MOL0     C 5566   3.348   2.648   7.417  0.5726 -0.6350  0.7574
   41MOL0     C 5567   3.387   2.522   7.416  0.4093  0.4940 -0.6432
   41MOL0     O 5568   3.423   2.279   7.272 -0.5550  0.5506  0.0922
   41MOL0     C 5569   3.509   2.011   7.305  0.9166  0.0930 -0.7608
   41MOL0     C 5570   3.571   1.897   7.334  0.2088  0.9808  0.7031
   41MOL0     N 5571   3.468   1.579   7.894  0.1005 -0.5562 -0.5817
   41MOL0     N 5572   3.401   1.472   7.924  0.0611  0.0973  0.3450
   41MOL0     C 5573   3.260   0.425   7.478  0.1481  0.2509 -0.9499
   41MOL0     C 5574   3.280   0.295   7.457  0.5967  0.2766  0.2164
   41MOL0     C 5575   3.333  -0.078   7.175  0.5913 -0.3299 -0.2421
   41MOL0     C 5576   3.316  -0.165   7.282  0.2297  0.0609 -0.1497
   41MOL0     C 5577   3.322  -0.310   7.268 -0.6120 -0.7510 -0.4790
   41MOL0     C 5578   3.320  -0.361   7.141 -0.3056 -0.2960 -0.4336
   41MOL0     O 5579   3.277  -0.482   7.110  0.3447  0.0098 -0.0712
   41MOL0     C 5580   3.226  -0.587   7.194  1.4892 -0.6729  0.3770
   41MOL0     C 5581   3.341  -0.659   7.263  0.2456  0.7141  0.8060
   41MOL0     C 5582   3.291  -0.777   7.354  0.9957  0.3772  0.4507
   41MOL0     C 5583   3.248  -0.903   7.284  0.5762 -0.8173 -0.3773
   41MOL0     C 5584   3.226  -1.003   7.391 -0.5367  1.7707  0.9147
   41MOL0     C 5585   3.200  -1.085   7.474  1.0115 -0.8714 -0.1730
   41MOL0     C 5586   3.328  -0.274   7.032  0.2264 -0.2274 -0.1648
   41MOL0     C 5587   3.344  -0.135   7.048 -0.2272 -0.0614 -0.2273
   41MOL0     C 5588   3.362  -0.048   6.930  0.1858  0.6210 -0.3564
   41MOL0     H 5589   3.317   0.328   7.120  2.8983 -2.4919  0.0667
   41MOL0     H 5590   3.282   0.557   7.158 -0.6677 -1.8923 -1.6421
   41MOL0     H 5591   3.040   0.670   7.374 -1.4076  1.3916  1.0348
   41MOL0     H 5592   3.156   0.749   7.253  1.5359  0.7390  0.9401
   41MOL0     H 5593   3.034   0.908   7.380 -0.2763 -0.4490 -0.7039
   41MOL0     H 5594   3.085   0.829   7.536  1.5578 -0.9112 -0.0841
   41MOL0     H 5595   3.335   0.870   7.440  0.8912  2.0970 -2.4163
   41MOL0     H 5596   3.259   0.991   7.343  0.4569 -0.0642 -0.3060
   41MOL0     H 5597   3.166   1.075   7.580  2.4382  2.7127  0.6860
   41MOL0     H 5598   3.272   0.947   7.650 -2.4874  0.1925  1.0622
   41MOL0     H 5599   3.367   1.152   7.465 -1.5400 -2.1413 -0.7069
   41MOL0     H 5600   3.468   1.030   7.541  0.3090 -0.7994  0.5938
   41MOL0     H 5601   3.509   1.262   7.634  0.7904 -1.8056 -1.1932
   41MOL0     H 5602   3.338   1.267   7.663 -2.0475 -1.5013  0.6120
   41MOL0     H 5603   3.550   1.098   7.789 -0.2804  0.9185  0.9377
   41MOL0     H 5604   3.396   1.033   7.809  1.2877 -1.5890 -1.6576
   41MOL0     H 5605   3.337   1.222   7.960  0.8946  3.0874  2.3705
   41MOL0     H 5606   3.495   1.185   8.017  1.1702  2.3140  0.6161
   41MOL0     H 5607   3.695   1.336   7.845  2.2103  2.8830 -0.0427
   41MOL0     H 5608   3.787   1.647   7.876  1.6233 -0.7612 -0.1784
   41MOL0     H 5609   3.659   1.716   7.770 -0.3109  0.6727  2.5355
   41MOL0     H 5610   3.829   1.466   7.693 -0.7943 -0.5462 -1.7637
   41MOL0     H 5611   3.704   1.539   7.605  0.6582 -1.2550  0.4298
   41MOL0     H 5612   3.957   1.672   7.665  0.3184 -2.8005  0.7480
   41MOL0     H 5613   3.927   1.577   7.527  0.3562  1.0907 -0.8129
   41MOL0     H 5614   3.823   1.849   7.613  0.5904 -0.9007  0.8213
   41MOL0     H 5615   3.884   1.813   7.453 -0.6325  1.3197  0.0777
   41MOL0     H 5616   3.622   1.930   7.666  1.4069  1.7859  0.6123
   41MOL0     H 5617   3.533   2.274   7.641  1.1873 -0.8379  0.1944
   41MOL0     H 5618   3.600   2.146   7.737  0.8832 -2.7811 -2.0298
   41MOL0     H 5619   3.423   2.158   7.724  2.5232 -2.4372  3.1883
   41MOL0     H 5620   3.106   2.400   7.573 -1.5391  2.7413  0.4650
   41MOL0     H 5621   3.057   2.618   7.596  1.7367  2.1553  0.7043
   41MOL0     H 5622   3.133   2.818   7.674 -1.5216 -0.3197  0.5888
   41MOL0     H 5623   3.174   2.978   7.616  0.7414 -0.5033  2.2014
   41MOL0     H 5624   3.008   2.999   7.456 -1.7132  0.7037  0.0601
   41MOL0     H 5625   2.928   2.842   7.483 -1.0293  1.8031 -1.9975
   41MOL0     H 5626   2.947   3.078   7.668  1.1705  0.1554 -1.9046
   41MOL0     H 5627   2.910   2.917   7.738 -1.1234  0.3281  1.0887
   41MOL0     H 5628   2.716   2.899   7.589 -1.7543  0.7094 -0.3513
   41MOL0     H 5629   2.742   3.059   7.531 -2.9980 -1.1011  0.2890
   41MOL0     H 5630   2.695   3.159   7.741  0.0603  0.1383 -0.2111
   41MOL0     H 5631   2.556   3.063   7.697  0.4863 -0.2213 -0.5925
   41MOL0     H 5632   2.791   2.995   7.893  0.6497 -3.5074 -0.2210
   41MOL0     H 5633   2.688   2.865   7.820 -2.6716 -1.3209 -0.9668
   41MOL0     H 5634   2.615   2.910   8.037  0.6565 -0.3666  0.1931
   41MOL0     H 5635   2.495   2.942   7.911 -0.9953  0.5200  1.0844
   41MOL0     H 5636   2.554   3.197   7.942 -0.3313  1.0460  1.7437
   41MOL0     H 5637   2.662   3.152   8.066 -0.5787  0.9129 -0.1624
   41MOL0     H 5638   3.408   2.711   7.352 -2.2892  0.1688 -1.3041
   41MOL0     H 5639   3.485   2.496   7.376  0.8054 -0.9132  1.1195
   41MOL0     H 5640   3.465   2.036   7.209 -0.1746 -0.5607 -0.4389
   41MOL0     H 5641   3.596   1.831   7.252 -0.0772  0.2299  1.2053
   41MOL0     H 5642   3.230   0.462   7.576 -1.5441 -2.2295 -0.4231
   41MOL0     H 5643   3.258   0.231   7.542  0.5207  0.0058 -0.0084
   41MOL0     H 5644   3.317  -0.129   7.384  2.6432 -0.6310  0.1270
   41MOL0     H 5645   3.333  -0.376   7.354  3.1557 -0.7575 -0.7812
   41MOL0     H 5646   3.162  -0.536   7.267  1.3725 -1.9566  1.2113
   41MOL0     H 5647   3.150  -0.647   7.143 -3.0275  1.9428  3.2885
   41MOL0     H 5648   3.397  -0.592   7.329 -0.0479  2.5066 -0.6804
   41MOL0     H 5649   3.411  -0.696   7.187 -1.8976  0.0496 -0.9427
   41MOL0     H 5650   3.371  -0.805   7.423  2.6194 -0.6131 -1.7044
   41MOL0     H 5651   3.200  -0.746   7.405 -0.0105 -2.0346  0.2692
   41MOL0     H 5652   3.320  -0.942   7.211  2.0567  2.5726 -0.8856
   41MOL0     H 5653   3.153  -0.876   7.238  0.3140 -1.1053 -0.0106
   41MOL0     H 5654   3.168  -1.146   7.556 -1.0279  0.3341  0.0087
   41MOL0     H 5655   3.324  -0.316   6.932 -0.9598 -2.6540  0.8151
   41MOL0     H 5656   3.315  -0.105   6.849  0.6419 -3.5692  2.0483
   41MOL0     H 5657   3.303   0.043   6.934  1.2566  1.2746  1.8176
   41MOL0     H 5658   3.468  -0.031   6.909  0.6346  0.5295  1.6777
   42MOL0     O 5659   4.234   4.182   0.649 -0.1575  0.1853 -0.3336
   42MOL0     C 5660   4.324   4.166   0.726  0.6088 -0.0810  0.2434
   42MOL0     O 5661   4.321   4.104   0.846 -0.0135  0.1430 -0.3176
   42MOL0     C 5662   4.212   4.050   0.909 -0.6149  0.8652 -1.0930
   42MOL0     C 5663   4.220   4.030   1.050  0.2511  0.1134 -0.0217
   42MOL0     C 5664   4.118   3.975   1.122  0.0170 -0.5040  0.6082
   42MOL0     C 5665   4.003   3.932   1.059  0.2506  0.7248  0.6444
   42MOL0     O 5666   3.881   3.893   1.126 -0.4117 -0.5897  0.4735
   42MOL0     C 5667   3.881   3.892   1.269  0.5193 -0.2739 -0.1216
   42MOL0     C 5668   3.850   4.035   1.312  0.7106 -0.1573 -0.1581
   42MOL0     C 5669   3.878   4.061   1.459 -0.7892 -0.7157 -0.1260
   42MOL0     C 5670   3.812   4.187   1.523  0.6781 -0.4163 -1.0414
   42MOL0     C 5671   3.843   4.202   1.672  0.4460  0.6456  0.1893
   42MOL0     C 5672   3.950   4.312   1.685  0.1347 -0.3974  0.6582
   42MOL0     C 5673   4.017   4.315   1.822  0.1717  0.1421  0.1912
   42MOL0     C 5674   4.075   4.186   1.862 -0.4270 -0.7976 -0.2702
   42MOL0     N 5675   4.171   4.133   1.772  0.6397  0.1595  0.0432
   42MOL0     C 5676   4.297   4.180   1.751 -0.6311 -0.7532 -1.1401
   42MOL0     C 5677   4.353   4.097   1.661 -0.6171 -0.3151 -0.8094
   42MOL0     C 5678   4.489   4.106   1.586  0.7195  0.5162 -0.1848
   42MOL0     C 5679   4.514   4.240   1.522 -0.4422 -0.8047 -0.1194
   42MOL0     C 5680   4.663   4.267   1.493 -0.2518  0.2363  0.0408
   42MOL0     C 5681   4.748   4.145   1.464 -0.9446 -0.8267 -0.3821
   42MOL0     O 5682   4.884   4.199   1.455  0.0474  0.2531 -0.2266
   42MOL0     C 5683   5.002   4.127   1.470  0.0630 -0.2791  0.0605
   42MOL0     C 5684   5.000   3.988   1.492  0.0817  0.4484  0.8192
   42MOL0     C 5685   5.124   3.918   1.514 -0.3290 -0.8047 -0.4879
   42MOL0     C 5686   5.105   3.773   1.544  0.7699  0.3423  0.1820
   42MOL0     C 5687   5.253   3.988   1.512  0.4811 -0.4032  0.3070
   42MOL0     C 5688   5.393   3.931   1.531  0.5212 -0.2647  0.0671
   42MOL0     O 5689   5.498   3.976   1.455 -0.6026  0.2085 -0.0206
   42MOL0     C 5690   5.621   3.908   1.470 -0.0838  1.3660 -0.4911
   42MOL0     C 5691   5.689   3.894   1.589  0.6318 -0.3452 -0.1608
   42MOL0     C 5692   5.808   3.820   1.600 -0.8517 -0.0853  1.0331
   42MOL0     C 5693   5.861   3.739   1.495  0.1891 -0.8146 -0.4632
   42MOL0     O 5694   5.957   3.649   1.515 -0.1870  0.1114 -0.0576
   42MOL0     C 5695   5.988   3.545   1.423 -0.3693  0.2112 -0.7969
   42MOL0     C 5696   6.061   3.428   1.508 -0.3096 -0.4103  1.4851
   42MOL0     C 5697   6.111   3.306   1.424 -0.0725  0.1700  0.9754
   42MOL0     C 5698   6.206   3.215   1.506 -0.1134  0.5482 -0.5965
   42MOL0     C 5699   6.292   3.116   1.420 -0.0236  0.1860 -0.0347
   42MOL0     C 5700   6.188   2.998   1.382 -0.3575 -0.4806  0.0886
   42MOL0     C 5701   6.247   2.863   1.330  0.4792 -0.8523 -0.0661
   42MOL0     C 5702   6.135   2.768   1.304 -0.4686 -0.3772  0.9437
   42MOL0    Cl 5703   6.027   2.725   1.438  0.1855 -0.2840  0.1227
   42MOL0     C 5704   5.786   3.749   1.377  0.2266 -0.5455  0.9303
   42MOL0     C 5705   5.673   3.831   1.367 -0.4384  0.2344 -0.8306
   42MOL0     O 5706   5.398   3.839   1.612  0.3868 -0.4972 -0.6114
   42MOL0     C 5707   5.248   4.124   1.486 -0.0087 -0.8667  0.6934
   42MOL0     C 5708   5.127   4.198   1.469  0.4197 -0.4630 -0.3331
   42MOL0     N 5709   4.265   3.996   1.629  0.2395 -0.2298  0.4961
   42MOL0     N 5710   4.154   4.021   1.689  0.0622 -0.1522 -0.5481
   42MOL0     C 5711   3.994   3.958   0.916  0.1023 -0.0883 -0.4403
   42MOL0     C 5712   4.101   4.015   0.848  0.4255 -0.0995 -0.5540
   42MOL0     C 5713   4.451   4.223   0.688 -0.0787 -1.4598  0.1239
   42MOL0     C 5714   4.559   4.145   0.642 -0.0544  0.1509  0.1152
   42MOL0     C 5715   4.677   4.211   0.606  0.7284  0.1748  0.6485
   42MOL0     C 5716   4.688   4.349   0.605 -1.1490  0.3205  0.4538
   42MOL0     O 5717   4.804   4.417   0.559 -0.2964 -0.1088  0.1851
   42MOL0     C 5718   4.770   4.478   0.431  0.4590  0.4388  0.9971
   42MOL0     C 5719   4.900   4.559   0.387 -0.2111 -0.2468 -0.4093
   42MOL0     C 5720   5.003   4.473   0.320  0.2683  1.2959  0.0797
   42MOL0     C 5721   5.134   4.551   0.298 -0.3720 -0.0972  0.1937
   42MOL0     C 5722   5.253   4.459   0.276  0.3181  0.4518 -0.6058
   42MOL0     C 5723   5.360   4.411   0.258 -0.7224 -0.3529 -0.4338
   42MOL0     C 5724   4.583   4.428   0.652 -0.2309  1.5574 -0.0564
   42MOL0     C 5725   4.471   4.365   0.700  0.3779  0.0862  0.3232
   42MOL0     C 5726   4.376   4.459   0.774  0.4416  0.5103 -0.4871
   42MOL0     H 5727   4.300   4.076   1.107  0.4213 -2.1432  1.6977
   42MOL0     H 5728   4.139   3.983   1.228  1.5191 -2.2000  0.4858
   42MOL0     H 5729   3.975   3.851   1.306  1.1584 -1.1754 -2.5470
   42MOL0     H 5730   3.800   3.828   1.305  1.8616 -2.5739 -0.9319
   42MOL0     H 5731   3.901   4.111   1.251  0.9607  0.4514  0.7816
   42MOL0     H 5732   3.745   4.056   1.290  1.0127  0.5176 -1.0215
   42MOL0     H 5733   3.839   3.970   1.505  0.1126 -0.3987  1.3229
   42MOL0     H 5734   3.986   4.080   1.465 -0.5899 -0.4424 -3.0339
   42MOL0     H 5735   3.840   4.280   1.472 -2.8679  1.0439 -0.5954
   42MOL0     H 5736   3.708   4.169   1.498  1.1642  0.0726 -3.7544
   42MOL0     H 5737   3.866   4.110   1.726 -0.1295  1.7842  2.5375
   42MOL0     H 5738   3.754   4.233   1.728 -0.6117 -3.1251  0.8796
   42MOL0     H 5739   4.026   4.285   1.612 -0.7652 -0.1759 -0.3956
   42MOL0     H 5740   3.909   4.411   1.663  2.8783  0.5109 -0.7554
   42MOL0     H 5741   3.949   4.363   1.893  0.8550 -1.0081  1.6681
   42MOL0     H 5742   4.104   4.381   1.826  2.0683 -1.8594 -3.3684
   42MOL0     H 5743   4.122   4.205   1.959 -3.0649  0.9205  0.7735
   42MOL0     H 5744   3.998   4.110   1.880 -3.1785  1.9578  0.5899
   42MOL0     H 5745   4.342   4.267   1.798 -0.0267 -0.6603 -1.8693
   42MOL0     H 5746   4.471   4.030   1.509 -0.3270 -2.0192  2.3548
   42MOL0     H 5747   4.575   4.077   1.647 -1.0258 -2.1363  1.2124
   42MOL0     H 5748   4.451   4.252   1.433 -1.1654 -2.6829  0.0898
   42MOL0     H 5749   4.490   4.327   1.583  2.2987 -0.1535  0.1692
   42MOL0     H 5750   4.677   4.319   1.398  2.5076  0.2662  0.3824
   42MOL0     H 5751   4.708   4.322   1.576 -0.6931 -0.9527  1.1069
   42MOL0     H 5752   4.741   4.079   1.551 -0.3948 -4.3824 -2.8020
   42MOL0     H 5753   4.701   4.091   1.381 -0.3024 -1.1445 -0.5429
   42MOL0     H 5754   4.914   3.922   1.489  1.0957 -0.9903  1.7653
   42MOL0     H 5755   5.002   3.743   1.563 -0.4269  4.1446  0.5428
   42MOL0     H 5756   5.161   3.743   1.633  0.6882  1.4359  0.6301
   42MOL0     H 5757   5.145   3.729   1.453 -2.4238 -3.8584  0.5461
   42MOL0     H 5758   5.660   3.950   1.677  0.1831  0.6978 -0.9487
   42MOL0     H 5759   5.859   3.831   1.695  0.9925  2.0520 -0.0846
   42MOL0     H 5760   5.894   3.501   1.387 -0.3648 -0.9700  0.5431
   42MOL0     H 5761   6.058   3.582   1.347  1.9554 -0.2148  1.0166
   42MOL0     H 5762   6.154   3.467   1.552 -0.4079  1.6450  0.0051
   42MOL0     H 5763   6.000   3.382   1.587 -1.0726 -1.1867  0.4556
   42MOL0     H 5764   6.169   3.352   1.343 -0.6007 -1.4378 -0.3750
   42MOL0     H 5765   6.033   3.249   1.372  0.5674 -0.5085  0.7340
   42MOL0     H 5766   6.149   3.165   1.585  1.8348 -0.0479  0.5008
   42MOL0     H 5767   6.276   3.275   1.565  1.4625 -1.3302 -0.4429
   42MOL0     H 5768   6.339   3.151   1.328 -1.2278  0.4140 -0.5888
   42MOL0     H 5769   6.380   3.080   1.473  0.8996  2.2977 -0.0538
   42MOL0     H 5770   6.118   3.039   1.308  2.1229  2.6957 -0.7181
   42MOL0     H 5771   6.136   2.967   1.473  2.0105 -2.3410  0.8976
   42MOL0     H 5772   6.314   2.829   1.410 -0.5585 -1.3856  0.5866
   42MOL0     H 5773   6.298   2.883   1.235 -0.0229  0.4020 -0.0927
   42MOL0     H 5774   6.191   2.676   1.283  0.0641  0.0995  0.2137
   42MOL0     H 5775   6.078   2.793   1.214 -0.0262  0.0540  0.7770
   42MOL0     H 5776   5.800   3.677   1.298 -0.5226  0.0289  0.2546
   42MOL0     H 5777   5.613   3.826   1.276 -0.8746  1.1092 -0.6048
   42MOL0     H 5778   5.336   4.187   1.494 -0.9651  1.2650 -3.1567
   42MOL0     H 5779   5.134   4.304   1.447 -1.2142 -0.2610 -0.0111
   42MOL0     H 5780   3.898   3.938   0.869 -0.3636 -2.1674  1.2357
   42MOL0     H 5781   4.098   4.032   0.741 -0.3235  0.0092 -0.5163
   42MOL0     H 5782   4.553   4.037   0.653 -1.9218  0.3493  1.7980
   42MOL0     H 5783   4.752   4.137   0.580  0.4944 -0.3083  1.3138
   42MOL0     H 5784   4.747   4.399   0.359  0.9192 -2.0142  3.3661
   42MOL0     H 5785   4.693   4.554   0.448  0.0385  0.4011 -0.6506
   42MOL0     H 5786   4.941   4.613   0.474 -2.6870 -1.1751  1.4540
   42MOL0     H 5787   4.867   4.632   0.312 -0.6394 -2.6474 -2.6739
   42MOL0     H 5788   5.026   4.385   0.382  3.4011  0.3222 -2.1807
   42MOL0     H 5789   4.963   4.434   0.226 -0.5158  1.6794  0.2487
   42MOL0     H 5790   5.157   4.599   0.393  0.7428 -0.4213  0.0998
   42MOL0     H 5791   5.110   4.625   0.222 -5.8261 -1.3423  0.2728
   42MOL0     H 5792   5.459   4.390   0.223 -0.7603  0.0361 -0.7925
   42MOL0     H 5793   4.601   4.532   0.677  2.7473  1.2648 -0.6525
   42MOL0     H 5794   4.380   4.422   0.877  0.2881  1.5527 -0.0979
   42MOL0     H 5795   4.411   4.563   0.775 -0.0061  0.6596 -0.2879
   42MOL0     H 5796   4.271   4.450   0.746 -0.4478 -1.8120  2.9715
   43MOL0     O 5797   3.469  10.083   3.453  0.3636  0.3487  0.4238
   43MOL0     C 5798   3.462  10.195   3.493 -0.1347  0.2727  0.0890
   43MOL0     O 5799   3.397  10.237   3.605  0.9002  0.1554  0.4174
   43MOL0     C 5800   3.309  10.150   3.668  0.6710 -0.9891 -0.5151
   43MOL0     C 5801   3.168  10.179   3.661  0.6333  0.8700 -0.3357
   43MOL0     C 5802   3.082  10.103   3.739 -0.4828  0.3070  0.3142
   43MOL0     C 5803   3.133  10.003   3.823  0.1255 -0.1726  0.4687
   43MOL0     O 5804   3.048   9.917   3.890 -0.2011  0.4286  0.3071
   43MOL0     C 5805   3.071   9.777   3.901 -0.3174 -0.0907 -0.3883
   43MOL0     C 5806   3.038   9.689   3.781 -0.5773 -0.4922 -0.3079
   43MOL0     C 5807   2.889   9.683   3.745 -0.4565 -1.0236  0.7632
   43MOL0     C 5808   2.839   9.825   3.694 -0.2168  0.1010  0.2624
   43MOL0     C 5809   2.695   9.810   3.637  0.5423 -0.5824 -0.7671
   43MOL0     C 5810   2.632   9.949   3.627  0.3748  0.8506 -0.6363
   43MOL0     C 5811   2.494   9.947   3.565 -0.2410  0.4938  0.3153
   43MOL0     C 5812   2.516   9.944   3.420 -0.6713  0.3907  0.6268
   43MOL0     N 5813   2.395   9.949   3.332 -0.0691  0.4682 -0.0636
   43MOL0     C 5814   2.280   9.877   3.341 -0.4956 -0.3568 -0.2853
   43MOL0     C 5815   2.223   9.906   3.228  0.2776  0.6354  0.2322
   43MOL0     C 5816   2.077   9.856   3.193 -0.0267  0.1032 -0.0988
   43MOL0     C 5817   1.979   9.867   3.310  0.1165  0.3472 -0.4575
   43MOL0     C 5818   1.978  10.000   3.379 -0.2320 -0.3422 -0.4708
   43MOL0     C 5819   1.956  10.112   3.278  0.6633  0.3072  0.4749
   43MOL0     O 5820   1.966  10.239   3.340  0.4632 -0.2053  0.4891
   43MOL0     C 5821   2.082  10.272   3.413 -0.8567 -0.4538 -0.0874
   43MOL0     C 5822   2.204  10.308   3.364  0.1083  0.8145 -0.7584
   43MOL0     C 5823   2.316  10.319   3.456  0.5440  0.4067  0.2939
   43MOL0     C 5824   2.450  10.348   3.399  0.6994  0.0993 -0.1379
   43MOL0     C 5825   2.297  10.314   3.593  0.4173  0.7987 -0.0605
   43MOL0     C 5826   2.403  10.312   3.691  0.2940  1.6385 -0.9574
   43MOL0     O 5827   2.364  10.330   3.821 -0.0922 -0.4986  0.3496
   43MOL0     C 5828   2.467  10.340   3.908 -0.1559 -1.0674  0.1441
   43MOL0     C 5829   2.461  10.271   4.027 -0.4900 -1.5538 -0.1151
   43MOL0     C 5830   2.563  10.275   4.124  0.2680  0.9076  0.0458
   43MOL0     C 5831   2.680  10.348   4.103 -0.2714 -0.0683 -0.1623
   43MOL0     O 5832   2.789  10.351   4.173  1.0458 -0.0120  0.0433
   43MOL0     C 5833   2.815  10.230   4.244 -1.2312 -1.1434 -0.6116
   43MOL0     C 5834   2.966  10.227   4.280 -0.7096  1.3571  0.1060
   43MOL0     C 5835   3.067  10.219   4.153 -0.2669  0.4512 -0.3452
   43MOL0     C 5836   3.212  10.216   4.194 -1.1150  0.6029 -0.0849
   43MOL0     C 5837   3.302  10.263   4.078  0.6147 -0.4457 -0.2835
   43MOL0     C 5838   3.442  10.246   4.112  0.2629 -0.3561 -1.4263
   43MOL0     C 5839   3.521  10.337   4.013  0.3442 -0.6451 -0.3979
   43MOL0     C 5840   3.666  10.327   4.029  0.4292  0.1905  0.1771
   43MOL0    Cl 5841   3.736  10.162   4.070  0.1332  0.2605  0.5879
   43MOL0     C 5842   2.678  10.426   3.992  0.5050 -0.9736 -0.8232
   43MOL0     C 5843   2.570  10.429   3.895  0.0252  0.3400  0.5271
   43MOL0     O 5844   2.507  10.262   3.665 -0.9299 -0.4313  0.9896
   43MOL0     C 5845   2.165  10.300   3.642 -0.5658 -0.3269  0.2250
   43MOL0     C 5846   2.058  10.274   3.553 -0.0449 -0.2622  0.2437
   43MOL0     N 5847   2.289  10.002   3.156  0.6938  0.0627  0.1795
   43MOL0     N 5848   2.390  10.029   3.218 -0.8302 -0.6963 -0.3746
   43MOL0     C 5849   3.270   9.979   3.821  1.0957 -0.3139  0.0048
   43MOL0     C 5850   3.356  10.049   3.752 -0.5938  0.0833 -0.2621
   43MOL0     C 5851   3.528  10.296   3.414 -0.1607 -0.1146  0.1351
   43MOL0     C 5852   3.492  10.303   3.268 -0.3281  0.5456  0.1576
   43MOL0     C 5853   3.543  10.418   3.198 -0.5631  1.0833  0.4032
   43MOL0     C 5854   3.627  10.514   3.259 -0.0865 -0.0960  0.5721
   43MOL0     O 5855   3.670  10.624   3.197  0.3148  0.1390  0.4336
   43MOL0     C 5856   3.577  10.696   3.114  0.2551 -0.1070  0.8174
   43MOL0     C 5857   3.609  10.845   3.133 -0.0711  1.0783  0.5680
   43MOL0     C 5858   3.557  10.928   3.015  0.1663  0.3304 -0.2837
   43MOL0     C 5859   3.611  11.073   3.014  0.5411  0.2245 -0.7845
   43MOL0     C 5860   3.570  11.142   3.134  0.5564  0.1246  0.8108
   43MOL0     C 5861   3.523  11.183   3.233 -0.3387  0.5884 -0.8812
   43MOL0     C 5862   3.663  10.505   3.395 -0.5446 -0.0539 -1.2141
   43MOL0     C 5863   3.608  10.399   3.475  0.1137  0.1894 -0.3444
   43MOL0     C 5864   3.647  10.407   3.614  0.1932  0.2517 -0.7408
   43MOL0     H 5865   3.132  10.255   3.592 -1.9270  1.0934  1.1097
   43MOL0     H 5866   2.974  10.107   3.729 -0.3439 -0.3671 -2.2179
   43MOL0     H 5867   3.013   9.748   3.989  1.3793  0.4689  0.9753
   43MOL0     H 5868   3.176   9.756   3.922 -0.4646  1.4435  2.3511
   43MOL0     H 5869   3.097   9.721   3.694 -0.5196  1.1044  0.2837
   43MOL0     H 5870   3.070   9.591   3.814 -1.0127  0.9514  5.3772
   43MOL0     H 5871   2.876   9.617   3.659 -0.3854 -0.1998  0.1023
   43MOL0     H 5872   2.840   9.638   3.832  2.4425 -3.5629  1.2519
   43MOL0     H 5873   2.833   9.887   3.784 -1.5207  0.8762 -0.3298
   43MOL0     H 5874   2.912   9.876   3.631  3.5061 -0.3431  3.8225
   43MOL0     H 5875   2.642   9.741   3.704  1.7336 -0.4600  0.3555
   43MOL0     H 5876   2.700   9.756   3.543  3.0316 -0.4297 -0.7936
   43MOL0     H 5877   2.607   9.975   3.730  0.0610 -4.3333  0.8635
   43MOL0     H 5878   2.697  10.023   3.578 -2.9055  2.9876 -2.1290
   43MOL0     H 5879   2.428  10.028   3.596 -0.6719  0.1421  0.3300
   43MOL0     H 5880   2.448   9.856   3.605  0.2576 -0.1034 -0.4338
   43MOL0     H 5881   2.589  10.017   3.384 -0.0482 -0.9445 -0.9550
   43MOL0     H 5882   2.563   9.848   3.399  1.7254  1.6554 -0.1427
   43MOL0     H 5883   2.251   9.813   3.424 -2.1330 -1.8431 -1.9383
   43MOL0     H 5884   2.078   9.757   3.148  0.5953  1.7978 -4.2315
   43MOL0     H 5885   2.034   9.915   3.111  0.0234  1.1217  0.5897
   43MOL0     H 5886   1.882   9.848   3.263 -0.5646  1.0603  0.6033
   43MOL0     H 5887   1.996   9.802   3.397 -0.4879  3.6272  2.3611
   43MOL0     H 5888   1.896  10.003   3.452  0.0404  1.3843 -0.2100
   43MOL0     H 5889   2.075  10.004   3.430  0.3746 -0.2774 -1.6089
   43MOL0     H 5890   2.031  10.112   3.198  0.4242 -2.5862  0.1553
   43MOL0     H 5891   1.860  10.091   3.231 -0.2215 -1.3734  2.8017
   43MOL0     H 5892   2.216  10.304   3.256 -0.4604 -2.3880 -0.7775
   43MOL0     H 5893   2.523  10.269   3.414 -0.3867 -1.3500 -1.9709
   43MOL0     H 5894   2.505  10.437   3.432  2.1544  0.5683 -3.4529
   43MOL0     H 5895   2.432  10.350   3.291 -3.3398  0.9783  0.3754
   43MOL0     H 5896   2.370  10.213   4.040 -2.1411  1.3052  2.1145
   43MOL0     H 5897   2.535  10.215   4.211  1.4346  1.7921  1.0674
   43MOL0     H 5898   2.751  10.243   4.332  1.6921  1.2341  1.3854
   43MOL0     H 5899   2.782  10.136   4.198 -1.1325 -1.4767 -0.0196
   43MOL0     H 5900   2.994  10.303   4.353 -0.9845  0.2268  1.4372
   43MOL0     H 5901   2.980  10.133   4.334 -1.8419 -0.5548 -2.6761
   43MOL0     H 5902   3.056  10.298   4.078  0.9635  0.6197 -0.3728
   43MOL0     H 5903   3.047  10.122   4.107  0.6494  0.3898 -0.6347
   43MOL0     H 5904   3.239  10.124   4.246 -0.4729  3.0887  4.5039
   43MOL0     H 5905   3.225  10.279   4.282  0.6196  0.1666  0.0052
   43MOL0     H 5906   3.276  10.218   3.981 -2.0450  1.1073 -0.3902
   43MOL0     H 5907   3.277  10.369   4.069  0.9466 -0.0883  2.4332
   43MOL0     H 5908   3.465  10.139   4.113  0.1107 -0.3943 -0.0010
   43MOL0     H 5909   3.454  10.287   4.212 -3.0250  0.0332 -1.0883
   43MOL0     H 5910   3.487  10.441   4.014 -2.9099 -1.5391 -2.2723
   43MOL0     H 5911   3.500  10.309   3.909 -0.7185 -1.9690  0.1416
   43MOL0     H 5912   3.681  10.385   4.121  1.0291 -0.2634  0.3803
   43MOL0     H 5913   3.718  10.376   3.946 -0.1224 -1.4875 -1.2178
   43MOL0     H 5914   2.755  10.503   3.995  0.5493 -1.0450  1.6036
   43MOL0     H 5915   2.576  10.488   3.804  1.6487  1.3478  1.2190
   43MOL0     H 5916   2.154  10.294   3.750 -0.7436  1.9906  0.3821
   43MOL0     H 5917   1.959  10.257   3.595  0.5426 -0.1955  1.7084
   43MOL0     H 5918   3.321   9.907   3.884  0.8991 -1.7482 -1.4220
   43MOL0     H 5919   3.462  10.028   3.747 -0.4030  1.1770 -0.9497
   43MOL0     H 5920   3.434  10.225   3.220  3.1559 -0.6009 -2.7259
   43MOL0     H 5921   3.519  10.430   3.093 -0.7187 -2.8732 -0.1856
   43MOL0     H 5922   3.598  10.659   3.013  1.6744 -2.7375  2.0036
   43MOL0     H 5923   3.471  10.686   3.140  0.3459  1.1575  1.7878
   43MOL0     H 5924   3.715  10.871   3.144  0.8530 -0.4855 -3.1782
   43MOL0     H 5925   3.564  10.876   3.228 -2.1892 -1.8224  0.6730
   43MOL0     H 5926   3.586  10.875   2.924  1.2378 -0.4428  0.4823
   43MOL0     H 5927   3.447  10.929   3.010 -0.2044 -3.3323  2.5558
   43MOL0     H 5928   3.585  11.124   2.920  0.6978 -0.5043 -1.2280
   43MOL0     H 5929   3.720  11.073   3.011  0.6356 -2.0334  0.3436
   43MOL0     H 5930   3.489  11.222   3.327  1.1201 -1.4242  0.5582
   43MOL0     H 5931   3.714  10.587   3.445 -2.8102  0.9500 -0.4216
   43MOL0     H 5932   3.620  10.327   3.683  1.5015  2.3278  2.4002
   43MOL0     H 5933   3.756  10.419   3.610 -0.0641  3.5804 -0.3633
   43MOL0     H 5934   3.606  10.495   3.663  1.7680  0.9316 -0.5880
   44MOL0     O 5935   4.675  11.176   6.057  0.3763  0.3615  0.1515
   44MOL0     C 5936   4.624  11.214   6.160  0.0089  0.8961  0.0388
   44MOL0     O 5937   4.703  11.252   6.272 -0.0201 -0.2238  0.1783
   44MOL0     C 5938   4.836  11.289   6.247  0.5451  0.6942  0.4366
   44MOL0     C 5939   4.880  11.390   6.153 -0.1262 -0.4198 -0.4781
   44MOL0     C 5940   5.015  11.413   6.141 -0.2186 -0.8702 -0.2941
   44MOL0     C 5941   5.111  11.347   6.220  0.4076 -0.2834  0.4802
   44MOL0     O 5942   5.245  11.362   6.215  0.5691  0.2389  0.6120
   44MOL0     C 5943   5.289  11.463   6.117 -0.8280 -0.0445 -0.2600
   44MOL0     C 5944   5.444  11.461   6.105 -0.1267  0.0130  0.1917
   44MOL0     C 5945   5.494  11.576   6.017 -0.1565  0.0293 -0.3701
   44MOL0     C 5946   5.521  11.540   5.870  0.6819 -0.4008 -0.3284
   44MOL0     C 5947   5.604  11.646   5.812  0.8942 -0.0507 -0.2700
   44MOL0     C 5948   5.615  11.634   5.663 -0.2006  0.1289 -0.5725
   44MOL0     C 5949   5.687  11.761   5.611 -0.3664  0.1311  0.7896
   44MOL0     C 5950   5.738  11.748   5.463  0.8693 -0.1050 -0.3798
   44MOL0     N 5951   5.628  11.777   5.360 -0.0392 -0.0317  0.4624
   44MOL0     C 5952   5.556  11.696   5.288  0.7151 -0.1821  0.3614
   44MOL0     C 5953   5.488  11.783   5.197  0.4248  0.5616 -0.2356
   44MOL0     C 5954   5.376  11.757   5.099  0.2981  0.7296 -0.5511
   44MOL0     C 5955   5.428  11.746   4.957  0.2035  0.6131 -0.2349
   44MOL0     C 5956   5.348  11.667   4.850  0.4534 -0.0441 -0.1243
   44MOL0     C 5957   5.438  11.599   4.748  0.3137 -0.0919  0.3159
   44MOL0     O 5958   5.399  11.646   4.614  0.2223  0.2689  0.1741
   44MOL0     C 5959   5.480  11.617   4.510 -0.8455  0.0220 -0.1527
   44MOL0     C 5960   5.451  11.671   4.390  0.6638  0.7380 -0.8939
   44MOL0     C 5961   5.531  11.672   4.273  0.0144  0.5353  0.5836
   44MOL0     C 5962   5.492  11.746   4.153  0.0160 -0.4526  0.3604
   44MOL0     C 5963   5.659  11.600   4.283  0.0635 -0.1915  0.0865
   44MOL0     C 5964   5.764  11.586   4.178 -0.5693  0.9393  0.8197
   44MOL0     O 5965   5.774  11.463   4.126  0.3309 -0.2671  0.5244
   44MOL0     C 5966   5.821  11.433   4.001  0.3859 -0.1603 -0.0100
   44MOL0     C 5967   5.804  11.519   3.898 -0.0806 -0.5011  0.0756
   44MOL0     C 5968   5.852  11.496   3.777 -0.1730  0.2418 -0.1105
   44MOL0     C 5969   5.941  11.390   3.766 -0.3844 -0.4083 -0.7311
   44MOL0     O 5970   6.009  11.361   3.648 -0.4144  0.1190 -0.5219
   44MOL0     C 5971   5.994  11.437   3.532  0.8815 -0.1744 -0.0629
   44MOL0     C 5972   6.090  11.384   3.427 -0.5406 -0.0833 -0.0842
   44MOL0     C 5973   6.101  11.481   3.311  1.1815  0.4624 -0.6892
   44MOL0     C 5974   6.224  11.454   3.232  0.5079 -0.0984  1.2914
   44MOL0     C 5975   6.237  11.564   3.131  0.0662 -0.5575 -0.4518
   44MOL0     C 5976   6.338  11.542   3.021 -0.8907 -0.1858  0.0711
   44MOL0     C 5977   6.349  11.657   2.921 -0.2934 -0.8308 -0.3614
   44MOL0     C 5978   6.487  11.647   2.850 -0.1855 -0.7097 -0.4039
   44MOL0    Cl 5979   6.491  11.484   2.776  0.1458 -0.2341 -0.0435
   44MOL0     C 5980   5.959  11.303   3.871 -0.2764 -0.1624 -0.1351
   44MOL0     C 5981   5.892  11.316   3.985  0.0978 -0.2071  0.7389
   44MOL0     O 5982   5.828  11.682   4.141  0.6133  0.2505 -0.2949
   44MOL0     C 5983   5.675  11.528   4.396 -0.0847 -0.4595  0.8963
   44MOL0     C 5984   5.594  11.537   4.506  0.2053 -0.1070  0.3437
   44MOL0     N 5985   5.540  11.911   5.213 -0.3603  0.1979 -0.1938
   44MOL0     N 5986   5.618  11.903   5.317  0.6228  0.8812  1.0564
   44MOL0     C 5987   5.065  11.247   6.307 -0.0372 -0.1954  0.0203
   44MOL0     C 5988   4.928  11.222   6.322  0.0351  0.1699 -0.9811
   44MOL0     C 5989   4.474  11.196   6.183 -0.0693 -0.6370 -0.6342
   44MOL0     C 5990   4.419  11.217   6.312 -0.3677  0.5739  0.5230
   44MOL0     C 5991   4.289  11.187   6.347  0.7032 -0.3246  0.3242
   44MOL0     C 5992   4.196  11.175   6.237 -0.6042 -0.5910 -0.2817
   44MOL0     O 5993   4.064  11.161   6.282 -0.0608  0.3814 -0.2377
   44MOL0     C 5994   3.954  11.131   6.192  0.2314  0.1615 -0.7479
   44MOL0     C 5995   3.824  11.058   6.248  0.1441 -0.2337  0.3627
   44MOL0     C 5996   3.769  11.133   6.374 -0.4897 -0.3458 -0.4366
   44MOL0     C 5997   3.630  11.076   6.402  0.6188 -1.0640  0.1219
   44MOL0     C 5998   3.530  11.137   6.311 -0.0786 -0.6631 -0.2290
   44MOL0     C 5999   3.450  11.195   6.242  0.1914 -0.2361  0.4792
   44MOL0     C 6000   4.243  11.185   6.105  0.4416  0.3800  0.7735
   44MOL0     C 6001   4.383  11.194   6.077 -0.1215  0.2787  0.3373
   44MOL0     C 6002   4.418  11.223   5.935  0.3724 -0.2558 -0.4061
   44MOL0     H 6003   4.806  11.437   6.090  1.8905  3.2238 -0.4357
   44MOL0     H 6004   5.038  11.500   6.081  2.3230 -0.6542  0.8753
   44MOL0     H 6005   5.254  11.563   6.141 -0.1093 -0.0729  1.0224
   44MOL0     H 6006   5.239  11.419   6.030 -3.0547 -0.0183  0.9354
   44MOL0     H 6007   5.477  11.472   6.208 -1.5980 -0.1286  0.7079
   44MOL0     H 6008   5.492  11.371   6.064 -1.1429 -1.9985  3.0459
   44MOL0     H 6009   5.431  11.664   6.029 -1.1242 -0.6192 -0.6004
   44MOL0     H 6010   5.593  11.600   6.057 -0.2753 -1.8561  1.2506
   44MOL0     H 6011   5.570  11.443   5.859 -2.0029 -2.1582  1.8652
   44MOL0     H 6012   5.427  11.544   5.815  2.2591  2.8501 -3.1889
   44MOL0     H 6013   5.705  11.641   5.854  0.9356 -0.1018 -0.3746
   44MOL0     H 6014   5.566  11.742   5.847  2.8872  0.7056 -0.0563
   44MOL0     H 6015   5.673  11.544   5.638  2.0174  1.3989 -0.3319
   44MOL0     H 6016   5.515  11.642   5.619 -0.8443  4.3195  1.1586
   44MOL0     H 6017   5.774  11.786   5.673  1.4312  2.4340 -2.3485
   44MOL0     H 6018   5.613  11.841   5.619 -0.7452  0.3553 -3.0030
   44MOL0     H 6019   5.822  11.817   5.462  1.8023 -1.1777  1.0245
   44MOL0     H 6020   5.790  11.656   5.434  1.8759  0.4067 -0.2137
   44MOL0     H 6021   5.537  11.593   5.318 -1.4387 -0.4120 -1.4629
   44MOL0     H 6022   5.309  11.844   5.103 -1.3096 -0.4218 -1.1534
   44MOL0     H 6023   5.317  11.666   5.118  0.0121  1.5135  3.0984
   44MOL0     H 6024   5.442  11.852   4.935  1.2988  1.6661  4.3671
   44MOL0     H 6025   5.532  11.711   4.967  0.2973 -0.1718 -3.1306
   44MOL0     H 6026   5.290  11.580   4.883  0.0374  0.0031 -0.7231
   44MOL0     H 6027   5.266  11.731   4.817 -1.9406 -3.3877 -1.2810
   44MOL0     H 6028   5.543  11.626   4.763  0.3945 -0.5405  0.5388
   44MOL0     H 6029   5.423  11.492   4.761 -2.9799  0.4658  2.3325
   44MOL0     H 6030   5.368  11.741   4.389 -1.0002 -1.1605 -0.6251
   44MOL0     H 6031   5.421  11.827   4.175 -0.4628 -0.0175 -2.4543
   44MOL0     H 6032   5.457  11.675   4.078  1.2104 -1.5845  0.8345
   44MOL0     H 6033   5.582  11.795   4.116 -0.4154 -1.0842 -1.6163
   44MOL0     H 6034   5.739  11.605   3.913  1.5789  0.9091 -0.5112
   44MOL0     H 6035   5.828  11.558   3.691 -1.5693 -1.8261 -1.3086
   44MOL0     H 6036   5.891  11.428   3.498  0.8183 -2.6435  0.5752
   44MOL0     H 6037   6.008  11.542   3.559  0.6483  0.1777 -1.2365
   44MOL0     H 6038   6.188  11.373   3.474  0.3188  2.3272 -1.1261
   44MOL0     H 6039   6.048  11.288   3.396 -2.7788  0.9329 -0.3973
   44MOL0     H 6040   6.095  11.581   3.353 -0.1544  0.0638  0.1202
   44MOL0     H 6041   6.016  11.468   3.243  0.9754  0.8268 -0.4991
   44MOL0     H 6042   6.214  11.360   3.175  2.0346  1.0553 -1.0496
   44MOL0     H 6043   6.307  11.452   3.304  1.3268 -0.4385  0.3629
   44MOL0     H 6044   6.138  11.584   3.089  0.3982  1.2455 -0.4754
   44MOL0     H 6045   6.267  11.648   3.196  1.6039 -2.4894  1.4843
   44MOL0     H 6046   6.301  11.458   2.962 -1.2053 -0.3692  0.5209
   44MOL0     H 6047   6.432  11.518   3.072 -1.1711 -1.0706  0.1920
   44MOL0     H 6048   6.351  11.752   2.975  2.1121 -0.8201 -0.3662
   44MOL0     H 6049   6.270  11.651   2.846 -2.1356  1.3617  1.2485
   44MOL0     H 6050   6.572  11.658   2.918 -1.2339 -1.6979  1.1482
   44MOL0     H 6051   6.503  11.727   2.777  1.2095 -0.2335  0.3820
   44MOL0     H 6052   6.007  11.206   3.859 -3.9506 -2.3016  0.9365
   44MOL0     H 6053   5.903  11.234   4.056 -3.4615 -1.4361  0.0950
   44MOL0     H 6054   5.774  11.485   4.398  1.8181  3.0333 -2.9076
   44MOL0     H 6055   5.624  11.471   4.587  0.3838 -1.2139 -0.5968
   44MOL0     H 6056   5.142  11.194   6.362 -0.2069 -0.7223 -0.2407
   44MOL0     H 6057   4.881  11.143   6.379  2.1460 -1.2730 -1.1565
   44MOL0     H 6058   4.484  11.243   6.396 -3.0604  1.9369  2.3351
   44MOL0     H 6059   4.251  11.193   6.448 -0.0514  0.3436  0.0114
   44MOL0     H 6060   3.923  11.226   6.147 -0.3817  1.3970  2.0450
   44MOL0     H 6061   3.984  11.052   6.123 -1.1801 -2.3286  1.3109
   44MOL0     H 6062   3.859  10.960   6.281  1.6513  1.2283  3.4100
   44MOL0     H 6063   3.744  11.046   6.174 -1.0880  2.5511  1.1362
   44MOL0     H 6064   3.832  11.102   6.458 -1.2236 -2.9872 -0.7684
   44MOL0     H 6065   3.776  11.242   6.362  2.0800 -0.3034  0.7340
   44MOL0     H 6066   3.603  11.079   6.508 -0.2032  1.4319 -0.0870
   44MOL0     H 6067   3.622  10.968   6.388 -1.7671 -0.8008 -1.1161
   44MOL0     H 6068   3.364  11.249   6.206  1.0890  2.9019  2.5742
   44MOL0     H 6069   4.182  11.179   6.015  1.0451 -0.4496  0.4074
   44MOL0     H 6070   4.490  11.305   5.926 -0.4215  0.4602 -0.4001
   44MOL0     H 6071   4.473  11.137   5.897 -0.0430 -1.6013  1.8600
   44MOL0     H 6072   4.331  11.247   5.874 -1.1027 -1.6052  1.0838
   45MOL0     O 6073   8.768  10.618   3.911  0.9343 -0.6516  0.3267
   45MOL0     C 6074   8.679  10.591   3.987 -0.7746 -0.5307 -0.1252
   45MOL0     O 6075   8.675  10.481   4.067 -1.0045  1.1485 -0.3646
   45MOL0     C 6076   8.784  10.395   4.068  0.2719 -0.4250 -0.3701
   45MOL0     C 6077   8.755  10.260   4.028  0.1478  0.5698 -0.5385
   45MOL0     C 6078   8.861  10.162   4.044  0.0290  0.6358 -0.6500
   45MOL0     C 6079   8.988  10.196   4.090 -0.8319 -1.2557  0.9990
   45MOL0     O 6080   9.094  10.110   4.087 -0.1497 -0.5709 -0.1785
   45MOL0     C 6081   9.162  10.089   4.208  0.9273  0.4795 -0.4620
   45MOL0     C 6082   9.222   9.953   4.186 -0.5890  0.4394  0.1834
   45MOL0     C 6083   9.321   9.924   4.313 -0.6599  0.4870 -0.0686
   45MOL0     C 6084   9.431   9.823   4.284  0.1536 -0.1657  0.6369
   45MOL0     C 6085   9.380   9.678   4.286 -0.3438 -0.2876 -0.6739
   45MOL0     C 6086   9.490   9.571   4.280  0.8007 -0.4746  0.1245
   45MOL0     C 6087   9.470   9.501   4.144 -0.0101 -0.1199  0.7657
   45MOL0     C 6088   9.565   9.392   4.106 -0.0463  0.4729  0.0817
   45MOL0     N 6089   9.707   9.431   4.109 -0.1923  1.0645  0.3347
   45MOL0     C 6090   9.809   9.373   4.182  0.8966 -0.1060  0.2843
   45MOL0     C 6091   9.919   9.449   4.155  0.6556  0.0190 -0.3670
   45MOL0     C 6092  10.054   9.403   4.190  0.4793 -0.8927  0.6759
   45MOL0     C 6093  10.075   9.387   4.342  0.4288  0.3824  0.9615
   45MOL0     C 6094  10.226   9.386   4.381 -0.1827  0.4089  0.9675
   45MOL0     C 6095  10.252   9.346   4.527  0.0676 -0.1582 -0.2408
   45MOL0     O 6096  10.360   9.411   4.590  0.0035  1.0924 -0.5713
   45MOL0     C 6097  10.352   9.431   4.725  0.1193  0.5137 -0.5495
   45MOL0     C 6098  10.406   9.551   4.760  0.2309 -0.3454  0.9311
   45MOL0     C 6099  10.396   9.590   4.896 -0.5743  0.0848  0.2166
   45MOL0     C 6100  10.429   9.723   4.940 -0.5162 -1.1376  0.3604
   45MOL0     C 6101  10.360   9.494   4.989  0.0704  0.2349 -0.4788
   45MOL0     C 6102  10.374   9.512   5.135 -0.3134 -0.3850  0.5074
   45MOL0     O 6103  10.497   9.552   5.189  0.5568  0.0313  0.7782
   45MOL0     C 6104  10.505   9.540   5.319 -0.2549 -0.1435 -0.4542
   45MOL0     C 6105  10.602   9.456   5.368 -0.2000  0.0045 -0.7203
   45MOL0     C 6106  10.625   9.436   5.499 -0.0410 -0.7242  0.4639
   45MOL0     C 6107  10.556   9.506   5.599 -0.3949 -0.0642 -0.0335
   45MOL0     O 6108  10.590   9.503   5.734  0.1957  0.0423  0.0096
   45MOL0     C 6109  10.719   9.468   5.769  0.2120 -0.1105 -0.2830
   45MOL0     C 6110  10.731   9.509   5.916 -0.1176  1.4522  0.2752
   45MOL0     C 6111  10.871   9.475   5.974 -0.2021  0.5197  0.2706
   45MOL0     C 6112  10.901   9.569   6.093  0.4878  0.5641 -0.1167
   45MOL0     C 6113  11.018   9.525   6.168  0.5333  0.0866  0.0281
   45MOL0     C 6114  11.041   9.594   6.305  0.2220 -0.1924  0.3365
   45MOL0     C 6115  11.150   9.521   6.382 -0.1567 -0.3968 -0.0539
   45MOL0     C 6116  11.178   9.616   6.510 -0.7410  0.3991 -0.8701
   45MOL0    Cl 6117  11.244   9.778   6.463  0.3311  0.0855 -0.0201
   45MOL0     C 6118  10.465   9.592   5.552  0.5169 -0.9986  0.0807
   45MOL0     C 6119  10.444   9.623   5.416  0.1778  0.2562 -0.1002
   45MOL0     O 6120  10.277   9.478   5.204 -0.6135 -0.3551  0.2895
   45MOL0     C 6121  10.310   9.368   4.955 -0.2110 -0.3803 -0.0326
   45MOL0     C 6122  10.298   9.340   4.822  0.5962  0.1907 -0.6622
   45MOL0     N 6123   9.887   9.557   4.062  0.1995  0.3028  0.1439
   45MOL0     N 6124   9.765   9.544   4.043 -0.1951 -0.6064  0.2385
   45MOL0     C 6125   9.010  10.332   4.123  0.2147  0.7421 -0.2068
   45MOL0     C 6126   8.910  10.426   4.124 -0.5461 -0.2121 -0.1784
   45MOL0     C 6127   8.564  10.679   4.015  0.2559 -0.3092 -0.3530
   45MOL0     C 6128   8.512  10.695   4.150  0.3351 -0.2031  0.4978
   45MOL0     C 6129   8.400  10.777   4.172  0.0175 -0.3622 -0.0304
   45MOL0     C 6130   8.334  10.841   4.069  0.6705  0.2208  0.2119
   45MOL0     O 6131   8.221  10.917   4.105  0.3046  0.3784  0.0958
   45MOL0     C 6132   8.146  10.984   4.009  1.1297  0.2687  0.3612
   45MOL0     C 6133   8.033  10.902   3.961 -0.2674 -0.2758  1.1157
   45MOL0     C 6134   7.928  10.971   3.887 -0.1819  0.5923  0.4942
   45MOL0     C 6135   7.839  10.871   3.807  0.8009  0.3365 -0.1503
   45MOL0     C 6136   7.901  10.755   3.732 -0.3418 -0.6783 -0.3199
   45MOL0     C 6137   7.971  10.675   3.672 -0.7607 -0.3674  0.8985
   45MOL0     C 6138   8.390  10.832   3.941  0.6356 -0.4984  0.2869
   45MOL0     C 6139   8.497  10.747   3.913 -0.2593  0.3071 -0.6068
   45MOL0     C 6140   8.542  10.736   3.767  0.5527  0.1430  0.0517
   45MOL0     H 6141   8.657  10.231   3.990 -0.0734  0.7087 -0.0813
   45MOL0     H 6142   8.834  10.059   4.023  0.0915 -0.0916  2.3648
   45MOL0     H 6143   9.092  10.083   4.292  1.7925  0.5819  0.2791
   45MOL0     H 6144   9.222  10.177   4.233 -0.0206  1.0220 -0.0328
   45MOL0     H 6145   9.141   9.882   4.166 -0.6426  0.1882  1.2631
   45MOL0     H 6146   9.280   9.950   4.093  0.5215 -0.8801  0.8771
   45MOL0     H 6147   9.355  10.018   4.358  2.0073 -0.7678  0.7571
   45MOL0     H 6148   9.260   9.881   4.393  0.6875 -1.6944 -0.1344
   45MOL0     H 6149   9.473   9.846   4.186  0.3897  2.0474  1.2001
   45MOL0     H 6150   9.520   9.841   4.346 -0.2390 -0.8798  1.4362
   45MOL0     H 6151   9.305   9.678   4.206 -2.1817 -0.7275  0.9667
   45MOL0     H 6152   9.329   9.667   4.383  1.3224  3.6752  0.9000
   45MOL0     H 6153   9.584   9.628   4.284  0.1137  0.6332  1.4189
   45MOL0     H 6154   9.483   9.504   4.366  0.4414 -2.3357 -1.2946
   45MOL0     H 6155   9.473   9.587   4.076 -0.7954  1.4011  2.5323
   45MOL0     H 6156   9.370   9.456   4.151 -0.2838  0.6363  5.2977
   45MOL0     H 6157   9.547   9.299   4.160 -1.6670 -0.3531 -1.7577
   45MOL0     H 6158   9.545   9.368   4.001 -1.2406  2.6025 -0.2459
   45MOL0     H 6159   9.812   9.271   4.219  1.9844 -0.7131 -1.3683
   45MOL0     H 6160  10.126   9.461   4.132  1.1229 -1.9685  0.3742
   45MOL0     H 6161  10.052   9.306   4.138 -1.0030 -0.3611 -0.3193
   45MOL0     H 6162  10.027   9.471   4.392 -1.2041 -0.8854  1.6141
   45MOL0     H 6163  10.035   9.292   4.380  3.3023 -1.1882  0.3532
   45MOL0     H 6164  10.285   9.322   4.314 -0.1383  1.8638 -0.4579
   45MOL0     H 6165  10.276   9.483   4.379  0.6901 -0.0258  1.5204
   45MOL0     H 6166  10.155   9.350   4.578 -0.5132  0.1968 -1.3374
   45MOL0     H 6167  10.280   9.241   4.532  2.5795  0.5032  1.6759
   45MOL0     H 6168  10.452   9.612   4.683 -0.3361 -0.3139  0.6097
   45MOL0     H 6169  10.512   9.761   4.881 -1.7075  2.2646  0.6756
   45MOL0     H 6170  10.463   9.735   5.043 -1.8411 -0.3441  0.7342
   45MOL0     H 6171  10.341   9.787   4.926  0.1728 -0.6149 -2.0904
   45MOL0     H 6172  10.660   9.395   5.299 -0.5399 -1.2625  0.0931
   45MOL0     H 6173  10.715   9.381   5.526  2.8996  3.6732  0.6921
   45MOL0     H 6174  10.733   9.361   5.748 -1.1069 -0.7142  1.6895
   45MOL0     H 6175  10.788   9.521   5.703 -1.3099  1.7491 -0.4574
   45MOL0     H 6176  10.714   9.617   5.921 -2.0350  1.3425 -2.1685
   45MOL0     H 6177  10.662   9.457   5.984  0.3355  1.3523  0.6630
   45MOL0     H 6178  10.951   9.485   5.899 -1.7938  0.8937 -1.4461
   45MOL0     H 6179  10.868   9.372   6.012 -0.3449  0.3564 -0.1648
   45MOL0     H 6180  10.820   9.558   6.166  2.3052  2.0058  2.3137
   45MOL0     H 6181  10.908   9.673   6.059  0.3410  0.7268  0.3349
   45MOL0     H 6182  11.013   9.415   6.169  0.0537  0.0501 -2.0220
   45MOL0     H 6183  11.100   9.553   6.102  1.0058  0.1380  0.6264
   45MOL0     H 6184  10.954   9.594   6.371 -0.4717  0.3140 -0.5511
   45MOL0     H 6185  11.057   9.701   6.287  1.9199 -0.0939  2.0926
   45MOL0     H 6186  11.242   9.496   6.329 -1.6612 -3.4448 -1.5202
   45MOL0     H 6187  11.110   9.425   6.417 -0.0469 -0.4266 -0.0091
   45MOL0     H 6188  11.251   9.579   6.583 -1.2795  1.7592  0.4275
   45MOL0     H 6189  11.090   9.626   6.574 -0.3628  2.0511 -0.5540
   45MOL0     H 6190  10.404   9.646   5.624 -1.3382 -0.1164 -2.0221
   45MOL0     H 6191  10.380   9.701   5.376 -1.9291 -2.7768 -3.1430
   45MOL0     H 6192  10.284   9.295   5.031  0.1447  0.2875  0.7452
   45MOL0     H 6193  10.247   9.254   4.781 -1.5858  2.1618 -2.3196
   45MOL0     H 6194   9.109  10.357   4.160 -0.0446  0.8489  0.4302
   45MOL0     H 6195   8.921  10.530   4.153 -1.5494 -0.3289  0.6764
   45MOL0     H 6196   8.554  10.633   4.227 -1.6239 -1.8805  0.3066
   45MOL0     H 6197   8.369  10.803   4.273  0.1613  3.0528 -0.7515
   45MOL0     H 6198   8.099  11.072   4.054 -0.2874  0.6222 -1.6827
   45MOL0     H 6199   8.202  11.015   3.920  0.6438 -1.0606 -0.4205
   45MOL0     H 6200   7.997  10.847   4.048  0.0790  0.7220  1.9047
   45MOL0     H 6201   8.085  10.820   3.911 -4.8432 -2.3866 -0.7486
   45MOL0     H 6202   7.872  11.030   3.960  1.5189  1.7820  0.9171
   45MOL0     H 6203   7.974  11.037   3.813  1.4678 -1.2920 -0.2497
   45MOL0     H 6204   7.797  10.929   3.725  1.5122 -0.8800 -1.4434
   45MOL0     H 6205   7.761  10.834   3.875 -0.7802  1.6991 -1.1681
   45MOL0     H 6206   8.027  10.623   3.597  0.2031 -0.1167  1.4227
   45MOL0     H 6207   8.345  10.887   3.859 -0.3371 -1.4371  0.1598
   45MOL0     H 6208   8.518  10.634   3.735 -0.2032  0.1822  0.4596
   45MOL0     H 6209   8.489  10.799   3.695 -0.7234  0.4902  1.2460
   45MOL0     H 6210   8.646  10.767   3.757  0.9281 -0.9450  0.4087
   46MOL0     O 6211   8.022   8.333   8.320 -0.2602  0.1765  0.7772
   46MOL0     C 6212   8.094   8.273   8.395  0.7771  0.1681 -0.1240
   46MOL0     O 6213   8.217   8.304   8.431  0.1724  0.2907 -0.4651
   46MOL0     C 6214   8.306   8.389   8.368  0.6886  0.0973  0.8413
   46MOL0     C 6215   8.282   8.457   8.242 -0.1784 -0.7799  1.1071
   46MOL0     C 6216   8.385   8.545   8.196 -0.2880  0.1463 -0.4767
   46MOL0     C 6217   8.507   8.556   8.262  0.2792 -0.5300 -0.9856
   46MOL0     O 6218   8.613   8.622   8.205  0.8295 -0.2032  0.5151
   46MOL0     C 6219   8.595   8.743   8.125 -1.4006 -0.5322 -0.1497
   46MOL0     C 6220   8.727   8.759   8.040 -1.0284 -0.7011 -0.0972
   46MOL0     C 6221   8.721   8.866   7.934  0.3526 -0.7248  1.5056
   46MOL0     C 6222   8.863   8.887   7.867  0.0226 -0.1871 -0.4572
   46MOL0     C 6223   8.950   8.984   7.947 -0.3670  0.4545 -0.8819
   46MOL0     C 6224   9.068   9.043   7.868  0.5413  0.0143 -0.1820
   46MOL0     C 6225   9.048   9.142   7.756 -0.0765  0.7075  0.3709
   46MOL0     C 6226   9.176   9.199   7.710 -0.1740  0.0194 -0.8095
   46MOL0     N 6227   9.169   9.317   7.627 -0.0482  0.9180  0.3253
   46MOL0     C 6228   9.071   9.406   7.635 -0.4908  0.6227 -0.6564
   46MOL0     C 6229   9.111   9.509   7.556 -1.0776 -0.4390 -0.0689
   46MOL0     C 6230   9.022   9.630   7.531  0.2470  0.3709 -0.4950
   46MOL0     C 6231   8.926   9.614   7.408 -0.1573  0.0516 -0.2832
   46MOL0     C 6232   8.850   9.744   7.400  0.5638 -0.2743  0.5637
   46MOL0     C 6233   8.735   9.735   7.300  0.9097  0.8816  1.2648
   46MOL0     O 6234   8.793   9.700   7.172  0.0431 -0.5537  0.0910
   46MOL0     C 6235   8.831   9.810   7.089 -1.2048 -0.6101 -0.2376
   46MOL0     C 6236   8.959   9.792   7.024 -0.0180 -0.4630  0.6976
   46MOL0     C 6237   9.021   9.891   6.946 -0.5193 -0.1487  0.4266
   46MOL0     C 6238   9.144   9.846   6.883 -0.5121 -0.6151  0.0478
   46MOL0     C 6239   8.965  10.019   6.936  0.3685 -0.2138  0.4073
   46MOL0     C 6240   9.036  10.139   6.883  1.2310  0.5295 -0.2356
   46MOL0     O 6241   9.172  10.135   6.865 -0.4912  0.0486 -0.4581
   46MOL0     C 6242   9.239  10.241   6.812 -0.1879 -0.6012  0.6640
   46MOL0     C 6243   9.315  10.212   6.692  0.6192  1.3305  0.2960
   46MOL0     C 6244   9.375  10.319   6.636 -0.1963 -1.2062 -0.4957
   46MOL0     C 6245   9.371  10.454   6.688  0.5930 -0.9875  0.9165
   46MOL0     O 6246   9.450  10.553   6.630  0.1130 -0.4588 -0.6271
   46MOL0     C 6247   9.584  10.530   6.662  0.1382  0.4718  0.2976
   46MOL0     C 6248   9.687  10.607   6.587 -0.0103 -0.1011  0.3876
   46MOL0     C 6249   9.827  10.574   6.654  0.5814 -0.1988  0.6453
   46MOL0     C 6250   9.938  10.625   6.553  0.0200  0.7905  0.6980
   46MOL0     C 6251  10.081  10.636   6.615  1.0070 -0.6923 -0.3703
   46MOL0     C 6252  10.177  10.519   6.588 -0.5509  0.9479  0.4019
   46MOL0     C 6253  10.317  10.549   6.656 -0.2825  0.8267 -0.3505
   46MOL0     C 6254  10.416  10.447   6.641 -0.0015 -0.1088  0.3071
   46MOL0    Cl 6255  10.577  10.502   6.694 -0.0726  0.0280 -0.1620
   46MOL0     C 6256   9.305  10.475   6.811 -0.1009  0.0930  0.2076
   46MOL0     C 6257   9.234  10.373   6.870 -0.2868  0.3636 -0.4528
   46MOL0     O 6258   8.967  10.236   6.847  1.0709  0.3130 -0.4636
   46MOL0     C 6259   8.840  10.042   7.009 -0.2932 -0.9985 -0.7563
   46MOL0     C 6260   8.776   9.939   7.084 -0.5209 -0.5498  0.5802
   46MOL0     N 6261   9.240   9.482   7.519  0.2529 -0.3437 -0.3376
   46MOL0     N 6262   9.272   9.364   7.541  0.2182 -0.4029 -0.0326
   46MOL0     C 6263   8.529   8.479   8.378 -0.4499  0.8043 -0.7552
   46MOL0     C 6264   8.424   8.410   8.443 -0.4736  0.0998 -0.9957
   46MOL0     C 6265   8.034   8.145   8.443  0.1634 -0.0884  0.0878
   46MOL0     C 6266   8.033   8.129   8.582 -0.2536  0.8176  0.2903
   46MOL0     C 6267   7.982   8.009   8.630 -0.0206 -0.4093 -0.3932
   46MOL0     C 6268   7.925   7.916   8.550  0.1908  0.8159 -0.3590
   46MOL0     O 6269   7.874   7.804   8.618 -0.4532 -0.6325  0.2470
   46MOL0     C 6270   7.828   7.693   8.544  0.6723  0.2030 -0.8308
   46MOL0     C 6271   7.795   7.574   8.642 -0.4928 -0.0007 -1.0271
   46MOL0     C 6272   7.633   7.580   8.679  0.1081 -0.7503  0.3886
   46MOL0     C 6273   7.599   7.482   8.793  0.2548 -0.8032  0.1334
   46MOL0     C 6274   7.671   7.501   8.913 -0.4070  0.0097 -0.3126
   46MOL0     C 6275   7.728   7.513   9.013 -0.6830 -0.3140 -0.8871
   46MOL0     C 6276   7.927   7.938   8.420 -0.3692 -0.1453  0.1998
   46MOL0     C 6277   7.970   8.053   8.361 -0.5798 -0.2035 -0.4200
   46MOL0     C 6278   7.968   8.053   8.210  0.8117 -0.1467 -0.6910
   46MOL0     H 6279   8.190   8.425   8.193  0.6851 -2.5905  0.5681
   46MOL0     H 6280   8.376   8.583   8.094 -2.0838 -3.1120 -1.6659
   46MOL0     H 6281   8.593   8.836   8.183  2.6831 -0.4495  0.1417
   46MOL0     H 6282   8.514   8.738   8.051  1.5921  0.2892 -3.8041
   46MOL0     H 6283   8.803   8.782   8.115 -1.5987 -0.5678  0.4606
   46MOL0     H 6284   8.749   8.659   8.002  4.2172  0.4061 -0.6767
   46MOL0     H 6285   8.652   8.830   7.856  2.0954 -0.8767 -0.0266
   46MOL0     H 6286   8.675   8.961   7.961 -0.1252 -0.3013 -0.6119
   46MOL0     H 6287   8.914   8.792   7.850  2.0334  0.3240  2.0791
   46MOL0     H 6288   8.833   8.930   7.771  1.0465 -0.5548 -0.9473
   46MOL0     H 6289   9.004   8.938   8.030 -0.4236 -0.8738 -1.5406
   46MOL0     H 6290   8.894   9.070   7.985  1.5969  0.9227  1.1411
   46MOL0     H 6291   9.140   9.082   7.941 -1.9195  2.5267  1.0959
   46MOL0     H 6292   9.118   8.962   7.814 -0.6470 -1.0499  0.2543
   46MOL0     H 6293   8.981   9.216   7.800 -4.5983 -2.5179 -0.3824
   46MOL0     H 6294   8.993   9.091   7.676 -1.8525  1.3839  1.1027
   46MOL0     H 6295   9.241   9.224   7.795  1.6220 -0.6187 -1.9289
   46MOL0     H 6296   9.231   9.112   7.674  1.5673 -0.3283  2.2855
   46MOL0     H 6297   8.976   9.400   7.688 -0.2382 -0.2527 -0.2915
   46MOL0     H 6298   9.091   9.712   7.509  1.5229 -0.6421 -0.3998
   46MOL0     H 6299   8.971   9.649   7.626  0.5992 -0.7771 -0.0654
   46MOL0     H 6300   8.984   9.591   7.318  0.5526 -1.3009  0.4708
   46MOL0     H 6301   8.851   9.537   7.429 -0.3828 -0.8111 -3.6374
   46MOL0     H 6302   8.806   9.775   7.495 -0.0343 -1.3286  0.6463
   46MOL0     H 6303   8.923   9.825   7.386  0.3003 -0.2863 -1.1549
   46MOL0     H 6304   8.666   9.658   7.336  1.2800 -0.6261 -1.0228
   46MOL0     H 6305   8.680   9.828   7.285  2.2833  1.6696  0.9680
   46MOL0     H 6306   9.014   9.700   7.038  4.3874  1.5592 -1.4141
   46MOL0     H 6307   9.154   9.897   6.787  2.4297  2.5872  1.8519
   46MOL0     H 6308   9.151   9.738   6.869 -0.6381 -0.4685 -1.2678
   46MOL0     H 6309   9.222   9.882   6.951 -1.6215  0.1987  0.9287
   46MOL0     H 6310   9.329  10.111   6.656  0.1018  1.6428 -0.8272
   46MOL0     H 6311   9.424  10.316   6.539 -0.7162 -3.4039 -0.7349
   46MOL0     H 6312   9.593  10.561   6.766 -0.3266 -0.1153  0.5164
   46MOL0     H 6313   9.606  10.423   6.665  0.8523  0.5283 -1.6725
   46MOL0     H 6314   9.679  10.590   6.479  0.5651  2.6813 -0.1685
   46MOL0     H 6315   9.676  10.715   6.601  1.7257  0.1593 -0.0104
   46MOL0     H 6316   9.845  10.469   6.678  1.4364 -0.3356 -0.5053
   46MOL0     H 6317   9.826  10.628   6.750 -2.1228 -0.0896  0.6219
   46MOL0     H 6318   9.902  10.720   6.512 -1.7465 -0.2695 -0.3692
   46MOL0     H 6319   9.937  10.557   6.467 -0.4989  1.9957 -0.2837
   46MOL0     H 6320  10.115  10.730   6.571 -2.8080  1.1556  0.1983
   46MOL0     H 6321  10.082  10.663   6.721 -1.3283  0.0298 -0.4775
   46MOL0     H 6322  10.189  10.509   6.479  3.0222 -2.5715  0.8566
   46MOL0     H 6323  10.139  10.426   6.631  0.6353  0.8436  1.2802
   46MOL0     H 6324  10.303  10.570   6.763  2.2889  0.3213  0.1502
   46MOL0     H 6325  10.360  10.640   6.613  3.6345 -1.4891 -1.8839
   46MOL0     H 6326  10.432  10.412   6.539  1.5866  1.3929 -0.0138
   46MOL0     H 6327  10.408  10.360   6.707  0.6149  0.6383  1.4004
   46MOL0     H 6328   9.312  10.578   6.846 -2.6387  0.8213 -1.1829
   46MOL0     H 6329   9.161  10.387   6.949  0.1760 -1.6529  0.3924
   46MOL0     H 6330   8.777  10.131   7.002 -0.6044 -1.2030 -0.5767
   46MOL0     H 6331   8.691   9.973   7.142  1.2778  3.6921  1.1319
   46MOL0     H 6332   8.625   8.486   8.427  1.7771  0.4960 -4.6852
   46MOL0     H 6333   8.443   8.359   8.538  0.5593 -0.3187 -1.4086
   46MOL0     H 6334   8.068   8.195   8.660 -1.4210 -1.2054  2.6867
   46MOL0     H 6335   7.979   8.000   8.738 -3.2915  3.6523  0.0975
   46MOL0     H 6336   7.739   7.723   8.488  0.8327  0.7254 -0.8116
   46MOL0     H 6337   7.903   7.663   8.470  0.3198 -0.7124 -0.8307
   46MOL0     H 6338   7.861   7.565   8.729  0.5890 -2.7474 -2.0411
   46MOL0     H 6339   7.799   7.476   8.595 -1.7234 -2.1965  2.9745
   46MOL0     H 6340   7.603   7.682   8.705  0.7707 -1.0860  2.6998
   46MOL0     H 6341   7.582   7.540   8.591  1.5104 -1.5143 -0.1134
   46MOL0     H 6342   7.608   7.377   8.763  0.8171 -1.5997  2.7929
   46MOL0     H 6343   7.494   7.505   8.815  0.5411  4.3001 -2.4293
   46MOL0     H 6344   7.777   7.539   9.105 -3.5345  0.2296  0.6031
   46MOL0     H 6345   7.897   7.854   8.358  2.8039 -1.1004 -0.2128
   46MOL0     H 6346   8.060   8.106   8.182  3.0715 -1.6571  3.1026
   46MOL0     H 6347   7.964   7.951   8.171  2.3176 -0.3814 -0.2729
   46MOL0     H 6348   7.879   8.108   8.178  0.5988  0.4665  0.8526
   47MOL0     O 6349   3.288  10.309  10.162 -0.7613 -0.6487  0.4023
   47MOL0     C 6350   3.188  10.253  10.128 -1.5027 -0.3230  0.1997
   47MOL0     O 6351   3.163  10.126  10.166  0.5152  0.7624 -0.0059
   47MOL0     C 6352   3.231  10.053  10.261 -0.1625 -0.0383 -0.6480
   47MOL0     C 6353   3.270  10.117  10.374  0.4034  0.2880 -0.8067
   47MOL0     C 6354   3.340  10.040  10.472  0.1163 -0.7493  0.2718
   47MOL0     C 6355   3.386   9.914  10.450 -0.5276  0.7471 -0.2563
   47MOL0     O 6356   3.473   9.857  10.542  0.6578  0.1517 -0.9658
   47MOL0     C 6357   3.546   9.728  10.521 -0.2636 -0.5261  0.0799
   47MOL0     C 6358   3.637   9.697  10.641 -0.5504 -0.0297 -0.0326
   47MOL0     C 6359   3.714   9.576  10.637  0.5059  0.2436 -0.5662
   47MOL0     C 6360   3.634   9.446  10.628  0.1603 -0.2130 -0.7240
   47MOL0     C 6361   3.727   9.328  10.659 -0.0580  0.4466  0.0631
   47MOL0     C 6362   3.661   9.191  10.646 -0.3347  0.1228  0.0375
   47MOL0     C 6363   3.552   9.163  10.753 -1.4828  0.6852  0.6093
   47MOL0     C 6364   3.532   9.008  10.762  0.2306  0.6654 -0.3324
   47MOL0     N 6365   3.440   8.989  10.873  0.1241  0.3921  0.3958
   47MOL0     C 6366   3.294   8.994  10.870  0.3918  0.2175 -1.2414
   47MOL0     C 6367   3.254   8.920  10.977 -0.1237  0.2475 -0.0822
   47MOL0     C 6368   3.115   8.882  11.023  0.0529 -0.0502 -0.6516
   47MOL0     C 6369   3.011   8.883  10.919  0.2253  0.2322  0.0466
   47MOL0     C 6370   2.969   9.022  10.871  0.2043  0.7173 -0.4079
   47MOL0     C 6371   2.826   9.022  10.807 -0.1110 -0.2831 -0.4745
   47MOL0     O 6372   2.813   8.933  10.702  0.6865 -0.3910 -0.1574
   47MOL0     C 6373   2.743   8.811  10.707  0.2904 -0.2887  0.4765
   47MOL0     C 6374   2.659   8.771  10.818  1.1588 -0.5530  0.4249
   47MOL0     C 6375   2.588   8.649  10.801  1.2923  0.3681  0.3596
   47MOL0     C 6376   2.506   8.611  10.921  0.1423 -0.1983  0.0037
   47MOL0     C 6377   2.599   8.569  10.686 -0.1224  0.1466  0.7512
   47MOL0     C 6378   2.542   8.437  10.659 -0.4131 -0.5196  0.9874
   47MOL0     O 6379   2.435   8.402  10.738 -0.0834  0.0162  0.4766
   47MOL0     C 6380   2.369   8.293  10.691  0.2163 -0.2153  0.1172
   47MOL0     C 6381   2.294   8.287  10.572 -0.3563  0.8319 -0.1333
   47MOL0     C 6382   2.215   8.176  10.538 -0.7665  0.2886 -0.0808
   47MOL0     C 6383   2.237   8.061  10.612  0.9581  0.3496  0.2758
   47MOL0     O 6384   2.167   7.943  10.593  0.1607  0.2326  0.0746
   47MOL0     C 6385   2.251   7.822  10.575  0.3126  0.2072  0.9139
   47MOL0     C 6386   2.335   7.835  10.447 -0.1680  0.1921 -0.3668
   47MOL0     C 6387   2.258   7.860  10.310  0.0457 -0.6807  1.0992
   47MOL0     C 6388   2.144   7.757  10.291  0.8667  0.4179  0.4272
   47MOL0     C 6389   2.076   7.792  10.160 -0.7542 -0.8853 -0.1728
   47MOL0     C 6390   1.937   7.714  10.153 -0.1602  0.5999  0.5981
   47MOL0     C 6391   1.836   7.780  10.058  0.6468  1.0365  0.1083
   47MOL0     C 6392   1.704   7.704  10.062  0.1243  0.7542  0.4839
   47MOL0    Cl 6393   1.661   7.614   9.919 -0.4628  0.0886 -0.2132
   47MOL0     C 6394   2.313   8.063  10.727  0.0066 -0.2423 -1.0239
   47MOL0     C 6395   2.371   8.181  10.771  0.6588  0.0153 -0.3338
   47MOL0     O 6396   2.578   8.374  10.561 -0.4011 -0.1083  0.6030
   47MOL0     C 6397   2.699   8.612  10.592 -0.3574  0.1417 -0.2062
   47MOL0     C 6398   2.768   8.732  10.601  0.1456  0.0630 -0.3194
   47MOL0     N 6399   3.363   8.872  11.044 -0.3376  0.3399  0.8494
   47MOL0     N 6400   3.469   8.922  10.992 -0.5610 -0.2369  0.0446
   47MOL0     C 6401   3.337   9.852  10.326 -0.6011 -0.4507  0.2271
   47MOL0     C 6402   3.259   9.919  10.238  0.4800  0.2207  0.9461
   47MOL0     C 6403   3.096  10.326  10.030 -0.8245  1.0386 -0.4339
   47MOL0     C 6404   2.971  10.261  10.004 -0.0467 -0.5021 -0.1561
   47MOL0     C 6405   2.883  10.321   9.911 -0.3622 -0.0018 -0.6415
   47MOL0     C 6406   2.913  10.435   9.841 -0.3125 -0.7056  0.0048
   47MOL0     O 6407   2.813  10.499   9.760  0.4873  0.3280  0.2814
   47MOL0     C 6408   2.683  10.498   9.812 -0.5013  0.1533  0.5089
   47MOL0     C 6409   2.615  10.619   9.745  0.0059 -0.5270  0.9279
   47MOL0     C 6410   2.691  10.752   9.785  0.1559 -0.1786 -0.2884
   47MOL0     C 6411   2.672  10.867   9.682  0.0345  0.2801 -0.4130
   47MOL0     C 6412   2.764  10.859   9.570  0.0248  0.4733  0.3873
   47MOL0     C 6413   2.835  10.833   9.472  0.4814  0.8031 -0.5587
   47MOL0     C 6414   3.039  10.491   9.861  1.0262 -0.1706 -0.0237
   47MOL0     C 6415   3.139  10.437   9.954 -0.1628 -0.8785  0.6890
   47MOL0     C 6416   3.281  10.496   9.945  0.7965  0.6539  0.5994
   47MOL0     H 6417   3.233  10.216  10.398  2.2653  0.3590  2.2384
   47MOL0     H 6418   3.389  10.104  10.545  0.9709 -0.6026 -0.4061
   47MOL0     H 6419   3.610   9.719  10.433 -1.5113  0.0141 -0.9144
   47MOL0     H 6420   3.476   9.643  10.520 -3.0708  1.6330  0.5571
   47MOL0     H 6421   3.707   9.781  10.641 -1.6865  1.0299  2.3048
   47MOL0     H 6422   3.574   9.695  10.731  1.2913 -1.2173  1.3057
   47MOL0     H 6423   3.790   9.584  10.559 -1.6944 -0.5811 -2.9339
   47MOL0     H 6424   3.766   9.569  10.733  1.0324 -2.0097 -0.9485
   47MOL0     H 6425   3.571   9.466  10.715  1.6494  2.7594 -0.2089
   47MOL0     H 6426   3.584   9.438  10.531 -1.6092 -1.6466  0.2487
   47MOL0     H 6427   3.768   9.338  10.760 -0.1547 -0.8386  0.2452
   47MOL0     H 6428   3.810   9.322  10.589 -0.1497 -1.1845  0.0641
   47MOL0     H 6429   3.631   9.170  10.542  0.6647 -0.2035 -0.1899
   47MOL0     H 6430   3.736   9.116  10.673  3.3371  3.1852 -0.8398
   47MOL0     H 6431   3.461   9.211  10.716 -1.7458 -0.3668 -0.1391
   47MOL0     H 6432   3.584   9.219  10.841  2.6511 -0.4657  0.0467
   47MOL0     H 6433   3.502   8.970  10.664  0.4698 -1.5029  0.3669
   47MOL0     H 6434   3.619   8.952  10.800 -0.9340 -2.2350 -1.6416
   47MOL0     H 6435   3.241   9.050  10.793  0.2678  0.6936 -0.8146
   47MOL0     H 6436   3.077   8.945  11.104  0.3093 -0.4098 -0.2441
   47MOL0     H 6437   3.125   8.791  11.083 -0.0399  1.7790  2.3957
   47MOL0     H 6438   3.049   8.815  10.842  1.3828  0.7215  0.1573
   47MOL0     H 6439   2.923   8.833  10.960  1.7472 -1.8909  0.8990
   47MOL0     H 6440   2.969   9.095  10.952 -1.1237 -1.4036  1.6368
   47MOL0     H 6441   3.043   9.061  10.801  1.6311 -0.6295  0.2854
   47MOL0     H 6442   2.755   8.994  10.884  0.7114  0.2364  0.4955
   47MOL0     H 6443   2.822   9.126  10.774 -0.5731 -0.6777 -1.7094
   47MOL0     H 6444   2.642   8.836  10.904  1.7747 -0.7083  0.6721
   47MOL0     H 6445   2.563   8.552  10.993  0.0627 -3.4189 -2.3407
   47MOL0     H 6446   2.419   8.555  10.884  0.9164  0.6560 -3.4607
   47MOL0     H 6447   2.470   8.705  10.965  1.9916  1.5070 -1.9282
   47MOL0     H 6448   2.288   8.380  10.516 -2.1574 -0.4252 -2.1976
   47MOL0     H 6449   2.153   8.175  10.448 -0.5357 -1.9653 -0.2559
   47MOL0     H 6450   2.321   7.809  10.658  0.1775 -0.1158  0.9800
   47MOL0     H 6451   2.184   7.735  10.578  1.2599 -0.5235  1.5154
   47MOL0     H 6452   2.411   7.912  10.455 -0.6430  0.4723  2.5430
   47MOL0     H 6453   2.390   7.741  10.438  0.9527  0.6671  1.1549
   47MOL0     H 6454   2.320   7.841  10.222 -2.2826  2.1825 -1.3829
   47MOL0     H 6455   2.225   7.964  10.320 -0.1819 -0.6995  0.5890
   47MOL0     H 6456   2.065   7.762  10.367 -3.2093 -0.2666 -3.3351
   47MOL0     H 6457   2.185   7.656  10.292 -1.7408 -0.8969  4.9810
   47MOL0     H 6458   2.046   7.896  10.176  1.4412 -0.5285  2.1313
   47MOL0     H 6459   2.136   7.781  10.069 -0.0509 -0.3895  0.2214
   47MOL0     H 6460   1.890   7.685  10.248 -2.6816  3.3366  0.3543
   47MOL0     H 6461   1.970   7.621  10.105  3.8934  2.9310 -1.6282
   47MOL0     H 6462   1.884   7.775   9.960 -2.9364 -2.2927 -1.7660
   47MOL0     H 6463   1.825   7.887  10.075  2.7575  0.9589  2.7391
   47MOL0     H 6464   1.628   7.780  10.082  0.1110  0.5326  1.3127
   47MOL0     H 6465   1.695   7.641  10.150 -0.9479 -0.3605 -0.3817
   47MOL0     H 6466   2.322   7.982  10.799 -1.5161  0.8746  0.5007
   47MOL0     H 6467   2.424   8.183  10.865 -3.6897 -0.5211  2.4133
   47MOL0     H 6468   2.719   8.547  10.507  3.2188  1.6355 -0.6802
   47MOL0     H 6469   2.849   8.768  10.538  1.5342 -1.6589  0.3944
   47MOL0     H 6470   3.372   9.752  10.303 -1.6352 -1.2561  1.9587
   47MOL0     H 6471   3.228   9.873  10.144  2.7927 -1.9378  1.1211
   47MOL0     H 6472   2.946  10.164  10.045  0.9912 -1.8802 -2.6258
   47MOL0     H 6473   2.798  10.262   9.879 -0.9099  0.1147  0.5367
   47MOL0     H 6474   2.612  10.425   9.772 -2.5556  2.5747 -0.5034
   47MOL0     H 6475   2.679  10.490   9.921  0.1814 -1.3627  0.4553
   47MOL0     H 6476   2.510  10.629   9.772 -1.6064 -2.0534 -3.6993
   47MOL0     H 6477   2.626  10.603   9.637 -0.0089 -3.2204  1.2570
   47MOL0     H 6478   2.668  10.780   9.887  3.3383  0.4476  0.3736
   47MOL0     H 6479   2.800  10.740   9.787  0.1710 -0.8843 -2.2775
   47MOL0     H 6480   2.684  10.967   9.725 -0.2608  0.3377 -0.4640
   47MOL0     H 6481   2.568  10.859   9.649 -0.1329  2.1299 -0.4501
   47MOL0     H 6482   2.874  10.812   9.374 -0.7817 -3.3150 -0.3413
   47MOL0     H 6483   3.051  10.579   9.799  2.4259  2.1876  3.2635
   47MOL0     H 6484   3.297  10.552   9.853  2.9355 -2.2292 -0.9540
   47MOL0     H 6485   3.291  10.563  10.031 -0.4129  0.0984  1.1970
   47MOL0     H 6486   3.352  10.413   9.945  0.1189 -0.0011  2.9073
   48MOL0     O 6487   4.920  11.362   3.071 -1.0832  0.7455 -0.1029
   48MOL0     C 6488   5.024  11.383   3.133  0.7060  0.0164  0.4251
   48MOL0     O 6489   5.092  11.280   3.198  0.7651 -0.5053  0.1307
   48MOL0     C 6490   5.032  11.153   3.212 -0.2798  0.4205 -0.3242
   48MOL0     C 6491   5.005  11.095   3.337  0.3940 -0.7447 -0.1088
   48MOL0     C 6492   4.967  10.968   3.357 -0.1577 -0.0501 -0.1299
   48MOL0     C 6493   4.960  10.881   3.238  0.6882  0.2228 -0.3805
   48MOL0     O 6494   4.918  10.752   3.256 -0.1441 -0.7724 -0.7399
   48MOL0     C 6495   4.839  10.711   3.365  1.5880 -0.6512  0.6750
   48MOL0     C 6496   4.913  10.646   3.485  0.4248 -0.4270  0.3870
   48MOL0     C 6497   4.983  10.516   3.454 -0.0297  0.3219  0.0594
   48MOL0     C 6498   5.055  10.444   3.574  0.3298 -1.2228 -0.0690
   48MOL0     C 6499   5.146  10.330   3.527 -0.5063  1.1199 -0.3503
   48MOL0     C 6500   5.201  10.232   3.631 -0.3059  0.2719 -0.1451
   48MOL0     C 6501   5.312  10.147   3.558  0.3419 -0.6972 -0.8671
   48MOL0     C 6502   5.269  10.057   3.442  0.0309  0.0849  0.2334
   48MOL0     N 6503   5.376   9.981   3.372  0.1513 -0.7693  0.1427
   48MOL0     C 6504   5.509   9.998   3.387 -0.5918  1.3496  0.4556
   48MOL0     C 6505   5.567   9.897   3.315 -0.4960 -0.6250  0.1829
   48MOL0     C 6506   5.722   9.864   3.309  0.4852 -0.9267 -0.1318
   48MOL0     C 6507   5.798   9.884   3.177 -0.0651 -0.1926  0.1865
   48MOL0     C 6508   5.803   9.762   3.087  0.3932  0.4947  0.1924
   48MOL0     C 6509   5.841   9.791   2.942 -0.5654 -0.1264 -0.0318
   48MOL0     O 6510   5.806   9.681   2.858  0.0718  0.9166  0.1211
   48MOL0     C 6511   5.869   9.660   2.740 -0.6732 -0.9865 -0.9786
   48MOL0     C 6512   5.936   9.757   2.666  0.0044 -0.0358 -0.4768
   48MOL0     C 6513   5.980   9.727   2.533  0.9538  0.8076 -0.0444
   48MOL0     C 6514   6.042   9.844   2.451 -0.3349  1.6232 -0.2936
   48MOL0     C 6515   5.979   9.593   2.487 -1.0245 -0.3246  1.0117
   48MOL0     C 6516   6.022   9.554   2.351  0.6942  1.3537 -0.6657
   48MOL0     O 6517   6.019   9.644   2.254 -0.5317 -0.0283  0.3076
   48MOL0     C 6518   6.073   9.620   2.131 -0.4783  0.1178 -1.6119
   48MOL0     C 6519   6.009   9.660   2.013 -0.0939 -0.1187 -0.7586
   48MOL0     C 6520   6.045   9.624   1.882 -0.9126  0.3908  0.2462
   48MOL0     C 6521   6.162   9.543   1.869  0.3791 -0.0733  0.3707
   48MOL0     O 6522   6.204   9.499   1.748  0.2152 -0.7040  0.2417
   48MOL0     C 6523   6.333   9.446   1.715  0.7661 -0.7101  0.4365
   48MOL0     C 6524   6.335   9.433   1.561 -0.4105 -0.1007  0.2426
   48MOL0     C 6525   6.472   9.374   1.512  0.4662 -0.8306 -0.5609
   48MOL0     C 6526   6.492   9.356   1.370  0.3456  0.3598  0.2659
   48MOL0     C 6527   6.629   9.376   1.315  0.8346  0.1017  0.2279
   48MOL0     C 6528   6.721   9.272   1.370 -0.2328 -0.2991 -0.0534
   48MOL0     C 6529   6.702   9.134   1.306 -0.4408  0.0746  0.4642
   48MOL0     C 6530   6.807   9.033   1.359  0.9606  0.2829  0.7689
   48MOL0    Cl 6531   6.802   9.003   1.530 -0.3403 -0.2492 -0.4334
   48MOL0     C 6532   6.237   9.519   1.985 -0.2525 -0.0024  0.4005
   48MOL0     C 6533   6.196   9.550   2.112  0.8765  0.2676 -0.0078
   48MOL0     O 6534   6.044   9.434   2.343  0.3693  0.4663  0.5017
   48MOL0     C 6535   5.928   9.487   2.569 -0.0738 -0.1677 -0.1524
   48MOL0     C 6536   5.868   9.527   2.690 -0.0038  0.5106  0.3679
   48MOL0     N 6537   5.460   9.826   3.256  0.1130 -0.0537  0.0940
   48MOL0     N 6538   5.348   9.875   3.294  0.0536 -0.6851  0.1007
   48MOL0     C 6539   4.997  10.931   3.118 -0.0520 -0.4050 -0.0344
   48MOL0     C 6540   5.033  11.061   3.101  0.1413 -0.6330  0.3098
   48MOL0     C 6541   5.079  11.516   3.136  0.0256  0.1519  0.8116
   48MOL0     C 6542   5.130  11.570   3.253  0.0485 -0.5318 -0.6367
   48MOL0     C 6543   5.180  11.702   3.260 -0.2516  0.6221 -0.0951
   48MOL0     C 6544   5.201  11.776   3.148 -0.2090  0.5635  0.2293
   48MOL0     O 6545   5.252  11.909   3.137 -0.5163  0.0183 -0.3156
   48MOL0     C 6546   5.256  11.986   3.263 -0.9954  0.8394  0.0095
   48MOL0     C 6547   5.257  12.136   3.240  0.6134  0.5391  0.3911
   48MOL0     C 6548   5.386  12.164   3.172 -0.2763 -0.2964  0.1185
   48MOL0     C 6549   5.499  12.210   3.266 -0.2029 -0.4966 -0.1405
   48MOL0     C 6550   5.474  12.341   3.323 -0.1112 -0.5168  0.0026
   48MOL0     C 6551   5.447  12.451   3.363  0.0249 -0.1819 -0.5229
   48MOL0     C 6552   5.150  11.721   3.027  0.7528 -0.0086 -0.9829
   48MOL0     C 6553   5.090  11.595   3.012  0.7998 -1.0897  0.1209
   48MOL0     C 6554   5.037  11.559   2.869 -0.4904  0.7164  0.1418
   48MOL0     H 6555   5.020  11.159   3.423 -0.5175 -3.5732  2.3074
   48MOL0     H 6556   4.943  10.946   3.460  0.7580  1.8091  0.5200
   48MOL0     H 6557   4.768  10.636   3.329  2.8672 -1.2064 -0.8009
   48MOL0     H 6558   4.781  10.793   3.409  1.3182  0.5600 -1.7652
   48MOL0     H 6559   4.983  10.708   3.541  1.1969 -1.2879  0.4011
   48MOL0     H 6560   4.842  10.620   3.565 -2.8080  1.3307 -1.6739
   48MOL0     H 6561   4.906  10.445   3.421 -1.5772  1.2945  1.4428
   48MOL0     H 6562   5.059  10.550   3.383 -3.3178  3.4233 -2.3569
   48MOL0     H 6563   5.116  10.524   3.617  0.4251 -1.3827  0.0923
   48MOL0     H 6564   4.980  10.401   3.641  2.3125 -0.1868  3.0267
   48MOL0     H 6565   5.232  10.389   3.492 -0.3636  1.0028 -0.1977
   48MOL0     H 6566   5.093  10.266   3.457 -3.1766  0.7921  1.8076
   48MOL0     H 6567   5.238  10.293   3.713  0.3714  1.0718 -1.0187
   48MOL0     H 6568   5.125  10.166   3.673  0.8978 -1.6591 -0.8441
   48MOL0     H 6569   5.356  10.072   3.626 -0.0798  0.8572  1.2097
   48MOL0     H 6570   5.395  10.209   3.524 -0.0018  0.2545 -0.0145
   48MOL0     H 6571   5.183   9.997   3.471 -0.3692  0.6405  0.2086
   48MOL0     H 6572   5.240  10.125   3.361 -0.2751 -2.8380 -2.2710
   48MOL0     H 6573   5.566  10.070   3.444  2.1146 -0.2330 -0.1000
   48MOL0     H 6574   5.740   9.757   3.319  1.3630 -0.7940 -0.2449
   48MOL0     H 6575   5.765   9.925   3.389 -1.5266 -2.1830  2.0519
   48MOL0     H 6576   5.745   9.970   3.134 -1.6536 -1.2418 -0.0487
   48MOL0     H 6577   5.898   9.914   3.210  0.5311 -1.2244 -0.6415
   48MOL0     H 6578   5.863   9.678   3.123 -2.2429 -2.6037 -2.0650
   48MOL0     H 6579   5.702   9.719   3.086  2.1601 -4.2732 -1.0774
   48MOL0     H 6580   5.791   9.880   2.904 -2.8620  0.0793  3.0334
   48MOL0     H 6581   5.949   9.807   2.940 -0.6629  0.4539 -2.0943
   48MOL0     H 6582   5.927   9.860   2.699 -1.0090 -0.2545 -0.0440
   48MOL0     H 6583   6.047   9.931   2.517 -5.0289  3.2429 -1.6732
   48MOL0     H 6584   5.973   9.860   2.368 -1.1866 -2.3143 -0.5415
   48MOL0     H 6585   6.136   9.817   2.401 -0.8673  0.5318 -0.7406
   48MOL0     H 6586   5.922   9.725   2.021  0.5771  0.5923  2.0127
   48MOL0     H 6587   5.983   9.659   1.800 -1.2844  2.3236  1.2712
   48MOL0     H 6588   6.407   9.519   1.750 -1.6685  1.7396  0.8523
   48MOL0     H 6589   6.338   9.346   1.759 -0.4172 -0.5072  1.0724
   48MOL0     H 6590   6.257   9.359   1.543  0.5723 -0.8866 -0.8979
   48MOL0     H 6591   6.310   9.529   1.515 -3.9896 -0.8013  0.3996
   48MOL0     H 6592   6.475   9.281   1.569 -3.0277  0.0669  1.3466
   48MOL0     H 6593   6.558   9.440   1.529  0.0943 -0.5959  0.4605
   48MOL0     H 6594   6.422   9.427   1.325 -3.2271 -1.4663  2.4854
   48MOL0     H 6595   6.458   9.256   1.342  4.1663 -1.4050  1.1854
   48MOL0     H 6596   6.620   9.361   1.207 -4.8349 -1.2662  0.5737
   48MOL0     H 6597   6.664   9.476   1.343  0.8090 -0.1325  1.1206
   48MOL0     H 6598   6.714   9.258   1.479  1.5447 -3.9979 -0.2520
   48MOL0     H 6599   6.826   9.300   1.360  0.0161 -0.2593  2.1437
   48MOL0     H 6600   6.697   9.144   1.197 -0.1852  0.2866  0.4723
   48MOL0     H 6601   6.605   9.092   1.334 -1.6525  3.7401  2.5324
   48MOL0     H 6602   6.911   9.059   1.336  0.3988  0.7495 -1.4996
   48MOL0     H 6603   6.792   8.940   1.303 -1.9346  1.2907 -0.3279
   48MOL0     H 6604   6.323   9.453   1.989 -0.2084 -0.0526 -0.9431
   48MOL0     H 6605   6.252   9.531   2.203  1.5465  2.8241  0.1955
   48MOL0     H 6606   5.934   9.383   2.537 -1.6155 -1.0838  2.2380
   48MOL0     H 6607   5.830   9.454   2.761  5.3921 -1.8981  1.2173
   48MOL0     H 6608   4.998  10.867   3.030  3.0854  2.1961 -2.0970
   48MOL0     H 6609   5.063  11.104   3.006  0.1795 -0.3249  0.4611
   48MOL0     H 6610   5.116  11.515   3.346  2.5714 -1.5154 -0.7740
   48MOL0     H 6611   5.218  11.740   3.355 -0.7820 -2.4941  1.4928
   48MOL0     H 6612   5.171  11.964   3.328 -1.4008  1.1459 -0.4078
   48MOL0     H 6613   5.350  11.955   3.309 -0.7278  1.3468 -0.1872
   48MOL0     H 6614   5.244  12.186   3.337  1.2769 -1.5459  1.6072
   48MOL0     H 6615   5.177  12.172   3.174  1.4215 -0.1196 -0.9847
   48MOL0     H 6616   5.429  12.079   3.117 -1.3807 -0.1683 -0.9989
   48MOL0     H 6617   5.376  12.236   3.091  0.7539 -0.6094 -0.3030
   48MOL0     H 6618   5.591  12.205   3.207 -0.6414  2.0841 -1.1646
   48MOL0     H 6619   5.507  12.133   3.344 -0.8150 -0.8118 -0.3833
   48MOL0     H 6620   5.436  12.552   3.395  0.0377 -0.8568  1.7997
   48MOL0     H 6621   5.165  11.776   2.934 -3.7552  0.2912 -1.7993
   48MOL0     H 6622   5.111  11.599   2.798  0.6883  0.2554  1.0876
   48MOL0     H 6623   5.035  11.450   2.859  1.4408  0.7161 -0.5773
   48MOL0     H 6624   4.937  11.602   2.858 -0.8611 -0.5934 -2.5190
   49MOL0     O 6625   4.352   8.653   3.319  0.1206 -0.3121  0.9450
   49MOL0     C 6626   4.348   8.649   3.195  0.0063 -0.0797  0.5869
   49MOL0     O 6627   4.389   8.750   3.110  0.2211  0.3004  0.0931
   49MOL0     C 6628   4.450   8.859   3.170 -0.4964  0.3406 -0.2562
   49MOL0     C 6629   4.579   8.859   3.168 -0.1722  0.0660 -0.5421
   49MOL0     C 6630   4.649   8.968   3.220  0.6064 -0.5440  0.2185
   49MOL0     C 6631   4.575   9.084   3.245 -0.8196 -0.2744  0.1616
   49MOL0     O 6632   4.647   9.177   3.312  1.2026 -0.1368 -0.2477
   49MOL0     C 6633   4.573   9.255   3.405 -0.0530 -0.5270 -0.4383
   49MOL0     C 6634   4.549   9.167   3.528  0.0781  0.1102 -0.3322
   49MOL0     C 6635   4.517   9.247   3.661  0.1351 -0.0755  0.2138
   49MOL0     C 6636   4.434   9.368   3.645 -0.3966  0.1937  0.0670
   49MOL0     C 6637   4.397   9.413   3.789  0.1275  0.5757 -1.1467
   49MOL0     C 6638   4.511   9.485   3.862  0.4130  0.2404 -0.0281
   49MOL0     C 6639   4.475   9.519   4.006  0.5728  0.3602  0.7308
   49MOL0     C 6640   4.580   9.606   4.070  0.2789  0.2839 -0.2956
   49MOL0     N 6641   4.571   9.580   4.213  0.1145 -1.4792  0.1361
   49MOL0     C 6642   4.650   9.486   4.275  1.7270  0.6503 -0.1918
   49MOL0     C 6643   4.622   9.493   4.409  1.0007  0.2438  0.5360
   49MOL0     C 6644   4.671   9.402   4.520  0.5737 -0.0171  0.1643
   49MOL0     C 6645   4.829   9.416   4.526 -0.3621 -0.3225 -0.7587
   49MOL0     C 6646   4.879   9.556   4.569  0.3374  0.4616 -0.4924
   49MOL0     C 6647   5.015   9.536   4.649  0.6384 -0.2191  0.7053
   49MOL0     O 6648   5.100   9.436   4.576  0.2076 -0.7171 -0.2732
   49MOL0     C 6649   5.182   9.476   4.475  0.3640  0.2479 -0.1520
   49MOL0     C 6650   5.241   9.381   4.394  0.0160 -0.0728  0.2084
   49MOL0     C 6651   5.326   9.416   4.285 -0.5370  0.0934  0.3781
   49MOL0     C 6652   5.376   9.305   4.208 -0.1215  0.1191 -0.1131
   49MOL0     C 6653   5.357   9.552   4.255 -0.1791 -0.0287  0.2067
   49MOL0     C 6654   5.446   9.598   4.141 -0.3115 -0.2283  0.5814
   49MOL0     O 6655   5.532   9.695   4.177  0.1778 -1.1087 -1.0717
   49MOL0     C 6656   5.574   9.780   4.074  0.3232  0.5190  0.3265
   49MOL0     C 6657   5.501   9.862   3.985  0.1540  0.1967  0.4611
   49MOL0     C 6658   5.568   9.934   3.883 -0.6713 -0.6488  0.1678
   49MOL0     C 6659   5.707   9.943   3.878 -1.1012  0.4720  0.1803
   49MOL0     O 6660   5.781  10.021   3.788 -0.5254  0.2625  0.6800
   49MOL0     C 6661   5.717  10.093   3.687 -0.1738 -0.0177 -0.2036
   49MOL0     C 6662   5.664  10.227   3.748  0.1295 -0.3726  0.6484
   49MOL0     C 6663   5.643  10.326   3.627  0.3184 -0.5865  0.0718
   49MOL0     C 6664   5.613  10.466   3.687 -0.1744  0.6482 -0.8697
   49MOL0     C 6665   5.544  10.562   3.583 -0.1103 -0.4978 -0.1359
   49MOL0     C 6666   5.499  10.684   3.660 -0.2779  0.7853  0.2207
   49MOL0     C 6667   5.407  10.785   3.589 -0.2181  0.0665 -0.0185
   49MOL0     C 6668   5.449  10.831   3.448 -0.6833  0.2331  0.1383
   49MOL0    Cl 6669   5.312  10.933   3.404  0.4265 -0.4573  0.0890
   49MOL0     C 6670   5.788   9.878   3.976  0.0838  0.2880  0.0202
   49MOL0     C 6671   5.718   9.804   4.078  0.5735 -0.1309  0.2274
   49MOL0     O 6672   5.425   9.556   4.027 -0.2887  0.0976 -0.3772
   49MOL0     C 6673   5.296   9.648   4.339 -1.0889 -0.3492 -0.3334
   49MOL0     C 6674   5.210   9.608   4.446 -0.5280  0.2902  0.2448
   49MOL0     N 6675   4.538   9.596   4.421  0.2270 -0.2282  0.2287
   49MOL0     N 6676   4.506   9.656   4.310  0.2465 -0.7094 -0.2981
   49MOL0     C 6677   4.437   9.095   3.216  0.3245  0.7038  1.0825
   49MOL0     C 6678   4.378   8.979   3.180  0.0865  1.0892 -0.2754
   49MOL0     C 6679   4.272   8.535   3.144  0.4772  0.2606  0.4817
   49MOL0     C 6680   4.252   8.418   3.222  1.0545 -0.2930 -0.3759
   49MOL0     C 6681   4.194   8.296   3.175  0.2416 -0.8967  0.5897
   49MOL0     C 6682   4.150   8.287   3.042 -1.2189 -1.1510 -0.6105
   49MOL0     O 6683   4.081   8.183   2.987  0.1735 -0.2624  0.2320
   49MOL0     C 6684   3.982   8.126   3.080 -0.6558 -0.5126  0.0003
   49MOL0     C 6685   3.896   8.016   3.008 -0.4716  0.2177 -0.9054
   49MOL0     C 6686   3.786   7.966   3.100  0.4500 -0.9072  0.4821
   49MOL0     C 6687   3.818   7.838   3.169  0.6462  0.6034 -0.4698
   49MOL0     C 6688   3.848   7.720   3.081 -0.4660 -0.0717 -0.5759
   49MOL0     C 6689   3.899   7.630   3.023 -0.3337  0.4941  0.7039
   49MOL0     C 6690   4.179   8.393   2.957  0.1995  0.2309  0.0893
   49MOL0     C 6691   4.244   8.517   3.000  0.1429  0.4394  0.3207
   49MOL0     C 6692   4.286   8.615   2.883 -0.0875  0.0382  0.1380
   49MOL0     H 6693   4.628   8.767   3.141 -0.9879 -0.6146  0.2391
   49MOL0     H 6694   4.756   8.963   3.237  0.7221 -0.4599 -0.4523
   49MOL0     H 6695   4.491   9.303   3.352  1.5591  1.2766 -1.4404
   49MOL0     H 6696   4.628   9.346   3.432 -2.4689  1.1593 -0.9155
   49MOL0     H 6697   4.466   9.099   3.509  1.0607 -2.0495  2.4786
   49MOL0     H 6698   4.640   9.110   3.549 -0.4923 -0.0035  2.1192
   49MOL0     H 6699   4.465   9.173   3.723  0.5834 -0.2281  0.4190
   49MOL0     H 6700   4.614   9.273   3.704  0.5876 -0.4566 -0.5538
   49MOL0     H 6701   4.481   9.442   3.580 -0.7043 -1.2798 -1.9251
   49MOL0     H 6702   4.344   9.340   3.590 -0.2239 -3.0784  1.2277
   49MOL0     H 6703   4.355   9.331   3.847 -0.5533 -0.0818 -2.5301
   49MOL0     H 6704   4.322   9.486   3.759  1.7587  1.6044 -3.0464
   49MOL0     H 6705   4.593   9.414   3.848 -1.5418 -1.4984 -4.3347
   49MOL0     H 6706   4.538   9.574   3.804 -0.2011  1.4189  1.4338
   49MOL0     H 6707   4.460   9.428   4.065 -3.0218 -0.7458 -1.5439
   49MOL0     H 6708   4.378   9.568   3.993 -0.3563 -1.9583 -2.3773
   49MOL0     H 6709   4.682   9.588   4.035  1.1654  3.5436  0.2594
   49MOL0     H 6710   4.576   9.713   4.045  0.9440 -0.0997 -2.2423
   49MOL0     H 6711   4.712   9.408   4.233 -1.7349 -2.5979  0.2511
   49MOL0     H 6712   4.634   9.304   4.489  1.3141 -0.6362  1.1947
   49MOL0     H 6713   4.628   9.432   4.616 -0.5063 -1.2313  0.0825
   49MOL0     H 6714   4.867   9.344   4.599  0.0575  0.7430  0.1061
   49MOL0     H 6715   4.879   9.385   4.434  1.6591  0.4728  0.0217
   49MOL0     H 6716   4.909   9.626   4.491 -0.8835  0.6943 -0.7883
   49MOL0     H 6717   4.812   9.603   4.643 -0.6643 -2.3942  0.5462
   49MOL0     H 6718   5.056   9.631   4.686  0.2806 -0.2907  1.2961
   49MOL0     H 6719   4.979   9.487   4.739  1.3271 -1.6168  0.2431
   49MOL0     H 6720   5.218   9.276   4.408  0.3697 -0.8935 -3.9494
   49MOL0     H 6721   5.347   9.206   4.244 -3.2379  0.9052 -0.1702
   49MOL0     H 6722   5.483   9.327   4.209 -0.6414  3.2267 -0.6565
   49MOL0     H 6723   5.342   9.319   4.105  3.7956  0.5024 -1.5036
   49MOL0     H 6724   5.393   9.873   3.990  0.1993  0.2452  1.4857
   49MOL0     H 6725   5.514   9.982   3.802 -0.9216  0.7032  1.1032
   49MOL0     H 6726   5.792  10.111   3.610 -0.9642  2.4025 -0.5131
   49MOL0     H 6727   5.643  10.028   3.639  1.0170 -2.1040  0.7063
   49MOL0     H 6728   5.575  10.210   3.810  0.7336 -1.4109  1.2529
   49MOL0     H 6729   5.746  10.277   3.800  0.9975 -0.3078 -0.7275
   49MOL0     H 6730   5.563  10.291   3.562 -2.2937 -2.8031  4.0648
   49MOL0     H 6731   5.727  10.331   3.557  0.6539  0.5765  0.5304
   49MOL0     H 6732   5.699  10.512   3.737 -1.1500  1.8293 -0.2249
   49MOL0     H 6733   5.536  10.455   3.764  2.1751 -0.2186  1.4983
   49MOL0     H 6734   5.607  10.583   3.497 -1.4665 -3.6557 -2.0792
   49MOL0     H 6735   5.468  10.512   3.522  0.5922  1.1664 -2.4779
   49MOL0     H 6736   5.580  10.736   3.713  0.2278  1.7581 -1.4509
   49MOL0     H 6737   5.439  10.654   3.747  0.1866  0.2650  0.3739
   49MOL0     H 6738   5.414  10.879   3.643  2.5772  0.3024 -0.6486
   49MOL0     H 6739   5.303  10.752   3.581 -0.1660  0.1110 -0.9587
   49MOL0     H 6740   5.442  10.749   3.376 -1.1129  1.8680 -1.7635
   49MOL0     H 6741   5.543  10.887   3.442 -1.1972  1.2652  1.2931
   49MOL0     H 6742   5.895   9.894   3.975  0.0961  0.1783 -0.3061
   49MOL0     H 6743   5.781   9.753   4.150 -1.4108 -0.7439  1.6194
   49MOL0     H 6744   5.313   9.754   4.327 -1.0276  0.4141  4.6021
   49MOL0     H 6745   5.136   9.678   4.485 -0.6236  0.3654 -0.0604
   49MOL0     H 6746   4.377   9.183   3.237  0.9910  1.2806  0.6208
   49MOL0     H 6747   4.274   8.978   3.150 -0.5904  2.8099  1.7602
   49MOL0     H 6748   4.271   8.419   3.329  0.0405 -1.4370 -0.1611
   49MOL0     H 6749   4.179   8.215   3.246 -2.1924 -1.5902 -0.6136
   49MOL0     H 6750   4.029   8.071   3.162 -0.8154 -3.3912 -1.6855
   49MOL0     H 6751   3.909   8.197   3.119  0.3171 -0.4608  1.8147
   49MOL0     H 6752   3.958   7.932   2.973 -0.4542 -1.1752  2.1543
   49MOL0     H 6753   3.855   8.070   2.922 -0.6967  1.9377  0.2329
   49MOL0     H 6754   3.748   8.044   3.166  0.1570 -1.8650  1.4743
   49MOL0     H 6755   3.703   7.933   3.037 -0.2769 -1.0802  1.5001
   49MOL0     H 6756   3.734   7.812   3.235  1.3329 -0.5050 -0.0089
   49MOL0     H 6757   3.894   7.861   3.245 -2.2743  1.0841  2.5725
   49MOL0     H 6758   3.948   7.554   2.965 -2.6633 -1.0117  0.5746
   49MOL0     H 6759   4.168   8.377   2.850  0.7909  0.3290  0.0061
   49MOL0     H 6760   4.271   8.721   2.907 -1.2693  0.0059 -0.4130
   49MOL0     H 6761   4.390   8.595   2.858  0.1006 -1.2243  1.7580
   49MOL0     H 6762   4.229   8.593   2.792 -0.0625 -2.7952  0.7185
   50MOL0     O 6763  10.074   1.170   5.345  1.0708  0.1645 -0.1009
   50MOL0     C 6764  10.037   1.057   5.340 -1.0163  0.1168  1.0058
   50MOL0     O 6765   9.904   1.020   5.335  0.5115 -0.0821  0.1004
   50MOL0     C 6766   9.809   1.115   5.323 -0.6025 -0.2455  0.9783
   50MOL0     C 6767   9.715   1.140   5.423 -0.1104 -0.2852 -0.1596
   50MOL0     C 6768   9.613   1.228   5.397  0.7257  0.3080  0.4812
   50MOL0     C 6769   9.601   1.293   5.276 -0.4229 -0.0261 -0.6325
   50MOL0     O 6770   9.494   1.377   5.262  0.3183  0.9454  0.0419
   50MOL0     C 6771   9.464   1.427   5.136 -0.9947  0.5303 -0.3612
   50MOL0     C 6772   9.359   1.545   5.157  0.4799  0.1605  0.8928
   50MOL0     C 6773   9.427   1.674   5.200  0.2371  0.4446  0.3884
   50MOL0     C 6774   9.320   1.756   5.271 -0.2109  0.5778  0.3010
   50MOL0     C 6775   9.388   1.877   5.335 -0.0341  0.4292  0.2283
   50MOL0     C 6776   9.287   1.960   5.415  0.3493 -0.1771  0.5498
   50MOL0     C 6777   9.331   2.111   5.389 -0.4783 -0.3290 -0.4737
   50MOL0     C 6778   9.323   2.201   5.518  0.4778 -0.0689 -0.0442
   50MOL0     N 6779   9.358   2.344   5.497  1.4141 -0.4966  0.1139
   50MOL0     C 6780   9.466   2.417   5.540 -0.1242  1.2901  0.7758
   50MOL0     C 6781   9.453   2.537   5.488 -0.3090  0.4209  1.1174
   50MOL0     C 6782   9.552   2.643   5.514  0.5888 -0.0665  0.6172
   50MOL0     C 6783   9.680   2.615   5.441 -0.2724  0.1702  0.4884
   50MOL0     C 6784   9.809   2.648   5.524 -0.6135  0.3256  0.0852
   50MOL0     C 6785   9.841   2.539   5.633  0.4610 -1.2502 -0.0970
   50MOL0     O 6786   9.977   2.558   5.677  0.1415  0.7783 -0.1138
   50MOL0     C 6787  10.008   2.593   5.803 -0.0685  0.0645 -0.4769
   50MOL0     C 6788  10.069   2.500   5.891 -0.6848  0.5646  0.4187
   50MOL0     C 6789  10.101   2.538   6.022  0.0638 -0.0981 -0.5275
   50MOL0     C 6790  10.184   2.439   6.096  0.2246  0.0575  0.2638
   50MOL0     C 6791  10.093   2.673   6.062 -0.7290  0.1398 -1.0342
   50MOL0     C 6792  10.129   2.722   6.204 -0.4641 -0.1244  0.2792
   50MOL0     O 6793  10.088   2.649   6.317 -0.2728  0.6479  0.2923
   50MOL0     C 6794   9.953   2.639   6.355  0.0477  0.6339 -0.4423
   50MOL0     C 6795   9.852   2.736   6.338 -0.6687  0.7503  0.6666
   50MOL0     C 6796   9.718   2.712   6.383 -0.7078 -0.9034  0.9290
   50MOL0     C 6797   9.679   2.588   6.437  0.0602 -0.0112  0.4124
   50MOL0     O 6798   9.554   2.556   6.466 -0.0795  0.2313  0.0358
   50MOL0     C 6799   9.448   2.650   6.454  0.1178  0.8694 -0.5885
   50MOL0     C 6800   9.318   2.582   6.495 -0.5508 -0.2047 -0.4408
   50MOL0     C 6801   9.209   2.683   6.503  0.0320  1.1171 -0.0334
   50MOL0     C 6802   9.071   2.634   6.544 -0.1558  0.3115  0.5379
   50MOL0     C 6803   8.959   2.742   6.516  0.2140 -0.4851 -0.6393
   50MOL0     C 6804   8.944   2.807   6.376 -0.6406 -0.3839  1.3749
   50MOL0     C 6805   8.945   2.702   6.271  0.7996  0.0787  0.1197
   50MOL0     C 6806   8.923   2.764   6.134  0.8367  0.1765 -0.2384
   50MOL0    Cl 6807   8.972   2.647   6.021 -0.1216 -0.0687  0.2102
   50MOL0     C 6808   9.780   2.492   6.449  0.1243  0.2745 -0.5920
   50MOL0     C 6809   9.913   2.514   6.417  0.1819  0.0002 -0.8092
   50MOL0     O 6810  10.189   2.832   6.217 -0.1423  0.3547  0.7707
   50MOL0     C 6811  10.051   2.772   5.971  0.4942 -0.3872  0.1474
   50MOL0     C 6812  10.010   2.727   5.840 -0.3052 -0.1418  0.1018
   50MOL0     N 6813   9.337   2.551   5.418  0.2319  0.8425 -0.2381
   50MOL0     N 6814   9.276   2.437   5.430 -0.7855 -0.0389 -0.0599
   50MOL0     C 6815   9.694   1.269   5.179  0.5768 -0.6832 -1.0815
   50MOL0     C 6816   9.792   1.179   5.201  0.1795 -1.5108  0.8015
   50MOL0     C 6817  10.136   0.941   5.345  0.5106 -0.0864 -0.2769
   50MOL0     C 6818  10.101   0.820   5.281  1.4655 -0.7428 -0.2852
   50MOL0     C 6819  10.194   0.729   5.270  0.5675  0.5387  0.9331
   50MOL0     C 6820  10.317   0.725   5.339  1.3749 -0.2358  1.5873
   50MOL0     O 6821  10.414   0.631   5.335  0.6298 -0.1688 -0.6534
   50MOL0     C 6822  10.385   0.511   5.261 -0.3302 -0.4477 -0.9151
   50MOL0     C 6823  10.526   0.435   5.248  0.1277 -0.5631  0.0494
   50MOL0     C 6824  10.613   0.487   5.134  1.3073 -0.4904  0.0535
   50MOL0     C 6825  10.702   0.612   5.187 -0.7755 -0.8689 -0.7362
   50MOL0     C 6826  10.777   0.569   5.310  0.2412 -1.0777  0.3168
   50MOL0     C 6827  10.848   0.560   5.403 -0.5735  0.0776  0.2828
   50MOL0     C 6828  10.346   0.838   5.410  0.0916 -0.6200 -0.5474
   50MOL0     C 6829  10.258   0.945   5.416 -0.2710  0.7288 -0.3922
   50MOL0     C 6830  10.307   1.073   5.492  0.7088 -0.4466  0.0775
   50MOL0     H 6831   9.711   1.085   5.517  1.0931  2.5002  1.6679
   50MOL0     H 6832   9.539   1.243   5.474 -0.2539 -0.7359 -0.2245
   50MOL0     H 6833   9.417   1.341   5.087 -2.1358 -0.1822  1.8317
   50MOL0     H 6834   9.549   1.465   5.079  2.2974 -2.0352  2.4037
   50MOL0     H 6835   9.292   1.560   5.072  1.1510  2.4031  0.7023
   50MOL0     H 6836   9.304   1.511   5.246  0.2467  2.7938  1.8502
   50MOL0     H 6837   9.508   1.663   5.272  0.6613 -2.2289 -0.4061
   50MOL0     H 6838   9.467   1.713   5.106  1.2281  0.8192  0.9476
   50MOL0     H 6839   9.248   1.797   5.200 -0.5429 -2.8119 -1.5263
   50MOL0     H 6840   9.266   1.698   5.347 -1.2359  0.0253 -0.8206
   50MOL0     H 6841   9.426   1.940   5.254 -2.2904  0.7095 -0.6715
   50MOL0     H 6842   9.466   1.853   5.408  0.2448  0.1450 -0.1595
   50MOL0     H 6843   9.179   1.953   5.395  0.5464 -1.7720 -0.1252
   50MOL0     H 6844   9.290   1.919   5.516  1.1945 -2.3115 -0.2758
   50MOL0     H 6845   9.277   2.165   5.311 -3.2523 -0.3951  1.2908
   50MOL0     H 6846   9.435   2.110   5.356 -0.3337  0.2949 -0.0651
   50MOL0     H 6847   9.227   2.196   5.571  1.5920 -2.2586  1.9871
   50MOL0     H 6848   9.386   2.154   5.594 -1.7129 -1.8565  0.7861
   50MOL0     H 6849   9.539   2.375   5.608 -1.4536 -2.7783 -0.0770
   50MOL0     H 6850   9.560   2.653   5.623 -1.6136 -1.2091  0.9488
   50MOL0     H 6851   9.504   2.737   5.486  1.6432 -0.1338 -1.5750
   50MOL0     H 6852   9.693   2.512   5.407  1.0193  0.4701 -0.0062
   50MOL0     H 6853   9.679   2.674   5.349 -1.0211 -0.4994  0.0525
   50MOL0     H 6854   9.897   2.662   5.460  0.5135 -1.9496  1.0307
   50MOL0     H 6855   9.791   2.739   5.581  0.0858 -0.2441  1.2456
   50MOL0     H 6856   9.777   2.555   5.720  0.8311  0.3085 -0.0941
   50MOL0     H 6857   9.818   2.440   5.590  0.3602  0.6420 -5.1169
   50MOL0     H 6858  10.090   2.402   5.850 -1.4010  0.6420 -0.1711
   50MOL0     H 6859  10.163   2.454   6.203 -1.3791 -1.5676  0.2296
   50MOL0     H 6860  10.288   2.467   6.076 -1.1201  6.1598 -0.1445
   50MOL0     H 6861  10.160   2.335   6.072  1.5818 -0.7455  2.1300
   50MOL0     H 6862   9.877   2.827   6.285  1.9071  0.4545  1.2119
   50MOL0     H 6863   9.652   2.796   6.363 -1.5422 -0.9385  3.2068
   50MOL0     H 6864   9.480   2.725   6.527  1.0136  0.6554 -0.7519
   50MOL0     H 6865   9.432   2.696   6.356 -0.8123 -0.4633 -1.1030
   50MOL0     H 6866   9.294   2.507   6.420  0.1479 -1.4361  0.5351
   50MOL0     H 6867   9.335   2.533   6.591 -3.3479 -1.7110 -0.5945
   50MOL0     H 6868   9.193   2.744   6.414 -0.6614  3.2000  1.4367
   50MOL0     H 6869   9.235   2.757   6.580 -1.1988  0.3015  1.2170
   50MOL0     H 6870   9.085   2.603   6.648 -0.0386 -1.1940  0.0909
   50MOL0     H 6871   9.052   2.546   6.483  0.4326  1.0908 -0.8255
   50MOL0     H 6872   8.862   2.694   6.533 -0.4155  0.6720 -0.8700
   50MOL0     H 6873   8.971   2.825   6.586  1.0701  0.2693 -1.6485
   50MOL0     H 6874   9.028   2.875   6.361 -0.7813 -0.3730  0.6025
   50MOL0     H 6875   8.847   2.859   6.372  0.8504  2.5526  0.1275
   50MOL0     H 6876   8.870   2.627   6.296  0.1028 -0.3289 -2.8604
   50MOL0     H 6877   9.043   2.654   6.275 -0.3409 -2.3536  0.4706
   50MOL0     H 6878   8.978   2.859   6.125  1.0326  0.1341  0.4479
   50MOL0     H 6879   8.818   2.785   6.114 -0.3338 -3.1272  1.6236
   50MOL0     H 6880   9.748   2.398   6.492 -3.1521  0.7203 -1.7746
   50MOL0     H 6881   9.992   2.446   6.448 -0.2412 -0.9657 -1.7774
   50MOL0     H 6882  10.046   2.875   6.005 -0.9228 -1.0595  2.1916
   50MOL0     H 6883   9.985   2.813   5.779  2.5584  2.8465  2.7629
   50MOL0     H 6884   9.697   1.320   5.083  2.1510 -2.0618 -1.8058
   50MOL0     H 6885   9.859   1.147   5.122  0.5236 -2.1165  1.3265
   50MOL0     H 6886  10.003   0.817   5.234  1.1134 -0.0510  0.3752
   50MOL0     H 6887  10.164   0.645   5.209 -1.2006  1.3316  0.6307
   50MOL0     H 6888  10.314   0.446   5.314 -0.8654  0.0450 -1.0099
   50MOL0     H 6889  10.338   0.541   5.166 -3.2800 -0.9240  0.2743
   50MOL0     H 6890  10.516   0.331   5.214  1.8308 -0.2986 -1.3939
   50MOL0     H 6891  10.574   0.436   5.346  0.9820 -0.4004 -0.3664
   50MOL0     H 6892  10.678   0.414   5.085  2.1735 -1.5955  2.6744
   50MOL0     H 6893  10.548   0.529   5.057  1.8775  1.8615  0.7477
   50MOL0     H 6894  10.644   0.702   5.211  1.4084  0.4566 -0.2030
   50MOL0     H 6895  10.772   0.645   5.111 -0.4290  0.8502  0.2808
   50MOL0     H 6896  10.894   0.540   5.498 -0.1481  0.0322  0.0729
   50MOL0     H 6897  10.447   0.848   5.447  0.1465 -0.7765 -0.6589
   50MOL0     H 6898  10.222   1.107   5.552  0.5182  2.5926 -1.6721
   50MOL0     H 6899  10.393   1.047   5.555  0.3904  0.6027  0.9752
   50MOL0     H 6900  10.330   1.148   5.415  0.0752  3.0767  3.0494
   51MOL0     O 6901   6.052   2.498  11.097  1.0573 -0.0743 -0.4313
   51MOL0     C 6902   6.123   2.407  11.061  0.5877  0.1596 -0.0702
   51MOL0     O 6903   6.135   2.288  11.115  0.0866 -0.0624 -0.8517
   51MOL0     C 6904   6.077   2.267  11.236  1.5348  0.0550  0.1916
   51MOL0     C 6905   6.027   2.140  11.262  0.4428 -0.9053  0.2871
   51MOL0     C 6906   5.960   2.102  11.382  0.1523 -0.4424  0.0818
   51MOL0     C 6907   5.950   2.191  11.483 -0.7286  0.0863 -0.2210
   51MOL0     O 6908   5.882   2.150  11.592 -0.1021 -0.6449  1.0330
   51MOL0     C 6909   5.888   2.224  11.709  0.5842 -0.1007 -1.3564
   51MOL0     C 6910   5.868   2.140  11.826 -0.3761  0.7155  0.2695
   51MOL0     C 6911   5.719   2.110  11.851  0.0217 -0.0108 -0.0257
   51MOL0     C 6912   5.701   2.017  11.973  0.3514  0.4710 -0.1811
   51MOL0     C 6913   5.559   1.955  11.964  0.0316  0.7359  0.2172
   51MOL0     C 6914   5.463   2.054  12.030 -0.0894 -0.0506 -0.0353
   51MOL0     C 6915   5.312   2.028  11.994 -0.4093 -0.2134 -0.7524
   51MOL0     C 6916   5.225   2.127  12.054 -0.2512  0.1559 -0.9962
   51MOL0     N 6917   5.198   2.123  12.200 -0.0049 -0.2631  0.5828
   51MOL0     C 6918   5.130   2.022  12.272 -0.3468 -0.0712  0.4946
   51MOL0     C 6919   5.133   2.066  12.405 -0.2975 -0.2140  0.2997
   51MOL0     C 6920   5.082   1.997  12.524  0.0433 -0.3587 -0.6914
   51MOL0     C 6921   5.195   1.912  12.589 -0.1008 -0.0235  1.2104
   51MOL0     C 6922   5.138   1.822  12.698  0.0364  0.6289 -0.9629
   51MOL0     C 6923   5.250   1.730  12.755  0.4329  0.3226 -0.1415
   51MOL0     O 6924   5.197   1.650  12.856  0.5647  0.5637  0.6084
   51MOL0     C 6925   5.195   1.693  12.986 -0.1585  0.5123  0.0552
   51MOL0     C 6926   5.217   1.817  13.036  1.0240  0.3245  0.2398
   51MOL0     C 6927   5.172   1.854  13.158  0.4431  0.0012  0.5960
   51MOL0     C 6928   5.190   2.001  13.205 -0.5320 -0.6575 -0.0150
   51MOL0     C 6929   5.115   1.752  13.247  0.1953 -0.2153  0.3914
   51MOL0     C 6930   5.062   1.789  13.382  0.5351  0.7729 -0.3010
   51MOL0     O 6931   5.078   1.682  13.469  0.7843 -0.7574 -0.3182
   51MOL0     C 6932   5.032   1.690  13.609  0.4932 -0.3715 -0.4173
   51MOL0     C 6933   4.901   1.740  13.638 -0.1827 -0.2349  0.2648
   51MOL0     C 6934   4.859   1.752  13.770 -0.6244 -1.1495 -0.1738
   51MOL0     C 6935   4.938   1.699  13.876  1.0345  1.0730  0.3397
   51MOL0     O 6936   4.894   1.710  14.004 -0.0960  0.4907 -0.3757
   51MOL0     C 6937   4.782   1.627  14.049 -0.7631  0.3465 -0.4226
   51MOL0     C 6938   4.742   1.647  14.200 -0.8542 -0.0224 -0.2459
   51MOL0     C 6939   4.765   1.798  14.237  0.1419 -0.4343 -0.5615
   51MOL0     C 6940   4.759   1.836  14.389  0.3434  0.2279 -0.6759
   51MOL0     C 6941   4.800   1.984  14.420  0.7648  0.1600  0.0149
   51MOL0     C 6942   4.787   2.029  14.570  0.1243 -0.4901  0.2268
   51MOL0     C 6943   4.829   1.927  14.674  0.2570  0.2030  0.1295
   51MOL0     C 6944   4.808   1.985  14.819 -0.6695  0.7246  0.9617
   51MOL0    Cl 6945   4.651   2.038  14.853  0.3972  0.3055 -0.3419
   51MOL0     C 6946   5.056   1.642  13.842 -0.5784 -0.4612 -0.6610
   51MOL0     C 6947   5.107   1.643  13.716  0.0258  0.4063 -0.1296
   51MOL0     O 6948   5.045   1.905  13.416  0.2628  0.8447 -0.8008
   51MOL0     C 6949   5.112   1.621  13.193 -0.2317  1.0214  0.7724
   51MOL0     C 6950   5.147   1.594  13.067  0.0491 -0.1190 -0.8931
   51MOL0     N 6951   5.208   2.183  12.406 -0.8195  0.2468 -0.6625
   51MOL0     N 6952   5.231   2.221  12.291  0.7133  1.1199  0.2538
   51MOL0     C 6953   6.012   2.318  11.468  0.3801  0.1794  0.6706
   51MOL0     C 6954   6.076   2.351  11.350 -0.3164 -0.5657  0.5996
   51MOL0     C 6955   6.213   2.443  10.953  0.1830 -0.4503  0.8463
   51MOL0     C 6956   6.339   2.381  10.947  0.4579 -0.7226 -0.4488
   51MOL0     C 6957   6.436   2.415  10.857  0.9286  0.6797  1.2068
   51MOL0     C 6958   6.418   2.510  10.760  0.5079  0.1734 -0.5429
   51MOL0     O 6959   6.522   2.538  10.677  0.9721  0.0856  0.0655
   51MOL0     C 6960   6.509   2.630  10.572  0.1521 -0.2208  0.2746
   51MOL0     C 6961   6.650   2.656  10.530 -0.1429  1.1351  0.2207
   51MOL0     C 6962   6.660   2.713  10.390 -0.3317  0.2527  0.4539
   51MOL0     C 6963   6.784   2.800  10.368 -0.5504 -0.6365  0.0154
   51MOL0     C 6964   6.902   2.728  10.399  0.0556  0.8266  0.0649
   51MOL0     C 6965   7.003   2.668  10.421 -0.6133 -0.2338 -0.4178
   51MOL0     C 6966   6.291   2.573  10.754  0.2133 -0.3417  0.2753
   51MOL0     C 6967   6.184   2.534  10.843  0.1515  0.1298 -0.1661
   51MOL0     C 6968   6.044   2.578  10.808  0.7706 -0.1860 -0.2051
   51MOL0     H 6969   6.034   2.069  11.180  3.3601 -2.0996  1.4432
   51MOL0     H 6970   5.921   2.004  11.406 -0.0083 -0.2232  0.7143
   51MOL0     H 6971   5.808   2.298  11.707  0.3427 -0.3205 -0.2063
   51MOL0     H 6972   5.983   2.276  11.724  0.1339 -0.2797  3.3142
   51MOL0     H 6973   5.908   2.040  11.809  1.1070  1.5589 -1.4834
   51MOL0     H 6974   5.919   2.187  11.911  4.7450 -0.6919 -1.6571
   51MOL0     H 6975   5.667   2.206  11.852  0.0900  0.4071 -5.5960
   51MOL0     H 6976   5.689   2.049  11.766  0.9566 -1.1183  0.4246
   51MOL0     H 6977   5.773   1.936  11.982  1.3351  1.4765  1.8229
   51MOL0     H 6978   5.711   2.085  12.059 -5.7636  0.0353  1.3669
   51MOL0     H 6979   5.556   1.853  12.005 -2.8013 -0.3479 -2.3122
   51MOL0     H 6980   5.526   1.940  11.861  0.5016 -3.5447  0.5006
   51MOL0     H 6981   5.482   2.068  12.136 -2.0503  2.9803  0.0333
   51MOL0     H 6982   5.479   2.151  11.982 -2.2249  0.0730 -0.5859
   51MOL0     H 6983   5.288   1.928  12.030  3.2761 -0.2933  2.0833
   51MOL0     H 6984   5.302   2.033  11.885  2.2974  1.6555 -1.0106
   51MOL0     H 6985   5.258   2.229  12.033 -2.8027  2.0248  2.8545
   51MOL0     H 6986   5.129   2.109  12.005 -0.2668  3.6230 -2.5145
   51MOL0     H 6987   5.099   1.923  12.240 -3.7980  1.2206 -0.6880
   51MOL0     H 6988   4.992   1.937  12.510 -0.4968  0.7001 -2.1745
   51MOL0     H 6989   5.048   2.073  12.596 -2.5921  0.3455 -2.5105
   51MOL0     H 6990   5.239   1.846  12.513 -1.0178 -1.8606  2.2215
   51MOL0     H 6991   5.266   1.987  12.623 -0.3544  0.1897  1.2770
   51MOL0     H 6992   5.097   1.891  12.771  0.3396 -0.3112  0.1247
   51MOL0     H 6993   5.054   1.757  12.671  0.4728 -0.3584 -0.0235
   51MOL0     H 6994   5.261   1.660  12.672  3.1638  1.4237 -0.8275
   51MOL0     H 6995   5.348   1.774  12.778 -0.7371  2.4277  1.0898
   51MOL0     H 6996   5.253   1.884  12.958 -2.7051  0.5069 -1.5706
   51MOL0     H 6997   5.088   2.040  13.217  0.0929  1.7883 -1.9476
   51MOL0     H 6998   5.252   2.056  13.133 -1.4454 -0.1223 -0.4121
   51MOL0     H 6999   5.232   2.019  13.304 -3.6028  1.6994  1.0124
   51MOL0     H 7000   4.841   1.773  13.554  1.2459 -0.6675 -0.9733
   51MOL0     H 7001   4.766   1.803  13.790 -0.4565 -0.8002 -0.2769
   51MOL0     H 7002   4.700   1.661  13.986  1.0983 -0.7069 -3.6272
   51MOL0     H 7003   4.801   1.520  14.040  0.5602  0.1373  3.1787
   51MOL0     H 7004   4.641   1.605  14.213 -0.0623 -2.0050 -0.0446
   51MOL0     H 7005   4.802   1.581  14.264 -1.8945 -1.0765 -0.3259
   51MOL0     H 7006   4.697   1.865  14.183  0.3422  0.3811  0.1733
   51MOL0     H 7007   4.862   1.828  14.197 -1.0781  2.2506 -1.7651
   51MOL0     H 7008   4.826   1.771  14.446 -1.6987 -0.9025  0.5788
   51MOL0     H 7009   4.661   1.818  14.436  0.8534  0.7426  0.6331
   51MOL0     H 7010   4.903   2.006  14.390 -0.2944  1.5268 -3.0337
   51MOL0     H 7011   4.727   2.038  14.360  0.8395 -1.8182 -2.0452
   51MOL0     H 7012   4.685   2.070  14.578 -0.3694 -1.8833  1.6486
   51MOL0     H 7013   4.863   2.106  14.580  0.8446 -1.3103  1.2350
   51MOL0     H 7014   4.937   1.907  14.670  0.5895  1.2932  2.1065
   51MOL0     H 7015   4.770   1.838  14.652 -0.6376  1.7133 -4.7461
   51MOL0     H 7016   4.889   2.053  14.848  0.1084  1.1937 -2.0230
   51MOL0     H 7017   4.814   1.910  14.898 -0.3684 -0.6109 -0.2876
   51MOL0     H 7018   5.113   1.604  13.926  1.2861  1.6674 -0.8658
   51MOL0     H 7019   5.209   1.614  13.694  0.6012 -1.7859  4.3220
   51MOL0     H 7020   5.092   1.536  13.257  3.2556  0.1331  0.9099
   51MOL0     H 7021   5.127   1.492  13.033  0.4360  0.0079 -1.5043
   51MOL0     H 7022   6.024   2.377  11.558 -3.0979 -1.4051  2.3603
   51MOL0     H 7023   6.132   2.443  11.340  2.3537 -2.2469 -1.5106
   51MOL0     H 7024   6.368   2.305  11.020  1.3178  0.4056  0.4185
   51MOL0     H 7025   6.536   2.375  10.873  0.4400 -1.0986  0.0689
   51MOL0     H 7026   6.439   2.591  10.497  2.0484 -0.4657 -1.4460
   51MOL0     H 7027   6.460   2.722  10.605 -1.5671 -1.5778  1.7418
   51MOL0     H 7028   6.710   2.566  10.537 -3.1313 -0.9597  0.8468
   51MOL0     H 7029   6.685   2.737  10.596  0.9267  0.9427 -0.0960
   51MOL0     H 7030   6.669   2.639  10.310 -3.0609  1.5231 -1.1507
   51MOL0     H 7031   6.581   2.788  10.382  0.0170  0.6142  0.3373
   51MOL0     H 7032   6.778   2.890  10.430 -0.6610 -1.9483  2.0210
   51MOL0     H 7033   6.782   2.828  10.263  3.2826  2.5313  0.5789
   51MOL0     H 7034   7.100   2.624  10.438 -0.6242 -0.0067  0.2563
   51MOL0     H 7035   6.282   2.654  10.683  0.5264 -1.6983 -1.3835
   51MOL0     H 7036   6.044   2.660  10.737  1.1644  0.3207  0.3751
   51MOL0     H 7037   5.984   2.491  10.778 -0.7770  0.4524  0.9384
   51MOL0     H 7038   5.996   2.619  10.897  0.9742  0.5426 -0.4250
   52MOL0     O 7039   3.965  11.189   8.230 -0.6231  0.0877  0.4275
   52MOL0     C 7040   3.911  11.141   8.132  0.1136  0.0319  0.1011
   52MOL0     O 7041   3.916  11.013   8.089  0.4806 -0.5107 -0.4049
   52MOL0     C 7042   4.027  10.934   8.113 -0.0613  0.4881  0.4213
   52MOL0     C 7043   4.081  10.915   8.243  0.3532 -0.2782 -0.5707
   52MOL0     C 7044   4.199  10.843   8.260 -1.0177 -0.1626  0.2239
   52MOL0     C 7045   4.262  10.775   8.146 -0.9141  0.2801  0.2800
   52MOL0     O 7046   4.376  10.691   8.159  0.5310  0.3925  0.0887
   52MOL0     C 7047   4.412  10.631   8.283 -0.7791  0.2154 -0.6231
   52MOL0     C 7048   4.557  10.680   8.322 -0.6636  0.0182  0.0897
   52MOL0     C 7049   4.670  10.622   8.230 -0.1249 -0.3440 -0.9116
   52MOL0     C 7050   4.804  10.617   8.308  0.5892  0.1063 -0.2070
   52MOL0     C 7051   4.826  10.484   8.368 -0.3931 -0.2283  0.1676
   52MOL0     C 7052   4.947  10.479   8.458  0.5534 -0.1016 -0.2912
   52MOL0     C 7053   5.074  10.543   8.413  0.1769 -0.2401  0.1246
   52MOL0     C 7054   5.178  10.536   8.516  0.4276 -0.0916 -0.1097
   52MOL0     N 7055   5.289  10.626   8.493 -0.5902 -0.2442  0.0697
   52MOL0     C 7056   5.299  10.760   8.533  1.1197  0.3198  0.5766
   52MOL0     C 7057   5.428  10.793   8.508  0.3024 -0.3177  0.2869
   52MOL0     C 7058   5.504  10.914   8.553 -0.4580  0.0510 -0.2493
   52MOL0     C 7059   5.645  10.912   8.489 -0.1357  0.0958  0.1464
   52MOL0     C 7060   5.647  10.962   8.340 -0.4839  0.1282 -0.3131
   52MOL0     C 7061   5.660  11.112   8.320  0.1105 -0.0845 -0.1406
   52MOL0     O 7062   5.767  11.168   8.399  0.0054  0.1529  0.2915
   52MOL0     C 7063   5.889  11.183   8.333  0.1709  0.7532 -0.8783
   52MOL0     C 7064   5.944  11.302   8.302  0.6353 -0.3927 -0.0946
   52MOL0     C 7065   6.062  11.313   8.232  0.4325  0.0151 -1.0062
   52MOL0     C 7066   6.104  11.452   8.185  0.7644 -0.1633 -0.2433
   52MOL0     C 7067   6.141  11.198   8.211 -0.7476 -0.1361 -1.2096
   52MOL0     C 7068   6.273  11.200   8.147 -0.3069 -0.1789  0.3874
   52MOL0     O 7069   6.294  11.089   8.065  0.2701  0.2277  0.6980
   52MOL0     C 7070   6.411  11.086   7.991  0.3991 -0.3864  0.1840
   52MOL0     C 7071   6.445  11.192   7.911 -0.2395  0.0398 -1.0236
   52MOL0     C 7072   6.565  11.186   7.846 -0.0348  0.0147 -0.7118
   52MOL0     C 7073   6.654  11.082   7.849  0.9557  0.1336  0.5654
   52MOL0     O 7074   6.761  11.075   7.770  0.1659 -0.2112 -0.1528
   52MOL0     C 7075   6.898  11.083   7.823  0.5614  0.5857  0.4636
   52MOL0     C 7076   6.981  10.983   7.753 -0.4334 -0.2073  0.6751
   52MOL0     C 7077   7.136  10.988   7.783 -0.1332  0.0342  0.4329
   52MOL0     C 7078   7.207  10.889   7.683 -0.0314  0.0870  0.6202
   52MOL0     C 7079   7.343  10.829   7.728  0.3738 -0.6595  0.3234
   52MOL0     C 7080   7.453  10.927   7.758 -0.0157  0.1353  0.3924
   52MOL0     C 7081   7.476  11.027   7.643 -0.7409  0.3325  0.6157
   52MOL0     C 7082   7.599  11.115   7.646  0.0513  0.2607  0.1570
   52MOL0    Cl 7083   7.742  11.016   7.666 -0.2890  0.2708  0.1806
   52MOL0     C 7084   6.617  10.973   7.928  0.2371  0.4779 -0.0043
   52MOL0     C 7085   6.493  10.971   7.990  0.3325  1.6069  0.1509
   52MOL0     O 7086   6.359  11.283   8.171 -0.0864  0.1970  0.0576
   52MOL0     C 7087   6.094  11.073   8.262 -0.6250  0.0560 -0.1834
   52MOL0     C 7088   5.961  11.067   8.315 -0.0862 -0.0054  0.4892
   52MOL0     N 7089   5.486  10.694   8.431  0.4640  0.6122  0.0009
   52MOL0     N 7090   5.403  10.593   8.426 -0.3519  0.3609 -0.0144
   52MOL0     C 7091   4.207  10.791   8.020 -0.8109  0.5918  0.3697
   52MOL0     C 7092   4.092  10.862   8.005  0.7337 -0.1329  1.0772
   52MOL0     C 7093   3.816  11.245   8.059 -0.2529 -0.2462 -0.2391
   52MOL0     C 7094   3.707  11.195   7.989  1.0008 -0.0438 -0.6937
   52MOL0     C 7095   3.626  11.266   7.896 -0.2141  0.6565 -0.7744
   52MOL0     C 7096   3.664  11.398   7.877  0.1587  0.1274  0.0297
   52MOL0     O 7097   3.591  11.466   7.792 -0.0722 -0.2522  0.1339
   52MOL0     C 7098   3.533  11.591   7.823 -0.0093  0.1072  0.1940
   52MOL0     C 7099   3.587  11.713   7.748 -0.3761  0.7264 -0.3929
   52MOL0     C 7100   3.587  11.684   7.602  0.1208 -0.1797  0.2354
   52MOL0     C 7101   3.602  11.810   7.519 -0.6824 -1.1510  0.7220
   52MOL0     C 7102   3.726  11.868   7.543 -1.0442  0.2184  0.9097
   52MOL0     C 7103   3.839  11.898   7.531  0.2014 -0.9618 -0.5854
   52MOL0     C 7104   3.773  11.455   7.944  0.1217 -0.5351  0.8267
   52MOL0     C 7105   3.848  11.383   8.043  0.4619 -0.4569 -0.3150
   52MOL0     C 7106   3.973  11.443   8.095 -0.1694 -0.1937  0.4602
   52MOL0     H 7107   4.044  10.970   8.328  3.3767  2.6534 -0.9585
   52MOL0     H 7108   4.247  10.837   8.357 -3.8067 -2.4752  1.5918
   52MOL0     H 7109   4.406  10.524   8.259 -1.6390  0.7270 -2.9736
   52MOL0     H 7110   4.346  10.667   8.362  1.7925 -1.6086  2.6057
   52MOL0     H 7111   4.573  10.788   8.326  1.9680 -0.1911 -1.9634
   52MOL0     H 7112   4.577  10.637   8.421  0.5202 -0.0110 -0.1398
   52MOL0     H 7113   4.643  10.526   8.186 -0.4204 -0.7147  0.0654
   52MOL0     H 7114   4.682  10.696   8.150  4.2629  0.5319  0.2402
   52MOL0     H 7115   4.891  10.635   8.245 -0.3574  1.5333 -1.1720
   52MOL0     H 7116   4.809  10.696   8.383  2.6845  1.0439 -1.2745
   52MOL0     H 7117   4.846  10.417   8.285 -0.1030 -1.0534  0.8837
   52MOL0     H 7118   4.731  10.450   8.409 -1.5760  2.6948  0.0661
   52MOL0     H 7119   4.913  10.542   8.541 -0.7855  0.7684 -1.4675
   52MOL0     H 7120   4.963  10.374   8.487 -0.9867 -0.8461 -1.9487
   52MOL0     H 7121   5.066  10.648   8.383 -2.7388 -0.5186 -0.3869
   52MOL0     H 7122   5.106  10.490   8.323 -0.3850 -1.3065  0.5342
   52MOL0     H 7123   5.126  10.569   8.607 -2.6294  0.1961 -1.8373
   52MOL0     H 7124   5.212  10.432   8.526 -2.0369 -0.9821 -0.3179
   52MOL0     H 7125   5.222  10.812   8.591 -0.8486  0.5598 -2.0580
   52MOL0     H 7126   5.511  10.916   8.663  0.5272 -1.2108 -0.2645
   52MOL0     H 7127   5.452  11.006   8.524  2.4132  2.1858  0.8600
   52MOL0     H 7128   5.719  10.971   8.544  2.1472  0.7084 -3.2398
   52MOL0     H 7129   5.687  10.811   8.487 -2.1737 -0.8692  1.8733
   52MOL0     H 7130   5.736  10.910   8.303 -1.5377 -0.0016 -2.8623
   52MOL0     H 7131   5.560  10.920   8.288  0.7478 -1.4238 -1.2238
   52MOL0     H 7132   5.668  11.131   8.212 -2.9845 -1.0833 -0.6678
   52MOL0     H 7133   5.565  11.159   8.348 -0.5531 -2.4652  1.9412
   52MOL0     H 7134   5.880  11.388   8.316 -1.4329 -1.9321  0.4176
   52MOL0     H 7135   6.026  11.521   8.217 -1.3212 -2.2592 -0.5553
   52MOL0     H 7136   6.119  11.459   8.077  0.1590 -0.6111 -0.3568
   52MOL0     H 7137   6.199  11.481   8.231 -0.0137 -1.8865  2.7391
   52MOL0     H 7138   6.390  11.286   7.911 -1.0495 -0.3897 -2.7249
   52MOL0     H 7139   6.600  11.274   7.792 -0.9339  0.7192 -0.1847
   52MOL0     H 7140   6.937  11.185   7.813  0.2445  0.5291 -2.1541
   52MOL0     H 7141   6.895  11.059   7.930  1.6118  1.0022  0.5966
   52MOL0     H 7142   6.943  10.889   7.795  1.8228 -1.9679 -0.9355
   52MOL0     H 7143   6.954  10.994   7.648  0.3922 -0.1262  0.4603
   52MOL0     H 7144   7.146  10.953   7.886  3.4864 -0.8910 -0.1286
   52MOL0     H 7145   7.183  11.086   7.775 -1.4172  0.7740  1.4092
   52MOL0     H 7146   7.230  10.943   7.590  0.7780  2.1880  1.9725
   52MOL0     H 7147   7.147  10.799   7.665  0.4530  0.1403 -1.6114
   52MOL0     H 7148   7.322  10.765   7.814 -2.8365  1.4831  1.3040
   52MOL0     H 7149   7.380  10.778   7.638  3.2557  4.0044 -1.5744
   52MOL0     H 7150   7.545  10.875   7.788  0.5393  0.9070  0.0532
   52MOL0     H 7151   7.411  10.988   7.839  0.0200  0.3394  0.2578
   52MOL0     H 7152   7.392  11.096   7.632  0.5743  1.6847 -1.7531
   52MOL0     H 7153   7.499  10.976   7.549  1.7587 -0.9352  1.8272
   52MOL0     H 7154   7.590  11.198   7.717  2.2239 -0.4697  1.3927
   52MOL0     H 7155   7.609  11.159   7.547 -0.4382  2.1067  0.8812
   52MOL0     H 7156   6.685  10.888   7.923 -0.5510 -0.1753  0.3213
   52MOL0     H 7157   6.477  10.889   8.059  1.8022  1.0099 -0.1783
   52MOL0     H 7158   6.143  10.976   8.253  0.2449  0.1157  2.8072
   52MOL0     H 7159   5.928  10.967   8.341  0.9720  0.2072  2.9092
   52MOL0     H 7160   4.257  10.740   7.938 -1.1475 -0.2996  0.7037
   52MOL0     H 7161   4.044  10.870   7.908 -2.3121 -3.2492  2.1324
   52MOL0     H 7162   3.678  11.093   8.013  1.5049  0.0993  0.6017
   52MOL0     H 7163   3.551  11.208   7.845 -2.6290 -0.9702  4.0281
   52MOL0     H 7164   3.429  11.580   7.793  0.4202 -2.7174 -0.4785
   52MOL0     H 7165   3.539  11.607   7.931  1.3220 -1.6080  0.4120
   52MOL0     H 7166   3.687  11.746   7.779 -0.3475  0.3165 -0.0535
   52MOL0     H 7167   3.519  11.798   7.763 -1.4803 -0.3293  0.6892
   52MOL0     H 7168   3.670  11.619   7.575 -1.6811 -2.3797 -0.3085
   52MOL0     H 7169   3.498  11.626   7.576  1.3892 -2.5682  0.9582
   52MOL0     H 7170   3.522  11.878   7.550 -0.6301  0.6063 -2.5475
   52MOL0     H 7171   3.597  11.802   7.410  1.8272  3.9121 -0.0378
   52MOL0     H 7172   3.942  11.927   7.525 -0.8061  3.7323  0.6425
   52MOL0     H 7173   3.793  11.559   7.918 -2.6317 -0.5803 -2.0956
   52MOL0     H 7174   3.981  11.451   8.203  2.6052  2.5064  0.1783
   52MOL0     H 7175   4.055  11.377   8.064 -0.1560 -0.7359  1.6050
   52MOL0     H 7176   4.003  11.538   8.050  1.8233 -0.7987  0.4301
   53MOL0     O 7177   6.780   5.585   8.316 -0.1135  0.2262 -0.4721
   53MOL0     C 7178   6.847   5.651   8.236 -0.2342 -0.5127 -0.0705
   53MOL0     O 7179   6.961   5.714   8.271  0.4521  0.1545  0.6150
   53MOL0     C 7180   6.977   5.744   8.406  0.4538 -0.5466 -0.1419
   53MOL0     C 7181   7.018   5.642   8.486  0.0573 -0.9663  0.1114
   53MOL0     C 7182   7.028   5.667   8.630 -0.0484  0.6513 -0.7611
   53MOL0     C 7183   7.027   5.796   8.678 -0.1588  0.5567  1.1773
   53MOL0     O 7184   7.046   5.814   8.813 -0.5184 -0.5509 -0.8449
   53MOL0     C 7185   6.946   5.886   8.878 -0.8443  0.4926 -0.6518
   53MOL0     C 7186   6.993   5.902   9.023  0.6053 -0.0526 -0.5372
   53MOL0     C 7187   6.896   6.002   9.093 -0.7218  0.2829 -0.3737
   53MOL0     C 7188   6.919   5.996   9.243  0.0321  0.3970  0.3458
   53MOL0     C 7189   6.828   6.103   9.308  0.3251  0.6409 -0.1675
   53MOL0     C 7190   6.681   6.059   9.300 -0.4780 -0.7350  0.0316
   53MOL0     C 7191   6.604   6.129   9.417  0.0176 -0.1573 -0.0747
   53MOL0     C 7192   6.588   6.034   9.537  0.2161  0.0125  0.2897
   53MOL0     N 7193   6.511   5.906   9.525  0.4064 -0.3795 -0.9043
   53MOL0     C 7194   6.381   5.909   9.489 -0.3180  0.1247  0.5499
   53MOL0     C 7195   6.337   5.781   9.502 -0.1956  0.7361 -0.0104
   53MOL0     C 7196   6.189   5.738   9.503  1.3805 -0.3960 -0.6861
   53MOL0     C 7197   6.192   5.591   9.553 -0.5440 -0.0268  0.2800
   53MOL0     C 7198   6.054   5.503   9.550  0.6295 -0.1115  1.1668
   53MOL0     C 7199   5.955   5.565   9.651 -0.5796  0.1681 -0.3964
   53MOL0     O 7200   6.003   5.543   9.784 -0.8245  0.4482  0.2269
   53MOL0     C 7201   5.931   5.609   9.881 -0.8431 -0.6024  0.1994
   53MOL0     C 7202   5.914   5.748   9.864  0.0656 -0.0231 -0.5940
   53MOL0     C 7203   5.846   5.819   9.960  0.3181 -0.6775  1.0782
   53MOL0     C 7204   5.817   5.968   9.930 -0.0296 -0.1572  0.4326
   53MOL0     C 7205   5.791   5.750  10.067  0.7641 -1.1840  0.5577
   53MOL0     C 7206   5.697   5.827  10.149  0.0917  0.5086  0.0859
   53MOL0     O 7207   5.583   5.869  10.098  0.6041  0.1538  0.5496
   53MOL0     C 7208   5.528   5.987  10.138 -0.0588 -0.8585  0.6830
   53MOL0     C 7209   5.427   6.044  10.049 -0.7052  0.3855 -0.0238
   53MOL0     C 7210   5.361   6.164  10.082 -0.3782 -0.6942  0.5598
   53MOL0     C 7211   5.398   6.245  10.184  0.2081 -0.3195  0.3708
   53MOL0     O 7212   5.330   6.359  10.215  0.5273  0.2642 -0.0337
   53MOL0     C 7213   5.185   6.367  10.194 -0.3372 -0.1758  0.4735
   53MOL0     C 7214   5.133   6.504  10.246  0.7722  0.9600  0.3063
   53MOL0     C 7215   4.977   6.511  10.234  0.0175  0.6523 -0.7494
   53MOL0     C 7216   4.906   6.430  10.346  0.0229 -0.1511 -0.1361
   53MOL0     C 7217   4.756   6.441  10.363  0.0942  0.0437  1.2575
   53MOL0     C 7218   4.714   6.335  10.467  0.3316 -0.4617  0.0909
   53MOL0     C 7219   4.560   6.352  10.504  0.6265  1.0969 -0.4608
   53MOL0     C 7220   4.515   6.231  10.595  0.9578  0.0433  0.0362
   53MOL0    Cl 7221   4.337   6.239  10.629 -0.4649  0.0808 -0.2754
   53MOL0     C 7222   5.503   6.200  10.262  0.3842  0.2074  0.0462
   53MOL0     C 7223   5.563   6.070  10.239 -0.1084 -0.2503  0.1758
   53MOL0     O 7224   5.726   5.813  10.267  0.9374 -0.6286  0.1801
   53MOL0     C 7225   5.814   5.615  10.088 -0.3626 -0.1205 -0.0734
   53MOL0     C 7226   5.884   5.538   9.995 -0.3823 -0.1670  0.1317
   53MOL0     N 7227   6.441   5.700   9.536  0.4409  0.4616 -0.1293
   53MOL0     N 7228   6.552   5.776   9.557 -0.5604 -0.1736  0.0341
   53MOL0     C 7229   6.999   5.895   8.586  0.2058 -0.1715 -0.4244
   53MOL0     C 7230   6.960   5.876   8.454  0.3736  0.5733  0.6346
   53MOL0     C 7231   6.837   5.619   8.092  0.2052  0.4642  0.2940
   53MOL0     C 7232   6.943   5.677   8.010 -0.4761  0.3643 -0.6050
   53MOL0     C 7233   6.949   5.652   7.874 -0.4577 -0.3580 -0.0404
   53MOL0     C 7234   6.857   5.573   7.815  0.3179  0.4150 -0.5239
   53MOL0     O 7235   6.886   5.544   7.682  0.3085  0.0022 -0.2450
   53MOL0     C 7236   6.831   5.428   7.625 -0.0613 -0.1544  0.4444
   53MOL0     C 7237   6.871   5.412   7.482 -0.4474 -0.5556 -0.0608
   53MOL0     C 7238   7.022   5.380   7.468  0.4248 -0.1037  0.1475
   53MOL0     C 7239   7.056   5.231   7.460 -0.3145 -0.4243  0.7750
   53MOL0     C 7240   7.018   5.152   7.575 -0.7732  0.2838  0.4723
   53MOL0     C 7241   6.992   5.081   7.669  0.7365  0.0827 -0.6348
   53MOL0     C 7242   6.760   5.506   7.895 -0.1645 -0.0351 -0.5455
   53MOL0     C 7243   6.749   5.524   8.028  1.2211  0.5629  0.3001
   53MOL0     C 7244   6.638   5.449   8.101  0.5344  0.7859 -0.0168
   53MOL0     H 7245   7.036   5.548   8.436  2.8016 -0.0673 -0.7720
   53MOL0     H 7246   7.045   5.593   8.707 -2.1771  2.1995  1.3088
   53MOL0     H 7247   6.855   5.827   8.875  0.4343 -1.5438 -0.9533
   53MOL0     H 7248   6.931   5.983   8.830  2.5728  1.5012  0.0425
   53MOL0     H 7249   6.987   5.805   9.072  2.3698 -0.1249 -0.3926
   53MOL0     H 7250   7.097   5.935   9.034 -0.4469  3.2707  0.9324
   53MOL0     H 7251   6.907   6.107   9.065 -1.7622  0.5913  0.3232
   53MOL0     H 7252   6.795   5.970   9.068 -0.4765 -2.0290  1.3102
   53MOL0     H 7253   6.894   5.907   9.301 -1.1933 -0.0681 -0.8449
   53MOL0     H 7254   7.024   6.021   9.261 -0.6492  2.2523  2.1683
   53MOL0     H 7255   6.847   6.205   9.274 -1.6741  1.0972 -0.0406
   53MOL0     H 7256   6.851   6.105   9.415 -0.1490  0.2144 -0.0512
   53MOL0     H 7257   6.641   6.100   9.207  2.4646  1.8839 -0.2591
   53MOL0     H 7258   6.671   5.951   9.306  0.2938 -0.8415 -0.4440
   53MOL0     H 7259   6.505   6.160   9.382 -1.7085 -2.6646  2.1616
   53MOL0     H 7260   6.656   6.219   9.448  1.4779 -1.3179  0.9825
   53MOL0     H 7261   6.691   6.012   9.567  0.6743 -0.9905 -1.8622
   53MOL0     H 7262   6.537   6.094   9.613 -2.2699 -0.2242 -1.0927
   53MOL0     H 7263   6.318   5.996   9.474 -0.6201 -0.4855 -2.3155
   53MOL0     H 7264   6.146   5.747   9.403  0.3850 -1.3133 -0.3639
   53MOL0     H 7265   6.129   5.792   9.577 -0.7628 -1.9948 -1.1444
   53MOL0     H 7266   6.257   5.542   9.480 -0.1124 -1.0431  1.3250
   53MOL0     H 7267   6.248   5.570   9.644  0.4610 -1.8557 -0.6970
   53MOL0     H 7268   6.009   5.488   9.452  0.2941 -0.2602  1.3422
   53MOL0     H 7269   6.083   5.401   9.578 -1.6968 -1.8504 -2.1177
   53MOL0     H 7270   5.947   5.672   9.630  1.3308  1.1955  3.2093
   53MOL0     H 7271   5.853   5.527   9.639 -0.5739  0.2124 -0.5943
   53MOL0     H 7272   5.955   5.811   9.785  1.4725  3.7489  2.7502
   53MOL0     H 7273   5.879   6.004   9.848 -2.7138 -0.3750 -1.8650
   53MOL0     H 7274   5.846   6.020  10.022  1.3989 -0.7314  0.3229
   53MOL0     H 7275   5.711   5.991   9.912 -0.1891 -1.0357  0.2338
   53MOL0     H 7276   5.388   5.987   9.965  2.4565  0.5075 -1.6978
   53MOL0     H 7277   5.272   6.180  10.022  0.9026  1.9835 -0.7609
   53MOL0     H 7278   5.164   6.351  10.087 -3.0767 -1.1712  1.0919
   53MOL0     H 7279   5.139   6.276  10.232 -2.8106  0.7635 -0.1132
   53MOL0     H 7280   5.168   6.505  10.349  4.1363 -3.4725 -0.5032
   53MOL0     H 7281   5.175   6.589  10.191  0.8812  1.3577  1.0026
   53MOL0     H 7282   4.933   6.468  10.144  2.2855  0.8595 -2.0380
   53MOL0     H 7283   4.944   6.615  10.239  0.7093  0.8192  2.6507
   53MOL0     H 7284   4.942   6.487  10.432 -1.9636  3.5793 -1.5837
   53MOL0     H 7285   4.941   6.328  10.366 -1.0737 -0.0383  2.9555
   53MOL0     H 7286   4.745   6.544  10.398  0.7519 -0.0416  1.7409
   53MOL0     H 7287   4.699   6.440  10.270  1.0636  0.7982  0.6324
   53MOL0     H 7288   4.766   6.345  10.563 -0.5207 -0.1785  0.5351
   53MOL0     H 7289   4.728   6.234  10.426 -2.7298 -0.0768 -2.3275
   53MOL0     H 7290   4.505   6.358  10.410  0.0317  1.3992 -0.1037
   53MOL0     H 7291   4.533   6.446  10.554 -0.0520  1.3829 -1.3451
   53MOL0     H 7292   4.575   6.230  10.686  1.0426 -1.5607 -0.0033
   53MOL0     H 7293   4.543   6.141  10.539 -1.1007 -1.2553  0.9711
   53MOL0     H 7294   5.535   6.264  10.343 -0.1101 -0.5237  0.8445
   53MOL0     H 7295   5.643   6.038  10.305  0.9294 -0.5128 -1.1606
   53MOL0     H 7296   5.761   5.577  10.175  0.3620  2.2488  1.4952
   53MOL0     H 7297   5.884   5.431  10.016 -1.7744  0.2423  2.7456
   53MOL0     H 7298   7.010   5.997   8.624 -1.0386 -1.2104  3.1277
   53MOL0     H 7299   6.930   5.950   8.380  2.2418  0.0098 -0.7589
   53MOL0     H 7300   7.014   5.743   8.058 -0.2799  0.2656 -0.7592
   53MOL0     H 7301   7.025   5.708   7.820 -1.1066  2.7407  2.0112
   53MOL0     H 7302   6.851   5.341   7.688  1.9452  0.2053  0.3832
   53MOL0     H 7303   6.724   5.449   7.629 -0.2628 -1.0017 -0.2978
   53MOL0     H 7304   6.841   5.494   7.416 -1.5700 -1.3941 -0.6137
   53MOL0     H 7305   6.822   5.323   7.442 -1.4549  0.0184 -0.1281
   53MOL0     H 7306   7.045   5.438   7.378 -2.2244 -1.6221 -1.6279
   53MOL0     H 7307   7.078   5.424   7.551 -1.5009  2.3961  0.2164
   53MOL0     H 7308   7.165   5.223   7.461  0.0692  2.2098 -2.3290
   53MOL0     H 7309   7.009   5.186   7.371 -4.7513 -2.2551  3.6814
   53MOL0     H 7310   6.982   5.013   7.752 -2.3472  0.9270 -0.1956
   53MOL0     H 7311   6.690   5.431   7.858  0.6619 -2.7822  2.8616
   53MOL0     H 7312   6.681   5.353   8.129 -0.0409  1.0827  2.1219
   53MOL0     H 7313   6.610   5.495   8.196  1.0346  0.5982  0.2275
   53MOL0     H 7314   6.547   5.435   8.043  0.5207 -0.3417  0.2700
   54MOL0     O 7315   4.346   4.351   2.013 -0.1721 -0.6490  0.0716
   54MOL0     C 7316   4.404   4.449   2.066  0.7123 -0.2629  0.4978
   54MOL0     O 7317   4.340   4.563   2.114 -0.2404  0.4700  0.6746
   54MOL0     C 7318   4.213   4.579   2.073 -0.0442  0.5616  0.0247
   54MOL0     C 7319   4.179   4.637   1.951  0.9713 -0.4600 -0.1592
   54MOL0     C 7320   4.047   4.659   1.916  0.0365  0.4178 -0.6121
   54MOL0     C 7321   3.949   4.629   2.015  0.5187 -0.9220  1.6705
   54MOL0     O 7322   3.822   4.673   1.978  0.2841  0.6761  0.2096
   54MOL0     C 7323   3.720   4.567   1.963 -0.7673  0.1401 -0.3976
   54MOL0     C 7324   3.579   4.627   1.908  0.3637  1.3283 -0.4887
   54MOL0     C 7325   3.483   4.519   1.846  0.2296  0.4723  1.3462
   54MOL0     C 7326   3.357   4.590   1.794  0.7117 -0.1634 -0.9711
   54MOL0     C 7327   3.262   4.502   1.706  0.1912 -0.7605  0.1878
   54MOL0     C 7328   3.182   4.581   1.607  0.7116  0.6539 -0.0719
   54MOL0     C 7329   3.068   4.661   1.666  0.5338 -0.2188 -0.7465
   54MOL0     C 7330   2.968   4.602   1.761  0.5395  0.1891 -0.6162
   54MOL0     N 7331   2.908   4.479   1.699 -0.6691  0.2216 -1.0061
   54MOL0     C 7332   2.928   4.346   1.719  0.3569 -0.2910 -1.4204
   54MOL0     C 7333   2.832   4.294   1.637  0.0508  0.4103  0.3546
   54MOL0     C 7334   2.816   4.144   1.605 -0.6004  0.1117 -0.1404
   54MOL0     C 7335   2.775   4.105   1.463 -0.0410 -0.2654  0.2988
   54MOL0     C 7336   2.896   4.111   1.359 -0.3814  0.5476 -0.3319
   54MOL0     C 7337   2.869   4.198   1.240  0.0683 -0.1374  1.0592
   54MOL0     O 7338   2.992   4.221   1.165 -0.4198  0.8633  0.1308
   54MOL0     C 7339   3.062   4.340   1.187 -0.2060 -0.9343 -0.1524
   54MOL0     C 7340   3.210   4.329   1.197 -0.3422  0.5883  0.0161
   54MOL0     C 7341   3.286   4.446   1.207  0.1032  0.2484  0.7349
   54MOL0     C 7342   3.439   4.420   1.224 -0.3342 -0.0958 -0.0422
   54MOL0     C 7343   3.229   4.574   1.219  0.1470 -0.3175 -0.7888
   54MOL0     C 7344   3.296   4.707   1.228  0.4744 -0.5718 -0.1031
   54MOL0     O 7345   3.217   4.812   1.297 -0.3285  0.7711 -0.2532
   54MOL0     C 7346   3.264   4.932   1.342 -0.3098 -0.0135 -0.7837
   54MOL0     C 7347   3.374   5.003   1.285  1.1868  0.1219 -0.4334
   54MOL0     C 7348   3.430   5.126   1.331 -0.1138  0.0520  0.1774
   54MOL0     C 7349   3.366   5.195   1.438 -0.5216 -0.0563 -0.7270
   54MOL0     O 7350   3.417   5.315   1.480  0.0730  0.2877 -0.4818
   54MOL0     C 7351   3.341   5.384   1.580 -0.5347  0.2963 -0.1240
   54MOL0     C 7352   3.409   5.525   1.606 -0.4599  0.1425 -0.8373
   54MOL0     C 7353   3.462   5.592   1.486 -0.6638 -0.0375 -0.4824
   54MOL0     C 7354   3.377   5.616   1.362 -0.3290 -1.0738 -0.3150
   54MOL0     C 7355   3.453   5.673   1.235 -0.1673  0.7069  0.0471
   54MOL0     C 7356   3.337   5.721   1.147 -0.6592 -0.2934  0.6105
   54MOL0     C 7357   3.414   5.778   1.021 -0.0619  1.3821  0.3510
   54MOL0     C 7358   3.435   5.931   1.027  0.2195 -0.4712 -1.2390
   54MOL0    Cl 7359   3.530   5.973   0.883 -0.0602 -0.0429  0.1974
   54MOL0     C 7360   3.248   5.131   1.488 -0.0252  1.0395 -0.3943
   54MOL0     C 7361   3.198   5.002   1.448 -0.3023 -0.1024  0.5737
   54MOL0     O 7362   3.397   4.725   1.166 -0.0825  0.0372  0.5752
   54MOL0     C 7363   3.083   4.577   1.220 -0.0368 -0.5053 -0.0672
   54MOL0     C 7364   2.999   4.463   1.209 -0.4892 -0.1521 -0.0239
   54MOL0     N 7365   2.772   4.390   1.556  1.0538 -0.3155 -0.0240
   54MOL0     N 7366   2.817   4.499   1.604  0.0202  0.4690 -0.2112
   54MOL0     C 7367   3.972   4.578   2.137  0.2152  0.9024 -0.3718
   54MOL0     C 7368   4.106   4.554   2.168 -0.0049  1.1239 -0.1830
   54MOL0     C 7369   4.558   4.456   2.071 -0.4328 -0.5906  0.2760
   54MOL0     C 7370   4.618   4.555   2.148  0.6492 -0.3504 -0.6014
   54MOL0     C 7371   4.758   4.564   2.161 -0.0103 -0.2791  0.2473
   54MOL0     C 7372   4.840   4.464   2.102  0.1060 -0.1591  0.7876
   54MOL0     O 7373   4.978   4.476   2.108 -0.0974  0.5337 -0.3459
   54MOL0     C 7374   5.055   4.358   2.130  0.2208  0.1233 -0.1672
   54MOL0     C 7375   5.153   4.366   2.242 -0.2139 -0.0501  0.2350
   54MOL0     C 7376   5.261   4.458   2.205 -0.1499 -0.4549 -0.1881
   54MOL0     C 7377   5.375   4.449   2.310  0.4530  1.3059  0.1861
   54MOL0     C 7378   5.466   4.336   2.264 -0.8959 -0.0935 -0.3497
   54MOL0     C 7379   5.542   4.258   2.221  0.3332  0.5229  0.7867
   54MOL0     C 7380   4.780   4.360   2.021 -0.3034 -0.0943 -0.4252
   54MOL0     C 7381   4.642   4.352   2.012  1.1199 -0.7863 -0.4264
   54MOL0     C 7382   4.592   4.253   1.913 -0.0608 -0.0211 -1.1740
   54MOL0     H 7383   4.247   4.690   1.885  1.7510  2.3117  2.6098
   54MOL0     H 7384   4.029   4.710   1.822  0.2798 -0.6835 -1.2693
   54MOL0     H 7385   3.703   4.506   2.052  1.3318  2.6755  1.9175
   54MOL0     H 7386   3.764   4.503   1.886  1.5337  1.6570 -0.4353
   54MOL0     H 7387   3.524   4.669   1.993 -2.0982 -1.1324 -0.7283
   54MOL0     H 7388   3.598   4.701   1.830 -0.6163  1.6709 -0.4217
   54MOL0     H 7389   3.533   4.486   1.754  0.1538 -0.1368  1.5166
   54MOL0     H 7390   3.458   4.438   1.915 -2.3577  1.1201  1.2705
   54MOL0     H 7391   3.304   4.624   1.883  1.6926  0.3370 -0.5634
   54MOL0     H 7392   3.374   4.685   1.742 -1.7142  1.5413  1.1045
   54MOL0     H 7393   3.210   4.429   1.769  0.0109 -0.0929  0.8299
   54MOL0     H 7394   3.334   4.449   1.643  2.8428 -0.0030  2.4090
   54MOL0     H 7395   3.249   4.645   1.549 -0.9962  0.9204 -1.8871
   54MOL0     H 7396   3.137   4.518   1.530  0.4318 -1.3074  1.6018
   54MOL0     H 7397   3.010   4.705   1.585 -1.5466  2.2206  1.8285
   54MOL0     H 7398   3.100   4.745   1.730 -0.9011  0.6112 -1.0590
   54MOL0     H 7399   3.026   4.566   1.847 -1.5040 -0.7544  0.4534
   54MOL0     H 7400   2.886   4.670   1.786  2.1650  2.3126 -0.7369
   54MOL0     H 7401   2.992   4.289   1.786  0.3779  0.6820 -0.5736
   54MOL0     H 7402   2.739   4.115   1.677  0.7468  1.7316  2.1010
   54MOL0     H 7403   2.911   4.097   1.635  0.5702  0.5657 -2.8742
   54MOL0     H 7404   2.748   4.003   1.492  1.0047 -0.0116  2.3334
   54MOL0     H 7405   2.689   4.161   1.426  0.6836 -1.2747 -3.2197
   54MOL0     H 7406   2.988   4.155   1.400  1.4846 -2.8341 -0.5074
   54MOL0     H 7407   2.919   4.010   1.323  1.3479  1.2286 -1.2678
   54MOL0     H 7408   2.796   4.145   1.177  3.8717 -3.4214 -1.1028
   54MOL0     H 7409   2.820   4.289   1.275 -0.4472 -0.5144  1.3223
   54MOL0     H 7410   3.248   4.229   1.179 -0.2754  0.6555 -0.2238
   54MOL0     H 7411   3.493   4.495   1.166 -1.8771  1.7397  0.7905
   54MOL0     H 7412   3.464   4.317   1.196  3.1989  0.5005  0.4893
   54MOL0     H 7413   3.474   4.448   1.324 -1.2236  4.8807 -0.8790
   54MOL0     H 7414   3.424   4.950   1.204 -2.0177  0.0301 -2.5125
   54MOL0     H 7415   3.514   5.171   1.279  0.6410 -0.5296  0.8872
   54MOL0     H 7416   3.240   5.397   1.541  0.1234 -0.4393 -2.2180
   54MOL0     H 7417   3.340   5.326   1.672 -0.8122 -1.6035 -1.2590
   54MOL0     H 7418   3.334   5.588   1.654 -0.2680 -1.7395  2.1658
   54MOL0     H 7419   3.485   5.508   1.683 -0.7480 -1.0239 -0.7873
   54MOL0     H 7420   3.549   5.531   1.461 -1.7870 -1.5911 -0.7187
   54MOL0     H 7421   3.502   5.687   1.522  3.2315 -1.7883  0.2708
   54MOL0     H 7422   3.306   5.696   1.389  2.4970  1.4253  0.2361
   54MOL0     H 7423   3.317   5.528   1.340 -1.4884  0.1200 -2.2266
   54MOL0     H 7424   3.521   5.757   1.255  0.5374  0.1705 -0.0373
   54MOL0     H 7425   3.504   5.586   1.193 -1.4657 -0.6035  1.1065
   54MOL0     H 7426   3.273   5.797   1.193  0.1403  1.1983 -0.6371
   54MOL0     H 7427   3.274   5.635   1.126 -0.4839 -0.1898 -0.4113
   54MOL0     H 7428   3.367   5.746   0.928  0.6139  1.6401 -0.0898
   54MOL0     H 7429   3.508   5.724   1.005  0.1653  1.9489 -0.2631
   54MOL0     H 7430   3.492   5.960   1.115 -0.0368 -2.0431 -0.5350
   54MOL0     H 7431   3.343   5.991   1.023  0.5118  0.2041  0.8049
   54MOL0     H 7432   3.183   5.178   1.561  1.8542  1.5745  1.0154
   54MOL0     H 7433   3.113   4.958   1.499 -0.0191 -0.5438  0.6718
   54MOL0     H 7434   3.033   4.671   1.239  3.7008  1.3074  1.9537
   54MOL0     H 7435   2.891   4.472   1.215 -0.4694  0.1692 -0.1235
   54MOL0     H 7436   3.893   4.550   2.206 -1.9652 -2.2754 -3.7740
   54MOL0     H 7437   4.115   4.518   2.270 -0.7437 -1.0367 -0.8252
   54MOL0     H 7438   4.556   4.627   2.199 -0.0548 -1.6004  0.3865
   54MOL0     H 7439   4.803   4.652   2.204 -2.0612  1.8226 -1.6278
   54MOL0     H 7440   4.990   4.274   2.153  1.6586 -0.5914  1.5473
   54MOL0     H 7441   5.118   4.324   2.046 -2.1753  1.7917 -2.8271
   54MOL0     H 7442   5.190   4.264   2.254 -0.7642 -0.3491 -0.5086
   54MOL0     H 7443   5.108   4.409   2.332 -1.1779  1.6061 -0.9773
   54MOL0     H 7444   5.305   4.429   2.108  2.3868 -3.1970  1.6004
   54MOL0     H 7445   5.223   4.560   2.194  1.6585  0.2556 -0.2978
   54MOL0     H 7446   5.343   4.437   2.414  1.2384  2.7923  0.6194
   54MOL0     H 7447   5.428   4.545   2.314 -0.7381  1.9523  2.5166
   54MOL0     H 7448   5.609   4.197   2.164  0.4064 -0.0040  1.4325
   54MOL0     H 7449   4.848   4.301   1.960  2.2883  2.3639 -0.1211
   54MOL0     H 7450   4.519   4.298   1.845 -0.5212 -2.3634 -2.3367
   54MOL0     H 7451   4.665   4.209   1.844 -1.3584 -1.3747 -1.7508
   54MOL0     H 7452   4.547   4.170   1.968  0.6398  0.2643 -0.1478
   55MOL0     O 7453   8.247   4.472   9.799  0.3705 -0.0169 -0.7035
   55MOL0     C 7454   8.241   4.504   9.919 -0.5664  0.2363  0.0038
   55MOL0     O 7455   8.274   4.631   9.972  0.0516 -0.0441 -0.2058
   55MOL0     C 7456   8.283   4.736   9.883  0.5248  0.5325 -0.7820
   55MOL0     C 7457   8.193   4.846   9.878 -0.3655 -0.0462 -0.3029
   55MOL0     C 7458   8.201   4.940   9.780  0.8597 -1.3932 -0.4344
   55MOL0     C 7459   8.282   4.914   9.665 -0.3620 -1.4219  0.0821
   55MOL0     O 7460   8.267   4.989   9.549 -0.0963 -0.0709  0.1914
   55MOL0     C 7461   8.190   5.111   9.549 -0.7041  0.1405  1.2224
   55MOL0     C 7462   8.178   5.177   9.407  0.8250  0.0379  0.0822
   55MOL0     C 7463   8.311   5.226   9.349  0.1269 -0.6858 -0.4223
   55MOL0     C 7464   8.304   5.289   9.212 -0.7929 -0.1480  0.6574
   55MOL0     C 7465   8.322   5.181   9.111 -0.0097  0.4576 -0.5642
   55MOL0     C 7466   8.315   5.236   8.964  0.0449 -0.4907  0.8017
   55MOL0     C 7467   8.403   5.172   8.859 -0.1144 -0.5869  0.0672
   55MOL0     C 7468   8.558   5.181   8.888 -0.9763  0.7898 -0.6742
   55MOL0     N 7469   8.628   5.304   8.882  0.1495  0.0937 -0.3375
   55MOL0     C 7470   8.695   5.368   8.990 -0.1065  0.2554  0.6558
   55MOL0     C 7471   8.751   5.477   8.927  1.0432  0.5231 -0.7831
   55MOL0     C 7472   8.811   5.587   9.014 -0.5934 -0.9308  0.1961
   55MOL0     C 7473   8.960   5.631   8.994  0.3377  0.3223  0.0837
   55MOL0     C 7474   9.004   5.744   9.077  0.3216 -0.1943  0.1335
   55MOL0     C 7475   9.053   5.854   8.990 -0.2067 -1.1527 -1.1886
   55MOL0     O 7476   8.965   5.886   8.880 -0.4693 -0.2864 -0.2705
   55MOL0     C 7477   8.868   5.984   8.883 -0.4111 -0.0104  0.1112
   55MOL0     C 7478   8.817   6.037   9.000  0.9610  0.8931  0.0435
   55MOL0     C 7479   8.711   6.127   8.999  1.0288 -1.3472  0.2968
   55MOL0     C 7480   8.659   6.192   9.127 -0.0319  0.5810 -0.3014
   55MOL0     C 7481   8.644   6.166   8.877  0.4711 -0.0540 -0.8411
   55MOL0     C 7482   8.540   6.262   8.862 -0.5544 -0.4589  1.0495
   55MOL0     O 7483   8.557   6.332   8.751  0.4610 -0.5927  0.0024
   55MOL0     C 7484   8.499   6.446   8.708  0.3465 -0.1975  0.3713
   55MOL0     C 7485   8.497   6.475   8.570  0.5941  0.2824 -0.0283
   55MOL0     C 7486   8.433   6.590   8.522  1.1938  0.3704 -0.1186
   55MOL0     C 7487   8.377   6.681   8.619  0.3671  0.5300  1.4425
   55MOL0     O 7488   8.325   6.806   8.580  0.4568  0.7222 -0.7657
   55MOL0     C 7489   8.328   6.850   8.445  1.0174 -0.5817 -0.5624
   55MOL0     C 7490   8.286   6.997   8.428 -0.5399  0.3554 -0.5156
   55MOL0     C 7491   8.307   7.042   8.283  0.7873 -0.2055 -0.7575
   55MOL0     C 7492   8.319   7.194   8.258  0.1927 -0.2647  0.5542
   55MOL0     C 7493   8.377   7.216   8.119 -0.3077 -0.2858  0.3168
   55MOL0     C 7494   8.432   7.365   8.104 -1.0492  0.0540 -0.5008
   55MOL0     C 7495   8.464   7.405   7.964  0.1476 -0.6829  0.9618
   55MOL0     C 7496   8.383   7.530   7.915  0.3084  0.0192 -0.4441
   55MOL0    Cl 7497   8.470   7.683   7.963  0.0021  0.0937  0.3681
   55MOL0     C 7498   8.371   6.658   8.755 -0.6813  0.2070  0.1139
   55MOL0     C 7499   8.438   6.536   8.801 -0.4565 -0.2371  1.2268
   55MOL0     O 7500   8.437   6.260   8.927 -0.1331 -0.7412  0.3497
   55MOL0     C 7501   8.696   6.115   8.759  0.2029  0.6125  0.0840
   55MOL0     C 7502   8.809   6.022   8.767  0.9835  0.3045 -0.0741
   55MOL0     N 7503   8.728   5.471   8.795 -0.1421 -0.2963 -0.0948
   55MOL0     N 7504   8.657   5.371   8.772 -0.0599 -0.2721  0.0063
   55MOL0     C 7505   8.370   4.805   9.670  0.2913  0.8392  0.1067
   55MOL0     C 7506   8.375   4.722   9.781 -0.6446 -0.2978  0.1390
   55MOL0     C 7507   8.189   4.404  10.016 -0.9574  0.6020 -0.6146
   55MOL0     C 7508   8.205   4.441  10.148 -0.3102  0.2879 -0.2931
   55MOL0     C 7509   8.148   4.367  10.253 -0.9838 -1.0864 -0.5494
   55MOL0     C 7510   8.083   4.252  10.221  0.9566  0.6746 -0.3989
   55MOL0     O 7511   8.020   4.160  10.304 -0.3468  0.2675 -0.2774
   55MOL0     C 7512   8.064   4.179  10.438  0.9475 -0.4382  0.9507
   55MOL0     C 7513   8.035   4.061  10.527 -0.9282 -0.0392  0.3672
   55MOL0     C 7514   8.135   3.947  10.482 -0.5318  0.1337  0.6624
   55MOL0     C 7515   8.131   3.825  10.575  0.5509 -0.1861  0.5966
   55MOL0     C 7516   8.000   3.772  10.588  0.5443  0.5845  0.4566
   55MOL0     C 7517   7.882   3.735  10.592 -0.5545 -0.0050 -1.1522
   55MOL0     C 7518   8.074   4.211  10.089 -0.3783 -0.1521  0.3787
   55MOL0     C 7519   8.117   4.284   9.977  0.2570 -1.0325 -0.3548
   55MOL0     C 7520   8.112   4.229   9.835 -0.4255  0.5507  0.4262
   55MOL0     H 7521   8.125   4.851   9.963  0.8086 -0.7565  0.7080
   55MOL0     H 7522   8.114   5.005   9.789 -0.6008 -3.2490 -0.3832
   55MOL0     H 7523   8.243   5.183   9.612  1.3164 -1.8186  1.8842
   55MOL0     H 7524   8.094   5.090   9.595  0.3462 -0.4358  3.2741
   55MOL0     H 7525   8.149   5.097   9.339 -0.3878 -2.2911  3.1299
   55MOL0     H 7526   8.111   5.264   9.409 -0.1336 -0.6895 -0.1111
   55MOL0     H 7527   8.361   5.294   9.418  1.2726 -0.4534 -1.4369
   55MOL0     H 7528   8.372   5.135   9.344 -1.7538 -2.0454  0.1053
   55MOL0     H 7529   8.212   5.346   9.193  0.5676  1.8217 -0.3599
   55MOL0     H 7530   8.392   5.353   9.204 -1.2681  0.5234  0.6920
   55MOL0     H 7531   8.247   5.102   9.122  0.6146 -0.2928 -1.5613
   55MOL0     H 7532   8.418   5.131   9.129  0.3644  2.2625  3.3570
   55MOL0     H 7533   8.212   5.224   8.931 -0.5118 -1.9716  2.8737
   55MOL0     H 7534   8.325   5.345   8.972 -2.1279 -0.2856  1.1965
   55MOL0     H 7535   8.394   5.220   8.761  1.6202 -2.7757 -1.2573
   55MOL0     H 7536   8.386   5.066   8.839  0.7169 -0.3900 -1.9253
   55MOL0     H 7537   8.579   5.129   8.982  0.2637  2.0895 -0.1785
   55MOL0     H 7538   8.601   5.122   8.807 -1.9402 -1.2258  0.2315
   55MOL0     H 7539   8.688   5.335   9.093  4.1836 -1.1269  0.7118
   55MOL0     H 7540   8.807   5.556   9.119  0.3988 -2.4753 -0.1796
   55MOL0     H 7541   8.742   5.670   8.997  0.2563 -0.0318  1.0226
   55MOL0     H 7542   9.021   5.548   9.032  1.4272  0.7994 -0.5667
   55MOL0     H 7543   8.986   5.642   8.889  1.3380  0.3285  0.3164
   55MOL0     H 7544   8.916   5.786   9.126  0.9519  2.8310 -1.0730
   55MOL0     H 7545   9.072   5.714   9.158 -1.1964  1.0840  1.9856
   55MOL0     H 7546   9.075   5.945   9.048 -1.0413 -2.3851  1.2154
   55MOL0     H 7547   9.144   5.820   8.941 -1.1068 -2.5027 -1.9833
   55MOL0     H 7548   8.841   6.014   9.103 -4.3712 -2.4103  0.9592
   55MOL0     H 7549   8.723   6.192   9.216  0.0535  0.3875 -0.3627
   55MOL0     H 7550   8.569   6.144   9.165  1.2772 -2.1315 -0.4089
   55MOL0     H 7551   8.633   6.297   9.110 -1.5491  0.4544  1.0917
   55MOL0     H 7552   8.548   6.416   8.494 -0.7113  0.5322 -1.1463
   55MOL0     H 7553   8.428   6.614   8.416  1.0661 -1.9315 -0.6773
   55MOL0     H 7554   8.430   6.839   8.407  1.1510 -2.3643  0.2547
   55MOL0     H 7555   8.273   6.780   8.382 -0.4364  1.1571 -1.3278
   55MOL0     H 7556   8.179   7.008   8.452 -0.8561  0.5421 -1.9422
   55MOL0     H 7557   8.336   7.064   8.499  1.1037  0.4161 -1.6844
   55MOL0     H 7558   8.224   7.004   8.224 -0.5890 -1.2634  1.6994
   55MOL0     H 7559   8.403   7.002   8.249  0.2428 -1.0596 -1.3269
   55MOL0     H 7560   8.390   7.233   8.332 -0.3441  2.1234 -0.0846
   55MOL0     H 7561   8.232   7.258   8.278  1.7667  1.7567  1.3752
   55MOL0     H 7562   8.456   7.142   8.105 -1.8461 -2.5015  2.3812
   55MOL0     H 7563   8.300   7.201   8.043 -0.6805 -3.8867  1.2230
   55MOL0     H 7564   8.517   7.373   8.173 -4.4129 -2.0315  4.5009
   55MOL0     H 7565   8.356   7.431   8.147 -0.3312  0.7766 -0.3226
   55MOL0     H 7566   8.447   7.321   7.896 -2.6565  1.5813 -1.4304
   55MOL0     H 7567   8.567   7.439   7.949  0.4225 -1.0314  1.9953
   55MOL0     H 7568   8.278   7.529   7.946  0.0780  3.1723 -0.8059
   55MOL0     H 7569   8.382   7.533   7.805  2.6213 -0.8099 -0.5451
   55MOL0     H 7570   8.328   6.725   8.829  1.5664  0.1974  1.5322
   55MOL0     H 7571   8.448   6.525   8.909 -0.0801  0.4751  1.2738
   55MOL0     H 7572   8.632   6.121   8.672 -3.4147  0.4972  2.5128
   55MOL0     H 7573   8.840   5.979   8.672  0.0282  0.7441 -0.5977
   55MOL0     H 7574   8.433   4.776   9.587 -1.3683  0.5079 -1.0815
   55MOL0     H 7575   8.443   4.638   9.779  1.1401  1.0282  1.2731
   55MOL0     H 7576   8.276   4.517  10.180  1.8561 -1.9191  0.5517
   55MOL0     H 7577   8.169   4.381  10.359 -3.4470 -1.0136  0.0000
   55MOL0     H 7578   8.169   4.205  10.452  0.1563  3.3534  0.9669
   55MOL0     H 7579   8.008   4.261  10.484  2.5285  1.6880 -0.7115
   55MOL0     H 7580   7.929   4.038  10.510 -0.6705  1.2523 -4.5934
   55MOL0     H 7581   8.036   4.077  10.635 -2.5213 -4.1665  1.1963
   55MOL0     H 7582   8.115   3.909  10.382 -3.1493 -0.4262  1.3333
   55MOL0     H 7583   8.230   4.002  10.480 -1.4489  1.7870 -1.3361
   55MOL0     H 7584   8.167   3.858  10.673 -2.5839 -0.4242  1.9193
   55MOL0     H 7585   8.202   3.751  10.537  2.2178  0.7013  1.8042
   55MOL0     H 7586   7.780   3.704  10.603 -0.9804  1.4772 -0.6305
   55MOL0     H 7587   8.024   4.118  10.063  1.8655 -1.2821 -0.1606
   55MOL0     H 7588   8.078   4.125   9.833  1.6982 -0.1821 -0.8162
   55MOL0     H 7589   8.058   4.301   9.772 -0.2312  2.1001  1.9392
   55MOL0     H 7590   8.211   4.220   9.790  1.7666  6.2021  3.1623
   56MOL0     O 7591   5.191  11.087   4.865  0.3010 -0.2478  0.0614
   56MOL0     C 7592   5.199  11.172   4.784  0.5644  0.0054 -0.4514
   56MOL0     O 7593   5.124  11.284   4.782  0.4598  0.1943  0.1943
   56MOL0     C 7594   5.002  11.301   4.845 -0.5825  0.2682  1.2981
   56MOL0     C 7595   4.902  11.363   4.772  0.6943 -0.2573  0.3069
   56MOL0     C 7596   4.774  11.387   4.817 -0.6300 -0.0920 -0.1866
   56MOL0     C 7597   4.761  11.369   4.957  0.8389  0.0397  0.5220
   56MOL0     O 7598   4.650  11.385   5.035 -0.1429 -0.2078  0.0061
   56MOL0     C 7599   4.539  11.445   4.976 -0.6138 -0.1971 -0.0443
   56MOL0     C 7600   4.465  11.543   5.068 -0.7790 -0.3990  0.1366
   56MOL0     C 7601   4.332  11.589   4.996 -0.4062 -0.4899 -0.0253
   56MOL0     C 7602   4.247  11.685   5.078  0.3420  0.0432  0.3255
   56MOL0     C 7603   4.127  11.744   4.997  0.2650 -0.2037  1.1503
   56MOL0     C 7604   4.028  11.823   5.082  0.1242  0.7028  0.3687
   56MOL0     C 7605   3.941  11.904   4.980  0.1183 -0.8204 -0.7088
   56MOL0     C 7606   3.861  11.997   5.059  0.2050  0.2576  0.0615
   56MOL0     N 7607   3.939  12.118   5.107  0.1522  1.0112  0.3293
   56MOL0     C 7608   3.986  12.222   5.033 -0.4920 -0.3453 -0.0864
   56MOL0     C 7609   4.022  12.314   5.119 -0.2282  0.1438 -0.0024
   56MOL0     C 7610   4.100  12.432   5.093 -0.8601  0.7208  0.1638
   56MOL0     C 7611   4.022  12.523   4.988  0.1057 -0.1419 -0.5310
   56MOL0     C 7612   4.042  12.679   4.997 -0.0830  0.1968 -0.3029
   56MOL0     C 7613   3.961  12.760   4.891 -0.8844  0.1776  0.4733
   56MOL0     O 7614   4.015  12.750   4.751 -0.8601 -0.4692  0.1602
   56MOL0     C 7615   4.088  12.844   4.691 -0.3431  0.3693  1.1614
   56MOL0     C 7616   4.150  12.955   4.755 -0.2959 -0.3839  0.6381
   56MOL0     C 7617   4.227  13.053   4.689  0.7146  0.4154 -1.3134
   56MOL0     C 7618   4.281  13.161   4.786  0.1564 -1.1227  0.4299
   56MOL0     C 7619   4.253  13.035   4.554  0.0589  0.1179  0.5351
   56MOL0     C 7620   4.346  13.132   4.473  0.5937  0.4784 -0.1173
   56MOL0     O 7621   4.394  13.234   4.536 -0.2389  0.7374 -0.2140
   56MOL0     C 7622   4.459  13.336   4.470 -0.5335  0.5330 -0.1037
   56MOL0     C 7623   4.429  13.469   4.520 -0.3930 -0.6630  0.2680
   56MOL0     C 7624   4.494  13.577   4.457 -0.1701 -1.0229 -0.9524
   56MOL0     C 7625   4.590  13.560   4.352  0.6384  0.4490  0.8272
   56MOL0     O 7626   4.651  13.662   4.287 -0.4680 -0.0699  0.3880
   56MOL0     C 7627   4.694  13.775   4.360 -0.8373  0.7111  0.7419
   56MOL0     C 7628   4.782  13.860   4.265  0.4483 -0.6581 -0.3646
   56MOL0     C 7629   4.879  13.948   4.351 -0.2728  0.5301 -0.6717
   56MOL0     C 7630   4.978  14.042   4.272 -0.0492  0.3242  0.6253
   56MOL0     C 7631   5.060  14.134   4.375 -0.1462  0.2578  0.3973
   56MOL0     C 7632   5.189  14.189   4.316 -0.5590 -0.2966  0.3595
   56MOL0     C 7633   5.277  14.276   4.416  0.0688  0.1484  0.0261
   56MOL0     C 7634   5.384  14.344   4.341 -0.2118  0.2726  0.0972
   56MOL0    Cl 7635   5.316  14.460   4.233 -0.0244 -0.3577 -0.1799
   56MOL0     C 7636   4.630  13.431   4.316 -0.8768 -0.4773  0.8343
   56MOL0     C 7637   4.560  13.319   4.377  0.3658  0.0544  0.4007
   56MOL0     O 7638   4.362  13.096   4.359  0.4463  0.1173 -0.6326
   56MOL0     C 7639   4.187  12.930   4.490  0.0163  0.0789 -0.0533
   56MOL0     C 7640   4.118  12.830   4.551  0.6027 -0.1956  0.0818
   56MOL0     N 7641   4.009  12.262   5.247  0.4477  0.5889  0.4623
   56MOL0     N 7642   3.962  12.137   5.244 -0.0208  0.3227  0.7040
   56MOL0     C 7643   4.861  11.299   5.038  0.5118 -0.0645 -0.4580
   56MOL0     C 7644   4.979  11.268   4.976 -0.8092 -1.6581 -0.5950
   56MOL0     C 7645   5.302  11.163   4.687  0.7750  0.9248  0.7377
   56MOL0     C 7646   5.429  11.152   4.740 -0.5110  0.1906  0.0752
   56MOL0     C 7647   5.537  11.139   4.651 -0.2458  0.5115 -0.5331
   56MOL0     C 7648   5.515  11.138   4.521 -0.3580  0.0064  0.7064
   56MOL0     O 7649   5.619  11.124   4.434 -0.4245 -0.4452 -0.4776
   56MOL0     C 7650   5.748  11.175   4.477  0.2889 -0.4505 -0.8909
   56MOL0     C 7651   5.834  11.144   4.356 -0.8409 -0.8315  0.2530
   56MOL0     C 7652   5.901  11.004   4.359  0.1918  0.1330 -0.0520
   56MOL0     C 7653   6.019  10.988   4.448 -0.7843  1.6990  0.2943
   56MOL0     C 7654   6.055  10.844   4.446 -0.5218  0.8042 -0.7820
   56MOL0     C 7655   6.072  10.721   4.457  1.0552 -0.6248  0.0954
   56MOL0     C 7656   5.389  11.152   4.465  0.1747 -0.5357 -0.5285
   56MOL0     C 7657   5.280  11.166   4.550 -0.3679  0.3554 -0.7282
   56MOL0     C 7658   5.139  11.170   4.494 -0.4175  0.1053 -0.2546
   56MOL0     H 7659   4.924  11.381   4.667  2.0516 -0.9282  0.4522
   56MOL0     H 7660   4.700  11.428   4.749 -0.4610 -3.1257 -2.4044
   56MOL0     H 7661   4.464  11.374   4.942  0.0882 -1.4117  0.8745
   56MOL0     H 7662   4.572  11.505   4.891  0.7754 -4.2820 -2.6283
   56MOL0     H 7663   4.433  11.493   5.160 -2.7457  1.1270  0.3567
   56MOL0     H 7664   4.532  11.628   5.077 -0.2293 -0.5150 -2.2523
   56MOL0     H 7665   4.366  11.624   4.898 -1.6081 -0.1420 -0.3308
   56MOL0     H 7666   4.259  11.516   4.961 -0.2960 -0.7869  0.3618
   56MOL0     H 7667   4.201  11.623   5.155  0.1725  1.6223  1.5534
   56MOL0     H 7668   4.293  11.777   5.114  0.5661  0.6184 -1.3119
   56MOL0     H 7669   4.071  11.670   4.939 -1.1132  2.9394 -1.8696
   56MOL0     H 7670   4.172  11.813   4.925  0.6667 -0.4256  1.1847
   56MOL0     H 7671   3.970  11.762   5.152  1.2016  0.6929  1.2772
   56MOL0     H 7672   4.081  11.887   5.153 -0.6963 -0.0185  1.6646
   56MOL0     H 7673   3.878  11.837   4.919  0.4960 -1.2349 -0.6477
   56MOL0     H 7674   4.003  11.964   4.913  2.1578 -1.0342  0.9042
   56MOL0     H 7675   3.784  12.034   4.991 -0.2394 -1.8699 -0.6960
   56MOL0     H 7676   3.818  11.948   5.147  0.2659  0.2862  0.1073
   56MOL0     H 7677   3.997  12.235   4.926  3.3554 -0.7309  0.1127
   56MOL0     H 7678   4.199  12.410   5.050 -1.0901  1.0287 -0.5310
   56MOL0     H 7679   4.111  12.479   5.191 -0.3860 -0.2277  0.5841
   56MOL0     H 7680   4.069  12.497   4.893  2.4794  0.3466  0.4393
   56MOL0     H 7681   3.919  12.486   4.977  0.8087 -2.0798 -1.0275
   56MOL0     H 7682   4.012  12.718   5.095  1.3146 -0.5890  0.4633
   56MOL0     H 7683   4.148  12.692   4.975  1.9534 -3.6538  4.9050
   56MOL0     H 7684   3.857  12.728   4.897 -1.1954  1.2014  0.7132
   56MOL0     H 7685   3.970  12.861   4.932 -2.3045  0.1313  0.9327
   56MOL0     H 7686   4.119  12.969   4.858  0.2497  1.8317  0.5537
   56MOL0     H 7687   4.231  13.257   4.767  1.4401 -0.2253  1.4218
   56MOL0     H 7688   4.388  13.156   4.765 -0.1003 -1.3689 -0.9172
   56MOL0     H 7689   4.262  13.141   4.892 -2.8623 -1.8181 -0.1383
   56MOL0     H 7690   4.367  13.485   4.608 -1.1685 -1.8392 -0.0406
   56MOL0     H 7691   4.465  13.674   4.495 -2.9798 -2.0227 -0.3424
   56MOL0     H 7692   4.608  13.831   4.398 -1.4450  0.4975 -0.2917
   56MOL0     H 7693   4.763  13.737   4.436  1.0247  2.2089 -0.1138
   56MOL0     H 7694   4.844  13.795   4.202  0.6261  0.1351 -1.0270
   56MOL0     H 7695   4.727  13.923   4.195  2.1248  1.6426  0.2413
   56MOL0     H 7696   4.940  13.874   4.403  0.3790 -0.2272 -2.4491
   56MOL0     H 7697   4.809  14.014   4.405 -1.2615 -1.0664  0.0919
   56MOL0     H 7698   4.924  14.111   4.206 -2.4152 -0.5799  1.5259
   56MOL0     H 7699   5.049  13.983   4.213 -0.1586  0.6498  0.1646
   56MOL0     H 7700   4.998  14.212   4.420 -0.8765  0.2432 -0.5661
   56MOL0     H 7701   5.099  14.076   4.459 -0.6109 -1.3637 -0.4608
   56MOL0     H 7702   5.155  14.256   4.236 -0.7632  0.0082  0.6988
   56MOL0     H 7703   5.254  14.120   4.262 -0.9193 -1.4020  1.3202
   56MOL0     H 7704   5.316  14.206   4.491  2.8323 -0.2687 -1.6891
   56MOL0     H 7705   5.208  14.345   4.466  0.4713 -0.4657  1.4698
   56MOL0     H 7706   5.445  14.271   4.287 -2.6686 -3.9539  2.5075
   56MOL0     H 7707   5.450  14.397   4.411 -1.7690 -1.3842  2.9820
   56MOL0     H 7708   4.708  13.399   4.248 -1.8689 -4.2744  1.2409
   56MOL0     H 7709   4.580  13.220   4.338  0.0333 -0.8504  2.4017
   56MOL0     H 7710   4.194  12.919   4.382  0.5824 -0.3629  0.0255
   56MOL0     H 7711   4.078  12.745   4.496 -1.8734  1.4649 -0.8615
   56MOL0     H 7712   4.856  11.264   5.141  2.2517  0.1724 -0.2660
   56MOL0     H 7713   5.057  11.213   5.029 -2.1276 -1.2339  1.9788
   56MOL0     H 7714   5.439  11.137   4.847 -1.5103 -0.6932  0.0698
   56MOL0     H 7715   5.630  11.129   4.706 -1.4455 -0.7335  1.4180
   56MOL0     H 7716   5.735  11.275   4.520  1.7814 -0.7715  0.3885
   56MOL0     H 7717   5.799  11.122   4.558 -1.7080  0.6116  1.1680
   56MOL0     H 7718   5.922  11.209   4.364 -0.7649 -0.7057 -1.2726
   56MOL0     H 7719   5.776  11.166   4.266  1.4278  0.3498 -1.0039
   56MOL0     H 7720   5.822  10.938   4.396 -2.2215  2.4816 -0.6524
   56MOL0     H 7721   5.928  10.968   4.259  1.6995 -3.3121  1.4379
   56MOL0     H 7722   6.006  11.007   4.555 -0.6756  2.2314  0.2144
   56MOL0     H 7723   6.094  11.052   4.401  0.2023  0.9718  0.8292
   56MOL0     H 7724   6.094  10.617   4.448  2.2734 -0.6951  2.7996
   56MOL0     H 7725   5.374  11.133   4.359 -0.6337 -1.1240 -0.3223
   56MOL0     H 7726   5.135  11.205   4.391 -3.3840 -2.8239 -1.3075
   56MOL0     H 7727   5.094  11.072   4.476 -0.8304  0.4826 -1.3220
   56MOL0     H 7728   5.070  11.233   4.552 -2.2999 -3.2359  1.4434
   57MOL0     O 7729   9.133   2.353   2.975  0.8211  1.2140 -0.2959
   57MOL0     C 7730   9.161   2.400   2.867 -0.1761  0.2535  0.1972
   57MOL0     O 7731   9.236   2.515   2.862 -0.0116  0.4856 -0.5294
   57MOL0     C 7732   9.295   2.553   2.975 -0.9936  0.5878  0.8087
   57MOL0     C 7733   9.221   2.638   3.056 -0.4415  0.8556 -0.4361
   57MOL0     C 7734   9.269   2.682   3.181 -0.7865 -0.8211 -0.9491
   57MOL0     C 7735   9.402   2.650   3.209  0.1683 -0.5294  0.1554
   57MOL0     O 7736   9.436   2.708   3.328 -0.0611 -0.3802  0.4170
   57MOL0     C 7737   9.562   2.683   3.378 -1.7091  0.5170 -1.1289
   57MOL0     C 7738   9.565   2.548   3.451 -0.3627 -0.3604 -0.1825
   57MOL0     C 7739   9.442   2.534   3.537 -0.0279  0.7998 -0.0301
   57MOL0     C 7740   9.466   2.410   3.614  0.3480 -0.3121  0.1538
   57MOL0     C 7741   9.343   2.374   3.705  0.6218 -1.0142  0.0832
   57MOL0     C 7742   9.204   2.352   3.637  1.1749  0.1585  0.8245
   57MOL0     C 7743   9.183   2.227   3.550  0.3448 -0.1585  0.0147
   57MOL0     C 7744   9.053   2.211   3.499  0.7172 -0.0307  0.3779
   57MOL0     N 7745   8.988   2.325   3.428  0.7934  1.3139  0.4076
   57MOL0     C 7746   8.981   2.354   3.291  0.4693 -0.8084  0.5924
   57MOL0     C 7747   8.911   2.468   3.274 -0.3301  0.8269  0.7397
   57MOL0     C 7748   8.886   2.547   3.148  0.5568  0.4372  0.2140
   57MOL0     C 7749   8.736   2.539   3.115 -0.0978 -0.2796 -0.1608
   57MOL0     C 7750   8.691   2.593   2.977  0.2308 -0.2250 -0.3068
   57MOL0     C 7751   8.755   2.525   2.851 -0.3393  0.3044  0.0215
   57MOL0     O 7752   8.654   2.500   2.749  0.1037 -0.3631  0.7074
   57MOL0     C 7753   8.643   2.610   2.670 -0.4387 -0.4444  0.0198
   57MOL0     C 7754   8.535   2.695   2.695 -0.2292 -0.2310  0.2629
   57MOL0     C 7755   8.513   2.812   2.626 -0.7886 -0.1339 -1.0169
   57MOL0     C 7756   8.392   2.904   2.650 -0.5997  0.6071 -1.0339
   57MOL0     C 7757   8.602   2.849   2.523  0.3590  0.0598  0.0696
   57MOL0     C 7758   8.581   2.968   2.441  0.4100 -0.3659 -0.2864
   57MOL0     O 7759   8.463   2.972   2.356  0.1536 -0.8982  0.9200
   57MOL0     C 7760   8.456   3.079   2.269 -0.0833  0.2757 -1.0900
   57MOL0     C 7761   8.502   3.059   2.136 -0.5974 -0.0182  0.2695
   57MOL0     C 7762   8.508   3.165   2.048 -0.3081 -0.0608  1.0266
   57MOL0     C 7763   8.473   3.292   2.080 -1.1246  0.4743  0.3395
   57MOL0     O 7764   8.490   3.386   1.977 -0.3087 -0.4469 -0.2773
   57MOL0     C 7765   8.416   3.511   1.984 -0.1410 -0.3534 -0.2723
   57MOL0     C 7766   8.490   3.644   1.993  0.2806 -0.2181  0.0598
   57MOL0     C 7767   8.581   3.643   2.108 -0.1803 -0.3770 -0.3739
   57MOL0     C 7768   8.503   3.708   2.230  0.5478  0.5482  0.0199
   57MOL0     C 7769   8.597   3.758   2.344  0.3915 -0.9024 -0.1524
   57MOL0     C 7770   8.685   3.665   2.429  1.2408 -0.3539  0.4260
   57MOL0     C 7771   8.752   3.745   2.539  0.9592 -0.3163 -0.3733
   57MOL0     C 7772   8.850   3.851   2.496 -0.7957 -0.0906  0.4064
   57MOL0    Cl 7773   9.011   3.777   2.467 -0.1065  0.2142 -0.0186
   57MOL0     C 7774   8.431   3.315   2.214 -0.6501  0.1284 -0.0701
   57MOL0     C 7775   8.419   3.209   2.301 -0.3025  0.5704  0.5019
   57MOL0     O 7776   8.665   3.058   2.453  0.0116  0.2305 -0.1612
   57MOL0     C 7777   8.711   2.761   2.500  0.1434  0.2001  1.3438
   57MOL0     C 7778   8.731   2.647   2.567 -0.3528  0.1212 -0.3248
   57MOL0     N 7779   8.855   2.494   3.407 -0.3294 -0.0759  0.2179
   57MOL0     N 7780   8.928   2.429   3.489 -0.7413 -0.5581 -0.2662
   57MOL0     C 7781   9.480   2.582   3.130 -0.0805  0.2906  0.6599
   57MOL0     C 7782   9.427   2.532   3.012  0.1971 -0.0437 -0.3701
   57MOL0     C 7783   9.085   2.360   2.751  0.5247 -0.3472 -0.0556
   57MOL0     C 7784   9.104   2.425   2.631 -0.8193 -0.6385  0.3886
   57MOL0     C 7785   9.036   2.388   2.513 -0.8008  0.0029 -1.2942
   57MOL0     C 7786   8.927   2.296   2.507  0.2377  0.8003 -0.1429
   57MOL0     O 7787   8.845   2.273   2.395  0.2582  0.3584 -0.3583
   57MOL0     C 7788   8.738   2.177   2.399 -0.2967 -0.3366 -0.4058
   57MOL0     C 7789   8.667   2.171   2.258 -1.0225 -0.7298 -0.6522
   57MOL0     C 7790   8.531   2.101   2.255 -0.0255 -0.2285 -0.2362
   57MOL0     C 7791   8.509   2.027   2.118 -0.4267  0.2060  0.4946
   57MOL0     C 7792   8.384   2.057   2.052  0.3268 -0.7784 -0.2406
   57MOL0     C 7793   8.269   2.086   2.013  0.6229 -0.2146 -0.8456
   57MOL0     C 7794   8.897   2.235   2.635  0.6891  0.3751 -0.0319
   57MOL0     C 7795   8.979   2.251   2.747 -0.1442 -1.0973  0.0171
   57MOL0     C 7796   8.948   2.161   2.865  0.9725 -0.6627  0.4852
   57MOL0     H 7797   9.119   2.661   3.025 -1.2270 -2.2731 -0.5669
   57MOL0     H 7798   9.207   2.746   3.242 -0.6101 -0.5838 -1.0163
   57MOL0     H 7799   9.590   2.765   3.445 -0.6797 -0.4165 -0.3783
   57MOL0     H 7800   9.638   2.680   3.299 -0.3955 -1.4362  0.1267
   57MOL0     H 7801   9.582   2.459   3.390 -0.8466 -1.9236  1.8842
   57MOL0     H 7802   9.661   2.548   3.503 -0.4811  1.7579  0.1292
   57MOL0     H 7803   9.425   2.625   3.596 -0.8347 -0.8719  2.5152
   57MOL0     H 7804   9.354   2.526   3.472  0.2069 -3.6943 -0.0722
   57MOL0     H 7805   9.463   2.330   3.539  0.4898  0.4702 -0.6975
   57MOL0     H 7806   9.557   2.404   3.675  0.9064 -0.1331 -0.6540
   57MOL0     H 7807   9.327   2.459   3.772  6.2795 -1.2847  2.3143
   57MOL0     H 7808   9.369   2.291   3.771  3.7005 -1.5057 -1.5368
   57MOL0     H 7809   9.125   2.357   3.712 -0.7892  1.8877 -1.1970
   57MOL0     H 7810   9.187   2.433   3.566  0.7015 -2.9230 -2.9470
   57MOL0     H 7811   9.197   2.138   3.613 -2.6931 -1.0596 -0.4587
   57MOL0     H 7812   9.244   2.230   3.459  0.8209 -0.4055  0.3229
   57MOL0     H 7813   9.063   2.136   3.421 -0.3806 -1.4349  1.5449
   57MOL0     H 7814   8.985   2.171   3.575  0.2866  0.6221  0.3505
   57MOL0     H 7815   9.035   2.304   3.212  3.3679  0.2634  1.7429
   57MOL0     H 7816   8.946   2.496   3.072  0.7231  0.0692  0.5842
   57MOL0     H 7817   8.933   2.645   3.144  2.8335 -0.6134 -1.3266
   57MOL0     H 7818   8.705   2.440   3.150  1.8998 -0.7188  0.4971
   57MOL0     H 7819   8.684   2.605   3.185 -0.1256  0.4563 -0.8493
   57MOL0     H 7820   8.582   2.584   2.980  0.0576  1.6395  0.8355
   57MOL0     H 7821   8.710   2.701   2.973 -2.5914  0.2860 -2.9978
   57MOL0     H 7822   8.847   2.573   2.817  0.4815 -1.8667 -1.0255
   57MOL0     H 7823   8.782   2.426   2.888 -0.7947 -0.0292 -0.5284
   57MOL0     H 7824   8.460   2.669   2.769 -0.5674  0.5846  0.2182
   57MOL0     H 7825   8.425   3.007   2.638  1.3366  0.6372  2.9814
   57MOL0     H 7826   8.354   2.888   2.752 -1.6329  2.5840 -1.0622
   57MOL0     H 7827   8.305   2.887   2.585  0.0061  2.9263 -2.5614
   57MOL0     H 7828   8.558   2.970   2.109  1.8829  2.1042 -2.2405
   57MOL0     H 7829   8.548   3.155   1.948 -0.8163  1.0711  0.6969
   57MOL0     H 7830   8.361   3.509   1.890  0.8335 -1.0414 -0.8447
   57MOL0     H 7831   8.341   3.513   2.064  1.0124  1.3553  0.8404
   57MOL0     H 7832   8.553   3.654   1.904  0.0704 -1.3555 -0.2281
   57MOL0     H 7833   8.411   3.720   1.989  0.2069 -0.1015  2.3920
   57MOL0     H 7834   8.665   3.711   2.088 -0.3105 -0.2274 -0.4106
   57MOL0     H 7835   8.623   3.545   2.131 -0.5897 -0.7562 -1.2134
   57MOL0     H 7836   8.434   3.633   2.268 -2.4537  3.1192  0.0541
   57MOL0     H 7837   8.443   3.794   2.199  0.0520  0.4580  0.7068
   57MOL0     H 7838   8.664   3.823   2.287  1.3318 -1.4900  0.2501
   57MOL0     H 7839   8.533   3.808   2.418  0.0354  1.0785 -1.7077
   57MOL0     H 7840   8.744   3.615   2.352  1.5132  0.6039 -0.0031
   57MOL0     H 7841   8.615   3.594   2.474 -0.8106  0.6247 -1.0298
   57MOL0     H 7842   8.793   3.673   2.610 -0.5570 -0.4860  0.3578
   57MOL0     H 7843   8.670   3.798   2.589  1.6020  0.1359  0.2265
   57MOL0     H 7844   8.857   3.914   2.585  1.3221  1.5594 -0.8453
   57MOL0     H 7845   8.823   3.916   2.412  3.1247 -0.9486 -1.7592
   57MOL0     H 7846   8.404   3.410   2.259 -3.5669 -2.5362  4.7341
   57MOL0     H 7847   8.376   3.230   2.398  1.6691  2.7324  0.9851
   57MOL0     H 7848   8.786   2.799   2.431 -0.3164  0.8180  1.1648
   57MOL0     H 7849   8.813   2.579   2.547  1.3198  1.5442  1.3888
   57MOL0     H 7850   9.586   2.565   3.145  0.0804  0.6270 -0.0587
   57MOL0     H 7851   9.490   2.485   2.937  2.4551  1.6026  0.3874
   57MOL0     H 7852   9.180   2.500   2.610  1.3881 -2.0439  2.8788
   57MOL0     H 7853   9.051   2.452   2.427  2.4731  1.3770  0.1241
   57MOL0     H 7854   8.779   2.077   2.418 -1.0953 -1.0161 -2.0730
   57MOL0     H 7855   8.670   2.199   2.482  0.7270  1.5500 -0.0043
   57MOL0     H 7856   8.726   2.103   2.195  1.5901 -0.3049  1.1604
   57MOL0     H 7857   8.658   2.270   2.212 -0.0117  0.4334  1.5328
   57MOL0     H 7858   8.544   2.025   2.332  2.4847  1.2215  0.9118
   57MOL0     H 7859   8.451   2.171   2.282  0.7394  1.3618 -1.8787
   57MOL0     H 7860   8.500   1.919   2.133  0.3987  0.1827  0.8628
   57MOL0     H 7861   8.585   2.056   2.046 -1.4900  1.7775 -0.0398
   57MOL0     H 7862   8.173   2.118   1.977 -0.3512 -1.2447  0.7136
   57MOL0     H 7863   8.816   2.164   2.647  0.5284  0.6802  0.7216
   57MOL0     H 7864   8.901   2.066   2.835  0.0131 -1.2807  3.5518
   57MOL0     H 7865   9.033   2.130   2.927 -0.4989  1.5551  3.9162
   57MOL0     H 7866   8.883   2.225   2.926 -0.0210 -0.5751 -0.6416
   58MOL0     O 7867  10.759   4.067   6.677  0.8709  0.0619 -0.5035
   58MOL0     C 7868  10.752   3.946   6.690 -0.0156  0.1315  0.2186
   58MOL0     O 7869  10.650   3.885   6.759  0.2952 -0.0272 -0.0808
   58MOL0     C 7870  10.591   3.958   6.858  0.3235  0.1983  0.0510
   58MOL0     C 7871  10.455   3.935   6.878 -1.2097 -0.0264  0.8090
   58MOL0     C 7872  10.382   3.994   6.969  0.1894  0.5117 -0.3311
   58MOL0     C 7873  10.435   4.099   7.052  0.0930  0.5794 -0.8359
   58MOL0     O 7874  10.366   4.162   7.151 -0.8000 -0.3688  0.1437
   58MOL0     C 7875  10.227   4.184   7.120 -0.0252 -0.4481 -0.1365
   58MOL0     C 7876  10.178   4.301   7.201  0.6041  0.7243  0.0564
   58MOL0     C 7877  10.021   4.330   7.209 -0.9451  1.1360 -0.0069
   58MOL0     C 7878   9.934   4.199   7.234  0.2403  0.5593 -0.7934
   58MOL0     C 7879   9.784   4.226   7.234  0.1075  0.3067 -0.4392
   58MOL0     C 7880   9.705   4.096   7.257 -0.2258 -0.4958  0.6442
   58MOL0     C 7881   9.555   4.125   7.239 -0.2491 -0.3859 -0.4883
   58MOL0     C 7882   9.477   3.995   7.230  0.2049  0.0135  0.0196
   58MOL0     N 7883   9.330   4.029   7.214  0.1762 -0.2731 -0.6234
   58MOL0     C 7884   9.233   4.029   7.310 -0.1525  0.3389  0.7810
   58MOL0     C 7885   9.115   4.030   7.245  0.7920 -0.4631  0.1057
   58MOL0     C 7886   8.983   4.052   7.313 -0.5702  0.0319 -0.4100
   58MOL0     C 7887   8.965   4.193   7.378  0.8030 -0.4058 -1.0882
   58MOL0     C 7888   8.909   4.300   7.277 -0.0154  0.7426  0.2048
   58MOL0     C 7889   8.821   4.407   7.349  0.5911  0.7073 -0.4422
   58MOL0     O 7890   8.881   4.462   7.472 -0.4371  0.1575  1.1230
   58MOL0     C 7891   8.830   4.592   7.487 -0.4122 -1.1798  0.7565
   58MOL0     C 7892   8.926   4.691   7.520  0.3264  0.3768 -0.1956
   58MOL0     C 7893   8.897   4.829   7.528  0.9997  0.9975 -1.0519
   58MOL0     C 7894   9.009   4.926   7.549 -0.9000  0.2426  0.5622
   58MOL0     C 7895   8.763   4.868   7.513  0.1743 -0.3546 -0.2756
   58MOL0     C 7896   8.734   5.008   7.533  0.8997 -0.4991  0.0186
   58MOL0     O 7897   8.789   5.070   7.640  1.0929  0.0041 -0.4670
   58MOL0     C 7898   8.770   5.202   7.666  0.9215  0.2656 -1.3355
   58MOL0     C 7899   8.797   5.304   7.575  1.0858 -0.1034  0.7883
   58MOL0     C 7900   8.777   5.441   7.609  0.1704  0.6383  0.4192
   58MOL0     C 7901   8.738   5.469   7.739 -0.0972 -0.7036  0.1735
   58MOL0     O 7902   8.734   5.600   7.777  0.2461 -0.1437 -0.2398
   58MOL0     C 7903   8.603   5.662   7.777 -1.1260  0.5005  1.1031
   58MOL0     C 7904   8.520   5.628   7.891  1.2252 -0.4007 -1.3499
   58MOL0     C 7905   8.572   5.675   8.025 -0.4917 -0.7075 -0.4566
   58MOL0     C 7906   8.708   5.753   8.034 -0.0071 -0.0872 -0.2350
   58MOL0     C 7907   8.732   5.782   8.186  0.7490 -0.1604 -0.3240
   58MOL0     C 7908   8.758   5.669   8.288  0.0585  1.2029 -0.2767
   58MOL0     C 7909   8.778   5.713   8.430 -0.0978  0.2763 -0.2474
   58MOL0     C 7910   8.915   5.778   8.461  0.7055  0.1793 -0.0747
   58MOL0    Cl 7911   8.909   5.957   8.422 -0.1083  0.4053 -0.0530
   58MOL0     C 7912   8.726   5.368   7.838  0.3478  0.4475  0.3231
   58MOL0     C 7913   8.731   5.238   7.797  0.0604 -0.4430  0.4810
   58MOL0     O 7914   8.646   5.061   7.459  0.0553 -0.6872 -0.0761
   58MOL0     C 7915   8.665   4.774   7.474  0.2106  0.8528 -0.3564
   58MOL0     C 7916   8.698   4.637   7.473 -0.2427  0.3664  0.6522
   58MOL0     N 7917   9.134   4.027   7.109  0.0391 -0.2018 -0.0778
   58MOL0     N 7918   9.261   4.041   7.090 -0.7581  0.0537  0.6148
   58MOL0     C 7919  10.572   4.121   7.045  1.1093  0.3042  0.3456
   58MOL0     C 7920  10.648   4.050   6.951  0.7135 -0.6785  0.2618
   58MOL0     C 7921  10.827   3.871   6.584  0.5106  0.3817 -0.7221
   58MOL0     C 7922  10.773   3.743   6.544  0.1239  0.5639  0.3804
   58MOL0     C 7923  10.833   3.663   6.445  0.5647 -0.5361 -0.1224
   58MOL0     C 7924  10.955   3.711   6.395  0.2923  0.6521 -0.0933
   58MOL0     O 7925  11.012   3.635   6.298 -0.9712  0.0330 -0.1006
   58MOL0     C 7926  11.047   3.706   6.172 -0.7489  0.2216 -0.2817
   58MOL0     C 7927  11.003   3.607   6.068  0.5716 -0.2255  0.2896
   58MOL0     C 7928  10.845   3.581   6.059  0.7167  0.0952 -0.8752
   58MOL0     C 7929  10.769   3.713   6.034 -0.2077 -0.3413  0.1762
   58MOL0     C 7930  10.809   3.760   5.903 -0.4546  0.3360 -0.8175
   58MOL0     C 7931  10.837   3.808   5.797  0.1677  0.1171  0.4419
   58MOL0     C 7932  11.015   3.829   6.439  0.5028 -0.3334 -0.1656
   58MOL0     C 7933  10.959   3.916   6.538  0.0870  0.6633  0.5168
   58MOL0     C 7934  11.043   4.023   6.601  0.1130 -0.8565 -0.2816
   58MOL0     H 7935  10.411   3.875   6.798  0.1866  1.3985 -1.1422
   58MOL0     H 7936  10.282   3.970   6.934  1.0388 -1.1875 -1.7541
   58MOL0     H 7937  10.179   4.087   7.136 -0.4851 -0.0459  0.9964
   58MOL0     H 7938  10.218   4.224   7.018  2.8442 -0.1856 -0.3609
   58MOL0     H 7939  10.219   4.284   7.301  0.5107 -0.8305 -0.1410
   58MOL0     H 7940  10.227   4.384   7.149  1.8218 -0.6429 -1.0961
   58MOL0     H 7941   9.991   4.403   7.285  1.9789 -0.6642  3.1840
   58MOL0     H 7942   9.983   4.368   7.114 -1.6752  1.7551  0.5172
   58MOL0     H 7943   9.960   4.127   7.155  1.4888 -0.9399  0.9236
   58MOL0     H 7944   9.956   4.170   7.337 -2.2715  0.4677 -0.2026
   58MOL0     H 7945   9.757   4.268   7.136 -2.4699  0.6031  0.3497
   58MOL0     H 7946   9.752   4.302   7.305 -0.5407 -1.4974  1.2821
   58MOL0     H 7947   9.728   4.025   7.177  1.4156  2.0405 -1.2818
   58MOL0     H 7948   9.729   4.060   7.357 -0.5925 -1.4686  0.3972
   58MOL0     H 7949   9.545   4.195   7.156  0.8899 -1.7136 -1.8112
   58MOL0     H 7950   9.530   4.187   7.326  0.2438 -0.6057 -0.1877
   58MOL0     H 7951   9.514   3.950   7.137 -0.3983  1.5021 -0.9835
   58MOL0     H 7952   9.493   3.927   7.314 -0.0848 -2.0599 -1.5180
   58MOL0     H 7953   9.245   4.037   7.418  0.7826 -1.0733  0.7976
   58MOL0     H 7954   8.988   3.976   7.391  0.6528  0.7584  0.2343
   58MOL0     H 7955   8.910   4.006   7.245  3.4659 -0.9391 -4.6119
   58MOL0     H 7956   8.891   4.173   7.456  2.0157 -3.3862 -0.5521
   58MOL0     H 7957   9.064   4.224   7.413  0.9676  1.4202 -2.9347
   58MOL0     H 7958   8.991   4.351   7.225 -0.9151  1.3407 -0.6549
   58MOL0     H 7959   8.849   4.246   7.203 -0.7710 -0.5007  1.6726
   58MOL0     H 7960   8.786   4.479   7.274  1.7371  2.5254  0.6757
   58MOL0     H 7961   8.739   4.340   7.377  3.2790 -2.3073  0.9116
   58MOL0     H 7962   9.030   4.661   7.524  0.2216 -0.2721 -1.6080
   58MOL0     H 7963   9.010   5.011   7.618 -0.9100  1.8674 -1.3403
   58MOL0     H 7964   9.030   4.950   7.444 -1.9697 -1.8077 -0.1554
   58MOL0     H 7965   9.098   4.869   7.576 -0.4354  1.8050  2.6523
   58MOL0     H 7966   8.829   5.282   7.473 -1.5912 -0.5561 -0.0294
   58MOL0     H 7967   8.785   5.526   7.542  1.7727  0.3583  0.1968
   58MOL0     H 7968   8.628   5.768   7.781 -1.5777  0.6175  0.9494
   58MOL0     H 7969   8.563   5.641   7.677  1.8164 -1.4117  0.1830
   58MOL0     H 7970   8.431   5.687   7.871  0.1478 -2.1187 -1.8646
   58MOL0     H 7971   8.469   5.531   7.892 -3.6424  1.8974 -0.3360
   58MOL0     H 7972   8.578   5.582   8.083  1.0836 -0.9156 -0.9073
   58MOL0     H 7973   8.499   5.739   8.077 -2.1823  0.7019 -4.2123
   58MOL0     H 7974   8.704   5.852   7.987 -0.0655  2.3954  4.3454
   58MOL0     H 7975   8.796   5.705   7.991  0.6172 -0.2166  1.1084
   58MOL0     H 7976   8.817   5.852   8.193 -0.1952  0.9531  0.3498
   58MOL0     H 7977   8.645   5.842   8.214  1.6598  1.3209 -0.5398
   58MOL0     H 7978   8.837   5.604   8.249 -1.7293 -2.0482  1.0629
   58MOL0     H 7979   8.674   5.598   8.290  0.7337  0.3594 -0.7114
   58MOL0     H 7980   8.759   5.631   8.499 -0.8790 -0.9527 -1.8401
   58MOL0     H 7981   8.696   5.777   8.463 -0.6859  1.4220 -3.4910
   58MOL0     H 7982   8.992   5.728   8.403  2.0626  2.2219 -0.1314
   58MOL0     H 7983   8.945   5.769   8.566 -0.6641 -1.3318  0.2260
   58MOL0     H 7984   8.702   5.371   7.944 -0.3329 -2.4261  0.3249
   58MOL0     H 7985   8.706   5.158   7.866  1.5231 -3.4232 -2.1665
   58MOL0     H 7986   8.563   4.811   7.470 -1.2512 -2.3408  2.4713
   58MOL0     H 7987   8.629   4.555   7.460 -0.2797  0.3207  1.1086
   58MOL0     H 7988  10.613   4.190   7.118  0.3662  1.1703 -0.0407
   58MOL0     H 7989  10.756   4.061   6.948  0.6041  2.6724 -5.1347
   58MOL0     H 7990  10.681   3.714   6.594  0.8021 -0.8049  0.9065
   58MOL0     H 7991  10.790   3.566   6.424 -0.7969 -0.2486  1.1656
   58MOL0     H 7992  10.995   3.803   6.173 -0.7350  0.3092  2.9913
   58MOL0     H 7993  11.153   3.731   6.165 -0.8546  0.6252 -0.4749
   58MOL0     H 7994  11.060   3.519   6.096 -0.4797 -0.3617  2.1735
   58MOL0     H 7995  11.019   3.631   5.963 -0.1217 -0.1500  0.1908
   58MOL0     H 7996  10.811   3.510   5.984 -0.0804 -0.2266 -0.2272
   58MOL0     H 7997  10.801   3.546   6.153 -1.3947 -1.2582 -2.3001
   58MOL0     H 7998  10.790   3.796   6.102  0.7495 -0.7083  0.3415
   58MOL0     H 7999  10.660   3.704   6.043 -0.1038 -0.3654  1.4908
   58MOL0     H 8000  10.856   3.857   5.703 -1.8741  0.5473  0.2157
   58MOL0     H 8001  11.110   3.870   6.407 -0.1907  1.2903 -0.2503
   58MOL0     H 8002  11.075   3.982   6.697 -0.1950  0.5810  0.4743
   58MOL0     H 8003  11.118   4.059   6.530 -2.0725 -0.5405 -2.6028
   58MOL0     H 8004  10.992   4.119   6.616 -2.8219 -2.0273 -1.9138
   59MOL0     O 8005  11.372   2.113   4.976  0.3794 -0.4971  0.3922
   59MOL0     C 8006  11.343   2.015   4.917  0.3418  0.9697  0.4881
   59MOL0     O 8007  11.240   1.925   4.959 -0.1881 -0.1023  0.2743
   59MOL0     C 8008  11.152   1.958   5.065 -0.1814  0.1932 -0.0106
   59MOL0     C 8009  11.079   1.855   5.115 -0.8644 -0.1316 -0.6576
   59MOL0     C 8010  10.983   1.871   5.215  0.2120  0.7826 -0.0661
   59MOL0     C 8011  10.958   1.994   5.273  0.3002 -0.2204 -0.5236
   59MOL0     O 8012  10.874   1.987   5.383 -0.6281  0.4618 -0.0647
   59MOL0     C 8013  10.826   2.110   5.432 -0.1772 -0.4072 -0.5062
   59MOL0     C 8014  10.720   2.169   5.344  0.1500 -0.3507  1.3893
   59MOL0     C 8015  10.600   2.067   5.320  0.5423 -0.1546 -0.3344
   59MOL0     C 8016  10.517   2.132   5.212 -0.3011  0.6640  0.5387
   59MOL0     C 8017  10.388   2.068   5.167  0.2280  0.6470 -0.4961
   59MOL0     C 8018  10.340   2.113   5.026  0.5399  1.1410 -0.2671
   59MOL0     C 8019  10.339   2.268   5.006 -0.0122 -1.2400 -0.5129
   59MOL0     C 8020  10.257   2.308   4.887 -0.4604 -0.2836 -0.8984
   59MOL0     N 8021  10.297   2.234   4.771  0.5390 -0.3645 -1.1032
   59MOL0     C 8022  10.418   2.237   4.701 -0.1818  0.1017  0.0450
   59MOL0     C 8023  10.400   2.164   4.589 -0.9447 -0.4869 -0.3487
   59MOL0     C 8024  10.502   2.106   4.494 -0.3838  0.0272 -1.0367
   59MOL0     C 8025  10.636   2.185   4.491  0.3141 -0.8425  0.1644
   59MOL0     C 8026  10.613   2.314   4.417 -0.7827  0.5771  0.3902
   59MOL0     C 8027  10.730   2.408   4.440 -0.8262  0.0111 -0.6177
   59MOL0     O 8028  10.752   2.469   4.576 -0.0576  0.2879 -0.0189
   59MOL0     C 8029  10.645   2.539   4.633  0.9708 -0.0286  0.6556
   59MOL0     C 8030  10.645   2.552   4.771  0.3315  0.5684  0.3628
   59MOL0     C 8031  10.543   2.609   4.842 -1.0046 -1.0943  0.5863
   59MOL0     C 8032  10.559   2.602   4.995  0.8554 -0.8276  0.4253
   59MOL0     C 8033  10.428   2.647   4.771 -0.1813  0.5106  0.0610
   59MOL0     C 8034  10.313   2.716   4.833 -0.3769 -0.1025 -0.0018
   59MOL0     O 8035  10.270   2.819   4.762  0.0136 -0.7035 -0.4975
   59MOL0     C 8036  10.226   2.917   4.844 -0.4928  0.3448 -0.2217
   59MOL0     C 8037  10.089   2.949   4.853  0.0772 -0.1244 -0.3040
   59MOL0     C 8038  10.040   3.061   4.907  0.0964 -0.4810 -0.1593
   59MOL0     C 8039  10.131   3.157   4.956  0.9217 -0.5990 -1.0725
   59MOL0     O 8040  10.075   3.282   4.986  0.3614 -0.2278  0.4869
   59MOL0     C 8041  10.153   3.386   5.058 -0.5513  0.8945 -0.5378
   59MOL0     C 8042  10.070   3.490   5.131  0.4072  0.3860 -0.9622
   59MOL0     C 8043  10.024   3.441   5.273 -0.1391  0.8499  0.0829
   59MOL0     C 8044   9.916   3.532   5.335  0.0344  0.1201  0.1938
   59MOL0     C 8045   9.874   3.458   5.467 -0.3077  0.3890 -0.2113
   59MOL0     C 8046   9.806   3.550   5.568  0.7306 -0.7977  0.7986
   59MOL0     C 8047   9.889   3.650   5.645 -0.1776  0.2407  0.2706
   59MOL0     C 8048   9.933   3.593   5.784  0.2107 -0.7195 -1.0185
   59MOL0    Cl 8049  10.020   3.717   5.864 -0.4841 -0.1458 -0.3448
   59MOL0     C 8050  10.271   3.126   4.966  0.6384  0.0974  0.3806
   59MOL0     C 8051  10.318   3.006   4.912  0.1134 -0.2394  0.4818
   59MOL0     O 8052  10.273   2.678   4.944 -0.3931 -0.1425 -0.3193
   59MOL0     C 8053  10.436   2.653   4.631  0.3906  0.0533  0.0129
   59MOL0     C 8054  10.539   2.593   4.565 -0.0985  0.2345  0.3396
   59MOL0     N 8055  10.279   2.108   4.598 -0.2850 -0.3815 -0.2514
   59MOL0     N 8056  10.216   2.156   4.702 -0.1604 -0.1149  0.2871
   59MOL0     C 8057  11.027   2.112   5.223 -0.3682 -0.6485  0.8938
   59MOL0     C 8058  11.117   2.093   5.112  0.3252 -0.1672  0.8253
   59MOL0     C 8059  11.408   1.992   4.781 -0.3414 -0.4739  0.2212
   59MOL0     C 8060  11.464   2.107   4.720 -0.0147  0.4372 -0.0302
   59MOL0     C 8061  11.493   2.102   4.579 -0.5624  0.1413 -0.5456
   59MOL0     C 8062  11.481   1.982   4.507 -0.2469  1.2476  0.0482
   59MOL0     O 8063  11.522   1.984   4.370 -0.1885  0.3123 -1.0497
   59MOL0     C 8064  11.529   1.862   4.300 -0.4369 -0.6667 -0.3152
   59MOL0     C 8065  11.606   1.881   4.168  0.7006 -0.5249  0.2888
   59MOL0     C 8066  11.519   1.976   4.078 -0.1243 -1.0277 -1.2436
   59MOL0     C 8067  11.581   1.985   3.940  0.4619 -0.7793 -0.1230
   59MOL0     C 8068  11.715   2.045   3.926 -0.2832 -0.4916 -0.0511
   59MOL0     C 8069  11.819   2.094   3.883 -0.1868 -0.6173 -0.1828
   59MOL0     C 8070  11.436   1.866   4.575  0.1995 -0.4811  0.4367
   59MOL0     C 8071  11.404   1.870   4.714 -1.0686  0.5714  0.1172
   59MOL0     C 8072  11.351   1.745   4.784  0.2431 -0.1307 -0.2063
   59MOL0     H 8073  11.077   1.762   5.060 -3.8235 -0.3584 -0.2983
   59MOL0     H 8074  10.926   1.789   5.257 -0.7814  1.4712 -0.0228
   59MOL0     H 8075  10.910   2.179   5.447  1.0034 -2.2339  1.9397
   59MOL0     H 8076  10.790   2.102   5.535 -0.8513 -0.2974 -0.7283
   59MOL0     H 8077  10.680   2.261   5.386  1.5146  1.0432 -0.2290
   59MOL0     H 8078  10.761   2.186   5.244 -0.2822  1.6245  1.5200
   59MOL0     H 8079  10.632   1.964   5.302 -4.1267 -1.8914 -0.1451
   59MOL0     H 8080  10.535   2.061   5.408  0.6010  2.0977 -0.0862
   59MOL0     H 8081  10.504   2.230   5.259  1.0191  2.0908 -1.8510
   59MOL0     H 8082  10.584   2.137   5.126  1.2096 -0.1069  1.6365
   59MOL0     H 8083  10.310   2.086   5.242  0.2162 -2.2337  0.3186
   59MOL0     H 8084  10.400   1.959   5.168 -0.4999  0.5585 -0.4455
   59MOL0     H 8085  10.418   2.079   4.958 -1.0437  0.5889 -1.8837
   59MOL0     H 8086  10.244   2.065   5.002 -0.1778 -0.2951  4.4060
   59MOL0     H 8087  10.439   2.312   4.997 -0.1274 -0.6942  0.6828
   59MOL0     H 8088  10.284   2.319   5.086 -1.9962  0.8551 -3.0004
   59MOL0     H 8089  10.150   2.302   4.909 -0.4205 -3.0347 -1.0867
   59MOL0     H 8090  10.268   2.414   4.860 -2.7760  0.2696  0.0572
   59MOL0     H 8091  10.508   2.284   4.739 -0.8972  1.9370 -0.3820
   59MOL0     H 8092  10.453   2.106   4.396 -0.9155  0.1815 -0.7713
   59MOL0     H 8093  10.520   2.003   4.528 -0.7608  0.8084  1.7768
   59MOL0     H 8094  10.657   2.210   4.595 -1.2276  2.5335 -0.1682
   59MOL0     H 8095  10.718   2.127   4.448 -0.1832 -0.8804 -0.7531
   59MOL0     H 8096  10.620   2.288   4.311 -1.1981 -0.1829  0.5417
   59MOL0     H 8097  10.517   2.361   4.441 -0.8378 -0.0616  1.5376
   59MOL0     H 8098  10.822   2.354   4.416 -1.5258 -1.8420  0.6662
   59MOL0     H 8099  10.729   2.483   4.360 -1.8285  1.3746  0.6139
   59MOL0     H 8100  10.731   2.508   4.820  0.0120 -0.0257  0.3967
   59MOL0     H 8101  10.664   2.608   5.024  1.0419 -0.0765 -0.3596
   59MOL0     H 8102  10.522   2.503   5.022 -2.5828  0.2064  0.0263
   59MOL0     H 8103  10.497   2.671   5.054  1.5274  1.0401 -0.9472
   59MOL0     H 8104  10.023   2.879   4.803 -1.0963  1.3444 -0.8935
   59MOL0     H 8105   9.933   3.078   4.907  0.1537  0.0278 -1.4594
   59MOL0     H 8106  10.219   3.344   5.135  0.2640  0.2750 -1.5396
   59MOL0     H 8107  10.217   3.438   4.987  0.5130 -0.7338 -0.8445
   59MOL0     H 8108  10.135   3.573   5.160  0.7001 -0.2367  0.2315
   59MOL0     H 8109   9.996   3.533   5.063  0.8933  2.8962 -0.0170
   59MOL0     H 8110  10.105   3.440   5.346 -0.7691  2.2552  0.8513
   59MOL0     H 8111   9.992   3.338   5.259  2.3450  0.3333 -2.8140
   59MOL0     H 8112   9.828   3.540   5.271  0.8084  1.7458 -0.7362
   59MOL0     H 8113   9.961   3.625   5.371  0.6176 -0.7828  1.9601
   59MOL0     H 8114   9.811   3.371   5.449 -0.5137 -0.0537  2.3853
   59MOL0     H 8115   9.960   3.417   5.521 -1.3453  1.0296  2.0351
   59MOL0     H 8116   9.759   3.485   5.643 -3.7006  1.4187  0.3274
   59MOL0     H 8117   9.717   3.599   5.528 -0.4799 -1.6950  2.2676
   59MOL0     H 8118   9.837   3.744   5.664  0.0666  0.6012 -0.8118
   59MOL0     H 8119   9.974   3.670   5.580 -0.8880 -2.0899 -1.5337
   59MOL0     H 8120  10.003   3.508   5.786  0.2703 -0.6626 -0.6218
   59MOL0     H 8121   9.837   3.577   5.833  0.1656 -1.7186 -1.4113
   59MOL0     H 8122  10.343   3.200   5.001 -0.2196  0.6640  0.9909
   59MOL0     H 8123  10.422   2.975   4.909  0.5189  1.0663  0.3197
   59MOL0     H 8124  10.356   2.684   4.564  3.0376  3.6244 -1.8395
   59MOL0     H 8125  10.533   2.594   4.456  3.0143 -2.2560 -0.0174
   59MOL0     H 8126  11.013   2.216   5.252 -0.3414  0.1702 -1.7980
   59MOL0     H 8127  11.170   2.177   5.068  0.4580 -2.1421 -3.1832
   59MOL0     H 8128  11.469   2.198   4.778 -2.4965  0.2366  0.6239
   59MOL0     H 8129  11.528   2.193   4.530 -0.9828 -0.3241 -1.7656
   59MOL0     H 8130  11.574   1.790   4.368  0.8586 -2.1206 -2.5944
   59MOL0     H 8131  11.427   1.824   4.289 -0.6954 -0.5715  1.4829
   59MOL0     H 8132  11.628   1.781   4.130  0.8659  0.7412 -3.3111
   59MOL0     H 8133  11.702   1.932   4.186  0.1120  0.6900  0.1150
   59MOL0     H 8134  11.416   1.938   4.079 -0.5644  0.1039  0.0881
   59MOL0     H 8135  11.516   2.076   4.122  0.7518 -0.5498 -2.2347
   59MOL0     H 8136  11.524   2.055   3.877  3.9199  2.5026  0.0168
   59MOL0     H 8137  11.586   1.888   3.891  2.1811 -0.4643 -0.6266
   59MOL0     H 8138  11.913   2.130   3.846  0.2209 -0.5876  0.8347
   59MOL0     H 8139  11.422   1.775   4.517 -2.3179  0.8644 -1.2726
   59MOL0     H 8140  11.394   1.750   4.884  0.5903 -1.1135 -0.2946
   59MOL0     H 8141  11.242   1.740   4.790  0.0835  2.6726  0.2977
   59MOL0     H 8142  11.394   1.656   4.737  0.6359  0.3290 -0.7363
   60MOL0     O 8143   6.833  10.810   6.594  0.3478 -0.0743  0.3169
   60MOL0     C 8144   6.791  10.918   6.633  1.1606 -0.1409  0.2882
   60MOL0     O 8145   6.822  11.041   6.570  0.0672 -0.0749  0.1300
   60MOL0     C 8146   6.916  11.028   6.470 -0.3116 -0.2034 -0.0814
   60MOL0     C 8147   6.906  10.965   6.350  0.1526 -0.7247  0.2393
   60MOL0     C 8148   7.022  10.950   6.265  0.2830  0.4153  0.7173
   60MOL0     C 8149   7.151  10.982   6.308 -0.0201 -0.4611  0.8060
   60MOL0     O 8150   7.270  10.958   6.246 -0.4281  0.0788 -0.2198
   60MOL0     C 8151   7.267  10.906   6.107  0.0447 -0.9399  0.2723
   60MOL0     C 8152   7.416  10.899   6.061 -0.6090  0.2124 -0.0777
   60MOL0     C 8153   7.475  10.763   6.112  0.2817 -0.3576  0.1564
   60MOL0     C 8154   7.622  10.738   6.075 -0.8909 -0.1639  0.3979
   60MOL0     C 8155   7.667  10.596   6.105 -0.8773  0.4053  0.0267
   60MOL0     C 8156   7.731  10.589   6.245 -0.2278  0.2535  0.2155
   60MOL0     C 8157   7.792  10.446   6.259 -0.0990  0.0665 -0.7681
   60MOL0     C 8158   7.864  10.442   6.390 -0.1890 -0.0705 -0.4130
   60MOL0     N 8159   7.923  10.303   6.409 -0.3227 -0.7135  0.6199
   60MOL0     C 8160   7.847  10.189   6.421 -0.4803  0.7382 -0.4097
   60MOL0     C 8161   7.943  10.099   6.477  0.2239 -0.1518  0.0336
   60MOL0     C 8162   7.940   9.960   6.524  0.6138  1.0467  0.2619
   60MOL0     C 8163   7.826   9.876   6.468  0.3728 -0.2396  0.0198
   60MOL0     C 8164   7.697   9.904   6.552  0.0236  0.7738 -0.2789
   60MOL0     C 8165   7.562   9.832   6.518 -0.1760 -1.0839  0.5148
   60MOL0     O 8166   7.454   9.904   6.580  0.6281 -0.2477 -0.1309
   60MOL0     C 8167   7.451   9.904   6.723 -0.2168  0.2603  1.1975
   60MOL0     C 8168   7.483   9.795   6.794 -0.3470  0.1462 -0.7483
   60MOL0     C 8169   7.484   9.796   6.935  0.8249  0.8777 -0.8604
   60MOL0     C 8170   7.545   9.683   6.999 -0.5080 -0.3663  0.3142
   60MOL0     C 8171   7.425   9.908   7.009 -0.1575  0.4584  0.4055
   60MOL0     C 8172   7.417   9.925   7.161  0.1544  0.2903  0.8274
   60MOL0     O 8173   7.326  10.022   7.200 -0.3587  0.7491 -1.5206
   60MOL0     C 8174   7.354  10.100   7.309 -0.3922 -0.0742  0.3361
   60MOL0     C 8175   7.325  10.061   7.440  0.2907  1.0934  0.2546
   60MOL0     C 8176   7.362  10.135   7.552 -0.0979 -1.0718 -0.4416
   60MOL0     C 8177   7.423  10.261   7.535 -0.4281 -0.4048  0.0998
   60MOL0     O 8178   7.451  10.331   7.652 -0.0638  0.7895  1.1391
   60MOL0     C 8179   7.575  10.410   7.645 -0.6638 -0.9914 -1.3593
   60MOL0     C 8180   7.576  10.501   7.777  0.6912 -0.4131 -0.2154
   60MOL0     C 8181   7.707  10.577   7.791 -0.0943 -0.1194  1.0498
   60MOL0     C 8182   7.821  10.480   7.800 -0.3134  0.7949 -1.1732
   60MOL0     C 8183   7.955  10.563   7.823  0.2782  0.0630 -0.3657
   60MOL0     C 8184   8.078  10.473   7.797 -0.1656 -0.5690  0.2063
   60MOL0     C 8185   8.214  10.519   7.855  0.8198  0.4752 -0.0115
   60MOL0     C 8186   8.323  10.415   7.834  0.2438 -0.8571 -0.5750
   60MOL0    Cl 8187   8.284  10.252   7.889 -0.1460  0.5107 -0.4688
   60MOL0     C 8188   7.444  10.303   7.407  0.1097  0.3177 -1.5448
   60MOL0     C 8189   7.418  10.224   7.299 -0.4193  0.3736 -0.3167
   60MOL0     O 8190   7.482   9.857   7.243  0.1631  0.2228  0.3541
   60MOL0     C 8191   7.380  10.015   6.931  1.0422  0.8671 -0.0400
   60MOL0     C 8192   7.388  10.015   6.796 -0.1298 -0.9962  0.3672
   60MOL0     N 8193   8.064  10.164   6.479  0.9577  0.1390  0.5867
   60MOL0     N 8194   8.054  10.284   6.434 -0.0015  0.1721  0.2804
   60MOL0     C 8195   7.165  11.035   6.431  0.3984  0.0126  0.2804
   60MOL0     C 8196   7.055  11.049   6.509  1.0077 -0.0539 -0.4111
   60MOL0     C 8197   6.712  10.929   6.750 -0.1353 -1.1924 -0.4115
   60MOL0     C 8198   6.687  11.057   6.810 -0.6797  0.4454  0.8253
   60MOL0     C 8199   6.618  11.067   6.926  0.3409 -0.1854 -0.4012
   60MOL0     C 8200   6.562  10.957   6.996  0.2251  0.1096 -0.1183
   60MOL0     O 8201   6.486  10.973   7.112 -0.5278 -0.5016 -0.2637
   60MOL0     C 8202   6.442  10.862   7.187  0.8899  0.2357  0.1430
   60MOL0     C 8203   6.297  10.837   7.143  0.3375 -0.3598  0.6808
   60MOL0     C 8204   6.232  10.715   7.209 -0.1542  0.1667 -0.5536
   60MOL0     C 8205   6.078  10.699   7.186 -0.4136 -0.5199 -0.6781
   60MOL0     C 8206   6.047  10.669   7.051  0.1007  0.4575  0.0505
   60MOL0     C 8207   6.004  10.656   6.935  0.0730  0.1936 -0.1023
   60MOL0     C 8208   6.585  10.826   6.933  0.4112 -0.7000 -0.8850
   60MOL0     C 8209   6.657  10.809   6.817 -0.3851  0.2675  0.0145
   60MOL0     C 8210   6.671  10.664   6.771  0.0224 -0.0260 -0.7260
   60MOL0     H 8211   6.812  10.940   6.302 -0.5321  0.4091  0.9613
   60MOL0     H 8212   6.995  10.907   6.170 -0.1272 -0.0106  1.0252
   60MOL0     H 8213   7.211  10.969   6.037  1.3072  0.5106  0.4965
   60MOL0     H 8214   7.213  10.813   6.094 -0.5345 -0.4006 -1.4319
   60MOL0     H 8215   7.415  10.895   5.952 -1.0234  0.4176 -0.0811
   60MOL0     H 8216   7.485  10.979   6.090  0.4340 -0.9380  0.7638
   60MOL0     H 8217   7.464  10.752   6.220 -1.1470  4.5423  0.7626
   60MOL0     H 8218   7.408  10.688   6.069 -1.6946  0.6134  1.4504
   60MOL0     H 8219   7.634  10.752   5.967 -1.8206 -1.2294  0.1385
   60MOL0     H 8220   7.686  10.814   6.122  1.2826 -1.8947  0.4027
   60MOL0     H 8221   7.732  10.559   6.026  0.6862  0.2444  1.3377
   60MOL0     H 8222   7.576  10.534   6.111  0.2440 -1.2753  0.3781
   60MOL0     H 8223   7.808  10.665   6.262  0.4989 -0.7261  1.4157
   60MOL0     H 8224   7.648  10.603   6.315 -0.5323 -1.5034  0.2572
   60MOL0     H 8225   7.870  10.430   6.183  0.5136 -0.1201 -0.1063
   60MOL0     H 8226   7.709  10.377   6.249  0.3205 -0.4183 -0.9378
   60MOL0     H 8227   7.938  10.522   6.396  0.5617 -0.6700 -1.4123
   60MOL0     H 8228   7.799  10.446   6.478  2.1569 -2.2975  1.6167
   60MOL0     H 8229   7.743  10.166   6.399 -0.1652 -1.3195 -0.0378
   60MOL0     H 8230   7.945   9.952   6.633  0.9446 -0.5825  0.1453
   60MOL0     H 8231   8.035   9.923   6.486  0.1532 -0.4916  0.5482
   60MOL0     H 8232   7.812   9.891   6.361  2.2803 -1.3409 -0.4379
   60MOL0     H 8233   7.849   9.769   6.464 -0.4773 -0.3794 -1.6454
   60MOL0     H 8234   7.724   9.876   6.654 -0.5483  2.1858  0.2818
   60MOL0     H 8235   7.665  10.009   6.547 -0.1559  0.7319  0.0016
   60MOL0     H 8236   7.545   9.828   6.410  1.1147 -1.8434  0.3141
   60MOL0     H 8237   7.565   9.723   6.528  2.5483 -1.7627 -4.3083
   60MOL0     H 8238   7.522   9.709   6.742  0.7767 -2.7111  4.2011
   60MOL0     H 8239   7.491   9.638   7.083  0.5291  0.9626  1.7655
   60MOL0     H 8240   7.642   9.726   7.028 -0.9482 -0.1153  1.4903
   60MOL0     H 8241   7.564   9.607   6.924  1.3923  0.3279  0.0230
   60MOL0     H 8242   7.287   9.959   7.450 -0.4388  1.5001  1.8571
   60MOL0     H 8243   7.351  10.084   7.648  1.0649 -0.2592  0.1390
   60MOL0     H 8244   7.656  10.337   7.646 -0.4655 -0.7665 -0.9130
   60MOL0     H 8245   7.586  10.473   7.556  2.3725 -0.4196 -0.6737
   60MOL0     H 8246   7.501  10.579   7.764  0.5408 -0.8225 -2.0466
   60MOL0     H 8247   7.558  10.439   7.866  0.5127  0.4156  0.3394
   60MOL0     H 8248   7.708  10.652   7.871  2.0978 -0.7454  1.6997
   60MOL0     H 8249   7.725  10.634   7.699 -1.4003  1.9549  2.0045
   60MOL0     H 8250   7.826  10.421   7.708 -0.5431 -1.9668  0.4654
   60MOL0     H 8251   7.800  10.406   7.878 -1.1039  1.3870 -0.8200
   60MOL0     H 8252   7.958  10.650   7.756 -2.6485 -1.3076 -2.4896
   60MOL0     H 8253   7.960  10.605   7.924 -1.7009  0.9808 -0.5950
   60MOL0     H 8254   8.083  10.469   7.688 -0.0886  0.1887  0.1793
   60MOL0     H 8255   8.052  10.373   7.832 -0.9437 -0.7262 -0.7781
   60MOL0     H 8256   8.191  10.536   7.960 -1.5634  1.0484 -0.5709
   60MOL0     H 8257   8.253  10.611   7.811  1.1439  1.1838  1.6943
   60MOL0     H 8258   8.413  10.437   7.891 -0.5174  0.1177  0.2924
   60MOL0     H 8259   8.357  10.434   7.732  1.8924  0.1718  0.1192
   60MOL0     H 8260   7.490  10.400   7.391  2.4472 -0.5900 -0.8108
   60MOL0     H 8261   7.453  10.246   7.198 -2.6593  0.5534 -1.1109
   60MOL0     H 8262   7.316  10.094   6.967 -1.2220  0.1532 -2.2670
   60MOL0     H 8263   7.376  10.106   6.737  0.7820  1.0075  3.0864
   60MOL0     H 8264   7.259  11.070   6.472  1.5955 -0.1995 -2.1421
   60MOL0     H 8265   7.076  11.091   6.607 -0.3915  0.4984 -0.3356
   60MOL0     H 8266   6.720  11.148   6.760 -1.3744  0.2590 -0.0015
   60MOL0     H 8267   6.590  11.167   6.961  2.8512  1.9446 -3.8635
   60MOL0     H 8268   6.512  10.780   7.172 -0.1438 -0.7307  0.4812
   60MOL0     H 8269   6.439  10.879   7.296 -2.6885 -2.0920  0.5691
   60MOL0     H 8270   6.310  10.826   7.035 -1.8855 -1.1805  0.4446
   60MOL0     H 8271   6.237  10.925   7.166 -3.0418 -2.1505 -0.5872
   60MOL0     H 8272   6.271  10.616   7.185  2.1551  0.3430  2.0265
   60MOL0     H 8273   6.260  10.718   7.315 -4.9527 -0.3923  0.9745
   60MOL0     H 8274   6.021  10.789   7.211  0.6208 -0.4922  1.9256
   60MOL0     H 8275   6.030  10.631   7.257 -0.7150  0.7183  0.3407
   60MOL0     H 8276   5.985  10.647   6.830 -0.8115 -3.4764  0.2625
   60MOL0     H 8277   6.549  10.732   6.974 -0.9855 -0.1659 -0.8236
   60MOL0     H 8278   6.774  10.628   6.777  0.9506  2.3518 -1.1100
   60MOL0     H 8279   6.611  10.598   6.835  1.0438  0.9617  1.3316
   60MOL0     H 8280   6.640  10.647   6.668  2.7178 -3.6103 -1.1114
   61MOL0     O 8281   9.826   0.745   1.236 -0.6455 -0.1441 -0.3595
   61MOL0     C 8282   9.902   0.652   1.219 -0.6989 -0.0950  0.3734
   61MOL0     O 8283  10.035   0.671   1.189 -0.6213 -0.3651  0.2920
   61MOL0     C 8284  10.095   0.799   1.214 -0.0928 -0.5234 -0.4710
   61MOL0     C 8285  10.205   0.840   1.136 -0.1635  0.1279 -0.1079
   61MOL0     C 8286  10.267   0.963   1.158 -0.1177  0.0917 -0.3554
   61MOL0     C 8287  10.231   1.041   1.265  0.1939 -0.1381  0.4540
   61MOL0     O 8288  10.302   1.159   1.281 -0.0605 -0.6154  0.0393
   61MOL0     C 8289  10.239   1.285   1.305  0.1140  0.3401 -0.4939
   61MOL0     C 8290  10.337   1.372   1.389  0.3271 -0.6590 -0.1437
   61MOL0     C 8291  10.371   1.315   1.519 -1.1649  0.5067 -0.5168
   61MOL0     C 8292  10.517   1.311   1.558 -0.6742 -0.1749 -0.0600
   61MOL0     C 8293  10.542   1.347   1.707 -0.3486  0.2229 -0.3258
   61MOL0     C 8294  10.694   1.360   1.727  0.2311  0.0452  0.4052
   61MOL0     C 8295  10.740   1.377   1.879  0.4814  0.1977 -0.2101
   61MOL0     C 8296  10.665   1.493   1.935  0.3893  0.9321 -0.2027
   61MOL0     N 8297  10.715   1.531   2.067 -1.5548  0.6394 -0.2708
   61MOL0     C 8298  10.642   1.561   2.175 -0.6490 -0.8789  0.5489
   61MOL0     C 8299  10.733   1.629   2.257 -0.8844 -0.5366  0.0773
   61MOL0     C 8300  10.727   1.679   2.395 -0.0073  0.1122  0.0305
   61MOL0     C 8301  10.750   1.838   2.405  0.7991 -0.1485 -0.1297
   61MOL0     C 8302  10.626   1.913   2.359  0.7759 -0.2562 -0.1959
   61MOL0     C 8303  10.491   1.888   2.434  0.3445 -0.2024 -0.0360
   61MOL0     O 8304  10.501   1.860   2.573  0.9327  0.1196  1.2618
   61MOL0     C 8305  10.418   1.761   2.619 -0.2245 -0.4788 -0.3079
   61MOL0     C 8306  10.453   1.712   2.752  0.2924 -0.0129 -0.0798
   61MOL0     C 8307  10.382   1.599   2.799 -0.4319 -0.0804  0.1624
   61MOL0     C 8308  10.449   1.530   2.908  0.9051 -0.0344 -0.3619
   61MOL0     C 8309  10.251   1.556   2.740  0.0453  0.6972  0.4826
   61MOL0     C 8310  10.155   1.467   2.799  0.1243  0.1744  0.1779
   61MOL0     O 8311  10.188   1.400   2.905  0.0352 -0.1795 -0.9399
   61MOL0     C 8312  10.103   1.320   2.976 -0.4312 -0.2296  0.4698
   61MOL0     C 8313   9.959   1.319   2.970  0.0169  0.8071 -0.0314
   61MOL0     C 8314   9.878   1.234   3.048  0.1303  0.0838 -0.7030
   61MOL0     C 8315   9.939   1.145   3.140 -0.1024 -0.4792  0.3270
   61MOL0     O 8316   9.879   1.054   3.220  0.5739 -0.1190 -0.0366
   61MOL0     C 8317   9.764   0.983   3.168  0.1049 -0.0215  0.4995
   61MOL0     C 8318   9.631   1.019   3.232 -0.0530  0.2616 -0.7140
   61MOL0     C 8319   9.634   1.082   3.372 -0.6126  0.7772 -0.4574
   61MOL0     C 8320   9.500   1.087   3.439  0.7946  1.3246  0.1831
   61MOL0     C 8321   9.519   1.158   3.572  1.1375  0.1919 -0.1437
   61MOL0     C 8322   9.567   1.306   3.554  0.7755  0.0117  0.4256
   61MOL0     C 8323   9.565   1.372   3.690 -0.2844  0.0546  0.5564
   61MOL0     C 8324   9.548   1.526   3.680 -0.3156 -0.1343 -0.0173
   61MOL0    Cl 8325   9.510   1.595   3.849  0.7231 -0.0332 -0.1229
   61MOL0     C 8326  10.078   1.157   3.151 -0.3182  0.2587 -0.1975
   61MOL0     C 8327  10.161   1.232   3.073 -0.7331 -0.1157  0.4255
   61MOL0     O 8328  10.048   1.454   2.739  0.5421  0.8584 -0.1706
   61MOL0     C 8329  10.219   1.618   2.618  0.7953  0.6489 -0.6288
   61MOL0     C 8330  10.301   1.711   2.559 -0.4351  0.1636 -0.3249
   61MOL0     N 8331  10.854   1.639   2.195  0.2974 -0.0783 -1.3677
   61MOL0     N 8332  10.848   1.578   2.083  0.8353 -0.1153  0.2520
   61MOL0     C 8333  10.129   0.996   1.347  0.7720 -0.0709  0.2856
   61MOL0     C 8334  10.061   0.873   1.331  0.1981  1.2407  1.0564
   61MOL0     C 8335   9.868   0.502   1.212  0.1623 -0.1792  0.3200
   61MOL0     C 8336   9.964   0.402   1.181 -0.2689  0.3547 -0.0751
   61MOL0     C 8337   9.943   0.262   1.179  0.7260 -0.1992  0.5787
   61MOL0     C 8338   9.819   0.216   1.224  0.1665  0.5821  0.1072
   61MOL0     O 8339   9.778   0.084   1.215 -0.0975 -0.2543 -0.3775
   61MOL0     C 8340   9.667   0.065   1.120 -0.9880  1.0323  0.1190
   61MOL0     C 8341   9.697  -0.076   1.049 -0.3019 -0.2915 -0.2769
   61MOL0     C 8342   9.672  -0.188   1.156  0.7435  0.1789  0.3055
   61MOL0     C 8343   9.673  -0.335   1.104 -0.7622  0.5544  0.4589
   61MOL0     C 8344   9.810  -0.373   1.055 -0.5527 -0.4707  0.2709
   61MOL0     C 8345   9.929  -0.377   1.031  0.3876  0.2708  0.9716
   61MOL0     C 8346   9.724   0.308   1.271 -0.2109 -1.0953 -0.3755
   61MOL0     C 8347   9.747   0.449   1.258 -0.1112  0.4657  0.5632
   61MOL0     C 8348   9.640   0.540   1.307 -0.2046  0.0722 -0.9630
   61MOL0     H 8349  10.234   0.773   1.056  1.7386 -0.4822  1.0263
   61MOL0     H 8350  10.361   0.998   1.116  0.5407 -1.0190  0.1417
   61MOL0     H 8351  10.148   1.262   1.361  0.8654 -2.9381 -0.4024
   61MOL0     H 8352  10.208   1.329   1.210 -4.5109 -0.0111  0.6030
   61MOL0     H 8353  10.425   1.407   1.334 -0.7228 -0.5491 -1.8219
   61MOL0     H 8354  10.279   1.462   1.409 -3.5161 -3.0756  0.5610
   61MOL0     H 8355  10.315   1.365   1.598 -2.4204 -0.2559 -0.8948
   61MOL0     H 8356  10.332   1.214   1.533 -0.0075  0.4177  2.8428
   61MOL0     H 8357  10.557   1.217   1.520  0.7027  0.0113  0.8580
   61MOL0     H 8358  10.571   1.383   1.494  1.1171 -1.9682 -0.6660
   61MOL0     H 8359  10.505   1.269   1.774  2.0844  2.0771  3.6012
   61MOL0     H 8360  10.495   1.443   1.733  1.5484  1.0306  0.3067
   61MOL0     H 8361  10.734   1.267   1.687  0.4595  2.0204 -4.7251
   61MOL0     H 8362  10.732   1.443   1.666  0.7984  0.5865  1.4647
   61MOL0     H 8363  10.846   1.404   1.876  0.0383  2.6354  2.0539
   61MOL0     H 8364  10.715   1.288   1.938  0.7226 -0.7083 -1.4510
   61MOL0     H 8365  10.673   1.573   1.861  4.7636  1.8755  0.9676
   61MOL0     H 8366  10.558   1.471   1.938  0.6803 -0.5355  0.8349
   61MOL0     H 8367  10.542   1.541   2.212  0.6538 -1.4328  4.1970
   61MOL0     H 8368  10.792   1.625   2.464  0.3222 -0.7212 -0.9085
   61MOL0     H 8369  10.623   1.662   2.427 -1.7882  1.4559 -4.3207
   61MOL0     H 8370  10.773   1.878   2.504  0.4149 -0.3162  0.0306
   61MOL0     H 8371  10.839   1.861   2.346  0.3618 -0.6194 -0.9920
   61MOL0     H 8372  10.661   2.015   2.380  1.4668 -0.5338  0.0367
   61MOL0     H 8373  10.612   1.896   2.252 -2.3077 -1.7239  0.3349
   61MOL0     H 8374  10.419   1.970   2.425  1.2781  0.9098  2.0555
   61MOL0     H 8375  10.447   1.800   2.386  1.8394 -0.6782 -0.5824
   61MOL0     H 8376  10.537   1.748   2.810  0.4628  0.5422 -0.6622
   61MOL0     H 8377  10.442   1.596   2.995 -1.7866  0.4978 -0.8935
   61MOL0     H 8378  10.557   1.521   2.892  1.0842 -0.9247  1.0954
   61MOL0     H 8379  10.414   1.428   2.928  1.1926  0.1809  1.4443
   61MOL0     H 8380   9.904   1.382   2.901  0.6066 -0.4735 -1.7173
   61MOL0     H 8381   9.770   1.243   3.044  0.1002  0.2873  0.2284
   61MOL0     H 8382   9.743   1.004   3.062 -1.0441  3.2102  1.2543
   61MOL0     H 8383   9.774   0.874   3.178  0.6412  0.0057  0.2846
   61MOL0     H 8384   9.595   1.098   3.165 -1.5126 -1.1950 -1.7709
   61MOL0     H 8385   9.560   0.935   3.228 -0.7697  0.8662 -1.0038
   61MOL0     H 8386   9.664   1.186   3.351 -1.8101  0.4387 -4.5133
   61MOL0     H 8387   9.698   1.034   3.446 -0.6577 -0.1761 -1.0234
   61MOL0     H 8388   9.470   0.986   3.470  0.9729  1.5230  1.0017
   61MOL0     H 8389   9.427   1.132   3.372 -2.3056 -4.8954 -1.3823
   61MOL0     H 8390   9.436   1.150   3.643  3.4689 -3.7198  2.4668
   61MOL0     H 8391   9.596   1.109   3.632 -0.8987  0.7373  3.1728
   61MOL0     H 8392   9.514   1.367   3.480  0.4369  1.4215  1.7698
   61MOL0     H 8393   9.670   1.294   3.518  0.1157 -1.9915 -1.0145
   61MOL0     H 8394   9.660   1.361   3.743 -0.6148  0.7525  1.3167
   61MOL0     H 8395   9.494   1.321   3.756 -0.7859  0.7875  0.5898
   61MOL0     H 8396   9.462   1.544   3.614  1.0883 -1.4345 -2.3449
   61MOL0     H 8397   9.627   1.584   3.630 -0.9308  1.5499  0.8932
   61MOL0     H 8398  10.118   1.094   3.230 -0.7807 -0.4472 -0.5187
   61MOL0     H 8399  10.267   1.227   3.094 -0.8730  1.3372  1.6987
   61MOL0     H 8400  10.130   1.590   2.563 -2.3722  5.0871  1.6630
   61MOL0     H 8401  10.268   1.744   2.461  1.7293  0.6345 -0.9537
   61MOL0     H 8402  10.116   1.044   1.443 -0.5794 -0.7172  0.4584
   61MOL0     H 8403   9.985   0.829   1.396  1.8063 -2.6682  0.5885
   61MOL0     H 8404  10.057   0.441   1.140 -0.9845 -0.0979 -2.2675
   61MOL0     H 8405  10.007   0.182   1.144  1.4915  0.6981 -0.1197
   61MOL0     H 8406   9.571   0.055   1.171 -1.4174 -3.7166 -1.1182
   61MOL0     H 8407   9.674   0.138   1.039  0.6889 -0.1824 -0.9132
   61MOL0     H 8408   9.798  -0.091   1.010 -0.4284 -1.4928 -0.1722
   61MOL0     H 8409   9.632  -0.078   0.961 -0.2795 -0.4073 -0.2899
   61MOL0     H 8410   9.753  -0.174   1.229 -0.0882  0.0228  1.2733
   61MOL0     H 8411   9.578  -0.163   1.206  1.5706  3.5067  0.4223
   61MOL0     H 8412   9.609  -0.349   1.017 -0.5212 -0.0107  0.3717
   61MOL0     H 8413   9.645  -0.411   1.178 -0.0826 -3.7791 -3.2813
   61MOL0     H 8414  10.036  -0.385   1.025  0.2353 -1.3597 -0.1975
   61MOL0     H 8415   9.626   0.275   1.305 -1.3188  0.6205 -1.6983
   61MOL0     H 8416   9.621   0.628   1.245  1.8497 -0.7351 -2.8711
   61MOL0     H 8417   9.549   0.480   1.319  1.0872 -1.9520 -0.7097
   61MOL0     H 8418   9.673   0.565   1.408  1.0879 -1.7275 -0.8830
   62MOL0     O 8419   5.500   3.617   3.203  0.1891 -0.6661 -0.2694
   62MOL0     C 8420   5.389   3.602   3.149 -0.1137 -0.8152 -0.1041
   62MOL0     O 8421   5.266   3.638   3.206 -0.5437 -0.8803  0.3476
   62MOL0     C 8422   5.250   3.665   3.345  0.1615 -0.8063 -0.4257
   62MOL0     C 8423   5.138   3.635   3.424  0.0857  0.9499 -1.0449
   62MOL0     C 8424   5.119   3.683   3.553 -0.3002 -0.6274  0.1116
   62MOL0     C 8425   5.200   3.776   3.604  0.2838 -0.7228  0.2109
   62MOL0     O 8426   5.154   3.844   3.717  0.1326 -0.1181  0.8818
   62MOL0     C 8427   5.206   3.964   3.766  0.3564  0.1609  0.3891
   62MOL0     C 8428   5.169   4.078   3.674 -0.1217  0.3705 -0.2273
   62MOL0     C 8429   5.193   4.221   3.732 -0.2502  0.3694  0.8192
   62MOL0     C 8430   5.164   4.240   3.880 -0.6658 -0.7085  0.1529
   62MOL0     C 8431   5.123   4.385   3.919  0.9595  0.0645  0.0246
   62MOL0     C 8432   5.227   4.490   3.875  0.6757 -0.9651 -0.3774
   62MOL0     C 8433   5.183   4.638   3.906  0.3419  0.5995  0.2878
   62MOL0     C 8434   5.168   4.675   4.060 -0.1789 -0.3168 -0.2415
   62MOL0     N 8435   5.295   4.685   4.126  0.4277  1.0639 -0.1753
   62MOL0     C 8436   5.398   4.772   4.103 -0.0630 -0.2629 -0.1877
   62MOL0     C 8437   5.486   4.760   4.203  0.4202 -0.0953  0.7245
   62MOL0     C 8438   5.607   4.838   4.241  0.0084  0.0088  0.0643
   62MOL0     C 8439   5.565   4.980   4.261 -0.5155 -0.2137  0.2689
   62MOL0     C 8440   5.455   5.008   4.360 -0.1973  0.3102 -0.5105
   62MOL0     C 8441   5.483   4.986   4.504 -0.2404  0.2228 -0.5485
   62MOL0     O 8442   5.595   5.063   4.563 -0.1209  0.2908  0.3771
   62MOL0     C 8443   5.607   5.035   4.692 -0.0780 -0.6050  0.1101
   62MOL0     C 8444   5.534   4.935   4.762  0.5476 -0.0373  0.2502
   62MOL0     C 8445   5.554   4.900   4.894 -0.0423 -0.3288 -0.3604
   62MOL0     C 8446   5.480   4.786   4.952 -0.0263  0.5568  0.6505
   62MOL0     C 8447   5.641   4.984   4.967 -0.0182  0.0951  0.4014
   62MOL0     C 8448   5.659   4.956   5.111 -0.2133  0.5830 -0.4126
   62MOL0     O 8449   5.707   5.066   5.176  0.8908 -0.2472  0.5839
   62MOL0     C 8450   5.720   5.064   5.312 -0.0838  0.2018  0.4757
   62MOL0     C 8451   5.809   4.984   5.387 -0.0059  0.1628  0.0280
   62MOL0     C 8452   5.830   5.007   5.523 -0.5279  0.7505  0.6468
   62MOL0     C 8453   5.750   5.101   5.589 -0.1671 -0.2232 -0.4893
   62MOL0     O 8454   5.770   5.111   5.722 -0.5153  0.0730 -0.7137
   62MOL0     C 8455   5.671   5.155   5.820 -0.2315  0.0605 -0.0466
   62MOL0     C 8456   5.627   5.020   5.877 -0.1019  0.2599  0.5760
   62MOL0     C 8457   5.716   4.976   5.992  0.0641  0.7018 -1.1472
   62MOL0     C 8458   5.856   4.928   5.960 -0.3006  0.2769  0.3253
   62MOL0     C 8459   5.915   4.865   6.090 -0.6894 -0.1547 -0.1845
   62MOL0     C 8460   6.068   4.851   6.075 -0.7063  0.6547  0.0765
   62MOL0     C 8461   6.155   4.849   6.210  0.1454  0.3579  0.7534
   62MOL0     C 8462   6.300   4.800   6.186  1.1807  0.4292  0.1177
   62MOL0    Cl 8463   6.388   4.765   6.342 -0.6313 -0.3936  0.2599
   62MOL0     C 8464   5.658   5.170   5.518 -0.7273 -0.5610  0.6312
   62MOL0     C 8465   5.647   5.159   5.382  0.2745 -0.4937  0.0086
   62MOL0     O 8466   5.635   4.849   5.168 -0.4259  0.5107 -0.5056
   62MOL0     C 8467   5.707   5.096   4.909  0.0801  0.6696 -0.2134
   62MOL0     C 8468   5.684   5.123   4.768 -0.3249  0.4022  0.1766
   62MOL0     N 8469   5.443   4.645   4.277 -0.4423  0.5842  0.2967
   62MOL0     N 8470   5.334   4.600   4.226  0.2673 -0.0644  0.4123
   62MOL0     C 8471   5.312   3.822   3.525 -0.7412  0.1605 -0.5382
   62MOL0     C 8472   5.339   3.761   3.398  0.1671 -0.1034 -0.1800
   62MOL0     C 8473   5.392   3.568   3.010 -0.6633  0.1938  0.6171
   62MOL0     C 8474   5.499   3.576   2.922  0.3367  0.1062  0.4588
   62MOL0     C 8475   5.499   3.529   2.779 -0.4217  1.0263 -0.7968
   62MOL0     C 8476   5.382   3.486   2.727  0.8827 -0.4594 -0.6205
   62MOL0     O 8477   5.354   3.436   2.598  0.2975  0.5135  0.1725
   62MOL0     C 8478   5.444   3.466   2.488  0.2543  0.0475 -0.7701
   62MOL0     C 8479   5.403   3.403   2.349 -0.5358 -0.3144 -0.5984
   62MOL0     C 8480   5.520   3.384   2.246  0.0444 -0.4690 -0.5312
   62MOL0     C 8481   5.477   3.367   2.099 -0.6842 -0.0935  0.0298
   62MOL0     C 8482   5.376   3.465   2.043 -0.4630  0.3277  0.7146
   62MOL0     C 8483   5.299   3.545   2.004 -0.0861  0.0739  0.0953
   62MOL0     C 8484   5.273   3.489   2.809  0.5415  0.1650  0.0304
   62MOL0     C 8485   5.270   3.521   2.945  0.0235 -1.5622 -0.0447
   62MOL0     C 8486   5.142   3.477   3.011 -1.2207 -0.3093  1.0712
   62MOL0     H 8487   5.062   3.571   3.381 -2.6059  1.7516  2.0712
   62MOL0     H 8488   5.041   3.654   3.622 -2.0035 -0.3886 -1.6342
   62MOL0     H 8489   5.315   3.959   3.774  0.3207 -0.8316  0.3194
   62MOL0     H 8490   5.157   3.974   3.863  2.0675 -1.4841  1.4736
   62MOL0     H 8491   5.221   4.066   3.579 -1.8825  0.5006 -1.2683
   62MOL0     H 8492   5.063   4.059   3.652  0.2297  0.4617 -2.1958
   62MOL0     H 8493   5.290   4.260   3.700 -0.2031  0.5457  1.1795
   62MOL0     H 8494   5.123   4.284   3.676  0.8057  1.4399  0.6757
   62MOL0     H 8495   5.089   4.171   3.919 -0.1951 -0.2646  1.9374
   62MOL0     H 8496   5.256   4.212   3.931 -1.1974  1.3159  2.3770
   62MOL0     H 8497   5.106   4.387   4.027 -2.3290  1.9297 -0.4043
   62MOL0     H 8498   5.024   4.408   3.877 -0.2264 -1.6951  1.6948
   62MOL0     H 8499   5.320   4.464   3.927 -0.1189 -0.2424  1.4949
   62MOL0     H 8500   5.249   4.490   3.768 -2.4007  2.2268 -1.1904
   62MOL0     H 8501   5.088   4.668   3.860  0.4150  2.0622  1.0060
   62MOL0     H 8502   5.248   4.705   3.849 -1.3202 -0.4672 -3.0927
   62MOL0     H 8503   5.118   4.772   4.068  1.1314  0.5428 -1.7717
   62MOL0     H 8504   5.102   4.600   4.104 -0.5655 -0.7452 -1.4804
   62MOL0     H 8505   5.396   4.860   4.039  1.6227 -1.0307 -1.3974
   62MOL0     H 8506   5.684   4.824   4.164  0.0667 -1.2536  0.3345
   62MOL0     H 8507   5.646   4.802   4.336  0.7331  0.3545 -0.0931
   62MOL0     H 8508   5.654   5.043   4.273 -0.3354 -0.6983  1.6147
   62MOL0     H 8509   5.519   5.012   4.167 -1.2136  2.8509  1.5320
   62MOL0     H 8510   5.418   5.111   4.357 -1.7266 -0.0119  3.0919
   62MOL0     H 8511   5.364   4.953   4.330  0.0325 -0.2456 -0.2005
   62MOL0     H 8512   5.401   5.026   4.564  1.5340 -0.3701  2.5043
   62MOL0     H 8513   5.495   4.878   4.509 -0.5234  0.0133 -3.0119
   62MOL0     H 8514   5.451   4.876   4.725 -0.3476  0.0665  1.9783
   62MOL0     H 8515   5.542   4.705   4.991 -2.1066 -2.5741 -1.9934
   62MOL0     H 8516   5.429   4.740   4.867 -2.5439  0.6621  2.0321
   62MOL0     H 8517   5.403   4.818   5.023 -0.2896  3.7502 -0.8987
   62MOL0     H 8518   5.867   4.910   5.334 -1.7266 -4.2430  3.6544
   62MOL0     H 8519   5.912   4.952   5.567 -0.7591 -1.2161 -1.1704
   62MOL0     H 8520   5.711   5.216   5.901 -1.7399 -1.1181  1.6493
   62MOL0     H 8521   5.589   5.214   5.778 -1.6115 -2.2682 -0.8388
   62MOL0     H 8522   5.524   5.027   5.915  0.1368  1.3485  1.0733
   62MOL0     H 8523   5.621   4.948   5.796  0.5456  1.5566 -0.6706
   62MOL0     H 8524   5.668   4.882   6.021  1.9564 -0.4718 -1.6393
   62MOL0     H 8525   5.700   5.039   6.080 -0.0137 -1.7657  0.7325
   62MOL0     H 8526   5.914   5.016   5.931 -1.9663  1.9511  1.6847
   62MOL0     H 8527   5.855   4.852   5.882 -1.2624 -1.0461  1.5781
   62MOL0     H 8528   5.890   4.933   6.171  2.2894 -0.5852  1.2236
   62MOL0     H 8529   5.873   4.766   6.113  2.8451 -1.4268  1.6246
   62MOL0     H 8530   6.101   4.925   6.001 -5.4343  3.3602  0.2367
   62MOL0     H 8531   6.083   4.762   6.014 -0.0541  0.3534  0.6691
   62MOL0     H 8532   6.086   4.788   6.270 -3.1104  3.1045  0.1270
   62MOL0     H 8533   6.167   4.948   6.255 -1.6459  0.3563  1.3279
   62MOL0     H 8534   6.347   4.883   6.133 -0.2306  2.9251  2.4832
   62MOL0     H 8535   6.300   4.708   6.127 -0.4387 -0.7707  1.8620
   62MOL0     H 8536   5.586   5.240   5.560 -2.4444 -0.7102 -1.8730
   62MOL0     H 8537   5.581   5.222   5.324 -2.5470 -1.3686  2.0360
   62MOL0     H 8538   5.783   5.156   4.958  0.0457  1.4973 -1.1436
   62MOL0     H 8539   5.746   5.197   4.720  1.7299  0.5638  2.8467
   62MOL0     H 8540   5.387   3.886   3.569  1.6209  0.4076 -4.4288
   62MOL0     H 8541   5.431   3.805   3.362  1.0223  2.3461  4.2079
   62MOL0     H 8542   5.597   3.606   2.959  1.3858 -1.0786 -1.2020
   62MOL0     H 8543   5.589   3.536   2.719  0.0431  1.2349 -0.0985
   62MOL0     H 8544   5.433   3.575   2.480 -0.9821 -0.1425 -2.0202
   62MOL0     H 8545   5.550   3.454   2.509  0.4386  1.5753 -0.7084
   62MOL0     H 8546   5.327   3.472   2.311 -1.4798 -0.9869  0.0275
   62MOL0     H 8547   5.368   3.300   2.355  0.6997 -0.6515  2.2584
   62MOL0     H 8548   5.578   3.478   2.245  0.1415 -0.4879 -3.0082
   62MOL0     H 8549   5.581   3.305   2.291  0.8644 -0.3648 -1.4071
   62MOL0     H 8550   5.430   3.268   2.089 -0.9921 -0.0779  1.1364
   62MOL0     H 8551   5.565   3.375   2.035 -1.4889 -1.1970 -1.2723
   62MOL0     H 8552   5.240   3.630   1.974 -0.3073  0.3531  1.2793
   62MOL0     H 8553   5.180   3.461   2.760  0.9081 -2.6395  0.7613
   62MOL0     H 8554   5.064   3.553   3.007 -2.5091 -1.5973  0.4068
   62MOL0     H 8555   5.092   3.396   2.956  2.7515 -1.5428 -1.1152
   62MOL0     H 8556   5.154   3.444   3.114 -0.6224 -0.6711  0.8897
   63MOL0     O 8557   5.832   7.124   0.834 -0.2424  0.6973 -0.5174
   63MOL0     C 8558   5.717   7.076   0.824 -0.5452 -0.5615 -0.5650
   63MOL0     O 8559   5.611   7.140   0.766 -0.7637  0.1576 -0.1885
   63MOL0     C 8560   5.634   7.271   0.724  1.2438 -0.0714  0.4767
   63MOL0     C 8561   5.649   7.371   0.825  0.0927 -0.0856  0.2233
   63MOL0     C 8562   5.681   7.510   0.794 -0.5552 -0.1550 -0.3571
   63MOL0     C 8563   5.694   7.540   0.659 -0.1004 -0.0075 -0.6320
   63MOL0     O 8564   5.738   7.661   0.607  0.2457  0.1721 -1.4466
   63MOL0     C 8565   5.857   7.706   0.672  0.3664 -0.2243 -1.2881
   63MOL0     C 8566   5.896   7.845   0.622 -0.4450 -0.6523  0.8946
   63MOL0     C 8567   5.884   7.854   0.464  0.2937 -0.3042 -0.3953
   63MOL0     C 8568   5.949   7.986   0.416 -0.1202  0.7377 -0.1193
   63MOL0     C 8569   5.892   8.023   0.284  1.1831  0.7408 -0.0650
   63MOL0     C 8570   5.935   7.944   0.162 -0.0781  0.2275  0.1602
   63MOL0     C 8571   6.081   7.969   0.119  0.4286 -0.3977 -0.1881
   63MOL0     C 8572   6.094   8.094   0.034 -0.0162 -1.9763 -0.0211
   63MOL0     N 8573   6.237   8.127   0.015  0.4333 -0.3609 -0.8231
   63MOL0     C 8574   6.326   8.163   0.117  0.6099  0.6930  0.0389
   63MOL0     C 8575   6.441   8.162   0.046 -0.2371 -0.8908 -0.5935
   63MOL0     C 8576   6.573   8.162   0.127  0.2457  0.0987 -0.2835
   63MOL0     C 8577   6.703   8.206   0.059  0.2264  0.2998 -0.6337
   63MOL0     C 8578   6.669   8.346   0.006  0.1667 -0.0782  0.2159
   63MOL0     C 8579   6.787   8.431  -0.021  0.3711  0.2950  0.0467
   63MOL0     O 8580   6.849   8.463   0.108 -0.1059  0.6020  0.0665
   63MOL0     C 8581   6.870   8.594   0.151 -0.4443  0.2599 -0.4792
   63MOL0     C 8582   6.974   8.617   0.232  0.3116 -0.9072  0.1586
   63MOL0     C 8583   7.001   8.739   0.296 -0.1649  0.4100  0.4542
   63MOL0     C 8584   7.122   8.747   0.387 -0.6054 -0.0298 -0.6127
   63MOL0     C 8585   6.915   8.849   0.274  0.4114  0.5369  0.3238
   63MOL0     C 8586   6.937   8.984   0.338 -0.6366 -0.2467 -0.0902
   63MOL0     O 8587   7.010   9.001   0.444  0.3363 -0.0628 -0.0804
   63MOL0     C 8588   7.041   9.125   0.483 -0.5420  0.8814 -0.0852
   63MOL0     C 8589   6.942   9.220   0.517 -0.3983  0.8660 -0.1207
   63MOL0     C 8590   6.976   9.347   0.564 -0.5504 -0.1303  0.3592
   63MOL0     C 8591   7.112   9.387   0.570  0.4076  0.9927 -0.0797
   63MOL0     O 8592   7.168   9.511   0.600 -0.0675  0.4151 -0.1649
   63MOL0     C 8593   7.109   9.591   0.706  0.6815 -0.0040 -0.3080
   63MOL0     C 8594   7.115   9.737   0.659 -0.5738  0.4029 -0.8140
   63MOL0     C 8595   7.053   9.764   0.527 -0.0436 -0.3255 -0.3788
   63MOL0     C 8596   7.057   9.918   0.504  0.2001  0.3024 -0.4182
   63MOL0     C 8597   6.981   9.953   0.375  0.1188 -0.8963 -1.3722
   63MOL0     C 8598   7.008  10.097   0.342 -0.7470  0.0824 -0.9479
   63MOL0     C 8599   6.993  10.128   0.197  0.3149 -0.4762  0.7283
   63MOL0     C 8600   6.972  10.277   0.161  0.1934 -0.3551  0.6288
   63MOL0    Cl 8601   7.106  10.376   0.239 -0.2355  0.2186 -0.1250
   63MOL0     C 8602   7.210   9.299   0.522  0.4746  0.3595  0.0712
   63MOL0     C 8603   7.175   9.170   0.491  0.1880  0.6811  0.4931
   63MOL0     O 8604   6.887   9.073   0.278  0.2028 -0.4595 -0.0158
   63MOL0     C 8605   6.803   8.828   0.193 -0.6554 -0.0554  0.2148
   63MOL0     C 8606   6.783   8.705   0.127  0.5604 -0.1230  0.0964
   63MOL0     N 8607   6.431   8.119  -0.085 -0.9173 -0.0288 -0.8753
   63MOL0     N 8608   6.306   8.093  -0.101 -0.3852  0.3195 -0.0185
   63MOL0     C 8609   5.642   7.446   0.565 -0.3669  0.9254  0.6464
   63MOL0     C 8610   5.617   7.315   0.597 -0.5315  0.4171 -0.4896
   63MOL0     C 8611   5.695   6.940   0.886  0.2919 -0.6418  0.5951
   63MOL0     C 8612   5.593   6.856   0.827 -0.4615  0.3132 -0.2819
   63MOL0     C 8613   5.568   6.728   0.872 -0.9602 -0.6536  0.3772
   63MOL0     C 8614   5.650   6.678   0.973  0.4715  0.6442  0.4176
   63MOL0     O 8615   5.639   6.549   1.028 -1.1052  0.3624 -0.6281
   63MOL0     C 8616   5.563   6.460   0.953 -0.5016 -0.0313 -0.4450
   63MOL0     C 8617   5.529   6.343   1.041 -0.2736  0.7618 -0.5595
   63MOL0     C 8618   5.457   6.229   0.980  0.6379  0.3442  0.8059
   63MOL0     C 8619   5.420   6.121   1.082  0.0359  0.0537  0.7842
   63MOL0     C 8620   5.540   6.054   1.130 -0.9986 -0.3000 -0.4519
   63MOL0     C 8621   5.631   6.019   1.202 -0.1923  0.0889 -0.3059
   63MOL0     C 8622   5.742   6.756   1.030 -0.3902 -0.3962 -0.8961
   63MOL0     C 8623   5.771   6.883   0.991 -0.4415  0.4050 -0.3038
   63MOL0     C 8624   5.867   6.948   1.081 -0.0818 -0.0540  0.0798
   63MOL0     H 8625   5.662   7.354   0.931  1.4637  1.7090  0.3768
   63MOL0     H 8626   5.688   7.594   0.862 -1.0801 -2.3081  2.4990
   63MOL0     H 8627   5.936   7.635   0.645  0.0361 -0.0604 -2.7935
   63MOL0     H 8628   5.838   7.718   0.779 -0.0406  2.3786 -1.5991
   63MOL0     H 8629   5.834   7.923   0.667  0.0003  2.1661 -2.9070
   63MOL0     H 8630   5.999   7.876   0.640  0.3949 -2.2228 -0.9175
   63MOL0     H 8631   5.918   7.767   0.407 -0.6893  0.8643 -2.9465
   63MOL0     H 8632   5.777   7.865   0.445  1.0716  2.4693 -4.2200
   63MOL0     H 8633   5.925   8.062   0.491  0.3193 -0.2259  1.0348
   63MOL0     H 8634   6.058   7.976   0.410 -0.2725 -0.5495 -4.9307
   63MOL0     H 8635   5.930   8.125   0.268 -0.1606  1.3860  0.6873
   63MOL0     H 8636   5.783   8.017   0.286  1.2414 -1.4153  2.4417
   63MOL0     H 8637   5.916   7.841   0.193 -1.4160  1.0597  2.3016
   63MOL0     H 8638   5.860   7.965   0.085 -0.4419  1.0296  0.7217
   63MOL0     H 8639   6.115   7.886   0.057 -2.4668  0.1494 -2.7397
   63MOL0     H 8640   6.151   7.970   0.204  0.0229 -1.2719  0.1679
   63MOL0     H 8641   6.044   8.070  -0.061 -0.6056  0.7954 -0.5094
   63MOL0     H 8642   6.027   8.174   0.068  0.6506 -2.7650  3.5234
   63MOL0     H 8643   6.318   8.154   0.225  0.3965 -1.7752 -0.1150
   63MOL0     H 8644   6.591   8.061   0.165 -1.2042  0.5623  1.7869
   63MOL0     H 8645   6.552   8.219   0.218  2.4361 -0.2817  0.5286
   63MOL0     H 8646   6.779   8.205   0.138 -1.7193  2.6166  1.4251
   63MOL0     H 8647   6.724   8.136  -0.023  0.4169  1.0454 -1.2244
   63MOL0     H 8648   6.609   8.336  -0.085  1.7815  1.7073 -1.1136
   63MOL0     H 8649   6.602   8.396   0.076 -1.5118 -1.2828 -0.4494
   63MOL0     H 8650   6.861   8.378  -0.082  0.3476  0.3378 -0.0182
   63MOL0     H 8651   6.755   8.524  -0.068 -1.7557 -0.1251  0.5804
   63MOL0     H 8652   7.038   8.530   0.240 -1.0904 -2.0217 -0.4792
   63MOL0     H 8653   7.099   8.740   0.494  0.4494  0.8215 -0.3059
   63MOL0     H 8654   7.169   8.844   0.369 -2.8623  0.6841 -3.2136
   63MOL0     H 8655   7.202   8.675   0.364 -0.5741  0.8349 -3.6575
   63MOL0     H 8656   6.839   9.194   0.493 -0.8510  0.9046  1.6886
   63MOL0     H 8657   6.907   9.420   0.605  0.0621  2.5323 -2.8820
   63MOL0     H 8658   7.003   9.567   0.718  0.3993  0.7524 -1.1504
   63MOL0     H 8659   7.163   9.569   0.798  1.7532  2.0153 -0.4126
   63MOL0     H 8660   7.071   9.797   0.739 -0.7745 -0.1501 -0.5014
   63MOL0     H 8661   7.216   9.772   0.637  0.2949  0.0091  2.1176
   63MOL0     H 8662   6.945   9.749   0.529  0.0688 -1.3903  2.3814
   63MOL0     H 8663   7.093   9.716   0.437  1.3125 -0.5880  0.3340
   63MOL0     H 8664   7.163   9.943   0.494  1.1830 -3.3261 -0.4549
   63MOL0     H 8665   7.005   9.966   0.587  0.6269 -1.7622  1.1436
   63MOL0     H 8666   7.029   9.896   0.295  0.6008  1.6120 -2.9588
   63MOL0     H 8667   6.873   9.933   0.381  0.0414 -0.2841 -0.6412
   63MOL0     H 8668   7.110  10.115   0.376  0.0800 -0.9932 -2.6644
   63MOL0     H 8669   6.959  10.161   0.416  0.7523 -0.8682  0.9470
   63MOL0     H 8670   6.908  10.073   0.156 -1.0723  1.9806  0.1170
   63MOL0     H 8671   7.080  10.087   0.145  0.9353  1.3689  0.2372
   63MOL0     H 8672   6.885  10.307   0.219 -0.2621  1.4263 -0.8681
   63MOL0     H 8673   6.957  10.306   0.057 -1.9858  1.0688  1.2868
   63MOL0     H 8674   7.312   9.335   0.513  0.9129  0.0955  2.9444
   63MOL0     H 8675   7.241   9.096   0.447 -2.7579 -3.1033  1.7936
   63MOL0     H 8676   6.732   8.909   0.182 -1.7970 -1.2101 -1.3691
   63MOL0     H 8677   6.693   8.707   0.066 -0.6663 -1.5961  1.7404
   63MOL0     H 8678   5.632   7.467   0.459 -0.9463 -1.0576  0.2551
   63MOL0     H 8679   5.592   7.242   0.520 -1.3052  2.3098 -2.1269
   63MOL0     H 8680   5.529   6.889   0.746 -0.6856 -2.1667 -1.2012
   63MOL0     H 8681   5.491   6.671   0.822  0.7000 -3.7296  1.0437
   63MOL0     H 8682   5.467   6.507   0.930 -1.2050 -0.1139  2.0519
   63MOL0     H 8683   5.629   6.438   0.869 -0.1848 -0.2114 -0.1480
   63MOL0     H 8684   5.495   6.381   1.137  2.8878  2.1608  0.1555
   63MOL0     H 8685   5.624   6.295   1.067  0.7810  2.8650 -0.3120
   63MOL0     H 8686   5.369   6.252   0.918  0.9377 -2.4443 -0.8302
   63MOL0     H 8687   5.523   6.179   0.908 -0.4927  1.1439 -0.8615
   63MOL0     H 8688   5.361   6.048   1.027  0.4540  1.4489 -1.7027
   63MOL0     H 8689   5.371   6.162   1.170  2.9503  2.6204  1.3839
   63MOL0     H 8690   5.705   5.992   1.275 -2.4265  3.4510  3.6089
   63MOL0     H 8691   5.802   6.716   1.111  1.3064  2.3126 -0.6817
   63MOL0     H 8692   5.907   6.876   1.153 -0.1345 -0.1223  0.0401
   63MOL0     H 8693   5.952   7.006   1.042  1.5874 -3.6246 -2.0698
   63MOL0     H 8694   5.811   7.018   1.144  1.6867  1.5884 -0.0444
   64MOL0     O 8695   7.782   6.683   9.648  0.0519 -0.0916  0.6730
   64MOL0     C 8696   7.820   6.629   9.543 -0.9141  0.5245 -0.1757
   64MOL0     O 8697   7.836   6.490   9.517  0.2922  1.0059 -0.5503
   64MOL0     C 8698   7.772   6.418   9.618 -1.5832 -0.6571  0.4036
   64MOL0     C 8699   7.643   6.373   9.590 -0.1295  1.2565  0.3375
   64MOL0     C 8700   7.568   6.318   9.703 -0.2063 -0.6166  0.8097
   64MOL0     C 8701   7.633   6.282   9.821  0.5710 -0.9816  0.0717
   64MOL0     O 8702   7.543   6.219   9.899 -0.2315  0.0389 -0.1584
   64MOL0     C 8703   7.571   6.197  10.041 -0.0737 -0.9182  0.1354
   64MOL0     C 8704   7.584   6.335  10.118 -0.5389  0.0294  0.0854
   64MOL0     C 8705   7.571   6.315  10.268 -0.1201 -0.3228  0.9886
   64MOL0     C 8706   7.679   6.229  10.332 -0.0783  0.1325  0.3418
   64MOL0     C 8707   7.643   6.227  10.480 -0.3299  0.4771  0.2694
   64MOL0     C 8708   7.753   6.165  10.564 -0.6561  0.1173  1.1207
   64MOL0     C 8709   7.735   6.185  10.721 -0.0699 -0.6450  0.2326
   64MOL0     C 8710   7.765   6.051  10.800 -0.0993  0.1204  0.3625
   64MOL0     N 8711   7.663   5.950  10.782  0.3867  0.4890 -0.7321
   64MOL0     C 8712   7.532   5.935  10.838 -1.0526 -0.1335 -0.0094
   64MOL0     C 8713   7.489   5.812  10.806  0.1676 -0.7416 -0.6615
   64MOL0     C 8714   7.375   5.754  10.873 -0.1704  0.4299 -0.3976
   64MOL0     C 8715   7.427   5.710  11.012  0.2088  0.5292  0.2086
   64MOL0     C 8716   7.302   5.672  11.101 -0.3743  0.5365 -0.9376
   64MOL0     C 8717   7.352   5.592  11.220  0.0559 -0.0209 -0.0697
   64MOL0     O 8718   7.366   5.459  11.165 -0.2787  0.4315  0.5237
   64MOL0     C 8719   7.413   5.357  11.237 -0.4409  0.4197  0.5816
   64MOL0     C 8720   7.427   5.343  11.379  0.7092  0.8391  0.0943
   64MOL0     C 8721   7.480   5.225  11.432 -0.7199 -0.3016  0.3566
   64MOL0     C 8722   7.491   5.210  11.584  0.5439  0.3640  0.5321
   64MOL0     C 8723   7.507   5.110  11.345  0.4397 -0.1787  0.5778
   64MOL0     C 8724   7.565   4.982  11.400  0.6613  0.4312  0.5772
   64MOL0     O 8725   7.511   4.930  11.506 -0.3971  0.1197 -0.4075
   64MOL0     C 8726   7.588   4.860  11.598 -0.6504  0.1768  0.6785
   64MOL0     C 8727   7.524   4.773  11.689 -0.0713  0.1346  0.1540
   64MOL0     C 8728   7.586   4.711  11.791  0.1049  0.1481 -0.1432
   64MOL0     C 8729   7.723   4.740  11.819  0.6330  0.5451 -0.2486
   64MOL0     O 8730   7.778   4.665  11.921 -0.0639 -0.3976  0.3751
   64MOL0     C 8731   7.924   4.655  11.935  1.1913  0.2736  0.0879
   64MOL0     C 8732   7.930   4.578  12.064 -0.1790 -0.1334  0.3782
   64MOL0     C 8733   8.071   4.596  12.121 -0.0213 -0.0560  0.6489
   64MOL0     C 8734   8.111   4.496  12.225  0.3417 -0.1350 -0.9338
   64MOL0     C 8735   8.256   4.514  12.286  0.1549 -0.4018 -0.1067
   64MOL0     C 8736   8.357   4.503  12.165  0.2936  0.3344 -0.6562
   64MOL0     C 8737   8.500   4.477  12.203 -0.6509 -0.9942 -0.4262
   64MOL0     C 8738   8.590   4.428  12.094  0.0685 -0.2425  0.4370
   64MOL0    Cl 8739   8.623   4.540  11.968  0.1126 -0.3064 -0.0672
   64MOL0     C 8740   7.789   4.828  11.741 -0.8382 -0.0000 -0.2894
   64MOL0     C 8741   7.725   4.873  11.625 -0.2495 -0.9741  0.3531
   64MOL0     O 8742   7.661   4.941  11.347  0.1354 -0.8174 -0.5021
   64MOL0     C 8743   7.494   5.132  11.201  0.0935  0.2496 -0.1944
   64MOL0     C 8744   7.442   5.249  11.155 -0.0979 -0.5774 -0.4500
   64MOL0     N 8745   7.585   5.759  10.717 -0.2968 -0.8327  0.2421
   64MOL0     N 8746   7.685   5.838  10.710  0.1857  0.3987 -0.7683
   64MOL0     C 8747   7.768   6.322   9.841  0.3494 -0.0241  0.0454
   64MOL0     C 8748   7.840   6.384   9.739  0.1068  0.9154  0.2979
   64MOL0     C 8749   7.888   6.707   9.437  0.8542  0.9005  0.8988
   64MOL0     C 8750   7.869   6.670   9.300  0.4877 -0.3933 -0.3482
   64MOL0     C 8751   7.918   6.739   9.189 -0.5358 -0.3486  1.1595
   64MOL0     C 8752   7.993   6.854   9.208  0.0512 -0.4165  0.3965
   64MOL0     O 8753   8.038   6.936   9.106  0.1040 -0.7532 -0.0087
   64MOL0     C 8754   8.022   6.900   8.965  0.0709 -0.2430 -1.1500
   64MOL0     C 8755   8.101   7.015   8.907 -0.1108 -0.1438  0.0498
   64MOL0     C 8756   8.110   7.014   8.753  0.5307  0.8756  0.2635
   64MOL0     C 8757   7.992   6.953   8.679  0.2083  0.3195 -0.3920
   64MOL0     C 8758   7.856   7.006   8.703  1.3216  0.1526  0.0853
   64MOL0     C 8759   7.754   7.059   8.736  0.2014 -0.5138  0.9915
   64MOL0     C 8760   8.004   6.898   9.339 -0.0558 -1.1464  1.1992
   64MOL0     C 8761   7.960   6.825   9.452  0.1778  0.0771 -0.1720
   64MOL0     C 8762   7.996   6.884   9.587 -0.5605 -0.4644 -0.0191
   64MOL0     H 8763   7.593   6.383   9.494 -2.5006 -0.3132  1.3096
   64MOL0     H 8764   7.465   6.295   9.675 -0.3430  1.0837 -0.1774
   64MOL0     H 8765   7.664   6.143  10.063 -0.7448 -2.6918 -1.1467
   64MOL0     H 8766   7.486   6.142  10.082 -2.6118  1.4199 -1.6769
   64MOL0     H 8767   7.680   6.383  10.099 -1.1219 -0.0579 -3.8091
   64MOL0     H 8768   7.510   6.412  10.094 -1.9645 -0.8988  1.3053
   64MOL0     H 8769   7.580   6.418  10.304  1.4664  0.0975 -0.5041
   64MOL0     H 8770   7.469   6.281  10.290 -1.4231 -0.0344 -3.5656
   64MOL0     H 8771   7.688   6.133  10.280  0.5280  1.6792 -2.6448
   64MOL0     H 8772   7.769   6.291  10.325 -0.1590  0.1481 -0.7156
   64MOL0     H 8773   7.547   6.175  10.490 -2.0930  3.1207 -1.6460
   64MOL0     H 8774   7.604   6.322  10.515 -1.6384  0.4935 -1.1599
   64MOL0     H 8775   7.760   6.062  10.530  0.1007  0.9388 -1.5184
   64MOL0     H 8776   7.850   6.210  10.540 -1.3125  0.0929 -2.0650
   64MOL0     H 8777   7.637   6.227  10.748 -0.6965 -1.0632 -1.2693
   64MOL0     H 8778   7.813   6.251  10.759 -1.0092  1.7231 -1.6393
   64MOL0     H 8779   7.859   6.013  10.760 -0.9109  0.9509 -2.6177
   64MOL0     H 8780   7.781   6.081  10.904  0.3327  2.0554 -0.2188
   64MOL0     H 8781   7.479   5.998  10.909 -0.0038 -1.5352  2.1252
   64MOL0     H 8782   7.348   5.665  10.815  1.9291 -0.8663  0.4901
   64MOL0     H 8783   7.294   5.825  10.887 -1.6921 -1.1729 -0.7082
   64MOL0     H 8784   7.491   5.628  10.980  1.2311  1.3247  0.1905
   64MOL0     H 8785   7.472   5.799  11.057 -3.7002  3.0109 -0.2957
   64MOL0     H 8786   7.263   5.767  11.139 -1.5743 -0.5852  0.7948
   64MOL0     H 8787   7.230   5.622  11.035 -0.6544 -0.1851 -0.1152
   64MOL0     H 8788   7.442   5.633  11.267  1.2652  0.6826 -2.7858
   64MOL0     H 8789   7.273   5.585  11.296 -2.5942 -0.9651 -2.7307
   64MOL0     H 8790   7.411   5.434  11.436  2.0717  3.7146 -3.6482
   64MOL0     H 8791   7.567   5.134  11.604 -0.0646 -0.4722 -0.2700
   64MOL0     H 8792   7.395   5.178  11.626  0.8627 -3.0023 -0.9618
   64MOL0     H 8793   7.526   5.297  11.641  0.3314  0.1945  0.9225
   64MOL0     H 8794   7.419   4.747  11.680  0.5363 -2.5721 -0.0087
   64MOL0     H 8795   7.544   4.640  11.861  2.3772  0.4910  1.6702
   64MOL0     H 8796   7.981   4.616  11.851  2.7149 -1.4669  1.8356
   64MOL0     H 8797   7.981   4.748  11.946  0.3969  1.1002 -2.2258
   64MOL0     H 8798   7.859   4.630  12.130  0.0426  1.2727 -0.4466
   64MOL0     H 8799   7.908   4.472  12.054  0.6325 -0.3840  1.1290
   64MOL0     H 8800   8.077   4.699  12.157 -0.6103 -0.4833  2.0629
   64MOL0     H 8801   8.133   4.573  12.035 -2.5062 -7.5918  0.1226
   64MOL0     H 8802   8.106   4.393  12.188 -1.1121 -0.9433  1.2600
   64MOL0     H 8803   8.040   4.503  12.308  3.2522 -0.5148  1.8163
   64MOL0     H 8804   8.275   4.606  12.342  0.5332 -2.0444  2.6630
   64MOL0     H 8805   8.269   4.442  12.368  0.2756 -0.3835 -0.1100
   64MOL0     H 8806   8.358   4.607  12.130  1.5090  0.6416  0.2391
   64MOL0     H 8807   8.325   4.432  12.087  1.2465  0.3357 -1.0645
   64MOL0     H 8808   8.484   4.418  12.294 -3.0105  2.3349  1.5367
   64MOL0     H 8809   8.539   4.572  12.243 -2.6939  1.5114 -3.8693
   64MOL0     H 8810   8.552   4.331  12.060  3.7514 -2.0035  0.8036
   64MOL0     H 8811   8.689   4.404  12.135  0.1651 -2.2544 -0.8559
   64MOL0     H 8812   7.892   4.850  11.767 -0.5528 -2.8259  1.4647
   64MOL0     H 8813   7.778   4.945  11.564 -0.7621 -0.4752  0.4810
   64MOL0     H 8814   7.524   5.056  11.129  0.6165  1.6762 -1.5339
   64MOL0     H 8815   7.426   5.248  11.047  3.0701 -3.1023 -1.0465
   64MOL0     H 8816   7.823   6.285   9.928  3.2006 -0.3558 -1.7590
   64MOL0     H 8817   7.938   6.427   9.755  0.2064  0.4935  0.8390
   64MOL0     H 8818   7.808   6.582   9.281 -0.9912  0.5326 -0.0734
   64MOL0     H 8819   7.895   6.706   9.088  1.7412  0.5994  0.2540
   64MOL0     H 8820   8.063   6.803   8.933 -1.3349 -1.4104  0.3666
   64MOL0     H 8821   7.914   6.901   8.947 -0.0506  1.2800 -0.4348
   64MOL0     H 8822   8.198   7.031   8.954  0.2937 -1.4241 -0.3067
   64MOL0     H 8823   8.043   7.105   8.930  0.5613  1.0263 -2.4828
   64MOL0     H 8824   8.124   7.115   8.712 -1.2555  0.8947 -0.3710
   64MOL0     H 8825   8.201   6.955   8.736  1.4318  2.5426 -1.0031
   64MOL0     H 8826   8.009   6.847   8.703  0.4044  0.8550  2.0882
   64MOL0     H 8827   8.010   6.963   8.572 -1.4932  0.8720 -0.6502
   64MOL0     H 8828   7.663   7.106   8.770 -1.1241 -2.9127  0.9800
   64MOL0     H 8829   8.050   6.996   9.352  1.6877 -1.9169  1.0669
   64MOL0     H 8830   8.010   6.808   9.664 -0.7265 -2.2614 -1.6733
   64MOL0     H 8831   8.091   6.934   9.565 -0.3467 -1.2699 -1.0108
   64MOL0     H 8832   7.929   6.962   9.625  2.2930  1.6276  1.0920
   65MOL0     O 8833   4.782   6.869  11.370  0.4375 -0.1378 -0.3652
   65MOL0     C 8834   4.864   6.796  11.425  0.7199 -0.9997  0.2633
   65MOL0     O 8835   4.993   6.791  11.390 -0.0512  0.1511  0.4717
   65MOL0     C 8836   5.061   6.884  11.308 -0.4699 -0.0221 -0.2609
   65MOL0     C 8837   5.018   7.013  11.267  0.5428  0.3356  0.9212
   65MOL0     C 8838   5.091   7.098  11.178 -0.4469  0.0885  0.1518
   65MOL0     C 8839   5.218   7.048  11.139 -0.7273 -0.3225 -0.7043
   65MOL0     O 8840   5.300   7.130  11.065 -0.1456  0.7471  0.0960
   65MOL0     C 8841   5.237   7.197  10.954  0.0846  0.3009 -0.2122
   65MOL0     C 8842   5.337   7.230  10.843  0.3976  0.3385  0.5025
   65MOL0     C 8843   5.276   7.294  10.722 -0.5601 -0.3157  0.3793
   65MOL0     C 8844   5.182   7.203  10.641 -0.5878 -0.4205 -0.1561
   65MOL0     C 8845   5.106   7.279  10.529  0.6070  0.4149  0.9168
   65MOL0     C 8846   4.971   7.340  10.574  0.1261 -0.1669 -0.0649
   65MOL0     C 8847   4.853   7.255  10.536  0.2342 -0.2523  0.5233
   65MOL0     C 8848   4.828   7.125  10.615 -0.0956  0.1708  0.5363
   65MOL0     N 8849   4.792   7.165  10.750  0.4803  0.4792  0.2678
   65MOL0     C 8850   4.670   7.205  10.772  0.1651 -0.9535  0.4496
   65MOL0     C 8851   4.677   7.233  10.908  0.6431  1.3180  0.0299
   65MOL0     C 8852   4.560   7.304  10.980 -0.6089  0.3859 -0.3634
   65MOL0     C 8853   4.624   7.443  11.017  0.0090  0.6133 -0.9780
   65MOL0     C 8854   4.581   7.491  11.149  0.1550  0.4282 -1.6805
   65MOL0     C 8855   4.653   7.421  11.270  0.3101  0.5133  0.2080
   65MOL0     O 8856   4.794   7.435  11.239 -0.1203  0.0240  0.0518
   65MOL0     C 8857   4.889   7.382  11.324  0.2265 -0.7855  0.4589
   65MOL0     C 8858   4.856   7.299  11.436 -0.0780 -0.8271  0.0599
   65MOL0     C 8859   4.957   7.252  11.510  0.5199  0.3408 -0.2306
   65MOL0     C 8860   4.920   7.177  11.634  0.6525 -0.0332 -0.1520
   65MOL0     C 8861   5.097   7.276  11.470  0.4705  0.2275 -1.3040
   65MOL0     C 8862   5.213   7.197  11.517 -0.7360  0.1552 -0.3559
   65MOL0     O 8863   5.198   7.071  11.575 -0.0636 -0.0448  0.6288
   65MOL0     C 8864   5.303   7.007  11.647  0.8472 -1.4520  1.0079
   65MOL0     C 8865   5.320   6.874  11.627  0.1152 -0.5524 -0.4813
   65MOL0     C 8866   5.423   6.814  11.698  0.1014  0.5503  0.1514
   65MOL0     C 8867   5.514   6.882  11.776  0.2606 -0.1926 -0.1598
   65MOL0     O 8868   5.614   6.811  11.846  0.4652 -0.2153  0.2214
   65MOL0     C 8869   5.670   6.866  11.969  0.1378  0.8338  1.0526
   65MOL0     C 8870   5.765   6.774  12.036  0.4425 -0.0271  0.0871
   65MOL0     C 8871   5.859   6.696  11.945 -0.6198  0.7138 -0.3132
   65MOL0     C 8872   5.949   6.598  12.034 -0.4933  0.0148  0.3152
   65MOL0     C 8873   5.871   6.472  12.064 -0.1702  0.9651 -0.6222
   65MOL0     C 8874   5.967   6.350  12.077  0.1296  0.3850 -0.4889
   65MOL0     C 8875   5.899   6.222  12.127 -0.1832  0.5376 -0.0938
   65MOL0     C 8876   5.986   6.098  12.114 -0.0373  0.0792  0.3165
   65MOL0    Cl 8877   6.014   6.053  11.935  0.1686 -0.0937  0.1232
   65MOL0     C 8878   5.495   7.018  11.791  0.6272  0.0423 -0.6348
   65MOL0     C 8879   5.387   7.086  11.730  0.1888 -0.4140 -0.8974
   65MOL0     O 8880   5.325   7.253  11.502 -0.4362 -0.3984  0.2619
   65MOL0     C 8881   5.117   7.374  11.375  0.9608  0.2112  0.1401
   65MOL0     C 8882   5.015   7.418  11.293 -0.2415 -0.5112 -0.1133
   65MOL0     N 8883   4.807   7.205  10.957  0.0668 -0.2524  0.2008
   65MOL0     N 8884   4.872   7.169  10.855  0.6893  0.7867 -0.6085
   65MOL0     C 8885   5.267   6.926  11.187  0.3874 -0.3696  0.4076
   65MOL0     C 8886   5.191   6.842  11.265 -0.7178  0.0639  0.0379
   65MOL0     C 8887   4.807   6.677  11.497  1.1751 -0.0033  0.2194
   65MOL0     C 8888   4.837   6.548  11.458 -0.7057  0.7164 -0.4711
   65MOL0     C 8889   4.786   6.433  11.514 -0.4244  0.4151 -0.6091
   65MOL0     C 8890   4.684   6.444  11.611 -0.0954 -0.2738  0.2448
   65MOL0     O 8891   4.629   6.342  11.679  0.1293  0.5774 -0.2595
   65MOL0     C 8892   4.696   6.211  11.697 -1.3097  0.3939  0.0295
   65MOL0     C 8893   4.622   6.124  11.600  0.0431  0.2111 -0.1261
   65MOL0     C 8894   4.720   6.006  11.563 -0.6757  0.3384 -0.6839
   65MOL0     C 8895   4.631   5.882  11.529 -0.3054 -0.3066  1.2877
   65MOL0     C 8896   4.717   5.795  11.444 -0.5013  0.2894  0.3355
   65MOL0     C 8897   4.796   5.716  11.391  0.1229 -0.6846 -0.0593
   65MOL0     C 8898   4.661   6.576  11.665 -0.9309 -0.1531 -0.1560
   65MOL0     C 8899   4.721   6.692  11.608  0.9063  0.3690  0.0704
   65MOL0     C 8900   4.700   6.817  11.678  0.2706 -1.2096 -0.2649
   65MOL0     H 8901   4.916   7.038  11.294  0.4428  0.1057  0.7672
   65MOL0     H 8902   5.043   7.186  11.137 -1.9018 -0.5600  0.4200
   65MOL0     H 8903   5.183   7.290  10.973  1.5469  0.9302  1.1294
   65MOL0     H 8904   5.166   7.121  10.920  2.5792 -3.1045  1.5532
   65MOL0     H 8905   5.407   7.301  10.888  0.7166 -0.8857  2.0381
   65MOL0     H 8906   5.386   7.134  10.823 -3.7420 -1.8688 -0.1200
   65MOL0     H 8907   5.212   7.376  10.756 -0.3236  1.4892 -3.0204
   65MOL0     H 8908   5.359   7.336  10.666 -0.2198 -1.4918 -0.0354
   65MOL0     H 8909   5.240   7.118  10.605 -3.3200 -1.8401 -1.4794
   65MOL0     H 8910   5.100   7.161  10.701 -1.2085  2.7780  1.4764
   65MOL0     H 8911   5.084   7.205  10.452  1.2583 -0.3176  1.4132
   65MOL0     H 8912   5.175   7.355  10.491  2.6266 -0.3354  2.8632
   65MOL0     H 8913   4.983   7.362  10.680  1.7333 -1.1041 -0.0244
   65MOL0     H 8914   4.962   7.438  10.526  1.2709  0.2461  0.5335
   65MOL0     H 8915   4.857   7.222  10.432  2.2531 -1.1479  0.8344
   65MOL0     H 8916   4.760   7.313  10.535 -0.3169 -0.9559 -3.2891
   65MOL0     H 8917   4.740   7.075  10.573  0.2127  1.4236 -1.7267
   65MOL0     H 8918   4.911   7.054  10.612 -1.3948 -1.4599  1.4785
   65MOL0     H 8919   4.580   7.233  10.717 -0.1408  0.8905  1.7814
   65MOL0     H 8920   4.545   7.253  11.076  2.3897  1.7922  1.0001
   65MOL0     H 8921   4.462   7.311  10.933 -0.1320 -0.3207 -1.5028
   65MOL0     H 8922   4.733   7.453  11.007  0.8057 -4.1226  0.4631
   65MOL0     H 8923   4.579   7.518  10.951 -0.0291  2.9347  1.5234
   65MOL0     H 8924   4.612   7.596  11.150  0.9181  0.3547  2.6868
   65MOL0     H 8925   4.472   7.482  11.154  0.3405 -2.4416  2.5414
   65MOL0     H 8926   4.634   7.481  11.359  2.5777  1.9655 -0.2007
   65MOL0     H 8927   4.627   7.315  11.278 -1.8137  0.6704 -2.8521
   65MOL0     H 8928   4.751   7.278  11.453 -0.1117  0.1058  1.1190
   65MOL0     H 8929   4.812   7.177  11.652  0.8408  1.6678  1.2210
   65MOL0     H 8930   4.970   7.212  11.725  2.0888 -2.8164  0.2456
   65MOL0     H 8931   4.939   7.070  11.620 -2.3894 -0.5306 -1.3166
   65MOL0     H 8932   5.243   6.820  11.572  1.1148 -3.7193  1.0034
   65MOL0     H 8933   5.438   6.707  11.688  2.1329  0.7863  0.2594
   65MOL0     H 8934   5.735   6.944  11.928  0.7992 -1.6617 -3.2328
   65MOL0     H 8935   5.605   6.908  12.046  0.9032  1.1660  1.5321
   65MOL0     H 8936   5.827   6.833  12.104  2.1888 -1.1606 -0.4499
   65MOL0     H 8937   5.704   6.701  12.091  0.7858  0.3398  0.9742
   65MOL0     H 8938   5.925   6.763  11.889 -2.4595  1.4388 -1.7180
   65MOL0     H 8939   5.805   6.635  11.871  0.5762  2.8630 -3.1642
   65MOL0     H 8940   5.972   6.644  12.131 -0.3347 -1.2876  0.9100
   65MOL0     H 8941   6.026   6.589  11.957 -0.5684  3.0456 -0.2385
   65MOL0     H 8942   5.814   6.484  12.156  0.0720  1.1095 -0.4919
   65MOL0     H 8943   5.804   6.440  11.983  2.9351 -2.9010 -1.9774
   65MOL0     H 8944   6.049   6.369  12.146 -0.2467 -3.2550  1.2234
   65MOL0     H 8945   6.013   6.328  11.980 -0.8344  2.3685 -1.4571
   65MOL0     H 8946   5.805   6.212  12.071  0.2194  2.5375 -1.2358
   65MOL0     H 8947   5.874   6.240  12.232 -0.5430  3.9205 -0.6415
   65MOL0     H 8948   5.921   6.020  12.156 -3.3514  2.5668  0.2054
   65MOL0     H 8949   6.080   6.101  12.170  0.0857 -1.0525  0.1980
   65MOL0     H 8950   5.569   7.070  11.851 -0.5333 -3.0320  3.9746
   65MOL0     H 8951   5.381   7.192  11.749  5.3982  0.1131 -0.6106
   65MOL0     H 8952   5.211   7.388  11.323  1.6861 -1.9807  0.7374
   65MOL0     H 8953   5.029   7.497  11.220 -2.8282  0.7015  0.6020
   65MOL0     H 8954   5.366   6.904  11.148  0.4670  1.4031 -0.5085
   65MOL0     H 8955   5.214   6.741  11.299 -0.5393 -1.0699 -3.0847
   65MOL0     H 8956   4.901   6.539  11.371 -0.2986  0.3870 -0.1430
   65MOL0     H 8957   4.817   6.332  11.486 -0.4957 -0.5976  2.5388
   65MOL0     H 8958   4.804   6.222  11.684 -1.2149 -0.4544  0.0530
   65MOL0     H 8959   4.676   6.170  11.796 -1.6154 -0.9688 -0.5788
   65MOL0     H 8960   4.594   6.179  11.510 -0.8468  0.5108  0.3164
   65MOL0     H 8961   4.527   6.095  11.646  0.4555  0.5891  0.9988
   65MOL0     H 8962   4.779   6.039  11.477  0.4074  1.8213  0.5766
   65MOL0     H 8963   4.796   5.981  11.638  0.0621  2.3664 -0.6918
   65MOL0     H 8964   4.537   5.914  11.484 -0.5789 -1.8852  0.6823
   65MOL0     H 8965   4.607   5.824  11.618 -1.2308 -1.8141  0.0856
   65MOL0     H 8966   4.859   5.665  11.322  0.8657 -1.2722  1.0315
   65MOL0     H 8967   4.599   6.586  11.753  0.0912  1.0823  0.4478
   65MOL0     H 8968   4.795   6.865  11.701 -0.3435 -1.1989  2.6774
   65MOL0     H 8969   4.639   6.878  11.611  1.6603  1.1266  0.4886
   65MOL0     H 8970   4.643   6.805  11.771  0.8811 -0.5894  0.1979
   66MOL0     O 8971   4.684   7.897   4.508 -0.1159 -0.0484  0.0906
   66MOL0     C 8972   4.767   7.811   4.541 -0.1863  0.0341  0.1894
   66MOL0     O 8973   4.739   7.676   4.528 -0.3241  1.0913  0.2460
   66MOL0     C 8974   4.610   7.629   4.520 -0.3811  0.2084  0.1037
   66MOL0     C 8975   4.516   7.661   4.426  0.4386  0.2495 -0.0550
   66MOL0     C 8976   4.392   7.604   4.430 -0.0383  0.3036 -0.3718
   66MOL0     C 8977   4.367   7.503   4.535  0.9444 -0.1814  0.3920
   66MOL0     O 8978   4.247   7.448   4.549  0.2944  0.0737 -0.0075
   66MOL0     C 8979   4.216   7.341   4.457 -0.2488  0.6133  0.8497
   66MOL0     C 8980   4.093   7.364   4.367  0.6685  0.5252 -0.7634
   66MOL0     C 8981   3.972   7.338   4.457 -0.4770 -0.4826  1.0881
   66MOL0     C 8982   3.840   7.390   4.393  0.0122 -0.7061 -0.7161
   66MOL0     C 8983   3.735   7.462   4.485  0.0305 -0.7752  0.4126
   66MOL0     C 8984   3.654   7.361   4.580  0.2406 -0.7499  0.0243
   66MOL0     C 8985   3.596   7.427   4.707 -0.3136  0.2165  0.3460
   66MOL0     C 8986   3.477   7.516   4.668 -0.2047 -0.2934  1.1742
   66MOL0     N 8987   3.408   7.565   4.792 -0.2405  0.0884  0.8970
   66MOL0     C 8988   3.373   7.693   4.832  0.1696 -0.9480 -0.5367
   66MOL0     C 8989   3.288   7.686   4.941  0.5198 -0.7515 -0.0091
   66MOL0     C 8990   3.215   7.786   5.019  0.3490 -0.1260 -0.2778
   66MOL0     C 8991   3.074   7.733   5.064  0.0186 -0.9489  0.0339
   66MOL0     C 8992   2.964   7.719   4.960 -0.3682 -0.0134  0.1393
   66MOL0     C 8993   2.847   7.631   4.989  0.9395  0.4410  0.7149
   66MOL0     O 8994   2.776   7.658   5.111 -0.0017 -0.0226  0.2164
   66MOL0     C 8995   2.652   7.609   5.138  0.4049 -0.7908  1.0775
   66MOL0     C 8996   2.571   7.544   5.045 -0.4969  0.8434 -0.0573
   66MOL0     C 8997   2.430   7.525   5.073  0.0855 -0.9080  0.3970
   66MOL0     C 8998   2.347   7.472   4.950  0.4787  0.3119  0.2915
   66MOL0     C 8999   2.378   7.555   5.201  0.9194 -0.4589  0.6333
   66MOL0     C 9000   2.238   7.529   5.247  0.1239  0.2506 -0.6430
   66MOL0     O 9001   2.195   7.618   5.346  0.4533  0.0315  0.0541
   66MOL0     C 9002   2.070   7.592   5.394 -0.3605  1.1280  0.4771
   66MOL0     C 9003   2.043   7.470   5.464 -0.3037 -0.3477 -0.0630
   66MOL0     C 9004   1.923   7.441   5.538 -0.1876 -0.1202 -0.6516
   66MOL0     C 9005   1.825   7.543   5.551 -0.1230  1.1108  0.0658
   66MOL0     O 9006   1.714   7.517   5.624  0.5799  0.3561 -0.5224
   66MOL0     C 9007   1.605   7.611   5.636  1.8291  0.6176  0.0716
   66MOL0     C 9008   1.509   7.559   5.743 -0.0543 -0.3217  0.0299
   66MOL0     C 9009   1.427   7.447   5.679 -0.2601 -0.8348  0.1762
   66MOL0     C 9010   1.304   7.417   5.766 -0.1863 -0.5130  1.2399
   66MOL0     C 9011   1.209   7.340   5.673 -0.0148  0.4868 -0.2108
   66MOL0     C 9012   1.067   7.324   5.731  0.0461  0.5719 -1.4514
   66MOL0     C 9013   0.966   7.262   5.631  0.1388 -0.6756  0.0187
   66MOL0     C 9014   0.975   7.116   5.656  0.0041 -0.2259  0.3679
   66MOL0    Cl 9015   0.866   7.030   5.531 -0.1787  0.2050 -0.2883
   66MOL0     C 9016   1.857   7.665   5.489 -0.3297  0.5648 -0.2314
   66MOL0     C 9017   1.973   7.686   5.412 -0.2304  1.4902 -0.5527
   66MOL0     O 9018   2.168   7.445   5.190  0.7066 -0.0608  0.3472
   66MOL0     C 9019   2.469   7.613   5.300  0.0542  0.0856  0.4071
   66MOL0     C 9020   2.603   7.646   5.259 -0.0956 -0.2747 -0.1101
   66MOL0     N 9021   3.269   7.546   4.963 -0.6473  0.1651  0.3261
   66MOL0     N 9022   3.341   7.482   4.876  0.4592  0.3041 -0.4196
   66MOL0     C 9023   4.458   7.468   4.627  0.6423 -0.9677 -0.3419
   66MOL0     C 9024   4.578   7.537   4.624  0.3606 -0.6911  0.2614
   66MOL0     C 9025   4.898   7.865   4.588 -0.0103 -0.3546  0.1253
   66MOL0     C 9026   4.941   7.987   4.548 -0.1861  0.4344  1.2454
   66MOL0     C 9027   5.074   8.030   4.578  0.7350  0.3731 -0.0702
   66MOL0     C 9028   5.153   7.955   4.651 -0.3349 -0.4139  0.0768
   66MOL0     O 9029   5.277   8.008   4.680 -0.2869  0.8344 -0.3355
   66MOL0     C 9030   5.306   8.025   4.814 -0.2900 -0.3486  0.4417
   66MOL0     C 9031   5.399   8.145   4.835 -0.4364  0.0784  0.8823
   66MOL0     C 9032   5.471   8.156   4.972 -0.6977  0.1132 -0.2999
   66MOL0     C 9033   5.574   8.272   4.962 -0.8135 -0.6656  0.4845
   66MOL0     C 9034   5.615   8.325   5.089  0.0546  0.2704 -0.4892
   66MOL0     C 9035   5.647   8.357   5.202  0.1843 -0.3852 -0.6634
   66MOL0     C 9036   5.105   7.831   4.697 -0.1141 -0.7264  0.0516
   66MOL0     C 9037   4.982   7.785   4.668 -0.2024  0.7440 -0.2220
   66MOL0     C 9038   4.941   7.658   4.737 -0.1714  0.6834 -0.3975
   66MOL0     H 9039   4.522   7.735   4.346 -3.9024  1.0063  0.0722
   66MOL0     H 9040   4.311   7.635   4.365  0.0821  0.3017 -0.5239
   66MOL0     H 9041   4.201   7.246   4.508  0.2507  0.0641 -0.0064
   66MOL0     H 9042   4.297   7.335   4.383 -0.7540 -3.0403  0.4108
   66MOL0     H 9043   4.082   7.467   4.335 -1.4586  1.0611  1.4358
   66MOL0     H 9044   4.100   7.308   4.273  0.5866 -0.4290 -0.2219
   66MOL0     H 9045   3.955   7.231   4.477  1.8485 -0.5101  3.3515
   66MOL0     H 9046   3.991   7.388   4.552  2.1227 -2.1085  1.5196
   66MOL0     H 9047   3.869   7.456   4.311  0.1317  2.8838  1.9787
   66MOL0     H 9048   3.801   7.299   4.345  2.4259 -2.5114  0.5139
   66MOL0     H 9049   3.662   7.519   4.426 -1.3823 -1.7757  1.1405
   66MOL0     H 9050   3.787   7.533   4.550 -1.8332 -0.1422  1.2836
   66MOL0     H 9051   3.578   7.329   4.509  0.8041  0.3378 -1.1256
   66MOL0     H 9052   3.717   7.275   4.604  0.4354 -0.4516  0.6299
   66MOL0     H 9053   3.671   7.491   4.754  1.2492 -1.6764  0.5830
   66MOL0     H 9054   3.570   7.352   4.782 -2.3285  0.5697  0.0535
   66MOL0     H 9055   3.501   7.602   4.605 -2.4243  0.5891  1.4376
   66MOL0     H 9056   3.396   7.460   4.621 -1.1042  2.5296 -0.8843
   66MOL0     H 9057   3.412   7.784   4.787 -0.6392 -2.3086 -4.4228
   66MOL0     H 9058   3.189   7.869   4.953  0.6635 -2.2236 -3.2349
   66MOL0     H 9059   3.266   7.810   5.113 -2.0649 -0.1233  1.1305
   66MOL0     H 9060   3.085   7.635   5.112  1.7844 -0.4539  0.7235
   66MOL0     H 9061   3.044   7.805   5.140 -0.1794  0.2431 -1.1437
   66MOL0     H 9062   2.917   7.812   4.928 -3.3295 -0.9122  1.5451
   66MOL0     H 9063   3.021   7.681   4.875 -0.9644  1.6273 -1.0424
   66MOL0     H 9064   2.772   7.637   4.909  0.8349 -1.0247  0.6738
   66MOL0     H 9065   2.886   7.529   4.985 -3.2238 -1.3856 -2.8295
   66MOL0     H 9066   2.608   7.517   4.947  1.1493  2.8129 -0.0446
   66MOL0     H 9067   2.401   7.499   4.859 -0.2455  3.7985  0.7561
   66MOL0     H 9068   2.246   7.512   4.946 -1.1450 -3.3985 -0.3719
   66MOL0     H 9069   2.336   7.363   4.954  0.9870  0.2412 -0.1205
   66MOL0     H 9070   2.125   7.399   5.455 -0.6629 -0.6296 -1.3365
   66MOL0     H 9071   1.920   7.345   5.588  0.5048  1.9549  3.8374
   66MOL0     H 9072   1.653   7.703   5.672  1.6093  1.5050 -1.7615
   66MOL0     H 9073   1.564   7.633   5.537 -0.6998 -2.4196  0.3074
   66MOL0     H 9074   1.552   7.514   5.832 -0.4172 -0.9777 -0.1171
   66MOL0     H 9075   1.432   7.634   5.762 -0.6841 -0.0006 -3.1349
   66MOL0     H 9076   1.491   7.359   5.669 -0.2711 -0.7349 -0.8221
   66MOL0     H 9077   1.381   7.473   5.583 -4.9042 -0.9168  2.0851
   66MOL0     H 9078   1.261   7.514   5.790  1.4312  0.6368 -0.2938
   66MOL0     H 9079   1.318   7.373   5.865 -3.3427  2.5624  3.3110
   66MOL0     H 9080   1.190   7.384   5.574 -2.3281  0.0858 -0.0070
   66MOL0     H 9081   1.244   7.238   5.660  0.1879  0.0457  3.0551
   66MOL0     H 9082   1.026   7.421   5.762  0.1078  0.7961 -2.0547
   66MOL0     H 9083   1.087   7.272   5.825 -2.1726  0.9139 -0.7227
   66MOL0     H 9084   0.987   7.295   5.529  1.5272 -1.6248 -0.0341
   66MOL0     H 9085   0.869   7.298   5.666  1.8253 -1.0843  6.4383
   66MOL0     H 9086   0.955   7.092   5.760 -3.4380  0.3004 -0.0477
   66MOL0     H 9087   1.079   7.083   5.645 -0.2806 -1.2288  0.6278
   66MOL0     H 9088   1.785   7.746   5.499  0.2034  0.9494  0.4973
   66MOL0     H 9089   1.986   7.788   5.379  0.6726  1.7528  0.5469
   66MOL0     H 9090   2.455   7.625   5.407  1.0228 -0.3256  0.5930
   66MOL0     H 9091   2.667   7.681   5.339  1.5085  1.9071 -2.1674
   66MOL0     H 9092   4.440   7.392   4.702 -0.3169  0.3750  0.8365
   66MOL0     H 9093   4.636   7.509   4.712 -2.5582 -1.3605  2.1096
   66MOL0     H 9094   4.878   8.057   4.494 -1.0134  1.1136  3.0235
   66MOL0     H 9095   5.106   8.122   4.530 -2.0686  1.2334 -0.4564
   66MOL0     H 9096   5.218   8.045   4.876 -0.5884 -4.3941  1.5410
   66MOL0     H 9097   5.367   7.938   4.837  0.9310  0.1402 -0.7950
   66MOL0     H 9098   5.332   8.229   4.816  2.9641  3.3645  2.0963
   66MOL0     H 9099   5.476   8.153   4.757 -0.7939 -1.7122  0.2925
   66MOL0     H 9100   5.393   8.172   5.048  0.8321  1.1421  1.1475
   66MOL0     H 9101   5.528   8.068   5.003 -0.0993  0.0586 -1.5015
   66MOL0     H 9102   5.527   8.351   4.903  3.7369  0.8691 -1.5360
   66MOL0     H 9103   5.658   8.261   4.894 -2.6929 -0.4703 -2.0253
   66MOL0     H 9104   5.696   8.385   5.293  1.5037 -1.9505 -0.8545
   66MOL0     H 9105   5.168   7.779   4.769  1.8069  1.6693  0.2111
   66MOL0     H 9106   4.920   7.582   4.661 -1.6775  0.3096  0.3603
   66MOL0     H 9107   5.011   7.622   4.812 -0.8260 -4.2254 -1.8000
   66MOL0     H 9108   4.848   7.659   4.794 -0.7856 -1.9920 -1.2174
   67MOL0     O 9109   9.328   6.845  11.128 -0.8385 -0.8203  1.1140
   67MOL0     C 9110   9.351   6.877  11.245 -0.1006  0.4736  0.1201
   67MOL0     O 9111   9.331   6.796  11.354  0.1358 -0.7547  0.6520
   67MOL0     C 9112   9.300   6.673  11.320 -0.0303 -0.3801  0.2668
   67MOL0     C 9113   9.401   6.584  11.296  0.2647  0.2300  0.6157
   67MOL0     C 9114   9.379   6.451  11.273  0.3517 -0.1147  0.0762
   67MOL0     C 9115   9.255   6.405  11.287  1.2504 -0.0856 -0.2529
   67MOL0     O 9116   9.234   6.274  11.251 -0.4666 -0.5163 -0.2245
   67MOL0     C 9117   9.142   6.196  11.330  0.0365  1.1917 -0.1124
   67MOL0     C 9118   9.151   6.049  11.262 -0.0576  0.1804  0.6494
   67MOL0     C 9119   9.087   6.038  11.122 -0.6363 -0.0596  0.4996
   67MOL0     C 9120   9.067   5.889  11.101  0.6464  0.8667  0.2728
   67MOL0     C 9121   9.037   5.887  10.942 -0.3242  0.9951 -0.5182
   67MOL0     C 9122   9.029   5.740  10.901  0.1328 -0.8071 -0.3501
   67MOL0     C 9123   8.983   5.708  10.756 -0.0762  0.1319  0.1882
   67MOL0     C 9124   8.828   5.692  10.732 -0.3361  0.6934  0.0779
   67MOL0     N 9125   8.761   5.823  10.735  0.1463  0.5137 -0.5342
   67MOL0     C 9126   8.772   5.935  10.659  0.4066 -0.1433 -0.3360
   67MOL0     C 9127   8.714   6.035  10.729 -0.2039 -0.4828 -0.4594
   67MOL0     C 9128   8.686   6.177  10.682  0.9103  0.5132  0.8430
   67MOL0     C 9129   8.535   6.185  10.634  1.0836 -1.2278  0.2866
   67MOL0     C 9130   8.491   6.325  10.590  0.3013 -0.1315  0.0423
   67MOL0     C 9131   8.553   6.396  10.474  0.7817  0.0820  0.0695
   67MOL0     O 9132   8.536   6.322  10.358  0.2000 -0.0006  1.1287
   67MOL0     C 9133   8.574   6.394  10.243  0.8144 -0.3306 -0.2401
   67MOL0     C 9134   8.619   6.534  10.234 -0.0878 -0.1919  0.4795
   67MOL0     C 9135   8.685   6.570  10.114 -0.0776 -0.8561  0.0723
   67MOL0     C 9136   8.714   6.722  10.103 -0.4882 -0.1775 -0.7615
   67MOL0     C 9137   8.705   6.484  10.013  0.0627  1.1446 -0.5535
   67MOL0     C 9138   8.801   6.497   9.895  0.1824 -0.3774 -0.5474
   67MOL0     O 9139   8.748   6.441   9.786 -0.4095  0.8790  0.2246
   67MOL0     C 9140   8.770   6.473   9.656 -0.1196  0.6051 -0.0895
   67MOL0     C 9141   8.688   6.410   9.558  0.0546 -0.5544 -0.0738
   67MOL0     C 9142   8.691   6.443   9.423  0.8642 -1.0393  0.0711
   67MOL0     C 9143   8.776   6.550   9.377  0.6427 -0.0681 -0.0662
   67MOL0     O 9144   8.757   6.588   9.246  0.4401  0.2137 -0.8374
   67MOL0     C 9145   8.849   6.687   9.201  0.3242  0.9860  0.7194
   67MOL0     C 9146   8.832   6.706   9.048 -0.1500 -0.4309 -0.0420
   67MOL0     C 9147   8.926   6.808   8.983  0.3686  0.9050 -0.2282
   67MOL0     C 9148   8.939   6.788   8.830 -0.6812 -0.1610 -0.5261
   67MOL0     C 9149   8.823   6.837   8.756 -0.2836  0.1996  0.7739
   67MOL0     C 9150   8.821   6.786   8.605 -1.0164  0.6903 -0.0338
   67MOL0     C 9151   8.740   6.879   8.523  1.4309  0.7636 -0.4092
   67MOL0     C 9152   8.737   6.833   8.386 -0.5099  0.7961  0.4702
   67MOL0    Cl 9153   8.691   6.953   8.272  0.3627  0.1949 -0.4076
   67MOL0     C 9154   8.856   6.611   9.475  0.6255 -0.3308  0.3472
   67MOL0     C 9155   8.850   6.572   9.608 -0.5917 -0.3376 -0.6897
   67MOL0     O 9156   8.916   6.533   9.905  0.1482 -0.4597 -0.1374
   67MOL0     C 9157   8.624   6.368  10.012  0.9656 -0.1788 -0.7825
   67MOL0     C 9158   8.569   6.324  10.129 -0.0545  0.8465  0.8718
   67MOL0     N 9159   8.666   5.980  10.849 -0.0634 -0.5554 -0.5254
   67MOL0     N 9160   8.698   5.850  10.854 -0.0387  0.6335 -0.0383
   67MOL0     C 9161   9.146   6.493  11.322 -0.5746 -0.2417 -0.3559
   67MOL0     C 9162   9.170   6.621  11.345  0.1108 -0.5417 -0.6732
   67MOL0     C 9163   9.417   7.023  11.266 -0.1422  1.0318  0.3945
   67MOL0     C 9164   9.489   7.082  11.165  0.9854  0.2921 -0.3558
   67MOL0     C 9165   9.542   7.206  11.173 -0.0644 -0.2075 -0.0551
   67MOL0     C 9166   9.527   7.287  11.290  0.3818  0.0356 -0.1880
   67MOL0     O 9167   9.567   7.421  11.308  0.3397  0.1392  0.6063
   67MOL0     C 9168   9.608   7.505  11.198  1.5104  0.0115 -0.5663
   67MOL0     C 9169   9.760   7.521  11.188  0.1970 -0.5235 -0.0317
   67MOL0     C 9170   9.808   7.587  11.058 -0.4229 -0.1234 -0.8084
   67MOL0     C 9171   9.948   7.622  11.068  0.2731 -0.6401  0.2602
   67MOL0     C 9172   9.990   7.706  10.950 -0.2674  0.1709 -0.5368
   67MOL0     C 9173  10.026   7.793  10.875 -1.0644  0.5044  0.1773
   67MOL0     C 9174   9.455   7.230  11.396  0.4672 -0.4277 -0.0711
   67MOL0     C 9175   9.406   7.105  11.379  0.7517  1.0320 -0.5801
   67MOL0     C 9176   9.295   7.056  11.469 -0.8740  0.5133  0.7280
   67MOL0     H 9177   9.502   6.621  11.286  0.4278 -0.2522  0.4278
   67MOL0     H 9178   9.453   6.380  11.236 -1.5190 -2.5205  0.7278
   67MOL0     H 9179   9.043   6.241  11.321 -0.1603  0.8280  0.1995
   67MOL0     H 9180   9.183   6.191  11.432  1.2835  1.8173 -0.5656
   67MOL0     H 9181   9.253   6.010  11.266 -0.8808 -2.0901  1.0195
   67MOL0     H 9182   9.087   5.988  11.326 -2.0984  0.5197 -0.9542
   67MOL0     H 9183   8.995   6.096  11.113  1.3181  3.0262 -1.4558
   67MOL0     H 9184   9.149   6.091  11.049 -2.8452  1.6816 -0.2408
   67MOL0     H 9185   9.156   5.831  11.127  0.9045  1.8805  1.7310
   67MOL0     H 9186   8.994   5.842  11.168 -1.1397  1.8875 -0.8574
   67MOL0     H 9187   9.121   5.945  10.903  1.2808 -1.5313 -1.0599
   67MOL0     H 9188   8.944   5.933  10.907  0.1828  0.1986 -3.0914
   67MOL0     H 9189   9.129   5.695  10.909  2.4527  3.5736 -1.5695
   67MOL0     H 9190   8.951   5.697  10.964  0.5905 -0.8460  0.2008
   67MOL0     H 9191   9.014   5.607  10.725  0.5652  0.5903 -0.7220
   67MOL0     H 9192   9.028   5.773  10.681 -0.6273  0.5409  0.2069
   67MOL0     H 9193   8.807   5.643  10.637  1.9840  3.7686 -2.2573
   67MOL0     H 9194   8.798   5.634  10.820  0.1287 -0.3701 -0.4563
   67MOL0     H 9195   8.821   5.951  10.563 -1.7083 -0.5713 -1.5760
   67MOL0     H 9196   8.754   6.197  10.598  1.6898 -1.9581  0.7811
   67MOL0     H 9197   8.717   6.242  10.763  1.3933  2.2905 -0.6938
   67MOL0     H 9198   8.511   6.119  10.550  0.8453  0.3181 -0.9073
   67MOL0     H 9199   8.467   6.157  10.715 -0.4307 -0.2247 -0.6009
   67MOL0     H 9200   8.388   6.311  10.556 -0.9244  0.2805  3.2621
   67MOL0     H 9201   8.512   6.395  10.672  0.1289 -0.4713  0.3760
   67MOL0     H 9202   8.495   6.488  10.465 -0.4238 -0.7134 -0.5834
   67MOL0     H 9203   8.653   6.427  10.505  0.4606  1.2261  0.0196
   67MOL0     H 9204   8.633   6.597  10.321  0.9596  0.7421 -0.3237
   67MOL0     H 9205   8.743   6.767  10.199  1.7130  0.7920 -1.7965
   67MOL0     H 9206   8.635   6.793  10.077 -2.3945 -1.3474  1.4511
   67MOL0     H 9207   8.794   6.728  10.028 -0.3230  3.1757 -0.4684
   67MOL0     H 9208   8.608   6.343   9.587 -1.3129  0.6850 -0.8107
   67MOL0     H 9209   8.623   6.397   9.352 -1.7547  0.2148  1.5733
   67MOL0     H 9210   8.830   6.777   9.261 -3.4699 -0.0825  1.3962
   67MOL0     H 9211   8.953   6.654   9.197  0.2037  0.7451 -2.0794
   67MOL0     H 9212   8.843   6.609   9.000  2.2145 -0.1865 -0.0900
   67MOL0     H 9213   8.726   6.731   9.039  0.0528  0.4996 -0.0179
   67MOL0     H 9214   9.025   6.803   9.030  0.3019  2.0797  0.0665
   67MOL0     H 9215   8.885   6.909   8.991 -2.7169 -0.2902  0.4055
   67MOL0     H 9216   8.974   6.691   8.794 -1.2110 -1.2190  1.6290
   67MOL0     H 9217   9.017   6.857   8.796 -0.4824  0.0057  0.2339
   67MOL0     H 9218   8.732   6.816   8.811 -1.1028  1.5520 -0.0046
   67MOL0     H 9219   8.830   6.946   8.757 -1.8748  0.3249  2.9017
   67MOL0     H 9220   8.774   6.687   8.611  1.9778 -0.8520  0.0053
   67MOL0     H 9221   8.924   6.784   8.568 -0.1899  4.0845  1.6774
   67MOL0     H 9222   8.770   6.984   8.530  0.2060  1.0709  0.7571
   67MOL0     H 9223   8.641   6.860   8.565  1.8251 -0.9960 -0.1855
   67MOL0     H 9224   8.675   6.744   8.375  2.2377 -1.3394  1.2608
   67MOL0     H 9225   8.838   6.802   8.359 -0.6383  3.1946 -3.8138
   67MOL0     H 9226   8.926   6.687   9.442 -0.3182 -0.5286 -2.3394
   67MOL0     H 9227   8.909   6.618   9.687 -1.3838 -1.9045  0.8703
   67MOL0     H 9228   8.623   6.300   9.928  0.9949  0.1355 -1.0376
   67MOL0     H 9229   8.522   6.227  10.139  2.5910 -0.5538  0.5276
   67MOL0     H 9230   9.045   6.462  11.343 -0.6902  0.2763 -0.1169
   67MOL0     H 9231   9.091   6.691  11.373  1.4676  1.4324 -1.5288
   67MOL0     H 9232   9.503   7.025  11.073 -1.3733 -1.5651  0.3233
   67MOL0     H 9233   9.596   7.257  11.094 -0.0504  0.7546  0.5676
   67MOL0     H 9234   9.571   7.462  11.104 -2.2972  0.1864  0.6600
   67MOL0     H 9235   9.557   7.602  11.204  0.7269 -0.4101 -0.1892
   67MOL0     H 9236   9.800   7.420  11.194 -1.7314 -1.2988  0.8226
   67MOL0     H 9237   9.789   7.586  11.271 -2.9284  4.7281 -2.5384
   67MOL0     H 9238   9.809   7.516  10.975  0.2432 -0.0593 -0.8597
   67MOL0     H 9239   9.750   7.676  11.032 -1.6763 -0.0366  1.8515
   67MOL0     H 9240  10.006   7.529  11.064  1.0475 -0.1196 -2.0550
   67MOL0     H 9241   9.953   7.672  11.165 -2.5837  0.0967  0.1129
   67MOL0     H 9242  10.048   7.875  10.811  0.0961  0.8496  0.9756
   67MOL0     H 9243   9.456   7.297  11.482  1.3616  0.5466 -0.8062
   67MOL0     H 9244   9.261   7.138  11.531 -0.2222  1.5718 -0.2719
   67MOL0     H 9245   9.205   7.027  11.414 -0.6870  0.2345  0.5641
   67MOL0     H 9246   9.321   6.981  11.544  0.5556 -0.4811 -0.6727
   68MOL0     O 9247   9.525   2.638   5.870 -1.1137  0.8202 -0.0122
   68MOL0     C 9248   9.475   2.646   5.983  0.0988 -0.0061  0.2863
   68MOL0     O 9249   9.428   2.545   6.054  0.3898  0.3051  0.1762
   68MOL0     C 9250   9.447   2.410   6.012  0.1965 -0.5201  0.8196
   68MOL0     C 9251   9.569   2.347   6.013 -0.3944 -0.7762  0.0291
   68MOL0     C 9252   9.585   2.223   5.947  0.7315  0.2206 -0.9021
   68MOL0     C 9253   9.471   2.154   5.905  0.5582 -0.9730  0.0556
   68MOL0     O 9254   9.492   2.026   5.850 -0.6314 -0.0251 -0.5758
   68MOL0     C 9255   9.392   1.929   5.854  0.2251  0.0597  0.6978
   68MOL0     C 9256   9.466   1.796   5.811 -0.6490  0.0365 -0.4997
   68MOL0     C 9257   9.564   1.802   5.695  1.2023 -0.5709 -0.1392
   68MOL0     C 9258   9.631   1.663   5.672 -0.9935 -0.7674 -0.0360
   68MOL0     C 9259   9.567   1.582   5.561 -0.0009 -0.2911  0.0081
   68MOL0     C 9260   9.409   1.560   5.584  0.2252  1.0631  1.0681
   68MOL0     C 9261   9.379   1.469   5.702 -0.0219 -1.4309  0.0656
   68MOL0     C 9262   9.232   1.466   5.726  0.9069  0.1165  0.7727
   68MOL0     N 9263   9.205   1.394   5.849  0.1838 -0.1922 -0.2954
   68MOL0     C 9264   9.219   1.263   5.878  0.7678  0.1095 -0.4032
   68MOL0     C 9265   9.178   1.250   6.007 -0.5425  0.0362  0.2086
   68MOL0     C 9266   9.155   1.125   6.089 -0.9987  1.4925 -0.1818
   68MOL0     C 9267   9.192   0.993   6.017  0.7738  0.4549 -0.1333
   68MOL0     C 9268   9.073   0.953   5.925  0.9381 -0.0866 -0.0182
   68MOL0     C 9269   9.110   0.820   5.849  0.9352 -0.4382  0.3213
   68MOL0     O 9270   9.224   0.844   5.768  0.1994 -0.2377 -0.3874
   68MOL0     C 9271   9.285   0.734   5.715 -0.4936  0.5272  0.6129
   68MOL0     C 9272   9.217   0.617   5.683 -0.2207 -0.2386  0.4753
   68MOL0     C 9273   9.287   0.509   5.626  0.5088 -0.4914 -0.4193
   68MOL0     C 9274   9.207   0.389   5.603 -0.0979  0.1199 -0.1463
   68MOL0     C 9275   9.421   0.526   5.584  0.2918  0.2796 -0.7892
   68MOL0     C 9276   9.494   0.424   5.513  0.1494 -0.7152  0.2196
   68MOL0     O 9277   9.626   0.458   5.487  0.5614  0.9623 -0.6196
   68MOL0     C 9278   9.711   0.402   5.400 -0.0160  0.6918  0.0770
   68MOL0     C 9279   9.815   0.475   5.344 -0.1864  0.2121 -0.3959
   68MOL0     C 9280   9.912   0.418   5.256 -0.1554  0.6710 -0.3646
   68MOL0     C 9281   9.899   0.284   5.215 -0.8484  0.2062  0.0405
   68MOL0     O 9282   9.969   0.211   5.122 -0.3232 -0.4891  0.1798
   68MOL0     C 9283  10.087   0.242   5.056 -0.2203  0.8137 -0.5102
   68MOL0     C 9284  10.170   0.104   5.068  0.4253  0.1770 -0.4734
   68MOL0     C 9285  10.207   0.063   5.209 -0.1497  0.1375 -0.4419
   68MOL0     C 9286  10.236  -0.088   5.230 -0.2805 -0.6079 -0.5005
   68MOL0     C 9287  10.155  -0.170   5.322 -0.7869 -0.2248 -0.4163
   68MOL0     C 9288  10.013  -0.190   5.265 -0.6778 -0.3640 -0.0008
   68MOL0     C 9289   9.915  -0.214   5.380 -0.0121  0.2711 -0.7529
   68MOL0     C 9290   9.940  -0.354   5.432 -0.8108  0.5667  0.3425
   68MOL0    Cl 9291   9.889  -0.477   5.313 -0.0690 -0.3857  0.1441
   68MOL0     C 9292   9.808   0.209   5.281  0.8349 -0.0144 -0.1649
   68MOL0     C 9293   9.712   0.263   5.371 -0.2799 -0.5362  0.7137
   68MOL0     O 9294   9.435   0.337   5.447  0.1598  0.6352  0.2993
   68MOL0     C 9295   9.479   0.650   5.619 -0.1224 -0.7070 -0.2675
   68MOL0     C 9296   9.422   0.753   5.688  0.6641 -1.0603  0.0342
   68MOL0     N 9297   9.146   1.382   6.046 -0.4188 -0.0751  0.7534
   68MOL0     N 9298   9.167   1.465   5.961 -0.5476 -0.0523  0.7519
   68MOL0     C 9299   9.344   2.220   5.906  0.2191 -0.3887  0.3465
   68MOL0     C 9300   9.334   2.347   5.959 -1.0863 -0.2092  0.1815
   68MOL0     C 9301   9.463   2.784   6.049  0.0980 -0.9396 -0.1214
   68MOL0     C 9302   9.346   2.818   6.125 -0.2598 -0.4735 -1.1539
   68MOL0     C 9303   9.345   2.943   6.198  0.3836  0.7253 -0.8845
   68MOL0     C 9304   9.436   3.042   6.183  0.8582 -0.4055 -0.0445
   68MOL0     O 9305   9.402   3.143   6.268  0.4833  0.0716  0.4215
   68MOL0     C 9306   9.480   3.258   6.258 -0.2132  0.5445  0.0485
   68MOL0     C 9307   9.437   3.340   6.381 -0.0668 -0.0929 -0.7428
   68MOL0     C 9308   9.303   3.408   6.361 -0.4846  0.7799  1.3399
   68MOL0     C 9309   9.249   3.506   6.455  0.5986  0.2658 -0.4701
   68MOL0     C 9310   9.280   3.489   6.599  0.0803  0.8500 -0.0917
   68MOL0     C 9311   9.293   3.484   6.717  0.3114 -0.1069  0.8219
   68MOL0     C 9312   9.552   3.007   6.113  0.0332  0.2924 -0.4983
   68MOL0     C 9313   9.565   2.880   6.045  1.0982 -0.4048 -0.7855
   68MOL0     C 9314   9.702   2.839   5.977  0.2755  0.1215 -0.5685
   68MOL0     H 9315   9.654   2.396   6.060 -1.8777  6.2515 -3.2313
   68MOL0     H 9316   9.684   2.179   5.946  1.3181  1.2459  1.7675
   68MOL0     H 9317   9.307   1.953   5.789 -0.0202  1.2145  1.4124
   68MOL0     H 9318   9.353   1.906   5.954  2.3428  0.5698  1.7003
   68MOL0     H 9319   9.529   1.747   5.886 -0.1810 -1.9528 -2.1306
   68MOL0     H 9320   9.390   1.719   5.801  0.4898 -0.8932 -2.3048
   68MOL0     H 9321   9.523   1.835   5.599  1.3006 -1.1418 -0.3823
   68MOL0     H 9322   9.647   1.870   5.715  3.4975 -2.9684 -0.9140
   68MOL0     H 9323   9.734   1.684   5.644 -0.5876 -1.4374  0.8883
   68MOL0     H 9324   9.646   1.616   5.770 -2.8334  1.1507  1.2497
   68MOL0     H 9325   9.621   1.487   5.552  2.7653  1.1992 -0.4212
   68MOL0     H 9326   9.584   1.628   5.463 -0.5130 -0.9740 -0.4061
   68MOL0     H 9327   9.362   1.658   5.599  0.6196  0.9578  3.3473
   68MOL0     H 9328   9.373   1.513   5.492  0.4795 -1.1004  2.0161
   68MOL0     H 9329   9.416   1.514   5.794 -3.8478  1.6220  0.3954
   68MOL0     H 9330   9.426   1.373   5.681  0.8727 -0.7814 -0.9825
   68MOL0     H 9331   9.191   1.566   5.746 -1.0012 -0.5593  0.4721
   68MOL0     H 9332   9.181   1.433   5.635  2.1779  1.7846 -0.6055
   68MOL0     H 9333   9.246   1.180   5.815 -1.8122 -3.1022  2.3428
   68MOL0     H 9334   9.049   1.111   6.112 -1.4237  2.4217 -1.4435
   68MOL0     H 9335   9.210   1.124   6.183 -1.6099  1.4666  0.1846
   68MOL0     H 9336   9.285   0.999   5.960  1.4374 -0.8643  0.7578
   68MOL0     H 9337   9.201   0.916   6.094  0.0054 -0.6014 -1.0645
   68MOL0     H 9338   8.990   0.928   5.991  2.0666 -0.7424  1.2150
   68MOL0     H 9339   9.050   1.030   5.852  1.0542 -0.1735 -0.1463
   68MOL0     H 9340   9.128   0.751   5.932 -0.6036  0.2088  1.2133
   68MOL0     H 9341   9.025   0.785   5.790  0.6836 -0.1200  0.4945
   68MOL0     H 9342   9.122   0.596   5.732 -0.2431 -2.4479 -0.3753
   68MOL0     H 9343   9.268   0.304   5.637 -0.6392 -1.3976 -2.7043
   68MOL0     H 9344   9.185   0.373   5.497  2.1770 -1.5992 -0.4389
   68MOL0     H 9345   9.115   0.394   5.662 -0.7495  5.1627 -1.1706
   68MOL0     H 9346   9.829   0.581   5.362 -0.8729  0.5314 -1.6740
   68MOL0     H 9347   9.996   0.477   5.219 -0.0226  0.6154 -0.1557
   68MOL0     H 9348  10.067   0.258   4.949 -0.8787  0.9121 -0.3724
   68MOL0     H 9349  10.141   0.323   5.105 -0.7287 -0.1092  1.6799
   68MOL0     H 9350  10.104   0.028   5.025  0.6415  0.5962 -1.5893
   68MOL0     H 9351  10.267   0.112   5.017  1.2066 -1.1509  0.7324
   68MOL0     H 9352  10.130   0.102   5.277  2.1901  2.5420  1.0611
   68MOL0     H 9353  10.301   0.114   5.235 -0.4678 -0.8673  3.3668
   68MOL0     H 9354  10.341  -0.096   5.258 -0.0651 -1.8593 -1.5405
   68MOL0     H 9355  10.236  -0.128   5.128  2.1368  0.4680 -0.9761
   68MOL0     H 9356  10.215  -0.260   5.332  0.5951  0.5682 -1.2425
   68MOL0     H 9357  10.146  -0.111   5.414 -0.4476  1.8809 -1.6553
   68MOL0     H 9358   9.996  -0.272   5.194  3.0301 -0.6785 -0.7093
   68MOL0     H 9359   9.979  -0.102   5.210 -4.2983 -0.6677  1.4871
   68MOL0     H 9360   9.810  -0.219   5.350 -0.4823  0.8395  0.6790
   68MOL0     H 9361   9.944  -0.131   5.446 -0.9132  2.6280 -3.1652
   68MOL0     H 9362   9.876  -0.387   5.514  0.6625  1.9836  2.1390
   68MOL0     H 9363  10.045  -0.366   5.457  0.2643  2.3395 -2.8030
   68MOL0     H 9364   9.796   0.103   5.263 -0.6715  0.0964  0.0688
   68MOL0     H 9365   9.640   0.192   5.409  0.7994 -2.8458 -1.3131
   68MOL0     H 9366   9.585   0.658   5.597  0.0155  3.6970  0.9382
   68MOL0     H 9367   9.486   0.839   5.708 -1.2961 -0.1980  3.2931
   68MOL0     H 9368   9.253   2.182   5.861  0.8524  0.7699 -2.0781
   68MOL0     H 9369   9.233   2.387   5.966 -0.6608  0.6133  2.7341
   68MOL0     H 9370   9.273   2.743   6.151 -0.7352  0.3751  0.1113
   68MOL0     H 9371   9.250   2.962   6.247 -0.8355  0.2070 -2.9517
   68MOL0     H 9372   9.585   3.225   6.258 -1.2777 -3.4638 -0.6196
   68MOL0     H 9373   9.463   3.305   6.161  1.7588  0.4354 -0.4085
   68MOL0     H 9374   9.514   3.411   6.413 -0.4202  0.6632 -1.5525
   68MOL0     H 9375   9.433   3.258   6.454  0.9527 -0.9275 -1.5864
   68MOL0     H 9376   9.297   3.460   6.265 -2.1747 -1.0912  0.3632
   68MOL0     H 9377   9.236   3.321   6.360 -0.5441  0.8234  0.0763
   68MOL0     H 9378   9.141   3.524   6.456  0.8368  1.8685 -0.4168
   68MOL0     H 9379   9.278   3.607   6.422 -2.6597  1.3861 -0.3404
   68MOL0     H 9380   9.304   3.496   6.823  0.5224  0.1380  0.7747
   68MOL0     H 9381   9.643   3.063   6.126 -0.1273  0.2795  0.8353
   68MOL0     H 9382   9.701   2.834   5.868  2.9527 -0.9004 -0.6054
   68MOL0     H 9383   9.780   2.913   5.991 -1.2130  1.6342  0.0612
   68MOL0     H 9384   9.733   2.740   6.012 -1.0436 -0.2029 -0.2405
   69MOL0     O 9385   8.763   1.362   1.027 -0.6300  0.4072  0.3863
   69MOL0     C 9386   8.850   1.293   0.976  0.1144  0.1856  0.8886
   69MOL0     O 9387   8.929   1.196   1.035  0.3146  0.0158 -0.9986
   69MOL0     C 9388   8.903   1.173   1.176  0.1486 -0.0223  0.2068
   69MOL0     C 9389   8.848   1.053   1.223 -0.4060 -0.7819  0.0215
   69MOL0     C 9390   8.843   1.022   1.360  0.7294 -0.2195  0.6359
   69MOL0     C 9391   8.903   1.118   1.447 -0.9546 -0.2001 -0.3993
   69MOL0     O 9392   8.921   1.079   1.575 -0.1121 -0.2302 -0.1083
   69MOL0     C 9393   8.793   1.078   1.645 -0.0756 -0.4037 -0.7543
   69MOL0     C 9394   8.782   1.164   1.771 -0.5709  1.3148  0.5636
   69MOL0     C 9395   8.627   1.175   1.820  0.5623  0.1965 -0.0673
   69MOL0     C 9396   8.616   1.251   1.954 -0.3212  0.6844  0.6726
   69MOL0     C 9397   8.472   1.306   1.983 -0.4216  0.5522 -0.1042
   69MOL0     C 9398   8.431   1.279   2.130 -0.4948  0.1039  0.3654
   69MOL0     C 9399   8.305   1.344   2.170 -0.5361 -0.4642 -0.5990
   69MOL0     C 9400   8.224   1.271   2.284 -0.0034 -1.1216 -0.0421
   69MOL0     N 9401   8.099   1.350   2.334 -0.3536  0.2461 -0.2608
   69MOL0     C 9402   7.983   1.346   2.259 -0.4802  0.2989 -0.6814
   69MOL0     C 9403   7.901   1.402   2.349  0.9448 -0.1710  0.0172
   69MOL0     C 9404   7.760   1.433   2.304  0.3273 -0.2070 -0.5219
   69MOL0     C 9405   7.732   1.583   2.262 -0.0804  0.1108 -0.0051
   69MOL0     C 9406   7.587   1.617   2.241 -0.6206 -0.7354 -0.0395
   69MOL0     C 9407   7.567   1.758   2.193 -0.5060  0.4894  0.6435
   69MOL0     O 9408   7.456   1.749   2.095  0.2372  0.1420 -0.0852
   69MOL0     C 9409   7.405   1.873   2.062  0.0347 -0.3196 -0.1827
   69MOL0     C 9410   7.418   1.911   1.927  0.3439 -0.0276 -0.3765
   69MOL0     C 9411   7.373   2.036   1.880 -0.9233  0.8775 -0.6651
   69MOL0     C 9412   7.377   2.064   1.730  0.3896 -0.2204 -0.1639
   69MOL0     C 9413   7.321   2.134   1.971  0.4396  0.9623 -0.7826
   69MOL0     C 9414   7.265   2.269   1.943 -0.0409  0.3399  0.0283
   69MOL0     O 9415   7.285   2.356   2.051  0.2455 -0.4311  0.1785
   69MOL0     C 9416   7.233   2.490   2.029  0.1505  0.3296  0.9589
   69MOL0     C 9417   7.102   2.521   2.051 -0.5109 -0.2895  0.1906
   69MOL0     C 9418   7.063   2.651   2.037  0.5560 -0.4587 -0.7241
   69MOL0     C 9419   7.147   2.745   1.976 -0.0892 -0.0525 -0.7240
   69MOL0     O 9420   7.086   2.865   1.945  0.5040  0.3694 -0.0726
   69MOL0     C 9421   7.140   2.950   1.844 -0.4854 -0.9838  0.1956
   69MOL0     C 9422   7.057   2.939   1.710 -0.3643  0.5401 -0.3509
   69MOL0     C 9423   7.051   3.064   1.622  0.0867  0.3996  0.3740
   69MOL0     C 9424   7.018   3.189   1.706 -0.5636 -0.0388 -0.4688
   69MOL0     C 9425   6.964   3.311   1.625 -1.3911 -0.5227  0.8836
   69MOL0     C 9426   7.049   3.348   1.501 -0.3903  0.9017  0.5797
   69MOL0     C 9427   7.211   3.381   1.514 -0.1785 -0.0504 -0.1879
   69MOL0     C 9428   7.274   3.445   1.390  0.5850  0.0025 -0.3799
   69MOL0    Cl 9429   7.254   3.336   1.265  0.0645 -0.6223 -0.0438
   69MOL0     C 9430   7.282   2.718   1.953  0.0752  0.0891 -0.6667
   69MOL0     C 9431   7.321   2.587   1.980  0.4277 -0.2993 -0.6369
   69MOL0     O 9432   7.222   2.296   1.833 -0.1426  0.5252  1.0163
   69MOL0     C 9433   7.338   2.099   2.106 -0.1121  0.1482  0.0978
   69MOL0     C 9434   7.371   1.974   2.152  0.0542  0.2648 -0.1357
   69MOL0     N 9435   7.962   1.446   2.459  0.2795 -0.3082 -0.9990
   69MOL0     N 9436   8.087   1.414   2.461  0.4539  0.5338 -0.1325
   69MOL0     C 9437   8.959   1.238   1.400 -0.9036  0.9547  0.1302
   69MOL0     C 9438   8.960   1.259   1.262 -0.0957  0.2646 -0.1840
   69MOL0     C 9439   8.869   1.298   0.828 -0.2589 -0.9717 -0.1448
   69MOL0     C 9440   8.774   1.370   0.743 -0.7154 -0.0600 -0.5247
   69MOL0     C 9441   8.784   1.378   0.602 -0.8244  0.8532  1.2049
   69MOL0     C 9442   8.891   1.313   0.539 -0.1526 -0.0478  0.5147
   69MOL0     O 9443   8.884   1.311   0.409  0.0532  0.5639 -0.0664
   69MOL0     C 9444   8.980   1.398   0.352  0.5505 -0.4460 -0.2339
   69MOL0     C 9445   8.922   1.456   0.224 -0.6559 -0.5921  0.0460
   69MOL0     C 9446   8.863   1.597   0.258  0.0865  0.6845 -0.1682
   69MOL0     C 9447   8.976   1.711   0.277 -0.9168  0.4343 -0.3173
   69MOL0     C 9448   9.017   1.772   0.147  0.9015  0.0388 -0.2794
   69MOL0     C 9449   9.049   1.813   0.035 -0.1105 -0.5795  0.1573
   69MOL0     C 9450   8.984   1.246   0.617  0.7979 -0.6312  0.6035
   69MOL0     C 9451   8.979   1.244   0.758  0.6613  0.9924 -0.5130
   69MOL0     C 9452   9.091   1.164   0.816  0.1571  0.7166 -0.0153
   69MOL0     H 9453   8.810   0.973   1.160 -1.3185 -0.1254 -0.2881
   69MOL0     H 9454   8.817   0.919   1.385  0.3917 -0.2696  0.0965
   69MOL0     H 9455   8.773   0.972   1.665  4.1799 -1.5374 -1.6373
   69MOL0     H 9456   8.712   1.112   1.579 -1.4258 -1.6252  0.1888
   69MOL0     H 9457   8.840   1.119   1.852 -0.3326  0.2545 -0.1712
   69MOL0     H 9458   8.819   1.264   1.745 -2.3326  1.4279 -1.8531
   69MOL0     H 9459   8.570   1.225   1.741 -1.0764 -0.5171  0.6075
   69MOL0     H 9460   8.580   1.077   1.833 -0.8431  0.8229 -0.2203
   69MOL0     H 9461   8.657   1.193   2.037 -1.5617  0.7457  1.3417
   69MOL0     H 9462   8.683   1.335   1.938  0.1160 -0.0024 -1.4665
   69MOL0     H 9463   8.403   1.260   1.912  0.5244  0.5216 -1.0236
   69MOL0     H 9464   8.467   1.415   1.970  1.8561  0.6544 -0.6593
   69MOL0     H 9465   8.419   1.171   2.137 -0.0587 -0.0246 -0.6416
   69MOL0     H 9466   8.510   1.307   2.200 -0.2402 -1.9513  0.9487
   69MOL0     H 9467   8.255   1.359   2.074  1.5229 -1.1917 -1.8582
   69MOL0     H 9468   8.335   1.435   2.223 -0.4576 -1.4867  1.1824
   69MOL0     H 9469   8.195   1.174   2.243  1.2380 -2.0959  1.2784
   69MOL0     H 9470   8.287   1.259   2.373  2.2376  0.8252 -1.2589
   69MOL0     H 9471   7.965   1.304   2.160 -1.5890 -0.5863 -0.1222
   69MOL0     H 9472   7.700   1.409   2.393  1.1364  0.4645  0.2138
   69MOL0     H 9473   7.731   1.370   2.219  0.1004 -2.6177  1.2364
   69MOL0     H 9474   7.784   1.647   2.335 -5.3520  1.5873  3.0244
   69MOL0     H 9475   7.791   1.602   2.172 -2.7134 -0.0436 -1.8881
   69MOL0     H 9476   7.544   1.533   2.186 -1.5252 -1.7357  2.0698
   69MOL0     H 9477   7.539   1.623   2.339 -0.0141  0.2753  0.2073
   69MOL0     H 9478   7.551   1.817   2.284  1.3422 -0.4740  1.6514
   69MOL0     H 9479   7.659   1.787   2.141  0.0277 -1.0396  0.6787
   69MOL0     H 9480   7.455   1.834   1.860  1.7497  1.0092 -0.8445
   69MOL0     H 9481   7.285   2.101   1.685  0.5636  1.0949  0.5145
   69MOL0     H 9482   7.402   1.970   1.680  2.5754 -0.2151  0.7967
   69MOL0     H 9483   7.457   2.139   1.731  0.1057  0.0759  0.5363
   69MOL0     H 9484   7.025   2.449   2.077 -2.4025  1.4609 -0.3444
   69MOL0     H 9485   6.962   2.679   2.064  1.4716  0.0493  2.6639
   69MOL0     H 9486   7.136   3.052   1.884 -1.0671 -1.8784  2.6167
   69MOL0     H 9487   7.246   2.930   1.826 -0.0180 -0.1930  1.8491
   69MOL0     H 9488   7.090   2.855   1.648 -0.0108 -0.2194  0.8544
   69MOL0     H 9489   6.955   2.921   1.745 -0.3415  0.3921 -0.3625
   69MOL0     H 9490   6.974   3.062   1.544 -1.3201 -2.2811  1.7195
   69MOL0     H 9491   7.149   3.090   1.580  0.5682  1.7644  2.2153
   69MOL0     H 9492   7.115   3.225   1.742 -0.8079  1.6237 -1.3723
   69MOL0     H 9493   6.943   3.163   1.781 -0.1352 -0.6524 -0.2538
   69MOL0     H 9494   6.859   3.290   1.603 -1.3744 -0.1128  0.3872
   69MOL0     H 9495   6.958   3.399   1.690  1.9324 -0.4626  1.2457
   69MOL0     H 9496   6.999   3.432   1.451 -1.5803  0.1293  0.4206
   69MOL0     H 9497   7.041   3.272   1.423  0.7141  3.3846 -2.1788
   69MOL0     H 9498   7.269   3.292   1.539 -0.8250 -0.0235  1.5605
   69MOL0     H 9499   7.227   3.441   1.604 -0.8414 -2.1376  1.4137
   69MOL0     H 9500   7.382   3.453   1.403  0.5082 -0.3426  0.5214
   69MOL0     H 9501   7.227   3.538   1.356  2.1534  0.9476 -0.0571
   69MOL0     H 9502   7.350   2.791   1.910  0.4938  1.9041  2.7453
   69MOL0     H 9503   7.425   2.562   1.961  1.4729  2.0657  1.3692
   69MOL0     H 9504   7.311   2.171   2.183 -2.0127  0.8496 -1.1464
   69MOL0     H 9505   7.372   1.965   2.260 -0.1680 -0.9537 -0.2198
   69MOL0     H 9506   9.007   1.298   1.477 -0.1120 -4.0364  4.0682
   69MOL0     H 9507   9.014   1.341   1.216  2.1704 -1.5373 -0.8777
   69MOL0     H 9508   8.685   1.419   0.781 -1.4980  0.2273 -2.6017
   69MOL0     H 9509   8.706   1.431   0.549  0.2389 -0.6334 -2.1011
   69MOL0     H 9510   9.007   1.473   0.427  1.1334  0.0567 -0.9389
   69MOL0     H 9511   9.073   1.341   0.343  1.0513  0.0085  1.5780
   69MOL0     H 9512   8.841   1.399   0.177 -2.2791  0.6772  1.1738
   69MOL0     H 9513   9.016   1.471   0.171 -0.8623 -0.0961 -0.1836
   69MOL0     H 9514   8.793   1.630   0.181  1.2262  0.7254 -1.2174
   69MOL0     H 9515   8.803   1.585   0.349 -1.3051  0.0566 -1.1285
   69MOL0     H 9516   9.065   1.672   0.328  1.6908  2.1550 -3.1759
   69MOL0     H 9517   8.935   1.790   0.340 -3.8392 -2.2545  1.4641
   69MOL0     H 9518   9.072   1.846  -0.064  0.9856  0.0324  0.5880
   69MOL0     H 9519   9.060   1.194   0.559  0.2082 -1.5735  0.6539
   69MOL0     H 9520   9.154   1.130   0.733 -0.2132 -0.2079  0.0702
   69MOL0     H 9521   9.145   1.224   0.890 -1.5529 -0.8990  2.7244
   69MOL0     H 9522   9.059   1.071   0.863  0.4697  0.5045 -0.2145
   70MOL0     O 9523   2.972   4.018   7.992 -0.0144  0.3096  0.8409
   70MOL0     C 9524   3.096   4.031   7.968 -0.4606 -0.7993  1.4277
   70MOL0     O 9525   3.176   3.962   7.873  0.2535  0.2584  0.1371
   70MOL0     C 9526   3.104   3.875   7.790  0.5614 -0.4246 -0.4540
   70MOL0     C 9527   3.084   3.745   7.836 -0.1599 -0.5777 -0.2423
   70MOL0     C 9528   2.995   3.661   7.771  1.0739 -0.3508 -0.1370
   70MOL0     C 9529   2.911   3.706   7.667 -0.5041 -1.8501 -0.1478
   70MOL0     O 9530   2.823   3.624   7.594  0.0306 -0.5558  0.0476
   70MOL0     C 9531   2.766   3.520   7.664  0.2510  0.4930 -0.7716
   70MOL0     C 9532   2.686   3.417   7.585  0.5523 -0.2458 -0.1188
   70MOL0     C 9533   2.574   3.492   7.506 -0.1635  0.2572  0.0910
   70MOL0     C 9534   2.460   3.538   7.599 -0.0414 -1.0628  0.1865
   70MOL0     C 9535   2.386   3.657   7.539  0.2998  1.1249  0.3622
   70MOL0     C 9536   2.285   3.616   7.424  0.3397  0.3936 -0.5216
   70MOL0     C 9537   2.181   3.728   7.409 -0.0948 -0.3185 -0.0540
   70MOL0     C 9538   2.082   3.702   7.298  0.5526  1.2567  0.9096
   70MOL0     N 9539   1.944   3.747   7.316  0.1464 -0.6153 -0.4164
   70MOL0     C 9540   1.839   3.672   7.280 -0.6802 -0.4241 -0.3730
   70MOL0     C 9541   1.738   3.755   7.310  0.2666 -0.0622 -0.0598
   70MOL0     C 9542   1.598   3.718   7.293  0.8046 -0.3748  0.4167
   70MOL0     C 9543   1.571   3.576   7.244 -0.1141 -0.6374  0.5516
   70MOL0     C 9544   1.440   3.523   7.290 -0.8081  0.4786  0.7665
   70MOL0     C 9545   1.406   3.386   7.239 -0.2970  0.7878  0.4198
   70MOL0     O 9546   1.424   3.380   7.095  0.3001  0.2518  0.8726
   70MOL0     C 9547   1.422   3.263   7.022 -0.1530 -0.7416 -0.7046
   70MOL0     C 9548   1.426   3.132   7.071 -0.3669  0.0295  0.5146
   70MOL0     C 9549   1.450   3.025   6.982  0.3116 -0.2802 -0.2931
   70MOL0     C 9550   1.446   2.885   7.039  0.6464  0.1037 -0.8208
   70MOL0     C 9551   1.455   3.048   6.842 -0.6904 -0.2466  0.6899
   70MOL0     C 9552   1.485   2.941   6.747  0.2286  1.3437 -0.7276
   70MOL0     O 9553   1.400   2.835   6.758  0.2674 -0.4387 -0.3068
   70MOL0     C 9554   1.419   2.720   6.691  0.4270  0.0309 -0.5911
   70MOL0     C 9555   1.318   2.670   6.605 -0.3163  0.1640  0.4523
   70MOL0     C 9556   1.333   2.549   6.542 -0.0214 -0.4014 -0.0368
   70MOL0     C 9557   1.452   2.479   6.556  0.3788  1.3769 -0.3555
   70MOL0     O 9558   1.466   2.364   6.478 -0.1472 -0.0587 -0.0774
   70MOL0     C 9559   1.589   2.291   6.489  0.4432  0.7454 -0.7203
   70MOL0     C 9560   1.607   2.205   6.358  0.0151 -0.1909  0.1111
   70MOL0     C 9561   1.667   2.287   6.238 -0.8050  0.1740 -0.1944
   70MOL0     C 9562   1.727   2.188   6.144  0.0606 -0.0245  0.7935
   70MOL0     C 9563   1.879   2.198   6.150  1.6975 -0.6080  0.3110
   70MOL0     C 9564   1.952   2.100   6.060 -0.3402  0.4108 -0.5671
   70MOL0     C 9565   1.907   2.102   5.915  0.2954 -0.1072 -1.0615
   70MOL0     C 9566   2.013   2.033   5.825  0.9242  0.2243  0.6322
   70MOL0    Cl 9567   1.979   1.856   5.808  0.0584 -0.3701  0.0488
   70MOL0     C 9568   1.544   2.520   6.657  1.4134  0.6410  0.1750
   70MOL0     C 9569   1.531   2.641   6.719 -0.5440  0.3397  0.3748
   70MOL0     O 9570   1.566   2.958   6.653  0.2089 -0.0099 -0.5303
   70MOL0     C 9571   1.466   3.181   6.803  0.4300  0.4813 -0.1035
   70MOL0     C 9572   1.439   3.287   6.890  0.6035  0.6120 -0.1546
   70MOL0     N 9573   1.777   3.877   7.350  0.0947 -0.7501 -0.4214
   70MOL0     N 9574   1.904   3.871   7.353 -0.4105 -0.3260  0.1371
   70MOL0     C 9575   2.936   3.830   7.606  0.2255  0.1395  0.4400
   70MOL0     C 9576   3.026   3.917   7.671 -1.2902  0.6978  0.1313
   70MOL0     C 9577   3.175   4.132   8.040 -0.1581  0.4648  0.1714
   70MOL0     C 9578   3.127   4.263   8.077 -1.0298 -1.2252  0.0383
   70MOL0     C 9579   3.206   4.352   8.151  0.3569 -0.4972  0.9290
   70MOL0     C 9580   3.339   4.323   8.174  0.9081  0.8306  0.4421
   70MOL0     O 9581   3.418   4.414   8.232 -0.5079 -0.1302  0.0264
   70MOL0     C 9582   3.505   4.386   8.336  0.2029 -1.1171  0.1770
   70MOL0     C 9583   3.508   4.513   8.430  0.2127  0.2089  0.3951
   70MOL0     C 9584   3.449   4.480   8.570 -0.1077 -0.7626  0.4960
   70MOL0     C 9585   3.334   4.375   8.605 -0.3542 -0.7406  0.8291
   70MOL0     C 9586   3.209   4.395   8.527 -0.2496 -0.4868  0.6637
   70MOL0     C 9587   3.114   4.412   8.456 -0.3661  0.2096  0.5180
   70MOL0     C 9588   3.384   4.191   8.156 -0.0618  1.0453 -0.6385
   70MOL0     C 9589   3.307   4.099   8.092  0.0685 -0.4359 -0.4858
   70MOL0     C 9590   3.376   3.960   8.087 -0.4078 -0.3925 -0.6604
   70MOL0     H 9591   3.138   3.716   7.926  0.1151 -0.5152 -0.3872
   70MOL0     H 9592   3.009   3.567   7.823  0.6658 -0.6550 -0.5684
   70MOL0     H 9593   2.696   3.560   7.737 -1.7358 -2.2781 -1.0155
   70MOL0     H 9594   2.843   3.465   7.719  0.0107  1.2774  0.3903
   70MOL0     H 9595   2.752   3.372   7.511  1.2670  0.2123  0.2384
   70MOL0     H 9596   2.638   3.342   7.648 -0.1849 -1.5176 -2.0694
   70MOL0     H 9597   2.621   3.580   7.462  2.5729  0.4116  2.9721
   70MOL0     H 9598   2.528   3.443   7.419 -2.1799  0.1394  1.1532
   70MOL0     H 9599   2.393   3.452   7.616  1.0483 -2.1068 -0.6202
   70MOL0     H 9600   2.496   3.580   7.693  0.0709  1.6460 -0.9944
   70MOL0     H 9601   2.455   3.738   7.515  0.2484  0.6225 -1.6340
   70MOL0     H 9602   2.323   3.698   7.619 -2.2885 -1.5798 -0.1213
   70MOL0     H 9603   2.346   3.586   7.338  1.2199 -2.8922  1.0944
   70MOL0     H 9604   2.232   3.522   7.441 -0.6384 -0.6839 -7.0076
   70MOL0     H 9605   2.233   3.819   7.377  0.5311  0.1785  2.1929
   70MOL0     H 9606   2.132   3.749   7.504 -1.4340 -0.8791 -0.5899
   70MOL0     H 9607   2.116   3.756   7.209  3.8955  0.6231  1.6622
   70MOL0     H 9608   2.082   3.594   7.285 -2.1516  0.6687  4.3267
   70MOL0     H 9609   1.840   3.572   7.237  2.9212 -1.5812  1.9574
   70MOL0     H 9610   1.560   3.796   7.227  0.7383 -0.5179  0.2856
   70MOL0     H 9611   1.552   3.722   7.393  0.2071 -0.5048  0.1543
   70MOL0     H 9612   1.590   3.563   7.138  0.2510  0.6276  0.4433
   70MOL0     H 9613   1.647   3.504   7.276 -1.3891 -2.4848 -0.3891
   70MOL0     H 9614   1.466   3.492   7.392  0.0718  0.9145  0.6916
   70MOL0     H 9615   1.353   3.588   7.301 -0.8462  0.1650  2.6367
   70MOL0     H 9616   1.462   3.311   7.294 -0.8980  1.0166  1.3584
   70MOL0     H 9617   1.301   3.370   7.267 -0.6317  2.0160 -0.0456
   70MOL0     H 9618   1.423   3.109   7.177 -0.6005  1.4779  0.8462
   70MOL0     H 9619   1.494   2.811   6.973 -1.4100  0.3473 -2.6983
   70MOL0     H 9620   1.343   2.852   7.054 -0.1478  2.3881 -0.9635
   70MOL0     H 9621   1.488   2.894   7.139 -0.9661  4.8172 -0.3362
   70MOL0     H 9622   1.220   2.716   6.599 -0.3266  0.0040 -0.9735
   70MOL0     H 9623   1.264   2.522   6.462  0.8416 -1.7447 -0.3712
   70MOL0     H 9624   1.675   2.359   6.483  0.5818  0.5138 -5.5333
   70MOL0     H 9625   1.604   2.236   6.582  0.6472  0.3008 -1.0135
   70MOL0     H 9626   1.679   2.126   6.381 -1.6542 -0.9567  3.2080
   70MOL0     H 9627   1.519   2.145   6.336  0.2603 -1.3440  2.0429
   70MOL0     H 9628   1.720   2.378   6.268  3.0182 -1.0918 -2.2432
   70MOL0     H 9629   1.576   2.324   6.191  0.2160  2.4644 -0.5203
   70MOL0     H 9630   1.690   2.205   6.043 -1.4430  0.8404  1.4506
   70MOL0     H 9631   1.702   2.085   6.171  3.2782 -0.3559  3.1471
   70MOL0     H 9632   1.904   2.303   6.132 -4.8107  1.2248 -0.6314
   70MOL0     H 9633   1.906   2.177   6.254 -0.3728 -0.2662  0.9715
   70MOL0     H 9634   1.952   2.000   6.105  1.1150  0.4347 -0.4738
   70MOL0     H 9635   2.052   2.144   6.073  0.2303 -1.3436  1.7786
   70MOL0     H 9636   1.888   2.208   5.894  0.3694  0.0312 -0.4282
   70MOL0     H 9637   1.810   2.056   5.894 -0.5704  1.2281 -0.1455
   70MOL0     H 9638   2.107   2.047   5.880  0.3028  3.3261  1.0604
   70MOL0     H 9639   2.028   2.079   5.727 -0.1393  1.1026  0.8640
   70MOL0     H 9640   1.633   2.466   6.688 -0.4965 -0.9049  3.5215
   70MOL0     H 9641   1.618   2.672   6.776  0.4389 -1.7770  0.1239
   70MOL0     H 9642   1.493   3.213   6.703  1.3490  1.4896  0.4456
   70MOL0     H 9643   1.439   3.384   6.840 -3.1795  1.1179  0.4867
   70MOL0     H 9644   2.894   3.863   7.511 -0.3061 -2.6921 -0.3987
   70MOL0     H 9645   3.048   4.009   7.617 -0.3556 -0.9234 -2.4214
   70MOL0     H 9646   3.028   4.301   8.054 -0.9384  0.8580  2.6043
   70MOL0     H 9647   3.155   4.445   8.174 -3.1046 -1.4095 -2.1098
   70MOL0     H 9648   3.480   4.295   8.391 -4.0081 -0.2892 -0.0313
   70MOL0     H 9649   3.606   4.372   8.297 -0.0558 -2.7745  0.0099
   70MOL0     H 9650   3.452   4.596   8.388  0.2081 -0.2483 -0.5154
   70MOL0     H 9651   3.610   4.552   8.439 -0.9991  3.2891  2.1377
   70MOL0     H 9652   3.537   4.460   8.632 -0.5761  2.8872  2.6484
   70MOL0     H 9653   3.420   4.577   8.612 -1.2517 -0.8666 -0.0054
   70MOL0     H 9654   3.302   4.392   8.709 -2.4217 -2.8664  0.6311
   70MOL0     H 9655   3.360   4.269   8.597  2.0321 -0.2172  1.0679
   70MOL0     H 9656   3.025   4.421   8.397  1.2347  0.3627 -2.0162
   70MOL0     H 9657   3.485   4.173   8.191  0.0684  2.4819 -0.2146
   70MOL0     H 9658   3.435   3.940   8.177  2.5978 -1.0726 -2.6786
   70MOL0     H 9659   3.295   3.887   8.073 -1.4857 -0.1694  3.1901
   70MOL0     H 9660   3.438   3.954   7.998 -0.2422 -1.5964 -0.4799
   71MOL0     O 9661   4.458   2.449  10.859  0.0098 -0.3172  0.0720
   71MOL0     C 9662   4.569   2.446  10.808  0.1996  0.5647  0.4545
   71MOL0     O 9663   4.631   2.554  10.748  0.7560  0.3233 -0.7381
   71MOL0     C 9664   4.568   2.673  10.768  0.2760 -0.0176 -0.0630
   71MOL0     C 9665   4.522   2.734  10.654  0.3176 -1.2838 -0.2547
   71MOL0     C 9666   4.449   2.859  10.660  0.1821 -0.3033  0.8490
   71MOL0     C 9667   4.425   2.917  10.789 -0.2413  0.0601  0.2985
   71MOL0     O 9668   4.375   3.040  10.802  0.3395 -0.2735  0.4095
   71MOL0     C 9669   4.466   3.154  10.824 -0.3269  1.0274 -0.4095
   71MOL0     C 9670   4.421   3.237  10.947 -0.1029  0.4588 -0.0236
   71MOL0     C 9671   4.289   3.304  10.938  0.9071  1.0112 -0.3202
   71MOL0     C 9672   4.302   3.438  10.858  0.0698  0.2160  0.0108
   71MOL0     C 9673   4.182   3.501  10.790  0.3001 -1.7217 -0.2831
   71MOL0     C 9674   4.207   3.586  10.661 -1.1967 -0.3893 -1.1054
   71MOL0     C 9675   4.224   3.510  10.530  0.5238  0.4478 -0.1385
   71MOL0     C 9676   4.198   3.599  10.401  0.0772  0.2671  0.0804
   71MOL0     N 9677   4.055   3.600  10.348 -0.5172 -0.6704  0.0845
   71MOL0     C 9678   4.002   3.528  10.248 -0.5330  0.1567 -0.5719
   71MOL0     C 9679   3.886   3.602  10.227 -0.4791  0.4985  1.2432
   71MOL0     C 9680   3.800   3.567  10.105 -0.2257  0.1159 -0.0341
   71MOL0     C 9681   3.679   3.478  10.152 -0.6338 -0.9885 -0.6273
   71MOL0     C 9682   3.591   3.558  10.253  0.6976  0.1208  0.6999
   71MOL0     C 9683   3.450   3.529  10.219 -0.6841 -0.7927 -0.0239
   71MOL0     O 9684   3.426   3.389  10.241 -0.0967  0.6653 -1.3943
   71MOL0     C 9685   3.305   3.338  10.238 -0.1914 -0.1293 -0.3250
   71MOL0     C 9686   3.192   3.417  10.235 -0.1151  0.5109 -0.0925
   71MOL0     C 9687   3.068   3.358  10.238  0.5604 -0.6184  0.2869
   71MOL0     C 9688   2.950   3.453  10.244 -0.5326  0.0670  0.0045
   71MOL0     C 9689   3.052   3.219  10.224 -0.4719 -0.1669 -0.3171
   71MOL0     C 9690   2.926   3.142  10.217  0.3001 -0.0048 -0.8767
   71MOL0     O 9691   2.930   3.012  10.171 -0.1983 -0.3842  0.1132
   71MOL0     C 9692   2.821   2.929  10.200 -0.1068 -0.3958 -0.4352
   71MOL0     C 9693   2.829   2.836  10.303 -0.1420  0.1406  0.4311
   71MOL0     C 9694   2.714   2.759  10.333 -0.2587  0.1390  0.9855
   71MOL0     C 9695   2.594   2.774  10.255  0.7858 -0.1844 -0.4596
   71MOL0     O 9696   2.492   2.682  10.287 -0.0464  0.3077 -0.0690
   71MOL0     C 9697   2.365   2.690  10.210 -0.0272 -1.0883 -1.0881
   71MOL0     C 9698   2.270   2.811  10.249 -0.0031 -0.0875 -0.4776
   71MOL0     C 9699   2.243   2.845  10.398  0.1590  0.5687  0.0927
   71MOL0     C 9700   2.168   2.730  10.475  0.0774 -0.2998 -0.0118
   71MOL0     C 9701   2.221   2.710  10.616  0.7097  0.7464 -0.0716
   71MOL0     C 9702   2.197   2.838  10.698  0.9451  0.0678 -0.8960
   71MOL0     C 9703   2.179   2.812  10.850  0.2539 -0.4795  0.4213
   71MOL0     C 9704   2.282   2.706  10.901 -0.8276  0.0053  0.5259
   71MOL0    Cl 9705   2.443   2.769  10.867 -0.3217  0.4359 -0.0030
   71MOL0     C 9706   2.587   2.865  10.147 -0.3774 -0.5021 -1.1522
   71MOL0     C 9707   2.706   2.938  10.118  0.0185  0.6736 -0.6217
   71MOL0     O 9708   2.822   3.198  10.242  0.9397  1.0880  0.0988
   71MOL0     C 9709   3.168   3.139  10.227  0.7691 -1.0969 -0.3763
   71MOL0     C 9710   3.294   3.201  10.225 -0.0698  0.0988 -0.3993
   71MOL0     N 9711   3.863   3.691  10.316 -0.0721  0.3734  0.1214
   71MOL0     N 9712   3.960   3.683  10.403  1.4152 -0.1411 -0.0337
   71MOL0     C 9713   4.479   2.848  10.900 -0.4816  0.1015 -0.6387
   71MOL0     C 9714   4.554   2.733  10.894 -0.1962  0.0154  0.5322
   71MOL0     C 9715   4.634   2.316  10.803  0.8637  0.1877 -0.0497
   71MOL0     C 9716   4.581   2.227  10.900 -0.7721  0.0800 -0.0918
   71MOL0     C 9717   4.640   2.102  10.914 -0.4711  1.1272 -0.3989
   71MOL0     C 9718   4.733   2.053  10.812  0.1250  0.4302 -0.5122
   71MOL0     O 9719   4.776   1.917  10.807  0.3249 -0.7466 -0.2766
   71MOL0     C 9720   4.722   1.814  10.881  0.2214 -0.2161  0.4005
   71MOL0     C 9721   4.573   1.769  10.830 -0.1734  0.6775  0.3245
   71MOL0     C 9722   4.561   1.733  10.679  0.5226  0.3317  0.7282
   71MOL0     C 9723   4.678   1.651  10.609  1.0874 -0.4098  0.3915
   71MOL0     C 9724   4.697   1.526  10.680 -0.6090 -0.4162  0.4804
   71MOL0     C 9725   4.718   1.445  10.764 -0.6710 -0.1172  0.6763
   71MOL0     C 9726   4.781   2.148  10.724 -0.4015  0.1523 -0.4858
   71MOL0     C 9727   4.737   2.278  10.719 -0.4889 -0.1309 -0.1305
   71MOL0     C 9728   4.797   2.374  10.614 -0.2291 -1.0266  0.3241
   71MOL0     H 9729   4.547   2.690  10.558  1.7225 -0.8692 -0.1072
   71MOL0     H 9730   4.395   2.906  10.579  0.4896 -1.7664 -0.2643
   71MOL0     H 9731   4.486   3.207  10.731  2.4182 -0.4408 -0.7567
   71MOL0     H 9732   4.560   3.105  10.853  0.4870  0.9970 -2.8985
   71MOL0     H 9733   4.396   3.163  11.023 -1.6350 -0.2394 -1.1288
   71MOL0     H 9734   4.492   3.311  10.982 -1.2436  1.5032  0.1566
   71MOL0     H 9735   4.222   3.249  10.871  0.8978  0.8565 -0.1845
   71MOL0     H 9736   4.249   3.320  11.038  3.3718 -0.4326  0.9986
   71MOL0     H 9737   4.352   3.508  10.925 -2.7856  0.8507  1.6529
   71MOL0     H 9738   4.365   3.411  10.773  2.1041 -1.8787  2.0064
   71MOL0     H 9739   4.131   3.567  10.861  1.3278 -1.4027  0.1683
   71MOL0     H 9740   4.117   3.419  10.758 -2.8906  0.5490 -0.0948
   71MOL0     H 9741   4.122   3.654  10.659 -0.0012  1.3982  1.9007
   71MOL0     H 9742   4.293   3.645  10.694 -1.9744 -0.2102  0.7464
   71MOL0     H 9743   4.157   3.424  10.534 -1.2237  1.7767  0.5051
   71MOL0     H 9744   4.325   3.468  10.527  0.4064  0.1414  0.0743
   71MOL0     H 9745   4.239   3.697  10.426  0.6696 -0.1748  0.8688
   71MOL0     H 9746   4.266   3.563  10.323  1.7539 -0.4147  1.7762
   71MOL0     H 9747   4.040   3.439  10.198  0.3376  0.3308 -0.2227
   71MOL0     H 9748   3.855   3.506  10.033 -0.6104 -0.5200  0.1984
   71MOL0     H 9749   3.757   3.654  10.054  1.5934  0.9162 -0.2817
   71MOL0     H 9750   3.618   3.443  10.068 -2.2800  0.5209 -0.1233
   71MOL0     H 9751   3.729   3.397  10.206  1.4136 -0.4575 -1.6501
   71MOL0     H 9752   3.611   3.515  10.352 -2.7930  1.3633  2.0840
   71MOL0     H 9753   3.606   3.666  10.244 -1.8559  0.3818 -1.6591
   71MOL0     H 9754   3.396   3.593  10.290 -1.3555 -1.7249  0.3246
   71MOL0     H 9755   3.409   3.562  10.123 -1.7722  1.0640  0.9989
   71MOL0     H 9756   3.193   3.526  10.229 -0.8374  0.5210 -0.1712
   71MOL0     H 9757   2.879   3.424  10.167  0.9213 -1.5726 -0.7787
   71MOL0     H 9758   2.978   3.556  10.219  3.1857 -1.0308 -0.9633
   71MOL0     H 9759   2.890   3.444  10.335 -1.1210  4.9539  0.3693
   71MOL0     H 9760   2.916   2.826  10.368 -0.7048  2.6386  1.6955
   71MOL0     H 9761   2.718   2.681  10.409 -1.4073  0.1407  1.0724
   71MOL0     H 9762   2.387   2.703  10.104  5.1608 -0.3000 -0.1742
   71MOL0     H 9763   2.306   2.601  10.233 -2.7499  0.7055 -0.7086
   71MOL0     H 9764   2.312   2.906  10.215 -0.0547  1.6822  3.7805
   71MOL0     H 9765   2.170   2.796  10.205 -0.9494 -0.7447  1.7696
   71MOL0     H 9766   2.183   2.935  10.407 -1.4426 -0.4010 -0.5295
   71MOL0     H 9767   2.342   2.858  10.443 -0.6571  1.6726  1.6795
   71MOL0     H 9768   2.181   2.630  10.434 -2.6309 -1.0135  0.6895
   71MOL0     H 9769   2.060   2.749  10.475  0.2617  0.9621  1.4802
   71MOL0     H 9770   2.177   2.621  10.662  0.4408  0.1229 -1.4862
   71MOL0     H 9771   2.328   2.688  10.618  0.6579  0.2429  3.3514
   71MOL0     H 9772   2.114   2.895  10.656 -0.1645 -0.2259  0.7804
   71MOL0     H 9773   2.283   2.905  10.690  0.9784  0.0213 -0.9301
   71MOL0     H 9774   2.077   2.775  10.864 -0.2003  0.7922  0.6014
   71MOL0     H 9775   2.195   2.908  10.899  1.5254 -0.4860  0.0537
   71MOL0     H 9776   2.274   2.606  10.858  3.1423 -1.3377  2.3623
   71MOL0     H 9777   2.272   2.694  11.009  0.1549 -1.0076  0.5269
   71MOL0     H 9778   2.502   2.887  10.084  0.2454 -0.9487 -2.1766
   71MOL0     H 9779   2.696   3.000  10.030  0.2391 -0.3425 -1.3837
   71MOL0     H 9780   3.168   3.030  10.233 -3.2053 -1.2664 -0.9000
   71MOL0     H 9781   3.383   3.139  10.237  1.7810  1.9161 -3.3365
   71MOL0     H 9782   4.466   2.894  10.998  1.1131 -0.4906 -0.1077
   71MOL0     H 9783   4.589   2.677  10.980 -1.6790 -0.9114  0.5583
   71MOL0     H 9784   4.521   2.270  10.980  0.5988  0.0674  0.9737
   71MOL0     H 9785   4.604   2.030  10.987  2.2905 -0.7456 -0.7349
   71MOL0     H 9786   4.784   1.724  10.870  1.5398  0.7857 -0.7125
   71MOL0     H 9787   4.726   1.840  10.987  0.6962  0.1613  0.2922
   71MOL0     H 9788   4.497   1.846  10.841  1.1578  2.2488 -1.0492
   71MOL0     H 9789   4.533   1.690  10.895 -3.9519  3.1090  1.2287
   71MOL0     H 9790   4.468   1.675  10.678  2.4371 -3.0279  2.0618
   71MOL0     H 9791   4.548   1.827  10.624  1.2159 -1.4451 -2.7520
   71MOL0     H 9792   4.775   1.697  10.593  1.1591 -1.1134 -1.4277
   71MOL0     H 9793   4.644   1.623  10.509  1.4479  1.0455 -0.1526
   71MOL0     H 9794   4.747   1.378  10.843 -2.5236  1.9121  3.2152
   71MOL0     H 9795   4.857   2.113  10.654 -2.0265  1.6559 -3.1856
   71MOL0     H 9796   4.832   2.312  10.530 -0.8882  3.5464 -3.8331
   71MOL0     H 9797   4.729   2.448  10.571  0.1485 -0.6081  0.4395
   71MOL0     H 9798   4.880   2.429  10.660  1.8390 -1.8561 -2.1496
   72MOL0     O 9799  10.019   1.904   7.920  0.0140 -0.8654 -0.0391
   72MOL0     C 9800   9.992   1.870   8.035 -0.1337 -0.7632  0.9613
   72MOL0     O 9801   9.919   1.762   8.068  0.0595 -0.1901 -0.1490
   72MOL0     C 9802   9.864   1.685   7.967  0.3487 -0.5780  0.2873
   72MOL0     C 9803   9.750   1.720   7.900  0.4136  0.4410 -0.3969
   72MOL0     C 9804   9.711   1.641   7.787  0.3971 -0.2324 -0.4887
   72MOL0     C 9805   9.763   1.516   7.760 -0.8449 -0.0846  0.1752
   72MOL0     O 9806   9.731   1.430   7.654  0.6547  0.4523 -0.4006
   72MOL0     C 9807   9.646   1.473   7.544 -0.3005  0.1061  0.4891
   72MOL0     C 9808   9.629   1.366   7.437 -0.0863  0.1483 -0.0389
   72MOL0     C 9809   9.758   1.318   7.373 -0.2086  0.4469  0.3949
   72MOL0     C 9810   9.741   1.215   7.255  0.3677 -1.1147  0.2228
   72MOL0     C 9811   9.869   1.202   7.161 -0.5991 -0.0931 -0.5512
   72MOL0     C 9812   9.852   1.083   7.063  0.1028 -0.1167  1.4343
   72MOL0     C 9813   9.747   1.107   6.959  0.1217 -0.4617 -0.5080
   72MOL0     C 9814   9.752   1.261   6.909 -0.7199  0.0543 -0.0558
   72MOL0     N 9815   9.675   1.291   6.786  0.4599  0.6220 -0.9116
   72MOL0     C 9816   9.662   1.225   6.658 -0.9977 -0.0118 -0.3489
   72MOL0     C 9817   9.545   1.283   6.605 -0.1243 -0.2273  0.7828
   72MOL0     C 9818   9.497   1.251   6.469 -1.1452  0.4063  0.6986
   72MOL0     C 9819   9.473   1.103   6.456  0.8229 -0.4954  0.3140
   72MOL0     C 9820   9.368   1.039   6.552  0.6919  1.0166  0.0212
   72MOL0     C 9821   9.358   0.880   6.538  1.2226 -0.5845  0.4351
   72MOL0     O 9822   9.272   0.849   6.431 -0.1557  0.6222  0.9218
   72MOL0     C 9823   9.159   0.798   6.475 -0.5349 -0.2888 -0.0856
   72MOL0     C 9824   9.153   0.659   6.483 -0.0479 -0.5345 -0.6925
   72MOL0     C 9825   9.030   0.600   6.520 -0.2894  0.5030  0.4441
   72MOL0     C 9826   9.032   0.452   6.552  0.4889 -0.0661 -0.0235
   72MOL0     C 9827   8.921   0.679   6.537  0.0104 -0.6240 -0.8954
   72MOL0     C 9828   8.787   0.619   6.571 -0.3182  0.2664  0.9721
   72MOL0     O 9829   8.706   0.678   6.663 -0.1414 -0.2250  0.3311
   72MOL0     C 9830   8.600   0.624   6.735 -0.4795 -0.0776 -0.0823
   72MOL0     C 9831   8.528   0.713   6.821 -0.1590  0.5788  1.0160
   72MOL0     C 9832   8.413   0.657   6.894 -0.8554 -0.3002  1.1516
   72MOL0     C 9833   8.381   0.521   6.862  0.1653  0.2099  0.1177
   72MOL0     O 9834   8.274   0.452   6.918 -0.0203  0.5774 -0.5840
   72MOL0     C 9835   8.258   0.437   7.060  0.6489 -0.1100  0.4850
   72MOL0     C 9836   8.107   0.447   7.106  0.0241 -0.4408 -0.0185
   72MOL0     C 9837   8.094   0.421   7.256 -0.6072 -0.0269 -0.5830
   72MOL0     C 9838   7.954   0.440   7.321 -0.2375  0.1014  0.4094
   72MOL0     C 9839   7.981   0.418   7.468 -0.6199  0.9067  0.3250
   72MOL0     C 9840   7.840   0.421   7.526 -0.2681  0.3464  0.4561
   72MOL0     C 9841   7.856   0.385   7.676 -0.0630  0.3771 -0.0670
   72MOL0     C 9842   7.775   0.464   7.775 -0.2014 -0.5708  0.9522
   72MOL0    Cl 9843   7.862   0.438   7.930 -0.4990 -0.2747 -0.3246
   72MOL0     C 9844   8.464   0.439   6.782  0.3187 -0.6027  0.2376
   72MOL0     C 9845   8.572   0.493   6.722  0.0598  0.3625  0.2488
   72MOL0     O 9846   8.758   0.520   6.507 -0.7843 -0.0042 -0.1263
   72MOL0     C 9847   8.932   0.816   6.535  0.0838 -1.2777 -0.0027
   72MOL0     C 9848   9.050   0.875   6.495 -0.9110  0.7124 -0.8600
   72MOL0     N 9849   9.497   1.379   6.689 -1.0432 -0.6992 -0.8182
   72MOL0     N 9850   9.581   1.391   6.792 -0.2783 -0.5278 -0.4822
   72MOL0     C 9851   9.872   1.474   7.843 -0.0243  0.5721  0.4861
   72MOL0     C 9852   9.914   1.557   7.951 -0.5763  0.1194  0.0335
   72MOL0     C 9853  10.056   1.947   8.153 -0.5999 -0.8806  0.6448
   72MOL0     C 9854  10.149   2.049   8.120  0.0114 -0.1100  1.4040
   72MOL0     C 9855  10.217   2.121   8.215  0.2031  0.4966 -0.3217
   72MOL0     C 9856  10.209   2.074   8.358 -0.3953 -0.6147  0.0258
   72MOL0     O 9857  10.295   2.134   8.453  0.4423 -0.3758 -0.0845
   72MOL0     C 9858  10.420   2.197   8.403 -0.7749 -1.0063  0.2693
   72MOL0     C 9859  10.524   2.109   8.332 -0.2380  0.0316 -0.2686
   72MOL0     C 9860  10.520   1.962   8.395  0.2835 -0.2693  0.6491
   72MOL0     C 9861  10.547   1.942   8.537 -0.5571  0.3527  0.8494
   72MOL0     C 9862  10.695   1.969   8.561 -0.4070  0.8969  0.3744
   72MOL0     C 9863  10.816   1.967   8.577  0.1887 -0.3938  0.3484
   72MOL0     C 9864  10.121   1.965   8.386  1.0462  0.4139 -0.3935
   72MOL0     C 9865  10.038   1.912   8.292 -0.7747 -0.1941  0.3883
   72MOL0     C 9866   9.950   1.798   8.335  0.4986 -0.4918 -0.3713
   72MOL0     H 9867   9.701   1.812   7.928 -0.5335  0.2711 -1.4340
   72MOL0     H 9868   9.626   1.675   7.728 -0.7779 -1.6214  0.3365
   72MOL0     H 9869   9.705   1.547   7.488 -1.1543 -0.6990 -1.6081
   72MOL0     H 9870   9.551   1.511   7.581  0.1579  1.5899  0.2537
   72MOL0     H 9871   9.587   1.275   7.480  0.2173 -0.6359 -1.3255
   72MOL0     H 9872   9.563   1.397   7.355 -0.6789 -0.1900  0.3095
   72MOL0     H 9873   9.809   1.413   7.351 -1.8965  1.4707  0.7255
   72MOL0     H 9874   9.827   1.283   7.451  3.8480  4.3931 -0.9804
   72MOL0     H 9875   9.713   1.117   7.294 -1.6445 -0.5914  0.1556
   72MOL0     H 9876   9.652   1.238   7.196 -0.1555 -1.8588  0.7169
   72MOL0     H 9877   9.950   1.169   7.227 -0.4022 -3.2094 -2.1467
   72MOL0     H 9878   9.912   1.293   7.118 -0.1290 -0.6956 -1.3939
   72MOL0     H 9879   9.948   1.050   7.021  0.0528  0.4233  0.8753
   72MOL0     H 9880   9.807   0.994   7.107 -2.1638  0.0810 -0.2921
   72MOL0     H 9881   9.651   1.092   7.007  0.5685  0.7501  0.8364
   72MOL0     H 9882   9.753   1.038   6.874  1.5943  0.0421 -0.8548
   72MOL0     H 9883   9.724   1.329   6.990  2.6484  0.9861  0.4792
   72MOL0     H 9884   9.855   1.286   6.884 -0.4020 -1.3461 -0.2412
   72MOL0     H 9885   9.713   1.137   6.621  0.0292  0.8026 -0.9413
   72MOL0     H 9886   9.580   1.284   6.406 -0.1417  0.0382  1.8157
   72MOL0     H 9887   9.403   1.305   6.452 -0.8297  0.6526 -0.3537
   72MOL0     H 9888   9.431   1.087   6.356  1.6553  0.2492 -0.1703
   72MOL0     H 9889   9.570   1.053   6.470  1.0516  0.4486  2.3909
   72MOL0     H 9890   9.404   1.059   6.654  2.7797 -4.5696  0.7043
   72MOL0     H 9891   9.267   1.080   6.545 -0.0131 -0.4954  0.8573
   72MOL0     H 9892   9.454   0.840   6.505  0.8836 -1.8137  0.8682
   72MOL0     H 9893   9.335   0.823   6.628  2.8942  0.4694  1.5730
   72MOL0     H 9894   9.247   0.605   6.476  1.6162  2.2130 -1.0172
   72MOL0     H 9895   8.950   0.408   6.610  0.6301 -2.1076 -1.2879
   72MOL0     H 9896   9.129   0.423   6.593  0.6686 -1.4428 -1.3732
   72MOL0     H 9897   9.039   0.400   6.457  3.0879  0.8871 -0.4392
   72MOL0     H 9898   8.566   0.814   6.830  2.9616 -0.1884 -1.8051
   72MOL0     H 9899   8.357   0.719   6.964  0.0630  1.8931  0.0644
   72MOL0     H 9900   8.295   0.335   7.072 -0.3618 -0.7668 -1.5903
   72MOL0     H 9901   8.327   0.507   7.109  1.9800  1.2179 -2.9458
   72MOL0     H 9902   8.073   0.549   7.087 -0.5612 -0.4609  0.8517
   72MOL0     H 9903   8.046   0.389   7.036  1.3444  1.5516 -3.0127
   72MOL0     H 9904   8.170   0.487   7.300  2.1087 -2.8925 -0.6192
   72MOL0     H 9905   8.130   0.321   7.283 -2.4697 -1.0393 -1.6791
   72MOL0     H 9906   7.883   0.366   7.284  0.9098 -0.5216 -0.5953
   72MOL0     H 9907   7.913   0.541   7.314 -0.9490 -0.1769  0.5057
   72MOL0     H 9908   8.020   0.318   7.487 -1.2435  0.3800 -1.0823
   72MOL0     H 9909   8.041   0.497   7.515  0.2415 -2.0397  4.7978
   72MOL0     H 9910   7.770   0.352   7.479 -2.3095  3.5401 -1.5892
   72MOL0     H 9911   7.801   0.523   7.516  1.5236  0.8553 -3.2907
   72MOL0     H 9912   7.962   0.388   7.704 -0.1704  1.6082  0.2292
   72MOL0     H 9913   7.819   0.282   7.685  0.9903 -0.5954 -4.2111
   72MOL0     H 9914   7.679   0.411   7.777  0.4594 -2.1581 -2.0030
   72MOL0     H 9915   7.769   0.569   7.747 -1.3301 -1.1242 -1.0883
   72MOL0     H 9916   8.435   0.335   6.770 -3.4568  0.3420  0.0051
   72MOL0     H 9917   8.637   0.425   6.668 -2.2156 -1.5050 -0.2837
   72MOL0     H 9918   8.849   0.884   6.555  0.0386 -1.7889  1.7010
   72MOL0     H 9919   9.052   0.983   6.482  3.0344  0.7879 -0.7691
   72MOL0     H 9920   9.911   1.375   7.824  2.7816  1.2557  2.1005
   72MOL0     H 9921  10.002   1.520   8.002  1.0448  1.6414 -1.4966
   72MOL0     H 9922  10.175   2.080   8.019 -0.9230 -0.9523  0.8803
   72MOL0     H 9923  10.277   2.204   8.179  0.2289  0.1857 -1.0123
   72MOL0     H 9924  10.399   2.287   8.346  0.3520 -1.7390 -1.3720
   72MOL0     H 9925  10.478   2.239   8.487 -1.6995 -0.6656  0.7461
   72MOL0     H 9926  10.624   2.153   8.345 -0.9653  1.7562 -0.2166
   72MOL0     H 9927  10.505   2.103   8.225  0.0415 -0.7545 -0.2813
   72MOL0     H 9928  10.417   1.928   8.384 -0.0632  0.2926  1.8885
   72MOL0     H 9929  10.591   1.914   8.327 -0.6428  0.7085 -1.0830
   72MOL0     H 9930  10.529   1.836   8.555  2.9657 -0.3959  0.6749
   72MOL0     H 9931  10.483   1.999   8.605  0.5417  0.8510  1.5091
   72MOL0     H 9932  10.923   1.972   8.571  0.6927 -2.5810  4.2908
   72MOL0     H 9933  10.103   1.934   8.488 -0.3145  0.0070 -0.7378
   72MOL0     H 9934   9.988   1.699   8.307  2.6828 -0.5215  2.2450
   72MOL0     H 9935   9.941   1.798   8.444 -0.6500  0.3635 -0.4531
   72MOL0     H 9936   9.852   1.815   8.288  0.3328  2.0046  0.7132
   73MOL0     O 9937   5.160   0.571  11.129  0.2813  0.2983  0.1121
   73MOL0     C 9938   5.176   0.687  11.082 -0.9514 -0.3682 -0.4850
   73MOL0     O 9939   5.297   0.730  11.033 -0.1701 -0.1591 -0.1858
   73MOL0     C 9940   5.410   0.651  11.060 -0.6981 -0.8078 -0.1762
   73MOL0     C 9941   5.461   0.625  11.193  0.0406 -1.0055 -0.1432
   73MOL0     C 9942   5.584   0.571  11.215 -0.9785 -0.1258 -1.2608
   73MOL0     C 9943   5.662   0.534  11.100  0.3324 -0.3809  0.2030
   73MOL0     O 9944   5.791   0.495  11.137 -0.1182 -0.5608 -0.0951
   73MOL0     C 9945   5.899   0.572  11.081 -0.7909 -0.1059  0.1533
   73MOL0     C 9946   5.886   0.715  11.124  0.3193 -0.9312 -0.2314
   73MOL0     C 9947   6.017   0.779  11.077  0.3316  0.1127 -0.0892
   73MOL0     C 9948   6.120   0.761  11.196  0.5197 -0.2436  0.3753
   73MOL0     C 9949   6.260   0.822  11.166  0.2654  0.3085 -0.6711
   73MOL0     C 9950   6.252   0.981  11.164 -0.5201  0.3871 -0.6098
   73MOL0     C 9951   6.382   1.033  11.101  0.3898  0.5510  0.8167
   73MOL0     C 9952   6.377   1.187  11.077  0.1339 -0.5729 -0.3359
   73MOL0     N 9953   6.463   1.235  10.969 -0.3534 -0.3220 -0.4500
   73MOL0     C 9954   6.592   1.199  10.959  0.6705 -0.1386 -0.2589
   73MOL0     C 9955   6.645   1.254  10.846  0.1633 -0.2310 -0.4103
   73MOL0     C 9956   6.788   1.239  10.798  0.4761  0.0024  0.3730
   73MOL0     C 9957   6.853   1.102  10.807 -0.3172  0.5262 -0.2385
   73MOL0     C 9958   6.820   1.014  10.692  0.7956 -0.7311 -0.9671
   73MOL0     C 9959   6.671   0.974  10.676 -0.3082 -0.8273 -0.2054
   73MOL0     O 9960   6.626   0.888  10.785  0.2826 -0.6611 -0.0118
   73MOL0     C 9961   6.497   0.856  10.791  0.3866 -0.0785  0.0646
   73MOL0     C 9962   6.463   0.724  10.836  0.4576 -0.6785  0.4236
   73MOL0     C 9963   6.337   0.667  10.829 -0.0921  0.0286  0.1687
   73MOL0     C 9964   6.318   0.537  10.897 -0.6380 -0.0303 -0.1953
   73MOL0     C 9965   6.237   0.745  10.761 -0.4714  0.3269 -0.4787
   73MOL0     C 9966   6.104   0.686  10.729  0.4004 -0.2787  0.5975
   73MOL0     O 9967   6.007   0.768  10.672 -0.3525 -0.1034 -0.4882
   73MOL0     C 9968   5.883   0.715  10.665 -0.8653  0.2277 -0.9974
   73MOL0     C 9969   5.852   0.615  10.584  0.3080 -0.0209  0.8309
   73MOL0     C 9970   5.715   0.582  10.563  0.8064 -1.2327 -0.8504
   73MOL0     C 9971   5.606   0.656  10.616 -0.5841  0.2979  0.1136
   73MOL0     O 9972   5.470   0.624  10.607 -0.4276 -0.4708  0.1352
   73MOL0     C 9973   5.433   0.497  10.551  0.2195  0.7466  0.3290
   73MOL0     C 9974   5.281   0.502  10.532 -0.7199  0.9184  0.1073
   73MOL0     C 9975   5.184   0.547  10.648 -0.4394  0.5884 -0.7991
   73MOL0     C 9976   5.047   0.555  10.593  0.8787  0.6355 -0.7569
   73MOL0     C 9977   4.946   0.578  10.714 -0.1969  0.5294 -0.7778
   73MOL0     C 9978   4.802   0.539  10.682  0.1845  0.0853  0.2474
   73MOL0     C 9979   4.724   0.589  10.805 -0.7204  0.5655  0.1862
   73MOL0     C 9980   4.574   0.575  10.797 -0.4322 -0.1929  0.7126
   73MOL0    Cl 9981   4.508   0.674  10.659  0.0322  0.2156 -0.3906
   73MOL0     C 9982   5.646   0.754  10.704  0.8102  0.0174 -0.0618
   73MOL0     C 9983   5.773   0.777  10.722 -0.2960  0.5721  0.0239
   73MOL0     O 9984   6.076   0.570  10.762 -0.4483  0.1484 -0.6913
   73MOL0     C 9985   6.266   0.877  10.730 -0.0717  0.0107  0.1286
   73MOL0     C 9986   6.389   0.936  10.753 -0.5193 -0.6813  1.4386
   73MOL0     N 9987   6.548   1.334  10.794  0.0372  0.1359  0.7403
   73MOL0     N 9988   6.438   1.328  10.867  0.5138  0.0470 -0.1776
   73MOL0     C 9989   5.614   0.555  10.970 -0.1270 -0.1056  0.2689
   73MOL0     C 9990   5.490   0.621  10.949  0.1428  0.6625  0.0389
   73MOL0     C 9991   5.069   0.786  11.081  0.4393 -0.3849 -0.2318
   73MOL0     C 9992   4.940   0.739  11.066  0.7846 -0.5237 -0.3081
   73MOL0     C 9993   4.831   0.823  11.077  0.1078  0.4487  0.0879
   73MOL0     C 9994   4.847   0.958  11.085  0.9172 -0.3039  0.1031
   73MOL0     O 9995   4.726   1.026  11.081 -0.4009 -0.1266 -0.9211
   73MOL0     C 9996   4.714   1.170  11.080 -0.5064  0.6346  0.5941
   73MOL0     C 9997   4.573   1.210  11.107  0.4882  0.3939 -0.8113
   73MOL0     C 9998   4.479   1.134  11.007 -0.6020  0.3748 -0.4884
   73MOL0     C 9999   4.347   1.221  11.004 -0.3312 -0.1379  0.4029
   73MOL0     C10000   4.253   1.160  10.915  0.3261  0.9026 -0.4468
   73MOL0     C10001   4.157   1.107  10.854 -0.3405 -0.6038 -0.7204
   73MOL0     C10002   4.978   1.008  11.108  0.1800 -0.9441  0.0066
   73MOL0     C10003   5.089   0.931  11.098 -1.7263  0.2540  0.3731
   73MOL0     C10004   5.218   1.012  11.106  1.4036 -0.0385  0.2968
   73MOL0     H10005   5.407   0.655  11.282  1.6113  0.6060  0.3244
   73MOL0     H10006   5.619   0.555  11.317  0.9769  3.4135 -1.2513
   73MOL0     H10007   5.907   0.566  10.972  0.7356  2.1917  0.0680
   73MOL0     H10008   5.992   0.526  11.116 -0.1136  1.2480  0.2005
   73MOL0     H10009   5.809   0.766  11.065  2.2224  1.9218 -0.4869
   73MOL0     H10010   5.863   0.723  11.231  1.7651 -1.7873  0.1682
   73MOL0     H10011   6.057   0.752  10.979  3.1468 -1.8997  1.4446
   73MOL0     H10012   5.994   0.885  11.081  0.3389  0.1016  2.8267
   73MOL0     H10013   6.084   0.819  11.281 -2.5278  0.6115 -1.3392
   73MOL0     H10014   6.132   0.653  11.214  0.6854 -0.1798  0.6461
   73MOL0     H10015   6.298   0.784  11.071 -1.0097 -0.1332 -1.0197
   73MOL0     H10016   6.330   0.789  11.243 -1.0690  1.4337  1.1077
   73MOL0     H10017   6.159   1.000  11.110 -1.4349 -0.7460  0.5222
   73MOL0     H10018   6.237   1.021  11.264  1.7024  1.0868 -0.4950
   73MOL0     H10019   6.406   0.990  11.004  1.3189  0.9279  0.8653
   73MOL0     H10020   6.468   1.012  11.165  2.0668  2.9198 -0.5084
   73MOL0     H10021   6.274   1.215  11.054  0.5052  0.6174 -0.6307
   73MOL0     H10022   6.405   1.232  11.172  3.2407  0.0540 -1.4325
   73MOL0     H10023   6.630   1.122  11.024 -3.0018 -0.5844  1.6152
   73MOL0     H10024   6.848   1.311  10.854  1.9345  0.7190 -1.9604
   73MOL0     H10025   6.797   1.285  10.699  3.0165 -1.3239 -0.0956
   73MOL0     H10026   6.960   1.122  10.818 -0.5650  2.2587 -0.6707
   73MOL0     H10027   6.817   1.052  10.897 -2.0606 -0.1262 -1.2586
   73MOL0     H10028   6.846   1.070  10.602 -2.0327  0.7775 -0.9525
   73MOL0     H10029   6.880   0.923  10.691 -0.3251 -1.5057 -0.4106
   73MOL0     H10030   6.613   1.066  10.664  1.2866  0.2726  0.2175
   73MOL0     H10031   6.672   0.918  10.582  2.6213  0.2605 -0.9296
   73MOL0     H10032   6.538   0.651  10.867 -0.1895 -1.3863  0.3551
   73MOL0     H10033   6.299   0.453  10.830  0.9783 -0.9206  0.3929
   73MOL0     H10034   6.225   0.547  10.954 -2.1156  0.0153 -2.5021
   73MOL0     H10035   6.397   0.513  10.969 -0.5801 -1.1636 -0.6196
   73MOL0     H10036   5.933   0.554  10.545  0.5505  0.0267  1.2484
   73MOL0     H10037   5.691   0.493  10.506  1.0332 -1.9384  0.1243
   73MOL0     H10038   5.475   0.469  10.454 -1.4230 -2.8807  0.4847
   73MOL0     H10039   5.467   0.411  10.611 -0.7754 -0.0823 -0.2605
   73MOL0     H10040   5.267   0.576  10.453 -1.8276  4.0790  3.0170
   73MOL0     H10041   5.265   0.398  10.499 -0.3688 -0.6500  4.2592
   73MOL0     H10042   5.207   0.641  10.699  0.5396 -0.2698  0.4137
   73MOL0     H10043   5.187   0.478  10.733  3.5038  1.5301  0.0613
   73MOL0     H10044   5.031   0.457  10.547  0.6114  0.2654  0.1049
   73MOL0     H10045   5.036   0.617  10.504  2.6963 -0.4316 -1.7946
   73MOL0     H10046   4.974   0.514  10.798 -1.7250  0.3617 -0.3509
   73MOL0     H10047   4.943   0.685  10.739 -2.7915  0.2390  0.6011
   73MOL0     H10048   4.780   0.433  10.664 -4.1597  0.9917 -0.7553
   73MOL0     H10049   4.759   0.593  10.597 -1.6301 -2.5803 -0.6575
   73MOL0     H10050   4.736   0.696  10.824 -2.0522  0.4034  2.3300
   73MOL0     H10051   4.749   0.529  10.894  0.9661 -0.1241 -0.7005
   73MOL0     H10052   4.523   0.594  10.892 -3.1306 -0.3589 -0.6063
   73MOL0     H10053   4.542   0.470  10.788 -0.2792 -0.4167  2.4062
   73MOL0     H10054   5.570   0.807  10.760  1.1040  0.1420  0.2249
   73MOL0     H10055   5.798   0.859  10.789 -0.3665  1.7638 -1.3557
   73MOL0     H10056   6.183   0.943  10.706  2.2301  4.0457  2.1192
   73MOL0     H10057   6.403   1.040  10.726 -2.6319 -0.4589  1.0067
   73MOL0     H10058   5.689   0.540  10.893  0.7483  1.0838  0.8599
   73MOL0     H10059   5.452   0.632  10.848 -3.0730  0.2290  1.0872
   73MOL0     H10060   4.927   0.632  11.059  0.6858 -0.4003 -2.6718
   73MOL0     H10061   4.731   0.781  11.081  0.3956 -0.2524  0.1037
   73MOL0     H10062   4.775   1.223  11.154 -1.1329  3.3325 -0.6876
   73MOL0     H10063   4.747   1.206  10.982 -0.6459 -2.5902 -0.7478
   73MOL0     H10064   4.560   1.318  11.095 -2.9448  0.1817  0.1173
   73MOL0     H10065   4.541   1.178  11.207  2.6047 -0.0650 -0.2270
   73MOL0     H10066   4.510   1.134  10.902 -2.5844  2.1833 -1.1501
   73MOL0     H10067   4.449   1.037  11.046 -0.8739 -0.5555 -2.8575
   73MOL0     H10068   4.346   1.327  10.979 -0.7159 -0.0286  0.8766
   73MOL0     H10069   4.305   1.207  11.104 -2.4571 -1.5368 -0.5962
   73MOL0     H10070   4.085   1.047  10.801 -1.0694 -1.4815  1.1706
   73MOL0     H10071   4.997   1.113  11.124  1.6816 -1.3069  0.8240
   73MOL0     H10072   5.301   0.946  11.134  1.8422 -1.1918 -3.1627
   73MOL0     H10073   5.233   1.073  11.016  2.8071  1.7979  1.7191
   73MOL0     H10074   5.207   1.090  11.182 -2.8964  1.2513 -1.3412
   74MOL0     O10075   7.979   7.056   3.684  0.1650  0.0770 -0.2925
   74MOL0     C10076   7.910   7.131   3.758 -0.1584 -0.1724 -1.1514
   74MOL0     O10077   7.953   7.205   3.862  0.2448  0.6994  0.7392
   74MOL0     C10078   8.081   7.203   3.907  0.3929 -0.0383 -0.3597
   74MOL0     C10079   8.158   7.086   3.922  0.5513  0.1228  0.2010
   74MOL0     C10080   8.281   7.092   3.981 -0.4346  0.1059 -0.0405
   74MOL0     C10081   8.328   7.209   4.021 -0.5529 -0.2386  0.7332
   74MOL0     O10082   8.451   7.235   4.068  0.0155  0.4287  0.5104
   74MOL0     C10083   8.500   7.152   4.169  0.6978  0.1588 -0.0226
   74MOL0     C10084   8.482   7.205   4.303  0.3540  0.5731  0.4032
   74MOL0     C10085   8.584   7.321   4.323 -0.0868  1.0475  0.1306
   74MOL0     C10086   8.552   7.412   4.440 -0.4661  0.0696  0.1683
   74MOL0     C10087   8.412   7.482   4.433 -0.6947  0.6728 -0.0163
   74MOL0     C10088   8.383   7.540   4.298 -0.6792 -0.0951  0.1662
   74MOL0     C10089   8.251   7.597   4.281  0.0921 -0.4038  0.0507
   74MOL0     C10090   8.229   7.722   4.368 -0.1865  0.1263  0.6266
   74MOL0     N10091   8.116   7.796   4.316  0.0139 -0.8263  0.3990
   74MOL0     C10092   8.124   7.863   4.191  0.4480  0.9815 -0.3757
   74MOL0     C10093   8.003   7.911   4.171 -0.0719  0.5418  1.0141
   74MOL0     C10094   7.967   7.997   4.048  1.1411  0.6587  0.4364
   74MOL0     C10095   7.929   7.912   3.924 -0.0528 -0.0860 -0.3601
   74MOL0     C10096   7.932   7.982   3.794  0.2258 -0.5414  0.2435
   74MOL0     C10097   7.841   8.109   3.788  0.3254  0.2594  0.7233
   74MOL0     O10098   7.865   8.214   3.877 -0.0733  0.8773 -0.0954
   74MOL0     C10099   7.799   8.332   3.866 -0.2234  0.1784  0.3322
   74MOL0     C10100   7.699   8.366   3.786  0.2204 -0.3238  0.2756
   74MOL0     C10101   7.645   8.493   3.781  1.0074  0.5229 -0.5111
   74MOL0     C10102   7.529   8.505   3.684 -0.0717  0.6569 -0.0807
   74MOL0     C10103   7.698   8.592   3.859  0.3924 -0.4733 -0.1533
   74MOL0     C10104   7.661   8.731   3.866 -0.2060 -0.8949  0.0726
   74MOL0     O10105   7.746   8.820   3.922 -0.8584 -0.7791  0.2010
   74MOL0     C10106   7.738   8.951   3.869 -0.6038  0.8483  0.1299
   74MOL0     C10107   7.678   9.058   3.939  0.6973 -0.5654  0.1371
   74MOL0     C10108   7.660   9.190   3.879 -0.5571 -0.3175 -0.7854
   74MOL0     C10109   7.707   9.214   3.753  0.3489  0.7916  0.4704
   74MOL0     O10110   7.680   9.332   3.679 -0.3493  0.1286 -0.1731
   74MOL0     C10111   7.654   9.322   3.544  0.3441  0.6289 -0.4862
   74MOL0     C10112   7.780   9.371   3.470 -0.0394  0.2963  0.1616
   74MOL0     C10113   7.789   9.532   3.482 -0.5005  0.2499  0.2751
   74MOL0     C10114   7.711   9.607   3.380  0.3363 -0.1928  0.0103
   74MOL0     C10115   7.749   9.751   3.383 -0.2465 -0.7259 -0.6437
   74MOL0     C10116   7.660   9.866   3.308 -0.8229  0.5132  0.5146
   74MOL0     C10117   7.734  10.003   3.294  0.6484  0.9052  0.2466
   74MOL0     C10118   7.890  10.006   3.281 -0.0477 -0.1192 -0.4814
   74MOL0    Cl10119   7.956   9.945   3.131  0.2089  0.0552 -0.2011
   74MOL0     C10120   7.796   9.111   3.697  1.1016 -0.6378 -0.0672
   74MOL0     C10121   7.802   8.986   3.752  0.7518  0.0684  0.2684
   74MOL0     O10122   7.546   8.756   3.841  0.6061  0.4726  0.6980
   74MOL0     C10123   7.809   8.558   3.944 -0.2225 -1.0010 -0.8822
   74MOL0     C10124   7.863   8.435   3.946  0.1098  0.6857  0.3265
   74MOL0     N10125   7.926   7.890   4.283 -0.1627 -0.0403  0.1823
   74MOL0     N10126   7.995   7.828   4.370  0.1862 -0.1194  0.6167
   74MOL0     C10127   8.246   7.324   4.012  0.3314  1.4261 -0.1778
   74MOL0     C10128   8.128   7.326   3.949 -0.0102  0.4467 -1.4906
   74MOL0     C10129   7.766   7.149   3.723 -0.0413 -0.3865 -0.6744
   74MOL0     C10130   7.674   7.177   3.820  0.0084 -0.7243  0.1031
   74MOL0     C10131   7.540   7.186   3.789 -0.4950  0.3509  0.5349
   74MOL0     C10132   7.486   7.188   3.661  0.2525 -0.8469 -0.1441
   74MOL0     O10133   7.351   7.197   3.654 -0.4760  0.3082 -0.1519
   74MOL0     C10134   7.278   7.214   3.533  0.4735  0.8721  0.4061
   74MOL0     C10135   7.181   7.336   3.537 -0.4575 -0.3578 -1.0187
   74MOL0     C10136   7.259   7.468   3.525 -0.6684 -0.1797  0.1348
   74MOL0     C10137   7.191   7.566   3.623 -0.2359 -0.3255  0.3360
   74MOL0     C10138   7.256   7.697   3.646  0.7562  0.3177 -0.1716
   74MOL0     C10139   7.305   7.807   3.666 -0.9768  0.3964  0.1516
   74MOL0     C10140   7.573   7.175   3.561  0.1267  0.5796  0.3959
   74MOL0     C10141   7.712   7.148   3.580 -0.9141  0.3352 -0.7902
   74MOL0     C10142   7.804   7.122   3.459 -0.1781 -0.2519 -0.1296
   74MOL0     H10143   8.118   6.989   3.893  1.7931 -0.2735 -0.2656
   74MOL0     H10144   8.338   7.002   4.004 -1.9608 -0.7936  0.3493
   74MOL0     H10145   8.606   7.125   4.158  1.0129 -1.0151  4.1072
   74MOL0     H10146   8.452   7.054   4.167  4.0192 -1.6249 -2.3854
   74MOL0     H10147   8.377   7.235   4.298 -0.0037 -0.7610 -0.7825
   74MOL0     H10148   8.471   7.126   4.378  0.6087 -0.6486 -0.8076
   74MOL0     H10149   8.682   7.275   4.343 -0.3793  0.9818  1.5099
   74MOL0     H10150   8.600   7.381   4.232  3.7918 -0.1255 -0.1395
   74MOL0     H10151   8.560   7.362   4.537 -0.5224  0.1807  0.2310
   74MOL0     H10152   8.626   7.490   4.454 -2.4190  1.5122  4.1026
   74MOL0     H10153   8.410   7.560   4.509 -1.3321  0.8977 -0.2552
   74MOL0     H10154   8.325   7.418   4.456 -1.3771  1.1736 -1.0998
   74MOL0     H10155   8.455   7.616   4.267 -1.1086 -0.1232 -0.9411
   74MOL0     H10156   8.386   7.459   4.224  0.8781  0.1555 -0.0768
   74MOL0     H10157   8.175   7.521   4.300  0.5328 -1.1943 -1.2240
   74MOL0     H10158   8.235   7.625   4.177 -0.0105  0.1700  0.2190
   74MOL0     H10159   8.213   7.699   4.474  1.2574  1.6834  1.2342
   74MOL0     H10160   8.322   7.779   4.353 -0.5651  1.7889  3.7285
   74MOL0     H10161   8.208   7.869   4.122  0.8045 -1.1570 -0.2024
   74MOL0     H10162   8.056   8.059   4.036  0.0510  2.0814 -0.6443
   74MOL0     H10163   7.898   8.080   4.063  0.6436  0.1470  1.0425
   74MOL0     H10164   7.992   7.823   3.924  0.6831  0.4285 -1.1755
   74MOL0     H10165   7.825   7.887   3.948 -0.8949  3.0308 -0.2682
   74MOL0     H10166   8.038   8.006   3.782 -0.2775  2.5966  1.3820
   74MOL0     H10167   7.901   7.921   3.708  4.1221 -0.9859 -1.0910
   74MOL0     H10168   7.856   8.144   3.685  3.5321 -1.3316  0.5401
   74MOL0     H10169   7.742   8.063   3.802  0.7580 -1.0790 -0.3473
   74MOL0     H10170   7.653   8.289   3.726 -1.0638 -1.3710  2.4768
   74MOL0     H10171   7.489   8.605   3.666 -0.2400  0.4913 -0.6387
   74MOL0     H10172   7.443   8.448   3.722 -1.2043  0.2556 -2.9813
   74MOL0     H10173   7.556   8.474   3.583  1.3526 -0.9133  0.7169
   74MOL0     H10174   7.624   9.034   4.030  1.6145 -0.1037  0.8112
   74MOL0     H10175   7.615   9.271   3.936  0.6500  0.9457 -1.5891
   74MOL0     H10176   7.635   9.223   3.502 -1.8213  0.8342 -0.1083
   74MOL0     H10177   7.557   9.372   3.540 -0.3927 -0.6458  0.6716
   74MOL0     H10178   7.872   9.318   3.495 -0.3859  0.1026  1.0756
   74MOL0     H10179   7.769   9.354   3.363  1.2480 -1.5681  0.2894
   74MOL0     H10180   7.895   9.549   3.460  0.4543 -2.6302  2.1624
   74MOL0     H10181   7.775   9.566   3.585 -0.1867 -0.4396  0.5508
   74MOL0     H10182   7.605   9.604   3.408 -0.9543  0.4287 -3.9991
   74MOL0     H10183   7.723   9.567   3.279  1.4137 -0.1967  0.1282
   74MOL0     H10184   7.758   9.785   3.486  1.7009  2.1170 -1.6433
   74MOL0     H10185   7.849   9.760   3.341  0.8501  1.2413  2.1530
   74MOL0     H10186   7.570   9.884   3.367 -0.1072  0.4808  1.6399
   74MOL0     H10187   7.635   9.824   3.210 -0.3144  0.9489  0.1973
   74MOL0     H10188   7.716  10.072   3.377  2.7904  3.5484 -1.3131
   74MOL0     H10189   7.676  10.058   3.219 -0.4807  2.6211  2.2705
   74MOL0     H10190   7.938   9.958   3.367  1.4170 -0.6494 -1.5496
   74MOL0     H10191   7.919  10.111   3.297 -0.2143  0.0188 -1.0705
   74MOL0     H10192   7.846   9.115   3.601  1.4696 -2.0508  0.0392
   74MOL0     H10193   7.860   8.912   3.698  2.2888  0.4490  1.3188
   74MOL0     H10194   7.848   8.627   4.018  1.1287 -0.2122 -2.2625
   74MOL0     H10195   7.953   8.420   4.004  0.1418  2.2081  0.7276
   74MOL0     H10196   8.280   7.424   4.034  4.0903  0.4582 -0.7939
   74MOL0     H10197   8.069   7.415   3.931 -3.3738 -1.9053 -3.1448
   74MOL0     H10198   7.697   7.216   3.919  1.8005  2.5239 -1.4191
   74MOL0     H10199   7.468   7.181   3.870  1.1793  0.2739  2.0705
   74MOL0     H10200   7.331   7.218   3.437 -3.4163 -0.5317 -2.0120
   74MOL0     H10201   7.218   7.123   3.529 -0.5319  1.4421  1.6161
   74MOL0     H10202   7.116   7.332   3.624  1.6970  2.2396  0.8809
   74MOL0     H10203   7.112   7.339   3.452  1.3640 -1.3042 -2.5969
   74MOL0     H10204   7.366   7.458   3.546 -0.2201  3.2787  0.0729
   74MOL0     H10205   7.263   7.508   3.424  0.0501  0.5016  0.4237
   74MOL0     H10206   7.175   7.515   3.719  1.8918 -1.9956 -0.1160
   74MOL0     H10207   7.100   7.600   3.572  0.7556  3.5781  0.8193
   74MOL0     H10208   7.333   7.910   3.667 -1.0746  0.4505 -1.1249
   74MOL0     H10209   7.546   7.175   3.456 -0.3247 -1.1175  0.4738
   74MOL0     H10210   7.813   7.013   3.451  0.1530 -0.3040  0.7260
   74MOL0     H10211   7.750   7.163   3.374 -0.8358  0.5109  0.6374
   74MOL0     H10212   7.900   7.174   3.462  0.3851 -0.9090 -3.4725
   75MOL0     O10213   4.675   2.458   8.008 -0.2581 -0.7775  0.3846
   75MOL0     C10214   4.587   2.518   7.950  0.9334 -0.7685  0.2234
   75MOL0     O10215   4.541   2.486   7.828  0.1907 -1.3867  0.1039
   75MOL0     C10216   4.624   2.403   7.752  0.5681 -0.1469  0.7300
   75MOL0     C10217   4.762   2.428   7.730 -0.1571 -0.7451 -0.4267
   75MOL0     C10218   4.843   2.362   7.643 -0.6635 -1.2556  0.0558
   75MOL0     C10219   4.792   2.254   7.577 -0.1772  0.4843 -0.8718
   75MOL0     O10220   4.886   2.187   7.498  0.2671  0.3961 -0.8372
   75MOL0     C10221   4.872   2.216   7.355 -0.2305 -0.0519  0.6489
   75MOL0     C10222   4.997   2.153   7.292 -0.3267 -0.0060 -0.3648
   75MOL0     C10223   5.060   2.029   7.356  0.2538 -0.7106 -0.2386
   75MOL0     C10224   5.106   1.925   7.255  0.1857 -1.3143 -0.1034
   75MOL0     C10225   4.973   1.868   7.187 -0.3812 -0.1475 -0.3279
   75MOL0     C10226   5.001   1.752   7.090 -0.0390  0.2010 -0.4671
   75MOL0     C10227   5.090   1.795   6.979 -0.1328 -0.1801 -0.0659
   75MOL0     C10228   5.105   1.682   6.873  0.0323 -0.3209  0.0770
   75MOL0     N10229   5.008   1.693   6.761 -0.1996 -1.0208 -0.1215
   75MOL0     C10230   4.874   1.686   6.782 -0.4304  0.0442  0.5200
   75MOL0     C10231   4.821   1.706   6.654 -0.3411 -0.5452 -0.0817
   75MOL0     C10232   4.676   1.742   6.615 -0.5735 -0.2640 -0.0592
   75MOL0     C10233   4.635   1.731   6.469  0.4281  0.0758 -0.5417
   75MOL0     C10234   4.624   1.597   6.399  0.0494 -0.3029  0.0501
   75MOL0     C10235   4.584   1.481   6.491 -0.5178  0.1111 -0.7220
   75MOL0     O10236   4.711   1.438   6.544  0.2655 -0.3931 -0.6816
   75MOL0     C10237   4.699   1.346   6.647  0.1024  0.1020 -1.7517
   75MOL0     C10238   4.646   1.375   6.769  0.8945 -0.4003 -0.3024
   75MOL0     C10239   4.635   1.289   6.872  0.3640 -0.1952  0.0904
   75MOL0     C10240   4.598   1.340   7.009  0.7759 -0.1153  0.3746
   75MOL0     C10241   4.677   1.152   6.854 -0.2574  0.4944 -0.3929
   75MOL0     C10242   4.681   1.040   6.951 -1.0052 -0.1983  0.2121
   75MOL0     O10243   4.761   0.927   6.926 -0.0149  0.0669  0.3400
   75MOL0     C10244   4.701   0.806   6.944  0.2388 -0.0220  1.0085
   75MOL0     C10245   4.564   0.766   6.935  0.6145 -0.6584  0.2324
   75MOL0     C10246   4.522   0.635   6.941  0.5270  0.6123  0.3518
   75MOL0     C10247   4.610   0.525   6.969 -0.2111  0.8813  0.2191
   75MOL0     O10248   4.570   0.391   6.962 -0.2205 -0.8859  0.4192
   75MOL0     C10249   4.442   0.350   7.030  0.9300 -0.2677 -0.2838
   75MOL0     C10250   4.396   0.221   6.957 -0.2197  0.4125 -0.7268
   75MOL0     C10251   4.327   0.233   6.813  0.3438  0.0169 -0.3850
   75MOL0     C10252   4.183   0.297   6.815  0.3616  0.1319 -1.0780
   75MOL0     C10253   4.103   0.279   6.683 -0.2799  0.0034  0.3368
   75MOL0     C10254   4.075   0.130   6.658  0.2744  0.1364 -0.1643
   75MOL0     C10255   3.972   0.119   6.549 -1.1398 -0.9372  0.2940
   75MOL0     C10256   3.968  -0.026   6.487  0.9487  0.4380 -0.2713
   75MOL0    Cl10257   4.123  -0.058   6.411  0.0893 -0.3041 -0.1038
   75MOL0     C10258   4.743   0.560   6.979 -0.2506 -0.1544 -0.5257
   75MOL0     C10259   4.789   0.697   6.959  1.1992 -0.6556 -0.0975
   75MOL0     O10260   4.596   1.050   7.033 -0.3234  0.1046 -0.5175
   75MOL0     C10261   4.743   1.126   6.733 -0.5217  0.0548 -0.4512
   75MOL0     C10262   4.747   1.220   6.634 -0.2110  0.6446 -0.0959
   75MOL0     N10263   4.924   1.701   6.561  0.1999  0.5213  0.1776
   75MOL0     N10264   5.033   1.696   6.623 -0.8053  1.0056 -1.3479
   75MOL0     C10265   4.662   2.212   7.593  0.0869 -0.0588 -0.1490
   75MOL0     C10266   4.580   2.290   7.680 -0.0623  0.1848  0.4270
   75MOL0     C10267   4.528   2.636   8.014 -0.7882  0.6565  0.0011
   75MOL0     C10268   4.463   2.718   7.926  1.4153 -0.2627  0.6006
   75MOL0     C10269   4.376   2.819   7.974  0.0415 -0.6759  0.3751
   75MOL0     C10270   4.365   2.849   8.110 -0.2856 -0.2196 -0.0597
   75MOL0     O10271   4.282   2.941   8.168 -0.4086  0.0691 -0.6060
   75MOL0     C10272   4.191   3.013   8.072  0.3069 -0.1828  0.2648
   75MOL0     C10273   4.080   2.942   8.013 -0.2807  0.0513 -0.2449
   75MOL0     C10274   3.971   2.912   8.105  0.6112  0.4496  0.5063
   75MOL0     C10275   4.016   2.834   8.228 -0.9189  0.2701 -0.9649
   75MOL0     C10276   3.894   2.798   8.307 -0.0992  0.0539  0.2221
   75MOL0     C10277   3.801   2.771   8.375  0.1434  0.9544  0.0859
   75MOL0     C10278   4.446   2.776   8.192 -1.0014  0.2229 -0.5737
   75MOL0     C10279   4.519   2.663   8.156  0.5400 -0.4562  0.1588
   75MOL0     C10280   4.560   2.567   8.255  0.0643  0.1151 -1.4358
   75MOL0     H10281   4.809   2.509   7.784 -1.8993 -0.4262  0.7003
   75MOL0     H10282   4.943   2.397   7.621 -1.2652 -1.6714 -4.1953
   75MOL0     H10283   4.847   2.319   7.332 -0.1034  0.3000  1.9996
   75MOL0     H10284   4.797   2.144   7.321  1.3493 -1.6853  0.4085
   75MOL0     H10285   4.985   2.153   7.183 -1.2044  1.3269 -0.2922
   75MOL0     H10286   5.077   2.225   7.309 -1.3714  0.8645  1.1275
   75MOL0     H10287   5.143   2.073   7.413  1.1349  1.0310 -2.6940
   75MOL0     H10288   4.982   1.983   7.416  0.8641 -3.8590 -1.6605
   75MOL0     H10289   5.180   1.952   7.179 -0.2923 -1.3589 -0.5912
   75MOL0     H10290   5.157   1.843   7.307  0.5228 -1.5457 -0.7857
   75MOL0     H10291   4.922   1.949   7.135 -1.1389 -0.3730  0.0393
   75MOL0     H10292   4.900   1.831   7.260 -0.1323 -1.5350 -0.7439
   75MOL0     H10293   5.046   1.664   7.136 -1.3454 -0.2789 -0.0719
   75MOL0     H10294   4.902   1.716   7.060  0.2308 -0.3664 -0.6725
   75MOL0     H10295   5.193   1.810   7.014  1.6722 -0.2230 -4.7432
   75MOL0     H10296   5.062   1.895   6.944  1.7010 -0.1332 -1.5960
   75MOL0     H10297   5.203   1.679   6.825 -0.3983  2.4281 -1.1872
   75MOL0     H10298   5.103   1.586   6.926 -1.2634  0.1521  0.9337
   75MOL0     H10299   4.826   1.681   6.880 -1.2058 -0.5763  0.1166
   75MOL0     H10300   4.664   1.849   6.633  0.7104  0.0483 -0.9534
   75MOL0     H10301   4.606   1.689   6.681 -0.5600  1.8480  1.7673
   75MOL0     H10302   4.532   1.767   6.469  0.4128  0.0355 -0.3128
   75MOL0     H10303   4.701   1.796   6.410 -0.2747  2.8383  1.5179
   75MOL0     H10304   4.535   1.608   6.336 -0.4303 -1.2788  0.5302
   75MOL0     H10305   4.716   1.581   6.343  0.1718  1.4064 -0.2723
   75MOL0     H10306   4.523   1.505   6.578  2.0441 -1.7860  1.7953
   75MOL0     H10307   4.540   1.394   6.441 -0.2126 -1.9150  2.2618
   75MOL0     H10308   4.613   1.478   6.777  2.7866  0.1678  0.8715
   75MOL0     H10309   4.490   1.340   7.027  1.2593 -2.0808  4.4281
   75MOL0     H10310   4.631   1.444   6.997 -1.4745  0.6820  0.4985
   75MOL0     H10311   4.644   1.299   7.099 -1.8328  1.6321  2.6742
   75MOL0     H10312   4.489   0.841   6.913  1.7916  0.4661 -0.0377
   75MOL0     H10313   4.420   0.603   6.926  1.1243 -0.9602 -0.6676
   75MOL0     H10314   4.459   0.349   7.139  0.1179  0.6661 -0.1357
   75MOL0     H10315   4.365   0.427   7.019 -0.0649 -1.2389 -0.2777
   75MOL0     H10316   4.479   0.150   6.942 -1.1455 -0.2730 -3.0824
   75MOL0     H10317   4.328   0.178   7.031  0.7133  0.2208  0.0400
   75MOL0     H10318   4.319   0.128   6.783  2.0336 -0.5087  0.8771
   75MOL0     H10319   4.393   0.283   6.741  2.8884 -0.9701  1.1342
   75MOL0     H10320   4.194   0.403   6.839  0.1841 -0.1553  0.3857
   75MOL0     H10321   4.125   0.259   6.899  1.2162  2.5011  0.6998
   75MOL0     H10322   4.016   0.345   6.678  0.1672  0.6263 -4.9809
   75MOL0     H10323   4.156   0.321   6.597 -0.9579  0.1552 -0.0066
   75MOL0     H10324   4.049   0.082   6.753  0.8187 -0.5568 -0.3558
   75MOL0     H10325   4.165   0.086   6.614  0.5419  2.9674 -2.8111
   75MOL0     H10326   3.993   0.181   6.461  1.9087 -3.1924 -0.7662
   75MOL0     H10327   3.876   0.152   6.588 -0.7272  1.1285 -0.3395
   75MOL0     H10328   3.886  -0.015   6.415 -0.8279 -0.4915  1.4981
   75MOL0     H10329   3.943  -0.096   6.567 -3.7100  4.7927  2.7283
   75MOL0     H10330   4.822   0.489   6.996 -1.3097 -1.4890 -1.0039
   75MOL0     H10331   4.894   0.720   6.975  0.5027  0.5504  3.8674
   75MOL0     H10332   4.791   1.030   6.719 -0.7366 -0.7819  3.4761
   75MOL0     H10333   4.780   1.187   6.537 -1.9705 -1.2044 -0.1327
   75MOL0     H10334   4.631   2.117   7.551 -0.0051 -0.2011  0.2341
   75MOL0     H10335   4.473   2.276   7.690 -0.1449  1.7776  2.4922
   75MOL0     H10336   4.473   2.709   7.818  0.7476  3.5029  0.0948
   75MOL0     H10337   4.313   2.861   7.896 -0.0943 -2.2819 -0.4199
   75MOL0     H10338   4.153   3.101   8.125 -0.1983 -0.4669  0.3836
   75MOL0     H10339   4.243   3.050   7.983 -3.6913 -1.5548 -2.9600
   75MOL0     H10340   4.109   2.846   7.971  1.9177  0.4655  0.1896
   75MOL0     H10341   4.040   3.008   7.936  2.6403  2.4861  0.1261
   75MOL0     H10342   3.911   3.001   8.123 -2.0294 -0.3599 -3.1293
   75MOL0     H10343   3.902   2.848   8.050 -3.3368  4.3958  0.3602
   75MOL0     H10344   4.074   2.906   8.286 -0.8646 -1.0215  0.6237
   75MOL0     H10345   4.082   2.753   8.197 -2.3323 -0.8701 -1.1409
   75MOL0     H10346   3.719   2.752   8.441 -0.5603  0.1477 -0.9850
   75MOL0     H10347   4.456   2.804   8.297  1.2464  1.1114 -0.9707
   75MOL0     H10348   4.567   2.627   8.346 -0.1285  0.2499 -1.5080
   75MOL0     H10349   4.482   2.492   8.265  0.7184 -1.0054 -3.8946
   75MOL0     H10350   4.657   2.517   8.242 -1.1750 -3.5156  1.6050
   76MOL0     O10351   1.320   0.924   0.615 -1.1186  0.9033 -0.1229
   76MOL0     C10352   1.332   1.033   0.558 -0.5483  0.1001  0.6607
   76MOL0     O10353   1.365   1.157   0.609 -0.0202  0.3324  0.2830
   76MOL0     C10354   1.480   1.175   0.678 -0.6397  0.5434 -0.4316
   76MOL0     C10355   1.582   1.073   0.679 -0.6633  0.1755 -0.3887
   76MOL0     C10356   1.705   1.089   0.745  0.1637 -0.8371 -1.3005
   76MOL0     C10357   1.734   1.217   0.800 -0.2089  0.5881  0.8963
   76MOL0     O10358   1.860   1.248   0.847  0.2874 -0.4161  0.8506
   76MOL0     C10359   1.963   1.154   0.880  1.1226 -0.4713 -0.5982
   76MOL0     C10360   2.052   1.210   0.996  0.2259 -0.1128  0.7815
   76MOL0     C10361   1.996   1.170   1.137 -0.6436 -0.0631  0.6571
   76MOL0     C10362   1.880   1.276   1.166 -0.3489  0.1970 -0.7635
   76MOL0     C10363   1.824   1.255   1.307  0.0519  0.0613 -0.9586
   76MOL0     C10364   1.735   1.116   1.320  0.0667  0.3238  0.6813
   76MOL0     C10365   1.645   1.073   1.193 -0.4347  0.8727 -0.3554
   76MOL0     C10366   1.518   1.149   1.198  0.1134  0.1810 -0.3862
   76MOL0     N10367   1.407   1.059   1.153  0.2050  0.4186 -0.1272
   76MOL0     C10368   1.387   1.012   1.018 -0.1641 -0.8393 -1.0916
   76MOL0     C10369   1.281   0.934   1.034  0.4113 -0.3953  0.4513
   76MOL0     C10370   1.211   0.878   0.925  0.0856  0.9905 -0.1910
   76MOL0     C10371   1.093   0.972   0.878  0.2367 -0.6695 -0.4676
   76MOL0     C10372   0.949   0.934   0.916  0.2996 -0.4626 -0.9776
   76MOL0     C10373   0.921   0.978   1.063 -0.4429  0.1933  0.1429
   76MOL0     O10374   0.902   1.114   1.061 -0.2033 -0.9180 -0.3649
   76MOL0     C10375   0.832   1.168   1.172  0.0216 -0.6737  0.0059
   76MOL0     C10376   0.837   1.114   1.298  0.1919  0.1440 -0.4142
   76MOL0     C10377   0.776   1.178   1.405 -0.1041 -0.6243  0.7319
   76MOL0     C10378   0.792   1.113   1.536 -0.2162  0.2475  0.3560
   76MOL0     C10379   0.691   1.288   1.382 -0.1097  0.0724  0.2082
   76MOL0     C10380   0.584   1.349   1.472 -0.1414 -0.0458 -0.0852
   76MOL0     O10381   0.499   1.442   1.416 -0.0960 -0.5923 -0.6662
   76MOL0     C10382   0.401   1.496   1.499 -0.6050 -0.4974 -0.4590
   76MOL0     C10383   0.270   1.444   1.474 -0.6066 -0.0306 -0.1880
   76MOL0     C10384   0.163   1.516   1.526 -0.3349  0.5233 -0.3577
   76MOL0     C10385   0.184   1.642   1.588 -0.1329  0.0462  0.5096
   76MOL0     O10386   0.068   1.700   1.624 -0.0626 -0.3235 -0.6296
   76MOL0     C10387   0.082   1.816   1.711 -0.3551 -0.3358 -0.2496
   76MOL0     C10388  -0.069   1.845   1.724  0.4612  0.7659 -1.0069
   76MOL0     C10389  -0.103   1.947   1.837  0.7695 -0.1528  0.7123
   76MOL0     C10390  -0.034   1.942   1.975 -0.2644  0.8314  0.2199
   76MOL0     C10391   0.100   2.017   1.982  0.5883  0.5541  0.7421
   76MOL0     C10392   0.125   2.127   2.078  0.0659 -0.9314 -0.1156
   76MOL0     C10393   0.132   2.094   2.223 -0.0943  0.1452  0.2782
   76MOL0     C10394   0.190   2.211   2.314  0.0872  0.0469 -0.4753
   76MOL0    Cl10395   0.361   2.241   2.280 -0.4654 -0.0493  0.0672
   76MOL0     C10396   0.310   1.699   1.604 -0.2322  0.3245  0.3925
   76MOL0     C10397   0.422   1.619   1.563  0.4654 -0.0902 -0.2519
   76MOL0     O10398   0.557   1.296   1.581  0.2371  0.7936  0.3246
   76MOL0     C10399   0.674   1.322   1.243 -0.4366 -1.1769 -1.1592
   76MOL0     C10400   0.747   1.276   1.144  0.2668 -1.2427  0.2928
   76MOL0     N10401   1.237   0.948   1.160  0.3126  0.1822 -0.1722
   76MOL0     N10402   1.315   1.011   1.237 -0.1374  1.3102  0.1113
   76MOL0     C10403   1.632   1.310   0.797 -0.5816  0.1750 -0.2689
   76MOL0     C10404   1.507   1.288   0.740 -0.0183 -0.8826  0.0230
   76MOL0     C10405   1.275   1.052   0.422 -0.5645 -0.6075  0.4525
   76MOL0     C10406   1.173   1.135   0.405  0.4069  0.3858  0.4295
   76MOL0     C10407   1.088   1.138   0.291  0.0356 -0.4400  0.0833
   76MOL0     C10408   1.131   1.066   0.178 -0.4681 -0.5868 -0.2928
   76MOL0     O10409   1.089   1.100   0.054 -0.1898  0.4936  0.4750
   76MOL0     C10410   1.197   1.141  -0.039 -0.2223 -0.1086 -0.3717
   76MOL0     C10411   1.295   1.246   0.013  0.4307  0.3478 -0.6753
   76MOL0     C10412   1.208   1.375   0.051  0.4619  0.5704  0.4185
   76MOL0     C10413   1.281   1.497   0.115  0.1539  0.0608  0.3067
   76MOL0     C10414   1.290   1.477   0.260 -0.1718  0.6970 -0.1547
   76MOL0     C10415   1.322   1.451   0.373  1.2174 -0.4023  0.0584
   76MOL0     C10416   1.239   0.977   0.196 -0.7235 -0.1821 -0.3561
   76MOL0     C10417   1.306   0.961   0.323  0.0195  0.2109  0.0462
   76MOL0     C10418   1.403   0.842   0.330  0.6368 -0.3561 -0.0731
   76MOL0     H10419   1.563   0.982   0.623  1.1173 -1.8585  2.0671
   76MOL0     H10420   1.779   1.010   0.751  2.7961  1.5396  0.8729
   76MOL0     H10421   2.029   1.143   0.794  0.9187  0.6786 -0.9098
   76MOL0     H10422   1.919   1.058   0.911 -1.6262 -0.5256 -4.0858
   76MOL0     H10423   2.155   1.175   0.985  0.3823  0.7184 -0.7924
   76MOL0     H10424   2.071   1.318   0.993  2.8125 -0.3837  3.2883
   76MOL0     H10425   1.959   1.067   1.143 -1.4868  0.1490 -0.4676
   76MOL0     H10426   2.077   1.189   1.208 -0.2918  0.4307  0.1326
   76MOL0     H10427   1.924   1.376   1.154 -1.5185  0.7470 -0.6242
   76MOL0     H10428   1.795   1.268   1.098 -1.0013 -0.4013  0.1106
   76MOL0     H10429   1.754   1.338   1.322 -0.4091 -0.3974 -0.5773
   76MOL0     H10430   1.899   1.258   1.386 -2.1505  0.7925  1.2161
   76MOL0     H10431   1.809   1.036   1.339 -0.9549 -0.8744 -0.2002
   76MOL0     H10432   1.667   1.119   1.405  0.7498  0.3227  1.2422
   76MOL0     H10433   1.618   0.967   1.197 -0.5305  0.9275  0.8629
   76MOL0     H10434   1.707   1.076   1.103 -2.3009  1.6200 -1.6970
   76MOL0     H10435   1.500   1.196   1.296 -0.8998  0.7357 -0.8148
   76MOL0     H10436   1.542   1.241   1.144  3.7292  0.8355  1.9838
   76MOL0     H10437   1.456   1.041   0.939  2.2392  2.0533  1.7907
   76MOL0     H10438   1.170   0.779   0.945  2.5297 -0.0536 -0.0204
   76MOL0     H10439   1.291   0.873   0.851 -0.1676  2.7195 -0.6341
   76MOL0     H10440   1.109   1.077   0.904  1.3159 -1.0693  0.5596
   76MOL0     H10441   1.092   0.956   0.770 -1.5052 -0.7800 -0.4517
   76MOL0     H10442   0.885   0.983   0.842 -1.1374 -0.6634  0.0723
   76MOL0     H10443   0.940   0.825   0.914  0.5417 -0.5657  1.0149
   76MOL0     H10444   0.841   0.921   1.110 -1.8323  2.8227  1.1507
   76MOL0     H10445   1.011   0.959   1.123  1.1902  1.8554 -1.6033
   76MOL0     H10446   0.901   1.028   1.320 -1.4339 -0.9031  0.4401
   76MOL0     H10447   0.784   1.193   1.611 -5.3910  1.6484 -1.2654
   76MOL0     H10448   0.890   1.068   1.551 -0.0601  0.9109  1.4568
   76MOL0     H10449   0.711   1.041   1.555 -1.6515  1.2674 -1.6156
   76MOL0     H10450   0.247   1.356   1.414 -0.8434  0.3753 -0.7080
   76MOL0     H10451   0.066   1.467   1.527  1.1148 -2.8883  3.8290
   76MOL0     H10452   0.131   1.795   1.806 -0.2470  1.6220  0.1741
   76MOL0     H10453   0.135   1.895   1.656  1.9509 -1.8091 -0.2593
   76MOL0     H10454  -0.111   1.879   1.628  1.2030 -0.4887 -1.8056
   76MOL0     H10455  -0.114   1.748   1.747 -0.6850  0.8360 -2.7382
   76MOL0     H10456  -0.210   1.932   1.851  0.7553 -1.4076 -0.5490
   76MOL0     H10457  -0.082   2.046   1.795 -1.2912  0.4730  1.0358
   76MOL0     H10458  -0.024   1.837   2.003 -0.3757  0.7135 -0.1727
   76MOL0     H10459  -0.101   1.991   2.046 -1.7404 -0.7026 -0.0422
   76MOL0     H10460   0.182   1.946   1.988 -0.5823 -0.7790  1.5183
   76MOL0     H10461   0.107   2.059   1.881  0.1705 -4.1008 -1.4915
   76MOL0     H10462   0.038   2.194   2.075  1.5191  1.1220  0.6806
   76MOL0     H10463   0.215   2.184   2.050  0.4722 -0.0821  2.6268
   76MOL0     H10464   0.215   2.023   2.219  1.9850  2.4453  0.2118
   76MOL0     H10465   0.036   2.047   2.245 -0.5973 -0.4612 -2.7266
   76MOL0     H10466   0.185   2.182   2.419 -0.5168  3.5256  0.5921
   76MOL0     H10467   0.122   2.297   2.309 -0.3691 -0.1941  0.9556
   76MOL0     H10468   0.322   1.801   1.639 -0.9363  0.4958  0.1470
   76MOL0     H10469   0.520   1.664   1.569 -0.0794  1.6969 -3.0033
   76MOL0     H10470   0.602   1.402   1.231 -0.0250 -0.6853 -0.3839
   76MOL0     H10471   0.734   1.319   1.045 -2.2144  2.4304  1.9721
   76MOL0     H10472   1.644   1.405   0.849 -0.4065  0.1920 -0.3389
   76MOL0     H10473   1.432   1.364   0.755  1.6860  0.1618  5.1643
   76MOL0     H10474   1.162   1.216   0.477  0.7005  3.4354 -2.6596
   76MOL0     H10475   1.006   1.207   0.281 -1.4947 -1.6440  3.0912
   76MOL0     H10476   1.239   1.048  -0.078 -3.0179 -1.2842 -0.8712
   76MOL0     H10477   1.134   1.188  -0.115 -0.1754 -1.4605 -1.2866
   76MOL0     H10478   1.358   1.250  -0.076 -0.9042  0.6910 -1.6372
   76MOL0     H10479   1.352   1.229   0.104  2.6730  2.1217 -1.6653
   76MOL0     H10480   1.156   1.410  -0.038  3.5327 -1.3643 -2.3340
   76MOL0     H10481   1.135   1.342   0.126 -0.1436  0.2099 -0.3098
   76MOL0     H10482   1.231   1.589   0.084  0.8745  0.1311 -0.7017
   76MOL0     H10483   1.377   1.511   0.065  1.0590  0.1945  2.0161
   76MOL0     H10484   1.349   1.442   0.476 -1.5794  2.5177  1.2338
   76MOL0     H10485   1.262   0.899   0.124  1.0456  1.4853 -1.7090
   76MOL0     H10486   1.455   0.830   0.234  0.0072  1.6827 -0.7097
   76MOL0     H10487   1.483   0.842   0.405  2.9593 -2.8443 -2.2949
   76MOL0     H10488   1.346   0.750   0.347 -0.5535  0.0843 -1.5407
   77MOL0     O10489   6.332   2.339   0.710  0.1587 -0.2506  0.3281
   77MOL0     C10490   6.250   2.282   0.633  0.0256  0.1992  0.5248
   77MOL0     O10491   6.155   2.205   0.679  0.4687  0.2522 -0.2709
   77MOL0     C10492   6.137   2.183   0.813  0.3651 -0.0325 -0.5384
   77MOL0     C10493   6.035   2.241   0.891 -0.3218 -0.6868  0.3876
   77MOL0     C10494   6.012   2.204   1.024 -0.0034 -0.6183 -0.6682
   77MOL0     C10495   6.104   2.119   1.087 -0.1410 -0.4085  0.2378
   77MOL0     O10496   6.082   2.099   1.224 -0.1651  0.2909  0.0856
   77MOL0     C10497   6.103   1.977   1.282 -1.0348  0.3207 -0.0004
   77MOL0     C10498   5.995   1.956   1.383 -1.0161  0.4116  0.5557
   77MOL0     C10499   6.004   2.049   1.504  0.0743  0.4474 -0.5725
   77MOL0     C10500   5.885   2.006   1.595  0.9569 -0.0148  0.5031
   77MOL0     C10501   5.889   2.078   1.734 -0.5261  0.1117  0.6084
   77MOL0     C10502   5.765   2.029   1.816 -1.2754  0.8960  0.3600
   77MOL0     C10503   5.763   2.103   1.951 -0.2317 -1.0115 -0.0213
   77MOL0     C10504   5.878   2.056   2.033 -0.3315  0.1053 -0.1143
   77MOL0     N10505   5.857   2.086   2.174  0.1821 -0.8916  0.0353
   77MOL0     C10506   5.906   2.187   2.248  0.1073 -0.3332  0.6017
   77MOL0     C10507   5.843   2.176   2.374 -0.1240 -0.4530  0.2259
   77MOL0     C10508   5.871   2.254   2.492 -0.0796  0.7449 -0.6453
   77MOL0     C10509   5.998   2.207   2.573  0.3126  0.1670  0.0480
   77MOL0     C10510   6.135   2.250   2.531  1.0734 -0.4219 -0.3934
   77MOL0     C10511   6.226   2.194   2.631  1.4021 -0.1227  1.3877
   77MOL0     O10512   6.182   2.179   2.769 -0.6227 -0.6037  0.2201
   77MOL0     C10513   6.266   2.107   2.849 -0.0184  1.0333  0.7943
   77MOL0     C10514   6.243   2.108   2.985  0.9822  0.4216 -0.0534
   77MOL0     C10515   6.327   2.051   3.080 -0.2296 -0.5361 -0.1547
   77MOL0     C10516   6.295   2.067   3.221 -0.8235 -1.0842  0.5333
   77MOL0     C10517   6.446   1.996   3.034  0.1920  1.2025  1.2962
   77MOL0     C10518   6.546   1.918   3.119 -0.1633 -0.2880  0.7933
   77MOL0     O10519   6.661   1.882   3.057  0.2517 -0.5586  0.2884
   77MOL0     C10520   6.755   1.821   3.130 -0.5128 -0.1823  0.9851
   77MOL0     C10521   6.860   1.897   3.175 -0.9055  0.5455  0.3794
   77MOL0     C10522   6.944   1.825   3.261  0.0088  0.2251  0.1262
   77MOL0     C10523   6.931   1.694   3.309  0.0187 -0.4811  1.1132
   77MOL0     O10524   7.013   1.647   3.415  0.1507 -0.5568  0.7888
   77MOL0     C10525   7.024   1.508   3.442  0.4465 -0.3704  0.6508
   77MOL0     C10526   6.923   1.477   3.548 -0.4371  0.1104 -0.1015
   77MOL0     C10527   6.918   1.330   3.591  0.3941  0.3334 -0.1527
   77MOL0     C10528   6.815   1.249   3.515 -0.9719 -0.1711  0.8037
   77MOL0     C10529   6.816   1.102   3.555  0.0547 -0.2252  0.7922
   77MOL0     C10530   6.728   1.009   3.462 -0.1492  0.4812  0.0222
   77MOL0     C10531   6.764   0.857   3.485  0.4901 -0.1090 -0.3393
   77MOL0     C10532   6.695   0.777   3.378 -0.4649  0.5014 -1.5384
   77MOL0    Cl10533   6.749   0.607   3.409 -0.2870  0.2317 -0.1263
   77MOL0     C10534   6.838   1.618   3.227  0.2369  0.0969 -1.1942
   77MOL0     C10535   6.748   1.680   3.138 -0.6129  0.0217  0.1355
   77MOL0     O10536   6.517   1.905   3.242 -0.1481 -0.2873 -0.1426
   77MOL0     C10537   6.475   1.999   2.898  0.0886  0.1528  0.3418
   77MOL0     C10538   6.389   2.049   2.804  0.2201 -0.7459 -0.5878
   77MOL0     N10539   5.747   2.081   2.359  0.3451  0.4419 -0.4019
   77MOL0     N10540   5.765   2.024   2.246 -0.4428 -0.6813  0.0973
   77MOL0     C10541   6.207   2.065   1.021 -0.7650 -0.0154  0.1426
   77MOL0     C10542   6.219   2.094   0.883 -0.9682 -0.4202  0.5267
   77MOL0     C10543   6.267   2.296   0.487  0.4375 -0.0301  0.0860
   77MOL0     C10544   6.239   2.190   0.397 -0.2322  0.2786  0.6262
   77MOL0     C10545   6.257   2.206   0.257  0.3589  0.7346 -0.5302
   77MOL0     C10546   6.316   2.320   0.210 -0.6648  0.1731 -0.0085
   77MOL0     O10547   6.357   2.337   0.078 -0.0023  0.2116  0.6056
   77MOL0     C10548   6.488   2.299   0.036 -0.8021 -0.4037  0.4296
   77MOL0     C10549   6.500   2.166  -0.021  0.1457  0.1626  0.3097
   77MOL0     C10550   6.416   2.159  -0.152 -0.0782  0.6073  0.5633
   77MOL0     C10551   6.486   2.059  -0.254 -0.1038  0.1421 -0.8844
   77MOL0     C10552   6.409   2.066  -0.379  0.4128  0.4889  0.7227
   77MOL0     C10553   6.346   2.052  -0.484 -0.2147 -0.5011 -0.3138
   77MOL0     C10554   6.333   2.433   0.299  0.1744  0.9606 -0.0046
   77MOL0     C10555   6.301   2.427   0.433 -1.1625  0.2608  0.1934
   77MOL0     C10556   6.310   2.562   0.513 -0.1369  0.6977 -0.1515
   77MOL0     H10557   5.981   2.326   0.848 -0.5981 -1.1195 -0.1362
   77MOL0     H10558   5.926   2.233   1.084 -1.2269 -2.6489 -1.3378
   77MOL0     H10559   6.205   1.966   1.319 -1.5058 -2.0299  0.7602
   77MOL0     H10560   6.081   1.907   1.201  0.0815  1.6651 -1.5456
   77MOL0     H10561   5.896   1.967   1.338 -0.2792 -0.5348 -1.4454
   77MOL0     H10562   5.994   1.852   1.417  1.5403 -0.7909 -2.4813
   77MOL0     H10563   6.106   2.043   1.544  0.6003  0.6746 -1.8314
   77MOL0     H10564   5.999   2.155   1.475  2.2232  1.7438  3.0291
   77MOL0     H10565   5.795   2.027   1.537 -0.0859 -1.7209  1.4149
   77MOL0     H10566   5.876   1.900   1.620 -0.9624 -0.4013 -1.4918
   77MOL0     H10567   5.892   2.184   1.706 -1.9380 -0.3428 -1.5373
   77MOL0     H10568   5.979   2.049   1.789  0.9189 -0.3386 -1.8473
   77MOL0     H10569   5.669   2.035   1.764 -3.6049  0.3600  4.2109
   77MOL0     H10570   5.773   1.922   1.837  0.9926  1.1229  0.9728
   77MOL0     H10571   5.669   2.083   2.003 -0.1593  2.4234  1.6735
   77MOL0     H10572   5.761   2.210   1.932 -0.9582 -1.3163 -1.8408
   77MOL0     H10573   5.880   1.948   2.021  2.7136  0.1744 -1.0288
   77MOL0     H10574   5.983   2.072   2.006  0.4181 -2.7542  0.7433
   77MOL0     H10575   5.974   2.271   2.236  0.3712 -0.5051  0.8981
   77MOL0     H10576   5.787   2.248   2.563  0.4496 -2.3891 -0.1068
   77MOL0     H10577   5.878   2.356   2.453  1.6021  0.8080 -0.2417
   77MOL0     H10578   5.982   2.260   2.668 -1.3825  0.0644 -0.1613
   77MOL0     H10579   6.007   2.100   2.592 -0.0081  0.4548  2.1276
   77MOL0     H10580   6.147   2.214   2.428  1.5395  0.9637 -0.8507
   77MOL0     H10581   6.124   2.359   2.538  0.7440 -0.4384 -0.6536
   77MOL0     H10582   6.246   2.093   2.595  0.2476 -1.0130  3.1472
   77MOL0     H10583   6.317   2.255   2.630 -0.2516  2.5338  0.8078
   77MOL0     H10584   6.145   2.151   3.004 -1.3519 -4.2597  0.0548
   77MOL0     H10585   6.270   1.974   3.273 -0.4283 -0.0588  2.7030
   77MOL0     H10586   6.203   2.126   3.230 -0.1304  1.0324 -3.7119
   77MOL0     H10587   6.373   2.122   3.275 -0.0959 -2.1062  0.5431
   77MOL0     H10588   6.879   2.003   3.157  2.4496 -0.2064 -1.3857
   77MOL0     H10589   7.013   1.899   3.300  1.0444  0.6540 -2.3283
   77MOL0     H10590   7.016   1.440   3.357  0.1519 -0.3652  0.6761
   77MOL0     H10591   7.120   1.493   3.493  0.0198  1.9757  2.2905
   77MOL0     H10592   6.956   1.536   3.634 -2.6489  1.5564 -0.1634
   77MOL0     H10593   6.823   1.510   3.517 -1.2840 -1.1901  1.1111
   77MOL0     H10594   6.888   1.342   3.696  0.3371 -1.7400  0.1245
   77MOL0     H10595   7.013   1.276   3.585 -0.8074 -1.7542 -2.0735
   77MOL0     H10596   6.857   1.255   3.414 -0.8290  1.2268  0.9316
   77MOL0     H10597   6.716   1.295   3.512  0.2103  2.6109  1.1975
   77MOL0     H10598   6.909   1.044   3.568 -0.2655 -0.5872  1.5343
   77MOL0     H10599   6.765   1.093   3.651 -1.9044  0.9392 -0.0919
   77MOL0     H10600   6.755   1.032   3.358  1.4529 -1.6274 -0.1022
   77MOL0     H10601   6.620   1.023   3.473 -0.0716  1.4692 -0.3693
   77MOL0     H10602   6.735   0.825   3.585  1.0091  1.1464  0.2372
   77MOL0     H10603   6.871   0.836   3.470  0.2946 -0.6825 -1.0389
   77MOL0     H10604   6.724   0.813   3.279  0.5208  1.3860 -0.9455
   77MOL0     H10605   6.587   0.781   3.395 -0.2296  1.5252 -0.1386
   77MOL0     H10606   6.833   1.510   3.236  0.5386  0.2369  1.5775
   77MOL0     H10607   6.683   1.610   3.087 -2.9825  2.6606 -0.7059
   77MOL0     H10608   6.564   1.956   2.853 -1.2039 -0.6451 -1.5755
   77MOL0     H10609   6.423   2.039   2.701  0.7742 -1.1982 -0.3713
   77MOL0     H10610   6.298   2.028   1.068 -0.9376 -1.2009 -0.4508
   77MOL0     H10611   6.307   2.052   0.836 -0.2888  2.5898 -1.1613
   77MOL0     H10612   6.195   2.100   0.438 -0.0346  0.2871  0.8553
   77MOL0     H10613   6.229   2.136   0.180 -1.1334  0.7903 -0.0837
   77MOL0     H10614   6.520   2.377  -0.034  3.4284 -1.3635  1.0290
   77MOL0     H10615   6.548   2.286   0.126 -0.2195 -3.5134 -0.3073
   77MOL0     H10616   6.457   2.086   0.040 -0.6087  1.5046  1.6062
   77MOL0     H10617   6.607   2.147  -0.036  0.2162 -2.0957  2.8890
   77MOL0     H10618   6.312   2.136  -0.130  0.2282 -1.2920  0.1807
   77MOL0     H10619   6.412   2.256  -0.202 -0.1682 -0.4344 -1.5675
   77MOL0     H10620   6.497   1.957  -0.216  2.0647  1.0998  1.3169
   77MOL0     H10621   6.590   2.090  -0.271  1.4858 -2.7416  2.3858
   77MOL0     H10622   6.301   2.029  -0.578  1.4243 -2.3784 -0.7185
   77MOL0     H10623   6.389   2.518   0.261 -0.5278  0.9394 -1.1265
   77MOL0     H10624   6.233   2.563   0.591 -2.2998 -0.2028 -2.1325
   77MOL0     H10625   6.414   2.566   0.546 -0.2710  0.6661  0.2860
   77MOL0     H10626   6.274   2.651   0.461 -4.0430  0.5495  1.9068
   78MOL0     O10627   3.072   1.624   3.617  0.1602 -0.3090  0.1202
   78MOL0     C10628   2.960   1.657   3.591 -0.6869  0.1049 -0.8012
   78MOL0     O10629   2.866   1.691   3.692 -1.0509  0.0211  0.2536
   78MOL0     C10630   2.890   1.651   3.826 -0.2044 -0.3523  0.6961
   78MOL0     C10631   2.916   1.518   3.857 -0.2701  0.1570 -0.2156
   78MOL0     C10632   2.932   1.477   3.988 -0.6021 -0.1100  0.1418
   78MOL0     C10633   2.910   1.566   4.096  0.1068  0.2860  0.2180
   78MOL0     O10634   2.926   1.515   4.217  0.4235 -0.6869 -0.2815
   78MOL0     C10635   2.833   1.569   4.322 -0.0543 -0.3767 -0.4787
   78MOL0     C10636   2.910   1.617   4.440 -0.1889 -0.3146  0.2290
   78MOL0     C10637   2.971   1.755   4.407  0.6864 -0.6312  0.2493
   78MOL0     C10638   3.068   1.797   4.516  0.5284 -0.0269  0.0645
   78MOL0     C10639   3.000   1.848   4.646  0.3252 -0.0874 -0.8647
   78MOL0     C10640   3.107   1.893   4.755 -0.7232  0.1401  0.2604
   78MOL0     C10641   3.035   1.991   4.845  0.3379  0.5109 -0.0416
   78MOL0     C10642   3.124   2.076   4.932 -1.2186 -0.4691 -0.6976
   78MOL0     N10643   3.046   2.172   5.004 -0.4972 -0.1797 -0.7595
   78MOL0     C10644   3.001   2.289   4.954 -0.5270 -0.0918 -0.0874
   78MOL0     C10645   2.954   2.361   5.061  0.4632 -0.4677  0.1124
   78MOL0     C10646   2.899   2.507   5.039  0.2196 -1.0401 -0.2117
   78MOL0     C10647   2.936   2.605   5.146  0.6064  0.3626 -0.1344
   78MOL0     C10648   3.092   2.630   5.146  0.5541  0.4649  1.1367
   78MOL0     C10649   3.149   2.688   5.012 -0.7841 -0.3346 -0.3025
   78MOL0     O10650   3.294   2.681   5.014  0.6173 -0.3818 -0.1934
   78MOL0     C10651   3.359   2.801   5.016  0.0426 -0.4569  0.6385
   78MOL0     C10652   3.340   2.897   5.109  0.5138 -1.3005 -0.5717
   78MOL0     C10653   3.398   3.024   5.104  0.6436 -0.1296  0.3287
   78MOL0     C10654   3.341   3.123   5.200  0.2668 -0.0102  0.3075
   78MOL0     C10655   3.493   3.044   4.997  0.4181 -0.0267  0.3675
   78MOL0     C10656   3.566   3.174   4.991 -0.3217  0.2671  0.0489
   78MOL0     O10657   3.652   3.184   4.889  0.1134 -0.5953  1.1137
   78MOL0     C10658   3.702   3.303   4.846 -0.2972  0.1126 -0.7122
   78MOL0     C10659   3.766   3.401   4.926 -0.6200 -1.0884 -0.3850
   78MOL0     C10660   3.821   3.523   4.870  0.3734 -1.0301 -0.6277
   78MOL0     C10661   3.797   3.545   4.737 -0.3403 -0.0836  0.7557
   78MOL0     O10662   3.860   3.655   4.697  0.4049  0.4109  0.0032
   78MOL0     C10663   3.887   3.677   4.558  0.4911 -0.3996  0.4413
   78MOL0     C10664   3.771   3.762   4.509  0.5108  0.0716  0.9299
   78MOL0     C10665   3.805   3.916   4.548  0.7843  0.4014  0.1860
   78MOL0     C10666   3.688   4.005   4.505 -0.4129 -0.3438  0.8350
   78MOL0     C10667   3.699   4.147   4.574  0.8113 -0.9676  0.1733
   78MOL0     C10668   3.808   4.235   4.522  0.1247 -0.2050 -0.6638
   78MOL0     C10669   3.817   4.368   4.593 -0.6358 -0.6273  0.7662
   78MOL0     C10670   3.721   4.460   4.528 -1.4537 -0.4192  0.3753
   78MOL0    Cl10671   3.694   4.623   4.596 -0.3107  0.3589 -0.1111
   78MOL0     C10672   3.735   3.448   4.658 -0.0503  0.1750  0.3685
   78MOL0     C10673   3.699   3.330   4.712  0.5834 -0.5755 -0.1571
   78MOL0     O10674   3.541   3.265   5.068  0.6151  1.0092  0.4518
   78MOL0     C10675   3.523   2.939   4.904 -0.4441  0.1265  0.3834
   78MOL0     C10676   3.464   2.818   4.921  0.3159  0.4131  0.1049
   78MOL0     N10677   2.969   2.282   5.179 -0.5595 -0.4828  0.2042
   78MOL0     N10678   3.042   2.179   5.144  1.5680 -0.7124  0.2023
   78MOL0     C10679   2.870   1.700   4.065  1.1363 -0.0387  0.6297
   78MOL0     C10680   2.866   1.739   3.927 -0.0224 -0.9049 -0.0501
   78MOL0     C10681   2.936   1.700   3.455  0.2570  0.6854 -0.7031
   78MOL0     C10682   2.842   1.803   3.431  0.7870 -1.3916 -0.3230
   78MOL0     C10683   2.816   1.857   3.308 -0.5618 -0.3290 -1.0666
   78MOL0     C10684   2.885   1.803   3.201 -0.0715  0.1753  0.5838
   78MOL0     O10685   2.859   1.870   3.084 -0.0104 -0.2633  0.8001
   78MOL0     C10686   2.897   1.802   2.959  0.0737 -0.2728  0.0478
   78MOL0     C10687   2.858   1.905   2.860  0.6913  0.4344 -0.2734
   78MOL0     C10688   2.968   2.003   2.815 -0.6840 -0.4246 -0.4594
   78MOL0     C10689   3.035   2.089   2.922  0.2355  0.0606 -0.5378
   78MOL0     C10690   3.158   2.156   2.885 -0.0978  0.2176  1.0039
   78MOL0     C10691   3.277   2.194   2.870  0.2245 -0.4348  0.7423
   78MOL0     C10692   2.976   1.695   3.216 -0.0989  0.4330  0.8144
   78MOL0     C10693   3.007   1.647   3.339  0.3956  0.4450 -0.4321
   78MOL0     C10694   3.084   1.516   3.342 -0.4142  0.4973 -0.4088
   78MOL0     H10695   2.927   1.437   3.786 -2.7454 -1.6877  1.3374
   78MOL0     H10696   2.951   1.372   4.008 -2.9754 -1.3859 -3.2712
   78MOL0     H10697   2.772   1.483   4.352 -1.2814 -0.2852 -2.4894
   78MOL0     H10698   2.776   1.657   4.293  2.0310  1.3309  0.3267
   78MOL0     H10699   2.842   1.610   4.526 -0.5326 -1.4474 -0.1207
   78MOL0     H10700   2.998   1.554   4.456  0.7689  1.4483  2.3851
   78MOL0     H10701   3.014   1.763   4.307  0.4514 -1.5488  0.0647
   78MOL0     H10702   2.882   1.819   4.410 -0.2351 -1.6971 -1.8126
   78MOL0     H10703   3.133   1.713   4.540  0.7287  0.2550  0.5289
   78MOL0     H10704   3.132   1.871   4.468  1.8686 -2.2486 -1.7406
   78MOL0     H10705   2.940   1.761   4.676 -2.8415  1.4729 -2.2631
   78MOL0     H10706   2.937   1.932   4.614  0.1849  0.0981 -0.1165
   78MOL0     H10707   3.140   1.808   4.816  0.3821  1.3540  1.3947
   78MOL0     H10708   3.187   1.950   4.708 -1.3512  0.7247 -0.1267
   78MOL0     H10709   2.953   1.938   4.893  0.1512 -1.3450 -2.2364
   78MOL0     H10710   2.985   2.067   4.784 -2.4192 -1.4647 -0.4278
   78MOL0     H10711   3.166   2.013   5.012 -1.9807  2.1812  1.9723
   78MOL0     H10712   3.204   2.124   4.875 -1.0804  0.0163 -0.1091
   78MOL0     H10713   2.995   2.323   4.851 -2.0817 -1.5556 -0.5149
   78MOL0     H10714   2.790   2.498   5.029  0.1190 -0.2547  0.1174
   78MOL0     H10715   2.934   2.547   4.944 -0.8708  0.4448 -0.0233
   78MOL0     H10716   2.882   2.699   5.133 -2.3620 -1.3134 -0.9978
   78MOL0     H10717   2.904   2.566   5.243 -0.6416  2.0510  0.1719
   78MOL0     H10718   3.115   2.691   5.234 -0.4135  0.2050  1.5786
   78MOL0     H10719   3.139   2.533   5.165 -1.7133 -0.0131  5.3039
   78MOL0     H10720   3.120   2.639   4.919 -3.7390 -2.2993  1.4576
   78MOL0     H10721   3.119   2.793   5.011 -0.0411 -0.1067  0.2198
   78MOL0     H10722   3.266   2.874   5.185  0.0500  1.2134 -0.1959
   78MOL0     H10723   3.244   3.093   5.241 -0.2406 -1.2032 -1.6406
   78MOL0     H10724   3.330   3.228   5.171 -2.0548  0.0382  1.1246
   78MOL0     H10725   3.418   3.130   5.278  0.3496  1.3366  0.1267
   78MOL0     H10726   3.767   3.377   5.032 -2.1656 -1.5814 -0.4615
   78MOL0     H10727   3.861   3.593   4.942 -2.1389 -0.0992 -0.0420
   78MOL0     H10728   3.978   3.736   4.546  0.1534 -0.0339 -0.4367
   78MOL0     H10729   3.896   3.584   4.502  2.0256  1.4729 -2.7269
   78MOL0     H10730   3.759   3.762   4.400 -0.9425  2.1782  1.0107
   78MOL0     H10731   3.677   3.724   4.550  0.0771 -1.4125 -1.2949
   78MOL0     H10732   3.898   3.942   4.496  0.2996  0.4852 -0.6608
   78MOL0     H10733   3.816   3.920   4.657 -0.2030 -2.4657  0.4619
   78MOL0     H10734   3.590   3.958   4.515 -1.5961  1.8106  0.0027
   78MOL0     H10735   3.709   4.020   4.398 -0.8270  0.8039  0.9105
   78MOL0     H10736   3.603   4.197   4.558  0.6860 -1.5452 -0.9570
   78MOL0     H10737   3.736   4.146   4.677  3.1242  0.7845 -0.5594
   78MOL0     H10738   3.792   4.243   4.414  0.8518 -1.5781 -0.9027
   78MOL0     H10739   3.901   4.182   4.547  0.7293  1.9230  2.0660
   78MOL0     H10740   3.920   4.404   4.600 -1.1359  0.4867  5.4000
   78MOL0     H10741   3.802   4.350   4.699 -1.9322 -0.2576  0.6606
   78MOL0     H10742   3.625   4.408   4.540 -0.2255 -3.3733 -1.6737
   78MOL0     H10743   3.735   4.457   4.420  2.0391 -0.4816  0.7135
   78MOL0     H10744   3.718   3.473   4.553  2.0333  0.1055 -0.0381
   78MOL0     H10745   3.662   3.252   4.646 -0.2909 -0.1082 -0.2396
   78MOL0     H10746   3.599   2.946   4.826 -0.8536 -1.2456 -0.1694
   78MOL0     H10747   3.497   2.735   4.859  0.9865 -0.0178  1.0170
   78MOL0     H10748   2.838   1.771   4.140  2.2216  1.5025 -0.3070
   78MOL0     H10749   2.831   1.841   3.913 -0.8408 -0.9248  1.5614
   78MOL0     H10750   2.794   1.843   3.520  1.9411  0.5597 -0.5288
   78MOL0     H10751   2.746   1.939   3.303 -1.5796 -1.2160 -2.0433
   78MOL0     H10752   3.002   1.773   2.947 -0.3899 -1.9072 -0.2887
   78MOL0     H10753   2.832   1.715   2.950 -0.3761  0.2307 -2.0820
   78MOL0     H10754   2.775   1.968   2.896  1.9642  0.9233  2.0388
   78MOL0     H10755   2.834   1.849   2.770 -0.5336  2.1766 -1.0986
   78MOL0     H10756   3.022   1.937   2.746 -5.3900 -1.5596 -3.6254
   78MOL0     H10757   2.924   2.080   2.751 -0.0140  1.4814  1.2651
   78MOL0     H10758   3.081   2.025   2.997 -1.1917 -0.6147 -0.2139
   78MOL0     H10759   2.962   2.160   2.962  0.4894  0.3400 -0.5572
   78MOL0     H10760   3.376   2.231   2.857  0.7109 -1.7444  0.5245
   78MOL0     H10761   3.011   1.644   3.127  1.2480  1.2523  0.8494
   78MOL0     H10762   3.192   1.525   3.321 -0.6100  1.4181 -1.1302
   78MOL0     H10763   3.073   1.460   3.435  2.8820  2.6975  1.5612
   78MOL0     H10764   3.050   1.460   3.255  0.6053 -0.1154 -0.4386
   79MOL0     O10765   3.239  11.130   9.600 -0.2469 -0.7149  0.4864
   79MOL0     C10766   3.124  11.140   9.640 -0.2344 -0.3476  0.9421
   79MOL0     O10767   3.080  11.081   9.758  0.2000 -0.4164 -0.8244
   79MOL0     C10768   3.167  11.043   9.852  0.3754 -0.0364  0.8925
   79MOL0     C10769   3.129  10.944   9.942 -0.6371 -0.3788  0.1361
   79MOL0     C10770   3.204  10.892  10.049  0.9201 -0.9137  0.0784
   79MOL0     C10771   3.337  10.934  10.056 -0.6420 -0.1506  0.0062
   79MOL0     O10772   3.426  10.889  10.157 -0.1302  0.7019  0.5078
   79MOL0     C10773   3.379  10.792  10.252  0.6093 -0.2606  0.8225
   79MOL0     C10774   3.502  10.750  10.329 -0.9602  0.2530  0.0787
   79MOL0     C10775   3.555  10.869  10.427 -0.2166 -0.3262 -0.0833
   79MOL0     C10776   3.702  10.855  10.479 -0.3253 -0.3600  0.7459
   79MOL0     C10777   3.752  10.954  10.584  0.4796  0.0236  0.2509
   79MOL0     C10778   3.883  10.902  10.650 -0.4833  0.2019 -0.0397
   79MOL0     C10779   3.935  11.009  10.751 -0.3843 -0.8167 -0.0855
   79MOL0     C10780   3.972  11.146  10.690  0.0188 -0.0437 -0.0096
   79MOL0     N10781   4.050  11.236  10.777 -0.0556 -0.4909 -0.0956
   79MOL0     C10782   4.186  11.227  10.811 -2.1432 -0.5225  0.2930
   79MOL0     C10783   4.210  11.330  10.905 -0.0678 -0.7635  1.0216
   79MOL0     C10784   4.348  11.362  10.967  0.2683  0.7752  0.0418
   79MOL0     C10785   4.428  11.461  10.882 -0.1869  0.0517 -0.2032
   79MOL0     C10786   4.481  11.387  10.750  0.3598 -0.0321  0.4210
   79MOL0     C10787   4.573  11.474  10.680  0.1711  0.1039 -0.0816
   79MOL0     O10788   4.584  11.426  10.541  0.2022  0.9244 -0.8486
   79MOL0     C10789   4.611  11.508  10.438  0.0592 -0.3186  0.7904
   79MOL0     C10790   4.658  11.643  10.448  0.2534  0.0942 -0.4654
   79MOL0     C10791   4.677  11.716  10.336 -0.0464 -0.4312 -0.0927
   79MOL0     C10792   4.754  11.850  10.354  0.5506 -0.9013 -0.1298
   79MOL0     C10793   4.640  11.657  10.216  1.2155 -0.2354  0.1749
   79MOL0     C10794   4.612  11.740  10.089 -0.2470  0.3379 -0.1932
   79MOL0     O10795   4.579  11.675   9.972 -0.2664  0.2353 -0.2014
   79MOL0     C10796   4.561  11.742   9.856  0.1344 -0.6118  0.3876
   79MOL0     C10797   4.439  11.783   9.810 -0.1780  0.0386 -0.3621
   79MOL0     C10798   4.412  11.835   9.680 -0.0399  0.8249 -1.2683
   79MOL0     C10799   4.525  11.842   9.599  0.3065 -0.4346  0.3974
   79MOL0     O10800   4.516  11.873   9.465  0.2620  0.4181 -0.2552
   79MOL0     C10801   4.481  11.996   9.404  0.1678 -0.9189 -0.3047
   79MOL0     C10802   4.473  11.977   9.252  0.3132 -0.0332  0.8970
   79MOL0     C10803   4.398  11.845   9.225 -0.2172 -0.7585 -0.0030
   79MOL0     C10804   4.352  11.831   9.082  0.7573  0.5238 -0.3654
   79MOL0     C10805   4.347  11.679   9.040  0.7537  0.0974 -0.1538
   79MOL0     C10806   4.270  11.589   9.142  0.4273 -0.0753  0.0741
   79MOL0     C10807   4.230  11.454   9.083  0.7943 -0.2205  0.0800
   79MOL0     C10808   4.345  11.365   9.076 -1.2104  0.0678 -0.1435
   79MOL0    Cl10809   4.411  11.346   8.908 -0.4161 -0.1485  0.1633
   79MOL0     C10810   4.647  11.798   9.632  0.1701  0.4418 -0.3364
   79MOL0     C10811   4.664  11.747   9.762 -0.1945  0.2276  0.9497
   79MOL0     O10812   4.622  11.860  10.091 -0.2620 -0.0094 -0.6210
   79MOL0     C10813   4.590  11.528  10.204  0.4155  0.3149  0.2922
   79MOL0     C10814   4.575  11.457  10.319  0.1100  0.7008  0.4362
   79MOL0     N10815   4.092  11.403  10.915  0.8394 -0.4574 -0.1130
   79MOL0     N10816   3.999  11.338  10.849  1.1111 -0.3250  0.0803
   79MOL0     C10817   3.379  11.033   9.967 -0.1029  0.2960  0.4152
   79MOL0     C10818   3.295  11.093   9.872  0.1493  0.1655  0.6453
   79MOL0     C10819   3.016  11.175   9.544  0.8320 -0.4854 -0.4815
   79MOL0     C10820   2.887  11.197   9.590 -0.4142  0.5394 -0.4671
   79MOL0     C10821   2.783  11.234   9.505 -0.2905 -0.1501 -0.6174
   79MOL0     C10822   2.815  11.255   9.363  0.3784 -0.2285 -0.6013
   79MOL0     O10823   2.716  11.306   9.282  0.0183  0.0275  0.3718
   79MOL0     C10824   2.643  11.203   9.213 -0.3638 -0.1562  0.0009
   79MOL0     C10825   2.542  11.127   9.296  0.0225  0.3832 -0.4345
   79MOL0     C10826   2.491  11.008   9.217  0.2562  0.1287 -0.3862
   79MOL0     C10827   2.367  11.029   9.120  0.1413  0.6138  0.0325
   79MOL0     C10828   2.303  11.164   9.138 -0.1145 -0.2922 -0.4283
   79MOL0     C10829   2.272  11.281   9.166  0.5894  0.0733  0.8121
   79MOL0     C10830   2.942  11.219   9.320  0.3205  0.1098  0.8930
   79MOL0     C10831   3.045  11.178   9.405 -0.6917  0.3341 -1.0982
   79MOL0     C10832   3.175  11.152   9.325 -0.2125 -0.1340  0.4915
   79MOL0     H10833   3.035  10.895   9.920 -1.2035  1.0379 -0.6942
   79MOL0     H10834   3.165  10.810  10.107  1.8973 -2.5608 -1.5110
   79MOL0     H10835   3.333  10.703  10.209 -0.0658 -0.2994  1.5848
   79MOL0     H10836   3.314  10.834  10.330  1.0693  0.6936  0.6977
   79MOL0     H10837   3.476  10.667  10.395  2.4785  0.3086  1.7126
   79MOL0     H10838   3.587  10.732  10.263 -1.9904  1.2831 -1.6136
   79MOL0     H10839   3.557  10.966  10.376 -1.2549 -0.2885 -0.0564
   79MOL0     H10840   3.481  10.890  10.504  2.3466 -0.1808  2.5439
   79MOL0     H10841   3.705  10.752  10.517  1.5267 -1.8314 -2.8991
   79MOL0     H10842   3.768  10.856  10.392 -1.7014 -0.4888 -0.3360
   79MOL0     H10843   3.669  10.969  10.654 -0.9822  0.6094 -1.5445
   79MOL0     H10844   3.764  11.056  10.547 -0.1884  2.0145  4.7819
   79MOL0     H10845   3.874  10.805  10.701 -1.9590  0.9210  1.1717
   79MOL0     H10846   3.954  10.876  10.571 -0.0099  0.3337  0.3314
   79MOL0     H10847   4.023  10.965  10.798 -0.9394 -1.2682  0.5532
   79MOL0     H10848   3.864  11.028  10.833  1.7050 -0.9726  1.8621
   79MOL0     H10849   4.035  11.121  10.605  1.3490  0.9367  0.6390
   79MOL0     H10850   3.882  11.196  10.655 -1.8329 -2.3844  1.1112
   79MOL0     H10851   4.260  11.157  10.775 -1.7824 -0.6745  1.2791
   79MOL0     H10852   4.391  11.262  10.977 -2.2351 -0.3032  0.5582
   79MOL0     H10853   4.340  11.406  11.067  3.8849 -0.6146  1.1217
   79MOL0     H10854   4.366  11.547  10.858 -0.1038  0.3876  0.7701
   79MOL0     H10855   4.514  11.503  10.935 -0.8062 -0.1144  0.9528
   79MOL0     H10856   4.538  11.299  10.780 -0.2609 -0.3220  0.7623
   79MOL0     H10857   4.389  11.359  10.698 -0.9544 -2.3853  3.6792
   79MOL0     H10858   4.539  11.578  10.685 -0.6680 -0.1852  0.5085
   79MOL0     H10859   4.677  11.480  10.715 -0.6552 -0.9830  2.8211
   79MOL0     H10860   4.697  11.686  10.539 -1.9592 -1.8810  1.5697
   79MOL0     H10861   4.685  11.928  10.388  0.2761 -1.1275 -0.1636
   79MOL0     H10862   4.810  11.888  10.268 -1.1729 -0.9567 -1.3268
   79MOL0     H10863   4.828  11.831  10.432 -0.4051 -2.4146  0.4510
   79MOL0     H10864   4.353  11.766   9.873  0.9791 -1.7783  0.8211
   79MOL0     H10865   4.318  11.881   9.652  1.1151  3.0520 -1.7121
   79MOL0     H10866   4.385  12.030   9.444  1.4980  4.5621 -0.8760
   79MOL0     H10867   4.558  12.070   9.427 -0.1821 -0.9779  1.1455
   79MOL0     H10868   4.435  12.065   9.200 -2.4871 -2.1769 -0.9337
   79MOL0     H10869   4.574  11.969   9.211  0.9945  3.3652  1.5814
   79MOL0     H10870   4.314  11.826   9.293 -2.5671  0.2872 -2.4704
   79MOL0     H10871   4.483  11.776   9.236  1.4225  1.2094  0.4447
   79MOL0     H10872   4.423  11.883   9.017  0.0967  3.0675  0.8481
   79MOL0     H10873   4.257  11.882   9.065  0.4663  0.4993  1.0841
   79MOL0     H10874   4.311  11.661   8.939  1.3585  1.7099 -0.6895
   79MOL0     H10875   4.447  11.635   9.048  1.1017  1.1857  3.1672
   79MOL0     H10876   4.177  11.638   9.172  0.3674 -1.0583  1.6537
   79MOL0     H10877   4.323  11.579   9.238 -0.5220  0.6769  0.6945
   79MOL0     H10878   4.189  11.470   8.983 -0.0257  2.7003  0.7789
   79MOL0     H10879   4.158  11.397   9.142  0.3703 -1.0536 -1.1888
   79MOL0     H10880   4.316  11.267   9.115 -0.9107  0.5849  1.4712
   79MOL0     H10881   4.419  11.413   9.141 -4.0154  1.8481  1.9896
   79MOL0     H10882   4.728  11.807   9.560  1.1321  0.3127  0.6996
   79MOL0     H10883   4.762  11.703   9.778  1.5503  2.1698 -2.9027
   79MOL0     H10884   4.566  11.480  10.110 -1.3579  0.2482  0.7410
   79MOL0     H10885   4.554  11.350  10.316  4.2698 -0.2838  0.3183
   79MOL0     H10886   3.471  11.090   9.980 -0.2903  0.2176  2.2981
   79MOL0     H10887   3.348  11.182   9.838  2.5891 -1.9889 -1.6416
   79MOL0     H10888   2.867  11.194   9.696 -0.8554  0.0811 -0.5588
   79MOL0     H10889   2.678  11.251   9.530  0.3377  0.4748  1.8437
   79MOL0     H10890   2.597  11.255   9.128  1.4051  1.3765 -0.0750
   79MOL0     H10891   2.718  11.134   9.173  2.8839  3.6867 -1.3105
   79MOL0     H10892   2.461  11.187   9.340 -0.6103 -0.9806  0.3558
   79MOL0     H10893   2.597  11.088   9.383  0.5501 -0.3775 -1.0939
   79MOL0     H10894   2.568  10.949   9.165  0.0467 -2.6079  2.1146
   79MOL0     H10895   2.467  10.931   9.291  2.3071 -0.5613 -0.3566
   79MOL0     H10896   2.289  10.958   9.150 -0.4024  1.3447  0.3756
   79MOL0     H10897   2.410  11.019   9.020 -0.6072 -0.2221 -0.2255
   79MOL0     H10898   2.262  11.387   9.177  0.3222  0.0069  1.2435
   79MOL0     H10899   2.966  11.232   9.215  0.2315  1.5379  1.0260
   79MOL0     H10900   3.253  11.221   9.358  1.2410 -1.3359 -0.3090
   79MOL0     H10901   3.221  11.054   9.341  0.2584  0.0286  0.1527
   79MOL0     H10902   3.169  11.162   9.216  2.7716  0.6245  0.3301
   80MOL0     O10903   8.700   0.495   8.787  1.4665 -0.8984 -0.2223
   80MOL0     C10904   8.784   0.451   8.864 -0.4025  0.1741  0.3224
   80MOL0     O10905   8.913   0.494   8.867 -0.2332 -0.1812  0.0256
   80MOL0     C10906   8.939   0.593   8.774 -0.7615 -0.1444 -0.0458
   80MOL0     C10907   8.997   0.548   8.659 -0.2108  0.2625  0.8165
   80MOL0     C10908   9.033   0.634   8.553 -0.2740 -0.6159 -0.6558
   80MOL0     C10909   9.017   0.772   8.575  0.3490  0.1701  0.8066
   80MOL0     O10910   9.041   0.859   8.466  0.3183  0.5850 -0.0569
   80MOL0     C10911   8.971   0.985   8.469 -0.5222  0.5582  0.3899
   80MOL0     C10912   8.963   1.054   8.322 -0.0517  0.1346 -0.5382
   80MOL0     C10913   9.093   1.093   8.262 -0.0514  0.2349 -0.4494
   80MOL0     C10914   9.073   1.199   8.156 -0.0487  0.8475  0.5268
   80MOL0     C10915   9.215   1.237   8.103 -0.2536  0.9438 -0.0172
   80MOL0     C10916   9.211   1.334   7.986  0.3868  0.3030  0.0344
   80MOL0     C10917   9.352   1.333   7.913 -0.4867  0.0370  0.1585
   80MOL0     C10918   9.364   1.409   7.788 -0.3101  0.9272 -0.3376
   80MOL0     N10919   9.273   1.364   7.682 -0.1503 -0.0431  0.4129
   80MOL0     C10920   9.281   1.235   7.630  0.1952 -0.7542 -0.1052
   80MOL0     C10921   9.170   1.226   7.552  0.2631 -0.4640 -0.4007
   80MOL0     C10922   9.136   1.104   7.475 -0.5784 -0.6688 -0.9276
   80MOL0     C10923   9.186   1.104   7.326  0.0856 -0.1679 -0.6709
   80MOL0     C10924   9.338   1.137   7.310  0.4345  0.6292  0.2125
   80MOL0     C10925   9.424   1.016   7.298 -0.4504  0.1981 -0.0306
   80MOL0     O10926   9.446   0.949   7.421  1.1595 -0.0706  0.0110
   80MOL0     C10927   9.537   0.850   7.410  0.8041  0.3846 -0.2914
   80MOL0     C10928   9.598   0.811   7.529 -0.2200  0.1072 -0.0928
   80MOL0     C10929   9.702   0.718   7.537  0.1864  0.0106  0.2807
   80MOL0     C10930   9.765   0.714   7.671 -0.0166  0.9924 -0.0158
   80MOL0     C10931   9.732   0.651   7.415 -0.5150 -0.3334  0.3002
   80MOL0     C10932   9.829   0.535   7.406 -0.4229  0.6306 -0.6209
   80MOL0     O10933   9.852   0.460   7.521 -0.4133  0.1335 -0.7042
   80MOL0     C10934   9.936   0.347   7.523 -0.1295 -0.9838 -0.8347
   80MOL0     C10935  10.069   0.354   7.470  0.1499  0.2061  0.1220
   80MOL0     C10936  10.157   0.246   7.477 -0.3328  0.4633  1.2566
   80MOL0     C10937  10.122   0.114   7.535  0.0737  0.4403 -0.3421
   80MOL0     O10938  10.205   0.009   7.566  0.1285 -0.3527  0.2670
   80MOL0     C10939  10.343   0.042   7.544  0.2838 -0.2909  0.0408
   80MOL0     C10940  10.436  -0.061   7.609  0.2948  1.6422 -0.6095
   80MOL0     C10941  10.430  -0.051   7.766 -0.7845  0.4589  0.4020
   80MOL0     C10942  10.509  -0.168   7.821 -0.2047  0.1116 -0.2166
   80MOL0     C10943  10.581  -0.130   7.959  0.1449 -0.9713  0.9123
   80MOL0     C10944  10.667  -0.247   7.991 -0.1548 -0.1550 -0.4139
   80MOL0     C10945  10.811  -0.226   7.944 -0.2455 -0.2962  0.2966
   80MOL0     C10946  10.889  -0.346   7.912  0.7773 -0.2918  0.0108
   80MOL0    Cl10947  11.065  -0.326   7.884 -0.1850 -0.1092 -0.0777
   80MOL0     C10948   9.990   0.111   7.590  0.1946  0.0477  0.4254
   80MOL0     C10949   9.901   0.226   7.584 -0.4337 -0.1718  0.2725
   80MOL0     O10950   9.867   0.500   7.295  0.7829  0.3586  0.1535
   80MOL0     C10951   9.667   0.683   7.294  0.6018  0.1298  0.1358
   80MOL0     C10952   9.557   0.769   7.298  0.1232  0.0889 -0.6448
   80MOL0     N10953   9.116   1.348   7.543  0.2785 -0.4993 -0.5675
   80MOL0     N10954   9.176   1.431   7.621  0.3120 -0.3924  0.0768
   80MOL0     C10955   8.949   0.817   8.692 -1.0311 -0.2256  0.8608
   80MOL0     C10956   8.921   0.724   8.793  0.6768 -0.0747 -0.1470
   80MOL0     C10957   8.745   0.339   8.951 -0.4376  0.1077  0.6968
   80MOL0     C10958   8.857   0.258   8.998 -0.5821 -0.2240 -0.2469
   80MOL0     C10959   8.831   0.147   9.068 -0.2274 -0.1525 -0.9144
   80MOL0     C10960   8.707   0.116   9.123 -0.1250 -1.4039 -0.2510
   80MOL0     O10961   8.682   0.014   9.211 -0.8663 -0.3150 -0.2880
   80MOL0     C10962   8.760  -0.109   9.200 -0.9481  0.9428  0.1990
   80MOL0     C10963   8.726  -0.198   9.075  0.1979  0.5221  0.0337
   80MOL0     C10964   8.758  -0.349   9.109  0.1858  0.2088  0.0108
   80MOL0     C10965   8.676  -0.448   9.031 -0.3809 -0.1571  0.0555
   80MOL0     C10966   8.697  -0.451   8.887  0.3802  0.6125 -0.3231
   80MOL0     C10967   8.703  -0.450   8.771  0.7178 -0.1929  0.7176
   80MOL0     C10968   8.598   0.195   9.090  0.0375 -0.4558  0.4104
   80MOL0     C10969   8.611   0.304   9.000 -1.0021 -0.5867 -0.0759
   80MOL0     C10970   8.488   0.377   8.962  0.0484 -0.2367 -0.0794
   80MOL0     H10971   9.009   0.442   8.637 -0.2758  0.1656  1.2437
   80MOL0     H10972   9.071   0.597   8.457  0.2179  2.3147 -1.6781
   80MOL0     H10973   9.003   1.063   8.539  0.1689 -0.5081  1.2916
   80MOL0     H10974   8.865   0.964   8.485 -0.9311  1.1649 -1.3161
   80MOL0     H10975   8.908   0.980   8.262 -0.8571  0.4995 -0.2653
   80MOL0     H10976   8.908   1.148   8.334  0.9217  0.4824  1.5196
   80MOL0     H10977   9.172   1.125   8.331  3.1732 -2.6389 -2.4860
   80MOL0     H10978   9.128   0.995   8.229  1.7038 -0.2240  2.4937
   80MOL0     H10979   9.001   1.162   8.082  2.5107 -1.8908 -0.7792
   80MOL0     H10980   9.037   1.296   8.194 -0.5324 -0.4633  3.7586
   80MOL0     H10981   9.272   1.149   8.071  0.3486  1.0869  0.6382
   80MOL0     H10982   9.274   1.280   8.184 -0.3461 -0.7045  0.9715
   80MOL0     H10983   9.138   1.295   7.915 -0.6408  0.7807  0.8009
   80MOL0     H10984   9.178   1.434   8.015 -1.9205 -0.4567  0.2441
   80MOL0     H10985   9.376   1.230   7.885  2.9199  0.4383  1.1590
   80MOL0     H10986   9.426   1.365   7.987 -2.1745 -0.5340  2.2119
   80MOL0     H10987   9.361   1.514   7.818  0.5084  0.9506 -0.3090
   80MOL0     H10988   9.463   1.401   7.741  0.0239  1.6307  0.2293
   80MOL0     H10989   9.344   1.149   7.652 -0.9992 -1.0598  2.6034
   80MOL0     H10990   9.028   1.101   7.461 -0.2828 -0.8034 -3.7430
   80MOL0     H10991   9.171   1.021   7.538  0.6341 -0.8273 -1.7702
   80MOL0     H10992   9.156   1.008   7.283 -3.9142  0.0253  1.3128
   80MOL0     H10993   9.128   1.181   7.275 -0.0404  0.5266  0.4857
   80MOL0     H10994   9.365   1.191   7.219  1.3850 -1.8362 -1.0518
   80MOL0     H10995   9.368   1.196   7.397  1.1890 -1.8632  1.7330
   80MOL0     H10996   9.386   0.947   7.223 -0.1501  0.6367 -0.5951
   80MOL0     H10997   9.514   1.065   7.260 -0.9392  0.7870 -0.4505
   80MOL0     H10998   9.574   0.860   7.622 -0.6983  1.0047 -0.6766
   80MOL0     H10999   9.786   0.815   7.708 -0.0034  1.0940 -0.2954
   80MOL0     H11000   9.867   0.674   7.665 -0.6618 -1.6606  3.4849
   80MOL0     H11001   9.706   0.657   7.743 -2.0739  0.2998 -2.1471
   80MOL0     H11002  10.094   0.450   7.425 -0.7227 -0.7841 -2.6855
   80MOL0     H11003  10.259   0.268   7.449 -0.1941  0.5614  1.8405
   80MOL0     H11004  10.365   0.046   7.437  0.4639  1.0274  0.1173
   80MOL0     H11005  10.372   0.141   7.578 -2.5861  1.3429 -1.8437
   80MOL0     H11006  10.394  -0.159   7.582  0.5218  1.3244  0.1568
   80MOL0     H11007  10.540  -0.044   7.578  1.1028 -2.6065 -0.8219
   80MOL0     H11008  10.332  -0.058   7.814 -0.0468 -1.7741  1.7411
   80MOL0     H11009  10.472   0.044   7.801  0.4642 -0.1797  0.7126
   80MOL0     H11010  10.590  -0.197   7.753  1.9976  1.9628  1.4698
   80MOL0     H11011  10.459  -0.265   7.835  0.2308  0.1283  1.5740
   80MOL0     H11012  10.628  -0.032   7.948 -2.0857  0.0253 -0.3444
   80MOL0     H11013  10.511  -0.102   8.039  1.0021  3.9721  0.2926
   80MOL0     H11014  10.626  -0.341   7.953  2.7221 -0.3750 -3.4716
   80MOL0     H11015  10.668  -0.254   8.100  2.8390 -1.0117 -0.4090
   80MOL0     H11016  10.856  -0.169   8.025  0.5717  1.0115 -1.0342
   80MOL0     H11017  10.809  -0.164   7.854 -5.3881 -0.8730 -0.3283
   80MOL0     H11018  10.841  -0.386   7.823  0.3703  2.4207 -1.0944
   80MOL0     H11019  10.878  -0.421   7.991  1.8544 -1.5275 -0.9754
   80MOL0     H11020   9.953   0.023   7.641 -2.5269  2.4608  3.0089
   80MOL0     H11021   9.803   0.202   7.624 -1.1957  0.6414 -1.0098
   80MOL0     H11022   9.692   0.631   7.202  0.0234  0.3495 -0.1490
   80MOL0     H11023   9.501   0.793   7.208 -1.8844  1.9968  0.9943
   80MOL0     H11024   8.932   0.921   8.717  2.6949  0.3125  1.7457
   80MOL0     H11025   8.898   0.765   8.891  0.6217  0.7719 -0.5077
   80MOL0     H11026   8.959   0.277   8.966 -1.1126 -1.5795 -3.0511
   80MOL0     H11027   8.922   0.107   9.111 -1.0464  2.3710  3.7147
   80MOL0     H11028   8.868  -0.097   9.206 -0.3332 -1.9385 -2.4634
   80MOL0     H11029   8.727  -0.169   9.286 -0.9310 -0.6044 -0.8246
   80MOL0     H11030   8.787  -0.158   8.993 -1.1967  0.7490 -0.9373
   80MOL0     H11031   8.620  -0.198   9.049  0.1159 -0.1549  0.3465
   80MOL0     H11032   8.865  -0.369   9.098  0.3500  1.6042 -1.2410
   80MOL0     H11033   8.740  -0.372   9.215  1.8168 -1.8850 -0.1018
   80MOL0     H11034   8.572  -0.419   9.049  0.2020  1.0100  1.8705
   80MOL0     H11035   8.693  -0.551   9.065  3.3624  0.8042  1.5807
   80MOL0     H11036   8.708  -0.428   8.666 -3.9928  3.6430  0.9228
   80MOL0     H11037   8.505   0.170   9.139 -1.2180 -0.7136 -1.9733
   80MOL0     H11038   8.446   0.426   9.051 -4.4425  0.4630 -2.3207
   80MOL0     H11039   8.499   0.446   8.878  0.0202 -0.8326 -0.5729
   80MOL0     H11040   8.414   0.305   8.928 -1.5973 -0.4189  3.4812
   81MOL0     O11041   6.464  10.508   8.611  0.6036  0.1276  0.6340
   81MOL0     C11042   6.488  10.399   8.563  0.2299  0.0330 -0.5794
   81MOL0     O11043   6.397  10.299   8.546  0.0335  0.3479  0.7821
   81MOL0     C11044   6.284  10.282   8.624  0.0311  0.5019 -1.2853
   81MOL0     C11045   6.256  10.346   8.741  0.5658  0.2413 -0.9189
   81MOL0     C11046   6.132  10.329   8.806  0.1151 -0.2206  0.4898
   81MOL0     C11047   6.030  10.247   8.749 -0.2020 -0.4138 -0.2857
   81MOL0     O11048   5.918  10.226   8.825  0.0617 -0.0641  0.7133
   81MOL0     C11049   5.818  10.134   8.780  0.0684  0.5709 -0.3900
   81MOL0     C11050   5.687  10.168   8.870  0.5448 -0.1412 -0.5721
   81MOL0     C11051   5.591  10.047   8.902  0.1093  0.7628 -0.8388
   81MOL0     C11052   5.541   9.978   8.781  0.3382 -1.1359  1.1294
   81MOL0     C11053   5.461   9.857   8.791  0.0003  0.9869 -0.5697
   81MOL0     C11054   5.429   9.788   8.662 -0.0253  0.1816 -0.3098
   81MOL0     C11055   5.305   9.702   8.675 -0.7577  0.6199 -0.4042
   81MOL0     C11056   5.320   9.607   8.791 -0.0374 -0.5095 -0.2169
   81MOL0     N11057   5.217   9.496   8.778  0.5910 -0.4267 -0.8247
   81MOL0     C11058   5.089   9.503   8.790 -0.5211 -0.1956  0.8766
   81MOL0     C11059   5.033   9.394   8.725  0.0209  0.2624  1.0009
   81MOL0     C11060   4.883   9.348   8.728 -0.6568  0.7843  1.0842
   81MOL0     C11061   4.829   9.361   8.588 -0.2648 -1.1082  0.9573
   81MOL0     C11062   4.695   9.288   8.572  0.2367 -0.3601 -0.1942
   81MOL0     C11063   4.633   9.282   8.434  0.1081 -0.2876  0.2894
   81MOL0     O11064   4.541   9.173   8.441 -0.5952  1.0167  0.3942
   81MOL0     C11065   4.477   9.164   8.320 -0.6740 -0.3178 -0.9505
   81MOL0     C11066   4.356   9.228   8.305 -0.5046 -1.4109 -0.2335
   81MOL0     C11067   4.265   9.206   8.203 -0.6489  0.1024  0.7185
   81MOL0     C11068   4.146   9.303   8.180 -0.7125  0.3876  0.4114
   81MOL0     C11069   4.309   9.109   8.098 -0.4424  0.1632 -0.2993
   81MOL0     C11070   4.227   9.093   7.969 -0.2309 -0.4224  0.7614
   81MOL0     O11071   4.292   9.048   7.857 -0.4567 -0.2318 -1.0872
   81MOL0     C11072   4.227   9.023   7.742  0.4114  0.1811 -0.0807
   81MOL0     C11073   4.241   8.907   7.672  0.0111 -0.4169 -0.0993
   81MOL0     C11074   4.171   8.878   7.556  0.6032 -0.0401  0.2053
   81MOL0     C11075   4.100   8.981   7.495 -0.6099  0.8717 -0.4764
   81MOL0     O11076   4.052   8.959   7.369 -0.3205  0.2578  0.2821
   81MOL0     C11077   3.907   8.984   7.344  0.3159  1.0225 -0.4454
   81MOL0     C11078   3.900   9.086   7.236  0.9674 -0.2828  0.0487
   81MOL0     C11079   3.901   9.012   7.096  0.6785  0.2228 -0.1639
   81MOL0     C11080   3.953   9.114   6.999  0.2237  0.0192  0.4481
   81MOL0     C11081   3.958   9.054   6.858  0.3187 -0.1630  0.4184
   81MOL0     C11082   3.955   9.159   6.743 -0.3570 -0.0920 -1.1582
   81MOL0     C11083   4.038   9.288   6.765  0.8670  0.5081  0.1722
   81MOL0     C11084   4.038   9.360   6.631 -0.1738  0.6484 -1.4882
   81MOL0    Cl11085   3.897   9.468   6.625 -0.1292 -0.1959 -0.0135
   81MOL0     C11086   4.082   9.103   7.567 -0.0484  1.1493  1.2159
   81MOL0     C11087   4.157   9.121   7.681  0.2406  0.1397  1.0503
   81MOL0     O11088   4.108   9.126   7.964 -0.3955 -0.2325 -0.5611
   81MOL0     C11089   4.433   9.048   8.111 -0.9275 -0.9380 -0.0144
   81MOL0     C11090   4.520   9.077   8.220  0.1241 -0.0676  0.4973
   81MOL0     N11091   5.142   9.325   8.674  0.6916  0.1377 -0.7269
   81MOL0     N11092   5.249   9.384   8.712  0.2733  0.2859 -0.1713
   81MOL0     C11093   6.053  10.181   8.628 -1.3313  0.0377  0.4956
   81MOL0     C11094   6.181  10.208   8.562  0.0830 -0.1535 -0.2783
   81MOL0     C11095   6.625  10.378   8.505 -0.4126  0.7311 -0.4854
   81MOL0     C11096   6.675  10.484   8.436 -0.1560 -0.6175  0.1936
   81MOL0     C11097   6.804  10.473   8.385 -1.0082 -0.1596 -0.7242
   81MOL0     C11098   6.891  10.367   8.412 -0.9489  0.1097 -0.2714
   81MOL0     O11099   7.021  10.352   8.366 -0.0178  0.2654 -0.1266
   81MOL0     C11100   7.117  10.284   8.451  1.0612 -0.9246 -0.1774
   81MOL0     C11101   7.133  10.361   8.585  0.0741 -0.1250 -0.7971
   81MOL0     C11102   7.227  10.479   8.581  0.5896  0.6555 -0.1366
   81MOL0     C11103   7.155  10.622   8.596 -0.3980  0.7296  0.0838
   81MOL0     C11104   7.245  10.736   8.594 -0.3562 -1.0902  0.0359
   81MOL0     C11105   7.308  10.841   8.594 -0.9528  0.7863  0.6066
   81MOL0     C11106   6.827  10.253   8.471  0.3908 -0.7467  0.4131
   81MOL0     C11107   6.699  10.261   8.519 -0.2750 -0.4398 -0.6629
   81MOL0     C11108   6.656  10.147   8.608  0.0109  0.9169 -0.1955
   81MOL0     H11109   6.329  10.414   8.784 -1.4745  0.7069  2.0824
   81MOL0     H11110   6.117  10.380   8.901 -2.8664  1.5717 -0.7834
   81MOL0     H11111   5.851  10.033   8.808 -4.8297 -1.1842 -0.0088
   81MOL0     H11112   5.805  10.156   8.674 -0.9749 -0.0159 -0.3989
   81MOL0     H11113   5.721  10.200   8.969 -2.1711  1.1036  0.0515
   81MOL0     H11114   5.647  10.258   8.822  1.6404  1.2362  0.9515
   81MOL0     H11115   5.652   9.973   8.953 -2.9205 -3.5474 -2.8627
   81MOL0     H11116   5.515  10.083   8.973  1.3102  0.7233  0.5110
   81MOL0     H11117   5.464  10.045   8.742  1.1998  0.3776  1.9668
   81MOL0     H11118   5.620   9.956   8.708  0.1527  0.0936  0.5351
   81MOL0     H11119   5.373   9.881   8.852  2.2590  3.3046  2.0732
   81MOL0     H11120   5.526   9.796   8.855  0.0058  1.5489 -0.0289
   81MOL0     H11121   5.414   9.870   8.591  2.2523  0.9666  0.0246
   81MOL0     H11122   5.514   9.735   8.619 -0.7439  0.6341 -2.4380
   81MOL0     H11123   5.296   9.646   8.581 -2.3762  1.5223 -0.8317
   81MOL0     H11124   5.212   9.758   8.688 -1.5408 -0.2379 -1.9255
   81MOL0     H11125   5.421   9.566   8.780 -0.0379 -0.3366 -0.8731
   81MOL0     H11126   5.319   9.654   8.890 -0.6328 -2.5665  0.8253
   81MOL0     H11127   5.038   9.586   8.839  1.2260  1.0857  0.5992
   81MOL0     H11128   4.848   9.412   8.810 -3.4281 -1.4986  1.8307
   81MOL0     H11129   4.887   9.244   8.762 -0.3659 -0.8186 -3.3171
   81MOL0     H11130   4.814   9.466   8.561  2.8807 -0.4169  1.4514
   81MOL0     H11131   4.895   9.308   8.517  1.6860 -1.6623  3.0638
   81MOL0     H11132   4.711   9.186   8.608 -2.1948 -0.5396  0.5394
   81MOL0     H11133   4.621   9.326   8.643 -0.7482 -5.3087  1.8496
   81MOL0     H11134   4.579   9.373   8.407  0.6302 -0.4592 -1.4796
   81MOL0     H11135   4.714   9.263   8.363 -0.9374 -1.4091 -0.6467
   81MOL0     H11136   4.333   9.296   8.386  0.9466 -0.9191 -0.1906
   81MOL0     H11137   4.164   9.347   8.082 -0.7920 -0.9162 -0.1993
   81MOL0     H11138   4.148   9.387   8.251 -3.2776  0.9901 -0.1174
   81MOL0     H11139   4.053   9.244   8.182 -1.2442  1.1639 -0.4149
   81MOL0     H11140   4.322   8.844   7.707 -0.4770 -1.2639 -0.4693
   81MOL0     H11141   4.195   8.782   7.510  0.3293 -1.4513  2.7919
   81MOL0     H11142   3.873   8.887   7.308  1.5486 -0.1951  1.5249
   81MOL0     H11143   3.843   9.002   7.431  1.2861  0.7618  0.3342
   81MOL0     H11144   3.812   9.149   7.246  1.8923  1.4415 -1.9554
   81MOL0     H11145   3.993   9.141   7.249  0.4010  0.4507  1.0814
   81MOL0     H11146   3.797   8.979   7.082  0.5041  0.6621  0.0765
   81MOL0     H11147   3.972   8.929   7.097 -1.3278 -1.5977 -0.0751
   81MOL0     H11148   4.050   9.152   7.032 -0.0381  2.4912 -1.3442
   81MOL0     H11149   3.878   9.193   6.990  0.9414  0.6510 -0.0696
   81MOL0     H11150   4.056   9.009   6.839  0.9547  1.8306 -1.4864
   81MOL0     H11151   3.892   8.970   6.836 -0.0481  0.7217 -2.3099
   81MOL0     H11152   3.851   9.195   6.747 -0.1772  0.5729 -2.0461
   81MOL0     H11153   3.975   9.100   6.653 -1.3633 -2.1138 -0.1193
   81MOL0     H11154   4.140   9.266   6.796  1.2132  0.7969 -0.7481
   81MOL0     H11155   4.001   9.351   6.846  0.0076 -0.7511  0.8011
   81MOL0     H11156   4.053   9.288   6.550  4.0464  2.0322 -2.1988
   81MOL0     H11157   4.127   9.423   6.633  0.9081 -0.8158  0.3903
   81MOL0     H11158   4.015   9.180   7.530  0.6075  1.8488  1.4650
   81MOL0     H11159   4.168   9.219   7.726  0.8448  0.2400  0.7091
   81MOL0     H11160   4.481   8.984   8.037  1.0427 -2.4750  2.4447
   81MOL0     H11161   4.619   9.033   8.221  0.6035  0.8776 -1.2828
   81MOL0     H11162   5.987  10.104   8.592 -1.7813  0.3159  0.7164
   81MOL0     H11163   6.204  10.158   8.468 -0.0414 -4.9483  1.9584
   81MOL0     H11164   6.611  10.570   8.417 -1.3258 -1.2287  1.2218
   81MOL0     H11165   6.852  10.553   8.330  1.3164 -3.4040 -3.9526
   81MOL0     H11166   7.082  10.181   8.467 -0.1024 -0.7084 -1.2161
   81MOL0     H11167   7.214  10.281   8.400  0.6395  1.4330 -1.2414
   81MOL0     H11168   7.183  10.284   8.644 -0.0547  0.0714 -0.4256
   81MOL0     H11169   7.045  10.388   8.644  0.6014  1.1806 -0.5706
   81MOL0     H11170   7.289  10.476   8.671  0.1798  2.5831  0.2572
   81MOL0     H11171   7.288  10.480   8.490  1.9363 -1.7110  0.6625
   81MOL0     H11172   7.107  10.636   8.693 -0.0565 -0.2232  0.4045
   81MOL0     H11173   7.082  10.637   8.517 -0.4143 -1.5414 -0.3894
   81MOL0     H11174   7.370  10.925   8.572  0.1092 -0.0857  0.1549
   81MOL0     H11175   6.878  10.158   8.477 -0.6661 -1.2578  1.8385
   81MOL0     H11176   6.726  10.062   8.610 -1.6018 -0.4571  1.1215
   81MOL0     H11177   6.654  10.181   8.712  2.0628 -2.4946  1.1367
   81MOL0     H11178   6.562  10.097   8.584  0.0127  0.7306  0.1669
   82MOL0     O11179   2.019   9.467   2.675 -0.0161 -0.3180 -0.2045
   82MOL0     C11180   1.932   9.555   2.703 -0.1174 -0.2073 -0.4438
   82MOL0     O11181   1.967   9.676   2.767 -0.2978  0.1178 -0.6169
   82MOL0     C11182   2.094   9.659   2.808  0.0081 -0.2424 -0.9656
   82MOL0     C11183   2.127   9.599   2.938  0.6185 -0.7928  0.4947
   82MOL0     C11184   2.257   9.603   2.972 -0.1793 -0.2139  0.2546
   82MOL0     C11185   2.355   9.672   2.896 -0.9854  0.3013  1.2889
   82MOL0     O11186   2.485   9.686   2.933 -0.3463 -0.2307  0.8271
   82MOL0     C11187   2.504   9.793   3.021  0.3766 -0.2453 -1.3633
   82MOL0     C11188   2.640   9.804   3.078  0.1972  0.5921 -0.0986
   82MOL0     C11189   2.748   9.802   2.969  0.4491 -0.1866  0.1815
   82MOL0     C11190   2.877   9.900   2.998  1.3238  0.3887 -0.5258
   82MOL0     C11191   2.988   9.893   2.898  0.1670  0.0776 -0.5885
   82MOL0     C11192   2.964   9.976   2.771 -0.2673 -0.1741  0.4682
   82MOL0     C11193   3.088   9.966   2.676  0.7882 -0.4731 -0.6261
   82MOL0     C11194   3.057  10.053   2.557 -0.0882  0.1875 -0.6288
   82MOL0     N11195   3.165  10.060   2.457 -0.5179  0.5380 -0.1520
   82MOL0     C11196   3.203   9.945   2.384 -0.3291  1.2415  0.1079
   82MOL0     C11197   3.308   9.994   2.306  0.5528  0.5382 -1.3222
   82MOL0     C11198   3.390   9.904   2.222  0.4558 -0.1432 -0.0772
   82MOL0     C11199   3.370   9.884   2.073 -0.1135  1.2955 -0.3525
   82MOL0     C11200   3.345  10.011   1.992  0.4186 -0.3664  1.0066
   82MOL0     C11201   3.476  10.107   1.989 -0.7945 -0.7737 -0.1286
   82MOL0     O11202   3.444  10.227   1.908  0.0440  0.3804 -0.4862
   82MOL0     C11203   3.384  10.332   1.967 -0.5505  1.0324 -1.3314
   82MOL0     C11204   3.369  10.354   2.107 -0.4827 -0.2351 -0.3401
   82MOL0     C11205   3.291  10.464   2.152 -0.4379 -0.3720 -1.6452
   82MOL0     C11206   3.279  10.485   2.304  0.1780 -0.0382 -1.0105
   82MOL0     C11207   3.234  10.552   2.058  1.0901 -0.2679  0.0980
   82MOL0     C11208   3.169  10.688   2.087  0.8696 -0.6966  0.3629
   82MOL0     O11209   3.163  10.781   1.984  0.3749 -0.7184 -0.7284
   82MOL0     C11210   3.130  10.913   2.008  0.8245 -0.2639  0.7840
   82MOL0     C11211   3.199  11.004   2.086 -0.6115 -0.5011 -0.7172
   82MOL0     C11212   3.171  11.134   2.090  0.8688 -0.6919 -0.7801
   82MOL0     C11213   3.071  11.190   2.004  0.1168  0.7989  0.2308
   82MOL0     O11214   3.058  11.319   2.000 -0.6335 -0.4226 -0.1146
   82MOL0     C11215   3.010  11.389   1.881  0.1477 -0.0224 -0.0700
   82MOL0     C11216   3.062  11.528   1.874 -0.1295  0.0173 -0.1323
   82MOL0     C11217   3.214  11.538   1.853 -0.1156 -0.4669 -0.4227
   82MOL0     C11218   3.254  11.679   1.889 -0.5548 -0.1509  0.0859
   82MOL0     C11219   3.412  11.679   1.871  0.6933  1.1863 -0.4210
   82MOL0     C11220   3.482  11.809   1.893  0.7290  0.3348 -1.0859
   82MOL0     C11221   3.530  11.830   2.035  0.0813  0.3415 -0.4972
   82MOL0     C11222   3.636  11.939   2.045  0.1250  0.6180  0.4369
   82MOL0    Cl11223   3.665  11.997   2.210 -0.0650  0.2198 -0.0747
   82MOL0     C11224   2.995  11.096   1.930 -0.0541 -0.4648 -0.2443
   82MOL0     C11225   3.025  10.960   1.931 -0.6459 -0.2839 -0.1781
   82MOL0     O11226   3.130  10.709   2.202 -1.0447 -0.7269 -0.4781
   82MOL0     C11227   3.241  10.513   1.924 -0.4468  0.6503  1.2812
   82MOL0     C11228   3.328  10.415   1.880  1.0309 -1.0978  0.4178
   82MOL0     N11229   3.336  10.121   2.355  0.0849  0.6329  0.6320
   82MOL0     N11230   3.249  10.169   2.439  0.0068  0.8965 -0.6059
   82MOL0     C11231   2.324   9.723   2.764 -0.2065 -0.6554 -0.1156
   82MOL0     C11232   2.189   9.727   2.732  0.3380  1.0530  0.3674
   82MOL0     C11233   1.782   9.530   2.670 -1.0856 -0.9222 -0.0030
   82MOL0     C11234   1.704   9.642   2.677 -0.4397 -0.6155 -0.8830
   82MOL0     C11235   1.568   9.634   2.658  0.6940 -0.1898 -0.8192
   82MOL0     C11236   1.504   9.518   2.613 -0.4471  0.1321  0.1506
   82MOL0     O11237   1.367   9.495   2.594 -0.6133 -0.2515  0.4699
   82MOL0     C11238   1.265   9.587   2.637  1.2419  0.5003 -0.6540
   82MOL0     C11239   1.168   9.647   2.539 -0.1829 -0.0489 -0.2039
   82MOL0     C11240   1.127   9.532   2.445  0.5119 -0.7919 -0.2734
   82MOL0     C11241   0.996   9.568   2.375 -0.9151  0.4049  1.7706
   82MOL0     C11242   1.006   9.536   2.228  0.3998  0.0237  0.1125
   82MOL0     C11243   1.039   9.524   2.113  0.1577 -0.5810  0.5662
   82MOL0     C11244   1.588   9.407   2.594 -0.2194 -0.1093  0.7965
   82MOL0     C11245   1.722   9.407   2.638 -0.0085 -0.5652  0.4358
   82MOL0     C11246   1.785   9.271   2.616  0.0675  0.4694  0.6919
   82MOL0     H11247   2.048   9.557   2.998 -3.2786  3.4554 -1.0414
   82MOL0     H11248   2.294   9.543   3.054  1.9906 -0.7395 -1.0271
   82MOL0     H11249   2.434   9.798   3.105 -0.5337  1.3086 -2.1659
   82MOL0     H11250   2.493   9.887   2.967  4.5480  1.6592  0.6696
   82MOL0     H11251   2.649   9.903   3.125  1.3544 -0.3333  1.7410
   82MOL0     H11252   2.663   9.725   3.150 -2.8967  1.3606  1.9305
   82MOL0     H11253   2.784   9.699   2.968  0.2187 -0.2780 -1.4171
   82MOL0     H11254   2.709   9.822   2.868  2.6997  0.3501 -0.6448
   82MOL0     H11255   2.848  10.003   3.017 -0.0786 -0.3376  1.6014
   82MOL0     H11256   2.922   9.862   3.090  3.6410 -1.5698 -2.3308
   82MOL0     H11257   2.995   9.785   2.882 -1.5016 -0.2925  0.8197
   82MOL0     H11258   3.086   9.922   2.939  1.5906 -2.8663 -1.6692
   82MOL0     H11259   2.875   9.939   2.718  0.0335  0.0852 -0.2390
   82MOL0     H11260   2.935  10.079   2.794  0.6760  0.5405 -1.3276
   82MOL0     H11261   3.099   9.859   2.659 -1.7090 -1.1799  1.4461
   82MOL0     H11262   3.167  10.019   2.730 -0.7041  1.9333 -0.6063
   82MOL0     H11263   2.966  10.034   2.499 -1.0233  4.8787 -1.0551
   82MOL0     H11264   3.033  10.155   2.587 -1.7817 -0.2957 -0.2487
   82MOL0     H11265   3.162   9.845   2.374 -2.5481  1.9583  1.4449
   82MOL0     H11266   3.397   9.806   2.272 -2.4307 -1.3350 -1.7805
   82MOL0     H11267   3.493   9.942   2.224  0.0424  0.9923  0.7722
   82MOL0     H11268   3.455   9.828   2.035  0.0645 -0.3116  2.2176
   82MOL0     H11269   3.284   9.817   2.068  0.6661  0.0393  2.0153
   82MOL0     H11270   3.312   9.991   1.889 -0.0456  1.2745  0.7999
   82MOL0     H11271   3.264  10.074   2.028  1.7868  1.1703  1.5624
   82MOL0     H11272   3.506  10.138   2.090 -0.2776 -0.9159 -0.2364
   82MOL0     H11273   3.567  10.067   1.943 -0.2603  0.4543 -0.1976
   82MOL0     H11274   3.418  10.293   2.182  0.7986 -2.2807 -2.6656
   82MOL0     H11275   3.181  10.512   2.342  1.8648  1.0184  3.1268
   82MOL0     H11276   3.343  10.570   2.331  0.0958 -1.0531  2.9533
   82MOL0     H11277   3.320  10.398   2.356 -1.3913 -1.6411 -2.3441
   82MOL0     H11278   3.278  10.964   2.148  1.0446 -0.1408 -2.4879
   82MOL0     H11279   3.227  11.199   2.157  1.3459 -0.2024 -1.6371
   82MOL0     H11280   3.039  11.335   1.791  2.6597 -2.3298  1.9335
   82MOL0     H11281   2.901  11.377   1.888 -0.2772  2.1296 -1.7777
   82MOL0     H11282   3.006  11.581   1.796  0.4049  3.5589  1.7027
   82MOL0     H11283   3.027  11.567   1.970 -0.3139 -0.6277  0.0703
   82MOL0     H11284   3.240  11.510   1.750  0.1984 -1.3168 -0.1188
   82MOL0     H11285   3.256  11.457   1.912 -2.2998 -0.3031  1.5130
   82MOL0     H11286   3.224  11.706   1.991 -0.3333  0.0637  0.0940
   82MOL0     H11287   3.216  11.756   1.821 -2.5469 -0.4796  0.7367
   82MOL0     H11288   3.452  11.602   1.937 -0.6312 -0.1904 -1.1567
   82MOL0     H11289   3.435  11.633   1.774  2.2346 -0.3332  0.5975
   82MOL0     H11290   3.414  11.885   1.853 -0.6946 -0.2618  0.1027
   82MOL0     H11291   3.567  11.798   1.825 -0.5608 -0.7856 -2.6361
   82MOL0     H11292   3.560  11.739   2.087 -0.0273  0.2954 -0.5132
   82MOL0     H11293   3.450  11.868   2.099 -0.8667  1.9359 -2.4912
   82MOL0     H11294   3.610  12.021   1.977 -0.1861  1.0194  1.0240
   82MOL0     H11295   3.719  11.894   1.992  0.1684  0.7274  0.4108
   82MOL0     H11296   2.917  11.119   1.858 -1.3651 -1.1749  0.9100
   82MOL0     H11297   2.980  10.900   1.852  0.6091 -1.6831  0.1262
   82MOL0     H11298   3.201  10.557   1.833  1.6233  0.6094  0.2992
   82MOL0     H11299   3.338  10.381   1.777  1.5375 -0.1944  0.1533
   82MOL0     H11300   2.400   9.762   2.697 -0.5878 -2.7334 -1.8729
   82MOL0     H11301   2.158   9.774   2.639 -3.6051  2.1507  2.0027
   82MOL0     H11302   1.730   9.746   2.697 -2.3701  0.4212 -3.3044
   82MOL0     H11303   1.510   9.726   2.662  1.6984  0.5302 -2.0050
   82MOL0     H11304   1.201   9.520   2.696  0.2304  0.8009 -1.3745
   82MOL0     H11305   1.293   9.665   2.708 -0.0331  1.1685 -0.8461
   82MOL0     H11306   1.226   9.723   2.485  2.3964 -1.8831 -0.2088
   82MOL0     H11307   1.079   9.689   2.587  0.5980 -1.1334  2.3620
   82MOL0     H11308   1.209   9.514   2.375 -0.7750 -3.4038 -1.2590
   82MOL0     H11309   1.116   9.442   2.506  1.2265 -0.4301  0.4013
   82MOL0     H11310   0.979   9.676   2.378 -2.9720  0.1815  0.6168
   82MOL0     H11311   0.916   9.511   2.424 -0.1133  0.2375  2.9445
   82MOL0     H11312   1.070   9.509   2.011  2.7069  1.6152  0.9122
   82MOL0     H11313   1.544   9.312   2.565 -0.5507  0.0102  0.9011
   82MOL0     H11314   1.838   9.240   2.707  0.1503 -0.8067  0.2377
   82MOL0     H11315   1.722   9.189   2.581 -0.6478  1.3545 -0.1472
   82MOL0     H11316   1.865   9.273   2.541 -0.2521 -1.5687  0.2476
   83MOL0     O11317   2.040   1.117   6.055 -0.3786 -0.6372 -0.0479
   83MOL0     C11318   1.986   1.164   6.155  0.1383  0.1297 -0.4753
   83MOL0     O11319   2.051   1.236   6.249  0.4058 -0.4756  1.0890
   83MOL0     C11320   2.185   1.264   6.233  0.0260  0.4354 -0.4036
   83MOL0     C11321   2.214   1.396   6.193 -0.8854 -1.6381 -0.0412
   83MOL0     C11322   2.348   1.423   6.171  0.1680  0.3067 -0.6160
   83MOL0     C11323   2.454   1.330   6.195 -0.0034  0.4735 -0.1996
   83MOL0     O11324   2.589   1.375   6.189 -0.3224  0.0306 -0.4742
   83MOL0     C11325   2.626   1.516   6.206  0.1867  0.3401  0.3243
   83MOL0     C11326   2.775   1.538   6.194 -0.0830  0.4770 -0.0880
   83MOL0     C11327   2.830   1.677   6.230 -0.2978  0.1295 -0.3168
   83MOL0     C11328   2.985   1.670   6.238 -0.4397  0.2922 -1.1745
   83MOL0     C11329   3.050   1.807   6.262  0.2585 -0.5700 -0.1751
   83MOL0     C11330   3.198   1.789   6.293  0.5887  0.3349 -0.1854
   83MOL0     C11331   3.248   1.881   6.397  0.6267 -1.0077  0.1370
   83MOL0     C11332   3.393   1.873   6.412  0.3344  0.0516 -0.4338
   83MOL0     N11333   3.449   1.995   6.486  0.1880 -0.8692  0.2387
   83MOL0     C11334   3.404   2.022   6.608  0.6855 -0.2715  0.4019
   83MOL0     C11335   3.446   2.152   6.625  0.3477 -0.0196 -0.3440
   83MOL0     C11336   3.425   2.245   6.738  0.2366 -0.3774  0.5750
   83MOL0     C11337   3.272   2.271   6.781  0.2150  0.1321 -0.3543
   83MOL0     C11338   3.253   2.304   6.925  0.9826 -0.5148 -0.1464
   83MOL0     C11339   3.337   2.413   6.977  0.4228  0.6376  0.4725
   83MOL0     O11340   3.287   2.533   6.909  0.7560  0.6207 -0.0408
   83MOL0     C11341   3.193   2.617   6.967 -0.0595 -0.3004  0.0025
   83MOL0     C11342   3.161   2.743   6.910  0.7561 -0.1761  0.4050
   83MOL0     C11343   3.076   2.834   6.970  0.3850 -0.1648 -0.0515
   83MOL0     C11344   3.026   2.942   6.877  0.0577  0.7510 -0.0531
   83MOL0     C11345   3.024   2.798   7.101 -0.8419 -0.2159 -0.8777
   83MOL0     C11346   2.915   2.882   7.163 -0.0857 -0.0378  0.1252
   83MOL0     O11347   2.820   2.805   7.235  0.1088 -1.0162  0.2946
   83MOL0     C11348   2.701   2.861   7.249  0.0585  0.0074  0.1805
   83MOL0     C11349   2.644   2.799   7.355  0.2627  1.0255 -0.5980
   83MOL0     C11350   2.506   2.804   7.381 -0.1420  0.8809  0.0857
   83MOL0     C11351   2.424   2.890   7.307  0.2521 -0.4290  0.4932
   83MOL0     O11352   2.289   2.885   7.312 -0.0160  0.9622  0.3747
   83MOL0     C11353   2.230   2.990   7.387  0.0633 -0.1119  0.4223
   83MOL0     C11354   2.268   3.004   7.538  0.3504 -0.1066  0.2068
   83MOL0     C11355   2.191   3.130   7.585  0.0990 -0.9513  0.8474
   83MOL0     C11356   2.203   3.149   7.736 -0.9335  0.0454 -0.1780
   83MOL0     C11357   2.108   3.246   7.806 -0.3414 -0.4727  0.3950
   83MOL0     C11358   2.180   3.335   7.915 -0.4886 -0.3135 -0.6734
   83MOL0     C11359   2.313   3.416   7.892 -0.1699 -0.3857  0.7262
   83MOL0     C11360   2.370   3.486   8.018 -0.0470  0.9424  0.0317
   83MOL0    Cl11361   2.480   3.619   7.981 -0.5993  0.3542 -0.0117
   83MOL0     C11362   2.486   2.967   7.200 -0.5526 -0.7546  0.1164
   83MOL0     C11363   2.626   2.952   7.174 -0.7183 -0.8780  0.0862
   83MOL0     O11364   2.924   3.005   7.166 -0.1627 -0.5390  0.3150
   83MOL0     C11365   3.067   2.680   7.170  0.4630 -0.3922 -0.5503
   83MOL0     C11366   3.150   2.593   7.106 -0.3631  0.2140  0.4848
   83MOL0     N11367   3.516   2.185   6.510  0.6764 -0.3588 -0.4722
   83MOL0     N11368   3.506   2.094   6.428  0.0513 -0.6135  0.3528
   83MOL0     C11369   2.422   1.208   6.242  0.3831 -1.0303 -0.5182
   83MOL0     C11370   2.283   1.174   6.263  0.2282 -0.3869  0.3343
   83MOL0     C11371   1.845   1.140   6.153 -0.0739 -0.4595 -0.3641
   83MOL0     C11372   1.758   1.247   6.125 -0.4159  0.3231 -0.6524
   83MOL0     C11373   1.621   1.225   6.147  0.7216  0.5978  0.3113
   83MOL0     C11374   1.566   1.107   6.200  0.2333  0.2851 -0.6493
   83MOL0     O11375   1.427   1.096   6.216  0.1126 -0.5482  0.5310
   83MOL0     C11376   1.353   1.073   6.096  0.2356  0.1433  0.0624
   83MOL0     C11377   1.203   1.097   6.128  0.2079  0.1255  0.9806
   83MOL0     C11378   1.169   1.022   6.260  0.4127  0.4105  0.1693
   83MOL0     C11379   1.154   1.123   6.374  0.5298 -0.3942 -0.0458
   83MOL0     C11380   1.139   1.061   6.511 -0.3214  0.0523  0.4885
   83MOL0     C11381   1.110   1.047   6.630 -0.0771  0.2058  0.6288
   83MOL0     C11382   1.657   1.010   6.234  0.4648 -0.2955  1.6533
   83MOL0     C11383   1.792   1.020   6.208 -0.1593 -0.9231 -0.3297
   83MOL0     C11384   1.879   0.903   6.223 -0.4002 -0.4630  0.9825
   83MOL0     H11385   2.139   1.472   6.175  1.2941  1.0017  1.3084
   83MOL0     H11386   2.368   1.525   6.140 -0.7110  0.9304  0.8164
   83MOL0     H11387   2.607   1.555   6.307  1.2149  0.4432  0.4905
   83MOL0     H11388   2.572   1.574   6.131  2.4328  0.8208 -0.9923
   83MOL0     H11389   2.807   1.470   6.273  0.4189  1.1322  0.2808
   83MOL0     H11390   2.806   1.518   6.091 -1.6964  0.8781 -0.6899
   83MOL0     H11391   2.804   1.750   6.153 -0.8228  0.3699  0.0898
   83MOL0     H11392   2.805   1.714   6.329 -0.7487 -2.9689  0.8492
   83MOL0     H11393   3.001   1.607   6.325 -2.3902  1.5643  0.1916
   83MOL0     H11394   3.031   1.637   6.144  2.6795  1.8093 -0.3142
   83MOL0     H11395   2.998   1.862   6.341 -0.6702 -0.6262 -0.7301
   83MOL0     H11396   3.033   1.871   6.175  1.0177  2.2469  1.6402
   83MOL0     H11397   3.206   1.692   6.343 -0.7087  0.6613  0.7099
   83MOL0     H11398   3.256   1.779   6.201  0.4815  1.1297 -0.3555
   83MOL0     H11399   3.198   1.863   6.493  0.6786 -0.8071  0.2026
   83MOL0     H11400   3.217   1.981   6.364 -1.4459 -1.9122 -0.8430
   83MOL0     H11401   3.418   1.779   6.461 -1.4715 -1.3809 -2.1171
   83MOL0     H11402   3.438   1.867   6.312  2.4137  2.0305  0.2874
   83MOL0     H11403   3.353   1.957   6.679 -0.5028 -0.7845 -0.8890
   83MOL0     H11404   3.458   2.346   6.710 -1.2470  0.4216  1.5177
   83MOL0     H11405   3.482   2.203   6.821  2.7680  0.3648 -0.6942
   83MOL0     H11406   3.234   2.361   6.731  0.6189  0.5714  0.1262
   83MOL0     H11407   3.212   2.187   6.745 -0.9647  1.4398 -1.5656
   83MOL0     H11408   3.146   2.325   6.934  1.1557  0.9211 -1.1603
   83MOL0     H11409   3.265   2.211   6.983 -1.9316 -0.0838  1.3601
   83MOL0     H11410   3.323   2.420   7.085  2.8119  2.3989  0.7659
   83MOL0     H11411   3.442   2.391   6.957  0.8177  1.0834  1.9359
   83MOL0     H11412   3.200   2.759   6.810  2.4083  4.2319  1.5222
   83MOL0     H11413   3.098   2.945   6.795  2.0518 -0.0559  1.5917
   83MOL0     H11414   3.037   3.039   6.927  2.7945  0.4527  0.0877
   83MOL0     H11415   2.921   2.928   6.849 -0.3186  0.8976  1.2019
   83MOL0     H11416   2.700   2.736   7.424  1.0512  0.2871 -1.8821
   83MOL0     H11417   2.464   2.738   7.456 -3.4266  0.7306 -1.6887
   83MOL0     H11418   2.247   3.080   7.326 -0.7783  0.1328  0.5307
   83MOL0     H11419   2.121   2.976   7.379  0.3522 -1.3602 -2.1502
   83MOL0     H11420   2.239   2.911   7.588 -1.6410  0.7347  0.7265
   83MOL0     H11421   2.373   3.032   7.549  0.0803  2.1579 -2.0863
   83MOL0     H11422   2.085   3.120   7.561 -0.0021 -1.0545  1.3306
   83MOL0     H11423   2.212   3.224   7.532 -2.9226 -0.1416  0.9163
   83MOL0     H11424   2.305   3.186   7.749 -0.9593  0.0653 -0.0318
   83MOL0     H11425   2.202   3.053   7.788 -0.3304 -0.1734 -0.5587
   83MOL0     H11426   2.060   3.297   7.723 -1.0427 -1.6807  0.0328
   83MOL0     H11427   2.025   3.199   7.859 -0.3097  3.7007  4.8964
   83MOL0     H11428   2.198   3.271   8.002  0.1252 -0.0845 -0.6266
   83MOL0     H11429   2.098   3.401   7.944 -1.8139  0.1692 -4.8945
   83MOL0     H11430   2.303   3.492   7.814  1.2602 -2.2388 -1.4082
   83MOL0     H11431   2.392   3.352   7.851 -0.1710 -0.0384  0.1674
   83MOL0     H11432   2.419   3.417   8.086 -2.4047 -0.9017  0.0027
   83MOL0     H11433   2.277   3.528   8.058 -0.0951  4.9656 -3.5502
   83MOL0     H11434   2.421   3.020   7.130  2.9263  1.5764 -1.6517
   83MOL0     H11435   2.675   3.001   7.090  0.8681  2.1144  2.5604
   83MOL0     H11436   3.011   2.667   7.262 -1.3459  1.9407 -1.2205
   83MOL0     H11437   3.169   2.506   7.168 -1.3122  0.2566  0.8548
   83MOL0     H11438   2.496   1.134   6.272  0.3225 -0.3055  1.5658
   83MOL0     H11439   2.270   1.072   6.298  1.9241 -0.8755 -0.3395
   83MOL0     H11440   1.799   1.341   6.089 -0.5261  0.9725  0.8592
   83MOL0     H11441   1.555   1.302   6.110 -1.9055 -0.2420  2.8100
   83MOL0     H11442   1.386   1.150   6.025 -2.9114 -0.0543 -1.7715
   83MOL0     H11443   1.376   0.974   6.056 -0.7524 -0.0307 -0.0940
   83MOL0     H11444   1.134   1.053   6.055 -0.0217 -0.7575  1.7125
   83MOL0     H11445   1.176   1.203   6.130  2.6424  0.8979 -0.8898
   83MOL0     H11446   1.065   0.990   6.255 -0.3370  1.2399  5.2078
   83MOL0     H11447   1.242   0.946   6.290  2.1009  0.6616 -2.8617
   83MOL0     H11448   1.078   1.195   6.342  0.3168 -1.5281 -2.3436
   83MOL0     H11449   1.254   1.167   6.383  0.7566 -1.3147  2.8670
   83MOL0     H11450   1.081   1.017   6.729 -1.2823  1.0551  0.5570
   83MOL0     H11451   1.622   0.926   6.294 -0.2400  0.2915  2.0782
   83MOL0     H11452   1.961   0.926   6.292  0.0725 -3.3520  1.4875
   83MOL0     H11453   1.820   0.818   6.256 -1.5421 -0.4511 -0.8777
   83MOL0     H11454   1.922   0.872   6.127  0.5363  0.0966  1.2032
   84MOL0     O11455  10.031   4.048   5.016 -0.1716 -0.5520  0.0728
   84MOL0     C11456   9.933   3.980   4.983 -0.0509 -0.2615  0.1032
   84MOL0     O11457   9.932   3.870   4.908  0.4227  0.6692 -0.5169
   84MOL0     C11458  10.059   3.808   4.893  0.1616 -1.0129 -0.6107
   84MOL0     C11459  10.090   3.752   4.767 -0.6188  0.2892  0.6431
   84MOL0     C11460  10.218   3.697   4.747  0.3670 -0.1577 -0.4604
   84MOL0     C11461  10.305   3.680   4.860 -0.1384 -0.2122  0.3246
   84MOL0     O11462  10.433   3.632   4.836  0.4144 -0.0712 -0.0004
   84MOL0     C11463  10.522   3.709   4.753  0.3860 -0.4179 -0.6991
   84MOL0     C11464  10.571   3.845   4.810  0.4624 -0.2640 -0.1520
   84MOL0     C11465  10.648   3.806   4.937 -0.4199  0.8325 -0.6799
   84MOL0     C11466  10.768   3.903   4.964 -0.1311 -0.3166  0.4894
   84MOL0     C11467  10.843   3.842   5.087 -0.0552 -0.0188 -0.2852
   84MOL0     C11468  10.949   3.929   5.160  1.3660 -0.5528  0.2959
   84MOL0     C11469  11.013   3.868   5.286 -0.5474  0.5353  0.1328
   84MOL0     C11470  11.105   3.964   5.365  0.2812 -0.3145  0.1300
   84MOL0     N11471  11.153   3.908   5.492 -0.1400 -0.7248 -0.7030
   84MOL0     C11472  11.104   3.944   5.616 -0.4624  0.0456  0.1666
   84MOL0     C11473  11.197   3.894   5.698 -0.4871  0.3968 -1.6073
   84MOL0     C11474  11.207   3.924   5.852 -0.0391 -0.1119 -0.1668
   84MOL0     C11475  11.245   4.069   5.872 -0.1296 -0.5514  0.1622
   84MOL0     C11476  11.198   4.145   6.002  0.5151  1.1375 -0.2955
   84MOL0     C11477  11.045   4.129   6.030  0.2903 -0.1572  0.7136
   84MOL0     O11478  10.983   4.214   5.931  1.0556 -0.2235  0.3131
   84MOL0     C11479  10.844   4.215   5.931 -0.7154 -0.9257 -0.5169
   84MOL0     C11480  10.773   4.298   5.841 -1.6469  0.4892 -0.2131
   84MOL0     C11481  10.635   4.301   5.846 -0.3168 -1.0843  0.0173
   84MOL0     C11482  10.581   4.377   5.735 -0.1638  0.4397 -0.6852
   84MOL0     C11483  10.555   4.233   5.941  0.4014  0.3262  0.5869
   84MOL0     C11484  10.408   4.210   5.941 -1.1849 -0.4523 -0.2074
   84MOL0     O11485  10.343   4.239   5.825  0.4844 -0.5732 -0.7194
   84MOL0     C11486  10.210   4.284   5.835  0.9197  0.0605  0.0626
   84MOL0     C11487  10.193   4.420   5.835 -0.5647 -0.6216  1.3591
   84MOL0     C11488  10.076   4.485   5.857 -0.5169  0.0097 -1.0828
   84MOL0     C11489   9.956   4.413   5.868 -0.3794 -0.1978 -0.0762
   84MOL0     O11490   9.838   4.472   5.890  0.1089  0.3816  0.6295
   84MOL0     C11491   9.832   4.611   5.897  0.1667 -0.5344 -0.3345
   84MOL0     C11492   9.694   4.664   5.921 -0.2421 -0.1838  0.8206
   84MOL0     C11493   9.673   4.820   5.895  0.4870  0.3980  0.2564
   84MOL0     C11494   9.545   4.868   5.815  0.3093  0.9432  0.1824
   84MOL0     C11495   9.568   4.880   5.664  0.2879  1.1096 -0.8897
   84MOL0     C11496   9.697   4.952   5.615  0.0121  0.6209  0.0563
   84MOL0     C11497   9.690   4.964   5.464 -0.1377 -0.2852  0.1900
   84MOL0     C11498   9.793   5.051   5.397 -0.4824  0.0441 -0.8263
   84MOL0    Cl11499   9.775   5.218   5.453 -0.5932  0.3473 -0.2795
   84MOL0     C11500   9.967   4.271   5.877 -0.1366  0.0436 -0.1528
   84MOL0     C11501  10.089   4.209   5.861  0.7609  0.7095  0.1948
   84MOL0     O11502  10.355   4.185   6.047 -0.2118 -0.4096  0.3925
   84MOL0     C11503  10.627   4.145   6.031  0.0604 -0.1726 -0.1901
   84MOL0     C11504  10.769   4.141   6.031  0.9293  1.1879  0.2503
   84MOL0     N11505  11.295   3.823   5.629 -0.0010  0.1645  0.9874
   84MOL0     N11506  11.252   3.818   5.506  0.2571  0.2642  0.0748
   84MOL0     C11507  10.272   3.732   4.986 -0.3521 -0.0276  0.5426
   84MOL0     C11508  10.152   3.794   4.998 -0.0110  0.3419 -0.5088
   84MOL0     C11509   9.797   4.038   5.015  0.3958 -0.1531  0.2431
   84MOL0     C11510   9.762   4.167   4.963 -0.3161 -0.1767  0.0994
   84MOL0     C11511   9.638   4.223   4.965  0.7240  0.3510  0.1037
   84MOL0     C11512   9.531   4.148   5.012  1.1336  0.0812 -0.1197
   84MOL0     O11513   9.407   4.195   4.997  0.6061 -0.0765 -0.0056
   84MOL0     C11514   9.299   4.143   5.077  0.2390  0.1197  0.0633
   84MOL0     C11515   9.185   4.241   5.062  0.1930 -0.3277 -0.0955
   84MOL0     C11516   9.066   4.199   5.143  0.2110  0.8075  0.6572
   84MOL0     C11517   8.950   4.297   5.134  0.6692 -0.5778  0.1121
   84MOL0     C11518   8.840   4.233   5.218 -0.3376  0.6397 -0.3243
   84MOL0     C11519   8.754   4.203   5.293 -0.4467 -0.5280 -0.0725
   84MOL0     C11520   9.558   4.025   5.070  0.2015  0.8577  0.4595
   84MOL0     C11521   9.689   3.977   5.081  0.0830  1.1027 -0.0717
   84MOL0     C11522   9.698   3.839   5.133  1.2250  0.0838 -0.1479
   84MOL0     H11523  10.019   3.751   4.685  1.0234  2.6520 -0.9540
   84MOL0     H11524  10.238   3.661   4.647 -1.8377  0.1226 -1.0718
   84MOL0     H11525  10.461   3.741   4.668 -0.5752  1.1560  0.5115
   84MOL0     H11526  10.606   3.642   4.730  0.2452 -1.1628  0.8538
   84MOL0     H11527  10.639   3.883   4.733 -0.6959 -0.1389 -1.1596
   84MOL0     H11528  10.489   3.915   4.826  0.4600  0.7677 -3.8034
   84MOL0     H11529  10.564   3.803   5.007 -2.2684 -1.8093 -2.7822
   84MOL0     H11530  10.682   3.702   4.930  1.3546  1.4198 -1.2669
   84MOL0     H11531  10.833   3.897   4.876 -0.8719 -1.1097 -0.0205
   84MOL0     H11532  10.742   4.009   4.976  0.1801  0.3567 -3.4942
   84MOL0     H11533  10.905   3.760   5.051  2.1523  0.2855  2.4877
   84MOL0     H11534  10.772   3.799   5.158 -1.5494  0.3984 -1.4785
   84MOL0     H11535  11.030   3.942   5.088  0.7310  1.0397 -0.1882
   84MOL0     H11536  10.914   4.033   5.169 -0.9814 -1.3870  1.8662
   84MOL0     H11537  11.081   3.787   5.258 -1.3323 -0.7785  1.8587
   84MOL0     H11538  10.942   3.822   5.355  0.2018 -1.5451 -0.3999
   84MOL0     H11539  11.190   3.989   5.301 -0.1164  0.1457 -0.2237
   84MOL0     H11540  11.047   4.055   5.385  0.2896 -0.7704  2.5327
   84MOL0     H11541  11.026   4.016   5.641  1.0716  2.6926 -2.1222
   84MOL0     H11542  11.271   3.866   5.919 -0.3097  1.5120  1.6047
   84MOL0     H11543  11.102   3.900   5.876  0.3831 -1.1089  0.7725
   84MOL0     H11544  11.355   4.062   5.875 -0.1602 -1.6961 -0.7233
   84MOL0     H11545  11.208   4.124   5.785 -1.1029 -1.1167  0.2177
   84MOL0     H11546  11.260   4.097   6.079 -0.8000  1.4247  0.9879
   84MOL0     H11547  11.232   4.248   5.992  2.6476  0.2190 -5.0260
   84MOL0     H11548  11.010   4.025   6.028  0.2687 -0.1421 -0.2197
   84MOL0     H11549  11.018   4.176   6.125 -1.4224  0.0614  0.1626
   84MOL0     H11550  10.843   4.353   5.779  1.1078  0.3765  2.5335
   84MOL0     H11551  10.516   4.324   5.665 -0.1558  0.2543 -0.5504
   84MOL0     H11552  10.655   4.430   5.674 -1.1607  1.6489 -0.9000
   84MOL0     H11553  10.518   4.458   5.775  1.3329  1.8669 -1.1005
   84MOL0     H11554  10.283   4.476   5.815  0.4394 -2.7720 -0.7423
   84MOL0     H11555  10.079   4.592   5.875  0.0545 -0.2984  0.9039
   84MOL0     H11556   9.887   4.641   5.987  0.5325 -0.8497 -0.4477
   84MOL0     H11557   9.872   4.661   5.808 -2.0294 -1.5136 -1.9430
   84MOL0     H11558   9.625   4.625   5.846 -2.1276 -1.3789  3.0532
   84MOL0     H11559   9.645   4.636   6.015 -1.8675  1.5185  0.5249
   84MOL0     H11560   9.761   4.869   5.851  2.1892 -2.4061  0.2642
   84MOL0     H11561   9.652   4.872   5.988 -2.1405  0.5729 -0.3818
   84MOL0     H11562   9.515   4.967   5.850 -0.0692  0.7372  0.4454
   84MOL0     H11563   9.478   4.783   5.832  0.6869  1.0607  2.5721
   84MOL0     H11564   9.580   4.778   5.626  2.2781 -0.3094  2.9994
   84MOL0     H11565   9.483   4.921   5.608 -0.8100 -0.9608 -0.8415
   84MOL0     H11566   9.785   4.892   5.639 -0.3448  0.0726 -0.0011
   84MOL0     H11567   9.709   5.052   5.658 -1.2107  2.0305 -2.6257
   84MOL0     H11568   9.595   5.003   5.425  0.0472 -0.6410 -0.6383
   84MOL0     H11569   9.698   4.862   5.427 -4.2339  0.2578 -2.8764
   84MOL0     H11570   9.782   5.049   5.288 -4.6282  0.8999 -0.5575
   84MOL0     H11571   9.886   5.008   5.436 -1.2744  1.3819  2.8673
   84MOL0     H11572   9.881   4.210   5.902  0.4343 -0.1070  1.5313
   84MOL0     H11573  10.106   4.103   5.874  1.9418  0.9901  1.0957
   84MOL0     H11574  10.565   4.086   6.096  0.2357  0.7707  0.8618
   84MOL0     H11575  10.813   4.075   6.105 -1.1970  0.3890  0.8869
   84MOL0     H11576  10.335   3.726   5.074 -2.4300 -1.1860  2.0259
   84MOL0     H11577  10.140   3.836   5.098  0.9497 -0.5783  0.0198
   84MOL0     H11578   9.846   4.220   4.919  1.3803 -1.0329  2.1337
   84MOL0     H11579   9.619   4.318   4.917 -1.2022 -2.1620 -4.7950
   84MOL0     H11580   9.270   4.047   5.034 -2.5562  0.4320  1.0459
   84MOL0     H11581   9.324   4.119   5.181 -0.2713 -0.3570  0.0805
   84MOL0     H11582   9.170   4.242   4.954  1.1009  0.0440 -0.2273
   84MOL0     H11583   9.217   4.342   5.090 -2.3466 -0.0925  2.4197
   84MOL0     H11584   9.031   4.101   5.109 -0.2650 -0.2987  3.9177
   84MOL0     H11585   9.096   4.194   5.248  2.2380  2.7859  0.2506
   84MOL0     H11586   8.915   4.302   5.031  1.3740  0.0731 -0.1030
   84MOL0     H11587   8.968   4.400   5.164  3.0977 -1.0784  0.5864
   84MOL0     H11588   8.677   4.164   5.358  1.1307 -2.0882  0.9523
   84MOL0     H11589   9.480   3.955   5.098 -0.7830  2.1891  1.1486
   84MOL0     H11590   9.633   3.822   5.220  1.5995 -2.0025 -0.2379
   84MOL0     H11591   9.687   3.760   5.058  0.9297  1.3345 -1.4659
   84MOL0     H11592   9.802   3.836   5.164  2.0205 -0.6362 -2.6336
   85MOL0     O11593   7.787   8.328   8.103  0.6722  0.4350  0.3645
   85MOL0     C11594   7.808   8.386   7.996  0.2144 -0.1900 -0.9715
   85MOL0     O11595   7.799   8.321   7.871  0.1234  0.2790 -0.4965
   85MOL0     C11596   7.779   8.184   7.854 -0.4564 -0.6512 -0.1231
   85MOL0     C11597   7.791   8.162   7.719 -0.3092 -0.0076  0.0665
   85MOL0     C11598   7.756   8.034   7.665 -0.1895  0.3761 -0.0001
   85MOL0     C11599   7.712   7.935   7.745 -0.0672  0.5232  0.2932
   85MOL0     O11600   7.697   7.805   7.712 -0.1925  0.2196 -0.1071
   85MOL0     C11601   7.730   7.762   7.583 -0.7028 -0.7891 -0.3380
   85MOL0     C11602   7.781   7.614   7.577 -0.2592 -0.2399 -0.3013
   85MOL0     C11603   7.782   7.548   7.438  0.6588  0.3944  0.1190
   85MOL0     C11604   7.864   7.636   7.341 -0.1164 -0.4070  1.1880
   85MOL0     C11605   7.849   7.573   7.204 -0.0535 -0.0498  0.5403
   85MOL0     C11606   7.847   7.678   7.086  0.5263  0.1379 -0.2262
   85MOL0     C11607   7.798   7.611   6.959  0.3356 -0.4788 -0.0287
   85MOL0     C11608   7.798   7.713   6.844 -0.0030  0.5216  0.4101
   85MOL0     N11609   7.695   7.825   6.839  0.9412 -0.1079 -0.3478
   85MOL0     C11610   7.562   7.821   6.802 -0.4219  0.5822 -0.5856
   85MOL0     C11611   7.525   7.951   6.811 -0.5250  0.6051 -0.3699
   85MOL0     C11612   7.384   8.006   6.781 -0.8536  0.0669  0.9447
   85MOL0     C11613   7.278   7.964   6.873 -0.2836 -0.5756 -0.2608
   85MOL0     C11614   7.149   8.024   6.813  0.3313 -0.5488  1.3337
   85MOL0     C11615   7.030   7.994   6.903  0.1508  0.8604  0.1438
   85MOL0     O11616   6.995   7.860   6.866  0.2061 -0.3509 -0.4341
   85MOL0     C11617   6.897   7.800   6.938 -0.2368 -0.1338 -0.1414
   85MOL0     C11618   6.853   7.844   7.065 -0.9432  0.3692  0.4036
   85MOL0     C11619   6.768   7.763   7.148  0.7418 -0.8689  0.1251
   85MOL0     C11620   6.737   7.815   7.284  0.7760  0.3941 -0.1937
   85MOL0     C11621   6.727   7.637   7.086 -0.3603  0.5033  0.1946
   85MOL0     C11622   6.643   7.538   7.169 -0.2360  0.1986 -0.2987
   85MOL0     O11623   6.594   7.588   7.289  0.0712  0.6393  0.0348
   85MOL0     C11624   6.585   7.489   7.380  0.1282  0.4494  0.1589
   85MOL0     C11625   6.694   7.451   7.448 -0.4754  0.4694 -0.1917
   85MOL0     C11626   6.680   7.361   7.554  0.4346 -0.2990 -0.0138
   85MOL0     C11627   6.561   7.298   7.578  0.6725 -0.7152 -0.0500
   85MOL0     O11628   6.528   7.208   7.670 -0.2877  0.3195 -0.7135
   85MOL0     C11629   6.614   7.093   7.680 -0.5321 -0.4698 -0.1079
   85MOL0     C11630   6.634   7.047   7.828  0.6760  0.5101  0.2975
   85MOL0     C11631   6.736   7.135   7.912  0.2972  1.0940  0.3876
   85MOL0     C11632   6.770   7.056   8.035 -0.9985 -0.3059  0.3136
   85MOL0     C11633   6.825   7.147   8.151  1.2237  0.3192  0.0082
   85MOL0     C11634   6.868   7.066   8.273 -0.0536 -0.8154  0.5929
   85MOL0     C11635   6.750   6.980   8.335 -0.0055 -0.5307  0.3673
   85MOL0     C11636   6.799   6.914   8.466 -0.5939  0.7787  0.0092
   85MOL0    Cl11637   6.666   6.800   8.497 -0.6831 -0.1079 -0.0240
   85MOL0     C11638   6.450   7.340   7.505 -0.3969  0.0192 -0.2770
   85MOL0     C11639   6.459   7.432   7.397 -0.6100 -0.1625  0.5210
   85MOL0     O11640   6.638   7.422   7.128  0.0334 -0.0706 -0.4208
   85MOL0     C11641   6.778   7.598   6.960  0.2127 -0.9487 -0.4217
   85MOL0     C11642   6.865   7.677   6.883 -0.0165  0.8624  1.5944
   85MOL0     N11643   7.629   8.026   6.867 -0.3978  0.4030 -0.3077
   85MOL0     N11644   7.734   7.946   6.867  0.0928 -0.4002  0.0104
   85MOL0     C11645   7.698   7.958   7.878 -0.3554 -0.2855  0.5451
   85MOL0     C11646   7.728   8.081   7.936  0.4962  0.4179 -0.2631
   85MOL0     C11647   7.860   8.525   7.995 -1.5580 -0.0933  0.0491
   85MOL0     C11648   7.903   8.564   8.127  0.5808 -0.9215  0.5847
   85MOL0     C11649   7.940   8.694   8.144  0.4739 -0.3389  0.0110
   85MOL0     C11650   7.940   8.790   8.038  0.3630  0.6702 -0.5789
   85MOL0     O11651   7.950   8.927   8.065 -0.2634  0.4110 -0.5601
   85MOL0     C11652   7.838   8.984   8.143 -0.0363 -0.1756 -0.1137
   85MOL0     C11653   7.820   9.141   8.132  0.0443 -0.8215  0.2868
   85MOL0     C11654   7.825   9.177   7.985  0.2634 -0.1653  0.6611
   85MOL0     C11655   7.765   9.312   7.941 -0.2190 -0.6325 -0.6525
   85MOL0     C11656   7.849   9.420   7.998  1.0309 -0.3929  0.0744
   85MOL0     C11657   7.900   9.525   8.039 -0.3157  0.3931  0.6763
   85MOL0     C11658   7.916   8.752   7.910  0.4636  0.4073 -0.4350
   85MOL0     C11659   7.885   8.614   7.880 -0.3903 -0.8731  0.1893
   85MOL0     C11660   7.857   8.578   7.734 -0.3255  0.2265 -0.2262
   85MOL0     H11661   7.812   8.239   7.646 -1.2588 -1.3894 -1.7636
   85MOL0     H11662   7.751   8.017   7.558 -3.9002  0.4349  0.0221
   85MOL0     H11663   7.815   7.818   7.542 -1.7001  0.3539 -0.8977
   85MOL0     H11664   7.645   7.778   7.516 -2.1809  1.7817  1.9642
   85MOL0     H11665   7.884   7.598   7.611  0.6438  0.2881 -2.5850
   85MOL0     H11666   7.719   7.557   7.647  1.9133  0.1117  2.0569
   85MOL0     H11667   7.828   7.449   7.436  1.4827  0.7564  0.5121
   85MOL0     H11668   7.677   7.531   7.417  0.8746 -1.7004  0.4988
   85MOL0     H11669   7.829   7.739   7.341  1.6873  0.9076  9.4138
   85MOL0     H11670   7.971   7.636   7.365 -0.0293  1.0585  0.8378
   85MOL0     H11671   7.757   7.516   7.192 -0.3604  0.5306  0.0483
   85MOL0     H11672   7.927   7.500   7.180 -1.0078 -1.2612  1.0374
   85MOL0     H11673   7.786   7.763   7.119  0.0936 -0.1222 -0.3386
   85MOL0     H11674   7.944   7.724   7.068  1.8385 -2.0853  0.7192
   85MOL0     H11675   7.700   7.565   6.973  1.0539 -1.6249  1.4733
   85MOL0     H11676   7.858   7.521   6.943 -0.2540 -0.4380 -3.0807
   85MOL0     H11677   7.895   7.763   6.834  0.6429 -0.2891  2.2240
   85MOL0     H11678   7.777   7.659   6.751  0.6335  1.0924 -0.0794
   85MOL0     H11679   7.506   7.740   6.756  1.3279  0.3286 -2.4414
   85MOL0     H11680   7.355   7.980   6.679 -2.1572  3.6338  0.2812
   85MOL0     H11681   7.391   8.115   6.782 -0.0747  0.0565  3.5821
   85MOL0     H11682   7.267   7.855   6.870  0.5928 -0.6538 -2.5580
   85MOL0     H11683   7.302   7.984   6.978  1.0470  0.7795 -0.7879
   85MOL0     H11684   7.157   8.132   6.796 -1.1885 -0.7734 -1.4718
   85MOL0     H11685   7.133   7.980   6.714 -0.4252 -0.2603  1.3255
   85MOL0     H11686   7.045   8.017   7.009  0.0831  1.5894 -0.0026
   85MOL0     H11687   6.951   8.058   6.863  1.5386  3.3704  1.1929
   85MOL0     H11688   6.888   7.935   7.112  1.5519 -0.1079 -0.4176
   85MOL0     H11689   6.630   7.832   7.298  0.1768 -0.7892 -2.7592
   85MOL0     H11690   6.778   7.915   7.299  0.6168  0.4466 -0.0977
   85MOL0     H11691   6.776   7.744   7.358  1.7112 -0.1284 -1.1597
   85MOL0     H11692   6.793   7.486   7.425 -0.6886  1.0476 -0.2359
   85MOL0     H11693   6.766   7.334   7.615 -0.0893 -1.6021  0.1942
   85MOL0     H11694   6.564   7.007   7.635 -0.8512 -1.1805  1.5275
   85MOL0     H11695   6.711   7.109   7.631 -0.0539 -1.7293  0.3696
   85MOL0     H11696   6.537   7.054   7.878 -0.6516  0.8329 -2.1704
   85MOL0     H11697   6.667   6.943   7.827 -0.2759  0.1927 -1.2189
   85MOL0     H11698   6.699   7.233   7.942  0.7483  1.2957  0.2928
   85MOL0     H11699   6.828   7.146   7.855  1.0096  0.1094  1.2880
   85MOL0     H11700   6.852   6.987   8.015  2.1272  3.3410 -0.6491
   85MOL0     H11701   6.673   7.016   8.067 -1.6092 -0.0969 -1.1751
   85MOL0     H11702   6.907   7.209   8.113  0.5088  1.8681  0.9070
   85MOL0     H11703   6.751   7.220   8.185 -0.8326 -3.1158  3.8527
   85MOL0     H11704   6.908   7.136   8.347  0.6476  0.5402 -1.0081
   85MOL0     H11705   6.952   7.001   8.245  2.0436  2.0383 -0.1916
   85MOL0     H11706   6.713   6.908   8.262  1.3609  0.4033 -1.3228
   85MOL0     H11707   6.682   7.053   8.379  3.4416  1.1963  3.3655
   85MOL0     H11708   6.814   6.987   8.546  2.5710 -0.7672  1.0114
   85MOL0     H11709   6.892   6.857   8.451 -1.4414 -0.6544  0.0562
   85MOL0     H11710   6.352   7.295   7.516 -1.7071  3.2902  3.7683
   85MOL0     H11711   6.383   7.487   7.341  0.8847  1.7989  0.3320
   85MOL0     H11712   6.744   7.503   6.920 -0.9727 -0.7775  0.1496
   85MOL0     H11713   6.889   7.653   6.780 -0.3600 -1.8465  2.0680
   85MOL0     H11714   7.666   7.874   7.939 -1.5579 -1.7007 -1.8634
   85MOL0     H11715   7.700   8.087   8.041 -0.5651 -2.7290 -0.2821
   85MOL0     H11716   7.895   8.497   8.212 -0.6740  0.1634  1.3815
   85MOL0     H11717   7.962   8.737   8.241  2.8099  0.3120 -0.7262
   85MOL0     H11718   7.751   8.932   8.102  0.2562 -0.5857 -0.2204
   85MOL0     H11719   7.858   8.965   8.249  0.0758  3.3478  0.6192
   85MOL0     H11720   7.897   9.196   8.187 -0.8842 -0.1848  0.9902
   85MOL0     H11721   7.718   9.169   8.163 -0.9475 -3.4846 -0.3013
   85MOL0     H11722   7.929   9.168   7.955  0.3894 -0.9680  1.3123
   85MOL0     H11723   7.773   9.099   7.929 -0.0426 -0.0705  0.8091
   85MOL0     H11724   7.666   9.326   7.985  0.9045  0.4699  1.6991
   85MOL0     H11725   7.773   9.316   7.832  0.4338  2.0368 -0.5918
   85MOL0     H11726   7.952   9.615   8.067 -1.2910  1.4739 -0.8483
   85MOL0     H11727   7.912   8.816   7.822 -1.9178  2.8950  1.3387
   85MOL0     H11728   7.854   8.669   7.674  2.1602  0.4119 -0.1529
   85MOL0     H11729   7.942   8.525   7.691  0.9293  0.2001  2.1072
   85MOL0     H11730   7.774   8.508   7.719  0.8553 -1.0313 -1.1445
   86MOL0     O11731   3.023   2.087   2.326  0.6482 -0.6143 -0.3696
   86MOL0     C11732   3.121   2.075   2.395  0.1590 -0.0963 -0.3774
   86MOL0     O11733   3.156   1.961   2.470  0.1936 -0.3901  0.5554
   86MOL0     C11734   3.101   1.846   2.415  0.0857 -0.2595 -0.0152
   86MOL0     C11735   3.190   1.759   2.367  0.0553  0.6982 -0.4702
   86MOL0     C11736   3.145   1.640   2.301  0.3837 -0.2762  0.1370
   86MOL0     C11737   3.006   1.611   2.293 -0.6211  0.3273  0.4307
   86MOL0     O11738   2.952   1.503   2.233 -0.1170  0.3036  0.1139
   86MOL0     C11739   3.033   1.383   2.240  0.2056  0.4386  0.7593
   86MOL0     C11740   2.933   1.272   2.233 -0.4143  0.0198  0.0969
   86MOL0     C11741   2.877   1.240   2.369 -0.2212  0.2353 -0.2744
   86MOL0     C11742   2.768   1.135   2.371 -0.1376 -0.0914 -1.3736
   86MOL0     C11743   2.819   0.993   2.330 -0.3823  0.3891 -0.7126
   86MOL0     C11744   2.702   0.886   2.329 -0.8580 -0.7352  0.1529
   86MOL0     C11745   2.749   0.745   2.352  0.6634  0.6374  0.6428
   86MOL0     C11746   2.873   0.698   2.265 -0.8931 -0.4475 -0.3704
   86MOL0     N11747   2.870   0.714   2.115  0.0903  0.3007  0.2682
   86MOL0     C11748   2.986   0.727   2.040  0.3256 -0.1552  0.4882
   86MOL0     C11749   2.939   0.730   1.908  0.7641  0.1546 -0.4207
   86MOL0     C11750   3.026   0.756   1.790  0.3532  0.1081 -0.0221
   86MOL0     C11751   2.982   0.660   1.674 -0.3187 -0.6892  0.2365
   86MOL0     C11752   3.035   0.513   1.689 -0.5158 -0.5455  0.2486
   86MOL0     C11753   3.068   0.449   1.553  0.0427 -0.0315 -0.2557
   86MOL0     O11754   2.941   0.424   1.494 -0.2878  0.4348 -0.1123
   86MOL0     C11755   2.883   0.305   1.519 -0.2903 -0.2473 -0.2775
   86MOL0     C11756   2.772   0.303   1.606 -1.0533 -0.2233  0.3284
   86MOL0     C11757   2.709   0.179   1.639 -0.4839 -0.7234 -0.3532
   86MOL0     C11758   2.598   0.186   1.739 -0.1334  0.1490 -0.1726
   86MOL0     C11759   2.763   0.058   1.585  1.2657  0.5003  0.3848
   86MOL0     C11760   2.709  -0.084   1.623  0.7101 -0.5801  1.1435
   86MOL0     O11761   2.792  -0.192   1.601  0.1387  1.1622  1.3264
   86MOL0     C11762   2.768  -0.328   1.632 -0.0704  0.4161 -0.1008
   86MOL0     C11763   2.657  -0.380   1.707 -0.0930  0.1356 -0.4818
   86MOL0     C11764   2.655  -0.514   1.743  0.2003 -0.9785  1.0051
   86MOL0     C11765   2.753  -0.597   1.692  0.9239 -0.3491  0.3018
   86MOL0     O11766   2.761  -0.734   1.713  0.1608 -0.4501 -0.1033
   86MOL0     C11767   2.723  -0.819   1.597  0.5597 -0.2295 -0.1599
   86MOL0     C11768   2.759  -0.965   1.629 -0.2630 -0.2709  0.7058
   86MOL0     C11769   2.917  -0.975   1.621  0.3573  1.0489  0.8251
   86MOL0     C11770   2.961  -1.131   1.624 -0.4086 -0.0404  0.3048
   86MOL0     C11771   3.074  -1.154   1.528  0.3508 -0.4381 -0.5939
   86MOL0     C11772   3.110  -1.297   1.500 -0.7492  0.7940 -0.1534
   86MOL0     C11773   3.120  -1.392   1.625  0.0819  0.6100 -0.1361
   86MOL0     C11774   3.079  -1.537   1.593  0.9760 -0.0681 -0.3296
   86MOL0    Cl11775   2.919  -1.588   1.645  0.0396 -0.3891 -0.2689
   86MOL0     C11776   2.862  -0.548   1.619  0.0699  0.4791 -0.5999
   86MOL0     C11777   2.870  -0.416   1.592  0.0990 -0.5312  0.1014
   86MOL0     O11778   2.597  -0.091   1.665 -0.3795 -0.4695  0.2315
   86MOL0     C11779   2.870   0.061   1.495  0.0574 -0.0459 -1.4884
   86MOL0     C11780   2.925   0.186   1.460 -0.4642 -1.0179  0.0364
   86MOL0     N11781   2.801   0.716   1.909 -0.1763 -0.0252  0.1773
   86MOL0     N11782   2.761   0.712   2.033  0.5618 -0.5089  0.3547
   86MOL0     C11783   2.917   1.700   2.351 -0.2939  0.0005 -0.5924
   86MOL0     C11784   2.965   1.817   2.410  0.5741 -0.0669  0.0435
   86MOL0     C11785   3.210   2.202   2.406  0.7359 -0.1863  0.7913
   86MOL0     C11786   3.282   2.215   2.530  0.0491  0.9248 -0.4718
   86MOL0     C11787   3.350   2.336   2.554  0.5215 -0.4847  0.7037
   86MOL0     C11788   3.340   2.443   2.463  0.2032  1.1185 -0.4475
   86MOL0     O11789   3.408   2.552   2.498 -0.5992 -0.7403 -0.2349
   86MOL0     C11790   3.406   2.661   2.405  1.0968 -0.4409  0.3140
   86MOL0     C11791   3.460   2.798   2.462  0.5497 -0.3077  0.1891
   86MOL0     C11792   3.349   2.885   2.531 -0.6020 -0.3868 -0.4211
   86MOL0     C11793   3.373   3.034   2.504  0.0112  1.1362  0.6385
   86MOL0     C11794   3.500   3.062   2.575  1.4511 -1.1271 -0.0001
   86MOL0     C11795   3.605   3.078   2.625 -0.1990 -0.3599  0.0639
   86MOL0     C11796   3.272   2.427   2.344 -0.0962  0.3839 -0.1328
   86MOL0     C11797   3.208   2.313   2.313 -0.3536  0.1149  0.2810
   86MOL0     C11798   3.113   2.313   2.186 -0.0897  0.2398  0.9510
   86MOL0     H11799   3.295   1.786   2.376 -1.0442  5.5302  0.4407
   86MOL0     H11800   3.217   1.572   2.257  0.5091 -0.5953  0.8091
   86MOL0     H11801   3.097   1.360   2.326  4.1838 -0.1639 -2.0679
   86MOL0     H11802   3.101   1.376   2.155  0.3154 -1.6555  0.9545
   86MOL0     H11803   2.850   1.299   2.167 -2.1810 -1.8844  1.4145
   86MOL0     H11804   2.983   1.183   2.193 -0.8727 -0.7437  1.1785
   86MOL0     H11805   2.954   1.197   2.434 -1.6731 -1.3874  0.4588
   86MOL0     H11806   2.830   1.326   2.418  0.6703 -0.0651  1.1907
   86MOL0     H11807   2.742   1.127   2.477  0.7685 -2.2431 -1.2548
   86MOL0     H11808   2.678   1.162   2.315 -2.8972 -2.9772  1.2802
   86MOL0     H11809   2.898   0.960   2.397 -1.4270 -2.1293 -0.6107
   86MOL0     H11810   2.865   0.989   2.231  2.2301 -0.0209  0.4418
   86MOL0     H11811   2.638   0.908   2.415 -1.2381 -3.7588  0.7474
   86MOL0     H11812   2.647   0.899   2.235 -0.9071  3.3571  0.5483
   86MOL0     H11813   2.659   0.689   2.326  0.6273  1.4301 -1.1282
   86MOL0     H11814   2.780   0.736   2.456  1.9098  3.3676  0.6064
   86MOL0     H11815   2.964   0.742   2.308 -0.4943 -2.0482  0.4980
   86MOL0     H11816   2.872   0.593   2.295 -2.3955 -0.0106  1.2663
   86MOL0     H11817   3.091   0.741   2.065  0.5372 -3.0887  1.6521
   86MOL0     H11818   3.129   0.730   1.818  0.7564  0.1468 -1.4275
   86MOL0     H11819   3.029   0.860   1.757  0.2940  0.3911  0.8435
   86MOL0     H11820   2.873   0.649   1.669 -0.6875  2.4501 -1.0069
   86MOL0     H11821   3.006   0.711   1.581 -3.2768 -0.3915 -0.4836
   86MOL0     H11822   3.132   0.509   1.739  0.0569 -0.8887 -0.8486
   86MOL0     H11823   2.960   0.451   1.738 -0.2627  0.6286  2.2008
   86MOL0     H11824   3.128   0.513   1.488 -1.0849  1.2904 -0.0652
   86MOL0     H11825   3.124   0.356   1.559 -1.1964 -0.7254  1.4990
   86MOL0     H11826   2.734   0.401   1.634 -2.7663 -1.4494  2.6703
   86MOL0     H11827   2.588   0.287   1.778  1.6449  0.3320 -0.0885
   86MOL0     H11828   2.604   0.122   1.827 -3.6480 -1.9232 -1.2351
   86MOL0     H11829   2.501   0.159   1.697 -0.9282  3.0265 -0.3798
   86MOL0     H11830   2.559  -0.341   1.730 -0.5575 -1.0338 -0.4422
   86MOL0     H11831   2.577  -0.560   1.802 -2.5365  3.3468  1.1487
   86MOL0     H11832   2.618  -0.799   1.577  0.7353 -1.1813 -2.3880
   86MOL0     H11833   2.773  -0.807   1.501  0.6180 -4.2270 -0.8199
   86MOL0     H11834   2.733  -1.007   1.727 -0.1723 -1.4549  0.2409
   86MOL0     H11835   2.712  -1.031   1.556  0.2482  0.3138 -0.1692
   86MOL0     H11836   2.971  -0.910   1.690  0.9054  0.8225  0.6148
   86MOL0     H11837   2.951  -0.952   1.519  1.9397  0.3572  1.1808
   86MOL0     H11838   2.878  -1.193   1.588  1.0123 -1.1652 -1.2173
   86MOL0     H11839   2.988  -1.152   1.728  0.3402  1.6393  0.4881
   86MOL0     H11840   3.061  -1.103   1.432  1.8246 -1.5385 -1.4030
   86MOL0     H11841   3.161  -1.107   1.575  0.2318  0.5601 -1.3261
   86MOL0     H11842   3.207  -1.288   1.451 -2.3580  0.9573 -3.6433
   86MOL0     H11843   3.045  -1.345   1.426  3.2694 -0.1781 -3.4187
   86MOL0     H11844   3.047  -1.351   1.695  1.8160  3.1813  0.3314
   86MOL0     H11845   3.220  -1.392   1.671  1.9997 -1.6593 -3.8203
   86MOL0     H11846   3.150  -1.607   1.637  0.7280  0.4673  0.9727
   86MOL0     H11847   3.080  -1.551   1.485  1.8781 -0.6329 -0.2609
   86MOL0     H11848   2.941  -0.612   1.581  0.2809  0.7363 -0.5962
   86MOL0     H11849   2.952  -0.375   1.534 -0.6660  2.0508  0.6817
   86MOL0     H11850   2.907  -0.032   1.452 -3.1047 -1.6016 -1.1063
   86MOL0     H11851   3.010   0.180   1.393 -0.3002  1.0944 -0.0154
   86MOL0     H11852   2.809   1.687   2.350 -0.4682  1.0033  0.8960
   86MOL0     H11853   2.892   1.892   2.438 -1.0208 -1.7410  0.5587
   86MOL0     H11854   3.287   2.121   2.584 -1.2321  0.8163 -0.5020
   86MOL0     H11855   3.421   2.331   2.636  2.1418  1.5125 -0.4727
   86MOL0     H11856   3.475   2.628   2.327 -0.8378  0.3398 -1.8223
   86MOL0     H11857   3.309   2.679   2.358  1.5832 -0.8392 -0.8915
   86MOL0     H11858   3.511   2.845   2.378  0.0918 -0.9820 -0.4815
   86MOL0     H11859   3.539   2.780   2.536  0.2870  1.5879  1.0056
   86MOL0     H11860   3.249   2.863   2.490  0.5671 -3.3520 -2.0628
   86MOL0     H11861   3.352   2.860   2.637  2.1828 -0.6926 -0.5029
   86MOL0     H11862   3.298   3.090   2.560 -1.9183 -1.4070  0.7677
   86MOL0     H11863   3.370   3.058   2.397 -4.7358 -1.4830 -0.0688
   86MOL0     H11864   3.707   3.088   2.655  0.5102  0.6712 -2.4118
   86MOL0     H11865   3.271   2.507   2.272 -1.0564  2.0365  1.6012
   86MOL0     H11866   3.122   2.405   2.127  0.6654  1.2329  2.5627
   86MOL0     H11867   3.152   2.226   2.132 -2.0086 -0.7128  0.9890
   86MOL0     H11868   3.006   2.299   2.203 -1.0891  3.2023 -1.8684
   87MOL0     O11869   6.396   3.663   7.704 -0.1079  0.1349 -0.4441
   87MOL0     C11870   6.489   3.659   7.787  0.7093 -0.7870  0.1917
   87MOL0     O11871   6.476   3.686   7.929 -0.6178 -0.3738  0.4827
   87MOL0     C11872   6.354   3.745   7.972 -0.9081 -0.7222  0.7488
   87MOL0     C11873   6.265   3.665   8.047  0.0273 -0.6531  1.2172
   87MOL0     C11874   6.149   3.729   8.095 -0.2902  0.3801 -0.1985
   87MOL0     C11875   6.111   3.859   8.059 -1.5479 -0.4917  0.1517
   87MOL0     O11876   5.992   3.918   8.090 -0.4621  0.0530  0.1445
   87MOL0     C11877   5.879   3.845   8.136  0.6807 -0.6742  0.1204
   87MOL0     C11878   5.817   3.747   8.043  1.1512 -0.1858 -0.0735
   87MOL0     C11879   5.807   3.819   7.906  0.3934 -0.5712  1.1966
   87MOL0     C11880   5.732   3.727   7.803 -0.7882  0.1290 -0.2812
   87MOL0     C11881   5.738   3.785   7.667 -0.7116  0.7547 -0.1066
   87MOL0     C11882   5.877   3.826   7.613 -0.3857 -0.6126 -0.3120
   87MOL0     C11883   5.880   3.869   7.462 -0.8029 -0.0906  0.2894
   87MOL0     C11884   5.805   4.000   7.439  1.5752 -0.4766 -0.6823
   87MOL0     N11885   5.883   4.120   7.488 -0.3105 -1.6323  0.3081
   87MOL0     C11886   6.010   4.161   7.460  0.2663  0.0586 -0.6005
   87MOL0     C11887   6.035   4.255   7.550 -0.4746  0.2453  0.2013
   87MOL0     C11888   6.176   4.316   7.577 -0.2409  0.2508  0.6420
   87MOL0     C11889   6.181   4.426   7.671 -0.2292 -0.4106 -0.8801
   87MOL0     C11890   6.198   4.374   7.813  0.4634 -0.0074  0.2318
   87MOL0     C11891   6.212   4.491   7.914  0.3821  0.5839 -0.2788
   87MOL0     O11892   6.314   4.585   7.883 -0.3103  0.3938 -0.1733
   87MOL0     C11893   6.360   4.686   7.960 -0.5293  0.0999  0.2817
   87MOL0     C11894   6.305   4.712   8.084  0.0910 -0.8432  0.2231
   87MOL0     C11895   6.348   4.820   8.162  0.7393 -1.2881 -1.0140
   87MOL0     C11896   6.272   4.856   8.290 -0.7158 -0.1196  0.1077
   87MOL0     C11897   6.452   4.904   8.107  0.2783 -0.7171  0.1129
   87MOL0     C11898   6.507   5.019   8.187 -0.6634 -0.2517  0.9678
   87MOL0     O11899   6.453   5.050   8.310 -0.0831  0.4384 -0.1837
   87MOL0     C11900   6.478   5.174   8.371 -0.0472  0.7608 -0.0842
   87MOL0     C11901   6.379   5.216   8.457 -0.3599 -0.8621  0.2075
   87MOL0     C11902   6.390   5.331   8.539 -0.4229 -0.2964 -0.0438
   87MOL0     C11903   6.511   5.392   8.548 -0.3109 -1.2390 -0.7860
   87MOL0     O11904   6.525   5.499   8.641 -0.3077 -0.2392 -0.0748
   87MOL0     C11905   6.599   5.612   8.586  0.3320 -0.7566  0.0388
   87MOL0     C11906   6.569   5.734   8.667 -0.1383 -0.1108 -0.4067
   87MOL0     C11907   6.603   5.857   8.578 -0.1169 -0.5104 -0.8200
   87MOL0     C11908   6.571   5.980   8.647  0.3448 -1.4670 -0.2409
   87MOL0     C11909   6.592   6.110   8.566  0.1902 -0.7615 -0.0303
   87MOL0     C11910   6.724   6.180   8.596 -0.3440 -0.2436 -0.6579
   87MOL0     C11911   6.724   6.230   8.747 -1.1461  0.9295 -0.4608
   87MOL0     C11912   6.825   6.338   8.774  1.0921  0.2997  0.2350
   87MOL0    Cl11913   6.844   6.371   8.945  0.4819  0.1715 -0.2233
   87MOL0     C11914   6.618   5.352   8.472  0.6071 -0.5303  0.5259
   87MOL0     C11915   6.599   5.249   8.372  0.7366  0.4153 -0.0332
   87MOL0     O11916   6.606   5.078   8.134 -0.0453  0.0698  0.3705
   87MOL0     C11917   6.503   4.877   7.973 -0.3333  0.1549  0.3738
   87MOL0     C11918   6.454   4.770   7.903 -1.1645 -0.9088 -0.3019
   87MOL0     N11919   5.921   4.270   7.631  0.2459  0.7303  0.9179
   87MOL0     N11920   5.826   4.207   7.576 -0.0622 -0.5008  0.3269
   87MOL0     C11921   6.211   3.935   7.980  0.0979 -0.6626 -0.2416
   87MOL0     C11922   6.329   3.877   7.935 -0.2538  0.4544 -0.3855
   87MOL0     C11923   6.628   3.614   7.745  0.6359 -0.4013  0.2814
   87MOL0     C11924   6.659   3.487   7.693 -0.2215  0.4063  0.9715
   87MOL0     C11925   6.790   3.465   7.645  0.3708 -0.4333  0.1822
   87MOL0     C11926   6.894   3.556   7.660 -0.2755 -1.1725  0.2953
   87MOL0     O11927   7.019   3.529   7.612  0.0347  0.5994  0.2348
   87MOL0     C11928   7.118   3.634   7.622 -0.7094  0.4017  0.8479
   87MOL0     C11929   7.247   3.550   7.571  0.5643  0.4057  0.0608
   87MOL0     C11930   7.354   3.655   7.512 -0.0805 -0.2299 -1.2209
   87MOL0     C11931   7.318   3.683   7.362 -0.2719  0.1872 -0.2844
   87MOL0     C11932   7.365   3.819   7.339 -0.3846  0.7414  0.1577
   87MOL0     C11933   7.408   3.933   7.323 -0.1547 -0.0621 -0.5660
   87MOL0     C11934   6.866   3.683   7.721 -0.2650 -0.0186  0.3060
   87MOL0     C11935   6.740   3.711   7.762  0.1695  0.1490 -0.0436
   87MOL0     C11936   6.712   3.848   7.824  0.1405 -0.6374  1.2618
   87MOL0     H11937   6.281   3.559   8.062  0.8795 -0.7398 -0.0717
   87MOL0     H11938   6.084   3.674   8.162  0.0684  1.6374  1.2391
   87MOL0     H11939   5.815   3.929   8.167  0.0436 -0.1342 -2.4235
   87MOL0     H11940   5.911   3.790   8.226 -1.6257 -2.4048 -0.0406
   87MOL0     H11941   5.868   3.655   8.013  0.5420  0.3467 -3.1803
   87MOL0     H11942   5.715   3.746   8.082  1.1997  1.5721  0.1909
   87MOL0     H11943   5.760   3.918   7.900  1.0360 -0.3241 -3.1671
   87MOL0     H11944   5.910   3.835   7.875 -0.0939  2.2192  0.7454
   87MOL0     H11945   5.785   3.632   7.811 -0.5192  0.2827 -0.2423
   87MOL0     H11946   5.629   3.714   7.838  0.3759 -0.4834  3.2564
   87MOL0     H11947   5.671   3.871   7.673 -0.5188  0.8014  2.3911
   87MOL0     H11948   5.705   3.703   7.602 -1.8312  0.9456  0.2006
   87MOL0     H11949   5.937   3.903   7.664 -0.0686 -0.0390 -1.4999
   87MOL0     H11950   5.940   3.739   7.632  1.2325  0.3382 -1.1567
   87MOL0     H11951   5.841   3.787   7.401 -0.0614 -3.4240  3.8539
   87MOL0     H11952   5.977   3.895   7.420 -2.5748  1.5459 -3.2396
   87MOL0     H11953   5.776   4.002   7.333  2.2336 -2.5941 -0.9591
   87MOL0     H11954   5.709   3.994   7.492  0.3980  2.7646 -2.1451
   87MOL0     H11955   6.080   4.118   7.389  1.7381  1.3763 -0.0327
   87MOL0     H11956   6.200   4.351   7.476 -1.5129 -1.2499 -0.2234
   87MOL0     H11957   6.241   4.235   7.611  0.2538 -0.2582 -1.3476
   87MOL0     H11958   6.272   4.479   7.644  1.2710 -2.6435 -0.4740
   87MOL0     H11959   6.099   4.496   7.649  0.7641  0.7036 -1.1225
   87MOL0     H11960   6.116   4.305   7.835 -0.9653  2.0853  1.8787
   87MOL0     H11961   6.293   4.319   7.815  0.1028 -0.7010 -0.9344
   87MOL0     H11962   6.115   4.541   7.913 -0.9780 -1.8923 -1.3595
   87MOL0     H11963   6.237   4.452   8.013  0.7206  2.5862  0.4624
   87MOL0     H11964   6.216   4.663   8.123  0.8983 -0.1069  3.2137
   87MOL0     H11965   6.342   4.857   8.375  1.0804  1.5009 -1.3045
   87MOL0     H11966   6.187   4.787   8.293 -0.8324 -0.1107 -1.9804
   87MOL0     H11967   6.219   4.950   8.275  0.8254  1.0005  1.3086
   87MOL0     H11968   6.285   5.162   8.460 -0.6668 -0.3227  0.5700
   87MOL0     H11969   6.304   5.363   8.596 -2.4418 -1.0151 -2.4969
   87MOL0     H11970   6.704   5.588   8.568  1.0956  2.6065 -0.6585
   87MOL0     H11971   6.552   5.631   8.489  1.4617 -0.7453 -0.5226
   87MOL0     H11972   6.464   5.732   8.695  0.3825 -0.1684  1.6576
   87MOL0     H11973   6.634   5.736   8.755 -1.3106 -5.8768  1.0377
   87MOL0     H11974   6.548   5.856   8.483 -1.9209 -1.7905  0.1660
   87MOL0     H11975   6.711   5.869   8.564  0.2970 -1.0463  1.5182
   87MOL0     H11976   6.635   5.985   8.735  1.4109  5.1389 -0.8400
   87MOL0     H11977   6.465   5.974   8.672 -0.0290  2.3493 -0.3069
   87MOL0     H11978   6.589   6.099   8.457  1.5645 -1.3112 -0.0290
   87MOL0     H11979   6.519   6.181   8.605 -0.6149 -1.7337  0.2849
   87MOL0     H11980   6.746   6.264   8.529  1.2135 -0.0087  0.1051
   87MOL0     H11981   6.813   6.119   8.584  0.8209  1.7152 -2.9358
   87MOL0     H11982   6.743   6.150   8.819 -1.6267  2.1659  1.1217
   87MOL0     H11983   6.634   6.285   8.779 -0.9722  1.2872 -0.5789
   87MOL0     H11984   6.801   6.425   8.712 -0.3637 -0.4165 -0.2484
   87MOL0     H11985   6.918   6.294   8.736  0.8576  0.4725 -0.5569
   87MOL0     H11986   6.717   5.397   8.483 -0.7718  2.9428  0.0224
   87MOL0     H11987   6.682   5.215   8.310 -0.3237  0.4105 -1.5014
   87MOL0     H11988   6.577   4.940   7.925 -0.1895 -1.0147 -1.0141
   87MOL0     H11989   6.492   4.743   7.806 -1.0227 -0.1912 -0.4493
   87MOL0     H11990   6.173   4.025   7.933 -3.2251 -0.7410  1.9213
   87MOL0     H11991   6.402   3.928   7.873  0.6321  1.3570  1.2995
   87MOL0     H11992   6.585   3.407   7.692 -1.2657  1.3371  1.0804
   87MOL0     H11993   6.831   3.370   7.612 -1.2185 -1.7360  1.7776
   87MOL0     H11994   7.099   3.716   7.552 -0.3446  2.6238  3.2438
   87MOL0     H11995   7.132   3.678   7.721 -2.1279 -2.1896  2.3160
   87MOL0     H11996   7.219   3.479   7.492  1.3651  1.9166 -1.6700
   87MOL0     H11997   7.282   3.487   7.653 -0.7272 -1.0079 -0.4260
   87MOL0     H11998   7.360   3.742   7.577  2.3395 -0.2649 -1.2966
   87MOL0     H11999   7.450   3.603   7.511  0.5260  0.8710 -2.4033
   87MOL0     H12000   7.213   3.659   7.341  0.0173 -2.0829  0.6031
   87MOL0     H12001   7.368   3.610   7.298 -1.2669 -0.8877  0.1291
   87MOL0     H12002   7.430   4.034   7.296  0.8496 -0.4569 -1.3344
   87MOL0     H12003   6.939   3.764   7.730 -1.1066  0.7222  0.6474
   87MOL0     H12004   6.606   3.868   7.846 -0.7305 -0.4863 -2.4808
   87MOL0     H12005   6.773   3.858   7.915  2.0656 -2.2857  0.2193
   87MOL0     H12006   6.746   3.924   7.754 -1.3400 -1.8572 -0.8876
   88MOL0     O12007   7.934   9.777   9.546 -0.4442  0.6897  0.4147
   88MOL0     C12008   7.850   9.803   9.468 -0.5957 -1.0115  0.6078
   88MOL0     O12009   7.724   9.758   9.481 -0.3290 -1.1411  0.2392
   88MOL0     C12010   7.675   9.682   9.578 -0.2653 -0.8138  0.1097
   88MOL0     C12011   7.727   9.655   9.704  0.2112 -0.6695  0.6582
   88MOL0     C12012   7.680   9.556   9.785  0.2327 -1.1905  0.6916
   88MOL0     C12013   7.586   9.466   9.743 -0.0620  0.3462 -0.7617
   88MOL0     O12014   7.559   9.355   9.830 -0.3767 -0.1218  0.1530
   88MOL0     C12015   7.423   9.298   9.820  0.4480 -0.2966  0.4803
   88MOL0     C12016   7.419   9.186   9.930 -0.3402  0.3099  0.4383
   88MOL0     C12017   7.481   9.059   9.887  0.7948 -0.0357 -0.4170
   88MOL0     C12018   7.436   8.949   9.977 -0.0764  0.9776  0.0617
   88MOL0     C12019   7.516   8.815   9.945  1.0556 -0.5477 -0.6179
   88MOL0     C12020   7.516   8.719  10.071  0.2202  0.4241  0.6450
   88MOL0     C12021   7.390   8.632  10.086 -0.1179  0.5941  1.0784
   88MOL0     C12022   7.304   8.658  10.213 -0.6562 -0.1851 -0.4113
   88MOL0     N12023   7.198   8.555  10.234 -0.0957  0.2954 -0.0955
   88MOL0     C12024   7.090   8.544  10.150 -0.8972 -1.0948 -1.2014
   88MOL0     C12025   7.033   8.427  10.174 -1.0308  0.3091 -1.0346
   88MOL0     C12026   6.911   8.364  10.106  0.4380 -0.0126  0.0385
   88MOL0     C12027   6.832   8.263  10.191  0.3726 -0.8285  1.0316
   88MOL0     C12028   6.686   8.242  10.156 -0.3820  0.0259  0.3959
   88MOL0     C12029   6.592   8.357  10.193  0.3518 -0.4284  0.0498
   88MOL0     O12030   6.579   8.343  10.336  0.2062 -0.3153 -0.3511
   88MOL0     C12031   6.520   8.445  10.408 -1.3425  0.1214 -0.6666
   88MOL0     C12032   6.561   8.448  10.541  0.4280  0.4437  0.0897
   88MOL0     C12033   6.512   8.542  10.631 -0.3957  0.0052  0.6966
   88MOL0     C12034   6.543   8.527  10.784  0.5461  0.0122  0.2115
   88MOL0     C12035   6.416   8.637  10.581 -0.6676 -0.1668  0.1654
   88MOL0     C12036   6.358   8.747  10.660 -0.0486  0.0981 -0.3621
   88MOL0     O12037   6.264   8.828  10.601 -0.1710 -0.0365 -0.2677
   88MOL0     C12038   6.183   8.913  10.671 -0.2966 -0.6141  1.0240
   88MOL0     C12039   6.158   9.038  10.611 -0.5206  0.5425 -0.3779
   88MOL0     C12040   6.081   9.143  10.675  0.8122  0.2620  0.2958
   88MOL0     C12041   6.028   9.100  10.804  0.5785 -0.0966 -0.3267
   88MOL0     O12042   5.929   9.169  10.881 -0.3159  0.2968 -0.2720
   88MOL0     C12043   5.875   9.283  10.835 -0.0052 -0.0424  0.0006
   88MOL0     C12044   5.961   9.402  10.848  0.1023  0.3111 -0.1822
   88MOL0     C12045   5.935   9.455  10.985  1.2956 -0.1892  0.5847
   88MOL0     C12046   6.036   9.558  11.024  0.0731  1.0209 -0.6502
   88MOL0     C12047   5.997   9.649  11.146 -0.2466 -0.2682  0.1274
   88MOL0     C12048   5.940   9.583  11.275  0.0427  0.0203 -0.6181
   88MOL0     C12049   5.935   9.679  11.392  0.2832  1.4292  0.3922
   88MOL0     C12050   5.939   9.600  11.525 -0.1939  0.0431 -0.7320
   88MOL0    Cl12051   5.789   9.496  11.553  0.2221 -0.6830 -0.1485
   88MOL0     C12052   6.065   8.982  10.864 -0.6662 -0.3799  0.2270
   88MOL0     C12053   6.142   8.885  10.803 -0.0078 -1.0206 -0.1298
   88MOL0     O12054   6.399   8.764  10.773 -0.4757 -0.6076 -0.5006
   88MOL0     C12055   6.375   8.622  10.440  0.2849  0.1513 -0.0696
   88MOL0     C12056   6.433   8.530  10.354 -0.9898 -0.0032  0.3859
   88MOL0     N12057   7.116   8.364  10.265  0.7131 -0.3344 -0.1587
   88MOL0     N12058   7.209   8.443  10.304 -0.3947 -0.0884 -0.3130
   88MOL0     C12059   7.537   9.479   9.610 -0.5353 -0.8500 -0.3537
   88MOL0     C12060   7.580   9.585   9.531  0.5746 -0.8369 -1.2577
   88MOL0     C12061   7.892   9.893   9.361 -0.4066  0.4607 -0.7612
   88MOL0     C12062   8.015   9.955   9.378  1.0065 -0.1691 -0.5417
   88MOL0     C12063   8.064  10.042   9.284 -0.8772  1.2381  0.5099
   88MOL0     C12064   7.988  10.066   9.171  0.0883  0.2865  0.9247
   88MOL0     O12065   8.014  10.161   9.071  0.0741  0.1943  0.0879
   88MOL0     C12066   8.139  10.224   9.075  0.2457  0.3977  0.5707
   88MOL0     C12067   8.253  10.128   9.012  0.1531  0.4642  1.2459
   88MOL0     C12068   8.379  10.120   9.091 -0.8634 -0.3269  0.7036
   88MOL0     C12069   8.446  10.259   9.098 -0.0092 -0.7451  0.2017
   88MOL0     C12070   8.523  10.292   8.983  0.6617  0.2880  0.3468
   88MOL0     C12071   8.590  10.316   8.888 -0.8876 -0.4072 -0.1529
   88MOL0     C12072   7.857  10.018   9.158 -0.8576 -0.1632 -0.3314
   88MOL0     C12073   7.809   9.924   9.255  0.2704  0.2225  0.2057
   88MOL0     C12074   7.670   9.864   9.232 -0.3883  0.2761  0.1134
   88MOL0     H12075   7.809   9.721   9.732  1.1764 -0.9989 -1.2064
   88MOL0     H12076   7.748   9.527   9.865  1.3078  0.7097  0.5133
   88MOL0     H12077   7.405   9.262   9.718 -0.8581 -2.7833  1.4990
   88MOL0     H12078   7.341   9.365   9.849 -0.7350 -2.4747  2.5551
   88MOL0     H12079   7.462   9.230  10.021 -1.0910 -2.2944  2.1430
   88MOL0     H12080   7.314   9.169   9.952 -0.7267  1.3255 -0.5257
   88MOL0     H12081   7.447   9.042   9.784  1.4906  2.6086 -1.1682
   88MOL0     H12082   7.590   9.069   9.881  0.9069  0.4007  1.7030
   88MOL0     H12083   7.462   8.989  10.075  2.5728 -0.4824  0.0414
   88MOL0     H12084   7.328   8.932   9.967 -0.0635  0.6741  0.4236
   88MOL0     H12085   7.619   8.849   9.934  1.0009 -0.0725  0.2008
   88MOL0     H12086   7.478   8.762   9.857 -2.8813 -0.4373  0.8032
   88MOL0     H12087   7.599   8.648  10.069 -0.1627 -0.2768  3.7890
   88MOL0     H12088   7.538   8.784  10.157  1.5126  1.4838 -0.4332
   88MOL0     H12089   7.431   8.531  10.087  2.6024  1.6063 -0.0679
   88MOL0     H12090   7.324   8.654  10.001 -1.5715  0.6586  2.1849
   88MOL0     H12091   7.378   8.652  10.293 -0.6241 -2.3116 -0.5445
   88MOL0     H12092   7.264   8.760  10.210 -2.1898 -0.6842  1.3711
   88MOL0     H12093   7.059   8.624  10.083 -3.5492  1.6613  2.8513
   88MOL0     H12094   6.949   8.297  10.029  2.0537 -0.6281  1.2906
   88MOL0     H12095   6.843   8.446  10.082 -0.4993  0.0543  2.5702
   88MOL0     H12096   6.883   8.167  10.182 -2.0415 -2.2523  1.8156
   88MOL0     H12097   6.840   8.302  10.293 -0.6432  2.4324 -0.0016
   88MOL0     H12098   6.679   8.217  10.050  0.6613 -0.4230  0.4142
   88MOL0     H12099   6.657   8.148  10.204  0.4397 -2.0874 -2.8920
   88MOL0     H12100   6.640   8.454  10.172 -0.4967  0.2229  1.0197
   88MOL0     H12101   6.493   8.350  10.147 -0.3427 -0.0708  1.4502
   88MOL0     H12102   6.628   8.369  10.572 -0.1529 -0.3591 -0.6603
   88MOL0     H12103   6.451   8.510  10.842 -1.0639  1.4056 -1.8042
   88MOL0     H12104   6.599   8.615  10.819 -0.6809  0.0224  2.3327
   88MOL0     H12105   6.600   8.435  10.797  0.5911 -0.8934 -4.5720
   88MOL0     H12106   6.198   9.053  10.511 -0.4634 -0.5343 -0.5206
   88MOL0     H12107   6.060   9.245  10.643  1.9068  0.3909 -0.0366
   88MOL0     H12108   5.845   9.278  10.730 -0.8630  0.5859  0.1999
   88MOL0     H12109   5.782   9.305  10.888 -0.3888 -1.8805  0.1372
   88MOL0     H12110   6.066   9.376  10.832 -0.1133 -1.0257  0.4832
   88MOL0     H12111   5.924   9.469  10.769  1.3929  0.1180 -0.9653
   88MOL0     H12112   5.939   9.373  11.057  1.5752  0.1376  0.9394
   88MOL0     H12113   5.834   9.495  10.978  1.5064  0.4047  0.8974
   88MOL0     H12114   6.048   9.629  10.942 -0.1437  2.9094  0.8725
   88MOL0     H12115   6.123   9.499  11.055 -0.6609 -0.7932 -1.8542
   88MOL0     H12116   6.080   9.707  11.186 -1.2076  0.7734  0.6841
   88MOL0     H12117   5.923   9.722  11.110 -0.0722 -0.1677 -0.0242
   88MOL0     H12118   5.977   9.482  11.292  0.5070 -0.1490 -2.4049
   88MOL0     H12119   5.834   9.563  11.258 -0.1333 -0.6529  1.1182
   88MOL0     H12120   5.838   9.729  11.383 -0.3941  0.3662  1.5024
   88MOL0     H12121   6.011   9.757  11.394 -0.4556  2.1488  1.2695
   88MOL0     H12122   5.951   9.674  11.604 -1.6730 -1.4131  0.9656
   88MOL0     H12123   6.019   9.525  11.531 -1.1623 -1.0568 -1.0070
   88MOL0     H12124   6.030   8.970  10.966 -1.2736  0.1421  0.0903
   88MOL0     H12125   6.169   8.790  10.849 -4.0622 -2.2478  0.1445
   88MOL0     H12126   6.300   8.694  10.410  1.0676  1.5877  1.3212
   88MOL0     H12127   6.407   8.528  10.249  0.0414  0.1688  0.1190
   88MOL0     H12128   7.468   9.405   9.569 -2.0520 -0.2942  1.0842
   88MOL0     H12129   7.529   9.598   9.436  0.1680  0.5033 -0.8736
   88MOL0     H12130   8.074   9.963   9.469  2.9846  2.8468 -1.9044
   88MOL0     H12131   8.160  10.083   9.311 -0.3990 -0.8912  2.3876
   88MOL0     H12132   8.121  10.315   9.018 -1.0666 -1.7766 -2.7596
   88MOL0     H12133   8.169  10.256   9.176  1.2387  0.4121  0.2856
   88MOL0     H12134   8.275  10.154   8.908 -1.9076  1.0619  0.9135
   88MOL0     H12135   8.221  10.024   9.000 -0.4859  0.7505  0.3963
   88MOL0     H12136   8.362  10.080   9.191 -1.4705  1.2165  1.2439
   88MOL0     H12137   8.455  10.058   9.042 -2.7724 -0.5708 -2.2314
   88MOL0     H12138   8.512  10.261   9.185  0.6863  0.8449 -0.3137
   88MOL0     H12139   8.370  10.337   9.109 -0.8463 -1.1262 -2.1614
   88MOL0     H12140   8.643  10.340   8.798 -4.3981  1.0637 -2.0651
   88MOL0     H12141   7.802  10.046   9.069 -1.0206  1.0368  0.1225
   88MOL0     H12142   7.599   9.879   9.314 -2.8310  1.7281 -2.0944
   88MOL0     H12143   7.623   9.915   9.147  0.7112  0.0352 -0.6616
   88MOL0     H12144   7.678   9.759   9.206 -0.3815  0.1672  0.5459
   89MOL0     O12145   1.123   0.891   3.397 -0.1773 -0.0926  0.7316
   89MOL0     C12146   1.082   0.997   3.345 -0.0135 -0.6633 -0.5154
   89MOL0     O12147   1.094   1.120   3.408 -0.5866 -0.4444  0.4583
   89MOL0     C12148   1.180   1.139   3.516 -0.2565  0.2537  0.6590
   89MOL0     C12149   1.133   1.232   3.609  1.4203  0.2247 -0.0429
   89MOL0     C12150   1.206   1.269   3.722  1.5961  0.2324  0.0866
   89MOL0     C12151   1.340   1.223   3.735 -0.0647  0.0733 -0.1487
   89MOL0     O12152   1.426   1.251   3.840 -0.4097 -0.2374 -0.8106
   89MOL0     C12153   1.407   1.382   3.903 -0.2148  0.2400  0.6581
   89MOL0     C12154   1.526   1.413   3.994  0.0861  0.5706  0.1340
   89MOL0     C12155   1.535   1.334   4.135 -0.1448  0.4441  0.5419
   89MOL0     C12156   1.428   1.395   4.219  1.0900  0.3205  0.0847
   89MOL0     C12157   1.422   1.326   4.355 -0.2328  1.1598 -0.2803
   89MOL0     C12158   1.321   1.392   4.460  0.0114  0.1529 -0.4985
   89MOL0     C12159   1.356   1.546   4.501 -0.0679 -0.1975  0.5774
   89MOL0     C12160   1.286   1.588   4.621  0.0909 -0.6514  0.3009
   89MOL0     N12161   1.331   1.725   4.656 -0.5176 -0.0591  0.0661
   89MOL0     C12162   1.305   1.841   4.600  0.1026 -0.5454  0.7064
   89MOL0     C12163   1.369   1.935   4.672  0.4566  0.4626 -0.4828
   89MOL0     C12164   1.359   2.083   4.647  0.2452  0.3332  0.8855
   89MOL0     C12165   1.312   2.137   4.774 -0.7599  0.8027  0.1719
   89MOL0     C12166   1.240   2.273   4.772  0.1754  0.2969  0.1254
   89MOL0     C12167   1.322   2.377   4.715 -0.1999 -1.1030  1.1883
   89MOL0     O12168   1.267   2.505   4.740  0.0849 -0.7860 -0.1556
   89MOL0     C12169   1.323   2.608   4.663  1.3808  1.2056 -0.6082
   89MOL0     C12170   1.398   2.586   4.545  0.4444 -1.0190  0.3179
   89MOL0     C12171   1.450   2.690   4.470 -0.2956 -0.5811 -0.9064
   89MOL0     C12172   1.525   2.658   4.347 -1.1409 -0.4746 -0.1312
   89MOL0     C12173   1.436   2.823   4.519 -0.1034 -0.4088  0.4357
   89MOL0     C12174   1.501   2.939   4.452  0.4217  0.2075  0.4811
   89MOL0     O12175   1.435   3.057   4.481  0.1351  0.9726 -0.5200
   89MOL0     C12176   1.498   3.159   4.420  0.2954  0.0691 -0.8161
   89MOL0     C12177   1.490   3.174   4.281  0.1067 -0.0537 -0.0815
   89MOL0     C12178   1.556   3.284   4.224 -0.8116  0.7429  0.1021
   89MOL0     C12179   1.623   3.375   4.309  0.8590 -0.2389  0.3133
   89MOL0     O12180   1.680   3.494   4.269  1.3761  0.0150 -0.6839
   89MOL0     C12181   1.672   3.531   4.127  1.0631 -0.2792  0.3087
   89MOL0     C12182   1.800   3.550   4.063  0.4281  0.9991 -0.4746
   89MOL0     C12183   1.781   3.630   3.933 -0.3245  0.3752 -0.0151
   89MOL0     C12184   1.918   3.653   3.872 -0.7694 -0.0008  0.6600
   89MOL0     C12185   1.992   3.519   3.833  0.7958 -0.0156 -0.1823
   89MOL0     C12186   1.919   3.411   3.740  0.3786  0.0765  0.5339
   89MOL0     C12187   2.027   3.320   3.664  0.1810 -0.3362 -0.7987
   89MOL0     C12188   2.123   3.244   3.754  0.6208 -0.0076  0.8544
   89MOL0    Cl12189   2.020   3.137   3.859  0.5464 -0.1210 -0.0299
   89MOL0     C12190   1.641   3.340   4.442  1.6411 -0.1737 -0.3201
   89MOL0     C12191   1.582   3.235   4.494 -0.3811  0.3257 -0.9933
   89MOL0     O12192   1.598   2.927   4.377  0.5423  0.2937 -0.0758
   89MOL0     C12193   1.358   2.847   4.635  0.2636  0.4414  1.3003
   89MOL0     C12194   1.300   2.741   4.698  0.3807 -0.5172 -0.0712
   89MOL0     N12195   1.426   1.868   4.783 -0.7740 -0.5461 -0.4718
   89MOL0     N12196   1.399   1.746   4.775 -0.1091  0.2957  1.3972
   89MOL0     C12197   1.390   1.131   3.639  0.5425 -0.7795 -0.1385
   89MOL0     C12198   1.312   1.093   3.528 -0.5822 -0.1029 -0.4869
   89MOL0     C12199   1.025   1.001   3.206  0.0900  0.2862 -0.4882
   89MOL0     C12200   0.999   1.124   3.145 -0.4228 -1.0181  0.7086
   89MOL0     C12201   0.953   1.127   3.012  0.7197 -0.3489  0.0838
   89MOL0     C12202   0.919   1.010   2.947 -0.1198 -0.1379 -1.0624
   89MOL0     O12203   0.855   0.996   2.821 -0.2210  0.0118  0.2712
   89MOL0     C12204   0.757   1.094   2.795  0.1177  0.8063  0.3826
   89MOL0     C12205   0.631   1.069   2.879  0.1083  0.6027 -0.3152
   89MOL0     C12206   0.605   0.918   2.879 -0.6455  0.6302  0.3441
   89MOL0     C12207   0.458   0.876   2.906  0.3718  0.2154  0.8231
   89MOL0     C12208   0.448   0.746   2.860  0.1250  1.4542 -0.0299
   89MOL0     C12209   0.428   0.627   2.820  0.0175  0.3566 -0.6768
   89MOL0     C12210   0.943   0.892   3.014  0.0498  0.2184  0.6364
   89MOL0     C12211   0.996   0.877   3.139  0.7774 -0.4860 -0.5865
   89MOL0     C12212   1.019   0.736   3.179 -0.0266 -0.0783 -0.4894
   89MOL0     H12213   1.032   1.270   3.600  0.5606 -1.5377  1.4891
   89MOL0     H12214   1.167   1.336   3.797  1.2214  3.4674 -2.7761
   89MOL0     H12215   1.304   1.384   3.939 -1.2294  1.7242 -2.0593
   89MOL0     H12216   1.408   1.445   3.814 -3.0271 -3.9302 -2.6974
   89MOL0     H12217   1.615   1.379   3.940  1.0488  0.4840  1.7025
   89MOL0     H12218   1.532   1.522   3.997 -1.0545  0.7745 -2.3499
   89MOL0     H12219   1.525   1.226   4.125  2.3399  0.2269 -0.5818
   89MOL0     H12220   1.629   1.341   4.190 -1.3877  3.0931  2.5379
   89MOL0     H12221   1.429   1.504   4.226  0.2920  0.5455 -2.2644
   89MOL0     H12222   1.332   1.372   4.170 -0.5050  2.6055  1.9315
   89MOL0     H12223   1.523   1.332   4.396  0.3033 -0.5301 -1.2204
   89MOL0     H12224   1.399   1.220   4.340  1.7472  0.8500 -1.5184
   89MOL0     H12225   1.216   1.397   4.431  0.2229  2.7527 -1.0758
   89MOL0     H12226   1.317   1.339   4.555 -2.2443  1.6316  0.3153
   89MOL0     H12227   1.324   1.615   4.423  0.0581  1.4798  1.9585
   89MOL0     H12228   1.464   1.560   4.512  0.5919 -0.3780 -3.9144
   89MOL0     H12229   1.179   1.604   4.601  0.5928  2.6223 -0.3194
   89MOL0     H12230   1.312   1.527   4.708  2.2603  0.7547  0.7258
   89MOL0     H12231   1.240   1.874   4.520 -1.3322  1.2628  2.4966
   89MOL0     H12232   1.297   2.112   4.562  1.2253  0.3143  0.1423
   89MOL0     H12233   1.457   2.130   4.630 -2.2555  5.8881 -0.4926
   89MOL0     H12234   1.247   2.060   4.816 -0.0531  0.0660 -0.0267
   89MOL0     H12235   1.401   2.140   4.838 -0.9458  1.3291  0.4038
   89MOL0     H12236   1.149   2.262   4.713 -0.2055  0.2482  0.7182
   89MOL0     H12237   1.197   2.299   4.868 -0.3375  2.3531 -0.6121
   89MOL0     H12238   1.418   2.369   4.765 -0.7812 -2.4415  2.1359
   89MOL0     H12239   1.327   2.351   4.609  0.7920  1.0505  0.6524
   89MOL0     H12240   1.410   2.491   4.493  2.3266 -1.0922  0.8225
   89MOL0     H12241   1.510   2.554   4.318 -0.9821 -0.8557  1.0683
   89MOL0     H12242   1.633   2.666   4.361 -1.1499  1.4268 -0.9377
   89MOL0     H12243   1.494   2.717   4.261  1.6211 -1.0547 -1.6290
   89MOL0     H12244   1.443   3.096   4.221  1.1758 -2.2053  1.7260
   89MOL0     H12245   1.552   3.288   4.116 -1.2914  0.2400  0.0935
   89MOL0     H12246   1.608   3.465   4.068  1.7394  0.5476 -1.4136
   89MOL0     H12247   1.607   3.619   4.119  0.2829 -0.9816 -1.5753
   89MOL0     H12248   1.868   3.601   4.132 -0.7971  1.3249  0.5361
   89MOL0     H12249   1.839   3.449   4.045  1.7916  0.4642  4.1287
   89MOL0     H12250   1.724   3.722   3.949  0.6948  0.9020  0.7319
   89MOL0     H12251   1.721   3.580   3.857 -1.2364  0.9336  0.3204
   89MOL0     H12252   1.990   3.699   3.940  0.5162 -0.0325 -0.6307
   89MOL0     H12253   1.902   3.715   3.783  2.3610 -0.3274 -0.2448
   89MOL0     H12254   2.089   3.545   3.791  2.7525  2.0780  4.8146
   89MOL0     H12255   2.033   3.464   3.919  0.5292 -0.0188 -0.0547
   89MOL0     H12256   1.850   3.455   3.668  0.8020 -0.0779  0.0251
   89MOL0     H12257   1.847   3.368   3.810 -1.6115  1.2251 -0.7339
   89MOL0     H12258   2.087   3.376   3.593 -2.7876  0.9010 -2.5198
   89MOL0     H12259   1.985   3.240   3.602  4.8797 -1.2546 -3.2327
   89MOL0     H12260   2.187   3.314   3.808 -0.7475  0.2185  2.2570
   89MOL0     H12261   2.184   3.181   3.687 -2.2760  1.4244 -3.5997
   89MOL0     H12262   1.699   3.399   4.512  2.5109 -1.6910  0.3096
   89MOL0     H12263   1.582   3.199   4.597 -1.7666 -1.4116 -1.5519
   89MOL0     H12264   1.367   2.947   4.678  1.1803  1.1391 -0.4034
   89MOL0     H12265   1.249   2.761   4.792  1.7843  2.6114  0.1566
   89MOL0     H12266   1.487   1.086   3.658  0.7523  0.0876  0.9590
   89MOL0     H12267   1.363   1.025   3.459  0.4091 -0.1468  0.2671
   89MOL0     H12268   1.016   1.221   3.192 -1.6647 -1.0359  1.2411
   89MOL0     H12269   0.928   1.224   2.970  0.3277  0.5052  2.1674
   89MOL0     H12270   0.786   1.199   2.790  2.5042  0.1320 -1.2499
   89MOL0     H12271   0.726   1.070   2.693 -0.0118  0.5653  0.4784
   89MOL0     H12272   0.550   1.125   2.831  1.2310  0.7943 -2.0845
   89MOL0     H12273   0.641   1.109   2.980 -1.8592  3.4943 -1.1104
   89MOL0     H12274   0.631   0.882   2.779  0.8854  0.6610  0.6988
   89MOL0     H12275   0.674   0.861   2.942 -1.4309 -1.9196 -0.9817
   89MOL0     H12276   0.386   0.933   2.847 -2.5739 -4.6203 -0.8227
   89MOL0     H12277   0.440   0.884   3.014  0.4793  1.6552  0.7521
   89MOL0     H12278   0.420   0.527   2.783 -0.7133  0.4269 -0.7332
   89MOL0     H12279   0.925   0.805   2.952 -2.0033  0.9448  0.1397
   89MOL0     H12280   0.964   0.711   3.270 -1.3902  1.9739 -0.6815
   89MOL0     H12281   0.981   0.670   3.101 -3.4719  0.9837  0.1015
   89MOL0     H12282   1.126   0.714   3.182 -0.4325 -2.9465 -2.9484
   90MOL0     O12283   1.207   1.110  10.031 -0.6512  0.9232 -0.3982
   90MOL0     C12284   1.223   1.185   9.932 -0.5197  0.8459 -0.4655
   90MOL0     O12285   1.205   1.140   9.804 -0.1921  0.8968 -0.3215
   90MOL0     C12286   1.138   1.020   9.797 -0.7653  0.4388 -0.7702
   90MOL0     C12287   1.204   0.897   9.823  0.9464  0.2080  0.5147
   90MOL0     C12288   1.127   0.780   9.804  0.3149  0.1785 -0.0787
   90MOL0     C12289   0.989   0.783   9.796 -0.9616  0.4490 -0.0126
   90MOL0     O12290   0.918   0.666   9.816  0.0880 -0.8430  0.2800
   90MOL0     C12291   0.980   0.538   9.785  0.1257 -0.7089 -1.6761
   90MOL0     C12292   0.875   0.445   9.739  0.6295 -0.0087  0.3360
   90MOL0     C12293   0.793   0.515   9.620  0.1852  0.6132 -0.0122
   90MOL0     C12294   0.685   0.412   9.573 -0.0143  0.2028 -0.0137
   90MOL0     C12295   0.614   0.452   9.448  0.7295  0.1164 -0.2169
   90MOL0     C12296   0.681   0.431   9.314 -0.1146 -1.0152 -0.3303
   90MOL0     C12297   0.599   0.483   9.193 -0.6695 -0.0103  0.8705
   90MOL0     C12298   0.678   0.447   9.062  0.7918  0.4507 -0.2471
   90MOL0     N12299   0.632   0.533   8.952  0.4314 -0.9599 -0.2611
   90MOL0     C12300   0.513   0.525   8.889 -0.0559  1.0586  0.1060
   90MOL0     C12301   0.483   0.634   8.823 -0.1031 -0.6086  0.2410
   90MOL0     C12302   0.351   0.648   8.738 -0.3658 -0.9313  0.2856
   90MOL0     C12303   0.306   0.798   8.700 -0.9242  0.3814 -0.3449
   90MOL0     C12304   0.168   0.785   8.629 -0.2513 -0.2398  0.6679
   90MOL0     C12305   0.156   0.847   8.493 -0.0271  0.1982  0.9827
   90MOL0     O12306   0.210   0.744   8.403  0.1337 -0.9916  0.4745
   90MOL0     C12307   0.175   0.738   8.268  0.2307 -0.6144 -1.3737
   90MOL0     C12308   0.070   0.798   8.202  0.7550 -0.3671 -1.2811
   90MOL0     C12309   0.047   0.784   8.064 -0.6297  0.3970  1.1825
   90MOL0     C12310  -0.068   0.858   7.993  0.4994 -0.2490 -0.0575
   90MOL0     C12311   0.141   0.712   7.990  0.3425  0.3872 -0.3595
   90MOL0     C12312   0.157   0.705   7.844 -0.5017  0.2015 -0.1374
   90MOL0     O12313   0.286   0.713   7.787  0.3898 -0.5126 -0.0491
   90MOL0     C12314   0.304   0.720   7.653 -0.7739  0.5221  0.1114
   90MOL0     C12315   0.270   0.619   7.566  0.0305 -0.6465  0.0742
   90MOL0     C12316   0.306   0.626   7.434 -0.1087  0.8772 -0.3888
   90MOL0     C12317   0.390   0.731   7.397 -1.1245 -0.4593 -1.0162
   90MOL0     O12318   0.433   0.724   7.263 -0.1088  0.7243 -0.5152
   90MOL0     C12319   0.499   0.838   7.202  0.6738 -0.6183  0.3107
   90MOL0     C12320   0.552   0.808   7.063  1.2777 -0.0916 -0.0188
   90MOL0     C12321   0.546   0.918   6.962  0.8200 -0.3028 -0.0149
   90MOL0     C12322   0.637   0.870   6.850 -1.0928 -0.6040 -0.3131
   90MOL0     C12323   0.608   0.929   6.707  0.7629 -0.4573 -0.9744
   90MOL0     C12324   0.484   0.860   6.648  0.4782  0.2162  0.4652
   90MOL0     C12325   0.411   0.936   6.540  0.4143  0.3224  0.3216
   90MOL0     C12326   0.499   0.964   6.417  0.4009 -0.4166  0.4048
   90MOL0    Cl12327   0.386   1.027   6.287 -0.6969  0.0897 -0.1225
   90MOL0     C12328   0.433   0.831   7.484 -0.5275 -0.2410 -0.1000
   90MOL0     C12329   0.400   0.818   7.618  0.2389  0.0221 -0.2438
   90MOL0     O12330   0.062   0.685   7.776 -0.1895 -0.2775 -0.1326
   90MOL0     C12331   0.251   0.653   8.061  0.4559 -0.9597  0.7876
   90MOL0     C12332   0.265   0.668   8.196  0.2693 -0.0643 -0.8742
   90MOL0     N12333   0.593   0.708   8.832  1.0736 -0.6089 -0.3810
   90MOL0     N12334   0.683   0.649   8.903  0.2603 -0.6286 -0.1931
   90MOL0     C12335   0.928   0.905   9.778  0.1938 -0.4279 -0.1116
   90MOL0     C12336   1.001   1.020   9.774 -0.7506 -0.1433 -0.1393
   90MOL0     C12337   1.287   1.328   9.951 -0.4112  0.3582 -0.5602
   90MOL0     C12338   1.363   1.371   9.838  0.2606 -0.5538  0.0594
   90MOL0     C12339   1.436   1.493   9.846 -0.3214  0.2413  0.5653
   90MOL0     C12340   1.432   1.572   9.957 -0.4027  0.4811  0.4571
   90MOL0     O12341   1.489   1.694   9.978  0.1783 -0.1130  0.2012
   90MOL0     C12342   1.625   1.706   9.992 -0.0049  0.6351 -0.2099
   90MOL0     C12343   1.656   1.852   9.960  0.6219 -0.6895  0.2284
   90MOL0     C12344   1.805   1.874   9.956  0.2178  0.5475  0.1871
   90MOL0     C12345   1.849   2.019   9.939 -0.7396 -0.2209 -0.2405
   90MOL0     C12346   1.876   2.076   9.806  1.0525  0.0891 -0.4682
   90MOL0     C12347   1.895   2.136   9.705 -0.1437 -0.5279 -0.4834
   90MOL0     C12348   1.355   1.530  10.067 -0.4595 -0.0955  0.2745
   90MOL0     C12349   1.284   1.411  10.070  0.4323 -0.0231  0.7662
   90MOL0     C12350   1.200   1.378  10.191  0.3643  0.3701  0.2060
   90MOL0     H12351   1.312   0.900   9.835  1.1626  0.7309 -1.2532
   90MOL0     H12352   1.179   0.687   9.823 -1.9722 -1.6630 -2.2456
   90MOL0     H12353   1.035   0.515   9.876 -1.2707  1.5771 -0.1381
   90MOL0     H12354   1.049   0.558   9.702  1.6976  0.5218 -0.1784
   90MOL0     H12355   0.920   0.352   9.704  3.8105  1.6395 -0.3156
   90MOL0     H12356   0.809   0.413   9.821  0.3350 -0.5212 -0.0913
   90MOL0     H12357   0.755   0.614   9.646  0.9791  0.5525  1.4675
   90MOL0     H12358   0.860   0.533   9.536  2.6410 -0.1952  1.6527
   90MOL0     H12359   0.739   0.317   9.565  0.9517  0.5289  1.9507
   90MOL0     H12360   0.617   0.407   9.659  0.3626  0.4266  0.2985
   90MOL0     H12361   0.565   0.550   9.446  1.5570  0.5955  1.2669
   90MOL0     H12362   0.524   0.391   9.443 -0.7109  2.1191 -0.1271
   90MOL0     H12363   0.783   0.469   9.318 -0.3719 -0.4328  1.8174
   90MOL0     H12364   0.684   0.321   9.310 -0.8810 -1.0333 -0.4577
   90MOL0     H12365   0.598   0.593   9.200 -0.1357 -0.1138  5.3952
   90MOL0     H12366   0.498   0.442   9.201 -0.7804  0.5827  3.5063
   90MOL0     H12367   0.787   0.442   9.067  0.7435 -2.2600 -0.8318
   90MOL0     H12368   0.637   0.353   9.025 -0.6361  2.0404 -3.0195
   90MOL0     H12369   0.451   0.437   8.897  1.0926  0.1157 -0.9422
   90MOL0     H12370   0.272   0.600   8.795  0.2382 -2.2030  0.0938
   90MOL0     H12371   0.358   0.594   8.643 -0.8872 -2.3421  1.0218
   90MOL0     H12372   0.308   0.857   8.792  1.1328 -0.9185  0.5207
   90MOL0     H12373   0.386   0.833   8.634  1.1365 -0.6231  1.5057
   90MOL0     H12374   0.148   0.680   8.607  1.0881  0.0297 -2.3808
   90MOL0     H12375   0.095   0.822   8.701  2.7907  0.1178  3.8286
   90MOL0     H12376   0.049   0.857   8.473  0.1578 -2.5316 -2.2100
   90MOL0     H12377   0.205   0.944   8.483  0.7457  0.2707  4.2595
   90MOL0     H12378   0.005   0.864   8.258  0.0803 -1.8797 -0.2014
   90MOL0     H12379  -0.151   0.864   8.063  0.5940  1.3707 -0.0551
   90MOL0     H12380  -0.107   0.808   7.903  1.5516 -1.7662  0.2879
   90MOL0     H12381  -0.010   0.950   7.982  3.3165 -1.8424  0.4454
   90MOL0     H12382   0.203   0.539   7.596  1.6313 -2.0877 -0.0031
   90MOL0     H12383   0.295   0.539   7.371 -3.3436  1.0783 -0.2372
   90MOL0     H12384   0.427   0.921   7.201 -0.1857 -1.3348 -1.4810
   90MOL0     H12385   0.575   0.889   7.262  0.6092  0.2235 -0.2971
   90MOL0     H12386   0.654   0.769   7.065  1.8291  1.2759  0.2313
   90MOL0     H12387   0.485   0.726   7.037  1.5089 -0.7837  1.4648
   90MOL0     H12388   0.586   1.016   6.994 -0.3635 -0.4532  2.1034
   90MOL0     H12389   0.446   0.929   6.920  2.0091  0.7898 -2.8644
   90MOL0     H12390   0.621   0.763   6.837 -2.6104 -0.2895 -1.3894
   90MOL0     H12391   0.745   0.878   6.869 -0.8814 -4.5714  0.8887
   90MOL0     H12392   0.578   1.035   6.708  1.5878 -0.1795  1.4451
   90MOL0     H12393   0.698   0.922   6.645  1.6457  1.9818 -0.1281
   90MOL0     H12394   0.418   0.836   6.732 -1.4407  2.1898 -0.3779
   90MOL0     H12395   0.515   0.760   6.615 -0.3424  0.1056  0.0050
   90MOL0     H12396   0.379   1.032   6.584 -1.0642  0.2598 -0.5401
   90MOL0     H12397   0.326   0.880   6.499 -1.9249  3.1552  0.9293
   90MOL0     H12398   0.549   0.877   6.374  0.9167  1.1907 -2.4282
   90MOL0     H12399   0.563   1.049   6.440  0.3202 -0.8386  2.3680
   90MOL0     H12400   0.492   0.917   7.456  1.9000 -2.1457 -1.2135
   90MOL0     H12401   0.434   0.891   7.690 -2.8928  0.8653  0.5496
   90MOL0     H12402   0.323   0.595   8.004  0.2340 -1.0669  0.6148
   90MOL0     H12403   0.345   0.625   8.255 -0.2564  0.3577  0.1667
   90MOL0     H12404   0.820   0.919   9.786  0.2654 -0.2493  0.6603
   90MOL0     H12405   0.959   1.117   9.750 -1.5771 -1.3146 -4.1314
   90MOL0     H12406   1.365   1.313   9.746 -1.6695  2.2104 -1.8863
   90MOL0     H12407   1.488   1.534   9.761  0.5822 -1.0559  0.4647
   90MOL0     H12408   1.667   1.681  10.090  3.2642  1.2702 -1.3225
   90MOL0     H12409   1.674   1.652   9.911  0.9344  3.5052 -1.6911
   90MOL0     H12410   1.618   1.910  10.045 -1.5372 -1.3770 -0.2272
   90MOL0     H12411   1.608   1.874   9.864  0.2450 -1.0190  0.3427
   90MOL0     H12412   1.834   1.836  10.055 -2.0664  1.4922  1.2823
   90MOL0     H12413   1.855   1.814   9.879 -0.0609 -1.9074  1.7954
   90MOL0     H12414   1.943   2.032   9.994 -0.8216 -0.6374 -0.0008
   90MOL0     H12415   1.776   2.085   9.987  0.8277  0.8371  0.7786
   90MOL0     H12416   1.907   2.190   9.613  0.5739  1.7471  0.8734
   90MOL0     H12417   1.354   1.592  10.156  1.8801  0.5664 -0.0891
   90MOL0     H12418   1.092   1.376  10.173  0.2495 -0.4589  0.8981
   90MOL0     H12419   1.230   1.280  10.230  3.5740  2.2744  3.0718
   90MOL0     H12420   1.210   1.454  10.269  0.7822  1.5889 -0.9988
   91MOL0     O12421   3.634   4.594   0.216 -0.1152 -1.4407 -0.3584
   91MOL0     C12422   3.730   4.680   0.217  0.1848 -0.3801 -0.0179
   91MOL0     O12423   3.862   4.642   0.202 -0.3474 -0.7605  0.8752
   91MOL0     C12424   3.881   4.504   0.205  0.3481 -1.6844 -0.3364
   91MOL0     C12425   3.877   4.454   0.333  0.1236 -0.2685 -0.1215
   91MOL0     C12426   3.924   4.323   0.354 -1.1740  0.3388  0.5953
   91MOL0     C12427   3.968   4.241   0.247  0.6862 -0.5962 -0.0545
   91MOL0     O12428   4.020   4.114   0.250 -0.2218  0.2181  0.3298
   91MOL0     C12429   4.007   4.047   0.378 -0.7854 -1.2821 -1.5324
   91MOL0     C12430   4.027   3.889   0.362 -0.1548 -0.0252 -1.4571
   91MOL0     C12431   4.149   3.856   0.281  0.5419  0.5192  0.5099
   91MOL0     C12432   4.131   3.720   0.224  0.1020  0.4220  1.0262
   91MOL0     C12433   4.238   3.667   0.130 -0.1078 -0.6618  0.2221
   91MOL0     C12434   4.383   3.680   0.192  0.5450  0.9762  0.1711
   91MOL0     C12435   4.397   3.611   0.336 -0.3688 -0.1936 -0.4420
   91MOL0     C12436   4.373   3.450   0.334  0.4807  0.2147 -0.1788
   91MOL0     N12437   4.485   3.377   0.268  0.2227  0.7697 -0.0349
   91MOL0     C12438   4.482   3.349   0.127 -0.6173 -0.3547 -0.2471
   91MOL0     C12439   4.588   3.267   0.101 -0.9239  0.2281  0.0883
   91MOL0     C12440   4.630   3.206  -0.030  0.3011  0.8200 -0.0346
   91MOL0     C12441   4.578   3.266  -0.155 -1.1269 -1.0751 -0.2757
   91MOL0     C12442   4.589   3.173  -0.281 -0.4087 -0.5097 -0.6911
   91MOL0     C12443   4.731   3.123  -0.307  0.4574  0.2282 -0.1032
   91MOL0     O12444   4.809   3.241  -0.295 -0.6336  0.1116  0.0463
   91MOL0     C12445   4.945   3.263  -0.262 -0.0078  0.3168  0.1303
   91MOL0     C12446   5.047   3.163  -0.266 -0.5214 -0.5073 -1.0906
   91MOL0     C12447   5.173   3.181  -0.213  0.6430  0.2919  0.8170
   91MOL0     C12448   5.278   3.064  -0.218  0.4553 -0.2300 -0.3283
   91MOL0     C12449   5.215   3.309  -0.165  0.4864 -0.3730  1.0163
   91MOL0     C12450   5.345   3.327  -0.097  0.6870  0.3913 -0.1313
   91MOL0     O12451   5.411   3.436  -0.142  0.4237 -0.9322  0.3490
   91MOL0     C12452   5.524   3.476  -0.072 -0.3487  1.3959 -0.1621
   91MOL0     C12453   5.646   3.462  -0.139 -0.9037  1.0905  0.0338
   91MOL0     C12454   5.761   3.518  -0.080 -0.6850  0.9492 -0.3258
   91MOL0     C12455   5.745   3.586   0.042 -0.0943  0.1602 -0.1637
   91MOL0     O12456   5.845   3.654   0.106  0.2232 -0.5570 -0.6140
   91MOL0     C12457   5.977   3.671   0.056  1.1874 -0.3388 -0.1417
   91MOL0     C12458   5.967   3.786  -0.052 -1.2158  0.0036  0.5908
   91MOL0     C12459   5.935   3.923   0.016 -0.2650  0.4453 -0.8521
   91MOL0     C12460   5.926   4.041  -0.079 -0.1409  0.5196  0.5332
   91MOL0     C12461   5.875   4.176  -0.022  0.1108  0.1509 -0.1430
   91MOL0     C12462   5.977   4.233   0.081  0.5107 -0.0259 -0.5159
   91MOL0     C12463   5.950   4.384   0.102 -0.7133  0.5592  0.6029
   91MOL0     C12464   6.060   4.448   0.199  0.5453  0.4457  1.1216
   91MOL0    Cl12465   5.987   4.612   0.236  0.2972 -0.5656  0.3708
   91MOL0     C12466   5.628   3.586   0.118  0.0868 -0.1891  0.6634
   91MOL0     C12467   5.522   3.533   0.051 -0.1517 -0.4066 -0.7161
   91MOL0     O12468   5.377   3.241  -0.014 -0.8490 -0.2927 -1.1670
   91MOL0     C12469   5.116   3.409  -0.170 -0.8434  0.2345  0.1151
   91MOL0     C12470   4.986   3.392  -0.222  0.0801  0.3827  0.0931
   91MOL0     N12471   4.652   3.249   0.222  0.0556 -0.7393 -0.2407
   91MOL0     N12472   4.586   3.306   0.319 -0.3360 -0.4387 -0.2676
   91MOL0     C12473   3.951   4.293   0.122  0.4550 -0.5134  0.3298
   91MOL0     C12474   3.914   4.425   0.096  0.2051  0.6719 -0.7610
   91MOL0     C12475   3.702   4.826   0.218  1.0951 -0.2355 -0.4284
   91MOL0     C12476   3.572   4.857   0.170  1.6430 -0.2456 -1.0594
   91MOL0     C12477   3.522   4.993   0.168 -0.0995  0.1503  1.3817
   91MOL0     C12478   3.604   5.101   0.199  0.5109  0.7845  0.0350
   91MOL0     O12479   3.560   5.230   0.182  0.0014 -1.3040  0.5677
   91MOL0     C12480   3.438   5.279   0.135 -0.6866  0.6979  0.2345
   91MOL0     C12481   3.332   5.303   0.250 -0.0188 -0.3127  0.5284
   91MOL0     C12482   3.203   5.372   0.213 -0.4887 -0.8188 -0.0308
   91MOL0     C12483   3.099   5.361   0.323  0.3010  0.6835 -0.3675
   91MOL0     C12484   2.971   5.399   0.270  0.5481 -0.2534 -0.1732
   91MOL0     C12485   2.863   5.442   0.217 -1.0320 -0.8125 -0.4192
   91MOL0     C12486   3.727   5.066   0.261  0.0297  0.6513 -0.4793
   91MOL0     C12487   3.791   4.934   0.250  0.7665 -0.3247 -0.5784
   91MOL0     C12488   3.931   4.924   0.303  0.5279  0.2141  0.2899
   91MOL0     H12489   3.878   4.520   0.418  5.5550  0.2636 -0.2775
   91MOL0     H12490   3.932   4.282   0.454  1.8693 -0.1359  0.2425
   91MOL0     H12491   3.914   4.069   0.431  0.6262  0.4678  0.3864
   91MOL0     H12492   4.084   4.074   0.450 -2.4192 -3.0242  1.0284
   91MOL0     H12493   4.045   3.845   0.460 -2.2015 -0.1009 -1.0648
   91MOL0     H12494   3.931   3.855   0.322 -0.9650  0.1891  0.2233
   91MOL0     H12495   4.150   3.926   0.196  1.1506 -1.3437 -1.0918
   91MOL0     H12496   4.244   3.846   0.334  0.6228  0.2923  0.3271
   91MOL0     H12497   4.126   3.641   0.299 -1.0480 -0.0698  0.4620
   91MOL0     H12498   4.032   3.718   0.176  0.6191  0.2471 -0.0604
   91MOL0     H12499   4.233   3.729   0.040  2.3871 -1.1968 -0.3834
   91MOL0     H12500   4.213   3.564   0.102 -4.2387  0.2767 -0.1083
   91MOL0     H12501   4.459   3.631   0.130  0.7138  1.8338 -0.3075
   91MOL0     H12502   4.414   3.785   0.192  3.0832  0.3115 -1.0070
   91MOL0     H12503   4.324   3.650   0.407  0.7436  0.6312  0.2693
   91MOL0     H12504   4.494   3.632   0.382 -0.3114 -1.1927 -0.0837
   91MOL0     H12505   4.362   3.414   0.437 -0.5981  1.0221  0.0051
   91MOL0     H12506   4.279   3.434   0.281  0.6556 -2.6707  0.2047
   91MOL0     H12507   4.404   3.384   0.060 -0.3964 -0.3272 -0.4881
   91MOL0     H12508   4.618   3.098  -0.045  0.9297  0.8023 -0.4573
   91MOL0     H12509   4.736   3.232  -0.044  0.3699 -0.4350 -2.2106
   91MOL0     H12510   4.471   3.290  -0.148 -0.7268  0.3094  2.1759
   91MOL0     H12511   4.636   3.356  -0.177 -0.6276 -1.9165 -2.6798
   91MOL0     H12512   4.521   3.089  -0.265  0.0354 -0.8882 -0.7709
   91MOL0     H12513   4.551   3.216  -0.374  0.0981 -0.5108 -0.9046
   91MOL0     H12514   4.759   3.043  -0.238 -0.3276  0.8021  0.8943
   91MOL0     H12515   4.733   3.067  -0.401 -1.5022 -2.8006  1.4943
   91MOL0     H12516   5.016   3.061  -0.285 -3.7281  0.2192 -0.3928
   91MOL0     H12517   5.244   2.978  -0.275 -0.9117  1.2247 -1.8192
   91MOL0     H12518   5.283   3.021  -0.117  2.0475 -0.3469 -0.4268
   91MOL0     H12519   5.376   3.104  -0.247  0.3887  1.1238  1.1621
   91MOL0     H12520   5.654   3.398  -0.226 -2.4452 -2.8372  2.4869
   91MOL0     H12521   5.857   3.527  -0.129  0.1990 -1.5040  0.7693
   91MOL0     H12522   6.041   3.702   0.139 -1.8003  1.0379  1.8343
   91MOL0     H12523   6.013   3.579   0.010  0.3968 -0.3524 -0.7583
   91MOL0     H12524   6.062   3.808  -0.102  0.4469 -2.5234  2.3889
   91MOL0     H12525   5.891   3.763  -0.127 -0.2355  0.9873 -0.7409
   91MOL0     H12526   6.017   3.942   0.086  1.2357 -0.9192 -2.1653
   91MOL0     H12527   5.838   3.917   0.067 -2.2139  0.3622 -4.2537
   91MOL0     H12528   5.840   4.008  -0.138 -1.3152  0.5013  2.1833
   91MOL0     H12529   6.016   4.041  -0.141 -0.7165  2.5549 -0.4259
   91MOL0     H12530   5.846   4.254  -0.094 -1.0135  2.4955  2.6744
   91MOL0     H12531   5.781   4.166   0.032 -0.1127  1.2448 -0.3052
   91MOL0     H12532   6.078   4.210   0.046  0.6397 -0.3035  0.0318
   91MOL0     H12533   5.958   4.178   0.173 -2.4099  1.2005 -0.2843
   91MOL0     H12534   5.847   4.388   0.137 -0.5339  0.2707  1.1815
   91MOL0     H12535   5.929   4.437   0.009  0.6062 -0.2308 -0.1818
   91MOL0     H12536   6.159   4.466   0.158  1.6513  1.4870  3.9704
   91MOL0     H12537   6.078   4.381   0.284  5.0444  0.4771  0.4241
   91MOL0     H12538   5.632   3.613   0.223 -0.6178 -1.3895  1.0181
   91MOL0     H12539   5.429   3.519   0.106 -1.8823 -0.5146 -3.4707
   91MOL0     H12540   5.129   3.508  -0.127 -1.5553  2.4008 -4.0797
   91MOL0     H12541   4.914   3.471  -0.206  0.8811  1.3166 -0.7059
   91MOL0     H12542   3.973   4.237   0.031  3.3859  0.1455  0.5159
   91MOL0     H12543   3.917   4.467  -0.004  0.2727  1.3195 -0.4915
   91MOL0     H12544   3.508   4.774   0.142  0.0752  1.5342 -3.1115
   91MOL0     H12545   3.432   5.016   0.111  0.1440 -0.6872  0.6460
   91MOL0     H12546   3.458   5.379   0.096 -0.5608 -1.0450 -4.8329
   91MOL0     H12547   3.406   5.216   0.052  3.6446 -1.4042 -0.1138
   91MOL0     H12548   3.378   5.366   0.327 -3.6699 -0.4818  3.0784
   91MOL0     H12549   3.306   5.206   0.292 -0.9606  0.1838  1.1094
   91MOL0     H12550   3.219   5.479   0.197 -3.3126 -0.1348  1.1590
   91MOL0     H12551   3.174   5.334   0.114  0.2034 -0.2268 -0.4730
   91MOL0     H12552   3.125   5.437   0.396 -0.7471  0.6796  0.0275
   91MOL0     H12553   3.087   5.268   0.380 -1.2521  0.1924 -1.4211
   91MOL0     H12554   2.766   5.467   0.177 -2.0567 -0.8165  1.9121
   91MOL0     H12555   3.790   5.145   0.301  0.7425 -0.1338 -0.0087
   91MOL0     H12556   3.925   4.900   0.409 -0.0500  1.6947  0.6216
   91MOL0     H12557   3.995   4.852   0.251  1.4920  0.5919  0.9238
   91MOL0     H12558   3.991   5.016   0.290  0.3833  0.3103  0.2997
   92MOL0     O12559   2.566   6.134   0.845  0.2555 -0.0144 -0.8437
   92MOL0     C12560   2.684   6.113   0.834  0.8375 -0.1451  0.7130
   92MOL0     O12561   2.769   6.198   0.768 -0.5709 -0.2233  0.0021
   92MOL0     C12562   2.728   6.317   0.738 -0.4701  0.0267  0.7391
   92MOL0     C12563   2.717   6.348   0.607  0.1833 -0.5304  0.8569
   92MOL0     C12564   2.684   6.480   0.558 -0.3666  0.9502 -0.8482
   92MOL0     C12565   2.634   6.572   0.664 -0.3155 -0.1954  0.0796
   92MOL0     O12566   2.601   6.699   0.620  1.2530  0.1655 -0.2774
   92MOL0     C12567   2.628   6.811   0.713 -0.2085 -0.9087 -1.4189
   92MOL0     C12568   2.632   6.955   0.649  0.0326 -0.1969 -0.1103
   92MOL0     C12569   2.521   7.000   0.554  1.1778  0.1639 -0.3790
   92MOL0     C12570   2.395   7.043   0.627 -0.1171  0.3207  0.1242
   92MOL0     C12571   2.267   7.030   0.539 -0.0697 -0.0877  0.2662
   92MOL0     C12572   2.149   7.091   0.612  0.4824  0.4808  1.0901
   92MOL0     C12573   2.030   7.111   0.506 -0.0069 -0.3650  0.8509
   92MOL0     C12574   1.927   7.209   0.554 -0.1026  0.0232  0.0859
   92MOL0     N12575   1.860   7.181   0.683 -0.5393  0.5416  0.0283
   92MOL0     C12576   1.905   7.232   0.806 -0.0820 -0.4904  1.6413
   92MOL0     C12577   1.813   7.186   0.888  0.4792 -0.3210 -0.1409
   92MOL0     C12578   1.823   7.215   1.037  0.2389 -0.4688  0.0212
   92MOL0     C12579   1.701   7.159   1.102 -0.8489 -0.0272 -0.7462
   92MOL0     C12580   1.700   7.196   1.257 -0.7766 -0.0171 -0.5524
   92MOL0     C12581   1.610   7.106   1.341  0.0169 -0.4554  0.6295
   92MOL0     O12582   1.485   7.166   1.316  0.6370 -0.6756 -0.3084
   92MOL0     C12583   1.380   7.119   1.237  0.4180 -0.4149  0.5188
   92MOL0     C12584   1.404   7.009   1.158 -0.0406 -0.5253 -0.4376
   92MOL0     C12585   1.304   6.942   1.082  0.0518 -0.4389  0.2503
   92MOL0     C12586   1.338   6.810   1.027  0.4805 -0.6013  0.3149
   92MOL0     C12587   1.176   6.995   1.084  0.9797  0.2684  0.2955
   92MOL0     C12588   1.059   6.959   1.008  0.2551 -0.1474  1.1119
   92MOL0     O12589   0.938   6.971   1.058  0.2798 -1.1179  0.2067
   92MOL0     C12590   0.825   6.952   0.970 -0.1414  0.8128 -0.9335
   92MOL0     C12591   0.744   6.842   0.991 -1.0715  0.6621  0.6966
   92MOL0     C12592   0.640   6.817   0.905 -0.2862  0.2256  1.2128
   92MOL0     C12593   0.617   6.904   0.792  1.4932  0.2410 -0.7105
   92MOL0     O12594   0.514   6.884   0.698 -0.5405  0.0188  0.0078
   92MOL0     C12595   0.484   6.747   0.660 -0.0418 -1.0788  0.7684
   92MOL0     C12596   0.376   6.745   0.543 -0.5009  0.1998  0.3137
   92MOL0     C12597   0.434   6.784   0.408  0.3149 -0.0247  0.4332
   92MOL0     C12598   0.503   6.924   0.402  0.9162 -1.3450 -0.2789
   92MOL0     C12599   0.653   6.915   0.412  0.7879 -0.1371  0.2159
   92MOL0     C12600   0.715   7.055   0.411  0.6766  0.5019  0.1168
   92MOL0     C12601   0.873   7.055   0.442  0.2782 -0.3453 -0.5390
   92MOL0     C12602   0.933   7.184   0.484  0.9803 -0.0941  0.1573
   92MOL0    Cl12603   0.886   7.309   0.382 -0.0580 -0.5220  0.3823
   92MOL0     C12604   0.697   7.022   0.780 -0.1753  1.4353  0.2217
   92MOL0     C12605   0.806   7.046   0.864  0.0496  0.7083  0.6998
   92MOL0     O12606   1.083   6.915   0.891 -0.1716  0.0663 -0.2816
   92MOL0     C12607   1.156   7.105   1.174  0.3845 -0.4395 -0.9743
   92MOL0     C12608   1.255   7.162   1.254 -0.1473 -0.6342 -0.0704
   92MOL0     N12609   1.711   7.121   0.825  0.4295 -0.1163  0.6114
   92MOL0     N12610   1.744   7.112   0.699  0.7474  0.1673  0.9245
   92MOL0     C12611   2.641   6.537   0.797  0.3595 -0.0274 -0.5051
   92MOL0     C12612   2.693   6.406   0.837 -0.6509  1.1722  0.4874
   92MOL0     C12613   2.733   5.995   0.908 -0.0475  0.9037  0.9263
   92MOL0     C12614   2.640   5.910   0.971 -0.4937  0.0490 -0.2590
   92MOL0     C12615   2.675   5.808   1.054  0.0006  1.1387  0.2625
   92MOL0     C12616   2.808   5.769   1.065 -0.6226 -0.1152 -0.2211
   92MOL0     O12617   2.844   5.647   1.121 -0.5695 -0.0623  0.7186
   92MOL0     C12618   2.984   5.592   1.109  0.4446  0.9083 -0.5433
   92MOL0     C12619   2.961   5.444   1.094 -0.4359 -1.6256 -0.4346
   92MOL0     C12620   3.096   5.374   1.110  0.6241  0.0776 -0.6876
   92MOL0     C12621   3.097   5.226   1.129 -0.3279  0.5840 -0.6925
   92MOL0     C12622   3.062   5.168   0.998  1.0345  0.0395 -0.4147
   92MOL0     C12623   3.008   5.130   0.894 -0.9209  0.0542  0.0448
   92MOL0     C12624   2.902   5.861   1.018  0.0504  0.1450  0.0970
   92MOL0     C12625   2.867   5.969   0.934 -0.4842  0.3218 -0.6191
   92MOL0     C12626   2.989   6.055   0.889 -0.7872  0.2847 -0.2419
   92MOL0     H12627   2.734   6.276   0.528 -0.6411 -1.0433  1.1410
   92MOL0     H12628   2.683   6.504   0.452  4.7257 -0.3802 -1.4503
   92MOL0     H12629   2.720   6.793   0.771 -2.8815 -4.6959  2.2678
   92MOL0     H12630   2.554   6.813   0.793  2.3105 -0.9111  1.0832
   92MOL0     H12631   2.627   7.021   0.735  0.9708 -0.9839  0.5766
   92MOL0     H12632   2.728   6.972   0.598 -0.8359 -0.1189 -1.8070
   92MOL0     H12633   2.565   7.082   0.496  0.2861  0.2367 -0.9735
   92MOL0     H12634   2.499   6.914   0.490  2.4118 -1.5279  1.3682
   92MOL0     H12635   2.373   6.969   0.704 -2.3803  1.0613  0.2610
   92MOL0     H12636   2.406   7.144   0.670  2.3536 -0.5816  1.8717
   92MOL0     H12637   2.232   6.933   0.503 -1.3128  0.5162 -0.1936
   92MOL0     H12638   2.288   7.090   0.449  1.2714 -0.9088  0.0077
   92MOL0     H12639   2.124   7.018   0.690 -0.7458  2.8349  3.0323
   92MOL0     H12640   2.180   7.176   0.673 -2.1950  1.0183  1.8568
   92MOL0     H12641   1.976   7.024   0.468 -1.7087  1.8609 -2.2562
   92MOL0     H12642   2.086   7.142   0.418  1.7010  2.1428  2.6730
   92MOL0     H12643   1.959   7.313   0.562 -3.4719  1.0613  2.7096
   92MOL0     H12644   1.853   7.207   0.473  3.3575  0.0145 -3.3495
   92MOL0     H12645   1.999   7.282   0.828 -0.5566  2.7885 -2.5571
   92MOL0     H12646   1.827   7.322   1.060  1.4015 -0.8714  1.9607
   92MOL0     H12647   1.916   7.180   1.082 -0.8498 -3.0142  0.4860
   92MOL0     H12648   1.604   7.169   1.054 -2.8948 -7.7592  0.4216
   92MOL0     H12649   1.710   7.050   1.096  2.0336  0.0281  0.5839
   92MOL0     H12650   1.797   7.172   1.300 -1.5169 -0.6561  0.8256
   92MOL0     H12651   1.664   7.298   1.273 -1.7430 -0.8879  4.0651
   92MOL0     H12652   1.621   6.999   1.327  0.8460 -0.1475 -1.3189
   92MOL0     H12653   1.639   7.140   1.441  1.2194  0.8209 -0.1053
   92MOL0     H12654   1.505   6.970   1.152  0.6016  0.8831  0.7846
   92MOL0     H12655   1.443   6.789   1.046  0.6277  1.0573  1.6587
   92MOL0     H12656   1.315   6.815   0.920 -2.2907  0.9459  0.8687
   92MOL0     H12657   1.277   6.745   1.090  0.4889  0.8814  1.9307
   92MOL0     H12658   0.783   6.770   1.061  0.6752 -3.0100 -3.5935
   92MOL0     H12659   0.563   6.743   0.921 -0.7341  1.1620  3.8500
   92MOL0     H12660   0.577   6.709   0.615 -0.2617  1.4453 -2.2076
   92MOL0     H12661   0.456   6.674   0.736  0.0949 -2.3657 -0.3970
   92MOL0     H12662   0.341   6.642   0.533  2.6773 -0.7499 -4.3197
   92MOL0     H12663   0.289   6.808   0.562 -0.1404  0.1494  2.2731
   92MOL0     H12664   0.341   6.787   0.350 -0.4368 -0.7092  1.5534
   92MOL0     H12665   0.494   6.701   0.370  0.0461 -0.3490  0.6992
   92MOL0     H12666   0.459   6.984   0.482 -0.9756 -1.4768 -1.1672
   92MOL0     H12667   0.482   6.968   0.304  3.0161 -0.8160 -0.5417
   92MOL0     H12668   0.673   6.857   0.503 -0.7970 -2.3247 -0.7472
   92MOL0     H12669   0.692   6.854   0.331 -0.3185 -0.5448 -0.0269
   92MOL0     H12670   0.660   7.101   0.493  1.5727 -0.4675  1.3113
   92MOL0     H12671   0.700   7.105   0.315  0.2358 -1.4377 -0.8761
   92MOL0     H12672   0.925   7.034   0.348  0.9195  1.0476 -0.5303
   92MOL0     H12673   0.892   6.973   0.511  0.3715 -0.2981 -0.5080
   92MOL0     H12674   1.042   7.191   0.481  0.9724  5.4516  1.6914
   92MOL0     H12675   0.899   7.203   0.587  0.0970 -0.2938 -0.0875
   92MOL0     H12676   0.671   7.085   0.695 -0.5544 -0.6322 -1.2815
   92MOL0     H12677   0.883   7.120   0.847  1.6097 -0.9944 -0.0769
   92MOL0     H12678   1.055   7.141   1.195 -0.1766 -0.8505 -2.8322
   92MOL0     H12679   1.234   7.238   1.328  3.1672  2.3474 -1.8984
   92MOL0     H12680   2.608   6.599   0.881  3.3074 -0.4018  1.0666
   92MOL0     H12681   2.698   6.365   0.937  3.1247  0.2569  0.0707
   92MOL0     H12682   2.535   5.930   0.954 -1.0800 -1.2178  1.5672
   92MOL0     H12683   2.593   5.744   1.085 -2.7538  3.5351 -1.5734
   92MOL0     H12684   3.045   5.620   1.022  3.1899 -0.8732  0.6686
   92MOL0     H12685   3.042   5.621   1.197  1.8720 -2.7411 -0.1167
   92MOL0     H12686   2.899   5.420   1.007 -2.3691  2.2240 -0.2874
   92MOL0     H12687   2.908   5.416   1.186  0.4460  4.5021  2.4170
   92MOL0     H12688   3.168   5.398   1.032  0.2405 -0.4762 -1.2192
   92MOL0     H12689   3.135   5.413   1.205 -0.0318 -1.3098  0.1840
   92MOL0     H12690   3.027   5.192   1.205 -1.0687 -1.9598 -2.3929
   92MOL0     H12691   3.194   5.184   1.159 -0.7868 -0.2785 -0.3842
   92MOL0     H12692   2.979   5.104   0.794 -2.0470 -0.9587  0.6058
   92MOL0     H12693   3.005   5.858   1.051 -0.3339 -2.6213  1.2905
   92MOL0     H12694   3.080   5.998   0.911  0.4115  2.3469  0.4052
   92MOL0     H12695   3.001   6.095   0.788  1.8938 -0.7463 -0.4199
   92MOL0     H12696   2.992   6.152   0.939 -2.8992  1.3935 -2.0680
   93MOL0     O12697   8.216   7.319   0.670  0.0295 -0.5297  0.2729
   93MOL0     C12698   8.166   7.232   0.602  0.6067  0.0704 -0.2883
   93MOL0     O12699   8.047   7.179   0.614 -0.6513 -0.3917 -0.0792
   93MOL0     C12700   7.965   7.239   0.708 -0.2674  0.0272  0.7990
   93MOL0     C12701   7.892   7.344   0.673  0.3923  0.3303  0.4494
   93MOL0     C12702   7.807   7.410   0.777 -0.0799  0.6181 -0.0809
   93MOL0     C12703   7.800   7.364   0.904  0.8170  0.1683 -1.0129
   93MOL0     O12704   7.725   7.420   1.008  0.6699 -0.1908  0.7687
   93MOL0     C12705   7.726   7.568   1.011  0.2487  0.0615  0.2862
   93MOL0     C12706   7.753   7.611   1.152  0.6295 -0.3489 -0.0551
   93MOL0     C12707   7.876   7.562   1.225  0.4365 -0.6047  0.3816
   93MOL0     C12708   8.004   7.590   1.145  0.5333  0.9548 -0.2383
   93MOL0     C12709   8.128   7.528   1.202 -0.5917  0.2931 -0.7196
   93MOL0     C12710   8.122   7.376   1.203 -0.4712 -0.2810 -1.0246
   93MOL0     C12711   8.253   7.312   1.261 -0.2788 -0.4354 -0.3295
   93MOL0     C12712   8.368   7.322   1.164 -0.4473 -0.4216  0.2358
   93MOL0     N12713   8.463   7.221   1.156 -0.3755  0.2328 -0.8093
   93MOL0     C12714   8.593   7.249   1.165 -0.6110  0.5514  0.1347
   93MOL0     C12715   8.662   7.131   1.192  0.4384 -0.3368 -0.2229
   93MOL0     C12716   8.804   7.109   1.231 -0.8080 -0.9698 -0.4441
   93MOL0     C12717   8.903   7.101   1.119  0.9514  0.3848  0.6049
   93MOL0     C12718   8.876   6.988   1.014 -0.0376  0.1564 -0.5155
   93MOL0     C12719   8.993   6.983   0.919  0.9571  0.0985 -0.7410
   93MOL0     O12720   9.106   6.933   0.979  0.0619  0.0122  0.0505
   93MOL0     C12721   9.241   6.944   0.937  0.5905  0.0812 -0.5168
   93MOL0     C12722   9.274   7.000   0.823  0.2612  0.4959  0.1842
   93MOL0     C12723   9.398   7.021   0.781 -0.4347 -0.1791  0.4870
   93MOL0     C12724   9.419   7.088   0.646 -0.6113 -0.6132  0.4039
   93MOL0     C12725   9.504   6.960   0.853 -1.4751  0.9630 -0.0062
   93MOL0     C12726   9.649   6.980   0.823  0.1418  1.0690 -0.7133
   93MOL0     O12727   9.733   6.928   0.921  1.0922 -0.6666  0.1149
   93MOL0     C12728   9.864   6.906   0.906 -0.6364 -0.5787  1.3062
   93MOL0     C12729   9.943   6.983   0.826  0.8728  0.6334 -0.3356
   93MOL0     C12730  10.081   6.959   0.822  0.0621  0.6169  0.6157
   93MOL0     C12731  10.140   6.848   0.877 -0.4471  0.8074  0.1174
   93MOL0     O12732  10.274   6.816   0.849  1.1602  0.2268  0.2131
   93MOL0     C12733  10.322   6.690   0.879 -0.4355  0.0855  0.2949
   93MOL0     C12734  10.440   6.675   0.782  0.0039  1.1833 -0.8839
   93MOL0     C12735  10.403   6.659   0.643 -0.5553 -0.0938  0.7466
   93MOL0     C12736  10.530   6.639   0.562 -0.0758  0.2028  0.9716
   93MOL0     C12737  10.485   6.602   0.413 -0.3705  0.0907  0.9031
   93MOL0     C12738  10.606   6.597   0.315  0.1650  0.3365  0.9296
   93MOL0     C12739  10.553   6.549   0.177 -0.2295  0.1393  0.0480
   93MOL0     C12740  10.450   6.440   0.166  0.3138  1.0872  0.1952
   93MOL0    Cl12741  10.526   6.287   0.221 -0.5857 -0.8322 -0.3016
   93MOL0     C12742  10.063   6.767   0.967 -0.4130 -1.5432 -1.1516
   93MOL0     C12743   9.925   6.806   0.984 -0.9957  0.5472  0.1188
   93MOL0     O12744   9.695   7.021   0.717  0.8632  0.7384  0.3554
   93MOL0     C12745   9.478   6.895   0.974 -0.1855  0.6582  0.1930
   93MOL0     C12746   9.345   6.880   1.011 -0.0714 -0.0843 -0.3212
   93MOL0     N12747   8.561   7.033   1.198 -0.5834 -0.4391  0.8940
   93MOL0     N12748   8.441   7.083   1.164 -0.1965 -0.4834 -0.3111
   93MOL0     C12749   7.874   7.242   0.935  0.2468 -0.7290 -0.2558
   93MOL0     C12750   7.965   7.190   0.840 -0.9121 -1.0082  0.4671
   93MOL0     C12751   8.266   7.174   0.505  0.5448  0.1640 -0.0892
   93MOL0     C12752   8.316   7.243   0.400 -0.0162  0.1174  0.0883
   93MOL0     C12753   8.403   7.194   0.304 -0.7249 -0.3311  0.5471
   93MOL0     C12754   8.431   7.053   0.308 -0.4485 -0.9841 -1.1932
   93MOL0     O12755   8.521   7.012   0.218  0.2645  0.0758  0.1072
   93MOL0     C12756   8.555   6.874   0.204 -0.4071 -0.7906  0.2173
   93MOL0     C12757   8.635   6.808   0.319 -0.5638  0.6268  0.3874
   93MOL0     C12758   8.693   6.675   0.284  0.0342  0.3068  0.6455
   93MOL0     C12759   8.598   6.551   0.297 -0.8969  0.3043  0.1479
   93MOL0     C12760   8.529   6.552   0.421  0.2944 -0.3302 -0.2922
   93MOL0     C12761   8.496   6.556   0.534  0.1513  0.4038  0.1544
   93MOL0     C12762   8.372   6.976   0.408  0.4130  0.0921 -0.9368
   93MOL0     C12763   8.307   7.034   0.517 -0.3902 -0.6897  0.4307
   93MOL0     C12764   8.290   6.963   0.647 -0.8479  0.1538 -0.0873
   93MOL0     H12765   7.897   7.393   0.577  0.9597 -0.1294  0.2371
   93MOL0     H12766   7.752   7.497   0.744 -2.9803 -2.0064 -2.8265
   93MOL0     H12767   7.636   7.610   0.965  3.3229  1.9884 -4.8253
   93MOL0     H12768   7.810   7.604   0.951 -1.4222 -0.6576 -2.6689
   93MOL0     H12769   7.754   7.720   1.162  1.5240 -0.4847  1.7961
   93MOL0     H12770   7.661   7.585   1.206  1.4416 -1.0023  1.0751
   93MOL0     H12771   7.875   7.612   1.322 -0.5678  1.0549 -0.4265
   93MOL0     H12772   7.865   7.457   1.250  1.5895 -0.5290  1.3083
   93MOL0     H12773   7.987   7.556   1.042 -2.3470 -2.1508  1.0843
   93MOL0     H12774   8.028   7.697   1.148 -0.8641  1.2818  0.2575
   93MOL0     H12775   8.137   7.563   1.305 -0.9533 -0.8375 -0.2956
   93MOL0     H12776   8.222   7.558   1.154  0.3277  2.0332  1.9163
   93MOL0     H12777   8.039   7.340   1.265 -1.1593 -1.1581 -2.3903
   93MOL0     H12778   8.096   7.330   1.107 -2.2652  1.0123 -1.2093
   93MOL0     H12779   8.224   7.209   1.284  2.1574 -1.6294 -2.2593
   93MOL0     H12780   8.291   7.361   1.351 -4.1011  0.5537  0.9596
   93MOL0     H12781   8.314   7.324   1.069  0.6577  1.6213 -0.4018
   93MOL0     H12782   8.413   7.421   1.176 -4.6395  1.9271 -1.0508
   93MOL0     H12783   8.653   7.339   1.153  1.5016 -0.8153 -0.0546
   93MOL0     H12784   8.825   7.012   1.278  0.4236 -0.8548 -0.7137
   93MOL0     H12785   8.839   7.187   1.299 -1.0747 -0.6556 -0.6640
   93MOL0     H12786   8.926   7.199   1.077  1.3322 -1.3892 -3.9104
   93MOL0     H12787   9.002   7.074   1.156  1.1850  0.5223  0.0946
   93MOL0     H12788   8.849   6.897   1.069  0.1993  0.3401 -0.0917
   93MOL0     H12789   8.801   7.033   0.948  0.0162  0.7390 -0.1838
   93MOL0     H12790   8.967   6.923   0.831 -0.4707  2.6796 -2.1799
   93MOL0     H12791   9.026   7.084   0.895 -0.7317  0.8447 -0.0408
   93MOL0     H12792   9.193   7.035   0.759  0.5052 -0.7531 -0.8402
   93MOL0     H12793   9.481   7.020   0.587 -1.2695 -0.0473 -0.9680
   93MOL0     H12794   9.459   7.190   0.655 -0.5443 -0.7309  1.6213
   93MOL0     H12795   9.324   7.099   0.594 -0.3942 -0.6057  0.0048
   93MOL0     H12796   9.891   7.072   0.794  0.6863  1.7694  2.8010
   93MOL0     H12797  10.148   7.018   0.761 -0.5987 -0.7467 -1.5346
   93MOL0     H12798  10.366   6.688   0.979 -0.8954 -0.7616  0.4882
   93MOL0     H12799  10.240   6.619   0.867 -2.5843  2.2244  1.3624
   93MOL0     H12800  10.507   6.760   0.799  0.7736  0.0231  2.5266
   93MOL0     H12801  10.507   6.594   0.811  1.7089  2.6305 -0.5876
   93MOL0     H12802  10.360   6.752   0.605 -2.1238 -1.4861 -1.1100
   93MOL0     H12803  10.333   6.578   0.620  1.4358 -1.4650 -0.9479
   93MOL0     H12804  10.577   6.545   0.592 -2.2469 -0.1409  3.7429
   93MOL0     H12805  10.609   6.713   0.578 -1.6759  2.2811 -0.2570
   93MOL0     H12806  10.445   6.501   0.413 -1.0630  0.2262 -2.7613
   93MOL0     H12807  10.409   6.667   0.368  1.3706  0.7802 -1.2452
   93MOL0     H12808  10.686   6.530   0.344 -0.2851  0.0162  1.4463
   93MOL0     H12809  10.639   6.699   0.292 -3.4157  1.4181 -0.2188
   93MOL0     H12810  10.629   6.521   0.104  0.2654 -5.2114  2.2252
   93MOL0     H12811  10.502   6.639   0.141 -0.9132  0.6335  2.1123
   93MOL0     H12812  10.434   6.421   0.059  1.9633 -0.7925  0.2179
   93MOL0     H12813  10.356   6.467   0.214 -0.7530  2.7734 -2.5882
   93MOL0     H12814  10.113   6.698   1.035  0.0309  0.9424  1.1985
   93MOL0     H12815   9.867   6.749   1.055  0.9453 -1.2204  0.3841
   93MOL0     H12816   9.552   6.858   1.045  1.3845 -0.5364 -1.9645
   93MOL0     H12817   9.328   6.821   1.101  3.0536 -1.6721 -0.6349
   93MOL0     H12818   7.871   7.186   1.028 -1.2580  1.1142  0.8774
   93MOL0     H12819   8.037   7.112   0.862 -0.3133 -0.5666  0.1125
   93MOL0     H12820   8.294   7.349   0.391 -0.7020  0.0408  0.7834
   93MOL0     H12821   8.447   7.255   0.226  0.0572 -4.1523 -2.3174
   93MOL0     H12822   8.471   6.808   0.180  0.4716 -1.6685 -0.4648
   93MOL0     H12823   8.633   6.881   0.128  0.2765 -1.7698  0.8183
   93MOL0     H12824   8.574   6.811   0.410 -1.8732  1.2822 -0.4748
   93MOL0     H12825   8.718   6.874   0.344  0.0702 -0.5453  1.4994
   93MOL0     H12826   8.712   6.664   0.176 -1.7515  3.0426 -0.0439
   93MOL0     H12827   8.789   6.659   0.335  0.4482 -0.1877 -0.2583
   93MOL0     H12828   8.664   6.463   0.302  1.4572  2.0431  2.2390
   93MOL0     H12829   8.536   6.527   0.210  0.4694  0.7925 -1.0032
   93MOL0     H12830   8.447   6.571   0.628  3.1894  1.6909  1.6772
   93MOL0     H12831   8.386   6.869   0.414 -0.0154 -0.0708 -2.3862
   93MOL0     H12832   8.362   6.881   0.639  1.4083  1.8810  1.2904
   93MOL0     H12833   8.326   7.023   0.731  2.3464 -0.1195 -1.1277
   93MOL0     H12834   8.186   6.930   0.658 -1.3208  1.9410  1.3489
   94MOL0     O12835   2.629   6.892  11.337  0.3023 -0.4219 -0.2723
   94MOL0     C12836   2.603   6.863  11.454  0.3371 -0.4649  0.4665
   94MOL0     O12837   2.692   6.878  11.562  0.2224 -0.0624 -0.8449
   94MOL0     C12838   2.811   6.936  11.532 -0.1489  0.0388  0.2462
   94MOL0     C12839   2.812   7.079  11.507  0.8821  0.0270  0.0853
   94MOL0     C12840   2.907   7.143  11.443 -0.5350 -0.1152  0.6793
   94MOL0     C12841   3.012   7.068  11.389 -0.7684  0.1271 -0.2248
   94MOL0     O12842   3.119   7.125  11.314  1.1838  0.1782 -0.5301
   94MOL0     C12843   3.241   7.136  11.388  0.4561 -0.1364 -0.3998
   94MOL0     C12844   3.239   7.241  11.499  1.0972  0.6615  0.5705
   94MOL0     C12845   3.368   7.321  11.517  0.6444  0.5944 -0.4836
   94MOL0     C12846   3.471   7.262  11.615 -0.4010 -0.3720  1.2595
   94MOL0     C12847   3.591   7.354  11.650  0.0460 -0.0659 -0.2471
   94MOL0     C12848   3.628   7.451  11.541 -0.1922  0.3590  0.8032
   94MOL0     C12849   3.742   7.541  11.570 -0.4917  0.3577 -0.4013
   94MOL0     C12850   3.723   7.618  11.703  0.3848 -0.1155  1.0270
   94MOL0     N12851   3.808   7.735  11.715 -0.0733 -1.2303  0.4235
   94MOL0     C12852   3.767   7.862  11.679 -0.5727 -0.4291  1.1056
   94MOL0     C12853   3.879   7.940  11.689  1.3786  0.1142 -0.2229
   94MOL0     C12854   3.897   8.085  11.651 -0.6866 -0.4214  1.0422
   94MOL0     C12855   3.948   8.157  11.784  0.9228  0.3663  0.1362
   94MOL0     C12856   3.871   8.125  11.913 -0.1655 -0.4959 -0.6376
   94MOL0     C12857   3.723   8.150  11.920  0.3282 -0.3475 -1.0549
   94MOL0     O12858   3.681   8.152  12.060 -0.3981 -0.3211  0.0704
   94MOL0     C12859   3.676   8.033  12.118  1.0682 -0.7689 -0.1181
   94MOL0     C12860   3.600   7.926  12.071 -0.3187 -0.0707  0.3523
   94MOL0     C12861   3.585   7.802  12.138  0.8082 -0.4429 -1.2020
   94MOL0     C12862   3.503   7.693  12.076  0.7122  0.3176  0.0954
   94MOL0     C12863   3.637   7.786  12.267 -0.5952  0.6102 -0.4953
   94MOL0     C12864   3.622   7.668  12.354 -0.4162  0.1934 -0.7818
   94MOL0     O12865   3.515   7.599  12.363 -0.0412  0.4970  0.1423
   94MOL0     C12866   3.513   7.480  12.431 -0.1685 -0.2395 -0.9645
   94MOL0     C12867   3.613   7.377  12.422  0.3849  0.2906 -0.4421
   94MOL0     C12868   3.605   7.259  12.491  0.2314  0.3877 -1.0678
   94MOL0     C12869   3.498   7.233  12.580 -0.4584  0.0798  0.3104
   94MOL0     O12870   3.500   7.107  12.644  1.3108 -0.1505 -0.1667
   94MOL0     C12871   3.380   7.036  12.660 -0.2336  0.2557  0.5292
   94MOL0     C12872   3.404   6.901  12.724  0.5317 -0.2413 -0.3149
   94MOL0     C12873   3.457   6.916  12.870  0.1424 -0.5100  0.7027
   94MOL0     C12874   3.558   6.808  12.892 -0.4507  0.2975  0.4035
   94MOL0     C12875   3.495   6.674  12.896  0.2431  0.0841 -0.9939
   94MOL0     C12876   3.392   6.656  13.016 -1.0739  0.4646  0.2742
   94MOL0     C12877   3.363   6.505  13.030 -0.1396 -0.0264  0.2997
   94MOL0     C12878   3.210   6.476  13.057 -0.4084  0.6731 -0.4749
   94MOL0    Cl12879   3.171   6.573  13.201  0.2611 -0.4359 -0.1944
   94MOL0     C12880   3.394   7.330  12.573 -0.2381 -0.1787 -0.4528
   94MOL0     C12881   3.397   7.449  12.505 -0.3398 -0.2672 -0.6777
   94MOL0     O12882   3.724   7.645  12.420 -0.7117  0.6233 -0.4428
   94MOL0     C12883   3.710   7.890  12.317  0.0445 -0.7194 -0.2274
   94MOL0     C12884   3.726   8.019  12.249 -0.2240  0.5011 -0.5303
   94MOL0     N12885   3.985   7.864  11.727 -0.2806  0.0725  0.4663
   94MOL0     N12886   3.937   7.749  11.747  0.0942  0.5442 -0.6005
   94MOL0     C12887   3.028   6.932  11.420  0.6780 -0.5090 -0.5029
   94MOL0     C12888   2.927   6.863  11.489  0.8626 -0.1228  0.7461
   94MOL0     C12889   2.467   6.826  11.493 -0.1187  0.8537  0.5995
   94MOL0     C12890   2.435   6.850  11.628 -0.4359  0.5701  0.2085
   94MOL0     C12891   2.317   6.805  11.684 -0.3541  0.1447 -0.6009
   94MOL0     C12892   2.222   6.743  11.609  0.8987  0.0673  0.0211
   94MOL0     O12893   2.104   6.684  11.656  0.4444  0.3612  0.3310
   94MOL0     C12894   2.068   6.713  11.794 -0.1822 -0.0408 -0.3678
   94MOL0     C12895   1.921   6.678  11.838  0.4337 -0.5597  0.0233
   94MOL0     C12896   1.905   6.530  11.794 -0.0923  0.4079 -0.0482
   94MOL0     C12897   1.784   6.463  11.852  0.2091  0.1294 -0.5623
   94MOL0     C12898   1.767   6.321  11.810 -0.7026  0.0810  0.4159
   94MOL0     C12899   1.760   6.196  11.791 -0.7086 -0.2790  0.2723
   94MOL0     C12900   2.256   6.720  11.480 -0.2073 -0.2723 -0.8006
   94MOL0     C12901   2.374   6.755  11.419 -0.2957  0.8977  0.2524
   94MOL0     C12902   2.399   6.718  11.278 -0.0015  0.1172 -0.4016
   94MOL0     H12903   2.724   7.142  11.521  2.4634  3.1138 -2.5068
   94MOL0     H12904   2.904   7.248  11.413 -3.8924 -0.6081 -1.3049
   94MOL0     H12905   3.316   7.149  11.309 -0.9594 -3.4617 -2.5686
   94MOL0     H12906   3.260   7.041  11.440  1.6062  0.9963  1.3466
   94MOL0     H12907   3.159   7.315  11.487  0.8763  0.7146  2.1852
   94MOL0     H12908   3.216   7.198  11.596 -0.0451  2.2692  1.0614
   94MOL0     H12909   3.410   7.329  11.416 -1.6689  0.5357 -1.5102
   94MOL0     H12910   3.346   7.424  11.546  2.1744  1.2147 -1.4052
   94MOL0     H12911   3.427   7.228  11.710 -2.4195  1.1060  0.9234
   94MOL0     H12912   3.507   7.174  11.560 -0.6881  1.5066 -2.2012
   94MOL0     H12913   3.672   7.296  11.693  0.7743  3.6992  4.2602
   94MOL0     H12914   3.556   7.416  11.733 -0.6294  0.5511 -0.9666
   94MOL0     H12915   3.670   7.388  11.462 -3.6369 -1.5265  0.2493
   94MOL0     H12916   3.550   7.519  11.506  0.9752 -0.1916 -3.3598
   94MOL0     H12917   3.749   7.615  11.490  0.5600  0.5159 -0.1835
   94MOL0     H12918   3.832   7.478  11.572 -0.4945  0.3320  2.3276
   94MOL0     H12919   3.622   7.661  11.703  0.6115  0.4667 -0.6806
   94MOL0     H12920   3.744   7.553  11.789  2.3796 -1.7313 -0.5737
   94MOL0     H12921   3.677   7.911  11.645  0.0502  2.9207  3.6763
   94MOL0     H12922   3.800   8.117  11.610 -0.1494 -1.0662 -0.8259
   94MOL0     H12923   3.958   8.115  11.566 -3.6449 -2.5117 -2.0661
   94MOL0     H12924   4.055   8.133  11.795  0.4742 -1.3519  1.1838
   94MOL0     H12925   3.937   8.264  11.765  0.4385 -0.2058 -3.3100
   94MOL0     H12926   3.876   8.018  11.936  0.2918  0.0686  2.4456
   94MOL0     H12927   3.915   8.171  12.002 -1.3595 -1.3102  0.4227
   94MOL0     H12928   3.711   8.253  11.887 -0.0565  1.1600  3.1793
   94MOL0     H12929   3.665   8.091  11.849  0.8327 -0.2316 -1.5705
   94MOL0     H12930   3.555   7.938  11.972 -0.4321  2.3080  0.6430
   94MOL0     H12931   3.569   7.606  12.074  0.6519  0.2325  1.0705
   94MOL0     H12932   3.470   7.714  11.974  0.1187 -0.6018  0.0861
   94MOL0     H12933   3.419   7.662  12.139  0.5905 -1.2303 -0.8009
   94MOL0     H12934   3.705   7.397  12.367  1.0360 -3.1412 -0.8222
   94MOL0     H12935   3.678   7.179  12.483 -0.0523  0.1648 -1.4349
   94MOL0     H12936   3.323   7.107  12.721  1.2425  3.1995 -1.2983
   94MOL0     H12937   3.329   7.020  12.564 -1.1841 -1.9862  1.3596
   94MOL0     H12938   3.315   6.838  12.721  2.1190 -2.7002  0.8366
   94MOL0     H12939   3.481   6.860  12.658  0.8899  1.5628 -1.0647
   94MOL0     H12940   3.379   6.925  12.945  1.0607 -0.2981  1.6574
   94MOL0     H12941   3.515   7.008  12.876 -0.3689 -0.1516  0.2563
   94MOL0     H12942   3.617   6.825  12.983  1.3290 -0.5666 -0.5373
   94MOL0     H12943   3.635   6.808  12.815  0.5770 -1.0851  1.3820
   94MOL0     H12944   3.431   6.655  12.810 -1.9498  2.4187 -0.0104
   94MOL0     H12945   3.585   6.612  12.905  0.4778  0.1348 -2.7311
   94MOL0     H12946   3.300   6.715  13.011 -0.1250  2.4587  3.3938
   94MOL0     H12947   3.437   6.674  13.114 -1.0538 -0.9457  0.5512
   94MOL0     H12948   3.422   6.462  13.111 -0.9123  0.5093  1.1715
   94MOL0     H12949   3.387   6.448  12.939  0.4585  0.3957  0.1838
   94MOL0     H12950   3.183   6.370  13.068  2.7615 -0.2519 -0.7009
   94MOL0     H12951   3.150   6.512  12.973 -0.7212  0.7332 -0.2291
   94MOL0     H12952   3.305   7.304  12.630  0.7329 -2.3528  0.1651
   94MOL0     H12953   3.308   7.509  12.520 -1.1760 -1.8831  1.2493
   94MOL0     H12954   3.766   7.885  12.410  0.8862  1.8019 -0.5222
   94MOL0     H12955   3.780   8.107  12.282 -0.5516 -0.2798  2.3923
   94MOL0     H12956   3.118   6.882  11.385  1.7137  0.2983  0.8825
   94MOL0     H12957   2.934   6.755  11.496  0.2170 -0.0952  2.3676
   94MOL0     H12958   2.504   6.904  11.693  1.9042 -1.8328 -0.0779
   94MOL0     H12959   2.310   6.829  11.790 -1.2011  3.8376 -1.3640
   94MOL0     H12960   2.136   6.661  11.862 -0.5655  0.1709  0.1802
   94MOL0     H12961   2.080   6.816  11.828  1.9415 -0.3058 -0.1775
   94MOL0     H12962   1.849   6.751  11.800  2.2970  0.2022 -2.2408
   94MOL0     H12963   1.909   6.682  11.947  0.1872 -0.0758 -0.0202
   94MOL0     H12964   1.880   6.522  11.687 -4.0455 -0.5437  0.7866
   94MOL0     H12965   1.995   6.470  11.810  0.0166  0.5138 -0.2568
   94MOL0     H12966   1.698   6.526  11.827 -0.6851 -1.2067 -0.9461
   94MOL0     H12967   1.800   6.471  11.960  0.7892 -0.1836 -0.6216
   94MOL0     H12968   1.738   6.092  11.793 -0.5234 -0.3154  0.3969
   94MOL0     H12969   2.180   6.668  11.423  0.3855 -0.4545 -1.4504
   94MOL0     H12970   2.324   6.652  11.233  0.4577 -0.0750 -0.8945
   94MOL0     H12971   2.395   6.812  11.223 -4.6799  2.7417  3.6742
   94MOL0     H12972   2.487   6.654  11.265 -2.5369 -3.6380 -0.5523
   95MOL0     O12973   9.389   5.636   4.709  0.2331  0.2687  0.0213
   95MOL0     C12974   9.493   5.646   4.773 -0.6300 -0.0473  0.4391
   95MOL0     O12975   9.588   5.542   4.788  0.3960  0.2010  0.7879
   95MOL0     C12976   9.595   5.453   4.679 -0.4157 -0.0898  0.1934
   95MOL0     C12977   9.667   5.497   4.562  0.0447 -1.4695 -0.2521
   95MOL0     C12978   9.696   5.410   4.458 -0.1121  0.3311 -0.5676
   95MOL0     C12979   9.656   5.278   4.471  0.5119 -0.0258 -0.7547
   95MOL0     O12980   9.672   5.185   4.369 -0.1103 -0.6947 -0.1400
   95MOL0     C12981   9.671   5.235   4.235 -0.0745  0.2306  0.6247
   95MOL0     C12982   9.521   5.263   4.201  1.1057 -0.2353 -0.1575
   95MOL0     C12983   9.524   5.317   4.050 -0.1542 -0.9176 -1.0115
   95MOL0     C12984   9.388   5.390   4.005 -0.0113 -0.5332 -0.7099
   95MOL0     C12985   9.385   5.399   3.849  0.5584  0.3757 -0.2032
   95MOL0     C12986   9.247   5.440   3.793  0.0074 -0.1428 -0.7899
   95MOL0     C12987   9.219   5.587   3.834  0.4110  0.1666  0.6036
   95MOL0     C12988   9.092   5.649   3.777 -0.4606  0.6439  0.3522
   95MOL0     N12989   9.103   5.789   3.797  0.2317 -0.6374 -0.4166
   95MOL0     C12990   9.009   5.858   3.876 -0.1615 -0.6044 -0.6340
   95MOL0     C12991   9.057   5.988   3.880 -0.4375  0.1056 -0.5754
   95MOL0     C12992   8.998   6.102   3.963  0.2197  0.2746  0.3905
   95MOL0     C12993   9.103   6.198   4.032  0.1821 -0.3400 -0.8486
   95MOL0     C12994   9.026   6.314   4.103 -0.7033  0.4527  0.2795
   95MOL0     C12995   8.989   6.286   4.243  0.4060  0.1676  0.1203
   95MOL0     O12996   8.899   6.179   4.249  0.2298 -0.2766  0.0648
   95MOL0     C12997   8.772   6.213   4.283 -0.4657 -0.6059 -0.0338
   95MOL0     C12998   8.733   6.194   4.413  0.4344  0.0211 -0.4054
   95MOL0     C12999   8.612   6.244   4.460  1.1653  0.1961 -1.2513
   95MOL0     C13000   8.592   6.232   4.615 -0.3085 -0.3050  0.6403
   95MOL0     C13001   8.515   6.301   4.368 -0.8289  0.7959  0.0721
   95MOL0     C13002   8.389   6.357   4.416 -0.6171  0.5761  1.2601
   95MOL0     O13003   8.331   6.463   4.350 -0.0593  0.3157  0.0969
   95MOL0     C13004   8.214   6.521   4.381  0.4745  0.3835 -0.5346
   95MOL0     C13005   8.168   6.618   4.286 -0.0694  1.6249 -0.1793
   95MOL0     C13006   8.056   6.692   4.321  0.9716  0.4930 -0.0876
   95MOL0     C13007   7.981   6.682   4.442 -0.1357  0.8549 -0.3773
   95MOL0     O13008   7.863   6.756   4.472 -0.5649  0.2229 -0.5589
   95MOL0     C13009   7.830   6.866   4.397  0.2888 -0.5846  0.2754
   95MOL0     C13010   7.730   6.944   4.494 -0.2318 -0.0230  0.3050
   95MOL0     C13011   7.615   6.889   4.568  0.4815  0.5474 -0.9221
   95MOL0     C13012   7.638   6.805   4.698  0.3139 -0.9779 -0.1949
   95MOL0     C13013   7.496   6.756   4.743  0.3686  0.0107 -0.7631
   95MOL0     C13014   7.500   6.705   4.893 -0.5961 -0.5923  0.4189
   95MOL0     C13015   7.613   6.596   4.924 -0.4360  0.6028 -0.0905
   95MOL0     C13016   7.570   6.509   5.035 -0.4285 -0.0150  0.5011
   95MOL0    Cl13017   7.589   6.591   5.188  0.2555 -0.5682 -0.0241
   95MOL0     C13018   8.034   6.589   4.529  1.2890 -0.2559 -0.4735
   95MOL0     C13019   8.139   6.498   4.505 -0.9853 -0.4075  1.0475
   95MOL0     O13020   8.331   6.290   4.506 -0.4018 -0.5300  0.1362
   95MOL0     C13021   8.562   6.309   4.230 -1.2133  0.9155  0.1957
   95MOL0     C13022   8.690   6.277   4.193 -0.0299  1.1679 -0.4352
   95MOL0     N13023   9.181   5.988   3.808  0.1967 -0.1648 -0.5006
   95MOL0     N13024   9.198   5.881   3.757 -0.5807  0.2301  0.5405
   95MOL0     C13025   9.598   5.232   4.593  0.1398  0.7209  0.0123
   95MOL0     C13026   9.560   5.316   4.693 -0.4814 -0.1055  1.0654
   95MOL0     C13027   9.504   5.756   4.868 -0.2569 -0.8114 -0.2077
   95MOL0     C13028   9.626   5.772   4.942  0.7775  0.5427 -0.1687
   95MOL0     C13029   9.632   5.866   5.048 -0.6192 -0.2636  0.0614
   95MOL0     C13030   9.529   5.956   5.067 -0.1825 -1.3871 -0.8056
   95MOL0     O13031   9.525   6.064   5.158  0.6695 -0.0069 -0.0761
   95MOL0     C13032   9.640   6.087   5.237  0.1179 -0.1856 -0.2783
   95MOL0     C13033   9.727   6.180   5.160 -0.6741  0.1742 -0.0036
   95MOL0     C13034   9.657   6.303   5.108  0.1028  0.1977 -0.3871
   95MOL0     C13035   9.765   6.388   5.041  0.1473  0.1836  1.1552
   95MOL0     C13036   9.783   6.353   4.898 -0.4902 -0.1009 -0.5102
   95MOL0     C13037   9.775   6.298   4.794  0.9720  0.1178 -0.2567
   95MOL0     C13038   9.411   5.931   4.995 -0.1095 -0.5488  0.6538
   95MOL0     C13039   9.395   5.839   4.897  0.3672  0.5339 -0.2666
   95MOL0     C13040   9.245   5.826   4.849 -0.3741 -0.0814  0.5644
   95MOL0     H13041   9.686   5.603   4.550 -2.2690 -0.9072  0.6038
   95MOL0     H13042   9.739   5.452   4.368  2.4346 -0.4699  0.1947
   95MOL0     H13043   9.701   5.155   4.166 -1.5432  0.0771  0.1382
   95MOL0     H13044   9.735   5.320   4.206 -2.2257  1.8165  0.2949
   95MOL0     H13045   9.453   5.177   4.200  2.1532 -1.0913  0.0309
   95MOL0     H13046   9.469   5.344   4.252  1.6799  0.4864 -0.7053
   95MOL0     H13047   9.610   5.382   4.032  0.9163 -1.8402  0.5151
   95MOL0     H13048   9.537   5.231   3.984 -3.5961 -1.6243 -0.9677
   95MOL0     H13049   9.308   5.329   4.048  0.7567  0.2740  2.0889
   95MOL0     H13050   9.378   5.485   4.058 -0.6617 -0.6417 -0.6250
   95MOL0     H13051   9.416   5.302   3.810 -1.6159 -0.1188 -0.8314
   95MOL0     H13052   9.467   5.469   3.832  1.3342 -0.2943  0.6496
   95MOL0     H13053   9.236   5.441   3.684 -0.6053 -1.7391 -0.7586
   95MOL0     H13054   9.165   5.381   3.834  1.2492 -1.7562 -0.5595
   95MOL0     H13055   9.309   5.633   3.791  0.9939  0.2482  1.8683
   95MOL0     H13056   9.216   5.593   3.943  0.3833 -0.5546  0.6475
   95MOL0     H13057   9.080   5.629   3.670 -1.8879  3.1910 -0.0611
   95MOL0     H13058   9.008   5.598   3.824 -2.7232  1.7752 -2.1817
   95MOL0     H13059   8.927   5.818   3.934 -1.7084  0.4614 -2.0136
   95MOL0     H13060   8.917   6.056   4.020 -2.4058 -1.1102 -3.9414
   95MOL0     H13061   8.954   6.161   3.881  0.8653  0.0416 -0.1335
   95MOL0     H13062   9.168   6.145   4.102  0.8333  0.1364 -1.0758
   95MOL0     H13063   9.176   6.240   3.962 -0.4957 -0.1195 -1.4366
   95MOL0     H13064   9.084   6.406   4.114 -3.9618  2.4624  2.1043
   95MOL0     H13065   8.941   6.351   4.044  0.5668  0.5162 -1.5855
   95MOL0     H13066   9.075   6.255   4.304 -1.2604 -0.4938  2.2289
   95MOL0     H13067   8.950   6.377   4.289  2.9369  0.5378  1.7228
   95MOL0     H13068   8.809   6.143   4.470  0.8476 -0.6819 -1.5447
   95MOL0     H13069   8.681   6.274   4.661 -0.4095  2.9371 -1.8307
   95MOL0     H13070   8.575   6.128   4.647  1.0935  0.0955  2.8784
   95MOL0     H13071   8.511   6.289   4.662 -0.0883 -1.2155  2.1997
   95MOL0     H13072   8.220   6.642   4.194 -0.7710  1.2670 -0.6747
   95MOL0     H13073   8.018   6.760   4.245 -2.3585 -1.7945 -0.7087
   95MOL0     H13074   7.917   6.932   4.383 -0.9588  0.9621 -0.4765
   95MOL0     H13075   7.786   6.851   4.298  0.4885 -0.8633  0.2269
   95MOL0     H13076   7.803   6.995   4.557 -1.7513  1.7659  0.6890
   95MOL0     H13077   7.693   7.028   4.435 -1.8567  0.8307  2.4155
   95MOL0     H13078   7.566   6.816   4.504 -1.4800 -1.7184  2.8128
   95MOL0     H13079   7.540   6.965   4.591 -0.6536 -0.6085 -0.6301
   95MOL0     H13080   7.693   6.865   4.771  1.1848 -2.0321  0.0620
   95MOL0     H13081   7.712   6.726   4.679  3.0200  1.7652 -2.0665
   95MOL0     H13082   7.426   6.840   4.745 -1.9695 -1.6686  4.2045
   95MOL0     H13083   7.461   6.674   4.681 -2.9902 -0.4169  1.4546
   95MOL0     H13084   7.403   6.661   4.917 -1.5081  0.9563 -0.2949
   95MOL0     H13085   7.516   6.792   4.956  4.4122 -0.0700 -1.1571
   95MOL0     H13086   7.705   6.646   4.953  0.2519 -0.6549 -0.0328
   95MOL0     H13087   7.641   6.534   4.839 -0.2647  0.8374 -0.2050
   95MOL0     H13088   7.629   6.417   5.033  0.2398  0.3978  0.9002
   95MOL0     H13089   7.466   6.474   5.028 -0.8264 -0.4493  5.2699
   95MOL0     H13090   7.980   6.587   4.624  0.1920 -0.5564 -1.0851
   95MOL0     H13091   8.166   6.429   4.584 -2.7239 -1.0193  1.1558
   95MOL0     H13092   8.494   6.338   4.150 -2.1170  0.6415  0.8595
   95MOL0     H13093   8.709   6.291   4.087  0.0860  1.2769 -0.4002
   95MOL0     H13094   9.556   5.132   4.594 -0.6372  1.0431  0.1929
   95MOL0     H13095   9.495   5.286   4.776 -0.0795  2.7653  2.5453
   95MOL0     H13096   9.719   5.721   4.920  0.0463 -1.3534  0.9268
   95MOL0     H13097   9.727   5.877   5.101 -0.0008  0.4756 -1.1550
   95MOL0     H13098   9.608   6.129   5.333 -2.6662 -1.6256 -0.4756
   95MOL0     H13099   9.694   5.996   5.264  2.4146  1.0867 -0.2793
   95MOL0     H13100   9.776   6.123   5.080  0.3908 -0.3610  1.0059
   95MOL0     H13101   9.810   6.215   5.223 -1.4112 -1.0109  1.7065
   95MOL0     H13102   9.590   6.279   5.025 -3.0177  1.4553  1.6072
   95MOL0     H13103   9.614   6.358   5.192  1.3359 -2.1542  1.9196
   95MOL0     H13104   9.860   6.389   5.095  0.6644  3.1944  0.3713
   95MOL0     H13105   9.721   6.487   5.035 -3.1541 -1.2250 -3.0506
   95MOL0     H13106   9.772   6.252   4.697  3.1117 -0.8750  0.0996
   95MOL0     H13107   9.324   5.987   5.029 -0.1963  0.3286 -0.8989
   95MOL0     H13108   9.183   5.902   4.897  0.4919  0.6834  0.5145
   95MOL0     H13109   9.237   5.854   4.743 -1.8698  1.2974  1.0090
   95MOL0     H13110   9.205   5.725   4.865  1.4015 -1.2835 -1.8188
   96MOL0     O13111  10.337   1.017  11.513 -0.4205 -0.3711 -0.1309
   96MOL0     C13112  10.360   1.122  11.576 -0.7539  0.2745 -0.0523
   96MOL0     O13113  10.317   1.149  11.700  0.1765  0.0433  0.6434
   96MOL0     C13114  10.225   1.063  11.763  0.0914 -0.5926 -0.0258
   96MOL0     C13115  10.085   1.045  11.733 -0.9711 -1.1976  0.6393
   96MOL0     C13116  10.015   0.953  11.804  0.5888  0.5616 -0.4132
   96MOL0     C13117  10.067   0.860  11.891 -1.0126  0.3475  0.4249
   96MOL0     O13118   9.981   0.775  11.950 -0.8505  0.2655  0.2323
   96MOL0     C13119  10.023   0.638  11.933  0.1871  0.3716  0.9092
   96MOL0     C13120   9.954   0.574  11.809 -0.2773  0.7048  0.5578
   96MOL0     C13121  10.029   0.448  11.754 -0.2955 -0.1016 -0.5694
   96MOL0     C13122   9.948   0.400  11.637 -0.5471 -1.2245 -0.8428
   96MOL0     C13123  10.003   0.272  11.572 -0.0723 -0.5762 -0.2546
   96MOL0     C13124   9.976   0.142  11.653  0.1834  0.4531 -0.3141
   96MOL0     C13125  10.042   0.033  11.569 -0.3137  0.3590  0.4028
   96MOL0     C13126  10.016  -0.109  11.623  0.8636  0.0889  0.8402
   96MOL0     N13127  10.076  -0.221  11.550  0.0610  0.8736  0.8485
   96MOL0     C13128  10.212  -0.232  11.521 -0.4484 -0.2761  0.0558
   96MOL0     C13129  10.232  -0.313  11.419 -0.2171  0.1873 -0.1794
   96MOL0     C13130  10.373  -0.342  11.362  0.7037  0.1037  0.0142
   96MOL0     C13131  10.449  -0.220  11.311  0.4750 -0.2528  0.5768
   96MOL0     C13132  10.418  -0.204  11.160  0.3076 -0.3065  0.0424
   96MOL0     C13133  10.463  -0.069  11.109  0.1527 -0.0624  0.2633
   96MOL0     O13134  10.600  -0.084  11.084  0.3334 -0.4792  0.3526
   96MOL0     C13135  10.674   0.006  11.155 -0.9584  0.5545 -0.3519
   96MOL0     C13136  10.663   0.146  11.151  0.3172  0.2484 -1.0554
   96MOL0     C13137  10.748   0.228  11.222  0.3764  0.8381  0.5070
   96MOL0     C13138  10.703   0.373  11.227  0.3140 -0.5155 -0.7165
   96MOL0     C13139  10.859   0.171  11.297 -0.1422  0.5940 -0.2089
   96MOL0     C13140  10.971   0.243  11.364 -0.1396 -0.3733  0.4705
   96MOL0     O13141  11.072   0.174  11.423 -0.0540  0.5284 -0.3687
   96MOL0     C13142  11.139   0.245  11.523 -0.4093  0.3571  0.0448
   96MOL0     C13143  11.076   0.305  11.630 -0.0991 -0.9429  0.9497
   96MOL0     C13144  11.148   0.376  11.725 -0.3450 -0.6737  0.3360
   96MOL0     C13145  11.288   0.368  11.731  0.2462 -0.1891  0.1859
   96MOL0     O13146  11.366   0.436  11.816 -0.0975 -0.0921 -0.3871
   96MOL0     C13147  11.317   0.447  11.957 -0.3067  0.2924  0.7374
   96MOL0     C13148  11.437   0.503  12.040  0.2383 -0.0268  0.2270
   96MOL0     C13149  11.397   0.514  12.185 -0.3270  0.3453  1.0262
   96MOL0     C13150  11.280   0.609  12.210  0.2608 -1.2288  0.3243
   96MOL0     C13151  11.261   0.648  12.360 -0.8121 -0.6846  0.3019
   96MOL0     C13152  11.255   0.524  12.457  0.5234  0.8625  0.1600
   96MOL0     C13153  11.245   0.575  12.601 -0.0895 -0.6099 -0.8432
   96MOL0     C13154  11.258   0.466  12.706 -0.2890  0.4821 -0.4466
   96MOL0    Cl13155  11.087   0.419  12.715 -0.0058  0.3567  0.2085
   96MOL0     C13156  11.348   0.285  11.638 -0.1131  0.2852 -0.5088
   96MOL0     C13157  11.278   0.225  11.533 -0.3243 -0.3909  0.4127
   96MOL0     O13158  10.978   0.365  11.348  0.1401 -0.8559 -0.1078
   96MOL0     C13159  10.872   0.031  11.301 -0.5752  0.0169 -0.8054
   96MOL0     C13160  10.774  -0.051  11.240 -0.1463  0.4314 -1.3169
   96MOL0     N13161  10.106  -0.351  11.384 -0.0587  0.1440  0.4410
   96MOL0     N13162  10.015  -0.297  11.456 -0.3770 -0.4157  0.4005
   96MOL0     C13163  10.203   0.883  11.924 -0.2296  0.6894 -0.0092
   96MOL0     C13164  10.281   0.971  11.859 -0.0519 -0.3861  0.2901
   96MOL0     C13165  10.428   1.242  11.510  0.1392  0.2579 -0.4091
   96MOL0     C13166  10.563   1.238  11.468  0.7382 -1.2822  0.6263
   96MOL0     C13167  10.615   1.347  11.403 -0.1756  0.0857  0.7681
   96MOL0     C13168  10.542   1.461  11.385 -0.4693 -0.4630  0.0424
   96MOL0     O13169  10.588   1.588  11.348 -0.0049  0.3738 -1.1178
   96MOL0     C13170  10.716   1.598  11.277  0.9635  0.2037  0.7323
   96MOL0     C13171  10.716   1.737  11.204 -1.3540  0.9914  0.2475
   96MOL0     C13172  10.840   1.724  11.106  0.4272 -0.4351 -0.1019
   96MOL0     C13173  10.817   1.811  10.986 -0.2295 -0.2727 -0.6911
   96MOL0     C13174  10.937   1.806  10.910  0.2450  0.0859 -0.1602
   96MOL0     C13175  11.037   1.790  10.837  0.4894  0.9447 -0.3894
   96MOL0     C13176  10.413   1.470  11.420  0.1504  0.2075 -0.9169
   96MOL0     C13177  10.350   1.361  11.488  0.9549 -0.5791  0.2462
   96MOL0     C13178  10.204   1.374  11.522 -0.4027 -0.1316  0.8689
   96MOL0     H13179  10.042   1.111  11.658  0.8034  0.5206  1.0544
   96MOL0     H13180   9.911   0.953  11.773  0.8268 -2.3859 -1.5451
   96MOL0     H13181   9.988   0.584  12.022 -1.5669  0.0188  0.0292
   96MOL0     H13182  10.130   0.617  11.944  0.3850 -0.5498 -2.0001
   96MOL0     H13183   9.846   0.557  11.816 -0.6263  0.2421 -3.5097
   96MOL0     H13184   9.962   0.650  11.731  2.5988 -1.7294 -1.7506
   96MOL0     H13185  10.131   0.478  11.729  0.4029 -0.8045  1.2649
   96MOL0     H13186  10.028   0.376  11.837  0.0008  1.7020  1.0680
   96MOL0     H13187   9.846   0.390  11.675 -0.2613 -0.4105  0.1826
   96MOL0     H13188   9.948   0.478  11.561  2.7113  0.4263  0.6364
   96MOL0     H13189  10.111   0.284  11.556 -0.6908  3.0522 -2.9912
   96MOL0     H13190   9.951   0.267  11.476 -2.8640  0.4236  1.1088
   96MOL0     H13191  10.024   0.158  11.750 -0.3903  1.4294 -0.1730
   96MOL0     H13192   9.869   0.130  11.670 -0.2960  0.5739 -2.8842
   96MOL0     H13193  10.151   0.042  11.557 -0.3332 -1.0754 -1.0503
   96MOL0     H13194   9.989   0.034  11.474 -2.3483 -2.1355  1.3950
   96MOL0     H13195  10.049  -0.117  11.727  1.6707  2.2866  0.7920
   96MOL0     H13196   9.907  -0.117  11.617  0.7785  1.1904  0.7629
   96MOL0     H13197  10.295  -0.178  11.565  0.2036  2.1055 -3.7106
   96MOL0     H13198  10.363  -0.411  11.277  1.3977  1.3202 -1.1023
   96MOL0     H13199  10.434  -0.379  11.444 -1.5402 -2.1430  0.7853
   96MOL0     H13200  10.422  -0.130  11.367  0.6458  0.8720 -1.0829
   96MOL0     H13201  10.557  -0.228  11.322  0.7263 -1.2739 -1.9527
   96MOL0     H13202  10.452  -0.287  11.098 -2.0961 -1.9785  0.8336
   96MOL0     H13203  10.310  -0.203  11.146  0.2198  0.2047  0.6825
   96MOL0     H13204  10.414  -0.046  11.014  3.5143 -1.8202 -2.1021
   96MOL0     H13205  10.446   0.007  11.186  2.7528 -0.6997  1.5758
   96MOL0     H13206  10.589   0.193  11.088  1.0334 -1.4909 -3.3225
   96MOL0     H13207  10.739   0.423  11.136 -1.8425  0.3918 -1.1421
   96MOL0     H13208  10.735   0.413  11.324  0.9055 -2.5217 -0.0315
   96MOL0     H13209  10.595   0.386  11.220  0.0942 -0.1262  2.1880
   96MOL0     H13210  10.968   0.304  11.642  0.0042 -0.7856  2.0249
   96MOL0     H13211  11.092   0.427  11.802 -0.1843  1.5871 -0.9542
   96MOL0     H13212  11.236   0.521  11.963  2.0948  3.0563  1.2193
   96MOL0     H13213  11.282   0.347  11.985 -0.2164 -0.1672 -0.6901
   96MOL0     H13214  11.518   0.430  12.035 -0.6537 -0.9540 -2.9628
   96MOL0     H13215  11.469   0.596  11.991  0.1223  0.0858  0.3661
   96MOL0     H13216  11.486   0.536  12.245 -0.6867 -1.6893  2.4002
   96MOL0     H13217  11.364   0.420  12.230  2.8939 -1.4120  0.1169
   96MOL0     H13218  11.187   0.565  12.173 -1.0990  2.7845 -1.6791
   96MOL0     H13219  11.299   0.699  12.151  0.4794 -1.2970  0.2929
   96MOL0     H13220  11.352   0.703  12.386 -1.0202 -0.4088  0.4440
   96MOL0     H13221  11.183   0.721  12.380 -0.9587 -0.0516 -2.2563
   96MOL0     H13222  11.357   0.489  12.445  0.2225  0.8203 -2.9836
   96MOL0     H13223  11.174   0.455  12.433  0.4214  1.8405 -2.6861
   96MOL0     H13224  11.149   0.628  12.607 -2.0128 -3.4394 -3.4703
   96MOL0     H13225  11.334   0.637  12.617  1.8092 -3.3404 -0.1410
   96MOL0     H13226  11.297   0.510  12.798 -2.8946  0.0698  0.9421
   96MOL0     H13227  11.322   0.381  12.677  0.6890  0.1744  2.3247
   96MOL0     H13228  11.454   0.268  11.628 -0.7077 -2.7689 -3.0746
   96MOL0     H13229  11.323   0.161  11.459  1.4510 -0.4457  1.4847
   96MOL0     H13230  10.950  -0.018  11.359  2.0001  2.9733 -1.5097
   96MOL0     H13231  10.786  -0.158  11.250 -0.6139  0.4486 -0.4309
   96MOL0     H13232  10.242   0.806  11.990  0.9241 -0.3897 -1.8664
   96MOL0     H13233  10.385   0.976  11.890 -0.0535 -1.6511  0.5501
   96MOL0     H13234  10.617   1.146  11.489  1.2558 -0.5792  2.7057
   96MOL0     H13235  10.719   1.347  11.373  0.4018  1.7256  2.5310
   96MOL0     H13236  10.791   1.607  11.356 -0.3948  0.8766  1.9907
   96MOL0     H13237  10.730   1.516  11.205 -1.1179  1.2496 -1.0029
   96MOL0     H13238  10.729   1.817  11.277  1.2063  3.0932 -2.3181
   96MOL0     H13239  10.622   1.753  11.150 -3.1276  1.8571  3.3241
   96MOL0     H13240  10.936   1.738  11.155  0.4443  1.3973 -0.5871
   96MOL0     H13241  10.842   1.620  11.071 -2.7947 -0.4483 -0.5932
   96MOL0     H13242  10.817   1.914  11.020  3.5480 -0.9805  2.0294
   96MOL0     H13243  10.726   1.784  10.930  1.3382 -1.7207 -2.7265
   96MOL0     H13244  11.128   1.772  10.782  0.3713 -0.9563 -0.0552
   96MOL0     H13245  10.362   1.560  11.384 -2.3505 -1.9899 -3.4079
   96MOL0     H13246  10.158   1.466  11.485  1.1172 -1.3579 -4.9694
   96MOL0     H13247  10.149   1.286  11.488  0.9984 -1.6965  2.4188
   96MOL0     H13248  10.205   1.381  11.632  0.1580 -3.1576  1.1574
   97MOL0     O13249   5.024   7.043   3.191 -0.7892  0.1101  0.5205
   97MOL0     C13250   4.954   6.948   3.171 -0.3548  0.3161 -0.7712
   97MOL0     O13251   4.909   6.858   3.270 -0.8007 -0.7160  0.7402
   97MOL0     C13252   4.973   6.864   3.390  0.3249  0.6427  0.5967
   97MOL0     C13253   4.899   6.821   3.495  0.4039  0.2518 -0.9325
   97MOL0     C13254   4.938   6.841   3.625 -0.4126 -0.1985  0.2043
   97MOL0     C13255   5.070   6.895   3.651  0.1552 -0.0266  0.8911
   97MOL0     O13256   5.105   6.895   3.782 -0.1642 -0.2573 -0.3014
   97MOL0     C13257   5.221   6.959   3.819  0.0484  0.2022  0.5284
   97MOL0     C13258   5.245   6.960   3.972 -0.2522 -0.4317  0.6097
   97MOL0     C13259   5.220   6.827   4.047 -0.5030  0.2060 -0.0657
   97MOL0     C13260   5.331   6.722   4.016  0.1682  0.4111 -0.0690
   97MOL0     C13261   5.317   6.592   4.096  0.2860  0.1333 -0.9889
   97MOL0     C13262   5.345   6.602   4.246 -0.8610  0.3381  0.3240
   97MOL0     C13263   5.429   6.723   4.300  0.0179 -0.7032 -0.0154
   97MOL0     C13264   5.466   6.700   4.451  0.1193 -0.7651  0.7710
   97MOL0     N13265   5.555   6.804   4.503 -0.0178 -0.4833  0.1366
   97MOL0     C13266   5.622   6.802   4.622 -0.8256 -0.5015 -0.3728
   97MOL0     C13267   5.679   6.931   4.621 -0.3363  0.7330 -0.2195
   97MOL0     C13268   5.786   6.999   4.710  0.0480 -0.6596  0.3873
   97MOL0     C13269   5.920   6.943   4.684 -0.0097 -0.6922  0.7470
   97MOL0     C13270   6.030   6.992   4.776  0.6852  0.2517  0.3016
   97MOL0     C13271   6.165   6.900   4.773 -0.0617 -1.0608 -0.2983
   97MOL0     O13272   6.182   6.853   4.641 -0.9142  0.1058  0.6950
   97MOL0     C13273   6.253   6.738   4.655 -0.4089  0.5444  0.0694
   97MOL0     C13274   6.367   6.717   4.736 -0.4667 -0.3940 -0.0080
   97MOL0     C13275   6.440   6.594   4.742  0.5540  0.3526 -0.1576
   97MOL0     C13276   6.567   6.601   4.821 -0.1421 -0.9251 -0.0794
   97MOL0     C13277   6.377   6.475   4.685  0.2317 -0.7429  0.3985
   97MOL0     C13278   6.436   6.339   4.684 -0.2506 -0.3069 -0.2604
   97MOL0     O13279   6.374   6.252   4.605 -0.2846 -0.8012  0.3548
   97MOL0     C13280   6.446   6.144   4.559  0.1801  0.5303  0.6058
   97MOL0     C13281   6.489   6.131   4.428  0.6793  0.3839 -0.0206
   97MOL0     C13282   6.571   6.026   4.384  0.5413  0.1957 -0.5991
   97MOL0     C13283   6.614   5.936   4.476  0.1621  0.3919  0.1838
   97MOL0     O13284   6.701   5.844   4.431  0.6816 -0.2825  0.7091
   97MOL0     C13285   6.812   5.806   4.508  0.6307 -0.0824  0.6103
   97MOL0     C13286   6.907   5.707   4.451 -0.6277 -0.5801 -0.0892
   97MOL0     C13287   6.975   5.733   4.312  0.1737  0.1078 -0.4079
   97MOL0     C13288   7.042   5.873   4.302 -0.1720 -0.2567  0.3583
   97MOL0     C13289   7.091   5.888   4.154  0.1757  0.0139  0.5385
   97MOL0     C13290   7.161   6.018   4.146  0.0516  0.6878  0.2862
   97MOL0     C13291   7.223   6.044   4.012 -0.6477  0.4266 -0.2577
   97MOL0     C13292   7.252   6.189   3.996  0.4357  0.0219  0.1080
   97MOL0    Cl13293   7.329   6.265   4.137  0.0094  0.2030 -0.1232
   97MOL0     C13294   6.568   5.940   4.609 -0.1996 -0.1502  1.0771
   97MOL0     C13295   6.474   6.042   4.649 -0.4769  0.3124  0.3514
   97MOL0     O13296   6.543   6.317   4.744  0.4770 -0.5156  0.5124
   97MOL0     C13297   6.263   6.510   4.603 -0.2840  0.4851 -1.3160
   97MOL0     C13298   6.202   6.635   4.592 -0.4496  0.0664  0.0417
   97MOL0     N13299   5.646   6.990   4.507 -0.4050  0.7706  0.3016
   97MOL0     N13300   5.573   6.922   4.434 -0.0567  0.4144 -0.2030
   97MOL0     C13301   5.155   6.908   3.539  0.0821 -0.2673  0.4498
   97MOL0     C13302   5.110   6.895   3.411  0.6983 -0.5227  0.1178
   97MOL0     C13303   4.918   6.929   3.033 -0.7104  0.1204  0.1926
   97MOL0     C13304   5.006   6.979   2.936 -1.2204 -0.3584  0.4266
   97MOL0     C13305   5.006   6.931   2.801  0.2771  0.1801  0.2965
   97MOL0     C13306   4.896   6.852   2.755  0.9519 -0.5093 -0.8496
   97MOL0     O13307   4.870   6.809   2.626  0.4318  0.4086  0.4779
   97MOL0     C13308   4.970   6.827   2.523  0.4695  0.3843 -0.4916
   97MOL0     C13309   5.064   6.710   2.547 -0.2314  0.1985  0.1708
   97MOL0     C13310   5.187   6.734   2.447  0.5201 -0.8701 -0.8197
   97MOL0     C13311   5.249   6.594   2.421 -0.9642 -1.2760 -0.0742
   97MOL0     C13312   5.378   6.581   2.342  0.1814 -0.0334  0.3990
   97MOL0     C13313   5.477   6.550   2.277 -0.4278 -0.3125  0.4835
   97MOL0     C13314   4.800   6.814   2.847 -0.7806 -0.2114  0.5306
   97MOL0     C13315   4.817   6.839   2.985  0.1593  0.3003 -0.6249
   97MOL0     C13316   4.715   6.760   3.075  0.2255 -0.8059  0.8806
   97MOL0     H13317   4.797   6.784   3.484  0.6247  0.2342 -3.5571
   97MOL0     H13318   4.875   6.820   3.711 -2.5312 -0.6615 -1.4126
   97MOL0     H13319   5.219   7.061   3.779 -3.0077 -0.5356 -1.5661
   97MOL0     H13320   5.306   6.915   3.765 -2.6176  0.9025 -4.9033
   97MOL0     H13321   5.348   6.997   3.981 -0.5434  0.3215  0.9906
   97MOL0     H13322   5.179   7.036   4.015 -0.0036 -0.6439  1.3680
   97MOL0     H13323   5.227   6.848   4.154  1.4600 -0.2183 -0.0677
   97MOL0     H13324   5.118   6.792   4.033 -0.5388 -0.8546  2.2789
   97MOL0     H13325   5.315   6.714   3.908  1.6768  0.7785 -0.3420
   97MOL0     H13326   5.426   6.766   4.044 -0.8607  0.7184  3.4293
   97MOL0     H13327   5.395   6.523   4.060  0.2816  1.3126 -3.4864
   97MOL0     H13328   5.221   6.544   4.078  1.0766 -2.5051  1.1045
   97MOL0     H13329   5.249   6.596   4.298  0.2001 -0.8142  2.2751
   97MOL0     H13330   5.404   6.516   4.279 -1.3712  1.5182  4.9984
   97MOL0     H13331   5.377   6.819   4.301 -3.0772 -2.2285  1.6134
   97MOL0     H13332   5.517   6.715   4.236  0.0447 -2.9314  0.2098
   97MOL0     H13333   5.380   6.702   4.518 -0.0245  1.1016  0.5829
   97MOL0     H13334   5.514   6.603   4.466 -0.1266 -1.1940 -0.9955
   97MOL0     H13335   5.620   6.723   4.697 -2.3733 -0.6468 -0.5438
   97MOL0     H13336   5.761   6.959   4.809 -2.1960  0.2423  0.2350
   97MOL0     H13337   5.780   7.108   4.702 -2.6424 -0.7642  0.2519
   97MOL0     H13338   5.910   6.835   4.701 -1.3090 -0.8947 -0.9296
   97MOL0     H13339   5.948   6.952   4.578  2.2327 -3.8269  0.9369
   97MOL0     H13340   6.060   7.094   4.749  0.2538  0.2676 -0.1362
   97MOL0     H13341   5.989   6.982   4.877 -0.7758 -1.5293 -0.4210
   97MOL0     H13342   6.249   6.957   4.814 -2.9861  2.1148  1.9108
   97MOL0     H13343   6.138   6.820   4.841  1.8992 -0.7436  0.9139
   97MOL0     H13344   6.410   6.805   4.783 -1.2096 -1.0411  1.9802
   97MOL0     H13345   6.563   6.684   4.893  0.7179  2.6746 -3.7830
   97MOL0     H13346   6.638   6.645   4.751 -0.8299  2.7050  1.2399
   97MOL0     H13347   6.606   6.509   4.866 -0.4433 -1.0218 -0.0132
   97MOL0     H13348   6.462   6.200   4.349  1.2136  0.8856  0.2220
   97MOL0     H13349   6.604   6.007   4.282 -1.0607 -4.0408 -0.5180
   97MOL0     H13350   6.859   5.902   4.527  0.6892  0.4664 -2.0174
   97MOL0     H13351   6.774   5.758   4.599 -0.8858  2.3149  1.3310
   97MOL0     H13352   6.977   5.670   4.526 -1.2402  1.6485  1.7163
   97MOL0     H13353   6.852   5.616   4.426 -1.3651  0.4507 -2.5181
   97MOL0     H13354   6.893   5.714   4.243 -0.8236 -0.2644  0.8488
   97MOL0     H13355   7.048   5.656   4.286 -1.1843 -1.3043 -0.1693
   97MOL0     H13356   7.113   5.873   4.385  0.3164 -0.7549 -0.0593
   97MOL0     H13357   6.969   5.949   4.332 -0.3287 -1.0272  2.0333
   97MOL0     H13358   7.165   5.811   4.128  1.3749  1.4586 -0.5502
   97MOL0     H13359   7.010   5.893   4.081  0.1653 -0.2449  0.5319
   97MOL0     H13360   7.235   6.037   4.224 -1.6854  4.9597  1.1813
   97MOL0     H13361   7.088   6.095   4.172  0.2431  0.3101  2.1413
   97MOL0     H13362   7.162   6.009   3.928 -1.5682 -1.8660  1.2635
   97MOL0     H13363   7.316   5.987   4.004  0.6323  1.9780  2.3224
   97MOL0     H13364   7.157   6.241   3.976 -0.9340 -3.0049 -2.1635
   97MOL0     H13365   7.322   6.200   3.913  2.4369 -0.1236  1.6900
   97MOL0     H13366   6.612   5.861   4.668 -0.4093  1.0786  2.9803
   97MOL0     H13367   6.437   6.026   4.750  1.0432 -2.2218  0.5883
   97MOL0     H13368   6.223   6.432   4.539 -1.1690  0.2225 -0.4621
   97MOL0     H13369   6.128   6.645   4.513  1.7592 -1.1751 -2.3504
   97MOL0     H13370   5.257   6.941   3.555 -0.5492  1.0538  2.0408
   97MOL0     H13371   5.184   6.907   3.332  1.3226 -1.1053  0.6032
   97MOL0     H13372   5.089   7.046   2.952 -4.8195  4.4424  1.3650
   97MOL0     H13373   5.085   6.969   2.737 -1.4264  0.2362 -1.9131
   97MOL0     H13374   4.937   6.814   2.419 -2.7099 -4.4746  0.7912
   97MOL0     H13375   5.028   6.919   2.510 -0.3380  0.6324 -2.8605
   97MOL0     H13376   5.015   6.612   2.539  1.2407 -1.0574  3.9137
   97MOL0     H13377   5.110   6.712   2.647  0.1429  1.2087 -0.0150
   97MOL0     H13378   5.146   6.773   2.354 -2.2532 -1.4253  0.0860
   97MOL0     H13379   5.260   6.800   2.495 -0.6070 -0.8560  0.9691
   97MOL0     H13380   5.165   6.560   2.361 -1.7259  1.0786 -0.4373
   97MOL0     H13381   5.252   6.522   2.504  2.1545 -1.7034 -0.4085
   97MOL0     H13382   5.571   6.539   2.226 -1.1642 -1.8959 -0.6076
   97MOL0     H13383   4.716   6.751   2.821 -1.0483  0.9493 -1.6323
   97MOL0     H13384   4.687   6.817   3.164  3.4603  1.5369  0.5682
   97MOL0     H13385   4.622   6.759   3.017  0.5551 -1.5751  0.3457
   97MOL0     H13386   4.746   6.660   3.106  1.6382 -0.0633  1.9676
   98MOL0     O13387   2.863  11.480   7.881 -0.2064  0.3197 -0.1379
   98MOL0     C13388   2.896  11.565   7.960 -0.7616  0.8127 -0.0574
   98MOL0     O13389   3.028  11.573   8.005  0.2638  0.3844 -0.3569
   98MOL0     C13390   3.095  11.457   8.023  0.9649 -0.8607 -0.1956
   98MOL0     C13391   3.044  11.367   8.110 -0.1070  0.2825 -0.4499
   98MOL0     C13392   3.131  11.248   8.136  1.3452  0.1293 -0.4739
   98MOL0     C13393   3.237  11.223   8.057 -0.2746  0.4620  0.2707
   98MOL0     O13394   3.324  11.117   8.067  0.8951  0.3372 -0.3242
   98MOL0     C13395   3.262  10.989   8.093  0.4510  1.0157  0.3490
   98MOL0     C13396   3.373  10.878   8.092  0.4879 -0.5550 -0.1882
   98MOL0     C13397   3.471  10.887   8.219  0.1833  0.2931  0.5386
   98MOL0     C13398   3.557  10.766   8.221  0.4132 -0.6503  0.2240
   98MOL0     C13399   3.660  10.798   8.327  0.6871  0.4651 -0.9840
   98MOL0     C13400   3.723  10.673   8.384 -0.3381  0.1871  1.7208
   98MOL0     C13401   3.832  10.723   8.477  0.0881 -0.6605  0.3813
   98MOL0     C13402   3.903  10.617   8.557  0.2352  0.3828 -0.2345
   98MOL0     N13403   4.028  10.657   8.620  0.0590  0.7654  0.1750
   98MOL0     C13404   4.043  10.733   8.738 -0.6127 -0.0672 -0.2257
   98MOL0     C13405   4.179  10.748   8.741  1.0583 -0.5717  0.0619
   98MOL0     C13406   4.245  10.838   8.839 -0.2410 -0.2422  0.4293
   98MOL0     C13407   4.332  10.769   8.943  0.2424  0.3523 -0.0719
   98MOL0     C13408   4.461  10.710   8.889  0.3507  0.4692 -0.8394
   98MOL0     C13409   4.556  10.643   8.991 -0.0824 -0.5354  0.3059
   98MOL0     O13410   4.569  10.718   9.111  0.1367  0.2276  0.7860
   98MOL0     C13411   4.639  10.832   9.117  0.0646 -0.4631 -0.1183
   98MOL0     C13412   4.783  10.833   9.127 -0.3393 -0.2385  0.7514
   98MOL0     C13413   4.851  10.952   9.149 -0.6453 -0.0994 -0.6166
   98MOL0     C13414   4.999  10.941   9.165 -0.0622 -1.2174  0.3147
   98MOL0     C13415   4.781  11.080   9.170  0.0031 -0.1102 -0.5026
   98MOL0     C13416   4.841  11.210   9.216 -0.2891 -0.6682 -0.0496
   98MOL0     O13417   4.757  11.321   9.187 -0.0323 -0.2259  1.1252
   98MOL0     C13418   4.786  11.456   9.209 -0.1910  0.4554  0.6739
   98MOL0     C13419   4.915  11.499   9.185 -0.2922 -0.0208  0.0578
   98MOL0     C13420   4.952  11.625   9.216  1.1870  0.9834  0.5952
   98MOL0     C13421   4.864  11.718   9.291  0.1107 -0.4848  1.0036
   98MOL0     O13422   4.885  11.849   9.317  0.3137  0.1581  0.3663
   98MOL0     C13423   5.017  11.893   9.301  0.1789  0.3916  0.0811
   98MOL0     C13424   5.022  12.038   9.365  0.5830 -1.2665 -0.3513
   98MOL0     C13425   5.013  12.040   9.520  0.6243  0.7856  0.2209
   98MOL0     C13426   5.061  12.166   9.583  0.4448 -0.2613  0.2968
   98MOL0     C13427   5.005  12.174   9.723 -0.4552 -0.5652 -0.6899
   98MOL0     C13428   5.046  12.297   9.792 -0.4351  0.7445 -0.5770
   98MOL0     C13429   4.992  12.298   9.938 -0.9502 -0.2823 -0.3941
   98MOL0     C13430   4.838  12.279   9.941  0.3131 -1.0578 -0.0455
   98MOL0    Cl13431   4.745  12.403   9.843  0.3423 -0.7511  0.0259
   98MOL0     C13432   4.734  11.670   9.300 -0.0553 -0.2996 -0.3233
   98MOL0     C13433   4.685  11.544   9.254  1.0834  0.9307  0.2015
   98MOL0     O13434   4.958  11.224   9.269 -0.3700 -0.3758  0.6838
   98MOL0     C13435   4.639  11.078   9.146 -0.2204  0.4262  0.0597
   98MOL0     C13436   4.571  10.956   9.133 -0.5501 -0.3519 -0.4287
   98MOL0     N13437   4.247  10.690   8.639  1.1437  0.3062 -0.4645
   98MOL0     N13438   4.151  10.632   8.566  0.4182 -0.1295 -0.2352
   98MOL0     C13439   3.282  11.318   7.960  0.4076 -0.6826  0.6975
   98MOL0     C13440   3.213  11.440   7.954  0.3284  0.0165 -0.1286
   98MOL0     C13441   2.800  11.665   8.010  0.1951  0.7205 -0.0345
   98MOL0     C13442   2.851  11.767   8.096 -0.2237  0.2636  0.7862
   98MOL0     C13443   2.759  11.853   8.160  0.0903 -0.3549  0.0891
   98MOL0     C13444   2.628  11.833   8.144  0.1838  0.2162  0.4359
   98MOL0     O13445   2.535  11.926   8.179  0.3281 -0.1166  0.0482
   98MOL0     C13446   2.475  11.888   8.302 -0.5561  0.0855 -0.5201
   98MOL0     C13447   2.553  11.946   8.419  0.0142 -0.5329  0.7469
   98MOL0     C13448   2.480  11.925   8.553 -0.8503  0.3552 -0.1793
   98MOL0     C13449   2.508  11.783   8.602  0.0626  0.2623  0.5054
   98MOL0     C13450   2.645  11.767   8.658  0.5613 -0.0115  1.9346
   98MOL0     C13451   2.764  11.756   8.685  0.2682 -0.8512 -0.8295
   98MOL0     C13452   2.583  11.729   8.068  0.4452  0.0858  0.9497
   98MOL0     C13453   2.664  11.641   8.000 -0.6748  0.1179  0.0776
   98MOL0     C13454   2.600  11.527   7.922 -0.2472 -0.9345  0.4619
   98MOL0     H13455   2.949  11.385   8.158 -1.5093 -1.9129 -2.1934
   98MOL0     H13456   3.101  11.185   8.219 -0.3188  0.3170 -0.8916
   98MOL0     H13457   3.191  10.961   8.015 -0.4640 -0.0673  1.5325
   98MOL0     H13458   3.216  10.992   8.193  2.0534  0.8138  1.1182
   98MOL0     H13459   3.317  10.788   8.116  0.8804 -0.8525 -0.3753
   98MOL0     H13460   3.433  10.878   8.000 -0.7021  2.2942 -1.0720
   98MOL0     H13461   3.532  10.978   8.212  0.3519  0.0351 -2.9718
   98MOL0     H13462   3.407  10.878   8.307 -1.0970 -3.6059 -0.6045
   98MOL0     H13463   3.501  10.676   8.248 -0.8459  0.2149  0.5784
   98MOL0     H13464   3.600  10.748   8.121 -1.3819 -1.0229 -0.5216
   98MOL0     H13465   3.606  10.836   8.414 -1.5849 -3.4914 -0.4683
   98MOL0     H13466   3.740  10.864   8.292  0.8527  0.8732  0.1496
   98MOL0     H13467   3.652  10.611   8.439  1.3437 -2.9260  0.6354
   98MOL0     H13468   3.761  10.620   8.297  1.0811  2.1143  1.1117
   98MOL0     H13469   3.793  10.788   8.556  0.4616 -2.1768  1.8716
   98MOL0     H13470   3.907  10.781   8.422 -0.5361  0.4675  0.6793
   98MOL0     H13471   3.842  10.595   8.646 -2.3718 -0.5438 -2.0994
   98MOL0     H13472   3.916  10.517   8.514  1.0448 -0.1312  1.1368
   98MOL0     H13473   3.976  10.779   8.810 -0.6874  0.0445 -0.3648
   98MOL0     H13474   4.172  10.889   8.902 -0.3266  0.2830 -0.0923
   98MOL0     H13475   4.302  10.920   8.795 -0.6296 -2.1471 -4.1544
   98MOL0     H13476   4.350  10.838   9.025  0.0900 -0.8318  0.9832
   98MOL0     H13477   4.280  10.680   8.979 -1.1545  0.6353 -1.2842
   98MOL0     H13478   4.435  10.648   8.803  0.0520 -2.9405  1.4761
   98MOL0     H13479   4.523  10.793   8.852  0.9278  0.1234 -0.6739
   98MOL0     H13480   4.510  10.551   9.027 -1.1428  1.0577  3.3484
   98MOL0     H13481   4.659  10.631   8.957  1.1673  3.3033  2.1150
   98MOL0     H13482   4.844  10.743   9.128 -0.5363 -0.4167 -0.8242
   98MOL0     H13483   5.051  10.998   9.088 -1.4452  0.1845  0.3751
   98MOL0     H13484   5.045  10.843   9.154 -0.5162 -1.2205 -2.1715
   98MOL0     H13485   5.030  10.973   9.265  0.8630 -1.1584  0.0157
   98MOL0     H13486   4.982  11.434   9.130 -3.0097 -1.4809 -1.7509
   98MOL0     H13487   5.056  11.650   9.196  1.1411  0.5521 -0.1863
   98MOL0     H13488   5.087  11.827   9.353 -1.8336 -1.0786  1.1250
   98MOL0     H13489   5.042  11.900   9.195  1.3348  2.0125  0.4289
   98MOL0     H13490   5.123  12.071   9.337  0.1801  0.2851 -0.0294
   98MOL0     H13491   4.945  12.110   9.337 -1.0098 -2.0120  1.9117
   98MOL0     H13492   5.056  11.953   9.571 -4.2937 -1.3052  1.4007
   98MOL0     H13493   4.906  12.035   9.541  0.1125  2.4747 -1.6143
   98MOL0     H13494   5.023  12.258   9.538 -3.4201 -2.0580 -0.5459
   98MOL0     H13495   5.170  12.172   9.577  0.4880 -0.8401  0.4514
   98MOL0     H13496   4.899  12.150   9.726 -0.2952 -1.5408 -1.9788
   98MOL0     H13497   5.061  12.095   9.775 -0.7587  2.2172  4.5002
   98MOL0     H13498   5.009  12.384   9.737  1.3407  1.1182 -1.2487
   98MOL0     H13499   5.155  12.299   9.795 -0.3560 -0.6527 -1.5635
   98MOL0     H13500   5.028  12.386   9.992  0.7660 -1.6569  0.8295
   98MOL0     H13501   5.045  12.216   9.987  1.5947  1.2427 -0.3642
   98MOL0     H13502   4.805  12.295  10.044 -3.5547 -0.7187 -1.1763
   98MOL0     H13503   4.809  12.176   9.921  1.7558 -1.4744 -0.1194
   98MOL0     H13504   4.665  11.746   9.338 -1.5533 -2.4665  1.5603
   98MOL0     H13505   4.587  11.497   9.248  0.9163  1.1262  1.2188
   98MOL0     H13506   4.582  11.167   9.170  0.1053 -0.2650  4.1304
   98MOL0     H13507   4.465  10.968   9.112 -0.1958  3.1718 -0.8504
   98MOL0     H13508   3.372  11.296   7.904  0.2110  1.6012 -0.6300
   98MOL0     H13509   3.256  11.524   7.901  1.9276 -0.6281  0.0803
   98MOL0     H13510   2.958  11.769   8.115 -0.5152 -0.1600  2.6986
   98MOL0     H13511   2.774  11.939   8.225 -2.1766  3.7337 -4.2483
   98MOL0     H13512   2.369  11.916   8.306 -0.7098 -0.6376  1.8401
   98MOL0     H13513   2.469  11.779   8.311 -1.3416  0.2764  2.9998
   98MOL0     H13514   2.563  12.054   8.403 -0.3966 -0.3983  1.3824
   98MOL0     H13515   2.652  11.900   8.414  0.6582  0.8898 -0.4676
   98MOL0     H13516   2.516  12.004   8.619 -1.4938 -0.9238  1.7984
   98MOL0     H13517   2.372  11.934   8.540 -1.2722 -2.6920  0.4650
   98MOL0     H13518   2.485  11.703   8.531  0.2902  0.1883  0.5164
   98MOL0     H13519   2.445  11.770   8.691  0.0312  1.4672  0.6723
   98MOL0     H13520   2.866  11.741   8.714  1.2197  3.7899 -0.9745
   98MOL0     H13521   2.475  11.724   8.059  0.1697  2.8872  1.5372
   98MOL0     H13522   2.608  11.549   7.816 -0.4276 -0.5153  0.5338
   98MOL0     H13523   2.644  11.429   7.942 -0.7292 -0.9423  1.5657
   98MOL0     H13524   2.493  11.522   7.947 -0.8903 -2.8673 -2.1955
   99MOL0     O13525   0.242   2.101   9.046 -0.2828  0.6394  0.8033
   99MOL0     C13526   0.231   2.185   9.132  0.0208  0.5876 -1.2637
   99MOL0     O13527   0.312   2.189   9.251  0.9945  0.1444  0.1213
   99MOL0     C13528   0.406   2.098   9.268 -0.2640  0.5065  0.5194
   99MOL0     C13529   0.389   1.959   9.242  0.1220  0.3261 -0.6075
   99MOL0     C13530   0.490   1.871   9.266 -0.9815  0.0985 -0.4951
   99MOL0     C13531   0.614   1.925   9.322 -0.0856 -0.7783  0.8160
   99MOL0     O13532   0.710   1.830   9.345 -0.3894  0.3379  0.1063
   99MOL0     C13533   0.821   1.863   9.443  0.7827 -0.4512 -0.0406
   99MOL0     C13534   0.948   1.874   9.359 -0.0053 -0.6335  0.2581
   99MOL0     C13535   0.959   1.749   9.270 -1.6606 -0.5094 -0.0184
   99MOL0     C13536   1.086   1.757   9.171  1.1766 -0.0995 -1.1625
   99MOL0     C13537   1.061   1.652   9.067  0.1041  0.8465 -0.5276
   99MOL0     C13538   1.181   1.667   8.976  0.2670  0.3706  0.2185
   99MOL0     C13539   1.214   1.550   8.881 -0.8217 -0.3135  0.8890
   99MOL0     C13540   1.282   1.427   8.940 -0.7354 -0.4738 -0.6225
   99MOL0     N13541   1.324   1.331   8.835  0.4777  0.3920  0.2924
   99MOL0     C13542   1.245   1.226   8.798 -0.0666 -0.1146  0.3571
   99MOL0     C13543   1.333   1.125   8.757 -1.2125  0.1143  0.8843
   99MOL0     C13544   1.285   0.990   8.714  0.0591 -0.4162 -0.4038
   99MOL0     C13545   1.389   0.903   8.648  0.0546  0.9187 -0.2266
   99MOL0     C13546   1.330   0.769   8.605 -0.7521 -1.1996  0.1379
   99MOL0     C13547   1.214   0.778   8.504  0.0608  0.3850 -0.0645
   99MOL0     O13548   1.250   0.838   8.384 -0.7746  0.2631 -0.1070
   99MOL0     C13549   1.167   0.848   8.281 -0.4353  0.5744  0.0002
   99MOL0     C13550   1.039   0.791   8.274 -0.3101  0.1491 -1.0718
   99MOL0     C13551   0.955   0.798   8.163  0.1843  0.0332  0.8618
   99MOL0     C13552   0.818   0.735   8.165 -0.0654  0.1372 -0.1004
   99MOL0     C13553   1.009   0.859   8.043  0.3121 -0.0405 -0.0542
   99MOL0     C13554   0.938   0.859   7.920  0.4231  0.0484 -0.6432
   99MOL0     O13555   0.996   0.958   7.834  0.1262  0.7395 -0.4802
   99MOL0     C13556   0.925   0.995   7.727  0.2720 -0.2730 -0.3398
   99MOL0     C13557   0.846   1.102   7.757 -0.1047 -0.3398 -0.2215
   99MOL0     C13558   0.764   1.150   7.655  0.0504 -0.1627  1.0396
   99MOL0     C13559   0.751   1.090   7.527  0.4162  0.3397 -0.5637
   99MOL0     O13560   0.660   1.118   7.426 -0.1566 -0.2964 -0.5793
   99MOL0     C13561   0.580   1.239   7.444 -0.0710  0.4153  0.1979
   99MOL0     C13562   0.484   1.261   7.334 -0.2410 -0.1228 -0.0211
   99MOL0     C13563   0.542   1.242   7.189 -1.1011  0.3902 -0.1844
   99MOL0     C13564   0.657   1.334   7.149 -0.6753 -0.6840  0.0101
   99MOL0     C13565   0.751   1.260   7.036 -0.3131 -0.2620  0.0913
   99MOL0     C13566   0.864   1.339   6.987  0.4024 -0.4537 -0.2842
   99MOL0     C13567   0.942   1.274   6.874 -0.4043  0.6168 -0.9873
   99MOL0     C13568   1.091   1.314   6.873  0.6227 -0.2234  0.4450
   99MOL0    Cl13569   1.086   1.493   6.850 -0.6701 -0.3317 -0.1557
   99MOL0     C13570   0.829   0.982   7.502  0.4642  0.2479 -0.0418
   99MOL0     C13571   0.913   0.921   7.606 -1.2054  0.5618  0.0739
   99MOL0     O13572   0.856   0.778   7.885  0.2601  0.5070  0.1830
   99MOL0     C13573   1.142   0.925   8.054  0.2576 -0.0527 -0.7305
   99MOL0     C13574   1.214   0.919   8.173 -0.4504  0.4267 -0.3224
   99MOL0     N13575   1.462   1.173   8.749 -0.2738  0.6828  0.9160
   99MOL0     N13576   1.452   1.293   8.797 -0.0625  0.8030  0.6570
   99MOL0     C13577   0.627   2.065   9.340  0.1548  0.2994 -0.4898
   99MOL0     C13578   0.531   2.157   9.309  0.6238  0.7676  0.0585
   99MOL0     C13579   0.125   2.285   9.127 -0.8025 -0.5983  0.0860
   99MOL0     C13580   0.101   2.366   9.240 -0.3641 -0.5617 -0.2495
   99MOL0     C13581  -0.018   2.439   9.248 -0.5653 -1.3949  0.6070
   99MOL0     C13582  -0.118   2.444   9.152 -0.7081 -0.0121 -0.3398
   99MOL0     O13583  -0.250   2.489   9.161 -1.1369  0.0602 -1.0074
   99MOL0     C13584  -0.299   2.531   9.288 -0.0837 -0.8894 -0.2237
   99MOL0     C13585  -0.416   2.627   9.276 -0.0169  0.3588 -0.4705
   99MOL0     C13586  -0.544   2.562   9.235  0.6333 -0.4928 -0.2347
   99MOL0     C13587  -0.651   2.670   9.167  0.3284  0.2406 -0.5018
   99MOL0     C13588  -0.599   2.700   9.030  0.3748  0.0830 -0.8001
   99MOL0     C13589  -0.552   2.715   8.920  0.6034 -0.9276  0.1230
   99MOL0     C13590  -0.083   2.375   9.034 -0.4326  0.1871  0.6453
   99MOL0     C13591   0.031   2.294   9.016 -0.8626 -0.3440 -0.0676
   99MOL0     C13592   0.045   2.201   8.892 -0.4051 -0.1988  0.0518
   99MOL0     H13593   0.295   1.908   9.224 -0.2937 -0.4157  2.8092
   99MOL0     H13594   0.491   1.766   9.238  1.5921  0.1558 -0.8475
   99MOL0     H13595   0.827   1.783   9.518 -1.8414  0.4346  1.2396
   99MOL0     H13596   0.800   1.952   9.503 -2.9048 -1.2749  0.1375
   99MOL0     H13597   0.944   1.969   9.305 -1.2450 -1.6252 -1.5058
   99MOL0     H13598   1.037   1.882   9.422  0.3331  0.8414 -0.3871
   99MOL0     H13599   0.964   1.664   9.338 -0.9931 -0.1707  0.3625
   99MOL0     H13600   0.870   1.740   9.207  0.3623 -0.6744 -3.1023
   99MOL0     H13601   1.080   1.854   9.119  0.8608 -0.2693 -1.4457
   99MOL0     H13602   1.167   1.741   9.243 -1.9883 -0.1936  2.7433
   99MOL0     H13603   0.970   1.657   9.007  0.1632 -0.5480 -0.7706
   99MOL0     H13604   1.068   1.550   9.105 -0.3535  0.0670 -2.3970
   99MOL0     H13605   1.156   1.756   8.918 -0.2476  0.9461  1.2840
   99MOL0     H13606   1.271   1.698   9.031 -0.2353  1.3406  0.5243
   99MOL0     H13607   1.288   1.599   8.818 -1.7480  1.4769  1.1355
   99MOL0     H13608   1.122   1.534   8.823 -0.8716  0.8482  0.6412
   99MOL0     H13609   1.364   1.469   9.000 -1.0941 -0.1100 -0.3841
   99MOL0     H13610   1.216   1.379   9.013 -0.2382 -1.2434 -0.6730
   99MOL0     H13611   1.137   1.231   8.794 -0.1829 -2.4154 -1.1600
   99MOL0     H13612   1.191   1.004   8.662  0.1239  1.7436 -0.0205
   99MOL0     H13613   1.253   0.940   8.806 -0.1035 -3.3225 -1.9243
   99MOL0     H13614   1.418   0.949   8.553 -4.4927 -0.9304 -2.8388
   99MOL0     H13615   1.474   0.888   8.715  2.2691 -2.5072 -3.3745
   99MOL0     H13616   1.406   0.701   8.565  0.6101 -0.8434  2.0187
   99MOL0     H13617   1.279   0.739   8.697 -0.5490  0.4438  0.8208
   99MOL0     H13618   1.174   0.677   8.490 -0.8911  0.9373 -1.6495
   99MOL0     H13619   1.132   0.837   8.546 -2.2314 -1.4919 -1.6594
   99MOL0     H13620   1.000   0.728   8.354  0.5148 -0.2840 -0.9968
   99MOL0     H13621   0.739   0.793   8.117 -0.1277  0.9690  0.9641
   99MOL0     H13622   0.785   0.724   8.268 -0.2481 -1.7472 -0.3280
   99MOL0     H13623   0.812   0.636   8.118 -1.2331  1.3648 -2.7763
   99MOL0     H13624   0.851   1.163   7.846  1.7392  0.7210 -0.9784
   99MOL0     H13625   0.709   1.242   7.671  1.0635  0.8771 -1.1079
   99MOL0     H13626   0.523   1.228   7.537 -0.1150 -1.7106 -0.0342
   99MOL0     H13627   0.637   1.333   7.451 -0.0294  0.4226 -0.1998
   99MOL0     H13628   0.397   1.196   7.349  0.2495 -0.8412 -0.2574
   99MOL0     H13629   0.444   1.363   7.328  0.7817  0.2607 -5.1414
   99MOL0     H13630   0.461   1.266   7.119 -3.2357  2.2536  2.6824
   99MOL0     H13631   0.576   1.139   7.177  0.2874  0.7791  0.2553
   99MOL0     H13632   0.710   1.347   7.243 -2.3495 -1.4223  1.0939
   99MOL0     H13633   0.617   1.429   7.110  0.0510 -0.4839 -0.2743
   99MOL0     H13634   0.788   1.168   7.082 -1.0215 -0.4603  0.2685
   99MOL0     H13635   0.697   1.243   6.943  1.6910 -0.0444 -1.1805
   99MOL0     H13636   0.935   1.355   7.069 -0.3140 -2.2532  0.7411
   99MOL0     H13637   0.822   1.437   6.960 -2.4900 -1.7384 -0.8704
   99MOL0     H13638   0.891   1.288   6.778 -2.3606 -1.5365 -0.3513
   99MOL0     H13639   0.939   1.167   6.897  0.3818  0.1218 -2.9783
   99MOL0     H13640   1.141   1.262   6.791  0.4579  2.1638 -1.2594
   99MOL0     H13641   1.133   1.283   6.970 -2.7568 -1.9134  1.5524
   99MOL0     H13642   0.815   0.922   7.413 -0.7302  0.2926  0.1005
   99MOL0     H13643   0.956   0.822   7.595 -0.1933  1.1315 -1.5775
   99MOL0     H13644   1.183   0.979   7.970 -2.0781 -0.0282 -1.9395
   99MOL0     H13645   1.312   0.966   8.178 -1.6241  2.8358  2.3759
   99MOL0     H13646   0.714   2.107   9.390  0.9393  1.3489 -2.5700
   99MOL0     H13647   0.545   2.262   9.334  2.1570  0.3890  0.9013
   99MOL0     H13648   0.160   2.365   9.331  0.4393 -2.3152 -0.7320
   99MOL0     H13649  -0.032   2.489   9.343 -0.1992 -1.5588  0.7473
   99MOL0     H13650  -0.321   2.448   9.355  1.2101 -0.0244  1.3546
   99MOL0     H13651  -0.222   2.590   9.339 -0.7278 -1.2691  1.2236
   99MOL0     H13652  -0.393   2.713   9.213 -2.7853  0.6872 -1.1403
   99MOL0     H13653  -0.429   2.669   9.376 -0.1174  1.2043 -0.8315
   99MOL0     H13654  -0.530   2.488   9.156  3.8143 -0.0247 -0.2160
   99MOL0     H13655  -0.599   2.517   9.318  0.8377 -0.0338  0.1528
   99MOL0     H13656  -0.645   2.764   9.222  1.8703 -0.4550  0.5783
   99MOL0     H13657  -0.749   2.622   9.169  0.3994  0.0349 -1.4397
   99MOL0     H13658  -0.520   2.733   8.819  2.3602 -1.4445  0.5446
   99MOL0     H13659  -0.154   2.367   8.953  0.2554 -1.5727  0.1646
   99MOL0     H13660  -0.022   2.247   8.819  0.2559  1.0219  0.1758
   99MOL0     H13661   0.148   2.206   8.854  0.3927  0.4349  2.1380
   99MOL0     H13662   0.016   2.099   8.919 -0.2249 -0.0979  0.6425
  100MOL0     O13663  10.756   0.557   7.111  0.2742  0.1526  0.2655
  100MOL0     C13664  10.707   0.663   7.060  0.3277  0.6686 -0.2108
  100MOL0     O13665  10.575   0.693   7.049  0.1699  0.1684 -0.3953
  100MOL0     C13666  10.484   0.592   7.076  0.2045 -0.2625 -0.0268
  100MOL0     C13667  10.433   0.566   7.202  0.3907  0.5728 -0.3408
  100MOL0     C13668  10.350   0.453   7.220  0.1696 -0.4461 -0.1428
  100MOL0     C13669  10.301   0.383   7.108 -0.0590  0.3460 -0.0713
  100MOL0     O13670  10.191   0.303   7.140  0.4301  0.3036 -0.6667
  100MOL0     C13671  10.143   0.215   7.047  0.3348  0.5873  0.1386
  100MOL0     C13672  10.018   0.158   7.095 -0.2635  0.0926 -0.5520
  100MOL0     C13673   9.930   0.093   6.995  0.7510 -0.0325  0.1755
  100MOL0     C13674   9.994  -0.033   6.935  0.6282  0.3122 -0.2590
  100MOL0     C13675   9.904  -0.110   6.833 -0.0671  0.4724 -0.0536
  100MOL0     C13676   9.862  -0.020   6.707 -0.9541  0.5942 -0.2092
  100MOL0     C13677   9.787  -0.093   6.601  0.2613 -0.2069  0.7327
  100MOL0     C13678   9.741   0.009   6.480  0.2550  0.4686  0.2904
  100MOL0     N13679   9.854   0.058   6.407 -0.2049  0.0649  0.0137
  100MOL0     C13680   9.945  -0.017   6.335 -0.1228  1.2790 -0.0115
  100MOL0     C13681  10.043   0.070   6.305  0.9809 -0.7315 -0.4183
  100MOL0     C13682  10.179   0.033   6.249  1.2256 -0.2541 -0.2627
  100MOL0     C13683  10.168   0.011   6.098  0.2376  0.4395  0.3026
  100MOL0     C13684  10.124   0.134   6.021 -0.2710 -0.6356 -0.4232
  100MOL0     C13685   9.970   0.180   6.032 -0.7777  0.3542 -0.6493
  100MOL0     O13686   9.885   0.062   6.018  0.3348  0.0863  0.5080
  100MOL0     C13687   9.754   0.057   6.073 -0.7298 -1.4777  0.7445
  100MOL0     C13688   9.704   0.163   6.152 -0.7840  0.6974 -1.0844
  100MOL0     C13689   9.581   0.156   6.220 -0.2184  0.2872 -0.0226
  100MOL0     C13690   9.543   0.272   6.314 -0.3636  0.0889  0.6386
  100MOL0     C13691   9.508   0.040   6.197 -0.3205 -0.3801 -0.7957
  100MOL0     C13692   9.371   0.020   6.252 -0.2063  0.5641 -0.3018
  100MOL0     O13693   9.330   0.069   6.370  0.4686 -0.2750 -0.1860
  100MOL0     C13694   9.217   0.022   6.432  0.3582  0.2637 -0.3917
  100MOL0     C13695   9.174  -0.106   6.418 -0.1583  0.7613 -0.8060
  100MOL0     C13696   9.063  -0.158   6.494  0.1674 -0.7679 -0.7409
  100MOL0     C13697   8.983  -0.069   6.570  0.3660  0.4430  0.3953
  100MOL0     O13698   8.857  -0.113   6.628 -0.4511 -1.3320  0.1890
  100MOL0     C13699   8.820  -0.251   6.655 -0.0071 -0.5708  0.3152
  100MOL0     C13700   8.886  -0.315   6.780 -0.1368 -0.5324  0.5009
  100MOL0     C13701   8.842  -0.238   6.910 -0.0751  0.4008 -0.3240
  100MOL0     C13702   8.696  -0.255   6.946  0.0108 -1.6022 -0.1453
  100MOL0     C13703   8.658  -0.145   7.039 -0.3534  0.0051  0.0521
  100MOL0     C13704   8.537  -0.163   7.130 -0.0441  0.2927 -0.0356
  100MOL0     C13705   8.510  -0.029   7.190 -0.3352  0.4403 -0.6974
  100MOL0     C13706   8.397  -0.033   7.300 -0.5199  0.3753 -0.2674
  100MOL0    Cl13707   8.313   0.123   7.312 -0.5807  0.2042  0.3583
  100MOL0     C13708   9.033   0.067   6.577 -0.0578 -1.1996 -0.1889
  100MOL0     C13709   9.154   0.112   6.517 -0.0939  0.0958  0.0031
  100MOL0     O13710   9.291  -0.037   6.167 -0.6383 -0.4909 -0.0714
  100MOL0     C13711   9.548  -0.059   6.107 -0.0018  0.7234  0.1798
  100MOL0     C13712   9.671  -0.045   6.043  0.0719  0.5600  1.3321
  100MOL0     N13713  10.008   0.191   6.352  0.3802 -0.9366 -0.5376
  100MOL0     N13714   9.898   0.184   6.419  0.3270  0.3438  0.8527
  100MOL0     C13715  10.354   0.412   6.979  0.0209  0.3134 -0.8943
  100MOL0     C13716  10.440   0.514   6.963  0.5942 -0.1126 -0.2644
  100MOL0     C13717  10.799   0.768   7.021  0.2011 -0.2831 -0.1763
  100MOL0     C13718  10.761   0.849   6.913  0.4388  0.7986  0.2313
  100MOL0     C13719  10.837   0.957   6.867  0.0421  0.8958  0.1294
  100MOL0     C13720  10.968   0.973   6.920  0.4209  0.4902 -0.2756
  100MOL0     O13721  11.034   1.076   6.863 -1.1850 -0.2158 -0.4558
  100MOL0     C13722  11.174   1.090   6.875 -0.1962  0.7201  0.0341
  100MOL0     C13723  11.249   1.153   6.753 -0.1774 -0.0808 -0.0184
  100MOL0     C13724  11.233   1.305   6.722  0.7495  0.1274 -0.0379
  100MOL0     C13725  11.303   1.353   6.597  0.0395 -0.5083 -0.8514
  100MOL0     C13726  11.312   1.502   6.601 -0.3082 -0.0302  0.9242
  100MOL0     C13727  11.316   1.616   6.584  1.0458 -1.4950  0.2860
  100MOL0     C13728  11.005   0.897   7.032  0.2228  0.0704  0.1013
  100MOL0     C13729  10.923   0.796   7.087  0.9528 -0.6879  0.8932
  100MOL0     C13730  10.962   0.724   7.212  0.3561  0.1651  0.1179
  100MOL0     H13731  10.471   0.621   7.287  1.7140  1.6492 -1.5732
  100MOL0     H13732  10.310   0.442   7.320  0.1627 -1.0481 -0.2074
  100MOL0     H13733  10.217   0.142   7.013  1.3061  1.0314  1.2314
  100MOL0     H13734  10.116   0.270   6.957  0.6887  1.7841  0.7477
  100MOL0     H13735  10.021   0.090   7.180  0.5513  0.0451 -0.6138
  100MOL0     H13736   9.957   0.241   7.132 -0.3420  0.5740 -1.7064
  100MOL0     H13737   9.832   0.077   7.042  1.4698 -0.3077  1.6546
  100MOL0     H13738   9.917   0.172   6.920  0.7006  0.8754  1.1164
  100MOL0     H13739  10.086  -0.001   6.885  1.6480 -0.2491  1.1796
  100MOL0     H13740  10.021  -0.094   7.022  3.8518  4.4958  2.0725
  100MOL0     H13741   9.815  -0.151   6.883 -0.1176  0.4638 -0.1487
  100MOL0     H13742   9.959  -0.201   6.805  1.7300  0.9378  1.7566
  100MOL0     H13743   9.804   0.065   6.745 -1.2757  0.1484  0.3136
  100MOL0     H13744   9.951   0.025   6.662  1.2793 -1.7289  1.5853
  100MOL0     H13745   9.697  -0.130   6.651 -0.1970 -1.1745 -0.7472
  100MOL0     H13746   9.832  -0.182   6.555 -0.0483  0.1640 -0.3374
  100MOL0     H13747   9.673  -0.035   6.406  1.5702  0.6696 -1.0756
  100MOL0     H13748   9.706   0.091   6.543  3.0853  2.1219 -0.1322
  100MOL0     H13749   9.944  -0.122   6.307 -2.4713  0.8892  1.2365
  100MOL0     H13750  10.210  -0.061   6.293  1.6011 -1.2538 -2.5146
  100MOL0     H13751  10.253   0.111   6.271  1.5265 -0.5459 -0.2457
  100MOL0     H13752  10.265  -0.019   6.058  1.2039 -0.4786  3.0564
  100MOL0     H13753  10.106  -0.078   6.081  1.3553 -0.4719  0.8332
  100MOL0     H13754  10.186   0.224   6.028  2.0355 -2.0405 -1.5969
  100MOL0     H13755  10.140   0.102   5.918  1.3515  0.0393 -0.3988
  100MOL0     H13756   9.969   0.239   6.124  5.1076 -0.0142  0.0389
  100MOL0     H13757   9.950   0.262   5.962  1.1755  0.9387 -0.5862
  100MOL0     H13758   9.779   0.235   6.184 -1.0961  1.6559 -2.4300
  100MOL0     H13759   9.620   0.280   6.392 -1.6028  0.5022  1.8580
  100MOL0     H13760   9.446   0.269   6.365 -0.5284 -3.5836  0.3457
  100MOL0     H13761   9.555   0.366   6.258  1.9688 -0.4302  0.1410
  100MOL0     H13762   9.233  -0.179   6.362 -0.3553  0.9612 -1.2848
  100MOL0     H13763   9.032  -0.260   6.472  2.6465 -0.8214 -5.2506
  100MOL0     H13764   8.711  -0.253   6.648  0.0875 -3.6444 -3.9363
  100MOL0     H13765   8.854  -0.318   6.575 -0.1735 -0.7407  0.3850
  100MOL0     H13766   8.855  -0.419   6.792 -1.8361 -0.2723 -1.1432
  100MOL0     H13767   8.996  -0.315   6.771 -0.2772 -2.2844 -2.7631
  100MOL0     H13768   8.857  -0.130   6.907 -2.0707  0.7184  0.0990
  100MOL0     H13769   8.908  -0.276   6.988 -2.8027 -1.8077  1.0847
  100MOL0     H13770   8.662  -0.344   6.999 -0.6254 -0.6328  1.1628
  100MOL0     H13771   8.635  -0.243   6.856 -1.6393  0.0730  1.0995
  100MOL0     H13772   8.740  -0.115   7.104  1.5493 -1.0034 -1.7894
  100MOL0     H13773   8.631  -0.069   6.966  1.8224 -1.6824 -2.6857
  100MOL0     H13774   8.560  -0.236   7.208  0.5516 -0.7684 -1.1891
  100MOL0     H13775   8.456  -0.199   7.066  0.0941  1.6824 -1.0500
  100MOL0     H13776   8.473   0.032   7.107 -1.1100  0.0952 -0.6171
  100MOL0     H13777   8.597   0.025   7.229 -1.3077  2.0229 -0.6413
  100MOL0     H13778   8.428  -0.042   7.404 -2.8182 -1.9408  0.3300
  100MOL0     H13779   8.322  -0.109   7.273  1.6750 -2.0219  0.0582
  100MOL0     H13780   8.964   0.145   6.609  0.5649 -1.0064  0.6974
  100MOL0     H13781   9.179   0.218   6.520 -2.4935  1.0756 -4.5526
  100MOL0     H13782   9.492  -0.151   6.091  3.2568 -1.1471 -1.5951
  100MOL0     H13783   9.713  -0.127   5.985 -0.0325 -0.7782  3.0600
  100MOL0     H13784  10.320   0.349   6.897 -1.1076 -1.5025  0.8681
  100MOL0     H13785  10.486   0.517   6.865  0.3623 -0.6637 -0.3957
  100MOL0     H13786  10.668   0.827   6.862 -1.4668  5.7398  1.0789
  100MOL0     H13787  10.812   1.028   6.789  0.2056 -3.1316 -4.0617
  100MOL0     H13788  11.199   1.139   6.970 -0.6137  0.5961  0.2086
  100MOL0     H13789  11.213   0.987   6.874 -0.1770  0.7252  0.2718
  100MOL0     H13790  11.223   1.094   6.665  0.4059 -2.1700  1.1405
  100MOL0     H13791  11.358   1.146   6.767  0.0343  1.1827 -0.8532
  100MOL0     H13792  11.124   1.316   6.715  0.5090 -1.9955 -0.2330
  100MOL0     H13793  11.257   1.353   6.818 -1.7322  1.3319  0.0793
  100MOL0     H13794  11.248   1.317   6.509  0.9769 -2.4611 -0.6884
  100MOL0     H13795  11.397   1.300   6.582  0.3300 -0.5928  0.9893
  100MOL0     H13796  11.329   1.722   6.572 -0.5473 -1.2624  0.3430
  100MOL0     H13797  11.103   0.919   7.074  0.4705  0.4463 -0.6512
  100MOL0     H13798  10.886   0.747   7.288 -0.4699  3.2087 -1.4948
  100MOL0     H13799  10.961   0.619   7.180  1.5656  0.1933 -0.0519
  100MOL0     H13800  11.063   0.746   7.249 -0.1849  2.6718  0.2768
  101MOL0     O13801   7.280   7.147   5.381  0.0766 -0.0673  0.1652
  101MOL0     C13802   7.215   7.045   5.403  0.3858  0.1780 -0.4502
  101MOL0     O13803   7.080   7.026   5.375 -0.1063 -0.9443  0.1033
  101MOL0     C13804   6.994   7.126   5.323  0.2961  0.5406 -0.5097
  101MOL0     C13805   6.864   7.068   5.293 -0.7357 -0.5564  0.9159
  101MOL0     C13806   6.775   7.147   5.215  0.4793 -0.5377  0.2676
  101MOL0     C13807   6.801   7.279   5.184  1.2324 -0.9383 -0.0182
  101MOL0     O13808   6.721   7.346   5.094  0.0335 -0.0491  0.2473
  101MOL0     C13809   6.596   7.388   5.145  0.3106  0.4168  0.0461
  101MOL0     C13810   6.538   7.488   5.045 -0.4233  0.1159  0.2276
  101MOL0     C13811   6.401   7.539   5.080 -0.3115 -0.2877 -0.1447
  101MOL0     C13812   6.349   7.628   4.962 -0.0875  0.3192  0.2804
  101MOL0     C13813   6.242   7.721   5.015 -0.3849  0.5574 -0.5523
  101MOL0     C13814   6.190   7.799   4.891 -0.5130 -0.7264 -0.4859
  101MOL0     C13815   6.081   7.909   4.943 -0.2026  0.0393  1.1881
  101MOL0     C13816   5.948   7.852   4.978  0.9341 -0.2262 -0.9344
  101MOL0     N13817   5.845   7.837   4.877  0.3547 -0.2142  1.2092
  101MOL0     C13818   5.849   7.741   4.771  0.4855  0.1422  0.0498
  101MOL0     C13819   5.733   7.759   4.698 -0.1054  0.2180 -1.4028
  101MOL0     C13820   5.693   7.677   4.581  0.8712  0.3343  0.8098
  101MOL0     C13821   5.625   7.553   4.632 -0.4700 -0.4962 -0.7525
  101MOL0     C13822   5.583   7.460   4.514  0.8929 -0.1533 -0.4149
  101MOL0     C13823   5.696   7.371   4.469  0.4254 -0.6871  0.7438
  101MOL0     O13824   5.798   7.458   4.414  0.7640 -0.4615 -0.0371
  101MOL0     C13825   5.932   7.421   4.446 -0.1094  0.5494 -0.4438
  101MOL0     C13826   6.028   7.519   4.472  0.6097 -0.6145  0.8899
  101MOL0     C13827   6.165   7.490   4.496  0.4692  0.4913 -0.1380
  101MOL0     C13828   6.256   7.606   4.514  0.2453 -0.3323 -0.5447
  101MOL0     C13829   6.202   7.357   4.516 -0.2991 -0.3756  0.2393
  101MOL0     C13830   6.332   7.308   4.558  0.7052  0.2288  0.3244
  101MOL0     O13831   6.363   7.177   4.525 -0.1490 -0.0371  0.1166
  101MOL0     C13832   6.470   7.120   4.598  0.1381  0.5822 -0.4488
  101MOL0     C13833   6.522   7.167   4.726 -0.1693 -0.0865 -0.1521
  101MOL0     C13834   6.630   7.104   4.786 -1.0122  0.1569 -0.2269
  101MOL0     C13835   6.701   7.001   4.725 -0.5884 -1.3451  1.0628
  101MOL0     O13836   6.818   6.954   4.787  0.4752 -0.0923 -0.4259
  101MOL0     C13837   6.880   7.053   4.879  0.2562  1.5097 -0.1035
  101MOL0     C13838   7.020   7.004   4.907 -0.4981 -0.7556 -0.2815
  101MOL0     C13839   7.018   6.866   4.990  0.9401 -0.0964 -0.3986
  101MOL0     C13840   7.162   6.827   5.021 -0.2955 -0.3810  0.4167
  101MOL0     C13841   7.179   6.700   5.117  0.3833  0.5223 -0.3881
  101MOL0     C13842   7.139   6.568   5.056 -0.4402 -0.6802  0.6899
  101MOL0     C13843   7.195   6.468   5.153  0.0843  0.0487  0.5082
  101MOL0     C13844   7.154   6.325   5.134 -0.2087 -0.7052 -0.5497
  101MOL0    Cl13845   7.223   6.215   5.261 -0.6426  0.3230  0.4438
  101MOL0     C13846   6.657   6.955   4.606  0.0114  0.4590  0.1610
  101MOL0     C13847   6.546   7.012   4.541  0.0195 -0.8951  0.4675
  101MOL0     O13848   6.411   7.389   4.599  0.0897  0.2604 -0.3477
  101MOL0     C13849   6.107   7.266   4.491 -0.1675  0.0986 -0.2695
  101MOL0     C13850   5.976   7.295   4.454  0.4257  0.3653  0.4213
  101MOL0     N13851   5.676   7.879   4.755  0.3239  0.7655  0.1153
  101MOL0     N13852   5.730   7.912   4.866 -0.2870 -0.0434  0.4055
  101MOL0     C13853   6.926   7.332   5.224 -0.2544  0.3726  0.5790
  101MOL0     C13854   7.017   7.259   5.282 -0.5920  0.6682  0.2334
  101MOL0     C13855   7.302   6.921   5.433 -0.2605 -0.3428 -0.1453
  101MOL0     C13856   7.446   6.920   5.414  0.1653 -0.3893  0.7848
  101MOL0     C13857   7.526   6.805   5.446  0.0785  0.8039  0.5624
  101MOL0     C13858   7.471   6.693   5.498  0.6806  0.3948 -0.2839
  101MOL0     O13859   7.549   6.585   5.524 -0.1556 -0.2044  0.4260
  101MOL0     C13860   7.490   6.455   5.528 -0.1742 -0.7475 -0.9808
  101MOL0     C13861   7.616   6.367   5.506 -0.1307 -0.0718  1.3810
  101MOL0     C13862   7.596   6.228   5.548  0.0814  0.7061  0.3653
  101MOL0     C13863   7.711   6.143   5.502 -0.6697 -0.0457  0.5791
  101MOL0     C13864   7.689   6.107   5.367 -0.1023 -0.5908  0.8845
  101MOL0     C13865   7.668   6.087   5.252 -0.5695 -0.0973 -0.0137
  101MOL0     C13866   7.327   6.692   5.523  0.7180  1.0388  0.4420
  101MOL0     C13867   7.250   6.802   5.490  0.0600  0.0386  0.9298
  101MOL0     C13868   7.108   6.798   5.551  0.2182 -0.5750 -0.4827
  101MOL0     H13869   6.840   6.965   5.314 -1.3824 -0.3536  1.1903
  101MOL0     H13870   6.677   7.112   5.181  1.9250 -2.6467 -2.0506
  101MOL0     H13871   6.599   7.433   5.245  1.2608 -2.1355  1.2384
  101MOL0     H13872   6.526   7.306   5.157 -0.0385  0.4758 -1.4728
  101MOL0     H13873   6.610   7.570   5.043  1.1219 -1.1981 -0.7123
  101MOL0     H13874   6.538   7.443   4.945  2.6144  0.6718 -0.1230
  101MOL0     H13875   6.329   7.458   5.092 -1.2305  0.5994  0.5229
  101MOL0     H13876   6.408   7.590   5.177  1.3006  0.7705 -0.7789
  101MOL0     H13877   6.422   7.703   4.932 -1.0984  1.4923  0.6833
  101MOL0     H13878   6.321   7.571   4.873  1.1490 -1.2506  0.8580
  101MOL0     H13879   6.280   7.777   5.101  0.7049 -0.8803 -0.0492
  101MOL0     H13880   6.154   7.663   5.045 -1.3396  2.1345 -0.1768
  101MOL0     H13881   6.276   7.841   4.838 -1.2310  0.1034 -1.0246
  101MOL0     H13882   6.148   7.726   4.821 -0.6147 -1.1195 -0.0252
  101MOL0     H13883   6.078   7.981   4.860 -1.8759 -1.8104 -0.4814
  101MOL0     H13884   6.123   7.959   5.031 -1.1639 -1.4865  2.5567
  101MOL0     H13885   5.957   7.760   5.038 -0.4592  0.6616  0.7219
  101MOL0     H13886   5.914   7.925   5.053 -2.7345 -1.5553 -1.0970
  101MOL0     H13887   5.917   7.659   4.749  0.7495  0.0680  1.0849
  101MOL0     H13888   5.779   7.661   4.515  2.6184  1.2007  2.7470
  101MOL0     H13889   5.612   7.736   4.539 -0.5531 -1.1957  1.2834
  101MOL0     H13890   5.682   7.508   4.714  1.6229  0.8936 -1.3700
  101MOL0     H13891   5.537   7.594   4.683 -0.5021 -1.4798  0.0136
  101MOL0     H13892   5.502   7.395   4.549  0.4567 -0.4732 -1.9489
  101MOL0     H13893   5.546   7.519   4.429 -1.7445  2.0328  2.0406
  101MOL0     H13894   5.740   7.329   4.560  1.7709 -2.0426 -0.4563
  101MOL0     H13895   5.672   7.297   4.391  3.3555  0.1873 -1.1989
  101MOL0     H13896   5.988   7.619   4.469  1.9962 -0.0488  0.7810
  101MOL0     H13897   6.299   7.598   4.615  0.0975  0.6532 -0.3913
  101MOL0     H13898   6.199   7.700   4.513  3.1856  1.6679 -3.5248
  101MOL0     H13899   6.331   7.605   4.434  0.4424  1.8812 -0.4557
  101MOL0     H13900   6.470   7.247   4.778 -1.6017  0.3311 -2.0674
  101MOL0     H13901   6.664   7.144   4.881 -0.1874  2.6362 -1.4973
  101MOL0     H13902   6.896   7.148   4.826  0.4877  1.0587 -0.8587
  101MOL0     H13903   6.825   7.074   4.971  1.9560  1.2392  1.0178
  101MOL0     H13904   7.065   7.000   4.808 -0.5744 -0.0349 -0.3536
  101MOL0     H13905   7.078   7.086   4.951 -0.4896  0.4240 -2.3465
  101MOL0     H13906   6.964   6.788   4.935 -0.9000  1.0439 -0.3000
  101MOL0     H13907   6.966   6.878   5.085 -0.0555 -1.1002 -0.7921
  101MOL0     H13908   7.212   6.914   5.064  1.0110 -1.1553  0.4999
  101MOL0     H13909   7.215   6.818   4.926  1.4112  3.7108  0.7722
  101MOL0     H13910   7.281   6.696   5.158  0.5973  0.0449 -0.9673
  101MOL0     H13911   7.108   6.708   5.201 -1.7302 -1.0459 -1.9215
  101MOL0     H13912   7.185   6.565   4.957 -1.9907  0.5307 -0.1127
  101MOL0     H13913   7.035   6.541   5.039 -0.6405  0.3045  0.2583
  101MOL0     H13914   7.160   6.496   5.252 -2.7044 -0.2851 -0.3079
  101MOL0     H13915   7.304   6.473   5.161 -0.0187  0.5781  1.8552
  101MOL0     H13916   7.182   6.277   5.039  1.1657 -1.4286  0.1867
  101MOL0     H13917   7.045   6.319   5.139 -0.2601 -1.1901 -1.7432
  101MOL0     H13918   6.717   6.881   4.553  3.2310  2.2782  0.9783
  101MOL0     H13919   6.522   6.976   4.441 -2.1368  1.0192  0.1832
  101MOL0     H13920   6.128   7.161   4.508 -1.1320  0.0397  0.6837
  101MOL0     H13921   5.907   7.219   4.420  1.7746  1.0133 -4.6270
  101MOL0     H13922   6.933   7.439   5.204 -3.4196  0.7401  1.0073
  101MOL0     H13923   7.118   7.298   5.288  0.2338 -1.2850 -0.1402
  101MOL0     H13924   7.502   6.998   5.362  0.0519 -1.7351 -1.4753
  101MOL0     H13925   7.633   6.795   5.435 -0.1127 -1.2335  0.2391
  101MOL0     H13926   7.452   6.442   5.630 -1.2594  2.9426 -0.7346
  101MOL0     H13927   7.411   6.439   5.454 -1.2353  1.2773 -0.3779
  101MOL0     H13928   7.699   6.410   5.564 -0.2971  4.9785 -1.5486
  101MOL0     H13929   7.639   6.371   5.400  1.1129 -0.7444  1.6047
  101MOL0     H13930   7.591   6.219   5.657 -0.5265  0.9556  0.3620
  101MOL0     H13931   7.504   6.194   5.500  1.4784  0.8836 -2.7110
  101MOL0     H13932   7.720   6.056   5.567 -0.2721 -0.3504  0.1167
  101MOL0     H13933   7.812   6.184   5.510  0.4530 -2.9142  2.6761
  101MOL0     H13934   7.654   6.054   5.151 -0.1538 -3.8219  1.0031
  101MOL0     H13935   7.282   6.606   5.571  1.9989  1.9660  3.5914
  101MOL0     H13936   7.054   6.751   5.468 -0.9525 -1.1371  0.5614
  101MOL0     H13937   7.112   6.732   5.639  0.5842  0.6239  0.4241
  101MOL0     H13938   7.070   6.897   5.577  3.3769  0.2544  1.4901
  102MOL0     O13939   3.942   0.037   2.941  0.0896 -0.0536  0.6259
  102MOL0     C13940   4.038   0.006   3.009  0.0378  0.9563  0.7231
  102MOL0     O13941   4.145   0.079   3.027 -0.2935 -0.4372  0.2258
  102MOL0     C13942   4.186   0.174   2.935 -0.4725 -0.1210 -0.3984
  102MOL0     C13943   4.280   0.265   2.987  0.8732  0.3623  0.3008
  102MOL0     C13944   4.343   0.358   2.903 -0.1535 -0.8998  0.5983
  102MOL0     C13945   4.319   0.360   2.758  0.0604  0.7126 -0.5237
  102MOL0     O13946   4.394   0.435   2.679  0.2073  0.2526 -0.1002
  102MOL0     C13947   4.467   0.362   2.582  0.0721 -0.1273  0.3382
  102MOL0     C13948   4.571   0.448   2.522  0.6852 -0.0652 -0.7466
  102MOL0     C13949   4.680   0.373   2.443  0.4495 -0.2241  0.0316
  102MOL0     C13950   4.800   0.462   2.416 -0.0162 -1.0453  0.8299
  102MOL0     C13951   4.908   0.383   2.345  0.1013 -0.4712  0.4554
  102MOL0     C13952   5.018   0.487   2.319 -0.2508 -1.6290  0.3213
  102MOL0     C13953   5.151   0.433   2.267  0.1156  0.0819 -0.1438
  102MOL0     C13954   5.140   0.412   2.114 -0.4836 -0.2271 -0.4226
  102MOL0     N13955   5.131   0.540   2.036 -0.5672  0.6316 -0.8570
  102MOL0     C13956   5.027   0.593   1.970  0.0823  0.3242 -0.1859
  102MOL0     C13957   5.070   0.678   1.868  0.3499  0.1426  0.3409
  102MOL0     C13958   4.977   0.757   1.779 -1.3940  0.7268 -1.2533
  102MOL0     C13959   5.055   0.874   1.703  0.2964  0.0622 -0.1281
  102MOL0     C13960   5.102   0.984   1.804  0.0370  0.5856  0.4108
  102MOL0     C13961   5.174   1.094   1.722  0.6459 -0.0900  0.4719
  102MOL0     O13962   5.078   1.138   1.632 -0.0633 -0.1157 -0.0660
  102MOL0     C13963   5.104   1.187   1.508 -0.1542 -0.2805 -0.3365
  102MOL0     C13964   4.995   1.238   1.444 -0.2537  0.1306 -0.1229
  102MOL0     C13965   5.003   1.300   1.318 -0.5771 -0.3372  0.3502
  102MOL0     C13966   4.870   1.316   1.253 -0.1051 -0.2383 -0.2509
  102MOL0     C13967   5.130   1.318   1.250  0.6258  0.3985  0.2411
  102MOL0     C13968   5.162   1.403   1.125 -1.6390  0.0676 -0.2481
  102MOL0     O13969   5.299   1.398   1.097 -0.1204  0.1499  0.4876
  102MOL0     C13970   5.334   1.434   0.967 -0.3628 -0.1754  0.2248
  102MOL0     C13971   5.421   1.548   0.950 -0.7166  0.4431 -0.1216
  102MOL0     C13972   5.462   1.574   0.823  0.1423 -0.9466  0.6761
  102MOL0     C13973   5.419   1.500   0.714 -0.1949 -0.3775 -0.1124
  102MOL0     O13974   5.458   1.542   0.585  0.4152 -0.9318 -0.3732
  102MOL0     C13975   5.599   1.533   0.564  0.5687  0.0701 -0.5250
  102MOL0     C13976   5.639   1.514   0.421 -0.7910 -0.4043 -0.0903
  102MOL0     C13977   5.784   1.546   0.398 -0.6432 -0.2960  0.3714
  102MOL0     C13978   5.836   1.482   0.259  0.9175 -0.1992  0.3613
  102MOL0     C13979   5.788   1.576   0.147 -0.0264 -0.2594 -0.4485
  102MOL0     C13980   5.862   1.710   0.136 -0.4462  1.8164 -0.0353
  102MOL0     C13981   6.017   1.692   0.112  0.2014 -0.0642  0.5162
  102MOL0     C13982   6.104   1.815   0.127 -0.3678 -0.5074 -0.0905
  102MOL0    Cl13983   6.100   1.875   0.302 -0.0733 -0.0494  0.0628
  102MOL0     C13984   5.329   1.391   0.724  0.3235  0.0374 -0.1633
  102MOL0     C13985   5.302   1.352   0.860 -0.7144 -0.3651  0.5127
  102MOL0     O13986   5.077   1.439   1.049 -0.8620  0.3126  0.1454
  102MOL0     C13987   5.241   1.257   1.318 -0.2843  0.2304  0.1713
  102MOL0     C13988   5.220   1.192   1.443  0.0733  0.4106  0.1821
  102MOL0     N13989   5.205   0.673   1.868 -0.4639  0.4545  0.9532
  102MOL0     N13990   5.234   0.594   1.967  0.1506 -0.2053  0.4247
  102MOL0     C13991   4.234   0.262   2.713  0.1123  0.7672  0.6510
  102MOL0     C13992   4.168   0.168   2.794  0.2212  0.2257  0.4660
  102MOL0     C13993   4.037  -0.117   3.093 -0.3304 -1.0045  1.1580
  102MOL0     C13994   4.161  -0.181   3.096  0.6438  0.5829  1.3179
  102MOL0     C13995   4.164  -0.303   3.167  0.4278 -0.1395 -0.3373
  102MOL0     C13996   4.056  -0.341   3.251 -0.4294 -0.2406 -0.0508
  102MOL0     O13997   4.077  -0.455   3.334  0.0472 -0.1165 -0.3664
  102MOL0     C13998   4.060  -0.581   3.269 -0.0180 -0.0307 -0.5752
  102MOL0     C13999   4.077  -0.683   3.382  0.2571  0.5612 -0.4052
  102MOL0     C14000   4.227  -0.712   3.401  0.3071 -0.1961  0.4462
  102MOL0     C14001   4.250  -0.815   3.519  0.0904  0.0734 -0.0120
  102MOL0     C14002   4.235  -0.736   3.648 -0.4564 -0.4246  0.6451
  102MOL0     C14003   4.226  -0.669   3.748 -0.6134  1.0649  0.3153
  102MOL0     C14004   3.937  -0.277   3.242  0.0287 -0.0795  0.1433
  102MOL0     C14005   3.926  -0.171   3.155 -0.8737  0.3071  0.1134
  102MOL0     C14006   3.789  -0.109   3.153  0.2225 -0.1699  0.4210
  102MOL0     H14007   4.295   0.267   3.095  2.4484  0.0682  0.1133
  102MOL0     H14008   4.406   0.430   2.954 -2.7356  0.6760  1.7089
  102MOL0     H14009   4.398   0.328   2.505  0.3365 -0.2710  0.1634
  102MOL0     H14010   4.520   0.277   2.628  3.1001  0.8625 -1.0419
  102MOL0     H14011   4.514   0.523   2.465 -0.5180 -1.2611 -1.1932
  102MOL0     H14012   4.611   0.503   2.608 -1.3912  0.3862 -0.0078
  102MOL0     H14013   4.721   0.285   2.493  3.6755  0.7272 -0.6881
  102MOL0     H14014   4.647   0.317   2.355 -0.7109  2.4170 -1.3217
  102MOL0     H14015   4.768   0.554   2.367 -1.8021 -0.6088  2.6699
  102MOL0     H14016   4.843   0.508   2.505 -3.2343  1.4545  1.2911
  102MOL0     H14017   4.868   0.333   2.257  0.1708 -1.0165  0.7297
  102MOL0     H14018   4.951   0.304   2.407  1.1398  0.6497  1.2186
  102MOL0     H14019   4.980   0.568   2.256  0.2112 -0.7219  1.1836
  102MOL0     H14020   5.054   0.529   2.414  0.7735  0.9412 -1.0916
  102MOL0     H14021   5.182   0.339   2.313 -0.8753 -1.7532 -2.9611
  102MOL0     H14022   5.234   0.499   2.295  0.0860 -0.4518  1.2906
  102MOL0     H14023   5.230   0.361   2.079 -0.5959 -0.4241 -0.4243
  102MOL0     H14024   5.057   0.346   2.088  1.3346 -3.3550  1.1465
  102MOL0     H14025   4.929   0.577   2.012 -0.2458  1.7447 -0.3627
  102MOL0     H14026   4.896   0.791   1.844 -1.0731 -1.6992  0.5577
  102MOL0     H14027   4.935   0.690   1.703  1.1213  0.9606 -2.9698
  102MOL0     H14028   5.153   0.841   1.666  0.3349  0.6551 -0.5603
  102MOL0     H14029   4.990   0.917   1.627  0.8139 -1.2617 -1.3782
  102MOL0     H14030   5.018   1.019   1.865  0.5753  0.5538  1.1868
  102MOL0     H14031   5.184   0.936   1.857 -1.8377 -1.1108  1.8919
  102MOL0     H14032   5.203   1.186   1.773 -0.0687  0.4274 -0.0401
  102MOL0     H14033   5.271   1.058   1.687 -0.5087 -0.8176 -2.2470
  102MOL0     H14034   4.897   1.225   1.489 -0.6181 -0.0794 -0.9517
  102MOL0     H14035   4.832   1.416   1.274  3.1938  0.8861  0.9770
  102MOL0     H14036   4.791   1.246   1.282  1.4464 -1.4459  1.2289
  102MOL0     H14037   4.879   1.303   1.145  0.7279  0.2038 -0.2350
  102MOL0     H14038   5.465   1.606   1.031 -0.3220  0.7679 -0.5621
  102MOL0     H14039   5.535   1.652   0.805 -0.7123 -0.0348  1.0172
  102MOL0     H14040   5.648   1.623   0.602 -1.2787  1.0925 -0.4722
  102MOL0     H14041   5.642   1.450   0.622  1.1765  2.0671  2.0643
  102MOL0     H14042   5.620   1.410   0.394  0.4661  0.0010 -2.8930
  102MOL0     H14043   5.581   1.583   0.359  0.7919  2.9200  1.8810
  102MOL0     H14044   5.843   1.505   0.481 -2.0432 -1.4007  0.8623
  102MOL0     H14045   5.797   1.654   0.405 -1.4802 -0.2492  1.5869
  102MOL0     H14046   5.793   1.384   0.238  1.4146  0.0026 -1.7774
  102MOL0     H14047   5.944   1.463   0.256  0.8909 -0.2091 -2.1464
  102MOL0     H14048   5.806   1.532   0.048 -0.8937 -3.9301  0.8667
  102MOL0     H14049   5.682   1.598   0.164 -0.2866 -1.7745  0.0939
  102MOL0     H14050   5.846   1.755   0.235 -1.8460 -0.6341  0.9422
  102MOL0     H14051   5.807   1.770   0.063 -2.9009  0.9433  0.9978
  102MOL0     H14052   6.035   1.644   0.015  1.1334 -0.2393  0.7718
  102MOL0     H14053   6.046   1.622   0.191 -3.3849 -2.5692 -0.1182
  102MOL0     H14054   6.065   1.898   0.067  1.1210  1.0548  1.0036
  102MOL0     H14055   6.204   1.797   0.087 -0.6330 -0.3577 -0.8255
  102MOL0     H14056   5.296   1.338   0.635  0.2469 -1.2706  0.6203
  102MOL0     H14057   5.239   1.267   0.885  1.0667 -1.2942  2.0893
  102MOL0     H14058   5.345   1.267   1.289  0.3670 -1.3282  1.7861
  102MOL0     H14059   5.313   1.167   1.492  1.7334  2.1494 -1.8747
  102MOL0     H14060   4.218   0.257   2.605 -1.9201  0.6986  0.9189
  102MOL0     H14061   4.097   0.098   2.753 -1.5898  2.2402 -0.0457
  102MOL0     H14062   4.247  -0.146   3.039 -0.8920 -0.8134 -2.1743
  102MOL0     H14063   4.249  -0.369   3.177 -1.3050 -2.1504  2.8092
  102MOL0     H14064   3.959  -0.582   3.227  1.0685 -0.9642 -3.4423
  102MOL0     H14065   4.137  -0.597   3.193 -1.5052  0.5080 -2.2654
  102MOL0     H14066   4.023  -0.771   3.343  1.0519  0.3450 -1.0633
  102MOL0     H14067   4.034  -0.655   3.478  1.2549 -1.1704  0.5852
  102MOL0     H14068   4.262  -0.772   3.316  0.4106  0.2497  0.1732
  102MOL0     H14069   4.299  -0.630   3.406  1.4684 -1.0774 -0.8317
  102MOL0     H14070   4.345  -0.868   3.515 -0.9213 -1.8214 -0.2592
  102MOL0     H14071   4.179  -0.899   3.519  0.2897 -0.1205 -1.1483
  102MOL0     H14072   4.234  -0.609   3.837  1.5377  1.8990 -0.3790
  102MOL0     H14073   3.842  -0.307   3.284 -0.3115  0.5797 -0.1426
  102MOL0     H14074   3.714  -0.149   3.084 -0.3953  1.3155  0.2095
  102MOL0     H14075   3.744  -0.110   3.252  2.0282  1.6496  1.3383
  102MOL0     H14076   3.786  -0.005   3.119 -0.8871  0.3087  1.8828
  103MOL0     O14077   4.369   5.786   8.932  0.1202 -0.2940 -0.3807
  103MOL0     C14078   4.250   5.783   8.905  0.5813  0.2482 -0.3383
  103MOL0     O14079   4.194   5.676   8.832 -0.2818 -0.0566  0.2785
  103MOL0     C14080   4.278   5.612   8.750  0.3456 -0.9257 -0.1564
  103MOL0     C14081   4.374   5.521   8.792 -0.2319 -0.0303 -0.8646
  103MOL0     C14082   4.469   5.459   8.708 -0.3175 -0.0788  0.1352
  103MOL0     C14083   4.472   5.498   8.572 -0.7149 -0.0090  0.4599
  103MOL0     O14084   4.548   5.438   8.479  1.1454 -0.2030  0.2926
  103MOL0     C14085   4.627   5.327   8.522  0.9500 -0.3897 -0.4160
  103MOL0     C14086   4.690   5.240   8.418 -0.6693 -0.3840 -0.8458
  103MOL0     C14087   4.783   5.305   8.323  0.1323  0.3898  0.1473
  103MOL0     C14088   4.919   5.316   8.392 -0.9235 -0.0867 -0.2163
  103MOL0     C14089   5.024   5.388   8.304  0.8329 -0.0081  0.7601
  103MOL0     C14090   5.141   5.441   8.381 -0.5123 -0.5021  0.0190
  103MOL0     C14091   5.110   5.570   8.467 -0.4515  0.1651 -0.2116
  103MOL0     C14092   5.097   5.682   8.367  0.5567  0.7532  0.7928
  103MOL0     N14093   5.145   5.802   8.430 -0.1583 -0.7936 -0.0133
  103MOL0     C14094   5.071   5.880   8.509 -0.2253  0.6330 -0.5899
  103MOL0     C14095   5.148   5.977   8.547  1.0079 -1.0796 -0.3215
  103MOL0     C14096   5.121   6.098   8.641 -0.0581 -0.3132 -0.5635
  103MOL0     C14097   5.227   6.122   8.760 -0.6367 -1.1000  0.5759
  103MOL0     C14098   5.185   6.251   8.846  0.2443 -0.3724 -0.8840
  103MOL0     C14099   5.286   6.283   8.953  0.3760 -0.2824  0.6756
  103MOL0     O14100   5.409   6.317   8.886 -0.5927 -0.7526  0.0668
  103MOL0     C14101   5.523   6.310   8.965  0.6454  0.8240 -0.2389
  103MOL0     C14102   5.634   6.294   8.891  0.7441  0.4106 -0.3430
  103MOL0     C14103   5.762   6.289   8.954  0.7148  0.5017  0.0258
  103MOL0     C14104   5.877   6.261   8.846  0.2640 -0.8207 -0.3468
  103MOL0     C14105   5.772   6.299   9.098 -0.3911  0.0015 -0.7640
  103MOL0     C14106   5.906   6.296   9.173 -0.2621  0.1038  0.2053
  103MOL0     O14107   5.898   6.333   9.309 -0.2171  0.5510  0.2371
  103MOL0     C14108   6.000   6.314   9.397 -0.6223 -0.4530  0.3659
  103MOL0     C14109   6.141   6.290   9.361  0.3570  0.2069 -0.0482
  103MOL0     C14110   6.237   6.275   9.467  0.4246 -0.4354  0.4266
  103MOL0     C14111   6.204   6.282   9.597 -0.3025 -0.3504 -0.6102
  103MOL0     O14112   6.312   6.264   9.694  0.0563 -0.0106  0.1600
  103MOL0     C14113   6.288   6.235   9.836  0.3351 -0.3543  0.4659
  103MOL0     C14114   6.205   6.106   9.867 -0.1547  1.0122  0.6588
  103MOL0     C14115   6.313   6.000   9.891 -0.7000 -0.3031 -0.2809
  103MOL0     C14116   6.265   5.855   9.902 -0.4622 -0.3507  0.3180
  103MOL0     C14117   6.372   5.751   9.926 -0.1185  0.2025  0.7648
  103MOL0     C14118   6.307   5.614   9.956  0.0459  0.7582  0.2281
  103MOL0     C14119   6.426   5.507   9.954 -0.1047  0.1867  0.4021
  103MOL0     C14120   6.382   5.378  10.011  0.1938 -0.1956  0.8569
  103MOL0    Cl14121   6.260   5.290   9.907 -0.0398 -0.0056 -0.3236
  103MOL0     C14122   6.067   6.321   9.629 -0.4714  0.2065  0.3205
  103MOL0     C14123   5.971   6.335   9.531 -0.1496  0.7984  0.6944
  103MOL0     O14124   5.998   6.247   9.117 -0.1640 -0.6908  0.1276
  103MOL0     C14125   5.653   6.309   9.170  1.2854  0.1097  0.2663
  103MOL0     C14126   5.524   6.318   9.103 -0.0913 -0.1442 -0.0462
  103MOL0     N14127   5.266   5.966   8.482 -0.3801  0.7205 -0.7339
  103MOL0     N14128   5.258   5.868   8.402  0.2880 -0.0238 -1.0260
  103MOL0     C14129   4.384   5.600   8.521 -1.3201  0.5313 -0.3148
  103MOL0     C14130   4.296   5.656   8.621  0.4637  0.9610  0.0390
  103MOL0     C14131   4.158   5.884   8.976  0.1861  0.1114 -0.2180
  103MOL0     C14132   4.208   5.968   9.081  0.0478  0.8429 -0.9380
  103MOL0     C14133   4.123   6.042   9.166  0.5829 -0.3004  1.0604
  103MOL0     C14134   3.989   6.051   9.147  0.2113 -0.3396 -0.2647
  103MOL0     O14135   3.935   6.133   9.239 -0.5141 -0.4433  0.3200
  103MOL0     C14136   3.789   6.131   9.255 -0.0058 -0.9646  1.0280
  103MOL0     C14137   3.722   6.238   9.157  0.0599  0.4956 -0.6613
  103MOL0     C14138   3.569   6.222   9.161  0.6852 -0.0929  1.0701
  103MOL0     C14139   3.491   6.301   9.261  0.4752 -0.6905  0.5230
  103MOL0     C14140   3.533   6.269   9.401  0.3254  0.6084  0.4091
  103MOL0     C14141   3.541   6.220   9.514 -0.0786  0.2345  0.3534
  103MOL0     C14142   3.943   5.988   9.031  1.1054 -0.2221  0.6408
  103MOL0     C14143   4.023   5.909   8.940  0.3346  0.0095 -0.3040
  103MOL0     C14144   3.941   5.830   8.838  0.5429 -0.1688  0.9209
  103MOL0     H14145   4.361   5.485   8.893  1.5991  1.2470 -0.1145
  103MOL0     H14146   4.543   5.388   8.745  0.7493 -0.8670 -3.1761
  103MOL0     H14147   4.560   5.252   8.567 -0.9799  0.8141 -1.1492
  103MOL0     H14148   4.702   5.360   8.595  1.4158  1.7099 -1.7610
  103MOL0     H14149   4.747   5.156   8.459 -3.2033 -1.5480  0.5435
  103MOL0     H14150   4.608   5.205   8.355 -1.1690  1.7748 -1.4702
  103MOL0     H14151   4.803   5.238   8.239  0.7786  1.2085 -0.3697
  103MOL0     H14152   4.757   5.407   8.292  0.2556  0.1771 -0.6786
  103MOL0     H14153   4.902   5.365   8.488 -3.2737 -2.4498  0.6972
  103MOL0     H14154   4.966   5.222   8.423  0.4267  0.8932  0.8551
  103MOL0     H14155   4.979   5.470   8.247  1.7692 -0.4415 -0.6410
  103MOL0     H14156   5.066   5.315   8.235  0.8658  0.7831 -0.0774
  103MOL0     H14157   5.180   5.363   8.447  4.1580  0.9826 -0.6160
  103MOL0     H14158   5.220   5.470   8.311 -1.0209  2.7849  0.6368
  103MOL0     H14159   5.192   5.592   8.536 -0.2297 -0.2619 -0.3288
  103MOL0     H14160   5.016   5.566   8.523 -2.0128 -1.6343 -2.7211
  103MOL0     H14161   5.153   5.672   8.274 -2.9410 -0.9678 -1.3216
  103MOL0     H14162   4.992   5.698   8.342  0.1691 -0.6188  1.4780
  103MOL0     H14163   4.966   5.868   8.536 -0.4860  3.1068 -0.2257
  103MOL0     H14164   5.020   6.080   8.680  0.0551  1.2293  0.5187
  103MOL0     H14165   5.128   6.186   8.576 -0.8494 -0.5993 -1.0521
  103MOL0     H14166   5.226   6.042   8.834 -3.9456 -0.1191  1.7926
  103MOL0     H14167   5.328   6.130   8.720 -0.8354 -2.4783 -0.2678
  103MOL0     H14168   5.177   6.338   8.780 -4.2974  0.4694  0.4323
  103MOL0     H14169   5.090   6.247   8.900  0.3037  1.3858 -0.5850
  103MOL0     H14170   5.258   6.374   9.006 -0.5921 -0.0393 -0.2084
  103MOL0     H14171   5.306   6.189   9.006  2.9686  0.6158  1.4398
  103MOL0     H14172   5.621   6.290   8.784  2.0399  0.6603 -0.5314
  103MOL0     H14173   5.923   6.164   8.865  1.8767 -0.7075 -3.1463
  103MOL0     H14174   5.957   6.335   8.853  0.7140 -1.3104 -0.1938
  103MOL0     H14175   5.843   6.263   8.742 -0.8846 -0.9392  0.0044
  103MOL0     H14176   6.188   6.286   9.263  3.1737 -0.2766  1.2158
  103MOL0     H14177   6.337   6.256   9.428  1.0890  1.8087  0.8708
  103MOL0     H14178   6.391   6.238   9.874  1.9931 -1.0656 -3.5322
  103MOL0     H14179   6.229   6.318   9.877  0.4376  1.2930 -2.4505
  103MOL0     H14180   6.138   6.111   9.953 -1.0125 -0.3824  0.1131
  103MOL0     H14181   6.154   6.061   9.781  2.2974  1.3217 -1.0691
  103MOL0     H14182   6.355   6.021   9.990  1.0233 -0.1853 -0.9978
  103MOL0     H14183   6.394   6.004   9.818  0.5969 -0.7758  1.0889
  103MOL0     H14184   6.197   5.821   9.824  0.2437  0.9182 -0.8771
  103MOL0     H14185   6.202   5.851   9.992  0.2489 -0.5154  0.8179
  103MOL0     H14186   6.431   5.733   9.835 -3.8340 -0.2877 -1.7710
  103MOL0     H14187   6.437   5.788  10.006  0.8909  0.0352  0.0404
  103MOL0     H14188   6.236   5.582   9.879 -0.8842 -1.1796  1.7981
  103MOL0     H14189   6.251   5.610  10.049 -2.6106  0.1849 -1.2920
  103MOL0     H14190   6.511   5.556  10.003  3.0790 -1.0111 -3.4264
  103MOL0     H14191   6.460   5.499   9.851  0.4674 -1.2314  0.6821
  103MOL0     H14192   6.348   5.390  10.114  0.7449  0.2822  0.9868
  103MOL0     H14193   6.461   5.306  10.031  1.1701 -0.0799 -2.0183
  103MOL0     H14194   6.034   6.339   9.731 -1.7149  2.5815 -0.4186
  103MOL0     H14195   5.866   6.352   9.553 -1.1566 -1.2266 -1.9974
  103MOL0     H14196   5.656   6.309   9.278  0.5738 -0.4340  0.2903
  103MOL0     H14197   5.432   6.335   9.158  0.2492 -0.9061  0.7780
  103MOL0     H14198   4.399   5.645   8.423 -2.9846  0.0811 -0.8201
  103MOL0     H14199   4.229   5.739   8.598  0.7355  0.6505 -2.1348
  103MOL0     H14200   4.311   5.950   9.110 -0.9758  0.6259  3.2130
  103MOL0     H14201   4.176   6.087   9.250 -1.4754  1.8562  1.3066
  103MOL0     H14202   3.754   6.029   9.239 -1.0789 -0.5800  0.8635
  103MOL0     H14203   3.759   6.156   9.357  0.6425  0.1267  0.9697
  103MOL0     H14204   3.755   6.228   9.053 -0.9837  0.9808 -1.0487
  103MOL0     H14205   3.748   6.341   9.185  2.0511 -0.4541  1.2995
  103MOL0     H14206   3.520   6.258   9.071  1.7997  0.7528  0.7768
  103MOL0     H14207   3.539   6.117   9.172 -1.6038  0.4144  0.0467
  103MOL0     H14208   3.384   6.285   9.243  0.1821  0.0237  1.5234
  103MOL0     H14209   3.502   6.408   9.242 -2.1147 -0.2539  1.1141
  103MOL0     H14210   3.542   6.202   9.619 -3.1184  2.5977  0.9128
  103MOL0     H14211   3.839   5.995   9.004  1.2566 -1.2509 -0.2625
  103MOL0     H14212   3.853   5.892   8.820  0.4163  0.1940  2.6241
  103MOL0     H14213   3.996   5.821   8.744 -0.2474 -0.4731  0.4721
  103MOL0     H14214   3.901   5.731   8.863 -1.0653  0.7864  2.2872
  104MOL0     O14215  10.005   6.617   6.459  0.7559 -0.4115 -0.1323
  104MOL0     C14216   9.912   6.563   6.395  0.6005  0.7488  0.1273
  104MOL0     O14217   9.926   6.446   6.325  0.6601  0.4795 -0.2019
  104MOL0     C14218  10.048   6.395   6.295 -0.0155  0.8673  0.4584
  104MOL0     C14219  10.162   6.384   6.376 -0.7037  0.3066 -0.8727
  104MOL0     C14220  10.290   6.346   6.325  0.1179  0.1073  0.3815
  104MOL0     C14221  10.304   6.307   6.196  0.3839  0.4489  0.5871
  104MOL0     O14222  10.430   6.266   6.165  0.1324 -0.1674  0.6205
  104MOL0     C14223  10.477   6.323   6.035 -0.8223  0.8388  0.6867
  104MOL0     C14224  10.621   6.328   6.025  0.0319 -0.0587 -1.1878
  104MOL0     C14225  10.697   6.204   6.078  0.0387 -0.1667 -0.6090
  104MOL0     C14226  10.701   6.098   5.975  0.2163  0.0822  0.0903
  104MOL0     C14227  10.772   5.976   6.023 -0.0534 -0.5223  0.6264
  104MOL0     C14228  10.729   5.844   5.945  0.5985  0.1570  0.3821
  104MOL0     C14229  10.854   5.759   5.954  0.0550 -0.6238  0.4412
  104MOL0     C14230  10.884   5.714   6.096  0.0378 -0.2937 -0.8344
  104MOL0     N14231  10.980   5.600   6.085 -0.2434  0.0518 -0.3470
  104MOL0     C14232  10.966   5.483   6.020 -0.1772  1.0086  0.7399
  104MOL0     C14233  11.091   5.422   6.016 -0.0826 -0.4426  0.4723
  104MOL0     C14234  11.117   5.289   5.943 -0.4920 -0.2529  0.2110
  104MOL0     C14235  11.182   5.188   6.037  0.6611  0.7732  0.1438
  104MOL0     C14236  11.252   5.060   5.972  0.5273 -0.8637 -0.0412
  104MOL0     C14237  11.157   4.990   5.880  1.3740  1.0856  0.3352
  104MOL0     O14238  11.209   4.860   5.851 -0.3182 -0.0701 -0.0430
  104MOL0     C14239  11.151   4.770   5.767  0.0334  1.0496 -0.5557
  104MOL0     C14240  11.036   4.783   5.686  0.1952 -0.7431 -0.0971
  104MOL0     C14241  10.988   4.673   5.613  0.4827 -0.1297  0.0996
  104MOL0     C14242  10.866   4.704   5.527 -0.4783  0.3479  0.3965
  104MOL0     C14243  11.046   4.544   5.614  0.3894 -0.5301  0.1796
  104MOL0     C14244  10.996   4.423   5.541  0.1194 -0.0297 -0.5776
  104MOL0     O14245  10.867   4.429   5.491 -0.4713  0.2869 -0.6337
  104MOL0     C14246  10.812   4.314   5.443 -0.3580 -0.2142 -1.2500
  104MOL0     C14247  10.808   4.189   5.506  0.5150 -0.2362 -0.8557
  104MOL0     C14248  10.729   4.078   5.459  0.1967  0.4410 -0.3908
  104MOL0     C14249  10.659   4.092   5.337  0.1809  0.7937 -0.2025
  104MOL0     O14250  10.575   3.999   5.275 -0.2984  0.0158 -0.2572
  104MOL0     C14251  10.555   3.874   5.348 -0.0034 -0.1816  0.7427
  104MOL0     C14252  10.424   3.880   5.423 -0.3076 -0.8898  0.2155
  104MOL0     C14253  10.421   3.952   5.555 -0.2635 -0.3916  0.4853
  104MOL0     C14254  10.304   3.884   5.643  0.0133  0.1391 -0.3397
  104MOL0     C14255  10.335   3.865   5.798  0.3651  0.3973  0.0981
  104MOL0     C14256  10.458   3.784   5.846 -0.7270 -0.1173 -0.0747
  104MOL0     C14257  10.480   3.652   5.755 -1.0150  0.2206  0.5184
  104MOL0     C14258  10.365   3.551   5.756  0.5308  0.1210  0.8534
  104MOL0    Cl14259  10.353   3.457   5.915  0.0074 -0.0659  0.3014
  104MOL0     C14260  10.668   4.211   5.278  0.0203  0.1673  0.3181
  104MOL0     C14261  10.742   4.326   5.322 -0.8371  0.3811 -0.9652
  104MOL0     O14262  11.068   4.323   5.538  0.2126  0.4094 -0.6452
  104MOL0     C14263  11.158   4.530   5.705 -0.1066 -0.2633  0.3448
  104MOL0     C14264  11.207   4.640   5.774  0.3653  1.4380  0.0911
  104MOL0     N14265  11.179   5.511   6.087 -0.0311  0.5568 -0.3562
  104MOL0     N14266  11.108   5.610   6.134  0.0276 -0.6809 -0.8205
  104MOL0     C14267  10.183   6.300   6.120 -0.2101 -0.6676  0.2585
  104MOL0     C14268  10.057   6.340   6.167  0.2178  0.7176  0.1123
  104MOL0     C14269   9.767   6.612   6.401  0.1561  0.6667  0.4796
  104MOL0     C14270   9.666   6.536   6.335 -0.8715  0.3568 -0.8559
  104MOL0     C14271   9.536   6.570   6.334 -0.3859 -0.1869  0.4473
  104MOL0     C14272   9.490   6.685   6.406 -1.6981 -0.8428  0.8135
  104MOL0     O14273   9.358   6.723   6.399 -0.6115  0.3898 -0.5505
  104MOL0     C14274   9.345   6.805   6.285 -0.6284 -0.8558  0.4097
  104MOL0     C14275   9.197   6.840   6.255  0.3152 -0.3147 -0.6013
  104MOL0     C14276   9.128   6.917   6.360  0.8776 -0.7241  0.2742
  104MOL0     C14277   8.979   6.966   6.326 -0.0120 -0.0195 -0.1988
  104MOL0     C14278   8.930   7.033   6.440 -0.5556 -0.0337 -0.2120
  104MOL0     C14279   8.902   7.083   6.545  0.1878 -0.5844  0.0394
  104MOL0     C14280   9.587   6.758   6.479  0.1425  0.2569 -0.1608
  104MOL0     C14281   9.726   6.735   6.472  0.5191 -0.1320  0.8172
  104MOL0     C14282   9.818   6.833   6.551 -1.0588 -0.4538  0.0494
  104MOL0     H14283  10.164   6.405   6.483 -2.7766  1.8511 -1.0988
  104MOL0     H14284  10.377   6.326   6.387 -0.0643  0.3183  0.7112
  104MOL0     H14285  10.441   6.426   6.019 -0.2926  1.0912  1.0929
  104MOL0     H14286  10.442   6.255   5.956  1.1008 -0.2371  0.7209
  104MOL0     H14287  10.652   6.345   5.922 -0.7015  1.4922 -1.1841
  104MOL0     H14288  10.659   6.416   6.078 -0.5271  0.3662 -1.4958
  104MOL0     H14289  10.800   6.236   6.098  1.5679 -3.4895 -2.1943
  104MOL0     H14290  10.661   6.166   6.174  0.8196 -0.2800 -0.3525
  104MOL0     H14291  10.598   6.066   5.953  0.0079 -0.4240  1.6836
  104MOL0     H14292  10.738   6.126   5.876 -4.5120  1.0612 -1.7108
  104MOL0     H14293  10.755   5.967   6.130  0.3469  1.4326  0.9053
  104MOL0     H14294  10.880   5.995   6.018  0.2810 -2.0242  1.5421
  104MOL0     H14295  10.636   5.801   5.983 -0.9278  3.1156  0.3161
  104MOL0     H14296  10.695   5.884   5.849 -4.0961 -1.7104  1.0458
  104MOL0     H14297  10.932   5.812   5.899 -0.2711 -1.3281 -0.7345
  104MOL0     H14298  10.833   5.672   5.891 -2.3400  1.0726 -1.3205
  104MOL0     H14299  10.920   5.796   6.159 -0.2699 -0.5858 -0.2708
  104MOL0     H14300  10.788   5.674   6.131 -0.4726  1.0091 -0.6714
  104MOL0     H14301  10.876   5.438   5.982  0.8404 -1.8801  1.5220
  104MOL0     H14302  11.183   5.324   5.862 -0.6076 -3.0831 -1.2174
  104MOL0     H14303  11.025   5.248   5.901  0.8750 -1.5014 -1.7854
  104MOL0     H14304  11.257   5.246   6.092 -1.0088  3.6825 -0.4401
  104MOL0     H14305  11.106   5.144   6.101  0.8139 -1.5840 -1.1614
  104MOL0     H14306  11.340   5.081   5.911  1.3141 -1.4632  0.8652
  104MOL0     H14307  11.277   4.984   6.046 -2.5407 -4.0336 -1.9138
  104MOL0     H14308  11.060   4.970   5.927  1.4070  1.2207  0.4622
  104MOL0     H14309  11.143   5.037   5.782  2.8886  0.8414 -0.0180
  104MOL0     H14310  10.981   4.876   5.680 -0.6989 -1.1653  1.0946
  104MOL0     H14311  10.862   4.651   5.431 -5.4870 -2.1677  1.6578
  104MOL0     H14312  10.855   4.812   5.514 -0.9878  0.0941 -1.6286
  104MOL0     H14313  10.777   4.667   5.578  0.9378  2.6051  5.0996
  104MOL0     H14314  10.847   4.178   5.607 -1.5399 -1.3258 -0.1277
  104MOL0     H14315  10.717   3.999   5.532  0.1684 -0.6752 -1.5659
  104MOL0     H14316  10.547   3.797   5.271  0.0599 -2.5081  2.9396
  104MOL0     H14317  10.636   3.842   5.415 -1.1098 -0.6177  1.8956
  104MOL0     H14318  10.340   3.908   5.358 -0.8200 -3.2449 -0.2511
  104MOL0     H14319  10.412   3.772   5.439  1.7188 -1.5072 -1.8641
  104MOL0     H14320  10.396   4.057   5.538  0.9824 -0.2247 -0.5028
  104MOL0     H14321  10.524   3.948   5.591  0.3528 -0.6821 -1.2008
  104MOL0     H14322  10.270   3.793   5.592  0.7182  0.1161 -0.7871
  104MOL0     H14323  10.220   3.954   5.637 -1.0147 -0.9098  1.1604
  104MOL0     H14324  10.332   3.960   5.852  1.7638 -0.3966  1.6625
  104MOL0     H14325  10.262   3.798   5.843  1.6463  0.2321  2.0528
  104MOL0     H14326  10.449   3.763   5.954  1.0539 -0.5934  0.0073
  104MOL0     H14327  10.547   3.846   5.851 -1.5168  0.9984  0.7874
  104MOL0     H14328  10.570   3.606   5.796 -0.7153  1.8309  1.7755
  104MOL0     H14329  10.508   3.688   5.655  1.2223 -0.6026  0.8064
  104MOL0     H14330  10.385   3.476   5.679 -2.1605 -0.1705  0.3361
  104MOL0     H14331  10.271   3.606   5.743  0.1746  0.3370  3.7426
  104MOL0     H14332  10.618   4.216   5.182 -0.4449 -1.6145  0.4333
  104MOL0     H14333  10.740   4.422   5.272 -4.1746  2.3524  2.4040
  104MOL0     H14334  11.201   4.432   5.725 -4.9009 -2.8754 -0.4061
  104MOL0     H14335  11.292   4.613   5.836 -0.5785  1.0974  1.2898
  104MOL0     H14336  10.201   6.278   6.015  0.6044 -4.0316  0.9916
  104MOL0     H14337   9.958   6.326   6.125 -0.6966  3.0123  1.3354
  104MOL0     H14338   9.698   6.450   6.277 -0.6362  0.4675 -0.8953
  104MOL0     H14339   9.464   6.504   6.286 -1.4599  0.7980  0.6484
  104MOL0     H14340   9.407   6.895   6.293 -1.5688 -0.1864  0.4537
  104MOL0     H14341   9.388   6.757   6.197  2.0171  2.8489 -0.5561
  104MOL0     H14342   9.136   6.752   6.233 -0.7810  0.8905 -2.6946
  104MOL0     H14343   9.193   6.906   6.168 -0.5127 -4.4239 -4.0805
  104MOL0     H14344   9.134   6.853   6.449  1.5006 -1.2131 -0.1137
  104MOL0     H14345   9.187   7.004   6.391 -0.2091 -0.7065  2.5525
  104MOL0     H14346   8.925   6.871   6.319 -0.2630 -0.0983  2.1284
  104MOL0     H14347   8.960   7.026   6.237 -1.2557  1.0819  0.7768
  104MOL0     H14348   8.893   7.145   6.632  0.1205 -1.0595  0.3747
  104MOL0     H14349   9.544   6.835   6.542 -0.3857 -0.2337  0.0814
  104MOL0     H14350   9.774   6.864   6.646  0.5575  0.6707  0.4765
  104MOL0     H14351   9.914   6.793   6.583  0.4412  3.5208  1.0571
  104MOL0     H14352   9.847   6.917   6.487  2.1696 -1.0535  0.5422
  105MOL0     O14353   5.420   4.602   7.369 -0.4651  0.4469  0.0581
  105MOL0     C14354   5.525   4.543   7.406  0.8592 -0.0380 -0.7969
  105MOL0     O14355   5.535   4.407   7.403 -0.2525  0.0661 -0.8536
  105MOL0     C14356   5.426   4.345   7.353 -0.9764  0.0781  0.2243
  105MOL0     C14357   5.456   4.260   7.245  0.2354  0.7749 -0.1281
  105MOL0     C14358   5.353   4.186   7.182  0.8215  0.7775  0.0356
  105MOL0     C14359   5.223   4.206   7.224  0.7674 -0.9537 -0.4707
  105MOL0     O14360   5.109   4.165   7.149 -1.2974 -0.2997  0.7753
  105MOL0     C14361   5.101   4.213   7.011  0.0215  0.1922  0.3571
  105MOL0     C14362   4.991   4.156   6.936  0.3619  0.6076  0.3156
  105MOL0     C14363   4.956   4.216   6.795  0.6793  0.2235 -0.5962
  105MOL0     C14364   4.843   4.140   6.729  0.4818  0.5505  0.5028
  105MOL0     C14365   4.763   4.217   6.631  0.5833 -0.3654 -0.2798
  105MOL0     C14366   4.658   4.315   6.700  0.0242 -0.0489  0.1756
  105MOL0     C14367   4.560   4.373   6.595  0.3238  0.2866 -0.3138
  105MOL0     C14368   4.423   4.314   6.602  0.1131 -0.1648 -0.4753
  105MOL0     N14369   4.419   4.175   6.539 -0.2809  0.0589  0.8659
  105MOL0     C14370   4.445   4.060   6.612 -0.0784  0.1116  0.8928
  105MOL0     C14371   4.454   3.971   6.513 -0.2501 -0.1520 -0.1427
  105MOL0     C14372   4.448   3.829   6.559 -0.6183 -0.4620 -0.6349
  105MOL0     C14373   4.577   3.770   6.492  0.4132 -0.3579 -0.5338
  105MOL0     C14374   4.617   3.630   6.541 -0.0415 -0.9469  0.2250
  105MOL0     C14375   4.498   3.520   6.538  0.3825  0.3822 -0.4234
  105MOL0     O14376   4.422   3.516   6.416  0.0862  0.7429 -0.4954
  105MOL0     C14377   4.302   3.441   6.428  0.2110 -0.1794 -0.6901
  105MOL0     C14378   4.262   3.366   6.540  0.9363 -0.4285 -0.0313
  105MOL0     C14379   4.156   3.274   6.531 -0.4759  0.1939  0.2075
  105MOL0     C14380   4.111   3.204   6.660  0.0615 -0.3812  1.2174
  105MOL0     C14381   4.094   3.256   6.410  0.2402  0.4612 -0.1978
  105MOL0     C14382   3.973   3.166   6.385 -0.1125  1.1362  0.5287
  105MOL0     O14383   3.969   3.065   6.470 -0.1662 -0.1025  0.7362
  105MOL0     C14384   3.849   2.999   6.480  0.9530  0.5142  0.7419
  105MOL0     C14385   3.840   2.860   6.442  0.2699 -0.1551  0.2571
  105MOL0     C14386   3.718   2.798   6.428 -0.4894  0.6518  0.4368
  105MOL0     C14387   3.594   2.861   6.445 -0.2466 -0.3040  0.3179
  105MOL0     O14388   3.474   2.799   6.426 -0.2306  0.3011 -0.7835
  105MOL0     C14389   3.470   2.660   6.405 -0.5083  0.4837 -0.0550
  105MOL0     C14390   3.321   2.627   6.384 -0.4049 -0.4766 -0.4541
  105MOL0     C14391   3.296   2.474   6.382 -0.8704 -0.9616  0.1760
  105MOL0     C14392   3.144   2.450   6.384  0.6549 -0.1690  0.0184
  105MOL0     C14393   3.113   2.304   6.369 -0.0755  0.6869 -1.1111
  105MOL0     C14394   2.962   2.262   6.356 -0.3582  0.0288 -0.8729
  105MOL0     C14395   2.890   2.274   6.496  1.1492  0.7724  1.0694
  105MOL0     C14396   2.733   2.261   6.474 -0.0272  0.4335 -0.6523
  105MOL0    Cl14397   2.655   2.399   6.367  0.1777  0.4423 -0.0142
  105MOL0     C14398   3.598   2.995   6.493 -0.4417  0.1995  0.0512
  105MOL0     C14399   3.721   3.060   6.500  0.5373  0.8901 -1.0105
  105MOL0     O14400   3.899   3.191   6.292 -0.1528  0.7036  0.5303
  105MOL0     C14401   4.138   3.328   6.304 -0.2995  0.0888  0.2349
  105MOL0     C14402   4.237   3.416   6.309 -1.4771 -0.3986 -1.1484
  105MOL0     N14403   4.430   4.022   6.388  0.5192 -0.0899  0.6506
  105MOL0     N14404   4.392   4.144   6.403  0.1577 -0.4441 -0.3265
  105MOL0     C14405   5.188   4.291   7.333 -0.5352  0.2314  1.0783
  105MOL0     C14406   5.296   4.352   7.389 -1.0698  0.1266 -0.6703
  105MOL0     C14407   5.618   4.624   7.483  0.5346  0.2605 -0.1312
  105MOL0     C14408   5.732   4.561   7.539 -0.6827  1.0826 -0.7564
  105MOL0     C14409   5.823   4.637   7.621 -0.1983  0.1463 -0.9327
  105MOL0     C14410   5.798   4.773   7.655 -0.5292  0.0100 -0.4061
  105MOL0     O14411   5.860   4.847   7.752 -0.3426 -0.8818 -0.1803
  105MOL0     C14412   5.991   4.801   7.799  0.0019  0.2933 -0.2245
  105MOL0     C14413   6.087   4.920   7.806 -0.3831 -0.1749 -0.2589
  105MOL0     C14414   6.053   5.003   7.929 -0.9937  0.0912 -0.3835
  105MOL0     C14415   6.166   5.095   7.963  0.3298 -0.5699  0.7073
  105MOL0     C14416   6.139   5.159   8.090  0.1672  0.0210 -0.9173
  105MOL0     C14417   6.094   5.209   8.191 -0.0916  0.0658  0.8895
  105MOL0     C14418   5.687   4.829   7.588 -0.7464  0.1442  0.4519
  105MOL0     C14419   5.598   4.757   7.507  0.0266  0.2010  0.6485
  105MOL0     C14420   5.488   4.847   7.445 -0.7293  0.4857  1.4221
  105MOL0     H14421   5.555   4.235   7.209 -1.1391 -1.5420 -2.5948
  105MOL0     H14422   5.362   4.109   7.106 -2.1471  2.6606 -2.4667
  105MOL0     H14423   5.192   4.176   6.963 -0.5125 -0.8831  0.1347
  105MOL0     H14424   5.092   4.322   7.000 -2.5052 -0.0669 -0.9115
  105MOL0     H14425   5.017   4.050   6.926 -3.4966 -0.7485  2.8456
  105MOL0     H14426   4.906   4.168   7.002 -0.3456  2.2905 -0.8106
  105MOL0     H14427   4.916   4.318   6.804 -2.8632 -1.1802  4.7843
  105MOL0     H14428   5.042   4.222   6.728  3.2769 -2.6537  2.1387
  105MOL0     H14429   4.885   4.055   6.675 -0.6942  2.5521 -4.0406
  105MOL0     H14430   4.781   4.099   6.809  2.5135 -0.4292  1.6558
  105MOL0     H14431   4.706   4.151   6.565 -1.0142  2.1537 -1.5610
  105MOL0     H14432   4.824   4.283   6.569  0.5760 -0.4962 -0.4282
  105MOL0     H14433   4.600   4.274   6.783 -0.2842 -0.9175 -0.4629
  105MOL0     H14434   4.717   4.399   6.739  3.0443 -2.7011  1.8812
  105MOL0     H14435   4.596   4.341   6.497 -2.8082  2.1846 -2.2530
  105MOL0     H14436   4.544   4.481   6.594  0.8329  0.3815  0.8430
  105MOL0     H14437   4.382   4.320   6.703 -3.4198  3.8288 -1.8467
  105MOL0     H14438   4.358   4.385   6.551  0.1779  1.5920  1.7134
  105MOL0     H14439   4.444   4.041   6.719 -0.7075 -2.4834  0.4984
  105MOL0     H14440   4.354   3.779   6.535  0.4580 -4.4554  2.4816
  105MOL0     H14441   4.468   3.815   6.665 -2.2312 -2.9676 -0.5881
  105MOL0     H14442   4.561   3.768   6.384  2.1896 -2.9868 -0.8111
  105MOL0     H14443   4.657   3.842   6.510  0.9680 -0.7360 -1.4145
  105MOL0     H14444   4.693   3.583   6.479 -1.5924 -0.2538 -2.3226
  105MOL0     H14445   4.675   3.637   6.634  1.6288 -1.6552 -0.7326
  105MOL0     H14446   4.551   3.425   6.553  1.9070  1.4819  1.8459
  105MOL0     H14447   4.430   3.545   6.620  0.5424 -0.6238  0.0305
  105MOL0     H14448   4.321   3.372   6.631  0.5567  1.6020  0.1309
  105MOL0     H14449   4.161   3.242   6.749  1.4849  4.1523 -1.2217
  105MOL0     H14450   4.129   3.096   6.646 -0.9423 -0.6408  1.8359
  105MOL0     H14451   4.007   3.235   6.675  0.8708  3.0996  0.3542
  105MOL0     H14452   3.920   2.793   6.417 -0.9757 -2.3157  1.7238
  105MOL0     H14453   3.726   2.691   6.419 -1.6964  0.5502  0.3746
  105MOL0     H14454   3.525   2.627   6.317 -0.1024 -2.6757  1.2157
  105MOL0     H14455   3.510   2.606   6.492  0.2117 -0.7266 -1.1118
  105MOL0     H14456   3.261   2.680   6.458  0.1577  0.8285 -0.9061
  105MOL0     H14457   3.294   2.662   6.284 -0.1712 -5.0478 -2.3856
  105MOL0     H14458   3.348   2.420   6.461  3.0008 -0.1084 -1.5295
  105MOL0     H14459   3.343   2.437   6.290 -1.0124 -1.2319  0.2139
  105MOL0     H14460   3.105   2.509   6.301  2.0160 -1.3227 -1.5115
  105MOL0     H14461   3.092   2.478   6.476 -0.0935  0.8128 -0.6723
  105MOL0     H14462   3.168   2.259   6.287  1.0411 -0.2116  0.0956
  105MOL0     H14463   3.163   2.262   6.457  0.4228  0.9206 -1.2782
  105MOL0     H14464   2.961   2.159   6.320  0.0046  0.3336 -1.7956
  105MOL0     H14465   2.919   2.319   6.272  1.3669  0.7342 -1.3218
  105MOL0     H14466   2.905   2.372   6.542 -2.9434  2.4867 -0.7616
  105MOL0     H14467   2.935   2.202   6.565  3.7265  0.0278 -1.1960
  105MOL0     H14468   2.675   2.265   6.567  0.2472  0.4243 -0.4791
  105MOL0     H14469   2.724   2.158   6.440  2.4456 -0.5548  1.3592
  105MOL0     H14470   3.502   3.042   6.512 -1.0611 -1.1407  0.3799
  105MOL0     H14471   3.725   3.165   6.530 -0.0417  0.2415  1.4805
  105MOL0     H14472   4.096   3.323   6.205 -0.4440 -2.1358  0.3736
  105MOL0     H14473   4.261   3.473   6.220 -1.8887 -0.0539 -1.0427
  105MOL0     H14474   5.088   4.296   7.373 -0.3041  1.3833  1.5571
  105MOL0     H14475   5.267   4.425   7.464 -1.7782 -0.4124 -0.4115
  105MOL0     H14476   5.746   4.454   7.526 -3.3085  0.2766  1.9950
  105MOL0     H14477   5.906   4.584   7.667 -1.2875 -0.8669 -0.0406
  105MOL0     H14478   5.981   4.757   7.899  0.3708 -1.5189 -0.9447
  105MOL0     H14479   6.035   4.729   7.729  1.5902  1.8180 -0.8439
  105MOL0     H14480   6.044   4.980   7.725 -1.9463  1.3411  1.5661
  105MOL0     H14481   6.192   4.898   7.787 -0.8203 -0.8801 -2.0833
  105MOL0     H14482   5.961   5.060   7.914 -1.5721 -0.6388  0.2981
  105MOL0     H14483   6.024   4.938   8.012 -0.2805 -0.5594 -0.6312
  105MOL0     H14484   6.178   5.172   7.886  1.3184 -1.8728 -0.5013
  105MOL0     H14485   6.263   5.049   7.986 -0.1521 -0.2108  3.8751
  105MOL0     H14486   6.076   5.232   8.294 -0.0441 -1.2991  1.2250
  105MOL0     H14487   5.674   4.934   7.611  2.0119  0.6138  0.2180
  105MOL0     H14488   5.489   4.820   7.339 -1.0445 -0.9892  1.7786
  105MOL0     H14489   5.392   4.838   7.497 -1.1654 -1.9191  0.3261
  105MOL0     H14490   5.512   4.953   7.459  0.4854  0.2164  1.4794
  106MOL0     O14491   9.691   6.573   7.448 -0.8389 -0.8184  0.1162
  106MOL0     C14492   9.650   6.464   7.461 -0.2919  0.9663 -0.5133
  106MOL0     O14493   9.669   6.385   7.571 -0.1629  0.3231 -0.1214
  106MOL0     C14494   9.747   6.411   7.674 -0.3161  0.5025  0.4786
  106MOL0     C14495   9.848   6.514   7.678 -0.6658  0.5344 -0.4588
  106MOL0     C14496   9.944   6.507   7.778  1.3929 -0.9056 -1.5128
  106MOL0     C14497   9.959   6.407   7.873  0.6703  0.9421  0.4719
  106MOL0     O14498  10.058   6.407   7.965  0.2305 -0.2526 -0.4940
  106MOL0     C14499  10.047   6.310   8.069  0.6278 -0.8192 -0.3804
  106MOL0     C14500  10.160   6.311   8.171  0.3874 -0.4540 -0.9016
  106MOL0     C14501  10.114   6.384   8.299 -0.0188  0.4923  0.3312
  106MOL0     C14502  10.197   6.334   8.410 -2.2054  0.7346 -0.1245
  106MOL0     C14503  10.149   6.404   8.537 -0.5912 -0.0826 -0.1397
  106MOL0     C14504  10.213   6.337   8.662  0.2157  0.0904  0.2741
  106MOL0     C14505  10.360   6.315   8.643  0.6074  0.0543 -0.4395
  106MOL0     C14506  10.430   6.299   8.779 -1.3013  0.0508  0.3865
  106MOL0     N14507  10.383   6.191   8.851  0.0728  0.2681 -0.1442
  106MOL0     C14508  10.279   6.178   8.936  0.1618  0.6730 -0.2312
  106MOL0     C14509  10.278   6.046   8.983  0.3549  0.1476 -0.0903
  106MOL0     C14510  10.187   5.999   9.087 -0.0110 -0.0384 -0.3689
  106MOL0     C14511  10.038   6.009   9.057  0.2178 -0.3813  0.0051
  106MOL0     C14512   9.988   5.921   8.946 -0.8356 -0.1162  0.9213
  106MOL0     C14513   9.996   5.975   8.800  0.2942 -0.1504 -0.8065
  106MOL0     O14514   9.913   6.094   8.788 -0.0119  1.1529  0.3919
  106MOL0     C14515   9.870   6.133   8.663 -0.2306  0.0528 -0.6262
  106MOL0     C14516   9.901   6.060   8.552 -0.3029  0.6529 -0.8166
  106MOL0     C14517   9.825   6.075   8.437 -0.4359 -1.1558  0.4283
  106MOL0     C14518   9.830   5.970   8.333  0.7776  0.2542 -0.5472
  106MOL0     C14519   9.744   6.189   8.428  0.9179 -1.0732  0.2388
  106MOL0     C14520   9.677   6.229   8.303  1.1105 -0.2995 -0.0383
  106MOL0     O14521   9.559   6.305   8.310  0.1957 -0.3617 -0.1440
  106MOL0     C14522   9.496   6.350   8.190 -0.1659  0.2847 -0.1250
  106MOL0     C14523   9.429   6.468   8.211 -1.5880  0.9280  0.4736
  106MOL0     C14524   9.371   6.539   8.104  1.3943  0.3935  0.1653
  106MOL0     C14525   9.377   6.460   7.975  0.1248  0.0910  0.4409
  106MOL0     O14526   9.352   6.510   7.849 -0.7863 -0.0754  0.2008
  106MOL0     C14527   9.380   6.650   7.828 -0.0732  0.1396 -0.3714
  106MOL0     C14528   9.379   6.692   7.684  1.2786 -0.2923 -0.7016
  106MOL0     C14529   9.234   6.707   7.622  0.0990 -0.4513  0.2491
  106MOL0     C14530   9.222   6.701   7.467  0.5758  0.6301  0.5661
  106MOL0     C14531   9.179   6.555   7.425 -0.1808  1.1271 -0.2759
  106MOL0     C14532   9.163   6.528   7.274  0.6945 -1.0362 -0.3865
  106MOL0     C14533   9.015   6.544   7.219 -0.1609 -0.3421 -0.6867
  106MOL0     C14534   9.005   6.563   7.072  0.6064 -0.0452  0.6806
  106MOL0    Cl14535   9.042   6.410   6.984  0.2349  0.2691 -0.2282
  106MOL0     C14536   9.422   6.331   7.963  0.4921  1.0801 -0.2920
  106MOL0     C14537   9.483   6.278   8.076 -0.5139  0.3281  0.2963
  106MOL0     O14538   9.730   6.200   8.201  0.3713 -0.1828 -0.6539
  106MOL0     C14539   9.727   6.287   8.535 -0.5081  0.0629  0.0413
  106MOL0     C14540   9.797   6.254   8.655 -0.0365  0.1933 -0.1324
  106MOL0     N14541  10.387   5.987   8.918  0.6632 -0.5226 -0.6838
  106MOL0     N14542  10.450   6.073   8.848 -0.1782  0.5231 -0.0203
  106MOL0     C14543   9.857   6.310   7.871 -0.6191  0.2449 -0.9052
  106MOL0     C14544   9.754   6.308   7.776  1.3182 -0.4044  0.2510
  106MOL0     C14545   9.587   6.393   7.346  0.1847 -0.0878  0.0159
  106MOL0     C14546   9.562   6.253   7.346 -0.9252 -0.4691  0.5102
  106MOL0     C14547   9.501   6.188   7.240 -0.5008 -0.4197  0.2469
  106MOL0     C14548   9.454   6.258   7.128  0.7647 -0.3345 -0.0431
  106MOL0     O14549   9.384   6.179   7.035 -0.6165 -0.6332 -0.0564
  106MOL0     C14550   9.459   6.135   6.922  0.0756 -0.4227 -0.3174
  106MOL0     C14551   9.509   6.241   6.822  0.0744 -0.5308 -0.0808
  106MOL0     C14552   9.385   6.303   6.747 -0.8170 -0.1818  0.3905
  106MOL0     C14553   9.409   6.443   6.692  0.0105 -0.2143  1.1487
  106MOL0     C14554   9.487   6.533   6.779  1.8845  0.2673  0.4331
  106MOL0     C14555   9.550   6.592   6.861  0.0246 -0.4180  0.4205
  106MOL0     C14556   9.463   6.399   7.130 -0.1737  0.5101  0.2039
  106MOL0     C14557   9.517   6.467   7.239 -0.1663  0.1779 -0.3445
  106MOL0     C14558   9.535   6.613   7.222 -0.1663  0.3944  1.0166
  106MOL0     H14559   9.868   6.592   7.606  0.8629  0.7647  0.1762
  106MOL0     H14560  10.005   6.598   7.779 -0.1253  0.1726  0.5144
  106MOL0     H14561  10.063   6.216   8.015 -3.4429 -1.8623 -0.1087
  106MOL0     H14562   9.946   6.316   8.110  1.4079  3.7651  1.5352
  106MOL0     H14563  10.188   6.210   8.202 -3.9508 -1.7939 -0.7995
  106MOL0     H14564  10.245   6.354   8.117  0.2042 -0.4168 -1.1628
  106MOL0     H14565  10.130   6.492   8.298 -0.2139  0.5297 -1.2857
  106MOL0     H14566  10.007   6.370   8.310 -0.7715  3.2804 -2.2037
  106MOL0     H14567  10.194   6.225   8.422  1.6633 -0.1114 -4.1435
  106MOL0     H14568  10.303   6.361   8.402 -1.9182  0.2392  1.6990
  106MOL0     H14569  10.041   6.412   8.549 -0.8868  3.3450 -3.2966
  106MOL0     H14570  10.184   6.508   8.540 -0.0710 -0.2789  0.7158
  106MOL0     H14571  10.191   6.406   8.744 -1.4321  0.4057 -0.3890
  106MOL0     H14572  10.164   6.244   8.692 -1.6817  1.5105  1.8608
  106MOL0     H14573  10.410   6.404   8.604  0.7341  0.5122  0.7221
  106MOL0     H14574  10.376   6.226   8.581 -0.0823 -1.8325  1.9446
  106MOL0     H14575  10.535   6.274   8.760 -1.5330 -0.3404 -0.4308
  106MOL0     H14576  10.426   6.395   8.832  0.7652  1.4492 -1.8037
  106MOL0     H14577  10.214   6.260   8.964 -0.3432  0.6328 -1.2133
  106MOL0     H14578  10.213   6.037   9.186 -0.9381 -0.6744  0.1382
  106MOL0     H14579  10.203   5.891   9.083  1.0033  0.1227 -1.1022
  106MOL0     H14580   9.984   5.974   9.145 -1.3706 -0.8026 -1.0805
  106MOL0     H14581  10.006   6.111   9.031 -1.6110 -1.4443 -2.3012
  106MOL0     H14582  10.047   5.829   8.954  1.3855  1.2313  0.9121
  106MOL0     H14583   9.883   5.900   8.963 -0.9726 -2.0512 -1.6856
  106MOL0     H14584  10.098   6.006   8.777  0.4328 -1.4727 -2.1016
  106MOL0     H14585   9.964   5.894   8.734  1.5229 -1.8749  0.6108
  106MOL0     H14586   9.979   5.985   8.557 -0.8272  0.0731 -1.1923
  106MOL0     H14587   9.852   5.877   8.385 -0.2512 -1.4376 -2.9291
  106MOL0     H14588   9.904   5.997   8.257  1.4480  2.1798  0.7254
  106MOL0     H14589   9.739   5.960   8.273 -0.5581  0.4058  1.3802
  106MOL0     H14590   9.452   6.526   8.299 -1.4427  0.2524  0.8851
  106MOL0     H14591   9.335   6.641   8.119  1.6815  0.2971  1.6387
  106MOL0     H14592   9.302   6.707   7.880 -2.0249 -0.4360 -2.5073
  106MOL0     H14593   9.479   6.675   7.867 -0.1375 -0.4174  0.1623
  106MOL0     H14594   9.425   6.791   7.677 -1.1345  0.8619 -1.4882
  106MOL0     H14595   9.448   6.619   7.641  1.2596 -2.1424  2.1517
  106MOL0     H14596   9.192   6.802   7.657 -2.1556 -0.1337 -2.8776
  106MOL0     H14597   9.171   6.633   7.672  0.2613  0.0439  1.2192
  106MOL0     H14598   9.324   6.714   7.429 -0.1246 -0.9753 -2.1282
  106MOL0     H14599   9.161   6.777   7.417  0.5937 -0.5284 -1.2913
  106MOL0     H14600   9.263   6.501   7.469 -0.9573  0.1651  0.0651
  106MOL0     H14601   9.082   6.534   7.471  0.0984 -1.8151 -0.8655
  106MOL0     H14602   9.195   6.427   7.246  0.9696 -0.9324 -0.4426
  106MOL0     H14603   9.230   6.594   7.218  0.1341 -0.0837  0.0353
  106MOL0     H14604   8.980   6.640   7.260  2.7634  2.1480 -3.4199
  106MOL0     H14605   8.947   6.464   7.250  2.3783 -1.1219  3.6848
  106MOL0     H14606   9.067   6.647   7.041 -1.3069  1.4157  0.6128
  106MOL0     H14607   8.903   6.586   7.040  0.8420 -2.5424 -2.2525
  106MOL0     H14608   9.430   6.272   7.872 -0.5034 -0.6674  0.6905
  106MOL0     H14609   9.517   6.175   8.082  2.8808  1.1743 -1.7894
  106MOL0     H14610   9.657   6.369   8.520 -0.6127 -0.2110 -1.0152
  106MOL0     H14611   9.784   6.316   8.743 -2.8332 -0.2633 -0.1292
  106MOL0     H14612   9.841   6.233   7.947  1.4887  0.5702 -0.0610
  106MOL0     H14613   9.681   6.229   7.762  0.3840  0.6272 -0.8831
  106MOL0     H14614   9.600   6.194   7.429 -0.2345  1.4485  1.6217
  106MOL0     H14615   9.484   6.082   7.257 -2.2647 -0.3516 -0.9564
  106MOL0     H14616   9.547   6.080   6.956 -0.7324 -0.4937  1.7597
  106MOL0     H14617   9.401   6.066   6.861  2.1335 -1.2575 -1.4465
  106MOL0     H14618   9.589   6.207   6.756 -0.2531  0.4222 -0.9939
  106MOL0     H14619   9.572   6.309   6.880  0.2552  0.5913 -1.5191
  106MOL0     H14620   9.359   6.234   6.666 -0.7561 -0.8623  0.9399
  106MOL0     H14621   9.304   6.301   6.821 -0.6529  3.7028  0.8821
  106MOL0     H14622   9.317   6.497   6.664 -0.0395 -0.3382  1.0707
  106MOL0     H14623   9.457   6.430   6.595  0.6345 -2.0354  1.6701
  106MOL0     H14624   9.599   6.661   6.927  0.7658  2.2011 -2.5962
  106MOL0     H14625   9.415   6.459   7.053 -0.5678  2.4662  1.8957
  106MOL0     H14626   9.639   6.645   7.218  0.0400  0.1440  3.1486
  106MOL0     H14627   9.494   6.647   7.127 -1.7870 -0.3576  1.4028
  106MOL0     H14628   9.480   6.669   7.300  1.1955  3.3161  0.0294
  107MOL0     O14629   8.433   3.843   4.174 -0.6818  0.4003  0.0738
  107MOL0     C14630   8.405   3.842   4.290 -0.1416  0.1460  0.8561
  107MOL0     O14631   8.497   3.856   4.384  0.1772 -0.4992  0.1029
  107MOL0     C14632   8.627   3.803   4.368 -0.6429  0.4646 -0.2893
  107MOL0     C14633   8.738   3.844   4.449  0.0956  0.0832  0.4686
  107MOL0     C14634   8.865   3.780   4.447  0.1041 -0.6809  0.0596
  107MOL0     C14635   8.891   3.675   4.349  0.4664 -0.5910 -0.0961
  107MOL0     O14636   9.018   3.624   4.322  0.2568 -0.0086 -0.4389
  107MOL0     C14637   9.135   3.691   4.381  0.2070  0.1269 -0.6818
  107MOL0     C14638   9.259   3.594   4.356  0.7024  0.2099  0.7482
  107MOL0     C14639   9.377   3.689   4.376  0.5530  0.2583 -0.0443
  107MOL0     C14640   9.513   3.614   4.373 -0.6973  0.6245  0.0376
  107MOL0     C14641   9.535   3.558   4.233  0.2875  0.4258  0.9440
  107MOL0     C14642   9.680   3.487   4.235  0.1163  0.0913  0.1344
  107MOL0     C14643   9.692   3.390   4.115 -0.8230 -0.0161 -0.1661
  107MOL0     C14644   9.836   3.342   4.091  0.4265  0.9169 -0.3282
  107MOL0     N14645   9.907   3.457   4.039 -0.2520  0.8341  0.8028
  107MOL0     C14646   9.928   3.484   3.907  0.7637 -0.1588  0.2591
  107MOL0     C14647  10.019   3.581   3.916 -0.8626 -0.1625 -0.0785
  107MOL0     C14648  10.099   3.654   3.810  0.0207  0.1961  0.1870
  107MOL0     C14649  10.140   3.564   3.688  0.1935  0.1534  0.1748
  107MOL0     C14650  10.261   3.474   3.714 -0.5117 -1.0759 -0.3827
  107MOL0     C14651  10.304   3.412   3.582  0.0818  0.0418 -0.7871
  107MOL0     O14652  10.199   3.333   3.533 -0.7724  0.0273 -0.0815
  107MOL0     C14653  10.219   3.222   3.463 -0.6796  0.9380 -0.4115
  107MOL0     C14654  10.335   3.201   3.395 -0.0335  0.5479 -1.0087
  107MOL0     C14655  10.365   3.084   3.320 -0.8377  0.3774  0.1770
  107MOL0     C14656  10.488   3.074   3.238 -0.3066 -0.3876 -0.4288
  107MOL0     C14657  10.275   2.979   3.334 -0.1203  0.0474  0.1204
  107MOL0     C14658  10.283   2.860   3.256 -0.7351  0.2598 -0.3979
  107MOL0     O14659  10.311   2.862   3.121 -0.2335  0.0751 -0.3421
  107MOL0     C14660  10.293   2.740   3.068 -0.1898 -0.0223  0.4836
  107MOL0     C14661  10.402   2.656   3.037  0.8723  0.8607 -0.4274
  107MOL0     C14662  10.397   2.529   2.984  0.4659  0.1574 -0.3280
  107MOL0     C14663  10.268   2.474   2.962  0.0460  0.2265 -0.1818
  107MOL0     O14664  10.258   2.345   2.937 -0.7174 -0.0291  0.2118
  107MOL0     C14665  10.138   2.272   2.958  0.5571  0.5516  0.6021
  107MOL0     C14666  10.174   2.129   2.936 -0.1293  0.4268  0.0638
  107MOL0     C14667  10.299   2.084   3.020  0.0061 -0.3206 -0.5243
  107MOL0     C14668  10.327   1.934   3.043  0.1117 -0.4651  0.3760
  107MOL0     C14669  10.459   1.928   3.120 -0.3564  0.1473  0.1511
  107MOL0     C14670  10.585   1.970   3.051  0.3119 -0.6150  0.0941
  107MOL0     C14671  10.706   1.920   3.139 -1.3900 -0.0618  0.3192
  107MOL0     C14672  10.828   1.910   3.046  0.1804  0.0163 -0.5030
  107MOL0    Cl14673  10.855   2.059   2.952  0.2964 -0.4226  0.3088
  107MOL0     C14674  10.159   2.556   2.985 -0.5348  0.5434  0.1574
  107MOL0     C14675  10.167   2.690   3.037  0.1336  0.2978 -0.8190
  107MOL0     O14676  10.242   2.762   3.321 -0.4647 -0.2693 -0.3184
  107MOL0     C14677  10.155   2.997   3.411  0.3716 -0.3533  0.5859
  107MOL0     C14678  10.127   3.123   3.475  0.5923  0.4111 -0.0872
  107MOL0     N14679  10.035   3.613   4.046 -0.4203  0.5388 -0.2141
  107MOL0     N14680   9.983   3.530   4.117 -0.6026 -0.1973 -0.4147
  107MOL0     C14681   8.784   3.645   4.263  0.2288  0.3197  0.1323
  107MOL0     C14682   8.658   3.703   4.276 -0.6044 -0.3837  0.0291
  107MOL0     C14683   8.260   3.829   4.322 -0.6069  0.5976  0.0906
  107MOL0     C14684   8.230   3.783   4.453 -0.1586  0.9279 -0.0562
  107MOL0     C14685   8.099   3.749   4.486  0.2938  0.9228  0.5089
  107MOL0     C14686   7.995   3.774   4.400 -0.3730  0.0670 -0.1699
  107MOL0     O14687   7.866   3.770   4.445  0.2863  0.0473 -0.5397
  107MOL0     C14688   7.827   3.640   4.508  0.3931 -0.2570 -0.2067
  107MOL0     C14689   7.743   3.658   4.635  0.7907 -0.1239 -0.6516
  107MOL0     C14690   7.645   3.771   4.624  0.8182 -0.2701 -0.0205
  107MOL0     C14691   7.518   3.752   4.533 -0.2605 -0.1271 -0.2286
  107MOL0     C14692   7.431   3.867   4.543  0.0895  0.1232 -0.4740
  107MOL0     C14693   7.366   3.964   4.556 -0.0472 -0.2221 -0.3097
  107MOL0     C14694   8.018   3.825   4.275  0.1552 -0.5605 -0.7128
  107MOL0     C14695   8.150   3.848   4.234  0.0321 -0.4231 -0.4864
  107MOL0     C14696   8.176   3.905   4.093  0.0004  0.7169  0.3468
  107MOL0     H14697   8.729   3.918   4.528 -0.5163 -0.8185  1.2703
  107MOL0     H14698   8.940   3.821   4.515 -1.0586 -0.0472  0.9931
  107MOL0     H14699   9.121   3.695   4.489  1.6328  1.2209 -0.5087
  107MOL0     H14700   9.151   3.793   4.343 -0.8145 -0.4730 -2.9317
  107MOL0     H14701   9.263   3.510   4.425  0.8496  0.6495  1.2872
  107MOL0     H14702   9.245   3.567   4.251  2.9093  1.1677  0.1446
  107MOL0     H14703   9.374   3.758   4.291 -1.2880  0.9883  0.5793
  107MOL0     H14704   9.370   3.744   4.471 -1.6233  0.3009 -0.1861
  107MOL0     H14705   9.584   3.692   4.401 -0.4520  0.4338 -0.0434
  107MOL0     H14706   9.531   3.536   4.448 -1.2804 -1.5880 -1.9968
  107MOL0     H14707   9.519   3.630   4.152 -3.1222 -1.9894 -0.7496
  107MOL0     H14708   9.462   3.477   4.229 -1.3551  1.8597 -1.5029
  107MOL0     H14709   9.761   3.559   4.222  1.3729 -1.7724 -3.8637
  107MOL0     H14710   9.695   3.432   4.328 -1.0214  3.6852  2.6158
  107MOL0     H14711   9.654   3.448   4.031 -1.1620 -0.1752 -0.1233
  107MOL0     H14712   9.625   3.304   4.115  1.4042 -1.9907 -3.3408
  107MOL0     H14713   9.876   3.297   4.182 -0.9264 -1.3686 -0.7678
  107MOL0     H14714   9.827   3.271   4.008  0.6999  0.9225 -0.3638
  107MOL0     H14715   9.896   3.431   3.818  1.1052 -0.0907  0.0936
  107MOL0     H14716  10.188   3.686   3.864  0.4051  1.1304 -0.9626
  107MOL0     H14717  10.030   3.736   3.787  0.0643  0.8415  2.1916
  107MOL0     H14718  10.053   3.507   3.655  1.4779 -1.1734 -1.0889
  107MOL0     H14719  10.170   3.641   3.616 -1.8529 -0.1052 -1.0302
  107MOL0     H14720  10.335   3.535   3.766 -2.3766  2.9797 -2.0856
  107MOL0     H14721  10.245   3.386   3.777 -0.7221  1.0990  2.8230
  107MOL0     H14722  10.339   3.477   3.502 -0.4783  0.9552 -0.3094
  107MOL0     H14723  10.382   3.339   3.610  0.4686  0.1970 -1.4400
  107MOL0     H14724  10.412   3.277   3.386  1.4879 -0.8518 -0.0841
  107MOL0     H14725  10.556   3.142   3.289 -0.3503  0.0181 -0.8973
  107MOL0     H14726  10.478   3.109   3.134  1.7074 -2.6630 -1.4951
  107MOL0     H14727  10.530   2.973   3.248  0.8753  0.0108 -1.1906
  107MOL0     H14728  10.503   2.693   3.046  1.7434 -0.7457 -2.6405
  107MOL0     H14729  10.490   2.475   2.969  3.7455  4.1252  3.2045
  107MOL0     H14730  10.100   2.281   3.060  0.8257  0.3150  0.7235
  107MOL0     H14731  10.059   2.296   2.886  3.2532  1.9244 -2.0998
  107MOL0     H14732  10.080   2.073   2.950 -0.7057  1.4877  0.5963
  107MOL0     H14733  10.191   2.116   2.829  0.2657  1.2933  0.0167
  107MOL0     H14734  10.274   2.120   3.120  1.5921 -1.3791  0.3000
  107MOL0     H14735  10.387   2.141   2.987  0.2060 -1.4976 -2.1292
  107MOL0     H14736  10.328   1.879   2.949  0.7586 -0.1650  0.2009
  107MOL0     H14737  10.255   1.882   3.108  1.2911 -1.1119  1.2155
  107MOL0     H14738  10.447   1.976   3.218  2.1872  1.4606 -0.1021
  107MOL0     H14739  10.475   1.821   3.141  1.6901  0.2679 -0.5647
  107MOL0     H14740  10.586   2.079   3.046 -0.7645 -0.5117  1.4091
  107MOL0     H14741  10.592   1.928   2.950  2.0634 -1.7234  0.6348
  107MOL0     H14742  10.694   1.822   3.185  1.8854  0.0002  1.5440
  107MOL0     H14743  10.728   1.997   3.214 -0.6333  0.3339 -0.2837
  107MOL0     H14744  10.806   1.843   2.962 -1.4769  1.1090 -1.0009
  107MOL0     H14745  10.917   1.870   3.095  1.3145  1.5727 -1.2068
  107MOL0     H14746  10.057   2.532   2.956 -0.3787  0.8774 -0.7215
  107MOL0     H14747  10.080   2.755   3.040  1.9496  2.8277  0.5301
  107MOL0     H14748  10.073   2.926   3.414  0.5270 -0.5535  0.1491
  107MOL0     H14749  10.031   3.147   3.520  1.4724 -0.6404  2.5484
  107MOL0     H14750   8.790   3.577   4.180 -0.3516  0.6377 -0.1783
  107MOL0     H14751   8.583   3.667   4.207 -1.3168  2.1494 -0.6179
  107MOL0     H14752   8.315   3.763   4.518 -0.0509  1.0294 -0.1659
  107MOL0     H14753   8.084   3.707   4.585 -2.3613  0.9271  0.1981
  107MOL0     H14754   7.769   3.585   4.432  1.6564 -2.4344  0.3140
  107MOL0     H14755   7.915   3.577   4.519 -1.2213 -2.4915  0.7944
  107MOL0     H14756   7.803   3.683   4.723 -1.3641  1.4270  0.4657
  107MOL0     H14757   7.686   3.569   4.661  4.9574 -2.9990 -0.3563
  107MOL0     H14758   7.604   3.805   4.720  0.2612  1.2103 -0.7364
  107MOL0     H14759   7.699   3.856   4.581 -0.9006  1.3004  0.7855
  107MOL0     H14760   7.455   3.666   4.559  1.7816 -1.7862 -0.4877
  107MOL0     H14761   7.551   3.727   4.432 -2.9487  1.1426 -1.5266
  107MOL0     H14762   7.298   4.046   4.570 -2.7003 -2.5250  1.6768
  107MOL0     H14763   7.932   3.842   4.211 -0.5741 -1.0936  0.1036
  107MOL0     H14764   8.233   3.830   4.038  1.4581  1.2329  1.1258
  107MOL0     H14765   8.090   3.941   4.035  2.9536  0.0593 -5.1170
  107MOL0     H14766   8.242   3.992   4.100  1.1955  0.2575 -3.0445
  108MOL0     O14767   1.743   4.867   3.940  0.1383  0.4415 -0.3425
  108MOL0     C14768   1.779   4.909   3.832  0.8646 -0.3718  0.6765
  108MOL0     O14769   1.801   4.838   3.714  0.5343 -0.2356 -0.8593
  108MOL0     C14770   1.794   4.702   3.736  0.3649 -0.4166  0.0922
  108MOL0     C14771   1.900   4.618   3.709  0.2852 -0.1072 -0.0432
  108MOL0     C14772   1.885   4.483   3.736  0.5103  0.2993  0.0195
  108MOL0     C14773   1.766   4.431   3.782  0.4073  0.4688 -0.6060
  108MOL0     O14774   1.771   4.299   3.800 -0.7733  0.7218 -0.5068
  108MOL0     C14775   1.666   4.238   3.874  0.3222  0.2275  0.4444
  108MOL0     C14776   1.697   4.092   3.927 -0.1597  0.2264 -0.1205
  108MOL0     C14777   1.770   4.078   4.060  0.3663 -0.4975 -0.3268
  108MOL0     C14778   1.919   4.109   4.048  0.0951 -0.3277  0.0911
  108MOL0     C14779   1.983   4.080   4.179  0.8882 -0.5664 -0.0159
  108MOL0     C14780   1.984   3.936   4.229  0.0613  0.5916 -0.4045
  108MOL0     C14781   2.068   3.924   4.356  0.4380 -0.0963 -0.1517
  108MOL0     C14782   2.064   3.778   4.412 -0.3339 -0.7902 -0.1014
  108MOL0     N14783   2.147   3.769   4.527  0.3983  0.3509  0.4206
  108MOL0     C14784   2.099   3.781   4.659 -0.7551  0.1817  0.2941
  108MOL0     C14785   2.203   3.753   4.734 -0.7610  1.0971  0.0134
  108MOL0     C14786   2.198   3.735   4.882  0.0147 -1.0359  0.4361
  108MOL0     C14787   2.312   3.653   4.933  0.5293 -0.1045 -1.0715
  108MOL0     C14788   2.330   3.632   5.082  0.2329  0.0328 -0.2161
  108MOL0     C14789   2.314   3.755   5.166  0.5909 -0.6303 -0.7521
  108MOL0     O14790   2.403   3.852   5.114  0.0584  0.4769  0.1913
  108MOL0     C14791   2.365   3.976   5.126  0.4164 -0.1114 -0.0967
  108MOL0     C14792   2.418   4.057   5.027 -0.5200  0.9698  0.4440
  108MOL0     C14793   2.390   4.196   5.012 -0.3576  0.2531  0.2261
  108MOL0     C14794   2.460   4.267   4.897  0.2261 -1.0491 -0.1018
  108MOL0     C14795   2.301   4.254   5.100  0.3097  0.1740 -0.0600
  108MOL0     C14796   2.245   4.390   5.080  0.4442  0.9688 -0.4765
  108MOL0     O14797   2.187   4.447   5.202  0.2413  0.1158 -0.1493
  108MOL0     C14798   2.117   4.562   5.181 -0.7920  0.1166 -0.1485
  108MOL0     C14799   2.158   4.667   5.264 -0.2522 -1.1922  0.2300
  108MOL0     C14800   2.093   4.799   5.250  0.7386 -0.2593 -0.2935
  108MOL0     C14801   2.004   4.826   5.145  0.0553 -0.5672 -0.1820
  108MOL0     O14802   1.939   4.938   5.100  0.2873 -0.1762  0.2108
  108MOL0     C14803   1.939   5.056   5.158  0.3191 -0.5647  0.0096
  108MOL0     C14804   1.958   5.174   5.054  0.1950  0.6558  0.1172
  108MOL0     C14805   1.900   5.308   5.109  0.1566  0.3802  0.6555
  108MOL0     C14806   1.955   5.416   5.013 -0.0629  0.3412 -0.5989
  108MOL0     C14807   1.905   5.567   5.044  0.1768 -0.0686  0.2012
  108MOL0     C14808   1.922   5.658   4.910  0.5635 -0.5597  0.5806
  108MOL0     C14809   1.820   5.624   4.797 -0.4790 -0.2095 -0.3119
  108MOL0     C14810   1.672   5.623   4.839 -0.2631 -0.6819  0.6514
  108MOL0    Cl14811   1.636   5.793   4.878 -0.1232  0.4265 -0.0227
  108MOL0     C14812   1.976   4.722   5.060  0.0564  0.0892 -0.6139
  108MOL0     C14813   2.026   4.583   5.081  0.5616 -0.8275  0.3957
  108MOL0     O14814   2.232   4.430   4.963 -0.1873  0.7767  1.0792
  108MOL0     C14815   2.238   4.172   5.195 -0.2442  0.0254  0.1069
  108MOL0     C14816   2.278   4.035   5.221 -0.2484 -0.2255 -0.4234
  108MOL0     N14817   2.319   3.746   4.658 -0.5518  0.3027  0.4444
  108MOL0     N14818   2.284   3.769   4.532  0.2629 -0.8766 -0.3613
  108MOL0     C14819   1.648   4.513   3.789  0.5652  0.2227 -0.0476
  108MOL0     C14820   1.664   4.649   3.763 -0.8492 -0.2670 -0.2390
  108MOL0     C14821   1.792   5.056   3.833  0.4982  0.3501  0.6041
  108MOL0     C14822   1.733   5.138   3.937  0.3105  0.5979  0.0421
  108MOL0     C14823   1.772   5.267   3.962  0.3145 -0.0044  0.1767
  108MOL0     C14824   1.863   5.324   3.878 -1.0280  0.0914  0.3309
  108MOL0     O14825   1.888   5.457   3.906 -0.3964  0.4227 -0.4963
  108MOL0     C14826   1.983   5.488   4.010 -0.1914  0.8638  0.3723
  108MOL0     C14827   2.030   5.634   3.990 -0.3006  0.4753  0.0877
  108MOL0     C14828   1.935   5.738   4.030 -0.6006  0.4121 -0.7648
  108MOL0     C14829   1.905   5.834   3.920 -0.5532  0.6997  1.4004
  108MOL0     C14830   1.781   5.912   3.911 -0.5366  0.1024 -0.3413
  108MOL0     C14831   1.688   5.981   3.930  0.1580 -0.3347 -0.5013
  108MOL0     C14832   1.907   5.264   3.757  0.4215  0.3267 -0.3005
  108MOL0     C14833   1.870   5.125   3.745 -0.8170 -0.2702 -0.4027
  108MOL0     C14834   1.927   5.065   3.623  0.2343  0.8473 -0.4603
  108MOL0     H14835   1.998   4.656   3.683  0.1264  1.3460  1.3442
  108MOL0     H14836   1.964   4.408   3.734 -1.6939 -2.1972  0.4088
  108MOL0     H14837   1.577   4.230   3.811  1.4140  1.0165 -1.2730
  108MOL0     H14838   1.642   4.296   3.963  0.4472  0.5685  0.2558
  108MOL0     H14839   1.605   4.032   3.933  0.0300 -0.0630 -0.0624
  108MOL0     H14840   1.754   4.048   3.846 -1.2971 -0.6883 -0.4612
  108MOL0     H14841   1.721   4.141   4.134 -0.0282 -1.9337  0.6865
  108MOL0     H14842   1.753   3.976   4.098 -3.3511  0.5042  1.1087
  108MOL0     H14843   1.972   4.053   3.972  0.2422 -0.4573  0.2896
  108MOL0     H14844   1.927   4.218   4.035  0.4207 -0.6314 -2.8112
  108MOL0     H14845   1.941   4.145   4.257 -1.4314 -1.6295 -0.2761
  108MOL0     H14846   2.083   4.118   4.161  0.4078  2.2411  2.5059
  108MOL0     H14847   1.880   3.906   4.249 -0.2613  1.6299 -0.4861
  108MOL0     H14848   2.021   3.868   4.152 -1.9440  0.1439 -1.0348
  108MOL0     H14849   2.020   3.987   4.431  1.1193 -0.7131  0.8294
  108MOL0     H14850   2.173   3.948   4.335  0.8445  0.2584  2.0639
  108MOL0     H14851   1.964   3.735   4.425 -1.3367  1.3899 -0.2221
  108MOL0     H14852   2.107   3.710   4.338 -0.2883 -0.4825 -0.3631
  108MOL0     H14853   1.998   3.789   4.699 -0.7150 -0.5482  0.5487
  108MOL0     H14854   2.102   3.689   4.908  0.8267 -1.7017  2.4464
  108MOL0     H14855   2.196   3.832   4.933  1.8605 -1.1612  0.8067
  108MOL0     H14856   2.321   3.554   4.888 -1.3219  0.3237 -2.5334
  108MOL0     H14857   2.401   3.708   4.900  0.9092  0.4480  0.7396
  108MOL0     H14858   2.260   3.553   5.110 -0.1335 -0.1766 -1.6439
  108MOL0     H14859   2.433   3.601   5.105  0.3409  0.6660  0.1768
  108MOL0     H14860   2.209   3.784   5.166 -0.3212 -3.3604  2.0863
  108MOL0     H14861   2.332   3.733   5.271  0.0069  0.4839 -0.4142
  108MOL0     H14862   2.488   4.013   4.958 -2.0142 -2.1065  0.7138
  108MOL0     H14863   2.497   4.361   4.939 -2.5312 -1.0103  2.5946
  108MOL0     H14864   2.393   4.287   4.813 -3.3125 -1.1227  2.5203
  108MOL0     H14865   2.545   4.211   4.856  0.5799 -0.5703 -0.0268
  108MOL0     H14866   2.223   4.631   5.343 -0.0406 -2.5944 -0.5494
  108MOL0     H14867   2.104   4.889   5.310 -2.7291 -0.5825  1.0385
  108MOL0     H14868   1.840   5.065   5.204 -0.6292 -1.3885 -1.7394
  108MOL0     H14869   2.019   5.064   5.232  0.6131 -1.2628 -0.2253
  108MOL0     H14870   2.066   5.180   5.041  0.3818  0.0003  1.2434
  108MOL0     H14871   1.907   5.143   4.962  2.3298  0.6220 -1.1313
  108MOL0     H14872   1.916   5.331   5.215 -0.5027 -0.1694  0.8871
  108MOL0     H14873   1.795   5.288   5.086  0.9491 -4.2168 -0.0190
  108MOL0     H14874   1.928   5.397   4.909 -1.9936 -0.9078  0.0812
  108MOL0     H14875   2.063   5.433   5.026 -0.5246  2.2819  1.3139
  108MOL0     H14876   1.802   5.566   5.082 -0.6418  2.4353 -1.6441
  108MOL0     H14877   1.982   5.605   5.111  1.3973  0.1309 -1.2659
  108MOL0     H14878   2.023   5.644   4.870 -0.3162  1.7100 -2.8137
  108MOL0     H14879   1.914   5.762   4.944  2.4730  0.5197 -1.9513
  108MOL0     H14880   1.824   5.519   4.768 -1.0955  0.0444 -1.3608
  108MOL0     H14881   1.843   5.678   4.705 -0.1603  2.8041  1.4148
  108MOL0     H14882   1.657   5.549   4.918  0.0767 -2.9205 -1.2357
  108MOL0     H14883   1.615   5.593   4.750 -1.5265  0.2131  1.1338
  108MOL0     H14884   1.898   4.729   4.984 -0.4458 -0.6756 -0.1892
  108MOL0     H14885   1.985   4.515   5.008 -1.0309  0.1515  0.3287
  108MOL0     H14886   2.159   4.220   5.251  0.1400  1.6588 -0.6796
  108MOL0     H14887   2.247   3.979   5.309  2.2997 -0.7925  0.2130
  108MOL0     H14888   1.548   4.476   3.809  1.0987 -3.5926 -3.1534
  108MOL0     H14889   1.578   4.714   3.775 -0.0440  0.6881  0.6014
  108MOL0     H14890   1.668   5.084   4.005  0.2162  1.1121  0.3619
  108MOL0     H14891   1.730   5.324   4.044  0.0665 -1.1502  0.8672
  108MOL0     H14892   1.946   5.472   4.112  0.1664 -1.1971  0.2206
  108MOL0     H14893   2.074   5.429   3.993  0.4514  1.5444  1.3441
  108MOL0     H14894   2.075   5.650   3.891 -0.7036  4.2307  0.3596
  108MOL0     H14895   2.118   5.637   4.055  0.5919 -0.8945 -0.9886
  108MOL0     H14896   1.841   5.690   4.058 -0.1011 -1.2816 -1.8168
  108MOL0     H14897   1.979   5.794   4.113 -2.5211  1.7857 -0.5976
  108MOL0     H14898   1.901   5.761   3.838  4.7075  0.1189  1.3033
  108MOL0     H14899   2.003   5.882   3.907  1.4785 -2.6564  3.0320
  108MOL0     H14900   1.596   6.031   3.951 -0.0648 -0.9393 -0.0277
  108MOL0     H14901   1.983   5.315   3.699  1.5367  0.4982  1.2096
  108MOL0     H14902   1.984   4.980   3.660  2.2568  1.0138 -2.8795
  108MOL0     H14903   1.858   5.041   3.541  1.1265  1.2616 -1.3644
  108MOL0     H14904   2.004   5.129   3.577  0.5937  1.7730  1.3613
  109MOL0     O14905   6.035   9.393   3.214 -0.7962  0.4320 -0.0612
  109MOL0     C14906   6.141   9.377   3.267 -0.5812  0.0183  0.5606
  109MOL0     O14907   6.247   9.455   3.245 -1.0833 -0.7081 -0.2756
  109MOL0     C14908   6.233   9.567   3.163 -0.3561  0.0594  0.1804
  109MOL0     C14909   6.162   9.576   3.044 -0.1674 -0.2486 -1.0796
  109MOL0     C14910   6.170   9.697   2.976  0.2600 -0.2354 -0.4536
  109MOL0     C14911   6.253   9.802   3.012 -0.2235  0.6267 -0.7499
  109MOL0     O14912   6.257   9.913   2.935  0.7450 -0.1628 -0.4979
  109MOL0     C14913   6.381   9.972   2.917 -0.1572 -0.8572 -0.4714
  109MOL0     C14914   6.376  10.074   2.802  0.5503  0.7632 -0.2535
  109MOL0     C14915   6.270  10.181   2.843 -0.1567  0.0516  0.3255
  109MOL0     C14916   6.287  10.320   2.759  0.3218 -0.0587 -0.5455
  109MOL0     C14917   6.178  10.430   2.768 -0.1553  1.0601 -0.0490
  109MOL0     C14918   6.222  10.564   2.694 -0.2045 -0.1035 -0.2058
  109MOL0     C14919   6.107  10.662   2.690  0.4262  0.7025  1.2445
  109MOL0     C14920   6.089  10.733   2.823  0.2594 -0.4927 -0.0364
  109MOL0     N14921   5.997  10.846   2.803 -0.2492  0.4963 -0.2884
  109MOL0     C14922   6.027  10.980   2.787 -0.1760 -0.7653 -0.3264
  109MOL0     C14923   5.905  11.044   2.773  0.5245  0.2033 -0.2926
  109MOL0     C14924   5.883  11.187   2.780  0.1176 -0.2443 -0.3967
  109MOL0     C14925   5.795  11.248   2.888 -0.3405  1.1254  0.1307
  109MOL0     C14926   5.800  11.406   2.875 -0.1318  0.7833 -1.1213
  109MOL0     C14927   5.770  11.473   3.016  0.4267  0.2093 -0.1978
  109MOL0     O14928   5.689  11.590   3.006 -0.4535  0.1102 -0.0652
  109MOL0     C14929   5.693  11.669   3.115  0.6778 -0.4819  0.7666
  109MOL0     C14930   5.805  11.756   3.138  0.0275 -0.0031  0.4827
  109MOL0     C14931   5.791  11.845   3.248  0.1700  0.7112  0.0973
  109MOL0     C14932   5.912  11.939   3.265  0.0972  0.9387  1.0058
  109MOL0     C14933   5.677  11.845   3.331  0.6011  0.2316 -0.1077
  109MOL0     C14934   5.654  11.937   3.449 -0.5500  0.1943  0.0449
  109MOL0     O14935   5.572  11.888   3.546 -0.1105 -0.4734  0.0755
  109MOL0     C14936   5.581  11.943   3.668  0.7758  0.4016 -0.2508
  109MOL0     C14937   5.665  11.893   3.768 -0.6892 -1.1068  0.4753
  109MOL0     C14938   5.669  11.948   3.891 -0.7600  0.8824  0.1069
  109MOL0     C14939   5.598  12.055   3.923  0.0331  0.5284 -0.7478
  109MOL0     O14940   5.631  12.120   4.037  0.2231 -0.3528  0.0013
  109MOL0     C14941   5.521  12.113   4.131  0.4802 -0.4923  0.6697
  109MOL0     C14942   5.496  12.248   4.193 -0.6148 -0.5267 -0.5029
  109MOL0     C14943   5.597  12.300   4.299  0.0164 -0.2281  0.4933
  109MOL0     C14944   5.555  12.426   4.373 -0.6769  0.7505  0.1875
  109MOL0     C14945   5.671  12.482   4.462  0.3507  0.5173  0.3742
  109MOL0     C14946   5.751  12.575   4.367  0.3124 -0.1635 -0.2304
  109MOL0     C14947   5.837  12.669   4.445  0.1242  0.4533  0.3332
  109MOL0     C14948   5.908  12.767   4.351  1.1630  0.3110 -0.2332
  109MOL0    Cl14949   5.796  12.899   4.286  0.1046  0.0040  0.2047
  109MOL0     C14950   5.503  12.101   3.835 -0.2638  0.0838 -0.7403
  109MOL0     C14951   5.487  12.044   3.704  0.2752 -0.1894  0.5230
  109MOL0     O14952   5.706  12.043   3.455  0.0810  0.1428  0.0055
  109MOL0     C14953   5.574  11.757   3.293  0.4241  0.6361 -0.1560
  109MOL0     C14954   5.582  11.667   3.190  0.0876  0.0312 -0.0670
  109MOL0     N14955   5.807  10.950   2.792 -0.2337 -0.1287 -0.5246
  109MOL0     N14956   5.863  10.829   2.799  0.6379 -0.6369 -0.1790
  109MOL0     C14957   6.325   9.789   3.132 -0.3553 -0.4300 -0.3364
  109MOL0     C14958   6.310   9.673   3.208 -0.3381  1.0526  0.7406
  109MOL0     C14959   6.164   9.264   3.349 -0.5104  0.1070  0.0456
  109MOL0     C14960   6.301   9.198   3.359  0.6571 -0.6214 -0.2509
  109MOL0     C14961   6.327   9.092   3.442  0.7671  0.7516 -0.3189
  109MOL0     C14962   6.223   9.036   3.510  0.3067 -0.4306  0.2623
  109MOL0     O14963   6.225   8.936   3.604  0.2646 -0.6583  0.2277
  109MOL0     C14964   6.346   8.867   3.622  0.2915 -0.2874 -0.3101
  109MOL0     C14965   6.342   8.736   3.695 -0.0750  0.0220 -0.2526
  109MOL0     C14966   6.269   8.617   3.620  0.6655  0.5163  0.7620
  109MOL0     C14967   6.193   8.520   3.709 -0.0116 -0.0408 -1.1237
  109MOL0     C14968   6.275   8.457   3.822  0.2509  0.3590  0.8090
  109MOL0     C14969   6.350   8.420   3.908 -0.0855  0.4769 -0.2346
  109MOL0     C14970   6.101   9.093   3.498 -0.4733 -0.0129 -0.2669
  109MOL0     C14971   6.069   9.213   3.429  0.8759  0.4201  0.5855
  109MOL0     C14972   5.919   9.245   3.425  0.3841 -0.7271  0.0500
  109MOL0     H14973   6.097   9.499   3.003 -3.1415  2.5204 -2.0042
  109MOL0     H14974   6.120   9.707   2.881  2.5668  2.0203 -1.5460
  109MOL0     H14975   6.458   9.895   2.911  1.4589  0.7592 -1.2090
  109MOL0     H14976   6.406  10.034   3.004 -2.3324  0.2081 -0.5182
  109MOL0     H14977   6.477  10.117   2.794  0.8789  0.4325  1.7096
  109MOL0     H14978   6.345  10.023   2.710 -0.6089 -0.8228  0.9708
  109MOL0     H14979   6.170  10.141   2.822  1.3758 -3.8075 -0.5586
  109MOL0     H14980   6.275  10.197   2.951 -1.4468 -0.7720  0.5295
  109MOL0     H14981   6.378  10.358   2.807  0.4337 -3.0000  1.8952
  109MOL0     H14982   6.310  10.292   2.656  5.5292 -3.2374  1.0804
  109MOL0     H14983   6.157  10.450   2.873 -1.3903  1.3850 -0.3410
  109MOL0     H14984   6.095  10.386   2.712  1.8519  0.3181 -2.6418
  109MOL0     H14985   6.308  10.622   2.729 -1.8368  1.0942  2.0574
  109MOL0     H14986   6.251  10.538   2.592 -1.5631  4.5339 -2.0302
  109MOL0     H14987   6.012  10.619   2.656  0.0812  1.7022  0.9269
  109MOL0     H14988   6.129  10.733   2.610  1.4649 -1.8579 -0.9396
  109MOL0     H14989   6.055  10.654   2.890  1.2883  0.1090  1.2315
  109MOL0     H14990   6.183  10.776   2.858  0.0486  1.0805 -1.2511
  109MOL0     H14991   6.122  11.031   2.786 -0.4468  0.0222  2.9016
  109MOL0     H14992   5.860  11.230   2.682  1.5353  5.0940  1.2294
  109MOL0     H14993   5.985  11.223   2.798 -0.7662  0.6820  4.1390
  109MOL0     H14994   5.691  11.216   2.879  0.2629 -1.1835  0.7628
  109MOL0     H14995   5.836  11.214   2.983  0.6928 -0.3839 -0.8274
  109MOL0     H14996   5.905  11.430   2.855  1.5455 -1.5668  3.4113
  109MOL0     H14997   5.733  11.437   2.794 -1.0363  1.2230 -0.2380
  109MOL0     H14998   5.718  11.390   3.066 -0.3365  1.9794  2.1108
  109MOL0     H14999   5.865  11.494   3.068 -0.0789 -1.7076  1.6604
  109MOL0     H15000   5.895  11.749   3.078  0.4831 -0.6087  1.2208
  109MOL0     H15001   5.939  11.946   3.371  1.4546  1.1926  0.6633
  109MOL0     H15002   5.904  12.041   3.225  1.8182  0.1182 -1.7348
  109MOL0     H15003   5.999  11.912   3.205  0.9685  3.4684  0.9971
  109MOL0     H15004   5.736  11.816   3.740 -0.6935 -0.1868 -2.3976
  109MOL0     H15005   5.749  11.907   3.952 -0.5445 -0.3185 -0.9444
  109MOL0     H15006   5.430  12.086   4.076  0.7475  0.4416 -0.2533
  109MOL0     H15007   5.541  12.033   4.203 -2.5363 -2.3898 -0.3529
  109MOL0     H15008   5.498  12.328   4.118  2.0025  0.6149  0.6434
  109MOL0     H15009   5.405  12.251   4.254  0.0016 -3.5134  0.7215
  109MOL0     H15010   5.688  12.331   4.245  1.2737  0.7203  2.9769
  109MOL0     H15011   5.624  12.220   4.369  0.3678 -2.2390 -1.8051
  109MOL0     H15012   5.472  12.387   4.433 -0.3491 -0.1753  0.0626
  109MOL0     H15013   5.529  12.499   4.296  2.7687  0.1004 -1.8156
  109MOL0     H15014   5.629  12.545   4.541  1.1119  1.2257  0.2342
  109MOL0     H15015   5.724  12.397   4.506 -0.7953  0.0461  0.8800
  109MOL0     H15016   5.680  12.630   4.304 -2.0821 -0.3384  2.1430
  109MOL0     H15017   5.817  12.515   4.304 -0.5832  0.9755 -2.3575
  109MOL0     H15018   5.912  12.607   4.495 -0.5267 -2.6019 -2.1618
  109MOL0     H15019   5.771  12.728   4.510  0.0060 -0.2615  0.8705
  109MOL0     H15020   5.945  12.710   4.266  1.7018  1.4812 -0.8199
  109MOL0     H15021   5.994  12.821   4.393 -0.9341  2.8514  1.1217
  109MOL0     H15022   5.452  12.191   3.866  2.4731  1.3758  0.2885
  109MOL0     H15023   5.420  12.083   3.629 -0.8616  0.9875  2.0846
  109MOL0     H15024   5.485  11.762   3.355  1.9180 -2.1954  2.5119
  109MOL0     H15025   5.504  11.591   3.186  0.8755 -0.7539 -1.0395
  109MOL0     H15026   6.386   9.864   3.180 -0.2497 -0.7076 -0.0356
  109MOL0     H15027   6.358   9.669   3.305 -0.2000  0.5450  0.6544
  109MOL0     H15028   6.373   9.243   3.290  1.8764 -2.3192 -0.1513
  109MOL0     H15029   6.426   9.048   3.447 -0.2630 -1.6039  0.9952
  109MOL0     H15030   6.371   8.839   3.520 -0.9486 -1.1615 -0.4078
  109MOL0     H15031   6.419   8.938   3.661 -2.2479  2.0547  0.5202
  109MOL0     H15032   6.290   8.772   3.784  1.8314  1.8333  0.2123
  109MOL0     H15033   6.444   8.715   3.727  0.8027  2.0330 -1.5261
  109MOL0     H15034   6.193   8.649   3.548  0.5839  1.5097  1.2671
  109MOL0     H15035   6.346   8.564   3.563 -0.2944  1.1385 -1.2292
  109MOL0     H15036   6.164   8.440   3.641 -0.6682 -0.1154 -0.7668
  109MOL0     H15037   6.105   8.569   3.752 -0.6742 -2.0582 -0.0747
  109MOL0     H15038   6.409   8.403   3.996  0.2933  2.6152 -0.0187
  109MOL0     H15039   6.020   9.041   3.549  0.7600 -2.6111 -0.8223
  109MOL0     H15040   5.862   9.172   3.482  0.5184 -1.2379 -0.4631
  109MOL0     H15041   5.900   9.340   3.475 -0.9807  0.0514 -1.8004
  109MOL0     H15042   5.876   9.251   3.324 -1.2417 -0.5200  0.7297
  110MOL0     O15043   9.928   4.747   5.371  0.1423 -0.2016  0.4566
  110MOL0     C15044   9.906   4.664   5.286  0.2466  0.3028 -0.6161
  110MOL0     O15045   9.955   4.677   5.157  0.4459  0.0783  0.2694
  110MOL0     C15046  10.047   4.773   5.128 -0.2869  0.3624  0.3817
  110MOL0     C15047  10.008   4.905   5.111  0.1537 -0.2573  0.5712
  110MOL0     C15048  10.106   4.993   5.064  0.1675 -0.6469 -0.5784
  110MOL0     C15049  10.242   4.955   5.054  0.3653  0.4478  0.3785
  110MOL0     O15050  10.335   5.046   5.006  0.3685  0.5307 -0.0755
  110MOL0     C15051  10.330   5.181   5.047 -0.5173  0.1190  0.4388
  110MOL0     C15052  10.460   5.244   5.010 -0.5117 -0.1145  0.1386
  110MOL0     C15053  10.580   5.148   5.036  0.5900 -0.8893  0.7732
  110MOL0     C15054  10.708   5.230   5.065 -0.5559  0.3765 -0.5001
  110MOL0     C15055  10.842   5.150   5.067  0.7017  1.0915  0.1116
  110MOL0     C15056  10.971   5.243   5.099 -0.4812  0.2488  0.0744
  110MOL0     C15057  11.112   5.176   5.128  0.2711  0.0226  0.5549
  110MOL0     C15058  11.210   5.291   5.160 -0.5621  0.2514  0.0530
  110MOL0     N15059  11.351   5.244   5.135  0.4092 -0.6708  0.5270
  110MOL0     C15060  11.398   5.150   5.045  0.6865  1.2023  0.9070
  110MOL0     C15061  11.527   5.138   5.052  0.4624  0.2691  0.0639
  110MOL0     C15062  11.623   5.037   4.989  0.8485 -0.3695  0.8197
  110MOL0     C15063  11.719   5.107   4.897 -1.3181 -0.8714  0.2843
  110MOL0     C15064  11.812   5.019   4.814 -0.2192  0.3253  0.5178
  110MOL0     C15065  11.898   5.092   4.722 -0.3961 -0.3281  0.9804
  110MOL0     O15066  11.827   5.188   4.648 -0.2598  0.2008  0.6204
  110MOL0     C15067  11.890   5.300   4.590 -0.6479  0.5075 -0.2466
  110MOL0     C15068  12.022   5.335   4.595  0.3320 -0.5919  0.3917
  110MOL0     C15069  12.069   5.452   4.533 -0.7228  0.1518 -0.2584
  110MOL0     C15070  12.217   5.484   4.546  0.1951  0.0757  0.6018
  110MOL0     C15071  11.982   5.543   4.468 -0.9452  0.2860  0.3549
  110MOL0     C15072  12.019   5.673   4.406  0.5750  0.8117 -0.5051
  110MOL0     O15073  11.936   5.782   4.435 -0.4219  0.2807  0.4810
  110MOL0     C15074  11.984   5.900   4.386 -0.3251 -0.8091  0.0367
  110MOL0     C15075  11.944   5.953   4.261 -0.9500 -0.5215 -0.7235
  110MOL0     C15076  11.984   6.082   4.217 -0.2116 -0.9658 -0.4295
  110MOL0     C15077  12.045   6.168   4.314  0.0987  0.7268 -0.0009
  110MOL0     O15078  12.091   6.292   4.277  0.2669  0.2434 -0.4142
  110MOL0     C15079  12.096   6.400   4.371 -0.0162  0.6434  0.1434
  110MOL0     C15080  12.145   6.524   4.296 -1.5222  0.9117 -0.5932
  110MOL0     C15081  12.149   6.660   4.369 -1.3102 -0.4774 -1.0222
  110MOL0     C15082  12.009   6.715   4.380 -0.2089 -0.0072 -0.2660
  110MOL0     C15083  11.986   6.856   4.442  0.8478 -0.7850 -0.4138
  110MOL0     C15084  12.044   6.960   4.351 -0.0730  0.6103 -0.2089
  110MOL0     C15085  12.070   7.091   4.436 -0.7306 -0.5016 -0.6534
  110MOL0     C15086  11.957   7.150   4.514  0.5765  0.0067  0.4613
  110MOL0    Cl15087  11.860   7.243   4.389  0.3537 -0.1075 -0.3894
  110MOL0     C15088  12.058   6.121   4.440 -0.5352  1.1049 -0.2408
  110MOL0     C15089  12.033   5.986   4.485 -0.8372  0.3505  0.3860
  110MOL0     O15090  12.124   5.664   4.351 -0.9027 -0.2616  0.9104
  110MOL0     C15091  11.843   5.511   4.476  0.0674  0.1589  0.4350
  110MOL0     C15092  11.798   5.388   4.533  0.2858  0.4758  0.2535
  110MOL0     N15093  11.559   5.232   5.148 -0.6776 -0.8845  0.0030
  110MOL0     N15094  11.460   5.290   5.203  0.5245  0.5128  0.2753
  110MOL0     C15095  10.273   4.819   5.085 -0.8648 -0.0666 -0.1507
  110MOL0     C15096  10.176   4.725   5.112 -0.5662  0.1528 -1.0122
  110MOL0     C15097   9.812   4.557   5.309 -1.0388  0.4772 -0.3622
  110MOL0     C15098   9.728   4.516   5.201 -0.3145  1.0777 -0.0674
  110MOL0     C15099   9.626   4.418   5.228 -0.1930 -0.9713  0.7656
  110MOL0     C15100   9.601   4.370   5.357 -0.6219 -0.6168 -0.1110
  110MOL0     O15101   9.485   4.293   5.373  0.1392  0.1265  0.0740
  110MOL0     C15102   9.434   4.285   5.508 -0.2356  0.9054  0.5451
  110MOL0     C15103   9.372   4.414   5.553  0.8134 -0.5524 -0.1538
  110MOL0     C15104   9.257   4.469   5.466  0.7946 -1.0462 -0.0787
  110MOL0     C15105   9.217   4.609   5.517 -0.1518  0.2692 -0.2759
  110MOL0     C15106   9.109   4.664   5.435  0.0407 -0.4342 -0.0883
  110MOL0     C15107   9.028   4.694   5.348 -0.1124 -0.5565  0.9058
  110MOL0     C15108   9.695   4.413   5.459 -0.1346  0.6253  0.1504
  110MOL0     C15109   9.795   4.500   5.438 -0.0869  0.6460  0.2726
  110MOL0     C15110   9.875   4.531   5.555  0.4726 -0.2007 -0.6311
  110MOL0     H15111   9.904   4.934   5.120  0.0812  0.2306 -1.3675
  110MOL0     H15112  10.077   5.096   5.049  1.2220 -0.2340  0.0942
  110MOL0     H15113  10.313   5.181   5.156 -0.9585  2.4526  0.4219
  110MOL0     H15114  10.246   5.229   4.996  1.9524  0.7911 -3.4114
  110MOL0     H15115  10.464   5.275   4.905  1.9648  3.4214  1.0882
  110MOL0     H15116  10.467   5.329   5.078 -3.0800 -0.1995  0.5899
  110MOL0     H15117  10.576   5.077   5.120  2.7220  1.2587  2.8639
  110MOL0     H15118  10.600   5.106   4.937  1.1109  1.5829 -0.2348
  110MOL0     H15119  10.720   5.313   4.996 -3.4991  1.3898  0.0356
  110MOL0     H15120  10.706   5.279   5.163 -0.6658  2.4250 -1.4635
  110MOL0     H15121  10.861   5.113   4.966 -1.1925  0.6918 -0.1412
  110MOL0     H15122  10.830   5.057   5.124  0.4362 -0.8349 -2.8431
  110MOL0     H15123  10.977   5.315   5.016 -0.8998 -0.7989 -0.8933
  110MOL0     H15124  10.943   5.292   5.193 -2.4545 -0.4076 -0.1357
  110MOL0     H15125  11.147   5.118   5.042  3.2231  3.1235 -0.5888
  110MOL0     H15126  11.107   5.108   5.214 -1.0800 -1.1946 -0.4344
  110MOL0     H15127  11.192   5.380   5.100 -2.0148  0.4916  0.7980
  110MOL0     H15128  11.205   5.319   5.266  2.9393  0.5720  0.2459
  110MOL0     H15129  11.342   5.077   4.987 -0.1962  1.4243  1.4586
  110MOL0     H15130  11.574   4.958   4.932 -1.2190  1.2290  0.2713
  110MOL0     H15131  11.681   5.004   5.077 -0.2886  2.6208  2.8517
  110MOL0     H15132  11.651   5.161   4.829 -1.8363 -2.7939 -0.8128
  110MOL0     H15133  11.775   5.180   4.956 -2.5051  1.6364 -1.5215
  110MOL0     H15134  11.876   4.949   4.868 -2.2941 -3.4481 -1.4513
  110MOL0     H15135  11.743   4.955   4.758 -0.7793 -0.8657  2.4944
  110MOL0     H15136  11.985   5.133   4.774 -2.7097  3.0326  2.6055
  110MOL0     H15137  11.959   5.027   4.658  2.1664  3.1366 -0.4345
  110MOL0     H15138  12.093   5.266   4.640  3.2129  2.8063  1.5858
  110MOL0     H15139  12.265   5.493   4.448 -1.9435  2.6683 -0.3237
  110MOL0     H15140  12.280   5.411   4.599  2.4558  0.5280 -1.2705
  110MOL0     H15141  12.236   5.578   4.599 -1.7230  0.2731  1.0047
  110MOL0     H15142  11.912   5.879   4.188 -0.5148  1.1675 -2.7254
  110MOL0     H15143  11.975   6.114   4.114  1.3619  1.1623  0.0157
  110MOL0     H15144  11.999   6.429   4.411 -0.4029  0.2278 -0.4854
  110MOL0     H15145  12.157   6.375   4.459 -1.7277 -1.3823  0.8362
  110MOL0     H15146  12.247   6.494   4.269  1.0943  5.0794  3.1082
  110MOL0     H15147  12.092   6.539   4.201 -0.4252  3.5215 -0.8958
  110MOL0     H15148  12.210   6.729   4.311 -1.0721  1.0250  0.9022
  110MOL0     H15149  12.182   6.660   4.474  0.7372 -1.6722 -1.6081
  110MOL0     H15150  11.962   6.645   4.450  2.8165  0.3528  2.3248
  110MOL0     H15151  11.965   6.711   4.280  0.5411 -0.7902 -0.5738
  110MOL0     H15152  11.886   6.865   4.485  2.1222  0.8231  2.5593
  110MOL0     H15153  12.047   6.854   4.533  2.5744  1.2720 -1.4222
  110MOL0     H15154  11.972   6.972   4.270 -1.3589  0.1075  0.8212
  110MOL0     H15155  12.138   6.928   4.306 -1.7828 -0.7372 -3.0839
  110MOL0     H15156  12.119   7.174   4.384 -1.5380 -0.1007 -0.7909
  110MOL0     H15157  12.140   7.057   4.513  0.2268  0.3036 -1.1430
  110MOL0     H15158  11.977   7.222   4.594 -1.0664  0.2259  0.7199
  110MOL0     H15159  11.896   7.068   4.553 -0.7397  0.2494 -0.9616
  110MOL0     H15160  12.114   6.180   4.513  0.9946 -2.2022  1.4709
  110MOL0     H15161  12.043   5.962   4.590  0.7825  0.9340  0.4045
  110MOL0     H15162  11.767   5.578   4.436 -0.5940 -0.7920  0.0760
  110MOL0     H15163  11.692   5.366   4.535 -0.0600  2.0560  0.3211
  110MOL0     H15164  10.375   4.787   5.102 -0.5089  0.1153 -1.7656
  110MOL0     H15165  10.198   4.619   5.109 -2.9613 -0.4074 -1.2207
  110MOL0     H15166   9.742   4.548   5.098 -0.5585 -1.6339 -1.0236
  110MOL0     H15167   9.566   4.387   5.143  0.7851 -0.9399  0.0455
  110MOL0     H15168   9.356   4.208   5.511 -0.5014  0.9819 -2.0451
  110MOL0     H15169   9.518   4.268   5.576  0.7644  1.1643 -0.5971
  110MOL0     H15170   9.451   4.489   5.565  0.9257 -0.7999  0.7209
  110MOL0     H15171   9.320   4.387   5.645 -0.5509 -0.4803 -0.8661
  110MOL0     H15172   9.280   4.486   5.360 -1.6802 -1.4977 -0.7478
  110MOL0     H15173   9.174   4.398   5.464  0.9190 -1.1805 -0.8433
  110MOL0     H15174   9.303   4.675   5.531 -0.4509  0.5306  0.3638
  110MOL0     H15175   9.180   4.606   5.620 -0.0992 -3.7250 -0.2146
  110MOL0     H15176   8.951   4.709   5.275  0.6895  1.5774  0.4191
  110MOL0     H15177   9.707   4.359   5.552  2.8783 -1.1047 -1.0803
  110MOL0     H15178   9.875   4.449   5.629 -2.4081  1.8913  1.9427
  110MOL0     H15179   9.980   4.559   5.542  0.8970 -1.1999  0.3787
  110MOL0     H15180   9.823   4.613   5.604 -1.8382 -1.5045 -0.7582
  111MOL0     O15181   0.055   3.118   9.802 -0.6920  0.5601 -0.1087
  111MOL0     C15182   0.166   3.071   9.835 -0.2050  0.5421  0.1821
  111MOL0     O15183   0.284   3.079   9.758  0.3493  0.7080 -0.7528
  111MOL0     C15184   0.286   3.182   9.668  0.5367 -0.6054 -0.6202
  111MOL0     C15185   0.288   3.327   9.695 -0.6748 -0.2295  0.6807
  111MOL0     C15186   0.264   3.417   9.591 -0.3923  0.4628 -0.1412
  111MOL0     C15187   0.266   3.365   9.461  0.9270 -0.5459 -0.3267
  111MOL0     O15188   0.243   3.442   9.353  0.4558  0.2093 -0.0592
  111MOL0     C15189   0.258   3.586   9.358  0.2482 -0.0503  1.1077
  111MOL0     C15190   0.237   3.649   9.217  0.1013 -0.2519  1.0661
  111MOL0     C15191   0.328   3.594   9.112 -0.2954  0.6376 -0.8213
  111MOL0     C15192   0.387   3.709   9.038  1.1222  0.2718 -0.1311
  111MOL0     C15193   0.520   3.675   8.968 -0.3462  0.0916  0.7061
  111MOL0     C15194   0.593   3.781   8.880  0.3084 -0.0016 -0.3896
  111MOL0     C15195   0.707   3.727   8.796 -0.1840 -0.0764  0.3995
  111MOL0     C15196   0.811   3.822   8.743  0.0370 -1.0794  0.4056
  111MOL0     N15197   0.901   3.900   8.832  0.2265  0.1661 -0.1402
  111MOL0     C15198   0.881   4.024   8.871  0.4859 -0.7827 -0.0909
  111MOL0     C15199   0.999   4.071   8.924 -0.7732 -0.1799 -0.3509
  111MOL0     C15200   1.016   4.214   8.985 -0.2006  0.3471  0.2242
  111MOL0     C15201   0.970   4.222   9.131 -0.4530  0.7488 -0.6205
  111MOL0     C15202   1.061   4.137   9.228 -0.4686 -0.6833 -0.3729
  111MOL0     C15203   1.023   4.163   9.373 -0.5088  0.1221  0.5213
  111MOL0     O15204   1.051   4.297   9.401  0.3053 -0.1215 -0.1853
  111MOL0     C15205   0.998   4.354   9.518 -0.4343  0.2144 -0.2597
  111MOL0     C15206   1.004   4.285   9.631  0.3579  0.7955 -0.8388
  111MOL0     C15207   0.943   4.322   9.749  0.5948  0.5544 -0.4120
  111MOL0     C15208   0.946   4.230   9.875 -0.0479  0.0789  0.0323
  111MOL0     C15209   0.889   4.458   9.755 -0.1408  0.1810 -0.6461
  111MOL0     C15210   0.837   4.526   9.876 -1.2030  0.3222  0.4858
  111MOL0     O15211   0.830   4.663   9.891  0.0283  0.3891 -0.4119
  111MOL0     C15212   0.770   4.713  10.008  0.2341  0.2529  0.6383
  111MOL0     C15213   0.660   4.802   9.998 -0.2877 -0.2368  0.1719
  111MOL0     C15214   0.603   4.851  10.115  0.4858  0.2466  0.3271
  111MOL0     C15215   0.640   4.821  10.241 -1.1859 -0.2083 -0.4719
  111MOL0     O15216   0.575   4.869  10.348  0.0826  0.4018 -0.5545
  111MOL0     C15217   0.618   5.000  10.392  0.7637  0.3471  1.2138
  111MOL0     C15218   0.583   5.006  10.545  0.4940 -0.3620  0.2626
  111MOL0     C15219   0.667   4.914  10.631 -0.6263  0.2828  0.1183
  111MOL0     C15220   0.814   4.970  10.634  0.6808  0.2297 -0.5257
  111MOL0     C15221   0.872   4.932  10.769 -0.1030 -0.1316 -0.0988
  111MOL0     C15222   1.027   4.953  10.772 -1.0669  0.0053  0.4090
  111MOL0     C15223   1.091   4.901  10.908  0.0971 -0.5035 -0.5356
  111MOL0     C15224   1.236   4.878  10.915 -0.7732 -0.7695 -0.8041
  111MOL0    Cl15225   1.287   4.810  11.070  0.1575  0.1015  0.2773
  111MOL0     C15226   0.750   4.732  10.252 -0.0976  0.5293  0.1057
  111MOL0     C15227   0.818   4.683  10.139  0.8801  0.3818 -0.3346
  111MOL0     O15228   0.790   4.446   9.961 -0.3772 -0.0407 -0.3736
  111MOL0     C15229   0.896   4.536   9.638 -0.5036 -0.1839  0.6935
  111MOL0     C15230   0.948   4.481   9.526 -0.5326 -0.2103  0.3004
  111MOL0     N15231   1.086   3.963   8.917  0.4282 -0.4348  0.1595
  111MOL0     N15232   1.022   3.858   8.864  0.0238 -0.6468  0.3038
  111MOL0     C15233   0.282   3.227   9.440  0.1933 -0.3829  0.5277
  111MOL0     C15234   0.297   3.140   9.543 -0.4842  0.2445 -0.1449
  111MOL0     C15235   0.182   2.999   9.960  1.1257 -0.2822  0.1249
  111MOL0     C15236   0.252   2.879   9.950  0.3471  0.4025  0.4345
  111MOL0     C15237   0.264   2.792  10.057  0.0157 -0.1037 -0.0897
  111MOL0     C15238   0.224   2.834  10.181 -0.1072 -0.6666 -0.8212
  111MOL0     O15239   0.255   2.764  10.296  0.1171  0.2431 -0.2104
  111MOL0     C15240   0.346   2.652  10.299  0.4008 -0.4488  0.1749
  111MOL0     C15241   0.275   2.524  10.309  0.2690  0.3451 -0.1966
  111MOL0     C15242   0.185   2.521  10.434  0.7371  0.2258  0.0864
  111MOL0     C15243   0.040   2.567  10.395 -0.3848  0.0113  0.4558
  111MOL0     C15244  -0.047   2.599  10.508  0.0157  0.5592 -0.5487
  111MOL0     C15245  -0.109   2.625  10.610  0.2759 -0.4860 -0.0581
  111MOL0     C15246   0.151   2.953  10.192 -0.8777 -0.0363 -0.2268
  111MOL0     C15247   0.122   3.037  10.080 -0.4158  0.4972  0.2728
  111MOL0     C15248   0.041   3.155  10.097  0.0421  0.0202  0.1154
  111MOL0     H15249   0.290   3.359   9.799  1.7384  2.5232 -0.0886
  111MOL0     H15250   0.229   3.519   9.603  3.4982  2.1808 -1.5948
  111MOL0     H15251   0.359   3.610   9.393 -0.0006  1.7097  0.6861
  111MOL0     H15252   0.183   3.639   9.416 -0.0634  0.3090  0.3890
  111MOL0     H15253   0.137   3.618   9.184  1.3240 -0.4973 -2.9081
  111MOL0     H15254   0.232   3.758   9.215  0.5752 -0.0544  4.4502
  111MOL0     H15255   0.403   3.533   9.163 -1.7334 -1.9290 -1.5946
  111MOL0     H15256   0.268   3.530   9.046 -3.3838  1.1502  1.2668
  111MOL0     H15257   0.314   3.730   8.959 -0.9080 -1.4662  1.1533
  111MOL0     H15258   0.391   3.801   9.097 -1.0217 -1.8204  3.6247
  111MOL0     H15259   0.522   3.594   8.895 -0.2530  1.2171 -0.5850
  111MOL0     H15260   0.587   3.645   9.049  1.9529  1.0694 -0.7487
  111MOL0     H15261   0.519   3.816   8.808 -0.5548 -2.2953 -0.7107
  111MOL0     H15262   0.627   3.858   8.950  0.3340  0.4132 -0.8578
  111MOL0     H15263   0.662   3.683   8.706  0.4001  0.9969 -0.4494
  111MOL0     H15264   0.759   3.654   8.858  0.2394  0.7566  1.0456
  111MOL0     H15265   0.876   3.754   8.687  1.7581  0.7760  0.0401
  111MOL0     H15266   0.763   3.887   8.669 -0.0623  0.4038  1.7342
  111MOL0     H15267   0.794   4.089   8.863  0.2044 -0.8900  1.7766
  111MOL0     H15268   0.956   4.290   8.934  2.3145  1.2646 -1.5865
  111MOL0     H15269   1.124   4.231   8.976  0.4968 -3.0115  0.7299
  111MOL0     H15270   0.968   4.327   9.162 -4.1411  0.6731 -0.2469
  111MOL0     H15271   0.871   4.178   9.136  0.4314 -1.3171 -0.1240
  111MOL0     H15272   1.056   4.029   9.211 -2.9510 -0.3229 -2.5101
  111MOL0     H15273   1.166   4.166   9.216 -1.5927  4.2302 -0.5262
  111MOL0     H15274   0.921   4.131   9.399 -1.6868  2.8558 -0.3680
  111MOL0     H15275   1.081   4.096   9.436  0.3982  1.0646  0.7202
  111MOL0     H15276   1.049   4.186   9.638  1.7187  1.4326 -0.1583
  111MOL0     H15277   1.010   4.145   9.850  0.6746 -0.1350  2.4472
  111MOL0     H15278   0.845   4.192   9.887  0.5363 -1.4813  0.2289
  111MOL0     H15279   0.979   4.279   9.967 -0.1528 -2.4889  1.5214
  111MOL0     H15280   0.627   4.839   9.902 -3.3125  1.3458  1.6913
  111MOL0     H15281   0.526   4.928  10.112 -1.7489 -1.8863  0.3032
  111MOL0     H15282   0.721   5.026  10.366  1.2797  1.3194  3.9137
  111MOL0     H15283   0.558   5.070  10.334 -2.6094 -3.3132 -0.1517
  111MOL0     H15284   0.590   5.109  10.581  0.0025 -0.3990  0.4647
  111MOL0     H15285   0.480   4.975  10.562 -0.5846  1.6850 -2.0123
  111MOL0     H15286   0.658   4.812  10.593  0.4588 -0.1598  1.0217
  111MOL0     H15287   0.618   4.929  10.728 -1.8426 -1.0805 -0.2534
  111MOL0     H15288   0.821   5.079  10.627 -2.5003  0.4229 -3.0969
  111MOL0     H15289   0.865   4.924  10.550 -1.3087 -2.8431 -0.2042
  111MOL0     H15290   0.829   4.985  10.854 -0.6982 -1.0098  0.1627
  111MOL0     H15291   0.858   4.824  10.776 -2.9482  0.0832 -1.0459
  111MOL0     H15292   1.067   5.055  10.765  4.2254 -1.7920 -0.4677
  111MOL0     H15293   1.076   4.903  10.688  1.1185  3.5071 -0.6072
  111MOL0     H15294   1.042   4.806  10.931  0.3313  0.1644  3.3014
  111MOL0     H15295   1.068   4.975  10.985 -0.8992 -0.1621 -1.1446
  111MOL0     H15296   1.274   4.977  10.887 -3.0824  0.1637 -0.8862
  111MOL0     H15297   1.272   4.815  10.833 -1.7302 -0.4741 -1.4759
  111MOL0     H15298   0.785   4.704  10.351 -2.0931 -1.7288  0.2747
  111MOL0     H15299   0.912   4.629  10.151  0.4079 -0.3466  0.2123
  111MOL0     H15300   0.887   4.644   9.636  0.8336 -0.0580 -1.3471
  111MOL0     H15301   0.959   4.540   9.435 -2.9922 -3.3676 -2.3340
  111MOL0     H15302   0.268   3.186   9.340 -0.6856  2.5088 -0.6398
  111MOL0     H15303   0.304   3.034   9.522 -1.6466  0.5123 -2.1789
  111MOL0     H15304   0.303   2.859   9.856 -2.0872  0.2262 -0.9319
  111MOL0     H15305   0.321   2.702  10.040  1.6952  1.2155 -1.8359
  111MOL0     H15306   0.423   2.652  10.221  1.0067  0.3987  0.7578
  111MOL0     H15307   0.410   2.665  10.387 -1.4578 -3.4605  2.1699
  111MOL0     H15308   0.350   2.445  10.324  1.1149  1.6219  3.6062
  111MOL0     H15309   0.218   2.497  10.220  2.0654 -3.6261 -0.3612
  111MOL0     H15310   0.166   2.416  10.459  2.1890  0.2359  1.3280
  111MOL0     H15311   0.231   2.577  10.516  1.2819  2.8595 -1.8725
  111MOL0     H15312  -0.019   2.503  10.330 -0.5962  1.3921 -0.7655
  111MOL0     H15313   0.040   2.662  10.341 -2.4373  0.7824  1.6922
  111MOL0     H15314  -0.147   2.655  10.705 -1.3491  1.1879 -1.1755
  111MOL0     H15315   0.111   2.986  10.287 -1.2778  0.4657 -0.5638
  111MOL0     H15316  -0.001   3.166  10.197 -0.9528 -0.1294 -0.2723
  111MOL0     H15317   0.080   3.252  10.067 -1.3891  0.5824  0.0104
  111MOL0     H15318  -0.041   3.134  10.028  1.2355 -2.8132 -0.5904
  112MOL0     O15319   1.145   3.470   0.088  0.8452  0.0120  0.2927
  112MOL0     C15320   1.146   3.425   0.202  0.2343 -0.1208  0.9436
  112MOL0     O15321   1.140   3.294   0.229  0.0276  0.3318  0.6198
  112MOL0     C15322   1.105   3.191   0.140  0.9745  0.6137  0.4455
  112MOL0     C15323   1.062   3.073   0.197  0.0481 -1.1587 -0.2066
  112MOL0     C15324   1.020   2.961   0.115  0.4053 -0.5092 -0.5675
  112MOL0     C15325   1.032   2.970  -0.021  0.4581 -0.3912 -0.3470
  112MOL0     O15326   1.001   2.855  -0.091 -0.4360 -0.5010  0.4776
  112MOL0     C15327   0.973   2.869  -0.224 -0.4517  0.2209  0.0139
  112MOL0     C15328   0.938   2.728  -0.280  0.4034 -0.2730 -1.1104
  112MOL0     C15329   0.845   2.646  -0.195  0.2931  0.0343 -0.8465
  112MOL0     C15330   0.794   2.525  -0.272  0.0768  1.0930 -0.3387
  112MOL0     C15331   0.688   2.455  -0.187  0.1618  0.0862 -0.6763
  112MOL0     C15332   0.608   2.350  -0.267 -0.4680 -0.4193 -0.0951
  112MOL0     C15333   0.478   2.306  -0.199  0.4108 -0.0982  0.5647
  112MOL0     C15334   0.388   2.236  -0.304 -0.0432 -0.0109 -0.8175
  112MOL0     N15335   0.304   2.141  -0.241  0.6314 -0.2235 -0.2455
  112MOL0     C15336   0.225   2.163  -0.128  0.4290 -0.7815 -0.8911
  112MOL0     C15337   0.132   2.067  -0.138  0.2374 -0.8607  0.1322
  112MOL0     C15338   0.012   2.041  -0.048 -0.4725 -0.2130  0.3290
  112MOL0     C15339   0.019   1.910   0.024  0.4654 -0.2027 -1.5425
  112MOL0     C15340  -0.019   1.940   0.175 -0.6069  0.0905 -0.4105
  112MOL0     C15341   0.044   1.817   0.262 -0.7495 -0.0555 -0.3297
  112MOL0     O15342  -0.027   1.796   0.387 -0.0316 -0.2746  0.4119
  112MOL0     C15343   0.017   1.850   0.502  0.2499  0.0819 -0.2495
  112MOL0     C15344   0.075   1.973   0.510  0.2217  0.1039  0.6107
  112MOL0     C15345   0.144   2.010   0.627 -0.2061  0.3369  0.2475
  112MOL0     C15346   0.228   2.126   0.646 -0.0681 -0.0523 -0.8494
  112MOL0     C15347   0.134   1.922   0.737 -0.2981  0.0300 -0.0733
  112MOL0     C15348   0.195   1.959   0.866  0.2506 -1.0107  0.0169
  112MOL0     O15349   0.317   1.926   0.894 -0.0765  0.9626 -1.5493
  112MOL0     C15350   0.370   1.951   1.017  0.3214 -0.3708 -0.0225
  112MOL0     C15351   0.377   1.847   1.118  0.0265 -0.7348 -0.3338
  112MOL0     C15352   0.451   1.859   1.242 -0.1703 -0.5880  0.1371
  112MOL0     C15353   0.494   1.989   1.272  0.3643 -0.1678 -0.0600
  112MOL0     O15354   0.567   2.000   1.388  0.3371  0.5268  0.9247
  112MOL0     C15355   0.481   2.034   1.491 -0.0577  0.2695 -0.1195
  112MOL0     C15356   0.561   2.024   1.620  0.1848 -0.5237 -0.1741
  112MOL0     C15357   0.607   2.161   1.671 -0.4006 -0.5411  0.6411
  112MOL0     C15358   0.695   2.144   1.799  0.2028  0.2815 -1.2534
  112MOL0     C15359   0.740   2.273   1.852 -0.6133 -0.6104 -1.0092
  112MOL0     C15360   0.816   2.258   1.981  0.1851 -0.2234 -0.3381
  112MOL0     C15361   0.864   2.396   2.035 -0.6741 -0.1282 -0.2198
  112MOL0     C15362   0.940   2.490   1.935  0.0633  0.6808 -0.3212
  112MOL0    Cl15363   1.079   2.407   1.882 -0.5405 -0.0810  0.1842
  112MOL0     C15364   0.472   2.091   1.182 -0.6587 -0.4937 -0.5763
  112MOL0     C15365   0.421   2.075   1.059  0.0395 -0.4091 -0.0218
  112MOL0     O15366   0.118   2.022   0.939  0.3945  0.6005  0.4149
  112MOL0     C15367   0.074   1.799   0.727  1.2067 -0.1207  0.2368
  112MOL0     C15368   0.009   1.763   0.605  0.2234 -0.5347  0.1761
  112MOL0     N15369   0.140   1.996  -0.253  1.0882 -0.6627 -0.0283
  112MOL0     N15370   0.249   2.037  -0.314 -0.5467 -0.6916  0.0518
  112MOL0     C15371   1.086   3.087  -0.089 -0.0251 -0.7667 -0.2579
  112MOL0     C15372   1.114   3.200  -0.004 -1.0420  0.1647  0.7541
  112MOL0     C15373   1.151   3.528   0.310  0.1907  0.1785 -0.0268
  112MOL0     C15374   1.216   3.653   0.288  0.6781 -0.2144 -1.1107
  112MOL0     C15375   1.210   3.754   0.390 -1.2054  0.1502 -0.3327
  112MOL0     C15376   1.153   3.723   0.518 -0.8205 -1.2081 -1.4539
  112MOL0     O15377   1.154   3.818   0.627 -0.1498  0.5057 -0.4216
  112MOL0     C15378   1.238   3.936   0.629 -0.1973  0.1680 -0.6906
  112MOL0     C15379   1.298   3.946   0.777 -0.4288 -0.0675  0.1984
  112MOL0     C15380   1.193   3.992   0.879 -1.3335  0.2354  0.6514
  112MOL0     C15381   1.228   3.998   1.028 -0.5647  0.9970 -0.5935
  112MOL0     C15382   1.109   4.060   1.087 -0.0792 -0.4556  0.2281
  112MOL0     C15383   1.009   4.115   1.138 -1.1323 -0.0070  0.1510
  112MOL0     C15384   1.102   3.592   0.544  0.2644  0.4062 -0.6636
  112MOL0     C15385   1.089   3.504   0.441 -0.3162  0.5714  0.6615
  112MOL0     C15386   1.011   3.375   0.464  0.6747  0.5361 -0.9945
  112MOL0     H15387   1.054   3.079   0.305 -2.1187  2.2557 -0.3880
  112MOL0     H15388   0.955   2.884   0.155 -1.5959  0.7834 -1.1659
  112MOL0     H15389   1.066   2.893  -0.276 -2.5106 -0.1811 -4.2684
  112MOL0     H15390   0.894   2.940  -0.249  1.6499  1.9753 -1.9851
  112MOL0     H15391   0.897   2.751  -0.379  0.8009  2.0215 -0.8097
  112MOL0     H15392   1.026   2.665  -0.299 -0.3228 -2.8800  2.9762
  112MOL0     H15393   0.890   2.610  -0.103  1.3185  1.1887 -0.8732
  112MOL0     H15394   0.755   2.705  -0.172  0.1666 -0.6738  0.6190
  112MOL0     H15395   0.760   2.568  -0.366  2.4145  1.3263 -1.1285
  112MOL0     H15396   0.875   2.453  -0.286  0.1296  0.5764  2.1141
  112MOL0     H15397   0.620   2.529  -0.144  0.4581 -0.1003  0.1476
  112MOL0     H15398   0.741   2.410  -0.102 -1.2031 -0.2587  0.0282
  112MOL0     H15399   0.589   2.398  -0.363  2.2023 -1.8642 -1.4414
  112MOL0     H15400   0.668   2.261  -0.288  1.1410  0.8948 -1.2336
  112MOL0     H15401   0.425   2.392  -0.155  0.0282  1.9995 -3.5273
  112MOL0     H15402   0.500   2.235  -0.119  0.4413 -1.0491 -0.2712
  112MOL0     H15403   0.336   2.306  -0.370 -0.1727  1.7464  1.0551
  112MOL0     H15404   0.455   2.180  -0.370 -1.3458 -2.8080  0.1045
  112MOL0     H15405   0.241   2.237  -0.050  0.1194  1.0984 -2.5473
  112MOL0     H15406  -0.080   2.034  -0.107 -1.3850  0.3470  1.6357
  112MOL0     H15407  -0.006   2.129   0.014  2.5944  1.2244 -0.6537
  112MOL0     H15408  -0.055   1.835  -0.007 -0.3407  0.0829 -0.3561
  112MOL0     H15409   0.121   1.872   0.017  0.6784  0.1804 -0.5809
  112MOL0     H15410   0.026   2.032   0.214  0.6688 -0.7874  0.2707
  112MOL0     H15411  -0.128   1.934   0.172 -0.7165  1.5200 -3.6210
  112MOL0     H15412   0.022   1.726   0.205  1.6603 -0.7369 -0.3159
  112MOL0     H15413   0.150   1.837   0.282 -0.6605 -1.6142  1.0437
  112MOL0     H15414   0.099   2.027   0.419 -0.7005 -0.2173  0.1676
  112MOL0     H15415   0.248   2.192   0.561  2.2847 -3.5282 -3.2331
  112MOL0     H15416   0.321   2.102   0.698 -0.4068  0.1902 -0.1218
  112MOL0     H15417   0.166   2.173   0.724  2.0696 -0.3159  1.1128
  112MOL0     H15418   0.339   1.749   1.093 -1.0954  0.1234 -2.1871
  112MOL0     H15419   0.489   1.779   1.305  2.8395 -0.0170 -0.7861
  112MOL0     H15420   0.439   2.132   1.467 -0.0057 -0.7604 -5.8053
  112MOL0     H15421   0.398   1.963   1.499  1.1012 -1.1921 -0.7883
  112MOL0     H15422   0.487   1.987   1.692  0.3868  0.3437  0.4947
  112MOL0     H15423   0.644   1.953   1.623  0.7041  0.0882  1.1380
  112MOL0     H15424   0.520   2.215   1.709  0.7242  1.0028  1.1104
  112MOL0     H15425   0.665   2.208   1.592 -0.6330 -1.5521 -0.1538
  112MOL0     H15426   0.781   2.080   1.777  0.7593  0.5584  0.0424
  112MOL0     H15427   0.627   2.096   1.869  0.5996  0.4119 -0.7752
  112MOL0     H15428   0.800   2.329   1.780  0.3987 -0.3743 -0.0006
  112MOL0     H15429   0.644   2.322   1.873  0.4768  1.8950 -1.5497
  112MOL0     H15430   0.898   2.187   1.966  0.3837  0.1735 -1.2102
  112MOL0     H15431   0.745   2.208   2.047  0.0088 -1.2070 -1.2507
  112MOL0     H15432   0.926   2.367   2.121  0.4640 -0.0707 -1.0103
  112MOL0     H15433   0.772   2.446   2.066 -0.0851  1.7331 -1.3762
  112MOL0     H15434   0.972   2.576   1.995 -1.5371  0.0452  1.5626
  112MOL0     H15435   0.869   2.528   1.861  0.4465  1.7293 -0.1704
  112MOL0     H15436   0.489   2.193   1.212 -0.6502 -0.4396 -0.7642
  112MOL0     H15437   0.406   2.148   0.981  2.0083  0.5696  0.4715
  112MOL0     H15438   0.067   1.725   0.807  1.3616 -1.5591 -1.0322
  112MOL0     H15439  -0.058   1.679   0.590 -1.5194  0.9502 -0.7672
  112MOL0     H15440   1.087   3.109  -0.195 -4.4627 -1.2735 -0.6089
  112MOL0     H15441   1.159   3.291  -0.043  1.6109 -1.3998 -0.0356
  112MOL0     H15442   1.272   3.675   0.198  0.2691 -4.3973 -2.5862
  112MOL0     H15443   1.265   3.848   0.386  0.4126 -0.5475  2.7126
  112MOL0     H15444   1.327   3.919   0.567  1.4333 -2.8297  2.1583
  112MOL0     H15445   1.175   4.024   0.615 -1.9941 -0.6701  1.5931
  112MOL0     H15446   1.375   4.024   0.782 -2.8055  2.3633  3.6486
  112MOL0     H15447   1.340   3.847   0.799  1.9046  1.0779  1.2964
  112MOL0     H15448   1.146   4.082   0.839 -3.3519 -0.7904  0.6063
  112MOL0     H15449   1.114   3.918   0.863 -0.6872 -0.2996 -0.1370
  112MOL0     H15450   1.314   4.066   1.033 -0.0333  0.2466  1.1217
  112MOL0     H15451   1.253   3.901   1.073  1.5647  1.3722 -0.8428
  112MOL0     H15452   0.943   4.168   1.204 -2.4771  1.2173 -2.0684
  112MOL0     H15453   1.049   3.566   0.636 -3.2348  1.8189 -2.0802
  112MOL0     H15454   0.913   3.377   0.415 -0.0159 -4.6015 -0.3660
  112MOL0     H15455   1.070   3.286   0.444  2.2119  0.8637  1.6425
  112MOL0     H15456   1.000   3.357   0.572  2.3917 -0.0103 -0.8877
  113MOL0     O15457   2.876  11.050   8.976  0.5078  0.2280 -0.0903
  113MOL0     C15458   2.922  11.130   8.900  0.3495 -0.3829  0.2759
  113MOL0     O15459   2.854  11.217   8.830  0.4138 -0.7714  0.6280
  113MOL0     C15460   2.724  11.205   8.810 -0.3369  0.4650  0.5116
  113MOL0     C15461   2.655  11.088   8.780  1.1268 -0.0064  0.6750
  113MOL0     C15462   2.517  11.093   8.775  0.8471  0.7392  0.4918
  113MOL0     C15463   2.447  11.215   8.794  0.0337  0.7186 -0.0370
  113MOL0     O15464   2.316  11.228   8.762  0.5515 -0.8962  0.3349
  113MOL0     C15465   2.248  11.138   8.677 -0.0188 -0.4308  0.2233
  113MOL0     C15466   2.171  11.039   8.750 -0.2714 -0.5547 -0.7519
  113MOL0     C15467   2.081  11.100   8.857 -0.9348  0.3580  0.6260
  113MOL0     C15468   2.007  10.994   8.937  0.0092 -0.0125 -0.5209
  113MOL0     C15469   1.864  11.028   8.998 -0.4315  0.2936 -0.2248
  113MOL0     C15470   1.875  11.168   9.057 -0.5425  0.2539  0.9392
  113MOL0     C15471   1.745  11.206   9.133  0.5236 -0.5798 -0.2800
  113MOL0     C15472   1.695  11.335   9.073 -0.7734 -0.0475 -0.1586
  113MOL0     N15473   1.772  11.455   9.123  0.2521  0.8108  0.0030
  113MOL0     C15474   1.777  11.492   9.249 -0.3251 -0.2554 -0.1473
  113MOL0     C15475   1.852  11.605   9.253  0.1588  1.2650  0.5137
  113MOL0     C15476   1.878  11.690   9.364 -0.2923  0.1683  0.0654
  113MOL0     C15477   1.910  11.608   9.491 -0.8529 -0.2878  0.3056
  113MOL0     C15478   2.062  11.565   9.488 -0.0073 -0.1556  0.4921
  113MOL0     C15479   2.098  11.468   9.592 -0.3093  0.4511 -0.6320
  113MOL0     O15480   2.032  11.347   9.563 -0.6572 -0.7928  0.5941
  113MOL0     C15481   2.098  11.242   9.605  1.2400  0.1181  0.1056
  113MOL0     C15482   2.149  11.139   9.531 -0.1862 -0.7114  1.4550
  113MOL0     C15483   2.211  11.023   9.585 -0.1616  0.3861 -0.0387
  113MOL0     C15484   2.243  10.917   9.491  1.7013  0.8127 -1.6229
  113MOL0     C15485   2.234  11.020   9.731 -0.8022 -0.3283 -0.6818
  113MOL0     C15486   2.293  10.907   9.800 -0.7782  0.4335  0.6507
  113MOL0     O15487   2.323  10.932   9.924 -0.0945 -0.1209 -0.3370
  113MOL0     C15488   2.368  10.824  10.006  0.4026  0.5909  0.1703
  113MOL0     C15489   2.455  10.852  10.106  0.1815  0.3566 -0.6249
  113MOL0     C15490   2.501  10.762  10.209 -1.0915  0.5309 -0.0527
  113MOL0     C15491   2.440  10.638  10.216 -0.5643  0.1774 -0.1837
  113MOL0     O15492   2.492  10.553  10.322 -0.2552 -0.5895  0.2151
  113MOL0     C15493   2.439  10.419  10.326 -0.0949 -0.6731 -0.2778
  113MOL0     C15494   2.444  10.366  10.466 -0.4239  0.1888  0.9365
  113MOL0     C15495   2.361  10.458  10.550 -0.6495  0.2233  0.4286
  113MOL0     C15496   2.304  10.388  10.680  0.0749  0.1951  0.0742
  113MOL0     C15497   2.215  10.487  10.759  0.6440  0.1291 -0.5244
  113MOL0     C15498   2.141  10.415  10.881 -0.1723  0.0065  0.1151
  113MOL0     C15499   2.050  10.513  10.945  1.0950 -0.4280 -0.7891
  113MOL0     C15500   1.982  10.448  11.063 -0.5453 -0.7748  0.3245
  113MOL0    Cl15501   2.100  10.423  11.187 -0.2305  0.5157  0.0203
  113MOL0     C15502   2.337  10.612  10.119 -0.8618  0.1942 -0.1700
  113MOL0     C15503   2.297  10.703  10.016 -0.1915 -0.6849 -0.8510
  113MOL0     O15504   2.282  10.790   9.756  0.6860  0.2888 -0.4172
  113MOL0     C15505   2.194  11.132   9.804  0.1365 -0.1053 -0.5083
  113MOL0     C15506   2.134  11.244   9.744  0.8471  0.1149 -0.3453
  113MOL0     N15507   1.899  11.628   9.131 -0.3234 -0.6130 -0.2442
  113MOL0     N15508   1.849  11.538   9.051  0.3866 -0.0478 -0.0925
  113MOL0     C15509   2.525  11.333   8.813  1.3191  0.4971 -0.4258
  113MOL0     C15510   2.657  11.326   8.828 -0.1660 -0.1840 -0.4215
  113MOL0     C15511   3.067  11.143   8.916 -0.5656 -1.2549 -0.4894
  113MOL0     C15512   3.156  11.035   8.915  0.2038  0.5727  0.2326
  113MOL0     C15513   3.295  11.044   8.924 -0.8078  0.7331  0.3711
  113MOL0     C15514   3.353  11.166   8.935 -0.0456 -0.0675  0.0898
  113MOL0     O15515   3.491  11.189   8.949  0.6936 -0.0117  0.3219
  113MOL0     C15516   3.597  11.093   8.917  0.5683  0.7895 -1.0428
  113MOL0     C15517   3.714  11.173   8.901 -0.6613  0.1145  0.8316
  113MOL0     C15518   3.850  11.098   8.885  0.0279  0.1141 -0.4382
  113MOL0     C15519   3.960  11.206   8.879  0.2426 -0.1456 -0.2180
  113MOL0     C15520   4.073  11.165   8.788 -0.4290  0.8725  0.2382
  113MOL0     C15521   4.167  11.136   8.709 -0.0550  0.6088 -0.1165
  113MOL0     C15522   3.265  11.276   8.925  0.1662 -0.0651  0.2680
  113MOL0     C15523   3.123  11.271   8.927  0.7789 -0.1625 -0.2521
  113MOL0     C15524   3.053  11.406   8.929 -0.3123 -1.7248 -0.4250
  113MOL0     H15525   2.699  10.996   8.743 -0.0323  0.0173 -0.8805
  113MOL0     H15526   2.468  10.999   8.754 -0.4170  1.7155 -1.1431
  113MOL0     H15527   2.319  11.090   8.609 -0.5902  2.0426 -2.3206
  113MOL0     H15528   2.177  11.193   8.614 -1.7418  0.6178  2.8959
  113MOL0     H15529   2.111  10.979   8.680 -0.6523  0.2163 -1.0991
  113MOL0     H15530   2.237  10.964   8.794 -1.6911 -2.5883 -1.9543
  113MOL0     H15531   2.154  11.156   8.916  1.2513 -1.3910 -0.3004
  113MOL0     H15532   2.016  11.172   8.805  0.1957  3.4555  3.1995
  113MOL0     H15533   1.991  10.896   8.891 -2.5472  0.2432 -0.3171
  113MOL0     H15534   2.070  10.968   9.023 -3.2380  1.8690  2.6992
  113MOL0     H15535   1.833  10.945   9.062  0.0511 -1.7689 -2.5168
  113MOL0     H15536   1.792  11.024   8.916 -0.9917  0.8083  0.2330
  113MOL0     H15537   1.967  11.163   9.117  0.0775  0.0190 -0.0084
  113MOL0     H15538   1.892  11.241   8.977 -1.4032 -2.1345 -1.5906
  113MOL0     H15539   1.781  11.224   9.236  0.1122  0.6319 -0.3329
  113MOL0     H15540   1.670  11.127   9.141 -1.6747  1.4383  0.1849
  113MOL0     H15541   1.683  11.319   8.965 -1.1947  1.7747 -0.4069
  113MOL0     H15542   1.589  11.349   9.094 -1.4180 -2.9574 -0.8876
  113MOL0     H15543   1.725  11.444   9.331  2.3379 -1.0098  1.2092
  113MOL0     H15544   1.788  11.751   9.378  0.0293 -0.0908  4.5582
  113MOL0     H15545   1.961  11.759   9.344 -0.0724 -0.5612 -1.7466
  113MOL0     H15546   1.882  11.664   9.581 -5.7154  1.8031 -2.1384
  113MOL0     H15547   1.844  11.522   9.506 -2.3253  1.0574  2.0926
  113MOL0     H15548   2.089  11.536   9.387  0.6932  0.1000  0.6003
  113MOL0     H15549   2.115  11.659   9.503 -0.2260  0.1914 -0.8136
  113MOL0     H15550   2.205  11.451   9.583  0.3383 -1.0780  5.2947
  113MOL0     H15551   2.074  11.497   9.695 -0.5631 -0.9482 -0.2708
  113MOL0     H15552   2.130  11.142   9.424 -0.0935 -0.0715  1.4566
  113MOL0     H15553   2.158  10.850   9.476  1.9377 -0.5940  2.1437
  113MOL0     H15554   2.320  10.855   9.539 -1.0615  0.0246  2.3416
  113MOL0     H15555   2.277  10.963   9.398  1.2523  1.4458 -1.4835
  113MOL0     H15556   2.516  10.941  10.093 -0.5692  0.7881 -1.3238
  113MOL0     H15557   2.581  10.781  10.278 -0.7139 -1.7299  0.2196
  113MOL0     H15558   2.337  10.410  10.285  1.0431 -4.5841 -2.8388
  113MOL0     H15559   2.505  10.357  10.263  0.5867 -0.5893  0.3485
  113MOL0     H15560   2.394  10.269  10.474 -3.4129  1.5769  0.2011
  113MOL0     H15561   2.547  10.357  10.502 -0.1126 -3.0841 -0.4068
  113MOL0     H15562   2.291  10.502  10.479 -0.8231 -0.9653 -0.1801
  113MOL0     H15563   2.412  10.548  10.584 -0.4436  0.8901 -1.5146
  113MOL0     H15564   2.391  10.357  10.739  1.8107  0.1065 -2.3690
  113MOL0     H15565   2.247  10.303  10.641  0.3412  0.2320 -0.4094
  113MOL0     H15566   2.275  10.572  10.791  1.2530  0.7073 -2.9768
  113MOL0     H15567   2.140  10.530  10.691  1.0055  1.0912 -0.3301
  113MOL0     H15568   2.207  10.381  10.961  0.1067 -2.4591 -1.0642
  113MOL0     H15569   2.091  10.329  10.836 -2.5909  2.2165 -1.7315
  113MOL0     H15570   1.971  10.541  10.875  0.0864  1.5257  1.0230
  113MOL0     H15571   2.088  10.606  10.988 -1.1747 -0.4437  1.4839
  113MOL0     H15572   1.929  10.356  11.038  0.8690 -2.2134  2.2153
  113MOL0     H15573   1.914  10.520  11.110 -0.0903 -0.5632  0.6678
  113MOL0     H15574   2.277  10.521  10.120 -0.6442  0.0383 -0.9757
  113MOL0     H15575   2.207  10.677   9.962 -1.1134 -0.6844  0.6276
  113MOL0     H15576   2.212  11.134   9.911  1.4150  0.8933 -0.7251
  113MOL0     H15577   2.113  11.331   9.805 -1.8927 -0.3785 -0.4497
  113MOL0     H15578   2.481  11.433   8.809 -2.0031 -0.8465 -1.1956
  113MOL0     H15579   2.721  11.411   8.851  1.7720 -1.2782 -1.5908
  113MOL0     H15580   3.106  10.940   8.934  0.7456 -0.1869 -1.8737
  113MOL0     H15581   3.362  10.959   8.922  2.0107  2.8012 -2.6871
  113MOL0     H15582   3.613  11.023   9.000  0.5419  2.8189  0.7578
  113MOL0     H15583   3.568  11.047   8.822  0.2494  1.1039 -1.0981
  113MOL0     H15584   3.723  11.244   8.983 -1.8602 -1.5527  2.5106
  113MOL0     H15585   3.702  11.223   8.804 -2.1110  2.1321  1.9842
  113MOL0     H15586   3.872  11.040   8.975 -0.2664  1.3200  0.4284
  113MOL0     H15587   3.854  11.034   8.796  4.4573  0.5743 -0.8335
  113MOL0     H15588   4.003  11.230   8.976 -0.6258 -1.0221  0.4005
  113MOL0     H15589   3.921  11.297   8.832  2.4481  0.7580 -0.4294
  113MOL0     H15590   4.246  11.095   8.649  1.2406 -0.0415  1.9554
  113MOL0     H15591   3.327  11.365   8.935  3.9789 -2.5835  0.7647
  113MOL0     H15592   2.998  11.417   8.835 -4.0192 -1.5335  1.5720
  113MOL0     H15593   2.980  11.413   9.010  0.3515  0.4195  0.0630
  113MOL0     H15594   3.129  11.484   8.936 -0.6856 -0.7120 -4.6624
  114MOL0     O15595   2.543  10.882   0.515 -0.8561 -0.2324  0.3809
  114MOL0     C15596   2.622  10.934   0.601  0.7700 -0.7363  0.4402
  114MOL0     O15597   2.591  10.942   0.737 -0.1535 -0.4377 -0.0182
  114MOL0     C15598   2.463  10.913   0.777  0.3375 -0.2385  0.0966
  114MOL0     C15599   2.384  11.018   0.823 -0.5318 -0.3853  0.8155
  114MOL0     C15600   2.260  10.975   0.884 -0.2576 -0.3379 -0.5170
  114MOL0     C15601   2.228  10.839   0.885  0.8517 -0.5401  0.2835
  114MOL0     O15602   2.108  10.783   0.937 -0.4301 -0.2747  0.1865
  114MOL0     C15603   2.056  10.843   1.054 -0.1226 -0.3809 -0.8845
  114MOL0     C15604   1.931  10.777   1.114  0.6956 -0.0763  0.4494
  114MOL0     C15605   1.953  10.661   1.209  0.1676  0.5461  0.6036
  114MOL0     C15606   1.998  10.532   1.122  0.5190 -0.2640 -0.0088
  114MOL0     C15607   1.982  10.401   1.199  0.1791  0.5608 -0.6013
  114MOL0     C15608   1.833  10.335   1.195 -0.1523  0.1066 -0.7997
  114MOL0     C15609   1.803  10.190   1.246 -0.3143  0.1240  0.3314
  114MOL0     C15610   1.882  10.148   1.374 -0.1301 -1.1972 -0.1766
  114MOL0     N15611   1.822  10.187   1.501 -0.0323 -0.5686 -0.2103
  114MOL0     C15612   1.805  10.317   1.561 -0.0020  0.2948  0.3024
  114MOL0     C15613   1.742  10.287   1.671 -0.2967  0.0040 -0.0858
  114MOL0     C15614   1.681  10.386   1.765  0.2316 -0.1271  0.3116
  114MOL0     C15615   1.527  10.395   1.769  0.3982 -0.7285 -0.6831
  114MOL0     C15616   1.464  10.487   1.667  0.6616 -0.1793  1.1546
  114MOL0     C15617   1.316  10.505   1.677 -0.8825  0.5001  0.4148
  114MOL0     O15618   1.272  10.621   1.614 -0.0579 -0.4928 -0.1921
  114MOL0     C15619   1.297  10.747   1.664 -0.1449 -0.3598 -0.1447
  114MOL0     C15620   1.370  10.767   1.782 -0.1319 -0.1097 -0.1926
  114MOL0     C15621   1.413  10.896   1.820  0.9101  0.3920 -0.1433
  114MOL0     C15622   1.471  10.913   1.955 -0.0888 -0.3339 -0.8244
  114MOL0     C15623   1.404  10.998   1.728 -0.6997 -0.2945  0.6012
  114MOL0     C15624   1.446  11.132   1.754  0.7913 -0.5047  0.2993
  114MOL0     O15625   1.362  11.222   1.699  0.5158 -0.2512  0.0400
  114MOL0     C15626   1.394  11.353   1.686  0.6069  0.0462  0.8955
  114MOL0     C15627   1.469  11.398   1.574 -0.5102  0.7289  0.3874
  114MOL0     C15628   1.518  11.536   1.564  0.4994 -0.1807 -1.8417
  114MOL0     C15629   1.472  11.628   1.658 -0.5399  0.3871  0.7203
  114MOL0     O15630   1.509  11.757   1.637  0.0884  0.2650  0.3093
  114MOL0     C15631   1.443  11.825   1.526  0.1709  0.5717 -0.0655
  114MOL0     C15632   1.296  11.789   1.491  0.8756 -0.2386  0.2433
  114MOL0     C15633   1.186  11.848   1.588 -0.0913  0.0770 -0.5953
  114MOL0     C15634   1.136  11.978   1.540  0.2706  0.2875 -0.3295
  114MOL0     C15635   1.097  12.075   1.649 -0.2938  0.4706  0.1341
  114MOL0     C15636   1.040  12.214   1.599  0.2928  0.7468  0.2395
  114MOL0     C15637   0.943  12.289   1.684  0.1896  0.1721 -0.3015
  114MOL0     C15638   1.015  12.314   1.811  0.7643  0.0097  0.1963
  114MOL0    Cl15639   0.929  12.415   1.926 -0.0309 -0.1493 -0.1987
  114MOL0     C15640   1.394  11.587   1.765  0.0390 -1.3447 -0.7388
  114MOL0     C15641   1.359  11.446   1.780 -0.4694 -0.5378  0.2895
  114MOL0     O15642   1.555  11.166   1.799 -0.2392  0.3428  0.7600
  114MOL0     C15643   1.346  10.975   1.604 -0.3135  0.3224  0.0038
  114MOL0     C15644   1.284  10.856   1.575 -0.6326  0.1791  0.7591
  114MOL0     N15645   1.741  10.153   1.689  0.1660  0.1151  0.2841
  114MOL0     N15646   1.786  10.099   1.582  0.2876  0.1735  0.2317
  114MOL0     C15647   2.298  10.740   0.816 -0.4967 -0.7175 -0.4203
  114MOL0     C15648   2.421  10.777   0.766 -0.3986  0.4013  0.4140
  114MOL0     C15649   2.770  10.947   0.558 -0.7269 -0.1011 -0.1443
  114MOL0     C15650   2.864  10.945   0.660 -0.6903  0.5262 -0.3596
  114MOL0     C15651   3.004  10.978   0.631  0.3087 -0.6828 -0.4484
  114MOL0     C15652   3.043  11.007   0.505  0.0708 -0.1351  0.0843
  114MOL0     O15653   3.179  11.022   0.498 -0.3817  0.9950 -0.0365
  114MOL0     C15654   3.234  11.051   0.372 -0.2952  0.6952 -0.4607
  114MOL0     C15655   3.262  10.925   0.289  0.2371 -0.0625 -0.4668
  114MOL0     C15656   3.362  10.834   0.368 -0.8075 -0.4605  1.1612
  114MOL0     C15657   3.381  10.696   0.294 -0.1404  0.2699 -0.0409
  114MOL0     C15658   3.492  10.715   0.200  0.2090 -0.1177  0.8717
  114MOL0     C15659   3.579  10.721   0.112  0.0595  0.6376  0.4659
  114MOL0     C15660   2.945  11.008   0.406  0.6175 -0.5468  1.2070
  114MOL0     C15661   2.811  10.979   0.430 -0.2839 -0.1163  0.4068
  114MOL0     C15662   2.713  11.014   0.321  0.5707  0.1610  0.4973
  114MOL0     H15663   2.424  11.119   0.815 -1.8512  0.0449 -4.0950
  114MOL0     H15664   2.206  11.048   0.943  3.0686  2.3255 -0.4428
  114MOL0     H15665   2.032  10.948   1.038  0.5821 -0.3628 -1.9142
  114MOL0     H15666   2.127  10.831   1.137 -2.0404 -2.8057  0.5473
  114MOL0     H15667   1.885  10.859   1.171 -0.3923 -0.6947  0.4880
  114MOL0     H15668   1.854  10.764   1.038  0.4052  3.3916 -0.0277
  114MOL0     H15669   2.027  10.691   1.284 -0.2649  3.7942 -0.1598
  114MOL0     H15670   1.857  10.633   1.254  0.5204 -0.4098  0.7915
  114MOL0     H15671   1.940  10.543   1.030 -0.1527  1.8223  0.6010
  114MOL0     H15672   2.103  10.532   1.093  0.2478 -1.7700 -1.0910
  114MOL0     H15673   2.006  10.420   1.304 -0.3327  3.2513 -0.8896
  114MOL0     H15674   2.049  10.322   1.164  1.1447  1.4421 -0.7743
  114MOL0     H15675   1.770  10.397   1.259 -0.0488 -0.4290 -0.1538
  114MOL0     H15676   1.790  10.329   1.095 -0.5777  0.7060 -0.6546
  114MOL0     H15677   1.848  10.129   1.167  0.9412 -2.2933  2.7550
  114MOL0     H15678   1.700  10.156   1.256  1.2138 -4.5682  3.7637
  114MOL0     H15679   1.877  10.039   1.370  2.1255 -1.3114 -2.6053
  114MOL0     H15680   1.987  10.176   1.371 -0.0513 -1.4842 -2.7283
  114MOL0     H15681   1.835  10.415   1.527  1.2807  1.5896  4.5569
  114MOL0     H15682   1.714  10.488   1.743 -0.6764 -0.5589 -3.6718
  114MOL0     H15683   1.715  10.362   1.867  1.9262 -0.1751 -0.2314
  114MOL0     H15684   1.477  10.298   1.758  0.4506 -0.4631 -4.5038
  114MOL0     H15685   1.513  10.443   1.866 -2.6704 -1.1735 -0.8217
  114MOL0     H15686   1.522  10.579   1.681 -0.7228  0.5250  2.6266
  114MOL0     H15687   1.475  10.440   1.569 -1.2306 -3.4688  2.3743
  114MOL0     H15688   1.263  10.415   1.646  0.1205 -0.2826  0.9023
  114MOL0     H15689   1.297  10.514   1.785  4.1015  1.1060  1.4980
  114MOL0     H15690   1.397  10.685   1.848  0.6320  2.1120  2.4471
  114MOL0     H15691   1.484  10.826   2.019  2.1351  2.1257  2.4142
  114MOL0     H15692   1.414  10.988   2.010  1.5440  1.0323 -0.9134
  114MOL0     H15693   1.575  10.945   1.945 -0.8950  1.9346 -2.9620
  114MOL0     H15694   1.496  11.332   1.493 -1.3715  0.5350  0.2515
  114MOL0     H15695   1.588  11.562   1.485  2.5572 -1.4121 -0.5436
  114MOL0     H15696   1.433  11.930   1.554 -1.7271 -0.0335  1.8834
  114MOL0     H15697   1.510  11.821   1.440  0.3037 -1.0334  0.0788
  114MOL0     H15698   1.268  11.824   1.391 -2.1483 -0.6152  0.8710
  114MOL0     H15699   1.291  11.680   1.479  3.6797 -0.2980 -1.5736
  114MOL0     H15700   1.227  11.860   1.688  0.7665 -0.5945 -0.8483
  114MOL0     H15701   1.099  11.782   1.594  0.9370 -1.3738 -0.7927
  114MOL0     H15702   1.053  11.961   1.471  0.2058  2.0736 -0.7480
  114MOL0     H15703   1.222  12.021   1.488 -1.4300  3.0172 -1.1584
  114MOL0     H15704   1.024  12.023   1.712 -1.3096  1.8370  0.1376
  114MOL0     H15705   1.188  12.094   1.705 -0.1100  2.3031 -0.7129
  114MOL0     H15706   0.998  12.208   1.498  1.0934  2.7857 -0.2661
  114MOL0     H15707   1.129  12.277   1.590 -0.5912  1.9810 -0.1801
  114MOL0     H15708   0.854  12.228   1.704 -0.6199 -0.0891 -3.9836
  114MOL0     H15709   0.906  12.385   1.645 -2.8047  0.9856  3.8229
  114MOL0     H15710   1.106  12.366   1.780 -0.0875  0.5691 -1.5001
  114MOL0     H15711   1.052  12.231   1.872 -1.0943 -0.6878  0.4579
  114MOL0     H15712   1.348  11.656   1.835  1.9003  0.5273 -1.2856
  114MOL0     H15713   1.293  11.425   1.862  1.2576  1.6215  2.4028
  114MOL0     H15714   1.336  11.057   1.533  1.1614  1.2276  0.7916
  114MOL0     H15715   1.241  10.837   1.477  0.6974 -2.9856  0.6634
  114MOL0     H15716   2.264  10.640   0.794  0.4277 -0.6652 -2.2733
  114MOL0     H15717   2.482  10.705   0.713  1.2041  2.5319 -0.7992
  114MOL0     H15718   2.820  10.935   0.759 -0.1186  2.4595  0.1290
  114MOL0     H15719   3.069  10.980   0.718 -0.9257 -3.6397  0.6789
  114MOL0     H15720   3.167  11.120   0.319  0.4402  1.2512 -0.6841
  114MOL0     H15721   3.327  11.108   0.381  0.2476 -0.3603  1.0386
  114MOL0     H15722   3.312  10.961   0.199  1.0419  0.8090  0.3114
  114MOL0     H15723   3.167  10.874   0.272 -0.3735  1.4480 -1.7569
  114MOL0     H15724   3.450  10.898   0.385 -1.6202  0.5361  1.7622
  114MOL0     H15725   3.308  10.815   0.461 -1.6137  0.9657  1.0199
  114MOL0     H15726   3.299  10.659   0.232  1.2517 -0.7206 -1.3569
  114MOL0     H15727   3.385  10.608   0.359 -0.5849  2.5840  3.3999
  114MOL0     H15728   3.661  10.696   0.048  0.2126 -0.5293  1.0867
  114MOL0     H15729   2.964  11.048   0.307 -2.8894 -1.4462  0.0125
  114MOL0     H15730   2.641  10.933   0.303 -0.5137  1.4285 -1.2491
  114MOL0     H15731   2.654  11.097   0.359  1.0419  0.5662  0.3486
  114MOL0     H15732   2.762  11.031   0.224 -1.1281 -0.6756 -0.5592
  115MOL0     O15733   2.449   7.259   8.276  0.0781  1.0334 -0.5917
  115MOL0     C15734   2.384   7.328   8.191  0.0298 -0.3321  0.1894
  115MOL0     O15735   2.346   7.464   8.199 -0.6303  1.0396 -0.1643
  115MOL0     C15736   2.374   7.538   8.310  0.6444  0.3170  0.2487
  115MOL0     C15737   2.318   7.511   8.437 -0.6897  0.4741  0.3765
  115MOL0     C15738   2.358   7.594   8.536  0.1947  0.0121  0.0603
  115MOL0     C15739   2.451   7.694   8.537  0.9062 -0.2426  0.4488
  115MOL0     O15740   2.510   7.761   8.637 -0.2062  1.1019 -0.1555
  115MOL0     C15741   2.514   7.687   8.760 -0.5676  0.5696  0.1128
  115MOL0     C15742   2.643   7.725   8.837 -0.1876 -0.0314  0.9294
  115MOL0     C15743   2.645   7.873   8.879 -0.5347  0.8327 -0.8157
  115MOL0     C15744   2.781   7.941   8.883 -1.2113  0.0796 -0.8228
  115MOL0     C15745   2.858   7.956   8.745  0.6431  0.2791  0.0882
  115MOL0     C15746   2.802   8.069   8.655 -0.1460  0.2974  0.4597
  115MOL0     C15747   2.671   8.047   8.572  1.1746 -0.0316  0.4783
  115MOL0     C15748   2.683   8.078   8.426 -0.1895 -0.4825 -0.0014
  115MOL0     N15749   2.701   8.210   8.390  0.2397  0.7100  0.0169
  115MOL0     C15750   2.626   8.323   8.432 -0.0802 -0.5126 -0.1842
  115MOL0     C15751   2.677   8.434   8.368  0.5920 -0.5022  0.6850
  115MOL0     C15752   2.645   8.574   8.373  0.5898  0.1692  0.3578
  115MOL0     C15753   2.502   8.576   8.300 -0.7187 -0.3240 -0.7734
  115MOL0     C15754   2.439   8.714   8.310  0.5328 -0.5586  0.2825
  115MOL0     C15755   2.498   8.810   8.203  0.2550 -0.0517  0.8884
  115MOL0     O15756   2.459   8.952   8.228 -0.3480  0.5111 -0.2876
  115MOL0     C15757   2.543   9.015   8.318 -0.3230  0.2670 -0.5408
  115MOL0     C15758   2.568   9.148   8.305  0.0425 -1.4282  0.0304
  115MOL0     C15759   2.654   9.223   8.384 -0.3770  0.1084 -0.0821
  115MOL0     C15760   2.665   9.367   8.345 -0.1348 -0.8156 -0.6610
  115MOL0     C15761   2.742   9.168   8.476 -0.2114 -1.0250  0.0112
  115MOL0     C15762   2.857   9.233   8.547 -0.5193  0.5520  0.0342
  115MOL0     O15763   2.982   9.163   8.559  0.7483 -0.0098 -0.8116
  115MOL0     C15764   3.090   9.249   8.590 -0.9516  0.7850 -0.1270
  115MOL0     C15765   3.150   9.316   8.481  0.3863  0.0262 -0.2415
  115MOL0     C15766   3.250   9.406   8.510 -0.1853 -0.3339 -0.0264
  115MOL0     C15767   3.302   9.426   8.637  0.4282  0.5188 -0.4050
  115MOL0     O15768   3.415   9.507   8.653 -0.8598 -0.1608  0.3024
  115MOL0     C15769   3.484   9.531   8.765 -0.6272  1.0461  0.1102
  115MOL0     C15770   3.559   9.402   8.802 -0.7888  0.2686  0.0632
  115MOL0     C15771   3.691   9.425   8.878  0.5414 -0.0940 -0.4074
  115MOL0     C15772   3.654   9.412   9.025 -0.1090  0.1418 -0.1590
  115MOL0     C15773   3.763   9.448   9.114  0.4355  0.1073  0.1436
  115MOL0     C15774   3.747   9.411   9.264 -0.0655  0.6372  0.1002
  115MOL0     C15775   3.647   9.511   9.330  0.3512  0.0120 -0.0554
  115MOL0     C15776   3.638   9.502   9.490  0.0701 -0.8505  0.5694
  115MOL0    Cl15777   3.524   9.370   9.539  0.1281  0.1264 -0.3937
  115MOL0     C15778   3.237   9.371   8.747 -0.1694 -0.0260  0.3815
  115MOL0     C15779   3.130   9.281   8.725 -0.4649  0.2396 -0.3059
  115MOL0     O15780   2.844   9.344   8.587 -0.0791  0.9912  0.0383
  115MOL0     C15781   2.737   9.027   8.481 -0.0694  0.0028  0.5234
  115MOL0     C15782   2.639   8.948   8.405  0.0811 -0.3647  0.1750
  115MOL0     N15783   2.788   8.385   8.297  0.2168 -0.0248  0.2081
  115MOL0     N15784   2.804   8.261   8.315  0.3936  0.1656 -0.0490
  115MOL0     C15785   2.492   7.725   8.405 -0.5866 -0.4114 -0.8277
  115MOL0     C15786   2.455   7.647   8.299  0.1277 -0.7286  0.0900
  115MOL0     C15787   2.333   7.273   8.061  0.6565  0.1097 -0.7043
  115MOL0     C15788   2.383   7.143   8.023 -0.5896 -1.4623 -0.4272
  115MOL0     C15789   2.347   7.076   7.904  0.9633 -0.2037  0.2486
  115MOL0     C15790   2.269   7.133   7.814  1.3058 -0.6434  0.6118
  115MOL0     O15791   2.231   7.087   7.693 -0.0314  0.9189  0.4684
  115MOL0     C15792   2.228   6.948   7.657 -1.0712  0.9620 -0.9329
  115MOL0     C15793   2.148   6.859   7.748  0.2217  0.8616 -0.8532
  115MOL0     C15794   2.016   6.921   7.804  0.1176  0.3502  0.2137
  115MOL0     C15795   1.898   6.819   7.786  0.9382  0.4523  0.2825
  115MOL0     C15796   1.851   6.817   7.646  0.9249  0.0162  0.5645
  115MOL0     C15797   1.803   6.826   7.530  0.8193  0.2640 -1.1172
  115MOL0     C15798   2.226   7.260   7.843 -0.0771 -0.0335  0.2865
  115MOL0     C15799   2.257   7.333   7.955 -0.9159  0.0885 -1.5586
  115MOL0     C15800   2.213   7.479   7.943  0.3063 -0.7008  0.7310
  115MOL0     H15801   2.250   7.429   8.455 -2.0255  1.7853  1.5693
  115MOL0     H15802   2.312   7.562   8.629  0.2449 -0.3481 -0.0343
  115MOL0     H15803   2.519   7.580   8.737 -0.3882  0.9772 -1.8871
  115MOL0     H15804   2.418   7.706   8.810 -1.7602 -1.0835 -1.3883
  115MOL0     H15805   2.640   7.661   8.926 -3.4707  1.0171  1.7209
  115MOL0     H15806   2.736   7.693   8.789 -0.6287  0.9450 -0.6612
  115MOL0     H15807   2.592   7.941   8.811 -3.0922 -0.3138 -0.0683
  115MOL0     H15808   2.592   7.874   8.974  2.8941 -1.7203  1.3365
  115MOL0     H15809   2.758   8.038   8.927  2.1672  0.6396 -0.0122
  115MOL0     H15810   2.859   7.901   8.949  2.5631  4.5934 -2.0334
  115MOL0     H15811   2.857   7.870   8.678 -1.7735  1.2446 -1.2691
  115MOL0     H15812   2.962   7.970   8.775  1.0492 -0.9083 -0.6831
  115MOL0     H15813   2.800   8.152   8.726  0.8898 -1.5915  2.8559
  115MOL0     H15814   2.879   8.089   8.580  0.0490  2.5198  1.1961
  115MOL0     H15815   2.587   8.100   8.618  1.9810  1.1215  0.6685
  115MOL0     H15816   2.635   7.943   8.567 -0.1898  0.2654  2.7617
  115MOL0     H15817   2.766   8.017   8.390 -1.4975  0.1081 -4.7005
  115MOL0     H15818   2.587   8.053   8.379  0.3473 -2.0799 -0.3247
  115MOL0     H15819   2.547   8.320   8.506  0.3003 -1.0427  0.2103
  115MOL0     H15820   2.718   8.646   8.334  1.1883  0.3520  1.7538
  115MOL0     H15821   2.643   8.612   8.475  1.8470  2.5795 -0.4212
  115MOL0     H15822   2.511   8.539   8.197  0.8547  1.5569 -1.3717
  115MOL0     H15823   2.426   8.512   8.347 -0.3801  0.5053  0.9986
  115MOL0     H15824   2.331   8.709   8.288  0.8641  1.7179 -2.5233
  115MOL0     H15825   2.462   8.755   8.408  0.3208 -0.6010  0.3502
  115MOL0     H15826   2.605   8.797   8.183  0.3501  1.0042  0.6609
  115MOL0     H15827   2.459   8.789   8.103 -2.4842  1.2609  1.6003
  115MOL0     H15828   2.499   9.190   8.232 -2.0631 -0.2273  2.5091
  115MOL0     H15829   2.763   9.414   8.354  0.4255 -1.6937 -1.8858
  115MOL0     H15830   2.606   9.428   8.414  1.0786 -0.0691 -0.2473
  115MOL0     H15831   2.627   9.383   8.244  1.5816 -1.0456 -1.3754
  115MOL0     H15832   3.115   9.300   8.379 -1.1091 -1.2894  0.4389
  115MOL0     H15833   3.288   9.455   8.421  2.1509  1.2020  1.6714
  115MOL0     H15834   3.550   9.608   8.725 -2.3963  3.5103  1.6332
  115MOL0     H15835   3.425   9.566   8.851 -0.9506 -0.7433  0.6752
  115MOL0     H15836   3.495   9.325   8.845 -3.1447  1.3369 -1.3699
  115MOL0     H15837   3.593   9.370   8.703  0.7937  0.1801  0.6070
  115MOL0     H15838   3.714   9.529   8.853 -0.7628  0.3914  0.3141
  115MOL0     H15839   3.764   9.349   8.849 -1.2774 -1.9708 -0.3426
  115MOL0     H15840   3.619   9.309   9.039 -3.0476  1.2708  1.8027
  115MOL0     H15841   3.570   9.480   9.041 -1.4428 -1.6980  1.0606
  115MOL0     H15842   3.848   9.394   9.070  0.8163  0.1270  0.8397
  115MOL0     H15843   3.789   9.554   9.105 -2.4037  0.8446 -0.3659
  115MOL0     H15844   3.842   9.421   9.316  1.0205  2.1164 -2.0263
  115MOL0     H15845   3.711   9.308   9.277 -0.4389  0.3294 -2.7439
  115MOL0     H15846   3.550   9.502   9.280  0.0103 -0.1090  0.6178
  115MOL0     H15847   3.677   9.616   9.315  0.3200  0.0758  0.3332
  115MOL0     H15848   3.585   9.594   9.517 -0.5391 -1.0595  0.1052
  115MOL0     H15849   3.736   9.501   9.539  0.1685  1.2182  0.4742
  115MOL0     H15850   3.270   9.394   8.848 -0.7507 -2.7825  1.2926
  115MOL0     H15851   3.089   9.232   8.813  0.1347 -0.0795 -0.1984
  115MOL0     H15852   2.804   8.980   8.554 -1.4178  1.3335  2.7340
  115MOL0     H15853   2.645   8.841   8.423  0.2202 -0.4993 -0.6213
  115MOL0     H15854   2.574   7.794   8.389  0.5810 -0.7033  2.9471
  115MOL0     H15855   2.496   7.663   8.199  2.6859 -1.5642  0.9258
  115MOL0     H15856   2.448   7.093   8.095 -1.5439 -1.5916  0.3617
  115MOL0     H15857   2.393   6.982   7.873 -2.8078 -2.5136  1.0291
  115MOL0     H15858   2.172   6.948   7.563 -1.9304 -0.4118 -0.4381
  115MOL0     H15859   2.325   6.899   7.641 -1.0174  0.0064  1.7974
  115MOL0     H15860   2.210   6.839   7.836 -0.4197  1.1758 -0.3202
  115MOL0     H15861   2.130   6.760   7.704 -1.2935 -0.2505  2.0207
  115MOL0     H15862   2.026   6.931   7.913  0.0752  1.4645  0.1288
  115MOL0     H15863   1.992   7.021   7.768 -0.6858  1.2763  3.0160
  115MOL0     H15864   1.816   6.845   7.854  1.2024  1.4926  0.2150
  115MOL0     H15865   1.923   6.716   7.814 -3.3556 -1.7275 -2.6981
  115MOL0     H15866   1.763   6.853   7.434  1.9091  2.2824 -1.0746
  115MOL0     H15867   2.181   7.305   7.755  5.4037 -0.9437 -3.4919
  115MOL0     H15868   2.147   7.491   7.857  0.4742 -1.9751  0.4036
  115MOL0     H15869   2.165   7.497   8.039  0.1487  0.0449  0.5154
  115MOL0     H15870   2.300   7.541   7.920  0.2493 -0.8688  0.0334
  116MOL0     O15871   1.737   4.353   6.986  0.0287 -0.2505 -0.1739
  116MOL0     C15872   1.787   4.306   7.089  0.1762  0.6420 -0.0905
  116MOL0     O15873   1.807   4.172   7.108  0.4760  0.0870  0.4945
  116MOL0     C15874   1.803   4.089   6.992  0.0902  0.0999 -0.7932
  116MOL0     C15875   1.865   4.126   6.865  0.0666 -0.5623 -0.2021
  116MOL0     C15876   1.877   4.036   6.761  0.7550 -0.1945 -0.9032
  116MOL0     C15877   1.823   3.906   6.765  0.0822  0.3598  0.4474
  116MOL0     O15878   1.828   3.825   6.658 -0.1053 -0.5772  0.0961
  116MOL0     C15879   1.705   3.771   6.609 -0.3216 -0.4643  0.3930
  116MOL0     C15880   1.738   3.691   6.485 -0.5161  0.6577 -0.5497
  116MOL0     C15881   1.803   3.552   6.522 -0.3541 -0.5451 -0.3947
  116MOL0     C15882   1.860   3.483   6.400  0.3121 -0.4127 -0.3996
  116MOL0     C15883   2.001   3.439   6.436  0.1170  0.6301 -0.0327
  116MOL0     C15884   1.995   3.327   6.545 -0.4744  0.3073  0.2189
  116MOL0     C15885   2.140   3.268   6.575  0.1079  0.3534 -0.7120
  116MOL0     C15886   2.143   3.135   6.660  0.7524 -0.7058 -0.4977
  116MOL0     N15887   2.270   3.108   6.725 -0.9468 -0.1913 -0.2615
  116MOL0     C15888   2.383   3.093   6.658  0.3696  0.7071  0.2512
  116MOL0     C15889   2.479   3.096   6.755  0.1840 -0.3828 -0.4391
  116MOL0     C15890   2.628   3.106   6.754 -0.3419 -0.4521  0.0043
  116MOL0     C15891   2.680   3.253   6.759  0.2159 -0.1824 -0.1249
  116MOL0     C15892   2.669   3.328   6.611 -1.2091  0.2108  0.2159
  116MOL0     C15893   2.679   3.474   6.607 -0.1628  0.5386 -0.5060
  116MOL0     O15894   2.817   3.515   6.618  0.2990  0.3220 -0.8064
  116MOL0     C15895   2.838   3.627   6.686 -0.6937 -0.5159 -0.2139
  116MOL0     C15896   2.924   3.727   6.639  0.7989  0.2287 -0.3412
  116MOL0     C15897   2.949   3.846   6.703  0.2436  0.6143  0.5836
  116MOL0     C15898   3.030   3.957   6.642 -0.0549  0.2147 -0.2505
  116MOL0     C15899   2.895   3.866   6.831  0.4708 -0.7666  0.7831
  116MOL0     C15900   2.924   3.992   6.901 -1.2507  0.0597 -0.7420
  116MOL0     O15901   3.047   4.000   6.963  0.6489 -0.4574  0.1250
  116MOL0     C15902   3.116   4.115   6.984  0.6040  0.2486 -0.8774
  116MOL0     C15903   3.229   4.082   7.052  0.0905  0.5520  0.0581
  116MOL0     C15904   3.323   4.177   7.087  0.0416  0.0200  0.6883
  116MOL0     C15905   3.306   4.311   7.044 -0.6537 -1.1284  0.5549
  116MOL0     O15906   3.415   4.399   7.081  0.0588  0.2733  0.1596
  116MOL0     C15907   3.381   4.526   7.123  0.2456  0.8530 -0.3892
  116MOL0     C15908   3.501   4.586   7.189 -0.3428  0.4865 -0.2677
  116MOL0     C15909   3.599   4.651   7.090 -0.1057 -0.5832  0.3619
  116MOL0     C15910   3.727   4.695   7.166 -0.5102 -0.4411 -0.7983
  116MOL0     C15911   3.804   4.818   7.098  0.3953  0.1639  0.8022
  116MOL0     C15912   3.757   4.956   7.139  0.7734  0.2211 -0.3928
  116MOL0     C15913   3.793   5.050   7.026  0.2370  0.5059  0.5936
  116MOL0     C15914   3.715   5.172   7.027  0.0287 -0.2500  0.2585
  116MOL0    Cl15915   3.748   5.284   6.893  0.0988  0.6866  0.0225
  116MOL0     C15916   3.191   4.344   6.969  0.1673 -0.4069 -0.4802
  116MOL0     C15917   3.099   4.246   6.927  0.1826 -0.1637  0.6592
  116MOL0     O15918   2.847   4.087   6.883  0.4694  0.2106 -0.0750
  116MOL0     C15919   2.832   3.759   6.895 -0.4969 -0.0740 -0.1436
  116MOL0     C15920   2.804   3.644   6.820 -0.4419  0.2743 -0.3835
  116MOL0     N15921   2.410   3.063   6.877 -0.3942  0.5342  0.2245
  116MOL0     N15922   2.276   3.071   6.857 -0.8200  0.3747 -0.3633
  116MOL0     C15923   1.774   3.864   6.890  0.8315  0.2429  0.4575
  116MOL0     C15924   1.771   3.955   7.005  0.1331 -1.0264  0.9625
  116MOL0     C15925   1.817   4.401   7.198 -0.4650  0.2948  0.0504
  116MOL0     C15926   1.834   4.536   7.161  0.4816 -1.0927 -0.8352
  116MOL0     C15927   1.879   4.642   7.248  0.0715  0.1543 -0.0896
  116MOL0     C15928   1.886   4.615   7.388 -0.1758 -0.5762  0.9474
  116MOL0     O15929   1.921   4.724   7.459  1.1862 -0.0033 -0.0670
  116MOL0     C15930   1.947   4.716   7.600  0.1022  0.9230  0.1750
  116MOL0     C15931   1.825   4.758   7.688  1.2034 -0.2578 -0.3528
  116MOL0     C15932   1.871   4.765   7.837  0.0449 -0.2236  0.5977
  116MOL0     C15933   1.953   4.654   7.899 -1.1599  0.8404 -0.6892
  116MOL0     C15934   1.900   4.517   7.896  0.0297 -0.8212 -0.2416
  116MOL0     C15935   1.860   4.405   7.899  0.9124 -0.0776 -0.1957
  116MOL0     C15936   1.863   4.476   7.433  0.1377 -0.8497 -0.1832
  116MOL0     C15937   1.833   4.373   7.339  0.3064  0.6004  0.4949
  116MOL0     C15938   1.802   4.237   7.394 -0.2118  0.0554  0.3463
  116MOL0     H15939   1.901   4.228   6.855 -0.1158 -0.6696 -2.2501
  116MOL0     H15940   1.946   4.061   6.681 -0.3279  0.2723 -1.7268
  116MOL0     H15941   1.634   3.852   6.591  2.0322  1.9694  1.4502
  116MOL0     H15942   1.660   3.705   6.683 -0.7977  0.2548  0.7540
  116MOL0     H15943   1.657   3.670   6.414 -1.2338 -0.1508  0.4670
  116MOL0     H15944   1.804   3.752   6.424 -1.4176 -1.2329 -3.6287
  116MOL0     H15945   1.876   3.579   6.599 -0.2302  1.7924 -1.2344
  116MOL0     H15946   1.732   3.479   6.561 -0.7676  0.1791  0.2366
  116MOL0     H15947   1.804   3.395   6.369 -2.2697  1.0529 -0.1336
  116MOL0     H15948   1.868   3.555   6.318 -0.2786  0.2548  0.1125
  116MOL0     H15949   2.047   3.533   6.470 -0.9625  1.2495 -0.2597
  116MOL0     H15950   2.049   3.399   6.346 -1.7776  1.0350 -1.2635
  116MOL0     H15951   1.951   3.366   6.637 -0.1767 -3.0061  1.9397
  116MOL0     H15952   1.935   3.244   6.507  2.9604 -1.5219 -1.7314
  116MOL0     H15953   2.190   3.347   6.634 -4.8279  1.9797  1.8424
  116MOL0     H15954   2.200   3.239   6.489  0.3601  1.2278 -0.8462
  116MOL0     H15955   2.070   3.134   6.741 -0.9223  0.1274 -1.9306
  116MOL0     H15956   2.112   3.048   6.600 -2.0259  1.5486 -2.6007
  116MOL0     H15957   2.401   3.087   6.551  0.2155  2.9105  0.0553
  116MOL0     H15958   2.661   3.067   6.657  1.6168  3.3943 -1.1084
  116MOL0     H15959   2.668   3.041   6.832  0.7312 -1.4272 -1.3005
  116MOL0     H15960   2.623   3.313   6.830  0.7942  0.0407  0.1550
  116MOL0     H15961   2.785   3.247   6.789 -0.5490 -3.4388  2.5882
  116MOL0     H15962   2.751   3.310   6.541 -1.4898 -0.3748  0.0344
  116MOL0     H15963   2.576   3.301   6.560 -0.9312 -0.9191  0.2763
  116MOL0     H15964   2.641   3.506   6.510  0.6665  2.1687 -0.3357
  116MOL0     H15965   2.625   3.510   6.695 -0.2482  1.3570 -0.8882
  116MOL0     H15966   2.961   3.704   6.540 -0.4382 -1.6921 -0.4120
  116MOL0     H15967   3.050   3.945   6.535 -2.1539 -1.1937 -0.5355
  116MOL0     H15968   3.125   3.962   6.696  2.6985 -1.2930 -4.4442
  116MOL0     H15969   2.981   4.054   6.650 -0.3877 -0.1142  4.1596
  116MOL0     H15970   3.257   3.983   7.087  0.2484  0.9228  1.0299
  116MOL0     H15971   3.411   4.144   7.142  0.1393 -0.7177  0.1068
  116MOL0     H15972   3.359   4.593   7.040 -0.3365  0.4316 -0.5786
  116MOL0     H15973   3.298   4.517   7.193  0.0437  2.8512 -0.3193
  116MOL0     H15974   3.461   4.663   7.256  0.5431  1.7678 -1.1497
  116MOL0     H15975   3.556   4.518   7.253  1.0368  1.2138 -0.6422
  116MOL0     H15976   3.550   4.743   7.056 -1.1597  0.3883  3.9811
  116MOL0     H15977   3.638   4.596   7.005  1.2773 -1.3526  1.4461
  116MOL0     H15978   3.792   4.607   7.169 -0.6218 -0.5015  1.3978
  116MOL0     H15979   3.696   4.729   7.265 -1.2749  2.6405 -1.9905
  116MOL0     H15980   3.910   4.814   7.127  1.3099  0.4372 -2.1654
  116MOL0     H15981   3.797   4.786   6.993  1.0098  3.1540 -0.2285
  116MOL0     H15982   3.805   4.978   7.234  2.3889  0.4502 -1.2226
  116MOL0     H15983   3.649   4.958   7.152  0.1151 -0.1641 -4.4145
  116MOL0     H15984   3.781   4.994   6.933  1.6645  1.0388  0.0592
  116MOL0     H15985   3.898   5.078   7.038  0.5337  0.8614 -2.3049
  116MOL0     H15986   3.751   5.212   7.122  1.9706  1.3292 -1.0514
  116MOL0     H15987   3.608   5.148   7.027  0.2041 -1.1127 -0.9194
  116MOL0     H15988   3.166   4.443   6.933 -1.8229 -0.7385 -0.1726
  116MOL0     H15989   3.015   4.275   6.864 -0.2953  1.3371  1.9264
  116MOL0     H15990   2.794   3.764   6.997 -0.7618 -1.9496 -0.1224
  116MOL0     H15991   2.758   3.563   6.876 -0.3375  2.0884  2.5465
  116MOL0     H15992   1.747   3.759   6.886  3.1908 -0.5578  2.6876
  116MOL0     H15993   1.745   3.920   7.104  1.3441  0.5333  1.8651
  116MOL0     H15994   1.811   4.568   7.060 -1.8538 -0.1713 -0.0826
  116MOL0     H15995   1.914   4.740   7.216  2.1212 -0.2273  0.7900
  116MOL0     H15996   1.975   4.613   7.625  1.0446  1.5301  1.8018
  116MOL0     H15997   2.036   4.772   7.630  0.0083  0.5435  1.2194
  116MOL0     H15998   1.748   4.681   7.674 -0.1510  1.1497 -0.9386
  116MOL0     H15999   1.795   4.854   7.646 -3.3705 -2.6318 -3.3690
  116MOL0     H16000   1.924   4.860   7.844  1.1135 -0.3121 -3.3944
  116MOL0     H16001   1.779   4.766   7.895 -0.7512  0.8344 -0.6405
  116MOL0     H16002   1.964   4.685   8.004  0.8088 -0.0397 -0.5806
  116MOL0     H16003   2.058   4.652   7.870 -0.6490 -0.2748  1.0596
  116MOL0     H16004   1.823   4.304   7.906 -3.2522  1.2007 -0.8367
  116MOL0     H16005   1.875   4.465   7.541 -0.2955  0.9737  0.0770
  116MOL0     H16006   1.841   4.222   7.495 -0.9175  3.1501  1.2040
  116MOL0     H16007   1.696   4.215   7.378 -0.1024 -1.4062  1.4785
  116MOL0     H16008   1.856   4.165   7.333 -0.9970  1.7187 -2.5238
  117MOL0     O16009   9.929   0.923   8.014  0.5556  0.3136  0.9228
  117MOL0     C16010   9.907   1.043   8.027  1.1015 -0.4955 -0.1734
  117MOL0     O16011   9.897   1.130   7.929  0.1501 -1.1992 -0.1232
  117MOL0     C16012   9.936   1.094   7.804  0.3095 -0.1065  0.1515
  117MOL0     C16013   9.843   1.078   7.708 -0.3207 -0.1579 -0.3744
  117MOL0     C16014   9.877   1.033   7.581 -0.6302  0.3813 -1.0549
  117MOL0     C16015  10.014   1.012   7.554 -0.5715  0.0743  0.9013
  117MOL0     O16016  10.028   0.977   7.419  0.2065 -0.6663 -0.7101
  117MOL0     C16017  10.158   0.947   7.367  0.7431 -0.1693  0.5115
  117MOL0     C16018  10.150   0.908   7.217  0.2651 -1.2670 -0.2150
  117MOL0     C16019  10.048   0.800   7.185  0.7474  0.3655 -0.0301
  117MOL0     C16020  10.067   0.731   7.051 -0.5400  0.1306  1.1476
  117MOL0     C16021   9.969   0.614   7.024  0.4004  0.6709  0.1911
  117MOL0     C16022   9.962   0.579   6.872 -0.1557  0.7939 -0.5965
  117MOL0     C16023   9.871   0.467   6.841  0.5150  0.4462 -0.1730
  117MOL0     C16024   9.748   0.449   6.926  0.7498 -0.3478  0.3993
  117MOL0     N16025   9.640   0.379   6.855  0.9840  0.0997 -0.2051
  117MOL0     C16026   9.586   0.262   6.882  0.5769  0.4129 -0.6841
  117MOL0     C16027   9.484   0.249   6.795 -0.2037  0.8735  0.3839
  117MOL0     C16028   9.408   0.123   6.792  0.8916  0.3530 -0.3521
  117MOL0     C16029   9.275   0.142   6.853  0.2110  1.0330  0.2182
  117MOL0     C16030   9.219   0.014   6.902 -0.3510 -0.2015 -0.5595
  117MOL0     C16031   9.316  -0.050   7.006  0.6813  0.2653 -0.3224
  117MOL0     O16032   9.381  -0.167   6.944  0.1385 -0.4960  0.1839
  117MOL0     C16033   9.326  -0.293   6.969 -0.2264 -0.3059  0.8381
  117MOL0     C16034   9.419  -0.394   6.941  0.2095 -0.1821 -1.1065
  117MOL0     C16035   9.395  -0.525   6.971  0.6246  1.8622  0.2534
  117MOL0     C16036   9.502  -0.632   6.919 -0.2932 -0.5049 -0.5687
  117MOL0     C16037   9.268  -0.567   7.029  0.5759 -0.1016  0.7210
  117MOL0     C16038   9.221  -0.708   7.060 -0.6092  0.1942  0.0464
  117MOL0     O16039   9.096  -0.728   7.113  0.5855  0.7667 -0.1142
  117MOL0     C16040   9.062  -0.853   7.165 -0.2093 -0.3827  0.0677
  117MOL0     C16041   9.092  -0.870   7.303 -0.3803  0.4554 -0.2320
  117MOL0     C16042   9.069  -0.995   7.362  0.6730  0.3487 -0.0412
  117MOL0     C16043   9.005  -1.095   7.293  1.3507 -0.9247  0.0910
  117MOL0     O16044   8.993  -1.205   7.364  0.9296 -0.2300 -0.2227
  117MOL0     C16045   8.926  -1.321   7.308  0.9494 -0.4598  0.2935
  117MOL0     C16046   9.004  -1.447   7.339 -0.9275 -0.0406  0.1885
  117MOL0     C16047   9.163  -1.430   7.365  1.0001 -0.2615 -0.0525
  117MOL0     C16048   9.218  -1.570   7.387 -0.0785  0.9620  0.7817
  117MOL0     C16049   9.333  -1.578   7.482  0.0526  0.0074  0.9581
  117MOL0     C16050   9.394  -1.718   7.493  0.8011  0.1993 -0.5141
  117MOL0     C16051   9.512  -1.743   7.597  0.2094  0.6793  0.0380
  117MOL0     C16052   9.504  -1.679   7.743  0.2686  0.5121 -0.1963
  117MOL0    Cl16053   9.561  -1.520   7.769  0.0244  0.2973 -0.2021
  117MOL0     C16054   8.968  -1.072   7.157 -0.3421 -0.5606  0.2696
  117MOL0     C16055   9.001  -0.954   7.094 -0.1376 -0.0598 -0.3554
  117MOL0     O16056   9.305  -0.798   7.035 -0.1589 -0.3860  0.3761
  117MOL0     C16057   9.176  -0.466   7.043 -0.1494  0.2659 -0.4744
  117MOL0     C16058   9.202  -0.330   7.027 -0.7093  0.9121 -0.9004
  117MOL0     N16059   9.489   0.354   6.707  0.4247  0.0357 -1.4306
  117MOL0     N16060   9.584   0.425   6.740 -0.8772  0.2908 -0.2926
  117MOL0     C16061  10.105   1.032   7.656 -0.4905  0.6905 -0.8152
  117MOL0     C16062  10.068   1.076   7.781  0.5680  0.0098  0.0622
  117MOL0     C16063   9.856   1.085   8.165  0.5107  0.4662  0.0557
  117MOL0     C16064   9.784   1.205   8.168  0.0793 -0.0617 -0.5911
  117MOL0     C16065   9.732   1.259   8.286  0.8234 -0.0336 -0.4798
  117MOL0     C16066   9.765   1.202   8.412  0.2938  0.5582  0.6269
  117MOL0     O16067   9.711   1.266   8.519 -0.4787 -0.1419  0.2586
  117MOL0     C16068   9.730   1.227   8.650 -0.3131 -0.1627 -0.3390
  117MOL0     C16069   9.858   1.296   8.694 -0.2345 -0.2364  0.8061
  117MOL0     C16070   9.853   1.452   8.684 -0.5646 -0.1961 -0.1175
  117MOL0     C16071   9.982   1.513   8.755  0.3689  0.6462 -1.1160
  117MOL0     C16072  10.103   1.458   8.700  0.4030  0.4601 -0.8043
  117MOL0     C16073  10.202   1.418   8.650 -0.5323 -0.0626 -0.6851
  117MOL0     C16074   9.842   1.090   8.408  0.6607  0.6505 -0.4251
  117MOL0     C16075   9.883   1.023   8.291 -1.0848 -0.2660 -0.3207
  117MOL0     C16076   9.944   0.880   8.303 -0.6598 -0.4713 -0.1461
  117MOL0     H16077   9.739   1.095   7.733 -0.5200 -0.6160 -0.8768
  117MOL0     H16078   9.805   1.009   7.503 -1.1136  0.1288 -0.5419
  117MOL0     H16079  10.199   0.859   7.418 -0.4683 -0.8742  0.3188
  117MOL0     H16080  10.215   1.038   7.384 -1.3403  1.2955  0.0642
  117MOL0     H16081  10.125   0.997   7.159  1.8288 -1.1457 -0.7484
  117MOL0     H16082  10.250   0.874   7.190  1.2773 -1.3177  3.1000
  117MOL0     H16083  10.041   0.721   7.260 -3.1066 -0.9938 -1.5782
  117MOL0     H16084   9.948   0.843   7.182  1.2456  1.8010  2.0335
  117MOL0     H16085  10.052   0.807   6.973 -2.0880 -2.2565 -1.0417
  117MOL0     H16086  10.169   0.694   7.040  0.1254  1.2255  3.1261
  117MOL0     H16087   9.866   0.641   7.049 -1.2122 -1.4298 -3.4690
  117MOL0     H16088   9.989   0.522   7.079 -2.4191  1.1348  2.1806
  117MOL0     H16089   9.936   0.666   6.811  0.5804  0.6705 -1.0975
  117MOL0     H16090  10.059   0.552   6.829  0.3419 -3.2933  2.5033
  117MOL0     H16091   9.934   0.378   6.849  0.4105 -0.0516 -3.5551
  117MOL0     H16092   9.838   0.480   6.738  1.4551  0.8080 -0.4352
  117MOL0     H16093   9.787   0.381   7.003  0.7090 -2.6243 -1.4764
  117MOL0     H16094   9.708   0.531   6.985 -0.7033  0.2188 -1.2669
  117MOL0     H16095   9.604   0.195   6.965  1.3278  1.9657  0.4402
  117MOL0     H16096   9.463   0.034   6.824  1.8954  0.6428 -1.2046
  117MOL0     H16097   9.389   0.099   6.686 -2.1316 -2.8677  0.7206
  117MOL0     H16098   9.292   0.207   6.940  1.3152  0.5153  0.3994
  117MOL0     H16099   9.202   0.182   6.782 -2.3098  0.5402  2.3893
  117MOL0     H16100   9.119   0.031   6.944  1.3665  0.5289  3.8156
  117MOL0     H16101   9.200  -0.054   6.819 -1.2958 -0.3858 -0.2053
  117MOL0     H16102   9.402   0.007   7.043  1.8219 -1.5057 -0.1598
  117MOL0     H16103   9.263  -0.066   7.101  0.0707 -0.6994 -0.8116
  117MOL0     H16104   9.512  -0.360   6.897  1.6717  1.5373  2.8493
  117MOL0     H16105   9.540  -0.690   7.004 -0.9145 -2.3244 -1.4884
  117MOL0     H16106   9.595  -0.596   6.875  0.1687 -0.6257  0.2791
  117MOL0     H16107   9.461  -0.693   6.838  2.8030 -1.3476 -1.6241
  117MOL0     H16108   9.147  -0.789   7.348  3.1471 -2.0491  0.3996
  117MOL0     H16109   9.092  -1.004   7.468  3.2051 -0.6027 -0.6048
  117MOL0     H16110   8.822  -1.313   7.341 -0.1776  1.8162 -3.1964
  117MOL0     H16111   8.927  -1.329   7.199  1.5784 -3.3992  0.4294
  117MOL0     H16112   8.962  -1.482   7.434 -0.0157  0.4897  0.8045
  117MOL0     H16113   8.990  -1.517   7.257 -0.1936 -2.4045  1.9640
  117MOL0     H16114   9.181  -1.372   7.456 -1.2763  1.3350 -0.5653
  117MOL0     H16115   9.202  -1.371   7.282  2.0407 -0.4811  0.2648
  117MOL0     H16116   9.249  -1.613   7.291 -3.7538 -0.8363  0.2119
  117MOL0     H16117   9.139  -1.632   7.429 -0.9793 -0.5264 -2.7217
  117MOL0     H16118   9.405  -1.504   7.446 -2.7656  2.5096  0.0219
  117MOL0     H16119   9.291  -1.546   7.578 -3.8726  0.1931 -0.6262
  117MOL0     H16120   9.437  -1.746   7.396  1.1225 -0.1715 -0.2696
  117MOL0     H16121   9.304  -1.775   7.521 -1.1834  2.4503 -1.9056
  117MOL0     H16122   9.605  -1.709   7.550  1.3814 -1.8244  0.3984
  117MOL0     H16123   9.521  -1.852   7.606  0.8422  0.4818 -2.2552
  117MOL0     H16124   9.563  -1.745   7.808 -0.9557 -0.0169  0.3938
  117MOL0     H16125   9.405  -1.691   7.786 -0.2915 -0.9811 -1.7833
  117MOL0     H16126   8.922  -1.139   7.085 -2.7171  2.9618 -1.7761
  117MOL0     H16127   8.980  -0.950   6.988 -0.4484 -2.5146 -0.4296
  117MOL0     H16128   9.074  -0.489   7.072  1.4859 -2.5441  4.1458
  117MOL0     H16129   9.141  -0.247   7.059 -1.3435  0.2184 -0.2747
  117MOL0     H16130  10.212   1.010   7.650 -0.5271 -0.2942  1.4599
  117MOL0     H16131  10.151   1.081   7.851  1.4900 -1.0664 -0.9150
  117MOL0     H16132   9.754   1.260   8.080 -4.7102 -0.0859  0.7545
  117MOL0     H16133   9.662   1.341   8.293  0.4691 -0.2691 -1.1972
  117MOL0     H16134   9.653   1.253   8.723 -0.5956 -2.5648  0.2887
  117MOL0     H16135   9.746   1.119   8.652  1.2822  0.0154 -1.3240
  117MOL0     H16136   9.952   1.260   8.652  0.1441  0.7599  0.7636
  117MOL0     H16137   9.868   1.273   8.800  0.0385 -2.2107  0.3973
  117MOL0     H16138   9.845   1.489   8.581 -1.2816 -3.0854 -1.1841
  117MOL0     H16139   9.765   1.486   8.740 -0.7132 -0.8143  0.0306
  117MOL0     H16140   9.974   1.488   8.861  2.2054  2.5470 -0.4579
  117MOL0     H16141   9.984   1.622   8.757  1.9951  0.6277  0.1091
  117MOL0     H16142  10.290   1.388   8.596 -1.3707 -1.8010 -1.1233
  117MOL0     H16143   9.870   1.053   8.506  0.2407  2.5143  0.4255
  117MOL0     H16144   9.927   0.827   8.397 -0.4132 -1.2043 -0.5028
  117MOL0     H16145   9.895   0.818   8.227  0.8744 -0.2918 -1.3453
  117MOL0     H16146  10.053   0.888   8.294 -0.3827  0.1565  2.6898
  118MOL0     O16147   3.556   1.642   9.141  0.7871  0.0527 -0.3832
  118MOL0     C16148   3.442   1.691   9.113  0.5309  0.9302 -0.3275
  118MOL0     O16149   3.410   1.761   8.999 -0.2931  0.0389  0.3901
  118MOL0     C16150   3.502   1.783   8.902 -0.1672  0.0434  0.2967
  118MOL0     C16151   3.506   1.911   8.842  0.3599 -0.1919 -0.3625
  118MOL0     C16152   3.579   1.941   8.730 -0.7895 -0.2475 -0.0373
  118MOL0     C16153   3.666   1.847   8.677 -0.5453  1.1675 -0.7110
  118MOL0     O16154   3.753   1.880   8.571  0.0557 -0.8502  0.7060
  118MOL0     C16155   3.892   1.923   8.604  0.6478 -0.3594 -0.9360
  118MOL0     C16156   3.978   1.979   8.492  0.4337  0.4626 -0.2263
  118MOL0     C16157   4.037   1.885   8.388  0.6804  0.4161  0.3098
  118MOL0     C16158   3.941   1.790   8.316 -0.8333 -0.1924  0.0815
  118MOL0     C16159   4.003   1.720   8.196  1.1322 -1.3823  0.2281
  118MOL0     C16160   4.123   1.642   8.235 -0.9156  0.1688 -0.7705
  118MOL0     C16161   4.186   1.560   8.118 -0.0783  0.1812  0.5395
  118MOL0     C16162   4.110   1.430   8.090 -0.6142 -0.0487  0.3067
  118MOL0     N16163   4.193   1.356   8.006  0.1136  1.0636  0.0739
  118MOL0     C16164   4.230   1.222   8.027 -0.2888  0.4409 -0.0466
  118MOL0     C16165   4.323   1.197   7.931 -0.0520  0.8917  0.4081
  118MOL0     C16166   4.382   1.065   7.900 -0.0194 -0.6152 -0.0696
  118MOL0     C16167   4.480   1.059   7.792  0.5729 -0.0277  0.0331
  118MOL0     C16168   4.414   1.027   7.650 -0.2721 -0.4590  0.0633
  118MOL0     C16169   4.527   1.023   7.546 -0.3583  0.5933 -0.2347
  118MOL0     O16170   4.598   1.143   7.534  0.1219  0.3734 -0.2337
  118MOL0     C16171   4.716   1.151   7.463  0.5369 -0.1558  0.0851
  118MOL0     C16172   4.801   1.259   7.482 -0.6761  0.4562  1.0440
  118MOL0     C16173   4.905   1.290   7.396 -0.5061 -0.0252  0.7302
  118MOL0     C16174   4.990   1.417   7.434 -0.2022 -0.3255 -1.2122
  118MOL0     C16175   4.924   1.211   7.278  0.0199  0.2757  0.4355
  118MOL0     C16176   5.031   1.239   7.174  0.3371  0.2449 -0.4269
  118MOL0     O16177   5.036   1.157   7.067  0.3628  0.5282  0.3385
  118MOL0     C16178   5.069   1.211   6.940  0.5162 -1.2936  0.3905
  118MOL0     C16179   4.998   1.315   6.885 -0.4709  0.4414 -0.3769
  118MOL0     C16180   5.033   1.360   6.763  0.4627 -0.2355 -0.5022
  118MOL0     C16181   5.144   1.308   6.693  0.8830  0.6497 -0.1586
  118MOL0     O16182   5.180   1.331   6.562  0.1391  0.5633  0.2963
  118MOL0     C16183   5.069   1.368   6.476  0.4458  0.2721 -0.1604
  118MOL0     C16184   5.131   1.376   6.331  0.3539 -0.2015 -0.4839
  118MOL0     C16185   5.018   1.436   6.229  1.1502 -0.4574 -0.2404
  118MOL0     C16186   5.087   1.444   6.090 -0.8335  0.0841  0.6709
  118MOL0     C16187   4.996   1.528   5.993  0.6647  0.0880 -0.7617
  118MOL0     C16188   5.055   1.523   5.860 -0.2969  0.2639 -0.3760
  118MOL0     C16189   4.941   1.568   5.766 -0.5329 -0.5743  0.1778
  118MOL0     C16190   4.837   1.453   5.739  0.4877 -0.7580 -0.3418
  118MOL0    Cl16191   4.701   1.527   5.642  0.2968 -0.3776 -0.1308
  118MOL0     C16192   5.229   1.212   6.759 -0.5078  0.4764 -0.6430
  118MOL0     C16193   5.180   1.159   6.882 -0.7582 -0.9393 -0.4140
  118MOL0     O16194   5.105   1.335   7.187 -0.1787 -0.1647 -0.7016
  118MOL0     C16195   4.849   1.093   7.261  0.7512  0.6126 -0.9980
  118MOL0     C16196   4.746   1.061   7.358  0.3132  0.3969  0.1077
  118MOL0     N16197   4.332   1.308   7.846  0.0286 -0.9785  0.2597
  118MOL0     N16198   4.256   1.400   7.891  0.2391  0.8050  0.0241
  118MOL0     C16199   3.676   1.722   8.739  0.2860 -0.3765  0.5757
  118MOL0     C16200   3.592   1.690   8.854  0.1303  0.8910  0.7187
  118MOL0     C16201   3.335   1.667   9.199  0.9345  0.6723  0.3075
  118MOL0     C16202   3.203   1.687   9.151  0.5623 -0.4048  0.1182
  118MOL0     C16203   3.086   1.652   9.224  0.9066  0.3486 -0.7800
  118MOL0     C16204   3.105   1.633   9.363  0.3698 -0.2005 -0.5332
  118MOL0     O16205   2.989   1.623   9.428 -1.2971  0.4848  0.1365
  118MOL0     C16206   2.988   1.507   9.517 -0.3810  0.6558  0.5100
  118MOL0     C16207   2.923   1.559   9.648  0.0945 -0.1883 -0.6302
  118MOL0     C16208   2.895   1.456   9.763  0.7622  0.8203  0.3232
  118MOL0     C16209   2.832   1.517   9.895 -0.2696 -0.3876 -0.3775
  118MOL0     C16210   2.815   1.403   9.984  0.0842 -0.2126 -0.5058
  118MOL0     C16211   2.814   1.307  10.054  0.1309 -0.6040  0.9198
  118MOL0     C16212   3.231   1.632   9.415 -1.1937  0.6968 -0.2777
  118MOL0     C16213   3.346   1.643   9.338  1.0286  0.1644 -0.1534
  118MOL0     C16214   3.474   1.636   9.416  0.6564 -0.4153 -0.3777
  118MOL0     H16215   3.425   1.970   8.885 -0.0932  0.2711 -1.7782
  118MOL0     H16216   3.573   2.038   8.680  0.1165 -1.6479 -3.0823
  118MOL0     H16217   3.941   1.830   8.632  0.5779 -0.6587 -1.7843
  118MOL0     H16218   3.886   1.998   8.684 -2.2396  1.2278 -2.4645
  118MOL0     H16219   3.921   2.064   8.453 -0.8426  0.3813  1.3741
  118MOL0     H16220   4.069   2.015   8.542  0.8739  0.0669 -0.7385
  118MOL0     H16221   4.073   1.947   8.305 -2.2694  2.0927  0.1255
  118MOL0     H16222   4.123   1.833   8.431 -1.0605 -1.1971  2.0144
  118MOL0     H16223   3.899   1.720   8.387  0.0669 -1.4841 -0.6191
  118MOL0     H16224   3.861   1.852   8.274  0.2088  1.4022  0.3728
  118MOL0     H16225   4.026   1.786   8.111 -1.4180 -1.3556 -0.5263
  118MOL0     H16226   3.936   1.646   8.152  2.1692 -3.6531  2.2358
  118MOL0     H16227   4.209   1.705   8.262 -2.1451  1.5111  0.1359
  118MOL0     H16228   4.095   1.576   8.318 -2.0321  1.9918  0.3554
  118MOL0     H16229   4.294   1.543   8.126 -0.0091 -1.4164 -2.3973
  118MOL0     H16230   4.182   1.626   8.030 -1.0057  1.4838  1.5089
  118MOL0     H16231   4.100   1.372   8.182  1.3672  0.2243  0.7335
  118MOL0     H16232   4.012   1.441   8.042 -1.0555 -0.2900  1.1375
  118MOL0     H16233   4.199   1.158   8.110  1.2857 -4.0030 -2.5563
  118MOL0     H16234   4.303   0.991   7.880  0.2799 -0.5446 -1.6934
  118MOL0     H16235   4.434   1.044   7.993 -2.2603  0.2397  1.4682
  118MOL0     H16236   4.544   1.147   7.790  3.9657 -2.2972  0.8375
  118MOL0     H16237   4.542   0.972   7.812 -0.1302 -1.1479 -2.2472
  118MOL0     H16238   4.369   0.928   7.649  0.0775 -0.6166 -0.9571
  118MOL0     H16239   4.338   1.096   7.614  2.1352  2.0492 -0.6027
  118MOL0     H16240   4.598   0.943   7.572 -0.2921  0.1645 -1.6292
  118MOL0     H16241   4.488   0.990   7.449 -0.5220 -0.6249  0.2230
  118MOL0     H16242   4.787   1.319   7.572 -1.2733 -0.9094  1.8905
  118MOL0     H16243   4.944   1.475   7.514  3.5855  1.1445  0.0938
  118MOL0     H16244   4.993   1.476   7.342  0.2473  1.1809 -0.2609
  118MOL0     H16245   5.083   1.382   7.480 -0.0758  1.4189 -0.0228
  118MOL0     H16246   4.919   1.361   6.944 -0.1332 -0.7112  1.0122
  118MOL0     H16247   4.976   1.441   6.719  0.6006 -0.0613 -0.3600
  118MOL0     H16248   4.987   1.295   6.474 -2.1925  3.0380 -0.5962
  118MOL0     H16249   5.023   1.464   6.503 -0.1397 -0.1644  0.4298
  118MOL0     H16250   5.214   1.447   6.339 -1.4089  1.7339  1.9944
  118MOL0     H16251   5.181   1.288   6.288 -0.6675  0.8123 -4.1653
  118MOL0     H16252   4.992   1.533   6.274 -2.3890 -0.2853 -2.3640
  118MOL0     H16253   4.924   1.382   6.226 -0.1699  1.7536 -0.7308
  118MOL0     H16254   5.098   1.341   6.057 -2.1068 -0.2868  1.3534
  118MOL0     H16255   5.185   1.495   6.093  0.3772 -2.0272 -0.7243
  118MOL0     H16256   4.895   1.490   6.010  1.1089  0.2592  3.5002
  118MOL0     H16257   4.998   1.634   6.019 -0.1494  0.4295 -2.0199
  118MOL0     H16258   5.079   1.422   5.825 -1.1621 -0.2646  0.5110
  118MOL0     H16259   5.142   1.590   5.857 -1.0971  1.5355  2.2774
  118MOL0     H16260   4.987   1.584   5.667 -0.2016  0.8138  0.5356
  118MOL0     H16261   4.889   1.662   5.789  2.3397  1.5362 -1.1643
  118MOL0     H16262   4.801   1.406   5.831 -2.3454  0.2967 -0.8097
  118MOL0     H16263   4.876   1.365   5.688 -0.2308 -1.0291 -0.4394
  118MOL0     H16264   5.324   1.178   6.720 -0.7903  1.1096 -1.9552
  118MOL0     H16265   5.245   1.090   6.935 -0.6762 -1.0142 -0.6096
  118MOL0     H16266   4.854   1.037   7.169 -1.8278 -1.0436 -0.2300
  118MOL0     H16267   4.687   0.969   7.351  1.1785 -0.0461 -2.0998
  118MOL0     H16268   3.740   1.645   8.695  0.8737  0.7553 -0.6206
  118MOL0     H16269   3.587   1.586   8.886 -0.9950  0.4070 -0.8819
  118MOL0     H16270   3.175   1.719   9.052 -2.5419 -1.3952  0.5623
  118MOL0     H16271   2.987   1.654   9.181  0.6799 -2.8636 -0.6177
  118MOL0     H16272   2.935   1.419   9.479  1.5279 -0.4851  0.3907
  118MOL0     H16273   3.088   1.471   9.541 -0.4409 -1.3078 -1.7840
  118MOL0     H16274   2.830   1.611   9.624 -0.3422 -0.6577  0.0061
  118MOL0     H16275   2.996   1.624   9.697  0.7366 -2.1031  1.1085
  118MOL0     H16276   2.824   1.388   9.714  3.0393  0.9452 -3.6801
  118MOL0     H16277   2.990   1.402   9.763 -0.4735 -1.4929 -0.4766
  118MOL0     H16278   2.742   1.579   9.892 -0.3020 -0.1050  2.8749
  118MOL0     H16279   2.907   1.586   9.934  2.7153 -1.8645 -3.0509
  118MOL0     H16280   2.829   1.230  10.127  4.9778 -2.7607 -1.8652
  118MOL0     H16281   3.240   1.620   9.522  2.2546 -3.3476 -0.7487
  118MOL0     H16282   3.546   1.707   9.373 -0.0005  3.0597  3.5777
  118MOL0     H16283   3.460   1.671   9.519  1.4353  0.9412 -0.7068
  118MOL0     H16284   3.512   1.534   9.406 -0.2065 -0.6228 -1.8221
  119MOL0     O16285   8.404   9.269   5.101  0.1887  0.4129 -0.6637
  119MOL0     C16286   8.393   9.393   5.090 -0.6039 -0.6305  0.1444
  119MOL0     O16287   8.499   9.482   5.117  0.4353 -0.2352  0.1330
  119MOL0     C16288   8.589   9.428   5.208 -0.7930 -0.0435  0.5243
  119MOL0     C16289   8.710   9.379   5.149 -0.2513  0.6181 -0.0243
  119MOL0     C16290   8.801   9.331   5.250 -0.4893 -0.4006 -0.1748
  119MOL0     C16291   8.779   9.338   5.382  0.0400 -0.4694  0.4318
  119MOL0     O16292   8.887   9.313   5.456 -1.0914 -0.0586 -0.2316
  119MOL0     C16293   8.881   9.366   5.588  0.1903 -0.2213 -0.4564
  119MOL0     C16294   9.008   9.338   5.675 -0.0472  0.4288 -0.6658
  119MOL0     C16295   9.011   9.396   5.817 -0.4932  0.3516  0.6294
  119MOL0     C16296   8.878   9.414   5.874  0.3340 -0.2967  0.2383
  119MOL0     C16297   8.899   9.464   6.016  0.1933 -0.6728 -0.0881
  119MOL0     C16298   8.768   9.525   6.072 -0.5016 -0.1551 -0.7785
  119MOL0     C16299   8.717   9.445   6.189 -0.4507  0.3764 -0.0906
  119MOL0     C16300   8.593   9.515   6.239 -0.5728  0.7305  0.5495
  119MOL0     N16301   8.549   9.468   6.372 -0.3208  0.6365  0.2990
  119MOL0     C16302   8.605   9.498   6.494 -0.8323  0.3705 -0.1082
  119MOL0     C16303   8.531   9.434   6.591 -0.6916  0.3632  0.3972
  119MOL0     C16304   8.533   9.446   6.737  0.8948  0.0728 -0.6551
  119MOL0     C16305   8.555   9.305   6.799 -0.6555  0.5132 -0.5523
  119MOL0     C16306   8.682   9.224   6.744  0.4746 -1.6980  0.3038
  119MOL0     C16307   8.715   9.097   6.828  0.3518 -0.7171  1.0960
  119MOL0     O16308   8.746   9.133   6.956 -0.1416 -0.2246  0.4646
  119MOL0     C16309   8.759   9.030   7.046  0.7372 -0.0729 -0.4643
  119MOL0     C16310   8.827   8.912   7.021  0.3213  0.5753 -0.9848
  119MOL0     C16311   8.832   8.807   7.122  0.1535 -0.5658 -0.2869
  119MOL0     C16312   8.887   8.677   7.082  0.2210  0.1139  0.5834
  119MOL0     C16313   8.771   8.825   7.247  0.2044 -0.0922  1.1959
  119MOL0     C16314   8.761   8.718   7.346  1.1853  0.3455  0.8711
  119MOL0     O16315   8.876   8.662   7.397  0.3209  0.5015  0.3768
  119MOL0     C16316   8.861   8.563   7.484  0.0568  0.6789 -0.5167
  119MOL0     C16317   8.898   8.438   7.449 -1.1211 -0.0465 -0.2200
  119MOL0     C16318   8.894   8.338   7.541 -0.6373 -0.2136  0.0306
  119MOL0     C16319   8.859   8.355   7.674  0.4898  0.0115  0.3461
  119MOL0     O16320   8.859   8.254   7.762  0.2802  0.4431 -0.2908
  119MOL0     C16321   8.811   8.275   7.897 -0.3775  0.3140 -0.0724
  119MOL0     C16322   8.799   8.134   7.959  0.0238  0.1260  0.1599
  119MOL0     C16323   8.780   8.125   8.109 -0.2670 -0.8547 -0.3520
  119MOL0     C16324   8.751   7.984   8.152  0.5107 -0.4542  0.9141
  119MOL0     C16325   8.736   7.980   8.304 -0.4518 -0.0511  0.4791
  119MOL0     C16326   8.711   7.836   8.349 -0.7611 -1.0467  0.3454
  119MOL0     C16327   8.694   7.839   8.501  0.3971 -0.0564 -0.8248
  119MOL0     C16328   8.697   7.698   8.564  0.2933  0.3542  0.6387
  119MOL0    Cl16329   8.614   7.691   8.716 -0.1885 -0.6884 -0.3752
  119MOL0     C16330   8.825   8.483   7.713  0.4829  0.6605 -0.3761
  119MOL0     C16331   8.824   8.587   7.617  0.0131  0.4605 -0.3068
  119MOL0     O16332   8.644   8.698   7.396  0.6674 -0.6174 -0.6941
  119MOL0     C16333   8.713   8.960   7.270 -0.7373 -1.1047  0.0634
  119MOL0     C16334   8.709   9.055   7.164 -0.1509 -0.2359 -0.1770
  119MOL0     N16335   8.436   9.367   6.518 -0.3955 -0.0884 -0.6025
  119MOL0     N16336   8.453   9.368   6.389  0.3067 -1.2519  0.7384
  119MOL0     C16337   8.658   9.379   5.432  0.7083 -0.2558  0.1349
  119MOL0     C16338   8.565   9.431   5.344  0.7074  0.2180  0.3095
  119MOL0     C16339   8.274   9.449   5.032  0.7942 -0.7814 -0.8262
  119MOL0     C16340   8.191   9.372   4.945  0.1975 -0.8570 -0.4596
  119MOL0     C16341   8.081   9.431   4.886 -0.1174  0.4907 -1.0085
  119MOL0     C16342   8.055   9.563   4.913  0.5318  0.3322 -0.3626
  119MOL0     O16343   7.946   9.632   4.858 -0.5674 -0.3849  0.3348
  119MOL0     C16344   7.830   9.567   4.803  0.5517  0.7141 -0.3124
  119MOL0     C16345   7.741   9.509   4.917  0.1158 -0.4852 -0.8915
  119MOL0     C16346   7.668   9.375   4.891 -0.9131  0.8439 -0.3088
  119MOL0     C16347   7.519   9.389   4.831 -0.6441 -0.0008  0.1099
  119MOL0     C16348   7.530   9.422   4.682  0.1158 -0.8990  0.0405
  119MOL0     C16349   7.555   9.441   4.570 -0.1834  0.5833 -0.0476
  119MOL0     C16350   8.130   9.634   4.999 -0.2645 -1.1879  0.5980
  119MOL0     C16351   8.239   9.579   5.061 -0.0531  0.9313 -0.7107
  119MOL0     C16352   8.310   9.673   5.170  0.6079 -0.3298 -0.6793
  119MOL0     H16353   8.746   9.390   5.047  1.0311  2.2666  0.5509
  119MOL0     H16354   8.888   9.277   5.214  0.1535 -0.9737  2.0964
  119MOL0     H16355   8.797   9.322   5.643  3.0147 -1.3562  3.4844
  119MOL0     H16356   8.868   9.474   5.593  3.0406  0.2173 -0.7871
  119MOL0     H16357   9.029   9.232   5.685 -1.2617  0.3062  1.0052
  119MOL0     H16358   9.091   9.391   5.627 -0.6564  1.7055 -0.3575
  119MOL0     H16359   9.073   9.325   5.872 -0.5384 -2.3302 -2.4774
  119MOL0     H16360   9.056   9.495   5.807  1.0378 -0.4195 -0.7194
  119MOL0     H16361   8.826   9.496   5.824  1.2044  0.0716 -0.0882
  119MOL0     H16362   8.829   9.318   5.863 -3.3814  1.6026 -1.7181
  119MOL0     H16363   8.969   9.549   6.014  1.7661 -1.9387 -0.9204
  119MOL0     H16364   8.939   9.389   6.084 -4.2322 -2.9348  0.3486
  119MOL0     H16365   8.805   9.624   6.100 -0.0340  0.0922 -2.2019
  119MOL0     H16366   8.683   9.533   6.004 -2.4947 -0.3627  1.5428
  119MOL0     H16367   8.792   9.438   6.269 -0.9571 -1.3899  0.2721
  119MOL0     H16368   8.680   9.348   6.154  1.1420  0.5181 -2.3767
  119MOL0     H16369   8.616   9.620   6.257  1.6733  0.3317  0.2163
  119MOL0     H16370   8.512   9.500   6.167 -1.0642  0.9488  1.0451
  119MOL0     H16371   8.669   9.584   6.508  1.5613 -0.5243 -3.9046
  119MOL0     H16372   8.439   9.490   6.769  0.3080 -2.0165  0.6799
  119MOL0     H16373   8.609   9.511   6.781 -0.1868  0.4293  0.7511
  119MOL0     H16374   8.586   9.321   6.903  2.5130  2.4626 -1.6716
  119MOL0     H16375   8.459   9.254   6.791 -0.5115 -0.6977  3.4061
  119MOL0     H16376   8.666   9.182   6.645  0.2999  0.4836 -0.6591
  119MOL0     H16377   8.772   9.286   6.750  2.9018 -4.9483 -0.1535
  119MOL0     H16378   8.627   9.031   6.822  0.8589 -1.2776 -0.6313
  119MOL0     H16379   8.789   9.034   6.779 -0.8042 -0.1966 -1.4967
  119MOL0     H16380   8.875   8.893   6.926 -3.8798 -0.3822 -3.1689
  119MOL0     H16381   8.824   8.630   7.005  0.1020  0.9656  0.1493
  119MOL0     H16382   8.887   8.609   7.167 -1.2914  1.3676  1.6499
  119MOL0     H16383   8.990   8.677   7.045  0.0067  0.1485 -0.0334
  119MOL0     H16384   8.923   8.413   7.347  0.0098 -0.5365  0.1627
  119MOL0     H16385   8.908   8.239   7.498 -0.7129 -0.8926  1.5031
  119MOL0     H16386   8.871   8.343   7.958 -2.2089  0.5152  1.6191
  119MOL0     H16387   8.709   8.316   7.893 -1.0671 -0.6447  3.8113
  119MOL0     H16388   8.718   8.080   7.909  0.4940 -0.9315  0.5073
  119MOL0     H16389   8.893   8.080   7.942  1.8848  2.4670  2.1968
  119MOL0     H16390   8.711   8.202   8.146  0.1548 -1.1028  1.0313
  119MOL0     H16391   8.872   8.159   8.158 -0.5697 -2.3236  1.3135
  119MOL0     H16392   8.837   7.924   8.119 -1.5827 -2.9738 -0.3016
  119MOL0     H16393   8.661   7.943   8.105 -1.7731  2.4783  2.3967
  119MOL0     H16394   8.823   8.016   8.360  0.4005 -2.6029  0.9100
  119MOL0     H16395   8.646   8.039   8.323 -0.1783  0.5595 -0.0628
  119MOL0     H16396   8.796   7.768   8.331 -1.1656 -1.3825 -0.3608
  119MOL0     H16397   8.627   7.790   8.297 -0.6189  2.1721 -3.1536
  119MOL0     H16398   8.599   7.883   8.533  0.2463 -1.0848  0.1912
  119MOL0     H16399   8.777   7.900   8.539  0.8627  0.6912 -2.9008
  119MOL0     H16400   8.801   7.665   8.572 -0.2362 -2.3299 -1.9361
  119MOL0     H16401   8.656   7.631   8.488 -0.5531  1.1113  0.4055
  119MOL0     H16402   8.808   8.502   7.819  1.1599  0.5794 -0.2492
  119MOL0     H16403   8.801   8.689   7.648  0.2437 -0.0073  1.4966
  119MOL0     H16404   8.686   8.985   7.372 -0.9614 -0.5534 -0.1300
  119MOL0     H16405   8.683   9.157   7.189 -1.9078 -0.6663 -0.0991
  119MOL0     H16406   8.620   9.383   5.533 -0.3676 -0.5346 -0.2484
  119MOL0     H16407   8.466   9.464   5.376  0.2993  2.2836 -2.5801
  119MOL0     H16408   8.228   9.272   4.926  1.9064  0.2899 -4.0645
  119MOL0     H16409   8.008   9.382   4.823 -0.4950  0.7196 -0.7505
  119MOL0     H16410   7.781   9.636   4.733 -1.9547  1.6436  2.1823
  119MOL0     H16411   7.856   9.491   4.728  1.3871  2.1120 -1.4848
  119MOL0     H16412   7.666   9.588   4.930 -0.1222 -0.0618 -4.0426
  119MOL0     H16413   7.799   9.494   5.009 -2.1056 -2.6813  0.2846
  119MOL0     H16414   7.728   9.321   4.818 -0.0397  0.4318  0.6908
  119MOL0     H16415   7.664   9.312   4.980  5.0625 -3.0000 -2.1646
  119MOL0     H16416   7.464   9.472   4.876 -3.3049 -0.6191 -1.7678
  119MOL0     H16417   7.469   9.292   4.837  1.5876 -1.1493  1.5427
  119MOL0     H16418   7.573   9.482   4.473 -1.6881 -0.9504 -1.0408
  119MOL0     H16419   8.099   9.737   5.013 -1.5842 -1.5991  0.8272
  119MOL0     H16420   8.386   9.727   5.112  1.2046 -1.5130 -1.0424
  119MOL0     H16421   8.237   9.746   5.204  1.4867  0.3562 -0.2208
  119MOL0     H16422   8.349   9.626   5.261 -3.3954 -1.6857  0.5063
  120MOL0     O16423   7.540   0.770   4.259 -0.8199  0.2320 -0.1149
  120MOL0     C16424   7.459   0.809   4.182  0.2424  0.6462  0.7034
  120MOL0     O16425   7.367   0.728   4.114 -0.0412 -0.2951 -0.3146
  120MOL0     C16426   7.389   0.589   4.123  0.3576 -0.9200  1.1282
  120MOL0     C16427   7.265   0.513   4.109 -0.7341  0.5425  0.4001
  120MOL0     C16428   7.271   0.378   4.122 -0.2546 -0.0170 -0.5330
  120MOL0     C16429   7.397   0.311   4.139  0.8824 -0.0526  0.5111
  120MOL0     O16430   7.416   0.171   4.141  0.1566  0.0285  0.1692
  120MOL0     C16431   7.303   0.082   4.122 -0.0601  0.1604 -0.6285
  120MOL0     C16432   7.346  -0.057   4.145  0.3674  0.5012  0.0424
  120MOL0     C16433   7.417  -0.101   4.019 -0.3889  0.6028  0.0688
  120MOL0     C16434   7.510  -0.223   4.046 -0.9348 -0.8573  0.0818
  120MOL0     C16435   7.598  -0.268   3.936 -1.0593 -0.2582  0.3565
  120MOL0     C16436   7.515  -0.309   3.808  0.1114  0.0329 -0.9740
  120MOL0     C16437   7.596  -0.389   3.702  0.5237 -0.5372  1.4266
  120MOL0     C16438   7.502  -0.433   3.591  0.6572 -0.7348  0.5612
  120MOL0     N16439   7.563  -0.538   3.500 -0.3090 -0.1987  0.3152
  120MOL0     C16440   7.498  -0.652   3.452  0.7841  0.4216 -0.1511
  120MOL0     C16441   7.584  -0.712   3.369 -0.9259  0.2428 -0.2056
  120MOL0     C16442   7.563  -0.826   3.270  0.2098  0.1652 -0.3801
  120MOL0     C16443   7.599  -0.955   3.346 -0.5079  1.3142 -0.1907
  120MOL0     C16444   7.516  -1.079   3.321 -0.2505 -0.5023  0.3956
  120MOL0     C16445   7.368  -1.066   3.361 -0.7975 -0.6978  0.3536
  120MOL0     O16446   7.292  -1.177   3.332 -0.5307  0.3770  0.6279
  120MOL0     C16447   7.307  -1.292   3.405  0.5209 -0.9212 -0.0688
  120MOL0     C16448   7.258  -1.408   3.349 -0.2992  0.6014  0.6269
  120MOL0     C16449   7.275  -1.531   3.415 -0.4943 -0.2235 -0.3643
  120MOL0     C16450   7.226  -1.654   3.336 -0.6518  0.0212 -0.1916
  120MOL0     C16451   7.347  -1.539   3.547  0.5177  0.4674 -0.0087
  120MOL0     C16452   7.369  -1.667   3.617 -0.4127  0.7371 -0.2352
  120MOL0     O16453   7.410  -1.660   3.753 -0.2380 -0.6842  0.2814
  120MOL0     C16454   7.420  -1.774   3.830 -0.3068 -0.3235  1.1577
  120MOL0     C16455   7.534  -1.861   3.817 -0.3625  0.3477  1.3170
  120MOL0     C16456   7.538  -1.972   3.898 -0.1850  0.4708  0.6970
  120MOL0     C16457   7.432  -2.017   3.980  0.4028 -0.4535  0.2991
  120MOL0     O16458   7.443  -2.135   4.052  0.6684 -0.7781 -0.2876
  120MOL0     C16459   7.345  -2.167   4.146  0.1121  0.2541 -0.0825
  120MOL0     C16460   7.346  -2.315   4.184 -0.4509 -1.4059 -0.1103
  120MOL0     C16461   7.462  -2.372   4.252 -0.2927  0.1136 -0.5764
  120MOL0     C16462   7.443  -2.524   4.279 -0.5409  0.2799 -0.5533
  120MOL0     C16463   7.566  -2.607   4.341 -0.5920  1.0318  0.5343
  120MOL0     C16464   7.534  -2.705   4.453 -0.2665  0.2101  1.4252
  120MOL0     C16465   7.460  -2.624   4.562 -0.9918  0.3254  0.0405
  120MOL0     C16466   7.426  -2.709   4.688  0.4058 -0.6923  0.4321
  120MOL0    Cl16467   7.401  -2.616   4.841 -0.5682 -0.0944  0.6256
  120MOL0     C16468   7.322  -1.928   3.994  0.3390 -1.1904  0.6889
  120MOL0     C16469   7.313  -1.807   3.909  0.1355 -0.3134  0.0255
  120MOL0     O16470   7.314  -1.771   3.579 -0.0937 -0.5051 -0.3301
  120MOL0     C16471   7.392  -1.421   3.595 -0.2200 -0.6361  0.0590
  120MOL0     C16472   7.370  -1.299   3.531 -0.1353 -0.1297 -0.3067
  120MOL0     N16473   7.705  -0.637   3.363 -0.1701  0.2022  0.3618
  120MOL0     N16474   7.685  -0.531   3.440 -0.1112  0.4215 -0.3938
  120MOL0     C16475   7.514   0.382   4.159  0.4503  0.7166 -1.6233
  120MOL0     C16476   7.512   0.520   4.145  0.0643  0.6261  1.2287
  120MOL0     C16477   7.449   0.946   4.134 -0.4124 -0.3209 -0.4336
  120MOL0     C16478   7.333   0.986   4.061 -0.5314  0.1979  0.5395
  120MOL0     C16479   7.332   1.110   3.995  0.4778  0.1490 -0.2458
  120MOL0     C16480   7.425   1.205   4.019  0.4466  0.1559  0.7951
  120MOL0     O16481   7.427   1.327   3.960 -0.4556 -0.6110  0.0922
  120MOL0     C16482   7.315   1.417   3.979 -0.8039  0.1411 -0.2521
  120MOL0     C16483   7.352   1.574   3.961 -0.0035  0.4886  0.2474
  120MOL0     C16484   7.472   1.629   4.032 -0.2806 -0.5984  0.1087
  120MOL0     C16485   7.447   1.634   4.184 -0.1730  0.2488 -0.2481
  120MOL0     C16486   7.406   1.516   4.264  1.0287 -0.9952  1.2488
  120MOL0     C16487   7.377   1.410   4.319  0.1910 -0.8956  0.8739
  120MOL0     C16488   7.543   1.166   4.087 -0.5521  1.1908 -0.3365
  120MOL0     C16489   7.555   1.038   4.153  0.4594  1.2567  0.0568
  120MOL0     C16490   7.684   1.019   4.228  0.1274  1.2930  0.0729
  120MOL0     H16491   7.175   0.572   4.099 -0.7580  0.3674 -0.5020
  120MOL0     H16492   7.177   0.325   4.106 -0.2934 -0.2364  0.3807
  120MOL0     H16493   7.263   0.096   4.021  1.8484 -0.5605 -1.5320
  120MOL0     H16494   7.223   0.104   4.194 -0.7694  1.8830 -1.8722
  120MOL0     H16495   7.405  -0.068   4.236 -0.3796  1.4420  0.6476
  120MOL0     H16496   7.255  -0.118   4.150  0.0638  0.8215 -1.1154
  120MOL0     H16497   7.348  -0.133   3.941 -0.4562 -0.7375  0.6566
  120MOL0     H16498   7.478  -0.023   3.972  0.7757  1.5581  2.8783
  120MOL0     H16499   7.564  -0.182   4.132 -4.3641  1.9816  1.1409
  120MOL0     H16500   7.467  -0.313   4.090  3.3603 -2.4385  1.5359
  120MOL0     H16501   7.663  -0.349   3.971  0.5517  0.5528 -0.6509
  120MOL0     H16502   7.659  -0.190   3.890 -1.0717 -0.8453 -0.6917
  120MOL0     H16503   7.428  -0.366   3.844  0.8553  0.0795  1.0111
  120MOL0     H16504   7.481  -0.215   3.764 -1.2014  1.9312  3.5214
  120MOL0     H16505   7.636  -0.481   3.747  0.8345 -2.7211 -2.7506
  120MOL0     H16506   7.674  -0.333   3.649 -2.5246 -1.0286 -4.3388
  120MOL0     H16507   7.418  -0.491   3.629  0.0581 -0.5122 -0.3706
  120MOL0     H16508   7.468  -0.340   3.544 -0.0590 -1.2315  0.0771
  120MOL0     H16509   7.398  -0.694   3.461 -1.0012  4.2452 -0.0122
  120MOL0     H16510   7.623  -0.821   3.178  0.6980 -3.1358 -0.3476
  120MOL0     H16511   7.458  -0.825   3.242 -0.0111 -0.3371  0.4019
  120MOL0     H16512   7.705  -0.974   3.326 -1.0195 -1.7569 -0.4764
  120MOL0     H16513   7.584  -0.940   3.454  1.5902  0.2329  0.3029
  120MOL0     H16514   7.526  -1.094   3.214  0.6960  0.8794  0.2720
  120MOL0     H16515   7.552  -1.164   3.380 -1.1986 -2.4812 -1.7433
  120MOL0     H16516   7.351  -1.038   3.466  0.3953  1.9454 -0.0575
  120MOL0     H16517   7.324  -0.987   3.300  0.9200 -2.0327 -2.8367
  120MOL0     H16518   7.223  -1.407   3.246  2.1042  1.0129 -0.2578
  120MOL0     H16519   7.200  -1.639   3.230  0.6457  0.6068 -0.4478
  120MOL0     H16520   7.136  -1.687   3.388 -2.5572  1.0445 -2.5958
  120MOL0     H16521   7.299  -1.735   3.346 -0.1066  0.7128  1.9257
  120MOL0     H16522   7.612  -1.843   3.744 -3.3870  4.1575 -1.4539
  120MOL0     H16523   7.617  -2.044   3.882  1.0481  1.5396  1.6851
  120MOL0     H16524   7.363  -2.096   4.227 -1.7213  0.5223  0.1324
  120MOL0     H16525   7.246  -2.147   4.103 -1.0055 -1.9495  1.2723
  120MOL0     H16526   7.255  -2.334   4.242 -1.1739  2.4940  0.3719
  120MOL0     H16527   7.343  -2.370   4.089 -0.4411 -0.0015 -0.9563
  120MOL0     H16528   7.495  -2.327   4.347  1.7295 -0.4700 -0.9434
  120MOL0     H16529   7.556  -2.353   4.198 -0.9130  1.1402 -1.3251
  120MOL0     H16530   7.436  -2.554   4.175 -1.1271 -0.9718 -0.1703
  120MOL0     H16531   7.350  -2.550   4.330 -0.9007  0.5183 -1.0837
  120MOL0     H16532   7.616  -2.660   4.260 -2.0692 -0.8894  0.7998
  120MOL0     H16533   7.637  -2.538   4.387 -1.5412  1.2912  1.6790
  120MOL0     H16534   7.627  -2.752   4.487 -0.3905 -1.2488 -0.1121
  120MOL0     H16535   7.485  -2.794   4.413  0.6125  0.6125 -0.6761
  120MOL0     H16536   7.365  -2.580   4.531 -1.2438  2.8115  3.6194
  120MOL0     H16537   7.529  -2.546   4.597 -0.1218 -0.6545  0.5740
  120MOL0     H16538   7.511  -2.776   4.702 -1.0252 -2.4400  1.1084
  120MOL0     H16539   7.332  -2.762   4.669 -2.3210  2.9160  2.5822
  120MOL0     H16540   7.243  -1.955   4.064  1.9863 -0.6438  2.8751
  120MOL0     H16541   7.232  -1.735   3.911  0.6682  0.4089 -2.0333
  120MOL0     H16542   7.436  -1.416   3.694  1.3160  1.5010 -0.6585
  120MOL0     H16543   7.399  -1.213   3.591 -0.4817 -0.7266  0.7496
  120MOL0     H16544   7.602   0.323   4.183 -1.8760 -1.9557  1.2071
  120MOL0     H16545   7.609   0.566   4.161  0.6363 -0.3899  0.7778
  120MOL0     H16546   7.251   0.921   4.034 -0.2870  0.4932 -1.0638
  120MOL0     H16547   7.243   1.131   3.937  0.8687 -0.0493 -0.9225
  120MOL0     H16548   7.256   1.393   3.889  1.4447 -0.6748 -1.5882
  120MOL0     H16549   7.261   1.399   4.072  0.9978 -1.5182  0.5393
  120MOL0     H16550   7.259   1.628   3.983 -0.6752 -1.0686  1.4125
  120MOL0     H16551   7.353   1.591   3.853 -0.2884  3.0122  0.5838
  120MOL0     H16552   7.560   1.565   4.022  0.8753  0.6414  1.6727
  120MOL0     H16553   7.500   1.724   3.984 -1.2762  0.0029  0.6781
  120MOL0     H16554   7.377   1.717   4.201  1.7479  1.1168  5.7900
  120MOL0     H16555   7.540   1.662   4.233  0.0194 -0.3794 -0.2471
  120MOL0     H16556   7.345   1.324   4.375 -1.8229 -2.0882 -1.8870
  120MOL0     H16557   7.629   1.233   4.091  1.4493 -0.9665 -3.1945
  120MOL0     H16558   7.730   0.926   4.192 -1.3133  0.5965 -0.0285
  120MOL0     H16559   7.755   1.100   4.209  2.1819 -0.8610 -1.9844
  120MOL0     H16560   7.658   1.016   4.334 -1.1344 -0.0088 -0.2436
  121MOL0     O16561   5.349   7.037   5.621  0.5597 -0.0341  0.3917
  121MOL0     C16562   5.244   7.008   5.674  0.0044 -0.7864  0.0573
  121MOL0     O16563   5.126   6.967   5.613 -0.1281 -0.4980 -0.2113
  121MOL0     C16564   5.149   6.880   5.517  0.2664  0.0209  0.6760
  121MOL0     C16565   5.115   6.753   5.537 -0.2545  0.0608 -0.0286
  121MOL0     C16566   5.132   6.646   5.444  0.7321 -0.2112  0.1058
  121MOL0     C16567   5.202   6.673   5.326 -0.4640 -0.2245  0.2019
  121MOL0     O16568   5.219   6.575   5.233  0.4850  0.0030 -0.5652
  121MOL0     C16569   5.327   6.488   5.246  0.4561  1.8007  1.0376
  121MOL0     C16570   5.288   6.348   5.231 -0.4628  0.2485  0.1227
  121MOL0     C16571   5.409   6.271   5.178 -0.2960  0.9360  0.2820
  121MOL0     C16572   5.360   6.126   5.164 -0.6354 -0.0217  0.1859
  121MOL0     C16573   5.267   6.118   5.038  0.1432  0.2664 -0.6493
  121MOL0     C16574   5.245   5.975   4.982 -0.2303  0.3187 -0.7291
  121MOL0     C16575   5.357   5.890   4.924 -0.2714  0.3488  0.6535
  121MOL0     C16576   5.460   5.983   4.848  0.0694  0.4387 -0.3316
  121MOL0     N16577   5.568   5.899   4.800 -0.3023  0.5963 -1.6848
  121MOL0     C16578   5.560   5.830   4.682  0.3024 -0.5739 -0.3636
  121MOL0     C16579   5.662   5.746   4.684 -0.4402 -0.4706  0.2086
  121MOL0     C16580   5.683   5.629   4.598  0.1500  0.1819  1.0173
  121MOL0     C16581   5.555   5.538   4.585  0.2551  0.7062  0.4630
  121MOL0     C16582   5.536   5.458   4.716  0.0652  0.1398 -0.6779
  121MOL0     C16583   5.391   5.406   4.729  0.2741  0.7019 -0.2931
  121MOL0     O16584   5.300   5.502   4.692 -0.2971 -0.7342 -0.3466
  121MOL0     C16585   5.198   5.513   4.777  0.0636 -0.5912 -0.2865
  121MOL0     C16586   5.070   5.502   4.721  0.5580  0.3228 -0.6198
  121MOL0     C16587   4.956   5.540   4.787  0.0171 -0.8138 -0.4310
  121MOL0     C16588   4.810   5.544   4.727  0.3101  0.3265  0.4582
  121MOL0     C16589   4.973   5.579   4.924 -0.6160  0.5407  0.7272
  121MOL0     C16590   4.850   5.606   5.000  0.4970  0.0929  0.6124
  121MOL0     O16591   4.797   5.511   5.076  0.7343 -0.0143  0.0358
  121MOL0     C16592   4.682   5.531   5.141 -0.9933 -0.1434  0.2962
  121MOL0     C16593   4.683   5.626   5.240  0.5282 -0.4694  0.0048
  121MOL0     C16594   4.565   5.663   5.310 -0.3025 -0.1029  0.4295
  121MOL0     C16595   4.445   5.614   5.269  0.4300 -0.0518  0.4607
  121MOL0     O16596   4.328   5.644   5.337  1.0091 -0.3113 -0.1617
  121MOL0     C16597   4.239   5.737   5.272 -0.8048  0.3101  0.3231
  121MOL0     C16598   4.115   5.765   5.353  0.1512 -0.0729  0.0918
  121MOL0     C16599   4.148   5.871   5.461  0.0869 -0.2597 -0.3737
  121MOL0     C16600   4.202   5.801   5.588  0.3820  0.4377 -0.0696
  121MOL0     C16601   4.267   5.896   5.690  0.2971 -0.4405 -0.4092
  121MOL0     C16602   4.152   5.961   5.776  0.0465  0.7089 -0.6816
  121MOL0     C16603   4.204   6.018   5.909  0.1743  0.2070 -0.0684
  121MOL0     C16604   4.074   6.048   5.996 -0.1589 -1.1571  0.2748
  121MOL0    Cl16605   4.133   6.107   6.153 -0.4302  0.3752  0.2826
  121MOL0     C16606   4.443   5.507   5.169  0.6900 -0.2642  0.8317
  121MOL0     C16607   4.566   5.467   5.109  0.4385 -0.3045  0.1328
  121MOL0     O16608   4.811   5.725   4.991 -0.1202  0.6511  0.9708
  121MOL0     C16609   5.094   5.578   4.984  0.0165  0.3557  0.4693
  121MOL0     C16610   5.204   5.534   4.912 -0.3986  0.3415  0.9520
  121MOL0     N16611   5.730   5.753   4.804 -0.1182  0.7774  0.5070
  121MOL0     N16612   5.678   5.859   4.873  0.0415  0.9435 -0.1093
  121MOL0     C16613   5.249   6.804   5.304 -0.8795  0.6400  0.0840
  121MOL0     C16614   5.213   6.906   5.392  0.2266 -1.3962 -0.5041
  121MOL0     C16615   5.229   7.018   5.821 -0.4342  0.0771 -0.7633
  121MOL0     C16616   5.169   6.908   5.891  0.0284  0.1125 -1.5746
  121MOL0     C16617   5.195   6.894   6.030  0.2209  0.3581 -0.5162
  121MOL0     C16618   5.253   7.000   6.104 -0.5349 -0.2850  0.3958
  121MOL0     O16619   5.293   6.961   6.228 -0.1020 -0.5346  1.4433
  121MOL0     C16620   5.188   6.938   6.324 -0.3485 -0.1394 -0.7516
  121MOL0     C16621   5.129   7.060   6.387 -0.1627 -0.2238  0.5351
  121MOL0     C16622   5.229   7.166   6.420 -1.0232 -0.3415 -0.3448
  121MOL0     C16623   5.188   7.235   6.556 -0.3325 -0.4662  0.4557
  121MOL0     C16624   5.293   7.298   6.626  0.1527 -0.1487  0.0838
  121MOL0     C16625   5.381   7.353   6.684  0.0214 -0.0735  0.4208
  121MOL0     C16626   5.269   7.126   6.043 -0.3600 -0.5367  0.7507
  121MOL0     C16627   5.265   7.134   5.903  0.4327 -0.7869 -0.1098
  121MOL0     C16628   5.303   7.265   5.838  0.8796 -0.4366 -0.3976
  121MOL0     H16629   5.071   6.739   5.636 -1.9265 -0.8005 -0.8460
  121MOL0     H16630   5.085   6.548   5.451  0.7304 -0.5383 -3.0415
  121MOL0     H16631   5.377   6.492   5.343 -2.8186  1.4175  2.8767
  121MOL0     H16632   5.404   6.510   5.170 -0.5665 -0.5708 -0.7962
  121MOL0     H16633   5.258   6.305   5.327  0.5949 -0.7952  0.0104
  121MOL0     H16634   5.204   6.329   5.164 -0.1685 -1.5884  0.2011
  121MOL0     H16635   5.445   6.309   5.082 -0.2224  0.9178  0.3027
  121MOL0     H16636   5.492   6.286   5.247  2.5778 -2.4789 -2.0755
  121MOL0     H16637   5.454   6.073   5.146  0.3173  2.3555 -2.6600
  121MOL0     H16638   5.320   6.088   5.259 -1.4067 -0.9515 -0.4967
  121MOL0     H16639   5.298   6.183   4.955  0.7086 -0.8649 -1.3498
  121MOL0     H16640   5.172   6.159   5.072  0.4771  0.6613 -0.1806
  121MOL0     H16641   5.198   5.920   5.063 -0.6002  1.2751 -0.2804
  121MOL0     H16642   5.165   5.993   4.909  0.2323  0.1119 -1.2977
  121MOL0     H16643   5.332   5.810   4.854  2.8469  1.6980 -2.3152
  121MOL0     H16644   5.408   5.835   5.004 -0.4324  1.0807  1.2687
  121MOL0     H16645   5.413   6.034   4.764 -1.7002  3.0481  2.0342
  121MOL0     H16646   5.492   6.050   4.928 -1.4913 -0.4423  1.1120
  121MOL0     H16647   5.484   5.844   4.606  0.8766 -0.7749 -0.9844
  121MOL0     H16648   5.765   5.565   4.632  0.5224 -0.3417 -0.7799
  121MOL0     H16649   5.711   5.668   4.500 -0.6425 -1.1790  0.2292
  121MOL0     H16650   5.471   5.601   4.553  0.3534  0.4601 -0.3070
  121MOL0     H16651   5.570   5.470   4.501 -0.4408  0.4765  0.5168
  121MOL0     H16652   5.596   5.366   4.720  0.3053  0.2838 -0.9124
  121MOL0     H16653   5.557   5.534   4.792 -0.2695 -1.8704  1.5434
  121MOL0     H16654   5.383   5.314   4.671 -2.1301 -0.4038  1.5766
  121MOL0     H16655   5.378   5.384   4.836  1.7442  2.5025  0.3175
  121MOL0     H16656   5.069   5.485   4.613  1.9289  0.3652 -0.6571
  121MOL0     H16657   4.759   5.630   4.772 -0.2030 -1.4735  3.6153
  121MOL0     H16658   4.747   5.457   4.744  1.7826 -0.7686  0.5493
  121MOL0     H16659   4.815   5.546   4.618  1.7607  0.1283  0.4964
  121MOL0     H16660   4.778   5.677   5.256  1.5455 -2.8364  2.2426
  121MOL0     H16661   4.581   5.723   5.399 -0.9903  1.6539 -0.5831
  121MOL0     H16662   4.287   5.829   5.237 -0.5483  0.4017  0.8985
  121MOL0     H16663   4.200   5.686   5.184  0.9914 -0.1640 -0.2259
  121MOL0     H16664   4.049   5.807   5.277 -2.2318 -0.0306  2.0769
  121MOL0     H16665   4.072   5.674   5.396  1.6466 -0.1063  1.6730
  121MOL0     H16666   4.052   5.915   5.487  0.0024 -1.0187  0.6311
  121MOL0     H16667   4.200   5.963   5.431 -0.7717  0.6125  0.7316
  121MOL0     H16668   4.278   5.725   5.566 -0.1491  0.9266 -4.3805
  121MOL0     H16669   4.114   5.752   5.631 -2.5787  4.0554 -1.5208
  121MOL0     H16670   4.330   5.835   5.756 -0.1359 -1.1321 -0.6229
  121MOL0     H16671   4.324   5.976   5.641 -2.7388  1.1827 -1.5175
  121MOL0     H16672   4.088   5.880   5.811  0.7551 -0.2810 -1.6379
  121MOL0     H16673   4.083   6.021   5.717  1.1768 -0.4447 -3.3298
  121MOL0     H16674   4.275   6.098   5.886  1.5475 -0.8004  0.5567
  121MOL0     H16675   4.267   5.953   5.970 -1.2293 -1.2563 -0.0875
  121MOL0     H16676   4.015   5.957   6.011  0.9401 -1.8003  0.8574
  121MOL0     H16677   4.010   6.126   5.955  1.8490  1.6556  2.1172
  121MOL0     H16678   4.354   5.457   5.133  2.6923 -2.5384 -1.4065
  121MOL0     H16679   4.566   5.400   5.024 -0.1058  0.1018 -0.1940
  121MOL0     H16680   5.103   5.602   5.090  0.5107 -0.1108  0.5394
  121MOL0     H16681   5.299   5.516   4.961  1.1004  3.1802 -0.6659
  121MOL0     H16682   5.326   6.809   5.227  1.2425  3.1641  2.1849
  121MOL0     H16683   5.219   7.013   5.377  0.9431 -1.1211  1.4690
  121MOL0     H16684   5.129   6.818   5.845 -4.2770  1.6056 -1.1446
  121MOL0     H16685   5.167   6.799   6.076  0.2200  0.6113  0.0199
  121MOL0     H16686   5.103   6.880   6.288 -0.9712  1.0040 -1.1656
  121MOL0     H16687   5.232   6.885   6.409  0.3471  2.7311  0.8148
  121MOL0     H16688   5.083   7.027   6.480  0.4544  2.9644  2.0963
  121MOL0     H16689   5.062   7.104   6.311 -0.3868 -0.9811  0.2885
  121MOL0     H16690   5.332   7.131   6.438 -0.8449  0.0977 -0.4891
  121MOL0     H16691   5.213   7.233   6.335 -1.7994 -0.4882 -0.3129
  121MOL0     H16692   5.142   7.163   6.624  1.1232 -3.0788 -1.1648
  121MOL0     H16693   5.118   7.318   6.537  0.0267 -0.5208 -1.3355
  121MOL0     H16694   5.441   7.413   6.749  1.1852 -0.7438 -0.0178
  121MOL0     H16695   5.296   7.214   6.101 -1.4253 -0.2371  0.8172
  121MOL0     H16696   5.323   7.339   5.916 -1.4052 -3.1181  3.0627
  121MOL0     H16697   5.383   7.247   5.765  0.5581  1.6884 -1.3266
  121MOL0     H16698   5.219   7.297   5.777  2.6310  1.5269 -1.9260
  122MOL0     O16699  11.451   6.647   4.322  0.3691 -0.3819  1.0689
  122MOL0     C16700  11.554   6.705   4.289 -0.1490  0.0306 -0.2895
  122MOL0     O16701  11.678   6.678   4.336  0.2009  0.1100 -0.2510
  122MOL0     C16702  11.679   6.573   4.416  0.9199 -0.1036 -0.2556
  122MOL0     C16703  11.723   6.450   4.370 -0.3948 -0.5387 -0.0595
  122MOL0     C16704  11.720   6.329   4.450  0.4177 -0.2901 -0.4251
  122MOL0     C16705  11.689   6.345   4.593 -0.2190 -0.6375  1.0145
  122MOL0     O16706  11.662   6.238   4.682  0.4904  0.7644 -0.0482
  122MOL0     C16707  11.693   6.102   4.643 -0.4210 -0.1040 -0.2063
  122MOL0     C16708  11.574   6.023   4.579  0.1740 -0.3804 -0.0709
  122MOL0     C16709  11.608   5.906   4.489 -0.2379  0.6537  0.0204
  122MOL0     C16710  11.480   5.829   4.442  0.2259 -0.7894  1.2596
  122MOL0     C16711  11.495   5.722   4.342 -0.1183 -0.4049 -0.5585
  122MOL0     C16712  11.556   5.780   4.221  0.2766  0.2236 -0.7103
  122MOL0     C16713  11.517   5.697   4.096 -0.1057 -0.0023  0.3507
  122MOL0     C16714  11.532   5.769   3.967  0.2375 -0.3396 -0.0691
  122MOL0     N16715  11.679   5.772   3.921  0.0570  0.3233 -0.2710
  122MOL0     C16716  11.742   5.877   3.873 -0.5045 -0.4503 -0.2765
  122MOL0     C16717  11.871   5.835   3.853  0.9910  0.4345  0.2982
  122MOL0     C16718  11.977   5.899   3.772  0.2832 -0.1215 -0.3745
  122MOL0     C16719  12.079   5.980   3.854 -0.1237  0.0041  0.3476
  122MOL0     C16720  12.175   5.880   3.911  0.2663  0.8747 -0.3130
  122MOL0     C16721  12.257   5.930   4.029 -0.4989  0.4133 -0.3992
  122MOL0     O16722  12.393   5.904   4.019 -0.2792  0.4786 -0.3593
  122MOL0     C16723  12.474   6.012   3.985 -0.8418  0.6959 -0.6534
  122MOL0     C16724  12.606   5.995   4.035  0.0940  1.2242  0.2230
  122MOL0     C16725  12.712   6.078   3.999  0.5194 -0.0508  0.4903
  122MOL0     C16726  12.857   6.054   4.050  0.1813 -0.8736  0.5780
  122MOL0     C16727  12.674   6.192   3.915  0.1950  0.3008 -0.0456
  122MOL0     C16728  12.777   6.292   3.879 -0.2984 -0.9698 -0.3885
  122MOL0     O16729  12.901   6.247   3.847 -0.8573  0.0445  0.9636
  122MOL0     C16730  13.001   6.339   3.820  0.1258  0.3176  0.6241
  122MOL0     C16731  13.043   6.439   3.904  0.2367  0.7147  0.2963
  122MOL0     C16732  13.140   6.530   3.874  0.6243 -0.3414  0.5655
  122MOL0     C16733  13.207   6.515   3.745 -0.5720  0.2615 -1.0402
  122MOL0     O16734  13.314   6.609   3.729 -0.2516  0.1270 -0.2615
  122MOL0     C16735  13.408   6.602   3.614  0.1027  0.0995  0.3120
  122MOL0     C16736  13.394   6.724   3.527  0.6776  0.4671 -0.1151
  122MOL0     C16737  13.373   6.681   3.384  0.5495 -0.4576 -0.4630
  122MOL0     C16738  13.224   6.655   3.364  0.4865 -0.4414  0.4164
  122MOL0     C16739  13.172   6.573   3.240 -0.1290 -0.8631 -0.0248
  122MOL0     C16740  13.237   6.435   3.222  0.5301  0.5896 -0.7310
  122MOL0     C16741  13.189   6.364   3.102 -0.5606  0.1943  0.1833
  122MOL0     C16742  13.282   6.244   3.057 -0.9980 -0.0459 -0.0138
  122MOL0    Cl16743  13.327   6.152   3.199  0.2645 -0.0713 -0.2772
  122MOL0     C16744  13.167   6.415   3.658  0.0116  0.9868 -0.0051
  122MOL0     C16745  13.056   6.325   3.693 -1.3478  0.7388  0.3539
  122MOL0     O16746  12.751   6.412   3.874 -0.5837  0.0797  0.0844
  122MOL0     C16747  12.540   6.206   3.881 -0.0956 -0.4939 -0.4991
  122MOL0     C16748  12.438   6.113   3.905  0.5057  0.3633 -0.5954
  122MOL0     N16749  11.885   5.702   3.901  0.4365  0.2244  0.1486
  122MOL0     N16750  11.766   5.664   3.933  0.2974  0.1837 -0.6171
  122MOL0     C16751  11.652   6.478   4.638 -0.1921  0.1789 -0.2880
  122MOL0     C16752  11.662   6.587   4.554  0.6757  0.1143 -0.4732
  122MOL0     C16753  11.558   6.817   4.191  0.3796 -0.5467 -0.1851
  122MOL0     C16754  11.680   6.875   4.172  0.5331 -0.3273  0.2379
  122MOL0     C16755  11.696   6.991   4.097  0.3575 -0.6290 -0.3238
  122MOL0     C16756  11.597   7.051   4.020  0.0608 -0.6994  1.3792
  122MOL0     O16757  11.611   7.170   3.946  0.5885  0.2993 -0.3654
  122MOL0     C16758  11.522   7.186   3.830 -0.0682 -1.5752  0.0985
  122MOL0     C16759  11.473   7.335   3.835 -1.1195  0.3992  0.2702
  122MOL0     C16760  11.361   7.349   3.943 -0.0479  0.5670  0.5908
  122MOL0     C16761  11.320   7.504   3.958 -0.5627 -0.6703 -0.3359
  122MOL0     C16762  11.430   7.599   4.002 -0.1192  0.0816  0.0190
  122MOL0     C16763  11.525   7.672   4.018  0.2966  0.5366 -0.6795
  122MOL0     C16764  11.468   6.988   4.040  0.5921 -0.2601  0.4491
  122MOL0     C16765  11.447   6.871   4.118 -0.4816 -0.6743 -0.4843
  122MOL0     C16766  11.303   6.815   4.124  0.4318 -0.3688 -0.2173
  122MOL0     H16767  11.766   6.432   4.272  1.1652 -0.3396  0.5572
  122MOL0     H16768  11.740   6.235   4.401 -2.0063  0.6496 -3.5418
  122MOL0     H16769  11.737   6.046   4.725 -3.1377  0.4562  1.7863
  122MOL0     H16770  11.773   6.093   4.569 -0.4506  1.0660 -0.4040
  122MOL0     H16771  11.495   6.010   4.654 -0.7077  2.0620 -0.5018
  122MOL0     H16772  11.529   6.085   4.502  2.6119  2.7390  0.7950
  122MOL0     H16773  11.664   5.940   4.400 -2.7253  0.1140 -1.8567
  122MOL0     H16774  11.670   5.839   4.549  0.7201  1.2395 -0.2711
  122MOL0     H16775  11.421   5.793   4.527 -1.5574  1.6880  1.1934
  122MOL0     H16776  11.416   5.905   4.395 -0.0647 -1.3251  0.7684
  122MOL0     H16777  11.395   5.683   4.325 -0.1596  0.7883 -3.6836
  122MOL0     H16778  11.562   5.645   4.381 -1.0834 -0.4750  1.0121
  122MOL0     H16779  11.519   5.881   4.201 -1.7685 -0.4163 -0.3893
  122MOL0     H16780  11.665   5.781   4.231  0.3339  1.8691 -1.2230
  122MOL0     H16781  11.409   5.679   4.095  0.0997 -1.5864 -2.6339
  122MOL0     H16782  11.569   5.601   4.098 -2.3152 -1.2589  0.7825
  122MOL0     H16783  11.483   5.706   3.891 -2.5110  2.2191 -0.5778
  122MOL0     H16784  11.483   5.866   3.977 -1.4055 -1.3560  2.8468
  122MOL0     H16785  11.699   5.974   3.850 -2.0563 -0.1664  3.1197
  122MOL0     H16786  11.920   5.965   3.705  0.6662  4.2078  3.1103
  122MOL0     H16787  12.019   5.811   3.723  3.0627 -0.4637  2.3336
  122MOL0     H16788  12.127   6.063   3.802 -0.7720 -0.1684 -0.5544
  122MOL0     H16789  12.019   6.030   3.930  0.2059  1.7632 -0.5079
  122MOL0     H16790  12.118   5.788   3.930 -0.5091  1.4273  0.1211
  122MOL0     H16791  12.248   5.850   3.836  0.7808 -0.8632  0.8346
  122MOL0     H16792  12.239   6.036   4.050 -0.0835  0.0331  2.1556
  122MOL0     H16793  12.224   5.880   4.120  1.9439  0.9706  0.8743
  122MOL0     H16794  12.626   5.907   4.096 -0.4185 -0.3144 -1.7290
  122MOL0     H16795  12.917   6.029   3.962  1.5681  4.1495 -0.2624
  122MOL0     H16796  12.867   5.970   4.118 -1.1876 -0.8126  0.8789
  122MOL0     H16797  12.892   6.149   4.093 -3.0324  0.0473  1.4430
  122MOL0     H16798  13.003   6.431   4.005 -0.0146 -1.4694  0.0728
  122MOL0     H16799  13.183   6.589   3.954 -1.1210 -1.5954  2.5109
  122MOL0     H16800  13.503   6.586   3.666  1.1957 -0.4578 -1.7486
  122MOL0     H16801  13.394   6.515   3.550 -0.4495 -1.8225  2.8887
  122MOL0     H16802  13.315   6.792   3.561 -0.3382 -0.6632 -0.1578
  122MOL0     H16803  13.490   6.777   3.524  0.8623  0.1151 -0.4584
  122MOL0     H16804  13.438   6.595   3.366 -0.8385 -1.2014 -2.2948
  122MOL0     H16805  13.397   6.763   3.315 -0.9638 -0.1493 -0.6576
  122MOL0     H16806  13.185   6.757   3.351  0.6256 -0.4476 -0.0727
  122MOL0     H16807  13.182   6.617   3.457 -2.3774 -0.4152 -0.7616
  122MOL0     H16808  13.063   6.574   3.254 -0.3383  1.4313 -1.3439
  122MOL0     H16809  13.175   6.615   3.139 -2.6290  0.0070  0.1915
  122MOL0     H16810  13.209   6.369   3.305  0.0778  3.5708  1.6407
  122MOL0     H16811  13.347   6.434   3.223  0.5988 -0.4223  2.4697
  122MOL0     H16812  13.187   6.443   3.026 -0.3211  1.3362  1.3356
  122MOL0     H16813  13.089   6.320   3.115 -0.9286  0.6503 -0.9808
  122MOL0     H16814  13.375   6.277   3.008  1.6694 -3.2581  2.3876
  122MOL0     H16815  13.237   6.170   2.991 -0.0509 -1.3072  0.7056
  122MOL0     H16816  13.210   6.406   3.559  1.1948  2.0697  0.3871
  122MOL0     H16817  13.022   6.258   3.615 -1.0482 -1.0700  1.7251
  122MOL0     H16818  12.523   6.296   3.823  0.3723 -0.4291 -0.5452
  122MOL0     H16819  12.335   6.135   3.878  0.1905  0.1585  0.4059
  122MOL0     H16820  11.644   6.510   4.741  1.3452  2.4145 -0.7987
  122MOL0     H16821  11.645   6.685   4.598  2.6843 -0.1878  1.1278
  122MOL0     H16822  11.771   6.831   4.211  0.3789 -1.9350 -1.1033
  122MOL0     H16823  11.793   7.035   4.082  0.2457 -0.4054 -0.3989
  122MOL0     H16824  11.576   7.184   3.736 -2.6988  0.8908 -1.6285
  122MOL0     H16825  11.433   7.124   3.817 -2.7403  1.7316  1.1375
  122MOL0     H16826  11.447   7.364   3.733  0.5107 -3.1870 -1.3407
  122MOL0     H16827  11.546   7.410   3.866  1.3641 -1.0070 -1.7803
  122MOL0     H16828  11.276   7.290   3.909 -0.2402  1.0774  0.1554
  122MOL0     H16829  11.398   7.303   4.035  1.4890  1.7977  0.6244
  122MOL0     H16830  11.247   7.511   4.039  1.0876  0.8329  1.1072
  122MOL0     H16831  11.276   7.547   3.868  1.3863 -0.3133 -1.1657
  122MOL0     H16832  11.598   7.748   4.034  1.2193 -0.6498  1.1090
  122MOL0     H16833  11.382   7.019   3.982 -1.1711  0.0341  3.0468
  122MOL0     H16834  11.315   6.713   4.085 -0.4384 -0.5804  0.0459
  122MOL0     H16835  11.255   6.805   4.221  2.6842 -3.1455  0.7651
  122MOL0     H16836  11.230   6.863   4.059  0.6749  0.8342  0.3826
  123MOL0     O16837  11.338  10.845  11.256 -0.5555 -0.6899  0.4115
  123MOL0     C16838  11.270  10.776  11.327 -0.0208  0.4983 -0.2913
  123MOL0     O16839  11.280  10.781  11.460 -0.4861  0.2406  0.1229
  123MOL0     C16840  11.373  10.843  11.527  0.3442 -0.7051  0.1769
  123MOL0     C16841  11.355  10.888  11.659  0.2878 -0.3479 -1.1820
  123MOL0     C16842  11.455  10.968  11.721 -0.7884 -0.1365 -0.2242
  123MOL0     C16843  11.582  10.992  11.671 -0.7960 -0.2059  0.2653
  123MOL0     O16844  11.679  11.067  11.736  0.8554 -0.1749  0.0889
  123MOL0     C16845  11.645  11.117  11.868  0.0137  1.1789  0.1739
  123MOL0     C16846  11.753  11.204  11.931  0.4590  0.2617  0.1867
  123MOL0     C16847  11.888  11.124  11.956 -0.3099  0.5725  0.7001
  123MOL0     C16848  11.992  11.187  11.870 -0.8761  0.2846 -0.3143
  123MOL0     C16849  12.127  11.121  11.889 -0.4057  1.2019 -0.5671
  123MOL0     C16850  12.245  11.161  11.801 -0.2345 -0.7122 -0.0222
  123MOL0     C16851  12.373  11.068  11.822  0.2110  0.3840  0.8929
  123MOL0     C16852  12.488  11.104  11.721 -0.0547  0.4457 -0.1217
  123MOL0     N16853  12.584  10.994  11.729 -0.5887 -0.5148 -0.3470
  123MOL0     C16854  12.658  10.970  11.842  0.4284 -0.2593 -0.1296
  123MOL0     C16855  12.760  10.886  11.805 -0.9023  0.1108  0.1224
  123MOL0     C16856  12.887  10.861  11.885  0.0979  0.3040 -0.1854
  123MOL0     C16857  12.953  10.723  11.856  1.4051 -0.2732 -0.0888
  123MOL0     C16858  13.103  10.709  11.867 -0.9819  0.3962 -0.9443
  123MOL0     C16859  13.185  10.824  11.790  0.4911 -0.0594  0.3645
  123MOL0     O16860  13.325  10.800  11.791  0.4241  0.0848 -0.2592
  123MOL0     C16861  13.417  10.902  11.751  0.6036  0.2948 -0.1249
  123MOL0     C16862  13.549  10.889  11.798  0.2709  0.5397 -0.2185
  123MOL0     C16863  13.642  10.989  11.773 -0.8439  0.0611  0.3009
  123MOL0     C16864  13.774  10.979  11.847 -0.6266  0.5171 -0.1985
  123MOL0     C16865  13.613  11.105  11.705  0.1903 -0.1731 -0.1634
  123MOL0     C16866  13.700  11.230  11.695 -0.0606 -0.3748  0.0638
  123MOL0     O16867  13.641  11.356  11.696  0.7136 -0.1952  0.2767
  123MOL0     C16868  13.709  11.468  11.663  1.0212 -0.7916  0.1157
  123MOL0     C16869  13.848  11.497  11.696 -0.2916  0.5468 -0.9108
  123MOL0     C16870  13.909  11.610  11.642  0.0942  0.0589 -0.0664
  123MOL0     C16871  13.840  11.692  11.549 -0.7036  1.0602 -0.2005
  123MOL0     O16872  13.896  11.806  11.501 -0.6374 -0.1572 -0.1467
  123MOL0     C16873  13.953  11.882  11.609  0.1487  0.6363  0.2001
  123MOL0     C16874  13.946  12.036  11.583 -0.0481  0.6933  0.6660
  123MOL0     C16875  14.041  12.079  11.462  0.0255 -0.0282 -0.8918
  123MOL0     C16876  14.018  12.218  11.421  0.7420 -0.5750 -0.0840
  123MOL0     C16877  14.094  12.237  11.298 -0.5863 -0.0292 -0.5292
  123MOL0     C16878  14.060  12.374  11.236 -0.6920 -0.6999  0.0650
  123MOL0     C16879  13.921  12.407  11.194  0.4179 -0.7389  0.0010
  123MOL0     C16880  13.844  12.506  11.298  0.2695  0.7506 -0.6583
  123MOL0    Cl16881  13.934  12.658  11.353 -0.0048  0.1861  0.0575
  123MOL0     C16882  13.704  11.664  11.519 -0.5025  0.1211 -0.3218
  123MOL0     C16883  13.637  11.559  11.583 -0.1257 -0.1872  0.0214
  123MOL0     O16884  13.816  11.214  11.672 -0.5952  0.2592  0.4749
  123MOL0     C16885  13.483  11.125  11.657 -0.0575  0.1848  0.2846
  123MOL0     C16886  13.384  11.024  11.686 -0.4538 -0.0866 -0.5091
  123MOL0     N16887  12.742  10.865  11.671  0.2181 -0.0534 -0.1387
  123MOL0     N16888  12.637  10.922  11.631 -0.7505 -0.1286 -0.7372
  123MOL0     C16889  11.609  10.941  11.541  0.0551 -0.4175  0.8924
  123MOL0     C16890  11.504  10.879  11.471  1.3160  0.0373 -0.1042
  123MOL0     C16891  11.167  10.694  11.268  0.7208 -0.0710  0.1112
  123MOL0     C16892  11.093  10.619  11.353  0.6273 -0.1221  0.0865
  123MOL0     C16893  10.982  10.555  11.311  0.3978 -0.5140  0.3020
  123MOL0     C16894  10.958  10.530  11.172  0.6583  0.7748 -1.6754
  123MOL0     O16895  10.861  10.451  11.116 -0.2838 -0.9812  0.2370
  123MOL0     C16896  10.801  10.339  11.188 -0.0608 -0.5627 -0.3178
  123MOL0     C16897  10.913  10.226  11.201 -0.1007  0.2718  0.2927
  123MOL0     C16898  10.992  10.205  11.062  0.4702  0.4755 -0.8095
  123MOL0     C16899  10.899  10.148  10.957 -0.0218 -0.2714  0.0371
  123MOL0     C16900  10.821  10.034  10.995  0.4362  0.8092  0.6116
  123MOL0     C16901  10.741   9.952  11.014  0.1579  0.3595  0.4941
  123MOL0     C16902  11.038  10.591  11.086  0.4691  0.7559  0.1715
  123MOL0     C16903  11.138  10.679  11.130  0.3810 -0.5233 -1.1326
  123MOL0     C16904  11.202  10.758  11.018 -0.8758 -0.7776 -0.1730
  123MOL0     H16905  11.265  10.871  11.717  0.3980  0.6001 -0.7246
  123MOL0     H16906  11.439  11.003  11.822  1.7225 -2.3361  1.0561
  123MOL0     H16907  11.633  11.028  11.931  2.2924 -3.6107 -5.1791
  123MOL0     H16908  11.554  11.177  11.867 -0.2918  0.7312  0.3888
  123MOL0     H16909  11.765  11.302  11.884  2.1182 -0.2376 -0.5251
  123MOL0     H16910  11.725  11.248  12.027 -0.5646  1.2864 -0.5424
  123MOL0     H16911  11.927  11.130  12.058  2.2769 -1.5052 -0.0757
  123MOL0     H16912  11.880  11.020  11.924 -1.3295  1.1552 -1.1338
  123MOL0     H16913  11.964  11.166  11.767  1.3114 -1.2763 -0.6490
  123MOL0     H16914  11.999  11.296  11.880 -0.2739  0.2270 -0.0829
  123MOL0     H16915  12.118  11.020  11.849  3.9476  1.2248 -2.1866
  123MOL0     H16916  12.169  11.130  11.990 -1.4493  3.0007 -0.2532
  123MOL0     H16917  12.221  11.170  11.695  4.2857 -2.3361 -1.3958
  123MOL0     H16918  12.290  11.257  11.830  1.2936 -1.8994  1.7727
  123MOL0     H16919  12.357  10.961  11.803  0.0701  0.1496  2.2948
  123MOL0     H16920  12.404  11.074  11.926  0.5379  0.6661  0.7844
  123MOL0     H16921  12.460  11.094  11.616  2.6522 -1.4174 -0.7598
  123MOL0     H16922  12.541  11.193  11.758 -0.7970 -0.1640  2.6102
  123MOL0     H16923  12.653  11.013  11.941  0.7096 -1.8973  0.6382
  123MOL0     H16924  12.865  10.865  11.992 -3.8864 -0.7380 -0.7963
  123MOL0     H16925  12.947  10.951  11.866 -2.5303  2.1213 -0.5664
  123MOL0     H16926  12.916  10.643  11.920  0.4252 -0.8884 -1.3818
  123MOL0     H16927  12.933  10.692  11.753 -0.4343 -1.9987  0.7238
  123MOL0     H16928  13.137  10.704  11.971  0.9613 -1.1188 -1.6020
  123MOL0     H16929  13.127  10.611  11.825  2.0220  0.0096  1.3545
  123MOL0     H16930  13.149  10.832  11.688 -1.8881  0.9504  1.2143
  123MOL0     H16931  13.167  10.919  11.842 -0.4811 -0.0620  0.0607
  123MOL0     H16932  13.562  10.807  11.868  2.9650  0.8402 -0.2457
  123MOL0     H16933  13.855  10.995  11.775 -0.6865 -0.5699 -0.5156
  123MOL0     H16934  13.780  10.872  11.869 -1.7608  0.3222 -0.7656
  123MOL0     H16935  13.774  11.036  11.940 -1.6830 -0.3710  0.3676
  123MOL0     H16936  13.908  11.427  11.754 -1.6624 -2.5515 -2.9799
  123MOL0     H16937  14.008  11.630  11.681 -0.0962 -2.1202  1.6687
  123MOL0     H16938  13.891  11.865  11.698  0.2968  1.1057  0.3976
  123MOL0     H16939  14.056  11.849  11.623 -0.6870 -1.7088  1.4383
  123MOL0     H16940  13.844  12.065  11.558 -0.2069 -0.8029 -0.6140
  123MOL0     H16941  13.972  12.085  11.677  0.5822 -1.0137  1.4325
  123MOL0     H16942  14.016  12.007  11.383 -0.6592 -1.5116  0.6138
  123MOL0     H16943  14.146  12.078  11.492  0.0958 -0.3276 -1.1408
  123MOL0     H16944  14.043  12.287  11.501 -1.5941  0.4795 -0.1834
  123MOL0     H16945  13.913  12.213  11.389  0.0333 -1.8695  2.2490
  123MOL0     H16946  14.199  12.246  11.330 -0.7165 -2.0692  0.6250
  123MOL0     H16947  14.085  12.157  11.224  2.0176 -0.7732 -0.1745
  123MOL0     H16948  14.115  12.372  11.141 -0.4613 -3.0023  0.1839
  123MOL0     H16949  14.103  12.457  11.293 -0.1930 -0.8495 -0.0867
  123MOL0     H16950  13.860  12.325  11.155  1.9796 -1.2600 -1.5383
  123MOL0     H16951  13.923  12.468  11.103 -1.4593 -0.5808  0.0335
  123MOL0     H16952  13.804  12.457  11.387  1.4216  0.1366 -0.4633
  123MOL0     H16953  13.761  12.551  11.242  1.5461  3.7545 -0.3229
  123MOL0     H16954  13.653  11.747  11.472 -1.1561 -1.4313 -2.5104
  123MOL0     H16955  13.530  11.551  11.563 -0.5551  3.5249  0.1573
  123MOL0     H16956  13.444  11.214  11.609  4.3549  0.7478 -2.8798
  123MOL0     H16957  13.284  11.049  11.653 -0.2654  0.3959 -0.7284
  123MOL0     H16958  11.702  10.953  11.486 -1.0061  0.2537 -0.8547
  123MOL0     H16959  11.513  10.820  11.380 -0.6594 -0.1692 -0.2055
  123MOL0     H16960  11.101  10.620  11.462  0.6750 -0.8641  0.0903
  123MOL0     H16961  10.937  10.510  11.399  3.3589 -0.3774  2.0081
  123MOL0     H16962  10.770  10.365  11.290 -2.2520 -0.6490 -0.9115
  123MOL0     H16963  10.715  10.314  11.126  1.1710 -0.0814 -2.3155
  123MOL0     H16964  10.872  10.130  11.234 -0.2913 -0.0682 -0.8939
  123MOL0     H16965  10.987  10.256  11.276  1.2704  1.9448 -1.6215
  123MOL0     H16966  11.037  10.298  11.027 -1.2848  0.7363 -2.4995
  123MOL0     H16967  11.080  10.142  11.079 -0.3966 -0.8463 -1.0399
  123MOL0     H16968  10.955  10.107  10.873 -0.9073  2.6154 -2.1047
  123MOL0     H16969  10.838  10.232  10.925 -3.5744 -2.0074  1.6143
  123MOL0     H16970  10.672   9.880  11.053  2.0145 -0.5123  2.3296
  123MOL0     H16971  11.015  10.603  10.980  0.4702  1.0156  0.1999
  123MOL0     H16972  11.308  10.765  11.042 -0.4007 -2.5965 -1.4911
  123MOL0     H16973  11.183  10.712  10.920 -2.3463  0.8872 -0.7313
  123MOL0     H16974  11.169  10.862  11.007 -0.3141 -0.8364 -3.0850
  124MOL0     O16975   9.284   4.777  10.289 -0.1232 -0.1306 -0.4456
  124MOL0     C16976   9.361   4.842  10.222 -0.5346  0.1039 -0.6993
  124MOL0     O16977   9.500   4.855  10.245  0.1278 -0.5709  0.5190
  124MOL0     C16978   9.564   4.779  10.341  0.2712  0.3423 -0.9512
  124MOL0     C16979   9.545   4.794  10.481 -0.1772  0.1992  1.0312
  124MOL0     C16980   9.611   4.706  10.568 -0.4184  0.1069 -0.2730
  124MOL0     C16981   9.711   4.624  10.509 -0.1918 -0.0703  0.7193
  124MOL0     O16982   9.791   4.539  10.572  0.1366 -0.2793  0.1196
  124MOL0     C16983   9.783   4.533  10.719  0.0293 -0.8977 -0.0936
  124MOL0     C16984   9.842   4.401  10.762 -0.7660 -0.0603  1.0638
  124MOL0     C16985   9.997   4.399  10.744  0.3800  0.2239 -0.2305
  124MOL0     C16986  10.056   4.264  10.785  0.1144  1.4984  0.1114
  124MOL0     C16987  10.212   4.284  10.807 -0.2600 -0.0563 -1.0502
  124MOL0     C16988  10.280   4.166  10.877  0.6516  0.9452 -0.3666
  124MOL0     C16989  10.274   4.033  10.799 -0.4404  0.1874 -0.9945
  124MOL0     C16990  10.371   4.021  10.675  0.4634 -0.2585 -0.5075
  124MOL0     N16991  10.381   3.889  10.618  0.3906 -0.1730  1.0511
  124MOL0     C16992  10.278   3.821  10.547 -0.9119  0.4355 -0.5094
  124MOL0     C16993  10.334   3.713  10.498  0.2588 -0.0756  0.6152
  124MOL0     C16994  10.280   3.626  10.395  0.4691  0.5527  0.2743
  124MOL0     C16995  10.368   3.636  10.273 -0.3455 -0.7385  0.2612
  124MOL0     C16996  10.315   3.584  10.138  0.3908 -0.4796  0.4973
  124MOL0     C16997  10.406   3.628  10.034 -0.2766 -0.6944 -0.3130
  124MOL0     O16998  10.518   3.544  10.031 -0.2461 -0.4962  0.0806
  124MOL0     C16999  10.506   3.437   9.942 -0.9127 -0.1347 -0.7013
  124MOL0     C17000  10.635   3.378   9.908  1.1958 -1.0015 -0.0702
  124MOL0     C17001  10.646   3.282   9.806  0.0022 -0.1306  0.5808
  124MOL0     C17002  10.779   3.227   9.778 -0.7172 -0.2098  0.2992
  124MOL0     C17003  10.529   3.240   9.736 -0.0817  0.1468  0.3556
  124MOL0     C17004  10.515   3.153   9.623 -0.1123  0.3376 -0.2237
  124MOL0     O17005  10.554   3.205   9.504 -0.0957  0.1872  0.7934
  124MOL0     C17006  10.542   3.119   9.396 -0.4320 -0.1937 -0.1662
  124MOL0     C17007  10.437   3.139   9.308 -0.5230 -0.0455 -0.5733
  124MOL0     C17008  10.440   3.091   9.180 -0.0807 -1.1913 -0.5138
  124MOL0     C17009  10.537   3.001   9.145  0.0955 -0.3262 -0.5534
  124MOL0     O17010  10.536   2.926   9.031  0.2691  0.6929  0.6399
  124MOL0     C17011  10.586   3.000   8.921 -0.6081  1.1113 -0.6113
  124MOL0     C17012  10.473   3.063   8.839 -0.1891  0.6473  1.3404
  124MOL0     C17013  10.367   2.959   8.795 -0.0966  0.0262 -0.2067
  124MOL0     C17014  10.418   2.813   8.759  0.6554  0.7909  0.0411
  124MOL0     C17015  10.314   2.737   8.677  1.1817  0.3808 -0.4378
  124MOL0     C17016  10.342   2.754   8.527  1.1583 -0.7367 -0.0675
  124MOL0     C17017  10.268   2.661   8.439 -1.0204 -0.1115  0.6444
  124MOL0     C17018  10.310   2.694   8.294  0.5790  0.1990  0.1855
  124MOL0    Cl17019  10.472   2.644   8.234 -0.2804 -0.3149  0.0548
  124MOL0     C17020  10.641   2.972   9.241  0.3466  0.4226  0.1895
  124MOL0     C17021  10.652   3.039   9.363 -0.1736  0.3530 -0.0293
  124MOL0     O17022  10.459   3.041   9.635 -0.1757 -0.2913 -0.2823
  124MOL0     C17023  10.409   3.289   9.777 -0.6070 -0.9188  0.2682
  124MOL0     C17024  10.390   3.382   9.880  0.9071 -0.6198  0.1627
  124MOL0     N17025  10.467   3.712  10.539 -0.3298 -0.0932 -0.2063
  124MOL0     N17026  10.498   3.819  10.608  0.8130  0.5064 -1.0552
  124MOL0     C17027   9.725   4.619  10.370  0.8216 -0.4410 -0.0476
  124MOL0     C17028   9.643   4.693  10.286 -0.1182 -0.8899 -0.1631
  124MOL0     C17029   9.301   4.921  10.106 -0.8007  0.1454  0.2212
  124MOL0     C17030   9.368   5.032  10.050  0.5171  0.0638 -0.1273
  124MOL0     C17031   9.323   5.117   9.946 -0.2400  0.1559 -0.6606
  124MOL0     C17032   9.194   5.097   9.896 -0.2125  0.5249 -0.0069
  124MOL0     O17033   9.146   5.183   9.804 -0.2871  0.2031  0.9594
  124MOL0     C17034   9.008   5.204   9.786 -0.0411  0.2750  0.4769
  124MOL0     C17035   8.984   5.324   9.681 -0.4004 -0.1350  0.0264
  124MOL0     C17036   8.844   5.388   9.686 -0.4623 -0.5780 -0.3921
  124MOL0     C17037   8.793   5.449   9.562 -0.1731  0.5880  0.6487
  124MOL0     C17038   8.889   5.518   9.477 -0.5617 -0.2244 -1.0803
  124MOL0     C17039   8.970   5.577   9.410 -0.2899 -0.8715  0.0608
  124MOL0     C17040   9.117   4.991   9.950  0.3205 -0.7290 -0.5743
  124MOL0     C17041   9.170   4.901  10.050  0.7962 -0.5650 -0.0416
  124MOL0     C17042   9.075   4.791  10.099  0.2904  1.5855 -0.6385
  124MOL0     H17043   9.466   4.864  10.506 -1.5599 -0.1609 -1.9314
  124MOL0     H17044   9.586   4.709  10.674  1.5472 -1.8190  0.3090
  124MOL0     H17045   9.679   4.531  10.755  0.9556  0.7850  3.0108
  124MOL0     H17046   9.834   4.612  10.774  0.0745 -0.1735 -1.1486
  124MOL0     H17047   9.800   4.381  10.861 -0.1018 -1.0257  1.1620
  124MOL0     H17048   9.797   4.337  10.685 -1.2477 -0.4951  1.6917
  124MOL0     H17049  10.025   4.418  10.640 -4.3060  3.9854 -1.1372
  124MOL0     H17050  10.042   4.483  10.797  2.1270 -0.3592 -0.7211
  124MOL0     H17051  10.022   4.222  10.880  2.3452 -0.6471  0.0522
  124MOL0     H17052  10.040   4.190  10.706  2.1743 -0.8653  1.7402
  124MOL0     H17053  10.227   4.372  10.869  1.6284 -1.0927  0.0532
  124MOL0     H17054  10.265   4.287  10.711 -1.1906 -3.4901 -1.8151
  124MOL0     H17055  10.382   4.204  10.888  0.4079  2.0777 -1.7252
  124MOL0     H17056  10.233   4.153  10.975 -0.8086 -0.8873 -1.2435
  124MOL0     H17057  10.181   4.004  10.750  1.1384 -2.6986 -2.6084
  124MOL0     H17058  10.297   3.951  10.868 -4.7066  0.8538  1.5417
  124MOL0     H17059  10.322   4.086  10.602  0.5658  0.9745  0.4698
  124MOL0     H17060  10.473   4.053  10.695 -0.5293  2.3033  1.0672
  124MOL0     H17061  10.179   3.860  10.524 -1.2877 -0.4485 -0.4371
  124MOL0     H17062  10.186   3.666  10.355  1.0252  0.3266 -1.3621
  124MOL0     H17063  10.265   3.522  10.427 -2.8878 -0.1869 -2.9825
  124MOL0     H17064  10.394   3.741  10.261  2.2790 -0.9295  3.0839
  124MOL0     H17065  10.461   3.584  10.298  0.5016  0.0488 -1.1741
  124MOL0     H17066  10.305   3.475  10.137 -1.8802 -0.3203  0.1838
  124MOL0     H17067  10.217   3.625  10.116  0.0529 -1.7075 -0.4404
  124MOL0     H17068  10.355   3.629   9.937  0.5944  0.3893 -0.7846
  124MOL0     H17069  10.427   3.735  10.045 -0.2048 -0.6589 -0.7533
  124MOL0     H17070  10.714   3.410   9.975 -0.0194 -1.8816  1.8517
  124MOL0     H17071  10.842   3.278   9.851  1.7614  0.7323 -2.3203
  124MOL0     H17072  10.810   3.227   9.673  1.7069 -1.3750  0.9437
  124MOL0     H17073  10.783   3.125   9.818  1.2265 -0.0374  0.6564
  124MOL0     H17074  10.353   3.203   9.331 -0.9277  0.4220 -3.0530
  124MOL0     H17075  10.355   3.111   9.115 -1.5167 -4.3882  0.1925
  124MOL0     H17076  10.663   3.073   8.946  1.2428 -0.4541 -1.4757
  124MOL0     H17077  10.628   2.918   8.862 -2.3443 -0.3126  0.0211
  124MOL0     H17078  10.439   3.152   8.893 -2.5800 -0.3545  1.6043
  124MOL0     H17079  10.520   3.097   8.747  0.8875 -1.4530  1.0466
  124MOL0     H17080  10.303   2.999   8.715 -1.9040  1.2977  1.7684
  124MOL0     H17081  10.301   2.956   8.883  2.9559  1.0557  2.3004
  124MOL0     H17082  10.441   2.762   8.853  0.8940  0.6926 -0.0681
  124MOL0     H17083  10.508   2.812   8.696 -0.7425 -0.4579 -2.0760
  124MOL0     H17084  10.321   2.635   8.718 -3.3556  1.6063  4.4585
  124MOL0     H17085  10.213   2.753   8.716 -1.9741 -0.5101 -6.8619
  124MOL0     H17086  10.449   2.750   8.504  0.7838  0.5700 -2.2646
  124MOL0     H17087  10.312   2.853   8.492  0.1965 -0.7425  0.6995
  124MOL0     H17088  10.160   2.663   8.456 -0.9141 -1.4082  1.7266
  124MOL0     H17089  10.309   2.561   8.461 -0.4709 -0.1901 -0.6758
  124MOL0     H17090  10.305   2.803   8.287  1.7726  0.2477 -0.0122
  124MOL0     H17091  10.228   2.657   8.231  0.5205  2.1048 -0.9176
  124MOL0     H17092  10.709   2.902   9.195 -1.2010 -0.0161 -1.5919
  124MOL0     H17093  10.734   3.042   9.434 -1.9167 -0.7689  2.1956
  124MOL0     H17094  10.322   3.250   9.725 -1.7493  1.9489 -0.1998
  124MOL0     H17095  10.285   3.399   9.901 -0.1446 -3.2815 -2.3119
  124MOL0     H17096   9.797   4.551  10.326 -2.5003 -2.5215 -2.8935
  124MOL0     H17097   9.641   4.665  10.181 -0.6005 -0.2104 -0.3439
  124MOL0     H17098   9.462   5.064  10.092  0.9069 -0.8639 -0.2819
  124MOL0     H17099   9.374   5.205   9.908  1.6569 -0.8914 -0.6866
  124MOL0     H17100   8.951   5.113   9.767  1.4820 -1.5386  3.7420
  124MOL0     H17101   8.981   5.242   9.885  2.7576 -0.6829  1.6976
  124MOL0     H17102   8.997   5.282   9.581  2.7847 -1.4253  0.8579
  124MOL0     H17103   9.072   5.386   9.699 -0.6954  0.2144  0.2653
  124MOL0     H17104   8.777   5.306   9.714  0.9301 -1.9899 -1.0533
  124MOL0     H17105   8.848   5.467   9.761 -2.5066 -0.0791 -0.7330
  124MOL0     H17106   8.720   5.525   9.589 -2.7942 -2.2141  2.1198
  124MOL0     H17107   8.735   5.378   9.502 -1.4421  2.2202 -0.1015
  124MOL0     H17108   9.045   5.636   9.361 -2.1961 -0.0847 -2.1370
  124MOL0     H17109   9.010   4.988   9.931  0.3073  1.0864 -0.9081
  124MOL0     H17110   8.998   4.764  10.025  1.1957 -0.3402 -0.9674
  124MOL0     H17111   9.135   4.700  10.113 -1.6509  0.3989  0.4229
  124MOL0     H17112   9.022   4.801  10.193 -1.1921  1.9500 -1.4849
  125MOL0     O17113   6.782   8.787  11.281 -0.0281  0.0990 -0.9512
  125MOL0     C17114   6.731   8.852  11.192 -0.5183 -0.4449 -0.1615
  125MOL0     O17115   6.602   8.899  11.200 -0.2037 -0.0465 -0.6540
  125MOL0     C17116   6.558   8.918  11.328 -0.6426 -0.8363  0.5146
  125MOL0     C17117   6.580   9.043  11.386 -0.2564 -0.0326  0.4633
  125MOL0     C17118   6.528   9.080  11.508  0.0524  0.1958  0.0382
  125MOL0     C17119   6.454   8.984  11.584  0.9287 -0.1167 -0.7101
  125MOL0     O17120   6.389   9.006  11.707 -0.9299  0.0496  0.9599
  125MOL0     C17121   6.420   9.125  11.782  0.2707 -0.3451 -0.4053
  125MOL0     C17122   6.571   9.140  11.835  0.3676 -0.3965 -0.0273
  125MOL0     C17123   6.606   9.279  11.884 -0.3089  0.2280 -0.6200
  125MOL0     C17124   6.698   9.356  11.778 -0.3728  0.7925 -0.2156
  125MOL0     C17125   6.682   9.508  11.803 -0.5733  0.4573  0.0391
  125MOL0     C17126   6.777   9.592  11.720  0.1759 -0.9081 -0.0284
  125MOL0     C17127   6.739   9.746  11.724 -0.1872  0.5332  0.3033
  125MOL0     C17128   6.629   9.775  11.627 -0.0320 -0.6384 -0.1609
  125MOL0     N17129   6.588   9.914  11.650 -0.2613  0.2881  0.3384
  125MOL0     C17130   6.620  10.021  11.580  0.9637 -1.1103  0.6327
  125MOL0     C17131   6.512  10.110  11.605 -0.3122 -0.5225  0.4363
  125MOL0     C17132   6.473  10.249  11.548 -0.5937  0.0785 -0.2937
  125MOL0     C17133   6.570  10.355  11.616 -0.1935  0.0079 -0.4665
  125MOL0     C17134   6.510  10.489  11.595  0.1341  0.4809  0.2730
  125MOL0     C17135   6.558  10.594  11.698  0.8005 -0.0151  0.1449
  125MOL0     O17136   6.699  10.600  11.713  1.1029 -0.4038 -0.3260
  125MOL0     C17137   6.781  10.650  11.620 -0.5303  0.8510 -0.6526
  125MOL0     C17138   6.915  10.631  11.650  0.8650 -0.4306  0.4631
  125MOL0     C17139   7.009  10.676  11.559 -0.4156 -0.2509  1.0613
  125MOL0     C17140   7.146  10.639  11.584 -0.4821 -0.7920 -0.3900
  125MOL0     C17141   6.969  10.744  11.441  0.1800 -0.3111 -0.6315
  125MOL0     C17142   7.066  10.797  11.344 -0.4591 -0.3743 -0.4432
  125MOL0     O17143   7.064  10.932  11.315  0.8766 -0.6272 -0.4937
  125MOL0     C17144   7.134  10.973  11.209  0.1954  0.3302  0.4446
  125MOL0     C17145   7.081  10.980  11.079 -0.4946  1.2727  0.0925
  125MOL0     C17146   7.135  11.057  10.975 -0.4049  0.6593 -0.0931
  125MOL0     C17147   7.254  11.140  11.009 -0.4605 -0.7569  0.1430
  125MOL0     O17148   7.314  11.223  10.923 -0.1364  0.6027 -0.1303
  125MOL0     C17149   7.441  11.175  10.880 -0.0902  0.1704  0.2753
  125MOL0     C17150   7.533  11.292  10.844  0.1040 -0.8267 -0.3400
  125MOL0     C17151   7.542  11.405  10.946  0.6259  0.8402 -0.2902
  125MOL0     C17152   7.588  11.538  10.897 -0.0006 -0.2186 -0.3994
  125MOL0     C17153   7.614  11.621  11.020  0.1965  0.1504  0.9940
  125MOL0     C17154   7.641  11.765  10.979  0.6986 -0.1068  0.4505
  125MOL0     C17155   7.750  11.766  10.862 -0.6441 -0.2524 -0.7271
  125MOL0     C17156   7.836  11.894  10.872  0.4854 -0.3846  0.0594
  125MOL0    Cl17157   7.734  12.043  10.884 -0.8398 -0.3571  0.2230
  125MOL0     C17158   7.304  11.124  11.136  1.1723 -0.0421 -0.4578
  125MOL0     C17159   7.250  11.039  11.241  0.0476 -0.3683 -0.9460
  125MOL0     O17160   7.136  10.713  11.290  0.2121  0.4133  0.5537
  125MOL0     C17161   6.833  10.750  11.415  0.9205  0.3930 -0.6151
  125MOL0     C17162   6.743  10.694  11.500  0.2744  1.0620  0.1729
  125MOL0     N17163   6.415  10.046  11.687 -0.3252 -0.1550  0.1379
  125MOL0     N17164   6.467   9.935  11.714  1.3103 -0.0664 -0.1240
  125MOL0     C17165   6.419   8.861  11.523 -0.5842 -0.5985  1.0592
  125MOL0     C17166   6.476   8.832  11.390  0.5679  1.4960 -0.9843
  125MOL0     C17167   6.807   8.856  11.068 -0.1174 -0.1074  0.3907
  125MOL0     C17168   6.735   8.914  10.960 -1.0962 -0.4669  0.5139
  125MOL0     C17169   6.800   8.915  10.837  0.6006 -0.7054 -0.5917
  125MOL0     C17170   6.924   8.876  10.817  0.1642 -0.0938  1.0657
  125MOL0     O17171   6.976   8.901  10.692  1.3249 -0.3385  0.5610
  125MOL0     C17172   7.114   8.926  10.672  0.0496 -0.2785 -0.8081
  125MOL0     C17173   7.158   8.983  10.542 -0.6884  0.0411  0.0155
  125MOL0     C17174   7.134   9.135  10.512 -0.1518 -0.9964  0.4644
  125MOL0     C17175   6.990   9.171  10.518  0.0150  0.2179  0.9236
  125MOL0     C17176   6.977   9.312  10.480  0.7199 -0.5923  0.6485
  125MOL0     C17177   6.968   9.431  10.456 -0.2564 -0.2707  0.2536
  125MOL0     C17178   6.998   8.816  10.925 -0.2002  0.1354 -0.1006
  125MOL0     C17179   6.946   8.817  11.051  0.2276  0.1492  0.4692
  125MOL0     C17180   7.041   8.778  11.159 -0.4605  0.5115 -0.6103
  125MOL0     H17181   6.639   9.106  11.320  0.8622 -2.5514 -1.0943
  125MOL0     H17182   6.530   9.188  11.524 -2.8733  0.2767  0.4171
  125MOL0     H17183   6.347   9.127  11.864 -0.0864 -2.2115 -0.6236
  125MOL0     H17184   6.391   9.215  11.727  4.1600  0.3780 -1.5409
  125MOL0     H17185   6.569   9.071  11.919  0.8130 -0.0106  0.3031
  125MOL0     H17186   6.653   9.110  11.768  0.0072  0.8640 -1.0797
  125MOL0     H17187   6.515   9.332  11.915 -0.9920 -2.5414  2.6714
  125MOL0     H17188   6.648   9.271  11.984  0.9848 -0.0879 -1.1694
  125MOL0     H17189   6.803   9.336  11.796 -0.8582 -1.8222  0.0306
  125MOL0     H17190   6.668   9.324  11.678  2.1280  0.3944 -0.8859
  125MOL0     H17191   6.702   9.533  11.907  1.2304 -0.0735 -0.1526
  125MOL0     H17192   6.578   9.533  11.778  0.2111  1.0436 -2.9690
  125MOL0     H17193   6.878   9.577  11.761 -0.4048  0.5486  2.1190
  125MOL0     H17194   6.778   9.569  11.613  0.4496  0.2258 -0.2890
  125MOL0     H17195   6.833   9.795  11.698  0.6674 -1.8926 -1.4485
  125MOL0     H17196   6.706   9.769  11.826 -1.3351  2.5723 -0.4582
  125MOL0     H17197   6.676   9.763  11.529 -0.9439 -3.0025 -0.3726
  125MOL0     H17198   6.547   9.703  11.636  2.0373 -3.0373  0.8124
  125MOL0     H17199   6.702  10.031  11.510  0.2525  0.7252 -0.0070
  125MOL0     H17200   6.370  10.265  11.583  0.3057 -0.9526  3.2001
  125MOL0     H17201   6.480  10.256  11.439  0.0313  0.2437 -0.2483
  125MOL0     H17202   6.568  10.348  11.725  2.8355  2.0607 -0.1636
  125MOL0     H17203   6.675  10.349  11.587 -0.4045 -2.2099 -0.9624
  125MOL0     H17204   6.537  10.522  11.494  3.7750 -2.6338  0.0071
  125MOL0     H17205   6.402  10.473  11.603  0.0745  1.5773  2.1531
  125MOL0     H17206   6.514  10.689  11.669 -1.6429 -1.9018 -3.0066
  125MOL0     H17207   6.518  10.582  11.799 -1.0039 -0.9018 -0.6373
  125MOL0     H17208   6.951  10.576  11.736 -4.1808  0.8871  3.8845
  125MOL0     H17209   7.168  10.542  11.538  0.4127 -0.4666 -0.6802
  125MOL0     H17210   7.171  10.643  11.690  1.0638 -0.5881 -0.7268
  125MOL0     H17211   7.219  10.714  11.551  1.3472  0.3071  5.1920
  125MOL0     H17212   6.988  10.924  11.075  0.5264 -0.6896  1.7420
  125MOL0     H17213   7.080  11.044  10.883  3.0516 -0.7819 -2.1754
  125MOL0     H17214   7.499  11.122  10.956  3.2731  0.3046 -1.9781
  125MOL0     H17215   7.427  11.113  10.790 -2.5303 -2.3939  2.2250
  125MOL0     H17216   7.631  11.245  10.828  0.8898  0.8949 -0.8682
  125MOL0     H17217   7.507  11.338  10.749 -1.4051  0.2947  0.5693
  125MOL0     H17218   7.607  11.379  11.030 -1.3704 -0.4035  0.9626
  125MOL0     H17219   7.443  11.413  10.994  0.2767 -0.8451 -0.6538
  125MOL0     H17220   7.522  11.585  10.824 -1.1317 -0.4896  0.4113
  125MOL0     H17221   7.686  11.520  10.852 -0.4911 -2.5686 -0.6633
  125MOL0     H17222   7.538  11.616  11.099 -1.6750  1.1243 -0.6813
  125MOL0     H17223   7.706  11.591  11.071  1.9581 -0.4435 -2.2611
  125MOL0     H17224   7.669  11.821  11.069 -0.8604  1.6072 -0.0764
  125MOL0     H17225   7.555  11.819  10.940  0.5952  0.4368  1.4093
  125MOL0     H17226   7.695  11.762  10.767  1.0763 -3.9888 -1.7637
  125MOL0     H17227   7.822  11.684  10.863 -1.2362 -1.0173  4.0351
  125MOL0     H17228   7.907  11.911  10.790 -0.3993  4.1592 -0.0268
  125MOL0     H17229   7.894  11.894  10.964  0.4148  1.2426  0.1408
  125MOL0     H17230   7.392  11.173  11.177  0.3743 -0.7439  2.3284
  125MOL0     H17231   7.304  11.038  11.336 -1.3955 -2.1538 -0.0944
  125MOL0     H17232   6.807  10.795  11.320  1.2777 -1.0934 -1.4517
  125MOL0     H17233   6.637  10.692  11.477  0.2620  2.1638  0.0782
  125MOL0     H17234   6.357   8.789  11.575 -0.0287 -0.5652  1.7840
  125MOL0     H17235   6.455   8.733  11.350 -3.0630  2.1509 -1.0362
  125MOL0     H17236   6.631   8.941  10.973 -1.5937 -1.7235 -0.6250
  125MOL0     H17237   6.759   8.971  10.754 -1.7021 -1.6522 -0.1483
  125MOL0     H17238   7.162   8.968  10.762 -0.9180  0.1898 -0.4973
  125MOL0     H17239   7.154   8.825  10.666  0.8849  0.0207 -0.5597
  125MOL0     H17240   7.099   8.933  10.465 -0.1145 -3.9178  1.8563
  125MOL0     H17241   7.261   8.955  10.517 -1.7527 -2.0798 -2.4537
  125MOL0     H17242   7.183   9.200  10.585 -3.5187  1.8241  0.4859
  125MOL0     H17243   7.173   9.153  10.412 -1.7726  0.2288  0.0058
  125MOL0     H17244   6.949   9.168  10.619 -2.9553 -0.1674 -0.1851
  125MOL0     H17245   6.927   9.103  10.459  0.5128  2.2971 -2.2482
  125MOL0     H17246   6.968   9.536  10.432  0.0955 -0.6684 -1.5856
  125MOL0     H17247   7.099   8.780  10.908 -1.0483 -0.8562 -3.8338
  125MOL0     H17248   7.041   8.671  11.178 -1.6302  0.0418 -2.8951
  125MOL0     H17249   7.146   8.802  11.143 -0.2265 -0.9131 -1.3455
  125MOL0     H17250   7.019   8.838  11.248  0.7228  0.1512 -0.0695
  126MOL0     O17251   7.490   3.802   6.258 -0.5718 -0.4687 -0.2404
  126MOL0     C17252   7.581   3.826   6.339 -0.0937  0.6673  0.0638
  126MOL0     O17253   7.582   3.936   6.426  0.0028 -0.5803 -0.2563
  126MOL0     C17254   7.482   4.033   6.420  1.1735  0.3445  0.2899
  126MOL0     C17255   7.516   4.164   6.397  0.2443 -0.4441  0.2236
  126MOL0     C17256   7.422   4.266   6.405 -0.2072 -0.2544  0.5533
  126MOL0     C17257   7.279   4.240   6.425 -0.1504 -0.2034  0.0150
  126MOL0     O17258   7.183   4.343   6.449  0.6332  0.2995  0.4262
  126MOL0     C17259   7.180   4.453   6.353 -0.6926  0.2621 -0.0626
  126MOL0     C17260   7.056   4.537   6.371  0.2590  0.5424  0.2263
  126MOL0     C17261   7.063   4.618   6.503 -0.1707 -0.0076  0.8373
  126MOL0     C17262   6.927   4.692   6.522 -0.6986  0.3497  0.7902
  126MOL0     C17263   6.943   4.832   6.589  0.7264  0.3320  0.2478
  126MOL0     C17264   6.805   4.870   6.640  0.2665 -0.0443  0.0605
  126MOL0     C17265   6.794   5.009   6.698 -0.3662  0.6834  0.5907
  126MOL0     C17266   6.649   5.056   6.698 -0.7998 -0.1768 -0.3660
  126MOL0     N17267   6.561   4.989   6.804 -0.1309  0.0790  0.5271
  126MOL0     C17268   6.495   5.054   6.907 -0.0063 -0.0462 -0.7725
  126MOL0     C17269   6.445   4.954   6.984  0.4356  0.4126 -0.2405
  126MOL0     C17270   6.383   4.968   7.121  0.3093 -0.9411  0.1254
  126MOL0     C17271   6.235   5.017   7.117  0.0302 -0.2252  0.5177
  126MOL0     C17272   6.207   5.168   7.162 -0.5619 -0.2186 -0.4795
  126MOL0     C17273   6.132   5.246   7.051  0.5991  0.2740  0.4418
  126MOL0     O17274   6.231   5.278   6.950 -0.9673 -1.8631  0.8497
  126MOL0     C17275   6.190   5.373   6.857 -0.7006 -0.0590 -0.3743
  126MOL0     C17276   6.061   5.423   6.840  0.0138  0.2786 -0.7575
  126MOL0     C17277   6.022   5.499   6.735 -0.5252 -0.2014 -0.7162
  126MOL0     C17278   5.878   5.514   6.711  0.0807 -0.1390 -0.1919
  126MOL0     C17279   6.122   5.544   6.645  0.3473 -0.4206  0.4036
  126MOL0     C17280   6.086   5.624   6.515 -0.2361 -0.8684 -0.6503
  126MOL0     O17281   6.188   5.634   6.425  0.3475 -0.2278 -0.4192
  126MOL0     C17282   6.187   5.730   6.327  0.1715 -0.4599  0.2587
  126MOL0     C17283   6.259   5.700   6.209 -0.3905  0.0386 -0.8465
  126MOL0     C17284   6.316   5.800   6.130 -0.2379 -0.3987 -0.5042
  126MOL0     C17285   6.285   5.938   6.160  0.0323  0.3173  0.0259
  126MOL0     O17286   6.333   6.039   6.084 -0.7486 -0.2600  0.4570
  126MOL0     C17287   6.308   6.021   5.938  0.1346  0.6117  0.3247
  126MOL0     C17288   6.164   6.050   5.902  0.3679 -0.1800  0.5496
  126MOL0     C17289   6.094   6.182   5.967 -0.1422  0.5833 -0.7780
  126MOL0     C17290   6.186   6.303   5.942 -0.6232  0.9724  1.0471
  126MOL0     C17291   6.242   6.386   6.067  1.0551  0.8761  0.2943
  126MOL0     C17292   6.125   6.441   6.166 -0.6381 -0.3619  0.7207
  126MOL0     C17293   6.185   6.509   6.283  0.8248  1.0283  1.1089
  126MOL0     C17294   6.247   6.398   6.369 -0.7082 -0.3777  0.5070
  126MOL0    Cl17295   6.270   6.466   6.529 -0.2708 -0.0419 -0.1663
  126MOL0     C17296   6.221   5.968   6.281 -0.5272  0.3475 -0.2060
  126MOL0     C17297   6.159   5.868   6.355 -0.9102  0.2464 -0.0405
  126MOL0     O17298   5.989   5.694   6.510 -0.4785 -0.3063 -0.2660
  126MOL0     C17299   6.257   5.512   6.671 -0.2489 -0.6064  0.0677
  126MOL0     C17300   6.290   5.420   6.776  0.4828 -0.2959  0.5311
  126MOL0     N17301   6.459   4.828   6.916  0.1098  0.3299 -0.3798
  126MOL0     N17302   6.542   4.851   6.816 -0.2774 -1.2449 -0.3912
  126MOL0     C17303   7.252   4.109   6.441 -0.1205 -0.2516 -0.6394
  126MOL0     C17304   7.345   4.004   6.439  0.4497  0.8870  0.5914
  126MOL0     C17305   7.706   3.754   6.332 -0.3675  0.0180  0.0956
  126MOL0     C17306   7.734   3.673   6.220  0.1637 -0.4866  0.0834
  126MOL0     C17307   7.846   3.599   6.203  1.0411  0.7730 -0.4884
  126MOL0     C17308   7.944   3.600   6.299 -0.3065  0.3622 -1.0785
  126MOL0     O17309   8.069   3.547   6.274  0.0398 -1.6748 -0.4978
  126MOL0     C17310   8.074   3.409   6.294 -0.3206  0.5096 -0.2144
  126MOL0     C17311   8.206   3.381   6.366 -0.2183  0.3884 -0.7221
  126MOL0     C17312   8.237   3.242   6.391 -0.5047  0.4603  0.3764
  126MOL0     C17313   8.144   3.178   6.504  0.8850 -0.6543  0.1091
  126MOL0     C17314   8.234   3.096   6.582  0.8008  0.3015  0.6093
  126MOL0     C17315   8.294   3.027   6.657 -0.4981  0.2397 -0.0778
  126MOL0     C17316   7.932   3.677   6.416  1.3527  0.9306  0.1757
  126MOL0     C17317   7.812   3.757   6.433 -0.4341 -0.3687  0.5108
  126MOL0     C17318   7.809   3.827   6.570 -0.4352  0.1023 -0.5116
  126MOL0     H17319   7.619   4.197   6.394 -0.4533  1.9318 -0.0571
  126MOL0     H17320   7.464   4.364   6.422 -0.8663  0.6135 -2.2980
  126MOL0     H17321   7.183   4.405   6.255  1.9946 -1.5287  0.7984
  126MOL0     H17322   7.268   4.517   6.359 -1.0384  0.7124  0.2846
  126MOL0     H17323   7.047   4.608   6.288  0.4577 -1.9781 -2.0938
  126MOL0     H17324   6.966   4.476   6.386  0.7288  0.3024  2.3536
  126MOL0     H17325   7.077   4.547   6.585 -0.8204 -0.9970  0.1011
  126MOL0     H17326   7.146   4.689   6.491 -0.4639 -0.0720 -2.6731
  126MOL0     H17327   6.880   4.709   6.425  0.9477  1.3318  0.1287
  126MOL0     H17328   6.859   4.624   6.574 -2.4777 -2.3882 -4.3905
  126MOL0     H17329   6.966   4.892   6.500 -0.1449 -0.4053 -0.5050
  126MOL0     H17330   7.021   4.833   6.665 -1.1295 -0.2715  2.2874
  126MOL0     H17331   6.735   4.874   6.556  1.4954  1.2385 -0.9426
  126MOL0     H17332   6.776   4.792   6.712  0.1802  1.5512  1.8529
  126MOL0     H17333   6.847   5.090   6.646 -3.8426  5.2623  3.3602
  126MOL0     H17334   6.840   5.004   6.797  0.6544 -1.9943  0.0568
  126MOL0     H17335   6.639   5.164   6.711  0.7202  0.1293 -1.5100
  126MOL0     H17336   6.605   5.037   6.599 -0.1303  3.2668 -1.4583
  126MOL0     H17337   6.484   5.155   6.947  1.7395 -0.2365  0.3199
  126MOL0     H17338   6.454   5.033   7.175 -0.2466  0.7558 -1.1069
  126MOL0     H17339   6.372   4.870   7.170 -0.0870  0.7029  3.6982
  126MOL0     H17340   6.188   4.992   7.022  2.1506 -2.4048 -0.0694
  126MOL0     H17341   6.184   4.945   7.181 -0.9436 -1.3412 -1.4422
  126MOL0     H17342   6.144   5.152   7.250  4.1837 -1.5485  3.1116
  126MOL0     H17343   6.299   5.217   7.195 -0.4795 -0.5235 -0.2497
  126MOL0     H17344   6.047   5.189   7.010 -0.2134  0.7653  1.3967
  126MOL0     H17345   6.083   5.331   7.099 -1.0302  0.5770 -1.5880
  126MOL0     H17346   5.984   5.377   6.901 -0.9948  1.4789 -1.1011
  126MOL0     H17347   5.815   5.444   6.767 -2.7161  0.0845 -2.7492
  126MOL0     H17348   5.858   5.501   6.604  1.0514 -1.4052 -0.2405
  126MOL0     H17349   5.844   5.612   6.745  0.3790 -1.0524  2.9940
  126MOL0     H17350   6.296   5.598   6.195 -1.4244 -0.7567  1.7076
  126MOL0     H17351   6.394   5.780   6.057 -0.5634 -0.4136 -0.8484
  126MOL0     H17352   6.369   6.094   5.885  0.5039  0.0210 -0.0696
  126MOL0     H17353   6.338   5.923   5.900  1.8820  0.9573  0.7426
  126MOL0     H17354   6.175   6.059   5.793 -1.2275  2.8010  0.5394
  126MOL0     H17355   6.104   5.960   5.920 -0.2594 -0.3078 -1.7684
  126MOL0     H17356   6.087   6.156   6.074  0.0142 -1.7811 -1.2814
  126MOL0     H17357   5.991   6.204   5.938 -1.2586 -1.4907  1.2196
  126MOL0     H17358   6.127   6.375   5.883 -1.6752 -0.0318  0.8411
  126MOL0     H17359   6.271   6.267   5.883 -0.8158  0.5260  1.0428
  126MOL0     H17360   6.310   6.324   6.124  0.4553 -1.3823 -1.3259
  126MOL0     H17361   6.295   6.477   6.035 -0.3912  1.1637 -1.5384
  126MOL0     H17362   6.067   6.355   6.203  0.2790 -1.2849  0.0753
  126MOL0     H17363   6.049   6.508   6.124 -1.3088 -0.5984  1.5359
  126MOL0     H17364   6.109   6.559   6.343 -0.9766  1.8587 -1.6678
  126MOL0     H17365   6.265   6.572   6.242 -0.3123  1.8985  0.1713
  126MOL0     H17366   6.346   6.388   6.322  0.4931  3.1118  1.8946
  126MOL0     H17367   6.184   6.310   6.375  0.4887 -1.2896  0.2378
  126MOL0     H17368   6.220   6.073   6.307  0.6517  0.3068  0.0690
  126MOL0     H17369   6.097   5.897   6.440  0.1233  0.3437  0.7059
  126MOL0     H17370   6.329   5.531   6.593 -0.4728 -0.9539 -0.2285
  126MOL0     H17371   6.392   5.400   6.804  1.0501  0.4501 -0.8838
  126MOL0     H17372   7.152   4.073   6.462 -1.3329  0.2108 -4.8402
  126MOL0     H17373   7.322   3.899   6.456  1.3042  0.3019 -1.5162
  126MOL0     H17374   7.659   3.658   6.143  0.8601  2.4619 -1.3072
  126MOL0     H17375   7.841   3.542   6.111  1.6123 -0.5970  0.2990
  126MOL0     H17376   7.986   3.370   6.344 -0.2880 -0.0083 -0.5582
  126MOL0     H17377   8.078   3.365   6.194 -2.9773  1.6952 -0.9422
  126MOL0     H17378   8.212   3.433   6.463  3.9095  1.7403 -1.4924
  126MOL0     H17379   8.289   3.425   6.310  0.2041  0.9888  0.3336
  126MOL0     H17380   8.219   3.191   6.296  1.0795 -2.8066  1.6842
  126MOL0     H17381   8.344   3.230   6.407 -0.5381  1.1340  1.1760
  126MOL0     H17382   8.066   3.115   6.460 -0.6419  1.6606 -0.6986
  126MOL0     H17383   8.114   3.251   6.580  2.2023 -1.8496  1.8512
  126MOL0     H17384   8.357   2.976   6.727 -1.0426 -2.3726 -1.3642
  126MOL0     H17385   8.019   3.654   6.476  0.4439 -2.7491  0.3360
  126MOL0     H17386   7.885   3.790   6.640 -1.4589 -0.1103  0.4977
  126MOL0     H17387   7.824   3.933   6.548  1.4575 -0.5829 -3.1193
  126MOL0     H17388   7.715   3.822   6.625 -1.0856  2.5645 -1.2853
  127MOL0     O17389   8.528   6.165   7.363 -0.3152  0.2075 -1.4421
  127MOL0     C17390   8.624   6.202   7.302  0.4281  0.4147  0.1004
  127MOL0     O17391   8.738   6.263   7.357 -0.2109 -0.2558 -1.1487
  127MOL0     C17392   8.764   6.251   7.492  0.1393 -0.8092 -0.4216
  127MOL0     C17393   8.742   6.142   7.570  0.3220  0.0156  0.0370
  127MOL0     C17394   8.778   6.142   7.702  0.7534 -0.7456 -0.0065
  127MOL0     C17395   8.856   6.251   7.753 -0.6185  0.4104  0.3483
  127MOL0     O17396   8.900   6.264   7.887  0.2832 -0.3329  0.0994
  127MOL0     C17397   8.881   6.151   7.977  0.0236 -0.9672  0.5670
  127MOL0     C17398   8.942   6.225   8.098 -0.5366  0.2920 -1.0950
  127MOL0     C17399   8.865   6.354   8.154  0.4991  0.0251  0.2923
  127MOL0     C17400   8.828   6.325   8.296 -1.3544 -0.1115  1.1555
  127MOL0     C17401   8.931   6.370   8.401 -0.1500 -0.0870 -0.5974
  127MOL0     C17402   8.884   6.357   8.542 -0.4299  0.2922  0.1815
  127MOL0     C17403   8.983   6.404   8.643 -0.8996 -0.6217 -0.2022
  127MOL0     C17404   8.925   6.391   8.780 -0.0809 -0.0213  0.3953
  127MOL0     N17405   9.033   6.403   8.881 -0.0112 -0.2519 -0.1580
  127MOL0     C17406   9.043   6.318   8.987  0.9559  0.3947 -0.6727
  127MOL0     C17407   9.131   6.375   9.072 -1.2128  0.9625  1.1956
  127MOL0     C17408   9.169   6.331   9.212  0.3246 -0.5529  0.3229
  127MOL0     C17409   9.070   6.381   9.316  0.3791 -0.4751  0.4132
  127MOL0     C17410   9.066   6.303   9.448 -0.3747  0.0608 -0.0103
  127MOL0     C17411   9.206   6.286   9.501 -0.8085 -0.4335  0.0153
  127MOL0     O17412   9.193   6.217   9.624 -0.1844  0.1323 -0.0609
  127MOL0     C17413   9.243   6.269   9.742 -0.1348 -0.1690  0.9820
  127MOL0     C17414   9.372   6.247   9.788 -0.2554 -0.0635 -0.0970
  127MOL0     C17415   9.415   6.301   9.914  1.1555  0.9767  0.4685
  127MOL0     C17416   9.559   6.274   9.952  0.4435  1.1915  0.2220
  127MOL0     C17417   9.336   6.382   9.991 -0.7084 -0.5221  0.5787
  127MOL0     C17418   9.364   6.424  10.122 -0.1420  0.4804 -0.5975
  127MOL0     O17419   9.361   6.557  10.143  0.2226 -0.0462  0.2891
  127MOL0     C17420   9.359   6.609  10.268  0.2830  0.6656 -1.3432
  127MOL0     C17421   9.447   6.710  10.299  0.1253  0.4560  0.0235
  127MOL0     C17422   9.449   6.760  10.427  0.3642  0.0758 -1.0935
  127MOL0     C17423   9.370   6.712  10.532 -0.3828  0.0314  0.9525
  127MOL0     O17424   9.382   6.745  10.665  0.4686  0.6900 -1.0299
  127MOL0     C17425   9.411   6.878  10.685  0.3683 -1.0412 -0.1873
  127MOL0     C17426   9.382   6.921  10.823  0.1317  0.7951  0.1913
  127MOL0     C17427   9.348   7.074  10.834  0.4648  0.2062  0.8057
  127MOL0     C17428   9.460   7.166  10.780  0.1230 -0.3915 -0.2437
  127MOL0     C17429   9.431   7.317  10.796  0.6923  0.1192 -0.9514
  127MOL0     C17430   9.554   7.396  10.743  0.0795 -0.2778 -0.1113
  127MOL0     C17431   9.523   7.537  10.731  0.9245 -0.0713  0.0373
  127MOL0     C17432   9.633   7.622  10.678 -0.2097  0.0038 -0.6641
  127MOL0    Cl17433   9.570   7.766  10.597 -0.0244  0.0203  0.3502
  127MOL0     C17434   9.290   6.604  10.496 -0.7691 -0.1870  0.1507
  127MOL0     C17435   9.275   6.555  10.368 -0.0710  0.8031  0.2117
  127MOL0     O17436   9.367   6.333  10.212 -0.2440 -0.4334 -0.4954
  127MOL0     C17437   9.219   6.428   9.932  0.8447 -0.1820  0.0779
  127MOL0     C17438   9.177   6.373   9.809 -0.4150 -0.1246 -0.2380
  127MOL0     N17439   9.177   6.496   9.020  0.1972  0.1499  0.1157
  127MOL0     N17440   9.102   6.517   8.911  0.6552 -0.2648 -0.0312
  127MOL0     C17441   8.885   6.357   7.673  0.6357 -0.1731  0.3240
  127MOL0     C17442   8.844   6.360   7.537 -0.6378  0.1263 -0.4713
  127MOL0     C17443   8.617   6.191   7.152 -0.0512  0.9446 -0.1815
  127MOL0     C17444   8.684   6.289   7.076 -0.0246  0.2043 -0.0381
  127MOL0     C17445   8.659   6.304   6.939 -0.0015  0.2179 -0.2354
  127MOL0     C17446   8.574   6.224   6.877  1.2042  0.4295  0.2578
  127MOL0     O17447   8.532   6.250   6.741  0.2976 -0.0803 -0.0355
  127MOL0     C17448   8.441   6.157   6.672  0.0510 -0.1027  0.3492
  127MOL0     C17449   8.430   6.210   6.525  0.3158 -1.1717  0.3907
  127MOL0     C17450   8.406   6.361   6.515 -0.1782 -0.5303 -0.4230
  127MOL0     C17451   8.399   6.422   6.374 -0.0944  0.2106 -0.3621
  127MOL0     C17452   8.534   6.422   6.335 -0.4648 -0.4632  0.8241
  127MOL0     C17453   8.644   6.429   6.287  0.1257 -0.2664 -0.1055
  127MOL0     C17454   8.507   6.123   6.950 -0.0535 -0.3606 -0.5229
  127MOL0     C17455   8.533   6.100   7.085  0.7622 -1.3093 -0.7124
  127MOL0     C17456   8.449   5.997   7.154  0.5982 -0.0326 -0.2822
  127MOL0     H17457   8.696   6.055   7.525  2.0000 -0.3841 -0.9697
  127MOL0     H17458   8.759   6.048   7.753 -0.5003  0.2124  1.3572
  127MOL0     H17459   8.938   6.065   7.941 -0.2246 -1.4642  1.3381
  127MOL0     H17460   8.780   6.122   8.009 -1.0670  1.8138 -0.1260
  127MOL0     H17461   8.952   6.153   8.179  0.5882  0.7108 -0.8419
  127MOL0     H17462   9.037   6.267   8.062 -1.2971  2.9020 -0.3091
  127MOL0     H17463   8.929   6.443   8.148 -0.9483  1.0700 -0.3627
  127MOL0     H17464   8.776   6.377   8.094 -0.3527 -1.6898  0.8365
  127MOL0     H17465   8.740   6.386   8.318 -2.0814 -0.8254  0.2793
  127MOL0     H17466   8.802   6.219   8.302 -1.5439 -0.1943 -0.5763
  127MOL0     H17467   8.965   6.470   8.373  2.2658 -1.3929 -2.7886
  127MOL0     H17468   9.016   6.304   8.385  0.0396  0.2221 -0.8619
  127MOL0     H17469   8.795   6.416   8.562 -1.2087 -0.7924  0.0135
  127MOL0     H17470   8.868   6.250   8.556  1.7569 -0.0653  0.3666
  127MOL0     H17471   9.016   6.508   8.641  0.4296 -0.7578  4.2082
  127MOL0     H17472   9.074   6.344   8.645 -2.4826 -3.2167  2.4451
  127MOL0     H17473   8.844   6.464   8.791  0.4843  1.3994 -3.4226
  127MOL0     H17474   8.890   6.287   8.781 -1.1996  0.3430  1.0868
  127MOL0     H17475   8.983   6.229   8.998  1.0775  0.5001  1.0232
  127MOL0     H17476   9.266   6.366   9.248  0.7510 -1.0863 -0.2988
  127MOL0     H17477   9.166   6.222   9.221 -1.0027 -0.6441 -0.9733
  127MOL0     H17478   9.087   6.489   9.330 -4.2223  0.2973  1.5935
  127MOL0     H17479   8.972   6.361   9.273  0.5808 -1.2831  0.3070
  127MOL0     H17480   8.996   6.346   9.522 -0.8229  4.0480 -2.4537
  127MOL0     H17481   9.026   6.206   9.418 -0.1688  0.7904 -2.8550
  127MOL0     H17482   9.267   6.215   9.444  0.3128 -0.7114  1.5059
  127MOL0     H17483   9.253   6.384   9.513 -0.5475 -0.8171  2.6755
  127MOL0     H17484   9.444   6.186   9.734  3.3644  2.0352  1.9905
  127MOL0     H17485   9.584   6.279  10.058 -1.8605 -0.1941  0.8912
  127MOL0     H17486   9.618   6.336   9.884 -2.4409  0.9647 -2.7532
  127MOL0     H17487   9.567   6.166   9.933  3.9840  1.7539 -2.7767
  127MOL0     H17488   9.516   6.732  10.218  1.8019 -3.7234  0.0264
  127MOL0     H17489   9.521   6.841  10.438 -1.1638  1.5048 -1.3346
  127MOL0     H17490   9.518   6.885  10.663 -0.3755  2.3498 -3.7085
  127MOL0     H17491   9.357   6.944  10.617  1.0447 -1.7245 -1.4163
  127MOL0     H17492   9.299   6.866  10.870 -2.5858  3.3064 -1.3218
  127MOL0     H17493   9.474   6.898  10.878 -1.5549 -2.5023  1.9999
  127MOL0     H17494   9.317   7.086  10.938 -3.6842 -0.8071 -0.1144
  127MOL0     H17495   9.261   7.089  10.769 -0.3953 -1.9036  1.3734
  127MOL0     H17496   9.471   7.149  10.673 -3.5055 -2.0023 -0.5203
  127MOL0     H17497   9.551   7.146  10.836  0.7332  1.2336 -0.5982
  127MOL0     H17498   9.341   7.333  10.736  0.4995 -1.0659 -0.9838
  127MOL0     H17499   9.420   7.350  10.900  2.5746  1.5983 -1.1547
  127MOL0     H17500   9.586   7.352  10.648 -3.3098 -1.0372 -1.0363
  127MOL0     H17501   9.637   7.380  10.812  0.4210 -0.9324 -0.6631
  127MOL0     H17502   9.493   7.583  10.826 -0.0103 -0.3689 -0.0997
  127MOL0     H17503   9.441   7.550  10.659  2.5845 -1.1010 -2.1584
  127MOL0     H17504   9.683   7.557  10.605 -1.4910 -1.7945 -0.0182
  127MOL0     H17505   9.704   7.649  10.757 -1.8557 -1.3020  1.3534
  127MOL0     H17506   9.228   6.570  10.578 -0.2030  1.0736  1.1520
  127MOL0     H17507   9.225   6.462  10.345  1.1270  0.3705 -0.8145
  127MOL0     H17508   9.161   6.500   9.989  2.9032  1.1307  0.6564
  127MOL0     H17509   9.085   6.409   9.763 -1.0051 -1.3959 -0.0933
  127MOL0     H17510   8.927   6.451   7.708  2.0287 -1.5694  2.6529
  127MOL0     H17511   8.863   6.438   7.465  0.6835  1.6864  1.4430
  127MOL0     H17512   8.745   6.357   7.134 -1.7121  0.4042  1.6026
  127MOL0     H17513   8.680   6.388   6.873 -1.5934 -0.0363 -1.1037
  127MOL0     H17514   8.480   6.055   6.675  2.4157  0.7157 -0.6043
  127MOL0     H17515   8.344   6.164   6.723  0.2543  2.4017  0.5055
  127MOL0     H17516   8.345   6.152   6.487 -1.6593  1.6929  0.0653
  127MOL0     H17517   8.514   6.179   6.463 -1.8112 -2.4932 -2.0348
  127MOL0     H17518   8.309   6.392   6.555 -1.1465 -1.1633 -2.1614
  127MOL0     H17519   8.479   6.423   6.567 -2.8824  1.2411  1.5674
  127MOL0     H17520   8.365   6.525   6.362  1.6267  0.7762 -0.5777
  127MOL0     H17521   8.338   6.354   6.314 -0.0039 -1.5938  1.4808
  127MOL0     H17522   8.732   6.420   6.226 -0.5836 -4.9735 -0.7772
  127MOL0     H17523   8.451   6.044   6.901  2.0028 -0.2485 -3.3413
  127MOL0     H17524   8.366   6.050   7.201  1.0017 -0.2004  0.6610
  127MOL0     H17525   8.407   5.929   7.080  1.0574  0.1208 -0.6884
  127MOL0     H17526   8.487   5.939   7.239 -4.2571  1.0478  3.0049
  128MOL0     O17527   5.181   8.585   0.518  0.1547  0.0966  0.6918
  128MOL0     C17528   5.114   8.674   0.468  0.2541  1.2645  0.6316
  128MOL0     O17529   5.163   8.791   0.434 -0.1668 -0.6764 -0.3121
  128MOL0     C17530   5.294   8.812   0.458  0.1110  0.3959  0.1585
  128MOL0     C17531   5.392   8.807   0.350 -0.6507  0.1925 -0.7413
  128MOL0     C17532   5.527   8.829   0.382 -0.0036 -0.2103  1.1906
  128MOL0     C17533   5.568   8.853   0.514 -0.1124 -0.3681 -0.5469
  128MOL0     O17534   5.698   8.864   0.555  0.5274 -0.1289 -0.1979
  128MOL0     C17535   5.799   8.809   0.467  0.8670 -0.7257  0.1891
  128MOL0     C17536   5.850   8.939   0.389  0.6383 -0.5802 -0.1305
  128MOL0     C17537   5.957   8.913   0.294  0.9512 -0.5733 -0.0635
  128MOL0     C17538   5.932   8.815   0.184  0.9333  0.4862  0.3757
  128MOL0     C17539   6.054   8.781   0.098 -0.2342  0.3614 -0.0003
  128MOL0     C17540   6.010   8.698  -0.020  0.3040 -0.2364  0.2432
  128MOL0     C17541   6.119   8.626  -0.095  0.0454 -0.3700  0.4168
  128MOL0     C17542   6.157   8.483  -0.057 -0.2804  0.5433  0.1259
  128MOL0     N17543   6.210   8.471   0.076 -0.0070 -0.1245  0.5012
  128MOL0     C17544   6.328   8.530   0.107  0.5931 -0.2796 -0.7646
  128MOL0     C17545   6.338   8.518   0.241 -0.1708 -0.1911 -0.3711
  128MOL0     C17546   6.465   8.548   0.330 -0.1723  1.1407 -0.0115
  128MOL0     C17547   6.485   8.691   0.349 -1.0279 -1.1758  0.0636
  128MOL0     C17548   6.365   8.773   0.407 -0.2421  0.6303  0.0779
  128MOL0     C17549   6.344   8.748   0.563  0.1058  0.4120 -0.3434
  128MOL0     O17550   6.256   8.848   0.617 -0.2606  0.2531  0.5394
  128MOL0     C17551   6.215   8.843   0.750 -0.6818 -0.1575 -0.0045
  128MOL0     C17552   6.143   8.950   0.781 -0.3825  0.1072  0.1002
  128MOL0     C17553   6.079   8.960   0.903 -0.2386 -1.3712  0.5985
  128MOL0     C17554   5.982   9.082   0.926 -0.4170  0.7956  0.6187
  128MOL0     C17555   6.079   8.859   0.999 -0.1998 -0.5141  0.5647
  128MOL0     C17556   6.018   8.877   1.136 -0.4200  0.5526  0.0889
  128MOL0     O17557   5.992   8.764   1.204 -0.6947 -0.0637 -0.5493
  128MOL0     C17558   5.924   8.759   1.328  0.1172 -0.4779  0.0831
  128MOL0     C17559   5.796   8.811   1.334 -0.2340  0.0427  0.2172
  128MOL0     C17560   5.712   8.813   1.448 -0.2108 -0.4334  0.3800
  128MOL0     C17561   5.766   8.754   1.558  0.1411  0.3579 -0.5153
  128MOL0     O17562   5.707   8.759   1.682 -0.1963 -0.2807 -0.6991
  128MOL0     C17563   5.564   8.784   1.698 -0.1561 -1.0413 -0.9117
  128MOL0     C17564   5.541   8.943   1.700 -0.2167  0.6585  1.1393
  128MOL0     C17565   5.494   8.993   1.841  1.1460  0.2799 -0.7955
  128MOL0     C17566   5.613   9.018   1.942  0.2145 -1.2294 -0.1846
  128MOL0     C17567   5.569   9.086   2.075 -0.7304  0.3607  0.4687
  128MOL0     C17568   5.681   9.120   2.165  0.1491 -0.3776  0.4653
  128MOL0     C17569   5.627   9.179   2.301 -0.4239  0.6902  0.2167
  128MOL0     C17570   5.738   9.163   2.406  0.1900  0.0735  0.8510
  128MOL0    Cl17571   5.704   9.250   2.561  0.4094  0.0138 -0.0251
  128MOL0     C17572   5.891   8.683   1.543 -0.1573 -0.2747 -0.8596
  128MOL0     C17573   5.963   8.678   1.432 -0.2741 -0.0776 -0.0249
  128MOL0     O17574   6.024   8.981   1.198  0.1884  0.7650 -0.1562
  128MOL0     C17575   6.152   8.741   0.970  0.0300  0.1076 -1.0701
  128MOL0     C17576   6.228   8.735   0.842  0.3197 -0.3085  0.7951
  128MOL0     N17577   6.214   8.463   0.283  0.0030 -1.1925 -1.2131
  128MOL0     N17578   6.146   8.428   0.190  1.3631 -0.4099  1.5846
  128MOL0     C17579   5.482   8.852   0.616  0.3801 -1.3683 -0.0420
  128MOL0     C17580   5.347   8.833   0.586  0.0584  0.6660  0.4890
  128MOL0     C17581   4.970   8.650   0.442 -0.6196 -0.8136  0.2394
  128MOL0     C17582   4.888   8.759   0.454 -0.5685  0.0847 -0.7801
  128MOL0     C17583   4.754   8.745   0.429 -0.3815 -0.4861  0.5095
  128MOL0     C17584   4.697   8.627   0.388 -0.5833 -0.0011  0.6810
  128MOL0     O17585   4.573   8.624   0.359  0.4918  0.9117  0.4932
  128MOL0     C17586   4.488   8.573   0.461 -0.1898  0.1477 -1.2181
  128MOL0     C17587   4.424   8.433   0.414  0.3828  0.1769 -0.4503
  128MOL0     C17588   4.291   8.391   0.485 -0.1508 -0.0637  0.2353
  128MOL0     C17589   4.314   8.315   0.611  0.1334  0.2893 -0.5511
  128MOL0     C17590   4.312   8.400   0.734 -0.0989 -0.3266 -0.2478
  128MOL0     C17591   4.319   8.480   0.831  0.3069 -0.1911 -0.3190
  128MOL0     C17592   4.781   8.512   0.386 -0.3737  0.0677 -0.2690
  128MOL0     C17593   4.919   8.521   0.409  0.7148  0.2624 -0.1656
  128MOL0     C17594   5.003   8.396   0.388  0.3203  0.6653  0.1584
  128MOL0     H17595   5.362   8.783   0.248  1.4900  1.6855 -1.7981
  128MOL0     H17596   5.603   8.813   0.307 -1.6129  1.0436 -0.8242
  128MOL0     H17597   5.766   8.720   0.413 -2.5861 -0.5036  1.6889
  128MOL0     H17598   5.884   8.775   0.529  1.1898  1.5412  1.0890
  128MOL0     H17599   5.762   8.973   0.333 -2.2173 -4.8332  1.3009
  128MOL0     H17600   5.881   9.007   0.468 -1.1170 -2.1577  2.0300
  128MOL0     H17601   5.985   9.009   0.249 -2.0778  0.8887  0.9418
  128MOL0     H17602   6.037   8.876   0.359  0.6008  1.0622  1.3526
  128MOL0     H17603   5.879   8.724   0.212 -1.3474  1.7703  0.4729
  128MOL0     H17604   5.858   8.842   0.108 -1.4529  0.0006  2.3879
  128MOL0     H17605   6.128   8.728   0.158 -1.4228  1.0541  2.1829
  128MOL0     H17606   6.103   8.877   0.080 -3.2657  1.6084 -2.6698
  128MOL0     H17607   5.954   8.615   0.024  2.2692 -1.2849  0.8782
  128MOL0     H17608   5.948   8.755  -0.090 -0.9326 -0.6830  0.9312
  128MOL0     H17609   6.210   8.684  -0.111  1.1983 -2.3272 -0.5139
  128MOL0     H17610   6.082   8.612  -0.197  1.1353 -1.6871  0.1816
  128MOL0     H17611   6.066   8.427  -0.081 -0.3071  1.5212 -2.3276
  128MOL0     H17612   6.228   8.441  -0.129  1.4551  2.6221  0.5399
  128MOL0     H17613   6.400   8.584   0.045 -0.2829  1.2697 -0.4795
  128MOL0     H17614   6.550   8.481   0.310  0.0400  0.8678  1.6013
  128MOL0     H17615   6.453   8.511   0.433  3.0714 -3.1587 -0.8578
  128MOL0     H17616   6.573   8.720   0.407 -0.0949  0.3809 -1.9577
  128MOL0     H17617   6.512   8.728   0.249  0.8690  3.4100  1.9970
  128MOL0     H17618   6.387   8.875   0.374 -0.6100 -0.4298 -4.0493
  128MOL0     H17619   6.270   8.753   0.355 -0.1588 -1.5090  0.6459
  128MOL0     H17620   6.312   8.645   0.586  0.6452 -1.0085 -4.9974
  128MOL0     H17621   6.440   8.750   0.615  0.5579 -1.4565 -1.0074
  128MOL0     H17622   6.132   9.027   0.705  0.2520 -0.4256 -0.5464
  128MOL0     H17623   6.007   9.132   1.020  0.8997  2.0041 -0.3259
  128MOL0     H17624   5.881   9.043   0.941  0.3513 -1.5220  0.2108
  128MOL0     H17625   5.987   9.146   0.838 -3.2854  1.2037  0.6538
  128MOL0     H17626   5.751   8.840   1.240 -1.9441 -3.0274 -0.0276
  128MOL0     H17627   5.610   8.849   1.437  0.2940  1.3729  1.2260
  128MOL0     H17628   5.501   8.727   1.629  0.1038 -0.0031 -2.0425
  128MOL0     H17629   5.548   8.747   1.800  2.9360 -0.8361 -0.2312
  128MOL0     H17630   5.628   8.996   1.661 -0.4413 -0.1401 -0.5140
  128MOL0     H17631   5.459   8.952   1.629 -0.1055 -3.8826  0.1279
  128MOL0     H17632   5.418   8.926   1.883 -0.1888  2.0104 -0.3332
  128MOL0     H17633   5.451   9.093   1.833  2.0959  0.8231  0.4392
  128MOL0     H17634   5.681   9.088   1.893 -2.4257  3.2299  1.8612
  128MOL0     H17635   5.672   8.927   1.958  2.5223  0.2626  0.2069
  128MOL0     H17636   5.498   9.164   2.048  0.3568  0.2592 -3.2890
  128MOL0     H17637   5.524   9.002   2.129  5.1898 -3.4931  0.3063
  128MOL0     H17638   5.747   9.194   2.119 -1.1851 -0.5773 -1.9313
  128MOL0     H17639   5.747   9.033   2.181 -0.1414 -0.0203  5.1252
  128MOL0     H17640   5.538   9.117   2.319 -1.2361  1.2581 -1.5504
  128MOL0     H17641   5.596   9.282   2.283  0.9748  1.4331  1.7923
  128MOL0     H17642   5.825   9.210   2.359 -0.9523  0.0944 -1.3705
  128MOL0     H17643   5.768   9.058   2.420  0.3134 -0.0914 -0.5160
  128MOL0     H17644   5.943   8.627   1.620  0.8749 -3.2000 -3.4600
  128MOL0     H17645   6.056   8.627   1.413  0.4518  1.4583 -0.8323
  128MOL0     H17646   6.164   8.654   1.034  0.2999  1.0290  0.1618
  128MOL0     H17647   6.298   8.655   0.822 -0.0741 -0.1781 -1.3855
  128MOL0     H17648   5.524   8.854   0.716  1.4107  1.9323 -0.4261
  128MOL0     H17649   5.279   8.847   0.670 -1.4172  0.5755 -0.6518
  128MOL0     H17650   4.934   8.853   0.484  2.2421 -1.2406 -0.6131
  128MOL0     H17651   4.689   8.832   0.427 -2.5986 -1.9031  3.7637
  128MOL0     H17652   4.538   8.562   0.558 -1.7257  1.4540 -0.2113
  128MOL0     H17653   4.409   8.647   0.478  1.1499  1.2271  0.6989
  128MOL0     H17654   4.495   8.350   0.405 -1.0308 -0.9289 -1.8568
  128MOL0     H17655   4.393   8.458   0.312 -1.2206  1.2789  0.2685
  128MOL0     H17656   4.237   8.485   0.501  1.4453  0.8044  0.7094
  128MOL0     H17657   4.220   8.339   0.420  1.1257 -1.6406  0.0376
  128MOL0     H17658   4.409   8.262   0.612  1.1723  2.0848  0.6911
  128MOL0     H17659   4.240   8.234   0.619  0.5813 -0.0172  0.7827
  128MOL0     H17660   4.326   8.548   0.914 -0.1430  0.3848 -0.7415
  128MOL0     H17661   4.735   8.416   0.364  0.6363 -0.5072  0.0363
  128MOL0     H17662   4.937   8.328   0.335  0.1502  2.9295 -2.7410
  128MOL0     H17663   5.088   8.403   0.319  1.0581 -1.4321  0.7770
  128MOL0     H17664   5.033   8.345   0.480 -2.2147 -0.2003  0.5720
  129MOL0     O17665   2.542  10.211   8.701  0.1825  0.2394 -0.0225
  129MOL0     C17666   2.467  10.126   8.646 -0.3033  0.0297  0.4446
  129MOL0     O17667   2.345  10.087   8.688  0.0830 -0.4471  0.2866
  129MOL0     C17668   2.316  10.102   8.818 -0.1114  0.0993 -0.8633
  129MOL0     C17669   2.369  10.189   8.919  0.4629 -0.6558  0.7966
  129MOL0     C17670   2.340  10.178   9.052  0.0527  0.5140  0.1698
  129MOL0     C17671   2.258  10.078   9.095 -0.3953 -0.8371 -0.8478
  129MOL0     O17672   2.230  10.079   9.235 -0.3686 -0.3026 -1.1287
  129MOL0     C17673   2.322   9.992   9.305  0.3741 -0.5373  0.3516
  129MOL0     C17674   2.285   9.984   9.452  0.9190  0.4283 -0.4144
  129MOL0     C17675   2.134   9.955   9.475  1.2169 -0.2898 -0.8163
  129MOL0     C17676   2.064  10.087   9.526 -0.0137  0.4517  0.5282
  129MOL0     C17677   1.903  10.084   9.523 -0.8359 -0.1754 -0.4642
  129MOL0     C17678   1.841   9.953   9.592  1.0981 -0.0123 -0.2587
  129MOL0     C17679   1.689   9.991   9.612 -0.1324 -0.2373 -0.0504
  129MOL0     C17680   1.617   9.885   9.689  0.6789 -1.2701  0.1429
  129MOL0     N17681   1.605   9.766   9.612  0.1978 -0.0989 -0.4548
  129MOL0     C17682   1.517   9.753   9.508  0.8956 -0.5681  0.5061
  129MOL0     C17683   1.548   9.643   9.440  0.6074 -0.5436  0.0570
  129MOL0     C17684   1.460   9.586   9.331 -0.0692 -0.2337  1.2641
  129MOL0     C17685   1.307   9.587   9.362  0.0449 -0.3923  0.1694
  129MOL0     C17686   1.224   9.503   9.274 -0.4096 -0.0310 -0.4450
  129MOL0     C17687   1.079   9.538   9.240  0.7366  0.8479  0.5811
  129MOL0     O17688   1.040   9.459   9.122 -0.0798 -0.1579  0.2344
  129MOL0     C17689   1.044   9.517   8.990 -0.7862  0.0329 -0.4201
  129MOL0     C17690   1.096   9.641   8.951 -0.0191  0.7673  0.0485
  129MOL0     C17691   1.076   9.693   8.829 -0.1526 -0.7581  0.3904
  129MOL0     C17692   1.111   9.842   8.807 -0.1765 -0.2499 -0.1052
  129MOL0     C17693   1.016   9.612   8.732 -0.0044  0.5534 -0.9722
  129MOL0     C17694   0.991   9.663   8.591  0.0344 -0.5924 -0.4269
  129MOL0     O17695   0.898   9.606   8.516 -0.2791 -0.1862  0.0313
  129MOL0     C17696   0.887   9.631   8.383 -0.8869  0.1613  1.3504
  129MOL0     C17697   0.761   9.605   8.328  0.5433 -0.0462 -0.4593
  129MOL0     C17698   0.736   9.623   8.187  0.8285  0.2905 -0.7414
  129MOL0     C17699   0.840   9.654   8.096  0.6150 -0.2013 -0.7750
  129MOL0     O17700   0.819   9.680   7.966 -0.1373  0.3299 -0.1600
  129MOL0     C17701   0.905   9.642   7.861  0.0423 -0.2896  0.0596
  129MOL0     C17702   0.846   9.687   7.731 -1.4887  0.0302  0.0650
  129MOL0     C17703   0.715   9.620   7.701 -0.4185  0.4625 -0.4768
  129MOL0     C17704   0.683   9.628   7.559 -0.0845 -0.9273 -0.0344
  129MOL0     C17705   0.540   9.593   7.530  0.3306  0.0936 -0.1556
  129MOL0     C17706   0.513   9.534   7.396  0.2038 -0.4390  0.3566
  129MOL0     C17707   0.367   9.480   7.403  0.2574 -0.2619  0.1759
  129MOL0     C17708   0.308   9.462   7.254  0.4668 -0.4103 -0.3442
  129MOL0    Cl17709   0.129   9.466   7.283 -0.1942  0.1225  0.0727
  129MOL0     C17710   0.969   9.658   8.159 -0.2714 -0.2031  0.0004
  129MOL0     C17711   0.993   9.653   8.294 -0.1662 -0.8304 -0.2112
  129MOL0     O17712   1.076   9.748   8.547  0.2539 -0.3312 -0.3142
  129MOL0     C17713   0.979   9.489   8.770  0.4886  0.3816  0.4073
  129MOL0     C17714   0.999   9.428   8.895  0.5743 -0.4929  0.0505
  129MOL0     N17715   1.653   9.578   9.505 -0.5789 -0.3222  0.3188
  129MOL0     N17716   1.692   9.653   9.613 -0.1155 -0.5705 -0.1844
  129MOL0     C17717   2.196   9.992   9.008 -0.3156  0.1559  0.2359
  129MOL0     C17718   2.234   9.999   8.866 -0.6711  0.5459 -0.6497
  129MOL0     C17719   2.520  10.044   8.537  0.5740 -0.7263  0.1485
  129MOL0     C17720   2.493   9.905   8.522 -0.0430  0.4213  0.2182
  129MOL0     C17721   2.565   9.836   8.436 -0.1649  0.0842 -0.2394
  129MOL0     C17722   2.660   9.889   8.352 -0.0076  0.3078 -0.1545
  129MOL0     O17723   2.718   9.796   8.268  0.6799 -0.1562  0.3975
  129MOL0     C17724   2.728   9.808   8.125 -0.1393  0.4681 -1.4105
  129MOL0     C17725   2.601   9.780   8.049  0.6511  0.4087 -0.1906
  129MOL0     C17726   2.539   9.651   8.106  0.0391 -0.1156 -0.1413
  129MOL0     C17727   2.430   9.606   8.009 -0.9074 -0.0198  0.0461
  129MOL0     C17728   2.356   9.500   8.076 -0.8744  0.3495 -0.1963
  129MOL0     C17729   2.313   9.426   8.158  0.0649 -0.1761 -0.2655
  129MOL0     C17730   2.677  10.023   8.344 -0.3441  0.8221  0.3327
  129MOL0     C17731   2.603  10.102   8.433 -0.4937  0.2667 -0.4604
  129MOL0     C17732   2.634  10.254   8.418 -0.7642  0.7495 -0.1341
  129MOL0     H17733   2.433  10.273   8.894 -0.0365 -0.1844  1.0856
  129MOL0     H17734   2.401  10.245   9.112  0.2566  3.4808 -2.9709
  129MOL0     H17735   2.419  10.043   9.303 -1.1968  2.6606 -0.3453
  129MOL0     H17736   2.326   9.889   9.266 -2.5411 -0.6432  0.1356
  129MOL0     H17737   2.343   9.907   9.503  2.7260  0.3299 -2.4882
  129MOL0     H17738   2.323  10.075   9.499  2.0745 -0.2023 -0.0793
  129MOL0     H17739   2.078   9.916   9.389 -0.8360 -0.8409  0.6837
  129MOL0     H17740   2.108   9.885   9.555  0.0550  2.2806  1.1893
  129MOL0     H17741   2.093  10.113   9.628 -0.9704  2.8398  0.2450
  129MOL0     H17742   2.091  10.167   9.457 -2.5226  1.1068  0.2075
  129MOL0     H17743   1.864  10.090   9.421 -0.4734 -0.5140 -0.6255
  129MOL0     H17744   1.874  10.178   9.569 -2.2286 -1.3640  1.2164
  129MOL0     H17745   1.855   9.866   9.527  1.7457 -0.3663  0.3466
  129MOL0     H17746   1.901   9.946   9.683  1.4048 -0.6786 -0.5048
  129MOL0     H17747   1.647  10.013   9.514  1.5769 -1.4002 -1.0848
  129MOL0     H17748   1.685  10.083   9.672  0.4819 -0.0848 -0.2362
  129MOL0     H17749   1.689   9.853   9.765  1.1739 -2.0122 -0.6166
  129MOL0     H17750   1.519   9.903   9.735  0.0034 -2.4996 -0.7662
  129MOL0     H17751   1.433   9.819   9.488  1.0864 -0.3354  0.4648
  129MOL0     H17752   1.487   9.480   9.334 -0.0028 -0.1965  2.4550
  129MOL0     H17753   1.497   9.635   9.240 -2.2087 -1.3081 -0.2709
  129MOL0     H17754   1.292   9.561   9.467 -1.1073  1.0474  0.4034
  129MOL0     H17755   1.282   9.693   9.348  2.5334  0.0355 -1.7311
  129MOL0     H17756   1.271   9.483   9.178  1.7078  2.7939 -0.1251
  129MOL0     H17757   1.211   9.409   9.328  0.5006 -0.4165 -0.8783
  129MOL0     H17758   1.024   9.521   9.333 -0.8994  3.9802  0.3225
  129MOL0     H17759   1.074   9.645   9.218  0.5700  0.6724 -0.2789
  129MOL0     H17760   1.140   9.694   9.035 -2.1452 -0.6594  2.1694
  129MOL0     H17761   1.133   9.895   8.900 -0.6617 -0.0852 -0.0799
  129MOL0     H17762   1.025   9.880   8.752 -2.9277 -1.7475  2.7975
  129MOL0     H17763   1.194   9.846   8.736 -0.5913  1.1981 -0.5448
  129MOL0     H17764   0.679   9.575   8.392 -1.4284  0.8320 -2.4229
  129MOL0     H17765   0.635   9.611   8.148  1.3825 -3.0891 -1.4751
  129MOL0     H17766   0.994   9.705   7.872 -0.3636  0.7807 -2.3140
  129MOL0     H17767   0.921   9.534   7.868 -0.6343 -0.3329  1.1592
  129MOL0     H17768   0.835   9.795   7.725 -0.7279  0.0377 -1.9819
  129MOL0     H17769   0.918   9.652   7.656 -0.3173  1.4643  0.4769
  129MOL0     H17770   0.641   9.669   7.765 -1.1063 -0.5738 -0.4486
  129MOL0     H17771   0.729   9.517   7.736  1.6185  0.1039 -2.1160
  129MOL0     H17772   0.751   9.563   7.503 -1.6513 -2.0548 -0.7320
  129MOL0     H17773   0.703   9.727   7.516  1.3524 -0.7553  0.9527
  129MOL0     H17774   0.511   9.523   7.609  2.3477  0.8440  1.3477
  129MOL0     H17775   0.484   9.687   7.534 -0.3904 -0.3659  1.5846
  129MOL0     H17776   0.590   9.464   7.360  1.6765  0.5684  1.4350
  129MOL0     H17777   0.512   9.623   7.333  2.0785 -1.6369 -1.5055
  129MOL0     H17778   0.299   9.549   7.453 -2.6022 -3.9662  1.9527
  129MOL0     H17779   0.360   9.385   7.458 -0.2177 -0.0369  0.5132
  129MOL0     H17780   0.342   9.379   7.192  0.0516  0.5673 -1.9367
  129MOL0     H17781   0.343   9.556   7.212  1.7276 -0.7202 -0.0261
  129MOL0     H17782   1.061   9.681   8.106  0.0564 -1.7333 -0.1470
  129MOL0     H17783   1.095   9.664   8.328 -0.6722 -0.4029  1.2489
  129MOL0     H17784   0.925   9.425   8.700 -1.3621  0.5639  1.6055
  129MOL0     H17785   0.970   9.326   8.922  4.2061 -1.2844  1.5476
  129MOL0     H17786   2.124   9.923   9.052  0.6936 -1.1652 -0.1327
  129MOL0     H17787   2.194   9.940   8.785  3.4366 -1.6734 -1.3197
  129MOL0     H17788   2.424   9.853   8.587  2.5796 -1.1557  1.9304
  129MOL0     H17789   2.548   9.729   8.430  2.0162 -0.4370  1.5763
  129MOL0     H17790   2.753   9.910   8.094 -0.8359  0.6243 -1.4803
  129MOL0     H17791   2.803   9.735   8.092  1.6204  0.9507  1.2785
  129MOL0     H17792   2.627   9.768   7.944  2.6501 -1.5781  0.4570
  129MOL0     H17793   2.537   9.868   8.059 -1.1456 -0.5065 -2.8778
  129MOL0     H17794   2.619   9.576   8.109  1.4155  1.3455  1.8087
  129MOL0     H17795   2.505   9.664   8.209  0.1289  1.0727 -0.2558
  129MOL0     H17796   2.466   9.563   7.915 -0.9250  3.3541 -1.6235
  129MOL0     H17797   2.357   9.684   7.984 -1.6600 -0.8057 -0.2841
  129MOL0     H17798   2.272   9.361   8.233 -2.5103 -2.9804 -3.7770
  129MOL0     H17799   2.748  10.062   8.271 -1.4815  1.7218 -0.3221
  129MOL0     H17800   2.675  10.293   8.511 -0.4457 -0.5769  0.3042
  129MOL0     H17801   2.713  10.270   8.343 -0.6036  2.3862  0.3374
  129MOL0     H17802   2.556  10.321   8.381  0.0022 -0.0950 -3.7489
  130MOL0     O17803   7.293   3.066   0.401  0.1082 -0.2432  0.3785
  130MOL0     C17804   7.380   3.075   0.486 -0.3238  0.4240 -0.2014
  130MOL0     O17805   7.454   3.185   0.520 -0.2075  0.3201  0.1335
  130MOL0     C17806   7.420   3.303   0.453  0.4425  0.1053  0.4824
  130MOL0     C17807   7.444   3.318   0.311  0.0337  0.2980  0.0677
  130MOL0     C17808   7.411   3.441   0.250 -0.1044  0.5861 -0.1541
  130MOL0     C17809   7.344   3.535   0.320 -0.6878  0.9040 -0.1516
  130MOL0     O17810   7.296   3.643   0.242  0.4867  0.6903 -1.6448
  130MOL0     C17811   7.193   3.736   0.285 -0.3675  0.6696 -0.2895
  130MOL0     C17812   7.156   3.829   0.168  0.5763 -0.7676 -0.2401
  130MOL0     C17813   7.263   3.933   0.147 -0.4342  0.6744  0.3822
  130MOL0     C17814   7.212   4.059   0.076 -0.2313  0.2498  0.3076
  130MOL0     C17815   7.144   4.025  -0.061  0.1751 -0.1766  0.1003
  130MOL0     C17816   7.221   3.935  -0.160 -0.0788 -0.0664  0.3294
  130MOL0     C17817   7.305   4.027  -0.251 -0.3416  0.4940  0.2191
  130MOL0     C17818   7.412   3.936  -0.334 -0.1805  1.0432  0.7425
  130MOL0     N17819   7.531   3.910  -0.256 -0.5037  0.2373  0.3048
  130MOL0     C17820   7.617   4.005  -0.199 -0.0881 -0.3695  0.5918
  130MOL0     C17821   7.702   3.934  -0.122 -0.1840  0.2148 -0.2031
  130MOL0     C17822   7.821   3.974  -0.041 -0.6063  0.0965 -0.0010
  130MOL0     C17823   7.891   4.109  -0.072 -0.4015 -0.3385  0.0151
  130MOL0     C17824   7.796   4.220  -0.028 -0.8596  0.5083 -0.1459
  130MOL0     C17825   7.875   4.354   0.004  0.2129 -1.5751  0.2923
  130MOL0     O17826   7.952   4.402  -0.109  0.3831  0.0777  0.9395
  130MOL0     C17827   7.892   4.473  -0.213 -0.1883  0.2779 -1.0359
  130MOL0     C17828   7.937   4.467  -0.348 -0.4667 -0.1020  0.3910
  130MOL0     C17829   7.874   4.540  -0.452  1.0322 -0.5048  1.7880
  130MOL0     C17830   7.921   4.508  -0.593  0.7638  0.3627  0.1574
  130MOL0     C17831   7.761   4.627  -0.421 -0.5107 -0.4139  0.2830
  130MOL0     C17832   7.677   4.688  -0.529  1.1478 -0.2113 -0.1594
  130MOL0     O17833   7.594   4.785  -0.493 -0.0102 -0.3304 -0.3731
  130MOL0     C17834   7.521   4.855  -0.587 -0.4261  0.3324  0.2180
  130MOL0     C17835   7.578   4.921  -0.700  0.3600  0.4810 -0.3519
  130MOL0     C17836   7.488   4.985  -0.791 -0.0647 -0.6583 -0.5733
  130MOL0     C17837   7.352   4.995  -0.770  0.1910 -0.4715  0.1252
  130MOL0     O17838   7.279   5.067  -0.865  0.0916  0.1905 -0.0168
  130MOL0     C17839   7.156   5.124  -0.828  0.0112  0.0262  0.2579
  130MOL0     C17840   7.136   5.249  -0.912  0.2121 -0.8849 -0.1166
  130MOL0     C17841   7.255   5.338  -0.931 -0.2111 -1.0230  0.2784
  130MOL0     C17842   7.221   5.443  -1.038 -0.2917  0.8033 -0.5408
  130MOL0     C17843   7.321   5.562  -1.031  0.1199 -0.3472  0.7535
  130MOL0     C17844   7.312   5.648  -1.163  1.3006 -0.2454 -0.8659
  130MOL0     C17845   7.428   5.747  -1.184  0.1403  0.6323 -0.2051
  130MOL0     C17846   7.405   5.894  -1.176 -0.0652 -0.1905 -0.6244
  130MOL0    Cl17847   7.297   5.945  -1.317 -0.0614  0.3447  0.2360
  130MOL0     C17848   7.305   4.930  -0.665  1.0532 -1.0960  0.9194
  130MOL0     C17849   7.381   4.863  -0.566 -0.6091 -0.8687 -0.5573
  130MOL0     O17850   7.679   4.635  -0.642 -1.1406  1.1928 -0.7170
  130MOL0     C17851   7.723   4.643  -0.290 -0.0460  0.6346 -0.7091
  130MOL0     C17852   7.795   4.568  -0.184  0.1674 -0.1888 -0.3921
  130MOL0     N17853   7.668   3.804  -0.136  0.0353  0.2319  0.1258
  130MOL0     N17854   7.567   3.786  -0.210 -0.2465 -0.1723 -0.4232
  130MOL0     C17855   7.315   3.516   0.461 -0.2183  0.2558 -0.7589
  130MOL0     C17856   7.348   3.399   0.525 -0.5385  0.2996 -0.3696
  130MOL0     C17857   7.413   2.944   0.556  0.0571  0.0890 -0.5016
  130MOL0     C17858   7.518   2.938   0.648  0.0959 -1.0018 -0.7056
  130MOL0     C17859   7.559   2.821   0.722  1.0858  0.2357  0.4134
  130MOL0     C17860   7.499   2.699   0.690  0.7555  0.2093  0.3964
  130MOL0     O17861   7.531   2.584   0.753 -0.1161  0.5880 -0.4189
  130MOL0     C17862   7.655   2.585   0.819 -0.5001 -1.5151 -0.0779
  130MOL0     C17863   7.685   2.443   0.877  0.3240 -0.4589  0.4124
  130MOL0     C17864   7.720   2.348   0.764  0.1542  0.3373 -1.0673
  130MOL0     C17865   7.773   2.223   0.840 -0.3165 -0.1664  0.7246
  130MOL0     C17866   7.858   2.148   0.746 -0.0701 -0.0748  0.8099
  130MOL0     C17867   7.927   2.087   0.662  0.2018  0.1016 -0.6680
  130MOL0     C17868   7.393   2.705   0.596 -0.4103  0.4362 -1.3481
  130MOL0     C17869   7.347   2.821   0.530  0.1557  0.6462  0.4250
  130MOL0     C17870   7.236   2.790   0.423  0.5557 -0.4660 -0.9620
  130MOL0     H17871   7.495   3.238   0.258  1.0996  0.2710  1.0757
  130MOL0     H17872   7.413   3.452   0.142 -1.9149 -0.7125 -0.3703
  130MOL0     H17873   7.234   3.795   0.368 -0.4982 -0.5793  0.6913
  130MOL0     H17874   7.111   3.673   0.320 -0.4076 -0.1358 -1.7442
  130MOL0     H17875   7.140   3.781   0.071  1.0084 -0.0555 -0.6706
  130MOL0     H17876   7.065   3.885   0.193  0.7289  0.3450 -2.0183
  130MOL0     H17877   7.309   3.958   0.243 -0.9458 -1.1091  1.1351
  130MOL0     H17878   7.345   3.886   0.092 -0.8999 -0.5751  0.7173
  130MOL0     H17879   7.148   4.102   0.154  0.7774  0.8152  0.8558
  130MOL0     H17880   7.301   4.121   0.063 -0.0945  0.0207  0.1537
  130MOL0     H17881   7.125   4.112  -0.124  0.4452 -1.0306 -1.2192
  130MOL0     H17882   7.046   3.985  -0.033 -0.1054  1.5369  1.6721
  130MOL0     H17883   7.283   3.865  -0.104  0.0074  1.6623  2.5541
  130MOL0     H17884   7.156   3.875  -0.224 -0.0546 -3.8311  3.4512
  130MOL0     H17885   7.364   4.106  -0.204  1.2786 -0.8600  0.5243
  130MOL0     H17886   7.235   4.085  -0.313  0.2123  1.2699  0.3072
  130MOL0     H17887   7.371   3.837  -0.356  1.9380 -0.3355  2.5913
  130MOL0     H17888   7.430   3.995  -0.424 -4.4476  4.6879  1.9497
  130MOL0     H17889   7.609   4.113  -0.211  0.1435 -0.5223 -1.3804
  130MOL0     H17890   7.893   3.892  -0.038 -0.7329 -0.0047  0.5443
  130MOL0     H17891   7.800   3.981   0.066  2.6310 -1.2087  0.8418
  130MOL0     H17892   7.983   4.117  -0.014 -2.2087  2.2112  2.8218
  130MOL0     H17893   7.919   4.111  -0.178 -0.5064  1.3388 -0.0090
  130MOL0     H17894   7.721   4.235  -0.106  0.0192 -3.0819 -1.8794
  130MOL0     H17895   7.751   4.200   0.069 -0.4146 -0.7743 -0.1824
  130MOL0     H17896   7.808   4.438   0.022 -0.0069 -1.2699 -1.6840
  130MOL0     H17897   7.940   4.346   0.091 -1.7374  3.1762  2.5290
  130MOL0     H17898   8.021   4.402  -0.372 -1.8553 -1.7908 -0.1964
  130MOL0     H17899   7.950   4.591  -0.658  0.6757  3.1545  3.3947
  130MOL0     H17900   7.859   4.435  -0.646  3.3107 -1.8911  0.0820
  130MOL0     H17901   8.018   4.459  -0.587  0.8630  0.6880  1.5679
  130MOL0     H17902   7.685   4.917  -0.717  0.8358  1.8570  1.8003
  130MOL0     H17903   7.527   5.050  -0.869  1.4609 -0.0068  0.6890
  130MOL0     H17904   7.082   5.045  -0.842  1.6685 -1.3052 -1.5714
  130MOL0     H17905   7.153   5.157  -0.724 -2.4891 -0.3247  0.3593
  130MOL0     H17906   7.099   5.219  -1.011  2.7475 -0.9046 -1.1230
  130MOL0     H17907   7.052   5.308  -0.874  0.2781  0.2382 -1.6400
  130MOL0     H17908   7.338   5.284  -0.978  0.5243 -0.4272  0.8640
  130MOL0     H17909   7.284   5.384  -0.836 -0.1216 -3.1472  1.3350
  130MOL0     H17910   7.116   5.473  -1.026 -0.1152  2.4329 -2.4579
  130MOL0     H17911   7.223   5.401  -1.139 -3.2928  1.3488 -0.9388
  130MOL0     H17912   7.309   5.634  -0.949  3.4617  2.5872 -1.0608
  130MOL0     H17913   7.422   5.520  -1.027  0.1872 -0.2584  0.0295
  130MOL0     H17914   7.224   5.711  -1.150  1.4437 -0.1179 -0.4833
  130MOL0     H17915   7.313   5.577  -1.246 -4.4251 -1.6880 -0.1490
  130MOL0     H17916   7.467   5.739  -1.286 -1.2306  0.6797 -0.7545
  130MOL0     H17917   7.505   5.721  -1.112 -1.6858 -2.2359  0.8836
  130MOL0     H17918   7.495   5.955  -1.190 -0.7199  1.0829  0.5333
  130MOL0     H17919   7.346   5.918  -1.088 -0.9644 -3.8600 -0.0607
  130MOL0     H17920   7.198   4.939  -0.649  1.2734  1.6480  1.2907
  130MOL0     H17921   7.334   4.813  -0.482 -0.7902  0.7764  0.3501
  130MOL0     H17922   7.644   4.711  -0.262  0.3932  1.3255 -1.1194
  130MOL0     H17923   7.757   4.607  -0.090 -0.4897 -0.2353 -0.6349
  130MOL0     H17924   7.257   3.586   0.521 -0.8526 -0.9452  0.0640
  130MOL0     H17925   7.341   3.377   0.631 -1.6272  1.3854 -0.1906
  130MOL0     H17926   7.554   3.036   0.676 -1.4631 -0.9009  1.2205
  130MOL0     H17927   7.606   2.835   0.819 -4.7417 -1.3330  3.9726
  130MOL0     H17928   7.736   2.621   0.755  2.8406 -4.0030  2.3808
  130MOL0     H17929   7.661   2.649   0.907  3.8798  2.0602 -2.5390
  130MOL0     H17930   7.604   2.405   0.939 -1.5510  1.3029 -0.8557
  130MOL0     H17931   7.773   2.457   0.941  0.0907  2.0875  0.2834
  130MOL0     H17932   7.625   2.318   0.718 -0.6819 -1.3284  1.5665
  130MOL0     H17933   7.784   2.392   0.687  2.6204 -0.4469  0.4402
  130MOL0     H17934   7.696   2.158   0.883  0.0945 -1.4130 -0.3414
  130MOL0     H17935   7.847   2.248   0.916 -1.3177  1.2466  1.2820
  130MOL0     H17936   7.979   2.033   0.586 -2.7157 -1.4355 -1.7246
  130MOL0     H17937   7.363   2.606   0.562 -1.4914  1.4235 -3.4865
  130MOL0     H17938   7.199   2.689   0.440  1.0118 -0.0683  3.8639
  130MOL0     H17939   7.146   2.852   0.432 -1.7592 -3.6703 -0.3638
  130MOL0     H17940   7.279   2.807   0.324 -2.7007 -1.7475 -2.7716
  131MOL0     O17941   8.450   9.772   0.789 -0.9935  0.7261  0.4687
  131MOL0     C17942   8.516   9.860   0.842  0.0768 -1.0882 -0.8854
  131MOL0     O17943   8.634   9.847   0.908 -0.2734 -0.4540 -0.2758
  131MOL0     C17944   8.701   9.722   0.913  1.0302  0.4940 -0.1430
  131MOL0     C17945   8.812   9.717   1.003  0.9974 -0.3041  0.7466
  131MOL0     C17946   8.906   9.610   1.016 -0.1187 -0.1724 -0.9176
  131MOL0     C17947   8.893   9.501   0.932  1.3986  0.1200  0.3506
  131MOL0     O17948   8.967   9.389   0.929 -0.1525  0.6307  0.6306
  131MOL0     C17949   9.097   9.412   0.984 -0.5911  0.5456 -0.0785
  131MOL0     C17950   9.189   9.303   0.934 -0.2709 -0.2813 -0.4688
  131MOL0     C17951   9.335   9.321   0.977  0.0885 -0.0032 -1.0607
  131MOL0     C17952   9.426   9.213   0.928 -0.1639  0.0286 -0.5327
  131MOL0     C17953   9.561   9.203   1.012 -0.3260 -0.1988 -0.0494
  131MOL0     C17954   9.640   9.338   1.025  0.5991 -0.2375  1.3001
  131MOL0     C17955   9.657   9.420   0.899  0.5307 -0.4790  0.0579
  131MOL0     C17956   9.772   9.360   0.814  0.0119  0.2585 -0.4947
  131MOL0     N17957   9.782   9.432   0.685  0.9585  0.0057  0.0844
  131MOL0     C17958   9.895   9.485   0.626 -0.1449  0.0171  0.4521
  131MOL0     C17959   9.854   9.556   0.516 -0.5357  0.0997  0.6704
  131MOL0     C17960   9.951   9.607   0.418 -0.7784 -0.2806  0.5119
  131MOL0     C17961   9.996   9.756   0.457 -0.5545  0.7503  0.5554
  131MOL0     C17962  10.090   9.767   0.583  0.2557  0.7624  0.3634
  131MOL0     C17963  10.013   9.845   0.683  0.1903 -0.5782 -0.1480
  131MOL0     O17964  10.093   9.887   0.794  0.1991  0.1635 -0.2908
  131MOL0     C17965  10.061   9.824   0.919  0.0194  0.2254  0.3839
  131MOL0     C17966  10.116   9.870   1.032  0.1199 -0.4715  0.4030
  131MOL0     C17967  10.116   9.805   1.157  0.0112 -0.7294  0.4297
  131MOL0     C17968  10.193   9.856   1.262  0.0844 -0.3188 -0.7069
  131MOL0     C17969  10.047   9.685   1.171 -0.4743  0.0895 -0.5150
  131MOL0     C17970  10.028   9.611   1.300  0.9509  0.0282 -0.4866
  131MOL0     O17971   9.914   9.530   1.303 -0.8615  0.3068 -0.9703
  131MOL0     C17972   9.869   9.468   1.413  0.4720 -1.3163 -0.0512
  131MOL0     C17973   9.726   9.434   1.416 -0.5769  0.1512 -0.7081
  131MOL0     C17974   9.668   9.361   1.517 -0.2003  1.0360 -0.2865
  131MOL0     C17975   9.736   9.335   1.635 -0.4149 -0.0046 -1.1238
  131MOL0     O17976   9.688   9.268   1.744  0.0314  0.6965 -0.0638
  131MOL0     C17977   9.544   9.248   1.765 -0.1088 -0.1635 -0.4748
  131MOL0     C17978   9.523   9.216   1.918  1.1622  0.4633 -0.5336
  131MOL0     C17979   9.376   9.209   1.949  0.2720  0.1192 -0.1681
  131MOL0     C17980   9.331   9.109   2.055  0.1397  0.0302  0.8235
  131MOL0     C17981   9.182   9.129   2.090  0.2570 -0.6872 -0.1132
  131MOL0     C17982   9.161   9.017   2.204  0.1727 -0.2184  0.8315
  131MOL0     C17983   9.016   8.998   2.210 -0.1109  0.4370 -0.5222
  131MOL0     C17984   8.976   8.879   2.128  0.8975  0.4763  0.3566
  131MOL0    Cl17985   9.057   8.722   2.187  0.1224 -0.3194 -0.2734
  131MOL0     C17986   9.870   9.371   1.639 -0.9702 -0.4043 -0.1337
  131MOL0     C17987   9.936   9.431   1.533 -0.1955  0.3902  0.5893
  131MOL0     O17988  10.111   9.613   1.385 -0.0803  0.1198 -0.4211
  131MOL0     C17989   9.982   9.636   1.055  1.0173 -0.0050  0.3890
  131MOL0     C17990   9.999   9.697   0.934 -0.3543  0.7444  0.3702
  131MOL0     N17991   9.716   9.553   0.512  0.8875  0.1049 -0.2967
  131MOL0     N17992   9.675   9.475   0.607  0.8343 -0.3164  0.6316
  131MOL0     C17993   8.781   9.497   0.841 -0.3032  0.4634  0.9932
  131MOL0     C17994   8.688   9.602   0.828  0.0995 -0.2560  0.6748
  131MOL0     C17995   8.452  10.006   0.852  0.0793  0.9387  0.4201
  131MOL0     C17996   8.319  10.012   0.893 -0.5279  0.0806  0.5319
  131MOL0     C17997   8.247  10.129   0.932 -0.1146 -0.6955 -1.1559
  131MOL0     C17998   8.321  10.258   0.932 -0.6002 -0.3577 -0.3630
  131MOL0     O17999   8.280  10.382   0.975 -0.1528 -0.5576 -0.4338
  131MOL0     C18000   8.182  10.390   1.076 -0.2573  0.6811  0.6446
  131MOL0     C18001   8.054  10.413   0.995  0.0457 -0.2820  0.0444
  131MOL0     C18002   7.933  10.402   1.095 -0.3111 -0.3478  0.2402
  131MOL0     C18003   7.824  10.495   1.063  0.1097  0.4220 -0.2319
  131MOL0     C18004   7.762  10.465   0.939 -0.0905 -0.3492  0.8896
  131MOL0     C18005   7.691  10.469   0.836 -0.3443  0.1027  0.0052
  131MOL0     C18006   8.452  10.249   0.886  0.3756  0.1211 -0.2347
  131MOL0     C18007   8.517  10.130   0.850  0.0435 -0.2643  0.4532
  131MOL0     C18008   8.669  10.133   0.827 -0.2196 -0.8990  0.3279
  131MOL0     H18009   8.821   9.808   1.061 -2.1403  1.3381 -1.0210
  131MOL0     H18010   8.982   9.623   1.092 -1.3994 -0.7108  0.5171
  131MOL0     H18011   9.089   9.412   1.094  1.6057 -0.4912  0.1226
  131MOL0     H18012   9.150   9.504   0.959  5.7306 -2.6259 -0.2296
  131MOL0     H18013   9.138   9.218   0.980 -1.0257  0.2648 -0.2722
  131MOL0     H18014   9.191   9.287   0.826  1.2154  3.1467 -1.0578
  131MOL0     H18015   9.364   9.418   0.938  0.1502  1.2650  1.8321
  131MOL0     H18016   9.335   9.330   1.086 -3.4864 -1.3078 -0.8026
  131MOL0     H18017   9.374   9.117   0.936  3.2147 -2.0214 -0.9700
  131MOL0     H18018   9.453   9.228   0.823 -0.3856  0.0608 -0.5848
  131MOL0     H18019   9.612   9.132   0.947 -1.8521 -0.1847 -1.3003
  131MOL0     H18020   9.537   9.159   1.110  1.6482  0.0763  0.6036
  131MOL0     H18021   9.598   9.400   1.105  0.2487 -0.3427  1.2008
  131MOL0     H18022   9.743   9.315   1.053  1.5397  0.2409 -1.5200
  131MOL0     H18023   9.700   9.516   0.929 -1.7336 -0.0174  2.0665
  131MOL0     H18024   9.561   9.434   0.848 -0.4935 -1.1430  1.7295
  131MOL0     H18025   9.868   9.363   0.867 -0.9050 -1.4061  1.4081
  131MOL0     H18026   9.751   9.254   0.798  5.1379 -0.8175 -1.7646
  131MOL0     H18027  10.000   9.473   0.651 -0.1048  3.4926  2.6183
  131MOL0     H18028   9.907   9.616   0.318  0.0767  0.1509  0.1663
  131MOL0     H18029  10.036   9.540   0.409 -0.8547 -0.7822  3.0171
  131MOL0     H18030  10.057   9.785   0.371  1.3691  0.4696  1.7648
  131MOL0     H18031   9.904   9.814   0.454  0.2180  2.0031 -2.6843
  131MOL0     H18032  10.120   9.670   0.624  2.4868  1.6682  1.0286
  131MOL0     H18033  10.185   9.814   0.554 -0.4754  3.1628  1.5542
  131MOL0     H18034   9.991   9.943   0.638  1.8954  0.9323  2.0502
  131MOL0     H18035   9.918   9.804   0.719 -1.7520  1.5776 -2.3990
  131MOL0     H18036  10.177   9.960   1.026 -1.1572  0.4292  0.5162
  131MOL0     H18037  10.235   9.956   1.246 -2.1060  1.5137  3.3329
  131MOL0     H18038  10.277   9.786   1.260  0.9513  0.6261  0.6741
  131MOL0     H18039  10.149   9.858   1.362  0.8364 -2.3362 -0.2801
  131MOL0     H18040   9.651   9.459   1.341 -0.0688 -0.2171 -1.3519
  131MOL0     H18041   9.566   9.324   1.510 -1.3444  4.1785 -2.3913
  131MOL0     H18042   9.485   9.337   1.741 -0.2686 -0.2543 -0.4270
  131MOL0     H18043   9.506   9.174   1.693 -3.1471  0.4501  0.3621
  131MOL0     H18044   9.560   9.118   1.950 -0.7725  0.5855  2.4284
  131MOL0     H18045   9.567   9.298   1.977 -1.1254  0.9257  0.6238
  131MOL0     H18046   9.323   9.202   1.854  0.0053  1.8180 -0.1822
  131MOL0     H18047   9.348   9.307   1.989  5.9371  0.8877  2.9360
  131MOL0     H18048   9.396   9.123   2.142  2.0489 -1.4695 -0.2809
  131MOL0     H18049   9.348   9.005   2.028 -1.3472 -0.5083  1.8075
  131MOL0     H18050   9.168   9.232   2.124  4.9514 -0.2283  1.2668
  131MOL0     H18051   9.133   9.120   1.993 -0.5339  0.6798  0.1331
  131MOL0     H18052   9.198   9.053   2.300  0.0909  1.1818  0.3712
  131MOL0     H18053   9.214   8.927   2.173  0.0607  0.2153 -0.7635
  131MOL0     H18054   8.958   9.088   2.189  1.7359  1.4540 -1.4870
  131MOL0     H18055   8.994   8.980   2.316  0.7526 -0.6140 -0.5142
  131MOL0     H18056   8.993   8.886   2.020  0.6223  0.5604  0.3175
  131MOL0     H18057   8.867   8.877   2.135  1.0132 -0.5196  2.9631
  131MOL0     H18058   9.929   9.347   1.726  0.4831 -2.1519 -1.5133
  131MOL0     H18059  10.043   9.448   1.540  0.1838 -2.0700  1.9531
  131MOL0     H18060   9.918   9.549   1.047  0.4718  0.5397 -2.1007
  131MOL0     H18061   9.960   9.654   0.842  3.1295 -1.1782 -0.4099
  131MOL0     H18062   8.764   9.402   0.791  1.1270 -0.6912  2.5892
  131MOL0     H18063   8.605   9.578   0.762  1.1206 -3.5803  0.3990
  131MOL0     H18064   8.262   9.922   0.914 -0.9354  0.8843  3.3305
  131MOL0     H18065   8.145  10.119   0.966 -0.1542  1.8457 -0.3512
  131MOL0     H18066   8.170  10.298   1.133 -0.0329 -0.0467 -0.4583
  131MOL0     H18067   8.203  10.464   1.154  0.1324  0.9170  0.3221
  131MOL0     H18068   8.051  10.342   0.912  0.9972  0.4626 -0.6350
  131MOL0     H18069   8.052  10.517   0.964 -1.6703 -0.4107 -0.3630
  131MOL0     H18070   7.892  10.304   1.123 -0.7064  0.1608  1.4974
  131MOL0     H18071   7.979  10.437   1.187  0.5524 -2.0825  0.5131
  131MOL0     H18072   7.853  10.600   1.066  0.4236  0.3212  0.5607
  131MOL0     H18073   7.751  10.497   1.145 -0.0388  1.8540 -0.3706
  131MOL0     H18074   7.618  10.457   0.759 -0.9388  0.3293  0.5296
  131MOL0     H18075   8.518  10.335   0.892 -0.9550  1.0772  2.3243
  131MOL0     H18076   8.717  10.164   0.921 -1.4008 -1.8899  1.2897
  131MOL0     H18077   8.706  10.037   0.789 -3.8597 -2.1579 -0.4297
  131MOL0     H18078   8.702  10.209   0.756  2.2269  0.0614  2.3279
  132MOL0     O18079   3.927   6.636  11.480 -0.6158 -0.5466 -0.2880
  132MOL0     C18080   3.833   6.717  11.474 -0.4241  0.2788  0.3207
  132MOL0     O18081   3.717   6.707  11.551 -0.6498  1.1248 -0.1714
  132MOL0     C18082   3.722   6.601  11.644 -0.4522  0.4685  0.9403
  132MOL0     C18083   3.606   6.524  11.637  0.8120  0.1987 -0.6662
  132MOL0     C18084   3.578   6.433  11.742  0.5926  1.0799  0.3973
  132MOL0     C18085   3.663   6.423  11.859  0.4882  0.2824  0.4051
  132MOL0     O18086   3.616   6.334  11.953 -0.0063 -0.0664 -0.0860
  132MOL0     C18087   3.714   6.284  12.056  0.1407 -0.1864  0.7005
  132MOL0     C18088   3.668   6.155  12.123  0.2286 -0.7329  0.5692
  132MOL0     C18089   3.678   6.046  12.014 -0.0518  0.8968  0.2591
  132MOL0     C18090   3.695   5.905  12.073  1.1715 -1.0433  0.5012
  132MOL0     C18091   3.736   5.799  11.968  0.9311  0.4581 -0.4723
  132MOL0     C18092   3.780   5.665  12.021  0.1072  0.2208  0.0803
  132MOL0     C18093   3.758   5.551  11.920 -0.3638  0.2867  0.4723
  132MOL0     C18094   3.834   5.424  11.966  0.5146  0.2383  0.4914
  132MOL0     N18095   3.975   5.408  11.941  0.0631  0.1352 -0.0808
  132MOL0     C18096   4.053   5.398  11.821  0.3135 -0.6464  0.0916
  132MOL0     C18097   4.179   5.383  11.860  0.4304 -1.3751 -0.2925
  132MOL0     C18098   4.295   5.387  11.775  0.6431  0.2471  0.3450
  132MOL0     C18099   4.314   5.245  11.696 -1.2093 -0.4545 -1.1418
  132MOL0     C18100   4.328   5.116  11.789  0.4231 -0.2947  0.8819
  132MOL0     C18101   4.468   5.071  11.814 -0.3357 -0.2453 -0.2343
  132MOL0     O18102   4.481   4.996  11.935 -0.1224 -0.2199  0.1922
  132MOL0     C18103   4.613   4.971  11.976 -0.5617  1.1156  0.1276
  132MOL0     C18104   4.639   4.918  12.099  0.6801 -0.3373 -1.6293
  132MOL0     C18105   4.760   4.897  12.154 -0.9483 -0.0156 -0.7184
  132MOL0     C18106   4.759   4.852  12.299 -0.7177  0.2601 -0.2366
  132MOL0     C18107   4.883   4.927  12.078 -0.1779  0.1747  0.6885
  132MOL0     C18108   5.016   4.916  12.143 -0.7216 -0.2781 -0.2677
  132MOL0     O18109   5.113   4.843  12.090 -0.8202 -0.2031  1.0013
  132MOL0     C18110   5.196   4.781  12.178  0.3285 -0.4144 -0.3618
  132MOL0     C18111   5.319   4.754  12.139 -0.3219 -0.1336 -0.2908
  132MOL0     C18112   5.418   4.694  12.211 -0.9425  0.4208 -0.1630
  132MOL0     C18113   5.390   4.642  12.339  0.0100  0.0909 -0.4087
  132MOL0     O18114   5.482   4.565  12.416 -1.3088 -0.3427  0.2972
  132MOL0     C18115   5.629   4.572  12.386 -0.0517 -1.0438  0.2976
  132MOL0     C18116   5.699   4.568  12.521 -0.1513 -0.6997 -0.4575
  132MOL0     C18117   5.855   4.540  12.509  0.7238  0.2682  0.5181
  132MOL0     C18118   5.922   4.577  12.645 -0.5104  0.1348  1.1438
  132MOL0     C18119   6.073   4.525  12.652  0.3309 -0.5378 -0.1152
  132MOL0     C18120   6.146   4.556  12.791 -0.0757 -0.5378  0.5631
  132MOL0     C18121   6.193   4.708  12.790  1.1001  0.5881  0.0759
  132MOL0     C18122   6.215   4.761  12.934  0.5426  0.1573 -0.0968
  132MOL0    Cl18123   6.297   4.632  13.030 -0.3315 -0.3871  0.0547
  132MOL0     C18124   5.262   4.675  12.386  0.4921 -1.1178 -0.8035
  132MOL0     C18125   5.166   4.746  12.309 -1.1056 -0.2091  0.2978
  132MOL0     O18126   5.021   4.990  12.233 -0.0372 -0.2803  0.0313
  132MOL0     C18127   4.862   4.977  11.948  0.2722  0.5874  0.3133
  132MOL0     C18128   4.728   4.995  11.898  0.0735 -0.3582 -0.5048
  132MOL0     N18129   4.179   5.368  11.993 -0.4557 -0.7657 -0.0898
  132MOL0     N18130   4.062   5.387  12.039  0.2034  0.1089 -0.0679
  132MOL0     C18131   3.776   6.502  11.863 -0.1585 -0.6386  0.4332
  132MOL0     C18132   3.798   6.601  11.759 -0.3892  0.2957 -0.0308
  132MOL0     C18133   3.834   6.819  11.368  0.8650 -0.1893 -0.0539
  132MOL0     C18134   3.764   6.937  11.394 -0.3841 -0.1111  0.6933
  132MOL0     C18135   3.761   7.040  11.308 -0.6027  0.0582  0.4264
  132MOL0     C18136   3.815   7.023  11.180 -0.5015 -0.9459  0.6754
  132MOL0     O18137   3.783   7.103  11.075  0.0856  1.0426  0.6453
  132MOL0     C18138   3.695   7.209  11.088  0.2706 -0.2084 -0.3974
  132MOL0     C18139   3.655   7.257  10.948 -0.8363 -0.1591 -0.4384
  132MOL0     C18140   3.549   7.367  10.955  0.0542 -0.1643 -0.3227
  132MOL0     C18141   3.541   7.437  10.812 -0.3615  0.7670 -0.1517
  132MOL0     C18142   3.474   7.347  10.717 -0.1805  0.0843  0.3855
  132MOL0     C18143   3.400   7.278  10.651  0.0637  0.0289 -0.8529
  132MOL0     C18144   3.899   6.913  11.155 -0.2988 -0.1292  0.5371
  132MOL0     C18145   3.907   6.808  11.248 -0.2447  0.1116 -0.2037
  132MOL0     C18146   3.995   6.695  11.216  0.4606  0.4214  0.2823
  132MOL0     H18147   3.530   6.533  11.561  1.4422  0.3316 -1.2942
  132MOL0     H18148   3.487   6.374  11.743 -0.2589  1.9870 -3.6844
  132MOL0     H18149   3.730   6.347  12.144  1.2545  0.3302  0.1524
  132MOL0     H18150   3.810   6.267  12.005  1.0528  2.1253  1.5041
  132MOL0     H18151   3.717   6.120  12.214  0.7239 -3.3917 -0.6341
  132MOL0     H18152   3.564   6.164  12.154 -0.5721 -3.9554 -0.7494
  132MOL0     H18153   3.586   6.039  11.954  0.1449  1.4367 -0.1136
  132MOL0     H18154   3.757   6.077  11.944 -0.6474  2.0130  0.0489
  132MOL0     H18155   3.775   5.916  12.146  2.8526 -1.0472 -1.2730
  132MOL0     H18156   3.602   5.876  12.123  0.9478  0.9912  1.3825
  132MOL0     H18157   3.815   5.836  11.901 -0.0435 -0.3568 -2.1258
  132MOL0     H18158   3.646   5.772  11.912 -1.0751  0.1358  2.6413
  132MOL0     H18159   3.885   5.676  12.051  1.1875 -2.3500 -2.2773
  132MOL0     H18160   3.727   5.635  12.112 -0.3901  1.0609  0.0805
  132MOL0     H18161   3.799   5.568  11.820  2.1827  0.0940  1.4098
  132MOL0     H18162   3.650   5.533  11.909 -0.4021  0.3801  0.6814
  132MOL0     H18163   3.802   5.411  12.069  1.0932  1.8529  0.8965
  132MOL0     H18164   3.783   5.343  11.912  0.2445 -1.6414  3.3844
  132MOL0     H18165   4.019   5.404  11.718 -2.8554  3.9021  1.0948
  132MOL0     H18166   4.379   5.408  11.842  1.2616 -0.7255 -0.1024
  132MOL0     H18167   4.296   5.465  11.698  4.8465  2.8557  2.7186
  132MOL0     H18168   4.231   5.217  11.631 -1.6155 -3.5233  0.5154
  132MOL0     H18169   4.398   5.255  11.627 -0.5386  0.2020 -0.2575
  132MOL0     H18170   4.290   5.146  11.887  1.6123  1.7457  0.7807
  132MOL0     H18171   4.275   5.033  11.742  1.6537 -0.7971  0.3413
  132MOL0     H18172   4.494   5.004  11.731 -4.0603 -0.3567 -1.4864
  132MOL0     H18173   4.538   5.155  11.822 -0.8207  0.0339  1.5364
  132MOL0     H18174   4.554   4.890  12.160  3.7800 -0.9966  2.8877
  132MOL0     H18175   4.795   4.928  12.369  1.3922 -1.7885  1.0594
  132MOL0     H18176   4.818   4.761  12.313 -3.3369 -1.8237 -1.8694
  132MOL0     H18177   4.660   4.830  12.339  0.1483 -0.4426  1.6542
  132MOL0     H18178   5.338   4.776  12.034 -0.4530  2.7655  0.2250
  132MOL0     H18179   5.515   4.673  12.167  0.9688  1.6756  3.0673
  132MOL0     H18180   5.665   4.496  12.314  1.7291  0.7879 -0.8687
  132MOL0     H18181   5.653   4.668  12.339 -2.6259 -1.8897 -3.2159
  132MOL0     H18182   5.686   4.666  12.567 -0.3438 -0.5789 -0.7586
  132MOL0     H18183   5.648   4.492  12.582 -0.4679 -0.0442  0.1019
  132MOL0     H18184   5.906   4.598  12.431 -4.9202 -0.5943 -4.5819
  132MOL0     H18185   5.868   4.433  12.490  3.2906  0.6065 -0.0800
  132MOL0     H18186   5.882   4.516  12.726  0.0620 -0.1508  1.2232
  132MOL0     H18187   5.904   4.681  12.672  2.1489  1.1065 -0.3248
  132MOL0     H18188   6.075   4.416  12.648  0.2966 -0.6528  1.8713
  132MOL0     H18189   6.123   4.570  12.566 -1.9739 -0.6760 -1.5922
  132MOL0     H18190   6.233   4.489  12.789 -0.3004 -0.8069 -1.4186
  132MOL0     H18191   6.089   4.536  12.882 -0.8223 -0.4240  0.1236
  132MOL0     H18192   6.119   4.774  12.743 -1.0641 -0.9071  1.2252
  132MOL0     H18193   6.283   4.714  12.729  0.0893 -2.4141 -1.9416
  132MOL0     H18194   6.131   4.795  12.996  0.2162 -0.3232 -0.2637
  132MOL0     H18195   6.279   4.849  12.924  1.0546 -0.4098 -2.2849
  132MOL0     H18196   5.244   4.646  12.489 -1.8218  0.9269 -0.5503
  132MOL0     H18197   5.069   4.770  12.351  0.1450  3.0508  1.7168
  132MOL0     H18198   4.940   4.997  11.876 -2.0288  0.4731 -2.3736
  132MOL0     H18199   4.733   5.043  11.801  2.8520  0.3758 -0.0978
  132MOL0     H18200   3.841   6.505  11.950  2.7921 -2.6345 -1.5524
  132MOL0     H18201   3.886   6.663  11.775 -0.4236  0.0594  1.2162
  132MOL0     H18202   3.701   6.948  11.482 -0.6995 -3.8454  1.0904
  132MOL0     H18203   3.706   7.132  11.325  1.4379  1.6279 -1.0457
  132MOL0     H18204   3.600   7.190  11.137  0.3526  0.5759  0.0806
  132MOL0     H18205   3.749   7.283  11.148 -0.5230  1.9790 -2.2043
  132MOL0     H18206   3.621   7.171  10.888  0.0065 -1.8315  1.3712
  132MOL0     H18207   3.749   7.292  10.904 -1.2594  0.8951 -0.5109
  132MOL0     H18208   3.449   7.330  10.978 -1.0782  0.8862 -3.0829
  132MOL0     H18209   3.587   7.438  11.029  0.7457 -0.5641 -0.2805
  132MOL0     H18210   3.637   7.474  10.777  0.5367 -2.0396 -0.9737
  132MOL0     H18211   3.477   7.525  10.821 -3.3805 -0.9182 -2.7568
  132MOL0     H18212   3.354   7.197  10.599  0.3198 -2.2345  2.1757
  132MOL0     H18213   3.955   6.906  11.063 -1.2709  0.2722 -0.1031
  132MOL0     H18214   4.078   6.694  11.286  0.8678  2.5273 -0.1204
  132MOL0     H18215   3.939   6.600  11.214 -0.0326  0.7158 -0.3563
  132MOL0     H18216   4.037   6.723  11.119 -1.8692 -1.5731 -1.4693
  133MOL0     O18217   9.846   5.440   9.100 -0.2061 -0.4968  0.7410
  133MOL0     C18218   9.922   5.510   9.171  0.2209 -1.5330 -0.5841
  133MOL0     O18219  10.061   5.519   9.160  0.2066  0.3509  0.1470
  133MOL0     C18220  10.121   5.414   9.107 -0.8226  0.0457 -0.1187
  133MOL0     C18221  10.089   5.272   9.122  0.3911 -0.1674 -0.7584
  133MOL0     C18222  10.170   5.175   9.068 -0.4602  0.3958 -0.7317
  133MOL0     C18223  10.284   5.203   8.997  0.3476 -0.3055 -0.4788
  133MOL0     O18224  10.364   5.107   8.935 -0.8164  0.5062 -0.0545
  133MOL0     C18225  10.509   5.115   8.937  0.0726 -0.6223  0.1505
  133MOL0     C18226  10.573   5.147   9.065 -0.7488  0.7631 -0.8563
  133MOL0     C18227  10.568   5.032   9.166  0.0447  0.1833  0.5535
  133MOL0     C18228  10.644   5.054   9.291  0.9231  0.1259  0.2263
  133MOL0     C18229  10.621   4.947   9.391  0.7781  0.9872  0.3555
  133MOL0     C18230  10.696   4.950   9.523 -0.0798 -0.0475 -0.3078
  133MOL0     C18231  10.640   4.840   9.619  0.5843  0.7094 -1.0116
  133MOL0     C18232  10.687   4.860   9.762  0.6496  0.3298  0.2714
  133MOL0     N18233  10.671   4.742   9.843 -0.7090  0.0851 -0.8383
  133MOL0     C18234  10.777   4.674   9.897 -0.2437  0.6064  1.0612
  133MOL0     C18235  10.731   4.593   9.989  0.5903  0.6643  0.7242
  133MOL0     C18236  10.810   4.493  10.081  0.6089 -0.5176  0.5383
  133MOL0     C18237  10.806   4.525  10.222 -0.2577 -0.1359 -1.1307
  133MOL0     C18238  10.882   4.648  10.258  0.6542 -0.2243 -0.7120
  133MOL0     C18239  10.865   4.686  10.411 -0.3629 -1.4820 -0.1400
  133MOL0     O18240  10.725   4.720  10.431  0.0835  0.4403  0.7885
  133MOL0     C18241  10.674   4.833  10.488 -0.1257 -0.5203  0.0062
  133MOL0     C18242  10.751   4.943  10.532  0.6234  0.0679 -0.4449
  133MOL0     C18243  10.684   5.068  10.560 -0.5478  1.3299 -1.1512
  133MOL0     C18244  10.775   5.178  10.604  0.2890  0.1666  0.1418
  133MOL0     C18245  10.541   5.076  10.550 -0.2261  0.3915  0.5139
  133MOL0     C18246  10.467   5.202  10.562  0.0858  0.4585  0.2511
  133MOL0     O18247  10.334   5.186  10.561  0.0822 -0.0007  0.2317
  133MOL0     C18248  10.237   5.269  10.592  0.0122  0.1737  0.1142
  133MOL0     C18249  10.133   5.276  10.501  0.8030  0.2638  0.6224
  133MOL0     C18250  10.017   5.353  10.528  0.5007 -0.6941 -0.6656
  133MOL0     C18251  10.001   5.421  10.647  0.6141 -0.4324 -0.5535
  133MOL0     O18252   9.889   5.494  10.667 -0.3385  0.3791  0.5152
  133MOL0     C18253   9.895   5.634  10.704  0.3457  0.1120 -0.6386
  133MOL0     C18254   9.762   5.713  10.657  0.4088  0.8602 -0.2077
  133MOL0     C18255   9.739   5.708  10.513  0.2095  0.3721 -0.2174
  133MOL0     C18256   9.647   5.818  10.468 -0.1340  0.8295  0.3946
  133MOL0     C18257   9.632   5.812  10.318  1.6094 -1.6234 -0.1023
  133MOL0     C18258   9.502   5.890  10.285 -0.4993  0.7346  0.0921
  133MOL0     C18259   9.479   5.892  10.133 -0.1489  0.5078 -0.6044
  133MOL0     C18260   9.337   5.954  10.079  0.4379 -1.0388  0.2325
  133MOL0    Cl18261   9.340   5.929   9.911 -0.2031  0.1221 -0.5551
  133MOL0     C18262  10.113   5.436  10.722  0.6676 -0.2332  0.2593
  133MOL0     C18263  10.229   5.361  10.697  0.2928 -0.4583  0.2161
  133MOL0     O18264  10.526   5.313  10.555  0.2487 -0.8155 -0.0873
  133MOL0     C18265  10.469   4.956  10.521  0.2166  0.1625 -0.6915
  133MOL0     C18266  10.535   4.837  10.489 -0.3830  0.5199  1.0300
  133MOL0     N18267  10.595   4.607   9.986  0.7518  0.2684 -0.0679
  133MOL0     N18268  10.558   4.700   9.906 -0.5588 -0.3261  0.6369
  133MOL0     C18269  10.311   5.335   8.970  0.8995 -0.6178 -0.1697
  133MOL0     C18270  10.230   5.440   9.028 -1.1864  0.3256 -0.0238
  133MOL0     C18271   9.860   5.600   9.278  0.9500  0.8644  1.2037
  133MOL0     C18272   9.725   5.574   9.313 -0.3629  0.2324 -0.2233
  133MOL0     C18273   9.653   5.649   9.399  0.1468  1.2445 -0.0075
  133MOL0     C18274   9.714   5.744   9.470  0.3896 -0.2515 -0.5004
  133MOL0     O18275   9.652   5.821   9.569 -0.0949  0.8660  0.1408
  133MOL0     C18276   9.504   5.806   9.576  1.0450  0.6535 -0.5727
  133MOL0     C18277   9.434   5.884   9.463 -0.9219  0.0072 -0.2171
  133MOL0     C18278   9.279   5.877   9.481 -0.1693  0.1837 -0.3723
  133MOL0     C18279   9.210   5.902   9.349 -0.4260  0.3887 -0.5085
  133MOL0     C18280   9.065   5.919   9.372  0.0489  0.0703 -0.2450
  133MOL0     C18281   8.951   5.950   9.383 -0.3135 -0.9430 -1.0840
  133MOL0     C18282   9.849   5.769   9.444 -0.9130  0.2128  0.2069
  133MOL0     C18283   9.919   5.703   9.345 -0.1366 -0.0823 -0.8595
  133MOL0     C18284  10.063   5.747   9.319  0.5101  0.3932 -0.4930
  133MOL0     H18285  10.015   5.242   9.195 -0.1815 -0.5284 -1.4667
  133MOL0     H18286  10.139   5.071   9.073 -0.3392  0.4200  2.1558
  133MOL0     H18287  10.535   5.198   8.872  0.3426 -0.6394  0.2347
  133MOL0     H18288  10.554   5.028   8.887 -0.8259 -0.8154 -0.3263
  133MOL0     H18289  10.676   5.179   9.047 -0.3075 -0.9635 -1.6619
  133MOL0     H18290  10.527   5.231   9.118  1.2056  1.0382  0.5347
  133MOL0     H18291  10.467   4.991   9.176  0.2355 -3.5343 -6.2813
  133MOL0     H18292  10.611   4.948   9.111  0.0242 -0.0699  0.9205
  133MOL0     H18293  10.752   5.057   9.273  0.8233 -0.3155 -0.4723
  133MOL0     H18294  10.621   5.154   9.329  2.4969  0.7719 -0.4404
  133MOL0     H18295  10.652   4.853   9.344 -0.9424  0.0356  1.0373
  133MOL0     H18296  10.516   4.945   9.422 -0.3254 -0.3390 -2.9956
  133MOL0     H18297  10.801   4.922   9.514 -0.2844 -0.3171 -2.3749
  133MOL0     H18298  10.673   5.041   9.580 -0.1610 -0.9857  1.2100
  133MOL0     H18299  10.664   4.740   9.582 -1.2860  0.3948 -1.4585
  133MOL0     H18300  10.531   4.849   9.617  0.7074  3.9530  0.3242
  133MOL0     H18301  10.792   4.888   9.770  0.7091  0.4756 -0.8746
  133MOL0     H18302  10.628   4.943   9.802 -0.2548 -0.2984  0.2811
  133MOL0     H18303  10.883   4.689   9.881 -0.1610 -1.1511 -0.4967
  133MOL0     H18304  10.916   4.489  10.055  0.4349  3.9932 -1.6919
  133MOL0     H18305  10.765   4.393  10.072 -0.9130 -0.1049  2.6978
  133MOL0     H18306  10.700   4.540  10.246  0.2685  2.5596 -0.1464
  133MOL0     H18307  10.854   4.442  10.275  0.4538  1.1945  0.3833
  133MOL0     H18308  10.987   4.625  10.241  0.8440 -1.6259  1.8339
  133MOL0     H18309  10.854   4.731  10.192  2.0491  1.4065  0.6519
  133MOL0     H18310  10.889   4.602  10.477  1.1089 -1.6934 -0.8985
  133MOL0     H18311  10.941   4.762  10.436 -1.5511  0.0864 -1.0973
  133MOL0     H18312  10.859   4.945  10.530  0.7051  4.6653 -0.8986
  133MOL0     H18313  10.733   5.241  10.683  0.1326 -1.6669  1.6094
  133MOL0     H18314  10.788   5.244  10.519 -2.2467  2.0689  1.0870
  133MOL0     H18315  10.873   5.140  10.634 -1.7474 -2.5576  4.3219
  133MOL0     H18316  10.132   5.227  10.405 -0.7287  1.4551 -0.0184
  133MOL0     H18317   9.943   5.341  10.449  0.3369 -0.1637 -0.5941
  133MOL0     H18318   9.903   5.643  10.812  0.2419  1.6083 -0.7426
  133MOL0     H18319   9.986   5.673  10.657  1.1212 -2.7942 -1.7988
  133MOL0     H18320   9.670   5.685  10.708 -0.8136  0.4068 -2.5271
  133MOL0     H18321   9.776   5.819  10.683  2.6946  0.7554 -0.7261
  133MOL0     H18322   9.696   5.612  10.486 -0.3304  0.9505 -1.4763
  133MOL0     H18323   9.836   5.719  10.463 -0.2945  2.9367 -0.8171
  133MOL0     H18324   9.673   5.922  10.493  0.0928  1.2783 -1.5007
  133MOL0     H18325   9.551   5.796  10.515 -0.5715 -3.2372 -1.9789
  133MOL0     H18326   9.718   5.858  10.268 -0.5442  2.9516 -0.0223
  133MOL0     H18327   9.612   5.707  10.292  2.8009 -1.6209 -1.1572
  133MOL0     H18328   9.492   5.992  10.323 -1.2533  0.8454 -0.3593
  133MOL0     H18329   9.425   5.824  10.327  0.5172 -1.3157 -1.0956
  133MOL0     H18330   9.490   5.788  10.100 -0.3890  0.3140 -0.0935
  133MOL0     H18331   9.556   5.950  10.081  0.0295 -1.1647 -2.3178
  133MOL0     H18332   9.317   6.057  10.110  1.0756 -0.5238 -1.0410
  133MOL0     H18333   9.245   5.899  10.105 -0.7039 -0.8775 -3.0090
  133MOL0     H18334  10.107   5.501  10.809 -0.0294 -0.2298  0.2197
  133MOL0     H18335  10.312   5.375  10.766  2.2000 -0.6861 -1.9224
  133MOL0     H18336  10.360   4.950  10.514 -0.3829  2.4262  3.5010
  133MOL0     H18337  10.480   4.749  10.458  1.2591  0.5326 -2.3134
  133MOL0     H18338  10.391   5.360   8.900 -0.7981  0.9552 -1.6584
  133MOL0     H18339  10.260   5.544   9.028  1.0127 -0.2444  1.1114
  133MOL0     H18340   9.664   5.502   9.259  0.2125  0.2069 -0.8465
  133MOL0     H18341   9.557   5.607   9.426  0.1612  0.3598 -1.2402
  133MOL0     H18342   9.473   5.702   9.583  2.5368  0.2853  1.2911
  133MOL0     H18343   9.466   5.862   9.662 -1.0707  0.2506 -1.1815
  133MOL0     H18344   9.461   5.839   9.367 -1.4023  0.0624 -0.3794
  133MOL0     H18345   9.478   5.984   9.473  2.3330 -1.1257 -1.6008
  133MOL0     H18346   9.253   5.782   9.528 -1.0860  0.4092 -0.4057
  133MOL0     H18347   9.250   5.956   9.552  3.0795  0.2549  1.0913
  133MOL0     H18348   9.238   5.832   9.271  0.8499  1.9188 -1.4942
  133MOL0     H18349   9.246   5.996   9.305  1.4873  0.3163  0.7919
  133MOL0     H18350   8.852   5.987   9.400  0.6438  0.4725  2.2122
  133MOL0     H18351   9.903   5.842   9.503  1.8993 -2.0757  0.6581
  133MOL0     H18352  10.135   5.695   9.383  0.9312  0.2516 -1.0732
  133MOL0     H18353  10.090   5.742   9.213 -0.9866  2.9121 -1.0794
  133MOL0     H18354  10.071   5.854   9.340 -0.7137  0.5228 -0.6225
  134MOL0     O18355  10.762   9.312   6.353 -0.5660  0.1165 -0.1249
  134MOL0     C18356  10.652   9.258   6.336 -0.1258  1.2452 -1.0173
  134MOL0     O18357  10.593   9.182   6.434  1.2648  0.3297 -0.2211
  134MOL0     C18358  10.651   9.097   6.528  0.1178  0.7578 -0.1740
  134MOL0     C18359  10.773   9.127   6.596  0.0830 -0.5412  0.4672
  134MOL0     C18360  10.831   9.039   6.694 -0.4118  0.9470 -0.0103
  134MOL0     C18361  10.748   8.936   6.750 -0.1010 -1.1515 -1.1846
  134MOL0     O18362  10.795   8.882   6.863 -0.3741 -0.3868 -0.5411
  134MOL0     C18363  10.767   8.739   6.882  0.9109  0.7788 -0.1643
  134MOL0     C18364  10.844   8.656   6.777 -1.0220 -0.2752 -0.0978
  134MOL0     C18365  10.999   8.682   6.795 -1.1255 -0.7109 -0.7753
  134MOL0     C18366  11.074   8.573   6.724 -0.4990  0.7382  0.3866
  134MOL0     C18367  11.231   8.583   6.715  0.7932  0.1101 -0.2339
  134MOL0     C18368  11.293   8.625   6.840 -0.2788  0.2888 -0.3027
  134MOL0     C18369  11.279   8.523   6.958  0.9646 -0.3333  0.0540
  134MOL0     C18370  11.257   8.579   7.107  0.3711 -0.4375 -0.0355
  134MOL0     N18371  11.168   8.504   7.203 -0.1529 -0.4829  0.0144
  134MOL0     C18372  11.136   8.374   7.189 -0.1057 -1.2451  0.0945
  134MOL0     C18373  11.031   8.354   7.271  0.1759  0.1661  0.2987
  134MOL0     C18374  10.951   8.227   7.298  0.4022  0.6501 -0.2624
  134MOL0     C18375  10.818   8.221   7.224  0.6961 -0.3082  0.4800
  134MOL0     C18376  10.740   8.093   7.253  0.2824 -0.3075  1.1434
  134MOL0     C18377  10.603   8.103   7.193 -0.0706  0.0295  0.9221
  134MOL0     O18378  10.612   8.052   7.060  0.3361 -0.1360 -0.3455
  134MOL0     C18379  10.620   7.915   7.025 -0.0930 -0.2811  0.5687
  134MOL0     C18380  10.603   7.812   7.123  0.0950 -0.4407  0.7319
  134MOL0     C18381  10.594   7.683   7.088  0.0991  0.1878  0.5230
  134MOL0     C18382  10.583   7.599   7.207  0.2199  0.2509  0.2436
  134MOL0     C18383  10.601   7.644   6.956 -0.3990  0.1089  0.2364
  134MOL0     C18384  10.611   7.508   6.917  0.6224  0.4575  0.5294
  134MOL0     O18385  10.510   7.429   6.958 -0.4629 -0.2938 -0.2091
  134MOL0     C18386  10.518   7.293   6.930 -0.1891  0.3355 -0.1852
  134MOL0     C18387  10.482   7.244   6.799  0.2717 -1.0025 -0.1601
  134MOL0     C18388  10.491   7.109   6.777 -0.4485  0.1238  0.8854
  134MOL0     C18389  10.525   7.011   6.871  0.2486  0.6626 -0.6244
  134MOL0     O18390  10.516   6.877   6.830 -0.6678 -0.9994 -0.3826
  134MOL0     C18391  10.527   6.772   6.924  0.5841  0.6346 -0.0495
  134MOL0     C18392  10.551   6.635   6.855 -0.0566  0.1547  0.3171
  134MOL0     C18393  10.486   6.520   6.939  0.2375  0.3632 -0.6577
  134MOL0     C18394  10.513   6.384   6.868  0.2309  0.7226 -0.4157
  134MOL0     C18395  10.480   6.262   6.961 -1.2737  0.2288 -0.2222
  134MOL0     C18396  10.334   6.223   6.960 -0.1080  0.3115 -0.3380
  134MOL0     C18397  10.304   6.101   7.042 -0.8241  0.5121 -0.6016
  134MOL0     C18398  10.154   6.081   7.055  0.2950 -0.8925  0.1026
  134MOL0    Cl18399  10.105   5.982   7.196 -0.1307 -0.4829 -0.2396
  134MOL0     C18400  10.558   7.066   6.992  1.4908 -0.0460 -0.6569
  134MOL0     C18401  10.550   7.201   7.032 -0.4990  0.0588 -0.4211
  134MOL0     O18402  10.708   7.473   6.854  0.5510 -0.5732  1.1739
  134MOL0     C18403  10.604   7.742   6.856  1.0481 -0.1191 -0.0386
  134MOL0     C18404  10.612   7.879   6.890  0.0776 -0.2352 -0.0310
  134MOL0     N18405  11.016   8.473   7.341 -0.4938  0.4206 -0.1055
  134MOL0     N18406  11.089   8.563   7.303 -0.4110  0.7125  0.1033
  134MOL0     C18407  10.622   8.910   6.680  0.8859 -0.6830 -0.2354
  134MOL0     C18408  10.585   8.981   6.570  0.2193 -0.1957 -0.6177
  134MOL0     C18409  10.582   9.260   6.209 -0.4027  0.0522  0.2450
  134MOL0     C18410  10.457   9.322   6.176 -0.9981 -0.2355 -0.1183
  134MOL0     C18411  10.402   9.320   6.049 -0.5142  0.0484  0.4085
  134MOL0     C18412  10.454   9.241   5.945  0.1114 -1.5852 -0.8654
  134MOL0     O18413  10.389   9.243   5.824 -0.6040 -0.5579 -0.3730
  134MOL0     C18414  10.457   9.204   5.703  0.1134  0.7889 -0.6845
  134MOL0     C18415  10.357   9.198   5.572  0.8002 -0.5128 -0.1117
  134MOL0     C18416  10.431   9.135   5.462  0.6372  0.3256  0.3765
  134MOL0     C18417  10.344   9.153   5.336 -0.6039 -0.4504  1.2497
  134MOL0     C18418  10.417   9.120   5.209 -0.5494  0.6550 -0.0650
  134MOL0     C18419  10.482   9.083   5.118 -0.0786 -0.6371 -0.0130
  134MOL0     C18420  10.572   9.173   5.978 -1.1664  0.0531  0.6506
  134MOL0     C18421  10.640   9.184   6.099 -0.1156 -1.0599  0.3362
  134MOL0     C18422  10.769   9.101   6.107 -1.4239 -0.7863  0.1208
  134MOL0     H18423  10.831   9.215   6.570  1.8026 -0.4999  3.8916
  134MOL0     H18424  10.927   9.062   6.739  2.5240 -5.0226 -2.1505
  134MOL0     H18425  10.659   8.723   6.874  1.0420 -0.2691  0.0300
  134MOL0     H18426  10.790   8.704   6.983 -2.9073  3.3788  1.8364
  134MOL0     H18427  10.823   8.549   6.779  1.4405 -0.8085  0.1484
  134MOL0     H18428  10.805   8.694   6.682 -1.1414 -1.2248 -0.4419
  134MOL0     H18429  11.009   8.777   6.743  2.9831 -0.4581  0.1400
  134MOL0     H18430  11.033   8.685   6.899  1.8787  0.6848 -1.6846
  134MOL0     H18431  11.056   8.474   6.768 -0.0186  0.5323  0.1325
  134MOL0     H18432  11.040   8.587   6.621 -0.4195 -1.2365  0.0573
  134MOL0     H18433  11.272   8.643   6.633  0.5543 -2.2421 -2.2059
  134MOL0     H18434  11.270   8.487   6.682  0.8816  0.1668 -0.2982
  134MOL0     H18435  11.400   8.645   6.829 -0.0072 -1.2225 -0.6941
  134MOL0     H18436  11.240   8.718   6.863 -0.1868  0.0308  1.0145
  134MOL0     H18437  11.363   8.453   6.956  1.8814  0.6850  1.0896
  134MOL0     H18438  11.191   8.462   6.938 -0.3326  2.1700 -2.5395
  134MOL0     H18439  11.355   8.580   7.155  0.6996  2.6854 -0.5207
  134MOL0     H18440  11.222   8.683   7.109  2.7843  0.4305  2.4758
  134MOL0     H18441  11.188   8.301   7.127  0.6565 -0.0421 -0.7409
  134MOL0     H18442  10.925   8.216   7.403  1.9737  2.3333  0.3559
  134MOL0     H18443  11.007   8.140   7.263 -3.1470 -1.7667 -0.5051
  134MOL0     H18444  10.756   8.306   7.252 -0.8004 -2.1392  3.1558
  134MOL0     H18445  10.845   8.222   7.117  2.3684 -2.9416  0.7782
  134MOL0     H18446  10.795   8.003   7.226  1.0133 -0.5403  3.2361
  134MOL0     H18447  10.726   8.083   7.361 -1.7209 -1.2068  0.8543
  134MOL0     H18448  10.532   8.041   7.249 -0.8727 -0.0735 -0.1844
  134MOL0     H18449  10.575   8.208   7.177  3.1211  1.3230  2.8337
  134MOL0     H18450  10.604   7.838   7.229  2.4461 -0.7380  0.8443
  134MOL0     H18451  10.538   7.502   7.187 -0.3840 -0.0177  2.6555
  134MOL0     H18452  10.520   7.649   7.282 -0.6801 -0.2242 -0.1822
  134MOL0     H18453  10.674   7.590   7.267  0.9174  0.6038 -0.7381
  134MOL0     H18454  10.468   7.316   6.719  1.1334 -1.2923 -0.5798
  134MOL0     H18455  10.470   7.080   6.675 -2.0116 -0.5574  1.3640
  134MOL0     H18456  10.599   6.786   7.005 -0.3912  1.1148  0.7455
  134MOL0     H18457  10.433   6.773   6.979  0.4096 -0.9868 -0.2568
  134MOL0     H18458  10.510   6.644   6.754  1.1329  0.2005 -0.1751
  134MOL0     H18459  10.655   6.608   6.837 -0.3211 -1.2321  0.7489
  134MOL0     H18460  10.378   6.528   6.957 -0.0192  2.1049 -2.6721
  134MOL0     H18461  10.533   6.517   7.038  1.1436  0.9661 -1.0588
  134MOL0     H18462  10.619   6.373   6.842 -0.0224 -3.8637 -0.2886
  134MOL0     H18463  10.463   6.375   6.771  2.7223 -0.3125 -1.7175
  134MOL0     H18464  10.534   6.172   6.932  0.6469  1.2912 -0.1088
  134MOL0     H18465  10.529   6.273   7.058 -0.5858 -0.3219 -0.4977
  134MOL0     H18466  10.302   6.194   6.859 -0.2168 -0.2683 -0.1409
  134MOL0     H18467  10.275   6.307   6.995 -3.9694 -1.8834 -1.0093
  134MOL0     H18468  10.351   6.100   7.141  0.3322  1.8710 -1.1006
  134MOL0     H18469  10.335   6.012   6.985 -1.0060 -0.3284  0.5660
  134MOL0     H18470  10.109   6.036   6.966  1.1510 -3.9903  1.0958
  134MOL0     H18471  10.107   6.179   7.072 -1.1816 -1.9889  3.1766
  134MOL0     H18472  10.580   6.993   7.070 -1.3287 -0.7990 -0.4646
  134MOL0     H18473  10.583   7.239   7.129 -2.5726  2.1758 -0.4422
  134MOL0     H18474  10.624   7.715   6.752 -0.9053  0.0928 -0.5116
  134MOL0     H18475  10.612   7.948   6.806  0.7065 -0.6239 -0.3604
  134MOL0     H18476  10.559   8.832   6.721  0.3814 -0.3717 -0.4057
  134MOL0     H18477  10.497   8.956   6.511 -0.6881  1.4828 -0.0547
  134MOL0     H18478  10.414   9.380   6.256  1.0395  1.0615  0.1235
  134MOL0     H18479  10.311   9.376   6.030 -0.6237 -0.6963 -1.4748
  134MOL0     H18480  10.545   9.258   5.669  0.9117 -0.7890 -1.2253
  134MOL0     H18481  10.481   9.100   5.728 -1.0448  0.4840 -0.7613
  134MOL0     H18482  10.333   9.296   5.528 -0.6195 -0.9377 -0.3492
  134MOL0     H18483  10.260   9.154   5.598  0.2592  1.7206  1.9971
  134MOL0     H18484  10.530   9.179   5.448  0.2340  0.5215 -2.3812
  134MOL0     H18485  10.440   9.027   5.473  2.6075  0.5062  0.8231
  134MOL0     H18486  10.302   9.253   5.326 -3.2326 -1.3614  2.4092
  134MOL0     H18487  10.255   9.094   5.355 -1.4423  0.7833  1.2748
  134MOL0     H18488  10.548   9.048   5.042 -0.2139 -0.1938 -0.3420
  134MOL0     H18489  10.623   9.127   5.894 -2.8975  0.5563 -0.7500
  134MOL0     H18490  10.742   9.007   6.156 -1.5943  0.4272  2.4626
  134MOL0     H18491  10.810   9.074   6.009 -3.3005 -0.9467 -0.6683
  134MOL0     H18492  10.849   9.149   6.164 -1.7414  1.2555 -1.0422
  135MOL0     O18493   6.690   6.463   3.715 -0.2440  0.1242 -0.1970
  135MOL0     C18494   6.786   6.452   3.631 -0.8497  0.9438 -0.4665
  135MOL0     O18495   6.917   6.486   3.653  0.7493  0.6244 -0.4868
  135MOL0     C18496   6.961   6.530   3.776 -0.1659 -0.4546  0.3391
  135MOL0     C18497   6.890   6.620   3.860 -0.1341 -0.2752 -0.1982
  135MOL0     C18498   6.936   6.651   3.991  0.6688  0.3708  0.5377
  135MOL0     C18499   7.057   6.602   4.028  0.5170  0.2310  0.4975
  135MOL0     O18500   7.106   6.644   4.152 -0.2019  0.6464 -0.3247
  135MOL0     C18501   7.089   6.775   4.199  0.4154 -0.5699 -1.4199
  135MOL0     C18502   6.969   6.785   4.290 -0.2290 -0.5867 -0.2377
  135MOL0     C18503   6.961   6.695   4.409 -1.4112  1.6214 -0.5710
  135MOL0     C18504   7.086   6.675   4.498 -0.0923 -0.2801  0.0654
  135MOL0     C18505   7.050   6.599   4.631 -0.2091 -0.2291  0.8405
  135MOL0     C18506   6.969   6.465   4.619  0.6096 -0.0136  0.7083
  135MOL0     C18507   7.039   6.367   4.512 -0.5950 -0.2452 -0.3219
  135MOL0     C18508   7.005   6.222   4.521  0.7974 -0.3103  0.2523
  135MOL0     N18509   7.020   6.170   4.655  0.1590  0.9547  0.1007
  135MOL0     C18510   6.905   6.141   4.735 -0.3015  0.6394  0.2851
  135MOL0     C18511   6.953   6.066   4.825  0.4740  0.0323 -1.0828
  135MOL0     C18512   6.884   5.994   4.935 -0.1625  0.6676  0.7804
  135MOL0     C18513   6.833   6.101   5.038 -0.6817  0.1618  0.1744
  135MOL0     C18514   6.711   6.055   5.113  0.9751 -0.1903 -0.3177
  135MOL0     C18515   6.586   6.076   5.024 -0.5992  0.7569  0.1239
  135MOL0     O18516   6.457   6.059   5.090  0.1821 -0.0096  0.0403
  135MOL0     C18517   6.389   6.176   5.125  0.1376  0.6266 -0.6926
  135MOL0     C18518   6.254   6.171   5.156  0.5454 -0.5855 -0.8244
  135MOL0     C18519   6.174   6.276   5.199 -0.5919  0.3027 -0.3806
  135MOL0     C18520   6.032   6.244   5.232  0.0486  0.0244  0.9697
  135MOL0     C18521   6.232   6.403   5.210 -0.3677 -0.3926 -0.1634
  135MOL0     C18522   6.167   6.526   5.268 -0.3413 -0.1334  0.7069
  135MOL0     O18523   6.226   6.646   5.257  0.1084 -0.2245 -0.6039
  135MOL0     C18524   6.146   6.751   5.287 -0.9075  0.2186 -0.2682
  135MOL0     C18525   6.161   6.826   5.405  0.0570 -0.6503 -0.4169
  135MOL0     C18526   6.080   6.938   5.422 -0.6401 -0.3321  0.0589
  135MOL0     C18527   5.994   6.984   5.322 -0.3148 -0.6428 -0.3718
  135MOL0     O18528   5.931   7.104   5.342 -0.5239 -0.1890 -0.3304
  135MOL0     C18529   5.789   7.122   5.337 -0.5129  0.2524  0.3783
  135MOL0     C18530   5.742   7.213   5.454  0.2693  0.5533 -0.4116
  135MOL0     C18531   5.594   7.245   5.446 -0.2138 -0.0899  0.4096
  135MOL0     C18532   5.585   7.353   5.349 -0.6780 -0.1098  0.9663
  135MOL0     C18533   5.464   7.446   5.369 -0.5849  0.7922 -0.3236
  135MOL0     C18534   5.334   7.373   5.372 -0.1311  0.5196 -0.1788
  135MOL0     C18535   5.212   7.468   5.360  0.6490 -0.1000  0.2614
  135MOL0     C18536   5.084   7.387   5.355 -0.0011  0.5358  0.0103
  135MOL0    Cl18537   5.053   7.294   5.512 -0.0047 -0.0014  0.0817
  135MOL0     C18538   5.984   6.919   5.197 -0.8498  0.3950 -0.3837
  135MOL0     C18539   6.061   6.801   5.179 -0.1871  0.9630  0.2583
  135MOL0     O18540   6.063   6.509   5.331  0.4785 -0.4168 -0.0184
  135MOL0     C18541   6.369   6.417   5.184 -0.5302 -0.3272  1.0319
  135MOL0     C18542   6.450   6.305   5.137 -0.2695 -0.2624 -1.2084
  135MOL0     N18543   7.089   6.056   4.813  0.9969  0.3293  0.1462
  135MOL0     N18544   7.133   6.114   4.707 -0.9172  0.7186 -0.4841
  135MOL0     C18545   7.131   6.521   3.950 -0.1711 -1.0045  0.5899
  135MOL0     C18546   7.089   6.491   3.819  0.3212 -0.2210  0.3081
  135MOL0     C18547   6.769   6.378   3.498 -0.4523  0.2070 -0.7266
  135MOL0     C18548   6.872   6.401   3.399  0.5594 -0.3954 -0.3175
  135MOL0     C18549   6.863   6.357   3.260  1.2684 -0.2850  0.4185
  135MOL0     C18550   6.755   6.269   3.226 -0.0344 -0.7021  0.1176
  135MOL0     O18551   6.749   6.230   3.091 -0.1125  0.6311 -0.3544
  135MOL0     C18552   6.640   6.159   3.039  0.0774  0.4703 -0.1055
  135MOL0     C18553   6.639   6.122   2.892 -0.4341 -0.1319 -0.6327
  135MOL0     C18554   6.694   6.249   2.829  0.0131 -0.0032 -1.1885
  135MOL0     C18555   6.715   6.250   2.676  1.2719  1.7072  0.4969
  135MOL0     C18556   6.756   6.116   2.617 -0.5824  0.5449  0.3602
  135MOL0     C18557   6.792   6.009   2.580  0.2133 -0.1430 -0.1004
  135MOL0     C18558   6.655   6.252   3.320  0.7339 -0.6483  1.0018
  135MOL0     C18559   6.655   6.305   3.460  0.2785  0.3982  0.5675
  135MOL0     C18560   6.549   6.252   3.546 -0.4989 -0.9015 -0.1471
  135MOL0     H18561   6.792   6.660   3.835 -0.6006  0.2429  2.2556
  135MOL0     H18562   6.856   6.694   4.050  0.3590 -1.5983  1.6455
  135MOL0     H18563   7.083   6.848   4.118  1.8140 -2.2075 -3.1039
  135MOL0     H18564   7.177   6.805   4.258 -1.2405 -1.1295  1.5148
  135MOL0     H18565   6.972   6.883   4.338  3.3577 -1.9969  2.9344
  135MOL0     H18566   6.869   6.780   4.245 -0.2445 -0.4245 -0.2218
  135MOL0     H18567   6.888   6.732   4.481 -2.8093  1.3456 -1.7846
  135MOL0     H18568   6.945   6.590   4.381  3.1765  0.8426 -0.9375
  135MOL0     H18569   7.160   6.615   4.444 -2.3386 -4.7158  1.3306
  135MOL0     H18570   7.130   6.774   4.511  2.1338 -0.3675 -4.5582
  135MOL0     H18571   6.993   6.657   4.704 -1.1821 -2.4860  1.9613
  135MOL0     H18572   7.145   6.572   4.679  0.6486  0.4930 -0.3801
  135MOL0     H18573   6.960   6.426   4.721  0.5583 -0.2624  0.6097
  135MOL0     H18574   6.868   6.490   4.586  1.2819  2.9253  0.6303
  135MOL0     H18575   7.147   6.371   4.532 -1.1820  0.3203  3.6904
  135MOL0     H18576   7.017   6.408   4.414 -2.6477  2.3879  1.1110
  135MOL0     H18577   6.899   6.216   4.494  0.6181 -3.6521  1.2308
  135MOL0     H18578   7.062   6.166   4.446  1.2740  0.5921 -0.0714
  135MOL0     H18579   6.806   6.177   4.709  0.9499  1.4637 -4.2032
  135MOL0     H18580   6.957   5.928   4.983  1.6861  2.1216  0.1384
  135MOL0     H18581   6.796   5.936   4.907  0.3671 -0.3463  1.1659
  135MOL0     H18582   6.902   6.114   5.122 -0.7646  0.7813  0.1461
  135MOL0     H18583   6.802   6.195   4.992 -0.5434  1.3287  2.3700
  135MOL0     H18584   6.704   5.951   5.146  0.5493 -0.8610 -2.3578
  135MOL0     H18585   6.697   6.113   5.205  2.2893 -0.4901  0.0877
  135MOL0     H18586   6.586   6.168   4.964  0.0507  1.2289  0.8412
  135MOL0     H18587   6.601   6.000   4.946 -2.0790 -0.5348  1.0514
  135MOL0     H18588   6.213   6.072   5.141  1.7845 -0.9843 -1.7792
  135MOL0     H18589   5.997   6.152   5.184 -1.5196  2.3553 -2.8314
  135MOL0     H18590   5.971   6.327   5.195  1.8129  0.2446 -1.7707
  135MOL0     H18591   6.009   6.235   5.339 -3.7773 -0.0402  0.2781
  135MOL0     H18592   6.244   6.809   5.472  0.6631 -1.4167 -1.3381
  135MOL0     H18593   6.097   6.998   5.511 -0.1422  0.7470 -0.7423
  135MOL0     H18594   5.756   7.163   5.241 -1.2785 -2.7892 -0.7908
  135MOL0     H18595   5.728   7.032   5.349 -3.0153  1.7607 -0.2974
  135MOL0     H18596   5.762   7.157   5.546  2.2695 -0.8257 -1.5891
  135MOL0     H18597   5.814   7.293   5.473  0.3528  0.1180  1.1945
  135MOL0     H18598   5.561   7.278   5.545 -1.0074 -1.5703  0.6778
  135MOL0     H18599   5.536   7.157   5.416 -0.3559  0.6127 -1.4958
  135MOL0     H18600   5.579   7.301   5.253  0.7290  0.2024  0.6862
  135MOL0     H18601   5.668   7.425   5.352 -1.2090  0.5365  0.6555
  135MOL0     H18602   5.474   7.502   5.462  0.1109  3.8840 -2.1067
  135MOL0     H18603   5.459   7.516   5.285 -0.0784 -0.2248 -1.2277
  135MOL0     H18604   5.338   7.322   5.469  1.2964 -0.9110 -0.9461
  135MOL0     H18605   5.327   7.297   5.293  0.5233  0.5335 -0.2515
  135MOL0     H18606   5.212   7.529   5.269  0.0603 -2.1105 -1.1464
  135MOL0     H18607   5.207   7.528   5.452  1.7900 -2.0422  1.6678
  135MOL0     H18608   5.081   7.322   5.267 -2.0649  2.9456 -1.8614
  135MOL0     H18609   4.994   7.445   5.331 -1.4329 -1.6701 -0.1863
  135MOL0     H18610   5.922   6.962   5.120 -1.5207 -0.5473 -0.3917
  135MOL0     H18611   6.069   6.757   5.080 -0.9213 -1.3910  1.1654
  135MOL0     H18612   6.424   6.511   5.189 -2.7016  1.3983 -2.9941
  135MOL0     H18613   6.553   6.323   5.107 -0.6413 -2.2188 -4.0036
  135MOL0     H18614   7.220   6.497   4.006  0.9484  0.3439 -0.5136
  135MOL0     H18615   7.150   6.433   3.750  0.2351  1.1887 -0.9891
  135MOL0     H18616   6.954   6.461   3.436  0.3503 -0.9436  1.1039
  135MOL0     H18617   6.922   6.395   3.177 -2.8075  1.7269 -1.8439
  135MOL0     H18618   6.646   6.062   3.089  2.3278  0.8381  0.4477
  135MOL0     H18619   6.542   6.199   3.067 -0.5939 -1.3200  0.1957
  135MOL0     H18620   6.535   6.102   2.862 -1.0730  0.1770  1.2405
  135MOL0     H18621   6.707   6.039   2.871  1.6775  1.3864 -0.1097
  135MOL0     H18622   6.629   6.332   2.860 -0.5765 -0.7018 -0.4864
  135MOL0     H18623   6.796   6.263   2.867  0.7570 -0.5047 -2.9229
  135MOL0     H18624   6.787   6.330   2.653  4.3950 -1.6033 -2.7973
  135MOL0     H18625   6.623   6.268   2.621  0.5293 -1.8534  0.3383
  135MOL0     H18626   6.847   5.919   2.558  0.4060  0.5358 -2.7159
  135MOL0     H18627   6.558   6.204   3.310  1.6890 -2.4040 -0.3477
  135MOL0     H18628   6.599   6.219   3.637 -1.4295  1.4179  1.3042
  135MOL0     H18629   6.495   6.342   3.576  2.3455  1.4023 -1.4919
  135MOL0     H18630   6.477   6.184   3.500 -0.9860 -0.3617 -0.1994
  136MOL0     O18631   5.910   1.346   9.297  0.3807 -0.9097 -0.3764
  136MOL0     C18632   5.924   1.224   9.299 -0.1955 -0.5539 -0.0696
  136MOL0     O18633   5.882   1.141   9.397  0.1920  0.1852 -0.2086
  136MOL0     C18634   5.846   1.188   9.517  0.8690 -0.3258 -0.4426
  136MOL0     C18635   5.948   1.235   9.598 -1.1036 -0.2482 -1.0018
  136MOL0     C18636   5.924   1.273   9.736 -0.6729 -0.5712  1.0596
  136MOL0     C18637   5.786   1.263   9.785 -0.2924  0.7903  0.1572
  136MOL0     O18638   5.763   1.300   9.912 -0.1027  0.0894 -0.0942
  136MOL0     C18639   5.678   1.213   9.999 -0.7487 -1.0525  0.2655
  136MOL0     C18640   5.707   1.224  10.153 -0.6390 -0.0072 -0.7828
  136MOL0     C18641   5.718   1.364  10.190 -0.5534  0.1643  0.5550
  136MOL0     C18642   5.733   1.366  10.345 -1.0937  0.2314  0.5756
  136MOL0     C18643   5.788   1.505  10.378 -0.1420  0.0582 -0.1657
  136MOL0     C18644   5.806   1.499  10.533 -0.1728 -0.1437 -0.1204
  136MOL0     C18645   5.827   1.649  10.585 -0.0808  0.5102  0.1266
  136MOL0     C18646   5.966   1.669  10.630 -0.6134  0.3220 -0.4494
  136MOL0     N18647   5.978   1.802  10.699 -0.2755  0.1114 -0.7066
  136MOL0     C18648   5.941   1.918  10.640  0.4728  0.0845 -0.1966
  136MOL0     C18649   5.967   2.015  10.735 -0.4697 -0.1674  0.5481
  136MOL0     C18650   5.963   2.170  10.735  0.4877  0.1133  0.4436
  136MOL0     C18651   5.974   2.221  10.594  1.3277 -0.4268  0.3269
  136MOL0     C18652   6.122   2.223  10.558 -0.9553  1.0030 -0.8109
  136MOL0     C18653   6.148   2.301  10.423  0.3717  0.4236 -0.4229
  136MOL0     O18654   6.132   2.441  10.427  0.5034  0.6831 -0.6237
  136MOL0     C18655   6.208   2.523  10.342 -0.1906 -1.1350  0.6269
  136MOL0     C18656   6.290   2.476  10.231  0.4239  0.1251  0.3152
  136MOL0     C18657   6.374   2.556  10.153 -0.7903  0.0483 -0.2176
  136MOL0     C18658   6.442   2.492  10.031  0.0410 -0.3852  0.9227
  136MOL0     C18659   6.379   2.698  10.180  0.0760  0.5593 -0.3600
  136MOL0     C18660   6.483   2.777  10.113  0.0900  0.1314  0.0068
  136MOL0     O18661   6.436   2.902  10.109 -0.1218 -0.1723 -0.4656
  136MOL0     C18662   6.471   2.980  10.004 -0.1183  0.0858  0.5395
  136MOL0     C18663   6.449   2.934   9.873 -1.4034  0.2118 -0.0826
  136MOL0     C18664   6.505   3.003   9.757  0.7793  0.0716 -0.5120
  136MOL0     C18665   6.560   3.128   9.771  0.1843  0.0602 -0.1546
  136MOL0     O18666   6.623   3.185   9.662  0.6557  0.4901  0.4090
  136MOL0     C18667   6.671   3.320   9.662 -0.5989  0.0656  0.1749
  136MOL0     C18668   6.707   3.361   9.521  0.4996  0.0532  0.2234
  136MOL0     C18669   6.829   3.278   9.477 -0.8537  0.9387  0.5643
  136MOL0     C18670   6.951   3.345   9.527  0.0692 -0.6589 -0.1358
  136MOL0     C18671   7.000   3.464   9.450 -0.1534 -1.0317  0.2482
  136MOL0     C18672   6.993   3.460   9.302 -0.8646 -0.1185  0.1922
  136MOL0     C18673   7.095   3.555   9.231 -1.3944  0.2995  0.3086
  136MOL0     C18674   7.079   3.561   9.069 -0.0147 -0.0465 -0.0931
  136MOL0    Cl18675   7.209   3.684   9.026 -0.1666  0.4426  0.3028
  136MOL0     C18676   6.576   3.176   9.899 -0.2595 -0.7272  0.6198
  136MOL0     C18677   6.541   3.102  10.014 -0.0820 -0.3301  0.4024
  136MOL0     O18678   6.591   2.740  10.069 -0.5831  0.2055  0.2309
  136MOL0     C18679   6.299   2.747  10.291 -0.8172  0.3301  0.2846
  136MOL0     C18680   6.224   2.664  10.368  0.0058 -0.2968 -0.2057
  136MOL0     N18681   6.016   1.959  10.852 -0.1984  0.4192  0.1095
  136MOL0     N18682   6.027   1.823  10.826 -0.1030 -0.4936 -0.7118
  136MOL0     C18683   5.684   1.219   9.696  0.1591 -0.0941  0.2977
  136MOL0     C18684   5.721   1.186   9.561  0.5007  0.6494  0.0804
  136MOL0     C18685   5.988   1.167   9.183 -1.0017  0.6406  0.1924
  136MOL0     C18686   6.088   1.240   9.121 -0.0802  0.7311 -1.1935
  136MOL0     C18687   6.163   1.192   9.020 -0.0660  0.6538 -0.5562
  136MOL0     C18688   6.125   1.068   8.958 -0.4421 -0.3197 -0.2315
  136MOL0     O18689   6.207   1.008   8.855 -0.0936 -0.8468  0.2255
  136MOL0     C18690   6.324   1.072   8.804 -0.5467 -0.6726  0.8655
  136MOL0     C18691   6.381   0.988   8.698 -0.6654 -0.5905  0.3431
  136MOL0     C18692   6.311   1.008   8.564  0.4596  1.1469 -0.0439
  136MOL0     C18693   6.373   0.901   8.468  0.7808 -0.1150 -0.4944
  136MOL0     C18694   6.284   0.873   8.356 -0.4175  0.2040 -0.3185
  136MOL0     C18695   6.218   0.852   8.257  0.2893 -0.2338  0.3527
  136MOL0     C18696   6.013   1.002   9.008  0.5415  0.9711  0.0832
  136MOL0     C18697   5.956   1.043   9.128 -0.6511 -0.1911 -0.2428
  136MOL0     C18698   5.836   0.970   9.177 -0.8285 -0.1294 -0.1690
  136MOL0     H18699   6.052   1.233   9.567 -0.0411  3.0445  1.6571
  136MOL0     H18700   6.009   1.303   9.796  0.5888 -2.1757  0.1453
  136MOL0     H18701   5.675   1.111   9.961 -3.5994 -0.4670 -1.3731
  136MOL0     H18702   5.577   1.252   9.988 -0.4127 -0.5754 -1.3913
  136MOL0     H18703   5.619   1.176  10.197 -1.2265 -0.2075 -2.1365
  136MOL0     H18704   5.806   1.180  10.164 -0.5674  0.1188 -0.9334
  136MOL0     H18705   5.799   1.420  10.142  0.4267 -0.4228  1.4691
  136MOL0     H18706   5.625   1.418  10.168 -0.5228 -0.9114 -2.6055
  136MOL0     H18707   5.633   1.353  10.388 -0.8318  0.1015  1.1596
  136MOL0     H18708   5.809   1.299  10.388 -1.0982 -0.0610  0.1280
  136MOL0     H18709   5.712   1.571  10.335  0.0195 -0.0886 -0.6858
  136MOL0     H18710   5.879   1.529  10.323  2.2527 -1.5720  2.7893
  136MOL0     H18711   5.723   1.453  10.588 -0.8266  1.3770  0.2196
  136MOL0     H18712   5.892   1.432  10.538 -0.6433 -0.7393  0.1216
  136MOL0     H18713   5.757   1.672  10.666  0.0278  4.3914 -0.6832
  136MOL0     H18714   5.806   1.715  10.500  1.4137  0.7575 -0.0803
  136MOL0     H18715   6.002   1.592  10.698  2.6717  2.0007 -0.0975
  136MOL0     H18716   6.044   1.671  10.553  1.1004 -2.7533  1.0150
  136MOL0     H18717   5.898   1.926  10.541 -0.4073  0.3375  0.2034
  136MOL0     H18718   6.053   2.192  10.793 -0.8272  0.7131  2.3191
  136MOL0     H18719   5.877   2.207  10.792 -0.2100  0.7435 -0.9725
  136MOL0     H18720   5.923   2.163  10.517  0.4618  2.8664 -1.7951
  136MOL0     H18721   5.925   2.319  10.592 -3.5608 -2.4595  2.9439
  136MOL0     H18722   6.181   2.291  10.620 -0.9471  2.0772 -1.9406
  136MOL0     H18723   6.161   2.121  10.563 -1.4028  0.8985  1.2702
  136MOL0     H18724   6.253   2.274  10.408  0.6826  1.8588 -1.0003
  136MOL0     H18725   6.083   2.256  10.347 -0.7751 -1.4133  1.5165
  136MOL0     H18726   6.287   2.371  10.202  0.7061  1.1585 -4.1007
  136MOL0     H18727   6.400   2.395  10.004 -1.0006 -0.0955  1.4780
  136MOL0     H18728   6.550   2.489  10.050  0.0340 -1.8257  0.8176
  136MOL0     H18729   6.410   2.555   9.947 -1.6561 -0.3907  1.5446
  136MOL0     H18730   6.403   2.836   9.864 -0.3484 -0.5207  1.7967
  136MOL0     H18731   6.498   2.941   9.668 -0.9140 -1.1399  0.4136
  136MOL0     H18732   6.596   3.396   9.689 -1.7016 -1.4198  1.5514
  136MOL0     H18733   6.750   3.322   9.737 -0.9284 -1.2408  0.5896
  136MOL0     H18734   6.620   3.347   9.456  1.3738  0.9416 -1.1949
  136MOL0     H18735   6.728   3.468   9.526 -2.1073  0.5761  2.4954
  136MOL0     H18736   6.838   3.272   9.369 -0.6832  3.8802  0.3237
  136MOL0     H18737   6.824   3.178   9.520 -1.7985 -0.1169 -1.8398
  136MOL0     H18738   7.032   3.271   9.533  2.1326  1.5616  2.3910
  136MOL0     H18739   6.942   3.376   9.632 -0.7126 -3.4951  0.7251
  136MOL0     H18740   6.955   3.557   9.486  2.7103 -0.3880  2.4868
  136MOL0     H18741   7.105   3.474   9.478 -0.9942 -0.7126  3.6886
  136MOL0     H18742   6.896   3.489   9.261  1.2250  2.4302 -3.5155
  136MOL0     H18743   7.009   3.354   9.284 -0.0084  0.1347 -0.5798
  136MOL0     H18744   7.197   3.517   9.241 -0.1203  2.5070 -2.9072
  136MOL0     H18745   7.087   3.660   9.262 -1.7029  0.0529  1.0888
  136MOL0     H18746   6.985   3.608   9.038 -0.2723 -1.5553 -1.7392
  136MOL0     H18747   7.100   3.468   9.015  2.2474  0.7312 -0.6746
  136MOL0     H18748   6.619   3.269   9.936  0.3755 -0.7009 -0.1607
  136MOL0     H18749   6.564   3.154  10.107  2.7448 -1.5665  0.4923
  136MOL0     H18750   6.291   2.854  10.309 -0.6660  0.3555  0.2031
  136MOL0     H18751   6.148   2.704  10.434  0.2428 -0.6314  0.2687
  136MOL0     H18752   5.578   1.217   9.716  0.0086 -2.1390 -0.4922
  136MOL0     H18753   5.640   1.163   9.491  1.4077 -2.7355 -0.0666
  136MOL0     H18754   6.129   1.330   9.166  1.5707  0.8021 -2.6929
  136MOL0     H18755   6.248   1.246   8.979 -0.2768  1.3983 -0.0293
  136MOL0     H18756   6.310   1.172   8.760  3.3965 -0.5076 -0.4249
  136MOL0     H18757   6.388   1.094   8.890 -2.2573 -0.2543  2.0657
  136MOL0     H18758   6.393   0.886   8.735 -0.6567 -1.0321 -0.8339
  136MOL0     H18759   6.474   1.043   8.680 -0.9507  0.5614  2.0955
  136MOL0     H18760   6.206   0.981   8.576  0.0563  3.0537  0.9575
  136MOL0     H18761   6.301   1.111   8.528 -0.6806  0.5514 -1.5448
  136MOL0     H18762   6.380   0.804   8.518 -0.8403 -0.3691 -0.6855
  136MOL0     H18763   6.471   0.929   8.428  0.3151 -0.0984 -1.6513
  136MOL0     H18764   6.165   0.851   8.164 -3.1877 -0.4533  2.1659
  136MOL0     H18765   5.979   0.917   8.949 -0.0277  2.0704 -1.2184
  136MOL0     H18766   5.763   1.038   9.223  2.3284  3.6559 -0.1956
  136MOL0     H18767   5.779   0.912   9.105 -0.6637 -1.1579  0.5159
  136MOL0     H18768   5.875   0.893   9.244  0.4176  0.2288 -0.4444
  137MOL0     O18769   8.165   4.398  10.688  0.3920  0.6685  0.5008
  137MOL0     C18770   8.210   4.501  10.632 -0.4560 -0.2244 -0.1987
  137MOL0     O18771   8.334   4.508  10.577 -0.7307  0.7578 -0.0591
  137MOL0     C18772   8.411   4.390  10.600 -0.2200  0.0197  0.3868
  137MOL0     C18773   8.426   4.307  10.493 -0.2586  0.6873  0.1152
  137MOL0     C18774   8.521   4.202  10.494 -0.0869 -0.2845 -0.8740
  137MOL0     C18775   8.615   4.185  10.599  1.0136 -0.9544  0.2675
  137MOL0     O18776   8.705   4.074  10.595 -0.0029 -0.8132 -0.5278
  137MOL0     C18777   8.806   4.057  10.702 -0.1266  0.0062  0.6116
  137MOL0     C18778   8.925   4.160  10.703 -0.1463  0.2226 -0.1290
  137MOL0     C18779   9.006   4.124  10.830 -0.3639 -0.3836 -1.1644
  137MOL0     C18780   9.092   4.236  10.881 -0.2371 -0.9680  0.3421
  137MOL0     C18781   9.202   4.285  10.784  0.5593 -0.3388  0.8308
  137MOL0     C18782   9.300   4.170  10.756 -0.1286  0.3735  0.1766
  137MOL0     C18783   9.424   4.221  10.680  0.0467  0.5015 -0.6935
  137MOL0     C18784   9.396   4.338  10.583  0.3040 -0.1868  0.2910
  137MOL0     N18785   9.302   4.286  10.478 -0.4639  0.1814  0.1648
  137MOL0     C18786   9.236   4.367  10.396 -0.3270 -0.4377  0.9150
  137MOL0     C18787   9.194   4.293  10.286 -0.8454  0.4212 -0.2371
  137MOL0     C18788   9.133   4.343  10.154  0.4279 -0.5124  0.2368
  137MOL0     C18789   9.042   4.240  10.084  0.8753  0.2087 -0.2444
  137MOL0     C18790   8.950   4.311   9.986 -0.6263  0.1221  0.0831
  137MOL0     C18791   8.855   4.215   9.916 -0.8063 -0.2136 -0.2187
  137MOL0     O18792   8.767   4.288   9.826  1.0534 -0.7828  0.0900
  137MOL0     C18793   8.672   4.219   9.752  0.5587 -0.2237 -0.3688
  137MOL0     C18794   8.576   4.293   9.683  0.5464 -0.6154 -0.9713
  137MOL0     C18795   8.472   4.226   9.616 -0.2116  0.2861 -0.4470
  137MOL0     C18796   8.370   4.308   9.549  0.3616  0.6476  0.1645
  137MOL0     C18797   8.476   4.081   9.607  0.9347  0.6645  0.7504
  137MOL0     C18798   8.368   3.999   9.551 -0.8701  0.0970 -0.0121
  137MOL0     O18799   8.242   4.042   9.565  0.0304 -0.1761  0.0103
  137MOL0     C18800   8.146   3.966   9.512 -0.0601  0.0839  0.1569
  137MOL0     C18801   8.045   3.904   9.592 -0.7167 -0.2252 -0.1487
  137MOL0     C18802   7.935   3.828   9.536 -0.9376  0.3938  0.0928
  137MOL0     C18803   7.919   3.833   9.396  0.8220  0.5090 -0.5342
  137MOL0     O18804   7.809   3.763   9.347  0.2822 -0.1855  0.0271
  137MOL0     C18805   7.803   3.730   9.212  0.4325  0.6038  0.2194
  137MOL0     C18806   7.698   3.822   9.137 -0.0162  0.3733  0.4151
  137MOL0     C18807   7.656   3.768   8.995 -0.0560  0.4045 -0.9585
  137MOL0     C18808   7.585   3.632   9.006 -0.5427  0.0397 -0.5473
  137MOL0     C18809   7.502   3.608   8.882 -0.6113  0.5321  0.0894
  137MOL0     C18810   7.424   3.482   8.892  0.2530 -0.5122 -0.2466
  137MOL0     C18811   7.515   3.364   8.856  0.4851 -0.3510  0.2670
  137MOL0     C18812   7.418   3.247   8.812  0.0346  0.2965 -0.7205
  137MOL0    Cl18813   7.497   3.136   8.692 -0.1205  0.5012  0.1529
  137MOL0     C18814   8.005   3.898   9.314  0.2757  0.2004 -0.4739
  137MOL0     C18815   8.117   3.959   9.369 -0.1998  0.4435 -0.3981
  137MOL0     O18816   8.401   3.895   9.492  0.4494 -0.1691  0.3867
  137MOL0     C18817   8.582   4.014   9.660 -0.3782  0.4671  0.0739
  137MOL0     C18818   8.677   4.084   9.741  0.0442  0.9869 -0.5178
  137MOL0     N18819   9.212   4.161  10.328  0.1181  0.1877 -0.5338
  137MOL0     N18820   9.280   4.153  10.444  0.3352 -0.7559  0.1845
  137MOL0     C18821   8.613   4.288  10.701 -0.1291  1.4476  0.3921
  137MOL0     C18822   8.507   4.385  10.701  1.0054  0.2737 -0.9771
  137MOL0     C18823   8.112   4.619  10.622  0.3870 -0.1796  0.9779
  137MOL0     C18824   7.972   4.596  10.624  0.8114  0.5514  0.5183
  137MOL0     C18825   7.880   4.695  10.598  0.5384  0.2309  1.1868
  137MOL0     C18826   7.923   4.827  10.569  0.6680  0.9852  0.4438
  137MOL0     O18827   7.816   4.913  10.544  0.8727  0.3036  0.4883
  137MOL0     C18828   7.822   4.960  10.410 -1.2948  0.1395 -0.7845
  137MOL0     C18829   7.703   5.052  10.382 -0.3515  0.5988 -0.3194
  137MOL0     C18830   7.575   4.974  10.365 -0.1838 -0.4260 -0.5328
  137MOL0     C18831   7.440   5.050  10.362 -0.0826  0.1901  0.4181
  137MOL0     C18832   7.451   5.175  10.282 -0.4060  0.4827  0.0140
  137MOL0     C18833   7.453   5.274  10.207  0.1578 -0.6338 -0.8761
  137MOL0     C18834   8.055   4.855  10.576  0.7188 -0.7463 -0.4297
  137MOL0     C18835   8.150   4.763  10.601 -0.1947  0.7904  0.3280
  137MOL0     C18836   8.298   4.813  10.581  0.8465 -0.3139  0.2532
  137MOL0     H18837   8.370   4.333  10.404 -2.2878  0.7041  1.3224
  137MOL0     H18838   8.524   4.122  10.421  2.3862  0.3219 -1.5092
  137MOL0     H18839   8.852   3.959  10.690  0.4985  0.5174 -1.8871
  137MOL0     H18840   8.752   4.066  10.797 -0.1481  1.6447  0.4712
  137MOL0     H18841   8.981   4.141  10.611 -2.0785 -2.8539 -0.8053
  137MOL0     H18842   8.893   4.265  10.708  0.0741  0.3690 -1.5317
  137MOL0     H18843   8.939   4.094  10.911  1.8283 -0.8612  0.5898
  137MOL0     H18844   9.068   4.034  10.818  0.0091 -0.0336 -1.9526
  137MOL0     H18845   9.028   4.319  10.910 -0.6625 -0.7046 -1.2696
  137MOL0     H18846   9.132   4.200  10.977 -0.2096 -0.8928  0.3592
  137MOL0     H18847   9.255   4.371  10.827 -0.0038 -0.0894  1.0275
  137MOL0     H18848   9.154   4.314  10.690  0.9402 -2.8331 -0.2025
  137MOL0     H18849   9.336   4.129  10.850 -2.5026  0.3532  1.1665
  137MOL0     H18850   9.254   4.092  10.695  0.0089  1.4331 -1.3339
  137MOL0     H18851   9.470   4.137  10.627  0.0004 -1.1922  1.7475
  137MOL0     H18852   9.504   4.243  10.751 -0.9757  0.2484  0.5901
  137MOL0     H18853   9.341   4.419  10.632  0.4477  0.5627 -0.7555
  137MOL0     H18854   9.490   4.377  10.542  1.0042 -1.3837  0.7261
  137MOL0     H18855   9.249   4.475  10.405 -0.5525 -0.4979  2.2444
  137MOL0     H18856   9.212   4.375  10.087  1.2401 -2.6280  0.1156
  137MOL0     H18857   9.062   4.423  10.179 -1.7649 -2.3594  0.3349
  137MOL0     H18858   9.104   4.173  10.023  1.8726 -0.4376  1.3975
  137MOL0     H18859   8.984   4.190  10.162 -1.8138  2.0018 -0.9601
  137MOL0     H18860   8.898   4.386  10.046 -1.5042 -1.6413  1.6107
  137MOL0     H18861   9.020   4.363   9.920  1.2063 -1.9896  0.2402
  137MOL0     H18862   8.921   4.148   9.859 -0.7879 -0.0234 -0.4216
  137MOL0     H18863   8.804   4.143   9.981 -0.9671 -0.6686 -0.8448
  137MOL0     H18864   8.567   4.401   9.687  0.8484 -0.4960 -2.6801
  137MOL0     H18865   8.286   4.332   9.615  1.7220 -0.6262  2.4749
  137MOL0     H18866   8.322   4.256   9.465  3.5274 -1.4688 -0.5071
  137MOL0     H18867   8.416   4.401   9.516  0.3288 -0.5661 -3.8658
  137MOL0     H18868   8.059   3.910   9.700  1.7444 -0.0278 -0.4388
  137MOL0     H18869   7.858   3.784   9.598 -0.3772 -4.0919 -1.9884
  137MOL0     H18870   7.894   3.731   9.151 -1.1980 -2.6161 -2.6660
  137MOL0     H18871   7.777   3.624   9.214  1.9972  0.1991  0.3934
  137MOL0     H18872   7.614   3.829   9.207  1.5304 -0.5647  2.5054
  137MOL0     H18873   7.748   3.918   9.122 -0.9744  0.5030 -2.3607
  137MOL0     H18874   7.740   3.763   8.925  0.2738 -2.7885 -0.4866
  137MOL0     H18875   7.580   3.835   8.954 -1.4272  0.8911  2.0776
  137MOL0     H18876   7.535   3.605   9.100  2.0580 -1.9031  0.3966
  137MOL0     H18877   7.664   3.556   9.001  2.7245  2.7983  3.4078
  137MOL0     H18878   7.426   3.686   8.869 -3.0627 -1.5245  1.1533
  137MOL0     H18879   7.578   3.610   8.804 -2.3879  0.6390 -1.7003
  137MOL0     H18880   7.343   3.493   8.820 -0.3395  0.6019  0.5624
  137MOL0     H18881   7.387   3.467   8.994 -2.0192  2.2913 -0.5275
  137MOL0     H18882   7.570   3.332   8.945 -0.6005 -1.7170  0.4826
  137MOL0     H18883   7.579   3.384   8.769  1.4668 -1.4385  0.7187
  137MOL0     H18884   7.331   3.286   8.757  0.8448  0.1097 -2.1962
  137MOL0     H18885   7.386   3.190   8.900  0.0149  0.4307 -0.6404
  137MOL0     H18886   7.999   3.904   9.206 -1.9677 -1.3078 -0.5010
  137MOL0     H18887   8.186   4.009   9.302 -0.2149  0.3903 -0.4534
  137MOL0     H18888   8.578   3.906   9.652 -0.9706  0.3920  1.2031
  137MOL0     H18889   8.744   4.021   9.798 -2.6331  0.6501  2.4757
  137MOL0     H18890   8.674   4.288  10.791 -1.5307 -0.4520  1.4197
  137MOL0     H18891   8.498   4.453  10.785 -1.8953  2.9103 -3.2235
  137MOL0     H18892   7.939   4.493  10.639  0.9231  0.3654 -0.4412
  137MOL0     H18893   7.776   4.665  10.595 -0.2903  2.5015  3.2808
  137MOL0     H18894   7.913   5.022  10.406 -0.4012 -0.5527  3.3987
  137MOL0     H18895   7.830   4.876  10.341 -0.7551  0.1070 -0.6914
  137MOL0     H18896   7.724   5.092  10.283  0.7892 -0.7604 -0.6568
  137MOL0     H18897   7.706   5.136  10.453  3.4263 -0.2382  0.7750
  137MOL0     H18898   7.583   4.923  10.269 -0.2762  1.5705 -1.6506
  137MOL0     H18899   7.565   4.905  10.450  2.7895 -0.6631 -0.2827
  137MOL0     H18900   7.407   5.063  10.465  1.6054  1.8466  0.8020
  137MOL0     H18901   7.359   4.986  10.325 -0.6935 -0.3653  2.5841
  137MOL0     H18902   7.446   5.361  10.145  2.7503  0.4216  0.1850
  137MOL0     H18903   8.090   4.955  10.551  0.1566 -0.3160  0.4716
  137MOL0     H18904   8.338   4.815  10.683 -1.2231  2.3721  1.1053
  137MOL0     H18905   8.343   4.744  10.509  0.2364 -0.8215  0.3523
  137MOL0     H18906   8.296   4.910  10.531  0.4568 -0.2244  0.4404
  138MOL0     O18907   8.227   1.028   9.603  0.1515  0.4643 -0.5815
  138MOL0     C18908   8.244   0.911   9.574  0.5966 -0.8535  0.4906
  138MOL0     O18909   8.220   0.807   9.661  0.6295  0.6124 -0.6016
  138MOL0     C18910   8.201   0.829   9.792 -1.4885 -1.0508 -1.4532
  138MOL0     C18911   8.303   0.898   9.865 -0.4975 -0.3113  0.3912
  138MOL0     C18912   8.278   0.923  10.003  0.2266 -0.2097 -0.3259
  138MOL0     C18913   8.151   0.896  10.054  0.2286 -0.2366 -0.4395
  138MOL0     O18914   8.120   0.929  10.187  0.0982  0.2813 -0.3910
  138MOL0     C18915   8.120   0.809  10.270 -0.3669  0.5444  0.0441
  138MOL0     C18916   8.138   0.843  10.420 -0.0845 -0.1207  0.4286
  138MOL0     C18917   8.185   0.735  10.524 -0.1276 -0.5734  0.2678
  138MOL0     C18918   8.094   0.712  10.647  0.8265  0.7876 -0.9537
  138MOL0     C18919   7.969   0.624  10.620 -0.5676  0.3685 -0.2086
  138MOL0     C18920   7.852   0.684  10.528 -0.5488 -0.3856 -0.6806
  138MOL0     C18921   7.739   0.580  10.508 -0.1823  0.0640  0.7021
  138MOL0     C18922   7.639   0.615  10.383 -0.2547  0.0488  0.1384
  138MOL0     N18923   7.707   0.609  10.259  0.6378 -0.4417  0.4658
  138MOL0     C18924   7.819   0.537  10.230  0.6972 -0.3951 -0.1725
  138MOL0     C18925   7.835   0.538  10.093  0.2741  0.0519  0.0392
  138MOL0     C18926   7.942   0.484  10.008 -0.8132  0.3032  0.0549
  138MOL0     C18927   8.067   0.417  10.078  0.6094  0.3970  0.1869
  138MOL0     C18928   8.152   0.367   9.964  0.6001  0.0812 -0.6321
  138MOL0     C18929   8.245   0.467   9.893 -0.5403 -0.1957  0.2023
  138MOL0     O18930   8.330   0.395   9.802 -0.3788  0.3381  0.3405
  138MOL0     C18931   8.451   0.444   9.752  0.4815 -0.7543 -1.2431
  138MOL0     C18932   8.510   0.370   9.648 -0.9618 -0.0086  0.3469
  138MOL0     C18933   8.609   0.421   9.567 -0.7214 -0.6337 -0.0845
  138MOL0     C18934   8.665   0.347   9.446  0.2956 -0.5688  0.0252
  138MOL0     C18935   8.660   0.546   9.603  0.1690  1.3519 -0.4753
  138MOL0     C18936   8.755   0.617   9.520  0.0674  0.2791 -0.1335
  138MOL0     O18937   8.704   0.675   9.407 -0.6803  0.6341  0.2166
  138MOL0     C18938   8.783   0.760   9.332  0.0710 -0.3704  0.1683
  138MOL0     C18939   8.735   0.883   9.292 -0.1320 -0.7435  0.6049
  138MOL0     C18940   8.802   0.958   9.196  0.3256  0.6545  0.4165
  138MOL0     C18941   8.920   0.910   9.143  0.3252  0.4920  0.3360
  138MOL0     O18942   8.988   0.992   9.056  0.2740 -0.4381  0.0109
  138MOL0     C18943   9.119   1.038   9.114  1.3039 -0.1827  0.1923
  138MOL0     C18944   9.233   0.995   9.018  0.2216 -1.3644 -0.4703
  138MOL0     C18945   9.227   1.073   8.881  0.2275 -0.1847 -0.0128
  138MOL0     C18946   9.352   1.057   8.790  0.6595 -0.1324 -0.0076
  138MOL0     C18947   9.354   0.913   8.748  0.2578  0.5578  0.4208
  138MOL0     C18948   9.476   0.873   8.658 -0.9958 -0.3654  0.0341
  138MOL0     C18949   9.491   0.948   8.527 -0.2517  0.9750  0.0628
  138MOL0     C18950   9.402   0.902   8.419 -0.7246 -0.3615 -0.8209
  138MOL0    Cl18951   9.461   0.969   8.270 -0.3153  0.1869 -0.1446
  138MOL0     C18952   8.971   0.787   9.185  0.0011 -0.5411 -0.4245
  138MOL0     C18953   8.908   0.715   9.290  0.3428 -0.4397 -0.5156
  138MOL0     O18954   8.861   0.646   9.577  0.7116 -0.3063  0.2288
  138MOL0     C18955   8.611   0.613   9.726 -0.1483  0.5370  1.4775
  138MOL0     C18956   8.510   0.564   9.796 -0.7068 -0.0366 -0.8732
  138MOL0     N18957   7.740   0.625  10.049  1.5977 -0.1597 -0.1885
  138MOL0     N18958   7.664   0.673  10.147  0.4845  0.6810 -0.5562
  138MOL0     C18959   8.056   0.832   9.985  0.9846 -0.2530  0.8295
  138MOL0     C18960   8.084   0.804   9.851 -0.3590  0.3570  0.3572
  138MOL0     C18961   8.296   0.869   9.440 -0.3681 -0.3848 -0.6311
  138MOL0     C18962   8.365   0.754   9.424 -0.0054  0.1218  0.1718
  138MOL0     C18963   8.423   0.709   9.303 -0.1181  0.2434 -0.4194
  138MOL0     C18964   8.405   0.780   9.186 -0.0773  0.2764 -0.5744
  138MOL0     O18965   8.442   0.731   9.066 -0.2579 -0.3616 -0.2904
  138MOL0     C18966   8.563   0.785   9.005 -0.0838  0.0851  0.0164
  138MOL0     C18967   8.551   0.773   8.851 -0.3508 -0.1163  0.1300
  138MOL0     C18968   8.512   0.912   8.790  0.0083  2.0124 -0.0497
  138MOL0     C18969   8.468   0.908   8.642 -0.3027  0.9343 -0.9835
  138MOL0     C18970   8.568   0.842   8.549 -0.6615 -0.0922  0.1787
  138MOL0     C18971   8.649   0.782   8.478  0.1669  0.8538 -0.4548
  138MOL0     C18972   8.325   0.897   9.199 -0.4067  1.1433 -0.0170
  138MOL0     C18973   8.279   0.946   9.321 -0.4492  0.9076 -0.1783
  138MOL0     C18974   8.220   1.081   9.328  0.1702  0.2906 -0.3693
  138MOL0     H18975   8.392   0.935   9.816 -0.7451 -0.0768  0.1139
  138MOL0     H18976   8.341   0.984  10.067 -1.9089  0.1975  1.4949
  138MOL0     H18977   8.201   0.745  10.235 -0.4045  1.0701 -1.0526
  138MOL0     H18978   8.024   0.757  10.264 -0.8345  1.1579  1.6357
  138MOL0     H18979   8.223   0.911  10.429  0.9590 -1.4666  0.9605
  138MOL0     H18980   8.045   0.897  10.443 -1.5184 -2.5352  0.6119
  138MOL0     H18981   8.217   0.642  10.476 -1.5585 -0.6869 -0.5131
  138MOL0     H18982   8.282   0.775  10.554  0.1899  0.2480 -1.7264
  138MOL0     H18983   8.149   0.683  10.737 -0.1649 -2.2623 -1.2248
  138MOL0     H18984   8.050   0.808  10.678 -0.1925 -0.1622  0.6639
  138MOL0     H18985   7.931   0.603  10.720 -1.1515 -0.0796 -0.5202
  138MOL0     H18986   7.987   0.524  10.581 -0.9325 -0.5612  1.8448
  138MOL0     H18987   7.811   0.774  10.575 -2.8780 -1.7969  0.1626
  138MOL0     H18988   7.883   0.725  10.431  1.1061 -1.1978 -0.5412
  138MOL0     H18989   7.682   0.568  10.600 -1.6688 -2.1276 -0.4136
  138MOL0     H18990   7.780   0.481  10.487 -1.6404 -0.3839 -0.2005
  138MOL0     H18991   7.551   0.550  10.386 -1.3719  1.5678  1.0849
  138MOL0     H18992   7.597   0.714  10.403 -0.7563  0.0579 -0.9160
  138MOL0     H18993   7.876   0.475  10.299 -2.2303 -2.8324  0.2824
  138MOL0     H18994   7.972   0.571   9.950 -0.0289  0.8323  1.2157
  138MOL0     H18995   7.894   0.409   9.944 -0.9291  0.6296 -0.2435
  138MOL0     H18996   8.112   0.498  10.137  0.7214  3.4725 -3.7311
  138MOL0     H18997   8.044   0.324  10.130 -0.7655 -1.4190 -3.3544
  138MOL0     H18998   8.217   0.294  10.012  4.3503  2.3738 -1.7407
  138MOL0     H18999   8.092   0.315   9.888  2.7301 -1.9316 -1.0513
  138MOL0     H19000   8.185   0.534   9.831 -2.0854 -0.5586  1.2601
  138MOL0     H19001   8.303   0.520   9.969 -0.4459 -1.1397  0.8015
  138MOL0     H19002   8.459   0.276   9.631 -2.2978  0.2827  2.3699
  138MOL0     H19003   8.711   0.257   9.486  0.6998 -0.9575 -1.2401
  138MOL0     H19004   8.731   0.411   9.387 -0.6275 -0.4071 -0.8619
  138MOL0     H19005   8.584   0.312   9.380 -2.3256  3.6151  0.6362
  138MOL0     H19006   8.640   0.923   9.324  0.6486  0.9447  0.9363
  138MOL0     H19007   8.759   1.046   9.149 -2.5768 -0.4098  0.8739
  138MOL0     H19008   9.111   1.145   9.133 -0.9015 -0.4649  1.2476
  138MOL0     H19009   9.138   0.996   9.214 -2.0720  0.8546  1.4137
  138MOL0     H19010   9.326   1.028   9.065  0.3205 -2.8533  0.4099
  138MOL0     H19011   9.219   0.887   9.009 -2.0545 -1.0045 -2.0759
  138MOL0     H19012   9.226   1.180   8.901  3.3638  0.2458 -1.5922
  138MOL0     H19013   9.132   1.053   8.831  0.4318 -0.2431 -0.3815
  138MOL0     H19014   9.444   1.084   8.843 -0.0826  1.0991  0.6983
  138MOL0     H19015   9.332   1.120   8.702 -2.6320 -1.7588 -0.6051
  138MOL0     H19016   9.354   0.851   8.837 -3.0721  0.3955  0.4548
  138MOL0     H19017   9.262   0.881   8.699  1.3854  1.0619 -2.2077
  138MOL0     H19018   9.468   0.766   8.637 -0.4013 -0.0074 -2.3181
  138MOL0     H19019   9.562   0.909   8.715  0.1162  0.0433 -1.7869
  138MOL0     H19020   9.592   0.929   8.489 -0.1916  1.3802  0.0198
  138MOL0     H19021   9.482   1.056   8.538  0.9963  0.8398  3.6668
  138MOL0     H19022   9.296   0.915   8.442 -0.7014  0.1378 -0.9917
  138MOL0     H19023   9.415   0.795   8.401  1.4522 -0.4139  0.6595
  138MOL0     H19024   9.056   0.749   9.129  0.7007  0.9331 -0.4190
  138MOL0     H19025   8.957   0.619   9.307  0.1887 -0.9024 -2.4999
  138MOL0     H19026   8.656   0.707   9.759 -2.8523  3.8401 -2.9983
  138MOL0     H19027   8.467   0.620   9.878  2.5563 -1.3442  2.0284
  138MOL0     H19028   7.950   0.812  10.001  1.2599 -2.2356  0.4145
  138MOL0     H19029   8.002   0.753   9.804 -0.8680  3.0010 -1.9181
  138MOL0     H19030   8.391   0.682   9.500 -0.4479 -1.0144 -0.7254
  138MOL0     H19031   8.484   0.620   9.296 -0.1218  0.2063  0.0159
  138MOL0     H19032   8.579   0.887   9.042  0.0560 -0.3072  1.0944
  138MOL0     H19033   8.649   0.730   9.045  0.7934  2.2729  1.3566
  138MOL0     H19034   8.475   0.700   8.821 -0.6444  0.1360  0.2535
  138MOL0     H19035   8.653   0.752   8.817 -0.8705  0.6989 -2.0857
  138MOL0     H19036   8.429   0.957   8.844 -0.3988  0.5824  0.5449
  138MOL0     H19037   8.603   0.973   8.790  3.4950 -2.5951  2.5619
  138MOL0     H19038   8.447   1.010   8.609  1.3021  1.5230 -0.2651
  138MOL0     H19039   8.379   0.843   8.634  1.4813 -1.5376 -2.1278
  138MOL0     H19040   8.724   0.730   8.423 -0.1800  0.2511 -0.3649
  138MOL0     H19041   8.323   0.947   9.103  0.4637  1.6754  0.2333
  138MOL0     H19042   8.289   1.139   9.390  2.4072 -2.5498 -0.0254
  138MOL0     H19043   8.221   1.138   9.234 -3.8512  2.0049  0.4059
  138MOL0     H19044   8.120   1.086   9.371  0.1509  0.6593 -0.4522
  139MOL0     O19045  11.093   6.957   7.588  0.2962  0.4457 -0.5178
  139MOL0     C19046  11.013   6.963   7.682 -0.5222  0.8061  0.9880
  139MOL0     O19047  10.925   7.059   7.698 -0.3564 -0.1423  0.5106
  139MOL0     C19048  10.911   7.148   7.590 -0.1757  0.7312  0.4091
  139MOL0     C19049  10.844   7.101   7.476 -0.8308 -0.3722  0.3212
  139MOL0     C19050  10.819   7.185   7.360  0.6861  0.1777  0.2970
  139MOL0     C19051  10.863   7.314   7.365  0.1603  0.2143  0.0286
  139MOL0     O19052  10.839   7.386   7.254 -0.3194  0.6538 -0.1316
  139MOL0     C19053  10.940   7.450   7.180 -0.4610  0.2788  0.0367
  139MOL0     C19054  10.995   7.383   7.044 -0.2945  0.6224 -0.3396
  139MOL0     C19055  11.013   7.234   7.059 -0.1287  0.5686  0.5545
  139MOL0     C19056  11.138   7.181   7.126  0.0197  0.0261 -0.2938
  139MOL0     C19057  11.140   7.029   7.096  0.9994  1.2646 -1.6218
  139MOL0     C19058  11.015   6.961   7.160 -0.0163  0.2462  0.8727
  139MOL0     C19059  11.038   6.822   7.210 -0.5567  0.0323  0.1674
  139MOL0     C19060  10.904   6.754   7.257  0.0249 -0.2613 -0.2251
  139MOL0     N19061  10.883   6.622   7.194  0.5386  0.2557  0.2582
  139MOL0     C19062  10.890   6.500   7.259  0.6995  0.4885  0.1769
  139MOL0     C19063  10.845   6.402   7.176  0.1561  0.4798  0.0488
  139MOL0     C19064  10.878   6.251   7.217  0.9029 -1.4302  0.3266
  139MOL0     C19065  10.896   6.165   7.099  1.0974  0.5178  0.8567
  139MOL0     C19066  10.978   6.036   7.106 -0.0806  0.4450  0.2364
  139MOL0     C19067  11.043   5.990   7.234 -0.2862  0.0988 -0.2923
  139MOL0     O19068  11.113   5.870   7.210 -0.5581 -0.4572 -0.0834
  139MOL0     C19069  11.165   5.796   7.318 -0.5364  0.7612 -0.3021
  139MOL0     C19070  11.256   5.689   7.283  0.1892 -0.0187 -0.6285
  139MOL0     C19071  11.317   5.603   7.371 -0.7019  0.1992 -0.6842
  139MOL0     C19072  11.411   5.498   7.314 -0.3061 -0.2510  0.3616
  139MOL0     C19073  11.287   5.606   7.509  0.2913 -1.0490  0.7366
  139MOL0     C19074  11.330   5.508   7.607  0.1536  0.0146 -0.3215
  139MOL0     O19075  11.339   5.564   7.733 -0.3772  0.1988 -0.6518
  139MOL0     C19076  11.417   5.499   7.821 -0.1020 -0.1825  0.2818
  139MOL0     C19077  11.377   5.448   7.944 -0.3145 -0.1065  0.7071
  139MOL0     C19078  11.464   5.379   8.021 -0.3843 -0.1435  0.2708
  139MOL0     C19079  11.600   5.376   7.994 -0.5342  0.7702 -0.6293
  139MOL0     O19080  11.686   5.308   8.076 -0.0998 -0.4331 -0.3865
  139MOL0     C19081  11.643   5.251   8.201  0.1953 -1.2823 -1.0498
  139MOL0     C19082  11.754   5.176   8.272  0.6386 -0.6282  0.6436
  139MOL0     C19083  11.790   5.045   8.200  0.4484 -0.1886 -0.0662
  139MOL0     C19084  11.710   4.924   8.250 -0.6393  0.5068  0.1854
  139MOL0     C19085  11.778   4.808   8.175  0.2676  0.3024  0.1933
  139MOL0     C19086  11.685   4.689   8.187 -0.6481  0.4972 -0.1687
  139MOL0     C19087  11.728   4.565   8.111  0.4951 -0.4803  0.1161
  139MOL0     C19088  11.646   4.445   8.147  0.0650  0.1383 -0.8039
  139MOL0    Cl19089  11.481   4.480   8.107  0.3555  0.0569  0.3829
  139MOL0     C19090  11.646   5.442   7.878 -0.5707 -0.3011  0.4352
  139MOL0     C19091  11.556   5.507   7.802 -0.9822  0.1640  0.5905
  139MOL0     O19092  11.369   5.402   7.572  0.2029  0.8327  0.2202
  139MOL0     C19093  11.201   5.710   7.542  0.0715  0.0488  0.1252
  139MOL0     C19094  11.140   5.796   7.450 -0.7032 -0.0490 -0.0659
  139MOL0     N19095  10.787   6.471   7.060 -0.0451  0.0877 -0.4881
  139MOL0     N19096  10.823   6.592   7.077  0.1179  1.1117  0.1406
  139MOL0     C19097  10.939   7.363   7.483 -0.2059  0.3342 -0.2403
  139MOL0     C19098  10.954   7.274   7.595  0.1695 -0.3875  0.1910
  139MOL0     C19099  10.995   6.843   7.769  0.2695  0.2093 -1.0068
  139MOL0     C19100  10.871   6.830   7.836 -0.4706  0.3847 -0.6315
  139MOL0     C19101  10.852   6.742   7.935 -0.2892 -1.0019  0.7493
  139MOL0     C19102  10.948   6.646   7.963 -0.0830 -0.0004  1.1389
  139MOL0     O19103  10.927   6.569   8.071  0.7848  0.8833 -0.4105
  139MOL0     C19104  11.020   6.468   8.107 -0.3425 -0.7334 -0.2812
  139MOL0     C19105  11.013   6.414   8.248  0.2459  0.0287  0.0092
  139MOL0     C19106  10.868   6.384   8.280  1.6612  0.1421 -0.2090
  139MOL0     C19107  10.836   6.356   8.432 -0.1189 -0.8561  0.2524
  139MOL0     C19108  10.930   6.289   8.518  0.7112  0.2426 -0.1084
  139MOL0     C19109  11.008   6.250   8.602  0.7655 -0.9993  0.5717
  139MOL0     C19110  11.064   6.639   7.875 -0.0093  0.1953 -1.1819
  139MOL0     C19111  11.085   6.734   7.776 -1.2957 -1.2575  0.1655
  139MOL0     C19112  11.210   6.726   7.692 -0.3845 -0.3459 -0.7923
  139MOL0     H19113  10.806   7.000   7.458 -1.4229  0.4369 -4.2808
  139MOL0     H19114  10.752   7.165   7.276 -0.1529  0.1400  0.9640
  139MOL0     H19115  11.033   7.476   7.230  2.7758 -5.3554 -2.1863
  139MOL0     H19116  10.894   7.547   7.159  2.7250  1.9316  0.0925
  139MOL0     H19117  10.921   7.393   6.964 -1.7674 -0.3658  0.8526
  139MOL0     H19118  11.091   7.429   7.021 -1.1815  2.5635 -0.3940
  139MOL0     H19119  10.930   7.194   7.117  0.2812 -2.3236 -0.6784
  139MOL0     H19120  11.002   7.197   6.957 -1.7810 -0.0233  0.9145
  139MOL0     H19121  11.221   7.236   7.080 -0.4317 -0.3507 -1.6314
  139MOL0     H19122  11.131   7.201   7.233 -0.0691  0.1981 -0.3301
  139MOL0     H19123  11.229   6.980   7.138 -0.6266 -1.8325 -1.5189
  139MOL0     H19124  11.141   7.008   6.989 -1.8606 -3.1021 -1.0331
  139MOL0     H19125  10.992   7.021   7.249 -2.7504  0.1741  0.2827
  139MOL0     H19126  10.932   6.970   7.090 -0.0070  3.5698  1.1172
  139MOL0     H19127  11.093   6.826   7.305 -0.2670  1.3661 -0.0361
  139MOL0     H19128  11.090   6.755   7.141  2.0318 -0.0279  2.0228
  139MOL0     H19129  10.902   6.742   7.366 -1.4224  4.0551  0.4146
  139MOL0     H19130  10.815   6.816   7.245 -0.2409 -0.5936  0.0316
  139MOL0     H19131  10.941   6.481   7.353  1.4255 -0.0082 -0.3067
  139MOL0     H19132  10.794   6.224   7.282 -0.4874  0.2608 -0.6727
  139MOL0     H19133  10.961   6.250   7.288  0.3188 -0.9145  1.0275
  139MOL0     H19134  10.791   6.139   7.082  0.3718  2.4837  2.0103
  139MOL0     H19135  10.919   6.223   7.009  2.9493 -0.2396  0.7933
  139MOL0     H19136  10.925   5.950   7.064  3.2512 -2.1816  0.9508
  139MOL0     H19137  11.067   6.051   7.044  1.3533  1.4264  2.4166
  139MOL0     H19138  11.125   6.060   7.251 -0.2774  0.0819 -0.2636
  139MOL0     H19139  10.970   5.981   7.315 -2.2224  0.5192 -1.8956
  139MOL0     H19140  11.278   5.691   7.177  0.0698 -0.4888 -0.6626
  139MOL0     H19141  11.492   5.470   7.383  0.4653  1.8186  0.3634
  139MOL0     H19142  11.452   5.542   7.223  1.7518  2.0713  2.2655
  139MOL0     H19143  11.345   5.414   7.292  1.1521 -1.1314 -0.9025
  139MOL0     H19144  11.277   5.455   7.986  0.2054 -0.0158  1.9791
  139MOL0     H19145  11.430   5.332   8.113  0.1967  1.9056  1.5954
  139MOL0     H19146  11.606   5.326   8.272 -0.3851 -1.7380 -0.8673
  139MOL0     H19147  11.562   5.177   8.196  0.5647 -2.1325  2.5369
  139MOL0     H19148  11.831   5.253   8.266 -0.2882  0.1906 -2.6455
  139MOL0     H19149  11.723   5.171   8.377  0.6242  2.6270  0.8998
  139MOL0     H19150  11.899   5.044   8.200  0.4979  1.4761 -0.7015
  139MOL0     H19151  11.770   5.038   8.093 -1.3591 -1.3996  0.2878
  139MOL0     H19152  11.609   4.934   8.210  0.3491 -0.7567 -3.0127
  139MOL0     H19153  11.708   4.909   8.358 -0.0216 -1.6340 -0.0500
  139MOL0     H19154  11.799   4.827   8.069  2.4252  0.4588  0.6007
  139MOL0     H19155  11.874   4.795   8.225  1.2786  1.5590 -1.3134
  139MOL0     H19156  11.585   4.712   8.150 -1.5265 -1.9533  0.4902
  139MOL0     H19157  11.667   4.665   8.292  2.0855  1.2325  0.5650
  139MOL0     H19158  11.836   4.571   8.125  0.7295  5.0785 -1.7108
  139MOL0     H19159  11.714   4.596   8.007 -3.2697  0.9886  0.8909
  139MOL0     H19160  11.648   4.440   8.256  1.9654  0.6113 -0.7832
  139MOL0     H19161  11.688   4.356   8.099  0.9804  0.0609  0.0991
  139MOL0     H19162  11.750   5.452   7.850 -0.3453  1.1628  1.6440
  139MOL0     H19163  11.591   5.555   7.711  1.3293 -2.0105  0.2181
  139MOL0     H19164  11.177   5.736   7.645  1.6741 -0.1117  0.5628
  139MOL0     H19165  11.063   5.866   7.482  0.2857 -0.6156  4.0767
  139MOL0     H19166  10.981   7.463   7.491  0.4266  0.2844 -2.2628
  139MOL0     H19167  11.000   7.317   7.683  0.0715  1.4309 -0.5956
  139MOL0     H19168  10.788   6.897   7.814 -0.7951  0.4226  0.6425
  139MOL0     H19169  10.749   6.746   7.972 -1.1912 -1.1678 -1.5994
  139MOL0     H19170  11.007   6.393   8.028 -0.4002 -0.7787 -0.2283
  139MOL0     H19171  11.122   6.504   8.092 -0.1811  0.8619  3.5138
  139MOL0     H19172  11.041   6.489   8.322 -0.0260 -0.2950  0.4442
  139MOL0     H19173  11.073   6.323   8.252  1.7686  1.0410  1.4622
  139MOL0     H19174  10.797   6.463   8.252  1.6250  1.7923  3.8770
  139MOL0     H19175  10.843   6.290   8.229  0.1762  1.4132 -1.9855
  139MOL0     H19176  10.740   6.304   8.436 -0.9579  0.5590 -0.4030
  139MOL0     H19177  10.819   6.452   8.481  0.1326 -2.0855  2.8991
  139MOL0     H19178  11.086   6.214   8.666  1.4060  1.1545  1.0848
  139MOL0     H19179  11.129   6.553   7.886  0.5795  0.7132 -0.4700
  139MOL0     H19180  11.265   6.633   7.705  1.6921  0.8856 -0.2548
  139MOL0     H19181  11.201   6.742   7.584  2.6317 -0.6447 -1.1752
  139MOL0     H19182  11.269   6.814   7.722 -0.1136 -0.6850 -0.3209
  140MOL0     O19183   6.316   2.414   6.719  0.5659  0.1442 -0.3445
  140MOL0     C19184   6.223   2.448   6.793 -1.0123  1.0516  0.3791
  140MOL0     O19185   6.207   2.574   6.843 -0.2729 -0.7313 -0.0466
  140MOL0     C19186   6.283   2.686   6.808  0.2734 -0.0497  0.5395
  140MOL0     C19187   6.221   2.811   6.838  1.2439 -0.6620  0.2266
  140MOL0     C19188   6.278   2.931   6.797  0.2407 -0.4342  0.4335
  140MOL0     C19189   6.408   2.942   6.744 -0.1706  0.1926 -1.0658
  140MOL0     O19190   6.469   3.060   6.721 -0.5649 -0.2101 -0.2851
  140MOL0     C19191   6.611   3.062   6.723 -0.1471 -0.3579  0.1179
  140MOL0     C19192   6.672   3.206   6.712 -0.7558 -0.2008  0.4417
  140MOL0     C19193   6.623   3.292   6.827  1.0224 -0.0706  0.4963
  140MOL0     C19194   6.686   3.429   6.793 -0.6331 -0.2435  0.2271
  140MOL0     C19195   6.629   3.540   6.881  0.6960  0.4907 -0.0676
  140MOL0     C19196   6.692   3.676   6.857  0.3692 -1.2939 -0.2719
  140MOL0     C19197   6.668   3.735   6.711 -0.1150  0.1168  0.3764
  140MOL0     C19198   6.793   3.747   6.621  0.0060  0.4005  0.1520
  140MOL0     N19199   6.898   3.831   6.664 -0.4824 -0.3908 -0.7566
  140MOL0     C19200   6.890   3.958   6.724 -0.8976 -0.0371  1.0082
  140MOL0     C19201   7.016   4.004   6.746 -1.0692  0.0417  0.0759
  140MOL0     C19202   7.076   4.132   6.785 -0.1060  0.1383 -0.4612
  140MOL0     C19203   6.992   4.206   6.888 -0.4596 -0.4303 -0.2110
  140MOL0     C19204   7.044   4.193   7.038  0.3284 -0.1153  0.1964
  140MOL0     C19205   7.067   4.038   7.075  0.0503  0.7072  0.6934
  140MOL0     O19206   6.937   3.977   7.068  0.2047  0.2801  0.2979
  140MOL0     C19207   6.933   3.844   7.107 -0.0671  0.6772  0.3348
  140MOL0     C19208   6.818   3.784   7.162 -0.2762 -0.8139  0.6205
  140MOL0     C19209   6.806   3.650   7.193  1.0780  0.3532  0.3875
  140MOL0     C19210   6.679   3.608   7.272  0.3772 -0.8039 -0.5006
  140MOL0     C19211   6.910   3.556   7.163 -0.5557 -0.7583  0.4449
  140MOL0     C19212   6.905   3.421   7.206 -0.1473  0.1902 -0.5085
  140MOL0     O19213   6.999   3.384   7.296 -0.4169 -0.7827 -0.2824
  140MOL0     C19214   7.006   3.254   7.339 -0.1100 -0.4394  0.1474
  140MOL0     C19215   7.120   3.188   7.342 -0.5004  0.1724  0.0930
  140MOL0     C19216   7.126   3.054   7.381 -0.3204  1.3144 -0.7834
  140MOL0     C19217   7.006   2.983   7.410 -0.2095  0.7973  1.1449
  140MOL0     O19218   7.011   2.851   7.443  0.9027  0.6792 -0.3787
  140MOL0     C19219   7.079   2.755   7.363 -0.0703  0.4183 -0.2718
  140MOL0     C19220   7.061   2.615   7.432  0.3726  0.1594  0.4300
  140MOL0     C19221   7.077   2.487   7.342 -0.5739 -0.6570  0.1707
  140MOL0     C19222   7.044   2.376   7.431  0.5427 -0.6714 -0.0691
  140MOL0     C19223   7.095   2.246   7.375 -0.2632  0.0968 -0.6063
  140MOL0     C19224   7.244   2.218   7.412 -0.0208 -0.8659 -0.5003
  140MOL0     C19225   7.277   2.078   7.369 -0.3304  0.6735 -0.5942
  140MOL0     C19226   7.251   1.972   7.486 -0.2068 -0.2752  0.1795
  140MOL0    Cl19227   7.362   1.834   7.452 -0.4734 -0.3080  0.2758
  140MOL0     C19228   6.888   3.064   7.415  0.0771  0.2166  1.0321
  140MOL0     C19229   6.890   3.196   7.388  0.4469 -0.5261 -0.2012
  140MOL0     O19230   6.823   3.342   7.155  1.1407 -0.5649 -1.1531
  140MOL0     C19231   7.021   3.620   7.111  0.3361  0.5358 -0.1457
  140MOL0     C19232   7.032   3.746   7.062  0.3909 -0.9898 -0.0596
  140MOL0     N19233   7.101   3.890   6.718 -0.4030 -0.6107 -0.3035
  140MOL0     N19234   7.034   3.799   6.662 -0.4975 -0.4078 -1.1984
  140MOL0     C19235   6.473   2.815   6.729  0.3003 -0.4034 -0.8067
  140MOL0     C19236   6.408   2.693   6.760  0.1869 -0.2703  0.1103
  140MOL0     C19237   6.123   2.350   6.834  0.4583 -0.7935 -0.2197
  140MOL0     C19238   6.047   2.373   6.955  0.2548  0.4185  0.3121
  140MOL0     C19239   5.951   2.284   6.995  0.5955  0.5872  0.4036
  140MOL0     C19240   5.935   2.164   6.924  0.2453 -1.0156  0.1929
  140MOL0     O19241   5.861   2.060   6.961  0.6642 -0.9133 -0.2366
  140MOL0     C19242   5.879   2.008   7.093  0.0874 -0.5947  0.1030
  140MOL0     C19243   5.890   1.852   7.099  0.1299 -0.1022  0.0856
  140MOL0     C19244   5.955   1.797   6.964 -0.2472 -0.2621  0.1010
  140MOL0     C19245   5.849   1.774   6.845  0.0586 -0.5721 -0.3613
  140MOL0     C19246   5.915   1.786   6.723 -0.2033  1.4786 -0.1944
  140MOL0     C19247   5.975   1.797   6.619 -0.1629  0.9095  0.3271
  140MOL0     C19248   6.004   2.147   6.800 -0.1820 -0.2337  0.7400
  140MOL0     C19249   6.109   2.235   6.757  0.1571  0.7120  0.9609
  140MOL0     C19250   6.167   2.200   6.620 -0.2271 -0.1631  0.2703
  140MOL0     H19251   6.121   2.818   6.881  0.0319  2.5343 -2.7059
  140MOL0     H19252   6.211   3.014   6.817 -1.2171 -1.8956  1.8780
  140MOL0     H19253   6.657   3.003   6.643  2.0725 -1.1408  1.8843
  140MOL0     H19254   6.644   3.016   6.816  3.5348  0.2395 -0.7375
  140MOL0     H19255   6.781   3.193   6.708 -0.5924  1.3185 -1.2164
  140MOL0     H19256   6.649   3.254   6.617 -3.6355 -1.3293  0.4596
  140MOL0     H19257   6.514   3.297   6.828  0.8956 -1.6789 -0.4667
  140MOL0     H19258   6.645   3.243   6.923 -1.5967 -1.6285  0.4022
  140MOL0     H19259   6.794   3.431   6.810 -0.9424 -2.1771  2.9662
  140MOL0     H19260   6.659   3.464   6.693 -0.9897 -1.3818 -0.0879
  140MOL0     H19261   6.655   3.519   6.985  1.5309  0.6001 -0.2492
  140MOL0     H19262   6.521   3.552   6.871  0.9933  2.2237 -1.7214
  140MOL0     H19263   6.646   3.740   6.933 -0.5895 -3.3648  0.9574
  140MOL0     H19264   6.800   3.684   6.873  0.0796  1.0412  0.9441
  140MOL0     H19265   6.626   3.836   6.717 -2.0168 -0.7122  1.7910
  140MOL0     H19266   6.598   3.668   6.660  0.2203  1.1457 -1.5394
  140MOL0     H19267   6.829   3.645   6.607 -0.9308 -0.0282  0.7613
  140MOL0     H19268   6.764   3.788   6.524  0.4336  0.2860 -0.0261
  140MOL0     H19269   6.795   4.002   6.752 -1.5607 -0.2340 -0.8327
  140MOL0     H19270   7.076   4.192   6.693  0.7371 -0.3942 -0.8254
  140MOL0     H19271   7.180   4.133   6.819  0.6649 -0.3474 -2.6601
  140MOL0     H19272   6.988   4.315   6.874 -0.4311 -0.0196  2.3633
  140MOL0     H19273   6.891   4.165   6.880 -0.2546 -1.7480  2.7622
  140MOL0     H19274   7.136   4.251   7.046  2.5381 -3.4798  2.1842
  140MOL0     H19275   6.973   4.230   7.113  0.2818  0.6793 -0.2400
  140MOL0     H19276   7.123   4.001   6.988 -4.6174  2.7317 -3.7068
  140MOL0     H19277   7.121   4.018   7.168  1.9580 -1.1785 -0.7199
  140MOL0     H19278   6.732   3.844   7.191 -1.6127 -4.1319  4.3515
  140MOL0     H19279   6.641   3.520   7.219 -0.2271 -1.1707  0.5274
  140MOL0     H19280   6.603   3.687   7.276  0.9097 -0.3470  0.8875
  140MOL0     H19281   6.717   3.589   7.372  3.6059 -1.5785 -1.7523
  140MOL0     H19282   7.206   3.243   7.303 -0.0534  0.0049  0.8160
  140MOL0     H19283   7.220   3.002   7.395 -0.8134  0.8934  1.2882
  140MOL0     H19284   7.030   2.759   7.265  1.3825 -0.3395 -1.0623
  140MOL0     H19285   7.186   2.771   7.353  0.8227 -3.7673  0.4816
  140MOL0     H19286   7.115   2.607   7.526 -1.1674 -1.1014  1.2470
  140MOL0     H19287   6.954   2.612   7.451 -0.5432 -0.8800 -3.7131
  140MOL0     H19288   7.182   2.483   7.311 -0.0863  2.7868  0.8889
  140MOL0     H19289   7.019   2.483   7.249 -2.6492  1.6795  1.2420
  140MOL0     H19290   6.935   2.380   7.433  0.5416 -0.1115 -0.6318
  140MOL0     H19291   7.085   2.381   7.532  4.1292  0.3169 -1.4153
  140MOL0     H19292   7.030   2.166   7.413  3.7837 -4.2796 -1.9646
  140MOL0     H19293   7.090   2.248   7.266 -3.5693 -0.2324 -0.5787
  140MOL0     H19294   7.259   2.237   7.519  1.6486 -0.9523 -0.7009
  140MOL0     H19295   7.307   2.292   7.362 -1.0948  0.5879  0.2105
  140MOL0     H19296   7.383   2.083   7.345 -0.4301  1.2157 -0.9376
  140MOL0     H19297   7.218   2.058   7.279 -1.3495 -1.6631  0.5019
  140MOL0     H19298   7.147   1.938   7.476  0.3491 -1.4801 -2.4540
  140MOL0     H19299   7.281   2.015   7.582  0.2745 -0.4711  0.1184
  140MOL0     H19300   6.803   3.010   7.455 -0.9542  1.0990  0.0828
  140MOL0     H19301   6.787   3.232   7.395 -0.6987 -3.2624 -1.5250
  140MOL0     H19302   7.103   3.550   7.094 -0.5610 -0.6886  0.4705
  140MOL0     H19303   7.124   3.769   7.009 -0.0389  0.5456 -0.1822
  140MOL0     H19304   6.575   2.813   6.693  0.2429 -0.8019 -0.9446
  140MOL0     H19305   6.465   2.602   6.741  1.0871  0.8300 -2.9985
  140MOL0     H19306   6.056   2.464   7.014 -0.8181  2.1564 -2.0378
  140MOL0     H19307   5.879   2.293   7.075  0.1383 -4.0824  0.8224
  140MOL0     H19308   5.970   2.056   7.130 -1.1411  1.9193  0.1100
  140MOL0     H19309   5.785   2.037   7.141 -0.5945 -1.6935 -0.5198
  140MOL0     H19310   5.791   1.809   7.111 -2.1343  4.5682  0.3350
  140MOL0     H19311   5.957   1.821   7.180  0.6051  2.2661  0.6671
  140MOL0     H19312   6.026   1.873   6.930 -1.4303  1.2247  0.8910
  140MOL0     H19313   6.011   1.703   6.979  2.2416  0.8287 -1.6165
  140MOL0     H19314   5.766   1.844   6.858 -0.3663 -0.4071 -3.2431
  140MOL0     H19315   5.807   1.673   6.852  0.2482 -0.5643  1.3789
  140MOL0     H19316   6.036   1.809   6.532 -0.3292  1.7715  0.3267
  140MOL0     H19317   5.980   2.067   6.730 -0.6300  0.7952 -0.3259
  140MOL0     H19318   6.106   2.139   6.553  1.0062  0.7035 -1.7408
  140MOL0     H19319   6.193   2.288   6.560 -0.1156 -2.0050 -2.5784
  140MOL0     H19320   6.262   2.153   6.648  0.5843  1.5598  0.5558
  141MOL0     O19321   2.553   9.962   6.120  0.2462 -0.6794 -0.0910
  141MOL0     C19322   2.675   9.968   6.091  0.4217 -0.1910  0.9195
  141MOL0     O19323   2.763  10.071   6.135  0.0029  1.2068 -0.7414
  141MOL0     C19324   2.717  10.185   6.190 -0.2995  0.6955  1.1522
  141MOL0     C19325   2.588  10.238   6.193  0.1096  0.1005 -0.3659
  141MOL0     C19326   2.555  10.363   6.262 -1.1743  0.1824 -0.3164
  141MOL0     C19327   2.651  10.420   6.337  0.0655 -1.1540  0.3658
  141MOL0     O19328   2.614  10.529   6.411  0.2160 -0.3950 -0.2316
  141MOL0     C19329   2.700  10.617   6.485  0.3148  0.8964 -0.4163
  141MOL0     C19330   2.608  10.720   6.543 -0.3001  0.4144 -0.6551
  141MOL0     C19331   2.699  10.799   6.642 -1.1288 -0.1106 -0.1671
  141MOL0     C19332   2.641  10.917   6.717  0.4520 -0.5280  0.0271
  141MOL0     C19333   2.627  11.036   6.612 -0.3538  0.8972 -0.2974
  141MOL0     C19334   2.584  11.170   6.663  1.5122 -0.2100 -0.1130
  141MOL0     C19335   2.574  11.272   6.553 -0.1310 -1.0507  0.1968
  141MOL0     C19336   2.507  11.406   6.599 -0.2922 -0.1541 -0.3342
  141MOL0     N19337   2.489  11.502   6.491  0.2649  0.4978 -0.2024
  141MOL0     C19338   2.401  11.489   6.383 -0.1321  0.0475  0.1125
  141MOL0     C19339   2.428  11.598   6.305  0.3698  0.0372  0.3486
  141MOL0     C19340   2.355  11.631   6.174 -1.3749  0.0304 -0.2433
  141MOL0     C19341   2.364  11.516   6.062  0.2105 -0.3067 -0.3611
  141MOL0     C19342   2.253  11.521   5.953  0.0353  0.0352  0.9112
  141MOL0     C19343   2.271  11.648   5.867 -0.0588 -0.8249 -0.1437
  141MOL0     O19344   2.400  11.673   5.812 -0.1778  0.6958 -0.8052
  141MOL0     C19345   2.470  11.593   5.737  0.4887  0.2174  0.0979
  141MOL0     C19346   2.605  11.603   5.735 -0.7903 -0.1633  0.4091
  141MOL0     C19347   2.681  11.517   5.653  0.5783 -0.5648 -0.4148
  141MOL0     C19348   2.823  11.523   5.677 -0.3058 -1.3537 -0.3790
  141MOL0     C19349   2.610  11.431   5.567 -0.5193  0.1883  0.0754
  141MOL0     C19350   2.697  11.343   5.465  0.7119  1.0269  0.5434
  141MOL0     O19351   2.643  11.230   5.425  0.7948  0.3277  0.4778
  141MOL0     C19352   2.694  11.177   5.309  0.4297  0.1097 -0.6820
  141MOL0     C19353   2.612  11.178   5.190 -0.0914 -0.0984  0.0201
  141MOL0     C19354   2.647  11.124   5.076  0.3152 -0.7405  0.1333
  141MOL0     C19355   2.776  11.064   5.066  0.0164 -0.2404  0.4622
  141MOL0     O19356   2.816  11.002   4.948 -0.3926 -0.0570 -0.1474
  141MOL0     C19357   2.724  10.963   4.844 -0.0078  0.8411 -0.3416
  141MOL0     C19358   2.804  10.884   4.734 -0.4166  1.0909 -0.5711
  141MOL0     C19359   2.859  10.745   4.776  0.5627 -0.5356  0.6760
  141MOL0     C19360   2.967  10.710   4.683 -0.1715  0.3213 -0.0067
  141MOL0     C19361   2.917  10.698   4.533 -0.4176  0.7330 -0.8787
  141MOL0     C19362   3.009  10.644   4.427 -0.4751  0.7611  0.2034
  141MOL0     C19363   2.937  10.643   4.295 -0.4653 -0.0950 -0.0148
  141MOL0     C19364   3.021  10.590   4.178 -0.3383  1.0376  0.8441
  141MOL0    Cl19365   3.147  10.709   4.137  0.1194  0.0850 -0.1392
  141MOL0     C19366   2.864  11.061   5.173  0.5947 -0.4772 -1.0174
  141MOL0     C19367   2.817  11.115   5.297 -0.5907  0.1084 -0.5110
  141MOL0     O19368   2.792  11.396   5.417 -0.4329  0.7580 -0.3132
  141MOL0     C19369   2.474  11.435   5.552  0.0966 -0.1119 -0.5157
  141MOL0     C19370   2.399  11.515   5.645  0.8082  0.0735  0.2082
  141MOL0     N19371   2.525  11.669   6.377  0.6224  1.2010  0.4452
  141MOL0     N19372   2.572  11.605   6.477  0.4603  0.7299  0.9213
  141MOL0     C19373   2.782  10.375   6.329  0.3661  0.6115 -0.0726
  141MOL0     C19374   2.814  10.261   6.253 -0.0982  0.2200 -0.5043
  141MOL0     C19375   2.730   9.859   6.011  0.1299  0.3450  0.0834
  141MOL0     C19376   2.867   9.830   6.018  0.2790 -0.1000 -0.0968
  141MOL0     C19377   2.919   9.738   5.936  1.0791  1.1906  0.6227
  141MOL0     C19378   2.843   9.663   5.833  0.2742  0.2381 -0.3661
  141MOL0     O19379   2.884   9.555   5.762 -0.2603  0.6425 -0.4803
  141MOL0     C19380   3.027   9.554   5.723 -0.2311  0.3506  0.1906
  141MOL0     C19381   3.039   9.642   5.599 -0.2634 -0.5946  0.1129
  141MOL0     C19382   3.176   9.616   5.530  0.4086 -0.3746  0.1642
  141MOL0     C19383   3.208   9.726   5.423 -0.5701 -0.6819 -0.1047
  141MOL0     C19384   3.101   9.738   5.330 -0.9624 -0.0717  0.5356
  141MOL0     C19385   3.025   9.727   5.232 -0.0039 -0.3730 -0.3902
  141MOL0     C19386   2.705   9.680   5.834 -0.6724  0.0082  0.0814
  141MOL0     C19387   2.650   9.783   5.912  0.0795 -0.0782 -0.4754
  141MOL0     C19388   2.505   9.812   5.888 -0.0599 -0.0115 -0.1072
  141MOL0     H19389   2.505  10.181   6.153  0.7769 -2.2969  1.4016
  141MOL0     H19390   2.451  10.391   6.274 -0.4204  2.8386  0.9689
  141MOL0     H19391   2.777  10.660   6.420 -0.0140  0.8445 -0.8449
  141MOL0     H19392   2.750  10.557   6.561 -1.5602 -1.9581 -1.2517
  141MOL0     H19393   2.577  10.780   6.456  1.3724 -2.4732 -3.4467
  141MOL0     H19394   2.523  10.675   6.596  0.5861 -0.6645 -0.1257
  141MOL0     H19395   2.727  10.722   6.714  1.7271  0.5130 -0.4901
  141MOL0     H19396   2.788  10.833   6.590 -1.6597 -4.3600 -4.5737
  141MOL0     H19397   2.543  10.899   6.764  0.1674 -2.8992 -1.3524
  141MOL0     H19398   2.714  10.952   6.791 -0.4214  1.0087  0.2102
  141MOL0     H19399   2.553  10.996   6.541 -0.3925 -3.9030  2.0364
  141MOL0     H19400   2.723  11.050   6.562  1.6245 -3.8426  1.6627
  141MOL0     H19401   2.486  11.154   6.708  1.0535 -1.5244 -1.4829
  141MOL0     H19402   2.641  11.213   6.746 -0.1677 -0.5100  1.2516
  141MOL0     H19403   2.506  11.231   6.477 -2.2158  3.1626 -0.5243
  141MOL0     H19404   2.665  11.288   6.494  0.2753 -1.6438  0.6503
  141MOL0     H19405   2.407  11.393   6.641 -0.1434 -0.7292 -0.1488
  141MOL0     H19406   2.569  11.447   6.680  1.6412 -1.8019 -0.8958
  141MOL0     H19407   2.347  11.398   6.362 -1.1262 -0.0502  2.7534
  141MOL0     H19408   2.394  11.716   6.117  3.4630 -1.3880  0.4922
  141MOL0     H19409   2.257  11.649   6.218  0.6269  0.9715  4.5545
  141MOL0     H19410   2.468  11.505   6.029  1.0019 -0.5309  2.0295
  141MOL0     H19411   2.368  11.419   6.112  1.4531  1.7296  3.9197
  141MOL0     H19412   2.265  11.436   5.886 -0.2881 -2.0004  3.3008
  141MOL0     H19413   2.151  11.519   5.993 -0.3109  0.3395  0.0623
  141MOL0     H19414   2.199  11.647   5.784 -0.5133 -0.9247  0.2510
  141MOL0     H19415   2.234  11.735   5.922 -4.9594 -1.0754 -2.4847
  141MOL0     H19416   2.654  11.674   5.800  0.0946  0.8147 -1.2438
  141MOL0     H19417   2.858  11.609   5.621 -0.6225 -0.1836  1.1384
  141MOL0     H19418   2.872  11.431   5.645  0.9590 -0.4077 -1.2680
  141MOL0     H19419   2.836  11.540   5.785  0.8721  0.8320 -0.8018
  141MOL0     H19420   2.514  11.225   5.188 -0.0744  0.0276  1.2907
  141MOL0     H19421   2.572  11.122   4.997 -2.1545 -1.2830  2.3586
  141MOL0     H19422   2.647  10.901   4.889  0.9647 -0.0804  0.1046
  141MOL0     H19423   2.676  11.048   4.795  0.2857  1.5120  0.5188
  141MOL0     H19424   2.736  10.868   4.650 -2.4276  3.5559  0.4318
  141MOL0     H19425   2.885  10.950   4.701 -0.7078  1.0383 -1.4262
  141MOL0     H19426   2.770  10.682   4.788 -0.3626  0.7214  0.5792
  141MOL0     H19427   2.893  10.749   4.880  1.8370 -0.0927  0.2687
  141MOL0     H19428   3.005  10.612   4.714 -3.5335 -0.5498  1.8399
  141MOL0     H19429   3.042  10.790   4.687 -2.4107  2.4877  2.7669
  141MOL0     H19430   2.829  10.634   4.535  0.0336 -0.0717  3.5341
  141MOL0     H19431   2.897  10.801   4.501 -0.8544  1.0276  0.3258
  141MOL0     H19432   3.036  10.542   4.457 -3.9081 -0.5261 -0.6331
  141MOL0     H19433   3.091  10.714   4.405 -1.8921  3.1732  2.1009
  141MOL0     H19434   2.908  10.744   4.263  1.9858 -0.0227 -2.3544
  141MOL0     H19435   2.848  10.579   4.301 -0.1254 -0.8697 -2.4455
  141MOL0     H19436   2.960  10.588   4.087 -0.2653  0.4062  0.8049
  141MOL0     H19437   3.071  10.494   4.195  1.9160  1.6832 -1.5181
  141MOL0     H19438   2.955  11.005   5.194 -0.8837 -1.4046  4.3583
  141MOL0     H19439   2.875  11.096   5.387  0.5242  0.3178 -1.1676
  141MOL0     H19440   2.436  11.370   5.474  1.8032 -2.1997  0.3129
  141MOL0     H19441   2.291  11.507   5.637  0.9175  0.0638 -1.9281
  141MOL0     H19442   2.849  10.438   6.387  0.3000  1.0022 -0.4182
  141MOL0     H19443   2.918  10.232   6.253 -0.6569 -2.2548  2.4081
  141MOL0     H19444   2.938   9.878   6.085 -0.3429 -1.8980  1.9858
  141MOL0     H19445   3.022   9.708   5.953 -0.2310 -3.4486  1.5490
  141MOL0     H19446   3.094   9.577   5.806 -0.2570 -1.3842  0.7318
  141MOL0     H19447   3.042   9.448   5.697  2.7617  0.7802 -0.1911
  141MOL0     H19448   3.042   9.747   5.628  0.2827 -0.8895  1.1787
  141MOL0     H19449   2.953   9.617   5.536 -1.1100 -0.1445  1.0588
  141MOL0     H19450   3.256   9.619   5.605 -0.1654 -0.2646  0.7720
  141MOL0     H19451   3.167   9.519   5.481 -1.5871 -0.9468  1.5824
  141MOL0     H19452   3.297   9.707   5.362  1.3796  0.0505  2.3438
  141MOL0     H19453   3.226   9.825   5.466  2.3089 -0.9011 -0.5950
  141MOL0     H19454   2.950   9.702   5.160 -1.4962  1.4689  0.4346
  141MOL0     H19455   2.638   9.618   5.775 -1.6299 -1.3696  2.4794
  141MOL0     H19456   2.440   9.777   5.968 -0.3430  2.6237  0.9037
  141MOL0     H19457   2.477   9.918   5.881  0.1151 -0.0546 -2.3434
  141MOL0     H19458   2.481   9.762   5.794  0.4602 -2.5526  1.0447
  142MOL0     O19459   8.782   5.258   1.327 -0.0715 -0.4714  0.2973
  142MOL0     C19460   8.903   5.285   1.330 -0.5433  0.5191 -0.0670
  142MOL0     O19461   8.960   5.420   1.331  0.3170  0.2987  0.9607
  142MOL0     C19462   8.892   5.526   1.279 -0.3496  0.2487  0.3101
  142MOL0     C19463   8.769   5.516   1.212  0.5366 -0.5005 -0.5833
  142MOL0     C19464   8.702   5.633   1.171  1.1327 -1.0113 -0.2567
  142MOL0     C19465   8.749   5.755   1.208 -0.0324  0.7974  0.0275
  142MOL0     O19466   8.666   5.859   1.173 -0.2782  0.5544  0.1311
  142MOL0     C19467   8.703   5.994   1.163 -0.3567  0.1738 -0.0403
  142MOL0     C19468   8.597   6.083   1.103 -0.4804  0.2744  0.2028
  142MOL0     C19469   8.636   6.237   1.116  0.7627  0.5799  1.2937
  142MOL0     C19470   8.517   6.339   1.105 -0.0953 -0.9272 -0.7923
  142MOL0     C19471   8.578   6.471   1.122  1.2574 -1.2133 -0.1804
  142MOL0     C19472   8.481   6.580   1.067 -1.3465 -0.5274  0.1372
  142MOL0     C19473   8.544   6.723   1.074  0.7747  0.1796 -0.6282
  142MOL0     C19474   8.519   6.806   0.949  0.9370 -0.9729  0.1379
  142MOL0     N19475   8.629   6.789   0.856  0.3807  0.0814  0.6245
  142MOL0     C19476   8.693   6.671   0.815 -0.3268 -0.3348 -1.1392
  142MOL0     C19477   8.779   6.712   0.715 -0.6924 -0.2148 -0.0825
  142MOL0     C19478   8.872   6.618   0.632  0.2469 -1.2206 -0.6585
  142MOL0     C19479   8.998   6.574   0.692 -0.2879 -0.5078 -0.1409
  142MOL0     C19480   8.993   6.518   0.832 -0.0086 -0.2336 -0.3156
  142MOL0     C19481   9.132   6.526   0.896 -0.1777  0.4076  0.4811
  142MOL0     O19482   9.147   6.458   1.028  1.2976  0.5940  0.9670
  142MOL0     C19483   9.113   6.536   1.138 -0.0814  0.3094 -0.1287
  142MOL0     C19484   9.151   6.484   1.258 -0.3812  0.8639 -0.0594
  142MOL0     C19485   9.133   6.552   1.378  0.3737 -0.4196 -0.5282
  142MOL0     C19486   9.173   6.488   1.511  0.2707 -0.1890  1.0130
  142MOL0     C19487   9.062   6.684   1.371 -0.4611  0.3703 -0.5930
  142MOL0     C19488   9.025   6.755   1.499  0.3293 -1.1605  0.6967
  142MOL0     O19489   8.992   6.882   1.478  0.3978 -0.2573  0.6861
  142MOL0     C19490   8.962   6.960   1.584  0.3262 -1.6579 -0.1064
  142MOL0     C19491   8.843   7.028   1.589  0.1459  0.4798  0.6148
  142MOL0     C19492   8.818   7.109   1.708  0.7098  0.8665 -1.2307
  142MOL0     C19493   8.905   7.120   1.817 -0.1259 -0.0887  0.1066
  142MOL0     O19494   8.886   7.172   1.944  0.0997  0.2415  0.2863
  142MOL0     C19495   8.757   7.151   2.008 -0.2180 -0.4758 -0.2767
  142MOL0     C19496   8.773   7.187   2.155  0.5060 -0.7977  0.6893
  142MOL0     C19497   8.868   7.092   2.224 -0.0083 -0.6339 -1.1057
  142MOL0     C19498   8.828   7.083   2.368 -0.1881  0.3587 -0.7595
  142MOL0     C19499   8.944   7.014   2.449 -0.5113 -0.4411 -0.9840
  142MOL0     C19500   8.920   6.994   2.600  0.2592  0.0575  0.2418
  142MOL0     C19501   9.010   7.083   2.683  0.7404  0.5532 -0.1402
  142MOL0     C19502   8.975   7.097   2.842 -0.1929  0.8800 -1.5121
  142MOL0    Cl19503   9.002   6.934   2.927 -0.0516 -0.1888 -0.2185
  142MOL0     C19504   9.023   7.056   1.802 -1.0112 -0.1572  0.1343
  142MOL0     C19505   9.045   6.972   1.689 -0.2737 -0.4123 -0.4237
  142MOL0     O19506   8.996   6.694   1.599  1.0244  0.4377  0.0919
  142MOL0     C19507   9.036   6.736   1.251  0.9883  1.0301  0.0394
  142MOL0     C19508   9.058   6.656   1.137  0.6428  0.4276  0.1253
  142MOL0     N19509   8.751   6.847   0.687  0.0467 -0.0665 -0.0048
  142MOL0     N19510   8.660   6.892   0.769  0.3646 -0.1500 -0.5857
  142MOL0     C19511   8.879   5.766   1.257 -0.1427  0.5498  0.2486
  142MOL0     C19512   8.949   5.651   1.301  0.3538  0.4350  0.4036
  142MOL0     C19513   9.001   5.178   1.347 -0.5382  0.8460 -0.5549
  142MOL0     C19514   9.126   5.202   1.300  0.1586  0.5486  0.5230
  142MOL0     C19515   9.214   5.099   1.300  0.3155 -0.2032  0.8572
  142MOL0     C19516   9.194   4.968   1.349 -0.3450  0.0739 -0.6285
  142MOL0     O19517   9.287   4.867   1.364  0.1761  0.4562 -0.7554
  142MOL0     C19518   9.426   4.886   1.340 -0.4807 -0.1300 -0.0292
  142MOL0     C19519   9.445   4.876   1.190 -0.0356  0.1258 -0.2544
  142MOL0     C19520   9.585   4.911   1.147  0.2427 -0.5640 -0.5197
  142MOL0     C19521   9.614   5.070   1.148  0.1734  0.3123 -0.6367
  142MOL0     C19522   9.522   5.118   1.039  0.1193 -0.5248  0.1328
  142MOL0     C19523   9.454   5.157   0.939  0.7762 -0.3423 -0.1708
  142MOL0     C19524   9.067   4.948   1.409  0.0055 -1.0156 -0.7290
  142MOL0     C19525   8.974   5.050   1.405 -0.3221 -0.6094 -1.2564
  142MOL0     C19526   8.836   5.028   1.480 -0.0856  0.3678  0.4074
  142MOL0     H19527   8.721   5.422   1.189 -0.6993 -0.6927  2.3077
  142MOL0     H19528   8.613   5.626   1.109  1.1441 -0.4954 -0.3393
  142MOL0     H19529   8.801   6.001   1.115 -0.1029  0.2102  0.4704
  142MOL0     H19530   8.717   6.041   1.261 -0.9409 -0.3706  0.3136
  142MOL0     H19531   8.578   6.054   0.999 -2.5281  6.6817 -1.6763
  142MOL0     H19532   8.505   6.075   1.162  0.6141 -0.6567  1.8342
  142MOL0     H19533   8.696   6.244   1.207  1.2910  1.2391  0.9005
  142MOL0     H19534   8.702   6.256   1.031 -1.8565  0.1665 -0.9716
  142MOL0     H19535   8.468   6.331   1.008 -0.0577  1.1027 -1.0247
  142MOL0     H19536   8.436   6.328   1.179  0.2146 -1.8051 -0.5702
  142MOL0     H19537   8.675   6.473   1.072  1.3723  0.5305  0.0719
  142MOL0     H19538   8.599   6.485   1.228  0.8384 -4.3165  0.4152
  142MOL0     H19539   8.458   6.552   0.963 -2.9311  1.1366 -0.0211
  142MOL0     H19540   8.385   6.582   1.119 -0.8210 -0.6786  1.1388
  142MOL0     H19541   8.652   6.728   1.092  0.9819 -0.1164 -1.7649
  142MOL0     H19542   8.509   6.771   1.166 -0.8877 -2.2377  0.0845
  142MOL0     H19543   8.426   6.769   0.906  0.8777 -0.8438  0.1559
  142MOL0     H19544   8.499   6.912   0.970  0.9440 -0.8230 -0.5798
  142MOL0     H19545   8.675   6.573   0.856 -1.7156 -0.0927 -1.1345
  142MOL0     H19546   8.900   6.665   0.537 -0.9279 -0.3222 -0.5830
  142MOL0     H19547   8.811   6.534   0.598 -0.7555  0.5568 -3.6304
  142MOL0     H19548   9.039   6.498   0.625  0.4289 -2.2252  2.1397
  142MOL0     H19549   9.064   6.661   0.700 -0.6548 -0.3465  1.5636
  142MOL0     H19550   8.915   6.565   0.892 -0.6947 -0.2209 -1.2043
  142MOL0     H19551   8.970   6.411   0.836 -0.0335 -0.2422  3.8775
  142MOL0     H19552   9.206   6.489   0.825  1.7018 -0.5575  2.8153
  142MOL0     H19553   9.161   6.631   0.903  2.2407  0.0332 -2.1823
  142MOL0     H19554   9.193   6.386   1.276  2.1796  2.2464  2.2552
  142MOL0     H19555   9.087   6.451   1.568  0.5068 -3.6300 -0.5991
  142MOL0     H19556   9.229   6.563   1.568  0.4001  2.0231 -1.8243
  142MOL0     H19557   9.243   6.406   1.494 -1.0150 -1.7455  2.8436
  142MOL0     H19558   8.773   7.018   1.506 -1.5419 -1.3495  2.1445
  142MOL0     H19559   8.719   7.151   1.717  0.9495  0.9830  2.1286
  142MOL0     H19560   8.685   7.222   1.966  0.2196  0.2339  0.1646
  142MOL0     H19561   8.727   7.048   1.986 -1.6936 -0.8331  2.7734
  142MOL0     H19562   8.800   7.292   2.167  0.1403 -0.2744 -2.2733
  142MOL0     H19563   8.672   7.184   2.197  0.1456 -1.4720 -0.1886
  142MOL0     H19564   8.971   7.122   2.207 -0.1230 -0.6515 -1.8595
  142MOL0     H19565   8.859   6.989   2.189  0.2690 -1.9433  2.2473
  142MOL0     H19566   8.731   7.032   2.375 -0.6728  1.3627  0.0889
  142MOL0     H19567   8.810   7.182   2.412 -3.4212  0.8668 -2.8278
  142MOL0     H19568   8.961   6.915   2.406 -1.2663 -0.8221 -0.4256
  142MOL0     H19569   9.031   7.081   2.443 -2.2698  2.1667  0.5977
  142MOL0     H19570   8.926   6.886   2.617 -0.7851  0.2074  1.7296
  142MOL0     H19571   8.817   7.013   2.630 -0.5424 -1.7634 -1.1673
  142MOL0     H19572   8.995   7.183   2.641 -0.6806  1.1962  1.7471
  142MOL0     H19573   9.109   7.041   2.664  0.8333  0.1347  1.2001
  142MOL0     H19574   8.871   7.127   2.852  0.0990  2.2899 -2.2970
  142MOL0     H19575   9.039   7.165   2.899 -1.7642 -0.3949  2.0347
  142MOL0     H19576   9.100   7.058   1.879 -1.8922 -1.5893  1.1145
  142MOL0     H19577   9.139   6.919   1.697  0.2256  0.4263 -0.5731
  142MOL0     H19578   8.978   6.827   1.245 -0.8465 -0.1743 -1.4101
  142MOL0     H19579   9.016   6.697   1.046  0.9175 -0.8440 -0.5962
  142MOL0     H19580   8.930   5.861   1.268  2.1819  0.0138 -3.7649
  142MOL0     H19581   9.048   5.668   1.342  2.5819  0.4887 -4.2973
  142MOL0     H19582   9.143   5.289   1.237 -1.9799  0.6783  0.0537
  142MOL0     H19583   9.308   5.128   1.253 -0.2285  1.8696  0.9391
  142MOL0     H19584   9.469   4.981   1.374 -0.0880  0.4410 -2.0068
  142MOL0     H19585   9.492   4.811   1.386 -1.0271 -0.8586 -0.4095
  142MOL0     H19586   9.373   4.941   1.139  2.5152  2.4971 -1.0879
  142MOL0     H19587   9.431   4.770   1.164  1.6954  0.0841 -1.1514
  142MOL0     H19588   9.651   4.844   1.202  0.1264 -0.9567 -0.8512
  142MOL0     H19589   9.605   4.887   1.042 -0.0879 -0.5094 -0.5962
  142MOL0     H19590   9.717   5.092   1.119  0.2208  1.5633  0.3376
  142MOL0     H19591   9.586   5.119   1.242  1.6733  1.4275 -0.7218
  142MOL0     H19592   9.389   5.163   0.854 -0.0331  0.3411  0.4858
  142MOL0     H19593   9.046   4.855   1.460  0.2217  0.0142  1.3412
  142MOL0     H19594   8.852   4.941   1.544  3.0707  0.0718 -0.6307
  142MOL0     H19595   8.803   5.111   1.544  1.2547  0.4951  0.9561
  142MOL0     H19596   8.761   5.004   1.404  1.0977 -0.2840 -0.5688
  143MOL0     O19597   3.417  10.255   0.851  0.5381  0.3117  0.1924
  143MOL0     C19598   3.448  10.160   0.785 -0.4352  0.1613 -0.2636
  143MOL0     O19599   3.563  10.140   0.713 -0.3748 -0.3851  0.9079
  143MOL0     C19600   3.623  10.255   0.670 -0.0682 -0.2956  0.7808
  143MOL0     C19601   3.763  10.264   0.681  0.1163  0.6813  0.2101
  143MOL0     C19602   3.826  10.380   0.624 -0.0338  0.2871  0.5416
  143MOL0     C19603   3.762  10.475   0.553  0.5116 -0.1864 -0.2359
  143MOL0     O19604   3.832  10.585   0.500 -0.3833  0.2783 -0.8340
  143MOL0     C19605   3.760  10.691   0.434 -0.0499 -0.2722 -0.5438
  143MOL0     C19606   3.842  10.819   0.402  0.4842 -0.9863  0.2423
  143MOL0     C19607   3.959  10.788   0.307 -0.0177  0.2130 -0.1119
  143MOL0     C19608   4.093  10.849   0.353 -0.7168 -0.2401 -0.1780
  143MOL0     C19609   4.177  10.843   0.217  1.0718 -0.2854  0.6741
  143MOL0     C19610   4.316  10.888   0.259  0.5419  0.7545  0.3660
  143MOL0     C19611   4.406  10.940   0.146  0.5505 -0.3715  0.6682
  143MOL0     C19612   4.519  11.028   0.199 -0.9372 -0.5595 -0.4475
  143MOL0     N19613   4.546  11.123   0.095 -0.2695 -0.7826  1.0530
  143MOL0     C19614   4.470  11.231   0.063 -0.2892  0.6036 -0.4108
  143MOL0     C19615   4.526  11.276  -0.053 -0.5019 -0.2743  1.3869
  143MOL0     C19616   4.494  11.410  -0.123 -0.4170  0.5295  0.1004
  143MOL0     C19617   4.510  11.531  -0.033 -0.0194 -0.0513 -0.8928
  143MOL0     C19618   4.455  11.653  -0.109 -0.1906 -0.6959 -0.0396
  143MOL0     C19619   4.533  11.769  -0.076 -0.2183 -0.6410 -0.0945
  143MOL0     O19620   4.517  11.819   0.059 -0.1519 -0.3219  0.1895
  143MOL0     C19621   4.581  11.938   0.095  0.1697  0.8036  0.9051
  143MOL0     C19622   4.544  12.009   0.210  0.0774  0.6868  0.0544
  143MOL0     C19623   4.600  12.136   0.234  0.9134 -0.2028 -0.0846
  143MOL0     C19624   4.538  12.203   0.350  0.2949 -1.3752 -0.4743
  143MOL0     C19625   4.690  12.195   0.147 -0.1169 -0.3170 -0.1980
  143MOL0     C19626   4.727  12.341   0.152  0.4737 -0.1278 -0.7037
  143MOL0     O19627   4.775  12.392   0.031 -0.3835 -0.0976  0.2359
  143MOL0     C19628   4.819  12.522   0.029  0.2246 -0.5165 -0.4617
  143MOL0     C19629   4.912  12.557  -0.064 -0.5249 -0.9768  0.3070
  143MOL0     C19630   4.971  12.693  -0.068  0.1584  0.7099  0.9393
  143MOL0     C19631   4.927  12.797   0.016  0.1706 -0.1867 -0.4807
  143MOL0     O19632   4.961  12.929   0.027 -0.7348  0.3770 -0.3629
  143MOL0     C19633   5.018  12.980  -0.093 -0.1322 -0.7142 -1.2857
  143MOL0     C19634   5.001  13.137  -0.105 -0.0820  0.3587 -0.6948
  143MOL0     C19635   5.062  13.192  -0.232 -0.7780  0.4695 -0.2339
  143MOL0     C19636   5.018  13.334  -0.284 -0.3155  0.3905 -0.0867
  143MOL0     C19637   5.109  13.392  -0.401  0.4091  0.6882 -0.1173
  143MOL0     C19638   5.074  13.544  -0.422  1.0860 -0.5088 -0.6795
  143MOL0     C19639   5.182  13.619  -0.498  0.9470 -0.1904 -0.8524
  143MOL0     C19640   5.139  13.679  -0.636  0.1479 -0.2026 -1.5979
  143MOL0    Cl19641   5.074  13.847  -0.613 -0.0009  0.4769 -0.3328
  143MOL0     C19642   4.816  12.763   0.101 -0.4874  0.5361 -0.4892
  143MOL0     C19643   4.767  12.629   0.101  0.7519 -0.6754  0.5867
  143MOL0     O19644   4.733  12.395   0.268  0.2348 -0.5930  0.3289
  143MOL0     C19645   4.740  12.116   0.042 -0.4190  1.1261 -0.1890
  143MOL0     C19646   4.683  11.988   0.014 -0.4269 -0.3144  0.0006
  143MOL0     N19647   4.632  11.193  -0.081  0.4783  0.8720 -0.1461
  143MOL0     N19648   4.645  11.095  -0.001 -0.3413  0.1274  0.4407
  143MOL0     C19649   3.614  10.465   0.539  0.2915  0.9137 -0.7651
  143MOL0     C19650   3.549  10.358   0.603 -1.2565  0.5440  0.7040
  143MOL0     C19651   3.353  10.040   0.790 -0.0171  0.5501 -0.0188
  143MOL0     C19652   3.278  10.003   0.902  0.1701  0.2077 -1.0117
  143MOL0     C19653   3.197   9.893   0.918 -0.3621  0.1060  0.3711
  143MOL0     C19654   3.185   9.805   0.810 -0.2892  0.1560 -0.1226
  143MOL0     O19655   3.103   9.694   0.824  0.1053 -0.8803  0.1006
  143MOL0     C19656   3.173   9.565   0.834 -0.7347 -0.5672  0.3450
  143MOL0     C19657   3.105   9.452   0.901  0.8734 -0.5660 -0.6070
  143MOL0     C19658   3.126   9.454   1.057  0.8929  1.1842 -0.7530
  143MOL0     C19659   3.036   9.348   1.116  0.3405 -0.0089 -0.2770
  143MOL0     C19660   3.066   9.343   1.256 -0.1252  0.1489 -0.9291
  143MOL0     C19661   3.093   9.324   1.372 -0.1321  0.8313 -0.5725
  143MOL0     C19662   3.251   9.834   0.684  0.7569 -0.8586 -0.0724
  143MOL0     C19663   3.344   9.947   0.675 -0.1518  0.1383 -0.5307
  143MOL0     C19664   3.412   9.967   0.538  0.4294  0.2953 -0.0594
  143MOL0     H19665   3.831  10.201   0.739  1.3284 -2.0657 -3.7098
  143MOL0     H19666   3.933  10.398   0.628 -0.0006  1.1112 -2.0703
  143MOL0     H19667   3.683  10.726   0.504  1.4192 -0.4643  1.2449
  143MOL0     H19668   3.706  10.659   0.344 -3.4549 -0.6183  1.4213
  143MOL0     H19669   3.776  10.884   0.344 -0.6258 -0.8353  1.6088
  143MOL0     H19670   3.877  10.859   0.497 -1.2798 -0.7571  0.8328
  143MOL0     H19671   3.976  10.680   0.296 -1.4623  0.2244 -3.8651
  143MOL0     H19672   3.939  10.833   0.209  1.3962  1.3555  0.0855
  143MOL0     H19673   4.076  10.950   0.392 -1.6748  0.3011 -1.8546
  143MOL0     H19674   4.142  10.788   0.429 -0.2563  0.8872  0.4493
  143MOL0     H19675   4.141  10.914   0.142 -2.0894 -2.3222  0.0995
  143MOL0     H19676   4.183  10.742   0.176  0.1607 -0.2639  0.4632
  143MOL0     H19677   4.299  10.961   0.339 -1.5316 -0.4807  1.1113
  143MOL0     H19678   4.352  10.793   0.300 -2.9193 -0.8424  0.0256
  143MOL0     H19679   4.336  10.995   0.082 -1.9487 -2.5264  1.3852
  143MOL0     H19680   4.455  10.857   0.094  0.5313  0.3975 -0.6207
  143MOL0     H19681   4.487  11.081   0.289  2.7716 -2.6775  2.4083
  143MOL0     H19682   4.606  10.967   0.225  0.1655 -0.0689 -2.7725
  143MOL0     H19683   4.387  11.280   0.113 -1.1959  0.2532 -1.5440
  143MOL0     H19684   4.386  11.402  -0.135 -0.6394 -1.3126  2.5281
  143MOL0     H19685   4.546  11.417  -0.219 -2.6772  3.3033 -1.0627
  143MOL0     H19686   4.447  11.519   0.056  0.1532  0.5448 -0.6840
  143MOL0     H19687   4.612  11.545   0.004 -0.1023  0.6512 -0.9100
  143MOL0     H19688   4.481  11.642  -0.214  0.5230  0.5278 -0.0099
  143MOL0     H19689   4.346  11.660  -0.105 -0.2776 -1.6869  3.6547
  143MOL0     H19690   4.639  11.762  -0.103 -0.2188  5.3867 -3.5430
  143MOL0     H19691   4.498  11.853  -0.138 -0.1384  2.3279  3.5277
  143MOL0     H19692   4.466  11.960   0.268 -0.5354  1.2571 -0.2626
  143MOL0     H19693   4.460  12.143   0.396  2.2163 -3.5731  0.0958
  143MOL0     H19694   4.512  12.307   0.325  1.6101 -1.1632 -1.0591
  143MOL0     H19695   4.617  12.212   0.426 -2.5149  1.5318  2.3852
  143MOL0     H19696   4.936  12.480  -0.136 -6.4480  0.1498 -3.5320
  143MOL0     H19697   5.049  12.703  -0.143  1.7145 -3.5183  1.7414
  143MOL0     H19698   5.125  12.964  -0.107  0.3284 -0.3589  1.3463
  143MOL0     H19699   4.960  12.939  -0.177 -1.0877 -1.7372 -0.1597
  143MOL0     H19700   4.897  13.172  -0.113 -0.0052  1.5683  2.2427
  143MOL0     H19701   5.047  13.182  -0.016  0.6233  0.7927 -1.2766
  143MOL0     H19702   5.053  13.116  -0.310  0.0206 -2.4062  2.2812
  143MOL0     H19703   5.169  13.190  -0.209 -0.3411  3.2900 -1.5823
  143MOL0     H19704   5.015  13.411  -0.206  4.7759 -0.8014  1.6457
  143MOL0     H19705   4.914  13.330  -0.320  0.3694  1.7011 -2.3960
  143MOL0     H19706   5.215  13.378  -0.376  1.4534 -3.8345 -5.2431
  143MOL0     H19707   5.098  13.352  -0.502 -1.0442  4.6010 -1.7130
  143MOL0     H19708   5.073  13.584  -0.320  2.6091 -1.3356 -0.3116
  143MOL0     H19709   4.975  13.550  -0.467  0.6315 -0.4016  0.3013
  143MOL0     H19710   5.273  13.560  -0.511  1.8721  0.8870  0.4497
  143MOL0     H19711   5.208  13.707  -0.437  2.4295 -1.1425 -0.0620
  143MOL0     H19712   5.067  13.621  -0.695 -1.9439  3.2052 -2.7021
  143MOL0     H19713   5.232  13.682  -0.693  2.0241 -0.8472  1.2380
  143MOL0     H19714   4.782  12.841   0.169  0.1510  0.2423  0.1814
  143MOL0     H19715   4.680  12.622   0.166  1.1345 -2.9205  0.9517
  143MOL0     H19716   4.813  12.158  -0.026  1.0789  1.6315  1.6524
  143MOL0     H19717   4.719  11.937  -0.074  0.3570 -3.4923  1.9971
  143MOL0     H19718   3.560  10.544   0.487  5.3784  1.4917 -6.2008
  143MOL0     H19719   3.442  10.352   0.587 -1.1408 -3.2682  0.5807
  143MOL0     H19720   3.290  10.061   0.993 -1.7793 -0.7651 -0.0775
  143MOL0     H19721   3.180   9.868   1.023  2.1563 -0.7963  0.6428
  143MOL0     H19722   3.200   9.534   0.733  2.2772  1.9368  0.2337
  143MOL0     H19723   3.270   9.585   0.880 -1.2222  2.3428  0.2924
  143MOL0     H19724   3.153   9.360   0.865 -0.3153 -0.9783 -1.2044
  143MOL0     H19725   3.001   9.445   0.865  1.0472  1.4997 -1.6582
  143MOL0     H19726   3.226   9.420   1.088 -0.3842 -1.5032  0.8053
  143MOL0     H19727   3.097   9.552   1.097 -1.1481  0.1981  0.3578
  143MOL0     H19728   3.061   9.249   1.079 -1.1215  0.6096 -3.2400
  143MOL0     H19729   2.932   9.376   1.093  0.8605  1.8088 -0.6474
  143MOL0     H19730   3.108   9.305   1.476 -1.7946  2.2662 -0.0228
  143MOL0     H19731   3.233   9.784   0.590  0.7057  2.9581 -2.2960
  143MOL0     H19732   3.522   9.971   0.534  0.5785 -1.2846  1.4882
  143MOL0     H19733   3.379   9.896   0.462  1.3954 -0.3884  0.1377
  143MOL0     H19734   3.371  10.062   0.501  0.0600  1.4332  2.9852
  144MOL0     O19735   9.076   8.266   1.906 -0.6765 -1.0042  0.3369
  144MOL0     C19736   9.001   8.195   1.970 -1.2987  1.0326  0.3758
  144MOL0     O19737   8.971   8.068   1.936 -0.0732  0.3111 -0.0788
  144MOL0     C19738   8.992   8.021   1.804  0.7281 -0.4231  0.8280
  144MOL0     C19739   8.955   8.099   1.691  0.0937  0.3370  0.3360
  144MOL0     C19740   8.953   8.039   1.567 -0.0379  0.1273  0.6676
  144MOL0     C19741   8.984   7.907   1.547 -0.2541  0.2042 -0.0217
  144MOL0     O19742   8.961   7.841   1.423 -0.2753 -0.4852 -0.8508
  144MOL0     C19743   9.002   7.703   1.411 -0.1189 -0.5536 -0.5211
  144MOL0     C19744   8.959   7.677   1.270 -0.1037 -1.1502  0.1210
  144MOL0     C19745   9.048   7.751   1.157  0.1248  1.4835  0.1595
  144MOL0     C19746   9.199   7.731   1.183  0.3035  0.3489  1.1529
  144MOL0     C19747   9.301   7.781   1.072  0.3111  0.4859  0.5477
  144MOL0     C19748   9.307   7.926   1.053  0.0418 -0.4945 -0.3925
  144MOL0     C19749   9.423   7.963   0.960  0.0323  0.6685 -0.2177
  144MOL0     C19750   9.384   8.058   0.853 -1.0509  0.2060  0.1625
  144MOL0     N19751   9.465   8.029   0.735 -0.4109 -0.5005 -1.0021
  144MOL0     C19752   9.594   8.071   0.711  0.1062  0.4804  0.5487
  144MOL0     C19753   9.627   8.007   0.594 -0.0580 -0.5282 -0.2837
  144MOL0     C19754   9.760   8.039   0.522 -0.1275  0.3405  0.2107
  144MOL0     C19755   9.879   7.944   0.551 -1.0811 -0.2809  0.7209
  144MOL0     C19756   9.936   7.954   0.693 -0.0404 -0.6604  0.5609
  144MOL0     C19757  10.064   7.870   0.724  0.1449  0.4697 -0.1389
  144MOL0     O19758  10.117   7.886   0.851 -0.5346 -0.0428 -0.0622
  144MOL0     C19759  10.067   7.810   0.957 -1.1293 -0.6962 -0.5596
  144MOL0     C19760   9.942   7.755   0.965  0.1237 -0.7607  0.7337
  144MOL0     C19761   9.884   7.695   1.077  0.7332  0.7841  0.0189
  144MOL0     C19762   9.731   7.665   1.088 -0.1876 -0.6981 -0.1621
  144MOL0     C19763   9.970   7.656   1.186 -0.6976  0.0473  0.6106
  144MOL0     C19764   9.933   7.572   1.299 -0.4046  0.4582  0.5371
  144MOL0     O19765   9.809   7.569   1.341 -0.5572  0.2797 -0.0077
  144MOL0     C19766   9.747   7.495   1.446 -0.1578  0.3560  0.4524
  144MOL0     C19767   9.790   7.505   1.583 -0.6119 -0.2221 -0.2062
  144MOL0     C19768   9.759   7.407   1.672  0.4405  0.3776  0.8510
  144MOL0     C19769   9.655   7.321   1.650  0.3756  0.5452  0.0769
  144MOL0     O19770   9.590   7.233   1.734 -0.9011 -0.9566  0.3088
  144MOL0     C19771   9.503   7.297   1.825 -0.5918 -0.8376  0.8574
  144MOL0     C19772   9.431   7.201   1.906 -0.2677  0.5801 -0.8945
  144MOL0     C19773   9.358   7.254   2.026  0.5050  0.1826  0.9226
  144MOL0     C19774   9.297   7.143   2.110 -0.7518  1.2797  0.6306
  144MOL0     C19775   9.235   7.197   2.243 -0.3200 -0.1800  1.1198
  144MOL0     C19776   9.341   7.278   2.322  0.8135 -0.1750  0.7070
  144MOL0     C19777   9.276   7.303   2.460 -0.0320 -0.3419  0.8838
  144MOL0     C19778   9.316   7.439   2.503  0.8555 -0.0165 -0.5200
  144MOL0    Cl19779   9.492   7.443   2.543 -0.3973 -0.1292 -0.1387
  144MOL0     C19780   9.603   7.318   1.520  0.3593  0.0163 -0.0068
  144MOL0     C19781   9.641   7.405   1.422  0.3072 -0.0386  0.1044
  144MOL0     O19782  10.027   7.518   1.357  0.0143  0.4947  0.0414
  144MOL0     C19783  10.101   7.691   1.170 -1.2110 -0.2824 -0.1887
  144MOL0     C19784  10.144   7.777   1.066  0.1584 -0.6068  0.9534
  144MOL0     N19785   9.527   7.916   0.563  0.2766 -0.1299 -0.1452
  144MOL0     N19786   9.433   7.929   0.652 -0.7123 -0.1321  0.9355
  144MOL0     C19787   9.031   7.839   1.654 -0.3321 -0.4237 -0.1186
  144MOL0     C19788   9.030   7.891   1.783  0.0976 -0.6367  0.2033
  144MOL0     C19789   8.930   8.251   2.088 -0.5197  0.0936 -0.1055
  144MOL0     C19790   8.987   8.358   2.155  1.0553  0.4878  1.1216
  144MOL0     C19791   8.943   8.404   2.280  0.6211 -0.5014  0.9210
  144MOL0     C19792   8.815   8.364   2.321 -0.6787  0.8122  0.3826
  144MOL0     O19793   8.750   8.390   2.432 -0.6137 -0.4151  0.4367
  144MOL0     C19794   8.825   8.456   2.543  0.3370 -0.4393  0.5684
  144MOL0     C19795   8.924   8.356   2.617 -0.2797  0.4090 -0.3445
  144MOL0     C19796   8.958   8.414   2.752  0.3624 -0.4819 -0.1651
  144MOL0     C19797   9.038   8.312   2.837  0.0484 -0.2305 -0.6689
  144MOL0     C19798   9.133   8.389   2.914 -0.2470 -0.1181 -0.6234
  144MOL0     C19799   9.211   8.461   2.959 -0.4669 -0.3666  0.1182
  144MOL0     C19800   8.752   8.259   2.254  0.1422 -0.5886 -0.3142
  144MOL0     C19801   8.805   8.203   2.134 -0.5882  0.8215 -0.1147
  144MOL0     C19802   8.730   8.097   2.058 -0.2681  0.0616 -0.0327
  144MOL0     H19803   8.926   8.203   1.701  0.0780  0.2781  1.0030
  144MOL0     H19804   8.908   8.107   1.494 -1.1619  0.6301  1.7976
  144MOL0     H19805   8.944   7.630   1.469  1.9543 -1.1930  0.8288
  144MOL0     H19806   9.108   7.681   1.421 -0.3324 -1.6681 -0.6448
  144MOL0     H19807   8.946   7.569   1.255 -3.8339 -1.0251  1.6011
  144MOL0     H19808   8.855   7.709   1.262 -0.2664 -0.4378  3.7114
  144MOL0     H19809   9.010   7.718   1.060 -2.7196  1.5393  1.1790
  144MOL0     H19810   9.045   7.861   1.157 -1.5375  1.4537  0.1362
  144MOL0     H19811   9.224   7.789   1.272 -0.8616  2.0001  0.4621
  144MOL0     H19812   9.213   7.623   1.193 -0.8832  0.0185 -0.2710
  144MOL0     H19813   9.276   7.739   0.975  3.0355 -0.1618  0.0278
  144MOL0     H19814   9.405   7.755   1.097  0.7988  0.2909 -1.5239
  144MOL0     H19815   9.213   7.948   1.001  1.0481 -0.4912 -2.2668
  144MOL0     H19816   9.311   7.976   1.150 -1.3288 -2.4227  0.7438
  144MOL0     H19817   9.470   7.877   0.912 -0.3254  0.8459 -0.8858
  144MOL0     H19818   9.499   8.002   1.029  1.5080 -1.2757 -0.6617
  144MOL0     H19819   9.279   8.065   0.824 -1.9682 -0.4037  2.9765
  144MOL0     H19820   9.409   8.157   0.890  2.6392 -0.8542  0.9368
  144MOL0     H19821   9.651   8.153   0.752 -0.6385 -0.0178  2.7237
  144MOL0     H19822   9.786   8.143   0.541  3.1025 -0.1342 -1.0494
  144MOL0     H19823   9.741   8.022   0.416  1.0633  0.2199  0.0110
  144MOL0     H19824   9.851   7.842   0.522  0.4743 -0.6125  0.3025
  144MOL0     H19825   9.962   7.992   0.499 -1.4151 -0.0525  0.3943
  144MOL0     H19826   9.969   8.055   0.721  1.5974 -0.4614 -1.7661
  144MOL0     H19827   9.866   7.926   0.772  1.8340 -0.6761  2.3108
  144MOL0     H19828  10.038   7.765   0.706  1.2631 -0.1424  1.5941
  144MOL0     H19829  10.144   7.901   0.655 -1.0262  0.7123 -1.4255
  144MOL0     H19830   9.893   7.768   0.870 -2.1434  1.0430  2.0502
  144MOL0     H19831   9.698   7.729   1.171 -0.6149 -0.7311 -0.3032
  144MOL0     H19832   9.712   7.560   1.113  0.4606 -1.3624 -2.2498
  144MOL0     H19833   9.676   7.709   1.004  0.5346  1.4483  0.4261
  144MOL0     H19834   9.868   7.568   1.626 -1.2116  1.3690 -1.3576
  144MOL0     H19835   9.795   7.406   1.774 -0.1641  1.9870  1.1147
  144MOL0     H19836   9.558   7.361   1.895  1.8871 -1.2006 -0.6693
  144MOL0     H19837   9.439   7.367   1.770  0.3183  0.5778  1.5321
  144MOL0     H19838   9.363   7.145   1.842 -1.2818 -1.3128  1.6990
  144MOL0     H19839   9.510   7.131   1.935  0.4520  2.4468  2.1186
  144MOL0     H19840   9.279   7.323   1.995  0.2210  1.4138  4.0565
  144MOL0     H19841   9.429   7.318   2.078  0.7637  0.7868 -0.1544
  144MOL0     H19842   9.380   7.082   2.147 -1.3798  1.5616  2.6159
  144MOL0     H19843   9.225   7.084   2.053  0.8628 -0.0135 -0.1552
  144MOL0     H19844   9.147   7.258   2.221 -1.2346 -2.1499 -1.2694
  144MOL0     H19845   9.212   7.107   2.301  0.1251 -0.6236  0.6243
  144MOL0     H19846   9.367   7.372   2.273 -1.7996  0.5200  0.5089
  144MOL0     H19847   9.438   7.227   2.327  0.4760 -0.7721  1.2907
  144MOL0     H19848   9.304   7.223   2.529 -0.2407 -0.4533  0.8403
  144MOL0     H19849   9.167   7.309   2.453 -0.1725  0.4858  3.0461
  144MOL0     H19850   9.254   7.469   2.588 -0.0397 -2.7697 -0.1184
  144MOL0     H19851   9.296   7.512   2.424 -1.1363  1.6584  1.4090
  144MOL0     H19852   9.515   7.262   1.490 -1.6405  2.7566  0.2982
  144MOL0     H19853   9.600   7.395   1.322 -0.1564 -1.0717  0.3750
  144MOL0     H19854  10.180   7.685   1.244 -0.6835  0.8575 -0.6368
  144MOL0     H19855  10.247   7.812   1.066 -0.5799  1.8076  1.4753
  144MOL0     H19856   9.062   7.735   1.653 -0.6403 -0.5148 -0.1507
  144MOL0     H19857   9.056   7.837   1.873  1.0911  3.2771  2.5340
  144MOL0     H19858   9.084   8.392   2.123 -0.5728  0.3412 -5.1330
  144MOL0     H19859   8.998   8.474   2.341 -1.8759  0.7033  1.9302
  144MOL0     H19860   8.881   8.536   2.493 -1.7845 -0.4668 -2.1104
  144MOL0     H19861   8.751   8.501   2.609  1.1929  1.3668  0.3591
  144MOL0     H19862   9.016   8.336   2.563  1.6699  0.0951  2.8116
  144MOL0     H19863   8.876   8.258   2.630  0.1285  0.2447 -0.0627
  144MOL0     H19864   8.994   8.517   2.753 -1.0791  0.1513  3.3152
  144MOL0     H19865   8.865   8.414   2.810  1.0375 -1.3633  0.9605
  144MOL0     H19866   9.103   8.249   2.776  1.6402  0.7016  0.0082
  144MOL0     H19867   8.964   8.257   2.895 -0.2275  2.2876  1.5415
  144MOL0     H19868   9.286   8.526   3.000  0.4382 -2.6439  2.3468
  144MOL0     H19869   8.663   8.217   2.297  0.3258  1.3957  2.2441
  144MOL0     H19870   8.788   8.005   2.045 -0.5612 -0.0538 -0.5180
  144MOL0     H19871   8.635   8.084   2.111 -1.0314  2.0037 -0.8188
  144MOL0     H19872   8.691   8.123   1.959 -1.2833 -0.8041  0.1149
  145MOL0     O19873   4.577   9.361   2.507  0.1129  0.3325 -0.1186
  145MOL0     C19874   4.487   9.404   2.442  0.0081 -0.4294 -0.3723
  145MOL0     O19875   4.356   9.414   2.480  0.1801  1.0673 -0.2144
  145MOL0     C19876   4.305   9.333   2.580 -0.2821 -0.5761  0.2956
  145MOL0     C19877   4.193   9.253   2.555 -0.1732  0.9662  0.2059
  145MOL0     C19878   4.145   9.163   2.651  1.7160  0.2443  0.1271
  145MOL0     C19879   4.197   9.151   2.782 -1.3133  0.5925  0.9227
  145MOL0     O19880   4.165   9.077   2.890 -0.3468  0.3725 -0.0581
  145MOL0     C19881   4.035   9.015   2.899 -0.2942 -0.5624 -0.4590
  145MOL0     C19882   4.038   8.863   2.898  0.4056  0.4486  0.9002
  145MOL0     C19883   3.901   8.793   2.878  0.3444  0.3284 -0.1430
  145MOL0     C19884   3.918   8.640   2.904 -0.0778  0.4019  0.9028
  145MOL0     C19885   3.786   8.567   2.889 -0.8594  0.5077 -0.1031
  145MOL0     C19886   3.809   8.430   2.954 -0.4587 -0.8739 -0.7507
  145MOL0     C19887   3.679   8.352   2.970 -0.4699 -0.3886 -0.1645
  145MOL0     C19888   3.602   8.325   2.845  0.2377  1.1087  0.1847
  145MOL0     N19889   3.466   8.281   2.887  0.0711 -0.5985  0.5423
  145MOL0     C19890   3.371   8.371   2.932 -0.2580  0.1495  0.6350
  145MOL0     C19891   3.248   8.305   2.921 -0.6451  0.2868  0.6624
  145MOL0     C19892   3.125   8.358   2.972 -0.5697 -0.0800  0.2447
  145MOL0     C19893   3.031   8.416   2.869 -0.5453 -0.7679 -0.3935
  145MOL0     C19894   3.009   8.340   2.740  0.4175  0.1708 -0.4043
  145MOL0     C19895   2.922   8.221   2.752  0.5227  0.8630 -0.1413
  145MOL0     O19896   2.886   8.181   2.624 -0.3179  0.4308  0.3055
  145MOL0     C19897   2.961   8.084   2.552 -1.1088  0.7005  0.3200
  145MOL0     C19898   2.934   8.069   2.419  0.9612 -0.3919 -0.0404
  145MOL0     C19899   3.023   7.997   2.338  0.2009  0.4698  0.6765
  145MOL0     C19900   2.968   7.995   2.201 -0.1767  0.9860 -0.1217
  145MOL0     C19901   3.134   7.929   2.390 -0.5731 -0.2998 -0.0185
  145MOL0     C19902   3.242   7.863   2.307 -0.0413  0.6780  0.0565
  145MOL0     O19903   3.336   7.795   2.382 -0.6181 -0.2098  0.5337
  145MOL0     C19904   3.429   7.711   2.323  0.3677  0.5209 -0.1581
  145MOL0     C19905   3.386   7.583   2.286 -0.9930  0.5752  0.6494
  145MOL0     C19906   3.470   7.506   2.209 -0.5628  0.3956 -0.1703
  145MOL0     C19907   3.598   7.556   2.170 -1.0396  0.0612 -0.2354
  145MOL0     O19908   3.698   7.493   2.097  0.5578  0.0394  0.0486
  145MOL0     C19909   3.677   7.348   2.066  0.7480 -0.7785 -0.3701
  145MOL0     C19910   3.803   7.310   1.998  0.3380  0.8118  0.1718
  145MOL0     C19911   3.799   7.157   1.941  0.2396 -0.4036 -0.8457
  145MOL0     C19912   3.700   7.146   1.828  0.1642  0.9108 -0.3374
  145MOL0     C19913   3.716   7.004   1.755  0.2533  0.6998 -0.6831
  145MOL0     C19914   3.674   6.887   1.849  0.6944  0.1234 -0.6364
  145MOL0     C19915   3.655   6.748   1.781  0.4052 -0.5936 -2.0711
  145MOL0     C19916   3.783   6.676   1.745 -0.1238  0.4831 -0.3000
  145MOL0    Cl19917   3.745   6.507   1.695  0.2946  0.1535 -0.2240
  145MOL0     C19918   3.646   7.680   2.217  1.2222  1.3316  0.6999
  145MOL0     C19919   3.557   7.752   2.300  0.0298  0.5527 -0.1546
  145MOL0     O19920   3.249   7.880   2.191 -0.1620  0.4280  0.8291
  145MOL0     C19921   3.154   7.927   2.528 -0.5074  0.2298  0.8047
  145MOL0     C19922   3.062   7.999   2.609  0.9547  0.1472  0.1784
  145MOL0     N19923   3.273   8.178   2.865  0.3227  0.0340  0.1856
  145MOL0     N19924   3.398   8.164   2.849 -0.1104  0.0846  0.5602
  145MOL0     C19925   4.318   9.232   2.807  0.9221 -0.0182  0.0092
  145MOL0     C19926   4.365   9.326   2.707 -0.2111  0.2081  0.0391
  145MOL0     C19927   4.523   9.463   2.309 -0.3511  0.4626 -0.3978
  145MOL0     C19928   4.413   9.499   2.231 -0.7001 -0.5657 -0.1714
  145MOL0     C19929   4.437   9.571   2.109 -0.1417 -0.0210  0.1267
  145MOL0     C19930   4.561   9.608   2.069  0.1270 -0.2036 -0.6668
  145MOL0     O19931   4.592   9.672   1.946 -0.1764  0.0445 -0.3797
  145MOL0     C19932   4.507   9.652   1.830 -0.3458  0.0607 -0.5837
  145MOL0     C19933   4.584   9.693   1.701  0.0806  0.7302 -1.1918
  145MOL0     C19934   4.630   9.842   1.691 -0.3139 -0.3128  0.6103
  145MOL0     C19935   4.714   9.878   1.572 -0.0747 -0.4438  0.1986
  145MOL0     C19936   4.649   9.862   1.444  0.0777 -0.5333  0.6429
  145MOL0     C19937   4.616   9.857   1.324  0.4263 -0.5324  0.3559
  145MOL0     C19938   4.670   9.572   2.143  0.7265  0.7768  0.1865
  145MOL0     C19939   4.650   9.496   2.262 -0.8162 -0.2110 -0.3774
  145MOL0     C19940   4.768   9.440   2.335  0.0333 -0.6672  0.1974
  145MOL0     H19941   4.139   9.260   2.462  2.4607  0.2071 -1.4984
  145MOL0     H19942   4.073   9.088   2.622  2.1605  0.2616 -1.0806
  145MOL0     H19943   3.963   9.053   2.825 -0.9501 -2.3895 -0.8187
  145MOL0     H19944   3.995   9.032   2.999 -0.4149  1.2034 -0.7784
  145MOL0     H19945   4.097   8.829   2.812 -0.2681 -0.3703  0.7481
  145MOL0     H19946   4.095   8.821   2.982  2.8593 -3.0621 -2.1783
  145MOL0     H19947   3.817   8.838   2.933 -1.3747  2.1034 -3.8701
  145MOL0     H19948   3.876   8.809   2.773 -0.9772 -2.2677 -0.3134
  145MOL0     H19949   3.983   8.596   2.828  0.4568  3.7764 -0.7722
  145MOL0     H19950   3.964   8.608   2.998  0.8156 -1.5619 -0.1551
  145MOL0     H19951   3.757   8.556   2.784  0.3811  0.0219 -0.4168
  145MOL0     H19952   3.713   8.629   2.941  1.8989  1.7661  2.5969
  145MOL0     H19953   3.885   8.371   2.903 -0.0729  0.3764 -1.6754
  145MOL0     H19954   3.843   8.448   3.056  0.5017 -1.9735 -0.8604
  145MOL0     H19955   3.630   8.411   3.048  1.4914  0.0470  0.8192
  145MOL0     H19956   3.701   8.254   3.014 -1.7896 -1.8623 -2.5850
  145MOL0     H19957   3.580   8.416   2.788 -1.5596  0.2998 -0.5006
  145MOL0     H19958   3.652   8.255   2.777  2.0970  3.6036 -1.2359
  145MOL0     H19959   3.404   8.466   2.973 -0.1952  1.2663 -1.8334
  145MOL0     H19960   3.140   8.432   3.052 -2.3628  1.6300 -0.9055
  145MOL0     H19961   3.072   8.267   3.003 -2.5107  0.1822 -2.0124
  145MOL0     H19962   2.934   8.438   2.914 -0.3321 -1.8566  0.6650
  145MOL0     H19963   3.074   8.515   2.848 -0.6061 -0.5728  0.3687
  145MOL0     H19964   2.956   8.406   2.670 -0.8166  2.7148  2.7217
  145MOL0     H19965   3.101   8.306   2.691  1.4004  1.1824  0.6970
  145MOL0     H19966   2.968   8.135   2.802 -0.1581 -1.6971 -3.5686
  145MOL0     H19967   2.830   8.253   2.802 -0.0197  1.6243 -1.5788
  145MOL0     H19968   2.858   8.133   2.375  1.9215  1.5984  1.0919
  145MOL0     H19969   2.979   7.889   2.176  2.1128  0.7327  1.6850
  145MOL0     H19970   3.031   8.054   2.133  1.3830 -0.2015  0.2485
  145MOL0     H19971   2.869   8.040   2.189  0.3303  3.9204  4.4137
  145MOL0     H19972   3.292   7.541   2.321  1.3339 -3.7722  2.5687
  145MOL0     H19973   3.430   7.411   2.176  1.5305  0.0175 -1.8084
  145MOL0     H19974   3.647   7.300   2.160 -4.9065 -0.6734 -1.7527
  145MOL0     H19975   3.594   7.347   1.994 -1.3604 -1.1892  1.9269
  145MOL0     H19976   3.822   7.382   1.918  0.1547 -0.0028 -0.6277
  145MOL0     H19977   3.887   7.324   2.066  0.1102  0.0726  0.6161
  145MOL0     H19978   3.785   7.078   2.015  1.0715  0.5979  0.4140
  145MOL0     H19979   3.899   7.137   1.903  1.2783  3.8925 -0.8978
  145MOL0     H19980   3.718   7.226   1.756 -2.9584  0.7777 -1.4446
  145MOL0     H19981   3.599   7.160   1.867 -0.2431  1.0788 -1.4115
  145MOL0     H19982   3.661   7.006   1.660 -0.5694  0.6990 -0.2189
  145MOL0     H19983   3.817   6.982   1.721 -0.4203  0.0154 -2.3663
  145MOL0     H19984   3.575   6.904   1.892  0.9477 -3.2458  1.6753
  145MOL0     H19985   3.750   6.880   1.927 -0.6763  2.5289  1.0597
  145MOL0     H19986   3.599   6.753   1.687 -3.8379  0.1371  0.2223
  145MOL0     H19987   3.600   6.694   1.859 -0.3796  2.7781 -0.0829
  145MOL0     H19988   3.867   6.674   1.815  0.0985  0.4988 -0.5638
  145MOL0     H19989   3.830   6.730   1.663  0.6369 -0.7462 -0.6944
  145MOL0     H19990   3.745   7.713   2.187  2.1408 -2.3179 -0.9054
  145MOL0     H19991   3.580   7.852   2.335  1.2081  0.7638 -1.4504
  145MOL0     H19992   3.251   7.917   2.577 -0.5548  2.3339  1.4226
  145MOL0     H19993   3.083   7.998   2.715  2.2595 -0.1241 -0.0654
  145MOL0     H19994   4.372   9.233   2.901  1.8730 -1.9135 -0.4679
  145MOL0     H19995   4.453   9.386   2.728  0.1639 -0.3285  0.0178
  145MOL0     H19996   4.308   9.478   2.247  0.1925 -4.1506  1.9127
  145MOL0     H19997   4.344   9.591   2.057 -0.0093 -2.1856 -1.0393
  145MOL0     H19998   4.488   9.546   1.818 -1.9972  0.3946 -1.0851
  145MOL0     H19999   4.411   9.705   1.835 -0.2487  0.1295  1.1057
  145MOL0     H20000   4.521   9.679   1.612  0.8320 -2.5420 -1.3228
  145MOL0     H20001   4.673   9.631   1.702 -0.7878 -0.6215  1.1822
  145MOL0     H20002   4.538   9.901   1.687 -1.1853 -1.6649 -2.0164
  145MOL0     H20003   4.697   9.868   1.773  1.7967 -1.9200 -0.4848
  145MOL0     H20004   4.804   9.816   1.568 -2.3953 -4.0944  0.6151
  145MOL0     H20005   4.752   9.981   1.575 -0.2510 -0.3907  0.7389
  145MOL0     H20006   4.582   9.837   1.225 -2.7053 -1.3146  1.4622
  145MOL0     H20007   4.770   9.582   2.101  0.0006  0.8996 -1.6129
  145MOL0     H20008   4.763   9.331   2.322 -0.2912 -0.6297 -0.0090
  145MOL0     H20009   4.860   9.479   2.292 -0.8215  0.6478 -0.5092
  145MOL0     H20010   4.776   9.466   2.441 -1.8325  0.0755  0.1848
  146MOL0     O20011   7.268   0.144   2.759  0.1814  0.0309  0.6132
  146MOL0     C20012   7.365   0.124   2.828 -1.1592  1.1698  0.6156
  146MOL0     O20013   7.421  -0.000   2.839 -0.4638 -0.3868  0.1626
  146MOL0     C20014   7.384  -0.114   2.760  0.8331 -0.7452  0.1263
  146MOL0     C20015   7.442  -0.238   2.804  0.5097 -0.4387  0.5009
  146MOL0     C20016   7.403  -0.352   2.738  0.1986 -0.0272 -0.0147
  146MOL0     C20017   7.313  -0.364   2.637  0.8233  0.0652 -0.1274
  146MOL0     O20018   7.265  -0.479   2.581  0.0573 -0.4861  0.5593
  146MOL0     C20019   7.300  -0.603   2.636 -0.6478  0.4715 -0.5426
  146MOL0     C20020   7.421  -0.664   2.557 -0.1025  0.5116  0.1738
  146MOL0     C20021   7.431  -0.817   2.603  0.4839 -0.1606  0.3193
  146MOL0     C20022   7.391  -0.902   2.487  0.0150  0.4148 -0.1067
  146MOL0     C20023   7.521  -0.916   2.401  0.2063  0.2224 -0.4236
  146MOL0     C20024   7.495  -1.027   2.296 -0.4421 -0.7201 -0.6777
  146MOL0     C20025   7.366  -1.016   2.220 -0.6557  0.5338 -0.0474
  146MOL0     C20026   7.381  -1.043   2.074  0.0016 -0.1756  0.1657
  146MOL0     N20027   7.264  -1.073   1.996  0.1948  0.3736  0.0707
  146MOL0     C20028   7.169  -0.982   1.955 -1.0331  0.4814 -0.4254
  146MOL0     C20029   7.065  -1.053   1.918 -0.2288  0.4093  0.4331
  146MOL0     C20030   6.949  -1.002   1.850 -1.2419 -0.5450 -0.0770
  146MOL0     C20031   6.830  -0.971   1.944 -0.8770 -0.3912  0.0818
  146MOL0     C20032   6.833  -0.835   2.018 -0.0323  0.1281  0.6308
  146MOL0     C20033   6.740  -0.825   2.133 -0.2487 -1.1426 -0.4152
  146MOL0     O20034   6.738  -0.691   2.187 -0.5268 -0.0441  0.2601
  146MOL0     C20035   6.676  -0.664   2.306  0.1855  0.6377  0.5883
  146MOL0     C20036   6.682  -0.538   2.356  0.3054 -0.1365 -0.6958
  146MOL0     C20037   6.612  -0.487   2.466 -0.2278 -0.6898 -0.9720
  146MOL0     C20038   6.610  -0.350   2.505 -0.0486 -0.4009 -0.3282
  146MOL0     C20039   6.542  -0.585   2.544 -0.5468 -0.2694 -0.0711
  146MOL0     C20040   6.471  -0.557   2.661  0.1529 -1.2923  0.0480
  146MOL0     O20041   6.536  -0.493   2.756  0.2106 -0.1672 -0.5053
  146MOL0     C20042   6.479  -0.462   2.878  0.3567 -0.4387  0.4428
  146MOL0     C20043   6.362  -0.396   2.879  0.4197  0.5789  0.1680
  146MOL0     C20044   6.302  -0.383   3.005 -0.0777 -0.9724 -0.4328
  146MOL0     C20045   6.350  -0.439   3.129 -0.3356  0.6542  0.3986
  146MOL0     O20046   6.270  -0.433   3.244 -0.4116 -0.1764 -0.7753
  146MOL0     C20047   6.306  -0.519   3.353  0.5634 -0.6914  0.2692
  146MOL0     C20048   6.204  -0.504   3.461 -0.1844 -0.4918 -0.5500
  146MOL0     C20049   6.248  -0.582   3.582  0.0514 -0.4874  0.2353
  146MOL0     C20050   6.170  -0.523   3.700  0.5863 -0.9563  0.3082
  146MOL0     C20051   6.194  -0.609   3.812 -0.5810 -0.2233 -0.0430
  146MOL0     C20052   6.340  -0.578   3.867  0.2515  0.2388 -0.2715
  146MOL0     C20053   6.369  -0.671   3.981  0.8532 -0.6458  0.6375
  146MOL0     C20054   6.261  -0.671   4.089  0.4482 -0.1804  0.3004
  146MOL0    Cl20055   6.233  -0.507   4.152 -0.0697  0.0051  0.3000
  146MOL0     C20056   6.472  -0.501   3.119 -0.6091  0.1390 -0.3408
  146MOL0     C20057   6.531  -0.521   2.989 -0.2098  0.3609 -0.2992
  146MOL0     O20058   6.360  -0.600   2.676 -0.0902  0.3245 -0.2161
  146MOL0     C20059   6.545  -0.724   2.508  0.4961 -0.0588  0.1082
  146MOL0     C20060   6.610  -0.761   2.387 -0.5466 -0.4379 -0.3940
  146MOL0     N20061   7.106  -1.186   1.930  1.0490 -0.2179  1.1418
  146MOL0     N20062   7.225  -1.197   1.976 -0.3204  0.5917 -0.1442
  146MOL0     C20063   7.257  -0.236   2.592  0.2232  0.5954  0.4650
  146MOL0     C20064   7.291  -0.116   2.655 -0.1315 -0.2334  0.6682
  146MOL0     C20065   7.424   0.232   2.901 -0.7451 -0.9487  0.2129
  146MOL0     C20066   7.514   0.202   3.006  0.2197 -0.3375  0.6823
  146MOL0     C20067   7.569   0.302   3.081 -0.1136 -0.4276 -0.1482
  146MOL0     C20068   7.516   0.423   3.083 -0.4883  0.6227 -0.4778
  146MOL0     O20069   7.554   0.493   3.194  0.2127  0.3960 -0.1352
  146MOL0     C20070   7.522   0.629   3.190 -0.1432 -1.2699  0.0368
  146MOL0     C20071   7.591   0.691   3.322  0.3018  1.2401 -0.5129
  146MOL0     C20072   7.621   0.839   3.317 -0.2490 -0.2480  0.2603
  146MOL0     C20073   7.720   0.877   3.441 -0.5938  0.1105  0.7480
  146MOL0     C20074   7.786   1.007   3.417 -0.6192 -0.6077 -0.6681
  146MOL0     C20075   7.838   1.117   3.397  0.5639 -0.4195 -0.9579
  146MOL0     C20076   7.439   0.465   2.968  0.5646  0.6528  0.3266
  146MOL0     C20077   7.399   0.369   2.873 -0.2293  0.9532 -0.6489
  146MOL0     C20078   7.316   0.428   2.755  0.0278  0.0448  0.7764
  146MOL0     H20079   7.515  -0.241   2.885  1.1363 -3.8967 -0.0338
  146MOL0     H20080   7.452  -0.442   2.772 -1.0715 -1.0442 -0.7682
  146MOL0     H20081   7.213  -0.669   2.623  1.0811 -2.5587  1.9438
  146MOL0     H20082   7.309  -0.593   2.745 -2.7900 -0.4768 -0.2190
  146MOL0     H20083   7.401  -0.654   2.450  0.5387 -3.8359 -0.5462
  146MOL0     H20084   7.506  -0.598   2.576 -1.5091  1.4209  4.1808
  146MOL0     H20085   7.537  -0.828   2.626  1.1039  2.4613 -0.9144
  146MOL0     H20086   7.371  -0.829   2.693  1.4682 -0.9971  0.8817
  146MOL0     H20087   7.372  -1.000   2.531  1.6180 -0.1323 -0.5415
  146MOL0     H20088   7.301  -0.857   2.444 -1.5575 -1.1252  1.4001
  146MOL0     H20089   7.602  -0.965   2.455  1.0693  1.9802 -0.0544
  146MOL0     H20090   7.554  -0.821   2.359  1.4100  0.2459  0.5268
  146MOL0     H20091   7.579  -1.032   2.225 -0.7054 -2.8748 -0.9172
  146MOL0     H20092   7.488  -1.126   2.342 -1.5678 -0.2061  0.2856
  146MOL0     H20093   7.329  -0.913   2.225  1.0739  1.3205 -2.0924
  146MOL0     H20094   7.284  -1.080   2.255 -0.4342  1.1537  1.6731
  146MOL0     H20095   7.438  -0.958   2.035  2.7429 -2.4384 -1.0949
  146MOL0     H20096   7.438  -1.137   2.070  1.3674  0.3387  3.6400
  146MOL0     H20097   7.177  -0.874   1.955 -1.8948  0.5512  0.2574
  146MOL0     H20098   6.907  -1.068   1.773 -0.0353 -1.2928 -0.1175
  146MOL0     H20099   6.977  -0.912   1.795  1.2741 -0.6587  0.8819
  146MOL0     H20100   6.743  -0.964   1.879 -0.3814  0.4113 -0.5117
  146MOL0     H20101   6.816  -1.059   2.008 -1.8141 -1.6424 -1.7513
  146MOL0     H20102   6.936  -0.813   2.048 -0.7543  2.4745  1.6169
  146MOL0     H20103   6.802  -0.766   1.939  2.0662 -0.2376 -0.5747
  146MOL0     H20104   6.652  -0.865   2.081 -0.4465  0.0978 -1.0619
  146MOL0     H20105   6.761  -0.885   2.222 -1.3660  1.3532  1.6525
  146MOL0     H20106   6.746  -0.473   2.296 -1.9857  2.9994  0.0070
  146MOL0     H20107   6.630  -0.282   2.421  0.1933  1.2038  0.9958
  146MOL0     H20108   6.689  -0.351   2.579  3.0184 -0.3021 -3.3420
  146MOL0     H20109   6.514  -0.333   2.555 -0.1430  1.7399 -1.1336
  146MOL0     H20110   6.315  -0.342   2.798  1.6095  3.0529  1.0181
  146MOL0     H20111   6.210  -0.327   2.995  1.2498  1.1811 -1.1863
  146MOL0     H20112   6.291  -0.625   3.329 -2.1498  0.0196 -1.6521
  146MOL0     H20113   6.403  -0.486   3.391 -0.6047  0.2914  2.5510
  146MOL0     H20114   6.202  -0.395   3.470  1.4209 -0.3061 -2.0470
  146MOL0     H20115   6.113  -0.555   3.427  0.7136 -3.1267  0.7015
  146MOL0     H20116   6.353  -0.559   3.601  0.0003 -1.1536  1.3975
  146MOL0     H20117   6.235  -0.690   3.572 -1.3257 -0.9302  4.6900
  146MOL0     H20118   6.062  -0.525   3.683  0.5728 -0.9102  0.3930
  146MOL0     H20119   6.210  -0.421   3.701 -3.8957  1.0344 -0.0159
  146MOL0     H20120   6.118  -0.580   3.886 -0.4733  1.7166 -0.6333
  146MOL0     H20121   6.184  -0.713   3.780 -2.3895 -0.0839 -0.0793
  146MOL0     H20122   6.347  -0.475   3.904 -1.3176  1.0144 -1.9277
  146MOL0     H20123   6.415  -0.576   3.787 -1.4453  0.7884 -1.9373
  146MOL0     H20124   6.460  -0.637   4.031  0.7512 -2.2375  1.9860
  146MOL0     H20125   6.378  -0.772   3.938 -2.0863 -0.3549 -0.9440
  146MOL0     H20126   6.306  -0.726   4.173  2.0929  3.6374  2.1913
  146MOL0     H20127   6.170  -0.719   4.052  0.6972 -0.3618 -0.0857
  146MOL0     H20128   6.520  -0.535   3.210  2.0204  0.4855 -1.5030
  146MOL0     H20129   6.611  -0.594   2.976 -2.7705 -3.2129  2.0282
  146MOL0     H20130   6.499  -0.801   2.568  0.5967 -0.8732 -0.8460
  146MOL0     H20131   6.617  -0.867   2.364 -0.3125 -1.1187  2.4735
  146MOL0     H20132   7.172  -0.242   2.524  0.3903 -0.0957  0.3004
  146MOL0     H20133   7.250  -0.023   2.619  0.3288 -0.2524  0.0752
  146MOL0     H20134   7.528   0.097   3.029 -1.8634 -0.0137  3.9690
  146MOL0     H20135   7.631   0.274   3.165  1.0132 -2.1325 -1.4610
  146MOL0     H20136   7.558   0.675   3.097 -2.2881 -1.8181 -1.1237
  146MOL0     H20137   7.416   0.653   3.203  1.0562  6.7406  0.3903
  146MOL0     H20138   7.685   0.636   3.337  0.4883  1.8818  0.9265
  146MOL0     H20139   7.540   0.655   3.412  0.6281 -1.2383 -1.2463
  146MOL0     H20140   7.663   0.859   3.218 -3.9267  3.0439 -0.9112
  146MOL0     H20141   7.535   0.906   3.331  1.0311  1.5443 -0.1252
  146MOL0     H20142   7.803   0.806   3.438  0.8959  1.8027 -0.8023
  146MOL0     H20143   7.671   0.864   3.538  1.8195  0.7658  2.1416
  146MOL0     H20144   7.890   1.209   3.375 -1.8851  0.9820 -1.2788
  146MOL0     H20145   7.410   0.570   2.967 -1.1175  0.2186 -1.1019
  146MOL0     H20146   7.211   0.412   2.782 -0.4424 -0.3210 -1.1499
  146MOL0     H20147   7.349   0.529   2.731  1.9605 -1.0281 -1.5166
  146MOL0     H20148   7.325   0.358   2.671 -0.8642 -0.7486  1.3118
  147MOL0     O20149  10.930   0.252  10.218 -0.1737  0.2400 -0.1615
  147MOL0     C20150  10.842   0.184  10.158  0.2699  0.5502 -0.1910
  147MOL0     O20151  10.744   0.117  10.229  0.6994  0.1882  0.3630
  147MOL0     C20152  10.768   0.116  10.362  0.4383  0.7875  0.0947
  147MOL0     C20153  10.716   0.222  10.435  0.1581  0.1564  0.4187
  147MOL0     C20154  10.752   0.236  10.568  0.1618 -0.0236 -0.3803
  147MOL0     C20155  10.826   0.134  10.632 -0.4359  0.7431  0.1637
  147MOL0     O20156  10.864   0.157  10.759  0.7048  0.1254 -0.7389
  147MOL0     C20157  10.891   0.042  10.845  0.1595  0.4938 -0.5148
  147MOL0     C20158  11.032   0.002  10.871  0.0939 -0.2312 -0.6850
  147MOL0     C20159  11.110   0.128  10.929  0.0592 -0.1683 -0.8278
  147MOL0     C20160  11.263   0.101  10.943  0.7376 -0.1467  0.6029
  147MOL0     C20161  11.345   0.218  10.981  0.1948 -0.0942 -0.3868
  147MOL0     C20162  11.316   0.257  11.117 -0.9060 -0.8194  0.4038
  147MOL0     C20163  11.399   0.382  11.135 -0.1162 -0.6557  0.6417
  147MOL0     C20164  11.397   0.466  11.264  0.3005  1.2800  1.2842
  147MOL0     N20165  11.492   0.571  11.264 -0.5658 -0.3337  0.2105
  147MOL0     C20166  11.604   0.577  11.350  0.2326  0.8066 -0.4417
  147MOL0     C20167  11.664   0.693  11.321 -0.4428 -0.2098 -0.2425
  147MOL0     C20168  11.808   0.715  11.371  0.1830 -0.8221 -0.1202
  147MOL0     C20169  11.854   0.859  11.315 -0.4397 -0.1540 -1.2097
  147MOL0     C20170  11.992   0.882  11.367 -0.2669 -0.1744 -0.0570
  147MOL0     C20171  12.050   1.027  11.323  0.4338  0.9613  0.0960
  147MOL0     O20172  12.073   1.025  11.179 -0.4007  0.2211 -0.3259
  147MOL0     C20173  12.091   1.151  11.122 -0.4485 -0.2384  0.4369
  147MOL0     C20174  12.152   1.261  11.184 -0.2786 -0.2287  0.1690
  147MOL0     C20175  12.180   1.384  11.107  0.8166 -0.0479 -0.3013
  147MOL0     C20176  12.215   1.504  11.187  0.4917 -0.4899 -0.5237
  147MOL0     C20177  12.146   1.394  10.971 -0.7426  0.8674 -0.0749
  147MOL0     C20178  12.152   1.513  10.888 -0.4743 -0.2850  1.0779
  147MOL0     O20179  12.081   1.509  10.766  0.1245  0.4356 -0.1240
  147MOL0     C20180  12.095   1.627  10.691  0.2699  0.6994 -0.3754
  147MOL0     C20181  12.144   1.606  10.563  0.3757  0.2677  0.0043
  147MOL0     C20182  12.179   1.714  10.479  1.2243 -0.0228 -0.1784
  147MOL0     C20183  12.158   1.846  10.534  0.8219 -0.0010  0.1629
  147MOL0     O20184  12.195   1.960  10.464  0.0483  0.1322 -0.4392
  147MOL0     C20185  12.287   1.952  10.364 -0.5628 -0.5237  0.8260
  147MOL0     C20186  12.265   2.080  10.280 -0.7352  0.1199  0.2376
  147MOL0     C20187  12.306   2.068  10.126 -0.1817  0.4939  0.2708
  147MOL0     C20188  12.189   2.004  10.033 -0.5016  1.2903  0.0631
  147MOL0     C20189  12.259   1.970   9.892  0.9422  0.6794 -0.0109
  147MOL0     C20190  12.171   1.890   9.792 -0.2594 -0.3517  1.3879
  147MOL0     C20191  12.081   1.969   9.702 -0.3672 -0.3345  0.2756
  147MOL0     C20192  11.997   1.875   9.616  0.2206 -0.3769  0.6255
  147MOL0    Cl20193  11.880   1.789   9.717  0.0108  0.2435  0.5687
  147MOL0     C20194  12.102   1.858  10.665  0.5738 -0.1860 -1.3500
  147MOL0     C20195  12.066   1.750  10.740 -0.0625  0.0082 -0.2332
  147MOL0     O20196  12.261   1.578  10.897 -0.0677  0.7568 -0.2995
  147MOL0     C20197  12.096   1.273  10.907  0.1612 -0.0074  0.0644
  147MOL0     C20198  12.072   1.156  10.980  0.3935 -0.7436 -0.7087
  147MOL0     N20199  11.592   0.757  11.217 -0.5203 -0.1741 -0.4785
  147MOL0     N20200  11.489   0.686  11.189 -0.5488 -0.0424  0.1070
  147MOL0     C20201  10.873   0.024  10.562  0.2235  0.9819 -0.3277
  147MOL0     C20202  10.850   0.019  10.422 -0.3963 -0.4346  0.0595
  147MOL0     C20203  10.840   0.159  10.014 -0.5591 -0.0820  1.0793
  147MOL0     C20204  10.774   0.049   9.956  0.2497  0.0219 -1.1274
  147MOL0     C20205  10.758   0.021   9.826  0.1158  1.2183 -0.0005
  147MOL0     C20206  10.825   0.100   9.736 -0.4975  0.4846  0.8955
  147MOL0     O20207  10.811   0.060   9.604  0.1147 -0.5113  0.4005
  147MOL0     C20208  10.876   0.144   9.507 -0.5206  0.7056  0.2977
  147MOL0     C20209  10.870   0.063   9.378 -0.1742  0.4349  0.3680
  147MOL0     C20210  10.920   0.139   9.250  0.0251  0.4465 -0.9193
  147MOL0     C20211  10.901   0.068   9.117 -0.0528 -0.4296 -0.8274
  147MOL0     C20212  10.921  -0.077   9.128 -0.1785 -0.1262  0.1644
  147MOL0     C20213  10.943  -0.197   9.138 -1.3681 -0.6082  1.3423
  147MOL0     C20214  10.906   0.204   9.784  0.6779 -1.0573 -0.3901
  147MOL0     C20215  10.908   0.240   9.923 -0.1037  0.0102 -0.0512
  147MOL0     C20216  10.999   0.358   9.958  0.9019 -0.8556 -0.3463
  147MOL0     H20217  10.658   0.299  10.387 -1.6487 -1.7317 -0.6000
  147MOL0     H20218  10.713   0.325  10.616  0.0488 -1.9339  3.4980
  147MOL0     H20219  10.831  -0.048  10.824  0.9877 -0.9914  2.7748
  147MOL0     H20220  10.850   0.068  10.943  1.1552  0.1958 -0.0028
  147MOL0     H20221  11.030  -0.069  10.954 -2.1035 -0.4748 -0.8970
  147MOL0     H20222  11.075  -0.042  10.780 -2.9474 -3.2706 -0.8538
  147MOL0     H20223  11.089   0.208  10.858 -0.2740 -1.1017 -1.8099
  147MOL0     H20224  11.070   0.160  11.026 -2.0398 -0.5842 -1.5030
  147MOL0     H20225  11.288   0.018  11.010  0.0375 -2.0129 -1.3463
  147MOL0     H20226  11.300   0.078  10.843  0.2364  0.7728  0.1958
  147MOL0     H20227  11.345   0.297  10.905  1.3337  0.1388 -0.1639
  147MOL0     H20228  11.450   0.189  10.982  0.5898  1.1091  2.0867
  147MOL0     H20229  11.213   0.284  11.142 -0.8917 -1.7348  1.5505
  147MOL0     H20230  11.353   0.173  11.177  1.8211 -0.9184 -1.2307
  147MOL0     H20231  11.369   0.456  11.060 -3.2454 -0.0170  2.3077
  147MOL0     H20232  11.506   0.360  11.134  0.0691  0.2036  0.1792
  147MOL0     H20233  11.301   0.517  11.269 -0.5687 -0.0255 -0.8622
  147MOL0     H20234  11.416   0.404  11.352 -2.4772 -0.5110  0.7339
  147MOL0     H20235  11.648   0.501  11.414  1.7661  0.7956 -1.4372
  147MOL0     H20236  11.877   0.641  11.330  2.3599 -0.8930  3.2635
  147MOL0     H20237  11.810   0.713  11.481  2.5753  0.1528 -0.0850
  147MOL0     H20238  11.849   0.854  11.206 -1.9155 -0.8228 -1.1419
  147MOL0     H20239  11.784   0.935  11.352 -0.5929  0.2599 -2.3212
  147MOL0     H20240  11.977   0.884  11.475  0.1480  0.8668 -0.0099
  147MOL0     H20241  12.073   0.811  11.345  0.9201 -0.4562  4.3071
  147MOL0     H20242  11.979   1.106  11.349  1.2222  1.6449  0.2191
  147MOL0     H20243  12.143   1.043  11.379  2.3175 -2.9355 -1.5534
  147MOL0     H20244  12.178   1.266  11.290  1.4130 -4.2084  0.1331
  147MOL0     H20245  12.311   1.543  11.151 -1.3739  0.4388 -5.1605
  147MOL0     H20246  12.207   1.493  11.296 -2.9773  2.5280 -0.2994
  147MOL0     H20247  12.133   1.573  11.167  1.0981  0.4399  0.0898
  147MOL0     H20248  12.163   1.502  10.536  0.5541  0.3212 -0.0784
  147MOL0     H20249  12.230   1.688  10.387  2.3726  3.4388 -0.6847
  147MOL0     H20250  12.389   1.937  10.401 -0.0281 -1.9051 -1.0665
  147MOL0     H20251  12.258   1.870  10.299  0.2123 -0.3185  0.2103
  147MOL0     H20252  12.161   2.110  10.290 -0.6414  0.8973 -0.9479
  147MOL0     H20253  12.316   2.168  10.320  2.6702 -0.9871 -1.2565
  147MOL0     H20254  12.400   2.011  10.122  0.2833  0.8195  3.6357
  147MOL0     H20255  12.330   2.168  10.088 -0.6879  1.2283  1.8099
  147MOL0     H20256  12.102   2.068  10.014 -0.6626  1.6698  1.9078
  147MOL0     H20257  12.148   1.912  10.075  1.7533 -0.1034 -0.6454
  147MOL0     H20258  12.298   2.060   9.844  2.8792  0.7144  1.4818
  147MOL0     H20259  12.348   1.913   9.921  0.8303 -0.6310 -2.0575
  147MOL0     H20260  12.108   1.827   9.856 -0.6754  1.7162  3.1114
  147MOL0     H20261  12.247   1.845   9.728  1.6562  0.7266  2.8300
  147MOL0     H20262  12.141   2.037   9.640 -0.0022 -0.1704  0.8059
  147MOL0     H20263  12.011   2.032   9.757 -0.6489  0.6630 -1.1513
  147MOL0     H20264  12.053   1.802   9.558 -1.3157  0.7699 -2.6139
  147MOL0     H20265  11.942   1.931   9.539 -0.0634 -0.7373  0.5627
  147MOL0     H20266  12.091   1.960  10.701 -0.2321 -1.0151  0.9442
  147MOL0     H20267  12.021   1.754  10.838 -2.6975  0.2078 -1.3819
  147MOL0     H20268  12.087   1.268  10.799  2.6716  1.3940 -0.2961
  147MOL0     H20269  12.051   1.063  10.928 -1.1084 -2.9571  3.4562
  147MOL0     H20270  10.936  -0.048  10.614 -4.3561 -3.4501 -0.1297
  147MOL0     H20271  10.895  -0.057  10.358 -2.0626  0.0507 -1.7716
  147MOL0     H20272  10.711  -0.017  10.014 -0.4492  2.5006  1.1421
  147MOL0     H20273  10.694  -0.059   9.792  2.1392  0.1897 -1.6222
  147MOL0     H20274  10.821   0.239   9.504  1.4200  2.0019  2.4556
  147MOL0     H20275  10.981   0.147   9.537 -1.0658 -1.6898  2.7717
  147MOL0     H20276  10.764   0.038   9.371 -0.8981  3.4437 -1.9087
  147MOL0     H20277  10.931  -0.026   9.397 -2.5686 -0.7355  3.2703
  147MOL0     H20278  10.871   0.237   9.246 -1.5348 -0.2415  0.3876
  147MOL0     H20279  11.024   0.171   9.260 -0.2666  1.2581 -0.3649
  147MOL0     H20280  10.967   0.098   9.034 -0.6796  0.7263 -0.9217
  147MOL0     H20281  10.804   0.096   9.076  0.9020  1.0910 -2.1651
  147MOL0     H20282  10.958  -0.303   9.131 -2.3077 -0.6656 -0.2676
  147MOL0     H20283  10.956   0.278   9.721  1.5225  1.3774  2.8394
  147MOL0     H20284  11.032   0.415   9.871  3.0072 -0.0094  0.9140
  147MOL0     H20285  10.947   0.426  10.026  0.5099 -2.2962  0.8578
  147MOL0     H20286  11.096   0.326   9.998  0.7606 -1.8272 -0.7609
  148MOL0     O20287   6.645  11.289  10.986  0.4703 -0.3574  0.2128
  148MOL0     C20288   6.743  11.263  11.057  0.6961 -0.3459  1.0837
  148MOL0     O20289   6.867  11.316  11.026 -0.5981 -0.0672 -0.0555
  148MOL0     C20290   6.882  11.375  10.904  0.0677  0.4406 -0.3719
  148MOL0     C20291   6.887  11.511  10.897 -0.8373  0.4956  1.5905
  148MOL0     C20292   6.899  11.586  10.774 -0.2035  0.0470  0.6515
  148MOL0     C20293   6.943  11.516  10.664  0.5521  1.4752  0.8232
  148MOL0     O20294   6.983  11.588  10.549  0.7521  0.1370 -0.8579
  148MOL0     C20295   7.018  11.510  10.435  0.6692 -0.3212  0.4018
  148MOL0     C20296   7.115  11.602  10.353  0.0352 -0.0916  0.5853
  148MOL0     C20297   7.244  11.632  10.429 -0.3549 -0.9679  0.4509
  148MOL0     C20298   7.320  11.749  10.367 -0.4521 -0.9604  0.1825
  148MOL0     C20299   7.332  11.740  10.212 -0.0064  0.1782  0.3123
  148MOL0     C20300   7.452  11.824  10.153 -0.1227  0.5518  0.7340
  148MOL0     C20301   7.448  11.839  10.003 -0.2036 -0.1354  0.2234
  148MOL0     C20302   7.562  11.932   9.945  0.0974 -0.2280  1.0252
  148MOL0     N20303   7.582  11.913   9.797  0.6783  0.0510 -0.4646
  148MOL0     C20304   7.516  11.996   9.710 -0.1531  0.3070  0.1600
  148MOL0     C20305   7.575  11.973   9.592  0.0974 -0.0769  0.1518
  148MOL0     C20306   7.538  12.025   9.453  0.0888 -0.1134  0.0990
  148MOL0     C20307   7.648  12.096   9.360 -0.9213  0.9211 -0.5337
  148MOL0     C20308   7.599  12.122   9.213 -0.5288 -0.2261 -1.1022
  148MOL0     C20309   7.700  12.208   9.130 -0.5065  0.6902  0.1165
  148MOL0     O20310   7.651  12.231   8.997  0.4020  0.4199 -1.0555
  148MOL0     C20311   7.739  12.296   8.917 -0.0302  0.1948  0.7059
  148MOL0     C20312   7.856  12.363   8.955 -0.6301  0.6906 -0.8331
  148MOL0     C20313   7.932  12.435   8.863 -0.0908  0.3230  0.3537
  148MOL0     C20314   8.057  12.500   8.919 -0.5468  0.0350  0.3670
  148MOL0     C20315   7.893  12.434   8.732 -0.0698 -0.4199  0.2348
  148MOL0     C20316   7.974  12.485   8.624  0.3364  0.2169 -0.0194
  148MOL0     O20317   7.981  12.404   8.506 -0.0888  0.0491  0.7483
  148MOL0     C20318   8.033  12.468   8.391  0.5613  0.3407 -0.5388
  148MOL0     C20319   8.146  12.416   8.336 -0.8650 -0.6729  0.4732
  148MOL0     C20320   8.209  12.479   8.226  0.0946  0.3800  0.3487
  148MOL0     C20321   8.160  12.611   8.181  1.0752 -0.1934  0.2712
  148MOL0     O20322   8.191  12.664   8.061 -0.5150 -0.0843  0.2882
  148MOL0     C20323   8.281  12.593   7.980  0.2439 -0.4187  0.3944
  148MOL0     C20324   8.304  12.671   7.853  0.0486 -0.0681  0.7855
  148MOL0     C20325   8.415  12.608   7.766  0.2733 -0.5621 -0.0851
  148MOL0     C20326   8.469  12.713   7.671  0.0272 -0.7825  0.0447
  148MOL0     C20327   8.556  12.646   7.564 -0.0504 -0.3055  0.1011
  148MOL0     C20328   8.585  12.749   7.449 -0.0901 -0.1876  0.3235
  148MOL0     C20329   8.677  12.863   7.497  0.5106  0.6038  0.6057
  148MOL0     C20330   8.721  12.949   7.387 -0.6032 -0.6851  0.1357
  148MOL0    Cl20331   8.850  12.880   7.285  0.0819  0.1102  0.1208
  148MOL0     C20332   8.042  12.655   8.248  0.4494  0.1752  0.5907
  148MOL0     C20333   7.979  12.580   8.337 -0.9635 -0.6619 -0.0381
  148MOL0     O20334   8.043  12.590   8.634 -0.2766 -0.1517  1.0950
  148MOL0     C20335   7.775  12.371   8.692 -0.7206 -1.0825  0.8282
  148MOL0     C20336   7.702  12.310   8.784  0.1984  0.9270  0.8632
  148MOL0     N20337   7.669  11.871   9.611  0.2092  0.2427  0.8277
  148MOL0     N20338   7.675  11.848   9.734 -0.2304  0.8743  0.3061
  148MOL0     C20339   6.936  11.368  10.665 -0.0718 -0.2145  0.0304
  148MOL0     C20340   6.897  11.304  10.782 -0.3841  0.1978  0.7700
  148MOL0     C20341   6.735  11.201  11.189 -0.5053 -0.1843 -0.3215
  148MOL0     C20342   6.853  11.184  11.267  0.5381 -0.0126 -0.1702
  148MOL0     C20343   6.853  11.150  11.399  0.8007  0.2732 -1.2945
  148MOL0     C20344   6.721  11.132  11.473 -0.4225 -0.3874  0.1265
  148MOL0     O20345   6.717  11.125  11.611 -0.9665  0.1056 -0.5792
  148MOL0     C20346   6.593  11.129  11.682  0.3730 -0.6615  0.2270
  148MOL0     C20347   6.565  10.978  11.727  0.6600  0.0273 -0.6610
  148MOL0     C20348   6.644  10.950  11.849 -1.0792 -0.9063  0.2571
  148MOL0     C20349   6.554  10.983  11.969 -0.4940 -0.7335  0.1263
  148MOL0     C20350   6.628  11.020  12.092 -0.5442 -0.6409  0.2466
  148MOL0     C20351   6.673  11.039  12.206  0.1985 -0.6028 -0.0386
  148MOL0     C20352   6.605  11.133  11.390  0.6178 -0.5563 -0.1648
  148MOL0     C20353   6.613  11.170  11.254  0.1457  0.1147 -0.3391
  148MOL0     C20354   6.479  11.176  11.187  0.2020 -0.3625 -0.4345
  148MOL0     H20355   6.902  11.571  10.986  2.2043 -0.3207  1.7093
  148MOL0     H20356   6.913  11.692  10.758  2.8018 -0.3409  0.0081
  148MOL0     H20357   6.932  11.476  10.377 -0.2479  1.3134  0.7511
  148MOL0     H20358   7.079  11.422  10.460  2.2718  0.6504  0.0687
  148MOL0     H20359   7.136  11.544  10.263 -0.9923 -0.3315  0.4839
  148MOL0     H20360   7.076  11.695  10.310 -0.4364 -1.4749 -2.1936
  148MOL0     H20361   7.235  11.637  10.538 -0.3641  0.8479  0.3933
  148MOL0     H20362   7.311  11.546  10.421 -2.9036 -3.2484  1.9860
  148MOL0     H20363   7.260  11.838  10.388 -0.3004 -0.7792 -0.1424
  148MOL0     H20364   7.416  11.759  10.418  1.4635  1.0686 -3.3462
  148MOL0     H20365   7.237  11.775  10.169 -1.0978  1.2090  3.3156
  148MOL0     H20366   7.362  11.635  10.209  2.2484  0.7803  0.1141
  148MOL0     H20367   7.448  11.922  10.202 -2.0945  0.2236  1.3391
  148MOL0     H20368   7.547  11.777  10.178  1.8649  1.1328 -4.4426
  148MOL0     H20369   7.349  11.862   9.962 -1.0004  1.8321  2.9604
  148MOL0     H20370   7.486  11.741   9.973 -1.5970 -1.2288  1.8529
  148MOL0     H20371   7.529  12.034   9.964 -0.1680  0.0736 -0.9140
  148MOL0     H20372   7.659  11.914   9.993  1.2064 -0.3774 -1.1787
  148MOL0     H20373   7.426  12.051   9.734 -0.7156 -1.5607  2.7465
  148MOL0     H20374   7.456  12.097   9.462  0.3927  1.8629 -6.9888
  148MOL0     H20375   7.500  11.944   9.390  0.5463 -0.4532  0.2517
  148MOL0     H20376   7.674  12.195   9.400  0.5188  0.5361 -0.4623
  148MOL0     H20377   7.739  12.036   9.372 -0.2522  2.1946  1.1150
  148MOL0     H20378   7.589  12.021   9.172  3.0915 -1.0790 -0.2495
  148MOL0     H20379   7.496  12.159   9.215 -0.0809  1.0623 -1.4538
  148MOL0     H20380   7.715  12.296   9.193 -2.8601  1.8538 -0.8124
  148MOL0     H20381   7.792  12.150   9.137 -0.5294  0.4871 -1.1499
  148MOL0     H20382   7.879  12.365   9.061  1.2175 -3.9156 -0.9564
  148MOL0     H20383   8.144  12.456   8.868  0.9660  1.3596  1.7044
  148MOL0     H20384   8.062  12.487   9.027  0.3831  3.6303  0.8834
  148MOL0     H20385   8.064  12.606   8.892 -0.2409 -0.2788 -0.8842
  148MOL0     H20386   8.189  12.321   8.366  1.8361 -0.0575 -1.1464
  148MOL0     H20387   8.288  12.435   8.165 -0.3960 -0.5460  0.3569
  148MOL0     H20388   8.386  12.584   8.009  1.0182 -2.2707 -2.5353
  148MOL0     H20389   8.240  12.496   7.949 -4.0603  0.6546  2.0303
  148MOL0     H20390   8.214  12.676   7.791  0.6107  1.5066  0.0408
  148MOL0     H20391   8.327  12.775   7.877 -0.3741  0.8400 -2.2642
  148MOL0     H20392   8.368  12.527   7.709  1.1408  0.8097 -2.9304
  148MOL0     H20393   8.493  12.563   7.827 -0.9100 -2.3580  0.1770
  148MOL0     H20394   8.529  12.781   7.732 -2.7649  1.5702  0.4325
  148MOL0     H20395   8.390  12.777   7.630  2.0063  3.8798  2.7074
  148MOL0     H20396   8.652  12.628   7.613  1.3586  1.5216 -1.7814
  148MOL0     H20397   8.526  12.550   7.523  0.9293 -2.2844  3.6334
  148MOL0     H20398   8.485  12.780   7.418  0.1508  1.6751  1.2875
  148MOL0     H20399   8.641  12.704   7.366 -1.0692  1.2323 -1.1502
  148MOL0     H20400   8.770  12.825   7.541 -0.2524 -2.0657  0.0397
  148MOL0     H20401   8.616  12.914   7.573 -0.7135 -0.8934  0.6692
  148MOL0     H20402   8.762  13.043   7.423 -0.7194  0.4810 -2.5604
  148MOL0     H20403   8.638  12.982   7.323  1.2795 -0.5512 -2.3666
  148MOL0     H20404   8.005  12.756   8.233  0.2708 -0.2518 -2.4589
  148MOL0     H20405   7.895  12.630   8.385  0.2694  2.6561 -1.0128
  148MOL0     H20406   7.748  12.388   8.588  1.8584  1.6189  0.4463
  148MOL0     H20407   7.622  12.251   8.739  2.1603 -4.1625  3.2435
  148MOL0     H20408   6.958  11.302  10.582 -0.3826 -2.2907  1.4924
  148MOL0     H20409   6.890  11.196  10.782 -0.6315  0.1722 -1.3558
  148MOL0     H20410   6.954  11.194  11.228  1.4577  2.2608  2.4620
  148MOL0     H20411   6.947  11.154  11.453 -0.5444  2.6375  1.1853
  148MOL0     H20412   6.611  11.198  11.766 -0.5788  2.8022 -2.1667
  148MOL0     H20413   6.506  11.178  11.636  1.3604  2.4999  1.4094
  148MOL0     H20414   6.598  10.919  11.641  0.8730  0.3393 -0.7931
  148MOL0     H20415   6.458  10.959  11.744  0.8557 -0.6274 -0.1512
  148MOL0     H20416   6.677  10.846  11.848  1.3081 -0.2132 -1.3362
  148MOL0     H20417   6.737  11.008  11.858 -0.8473 -1.2738  0.2620
  148MOL0     H20418   6.485  10.900  11.991  0.7254 -1.5140  1.1214
  148MOL0     H20419   6.493  11.068  11.937  0.0131 -0.5526 -0.3814
  148MOL0     H20420   6.721  11.050  12.301  0.0750 -2.5126  0.2877
  148MOL0     H20421   6.506  11.104  11.424 -0.6901  1.5015 -1.9356
  148MOL0     H20422   6.457  11.278  11.158  2.5024  0.4727  0.4682
  148MOL0     H20423   6.473  11.108  11.101 -0.5378 -1.2641  0.3034
  148MOL0     H20424   6.398  11.168  11.260  0.0734  1.1811 -0.3764
  149MOL0     O20425   3.858   8.963   5.515  0.4373 -0.2116 -0.5296
  149MOL0     C20426   3.968   8.912   5.517  0.7511  0.7569 -0.0709
  149MOL0     O20427   4.027   8.834   5.421  0.2726 -0.3085 -0.0965
  149MOL0     C20428   3.963   8.805   5.300  0.2314  0.0206  0.0517
  149MOL0     C20429   3.850   8.870   5.236 -0.1791  0.8179 -0.5573
  149MOL0     C20430   3.816   8.841   5.106 -0.2504  0.1129  0.3355
  149MOL0     C20431   3.871   8.736   5.047 -0.1329  0.5645 -0.2105
  149MOL0     O20432   3.836   8.688   4.924 -0.1776 -0.3314  0.0266
  149MOL0     C20433   3.705   8.715   4.874  0.7320 -0.5112  0.7570
  149MOL0     C20434   3.665   8.630   4.752 -1.3441  0.6695  0.3519
  149MOL0     C20435   3.538   8.683   4.687 -0.0715 -0.7232 -0.3276
  149MOL0     C20436   3.551   8.815   4.624 -0.3046 -0.9152  0.7263
  149MOL0     C20437   3.642   8.816   4.513 -1.2751  0.4975 -0.0943
  149MOL0     C20438   3.654   8.948   4.432 -0.4174  0.4940  0.0135
  149MOL0     C20439   3.740   8.932   4.305 -0.4015  0.3307 -0.2398
  149MOL0     C20440   3.788   9.065   4.255 -0.3536 -0.4430  0.2357
  149MOL0     N20441   3.682   9.137   4.177  0.0609  0.0200 -0.1681
  149MOL0     C20442   3.665   9.138   4.045 -0.0065 -0.3409  0.7457
  149MOL0     C20443   3.543   9.196   4.024 -0.1419  0.5226  1.3388
  149MOL0     C20444   3.479   9.226   3.889 -0.6641 -0.5279  0.3461
  149MOL0     C20445   3.418   9.374   3.886 -0.3711 -0.1169 -0.2361
  149MOL0     C20446   3.358   9.400   3.753  1.0399  0.1926 -0.9548
  149MOL0     C20447   3.445   9.487   3.663 -0.0871  1.1091  1.2346
  149MOL0     O20448   3.404   9.482   3.521  0.0295  0.6808  0.2278
  149MOL0     C20449   3.303   9.567   3.491  0.3965 -0.0299  0.2432
  149MOL0     C20450   3.169   9.535   3.460 -1.1582 -0.3640 -0.1889
  149MOL0     C20451   3.068   9.625   3.422  0.1837 -0.6911 -0.0423
  149MOL0     C20452   2.933   9.571   3.374 -0.2537 -0.1095 -0.2547
  149MOL0     C20453   3.104   9.765   3.413 -0.5267  0.4226 -0.1587
  149MOL0     C20454   3.007   9.870   3.371  0.1091  0.2766 -0.5728
  149MOL0     O20455   3.050  10.001   3.397  0.5829 -0.4114  0.7225
  149MOL0     C20456   2.971  10.106   3.344 -0.4765  0.1131 -0.2442
  149MOL0     C20457   3.001  10.144   3.215 -0.4511 -0.4007  0.1716
  149MOL0     C20458   2.942  10.250   3.149 -0.1395 -0.7624 -0.9104
  149MOL0     C20459   2.865  10.343   3.224  0.6157 -0.5747 -0.6462
  149MOL0     O20460   2.818  10.462   3.162 -0.4947 -0.2039 -0.3963
  149MOL0     C20461   2.761  10.569   3.239 -0.5505  0.0165 -0.2224
  149MOL0     C20462   2.755  10.698   3.153  0.6501 -0.2601  0.3936
  149MOL0     C20463   2.675  10.666   3.023  0.0161 -0.4224  0.1886
  149MOL0     C20464   2.638  10.793   2.950 -0.7615 -0.0676 -0.0060
  149MOL0     C20465   2.761  10.867   2.906 -0.0530  0.3622 -0.0442
  149MOL0     C20466   2.729  10.989   2.822 -0.0227 -0.4674 -0.1480
  149MOL0     C20467   2.628  11.085   2.895  0.4645 -0.3049  0.0967
  149MOL0     C20468   2.624  11.222   2.832  0.0922  0.2349  0.4246
  149MOL0    Cl20469   2.770  11.328   2.874 -0.3496 -0.0529 -0.2052
  149MOL0     C20470   2.841  10.300   3.358 -0.0515  0.2179  0.4774
  149MOL0     C20471   2.893  10.186   3.421 -0.5025 -0.1278  0.1662
  149MOL0     O20472   2.891   9.845   3.353  0.4319  0.6174 -0.2182
  149MOL0     C20473   3.235   9.790   3.449 -0.0168 -0.0119  0.6354
  149MOL0     C20474   3.324   9.699   3.493  0.9836 -0.2213 -0.5776
  149MOL0     N20475   3.490   9.232   4.139  0.4332  0.3855 -0.0404
  149MOL0     N20476   3.568   9.200   4.232  0.1029  0.6068 -0.4662
  149MOL0     C20477   3.975   8.662   5.112 -0.2772 -0.9038  0.8044
  149MOL0     C20478   4.023   8.704   5.235 -0.6776  1.0273  1.4086
  149MOL0     C20479   4.051   8.970   5.619  0.1252  0.0064  0.4076
  149MOL0     C20480   4.178   9.018   5.587  0.0360  0.8440  0.4093
  149MOL0     C20481   4.264   9.073   5.678  0.2289 -0.7205  0.3796
  149MOL0     C20482   4.223   9.097   5.806 -0.0090  1.0210  0.1481
  149MOL0     O20483   4.300   9.164   5.895 -0.1320 -0.0737  0.5983
  149MOL0     C20484   4.435   9.221   5.872  0.1124 -0.1136  0.5798
  149MOL0     C20485   4.416   9.371   5.868  0.1685  0.8465 -0.4799
  149MOL0     C20486   4.535   9.428   5.800 -0.0685 -0.5501  0.6562
  149MOL0     C20487   4.548   9.579   5.819  0.5347 -0.9616 -0.5377
  149MOL0     C20488   4.600   9.624   5.951 -0.8650  0.4748  0.7197
  149MOL0     C20489   4.639   9.654   6.060 -0.7975  0.0771 -0.3037
  149MOL0     C20490   4.099   9.050   5.850 -0.6071  0.4000 -0.2903
  149MOL0     C20491   4.009   8.994   5.753 -0.2167  0.2309 -0.4444
  149MOL0     C20492   3.869   8.950   5.804  0.3276 -0.6435  0.0055
  149MOL0     H20493   3.784   8.945   5.279 -2.2185  0.5156 -2.9455
  149MOL0     H20494   3.737   8.904   5.065  0.5898  0.0233 -1.5288
  149MOL0     H20495   3.685   8.822   4.864 -0.1208 -0.6018  1.3240
  149MOL0     H20496   3.634   8.702   4.956 -0.5667  0.3994 -0.1730
  149MOL0     H20497   3.741   8.635   4.673 -0.0274  0.2172  1.5463
  149MOL0     H20498   3.650   8.527   4.784  2.1116  0.4233  1.5756
  149MOL0     H20499   3.511   8.612   4.608  1.5182 -1.6993 -0.0480
  149MOL0     H20500   3.451   8.681   4.754  1.5027  1.7554  2.0071
  149MOL0     H20501   3.452   8.834   4.582 -1.1223 -1.2379  2.4549
  149MOL0     H20502   3.574   8.901   4.687 -0.7125 -1.2206  1.2990
  149MOL0     H20503   3.624   8.735   4.443  2.4537  1.2070 -2.1073
  149MOL0     H20504   3.743   8.802   4.550 -1.4792  0.2731  0.3820
  149MOL0     H20505   3.550   8.973   4.406 -0.7769 -1.2872 -0.4133
  149MOL0     H20506   3.699   9.028   4.491 -0.3706  0.4182  0.0798
  149MOL0     H20507   3.690   8.879   4.224 -1.1564 -1.3047  1.2309
  149MOL0     H20508   3.833   8.878   4.325  0.0176  1.3898  0.8326
  149MOL0     H20509   3.813   9.131   4.338  0.0760  0.8804 -0.8984
  149MOL0     H20510   3.872   9.054   4.186 -0.0639  0.9536  0.3386
  149MOL0     H20511   3.723   9.094   3.965 -3.3662 -2.9608 -0.4590
  149MOL0     H20512   3.400   9.154   3.867  3.0333 -4.6024 -1.1871
  149MOL0     H20513   3.559   9.219   3.815  0.2539  0.9501  1.1495
  149MOL0     H20514   3.336   9.371   3.958 -1.8894 -1.6520 -1.9380
  149MOL0     H20515   3.493   9.449   3.914  3.5165 -3.8585  0.4538
  149MOL0     H20516   3.338   9.301   3.712  1.1949 -0.4513  0.4660
  149MOL0     H20517   3.264   9.452   3.773  1.8955  2.0239 -1.5433
  149MOL0     H20518   3.441   9.592   3.696 -2.8752  0.6226  2.8196
  149MOL0     H20519   3.546   9.446   3.663 -0.3593  0.3936 -0.0836
  149MOL0     H20520   3.137   9.433   3.479 -2.0567  0.0494  0.6059
  149MOL0     H20521   2.861   9.597   3.451 -0.3844 -0.7450 -0.1578
  149MOL0     H20522   2.928   9.462   3.383  0.6606 -0.1995 -0.6469
  149MOL0     H20523   2.909   9.608   3.274 -1.0787  2.6789  0.8879
  149MOL0     H20524   3.089  10.097   3.171  0.1713  0.1003  0.8705
  149MOL0     H20525   2.957  10.271   3.043 -0.0390 -1.7010 -1.0924
  149MOL0     H20526   2.658  10.554   3.275  0.6815 -0.9130  3.3153
  149MOL0     H20527   2.827  10.597   3.321  0.8441  0.0193 -1.3005
  149MOL0     H20528   2.700  10.774   3.209  2.9176  1.6748  0.1288
  149MOL0     H20529   2.852  10.745   3.134 -0.0617  1.8455  1.6305
  149MOL0     H20530   2.585  10.607   3.043 -0.2019 -1.5614 -3.4046
  149MOL0     H20531   2.733  10.613   2.947  0.0901  2.4676 -1.9661
  149MOL0     H20532   2.576  10.860   3.011  1.0206  1.8645 -0.2060
  149MOL0     H20533   2.572  10.761   2.869 -1.3206 -0.5942  0.6440
  149MOL0     H20534   2.809  10.900   2.998  0.1994 -0.1748  0.0210
  149MOL0     H20535   2.835  10.801   2.860 -0.2782  0.4258 -0.5050
  149MOL0     H20536   2.697  10.958   2.722  1.0760 -0.7522 -0.4250
  149MOL0     H20537   2.822  11.043   2.801  0.7944 -2.2050 -1.1789
  149MOL0     H20538   2.636  11.098   3.003 -4.6918 -0.0578  0.6581
  149MOL0     H20539   2.528  11.048   2.872 -0.1528  1.6307 -0.4999
  149MOL0     H20540   2.538  11.279   2.870  0.1673  1.0161 -0.5202
  149MOL0     H20541   2.623  11.218   2.723  1.4258 -1.1690  0.4362
  149MOL0     H20542   2.779  10.366   3.418  0.4936 -0.6756  2.1095
  149MOL0     H20543   2.873  10.163   3.525  1.6641  1.8868  1.1234
  149MOL0     H20544   3.272   9.892   3.445  0.8665 -0.3622 -0.5952
  149MOL0     H20545   3.415   9.732   3.542  0.1012 -0.4585  1.3039
  149MOL0     H20546   4.017   8.577   5.058 -1.0449 -1.5732  1.2415
  149MOL0     H20547   4.109   8.650   5.273  0.2059 -0.3078 -2.1593
  149MOL0     H20548   4.210   9.007   5.483 -2.2345 -1.9815 -0.1377
  149MOL0     H20549   4.357   9.121   5.648 -0.7069  0.8240 -0.1380
  149MOL0     H20550   4.494   9.198   5.962 -1.2788 -0.4270  1.4386
  149MOL0     H20551   4.484   9.177   5.784 -2.0458 -0.7836 -0.3482
  149MOL0     H20552   4.409   9.409   5.971  0.2153  2.5030 -1.0591
  149MOL0     H20553   4.323   9.402   5.820 -1.2025 -2.1848 -0.0186
  149MOL0     H20554   4.627   9.375   5.828  0.6677 -2.4207 -4.2992
  149MOL0     H20555   4.525   9.413   5.692  0.2217  2.8032  0.0515
  149MOL0     H20556   4.452   9.625   5.793  1.3708  1.0652 -0.2848
  149MOL0     H20557   4.619   9.617   5.745  1.6275 -1.4061  0.2672
  149MOL0     H20558   4.706   9.672   6.142  0.2061 -1.1810 -0.8006
  149MOL0     H20559   4.071   9.064   5.954  2.0616 -0.8957  0.6851
  149MOL0     H20560   3.817   8.876   5.743  2.9960 -2.0553 -0.6665
  149MOL0     H20561   3.875   8.898   5.900  0.0176  1.4404  1.2354
  149MOL0     H20562   3.799   9.034   5.812  0.8209 -0.3551  1.5735
  150MOL0     O20563   3.577   7.235   3.797 -0.5831 -0.3439 -1.2846
  150MOL0     C20564   3.572   7.332   3.872  0.5100 -0.2833 -0.8775
  150MOL0     O20565   3.492   7.345   3.987  0.2848 -0.2126 -0.4994
  150MOL0     C20566   3.406   7.234   4.011 -1.2173 -0.4329  0.8371
  150MOL0     C20567   3.437   7.156   4.128  0.2446 -0.4611  0.4971
  150MOL0     C20568   3.348   7.059   4.167 -0.3092  1.0680  0.3008
  150MOL0     C20569   3.238   7.023   4.094  0.2273 -0.3444  0.5029
  150MOL0     O20570   3.137   6.927   4.116  0.4094 -0.6975  0.1363
  150MOL0     C20571   3.154   6.816   4.205 -1.2825 -0.7422 -0.3462
  150MOL0     C20572   3.099   6.698   4.152 -0.4512  0.0031 -0.7524
  150MOL0     C20573   3.128   6.565   4.225 -0.1749  1.2108 -0.5233
  150MOL0     C20574   3.100   6.449   4.127 -0.1272 -0.4747  0.3576
  150MOL0     C20575   3.141   6.304   4.178  1.0905  0.1821  0.1865
  150MOL0     C20576   3.158   6.207   4.057 -0.0987  0.0813 -1.3033
  150MOL0     C20577   3.021   6.183   3.988  0.1583  0.4389  0.6963
  150MOL0     C20578   3.034   6.049   3.917  0.1678  0.0739  0.0007
  150MOL0     N20579   3.148   6.062   3.823  0.4593  0.6848 -0.8489
  150MOL0     C20580   3.163   6.133   3.705  0.3191  0.0434 -1.1496
  150MOL0     C20581   3.284   6.105   3.667 -0.1190  0.1104  1.2447
  150MOL0     C20582   3.351   6.136   3.533 -0.8068  0.0478  0.4962
  150MOL0     C20583   3.348   6.021   3.432  1.4523 -0.4896 -0.2028
  150MOL0     C20584   3.410   5.889   3.475 -0.0459  0.6508 -0.3155
  150MOL0     C20585   3.561   5.874   3.464 -0.8469 -0.7906 -0.4622
  150MOL0     O20586   3.614   5.943   3.358 -0.3719  0.0716 -0.7587
  150MOL0     C20587   3.736   5.911   3.314 -0.0530  0.4801  0.3915
  150MOL0     C20588   3.835   5.821   3.366  0.1638  0.9087  1.2146
  150MOL0     C20589   3.965   5.821   3.316 -0.8450 -0.1213 -0.2513
  150MOL0     C20590   4.075   5.732   3.376 -0.4831  0.0367  0.0553
  150MOL0     C20591   4.000   5.906   3.209  0.5594 -0.1950 -0.2088
  150MOL0     C20592   4.139   5.914   3.159  0.1442 -0.1512 -0.5334
  150MOL0     O20593   4.204   6.032   3.170  0.0495 -0.0070 -0.5491
  150MOL0     C20594   4.322   6.042   3.106  0.3889  0.5442 -0.8688
  150MOL0     C20595   4.322   6.131   2.999 -0.8591 -0.2771  0.6421
  150MOL0     C20596   4.441   6.167   2.938 -0.3266  0.2213 -0.8510
  150MOL0     C20597   4.563   6.106   2.979 -0.5639  0.8334 -0.0527
  150MOL0     O20598   4.694   6.142   2.936  0.4193  0.4200 -0.0535
  150MOL0     C20599   4.711   6.171   2.802 -0.6201 -0.1869  0.2926
  150MOL0     C20600   4.750   6.312   2.764  0.8268 -0.4751  0.3211
  150MOL0     C20601   4.900   6.331   2.806 -0.7078 -0.2440 -0.4508
  150MOL0     C20602   4.938   6.479   2.847 -0.7013 -0.3292 -0.9310
  150MOL0     C20603   5.077   6.488   2.912 -0.8310 -0.1461  0.4869
  150MOL0     C20604   5.081   6.618   2.992 -0.1109  0.0683 -0.0547
  150MOL0     C20605   5.219   6.626   3.055  0.0641 -1.1183 -0.0562
  150MOL0     C20606   5.293   6.762   3.062 -0.2686  1.1927  0.6018
  150MOL0    Cl20607   5.312   6.778   2.881 -0.4201 -0.0548  0.0911
  150MOL0     C20608   4.555   6.001   3.080  0.2501 -0.9047  0.1767
  150MOL0     C20609   4.431   5.968   3.146 -0.5820 -0.8220  0.1838
  150MOL0     O20610   4.188   5.813   3.123 -0.8103 -0.4786  0.0964
  150MOL0     C20611   3.907   5.996   3.159 -0.5768 -0.3070 -0.8918
  150MOL0     C20612   3.772   5.996   3.210  0.5567 -0.1943  0.6679
  150MOL0     N20613   3.347   6.025   3.765  0.0590  0.2706 -0.4583
  150MOL0     N20614   3.271   6.014   3.866  0.2541 -1.0037  0.3777
  150MOL0     C20615   3.207   7.098   3.972 -0.1840 -0.2089 -0.1500
  150MOL0     C20616   3.291   7.206   3.943  0.1854  1.5906 -0.3551
  150MOL0     C20617   3.642   7.462   3.824 -0.2344 -0.4897 -0.1583
  150MOL0     C20618   3.620   7.494   3.685  0.0568  0.4103  0.0214
  150MOL0     C20619   3.671   7.606   3.621  0.1036  0.2593 -0.0868
  150MOL0     C20620   3.741   7.701   3.701  0.5580  0.0546 -0.4283
  150MOL0     O20621   3.802   7.818   3.660  0.0916  0.3135 -0.8211
  150MOL0     C20622   3.779   7.869   3.531 -0.3757 -0.1660 -0.3464
  150MOL0     C20623   3.849   8.001   3.504 -0.1958  0.1310 -0.5665
  150MOL0     C20624   4.002   7.977   3.499  0.1724  0.0777 -0.6599
  150MOL0     C20625   4.064   7.918   3.629  0.1461 -0.0055 -0.1501
  150MOL0     C20626   4.208   7.905   3.643 -0.3147  0.1069  0.8561
  150MOL0     C20627   4.324   7.867   3.655 -0.4165 -0.1285 -0.5070
  150MOL0     C20628   3.764   7.664   3.839  0.0669 -1.0228  0.2202
  150MOL0     C20629   3.716   7.558   3.899 -0.7212  0.4601  0.2109
  150MOL0     C20630   3.740   7.551   4.048  0.5579 -0.8724 -0.1571
  150MOL0     H20631   3.524   7.180   4.189  0.3937 -1.4174  0.6733
  150MOL0     H20632   3.355   7.027   4.270 -0.4810  0.8806  0.2547
  150MOL0     H20633   3.120   6.834   4.307 -3.0760 -0.5069 -0.9489
  150MOL0     H20634   3.260   6.789   4.219 -1.2700 -0.8993 -0.7267
  150MOL0     H20635   2.991   6.711   4.151 -0.3570  0.9698  0.3224
  150MOL0     H20636   3.141   6.696   4.051  3.7283  1.5573  0.7052
  150MOL0     H20637   3.232   6.556   4.257 -0.5730 -0.0991  0.5406
  150MOL0     H20638   3.065   6.553   4.314 -0.9538  0.0741 -1.1905
  150MOL0     H20639   2.995   6.460   4.099 -0.9178 -0.2209  3.0800
  150MOL0     H20640   3.155   6.474   4.036 -0.4575  0.6526  0.4524
  150MOL0     H20641   3.066   6.263   4.247 -0.7356 -0.7410 -2.2004
  150MOL0     H20642   3.233   6.303   4.237  1.0289 -1.5991  0.2872
  150MOL0     H20643   3.229   6.256   3.990 -2.5072  1.8022 -2.8100
  150MOL0     H20644   3.202   6.112   4.086 -1.4249 -0.5791 -1.3421
  150MOL0     H20645   2.992   6.265   3.923  2.3029 -0.1446 -1.1550
  150MOL0     H20646   2.938   6.176   4.058  0.2582 -1.3444  0.6871
  150MOL0     H20647   3.058   5.972   3.991  1.0574 -1.2852 -1.6649
  150MOL0     H20648   2.934   6.021   3.881 -0.5409  1.5046  0.7322
  150MOL0     H20649   3.085   6.170   3.640 -0.9264  1.5648  1.0886
  150MOL0     H20650   3.455   6.171   3.540 -0.9434  0.5881 -0.1476
  150MOL0     H20651   3.309   6.227   3.489 -0.7932 -0.2475 -0.1489
  150MOL0     H20652   3.240   6.004   3.418  1.3851  0.4542 -0.9564
  150MOL0     H20653   3.398   6.054   3.340  0.1265 -1.1323 -1.1832
  150MOL0     H20654   3.382   5.860   3.577 -0.4897  0.3619 -0.5186
  150MOL0     H20655   3.368   5.815   3.407  0.3327  1.6286 -1.6491
  150MOL0     H20656   3.602   5.906   3.560  1.3312 -1.7809 -0.9984
  150MOL0     H20657   3.581   5.766   3.464  1.0088 -0.4681 -0.8648
  150MOL0     H20658   3.805   5.756   3.448  0.6533 -1.7425 -0.5807
  150MOL0     H20659   4.157   5.785   3.426 -0.3166 -1.0565  0.9913
  150MOL0     H20660   4.120   5.674   3.294  3.0092  1.9552  0.4080
  150MOL0     H20661   4.034   5.659   3.446 -3.2477  0.3472 -1.1209
  150MOL0     H20662   4.232   6.187   2.977  0.8713  2.0835 -0.9995
  150MOL0     H20663   4.430   6.253   2.873 -0.6534  3.1952  2.7930
  150MOL0     H20664   4.801   6.119   2.767  0.0955  1.7050 -0.7996
  150MOL0     H20665   4.634   6.134   2.735 -0.1206 -0.4003 -0.1729
  150MOL0     H20666   4.739   6.321   2.656  4.1188 -1.1795 -0.2043
  150MOL0     H20667   4.678   6.380   2.810 -3.3510 -1.8927 -3.5049
  150MOL0     H20668   4.964   6.312   2.720  0.6678 -2.6795  0.9972
  150MOL0     H20669   4.921   6.250   2.877 -1.1747 -0.0807 -0.1222
  150MOL0     H20670   4.863   6.512   2.919  0.7487 -3.4649  2.3441
  150MOL0     H20671   4.936   6.533   2.751  0.7258  3.5211  0.9676
  150MOL0     H20672   5.087   6.398   2.972 -2.3392 -1.0272 -0.5297
  150MOL0     H20673   5.148   6.489   2.828  0.2819  0.7596  1.4094
  150MOL0     H20674   5.015   6.618   3.079  1.2187 -2.6869  1.0473
  150MOL0     H20675   5.051   6.709   2.938 -1.4074  0.7078  1.6397
  150MOL0     H20676   5.281   6.546   3.012  2.8661  0.5812  0.5377
  150MOL0     H20677   5.201   6.603   3.161  1.0910  1.1691  0.6624
  150MOL0     H20678   5.383   6.758   3.123 -0.0643 -0.2253  0.2519
  150MOL0     H20679   5.229   6.838   3.107 -3.4504 -0.9526  0.0974
  150MOL0     H20680   4.643   5.945   3.110 -1.4798 -3.7886  0.2963
  150MOL0     H20681   4.430   5.886   3.217 -1.4765 -1.1441 -0.1903
  150MOL0     H20682   3.929   6.062   3.076  0.4853  1.4900  0.7460
  150MOL0     H20683   3.697   6.065   3.172  1.1569 -0.1922 -0.5333
  150MOL0     H20684   3.109   7.082   3.929 -0.7615  0.9451  0.6597
  150MOL0     H20685   3.271   7.250   3.846 -0.5849  0.3480 -0.7911
  150MOL0     H20686   3.558   7.431   3.622 -0.0703  0.5325  0.0241
  150MOL0     H20687   3.652   7.623   3.515  1.0320 -1.1700 -0.5027
  150MOL0     H20688   3.816   7.792   3.462 -0.7045 -0.7184  0.0827
  150MOL0     H20689   3.673   7.883   3.509 -0.7505  1.4472  2.1142
  150MOL0     H20690   3.836   8.057   3.597  0.7198  2.0591 -1.5510
  150MOL0     H20691   3.810   8.042   3.410 -1.3060 -0.3891 -0.3447
  150MOL0     H20692   4.032   7.909   3.418  0.8030  0.2864 -0.6073
  150MOL0     H20693   4.044   8.072   3.467 -0.8838  1.9259  2.9218
  150MOL0     H20694   4.043   7.812   3.614 -2.3792  0.6778 -2.1707
  150MOL0     H20695   4.027   7.974   3.715 -1.6460 -1.0355 -0.2131
  150MOL0     H20696   4.424   7.829   3.661 -0.1930  0.4703 -0.3045
  150MOL0     H20697   3.826   7.727   3.902 -1.6323  1.9173 -0.8085
  150MOL0     H20698   3.831   7.498   4.077  0.7805  0.8125  2.5779
  150MOL0     H20699   3.752   7.649   4.095 -4.0448  0.5568 -1.3500
  150MOL0     H20700   3.660   7.494   4.096  0.4977 -0.6452  0.0150
  151MOL0     O20701   8.088   6.226   1.090  0.7811 -0.4989  0.0005
  151MOL0     C20702   8.021   6.211   1.196 -0.5938  0.4215  0.5774
  151MOL0     O20703   7.914   6.291   1.236 -1.0298  0.7526 -0.0148
  151MOL0     C20704   7.845   6.385   1.161 -0.6396 -0.0518  0.5042
  151MOL0     C20705   7.850   6.397   1.023 -0.6964  0.2716 -0.0329
  151MOL0     C20706   7.783   6.501   0.957 -0.4388  0.6816 -0.8418
  151MOL0     C20707   7.723   6.609   1.027  0.1266  0.3858  0.3337
  151MOL0     O20708   7.666   6.708   0.949  0.9102  0.5713  0.6226
  151MOL0     C20709   7.656   6.834   1.013  0.1990 -0.2605  0.2426
  151MOL0     C20710   7.624   6.940   0.902  0.2464  0.4043  0.0125
  151MOL0     C20711   7.478   6.935   0.850 -0.7811  0.0148 -0.6017
  151MOL0     C20712   7.453   7.023   0.726 -0.7090  1.1283  0.2870
  151MOL0     C20713   7.437   7.169   0.783  0.5478  0.3591 -0.2567
  151MOL0     C20714   7.489   7.266   0.677 -0.0008  0.2845 -0.0826
  151MOL0     C20715   7.379   7.316   0.584  0.3695 -0.7818 -0.1482
  151MOL0     C20716   7.430   7.346   0.434 -0.5837  0.2273 -0.2450
  151MOL0     N20717   7.435   7.233   0.345  0.2593  0.2955  1.4480
  151MOL0     C20718   7.553   7.203   0.273 -0.0167 -0.3796 -0.0266
  151MOL0     C20719   7.509   7.106   0.180 -0.3752 -0.3288 -0.1646
  151MOL0     C20720   7.593   7.017   0.090 -0.1873  0.7552  0.8908
  151MOL0     C20721   7.646   7.087  -0.027  0.4216 -0.7936  0.8877
  151MOL0     C20722   7.760   7.193  -0.006  0.4973 -0.3090 -0.2101
  151MOL0     C20723   7.759   7.309  -0.111  0.1869 -0.2633 -0.2895
  151MOL0     O20724   7.674   7.420  -0.068 -0.0540 -0.0804  0.0749
  151MOL0     C20725   7.704   7.491   0.046 -0.7214 -0.7660 -1.1570
  151MOL0     C20726   7.602   7.548   0.114  0.6872  0.1779  0.2931
  151MOL0     C20727   7.623   7.607   0.234  0.8133 -0.0555 -0.5647
  151MOL0     C20728   7.505   7.673   0.293  0.1326 -0.1867  0.7294
  151MOL0     C20729   7.747   7.608   0.303  0.3825  0.7252 -0.4126
  151MOL0     C20730   7.781   7.671   0.436  0.5261  0.0460 -0.1676
  151MOL0     O20731   7.903   7.655   0.477 -1.0304  0.1014  0.2184
  151MOL0     C20732   7.959   7.706   0.596  0.3892  0.0790  0.3180
  151MOL0     C20733   7.902   7.792   0.697 -0.2522  0.6107  0.2327
  151MOL0     C20734   7.982   7.817   0.813  0.2549 -0.7495  0.9930
  151MOL0     C20735   8.113   7.762   0.824  0.2316  0.2107 -0.1815
  151MOL0     O20736   8.199   7.815   0.923 -0.0133 -0.9033 -0.1455
  151MOL0     C20737   8.335   7.771   0.943 -0.5709 -0.1644  0.4280
  151MOL0     C20738   8.423   7.844   0.844 -1.0317  0.0040 -0.0069
  151MOL0     C20739   8.486   7.975   0.900 -0.4656  0.7361 -0.3743
  151MOL0     C20740   8.619   7.955   0.985 -0.0606 -0.0598  0.5667
  151MOL0     C20741   8.676   8.089   1.027 -0.2570 -0.5459  0.4289
  151MOL0     C20742   8.789   8.082   1.122  0.2577 -0.0210 -0.6694
  151MOL0     C20743   8.841   8.228   1.170  0.0421 -0.4214  0.0481
  151MOL0     C20744   8.940   8.297   1.083 -0.6715 -0.0177 -0.2053
  151MOL0    Cl20745   9.073   8.177   1.063  0.4596 -0.1279 -0.1238
  151MOL0     C20746   8.158   7.683   0.725 -0.0538 -0.3132  0.4947
  151MOL0     C20747   8.085   7.654   0.615 -0.3987 -0.8733 -0.5405
  151MOL0     O20748   7.691   7.733   0.501 -0.1017  0.8485  0.5376
  151MOL0     C20749   7.851   7.556   0.227 -0.2217 -0.5262  1.0455
  151MOL0     C20750   7.833   7.496   0.101  0.0681 -0.2872  0.8228
  151MOL0     N20751   7.377   7.088   0.200  0.1093  0.2845 -0.1675
  151MOL0     N20752   7.336   7.166   0.288  0.6332  0.2743 -0.0435
  151MOL0     C20753   7.701   6.581   1.162  1.0934 -0.8837 -0.7941
  151MOL0     C20754   7.751   6.467   1.219 -0.4931 -0.4060 -0.0940
  151MOL0     C20755   8.060   6.100   1.282 -0.1570  0.0593 -0.1223
  151MOL0     C20756   7.990   6.073   1.405 -0.4850 -0.3338 -0.1411
  151MOL0     C20757   8.029   5.962   1.491 -0.7876 -0.1595  0.6125
  151MOL0     C20758   8.134   5.875   1.453  0.2517 -0.9017  0.4369
  151MOL0     O20759   8.172   5.791   1.545  0.0419  0.1320  0.1557
  151MOL0     C20760   8.307   5.734   1.545  0.1613  0.1510 -0.7295
  151MOL0     C20761   8.362   5.716   1.684  0.3143  0.4093  0.0367
  151MOL0     C20762   8.403   5.843   1.747 -0.0370  0.1915 -0.6505
  151MOL0     C20763   8.385   5.835   1.893 -0.0478 -0.1245 -1.2841
  151MOL0     C20764   8.409   5.961   1.967  0.2144  0.0082  0.0837
  151MOL0     C20765   8.388   6.038   2.061  0.0356  0.8345  0.5457
  151MOL0     C20766   8.179   5.887   1.321 -0.1587 -0.3212 -0.8909
  151MOL0     C20767   8.158   5.995   1.240 -0.1369 -0.6441  0.5218
  151MOL0     C20768   8.226   5.989   1.102  0.2974 -0.2311  0.0357
  151MOL0     H20769   7.907   6.326   0.964 -2.6020 -2.6393  1.3943
  151MOL0     H20770   7.790   6.510   0.849  0.5081 -2.2356 -1.1194
  151MOL0     H20771   7.758   6.855   1.046 -0.2531 -1.3178  2.4782
  151MOL0     H20772   7.589   6.843   1.098 -1.7985 -0.3086 -1.2591
  151MOL0     H20773   7.653   7.038   0.941  1.4803 -0.3969  1.2252
  151MOL0     H20774   7.692   6.935   0.817  0.2718 -1.9796  0.0991
  151MOL0     H20775   7.447   6.831   0.835  0.9370 -0.6685  0.2663
  151MOL0     H20776   7.421   6.980   0.931  1.0747  0.9072  0.2783
  151MOL0     H20777   7.534   7.015   0.653 -0.1581  0.0833  0.9820
  151MOL0     H20778   7.362   6.985   0.678  0.4391 -0.8624 -0.4656
  151MOL0     H20779   7.487   7.179   0.880 -1.7570 -3.0811  1.4949
  151MOL0     H20780   7.329   7.170   0.800  0.4641  0.3306 -0.7770
  151MOL0     H20781   7.538   7.349   0.728 -0.3309  0.9187 -0.7862
  151MOL0     H20782   7.567   7.211   0.623 -1.3423 -0.7335 -1.0728
  151MOL0     H20783   7.330   7.404   0.625 -0.6539  0.1748 -3.1414
  151MOL0     H20784   7.308   7.233   0.576  2.3568 -2.8130  1.8003
  151MOL0     H20785   7.350   7.408   0.391  0.0525 -0.7009 -3.0030
  151MOL0     H20786   7.522   7.405   0.447 -1.1177  0.5192  2.7358
  151MOL0     H20787   7.654   7.240   0.285 -0.9572  1.5742  3.3619
  151MOL0     H20788   7.537   6.927   0.061  0.7712  0.6371 -0.7482
  151MOL0     H20789   7.676   6.969   0.142 -0.2311 -0.9296 -0.4816
  151MOL0     H20790   7.677   7.004  -0.091 -3.0650  0.4122 -2.7807
  151MOL0     H20791   7.561   7.127  -0.083  1.0040 -2.6884 -1.5172
  151MOL0     H20792   7.757   7.234   0.095  2.8057  0.1511 -0.2815
  151MOL0     H20793   7.855   7.138  -0.008 -0.8395 -2.7779 -2.8195
  151MOL0     H20794   7.864   7.337  -0.117 -0.1289  2.2473  3.1836
  151MOL0     H20795   7.725   7.263  -0.205  0.8595 -0.0412 -0.6480
  151MOL0     H20796   7.512   7.541   0.053  0.5531 -1.4908  0.6575
  151MOL0     H20797   7.426   7.664   0.217  1.5361  0.3226 -0.8305
  151MOL0     H20798   7.528   7.779   0.305  3.7065 -0.5217 -1.8210
  151MOL0     H20799   7.480   7.632   0.392  0.7146 -1.4638  0.3662
  151MOL0     H20800   7.806   7.841   0.695 -0.7195 -0.2807  0.5220
  151MOL0     H20801   7.947   7.891   0.884 -0.1839 -1.2562  1.3126
  151MOL0     H20802   8.349   7.805   1.046 -2.8549  0.8174  0.4836
  151MOL0     H20803   8.349   7.663   0.931 -0.3601 -0.0427 -0.5401
  151MOL0     H20804   8.502   7.779   0.804  1.4910  2.3312  0.8691
  151MOL0     H20805   8.370   7.861   0.750  0.1876  5.5908 -0.0335
  151MOL0     H20806   8.407   8.011   0.966 -0.2429 -0.1247  0.3800
  151MOL0     H20807   8.508   8.036   0.812  3.1681 -0.7037 -0.6085
  151MOL0     H20808   8.697   7.909   0.923 -0.4930  0.0864 -0.0910
  151MOL0     H20809   8.601   7.887   1.068  1.2377  0.3511  1.2086
  151MOL0     H20810   8.704   8.135   0.932 -1.9680 -0.0987  0.1095
  151MOL0     H20811   8.597   8.154   1.066  0.3370 -0.6258  1.8288
  151MOL0     H20812   8.872   8.023   1.085  3.1326  1.8540  2.2280
  151MOL0     H20813   8.736   8.035   1.206  0.7138  0.8411  0.1179
  151MOL0     H20814   8.872   8.229   1.274 -2.7229 -3.7375  1.0991
  151MOL0     H20815   8.745   8.281   1.178 -0.8044 -2.0162  0.8533
  151MOL0     H20816   8.975   8.388   1.132 -0.2737 -2.3273  4.3412
  151MOL0     H20817   8.903   8.339   0.989 -1.7283  1.6177  0.8828
  151MOL0     H20818   8.252   7.628   0.729 -0.8487 -1.6571  1.8149
  151MOL0     H20819   8.132   7.609   0.528 -0.9174  1.2266 -1.9754
  151MOL0     H20820   7.957   7.580   0.239 -0.8033  1.2569  3.3041
  151MOL0     H20821   7.919   7.465   0.042  0.4326 -0.5232  1.4717
  151MOL0     H20822   7.639   6.646   1.223 -1.6668 -2.7653 -1.3767
  151MOL0     H20823   7.730   6.445   1.323 -1.9817 -3.7857 -0.9563
  151MOL0     H20824   7.902   6.132   1.427 -0.8565 -1.2615  0.9135
  151MOL0     H20825   7.972   5.951   1.582  0.3181  1.8392  1.6102
  151MOL0     H20826   8.313   5.634   1.501  3.9076 -0.1284  0.0180
  151MOL0     H20827   8.376   5.784   1.476  0.1231  2.0821  0.5668
  151MOL0     H20828   8.441   5.641   1.695  0.1469  0.4117  1.3644
  151MOL0     H20829   8.272   5.677   1.733  0.3282  0.7257  0.3154
  151MOL0     H20830   8.507   5.851   1.715 -0.3914  0.1441 -1.8809
  151MOL0     H20831   8.354   5.926   1.695 -1.2007 -0.0987 -0.0543
  151MOL0     H20832   8.447   5.756   1.936  1.1782  0.7979 -1.2893
  151MOL0     H20833   8.283   5.806   1.917  0.0703 -1.2281 -2.0249
  151MOL0     H20834   8.356   6.118   2.125 -0.1814  1.8403 -0.7723
  151MOL0     H20835   8.240   5.804   1.287 -1.6991 -1.0959 -1.8622
  151MOL0     H20836   8.152   5.975   1.023  0.9523 -2.5735 -0.2587
  151MOL0     H20837   8.288   6.074   1.074 -0.1663  0.5952  1.4134
  151MOL0     H20838   8.296   5.905   1.099 -1.4486 -1.7458 -0.1960
  152MOL0     O20839   2.887   1.517  10.923 -0.2908  0.5049  0.1368
  152MOL0     C20840   2.915   1.584  11.021  0.0671 -0.8676  0.7314
  152MOL0     O20841   3.037   1.635  11.051  0.3445  0.7805 -0.2664
  152MOL0     C20842   3.154   1.589  10.989 -0.1348  0.3030  0.0132
  152MOL0     C20843   3.279   1.662  11.016  0.1016  0.2552 -0.1981
  152MOL0     C20844   3.394   1.627  10.946 -0.0297 -0.3661  0.3048
  152MOL0     C20845   3.399   1.523  10.848 -0.8789  0.4575  0.1608
  152MOL0     O20846   3.504   1.478  10.766 -0.4885 -0.1126  0.0357
  152MOL0     C20847   3.640   1.517  10.791  0.2646  0.2626 -0.3053
  152MOL0     C20848   3.710   1.423  10.882 -0.2270  0.2090  0.2359
  152MOL0     C20849   3.720   1.277  10.819  0.3824 -0.4772 -0.2072
  152MOL0     C20850   3.799   1.184  10.912  0.3111  0.4181  1.1073
  152MOL0     C20851   3.794   1.034  10.858 -0.2543 -0.1868 -0.4539
  152MOL0     C20852   3.675   0.959  10.904  0.6700 -0.2130 -0.4883
  152MOL0     C20853   3.675   0.820  10.839  0.3142 -0.8773 -0.9988
  152MOL0     C20854   3.559   0.756  10.876 -0.3617 -0.1618 -0.5905
  152MOL0     N20855   3.557   0.613  10.828  0.5269  0.2084  0.9858
  152MOL0     C20856   3.612   0.508  10.895  0.8204 -0.2951 -0.4554
  152MOL0     C20857   3.591   0.406  10.807  0.1202  0.1254  0.5910
  152MOL0     C20858   3.652   0.264  10.817  1.0959 -0.3019  0.4696
  152MOL0     C20859   3.537   0.158  10.855 -0.2969 -0.7724 -0.4885
  152MOL0     C20860   3.510   0.166  11.009  0.9950  0.2822  0.8806
  152MOL0     C20861   3.637   0.131  11.086  0.1406  0.4211  0.1776
  152MOL0     O20862   3.602   0.079  11.216  0.7955  0.0399  0.1281
  152MOL0     C20863   3.705   0.039  11.303  0.1591 -0.4938 -0.0720
  152MOL0     C20864   3.816  -0.037  11.257 -0.0307  0.6272  0.2913
  152MOL0     C20865   3.916  -0.089  11.340 -0.0978 -0.1612  0.8191
  152MOL0     C20866   4.050  -0.132  11.283 -0.6021  0.5669 -0.5194
  152MOL0     C20867   3.896  -0.084  11.478  0.5056 -0.8645 -0.6084
  152MOL0     C20868   3.983  -0.136  11.581  0.3743  0.4107  0.3150
  152MOL0     O20869   3.961  -0.094  11.715 -0.6554  0.2921  0.2308
  152MOL0     C20870   4.057  -0.131  11.806  0.2364  0.1711 -0.4164
  152MOL0     C20871   4.042  -0.253  11.876  1.1910 -0.3708  0.1978
  152MOL0     C20872   4.145  -0.297  11.961  0.7378  0.5322  0.1834
  152MOL0     C20873   4.250  -0.213  11.979 -0.3591  0.0793 -0.1733
  152MOL0     O20874   4.353  -0.276  12.044 -0.4418  0.1414 -0.4932
  152MOL0     C20875   4.411  -0.195  12.152  0.4431 -0.0359 -1.2380
  152MOL0     C20876   4.507  -0.087  12.119  0.2357  0.3256  0.1689
  152MOL0     C20877   4.612  -0.120  12.005 -0.8433 -0.5963 -0.4356
  152MOL0     C20878   4.687   0.018  11.966 -0.0101  0.5002  0.5155
  152MOL0     C20879   4.785  -0.027  11.851  0.0445 -0.7503 -0.0610
  152MOL0     C20880   4.841   0.097  11.778  0.6523 -0.1064 -0.7860
  152MOL0     C20881   4.963   0.056  11.690  0.5212 -1.4377  0.3480
  152MOL0     C20882   4.917  -0.050  11.590 -0.5401  0.1314  0.0187
  152MOL0    Cl20883   5.046  -0.071  11.458 -0.1831 -0.2691 -0.1484
  152MOL0     C20884   4.259  -0.087  11.915 -0.3148  0.2660  0.3337
  152MOL0     C20885   4.163  -0.053  11.828  0.1821 -1.8686 -0.4959
  152MOL0     O20886   4.067  -0.219  11.551 -0.2483  0.2593  0.6806
  152MOL0     C20887   3.780  -0.012  11.525 -0.4997  0.2335  0.6457
  152MOL0     C20888   3.688   0.053  11.442  0.5708  0.6163  0.5411
  152MOL0     N20889   3.511   0.443  10.705  0.8293 -0.4067 -0.6165
  152MOL0     N20890   3.508   0.567  10.705  1.2548 -0.1763  0.6605
  152MOL0     C20891   3.285   1.451  10.828  0.2316 -0.4917 -0.7723
  152MOL0     C20892   3.164   1.480  10.901  0.1795  0.3103 -0.4717
  152MOL0     C20893   2.819   1.605  11.132 -0.2346 -0.0324 -0.0166
  152MOL0     C20894   2.854   1.583  11.269 -0.1291  0.6619 -0.2267
  152MOL0     C20895   2.760   1.619  11.371 -0.2048  0.7021 -0.5554
  152MOL0     C20896   2.633   1.664  11.337 -0.4255  0.1231  0.1538
  152MOL0     O20897   2.541   1.695  11.430  0.5560  0.4302  0.3895
  152MOL0     C20898   2.472   1.568  11.468  0.2310  0.1596  0.2867
  152MOL0     C20899   2.434   1.584  11.612  0.0101 -0.1869  0.6629
  152MOL0     C20900   2.540   1.608  11.714 -0.1955  0.1161 -0.0369
  152MOL0     C20901   2.619   1.470  11.734  1.2384 -0.3696 -0.2198
  152MOL0     C20902   2.717   1.477  11.836  0.0077 -1.4222 -0.4729
  152MOL0     C20903   2.776   1.464  11.937  0.5156  1.1318  0.8744
  152MOL0     C20904   2.599   1.688  11.208  0.1439 -0.6995  0.3110
  152MOL0     C20905   2.689   1.660  11.100 -0.5318 -0.5799  0.1243
  152MOL0     C20906   2.647   1.680  10.952  0.0163 -0.2966 -0.4824
  152MOL0     H20907   3.260   1.750  11.076 -0.1785  0.3170 -0.3751
  152MOL0     H20908   3.485   1.685  10.953  1.5587 -2.3067 -2.3859
  152MOL0     H20909   3.638   1.620  10.828  0.9106 -0.7042  2.6813
  152MOL0     H20910   3.689   1.535  10.695  0.4597  2.1362  0.1149
  152MOL0     H20911   3.812   1.462  10.888 -0.1392  0.9131 -3.6351
  152MOL0     H20912   3.661   1.429  10.980 -0.5839 -0.2328  0.0854
  152MOL0     H20913   3.618   1.238  10.814  0.0531  0.4837 -1.5551
  152MOL0     H20914   3.763   1.280  10.718  2.2917  0.6796  0.6032
  152MOL0     H20915   3.902   1.217  10.922  0.7500  0.5501 -2.5613
  152MOL0     H20916   3.760   1.195  11.014 -1.7835 -0.2136  0.4249
  152MOL0     H20917   3.884   0.983  10.891  1.4603  1.3437 -2.5044
  152MOL0     H20918   3.801   1.046  10.750  3.9663 -1.2162 -0.4724
  152MOL0     H20919   3.661   0.949  11.012 -2.8427  1.1892 -0.6625
  152MOL0     H20920   3.584   1.018  10.888  0.5749  0.5053  2.1713
  152MOL0     H20921   3.768   0.775  10.875  1.1404  1.5299  0.0679
  152MOL0     H20922   3.682   0.830  10.730 -1.7321 -0.1830 -1.1132
  152MOL0     H20923   3.554   0.743  10.985 -1.5674  1.3145 -0.4335
  152MOL0     H20924   3.473   0.816  10.845 -1.5813 -0.3933  2.0839
  152MOL0     H20925   3.672   0.496  10.984  1.1388 -1.9616 -0.8581
  152MOL0     H20926   3.738   0.260  10.884 -0.9193  1.2768  3.3762
  152MOL0     H20927   3.696   0.228  10.723 -1.3924 -0.8779 -0.5534
  152MOL0     H20928   3.443   0.187  10.807 -0.8268  0.9731  1.4569
  152MOL0     H20929   3.559   0.055  10.823 -0.8096 -0.8582 -0.5679
  152MOL0     H20930   3.471   0.262  11.043 -1.4504 -0.5468  0.5611
  152MOL0     H20931   3.436   0.088  11.027  0.1269  0.5264 -1.2666
  152MOL0     H20932   3.684   0.048  11.033  0.9501  0.1869  1.2465
  152MOL0     H20933   3.695   0.224  11.089 -0.9825  1.1895 -0.5804
  152MOL0     H20934   3.836  -0.066  11.154 -0.7777  0.9618  0.0501
  152MOL0     H20935   4.060  -0.240  11.269  1.8156  0.6954 -0.1567
  152MOL0     H20936   4.135  -0.092  11.340  0.5520 -2.8864  0.4211
  152MOL0     H20937   4.072  -0.089  11.185  1.0833 -0.4344 -0.6206
  152MOL0     H20938   3.957  -0.318  11.855  2.3501 -2.9569  2.8535
  152MOL0     H20939   4.142  -0.394  12.009 -1.3325 -0.3773 -1.6357
  152MOL0     H20940   4.324  -0.145  12.196  0.8206 -0.4607  0.0258
  152MOL0     H20941   4.457  -0.247  12.236  0.9301  2.3257  0.0517
  152MOL0     H20942   4.452   0.005  12.095  0.1570  0.4218  0.6979
  152MOL0     H20943   4.556  -0.048  12.209 -2.1443 -2.4189  2.8158
  152MOL0     H20944   4.558  -0.143  11.913 -2.3498  2.0330 -0.2803
  152MOL0     H20945   4.683  -0.196  12.041 -1.2059  0.7756  3.7657
  152MOL0     H20946   4.743   0.052  12.054  0.0647 -0.3071  0.7919
  152MOL0     H20947   4.616   0.094  11.932  1.4425 -0.2042 -4.9337
  152MOL0     H20948   4.870  -0.064  11.910 -1.7867 -1.8668  2.0197
  152MOL0     H20949   4.743  -0.095  11.777  2.0687  0.4330 -2.4712
  152MOL0     H20950   4.876   0.164  11.857 -1.8048 -0.2002  0.4891
  152MOL0     H20951   4.756   0.144  11.729 -0.9359 -0.9589  1.0093
  152MOL0     H20952   5.041   0.013  11.753 -0.8968 -1.2875  2.2731
  152MOL0     H20953   4.998   0.140  11.629  0.9606 -0.4586  1.8940
  152MOL0     H20954   4.827  -0.030  11.531 -1.7008  1.2652  2.0780
  152MOL0     H20955   4.907  -0.147  11.640  2.3862  0.8444  2.2277
  152MOL0     H20956   4.351  -0.029  11.922  2.2307 -3.5129  1.3442
  152MOL0     H20957   4.171   0.038  11.769  1.4846 -1.3477  0.4200
  152MOL0     H20958   3.750  -0.018  11.629 -1.4148 -0.0210  0.3759
  152MOL0     H20959   3.598   0.096  11.486 -0.9239  0.3697 -2.0169
  152MOL0     H20960   3.289   1.356  10.775  1.1014 -0.6819 -0.3840
  152MOL0     H20961   3.094   1.398  10.886 -0.0480  0.1242  1.3090
  152MOL0     H20962   2.959   1.559  11.286 -0.3644 -0.0691  0.2274
  152MOL0     H20963   2.789   1.615  11.475  1.0409 -0.2512 -0.9168
  152MOL0     H20964   2.396   1.542  11.394 -0.8614 -1.2205  1.8118
  152MOL0     H20965   2.535   1.479  11.464 -1.0543 -0.8596  1.4933
  152MOL0     H20966   2.370   1.502  11.647  1.4910 -1.6626  0.0531
  152MOL0     H20967   2.375   1.676  11.612  1.4691  0.7872  0.3912
  152MOL0     H20968   2.604   1.692  11.683  2.4890 -2.3021 -1.4797
  152MOL0     H20969   2.502   1.641  11.811 -1.3400  0.7763 -0.6832
  152MOL0     H20970   2.663   1.434  11.640  0.9944 -3.0199  0.5914
  152MOL0     H20971   2.543   1.396  11.762  0.4778  1.6071  3.6813
  152MOL0     H20972   2.820   1.427  12.027 -0.6689 -1.0474  0.6200
  152MOL0     H20973   2.501   1.732  11.194  1.2684  2.1264  0.8267
  152MOL0     H20974   2.719   1.746  10.904 -0.0101  0.7640  0.8686
  152MOL0     H20975   2.642   1.578  10.913  1.2615 -1.4496  2.1268
  152MOL0     H20976   2.551   1.733  10.951  0.1595  0.0292  0.8572
  153MOL0     O20977  10.754   9.098   5.536  0.3406  0.6910  0.3844
  153MOL0     C20978  10.796   9.004   5.470 -0.1373  0.2772  0.7489
  153MOL0     O20979  10.813   8.874   5.528  0.1793 -0.2169  0.5971
  153MOL0     C20980  10.769   8.848   5.660  0.6945 -0.4862 -1.2325
  153MOL0     C20981  10.630   8.836   5.679 -0.1830 -0.2193 -0.0753
  153MOL0     C20982  10.584   8.782   5.795  1.1917 -0.3326  0.6822
  153MOL0     C20983  10.663   8.749   5.899 -0.6032 -0.9903 -0.1616
  153MOL0     O20984  10.618   8.690   6.015  0.4657  0.5286  0.3981
  153MOL0     C20985  10.478   8.693   6.058  0.8465 -0.9160 -0.1069
  153MOL0     C20986  10.412   8.833   6.091 -0.5069  0.5151  0.9970
  153MOL0     C20987  10.262   8.819   6.107 -0.4874  0.5387 -0.8757
  153MOL0     C20988  10.190   8.950   6.146  0.3309 -0.1641  0.1722
  153MOL0     C20989  10.210   9.008   6.289 -0.0715  0.3142 -0.4303
  153MOL0     C20990  10.142   9.146   6.302  0.0323 -0.7115 -0.0301
  153MOL0     C20991  10.183   9.215   6.427 -0.1222  1.5230 -0.2319
  153MOL0     C20992  10.112   9.340   6.476 -0.2065  0.6104 -0.1999
  153MOL0     N20993  10.176   9.453   6.415  0.8993  0.3570  0.1924
  153MOL0     C20994  10.287   9.519   6.472  0.5840  1.3035  1.0901
  153MOL0     C20995  10.343   9.588   6.371  0.5249  0.0853 -1.1222
  153MOL0     C20996  10.455   9.697   6.357  0.1061 -0.0480 -0.3399
  153MOL0     C20997  10.576   9.653   6.274  0.2591 -0.1260 -0.0752
  153MOL0     C20998  10.663   9.778   6.271 -0.3860  0.3873 -0.8353
  153MOL0     C20999  10.635   9.892   6.188  0.3679 -0.4231  0.6335
  153MOL0     O21000  10.660   9.875   6.050  0.3814  0.2130 -0.3792
  153MOL0     C21001  10.713   9.972   5.971 -0.3176 -0.2021 -0.1761
  153MOL0     C21002  10.710  10.111   6.012 -0.1000  1.2146  0.1044
  153MOL0     C21003  10.768  10.218   5.933  0.3942 -0.3107 -0.3042
  153MOL0     C21004  10.761  10.362   5.992 -0.4336  0.4377  0.5704
  153MOL0     C21005  10.845  10.187   5.817  0.6699 -0.5189  0.3622
  153MOL0     C21006  10.912  10.278   5.736 -0.0733  0.0502  0.0043
  153MOL0     O21007  10.900  10.250   5.604 -0.3865 -0.0970 -0.4882
  153MOL0     C21008  10.870  10.358   5.525 -0.6801 -0.3264  0.2177
  153MOL0     C21009  10.732  10.399   5.512  0.6603 -1.0231 -1.0705
  153MOL0     C21010  10.699  10.510   5.440  0.5521  0.1752 -0.4761
  153MOL0     C21011  10.802  10.594   5.399  0.9134  0.6154  0.3337
  153MOL0     O21012  10.783  10.714   5.336 -0.4740  0.1358  0.3947
  153MOL0     C21013  10.650  10.762   5.323 -0.0915 -0.0987 -0.6477
  153MOL0     C21014  10.632  10.893   5.247 -1.0141 -0.2446 -0.6534
  153MOL0     C21015  10.737  11.002   5.305  0.4947  0.4142  0.2840
  153MOL0     C21016  10.709  11.145   5.245 -0.1794  0.3495 -0.6690
  153MOL0     C21017  10.790  11.250   5.311 -0.2632  0.1837  0.1266
  153MOL0     C21018  10.781  11.380   5.234 -0.6553  0.3714  0.2659
  153MOL0     C21019  10.664  11.465   5.286  0.2786 -0.1464 -0.3542
  153MOL0     C21020  10.628  11.591   5.197 -0.0975  0.4968  0.9125
  153MOL0    Cl21021  10.761  11.711   5.192 -0.0744 -0.0341 -0.4321
  153MOL0     C21022  10.943  10.549   5.393 -0.6982  0.4541 -0.4417
  153MOL0     C21023  10.968  10.424   5.458 -0.4677 -0.0492  0.3648
  153MOL0     O21024  10.969  10.379   5.774 -0.0222 -0.0386  0.1114
  153MOL0     C21025  10.835  10.048   5.774  0.3104 -0.2125  1.4490
  153MOL0     C21026  10.775   9.941   5.849  0.2227  0.6218  1.2939
  153MOL0     N21027  10.267   9.568   6.257  0.8461  0.5633 -0.2041
  153MOL0     N21028  10.160   9.498   6.283  0.5586 -0.0295 -0.1274
  153MOL0     C21029  10.805   8.757   5.876  0.4097 -0.3129  0.4620
  153MOL0     C21030  10.858   8.807   5.760 -0.0318  0.7294  0.0957
  153MOL0     C21031  10.824   9.016   5.326 -0.3472 -0.0528  0.0677
  153MOL0     C21032  10.863   9.148   5.270 -0.2473  0.4828 -0.3109
  153MOL0     C21033  10.913   9.153   5.141  0.4455 -1.0421  0.7300
  153MOL0     C21034  10.910   9.039   5.059  0.1501 -0.2317 -0.3270
  153MOL0     O21035  10.950   9.039   4.928  0.5880  0.0670  0.6379
  153MOL0     C21036  11.095   9.028   4.924  1.2131  0.3094 -0.0738
  153MOL0     C21037  11.137   8.953   4.792  0.1879 -0.3572 -0.5055
  153MOL0     C21038  11.123   9.035   4.674  0.6600  0.3415  0.2645
  153MOL0     C21039  11.145   8.941   4.551 -0.3757 -0.6238 -0.0997
  153MOL0     C21040  11.157   9.019   4.425 -0.5551 -0.3643  0.0285
  153MOL0     C21041  11.168   9.086   4.328 -0.5009 -0.5973  1.0470
  153MOL0     C21042  10.862   8.919   5.106  0.1526 -0.0577 -0.1381
  153MOL0     C21043  10.816   8.909   5.240 -0.2541  0.5772  0.6536
  153MOL0     C21044  10.760   8.772   5.268 -0.7518 -0.5250  0.0646
  153MOL0     H21045  10.561   8.845   5.595  1.5789 -3.2001 -2.0400
  153MOL0     H21046  10.478   8.781   5.816  1.0321 -1.0537 -0.1183
  153MOL0     H21047  10.479   8.640   6.153  1.6704 -0.5377  0.1107
  153MOL0     H21048  10.417   8.640   5.984 -1.4049  2.2040 -0.6619
  153MOL0     H21049  10.465   8.859   6.183 -3.3386 -0.2422  2.9708
  153MOL0     H21050  10.431   8.902   6.008 -1.4350 -1.1515 -0.6984
  153MOL0     H21051  10.228   8.798   6.005 -1.1395  0.3431 -0.6230
  153MOL0     H21052  10.236   8.733   6.169  1.7871 -1.5830 -2.6385
  153MOL0     H21053  10.229   9.029   6.081  1.0681  0.0481  0.8641
  153MOL0     H21054  10.083   8.949   6.123  0.6173 -1.2018 -1.2810
  153MOL0     H21055  10.318   9.024   6.301  0.0754  0.3988 -1.7105
  153MOL0     H21056  10.165   8.943   6.365 -3.9995  1.3687 -1.5969
  153MOL0     H21057  10.167   9.215   6.222 -0.1568  1.3099  1.5685
  153MOL0     H21058  10.034   9.131   6.307 -0.3643  1.9210  0.7999
  153MOL0     H21059  10.288   9.246   6.427 -0.5227  3.4366  3.3343
  153MOL0     H21060  10.160   9.133   6.496  0.0732 -1.6795 -3.6196
  153MOL0     H21061  10.004   9.348   6.458 -0.3553  0.1000  0.4223
  153MOL0     H21062  10.131   9.340   6.583 -0.5415  1.1081 -0.1368
  153MOL0     H21063  10.312   9.519   6.577 -0.8096  0.2547  1.4543
  153MOL0     H21064  10.484   9.739   6.454 -3.4550  1.8982  0.0280
  153MOL0     H21065  10.403   9.780   6.310 -4.0118 -0.5719  2.7487
  153MOL0     H21066  10.627   9.572   6.325 -1.7723 -1.0204  0.6287
  153MOL0     H21067  10.549   9.620   6.173 -2.5949  1.7888 -0.0780
  153MOL0     H21068  10.669   9.819   6.373 -1.3207  3.2716 -1.8473
  153MOL0     H21069  10.766   9.748   6.251  0.1428  2.0279 -0.7407
  153MOL0     H21070  10.531   9.922   6.209  0.5224 -2.5325  6.0948
  153MOL0     H21071  10.708   9.966   6.221 -0.2269  1.5410 -2.1274
  153MOL0     H21072  10.656  10.152   6.097 -2.5345  1.5711 -1.5170
  153MOL0     H21073  10.729  10.429   5.911 -1.2402 -1.2124 -0.5300
  153MOL0     H21074  10.866  10.390   6.005 -0.4652  1.2393 -0.7744
  153MOL0     H21075  10.703  10.375   6.084  1.9121 -0.2975  2.2311
  153MOL0     H21076  10.652  10.346   5.563 -0.4822  0.3776 -1.3226
  153MOL0     H21077  10.595  10.541   5.444  0.8310  1.8186 -3.0867
  153MOL0     H21078  10.592  10.688   5.268  1.5096 -0.6825 -1.6238
  153MOL0     H21079  10.611  10.783   5.423  0.3324  2.1421 -0.8893
  153MOL0     H21080  10.655  10.878   5.141  1.3130 -0.4702 -0.1712
  153MOL0     H21081  10.529  10.924   5.265 -0.8634 -0.5395  0.8589
  153MOL0     H21082  10.839  10.973   5.281  1.1743  1.2674  2.0344
  153MOL0     H21083  10.734  11.015   5.413  4.1959  4.2987  0.1722
  153MOL0     H21084  10.602  11.170   5.247 -0.3616 -0.3784 -0.9481
  153MOL0     H21085  10.750  11.128   5.145 -3.0794 -2.9779 -1.5125
  153MOL0     H21086  10.774  11.260   5.418  0.4041  0.5886  0.1960
  153MOL0     H21087  10.895  11.221   5.300 -0.5975 -1.7757  1.5832
  153MOL0     H21088  10.754  11.362   5.129 -2.7510  2.7200  0.3063
  153MOL0     H21089  10.881  11.423   5.236  0.3893 -1.8914 -0.1511
  153MOL0     H21090  10.682  11.496   5.389 -3.3528 -0.0805  0.4272
  153MOL0     H21091  10.579  11.395   5.281  2.2712 -2.6896 -0.7339
  153MOL0     H21092  10.536  11.637   5.234  0.7539  2.3220  0.8579
  153MOL0     H21093  10.615  11.557   5.094  0.7843  2.0632  0.2452
  153MOL0     H21094  11.017  10.609   5.342 -0.6275 -0.2763 -1.2260
  153MOL0     H21095  11.070  10.390   5.469 -0.6344  0.3139  4.2345
  153MOL0     H21096  10.873  10.005   5.682 -0.0309 -2.2172  2.1952
  153MOL0     H21097  10.786   9.840   5.811 -1.3751  1.1495 -0.8122
  153MOL0     H21098  10.874   8.724   5.953  0.1658 -0.1911  0.7304
  153MOL0     H21099  10.964   8.806   5.736 -0.1307  4.6834 -1.2184
  153MOL0     H21100  10.877   9.229   5.340 -0.0605  1.2609 -1.2202
  153MOL0     H21101  10.952   9.249   5.108  0.4834 -1.3688 -0.2298
  153MOL0     H21102  11.150   9.123   4.926  0.1157  1.2070 -4.3371
  153MOL0     H21103  11.122   8.956   5.002 -0.3682 -0.2864 -0.0403
  153MOL0     H21104  11.063   8.872   4.787 -1.3066  0.6890  2.2430
  153MOL0     H21105  11.235   8.906   4.781 -0.0711 -1.0210 -0.0708
  153MOL0     H21106  11.026   9.084   4.671 -0.2764 -1.4669 -0.8719
  153MOL0     H21107  11.193   9.119   4.683 -1.3481  1.9280  1.7093
  153MOL0     H21108  11.061   8.872   4.542 -2.1649  1.4134  0.1006
  153MOL0     H21109  11.238   8.883   4.560  0.1536  0.1481 -0.4771
  153MOL0     H21110  11.180   9.138   4.235 -2.0321 -0.6624  0.7914
  153MOL0     H21111  10.859   8.846   5.026 -1.2479  2.3911 -2.4663
  153MOL0     H21112  10.834   8.694   5.290  0.2907  0.7982  1.4152
  153MOL0     H21113  10.678   8.781   5.340 -1.2426  1.7380 -0.7126
  153MOL0     H21114  10.713   8.742   5.174  0.9188 -2.7407 -0.1767
  154MOL0     O21115  10.533   6.180   4.476 -0.4470 -0.1374 -0.2127
  154MOL0     C21116  10.478   6.098   4.550  0.7935  0.0056  0.7488
  154MOL0     O21117  10.406   5.998   4.503  0.6348  0.0512 -0.7193
  154MOL0     C21118  10.417   5.976   4.374  0.8178  0.0130  1.2961
  154MOL0     C21119  10.304   5.981   4.292 -0.1562  0.6812 -0.3366
  154MOL0     C21120  10.305   5.956   4.158 -0.7445 -0.1903  0.8508
  154MOL0     C21121  10.428   5.938   4.092  0.0171  0.9898 -0.1968
  154MOL0     O21122  10.437   5.912   3.958 -0.3468 -0.3030 -0.0774
  154MOL0     C21123  10.324   5.889   3.867  0.5795  0.0296  0.0988
  154MOL0     C21124  10.314   6.005   3.773 -0.5652  0.1883 -1.1392
  154MOL0     C21125  10.174   5.999   3.697 -0.8424  0.1099 -0.7616
  154MOL0     C21126  10.159   6.076   3.561 -0.1825 -0.4247 -0.0180
  154MOL0     C21127  10.031   6.043   3.484 -0.0828 -0.9236  0.5090
  154MOL0     C21128  10.032   6.101   3.340  0.3344 -0.0722  0.0537
  154MOL0     C21129   9.906   6.043   3.252  0.0175  1.0697  0.1885
  154MOL0     C21130   9.829   6.134   3.159  0.1449 -1.0192  0.4936
  154MOL0     N21131   9.896   6.166   3.033 -0.0881 -0.5317 -0.2069
  154MOL0     C21132  10.020   6.214   3.018 -0.1951  0.1555  0.5979
  154MOL0     C21133  10.060   6.203   2.880 -0.5476 -0.0051  0.1249
  154MOL0     C21134  10.185   6.264   2.822  1.3082  0.2942 -0.7160
  154MOL0     C21135  10.137   6.369   2.721 -0.3136 -0.0097 -0.5830
  154MOL0     C21136  10.164   6.517   2.775  0.5815  1.1883  0.0480
  154MOL0     C21137  10.124   6.623   2.668  0.0615  0.2182  0.2767
  154MOL0     O21138  10.232   6.625   2.572 -0.3473 -0.5399 -0.3215
  154MOL0     C21139  10.249   6.743   2.512  0.5185 -0.2493  0.4741
  154MOL0     C21140  10.379   6.788   2.476  0.4804  0.0993 -0.1365
  154MOL0     C21141  10.407   6.919   2.424 -0.3175  0.3204 -0.4002
  154MOL0     C21142  10.556   6.929   2.373 -0.2528 -0.0151 -1.0042
  154MOL0     C21143  10.304   7.021   2.415  0.6397  0.7907 -0.1662
  154MOL0     C21144  10.330   7.169   2.397 -0.4650  0.2182  0.2334
  154MOL0     O21145  10.225   7.241   2.357  0.0620 -0.3188 -0.1235
  154MOL0     C21146  10.237   7.380   2.351 -0.1787  0.1868 -0.7556
  154MOL0     C21147  10.221   7.465   2.465  0.2685 -0.1333 -0.2203
  154MOL0     C21148  10.232   7.602   2.464 -0.0449  1.3652  0.1764
  154MOL0     C21149  10.259   7.663   2.340  0.6071 -0.2505 -0.2260
  154MOL0     O21150  10.270   7.802   2.345 -0.3524  0.1042 -0.1425
  154MOL0     C21151  10.202   7.875   2.239 -0.1969 -0.4598  0.3428
  154MOL0     C21152  10.153   8.023   2.283 -0.0654  0.7324  0.6817
  154MOL0     C21153  10.256   8.125   2.330 -0.5527  0.6951 -0.8298
  154MOL0     C21154  10.347   8.187   2.215  0.3081  0.2793 -0.3797
  154MOL0     C21155  10.493   8.231   2.256  0.7093 -0.5455 -0.6410
  154MOL0     C21156  10.494   8.365   2.320  0.3528  0.8521 -0.5284
  154MOL0     C21157  10.595   8.378   2.439 -1.1675  0.5379 -0.1280
  154MOL0     C21158  10.551   8.477   2.543 -0.8967  0.1899  0.5234
  154MOL0    Cl21159  10.456   8.384   2.667 -0.0538  0.4167  0.0187
  154MOL0     C21160  10.289   7.584   2.227  0.5490 -0.6556  0.9058
  154MOL0     C21161  10.278   7.444   2.236  0.0562 -0.6846 -0.2256
  154MOL0     O21162  10.437   7.216   2.446  0.0259 -0.3417  0.2771
  154MOL0     C21163  10.172   6.976   2.455 -0.8527 -0.4461  0.1996
  154MOL0     C21164  10.151   6.842   2.494 -0.7319 -0.0007 -0.0853
  154MOL0     N21165   9.948   6.146   2.814 -0.6423  0.2399 -0.0183
  154MOL0     N21166   9.858   6.133   2.903  0.4949 -0.2373 -0.1831
  154MOL0     C21167  10.542   5.921   4.172  0.4362 -0.2368  0.0322
  154MOL0     C21168  10.538   5.933   4.312  0.4542  0.2797  0.2025
  154MOL0     C21169  10.495   6.125   4.699  1.3129  0.2120 -0.8410
  154MOL0     C21170  10.404   6.061   4.777 -0.7554  0.1674 -0.7258
  154MOL0     C21171  10.408   6.069   4.920 -0.7113 -0.4657  0.2003
  154MOL0     C21172  10.500   6.148   4.986 -0.1675 -0.0922  0.1295
  154MOL0     O21173  10.515   6.164   5.115  0.2311  0.3040  0.9671
  154MOL0     C21174  10.461   6.058   5.202 -0.4226 -0.6862 -0.1022
  154MOL0     C21175  10.496   6.089   5.351  1.1594  0.0476  0.5563
  154MOL0     C21176  10.431   5.976   5.440 -0.5421 -0.3791 -0.4245
  154MOL0     C21177  10.456   5.983   5.592  0.6626  1.2904 -0.5751
  154MOL0     C21178  10.364   6.089   5.644 -1.7335  0.6068  0.0135
  154MOL0     C21179  10.277   6.169   5.690 -1.1878  0.0391 -0.6229
  154MOL0     C21180  10.585   6.217   4.899  0.1782 -0.2243 -0.3931
  154MOL0     C21181  10.588   6.209   4.765 -0.5869  0.7338  0.2120
  154MOL0     C21182  10.697   6.275   4.693 -0.1560  1.1176  0.3497
  154MOL0     H21183  10.218   5.992   4.358 -0.9051 -2.2351 -0.6866
  154MOL0     H21184  10.221   5.969   4.090  0.2455  1.4654 -0.1203
  154MOL0     H21185  10.230   5.883   3.923  0.4290 -1.6337 -0.2819
  154MOL0     H21186  10.324   5.793   3.813 -0.0696  0.3227 -0.4277
  154MOL0     H21187  10.335   6.101   3.820  2.3110 -0.7374 -0.2998
  154MOL0     H21188  10.394   5.986   3.701  0.1442 -1.7274  0.0671
  154MOL0     H21189  10.167   5.892   3.677  3.1188  0.0677 -2.9443
  154MOL0     H21190  10.102   6.040   3.768  2.5130 -0.9398  3.6702
  154MOL0     H21191  10.150   6.184   3.578 -0.3295 -0.1283 -1.8372
  154MOL0     H21192  10.248   6.068   3.499 -0.1094  2.0079 -0.3384
  154MOL0     H21193   9.951   6.088   3.544  1.3440  0.4017  1.4789
  154MOL0     H21194  10.011   5.935   3.482 -0.6326 -0.8174 -0.4470
  154MOL0     H21195  10.025   6.209   3.353 -0.8693  0.1400 -1.8337
  154MOL0     H21196  10.122   6.075   3.283  1.3665  0.8605  1.2249
  154MOL0     H21197   9.839   5.980   3.312  0.9182  0.9825  1.1243
  154MOL0     H21198   9.935   5.963   3.183 -3.5308  0.6257 -0.9682
  154MOL0     H21199   9.733   6.085   3.137 -0.4566 -0.1905  1.1798
  154MOL0     H21200   9.798   6.225   3.212  3.2795  1.2354 -1.1985
  154MOL0     H21201  10.066   6.265   3.102 -0.5892  1.1287  0.2402
  154MOL0     H21202  10.232   6.179   2.772  0.4405 -0.7274  0.1468
  154MOL0     H21203  10.249   6.312   2.897 -0.4283  0.0781  0.9691
  154MOL0     H21204  10.194   6.366   2.627 -1.4893  1.2720 -1.3778
  154MOL0     H21205  10.032   6.359   2.691 -0.1429  0.7613 -1.4891
  154MOL0     H21206  10.113   6.539   2.870 -0.1593  0.2737 -0.1204
  154MOL0     H21207  10.271   6.518   2.798  0.3975  0.0251  1.0912
  154MOL0     H21208  10.021   6.611   2.636 -0.1388 -0.4913  1.1202
  154MOL0     H21209  10.125   6.717   2.723  0.7094  0.6135 -0.4005
  154MOL0     H21210  10.468   6.727   2.483  0.2371 -0.4350 -1.4338
  154MOL0     H21211  10.583   6.838   2.318  0.4417 -0.0493 -0.6153
  154MOL0     H21212  10.630   6.949   2.450 -1.1435 -2.6932  0.7136
  154MOL0     H21213  10.553   7.015   2.305 -1.3979  0.1848 -0.7336
  154MOL0     H21214  10.202   7.407   2.555  2.9492  0.7592  1.0065
  154MOL0     H21215  10.211   7.646   2.561  1.3629 -0.6772  1.5006
  154MOL0     H21216  10.287   7.888   2.171 -0.8750 -1.2508 -0.6905
  154MOL0     H21217  10.114   7.820   2.202 -3.5909  3.2470  2.1496
  154MOL0     H21218  10.085   8.061   2.206 -0.5219 -0.0736  0.6770
  154MOL0     H21219  10.086   8.015   2.368 -1.1950  1.4357 -0.1097
  154MOL0     H21220  10.318   8.076   2.406  0.0114 -0.0120 -1.7203
  154MOL0     H21221  10.210   8.206   2.386 -1.1164 -0.8814  1.1221
  154MOL0     H21222  10.299   8.268   2.159  1.2100 -0.6890 -2.6641
  154MOL0     H21223  10.357   8.112   2.136 -0.4371 -0.8790  0.5930
  154MOL0     H21224  10.528   8.155   2.328  0.0749 -1.3125 -1.1287
  154MOL0     H21225  10.555   8.237   2.166  1.0237  0.3107 -0.3830
  154MOL0     H21226  10.395   8.386   2.362  1.6453  0.7490  2.8687
  154MOL0     H21227  10.516   8.442   2.246  0.4496  3.4443  2.0379
  154MOL0     H21228  10.694   8.412   2.405 -1.9020  1.7432 -1.1667
  154MOL0     H21229  10.612   8.284   2.491 -2.9843 -0.0564 -0.5388
  154MOL0     H21230  10.495   8.565   2.511 -1.2900  1.2273  3.7142
  154MOL0     H21231  10.646   8.512   2.583 -0.0003 -1.5778  0.0743
  154MOL0     H21232  10.319   7.633   2.135 -1.9890  3.0543  1.8494
  154MOL0     H21233  10.286   7.386   2.145 -2.0327 -0.9456 -0.2970
  154MOL0     H21234  10.103   7.059   2.448  0.6285  0.9040  0.8900
  154MOL0     H21235  10.046   6.829   2.516 -0.7190 -2.4046 -1.0950
  154MOL0     H21236  10.637   5.915   4.121 -0.5216 -0.7794 -1.7782
  154MOL0     H21237  10.621   5.900   4.374  0.3896  0.9638  0.6731
  154MOL0     H21238  10.314   6.006   4.753 -2.8133  2.1813  1.8138
  154MOL0     H21239  10.326   6.035   4.983  0.2836  1.5208  2.7917
  154MOL0     H21240  10.353   6.042   5.187  0.0764 -3.2329 -1.7064
  154MOL0     H21241  10.499   5.960   5.171 -0.1890 -0.4457 -0.5900
  154MOL0     H21242  10.446   6.179   5.387 -0.5899 -0.7115  0.1467
  154MOL0     H21243  10.601   6.105   5.378  0.6595  0.8831  2.1370
  154MOL0     H21244  10.325   5.977   5.415 -0.5679  0.2109 -0.2990
  154MOL0     H21245  10.477   5.881   5.410  3.1878 -0.4952  4.4149
  154MOL0     H21246  10.560   6.008   5.618  1.0073 -1.5371  1.1914
  154MOL0     H21247  10.429   5.890   5.642  0.6358  1.0679 -1.0028
  154MOL0     H21248  10.202   6.237   5.725 -0.8959  0.3219 -0.5440
  154MOL0     H21249  10.660   6.273   4.953  0.8618 -3.1202  1.8950
  154MOL0     H21250  10.731   6.207   4.614 -1.5479 -0.1618  0.7930
  154MOL0     H21251  10.677   6.371   4.645  2.9781  1.4170 -0.5690
  154MOL0     H21252  10.786   6.285   4.756 -2.4516 -5.0432  5.7544
  155MOL0     O21253   8.948   5.387   3.577 -0.0442  0.0457  0.1143
  155MOL0     C21254   8.941   5.308   3.482 -0.3350  0.9995 -0.5984
  155MOL0     O21255   9.006   5.200   3.466  0.6019  0.3069  0.0085
  155MOL0     C21256   9.058   5.120   3.563  1.3859  0.2423 -1.0289
  155MOL0     C21257   8.981   5.023   3.622 -0.1091 -0.0405 -0.3217
  155MOL0     C21258   9.036   4.929   3.707  0.1314  0.3853 -0.8927
  155MOL0     C21259   9.173   4.924   3.730  0.4727  0.1529 -0.3610
  155MOL0     O21260   9.233   4.837   3.828 -0.1313  0.2697  0.0422
  155MOL0     C21261   9.177   4.712   3.867 -0.0198 -0.4273  0.1924
  155MOL0     C21262   9.257   4.598   3.800  0.0289 -0.0406 -0.9062
  155MOL0     C21263   9.401   4.605   3.822  0.5016 -0.5116 -0.2204
  155MOL0     C21264   9.479   4.467   3.800  0.3660 -0.1673 -0.1115
  155MOL0     C21265   9.627   4.492   3.802 -0.4461 -0.5579  0.6741
  155MOL0     C21266   9.701   4.367   3.840 -1.4580 -0.5037  0.7426
  155MOL0     C21267   9.748   4.277   3.720 -0.1286 -0.5240 -1.0356
  155MOL0     C21268   9.836   4.341   3.621  0.4291  0.2715  1.1556
  155MOL0     N21269   9.863   4.252   3.504 -0.0371  0.0559 -0.1626
  155MOL0     C21270   9.973   4.166   3.509 -1.1338  0.6313 -0.5128
  155MOL0     C21271   9.989   4.132   3.383  0.8340  0.2339 -0.8298
  155MOL0     C21272  10.095   4.032   3.340  0.7327  0.0893 -1.1856
  155MOL0     C21273  10.213   4.093   3.276 -0.4500  0.0202 -0.4189
  155MOL0     C21274  10.336   3.991   3.259  0.1616  0.9804  0.0200
  155MOL0     C21275  10.458   4.057   3.195 -0.3149  0.3128 -0.1280
  155MOL0     O21276  10.547   3.955   3.162 -0.2311 -1.0528 -0.3845
  155MOL0     C21277  10.679   3.968   3.132 -0.9296  0.5374  0.3253
  155MOL0     C21278  10.736   3.861   3.057 -0.6462 -0.4836  0.6188
  155MOL0     C21279  10.870   3.867   3.018 -0.2111 -0.1507  0.0509
  155MOL0     C21280  10.926   3.745   2.945 -0.0728 -0.1475 -0.0837
  155MOL0     C21281  10.960   3.975   3.071  0.4899 -0.0522  0.3764
  155MOL0     C21282  11.109   3.981   3.043 -0.3935 -0.2871 -0.0992
  155MOL0     O21283  11.188   4.024   3.156  0.3131 -0.0341  0.2637
  155MOL0     C21284  11.319   4.031   3.145 -0.7613  1.2070 -0.7889
  155MOL0     C21285  11.382   4.134   3.077  0.2415 -0.5428  0.6205
  155MOL0     C21286  11.522   4.124   3.061  0.5257 -0.1078  0.4797
  155MOL0     C21287  11.594   4.013   3.105 -0.0002  0.2000 -0.1058
  155MOL0     O21288  11.729   4.022   3.069  0.6424 -0.4773 -0.5719
  155MOL0     C21289  11.829   3.944   3.132  0.4348  0.7640 -1.4503
  155MOL0     C21290  11.945   3.943   3.041  0.1999  0.6387  1.2718
  155MOL0     C21291  12.055   3.860   3.109  1.0254 -1.0900 -0.6106
  155MOL0     C21292  12.081   3.724   3.046  0.3915 -0.5242  0.3729
  155MOL0     C21293  12.196   3.658   3.125 -0.4428 -1.0189  0.6445
  155MOL0     C21294  12.229   3.523   3.069 -0.4958 -1.1232 -0.3656
  155MOL0     C21295  12.352   3.465   3.145  0.7786 -0.2001 -0.1146
  155MOL0     C21296  12.414   3.343   3.076  0.3208 -0.5395  0.3486
  155MOL0    Cl21297  12.300   3.208   3.087 -0.4067  0.0966  0.3140
  155MOL0     C21298  11.534   3.916   3.180  0.4673  0.0479 -0.1904
  155MOL0     C21299  11.394   3.928   3.215 -0.3560  0.5700  0.4384
  155MOL0     O21300  11.154   3.944   2.933  0.0763 -1.0420 -0.4794
  155MOL0     C21301  10.899   4.076   3.153  0.9712 -0.0465  0.1791
  155MOL0     C21302  10.760   4.072   3.177  1.2369 -0.1413  0.1528
  155MOL0     N21303   9.884   4.182   3.307  0.8269  0.1657 -0.2114
  155MOL0     N21304   9.811   4.256   3.382 -0.1528  0.0246  0.1264
  155MOL0     C21305   9.261   5.018   3.671  1.5753 -0.1046  0.0724
  155MOL0     C21306   9.199   5.118   3.583 -0.3323  0.3061 -0.0556
  155MOL0     C21307   8.843   5.350   3.377  0.5572 -0.2485 -0.1420
  155MOL0     C21308   8.823   5.489   3.377  0.9012 -0.5420  0.8305
  155MOL0     C21309   8.762   5.546   3.265  0.2593  0.9054 -0.3464
  155MOL0     C21310   8.702   5.467   3.172 -0.7818 -0.2836  0.1598
  155MOL0     O21311   8.633   5.518   3.062 -0.4660  0.0623 -0.7105
  155MOL0     C21312   8.660   5.649   3.014  0.5229 -0.0827  0.0259
  155MOL0     C21313   8.605   5.655   2.870 -0.6170 -0.5406 -0.0075
  155MOL0     C21314   8.690   5.591   2.762 -0.1113  0.7979 -0.1880
  155MOL0     C21315   8.633   5.612   2.622 -0.1878 -0.5207  0.3548
  155MOL0     C21316   8.737   5.566   2.523  0.3695 -0.1110  0.1082
  155MOL0     C21317   8.836   5.547   2.454 -0.2804  0.1226  0.3868
  155MOL0     C21318   8.710   5.332   3.186 -0.8358 -0.0563  0.6596
  155MOL0     C21319   8.783   5.268   3.279  0.0286 -0.0316  0.3070
  155MOL0     C21320   8.779   5.121   3.271  0.4378  0.9594 -0.4802
  155MOL0     H21321   8.875   5.033   3.606  0.1222  1.6067 -0.9505
  155MOL0     H21322   8.974   4.850   3.749 -0.6363  0.1059 -2.4909
  155MOL0     H21323   9.079   4.690   3.822  0.4715  1.9031 -2.2819
  155MOL0     H21324   9.181   4.700   3.976  1.3506  1.1197  0.3318
  155MOL0     H21325   9.217   4.510   3.851 -2.3980  1.1204 -0.6693
  155MOL0     H21326   9.241   4.598   3.692 -2.2053 -0.8177 -0.6297
  155MOL0     H21327   9.437   4.684   3.755 -1.9059  0.4950 -0.4405
  155MOL0     H21328   9.413   4.635   3.926 -3.0830 -0.9318  0.4686
  155MOL0     H21329   9.452   4.394   3.878  4.6682 -2.7651 -0.7139
  155MOL0     H21330   9.463   4.420   3.703 -1.1000 -0.7660  0.3867
  155MOL0     H21331   9.649   4.570   3.875  0.2326  0.5840 -0.6801
  155MOL0     H21332   9.660   4.534   3.706  1.6803 -2.9840  0.2234
  155MOL0     H21333   9.796   4.383   3.891 -0.2216 -2.1282 -0.9033
  155MOL0     H21334   9.638   4.310   3.909 -3.6107  2.0031  1.0318
  155MOL0     H21335   9.662   4.239   3.664 -1.6284  0.0402  0.7956
  155MOL0     H21336   9.802   4.197   3.772 -0.8156  0.2357  0.9689
  155MOL0     H21337   9.787   4.425   3.571 -2.9315 -3.4714 -2.5197
  155MOL0     H21338   9.925   4.380   3.672 -0.2881  2.1521  1.0606
  155MOL0     H21339  10.036   4.145   3.594 -2.0132 -0.2159 -0.0461
  155MOL0     H21340  10.043   3.960   3.278 -1.1014 -0.9749  1.4099
  155MOL0     H21341  10.122   3.970   3.426  0.8762 -1.7060 -2.4697
  155MOL0     H21342  10.182   4.114   3.173 -3.2691 -2.4068 -0.2097
  155MOL0     H21343  10.239   4.180   3.337 -0.8366  1.0635 -1.6880
  155MOL0     H21344  10.369   3.955   3.357 -1.3132  1.4987  0.7461
  155MOL0     H21345  10.307   3.893   3.219  1.4792  0.4276  0.3710
  155MOL0     H21346  10.425   4.124   3.115 -0.8338  0.9960  0.6376
  155MOL0     H21347  10.499   4.126   3.269 -0.7786 -1.1162  1.5138
  155MOL0     H21348  10.672   3.780   3.025  2.1857 -2.7200  0.1418
  155MOL0     H21349  11.017   3.712   2.996 -0.0269 -1.6827 -1.1098
  155MOL0     H21350  10.946   3.765   2.839 -2.5552  5.3776  0.1237
  155MOL0     H21351  10.856   3.661   2.948  0.7489 -0.8683 -0.5523
  155MOL0     H21352  11.333   4.217   3.027 -1.0854 -1.8174 -0.2703
  155MOL0     H21353  11.577   4.204   3.012 -0.4691  0.3878  0.1499
  155MOL0     H21354  11.865   3.991   3.224 -1.2478 -0.2409 -0.2352
  155MOL0     H21355  11.799   3.845   3.168 -0.2664  2.1790  2.3573
  155MOL0     H21356  11.910   3.899   2.947 -0.5755  1.2519  1.2616
  155MOL0     H21357  11.991   4.042   3.034 -2.6446  1.9294 -1.5014
  155MOL0     H21358  12.037   3.855   3.217 -0.3190 -4.0142 -0.8735
  155MOL0     H21359  12.147   3.917   3.094  0.2571  0.3347 -0.1724
  155MOL0     H21360  12.101   3.735   2.939 -0.8298  0.8568  0.2666
  155MOL0     H21361  11.996   3.657   3.059  1.3078 -1.6996  0.5731
  155MOL0     H21362  12.281   3.724   3.107 -2.5121  1.7105  0.3305
  155MOL0     H21363  12.169   3.659   3.231 -2.8319  0.2002  0.0730
  155MOL0     H21364  12.253   3.524   2.962 -0.0337  0.4209 -0.2662
  155MOL0     H21365  12.143   3.456   3.080 -1.9778  0.7637 -0.0593
  155MOL0     H21366  12.324   3.442   3.249 -0.6489  2.1290  0.0927
  155MOL0     H21367  12.421   3.549   3.152 -1.6392  2.2657 -2.9737
  155MOL0     H21368  12.512   3.333   3.123  2.7610  5.3642 -2.4298
  155MOL0     H21369  12.422   3.372   2.970 -0.2067 -0.1679  0.4096
  155MOL0     H21370  11.579   3.832   3.233 -1.4709  1.7953  4.8063
  155MOL0     H21371  11.357   3.852   3.284  1.1469 -0.4950  0.1041
  155MOL0     H21372  10.959   4.150   3.205 -1.3545  0.7140  1.9535
  155MOL0     H21373  10.723   4.156   3.235  0.6862 -1.3573  1.6270
  155MOL0     H21374   9.369   5.008   3.671  1.7072  0.7134 -2.0624
  155MOL0     H21375   9.251   5.204   3.541 -2.7353  2.1401  0.5214
  155MOL0     H21376   8.878   5.553   3.445  0.6011  1.1312 -0.4395
  155MOL0     H21377   8.770   5.652   3.243  4.4911  0.5914 -1.1273
  155MOL0     H21378   8.621   5.728   3.079 -0.1189 -2.5091  2.7993
  155MOL0     H21379   8.768   5.653   3.000  0.4877  0.2714 -0.1695
  155MOL0     H21380   8.613   5.764   2.871  1.2619 -0.6340  0.2530
  155MOL0     H21381   8.503   5.617   2.875 -0.2331 -2.1247 -2.5251
  155MOL0     H21382   8.790   5.632   2.777 -0.7490  1.5245  2.7408
  155MOL0     H21383   8.704   5.488   2.794 -1.3177  0.8607  0.6125
  155MOL0     H21384   8.615   5.718   2.603  1.9198  0.3280  2.5411
  155MOL0     H21385   8.543   5.550   2.614  1.7918 -4.2067  3.3582
  155MOL0     H21386   8.920   5.537   2.389 -1.3516 -1.8226 -0.7879
  155MOL0     H21387   8.650   5.276   3.116 -2.2978  1.3376  0.7347
  155MOL0     H21388   8.694   5.079   3.217  2.1588 -1.2466 -1.6507
  155MOL0     H21389   8.877   5.089   3.234 -0.1676 -2.3233  0.4289
  155MOL0     H21390   8.767   5.089   3.375  0.7434  2.1056 -0.0839
  156MOL0     O21391   6.758  10.297   4.335 -0.0794 -0.1846 -1.2686
  156MOL0     C21392   6.765  10.307   4.453  0.2800 -0.0893 -0.0192
  156MOL0     O21393   6.813  10.417   4.518  0.6691 -0.8016 -1.0485
  156MOL0     C21394   6.908  10.503   4.462  0.3757  0.1632 -0.0008
  156MOL0     C21395   6.920  10.629   4.515 -0.1913  0.3062  0.2859
  156MOL0     C21396   7.021  10.724   4.475  0.4509 -0.2793  1.0535
  156MOL0     C21397   7.128  10.680   4.381 -0.2885 -0.1585 -0.2781
  156MOL0     O21398   7.233  10.759   4.333  0.7195 -0.7559  0.2948
  156MOL0     C21399   7.220  10.906   4.342  0.6067 -0.6587 -0.7235
  156MOL0     C21400   7.270  10.946   4.484 -0.2460  0.4357  0.3402
  156MOL0     C21401   7.281  11.101   4.487  0.8211 -0.0311 -0.5063
  156MOL0     C21402   7.300  11.147   4.632  0.7900 -0.4114 -0.3808
  156MOL0     C21403   7.285  11.307   4.646  0.1337  1.3780 -0.6727
  156MOL0     C21404   7.393  11.395   4.562  1.0266  0.0539  0.5913
  156MOL0     C21405   7.376  11.550   4.582 -1.0275 -0.7269  0.1738
  156MOL0     C21406   7.491  11.631   4.523 -0.6423  0.7159 -0.7302
  156MOL0     N21407   7.503  11.771   4.571 -0.2413  0.2853 -0.8247
  156MOL0     C21408   7.459  11.880   4.499 -1.6883  0.3762 -1.0123
  156MOL0     C21409   7.470  11.988   4.591  0.0411  1.1268  0.2691
  156MOL0     C21410   7.451  12.129   4.551 -0.5371  0.5010  0.4932
  156MOL0     C21411   7.318  12.196   4.566 -0.1658 -0.5073 -0.3775
  156MOL0     C21412   7.217  12.154   4.467 -0.2646 -0.6476  1.1069
  156MOL0     C21413   7.060  12.171   4.492  0.8119  0.1633  0.4758
  156MOL0     O21414   6.982  12.127   4.390 -1.0657 -0.4067 -0.2100
  156MOL0     C21415   6.958  11.994   4.369  0.2326 -0.5972 -0.4751
  156MOL0     C21416   6.877  11.978   4.258  0.1579  0.1219  0.5493
  156MOL0     C21417   6.859  11.858   4.195  0.1400 -0.3125  0.0582
  156MOL0     C21418   6.761  11.862   4.077  0.0615  0.3599  0.0027
  156MOL0     C21419   6.926  11.744   4.243 -0.3074 -0.6834 -0.1994
  156MOL0     C21420   6.921  11.609   4.179  0.7815 -1.0430  0.3126
  156MOL0     O21421   6.993  11.510   4.231  0.4981 -0.3705 -0.2254
  156MOL0     C21422   6.977  11.379   4.196  0.5751 -0.7622 -0.5865
  156MOL0     C21423   7.029  11.342   4.076 -0.1643 -0.0597  0.0028
  156MOL0     C21424   7.023  11.209   4.035  0.0735  0.6040 -0.7349
  156MOL0     C21425   6.974  11.112   4.123  1.1894  0.3453  0.3785
  156MOL0     O21426   6.990  10.975   4.095 -0.3826  0.2440 -0.1556
  156MOL0     C21427   6.904  10.916   3.994 -0.8091  0.2445  0.8102
  156MOL0     C21428   6.864  10.774   4.041  0.2930  0.4354  0.1171
  156MOL0     C21429   6.769  10.715   3.935  0.9409 -0.5819 -0.2061
  156MOL0     C21430   6.689  10.585   3.992  0.0916  0.5422  0.4495
  156MOL0     C21431   6.633  10.499   3.876 -0.9774 -0.7251 -0.1764
  156MOL0     C21432   6.573  10.588   3.760 -0.7709  0.1498 -0.0800
  156MOL0     C21433   6.480  10.507   3.670 -0.9071  0.3513 -0.5074
  156MOL0     C21434   6.419  10.600   3.566 -0.3033  0.0318  0.6380
  156MOL0    Cl21435   6.544  10.659   3.450  0.2625  0.2389  0.1670
  156MOL0     C21436   6.936  11.145   4.252  1.3614  0.6206 -0.2250
  156MOL0     C21437   6.932  11.280   4.286  0.0436 -0.2648 -0.7629
  156MOL0     O21438   6.862  11.596   4.076 -0.1801  0.5845  0.3081
  156MOL0     C21439   7.001  11.750   4.369 -0.5024 -0.7822  1.1801
  156MOL0     C21440   7.007  11.873   4.439  0.4660 -0.0026  0.0985
  156MOL0     N21441   7.523  11.948   4.711 -0.4894 -0.2915  0.0785
  156MOL0     N21442   7.541  11.810   4.698 -0.0582  0.7553 -0.1480
  156MOL0     C21443   7.120  10.543   4.347  1.2231  0.3992 -0.1234
  156MOL0     C21444   7.009  10.457   4.374 -0.2251 -1.0998  0.1513
  156MOL0     C21445   6.715  10.192   4.537  0.7139 -0.0278  0.3162
  156MOL0     C21446   6.654  10.081   4.466  0.3540  0.7289  0.4341
  156MOL0     C21447   6.626   9.962   4.534 -0.6241 -0.6986 -0.3038
  156MOL0     C21448   6.620   9.954   4.673 -0.4805 -0.7360  0.2314
  156MOL0     O21449   6.577   9.842   4.741  0.2845 -0.4721  0.3259
  156MOL0     C21450   6.550   9.710   4.685 -0.3413 -0.6904 -0.6628
  156MOL0     C21451   6.680   9.646   4.631 -0.0697 -0.3387 -1.0813
  156MOL0     C21452   6.802   9.626   4.728 -0.2509  0.0162  0.5787
  156MOL0     C21453   6.813   9.508   4.819 -0.5303 -0.4259 -0.3150
  156MOL0     C21454   6.953   9.485   4.849 -0.3879  0.9810 -0.4494
  156MOL0     C21455   7.071   9.449   4.871 -0.1374  0.4584  0.4924
  156MOL0     C21456   6.666  10.059   4.742  0.2009  0.4541 -0.5155
  156MOL0     C21457   6.719  10.173   4.673  0.2892  0.3070 -0.2576
  156MOL0     C21458   6.783  10.266   4.762 -0.4001  1.2036  0.6076
  156MOL0     H21459   6.840  10.663   4.580 -1.5017  0.7093 -1.4735
  156MOL0     H21460   7.023  10.826   4.512  1.0514  0.3134 -0.5449
  156MOL0     H21461   7.122  10.935   4.306  1.0097 -2.5489 -3.7172
  156MOL0     H21462   7.295  10.943   4.272  1.6217 -1.6325 -0.1927
  156MOL0     H21463   7.209  10.903   4.565 -2.1360  1.7621 -0.2877
  156MOL0     H21464   7.372  10.908   4.492 -0.6759 -0.6670  0.7122
  156MOL0     H21465   7.371  11.128   4.431 -2.3746  1.6207 -5.5405
  156MOL0     H21466   7.193  11.143   4.437 -0.4337  2.0751  3.1306
  156MOL0     H21467   7.226  11.095   4.693 -2.5212  3.3885 -0.7285
  156MOL0     H21468   7.397  11.127   4.678  0.1085 -0.4482  1.0950
  156MOL0     H21469   7.296  11.339   4.750  1.0258  1.0974 -0.6749
  156MOL0     H21470   7.185  11.333   4.611  0.1129  0.0994 -1.6399
  156MOL0     H21471   7.496  11.379   4.597  0.7204  2.6297  2.9740
  156MOL0     H21472   7.396  11.372   4.455  0.2474 -3.3800  1.1928
  156MOL0     H21473   7.368  11.579   4.687 -0.1333  4.1353 -0.8365
  156MOL0     H21474   7.285  11.595   4.542 -2.4689 -3.2285  0.4499
  156MOL0     H21475   7.574  11.565   4.553 -1.0994 -0.7552 -2.4918
  156MOL0     H21476   7.493  11.616   4.414  1.0690 -6.8824 -0.2643
  156MOL0     H21477   7.431  11.896   4.396  1.0972  1.6575 -1.6690
  156MOL0     H21478   7.472  12.127   4.444  0.1572 -3.1720  0.5618
  156MOL0     H21479   7.527  12.192   4.598 -2.1438  2.0513  1.1130
  156MOL0     H21480   7.286  12.168   4.667  5.1226 -2.2756  1.0961
  156MOL0     H21481   7.320  12.306   4.564  0.6695 -0.4848 -3.4810
  156MOL0     H21482   7.232  12.204   4.371  0.8874  0.0926  1.6511
  156MOL0     H21483   7.223  12.046   4.453 -2.1764 -0.5189 -1.4253
  156MOL0     H21484   7.033  12.120   4.585  0.6407 -2.3492 -0.8424
  156MOL0     H21485   7.037  12.277   4.503 -0.6038 -0.3019  2.5342
  156MOL0     H21486   6.826  12.066   4.222 -0.9753 -1.1958 -1.2704
  156MOL0     H21487   6.678  11.802   4.116  2.1094 -1.0902  2.3988
  156MOL0     H21488   6.813  11.822   3.989  0.1028  0.9121 -0.2253
  156MOL0     H21489   6.716  11.959   4.056 -1.5173 -0.1693  0.7772
  156MOL0     H21490   7.065  11.423   4.013  3.2067 -0.7855  0.7927
  156MOL0     H21491   7.066  11.190   3.938 -1.6798 -2.0436 -1.1126
  156MOL0     H21492   6.814  10.972   3.968  0.4741  1.4989 -1.1477
  156MOL0     H21493   6.964  10.911   3.903 -0.5259  0.4419  0.9851
  156MOL0     H21494   6.956  10.716   4.050  0.2313  0.4197  0.7003
  156MOL0     H21495   6.808  10.777   4.135 -1.6711 -0.1313 -0.9783
  156MOL0     H21496   6.837  10.693   3.852  2.6468 -2.0212  1.4861
  156MOL0     H21497   6.691  10.784   3.903  1.4418 -0.7403 -1.8528
  156MOL0     H21498   6.598  10.618   4.043 -2.1857 -0.4326 -2.6805
  156MOL0     H21499   6.758  10.528   4.055  1.7730  2.5673  0.5898
  156MOL0     H21500   6.710  10.434   3.834 -0.9211 -1.1022  0.4996
  156MOL0     H21501   6.554  10.444   3.928 -0.8349 -0.6220  0.1488
  156MOL0     H21502   6.657  10.623   3.700  0.5061 -0.8184  1.0770
  156MOL0     H21503   6.515  10.670   3.805  0.4584  0.7872  0.4019
  156MOL0     H21504   6.407  10.444   3.723 -2.2023 -0.2509 -2.8625
  156MOL0     H21505   6.543  10.437   3.614 -0.4936  0.9136 -0.7457
  156MOL0     H21506   6.376  10.684   3.620 -0.5618  1.0411 -1.0636
  156MOL0     H21507   6.342  10.542   3.515  1.2939 -0.9180 -0.7799
  156MOL0     H21508   6.891  11.075   4.321  0.3651  0.5495 -0.9324
  156MOL0     H21509   6.884  11.324   4.372  2.0896 -0.3865  0.5180
  156MOL0     H21510   7.045  11.662   4.416  1.8625 -1.0011 -1.2398
  156MOL0     H21511   7.032  11.891   4.543 -1.2146  3.3143  0.0630
  156MOL0     H21512   7.204  10.510   4.288  0.1462 -1.8415 -0.4870
  156MOL0     H21513   7.006  10.355   4.337 -1.2718  0.5713 -5.2300
  156MOL0     H21514   6.645  10.090   4.358  1.1925 -0.6234  0.2138
  156MOL0     H21515   6.591   9.880   4.473  2.4185 -1.3250 -1.3980
  156MOL0     H21516   6.512   9.641   4.761 -2.4117  0.3230 -0.7113
  156MOL0     H21517   6.480   9.722   4.602 -1.8442  2.3236  0.8405
  156MOL0     H21518   6.713   9.714   4.552  1.2723  0.7199  0.3245
  156MOL0     H21519   6.641   9.560   4.576 -0.0500  0.8721 -3.0690
  156MOL0     H21520   6.881   9.612   4.653 -4.3588 -2.9168 -3.7728
  156MOL0     H21521   6.810   9.712   4.795 -0.0125 -0.3673  1.0510
  156MOL0     H21522   6.774   9.415   4.777 -1.3225  0.4284 -1.5442
  156MOL0     H21523   6.753   9.530   4.908  1.1499  4.0035 -0.0180
  156MOL0     H21524   7.175   9.433   4.891 -0.7077 -2.0372  1.8821
  156MOL0     H21525   6.685  10.041   4.847  2.8399  0.5715 -0.9048
  156MOL0     H21526   6.877  10.302   4.719 -0.2287  1.4788  1.2068
  156MOL0     H21527   6.713  10.349   4.776 -1.1709  0.5257  0.7908
  156MOL0     H21528   6.803  10.231   4.864  1.2783  0.3491  0.0299
  157MOL0     O21529   7.110   2.694  10.762  0.0815  0.0307 -0.1127
  157MOL0     C21530   7.037   2.610  10.818  0.2259 -1.0301 -0.4008
  157MOL0     O21531   6.998   2.620  10.950  0.0911 -0.1719  0.3066
  157MOL0     C21532   7.024   2.731  11.030 -0.1094 -0.6324  0.0566
  157MOL0     C21533   7.000   2.719  11.166  0.0924 -1.0448  0.2007
  157MOL0     C21534   7.001   2.829  11.251  0.0362  0.7956 -0.4693
  157MOL0     C21535   7.018   2.960  11.206 -0.8400  0.9746  0.0531
  157MOL0     O21536   7.006   3.056  11.302 -0.7684  0.1650  0.1870
  157MOL0     C21537   7.089   3.170  11.267 -0.1075 -0.3316  0.2296
  157MOL0     C21538   7.097   3.265  11.386  0.1519 -0.4970 -0.6576
  157MOL0     C21539   6.965   3.326  11.427  0.2541 -0.3929  0.8777
  157MOL0     C21540   6.972   3.406  11.564  0.3847 -0.2921  1.0770
  157MOL0     C21541   6.995   3.311  11.682 -0.7533 -0.0079  0.7375
  157MOL0     C21542   6.991   3.393  11.818  0.2105  0.0231  0.0808
  157MOL0     C21543   7.021   3.314  11.948  0.2749  0.4270 -0.1930
  157MOL0     C21544   6.929   3.209  11.981  0.2180  0.4673  0.5806
  157MOL0     N21545   6.944   3.162  12.118  0.5714 -0.0035 -0.1155
  157MOL0     C21546   7.051   3.114  12.181  0.6864  0.3812 -0.1208
  157MOL0     C21547   7.020   3.112  12.310  0.8900 -0.9687 -0.4871
  157MOL0     C21548   7.099   3.060  12.419  0.0738 -0.1809 -0.2831
  157MOL0     C21549   7.104   2.907  12.411  0.0819  0.4861 -0.4461
  157MOL0     C21550   7.200   2.847  12.508 -0.3534 -0.9298  0.3656
  157MOL0     C21551   7.164   2.706  12.548  0.1132  0.3136  0.5021
  157MOL0     O21552   7.260   2.671  12.655  0.8978  0.6600 -0.2879
  157MOL0     C21553   7.285   2.542  12.686 -0.3113 -0.3536 -0.5391
  157MOL0     C21554   7.390   2.515  12.778  0.3352 -0.1361 -0.3407
  157MOL0     C21555   7.432   2.393  12.825  0.1535  0.0609  0.3814
  157MOL0     C21556   7.542   2.384  12.923 -0.6806 -0.1330  0.3853
  157MOL0     C21557   7.367   2.280  12.775 -0.6991  0.2539  0.2384
  157MOL0     C21558   7.391   2.142  12.826  0.0079  0.9466 -0.1379
  157MOL0     O21559   7.310   2.050  12.766 -0.6732 -0.7472 -0.3860
  157MOL0     C21560   7.332   1.918  12.794  0.2649 -0.2756 -0.3859
  157MOL0     C21561   7.342   1.826  12.691 -0.3358  0.9481  0.2633
  157MOL0     C21562   7.355   1.689  12.730 -0.6734  0.5675  0.1950
  157MOL0     C21563   7.352   1.649  12.867  0.1493  0.3988  0.8865
  157MOL0     O21564   7.355   1.518  12.898  0.0649 -0.6229  0.1635
  157MOL0     C21565   7.280   1.471  13.007 -0.4747  0.7643 -1.0141
  157MOL0     C21566   7.288   1.314  13.024 -0.3960 -0.6070  0.6408
  157MOL0     C21567   7.193   1.262  13.142 -0.1419 -0.1723 -0.1761
  157MOL0     C21568   7.212   1.114  13.164 -0.4786  0.1929 -1.1207
  157MOL0     C21569   7.346   1.095  13.248 -0.2188  1.0412  0.3115
  157MOL0     C21570   7.348   0.957  13.303  0.0343 -0.8280 -0.3794
  157MOL0     C21571   7.452   0.943  13.426 -0.4760  0.1214  0.3175
  157MOL0     C21572   7.593   0.964  13.393  0.4488 -1.1058 -0.2327
  157MOL0    Cl21573   7.658   0.854  13.275 -0.1330  0.4880 -0.5134
  157MOL0     C21574   7.346   1.743  12.962  0.1980  0.6990 -0.1467
  157MOL0     C21575   7.318   1.885  12.926  0.1006  0.9550 -0.0071
  157MOL0     O21576   7.480   2.111  12.910 -0.3726 -0.2888  0.5729
  157MOL0     C21577   7.267   2.302  12.675 -0.2510  0.1393 -0.7758
  157MOL0     C21578   7.227   2.428  12.637  0.6590  0.8372 -0.1920
  157MOL0     N21579   6.879   3.154  12.324 -0.2876 -0.5402  0.1893
  157MOL0     N21580   6.840   3.182  12.204 -0.0945  0.3641  0.4184
  157MOL0     C21581   7.049   2.976  11.073 -0.0177 -0.3813  0.2236
  157MOL0     C21582   7.056   2.864  10.985 -0.6592 -0.9838 -0.1213
  157MOL0     C21583   6.979   2.489  10.766  0.4929 -0.2454 -0.0186
  157MOL0     C21584   6.840   2.475  10.762  0.1397 -0.7656  0.4811
  157MOL0     C21585   6.782   2.351  10.726  0.1073  0.2121  0.6708
  157MOL0     C21586   6.863   2.246  10.683  0.1751  0.0049  0.3603
  157MOL0     O21587   6.826   2.118  10.633 -0.2059 -0.2325  0.1468
  157MOL0     C21588   6.688   2.081  10.655  0.6006  0.0312 -0.3653
  157MOL0     C21589   6.670   1.927  10.634 -0.0135  0.9767 -0.4181
  157MOL0     C21590   6.549   1.865  10.703 -0.9373  0.6124 -0.0909
  157MOL0     C21591   6.505   1.732  10.633  0.5904 -0.4384  0.1891
  157MOL0     C21592   6.402   1.661  10.714 -0.5550  0.2469 -0.1204
  157MOL0     C21593   6.317   1.608  10.784 -0.3092  0.1164 -0.5135
  157MOL0     C21594   7.000   2.264  10.694 -0.1768  0.9828 -1.4148
  157MOL0     C21595   7.057   2.378  10.736  0.1429  0.3306  0.0266
  157MOL0     C21596   7.207   2.374  10.767 -0.3357  0.6323  0.8689
  157MOL0     H21597   6.980   2.618  11.200  1.2219 -2.3127 -2.6519
  157MOL0     H21598   6.978   2.824  11.357  2.8569 -2.0551  0.1456
  157MOL0     H21599   7.047   3.233  11.188 -1.5098  0.5281  1.6086
  157MOL0     H21600   7.192   3.146  11.238  0.6559  1.1398  1.5508
  157MOL0     H21601   7.146   3.216  11.471 -1.0475 -1.5571 -0.5542
  157MOL0     H21602   7.168   3.348  11.375 -0.2727  0.0712  0.6728
  157MOL0     H21603   6.932   3.394  11.348  0.6097 -1.2249 -0.0106
  157MOL0     H21604   6.879   3.260  11.414  0.5492 -0.4142 -1.4036
  157MOL0     H21605   7.050   3.482  11.575 -1.2562  2.0384 -2.0600
  157MOL0     H21606   6.880   3.461  11.581  1.3500  1.7920 -0.0718
  157MOL0     H21607   7.089   3.257  11.668 -0.0790  0.9823  1.2846
  157MOL0     H21608   6.912   3.241  11.695 -1.0573 -0.1259 -1.4513
  157MOL0     H21609   7.067   3.471  11.805  0.9689 -1.1178 -3.9602
  157MOL0     H21610   6.895   3.442  11.830  0.8026  0.5719  3.4054
  157MOL0     H21611   7.021   3.381  12.035 -1.5665  0.0156  0.1644
  157MOL0     H21612   7.113   3.256  11.944  0.0501  0.1467 -2.8070
  157MOL0     H21613   6.827   3.233  11.948  0.2419 -0.4206 -0.1655
  157MOL0     H21614   6.956   3.126  11.916  2.3847 -1.9739  4.2512
  157MOL0     H21615   7.144   3.083  12.136 -0.1459 -1.1257 -0.8881
  157MOL0     H21616   7.076   3.088  12.522 -0.9430  1.4933 -0.9386
  157MOL0     H21617   7.202   3.092  12.400  0.2496 -0.2905  0.4405
  157MOL0     H21618   7.006   2.858  12.413  0.5192 -0.3920 -0.2138
  157MOL0     H21619   7.143   2.886  12.312  0.0958  3.1485 -1.0912
  157MOL0     H21620   7.305   2.859  12.481 -0.0923  2.7315  2.3508
  157MOL0     H21621   7.192   2.904  12.601 -2.9721  1.6644 -1.2549
  157MOL0     H21622   7.065   2.700  12.595 -0.8309 -0.2665 -1.4647
  157MOL0     H21623   7.169   2.657  12.451  1.7362 -0.2979  0.8636
  157MOL0     H21624   7.437   2.598  12.830 -2.9123  1.3439  0.4749
  157MOL0     H21625   7.591   2.481  12.937  0.6288 -0.7709  0.3076
  157MOL0     H21626   7.615   2.318  12.876 -1.3860  1.0099 -2.6000
  157MOL0     H21627   7.505   2.349  13.020  0.0325  1.0551  1.1035
  157MOL0     H21628   7.358   1.850  12.586  4.5165 -2.1948 -0.0125
  157MOL0     H21629   7.372   1.616  12.652  1.5541  0.6155  0.5450
  157MOL0     H21630   7.322   1.512  13.099  0.1890  0.6953 -1.2762
  157MOL0     H21631   7.177   1.506  13.004 -2.5229 -3.8160  2.4665
  157MOL0     H21632   7.268   1.278  12.922  1.7751 -1.3671  0.4330
  157MOL0     H21633   7.392   1.294  13.051  0.2833  0.5542 -0.9054
  157MOL0     H21634   7.092   1.264  13.100  0.8561  1.9170 -2.8044
  157MOL0     H21635   7.217   1.328  13.226 -2.1256 -1.1740  1.2528
  157MOL0     H21636   7.211   1.049  13.076  0.3301 -0.2179 -0.8469
  157MOL0     H21637   7.127   1.077  13.222 -1.3574  0.8645 -1.9642
  157MOL0     H21638   7.426   1.090  13.174 -0.7366 -0.8736 -0.1689
  157MOL0     H21639   7.363   1.172  13.324 -2.0121  2.4790 -0.6730
  157MOL0     H21640   7.381   0.890  13.223  0.8467 -3.9893  2.3740
  157MOL0     H21641   7.247   0.937  13.341  0.2584 -0.7512  0.2747
  157MOL0     H21642   7.438   0.845  13.474 -1.7225 -0.1233 -0.4802
  157MOL0     H21643   7.428   1.016  13.504  0.5646  0.8465 -0.0259
  157MOL0     H21644   7.636   0.953  13.493 -2.3127  1.6539  1.4458
  157MOL0     H21645   7.607   1.069  13.365  0.2792  0.1313  3.7010
  157MOL0     H21646   7.356   1.722  13.068 -0.4251  1.9932  0.1872
  157MOL0     H21647   7.305   1.960  13.003  1.9296  0.5375  0.7697
  157MOL0     H21648   7.218   2.210  12.642 -0.6217 -0.5424  1.5323
  157MOL0     H21649   7.142   2.444  12.571 -1.4992  3.0237  2.8748
  157MOL0     H21650   7.085   3.063  11.018 -0.1694  0.2326  1.0888
  157MOL0     H21651   7.082   2.887  10.882 -1.0639  1.0593  0.2059
  157MOL0     H21652   6.785   2.565  10.786  1.8924  0.1337  1.3620
  157MOL0     H21653   6.674   2.336  10.725  0.0430  0.6578  0.7677
  157MOL0     H21654   6.664   2.102  10.759  0.5717 -1.8464  0.0395
  157MOL0     H21655   6.628   2.137  10.582  4.1653  1.2704 -2.6720
  157MOL0     H21656   6.757   1.882  10.683  1.6373  3.9532 -0.3346
  157MOL0     H21657   6.669   1.902  10.527 -3.3103 -0.7007 -0.1032
  157MOL0     H21658   6.581   1.843  10.806 -2.2867 -2.2112 -0.1772
  157MOL0     H21659   6.461   1.929  10.704 -0.8322  0.8420  2.3627
  157MOL0     H21660   6.596   1.670  10.628  0.9257  0.0865 -0.3054
  157MOL0     H21661   6.480   1.747  10.528  2.6316 -0.4036 -0.3517
  157MOL0     H21662   6.256   1.543  10.843 -2.7622 -2.4692 -5.2825
  157MOL0     H21663   7.069   2.182  10.680  0.9487  1.2428  1.6377
  157MOL0     H21664   7.257   2.409  10.676 -3.6708  2.6132 -0.3870
  157MOL0     H21665   7.257   2.425  10.850  1.5231  1.1462 -0.4965
  157MOL0     H21666   7.237   2.270  10.783 -3.8457 -0.0738  4.6867
  158MOL0     O21667   9.246  10.667  11.046 -0.4315 -0.3128  0.8585
  158MOL0     C21668   9.332  10.588  11.084 -0.2805  0.3029  0.1352
  158MOL0     O21669   9.359  10.556  11.209  0.0903 -0.3132  0.8223
  158MOL0     C21670   9.291  10.621  11.312 -0.0121  0.8050  0.2810
  158MOL0     C21671   9.153  10.593  11.314  0.2548 -0.2060 -1.1122
  158MOL0     C21672   9.071  10.662  11.406 -1.0965 -0.5128 -1.1898
  158MOL0     C21673   9.130  10.743  11.509 -0.2695  0.3913  1.1777
  158MOL0     O21674   9.070  10.802  11.613  0.2476  0.1788  0.4391
  158MOL0     C21675   8.934  10.751  11.642 -0.8205  0.4313  0.1004
  158MOL0     C21676   8.901  10.795  11.787 -0.0935  0.1693  0.1444
  158MOL0     C21677   8.756  10.758  11.831 -0.2068  0.5434  0.4396
  158MOL0     C21678   8.709  10.831  11.958  1.0645 -0.4546  0.2992
  158MOL0     C21679   8.611  10.948  11.924 -0.1541  0.0676 -0.1643
  158MOL0     C21680   8.562  11.009  12.053 -0.6231 -0.4181 -0.0969
  158MOL0     C21681   8.452  11.122  12.033  0.2228  0.2176  0.0055
  158MOL0     C21682   8.313  11.068  12.021 -0.5621 -0.2218 -0.6115
  158MOL0     N21683   8.217  11.181  12.041 -0.4482 -0.2276  0.9977
  158MOL0     C21684   8.220  11.295  11.962  0.4329  1.0260 -0.5695
  158MOL0     C21685   8.095  11.346  11.971  0.4140  0.6115  0.4766
  158MOL0     C21686   8.036  11.466  11.904  0.3001  0.1144 -0.2970
  158MOL0     C21687   8.025  11.605  11.969 -0.2355  0.9818  0.6813
  158MOL0     C21688   7.937  11.609  12.091 -0.3125  0.6568 -0.4418
  158MOL0     C21689   7.788  11.606  12.062 -0.1942  0.6519  0.5080
  158MOL0     O21690   7.727  11.592  12.186  0.2936 -0.0973  0.0608
  158MOL0     C21691   7.601  11.540  12.202 -0.4408  0.0258  0.3676
  158MOL0     C21692   7.503  11.542  12.102 -1.2582  0.3545 -0.1589
  158MOL0     C21693   7.374  11.486  12.120 -0.3230  1.0738  1.2494
  158MOL0     C21694   7.284  11.478  11.998  0.1035 -0.4868 -0.0034
  158MOL0     C21695   7.340  11.433  12.250 -0.7714  0.0548  0.3942
  158MOL0     C21696   7.210  11.356  12.260 -0.4963  0.0042  0.0994
  158MOL0     O21697   7.162  11.372  12.386 -0.0952  0.3230  0.2860
  158MOL0     C21698   7.083  11.286  12.458 -0.6794  0.5459 -0.7595
  158MOL0     C21699   7.032  11.336  12.579 -0.9994  0.1620  0.0857
  158MOL0     C21700   6.951  11.248  12.651 -0.6263 -0.3755 -0.1034
  158MOL0     C21701   6.916  11.118  12.614 -0.4853  0.6398 -1.1093
  158MOL0     O21702   6.839  11.056  12.709  0.6443  0.0823  0.0418
  158MOL0     C21703   6.769  10.940  12.659  0.5629  0.4020 -1.2991
  158MOL0     C21704   6.844  10.812  12.677  1.0436 -0.3207  0.8127
  158MOL0     C21705   6.755  10.690  12.677  0.6873 -0.2730 -0.2648
  158MOL0     C21706   6.673  10.661  12.549  0.1965 -1.2555  0.4473
  158MOL0     C21707   6.529  10.708  12.541  1.0509 -0.1138 -0.2227
  158MOL0     C21708   6.463  10.595  12.465  0.0706 -0.5595  0.0509
  158MOL0     C21709   6.315  10.593  12.454  0.2245  0.2932  0.9965
  158MOL0     C21710   6.263  10.516  12.323 -0.2838  0.0548  0.9691
  158MOL0    Cl21711   6.281  10.616  12.183 -0.2406 -0.1129 -0.4564
  158MOL0     C21712   6.973  11.068  12.500 -0.7095  0.0442 -0.5868
  158MOL0     C21713   7.053  11.150  12.419  0.4135 -0.2872  0.2220
  158MOL0     O21714   7.158  11.286  12.173  0.3775  0.0065  0.3149
  158MOL0     C21715   7.435  11.445  12.352 -0.0900 -0.9288 -0.4944
  158MOL0     C21716   7.569  11.495  12.328 -0.2146 -0.2684  0.0990
  158MOL0     N21717   8.014  11.253  12.037 -0.9185  0.0784 -0.3169
  158MOL0     N21718   8.090  11.158  12.087  0.3616  0.1040  0.1914
  158MOL0     C21719   9.272  10.748  11.512  0.8007 -1.2957 -0.1306
  158MOL0     C21720   9.350  10.683  11.417  0.4171  0.0486 -1.0009
  158MOL0     C21721   9.413  10.517  10.981 -0.0503 -0.0676  0.4222
  158MOL0     C21722   9.549  10.483  11.006 -0.3042 -0.0562 -0.0367
  158MOL0     C21723   9.617  10.407  10.914 -0.8634  0.2191 -1.2396
  158MOL0     C21724   9.561  10.348  10.801 -0.2713 -0.8467  0.4875
  158MOL0     O21725   9.626  10.284  10.701  0.0303  0.8092 -0.3770
  158MOL0     C21726   9.745  10.207  10.736  0.5405 -0.3915  0.5898
  158MOL0     C21727   9.878  10.280  10.726  0.4826 -1.1297  0.1911
  158MOL0     C21728   9.994  10.189  10.715  0.4565 -0.1059  0.2892
  158MOL0     C21729  10.028  10.163  10.567 -0.2465 -1.2162 -0.2679
  158MOL0     C21730  10.106  10.050  10.555 -0.8561 -0.2752 -0.4762
  158MOL0     C21731  10.185   9.965  10.552  0.6407  0.5367  0.4600
  158MOL0     C21732   9.430  10.388  10.770  0.0554 -0.3796 -0.6550
  158MOL0     C21733   9.358  10.466  10.858 -0.0459  0.2859  0.8006
  158MOL0     C21734   9.217  10.482  10.819  0.5989  0.7846  1.2427
  158MOL0     H21735   9.097  10.530  11.246 -1.9490  0.2580  0.1710
  158MOL0     H21736   8.965  10.641  11.416 -1.3621  1.5199  1.1595
  158MOL0     H21737   8.939  10.641  11.646 -0.2894  0.4832  1.5371
  158MOL0     H21738   8.859  10.796  11.577  1.0423  0.9240 -1.8066
  158MOL0     H21739   8.975  10.755  11.857 -0.2323 -0.2281  0.0648
  158MOL0     H21740   8.909  10.904  11.781  1.2342  0.0622 -0.4372
  158MOL0     H21741   8.685  10.746  11.749  0.2838 -1.4355  0.2650
  158MOL0     H21742   8.772  10.655  11.864  1.2343 -0.2856 -2.5024
  158MOL0     H21743   8.661  10.762  12.028  0.1937  1.7893  2.0097
  158MOL0     H21744   8.801  10.878  11.993  0.8135 -0.0906  0.4771
  158MOL0     H21745   8.519  10.909  11.879 -0.9969  2.1007 -0.3212
  158MOL0     H21746   8.659  11.010  11.848  2.8824  1.4712  2.6854
  158MOL0     H21747   8.508  10.934  12.112 -1.7296  1.1116  0.8936
  158MOL0     H21748   8.638  11.063  12.111 -0.5902  0.7720 -1.2191
  158MOL0     H21749   8.480  11.172  11.940 -0.7232  1.3203  0.2836
  158MOL0     H21750   8.457  11.194  12.116 -1.4252  0.5793 -0.1721
  158MOL0     H21751   8.300  11.022  11.923  0.8457  0.2722 -1.0527
  158MOL0     H21752   8.285  10.993  12.096 -0.0423  1.3822  1.2735
  158MOL0     H21753   8.308  11.313  11.902  0.5516  1.1144 -0.3703
  158MOL0     H21754   7.933  11.438  11.882  0.8187 -1.6213 -0.6157
  158MOL0     H21755   8.100  11.470  11.816  1.6382 -0.4939  0.6137
  158MOL0     H21756   8.126  11.623  12.008  0.3576 -0.9668  0.1670
  158MOL0     H21757   7.999  11.685  11.900  1.6624 -0.1581 -1.5103
  158MOL0     H21758   7.956  11.532  12.167 -0.6187  0.6372 -0.3834
  158MOL0     H21759   7.956  11.703  12.145  1.7168 -1.3529  2.6469
  158MOL0     H21760   7.755  11.700  12.017 -0.1769  0.5785  0.3430
  158MOL0     H21761   7.763  11.517  12.003  2.4881 -1.1956  1.9519
  158MOL0     H21762   7.532  11.600  12.015  0.6501 -2.3946 -1.4932
  158MOL0     H21763   7.189  11.525  12.026 -1.4892 -2.5649 -1.5699
  158MOL0     H21764   7.241  11.379  11.978  0.8900 -0.9835  0.6876
  158MOL0     H21765   7.336  11.516  11.910 -1.2352  0.2773 -0.4976
  158MOL0     H21766   7.057  11.437  12.612  0.4876 -0.1861  0.1200
  158MOL0     H21767   6.912  11.291  12.742  1.3446 -1.2266  1.1921
  158MOL0     H21768   6.680  10.924  12.720 -1.4135 -1.2547 -4.3784
  158MOL0     H21769   6.726  10.943  12.559 -3.5593  1.0783  0.3157
  158MOL0     H21770   6.931  10.794  12.613  1.0899  1.5085  0.3117
  158MOL0     H21771   6.891  10.829  12.774  0.1834  1.9152  0.8859
  158MOL0     H21772   6.693  10.679  12.766 -0.7877  1.4228 -1.0152
  158MOL0     H21773   6.819  10.601  12.681  1.1154 -0.1969 -3.0715
  158MOL0     H21774   6.692  10.555  12.528  2.3124 -1.1657  1.6529
  158MOL0     H21775   6.717  10.719  12.467 -0.6189 -1.8059 -0.4138
  158MOL0     H21776   6.485  10.701  12.641  1.5844 -1.4329 -0.0618
  158MOL0     H21777   6.515  10.810  12.503  0.7768 -0.0704 -0.0072
  158MOL0     H21778   6.494  10.498  12.507  2.9817  0.3114  0.1726
  158MOL0     H21779   6.494  10.601  12.360  1.8977  0.1653  0.5859
  158MOL0     H21780   6.288  10.699  12.454  0.0018  0.2378  0.8708
  158MOL0     H21781   6.267  10.551  12.543  0.9660 -0.1494  1.2014
  158MOL0     H21782   6.157  10.489  12.334 -0.0902 -0.7942  0.7824
  158MOL0     H21783   6.319  10.424  12.307 -0.1717  0.5493 -1.9084
  158MOL0     H21784   6.954  10.969  12.461  0.2524 -0.7606  0.9038
  158MOL0     H21785   7.112  11.121  12.332  1.4082  0.8336  0.5090
  158MOL0     H21786   7.426  11.408  12.453  2.7470  3.8931  1.8691
  158MOL0     H21787   7.641  11.480  12.408 -1.3375 -0.8469  1.0399
  158MOL0     H21788   9.318  10.813  11.585 -2.5038  5.0689 -2.8926
  158MOL0     H21789   9.457  10.698  11.425  0.1631  1.3705  4.1819
  158MOL0     H21790   9.592  10.512  11.101  1.7330  0.1846 -0.9677
  158MOL0     H21791   9.715  10.386  10.955 -0.6608  1.1523 -1.2345
  158MOL0     H21792   9.732  10.161  10.834  0.5768 -1.0873  0.2707
  158MOL0     H21793   9.755  10.125  10.665  1.1600 -2.1033  2.5427
  158MOL0     H21794   9.883  10.356  10.803 -0.2210  1.3913 -2.0915
  158MOL0     H21795   9.875  10.337  10.633  1.8597  0.2626  0.9668
  158MOL0     H21796  10.079  10.240  10.761  1.2961 -1.8491  0.7394
  158MOL0     H21797   9.984  10.092  10.764  0.6505 -0.6096 -0.6484
  158MOL0     H21798  10.063  10.252  10.515  2.1121 -1.8074  0.2186
  158MOL0     H21799   9.938  10.138  10.509 -2.2051  2.5770  0.7401
  158MOL0     H21800  10.253   9.882  10.561  2.2393  1.9259  1.8595
  158MOL0     H21801   9.400  10.360  10.670 -0.9828  1.9777 -1.0535
  158MOL0     H21802   9.151  10.442  10.897 -2.2441  0.6191 -1.0682
  158MOL0     H21803   9.195  10.587  10.801  1.4088  0.8543  0.5982
  158MOL0     H21804   9.189  10.418  10.734  0.6555  2.2065  0.1224
  159MOL0     O21805   6.029   8.008  10.640 -0.2834  0.1688  0.1496
  159MOL0     C21806   5.957   8.018  10.735 -0.9954  0.1563 -1.1433
  159MOL0     O21807   5.945   7.921  10.829 -0.6386 -0.8149  0.3584
  159MOL0     C21808   6.051   7.828  10.838 -1.0597 -0.1724 -0.1432
  159MOL0     C21809   6.187   7.861  10.849  0.3074  0.1901  0.3644
  159MOL0     C21810   6.282   7.754  10.866  0.5381 -0.3874  0.6448
  159MOL0     C21811   6.250   7.623  10.883  0.2964  0.7649 -0.2775
  159MOL0     O21812   6.343   7.528  10.909 -0.0087  0.4356  0.1124
  159MOL0     C21813   6.473   7.563  10.868 -0.5049 -0.0898 -0.0065
  159MOL0     C21814   6.567   7.439  10.877 -0.9332  0.2238 -1.1798
  159MOL0     C21815   6.542   7.328  10.771  1.3914  0.2264 -0.1668
  159MOL0     C21816   6.662   7.234  10.766 -0.5942  0.5808 -0.5246
  159MOL0     C21817   6.646   7.136  10.646 -0.9654  0.4562  0.2731
  159MOL0     C21818   6.779   7.056  10.617 -0.8940  0.2598  0.0991
  159MOL0     C21819   6.789   7.007  10.469  0.0082  0.1508  0.0334
  159MOL0     C21820   6.672   6.920  10.423 -0.0744 -0.0996 -0.1336
  159MOL0     N21821   6.665   6.964  10.282  0.3429 -0.0028 -0.4202
  159MOL0     C21822   6.573   7.050  10.234  0.6511  0.0127 -0.4360
  159MOL0     C21823   6.596   7.036  10.103  0.0214 -0.1573  0.3017
  159MOL0     C21824   6.520   7.113  10.000  0.1198  0.1617  0.9731
  159MOL0     C21825   6.623   7.206   9.917  0.7384 -0.1647  0.5275
  159MOL0     C21826   6.552   7.327   9.837 -0.1863  0.0777 -0.0137
  159MOL0     C21827   6.447   7.285   9.739 -0.1178 -0.0723 -0.3705
  159MOL0     O21828   6.505   7.218   9.625 -0.1053  0.0033  0.2458
  159MOL0     C21829   6.411   7.166   9.536 -0.2701 -1.4678  0.1474
  159MOL0     C21830   6.324   7.066   9.566  0.7639  0.3315  0.2266
  159MOL0     C21831   6.228   7.017   9.474 -0.7064 -0.8929  0.3684
  159MOL0     C21832   6.148   6.899   9.521 -0.1428 -0.4328  0.7354
  159MOL0     C21833   6.215   7.079   9.348  0.1282  0.0945  0.8842
  159MOL0     C21834   6.109   7.048   9.253 -0.2884 -0.5333 -0.2687
  159MOL0     O21835   6.124   7.098   9.130 -0.3185  0.8406 -0.2308
  159MOL0     C21836   6.003   7.126   9.076 -0.4569 -0.2006  0.4432
  159MOL0     C21837   5.949   7.254   9.076  0.5114  0.3178  0.4259
  159MOL0     C21838   5.835   7.275   8.999 -0.8964 -0.0413  0.3372
  159MOL0     C21839   5.764   7.178   8.930 -0.5411 -0.6158  0.0006
  159MOL0     O21840   5.645   7.215   8.879  0.1138 -0.2910 -0.4843
  159MOL0     C21841   5.611   7.185   8.748 -0.8083  1.2869 -0.1769
  159MOL0     C21842   5.463   7.214   8.721 -0.2215 -0.3963 -0.5061
  159MOL0     C21843   5.374   7.115   8.794  0.3578 -0.2553 -0.2806
  159MOL0     C21844   5.229   7.157   8.774  0.8252 -0.0075 -0.7366
  159MOL0     C21845   5.134   7.040   8.809  0.0830 -0.4683 -0.1015
  159MOL0     C21846   4.984   7.058   8.777 -0.7471  1.2586 -1.3713
  159MOL0     C21847   4.950   7.023   8.634 -0.3054  0.0751 -0.4277
  159MOL0     C21848   4.798   7.003   8.627 -0.1827  1.1172 -0.3684
  159MOL0    Cl21849   4.760   6.964   8.464  0.4775 -0.1711  0.0127
  159MOL0     C21850   5.817   7.047   8.938 -0.3972 -0.1459 -0.0757
  159MOL0     C21851   5.934   7.020   8.997  0.0896 -0.0227 -0.0757
  159MOL0     O21852   6.015   6.985   9.291  0.2002  0.0496  0.7465
  159MOL0     C21853   6.314   7.176   9.311 -0.0456 -0.1582 -0.2086
  159MOL0     C21854   6.414   7.210   9.403  0.6631  0.7364 -0.4408
  159MOL0     N21855   6.687   6.935  10.068 -1.3263  0.2729  0.0328
  159MOL0     N21856   6.726   6.894  10.181  0.4449  1.1607  0.3325
  159MOL0     C21857   6.119   7.594  10.876  0.6070  0.5710 -0.0447
  159MOL0     C21858   6.022   7.690  10.849  0.3472  0.2139 -1.0430
  159MOL0     C21859   5.856   8.128  10.727 -0.0997 -0.2170  0.1079
  159MOL0     C21860   5.857   8.211  10.615  1.0863  0.1195  0.3475
  159MOL0     C21861   5.745   8.296  10.587 -0.1977  0.0949 -0.4790
  159MOL0     C21862   5.638   8.307  10.677 -0.1262 -0.0598 -0.4376
  159MOL0     O21863   5.518   8.364  10.650  0.7426 -0.3401 -0.3352
  159MOL0     C21864   5.489   8.403  10.517 -0.4545  0.0180  0.0837
  159MOL0     C21865   5.468   8.299  10.415  1.2164 -0.3216 -1.2832
  159MOL0     C21866   5.347   8.215  10.455  0.0238 -0.6811  0.3478
  159MOL0     C21867   5.312   8.125  10.339  0.1535 -0.0161 -0.6553
  159MOL0     C21868   5.257   8.202  10.225  0.9977  0.1321 -0.8766
  159MOL0     C21869   5.218   8.242  10.116 -0.1392 -0.7730  0.1742
  159MOL0     C21870   5.650   8.240  10.800  0.1379  0.5675  0.6233
  159MOL0     C21871   5.760   8.154  10.829 -0.2176  0.1861 -0.1025
  159MOL0     C21872   5.781   8.093  10.970  0.4562 -0.3839  0.4794
  159MOL0     H21873   6.214   7.965  10.844  1.3137 -0.0761  0.1672
  159MOL0     H21874   6.385   7.786  10.875  0.8336 -1.6816  2.6202
  159MOL0     H21875   6.509   7.636  10.941  3.5578 -3.4022  1.7191
  159MOL0     H21876   6.476   7.588  10.762  0.4262 -0.0818  0.0153
  159MOL0     H21877   6.674   7.461  10.877 -0.3753 -1.9344  1.8716
  159MOL0     H21878   6.548   7.395  10.975  3.3499 -1.2445 -0.8360
  159MOL0     H21879   6.452   7.275  10.801 -0.4502  3.7544  1.1431
  159MOL0     H21880   6.526   7.394  10.685 -4.3653  0.6834  0.8821
  159MOL0     H21881   6.758   7.285  10.755 -0.2551  0.0758  0.0339
  159MOL0     H21882   6.677   7.179  10.860 -2.2933 -0.6874 -0.9489
  159MOL0     H21883   6.628   7.203  10.560  0.6844  0.1362 -0.3606
  159MOL0     H21884   6.555   7.075  10.652 -1.3310  0.6666 -2.0529
  159MOL0     H21885   6.862   7.128  10.616 -0.0377 -0.7125 -0.2499
  159MOL0     H21886   6.809   6.974  10.683  0.0769  1.5163  1.3047
  159MOL0     H21887   6.881   6.957  10.440 -0.0311 -1.0966  1.8792
  159MOL0     H21888   6.785   7.101  10.413  0.1067 -0.2910 -0.7266
  159MOL0     H21889   6.674   6.811  10.421  0.5267 -0.0931 -2.1189
  159MOL0     H21890   6.581   6.943  10.479  0.6293 -1.8405  1.8566
  159MOL0     H21891   6.516   7.121  10.294 -0.3710  0.3799 -1.7953
  159MOL0     H21892   6.442   7.181  10.034  1.2579  1.2580  1.4988
  159MOL0     H21893   6.478   7.035   9.936 -0.7183 -0.0276  1.7375
  159MOL0     H21894   6.687   7.251   9.993 -0.5710  2.0506  0.3962
  159MOL0     H21895   6.681   7.145   9.847  1.5661 -0.3318  1.3481
  159MOL0     H21896   6.497   7.386   9.911 -3.3567  0.1230 -2.2221
  159MOL0     H21897   6.624   7.383   9.777 -0.0011 -1.3178 -1.1334
  159MOL0     H21898   6.385   7.214   9.794 -0.4436  0.7800  0.3920
  159MOL0     H21899   6.376   7.365   9.716 -0.0975  1.6523  4.4809
  159MOL0     H21900   6.335   7.024   9.665 -1.7703  0.8413  0.7844
  159MOL0     H21901   6.193   6.856   9.611  2.2394 -1.9271 -1.0339
  159MOL0     H21902   6.131   6.830   9.438  1.5298 -0.0653  0.0476
  159MOL0     H21903   6.051   6.938   9.551  0.4998  2.3105 -0.3903
  159MOL0     H21904   6.005   7.335   9.123  1.4082 -0.4364  0.6789
  159MOL0     H21905   5.795   7.375   8.987  0.7877  0.6768  0.3829
  159MOL0     H21906   5.667   7.240   8.672 -1.6898  1.8044 -0.4601
  159MOL0     H21907   5.622   7.078   8.727  0.0719  1.4352 -0.4938
  159MOL0     H21908   5.443   7.314   8.759  2.0758  0.9519 -2.5314
  159MOL0     H21909   5.436   7.215   8.615 -3.0815 -0.3048  0.1505
  159MOL0     H21910   5.400   7.125   8.900 -0.4713  1.4209 -0.2088
  159MOL0     H21911   5.396   7.011   8.765  3.1239 -0.3550  1.7843
  159MOL0     H21912   5.213   7.185   8.670  2.8452  2.1827 -0.5230
  159MOL0     H21913   5.215   7.244   8.840  3.1891 -1.9448  2.6381
  159MOL0     H21914   5.189   6.962   8.755  0.0430  0.2718 -1.2392
  159MOL0     H21915   5.132   7.002   8.912 -4.4637 -0.2481  0.0908
  159MOL0     H21916   4.946   7.158   8.795 -3.2031  0.0729  0.6510
  159MOL0     H21917   4.931   6.984   8.838  2.5956 -0.2600 -0.0779
  159MOL0     H21918   4.999   6.928   8.613 -1.4599 -0.7564  0.4850
  159MOL0     H21919   4.995   7.097   8.567  4.1625 -3.7227 -2.1411
  159MOL0     H21920   4.762   7.100   8.663  2.3020  1.6249  0.9454
  159MOL0     H21921   4.784   6.924   8.702  2.6443 -0.2293 -1.1200
  159MOL0     H21922   5.763   6.966   8.890  1.4488 -0.7210 -1.2966
  159MOL0     H21923   5.990   6.928   9.007  2.7987  1.3883 -1.1427
  159MOL0     H21924   6.308   7.227   9.215 -1.2993  1.6426  0.7818
  159MOL0     H21925   6.495   7.273   9.367  2.0524 -2.0636 -2.6399
  159MOL0     H21926   6.090   7.490  10.876 -0.7973  0.9013  2.2270
  159MOL0     H21927   5.917   7.663  10.858  0.0341  0.4447 -3.4372
  159MOL0     H21928   5.929   8.201  10.535 -1.7261 -0.1593 -2.3458
  159MOL0     H21929   5.738   8.350  10.493  1.5307  0.3264 -0.5089
  159MOL0     H21930   5.408   8.475  10.525  0.5632  1.5486 -2.2474
  159MOL0     H21931   5.574   8.466  10.488  0.0148  0.3161  1.9889
  159MOL0     H21932   5.557   8.236  10.408  0.3698 -2.2624  2.7009
  159MOL0     H21933   5.445   8.352  10.322 -1.5475 -0.1954 -0.6155
  159MOL0     H21934   5.388   8.149  10.532  3.7105  0.3698 -0.5311
  159MOL0     H21935   5.268   8.278  10.496  3.5261  1.8022  3.9748
  159MOL0     H21936   5.241   8.044  10.358 -0.4853  1.1945  2.7281
  159MOL0     H21937   5.404   8.075  10.309  0.5094  0.8896 -1.1162
  159MOL0     H21938   5.171   8.267  10.024 -1.0169 -2.4178  0.1377
  159MOL0     H21939   5.570   8.242  10.873  2.3716  0.1993  3.2467
  159MOL0     H21940   5.742   8.171  11.036  1.2892  0.2449  0.2540
  159MOL0     H21941   5.735   7.995  10.977  1.3874 -0.8679  0.0664
  159MOL0     H21942   5.887   8.087  10.999  1.2975  2.9478 -1.3888
  160MOL0     O21943   9.459   6.715   4.989  0.4413  0.7651 -0.7098
  160MOL0     C21944   9.370   6.632   5.000  0.7452  0.0769  0.2030
  160MOL0     O21945   9.284   6.632   5.104 -0.1473  0.1405  0.0003
  160MOL0     C21946   9.323   6.687   5.230 -1.1626 -0.5818 -0.0830
  160MOL0     C21947   9.218   6.718   5.317  0.2957  0.9275  0.0065
  160MOL0     C21948   9.240   6.776   5.446 -0.4448 -0.5593  0.5982
  160MOL0     C21949   9.373   6.812   5.476 -0.0828 -0.8816  0.0098
  160MOL0     O21950   9.401   6.877   5.598  0.3204 -0.4596  0.2963
  160MOL0     C21951   9.360   6.807   5.716 -0.0319 -0.2592 -0.4971
  160MOL0     C21952   9.332   6.904   5.832  0.6036  0.7746  0.4565
  160MOL0     C21953   9.235   7.018   5.788 -0.6185 -0.6467  0.0045
  160MOL0     C21954   9.199   7.096   5.913 -1.2590 -0.6120  0.7078
  160MOL0     C21955   9.139   7.239   5.912  0.7073 -0.7104  0.0646
  160MOL0     C21956   8.990   7.240   5.865 -1.3391  0.0144  0.2375
  160MOL0     C21957   8.914   7.375   5.882  0.3745  0.2638 -0.3962
  160MOL0     C21958   8.956   7.472   5.767  0.4691  0.9827  0.0471
  160MOL0     N21959   8.940   7.610   5.808 -0.0283  0.5440  0.0027
  160MOL0     C21960   9.034   7.712   5.824  0.8546 -0.3716  0.1216
  160MOL0     C21961   8.959   7.815   5.868 -0.4518  0.1419 -0.3805
  160MOL0     C21962   9.028   7.946   5.897  0.3803 -0.3500 -0.4802
  160MOL0     C21963   9.066   8.008   5.765 -0.4709 -0.4141 -0.3010
  160MOL0     C21964   9.018   8.159   5.782  0.2519  0.4316  0.7826
  160MOL0     C21965   9.076   8.253   5.672  0.9046 -0.5384 -0.2861
  160MOL0     O21966   9.216   8.243   5.637  0.1911  0.3497 -0.1477
  160MOL0     C21967   9.250   8.273   5.505  0.7282  0.2871 -0.2179
  160MOL0     C21968   9.369   8.215   5.455 -0.2600 -0.1652 -0.8880
  160MOL0     C21969   9.432   8.259   5.342  0.8448 -0.3679  0.4175
  160MOL0     C21970   9.563   8.191   5.315 -0.7083  0.9550 -0.2054
  160MOL0     C21971   9.354   8.354   5.256  0.2025 -0.1073 -0.6170
  160MOL0     C21972   9.385   8.399   5.122 -0.4982  0.0745 -0.4436
  160MOL0     O21973   9.292   8.472   5.058  1.0119 -0.3583 -0.4042
  160MOL0     C21974   9.296   8.528   4.926  0.1059  0.1528 -0.1140
  160MOL0     C21975   9.173   8.593   4.894 -0.4946 -0.2511  0.0348
  160MOL0     C21976   9.149   8.650   4.768 -0.3969 -0.0315 -0.5859
  160MOL0     C21977   9.246   8.636   4.672 -0.6116 -0.6845 -0.3450
  160MOL0     O21978   9.222   8.693   4.545  0.5575 -0.4572  0.2596
  160MOL0     C21979   9.323   8.768   4.476 -0.7818  0.1972 -0.0441
  160MOL0     C21980   9.267   8.863   4.365 -0.4925 -0.2012 -0.1532
  160MOL0     C21981   9.250   8.813   4.227 -0.1992 -0.1053  0.1131
  160MOL0     C21982   9.175   8.912   4.139  0.1662  0.0597  0.9379
  160MOL0     C21983   9.144   8.853   3.997 -0.1424  0.7383  0.9754
  160MOL0     C21984   9.271   8.830   3.916  0.6936 -0.1525  0.8492
  160MOL0     C21985   9.255   8.834   3.757 -0.8984  0.4425 -0.4829
  160MOL0     C21986   9.203   8.708   3.692 -1.2270 -0.1105  0.1225
  160MOL0    Cl21987   9.034   8.695   3.732 -0.1961  0.6548  0.5198
  160MOL0     C21988   9.369   8.564   4.701  1.1671 -0.2563 -0.5478
  160MOL0     C21989   9.396   8.524   4.830  0.3156 -0.3723 -1.1270
  160MOL0     O21990   9.486   8.349   5.073  0.2915  0.3197  1.0688
  160MOL0     C21991   9.229   8.396   5.301  0.1496  0.0192  0.1035
  160MOL0     C21992   9.176   8.357   5.428  0.0813 -0.2774 -0.4778
  160MOL0     N21993   8.832   7.760   5.902  0.1197  0.5533  0.0758
  160MOL0     N21994   8.819   7.637   5.867  0.8814 -0.6680 -1.4074
  160MOL0     C21995   9.476   6.781   5.388  0.4093  0.3304  0.1089
  160MOL0     C21996   9.460   6.711   5.273 -0.0978  0.4339  0.2310
  160MOL0     C21997   9.364   6.522   4.896  0.1578 -0.6044 -0.1278
  160MOL0     C21998   9.455   6.520   4.786 -0.7961 -0.2315  0.2725
  160MOL0     C21999   9.460   6.434   4.680  0.2194  1.0740  0.5157
  160MOL0     C22000   9.377   6.327   4.685 -0.0121 -0.1063 -0.3184
  160MOL0     O22001   9.403   6.234   4.584  0.0207 -0.4212  0.7689
  160MOL0     C22002   9.316   6.127   4.556 -0.4266  0.1294  0.3566
  160MOL0     C22003   9.396   6.027   4.476 -0.8232 -0.0254  0.0370
  160MOL0     C22004   9.297   5.907   4.451  0.6584  0.6229 -0.5027
  160MOL0     C22005   9.352   5.788   4.355 -0.1258 -0.2537 -0.2140
  160MOL0     C22006   9.359   5.815   4.216 -0.0432  0.3265 -0.2129
  160MOL0     C22007   9.341   5.862   4.100  0.5129 -0.7403 -0.6940
  160MOL0     C22008   9.285   6.318   4.790 -0.5916 -0.3792 -0.4305
  160MOL0     C22009   9.282   6.411   4.895  0.2820 -1.0053  0.2750
  160MOL0     C22010   9.195   6.367   5.015  0.6611  0.6766  0.2400
  160MOL0     H22011   9.117   6.699   5.281  1.4153  0.0063 -2.9215
  160MOL0     H22012   9.155   6.808   5.506 -0.7896  0.6380 -0.4701
  160MOL0     H22013   9.438   6.737   5.746 -3.6867 -3.3262  3.0443
  160MOL0     H22014   9.272   6.748   5.689  1.7117 -1.4580 -4.2032
  160MOL0     H22015   9.278   6.845   5.907  0.0521  0.6174 -0.0513
  160MOL0     H22016   9.425   6.936   5.878 -0.0112  2.3812  0.6365
  160MOL0     H22017   9.281   7.084   5.714 -0.1603  2.0543  2.5043
  160MOL0     H22018   9.142   6.981   5.746 -0.5657 -0.6497 -0.1082
  160MOL0     H22019   9.135   7.031   5.974  0.7172 -2.3630  1.0144
  160MOL0     H22020   9.292   7.118   5.965 -1.1935  1.7900 -0.2982
  160MOL0     H22021   9.212   7.295   5.852  1.3919  1.1546  2.4660
  160MOL0     H22022   9.134   7.295   6.006  1.2927  0.1220 -0.3808
  160MOL0     H22023   8.993   7.230   5.756 -2.0510  1.0158  0.1087
  160MOL0     H22024   8.930   7.171   5.925  0.4929 -0.5109  1.5795
  160MOL0     H22025   8.941   7.421   5.977 -0.9490  0.0119  0.1231
  160MOL0     H22026   8.806   7.359   5.875  0.6183 -2.3073  0.5721
  160MOL0     H22027   9.058   7.451   5.733 -0.1098 -0.1250 -1.0976
  160MOL0     H22028   8.882   7.460   5.687  0.5948 -0.1663  0.0751
  160MOL0     H22029   9.139   7.712   5.799  0.6993  0.4088 -0.5612
  160MOL0     H22030   9.111   7.922   5.965 -0.2761 -0.4340  0.2973
  160MOL0     H22031   8.947   8.006   5.937 -0.7343 -2.8983  1.3938
  160MOL0     H22032   9.174   8.014   5.748 -0.3947  3.0561  0.6863
  160MOL0     H22033   9.025   7.962   5.675  0.3519 -1.5319 -0.1297
  160MOL0     H22034   8.910   8.168   5.765  0.7305  2.5025 -1.8124
  160MOL0     H22035   9.033   8.202   5.882  2.6776 -2.7981  1.9766
  160MOL0     H22036   9.013   8.222   5.588 -0.0192  0.6360 -0.0502
  160MOL0     H22037   9.058   8.359   5.692  1.7390 -0.5422  0.5312
  160MOL0     H22038   9.414   8.133   5.511 -3.2051 -1.1337  0.2727
  160MOL0     H22039   9.553   8.096   5.262  0.1246 -0.7785  2.5272
  160MOL0     H22040   9.615   8.186   5.411 -1.9455  0.9218  0.4747
  160MOL0     H22041   9.622   8.264   5.258  0.7320 -0.2361 -0.3311
  160MOL0     H22042   9.093   8.592   4.967 -0.2938  3.0120  0.4647
  160MOL0     H22043   9.055   8.700   4.749 -0.6919 -0.5382 -0.4742
  160MOL0     H22044   9.362   8.833   4.555 -0.8090  0.4195 -0.2135
  160MOL0     H22045   9.412   8.715   4.442  1.5301  1.5893  3.2944
  160MOL0     H22046   9.166   8.896   4.390 -1.1501 -2.4410  0.4112
  160MOL0     H22047   9.328   8.954   4.358 -1.4783  0.5672  1.0138
  160MOL0     H22048   9.186   8.724   4.225  1.8590 -1.6493 -2.2245
  160MOL0     H22049   9.347   8.784   4.186  0.4007  1.9292 -0.0174
  160MOL0     H22050   9.242   8.998   4.126  0.9034 -0.9674 -4.8537
  160MOL0     H22051   9.081   8.933   4.191 -0.0495 -2.2875  1.5833
  160MOL0     H22052   9.079   8.766   4.006 -0.9118  1.0193 -1.2139
  160MOL0     H22053   9.070   8.918   3.950 -0.0993  0.1177  0.0085
  160MOL0     H22054   9.317   8.741   3.959  0.3155 -3.1068 -4.0452
  160MOL0     H22055   9.319   8.927   3.934  2.8708 -1.3953  2.0789
  160MOL0     H22056   9.359   8.843   3.726  0.4297  1.6195  3.7206
  160MOL0     H22057   9.192   8.921   3.734 -0.5160  1.6871  2.7352
  160MOL0     H22058   9.256   8.624   3.737  0.0155  1.8323  2.4963
  160MOL0     H22059   9.225   8.707   3.585 -3.7648  1.7463 -0.5115
  160MOL0     H22060   9.450   8.558   4.629  1.8476  1.6251 -0.0074
  160MOL0     H22061   9.497   8.494   4.857  1.9537  5.3090  0.3935
  160MOL0     H22062   9.155   8.444   5.238 -0.9189 -1.0042  0.5397
  160MOL0     H22063   9.078   8.400   5.445  0.6805  1.8536 -2.0154
  160MOL0     H22064   9.580   6.790   5.419  0.3125 -0.3115  0.6490
  160MOL0     H22065   9.544   6.688   5.207  1.6797  2.7679  1.5009
  160MOL0     H22066   9.534   6.595   4.794 -1.4139  0.2133  3.8827
  160MOL0     H22067   9.523   6.421   4.592 -2.5398 -2.2084 -1.2529
  160MOL0     H22068   9.287   6.088   4.654  0.3568 -0.1432  0.4889
  160MOL0     H22069   9.226   6.156   4.502 -0.7715 -2.1727 -0.3970
  160MOL0     H22070   9.485   5.995   4.531 -0.5977 -0.8945 -0.7950
  160MOL0     H22071   9.416   6.070   4.378 -3.0331 -0.0645 -0.4901
  160MOL0     H22072   9.266   5.852   4.541 -0.9017 -0.0502 -1.4171
  160MOL0     H22073   9.196   5.940   4.423 -0.1878 -0.0542  1.5308
  160MOL0     H22074   9.278   5.710   4.373 -1.8691  0.5651 -3.2202
  160MOL0     H22075   9.451   5.754   4.387 -0.0393 -0.2527 -0.4742
  160MOL0     H22076   9.323   5.912   4.007  1.2789 -0.6032 -0.7745
  160MOL0     H22077   9.213   6.237   4.785 -3.2511  1.9521 -2.6093
  160MOL0     H22078   9.206   6.258   5.021  0.4793  0.7238  2.2110
  160MOL0     H22079   9.225   6.402   5.115 -0.8530 -0.2062  1.0530
  160MOL0     H22080   9.089   6.385   4.995  0.1961 -1.4114  0.5853
  161MOL0     O22081   8.722   4.340   3.288  0.1102  0.2531 -0.5537
  161MOL0     C22082   8.816   4.269   3.263 -0.9452 -0.0198 -0.1155
  161MOL0     O22083   8.855   4.163   3.339  0.6892 -0.5537  0.1604
  161MOL0     C22084   8.797   4.128   3.463  0.5737 -0.2811  0.4047
  161MOL0     C22085   8.764   3.995   3.474 -0.6146  0.0956  0.2035
  161MOL0     C22086   8.691   3.946   3.590  0.6167  0.2307  0.8802
  161MOL0     C22087   8.647   4.035   3.692  0.0047 -0.1764  0.7319
  161MOL0     O22088   8.583   4.000   3.811  0.4559 -0.4452  0.8788
  161MOL0     C22089   8.565   3.860   3.826 -0.1741  1.4871 -1.4512
  161MOL0     C22090   8.688   3.773   3.864 -1.0922 -0.1664 -0.7725
  161MOL0     C22091   8.667   3.620   3.862 -0.5656  0.3149  0.1896
  161MOL0     C22092   8.791   3.529   3.872  0.6223 -0.2815 -0.8491
  161MOL0     C22093   8.771   3.381   3.827 -0.1325  0.7917 -0.0662
  161MOL0     C22094   8.896   3.307   3.766  0.8256 -0.2717  0.2198
  161MOL0     C22095   8.866   3.171   3.715 -0.3864  0.0139  0.8955
  161MOL0     C22096   8.878   3.149   3.567 -0.3921  0.9402 -0.1473
  161MOL0     N22097   8.754   3.210   3.500  0.0571  0.2382 -0.3541
  161MOL0     C22098   8.656   3.143   3.442 -0.7748 -0.0346  0.2964
  161MOL0     C22099   8.575   3.231   3.380 -0.7048 -0.0291  0.0301
  161MOL0     C22100   8.458   3.189   3.304 -0.3153  0.3730 -0.8121
  161MOL0     C22101   8.491   3.202   3.154  0.2076  0.3380  0.1885
  161MOL0     C22102   8.362   3.215   3.061  1.1571 -0.8406  0.3882
  161MOL0     C22103   8.258   3.103   3.044  0.0455 -0.4094 -0.4921
  161MOL0     O22104   8.316   2.990   2.990 -0.6989  0.5816  0.8325
  161MOL0     C22105   8.247   2.875   3.015  0.2321  0.1384 -0.5957
  161MOL0     C22106   8.113   2.865   3.014  0.2743 -0.1149 -0.5207
  161MOL0     C22107   8.045   2.744   3.012 -1.3171 -0.2240  0.4579
  161MOL0     C22108   7.902   2.760   2.986 -0.3931  0.2570 -0.2326
  161MOL0     C22109   8.123   2.621   3.002 -0.1123 -0.2409  0.1715
  161MOL0     C22110   8.058   2.494   2.972  0.9531 -0.0245  0.7931
  161MOL0     O22111   7.925   2.476   3.019  0.3050 -0.3692 -0.0215
  161MOL0     C22112   7.847   2.376   2.981  0.0927  1.0470 -0.0309
  161MOL0     C22113   7.777   2.375   2.858  0.1971 -1.0448 -0.0487
  161MOL0     C22114   7.699   2.268   2.818  0.2545 -0.3689 -0.0444
  161MOL0     C22115   7.699   2.151   2.896 -0.4503 -0.8985  0.4933
  161MOL0     O22116   7.659   2.036   2.838  0.2480 -0.5777  0.3745
  161MOL0     C22117   7.734   2.009   2.718  0.0031 -0.3976 -0.0925
  161MOL0     C22118   7.816   1.885   2.733  0.6254  0.1929  0.3084
  161MOL0     C22119   7.941   1.878   2.823 -0.2918  0.2257  0.4299
  161MOL0     C22120   8.056   1.965   2.777 -0.2866 -0.5787 -1.1086
  161MOL0     C22121   8.175   1.894   2.716 -0.8925  0.5178 -0.4161
  161MOL0     C22122   8.125   1.813   2.591  0.0252  0.7745 -0.0093
  161MOL0     C22123   8.223   1.704   2.540  0.1449  0.6424  0.3413
  161MOL0     C22124   8.199   1.689   2.389 -0.2138  0.1222 -0.0348
  161MOL0    Cl22125   8.282   1.818   2.289 -0.0120  0.2185 -0.1262
  161MOL0     C22126   7.742   2.153   3.028  0.5243 -0.9293 -0.5583
  161MOL0     C22127   7.815   2.262   3.070  0.4474  0.2663 -0.5701
  161MOL0     O22128   8.119   2.401   2.918 -0.0736 -0.0324  0.0703
  161MOL0     C22129   8.263   2.632   3.019 -0.0661  0.8464 -0.0504
  161MOL0     C22130   8.323   2.762   3.016  0.1342  0.2458 -0.3549
  161MOL0     N22131   8.629   3.358   3.401 -1.1680  0.2674  0.0287
  161MOL0     N22132   8.737   3.343   3.477 -0.0326  0.3609 -0.9904
  161MOL0     C22133   8.694   4.170   3.681  0.2848  0.6041  0.0649
  161MOL0     C22134   8.770   4.213   3.568  0.0447  0.0462  0.9789
  161MOL0     C22135   8.891   4.301   3.144 -0.9371 -0.2099  0.0071
  161MOL0     C22136   8.897   4.440   3.112  1.1709 -0.3451 -0.5168
  161MOL0     C22137   8.959   4.495   3.001 -0.6822 -0.7115  0.4557
  161MOL0     C22138   9.025   4.419   2.913 -0.3494  0.2751 -0.5105
  161MOL0     O22139   9.101   4.477   2.815  0.3540 -1.7365 -0.3037
  161MOL0     C22140   9.195   4.581   2.844 -0.6433 -0.0980 -0.1439
  161MOL0     C22141   9.309   4.616   2.748  0.3978  0.4927 -0.8569
  161MOL0     C22142   9.428   4.519   2.749 -0.0034 -0.1993  0.1857
  161MOL0     C22143   9.500   4.556   2.620 -0.1239  0.0648  0.4385
  161MOL0     C22144   9.614   4.460   2.605  0.5919 -0.2543  0.2634
  161MOL0     C22145   9.712   4.390   2.611  0.4597 -0.2613  0.1821
  161MOL0     C22146   9.019   4.285   2.928 -0.0821  0.3974 -0.1040
  161MOL0     C22147   8.954   4.217   3.041 -0.1985  0.5480 -0.5221
  161MOL0     C22148   8.968   4.069   3.057 -0.4755  0.4305  0.4682
  161MOL0     H22149   8.806   3.927   3.401 -2.9290 -0.7580 -0.4184
  161MOL0     H22150   8.680   3.838   3.592  0.1894  0.2835  1.5471
  161MOL0     H22151   8.513   3.812   3.742 -1.2180 -2.7228  1.2654
  161MOL0     H22152   8.486   3.842   3.900  1.1915 -0.9114 -0.4739
  161MOL0     H22153   8.768   3.788   3.791  0.4790 -0.1568  0.8951
  161MOL0     H22154   8.718   3.798   3.966 -3.3657 -0.0339 -0.0631
  161MOL0     H22155   8.603   3.591   3.946 -1.4011 -0.6416 -0.7608
  161MOL0     H22156   8.611   3.605   3.770 -5.5482  1.9008  2.6227
  161MOL0     H22157   8.858   3.586   3.808  0.0445  1.3124 -0.0812
  161MOL0     H22158   8.828   3.531   3.975 -1.3508  0.3485 -0.1075
  161MOL0     H22159   8.688   3.376   3.756 -0.0741 -1.1437 -0.0585
  161MOL0     H22160   8.737   3.327   3.916  0.2184 -1.8568 -1.4255
  161MOL0     H22161   8.934   3.376   3.689  1.4416  1.4167  1.9401
  161MOL0     H22162   8.970   3.313   3.846  0.8110  0.5766  0.1824
  161MOL0     H22163   8.764   3.135   3.733 -0.0398 -1.9273 -0.6697
  161MOL0     H22164   8.932   3.105   3.771 -0.5829 -0.4225  0.6237
  161MOL0     H22165   8.976   3.185   3.534 -0.5996  1.6823  0.0422
  161MOL0     H22166   8.883   3.041   3.549 -2.3008  0.8874 -0.5436
  161MOL0     H22167   8.636   3.037   3.433 -0.0908 -0.1230 -0.3127
  161MOL0     H22168   8.378   3.261   3.324 -1.4301 -0.6240 -1.5675
  161MOL0     H22169   8.437   3.085   3.329  4.2479 -0.1177  2.1565
  161MOL0     H22170   8.545   3.297   3.158  1.2846 -0.2841  2.4680
  161MOL0     H22171   8.547   3.122   3.105 -0.4889 -0.8584  1.2998
  161MOL0     H22172   8.308   3.305   3.092 -0.7104 -1.3726 -1.1096
  161MOL0     H22173   8.395   3.239   2.960 -1.8005 -2.4030 -1.0604
  161MOL0     H22174   8.222   3.079   3.145  3.1193  1.8431  1.3057
  161MOL0     H22175   8.174   3.132   2.980 -1.2404 -1.8462  0.4543
  161MOL0     H22176   8.060   2.959   3.011 -0.2955 -0.4033  0.1294
  161MOL0     H22177   7.884   2.867   2.991  3.3439  1.1056 -1.8139
  161MOL0     H22178   7.835   2.717   3.061  0.0411  1.0586  0.6328
  161MOL0     H22179   7.875   2.716   2.890 -0.4343  3.8247 -2.0111
  161MOL0     H22180   7.773   2.465   2.797 -0.9568  0.4025  2.0357
  161MOL0     H22181   7.649   2.263   2.722  0.9296  0.1540 -0.4237
  161MOL0     H22182   7.666   2.006   2.632 -2.0213  0.4852  1.3761
  161MOL0     H22183   7.798   2.094   2.694 -1.7671  1.1366  0.3285
  161MOL0     H22184   7.750   1.808   2.776 -4.3077  1.0970 -4.4915
  161MOL0     H22185   7.838   1.847   2.632 -2.7154 -1.1696 -0.0482
  161MOL0     H22186   7.971   1.774   2.841  0.1837  0.3753  0.5212
  161MOL0     H22187   7.904   1.911   2.920 -2.6766  0.0986 -0.3862
  161MOL0     H22188   8.086   2.011   2.872 -0.9636  0.6370 -1.4632
  161MOL0     H22189   8.024   2.041   2.706  2.6193  1.4516 -0.4342
  161MOL0     H22190   8.244   1.969   2.677  0.1251  0.9941  2.1240
  161MOL0     H22191   8.218   1.832   2.795  2.2445 -0.1047 -2.4315
  161MOL0     H22192   8.110   1.888   2.512  1.8233  0.1844 -0.9794
  161MOL0     H22193   8.029   1.766   2.610  1.2974 -1.4533  1.2758
  161MOL0     H22194   8.209   1.607   2.588  1.6106  1.0932  1.7763
  161MOL0     H22195   8.325   1.733   2.566  0.5914 -1.7264  1.4347
  161MOL0     H22196   8.093   1.683   2.361  0.1079 -0.7953 -1.1644
  161MOL0     H22197   8.249   1.594   2.366 -0.7225 -0.8708  2.5886
  161MOL0     H22198   7.729   2.060   3.081 -0.4529 -1.2235 -1.2895
  161MOL0     H22199   7.853   2.261   3.171 -1.4119  0.4798  0.1618
  161MOL0     H22200   8.334   2.550   3.018 -1.4407 -0.4258  1.9561
  161MOL0     H22201   8.431   2.776   3.013  0.3211 -0.9776  0.0200
  161MOL0     H22202   8.666   4.232   3.765 -1.9766 -1.2739  0.7809
  161MOL0     H22203   8.794   4.318   3.565 -1.6968  0.6588  4.2720
  161MOL0     H22204   8.830   4.505   3.167  2.3342 -2.0508  3.2264
  161MOL0     H22205   8.962   4.603   2.995 -0.9931 -0.4923  2.9711
  161MOL0     H22206   9.135   4.671   2.861  0.7985  1.3202 -2.1663
  161MOL0     H22207   9.248   4.553   2.936 -0.4221 -0.8503 -0.4936
  161MOL0     H22208   9.349   4.715   2.772 -0.4417  0.9183 -1.1452
  161MOL0     H22209   9.263   4.622   2.648  1.9491  2.2685 -1.5208
  161MOL0     H22210   9.488   4.548   2.836 -0.3309  0.9811  0.0309
  161MOL0     H22211   9.399   4.414   2.760 -0.9129 -0.3577 -2.9457
  161MOL0     H22212   9.526   4.663   2.624 -3.6492  1.0293  2.5501
  161MOL0     H22213   9.428   4.540   2.540  0.1559 -0.8846  0.3767
  161MOL0     H22214   9.796   4.329   2.639  0.5662  0.2895  1.0688
  161MOL0     H22215   9.057   4.223   2.848 -0.1967 -0.7302  0.6896
  161MOL0     H22216   9.005   4.041   3.156 -0.4262  0.3884  0.4381
  161MOL0     H22217   8.878   4.016   3.024 -0.2257  0.5237 -0.3880
  161MOL0     H22218   9.050   4.044   2.989 -0.9033 -0.5229  0.2841
  162MOL0     O22219   4.441   1.053   8.288 -0.1060 -0.2148 -0.8016
  162MOL0     C22220   4.519   1.148   8.288 -0.1596  0.8013 -0.4474
  162MOL0     O22221   4.647   1.144   8.243  0.0645  0.1751 -0.9350
  162MOL0     C22222   4.712   1.029   8.231  0.1662 -0.1667  0.6522
  162MOL0     C22223   4.770   1.015   8.106 -0.5196 -0.6419 -1.2811
  162MOL0     C22224   4.827   0.898   8.074  0.1863 -0.5412  0.5165
  162MOL0     C22225   4.828   0.788   8.154  0.4874  0.0237 -0.1049
  162MOL0     O22226   4.878   0.667   8.107  0.1364 -0.8586  0.6350
  162MOL0     C22227   4.850   0.549   8.174  0.6475 -0.5348  0.4145
  162MOL0     C22228   4.886   0.429   8.091 -0.7711 -0.3622  0.2018
  162MOL0     C22229   5.035   0.432   8.053  0.3652  0.7896  0.3314
  162MOL0     C22230   5.076   0.309   7.963  0.7662 -1.0388 -1.2506
  162MOL0     C22231   5.222   0.301   7.942  0.1513 -0.2039 -0.6447
  162MOL0     C22232   5.284   0.188   7.852 -0.0236  0.1359 -0.1235
  162MOL0     C22233   5.218   0.185   7.717 -0.0391  0.2396 -0.4276
  162MOL0     C22234   5.234   0.049   7.647 -0.5727  0.6347 -0.5558
  162MOL0     N22235   5.370   0.001   7.637 -0.2583  0.4427  0.0263
  162MOL0     C22236   5.466   0.076   7.571 -0.1729  0.2187 -0.2690
  162MOL0     C22237   5.587   0.015   7.614  0.5595  0.3248 -0.7936
  162MOL0     C22238   5.717   0.074   7.584 -0.6601  0.0416 -0.2202
  162MOL0     C22239   5.757   0.046   7.436  0.0007  0.1812  0.2443
  162MOL0     C22240   5.674   0.133   7.328 -0.5839  0.4498 -1.3623
  162MOL0     C22241   5.718   0.103   7.186  0.1299  0.2340 -0.1274
  162MOL0     O22242   5.611   0.150   7.102  0.0714 -0.0884 -0.0558
  162MOL0     C22243   5.631   0.178   6.966  0.4388 -0.1777 -0.5724
  162MOL0     C22244   5.523   0.177   6.877 -0.7817  0.6910 -0.1497
  162MOL0     C22245   5.538   0.198   6.736  0.2426 -0.9153 -0.0107
  162MOL0     C22246   5.407   0.207   6.654  0.3881 -1.2257 -0.6933
  162MOL0     C22247   5.667   0.222   6.689 -1.3025  0.9022  0.1391
  162MOL0     C22248   5.699   0.246   6.545 -0.3256 -0.5175  0.0268
  162MOL0     O22249   5.833   0.271   6.512  0.4939 -0.1731 -0.9578
  162MOL0     C22250   5.867   0.288   6.384 -0.6152  0.5619  0.3126
  162MOL0     C22251   5.929   0.416   6.358 -0.6326  0.0715  0.2208
  162MOL0     C22252   5.970   0.446   6.223 -0.7861  0.2221 -0.3188
  162MOL0     C22253   5.969   0.343   6.131 -0.0013  0.3586  0.2061
  162MOL0     O22254   6.014   0.386   6.014  0.2310 -0.4994  0.3093
  162MOL0     C22255   6.101   0.293   5.938 -0.0005  0.3295  0.4718
  162MOL0     C22256   6.015   0.218   5.833  0.0768 -0.2216 -0.7618
  162MOL0     C22257   6.091   0.093   5.781 -0.4091 -0.1031  0.0087
  162MOL0     C22258   5.995  -0.021   5.750  0.4964  1.3221  0.5166
  162MOL0     C22259   5.983  -0.134   5.865 -0.5119 -0.2748 -0.8277
  162MOL0     C22260   6.047  -0.261   5.801 -0.3266  0.4857 -0.1438
  162MOL0     C22261   5.939  -0.340   5.718 -0.4513 -1.2371 -0.4019
  162MOL0     C22262   6.000  -0.416   5.599 -0.2990 -0.6493  0.4866
  162MOL0    Cl22263   5.898  -0.463   5.462  0.1908 -0.1644  0.0507
  162MOL0     C22264   5.911   0.223   6.156 -0.4750  0.8266 -0.8701
  162MOL0     C22265   5.855   0.191   6.282  0.1311 -0.4217  0.0672
  162MOL0     O22266   5.610   0.227   6.464  0.5294 -0.1419 -0.2316
  162MOL0     C22267   5.776   0.214   6.770 -0.5436 -0.0510 -0.5053
  162MOL0     C22268   5.757   0.197   6.904  0.2824  0.4717 -0.2289
  162MOL0     N22269   5.561  -0.093   7.685 -0.7888  0.5182  0.2573
  162MOL0     N22270   5.436  -0.100   7.701  0.2163 -0.4371  0.3153
  162MOL0     C22271   4.761   0.796   8.281 -0.1734  0.1079 -0.0967
  162MOL0     C22272   4.709   0.918   8.325 -0.0871  0.4819 -0.4598
  162MOL0     C22273   4.485   1.283   8.344 -0.3721 -0.1390  0.2571
  162MOL0     C22274   4.571   1.390   8.316  1.4195 -0.8681 -0.7247
  162MOL0     C22275   4.546   1.510   8.381  0.5443 -0.1144  0.2820
  162MOL0     C22276   4.448   1.544   8.468  0.3264  0.5125  0.1691
  162MOL0     O22277   4.448   1.672   8.514  0.3110 -0.4769  0.0534
  162MOL0     C22278   4.367   1.692   8.631  0.0068  0.3000 -0.1204
  162MOL0     C22279   4.371   1.836   8.668  0.0629  0.4830 -1.1826
  162MOL0     C22280   4.510   1.899   8.667 -0.3331 -0.7912  0.3544
  162MOL0     C22281   4.516   2.044   8.711 -0.7644 -0.8194 -0.4421
  162MOL0     C22282   4.411   2.137   8.658 -0.2907 -0.1198 -0.2443
  162MOL0     C22283   4.328   2.207   8.603 -0.1896 -0.8774  0.3838
  162MOL0     C22284   4.355   1.438   8.493 -0.3559  0.9481  0.1608
  162MOL0     C22285   4.376   1.305   8.433  0.2173  0.4103 -0.4737
  162MOL0     C22286   4.281   1.194   8.472  0.3777  0.2809 -0.2676
  162MOL0     H22287   4.779   1.103   8.044  1.0160 -0.5140 -0.9007
  162MOL0     H22288   4.871   0.889   7.976 -0.7663  1.9737 -0.2209
  162MOL0     H22289   4.747   0.546   8.212  0.5230  1.8532  0.4564
  162MOL0     H22290   4.910   0.555   8.265  1.0015  2.1285  0.0950
  162MOL0     H22291   4.858   0.346   8.156 -2.0064 -0.0953  0.0403
  162MOL0     H22292   4.826   0.438   8.001  1.6814 -0.3529 -1.5373
  162MOL0     H22293   5.056   0.515   7.985  3.2807 -0.8074 -0.9045
  162MOL0     H22294   5.099   0.456   8.138  2.2467  1.7223 -1.2701
  162MOL0     H22295   5.052   0.225   8.028  2.5443 -0.2770  0.4973
  162MOL0     H22296   5.014   0.319   7.874  0.9894  0.4713 -1.2645
  162MOL0     H22297   5.267   0.287   8.041  2.5292  0.8129 -1.5080
  162MOL0     H22298   5.249   0.400   7.905  0.6567  0.6740  1.8700
  162MOL0     H22299   5.391   0.204   7.838 -0.4339  2.0760 -1.4215
  162MOL0     H22300   5.273   0.092   7.904  0.8924 -0.8718 -1.7217
  162MOL0     H22301   5.247   0.279   7.669 -0.1181 -0.0797 -1.0985
  162MOL0     H22302   5.110   0.174   7.729  0.0619 -0.4695 -0.1283
  162MOL0     H22303   5.189  -0.023   7.716 -0.4251  2.1620  1.2111
  162MOL0     H22304   5.187   0.044   7.548  2.1003 -2.2258 -1.8334
  162MOL0     H22305   5.440   0.160   7.507 -0.0512 -2.6749 -4.5321
  162MOL0     H22306   5.801   0.044   7.647 -0.3777 -0.1222 -0.6692
  162MOL0     H22307   5.699   0.182   7.593 -1.0980  0.0523 -1.1006
  162MOL0     H22308   5.863   0.069   7.425 -0.5695  2.2379 -1.7645
  162MOL0     H22309   5.732  -0.060   7.427  2.0867 -0.3267  0.0650
  162MOL0     H22310   5.574   0.094   7.350 -0.1685  0.5772  0.9867
  162MOL0     H22311   5.674   0.238   7.358  0.8451 -0.2901  1.6927
  162MOL0     H22312   5.818   0.141   7.163  0.9254 -2.3015 -1.2164
  162MOL0     H22313   5.720  -0.005   7.172 -3.1426  0.2689 -1.5946
  162MOL0     H22314   5.424   0.153   6.915 -0.9494  0.1153 -0.9223
  162MOL0     H22315   5.320   0.210   6.720  0.0291 -2.0991 -1.1137
  162MOL0     H22316   5.393   0.122   6.587 -0.4165 -0.9233 -0.9158
  162MOL0     H22317   5.408   0.295   6.589 -0.7870 -1.1010 -0.5637
  162MOL0     H22318   5.928   0.485   6.442  1.3799 -0.5199  0.7840
  162MOL0     H22319   6.013   0.544   6.204 -0.1591  0.1101  0.4370
  162MOL0     H22320   6.180   0.337   5.876  0.2501 -1.7696 -0.8315
  162MOL0     H22321   6.145   0.220   6.008  0.2787  1.0562  1.0698
  162MOL0     H22322   5.917   0.201   5.878  0.0981 -0.2144 -0.7124
  162MOL0     H22323   5.993   0.283   5.748 -2.6972  0.4467  0.3703
  162MOL0     H22324   6.174   0.056   5.841 -0.5701 -0.4964 -0.0103
  162MOL0     H22325   6.139   0.127   5.688  0.1694 -0.1596  0.2800
  162MOL0     H22326   6.035  -0.072   5.662 -3.0889 -1.4443  0.2331
  162MOL0     H22327   5.904   0.031   5.720  0.8032  1.1485 -0.7316
  162MOL0     H22328   6.046  -0.106   5.950 -2.3585 -3.1612  1.6676
  162MOL0     H22329   5.886  -0.166   5.903  1.1676 -3.7708  1.0714
  162MOL0     H22330   6.078  -0.325   5.884  0.5255  1.6718  0.4901
  162MOL0     H22331   6.136  -0.231   5.744  1.6047  1.4404  3.0967
  162MOL0     H22332   5.865  -0.269   5.680 -2.9998 -1.7444  3.1580
  162MOL0     H22333   5.900  -0.416   5.786  0.9631 -0.4039  1.4008
  162MOL0     H22334   6.049  -0.509   5.629 -0.6301 -1.2548 -0.8041
  162MOL0     H22335   6.074  -0.344   5.562 -1.5866  0.6159  0.2613
  162MOL0     H22336   5.908   0.146   6.080  0.8574 -0.0680 -0.0675
  162MOL0     H22337   5.804   0.096   6.293 -0.9483 -0.2577 -2.6468
  162MOL0     H22338   5.879   0.222   6.736  0.5888  1.3933  2.8870
  162MOL0     H22339   5.850   0.186   6.958  1.4550 -0.0413 -2.2436
  162MOL0     H22340   4.765   0.715   8.353 -2.2820 -1.4341 -1.5729
  162MOL0     H22341   4.667   0.932   8.424  0.9701 -0.4297  0.1430
  162MOL0     H22342   4.642   1.382   8.234  0.9193 -1.1472 -1.1353
  162MOL0     H22343   4.599   1.595   8.340 -1.3434  0.2155 -1.6617
  162MOL0     H22344   4.269   1.647   8.614  1.0125 -1.4312 -1.6929
  162MOL0     H22345   4.423   1.626   8.697  0.8578 -0.4523 -1.5448
  162MOL0     H22346   4.326   1.838   8.768  1.1664  0.2946 -0.6710
  162MOL0     H22347   4.294   1.894   8.615 -1.0452  0.3795  0.2281
  162MOL0     H22348   4.585   1.839   8.719  0.1113 -2.0925 -1.6647
  162MOL0     H22349   4.540   1.894   8.562  0.2833 -2.6895  0.5757
  162MOL0     H22350   4.617   2.088   8.704  0.3388 -3.0693  0.5170
  162MOL0     H22351   4.498   2.046   8.819 -2.4919 -1.8437 -0.6801
  162MOL0     H22352   4.268   2.268   8.539 -0.3057 -1.0807  0.3002
  162MOL0     H22353   4.270   1.456   8.557 -2.4277 -0.3270 -2.0985
  162MOL0     H22354   4.335   1.118   8.530 -0.1755 -0.1863 -0.3494
  162MOL0     H22355   4.204   1.234   8.539  0.0430  2.1839 -1.7228
  162MOL0     H22356   4.232   1.152   8.384  0.1393  1.8535 -0.9111
  163MOL0     O22357   2.500   9.118   6.901 -0.0588 -0.0592  0.7804
  163MOL0     C22358   2.491   9.238   6.935  0.0763  0.1600  0.5103
  163MOL0     O22359   2.431   9.283   7.043  0.6499 -1.3921 -0.6286
  163MOL0     C22360   2.408   9.203   7.151  0.0264 -0.7262  0.9708
  163MOL0     C22361   2.316   9.258   7.235 -0.7638  0.7551  0.5383
  163MOL0     C22362   2.279   9.196   7.351  0.5648  0.3767 -0.1662
  163MOL0     C22363   2.319   9.066   7.377 -0.8826  0.0962 -0.5966
  163MOL0     O22364   2.298   8.987   7.492  0.2574  0.2646  0.1305
  163MOL0     C22365   2.188   9.032   7.575 -0.2036  0.5159  0.5800
  163MOL0     C22366   2.179   8.920   7.678 -0.3097  0.3183  0.3080
  163MOL0     C22367   2.041   8.907   7.756  0.1728 -0.1386  0.9780
  163MOL0     C22368   2.005   9.034   7.826 -0.3107 -0.0695  0.1573
  163MOL0     C22369   1.876   9.022   7.912 -0.1529 -0.2321 -0.7579
  163MOL0     C22370   1.767   8.965   7.831 -0.4789 -0.0568  0.3816
  163MOL0     C22371   1.622   8.969   7.901 -0.4629 -0.4923 -0.2650
  163MOL0     C22372   1.551   9.098   7.854  0.5058 -0.1570 -1.0202
  163MOL0     N22373   1.405   9.085   7.856 -0.6644 -0.1661  0.3234
  163MOL0     C22374   1.324   9.036   7.965 -0.1412  0.0107 -0.7876
  163MOL0     C22375   1.199   9.026   7.918 -1.0661 -0.3554 -1.1969
  163MOL0     C22376   1.083   8.994   8.011 -0.4983  0.4662 -0.1018
  163MOL0     C22377   0.961   9.109   8.015 -1.3050  0.3017 -0.0130
  163MOL0     C22378   1.024   9.240   8.081  0.2376  0.2808  0.6035
  163MOL0     C22379   1.071   9.225   8.220  0.2525 -0.1292 -0.3213
  163MOL0     O22380   0.956   9.204   8.306 -0.4136 -0.1759 -0.0585
  163MOL0     C22381   0.993   9.181   8.438  0.1289  0.4290  0.7707
  163MOL0     C22382   0.885   9.202   8.525  0.0963 -0.2694  1.3520
  163MOL0     C22383   0.884   9.178   8.662 -0.8049  0.0503 -0.9508
  163MOL0     C22384   0.763   9.192   8.743 -0.9244  0.3449  0.8032
  163MOL0     C22385   1.008   9.122   8.717 -0.6342 -0.1047  0.5687
  163MOL0     C22386   1.040   9.092   8.862 -0.1470  0.4706  0.6568
  163MOL0     O22387   0.938   9.059   8.947  0.1501 -0.4340  0.6697
  163MOL0     C22388   0.975   8.977   9.042  0.4062  0.2795  0.2729
  163MOL0     C22389   0.949   8.839   9.047 -0.2422 -0.4720  0.5518
  163MOL0     C22390   1.003   8.758   9.143  0.3645 -0.0430  1.0048
  163MOL0     C22391   1.075   8.810   9.249 -0.1353  0.3343  0.0873
  163MOL0     O22392   1.132   8.714   9.336  0.7876 -0.1222  0.6535
  163MOL0     C22393   1.227   8.746   9.441  0.9797  0.1453 -0.1678
  163MOL0     C22394   1.257   8.614   9.497 -0.0877 -0.6088  0.6537
  163MOL0     C22395   1.316   8.519   9.395  0.8899  0.1344  0.6354
  163MOL0     C22396   1.402   8.423   9.480 -0.1672 -0.5329  0.9815
  163MOL0     C22397   1.494   8.322   9.408 -0.2794 -0.6766 -0.7670
  163MOL0     C22398   1.413   8.225   9.329 -0.1319  0.2959 -0.6600
  163MOL0     C22399   1.505   8.138   9.245  0.8962 -0.0124  1.0990
  163MOL0     C22400   1.419   8.035   9.168  0.6825 -0.0494 -0.5392
  163MOL0    Cl22401   1.508   7.968   9.031 -0.0545 -0.1812  0.0323
  163MOL0     C22402   1.093   8.942   9.259  0.5239  0.5827  0.2266
  163MOL0     C22403   1.035   9.029   9.165 -0.3912  0.4629  0.6727
  163MOL0     O22404   1.164   9.081   8.895 -0.3290  0.3191  0.7703
  163MOL0     C22405   1.126   9.109   8.628 -1.1306  0.3295  0.5541
  163MOL0     C22406   1.109   9.120   8.496 -1.0260 -0.4660  1.2499
  163MOL0     N22407   1.195   9.070   7.790 -0.7983  0.2797 -0.8194
  163MOL0     N22408   1.319   9.106   7.756  0.5483  0.3337 -0.2636
  163MOL0     C22409   2.420   9.012   7.293  0.2947 -0.3165 -0.0124
  163MOL0     C22410   2.468   9.084   7.187 -1.4630  0.5627 -0.6834
  163MOL0     C22411   2.540   9.340   6.835 -0.5742 -0.6955  0.6538
  163MOL0     C22412   2.511   9.315   6.694 -0.8124 -0.7844  0.1158
  163MOL0     C22413   2.539   9.402   6.586  0.3367 -0.5761 -0.1631
  163MOL0     C22414   2.603   9.522   6.621 -0.0947  0.2168  0.6000
  163MOL0     O22415   2.644   9.628   6.531  0.2270  0.6044  0.0596
  163MOL0     C22416   2.618   9.610   6.389 -0.0867 -1.1869 -0.1438
  163MOL0     C22417   2.502   9.703   6.349 -0.0795  0.6246  0.3072
  163MOL0     C22418   2.367   9.647   6.393 -0.9952 -0.8586 -0.4816
  163MOL0     C22419   2.239   9.730   6.357 -0.5087  0.9043 -0.3354
  163MOL0     C22420   2.120   9.672   6.425  0.1250 -0.9681  0.1083
  163MOL0     C22421   2.007   9.616   6.448 -1.2053 -0.4260  0.2623
  163MOL0     C22422   2.640   9.540   6.756 -0.1473  0.4164  0.5615
  163MOL0     C22423   2.610   9.453   6.867 -0.5961 -0.0879  0.2121
  163MOL0     C22424   2.637   9.495   7.012  1.0146  0.3280 -0.0291
  163MOL0     H22425   2.270   9.356   7.219  0.7957  2.0276  3.1367
  163MOL0     H22426   2.219   9.252   7.421  1.2979  2.0510 -0.8258
  163MOL0     H22427   2.096   9.034   7.516 -1.3167 -0.5318  2.1964
  163MOL0     H22428   2.217   9.125   7.625  2.2964 -0.0141  0.2108
  163MOL0     H22429   2.194   8.828   7.620 -2.0013 -0.6990  1.3871
  163MOL0     H22430   2.258   8.935   7.751 -2.0118  2.3164  1.8371
  163MOL0     H22431   1.969   8.879   7.678  1.6954  1.8760 -1.2644
  163MOL0     H22432   2.039   8.821   7.824  0.1237  0.1031  1.2794
  163MOL0     H22433   2.089   9.068   7.887  1.0812 -0.9341 -1.2263
  163MOL0     H22434   1.988   9.112   7.751 -2.6275 -1.6428 -1.0616
  163MOL0     H22435   1.844   9.112   7.965  2.8644 -0.1166  1.1073
  163MOL0     H22436   1.894   8.946   7.989  2.7078 -0.8829 -1.9131
  163MOL0     H22437   1.768   9.019   7.736  0.6398 -0.9800 -0.1592
  163MOL0     H22438   1.802   8.863   7.816  1.9571  0.3994  2.2497
  163MOL0     H22439   1.623   8.960   8.010  4.4023  0.3966 -0.0304
  163MOL0     H22440   1.554   8.891   7.865 -4.0900  0.1691  4.2189
  163MOL0     H22441   1.581   9.188   7.909  2.1121  0.2863 -2.5132
  163MOL0     H22442   1.564   9.122   7.748 -2.3997  2.0747 -0.9881
  163MOL0     H22443   1.360   8.991   8.057  2.2924  2.1278 -0.6044
  163MOL0     H22444   1.120   8.962   8.109 -1.6982 -1.3782 -0.1910
  163MOL0     H22445   1.032   8.912   7.959 -1.5996  3.0051 -3.3973
  163MOL0     H22446   0.933   9.132   7.912  2.5676  0.2429 -1.2339
  163MOL0     H22447   0.873   9.066   8.064 -1.2835  0.4815  0.1876
  163MOL0     H22448   1.105   9.272   8.016 -0.9300  2.0008 -0.0766
  163MOL0     H22449   0.949   9.319   8.079  0.1460  0.3395 -3.8980
  163MOL0     H22450   1.151   9.151   8.227  1.3340  0.6079 -3.3474
  163MOL0     H22451   1.116   9.322   8.240 -2.1334  1.5997 -2.6227
  163MOL0     H22452   0.794   9.234   8.477  0.2243 -0.3966  1.0231
  163MOL0     H22453   0.781   9.247   8.836 -2.2900  0.7694  0.8366
  163MOL0     H22454   0.723   9.093   8.765 -2.0925  0.0064 -2.2495
  163MOL0     H22455   0.690   9.250   8.686  1.5023  1.5993 -1.2375
  163MOL0     H22456   0.875   8.800   8.978 -1.0612  2.3704 -0.3128
  163MOL0     H22457   0.970   8.656   9.128 -1.7436  0.7257 -0.0145
  163MOL0     H22458   1.314   8.793   9.394  1.4862  0.8266  1.3898
  163MOL0     H22459   1.178   8.813   9.512 -2.9035  0.4773 -2.8777
  163MOL0     H22460   1.331   8.637   9.574  0.4095 -0.3716  0.1184
  163MOL0     H22461   1.162   8.585   9.543 -1.1888 -0.5212 -1.4216
  163MOL0     H22462   1.371   8.568   9.314 -1.8579 -0.6569 -1.8878
  163MOL0     H22463   1.227   8.475   9.348  1.1120  0.6086 -0.2402
  163MOL0     H22464   1.339   8.368   9.551 -1.3473  0.0607  0.4248
  163MOL0     H22465   1.472   8.483   9.539  0.6686  1.3633 -1.7689
  163MOL0     H22466   1.560   8.375   9.339 -0.4316 -0.1122 -0.4877
  163MOL0     H22467   1.557   8.270   9.481  0.5001  0.3064 -0.7247
  163MOL0     H22468   1.344   8.287   9.271 -1.2500  1.4487  1.7926
  163MOL0     H22469   1.345   8.173   9.397 -2.1075  2.6790 -0.6882
  163MOL0     H22470   1.565   8.077   9.313 -1.4118 -1.8942  1.5743
  163MOL0     H22471   1.559   8.200   9.172 -0.9524  0.0854 -0.2547
  163MOL0     H22472   1.332   8.083   9.122 -0.8037 -0.6518  1.5213
  163MOL0     H22473   1.376   7.957   9.231 -0.7412 -1.5685 -3.2332
  163MOL0     H22474   1.146   8.980   9.345  1.3593  1.8587 -0.8194
  163MOL0     H22475   1.059   9.135   9.161  2.6973 -0.1747 -2.3606
  163MOL0     H22476   1.224   9.091   8.671 -1.0001  1.9092  0.9943
  163MOL0     H22477   1.193   9.109   8.428 -1.7719  3.1263 -0.5143
  163MOL0     H22478   2.478   8.921   7.304  0.1880 -1.0154 -3.9856
  163MOL0     H22479   2.544   9.045   7.120 -1.5296 -0.2330 -0.3062
  163MOL0     H22480   2.443   9.236   6.665 -1.5010  0.3372 -1.5061
  163MOL0     H22481   2.510   9.381   6.484  2.2193 -1.8385 -0.4890
  163MOL0     H22482   2.704   9.654   6.337 -1.1210  0.5972 -0.4161
  163MOL0     H22483   2.609   9.508   6.352  1.0275 -0.9946 -1.0111
  163MOL0     H22484   2.493   9.708   6.240 -1.6981 -2.6886  0.1521
  163MOL0     H22485   2.525   9.803   6.387  1.7670 -0.4507  2.2603
  163MOL0     H22486   2.359   9.549   6.345  0.8819 -0.2268 -2.2574
  163MOL0     H22487   2.365   9.638   6.502  2.0175 -2.1214 -0.4201
  163MOL0     H22488   2.211   9.714   6.253 -0.5707  0.7057 -0.2888
  163MOL0     H22489   2.256   9.835   6.381  0.2538  0.4198  1.3626
  163MOL0     H22490   1.912   9.568   6.467 -1.1868  0.0030  1.5396
  163MOL0     H22491   2.698   9.628   6.781 -0.6569  1.1161 -0.6444
  163MOL0     H22492   2.725   9.560   7.013  0.8198  0.6257  1.9289
  163MOL0     H22493   2.549   9.548   7.049 -0.4521 -2.2746  0.4849
  163MOL0     H22494   2.657   9.406   7.072 -1.8234 -0.0185  0.5291
  164MOL0     O22495   1.095   1.892  10.314  0.9461 -0.1764 -0.2951
  164MOL0     C22496   1.108   1.872  10.197 -0.1061 -0.5350  0.0301
  164MOL0     O22497   1.053   1.765  10.136  0.4745  0.9344  0.3607
  164MOL0     C22498   0.980   1.666  10.186 -0.2321  0.4829 -0.4460
  164MOL0     C22499   0.985   1.615  10.311 -0.5980 -0.3466  0.1898
  164MOL0     C22500   0.910   1.514  10.361 -0.0703  0.0486  0.2723
  164MOL0     C22501   0.815   1.451  10.279 -0.2927  0.6546 -0.1478
  164MOL0     O22502   0.733   1.350  10.312  0.4117  0.2224  0.3667
  164MOL0     C22503   0.802   1.240  10.366  0.4921 -0.5725 -1.1886
  164MOL0     C22504   0.750   1.217  10.517 -0.5627 -0.0661 -0.1556
  164MOL0     C22505   0.846   1.122  10.597  0.0212 -0.1123 -0.3839
  164MOL0     C22506   0.821   1.107  10.745 -0.3403  0.5008 -0.6391
  164MOL0     C22507   0.930   1.035  10.831 -0.5578  0.5139  0.1245
  164MOL0     C22508   0.883   1.040  10.974 -0.9519  1.0834  0.6127
  164MOL0     C22509   0.994   1.015  11.078 -1.0866 -0.8469  0.5596
  164MOL0     C22510   0.950   1.024  11.229  0.4981  0.2952  0.6707
  164MOL0     N22511   1.011   0.911  11.297  0.3299 -0.9171 -0.9107
  164MOL0     C22512   1.133   0.859  11.278 -1.1048  0.1066  0.0029
  164MOL0     C22513   1.151   0.769  11.378 -0.2254  0.0135  0.4760
  164MOL0     C22514   1.277   0.696  11.409 -0.1157  0.2555 -0.2531
  164MOL0     C22515   1.342   0.640  11.285  0.3212  0.2309  0.0263
  164MOL0     C22516   1.478   0.586  11.318 -0.5320  0.2320 -0.1423
  164MOL0     C22517   1.484   0.462  11.406 -0.2194 -0.2163 -0.0575
  164MOL0     O22518   1.432   0.357  11.330  0.2845  0.5339  1.0835
  164MOL0     C22519   1.471   0.228  11.368 -0.3724  0.1591  0.4745
  164MOL0     C22520   1.549   0.197  11.477 -0.5952  0.8210  0.0606
  164MOL0     C22521   1.574   0.054  11.509  0.9428 -0.3311 -0.0278
  164MOL0     C22522   1.645   0.028  11.642  0.0495 -0.4993 -0.5409
  164MOL0     C22523   1.517  -0.046  11.427 -0.4018 -0.0115  0.2730
  164MOL0     C22524   1.525  -0.196  11.453  0.0711 -0.1771  0.2461
  164MOL0     O22525   1.493  -0.273  11.349  0.3706  0.1762 -0.5864
  164MOL0     C22526   1.508  -0.410  11.366 -0.5765 -0.0510  0.9633
  164MOL0     C22527   1.626  -0.472  11.318 -0.6667 -0.5938 -0.3379
  164MOL0     C22528   1.641  -0.605  11.312  0.0526  0.5354 -0.4019
  164MOL0     C22529   1.538  -0.689  11.370 -1.2605  0.2393  0.3457
  164MOL0     O22530   1.543  -0.819  11.383  0.0986  0.7164 -0.2049
  164MOL0     C22531   1.671  -0.891  11.403  0.4301 -0.8189  0.4034
  164MOL0     C22532   1.656  -1.030  11.379  0.8528 -0.5389 -0.1114
  164MOL0     C22533   1.545  -1.090  11.461  0.6279  0.4436  0.4080
  164MOL0     C22534   1.560  -1.243  11.466  0.2263 -0.2912  0.8867
  164MOL0     C22535   1.505  -1.309  11.592  0.3500  0.1680  0.9983
  164MOL0     C22536   1.357  -1.268  11.623 -0.3743  0.0761 -0.7497
  164MOL0     C22537   1.293  -1.347  11.736 -0.5490 -0.3571 -0.3368
  164MOL0     C22538   1.230  -1.262  11.851  0.6987 -0.1113 -0.5706
  164MOL0    Cl22539   1.347  -1.192  11.953 -0.0352 -0.0607  0.2185
  164MOL0     C22540   1.415  -0.631  11.406  0.2771  0.7479  0.3570
  164MOL0     C22541   1.401  -0.492  11.403 -0.0829  1.1584 -0.1333
  164MOL0     O22542   1.545  -0.240  11.562  0.1789  0.2955 -0.1015
  164MOL0     C22543   1.445  -0.007  11.311 -0.6736 -0.0275 -0.2913
  164MOL0     C22544   1.422   0.130  11.288 -0.6015 -0.2203  0.4905
  164MOL0     N22545   1.036   0.766  11.452 -0.3521  0.3137  0.0083
  164MOL0     N22546   0.948   0.834  11.395  0.4116  0.0369 -0.0564
  164MOL0     C22547   0.796   1.505  10.149  0.1050 -0.6707  0.4990
  164MOL0     C22548   0.878   1.613  10.106  0.2790  0.0166 -0.0964
  164MOL0     C22549   1.199   1.964  10.120 -0.8119  0.2737  0.2882
  164MOL0     C22550   1.219   1.926   9.983  0.0923  0.1871  0.3913
  164MOL0     C22551   1.307   1.986   9.912  1.1608  0.6684  1.4842
  164MOL0     C22552   1.378   2.098   9.946 -0.0169  0.6587 -0.0713
  164MOL0     O22553   1.452   2.157   9.852  0.1652 -0.3637 -0.0929
  164MOL0     C22554   1.436   2.150   9.708  0.2265  0.2178  0.3417
  164MOL0     C22555   1.524   2.042   9.639 -0.4840 -0.1473 -0.0745
  164MOL0     C22556   1.517   2.052   9.481  0.6604  0.6405 -0.1204
  164MOL0     C22557   1.579   2.174   9.407 -0.0965  0.0435 -0.1220
  164MOL0     C22558   1.717   2.140   9.369  1.1270  0.6200 -0.3086
  164MOL0     C22559   1.832   2.119   9.344 -0.6742 -0.4520 -0.1712
  164MOL0     C22560   1.367   2.137  10.077 -0.2077 -0.2603  0.4768
  164MOL0     C22561   1.270   2.076  10.166 -0.4804 -0.1185  0.2962
  164MOL0     C22562   1.262   2.130  10.307  0.4477  0.1366  0.1238
  164MOL0     H22563   1.050   1.666  10.380  2.4293  1.0581 -3.3477
  164MOL0     H22564   0.918   1.470  10.460 -1.4459 -1.7466 -0.3585
  164MOL0     H22565   0.911   1.247  10.368  0.4367  1.0651 -1.8898
  164MOL0     H22566   0.773   1.156  10.303 -0.2156 -0.4975 -0.9701
  164MOL0     H22567   0.752   1.320  10.555  0.2675 -0.1482  0.0543
  164MOL0     H22568   0.649   1.177  10.527 -2.0776  3.3810 -0.2448
  164MOL0     H22569   0.833   1.023  10.551  0.9577 -0.0694 -0.7602
  164MOL0     H22570   0.952   1.144  10.579  1.5530 -3.4516  3.1346
  164MOL0     H22571   0.798   1.206  10.787  1.3378  1.3186 -1.5495
  164MOL0     H22572   0.722   1.063  10.761  0.6245 -2.5538 -2.3314
  164MOL0     H22573   1.026   1.082  10.806 -0.6246  0.4859 -0.1871
  164MOL0     H22574   0.933   0.930  10.801 -4.3828  0.1731  0.4993
  164MOL0     H22575   0.841   1.139  10.994 -2.2997  0.4144  1.2346
  164MOL0     H22576   0.806   0.962  10.986  0.7795 -1.0188 -1.0161
  164MOL0     H22577   1.073   1.087  11.054 -1.9397  0.4047  1.3254
  164MOL0     H22578   1.042   0.922  11.049  0.9481  0.8529 -1.8622
  164MOL0     H22579   0.981   1.121  11.268 -0.0351  1.1942 -1.0346
  164MOL0     H22580   0.841   1.022  11.229  0.4153  2.5900  0.1161
  164MOL0     H22581   1.213   0.894  11.213 -0.8724 -0.2244  0.1042
  164MOL0     H22582   1.256   0.610  11.473 -0.2829  1.0269  0.7590
  164MOL0     H22583   1.350   0.769  11.446  0.1105 -0.1757  0.1539
  164MOL0     H22584   1.278   0.561  11.244 -1.6848  0.4396  2.5047
  164MOL0     H22585   1.347   0.713  11.204  2.1274 -1.2852 -1.3179
  164MOL0     H22586   1.526   0.573  11.220  3.3836  4.3600  0.9069
  164MOL0     H22587   1.531   0.673  11.358  1.6690 -1.7441  1.5405
  164MOL0     H22588   1.589   0.447  11.435 -0.7524 -0.5474  1.8658
  164MOL0     H22589   1.426   0.468  11.499  1.3851 -0.9211  1.0415
  164MOL0     H22590   1.584   0.268  11.551 -1.3919  1.5287 -0.2185
  164MOL0     H22591   1.699   0.120  11.669 -0.2799 -0.2780 -0.6329
  164MOL0     H22592   1.707  -0.062  11.636 -2.4132 -2.1830 -3.5293
  164MOL0     H22593   1.565   0.009  11.714 -0.2452  0.8983 -0.4667
  164MOL0     H22594   1.711  -0.408  11.295 -2.3231  1.0206 -2.5225
  164MOL0     H22595   1.742  -0.639  11.290  0.7453  0.2292  2.7282
  164MOL0     H22596   1.741  -0.853  11.329 -4.3437 -0.2000 -4.4355
  164MOL0     H22597   1.717  -0.871  11.500 -0.9648 -0.1547  0.9555
  164MOL0     H22598   1.642  -1.042  11.271  0.1338 -1.0777  0.0333
  164MOL0     H22599   1.746  -1.085  11.406  1.2632  0.6383  1.0231
  164MOL0     H22600   1.452  -1.051  11.418 -0.8092 -1.8045  1.2838
  164MOL0     H22601   1.546  -1.051  11.563 -0.3843  1.5690  0.0225
  164MOL0     H22602   1.667  -1.265  11.468  0.3290  0.2367  1.4722
  164MOL0     H22603   1.513  -1.289  11.378 -0.5866 -2.4526  2.3383
  164MOL0     H22604   1.511  -1.418  11.585 -0.6375  0.1846 -0.6823
  164MOL0     H22605   1.564  -1.262  11.671 -1.1697  3.9664  0.1199
  164MOL0     H22606   1.293  -1.262  11.534 -2.0093  0.4651  0.3896
  164MOL0     H22607   1.348  -1.160  11.639  0.8983  0.3574 -1.7516
  164MOL0     H22608   1.360  -1.419  11.785  0.9992  0.6351 -0.9305
  164MOL0     H22609   1.212  -1.411  11.698 -1.1527 -0.2475  0.7020
  164MOL0     H22610   1.153  -1.308  11.913  0.3055  2.6466  1.1685
  164MOL0     H22611   1.181  -1.177  11.803  3.4161  1.3210 -0.9799
  164MOL0     H22612   1.333  -0.701  11.419 -0.1456  0.0458 -4.3721
  164MOL0     H22613   1.304  -0.452  11.429 -1.0823  0.4298 -2.4896
  164MOL0     H22614   1.388  -0.072  11.246  1.3687 -1.1300 -1.0729
  164MOL0     H22615   1.358   0.165  11.207 -1.0981  1.6398  1.6285
  164MOL0     H22616   0.726   1.468  10.076  1.6433  0.6789 -1.8017
  164MOL0     H22617   0.884   1.636  10.000  0.1798  0.9331  0.0849
  164MOL0     H22618   1.159   1.844   9.946  0.4614 -0.7549  1.8065
  164MOL0     H22619   1.308   1.950   9.810 -1.4985 -2.5055  2.4140
  164MOL0     H22620   1.331   2.144   9.677  0.3404  1.0043 -0.2444
  164MOL0     H22621   1.456   2.250   9.668 -2.4450  1.4326  1.7844
  164MOL0     H22622   1.477   1.944   9.653 -1.1722  0.2779  0.6189
  164MOL0     H22623   1.630   2.042   9.667 -0.6893  0.5043  0.7164
  164MOL0     H22624   1.554   1.955   9.447  1.2107  0.7539  0.1381
  164MOL0     H22625   1.409   2.054   9.463  0.0427 -3.3806  1.8756
  164MOL0     H22626   1.579   2.268   9.462 -3.2467  1.3937 -2.1515
  164MOL0     H22627   1.521   2.197   9.317 -1.5242 -0.5201  0.6243
  164MOL0     H22628   1.936   2.114   9.320 -0.2872 -0.4127  1.3457
  164MOL0     H22629   1.428   2.218  10.115 -1.9564  0.6025  1.5732
  164MOL0     H22630   1.353   2.189  10.319  0.7916 -0.2173 -0.6439
  164MOL0     H22631   1.170   2.189  10.321  1.7221  2.4997 -0.8327
  164MOL0     H22632   1.273   2.040  10.368  0.0913 -0.8730 -1.2512
  165MOL0     O22633  10.917   1.394   7.747  0.2066  0.3247  0.0786
  165MOL0     C22634  10.859   1.493   7.791 -0.4166 -0.5237  0.4593
  165MOL0     O22635  10.723   1.489   7.814  0.0799 -0.3784 -0.1810
  165MOL0     C22636  10.649   1.420   7.722  0.2051  1.2597 -0.8376
  165MOL0     C22637  10.536   1.360   7.774  0.2995  0.5408  0.3705
  165MOL0     C22638  10.446   1.285   7.686  0.5313 -0.0520  0.0051
  165MOL0     C22639  10.484   1.272   7.549  0.1958 -0.6205  0.1686
  165MOL0     O22640  10.398   1.209   7.461 -1.2684  0.6192 -0.7958
  165MOL0     C22641  10.355   1.288   7.344  1.0417  0.4486 -0.2020
  165MOL0     C22642  10.201   1.309   7.344  0.8378 -1.3728 -0.2347
  165MOL0     C22643  10.148   1.381   7.476 -0.3137 -0.0888  0.3817
  165MOL0     C22644  10.196   1.532   7.494  0.4890  0.2496 -0.1081
  165MOL0     C22645  10.121   1.579   7.625  0.0666 -0.9759 -0.1597
  165MOL0     C22646  10.195   1.697   7.690  0.5577 -0.3902  0.6891
  165MOL0     C22647  10.322   1.666   7.772  0.0751 -0.4028  0.7238
  165MOL0     C22648  10.359   1.776   7.875  0.6654  0.1474  0.0007
  165MOL0     N22649  10.401   1.901   7.798  0.7730  0.2628 -0.4981
  165MOL0     C22650  10.314   1.976   7.722  0.1743  0.3834 -0.2247
  165MOL0     C22651  10.388   2.078   7.680  0.1500 -0.2531 -1.3239
  165MOL0     C22652  10.338   2.200   7.605  0.2443 -0.5542  0.0998
  165MOL0     C22653  10.265   2.307   7.676 -0.7654  0.0196 -0.7352
  165MOL0     C22654  10.334   2.373   7.797  0.2915  0.4972 -0.0195
  165MOL0     C22655  10.266   2.502   7.831  0.0942 -0.8053  0.4273
  165MOL0     O22656  10.264   2.591   7.720 -0.2141  0.0322  0.5939
  165MOL0     C22657  10.244   2.720   7.755 -0.3800  0.6809 -0.2485
  165MOL0     C22658  10.149   2.761   7.850  0.0023  0.3027  0.4685
  165MOL0     C22659  10.141   2.892   7.893 -0.0440  0.7678  0.2672
  165MOL0     C22660  10.027   2.927   7.988 -1.0667 -0.1001 -0.4381
  165MOL0     C22661  10.231   2.989   7.844  0.5587 -0.8927  0.3133
  165MOL0     C22662  10.230   3.134   7.882 -0.1413 -0.6080 -0.9253
  165MOL0     O22663  10.341   3.204   7.858  0.9857 -0.0365  0.0645
  165MOL0     C22664  10.380   3.317   7.920  0.0746 -0.4715  0.9940
  165MOL0     C22665  10.315   3.388   8.021  0.9978 -0.1819  0.3611
  165MOL0     C22666  10.375   3.504   8.084 -0.2301  2.0557  0.9976
  165MOL0     C22667  10.497   3.549   8.045  1.5255  0.2321 -0.7269
  165MOL0     O22668  10.530   3.667   8.105 -0.6356 -0.2567 -0.2858
  165MOL0     C22669  10.664   3.725   8.098  0.8157  0.0620  0.3596
  165MOL0     C22670  10.741   3.692   8.228 -0.5092  1.0353  0.1601
  165MOL0     C22671  10.890   3.738   8.222 -0.2497 -0.0946  0.3465
  165MOL0     C22672  10.980   3.652   8.127  0.3624 -0.2013 -0.3207
  165MOL0     C22673  11.124   3.662   8.154 -0.6821 -0.4467  0.1668
  165MOL0     C22674  11.168   3.817   8.128  0.6902  0.7947  0.0118
  165MOL0     C22675  11.323   3.840   8.126 -0.2504 -0.6315  0.3352
  165MOL0     C22676  11.348   3.992   8.133  0.2446 -0.3852  0.0559
  165MOL0    Cl22677  11.504   4.032   8.080 -0.2842  0.3855  0.0949
  165MOL0     C22678  10.567   3.479   7.944 -0.0788  0.7150  0.9719
  165MOL0     C22679  10.508   3.369   7.877  0.1006 -0.1036  0.2721
  165MOL0     O22680  10.130   3.174   7.936 -0.6189  0.1669  0.1296
  165MOL0     C22681  10.330   2.948   7.752 -0.2260  0.3931  0.2305
  165MOL0     C22682  10.338   2.813   7.716  0.0767  0.3433 -0.6906
  165MOL0     N22683  10.516   2.067   7.724  0.3802  1.0550 -0.5562
  165MOL0     N22684  10.518   1.966   7.800 -0.5312 -0.2910 -0.5005
  165MOL0     C22685  10.602   1.333   7.504  0.1327 -0.1658 -0.4060
  165MOL0     C22686  10.681   1.407   7.593 -0.6536  0.6127 -0.0363
  165MOL0     C22687  10.931   1.611   7.835  1.0650 -0.3819 -0.0064
  165MOL0     C22688  10.851   1.718   7.896 -0.2581 -1.0669  0.2105
  165MOL0     C22689  10.915   1.835   7.941  0.0956  0.7717 -0.3397
  165MOL0     C22690  11.053   1.848   7.955 -0.6211 -0.7889  1.7435
  165MOL0     O22691  11.095   1.970   8.001 -0.4946  0.5166 -1.1086
  165MOL0     C22692  11.210   1.958   8.085 -0.1965 -0.2176  0.0763
  165MOL0     C22693  11.190   2.083   8.179 -0.2778  0.5818 -0.1215
  165MOL0     C22694  11.301   2.051   8.277  0.4255  0.2245  0.2247
  165MOL0     C22695  11.323   2.162   8.383  0.5964  0.7154  0.0229
  165MOL0     C22696  11.407   2.107   8.486  0.3204 -0.9443 -0.0979
  165MOL0     C22697  11.480   2.071   8.585 -0.5045 -0.3395  1.2288
  165MOL0     C22698  11.134   1.748   7.889  0.5320  0.0711 -0.4460
  165MOL0     C22699  11.078   1.631   7.836  0.8128 -0.2400 -0.1933
  165MOL0     C22700  11.171   1.527   7.782 -0.4947  0.2849  0.2447
  165MOL0     H22701  10.496   1.359   7.875  1.3361 -0.4934  0.7978
  165MOL0     H22702  10.354   1.245   7.728  1.2585 -0.4436  1.2753
  165MOL0     H22703  10.381   1.230   7.255  0.2722 -0.9029  0.4297
  165MOL0     H22704  10.409   1.383   7.347  0.7464  0.6539 -0.9761
  165MOL0     H22705  10.161   1.371   7.263  0.6197 -1.7685 -0.4337
  165MOL0     H22706  10.144   1.218   7.327 -1.3231 -0.2321  0.5115
  165MOL0     H22707  10.039   1.385   7.481 -0.4346 -1.1056 -0.8863
  165MOL0     H22708  10.181   1.329   7.566 -2.7389 -1.8128  0.3847
  165MOL0     H22709  10.305   1.529   7.497  0.4670 -1.3258  2.6759
  165MOL0     H22710  10.160   1.594   7.411  1.4193  1.8635  0.6586
  165MOL0     H22711  10.108   1.504   7.703 -1.2353  2.1210  2.8472
  165MOL0     H22712  10.017   1.603   7.598 -0.7047  1.8288  4.2913
  165MOL0     H22713  10.226   1.766   7.611 -0.1912  0.8324  1.4268
  165MOL0     H22714  10.122   1.742   7.758  1.2825 -0.0277  1.2398
  165MOL0     H22715  10.404   1.655   7.701 -2.3139 -3.6133 -1.9071
  165MOL0     H22716  10.306   1.575   7.831  2.8687 -2.0386 -0.8421
  165MOL0     H22717  10.276   1.803   7.942 -1.1149  0.9890 -2.4143
  165MOL0     H22718  10.450   1.748   7.928  0.9392  2.8136  1.1020
  165MOL0     H22719  10.208   1.957   7.725 -0.3216  2.8269 -0.5489
  165MOL0     H22720  10.269   2.162   7.529 -0.2744 -3.0153  1.6941
  165MOL0     H22721  10.418   2.246   7.546 -1.1710 -0.0116 -1.4772
  165MOL0     H22722  10.243   2.378   7.596  0.0790  0.1143 -0.8953
  165MOL0     H22723  10.172   2.274   7.722 -1.4996  0.7593 -1.6593
  165MOL0     H22724  10.322   2.299   7.877 -0.3996  0.9821  0.3270
  165MOL0     H22725  10.442   2.389   7.785 -0.1611  2.8555 -1.5094
  165MOL0     H22726  10.161   2.482   7.855  0.1325  1.5036  3.0856
  165MOL0     H22727  10.314   2.547   7.919 -0.1539  3.9776 -1.5704
  165MOL0     H22728  10.065   2.700   7.880 -0.5625  0.4451 -0.7803
  165MOL0     H22729   9.941   2.979   7.944 -0.5559  0.6126 -0.6122
  165MOL0     H22730  10.078   2.981   8.068  2.2591 -1.0863 -1.7227
  165MOL0     H22731   9.998   2.834   8.039  1.8508  0.1857  2.0256
  165MOL0     H22732  10.214   3.353   8.040  1.5019 -3.5931 -2.2416
  165MOL0     H22733  10.318   3.555   8.161 -0.1994  1.4603  1.4296
  165MOL0     H22734  10.717   3.687   8.010  0.4238 -3.3263  1.4485
  165MOL0     H22735  10.650   3.834   8.100  2.9195  0.3776  1.3475
  165MOL0     H22736  10.704   3.732   8.323  0.1007 -0.3662  1.0271
  165MOL0     H22737  10.743   3.584   8.245  1.8011  0.9510 -0.4208
  165MOL0     H22738  10.934   3.755   8.320  0.1293  3.2795 -0.2977
  165MOL0     H22739  10.888   3.843   8.190 -1.6480  1.2449  4.2615
  165MOL0     H22740  10.963   3.668   8.020  1.7447 -1.5847 -0.7742
  165MOL0     H22741  10.949   3.550   8.151  1.4819 -0.9296 -1.7950
  165MOL0     H22742  11.145   3.641   8.259  0.2826  3.6854  0.9876
  165MOL0     H22743  11.180   3.599   8.084  0.3043  1.5677 -0.9733
  165MOL0     H22744  11.131   3.872   8.215 -2.9297 -0.0623 -0.8145
  165MOL0     H22745  11.118   3.853   8.037  0.0876  0.4383  0.1937
  165MOL0     H22746  11.364   3.792   8.037  1.6772 -2.1367  1.9215
  165MOL0     H22747  11.384   3.790   8.202 -0.4895 -1.0874  0.2274
  165MOL0     H22748  11.319   4.029   8.232 -0.5425 -0.2068 -0.2357
  165MOL0     H22749  11.283   4.043   8.062  0.4944  1.4809  1.0944
  165MOL0     H22750  10.657   3.533   7.917 -1.0638  1.9131 -0.0407
  165MOL0     H22751  10.571   3.341   7.792  0.7525  2.0341 -0.0095
  165MOL0     H22752  10.408   3.019   7.726 -0.0101  0.5658  1.3166
  165MOL0     H22753  10.411   2.777   7.644 -0.7328 -0.9589 -0.8704
  165MOL0     H22754  10.636   1.319   7.402  2.5630  0.1689  0.2770
  165MOL0     H22755  10.770   1.453   7.550 -0.8027  1.4658  0.5548
  165MOL0     H22756  10.743   1.715   7.902 -0.4429 -2.1672 -2.3549
  165MOL0     H22757  10.852   1.906   7.993 -4.0440 -2.0330 -1.0216
  165MOL0     H22758  11.211   1.868   8.147  0.6973  0.0113  0.4167
  165MOL0     H22759  11.302   1.948   8.026 -0.3219 -1.3650  0.0573
  165MOL0     H22760  11.092   2.087   8.228  0.4532  2.3117  1.3357
  165MOL0     H22761  11.209   2.174   8.121 -0.1072  0.0395 -0.9416
  165MOL0     H22762  11.267   1.963   8.333 -1.1970  1.3205  1.0567
  165MOL0     H22763  11.396   2.024   8.232  0.8089 -1.4047  1.8452
  165MOL0     H22764  11.228   2.199   8.423 -1.1061  1.3017 -4.0474
  165MOL0     H22765  11.370   2.254   8.347  2.2329  0.1256  0.5691
  165MOL0     H22766  11.530   2.051   8.678  0.5510  4.0694  1.8541
  165MOL0     H22767  11.241   1.764   7.899  0.5674  0.4178 -1.3256
  165MOL0     H22768  11.178   1.443   7.852  1.5122  1.3296  1.3895
  165MOL0     H22769  11.131   1.495   7.685 -1.0256 -0.3266  0.6602
  165MOL0     H22770  11.270   1.574   7.774 -0.3851  0.0603  0.2956
  166MOL0     O22771  10.051   8.472  10.004  0.3862  0.7215 -0.2872
  166MOL0     C22772  10.039   8.364   9.940 -0.0990 -0.8552 -0.4282
  166MOL0     O22773  10.128   8.271   9.924 -0.9125  0.0116  0.3998
  166MOL0     C22774  10.229   8.257  10.013 -0.2760  0.1352 -0.1046
  166MOL0     C22775  10.214   8.256  10.152  1.1187 -0.3347  0.6639
  166MOL0     C22776  10.327   8.229  10.231  0.2942 -0.3967 -0.3739
  166MOL0     C22777  10.453   8.203  10.176 -0.8243 -0.0921 -0.4194
  166MOL0     O22778  10.547   8.151  10.266  0.5430 -0.6398 -0.2516
  166MOL0     C22779  10.685   8.147  10.234  0.0846  0.5959 -0.5594
  166MOL0     C22780  10.767   8.079  10.343  0.3881 -0.5738 -0.4813
  166MOL0     C22781  10.787   8.167  10.469  0.4195  0.3598 -0.2459
  166MOL0     C22782  10.874   8.104  10.573 -0.0997  0.3525  0.2774
  166MOL0     C22783  10.804   8.073  10.706 -0.3102  0.4222  0.8340
  166MOL0     C22784  10.777   8.198  10.790  0.8867 -0.6334  0.7320
  166MOL0     C22785  10.719   8.180  10.927 -0.0214  0.5081 -0.9259
  166MOL0     C22786  10.673   8.317  10.969  0.7654  0.1024 -0.1650
  166MOL0     N22787  10.616   8.321  11.106 -0.0225  0.5802 -0.5654
  166MOL0     C22788  10.642   8.406  11.208  0.2662  0.1563  0.3222
  166MOL0     C22789  10.577   8.355  11.314 -0.0290  0.2182 -0.0603
  166MOL0     C22790  10.603   8.419  11.451  1.1619  0.8101 -0.0756
  166MOL0     C22791  10.478   8.503  11.507  0.2566 -0.0199  0.0368
  166MOL0     C22792  10.504   8.659  11.477 -0.7492  0.3868 -0.1159
  166MOL0     C22793  10.403   8.757  11.562  0.3215  0.5412  0.4086
  166MOL0     O22794  10.398   8.884  11.508 -0.5059 -0.1460  0.3748
  166MOL0     C22795  10.279   8.954  11.484 -0.8852  0.1452 -0.2951
  166MOL0     C22796  10.284   9.074  11.415 -0.6184 -0.2824  0.3005
  166MOL0     C22797  10.170   9.147  11.383  1.0769 -0.1163  0.7127
  166MOL0     C22798  10.168   9.276  11.302 -0.1388  0.7080 -0.4873
  166MOL0     C22799  10.041   9.091  11.422  0.3898  0.2551 -0.3186
  166MOL0     C22800   9.911   9.147  11.383 -0.0285  0.1720 -0.4350
  166MOL0     O22801   9.891   9.275  11.411 -0.0134 -0.1472 -0.0475
  166MOL0     C22802   9.765   9.316  11.372 -0.4405  0.2952  0.6240
  166MOL0     C22803   9.659   9.261  11.423 -0.1945 -0.0678 -1.3648
  166MOL0     C22804   9.529   9.288  11.389 -0.0256 -0.0388 -0.6858
  166MOL0     C22805   9.504   9.381  11.288  0.2171  0.9518 -0.0059
  166MOL0     O22806   9.375   9.389  11.250  0.6719 -0.0802  0.6538
  166MOL0     C22807   9.340   9.504  11.162 -0.0412  0.2142  1.3061
  166MOL0     C22808   9.193   9.505  11.123  0.1936 -0.2384  0.1877
  166MOL0     C22809   9.183   9.620  11.028  0.4747 -0.0885  0.3269
  166MOL0     C22810   9.040   9.631  10.966 -0.8590  1.0006  0.7634
  166MOL0     C22811   9.022   9.766  10.896  0.1433 -0.4110  0.5787
  166MOL0     C22812   8.907   9.762  10.790  0.4400  0.6545 -0.2479
  166MOL0     C22813   8.915   9.874  10.676  0.4419  0.0557 -0.5152
  166MOL0     C22814   8.817   9.990  10.707  0.8580  0.1506 -0.2359
  166MOL0    Cl22815   8.874  10.075  10.864  0.0302  0.0320  0.8169
  166MOL0     C22816   9.619   9.450  11.232  0.9639 -1.2142  0.2934
  166MOL0     C22817   9.743   9.420  11.282 -0.8947 -0.2391 -0.8551
  166MOL0     O22818   9.837   9.073  11.321  0.0503  0.1411 -0.4593
  166MOL0     C22819  10.038   8.972  11.500  0.4393  0.4689  0.2947
  166MOL0     C22820  10.157   8.908  11.530  0.3950 -0.8099  0.6007
  166MOL0     N22821  10.490   8.257  11.272  0.4440 -0.5120 -0.2239
  166MOL0     N22822  10.513   8.233  11.150 -0.4149  0.0267  0.3891
  166MOL0     C22823  10.471   8.217  10.038 -0.8716 -0.0652 -0.0614
  166MOL0     C22824  10.354   8.237   9.957 -0.3088 -0.3250 -0.1591
  166MOL0     C22825   9.904   8.344   9.879  0.0081  0.9210  0.0165
  166MOL0     C22826   9.837   8.449   9.810 -0.9378  0.5888  0.5920
  166MOL0     C22827   9.715   8.424   9.740 -0.3214 -0.3315 -0.2254
  166MOL0     C22828   9.647   8.305   9.741  1.0315 -0.4356 -0.7301
  166MOL0     O22829   9.516   8.295   9.687 -0.8069 -0.1186  0.4658
  166MOL0     C22830   9.455   8.163   9.678  0.5536  0.2459 -0.3859
  166MOL0     C22831   9.510   8.055   9.588  0.5903 -0.8219  0.9418
  166MOL0     C22832   9.436   7.924   9.606  0.0024 -0.1306 -0.5981
  166MOL0     C22833   9.438   7.845   9.476 -0.4143 -0.6512  0.3448
  166MOL0     C22834   9.341   7.904   9.381 -0.3731  0.3540 -1.0368
  166MOL0     C22835   9.275   7.971   9.308  0.1078 -0.2701  0.4165
  166MOL0     C22836   9.713   8.205   9.814 -0.3540  0.1275  0.5330
  166MOL0     C22837   9.838   8.212   9.884  0.0680  0.2095 -0.4666
  166MOL0     C22838   9.889   8.094   9.963 -0.0075  0.7650 -0.4089
  166MOL0     H22839  10.118   8.272  10.200  1.3232 -0.7815  1.2462
  166MOL0     H22840  10.307   8.213  10.336  0.6607 -0.7977 -0.3590
  166MOL0     H22841  10.726   8.248  10.225 -2.2246  1.9112  2.0596
  166MOL0     H22842  10.697   8.088  10.143  0.0621  2.5198 -1.8532
  166MOL0     H22843  10.712   7.988  10.370  0.7060 -0.8850 -0.8718
  166MOL0     H22844  10.861   8.043  10.299  1.0745  1.1432 -0.4914
  166MOL0     H22845  10.823   8.259  10.420 -3.9244  0.5840 -3.6546
  166MOL0     H22846  10.689   8.188  10.513  1.0341  1.4246  0.6739
  166MOL0     H22847  10.927   8.014  10.538 -1.0647 -1.0235  2.2106
  166MOL0     H22848  10.959   8.166  10.603 -0.5109 -0.0056  2.3323
  166MOL0     H22849  10.877   8.015  10.763  0.2479  1.6659  1.4335
  166MOL0     H22850  10.707   8.023  10.694 -0.4220  1.0697 -1.2374
  166MOL0     H22851  10.864   8.264  10.803  0.1147  0.0580  2.7857
  166MOL0     H22852  10.701   8.258  10.738 -0.9700  0.1346  4.0327
  166MOL0     H22853  10.784   8.135  11.002 -2.5248  1.4300  2.0280
  166MOL0     H22854  10.631   8.115  10.925 -0.5487  1.1248  0.8664
  166MOL0     H22855  10.756   8.387  10.962 -1.1519  2.3454 -1.7306
  166MOL0     H22856  10.594   8.348  10.900  1.1989  2.2617  0.2461
  166MOL0     H22857  10.728   8.473  11.212 -0.8579  1.6633  4.0911
  166MOL0     H22858  10.687   8.488  11.448  1.3301  0.5743 -0.8736
  166MOL0     H22859  10.616   8.341  11.527 -1.3393  1.1483  0.7879
  166MOL0     H22860  10.383   8.481  11.458 -0.5492 -0.5058  1.7361
  166MOL0     H22861  10.466   8.483  11.614  2.9396 -0.9308  0.2605
  166MOL0     H22862  10.610   8.680  11.487 -0.9718  1.3168  0.3417
  166MOL0     H22863  10.483   8.678  11.371 -3.2996  1.1875  0.4531
  166MOL0     H22864  10.305   8.707  11.563 -1.0998  3.0496 -1.6385
  166MOL0     H22865  10.432   8.777  11.665 -0.4653 -0.5121  0.8610
  166MOL0     H22866  10.381   9.112  11.383 -2.3169  1.7244 -3.0810
  166MOL0     H22867  10.265   9.326  11.311  0.4923 -0.6470  0.6826
  166MOL0     H22868  10.099   9.351  11.341  1.6433  1.7103  0.9231
  166MOL0     H22869  10.151   9.250  11.197  0.7288  0.5771 -0.6052
  166MOL0     H22870   9.663   9.200  11.513 -1.2917  0.3197 -1.0384
  166MOL0     H22871   9.442   9.241  11.433 -0.3095  1.5529  0.5405
  166MOL0     H22872   9.372   9.601  11.201  0.9709  0.4651 -0.0585
  166MOL0     H22873   9.392   9.494  11.066 -0.9731  1.6613  0.6074
  166MOL0     H22874   9.145   9.420  11.074 -3.6096  0.1816  2.7481
  166MOL0     H22875   9.137   9.511  11.216 -0.5156  0.3281 -0.2607
  166MOL0     H22876   9.260   9.614  10.951 -1.6052 -1.5975 -1.7579
  166MOL0     H22877   9.204   9.713  11.084 -1.0172  0.5053 -0.0628
  166MOL0     H22878   8.981   9.621  11.058 -0.2551 -0.0228  1.0655
  166MOL0     H22879   9.021   9.550  10.895  1.1439  0.7217  0.4798
  166MOL0     H22880   9.017   9.848  10.968  0.0373 -1.7470  2.1780
  166MOL0     H22881   9.106   9.789  10.831  1.2170 -1.6140  1.4945
  166MOL0     H22882   8.822   9.783  10.855 -0.2888  3.4499 -1.9524
  166MOL0     H22883   8.907   9.661  10.748  2.0660 -0.6318  2.5344
  166MOL0     H22884   8.881   9.825  10.585  0.3815 -1.2618  0.2001
  166MOL0     H22885   9.015   9.913  10.654  1.7411 -1.8637  1.5592
  166MOL0     H22886   8.716   9.948  10.715  1.8503 -2.6799 -1.2864
  166MOL0     H22887   8.827  10.066  10.629  2.6769 -0.1118 -0.3087
  166MOL0     H22888   9.615   9.532  11.160  2.4231 -1.7136 -0.3960
  166MOL0     H22889   9.829   9.469  11.236 -2.4810  0.6908 -2.9661
  166MOL0     H22890   9.943   8.922  11.518 -0.1918  1.3746 -0.4337
  166MOL0     H22891  10.147   8.816  11.586  1.5135 -0.9350  0.6202
  166MOL0     H22892  10.572   8.207  10.000 -1.0113 -1.0819 -0.1984
  166MOL0     H22893  10.377   8.237   9.851 -2.0881 -1.4304 -0.5803
  166MOL0     H22894   9.875   8.551   9.811  0.4701  0.0793  0.6445
  166MOL0     H22895   9.666   8.512   9.701 -0.4289  0.6424  1.9372
  166MOL0     H22896   9.457   8.125   9.781 -1.4351 -0.9837 -0.7448
  166MOL0     H22897   9.349   8.179   9.656  0.0747 -3.6023 -1.6409
  166MOL0     H22898   9.616   8.039   9.610  0.6634 -1.0677  0.4188
  166MOL0     H22899   9.491   8.097   9.488  1.2054  0.4050  1.3192
  166MOL0     H22900   9.494   7.869   9.681  0.6424 -1.9320 -2.3488
  166MOL0     H22901   9.337   7.925   9.654  0.9244 -3.2057  1.6510
  166MOL0     H22902   9.415   7.742   9.506 -1.7930  0.7345  4.8898
  166MOL0     H22903   9.530   7.841   9.417 -0.2024  2.1256  0.3716
  166MOL0     H22904   9.201   8.013   9.243 -3.0723 -2.5484  2.2773
  166MOL0     H22905   9.665   8.108   9.809 -0.7164  0.3681 -3.2975
  166MOL0     H22906   9.938   8.025   9.895 -0.7276  0.2253 -0.3977
  166MOL0     H22907   9.962   8.125  10.038  0.4533 -0.4295 -0.3395
  166MOL0     H22908   9.804   8.046  10.013  1.9393  0.4623  2.8743
  167MOL0     O22909   0.985   0.922   5.230  0.4448  0.1322 -0.2195
  167MOL0     C22910   0.891   0.992   5.266 -0.2940  0.3401 -0.3071
  167MOL0     O22911   0.763   0.983   5.219  0.2752 -0.0458  0.3551
  167MOL0     C22912   0.747   0.892   5.119 -0.0206 -0.1274  0.3505
  167MOL0     C22913   0.723   0.935   4.988 -0.1251  0.9135 -0.0794
  167MOL0     C22914   0.705   0.839   4.889  0.1949  1.1639 -0.0892
  167MOL0     C22915   0.705   0.703   4.906  1.1321  0.6737 -0.6283
  167MOL0     O22916   0.681   0.610   4.813 -0.2993  0.0867 -0.6178
  167MOL0     C22917   0.653   0.647   4.677 -0.1042 -0.0479  0.1549
  167MOL0     C22918   0.620   0.504   4.607 -0.0921 -0.5727 -0.0191
  167MOL0     C22919   0.532   0.521   4.488  0.1289 -0.2323  0.7014
  167MOL0     C22920   0.597   0.607   4.373  0.2594  0.5366 -0.7032
  167MOL0     C22921   0.489   0.621   4.268  0.0327 -0.4478 -0.1132
  167MOL0     C22922   0.481   0.500   4.160 -0.9798 -0.1486  0.1579
  167MOL0     C22923   0.350   0.509   4.095 -0.1559  0.1924  0.2833
  167MOL0     C22924   0.344   0.413   3.970 -0.5109  0.0008 -0.0179
  167MOL0     N22925   0.227   0.454   3.892  0.5963 -0.1888  0.4922
  167MOL0     C22926   0.218   0.423   3.759 -0.7432 -0.4534  0.6635
  167MOL0     C22927   0.094   0.467   3.727 -0.6007 -0.1579  0.0273
  167MOL0     C22928   0.035   0.462   3.583  0.1665 -0.3151  0.1413
  167MOL0     C22929   0.076   0.339   3.503  0.6589  0.1063  0.7316
  167MOL0     C22930  -0.020   0.306   3.389  0.3414  0.7215  0.6174
  167MOL0     C22931  -0.145   0.221   3.413  0.8554 -0.2507 -0.9418
  167MOL0     O22932  -0.113   0.079   3.408  0.2317 -0.5925  0.7662
  167MOL0     C22933  -0.195   0.018   3.321 -0.1306  0.9830 -0.3526
  167MOL0     C22934  -0.307  -0.064   3.360  0.1169  0.1723 -0.8882
  167MOL0     C22935  -0.380  -0.138   3.269 -0.0411  0.0401  0.3299
  167MOL0     C22936  -0.486  -0.227   3.324  0.2231  1.0291 -0.2611
  167MOL0     C22937  -0.342  -0.122   3.131 -0.8197  0.7393  0.0068
  167MOL0     C22938  -0.415  -0.185   3.014  0.7989 -0.5534  0.1528
  167MOL0     O22939  -0.355  -0.194   2.891 -0.4156 -0.0291 -0.5862
  167MOL0     C22940  -0.423  -0.251   2.786  0.6123  0.3877  0.0306
  167MOL0     C22941  -0.544  -0.190   2.733  0.3128 -0.3407 -0.2872
  167MOL0     C22942  -0.610  -0.259   2.630 -0.1938  0.1234  0.0267
  167MOL0     C22943  -0.568  -0.375   2.579 -0.0920  0.7176  0.5485
  167MOL0     O22944  -0.647  -0.431   2.480 -0.3969  0.0218  0.0658
  167MOL0     C22945  -0.654  -0.575   2.471  0.3862 -0.2173  0.3544
  167MOL0     C22946  -0.754  -0.615   2.365  0.1789  0.1472 -0.8813
  167MOL0     C22947  -0.793  -0.768   2.379 -0.2273 -1.1197  0.4205
  167MOL0     C22948  -0.900  -0.803   2.270  0.1077 -0.0244  0.3286
  167MOL0     C22949  -0.918  -0.958   2.257  0.1971 -0.5486  0.5782
  167MOL0     C22950  -0.950  -1.033   2.390  0.5238 -0.0732 -0.0029
  167MOL0     C22951  -0.931  -1.185   2.376  0.6790  0.8619 -0.0431
  167MOL0     C22952  -1.056  -1.259   2.337 -0.1128 -1.0311 -0.1170
  167MOL0    Cl22953  -1.079  -1.274   2.164 -0.3024 -0.3536 -0.1969
  167MOL0     C22954  -0.441  -0.425   2.618  0.5137 -0.2399 -0.1451
  167MOL0     C22955  -0.374  -0.373   2.731  0.3088  0.2579  0.6479
  167MOL0     O22956  -0.531  -0.222   3.036 -0.3012  0.2628 -0.3256
  167MOL0     C22957  -0.234  -0.039   3.093  0.8093 -0.3060  0.3748
  167MOL0     C22958  -0.160   0.028   3.184 -0.3965  0.4636 -0.6939
  167MOL0     N22959   0.037   0.511   3.841 -0.6648 -0.1679  0.0003
  167MOL0     N22960   0.120   0.519   3.935 -0.6970 -0.6749 -0.5506
  167MOL0     C22961   0.753   0.659   5.039 -0.4769  0.7176  0.8819
  167MOL0     C22962   0.768   0.750   5.142 -0.6709 -1.2225  0.3345
  167MOL0     C22963   0.899   1.083   5.384 -0.9198 -0.4870  0.3118
  167MOL0     C22964   0.782   1.104   5.448  1.0074 -0.1923 -1.0856
  167MOL0     C22965   0.783   1.183   5.560  1.0881  0.1947  0.0973
  167MOL0     C22966   0.899   1.229   5.619 -0.1306  0.6296 -0.9965
  167MOL0     O22967   0.894   1.300   5.736 -1.1904 -0.4765 -0.0695
  167MOL0     C22968   0.855   1.431   5.720 -0.2667 -0.5365 -0.4631
  167MOL0     C22969   0.801   1.514   5.833  1.1682  0.1737  0.0121
  167MOL0     C22970   0.726   1.634   5.773  0.2709  0.2351 -0.0308
  167MOL0     C22971   0.697   1.738   5.889  0.1570  0.6227 -0.2228
  167MOL0     C22972   0.814   1.819   5.922  0.4266 -0.0198 -0.1999
  167MOL0     C22973   0.907   1.885   5.900 -0.8014 -0.0153 -0.2779
  167MOL0     C22974   1.022   1.209   5.557  0.2042 -0.8149 -0.7017
  167MOL0     C22975   1.027   1.135   5.435  0.1677 -0.2031 -0.1378
  167MOL0     C22976   1.162   1.130   5.360  0.5927 -0.3400  0.4191
  167MOL0     H22977   0.720   1.042   4.971 -0.4575  0.4821 -3.6206
  167MOL0     H22978   0.696   0.888   4.792 -0.1837 -1.4670 -1.4566
  167MOL0     H22979   0.738   0.694   4.627  1.2049 -1.9011  0.5389
  167MOL0     H22980   0.576   0.724   4.672 -2.0612 -1.8503  0.9542
  167MOL0     H22981   0.719   0.464   4.585  0.5707  0.0451  1.6739
  167MOL0     H22982   0.577   0.444   4.688 -3.1955 -1.2056 -1.9908
  167MOL0     H22983   0.501   0.427   4.440 -2.2549  0.9132 -0.1772
  167MOL0     H22984   0.432   0.556   4.515 -0.2860  2.0615 -3.0818
  167MOL0     H22985   0.632   0.706   4.400 -1.1541  0.3064  2.4440
  167MOL0     H22986   0.680   0.542   4.344 -0.7154 -1.3887  0.5481
  167MOL0     H22987   0.509   0.718   4.223 -0.0460 -0.2290  0.3121
  167MOL0     H22988   0.393   0.633   4.320  0.2230  2.0352 -0.2475
  167MOL0     H22989   0.557   0.505   4.082  0.6009  0.4910  1.6773
  167MOL0     H22990   0.495   0.402   4.208  2.3720 -0.1111 -0.5300
  167MOL0     H22991   0.341   0.616   4.071  1.1202  0.1426 -0.5028
  167MOL0     H22992   0.275   0.479   4.169 -0.8877 -3.1224 -1.5974
  167MOL0     H22993   0.438   0.440   3.921 -0.3771  0.7145  0.6161
  167MOL0     H22994   0.331   0.311   4.005 -3.1071 -0.1749 -1.2259
  167MOL0     H22995   0.298   0.374   3.703 -0.3395  2.4780 -1.5841
  167MOL0     H22996   0.057   0.557   3.533  0.2883 -0.3393  0.1470
  167MOL0     H22997  -0.074   0.460   3.591  0.0646 -1.7524 -1.1587
  167MOL0     H22998   0.171   0.360   3.452 -0.1895 -1.0828 -1.5142
  167MOL0     H22999   0.095   0.247   3.558 -2.4172 -2.5400 -2.1195
  167MOL0     H23000  -0.067   0.395   3.345  1.7458 -0.3566 -3.4820
  167MOL0     H23001   0.043   0.258   3.314  2.0337 -1.1113  3.0668
  167MOL0     H23002  -0.184   0.238   3.514 -0.1347  0.1812 -1.3883
  167MOL0     H23003  -0.223   0.242   3.340  1.9051 -1.5845 -2.5236
  167MOL0     H23004  -0.343  -0.076   3.462  2.1805  0.6770 -0.0558
  167MOL0     H23005  -0.494  -0.306   3.248  1.6948  2.1466 -1.6721
  167MOL0     H23006  -0.578  -0.171   3.338 -1.1645 -1.6598  2.5998
  167MOL0     H23007  -0.459  -0.278   3.417  2.8045  0.2313 -1.3451
  167MOL0     H23008  -0.591  -0.096   2.760 -3.1391 -1.7199 -0.9845
  167MOL0     H23009  -0.705  -0.220   2.596 -1.5418  1.4742  4.5994
  167MOL0     H23010  -0.557  -0.616   2.442  0.3292  0.8297 -1.4361
  167MOL0     H23011  -0.705  -0.606   2.563 -2.4852  2.1388 -0.3005
  167MOL0     H23012  -0.844  -0.558   2.392 -0.4908 -1.0273 -0.5721
  167MOL0     H23013  -0.711  -0.586   2.268 -0.4419 -0.5920 -1.3928
  167MOL0     H23014  -0.827  -0.787   2.482  3.2939  0.9193  2.1519
  167MOL0     H23015  -0.706  -0.829   2.355  0.8118  0.8389 -1.0483
  167MOL0     H23016  -0.875  -0.739   2.185  1.9626  1.2222  1.7361
  167MOL0     H23017  -0.990  -0.755   2.310  0.9257  0.9953  0.9873
  167MOL0     H23018  -0.996  -0.991   2.187  3.3591 -3.2263 -2.0266
  167MOL0     H23019  -0.820  -0.989   2.219  0.3874  0.8015 -0.1396
  167MOL0     H23020  -1.054  -1.015   2.419  0.1464  1.4156 -2.0193
  167MOL0     H23021  -0.884  -0.997   2.470  0.3827 -1.1104  0.5891
  167MOL0     H23022  -0.918  -1.206   2.483 -1.2291  2.4596  0.5675
  167MOL0     H23023  -0.853  -1.210   2.303  0.2238 -1.4494  0.1793
  167MOL0     H23024  -1.143  -1.217   2.389  2.1216  0.3493  2.8193
  167MOL0     H23025  -1.051  -1.358   2.382 -1.6442 -0.6591  0.9581
  167MOL0     H23026  -0.393  -0.502   2.559  3.2555 -1.4821  3.3312
  167MOL0     H23027  -0.279  -0.420   2.755 -0.2226 -2.2402 -1.6334
  167MOL0     H23028  -0.224  -0.025   2.986  0.1292 -1.3381  0.1626
  167MOL0     H23029  -0.079   0.095   3.156 -0.6646  0.7467 -0.8059
  167MOL0     H23030   0.759   0.555   5.067 -1.7628  0.6042  0.8257
  167MOL0     H23031   0.806   0.726   5.241  2.7108  2.4602  0.1917
  167MOL0     H23032   0.689   1.062   5.411  0.5984 -0.1647 -0.1179
  167MOL0     H23033   0.694   1.209   5.616 -0.3318 -1.6540 -1.1550
  167MOL0     H23034   0.938   1.493   5.685  0.9433  0.2278  3.3364
  167MOL0     H23035   0.780   1.424   5.641 -1.0654  0.5826  0.1706
  167MOL0     H23036   0.871   1.552   5.909  1.3860  1.3653 -0.7563
  167MOL0     H23037   0.723   1.452   5.878  0.9914 -0.2017 -0.7964
  167MOL0     H23038   0.772   1.677   5.684  0.7269  1.1246  0.6115
  167MOL0     H23039   0.629   1.604   5.734  1.0744  0.9737 -2.7757
  167MOL0     H23040   0.669   1.681   5.978 -1.2690 -0.4315 -1.3049
  167MOL0     H23041   0.605   1.792   5.867 -0.7741 -1.1242 -0.7882
  167MOL0     H23042   1.000   1.936   5.888  0.4645 -1.3614  2.7831
  167MOL0     H23043   1.120   1.236   5.596 -0.0920  0.8635 -1.0437
  167MOL0     H23044   1.169   1.196   5.273  4.1872 -0.0530  0.7739
  167MOL0     H23045   1.235   1.173   5.429  1.0914  2.0721 -1.4851
  167MOL0     H23046   1.193   1.028   5.333 -1.0373 -0.4977 -1.0418
  168MOL0     O23047   4.198  10.453   2.710 -0.4486  0.8999  1.4061
  168MOL0     C23048   4.093  10.492   2.746 -0.5561 -0.6237  0.5377
  168MOL0     O23049   3.986  10.419   2.771 -1.1132 -0.5246 -0.4444
  168MOL0     C23050   3.992  10.288   2.751  0.7383 -0.2953  0.1510
  168MOL0     C23051   4.042  10.208   2.850 -0.7407 -0.0157  0.5784
  168MOL0     C23052   4.068  10.069   2.832  0.2495 -0.7330 -0.2538
  168MOL0     C23053   4.042  10.018   2.705 -0.1972 -0.1424 -0.0552
  168MOL0     O23054   4.067   9.893   2.662  0.7482 -0.3877  0.1221
  168MOL0     C23055   4.200   9.845   2.686  0.2553 -0.7613 -0.0082
  168MOL0     C23056   4.250   9.742   2.580  0.3164  0.2193 -0.1813
  168MOL0     C23057   4.287   9.799   2.445 -0.2104 -0.3644 -0.1823
  168MOL0     C23058   4.383   9.915   2.447  0.8511 -0.7874  1.2794
  168MOL0     C23059   4.414   9.976   2.310 -0.0364  0.5302 -0.1239
  168MOL0     C23060   4.534   9.904   2.247 -0.3178  1.7280  0.8309
  168MOL0     C23061   4.584   9.970   2.112 -0.3567  0.0167  0.3273
  168MOL0     C23062   4.483   9.990   2.008  0.5828  0.1423 -0.0417
  168MOL0     N23063   4.401  10.114   1.994 -0.3423 -0.6984 -0.0719
  168MOL0     C23064   4.404  10.231   2.058  0.7167 -0.1327  0.8532
  168MOL0     C23065   4.334  10.318   1.976 -0.1421  0.5734 -0.8201
  168MOL0     C23066   4.328  10.459   2.017  0.2330 -1.1040  0.6022
  168MOL0     C23067   4.466  10.526   1.994 -0.0805  0.0454 -0.1033
  168MOL0     C23068   4.471  10.672   2.018 -0.6300 -0.6313 -1.1452
  168MOL0     C23069   4.423  10.764   1.899 -0.0777 -0.4067  0.5779
  168MOL0     O23070   4.514  10.749   1.788  0.1500  0.4270 -0.0335
  168MOL0     C23071   4.612  10.841   1.783 -1.1236 -0.6421  1.3831
  168MOL0     C23072   4.674  10.903   1.892  0.1613  0.3208 -0.3637
  168MOL0     C23073   4.793  10.980   1.879 -0.4976 -0.5492 -0.0909
  168MOL0     C23074   4.861  11.022   2.008 -0.5289  0.2354 -0.2555
  168MOL0     C23075   4.839  11.015   1.752 -0.2101  0.2413 -0.0972
  168MOL0     C23076   4.937  11.119   1.721  0.5038 -0.0021 -0.0852
  168MOL0     O23077   4.945  11.164   1.593 -0.2931  0.7814  0.2189
  168MOL0     C23078   5.045  11.253   1.574 -0.3217  0.2164  0.5127
  168MOL0     C23079   5.036  11.381   1.622 -0.8101  1.1070  0.5654
  168MOL0     C23080   5.141  11.468   1.609 -0.6680 -0.1936 -1.0506
  168MOL0     C23081   5.256  11.434   1.530 -0.2721 -0.0549  0.4384
  168MOL0     O23082   5.362  11.523   1.535  0.2365  0.5807  0.2982
  168MOL0     C23083   5.453  11.485   1.633  0.3678 -0.2385 -0.1314
  168MOL0     C23084   5.579  11.561   1.607  0.3459  0.9023 -0.3929
  168MOL0     C23085   5.648  11.500   1.484 -0.8672  0.4817 -0.5002
  168MOL0     C23086   5.802  11.542   1.470 -0.7649 -0.7100  0.4346
  168MOL0     C23087   5.880  11.456   1.366  0.0184  0.5554  0.0296
  168MOL0     C23088   5.797  11.454   1.234 -0.4955  0.0388  0.4472
  168MOL0     C23089   5.866  11.356   1.138 -0.7237 -0.2565  0.1454
  168MOL0     C23090   5.773  11.247   1.108  0.1397  0.5264 -0.4884
  168MOL0    Cl23091   5.622  11.300   1.012  0.3696 -0.1649  0.2480
  168MOL0     C23092   5.267  11.303   1.473 -0.5111 -0.3485  0.0468
  168MOL0     C23093   5.157  11.225   1.492 -0.2800 -0.3563 -0.6283
  168MOL0     O23094   5.003  11.161   1.813 -0.0923 -0.1907 -0.0357
  168MOL0     C23095   4.779  10.950   1.640  0.5251  0.1325  0.2686
  168MOL0     C23096   4.670  10.867   1.659 -0.1206  0.1453  0.0625
  168MOL0     N23097   4.268  10.246   1.883 -0.5926 -0.5577  1.1680
  168MOL0     N23098   4.319  10.123   1.885 -0.3233 -0.6729  0.4553
  168MOL0     C23099   3.996  10.102   2.605  0.4346 -0.4854  0.8408
  168MOL0     C23100   3.980  10.240   2.619 -0.2499 -0.6163 -0.2355
  168MOL0     C23101   4.093  10.636   2.786  0.4574 -0.3253 -0.4551
  168MOL0     C23102   4.147  10.729   2.696  0.7990  0.6476  0.5484
  168MOL0     C23103   4.174  10.866   2.726 -0.1137 -0.3796  0.4446
  168MOL0     C23104   4.117  10.918   2.837  0.8243  0.7680 -1.3482
  168MOL0     O23105   4.119  11.053   2.877  0.3571 -0.0153  0.7337
  168MOL0     C23106   4.003  11.137   2.855  0.1162 -0.0154 -0.0923
  168MOL0     C23107   4.026  11.245   2.746 -0.9133  0.1716 -0.5833
  168MOL0     C23108   4.031  11.193   2.604 -0.1940 -0.1060 -0.2314
  168MOL0     C23109   4.017  11.302   2.500  0.0573  0.1888 -0.0214
  168MOL0     C23110   4.143  11.359   2.456  0.0542 -0.0747  0.3984
  168MOL0     C23111   4.250  11.398   2.436  0.6975 -0.3651  1.5874
  168MOL0     C23112   4.061  10.821   2.930  0.6475 -0.3277 -0.1879
  168MOL0     C23113   4.052  10.685   2.912  0.2049 -0.7283 -0.0498
  168MOL0     C23114   4.002  10.598   3.028  0.4447  0.2273 -0.2425
  168MOL0     H23115   4.056  10.253   2.947 -0.3082  1.0204  0.0543
  168MOL0     H23116   4.113  10.016   2.915  0.9776 -2.6346 -1.8053
  168MOL0     H23117   4.185   9.790   2.780  0.9937 -1.1110 -0.0884
  168MOL0     H23118   4.268   9.925   2.715 -1.8996  1.0673  0.3248
  168MOL0     H23119   4.347   9.716   2.624  0.8323  5.2272  2.2703
  168MOL0     H23120   4.181   9.658   2.573  1.1706 -0.5839  0.6524
  168MOL0     H23121   4.322   9.714   2.385  1.3037 -0.2775  0.5366
  168MOL0     H23122   4.193   9.827   2.397 -0.4147  0.1342  0.4926
  168MOL0     H23123   4.349  10.002   2.504 -1.0663 -0.6674  0.0331
  168MOL0     H23124   4.477   9.885   2.494  0.7975  0.3023  2.1207
  168MOL0     H23125   4.436  10.083   2.318 -0.3368  0.5564  0.4314
  168MOL0     H23126   4.321   9.975   2.253  0.2094 -0.1661 -0.5295
  168MOL0     H23127   4.614   9.921   2.320  0.7823  3.5979 -0.7069
  168MOL0     H23128   4.521   9.795   2.247 -1.9271  1.8955  0.8064
  168MOL0     H23129   4.663   9.913   2.064 -1.1421 -0.5031 -0.3683
  168MOL0     H23130   4.631  10.068   2.125 -3.0606  1.5366 -0.5567
  168MOL0     H23131   4.533   9.967   1.913  0.4074  0.6121 -0.2552
  168MOL0     H23132   4.405   9.913   2.013  1.4514 -0.7555 -0.0967
  168MOL0     H23133   4.456  10.266   2.147  2.6171  0.2751 -0.3515
  168MOL0     H23134   4.291  10.469   2.120  0.5266 -1.3953  0.7382
  168MOL0     H23135   4.256  10.513   1.956 -0.9878 -2.6589  0.6128
  168MOL0     H23136   4.540  10.473   2.055 -1.4301 -1.4432  0.2969
  168MOL0     H23137   4.496  10.502   1.891 -1.0090 -1.4480 -0.0605
  168MOL0     H23138   4.408  10.700   2.103  1.7722 -0.6135  0.7319
  168MOL0     H23139   4.577  10.686   2.043 -1.2441 -0.6046  1.8734
  168MOL0     H23140   4.322  10.740   1.863 -0.7892  1.2442  1.3766
  168MOL0     H23141   4.410  10.866   1.936 -0.1474  0.1856 -0.9906
  168MOL0     H23142   4.634  10.875   1.989  1.6051 -0.6642  0.0003
  168MOL0     H23143   4.814  10.995   2.102  1.1909 -0.7855  0.3631
  168MOL0     H23144   4.863  11.131   2.014  3.2150  0.5997 -3.4518
  168MOL0     H23145   4.968  10.997   2.010 -0.3400  0.9940 -0.5694
  168MOL0     H23146   4.953  11.414   1.684 -1.2902  1.3350 -0.1906
  168MOL0     H23147   5.128  11.561   1.662 -0.6045 -1.4126  1.2463
  168MOL0     H23148   5.404  11.519   1.725 -1.8292 -0.2650 -1.2143
  168MOL0     H23149   5.480  11.380   1.644  0.4223 -0.0826  1.4598
  168MOL0     H23150   5.563  11.661   1.567 -0.7139  1.1540  0.6050
  168MOL0     H23151   5.657  11.563   1.684  1.1021  2.1956 -1.1586
  168MOL0     H23152   5.585  11.529   1.400 -2.5314 -1.3555  0.0349
  168MOL0     H23153   5.652  11.390   1.479  1.5021  0.3921  1.3479
  168MOL0     H23154   5.849  11.535   1.568 -1.2218  1.1339  0.8289
  168MOL0     H23155   5.810  11.645   1.434 -2.3224 -1.1538 -1.3344
  168MOL0     H23156   5.979  11.496   1.342  0.8698 -0.2282  2.0868
  168MOL0     H23157   5.892  11.359   1.415 -1.0962  1.9814  3.4128
  168MOL0     H23158   5.794  11.554   1.190  1.4875 -0.8157 -1.8835
  168MOL0     H23159   5.693  11.430   1.253 -1.1899  1.0817 -1.7151
  168MOL0     H23160   5.961  11.327   1.184  0.5345  0.7113 -1.6984
  168MOL0     H23161   5.906  11.404   1.048  0.1868 -1.5413 -0.1695
  168MOL0     H23162   5.742  11.204   1.203  1.3934  0.8273  0.0785
  168MOL0     H23163   5.832  11.167   1.061 -1.2446 -1.9095  1.6736
  168MOL0     H23164   5.345  11.279   1.402 -1.9374  1.2791 -2.1995
  168MOL0     H23165   5.161  11.121   1.459  2.2436 -1.9521  3.7821
  168MOL0     H23166   4.812  10.973   1.539  0.8970  0.2726  0.4197
  168MOL0     H23167   4.622  10.822   1.573 -1.6780 -1.2389  1.5850
  168MOL0     H23168   3.978  10.047   2.514 -2.7286 -2.7190  2.6185
  168MOL0     H23169   3.962  10.309   2.537 -0.1229 -0.6026 -0.2518
  168MOL0     H23170   4.185  10.683   2.605 -1.4620 -1.3641  0.5212
  168MOL0     H23171   4.213  10.932   2.650 -2.1496  0.8164  0.3429
  168MOL0     H23172   3.929  11.064   2.821  1.4196 -0.5475 -1.9682
  168MOL0     H23173   3.968  11.176   2.951  0.4936  0.3425 -0.0997
  168MOL0     H23174   4.111  11.311   2.767  0.1392 -1.4932  0.6638
  168MOL0     H23175   3.936  11.307   2.750 -0.2906  1.0277  0.4573
  168MOL0     H23176   4.130  11.146   2.601 -1.7110 -3.7688  1.0653
  168MOL0     H23177   3.973  11.102   2.582 -1.1138 -0.4330  2.9514
  168MOL0     H23178   3.952  11.377   2.545  0.0160  1.3903 -1.9871
  168MOL0     H23179   3.969  11.254   2.415  1.3434 -1.8187  0.3084
  168MOL0     H23180   4.348  11.425   2.400  1.5591 -1.7107  2.8293
  168MOL0     H23181   4.024  10.864   3.023 -1.4597  0.0817 -1.1565
  168MOL0     H23182   3.962  10.667   3.102  1.6963  0.1374  0.5335
  168MOL0     H23183   3.933  10.521   2.991  0.6204  1.3340 -3.2123
  168MOL0     H23184   4.082  10.543   3.078 -0.9934 -0.6468  1.2004
  169MOL0     O23185   3.549   1.435  11.504  0.7266 -0.2442  0.0632
  169MOL0     C23186   3.433   1.414  11.515 -0.1079  0.1019 -0.0587
  169MOL0     O23187   3.365   1.294  11.481 -0.5380  0.4928  0.2344
  169MOL0     C23188   3.426   1.175  11.442  0.0697 -0.4530  0.4407
  169MOL0     C23189   3.363   1.098  11.343 -0.5525  0.0783  0.1406
  169MOL0     C23190   3.407   0.970  11.319 -0.9573 -0.4405 -0.6665
  169MOL0     C23191   3.530   0.923  11.381  0.0411  0.1803 -0.5577
  169MOL0     O23192   3.573   0.801  11.361  0.0389  0.0122  0.4596
  169MOL0     C23193   3.689   0.741  11.412  0.0569 -0.7961 -0.1368
  169MOL0     C23194   3.713   0.615  11.334  0.2319 -0.3487  0.7431
  169MOL0     C23195   3.817   0.536  11.409 -0.1356  0.3878 -0.0203
  169MOL0     C23196   3.885   0.432  11.310 -0.4839 -0.4748 -0.2788
  169MOL0     C23197   4.012   0.352  11.370 -0.9680 -0.1256 -0.4754
  169MOL0     C23198   4.074   0.261  11.268  0.0778 -0.2761 -0.6448
  169MOL0     C23199   4.135   0.323  11.136 -0.0764  0.6703 -0.2853
  169MOL0     C23200   4.136   0.214  11.035  0.3279  0.6232  1.0655
  169MOL0     N23201   4.202   0.243  10.907 -0.6431 -0.5486 -0.2996
  169MOL0     C23202   4.156   0.303  10.793 -0.4596 -0.2150 -0.4971
  169MOL0     C23203   4.260   0.315  10.710  0.2171  0.4537  0.5488
  169MOL0     C23204   4.253   0.392  10.585 -0.5928  0.3747 -0.3288
  169MOL0     C23205   4.360   0.359  10.479  0.1359 -0.4525  0.6954
  169MOL0     C23206   4.367   0.470  10.370 -0.5911  0.0655 -0.1947
  169MOL0     C23207   4.278   0.450  10.246 -0.4539  0.4059 -0.3929
  169MOL0     O23208   4.308   0.329  10.178 -0.4719  0.4088 -0.6847
  169MOL0     C23209   4.220   0.277  10.085  0.0297 -0.3982 -0.2550
  169MOL0     C23210   4.206   0.138  10.070 -0.6547 -0.5838 -0.6839
  169MOL0     C23211   4.129   0.076   9.967 -0.5620 -1.2265 -0.3674
  169MOL0     C23212   4.133  -0.074   9.960  0.3832  0.9842 -0.1820
  169MOL0     C23213   4.069   0.162   9.866  1.0935  0.4898 -0.9091
  169MOL0     C23214   4.013   0.112   9.740  0.1270 -0.5259 -0.5035
  169MOL0     O23215   4.035   0.203   9.632 -0.3728  0.6574 -0.1276
  169MOL0     C23216   3.993   0.167   9.506  0.6579  0.5981  0.3626
  169MOL0     C23217   4.044   0.051   9.445 -0.4242  0.6807 -0.8248
  169MOL0     C23218   4.007   0.017   9.322  0.3416 -0.8087  0.2560
  169MOL0     C23219   3.917   0.090   9.246 -0.3139  0.4464 -0.1861
  169MOL0     O23220   3.892   0.068   9.114  0.8160 -0.8477  0.1553
  169MOL0     C23221   3.878   0.167   9.015 -0.2039  0.4186 -0.1609
  169MOL0     C23222   3.871   0.087   8.882  0.4408  0.1373  1.0329
  169MOL0     C23223   3.834   0.178   8.764  0.1038 -0.7311 -0.1999
  169MOL0     C23224   3.733   0.090   8.680 -0.0253  0.3928 -0.3714
  169MOL0     C23225   3.806  -0.030   8.617  0.1496 -0.9928 -0.2368
  169MOL0     C23226   3.706  -0.133   8.556 -0.9081 -0.2568  0.3518
  169MOL0     C23227   3.775  -0.233   8.466  0.1465 -0.5709  0.0624
  169MOL0     C23228   3.678  -0.348   8.428 -0.1055  0.3257 -0.9331
  169MOL0    Cl23229   3.616  -0.439   8.576 -0.3750  0.4077 -0.1193
  169MOL0     C23230   3.866   0.202   9.305 -0.9623 -0.1211 -0.2748
  169MOL0     C23231   3.902   0.241   9.435 -0.8226 -0.8416  0.9897
  169MOL0     O23232   3.938   0.015   9.739 -0.1773 -0.4085  0.0210
  169MOL0     C23233   4.075   0.302   9.891  0.8596  0.3676  0.8034
  169MOL0     C23234   4.155   0.359   9.991  0.3471  0.4147  0.2223
  169MOL0     N23235   4.371   0.269  10.776 -1.2262 -0.5704  0.4842
  169MOL0     N23236   4.338   0.227  10.889  0.6343 -0.2971 -0.3831
  169MOL0     C23237   3.601   1.009  11.463 -0.3162  1.4675  0.1073
  169MOL0     C23238   3.546   1.136  11.494 -0.1256 -0.3672  0.5730
  169MOL0     C23239   3.361   1.534  11.560  0.7908 -1.6014  0.2856
  169MOL0     C23240   3.240   1.590  11.489 -0.3471  0.2707  0.7620
  169MOL0     C23241   3.196   1.712  11.535 -0.6103 -0.4657  1.2926
  169MOL0     C23242   3.262   1.784  11.630  0.2096 -0.0267 -0.2201
  169MOL0     O23243   3.202   1.902  11.664  0.4344  0.3201 -0.5982
  169MOL0     C23244   3.242   2.016  11.585 -0.3294 -0.4726  0.0343
  169MOL0     C23245   3.317   2.121  11.670 -0.2801  0.2413  0.3854
  169MOL0     C23246   3.233   2.169  11.786  1.2559 -0.9781 -0.5571
  169MOL0     C23247   3.317   2.271  11.867  0.3768  0.2141  0.4088
  169MOL0     C23248   3.322   2.395  11.793 -0.9549  0.4835  0.3911
  169MOL0     C23249   3.341   2.487  11.714  0.4488 -0.3440  0.3606
  169MOL0     C23250   3.366   1.735  11.702 -0.2645 -0.3658  0.4195
  169MOL0     C23251   3.417   1.609  11.665 -0.2411 -0.3392 -0.2715
  169MOL0     C23252   3.527   1.550  11.757  0.1522 -0.2793 -0.5178
  169MOL0     H23253   3.268   1.129  11.300 -2.0046 -3.6604  0.2375
  169MOL0     H23254   3.367   0.897  11.249  1.0731 -2.6208  0.3219
  169MOL0     H23255   3.663   0.702  11.511 -1.2748 -0.6376 -0.4021
  169MOL0     H23256   3.770   0.815  11.410 -2.7034  2.5624  1.5409
  169MOL0     H23257   3.624   0.553  11.319 -0.2879  0.1122  1.8733
  169MOL0     H23258   3.756   0.646  11.238  3.0768  0.4666  2.1956
  169MOL0     H23259   3.888   0.606  11.455  0.1574 -0.3740  0.7194
  169MOL0     H23260   3.789   0.475  11.495  1.4933  0.5427  0.6483
  169MOL0     H23261   3.806   0.368  11.269 -3.1506  3.2886 -1.5848
  169MOL0     H23262   3.916   0.497  11.228 -1.1892  0.3082  0.0572
  169MOL0     H23263   3.981   0.299  11.460  2.9268 -0.7125  0.7036
  169MOL0     H23264   4.092   0.420  11.403 -1.0437  0.2629 -1.0706
  169MOL0     H23265   4.153   0.206  11.321 -0.7192 -0.1381  0.7300
  169MOL0     H23266   3.999   0.189  11.235  1.1077 -1.8348  0.2843
  169MOL0     H23267   4.234   0.369  11.151  1.1331 -1.6062 -0.8492
  169MOL0     H23268   4.070   0.403  11.100  0.1344  0.7094 -0.5798
  169MOL0     H23269   4.196   0.129  11.069  0.2762 -1.1429 -2.7438
  169MOL0     H23270   4.034   0.178  11.015  1.0817  0.0294 -2.2619
  169MOL0     H23271   4.056   0.338  10.770 -0.4939 -0.2899 -0.4613
  169MOL0     H23272   4.262   0.489  10.636  1.1629 -0.7366  1.6521
  169MOL0     H23273   4.151   0.394  10.544 -0.7890  1.8728  0.1523
  169MOL0     H23274   4.451   0.360  10.538  1.3426 -0.1892 -1.0857
  169MOL0     H23275   4.360   0.256  10.442 -2.6931 -0.1921 -0.3008
  169MOL0     H23276   4.361   0.567  10.419  1.2897 -0.2579  0.7672
  169MOL0     H23277   4.474   0.466  10.345 -0.2712  0.5938  0.9927
  169MOL0     H23278   4.171   0.458  10.267  0.1451  2.2148  2.5436
  169MOL0     H23279   4.307   0.533  10.180  1.2510 -0.5172 -0.8653
  169MOL0     H23280   4.238   0.081  10.157 -1.1777  2.0791  1.4015
  169MOL0     H23281   4.053  -0.121  10.018 -0.4404  1.1463 -1.1471
  169MOL0     H23282   4.232  -0.113   9.986 -0.7809 -2.5933 -0.5180
  169MOL0     H23283   4.120  -0.119   9.861  2.9755  0.8911 -0.5399
  169MOL0     H23284   4.107  -0.018   9.501 -0.8573  1.4548  0.6721
  169MOL0     H23285   4.035  -0.082   9.288 -0.0517  0.0317 -2.9140
  169MOL0     H23286   3.779   0.210   9.033 -0.5491 -1.0690  1.9228
  169MOL0     H23287   3.956   0.243   9.021  0.3956 -0.2632  1.0538
  169MOL0     H23288   3.962   0.032   8.856 -1.5859 -1.6834 -3.2937
  169MOL0     H23289   3.787   0.017   8.890 -1.2994  2.1541  1.4614
  169MOL0     H23290   3.917   0.210   8.701  2.4747 -2.9972  1.5635
  169MOL0     H23291   3.792   0.270   8.806  2.3621 -0.1391  0.9253
  169MOL0     H23292   3.696   0.156   8.602  1.1899  0.6027 -0.7932
  169MOL0     H23293   3.649   0.059   8.744  2.6011 -2.6046  1.9995
  169MOL0     H23294   3.878   0.001   8.541  0.2106 -0.7809 -0.0933
  169MOL0     H23295   3.868  -0.088   8.686 -0.7462 -1.4496  0.1985
  169MOL0     H23296   3.636  -0.069   8.502  1.0215  2.7500  1.1712
  169MOL0     H23297   3.667  -0.188   8.642 -1.0643  0.6972  0.9073
  169MOL0     H23298   3.852  -0.280   8.527 -0.6892 -0.6964  1.0459
  169MOL0     H23299   3.822  -0.173   8.387 -1.1173  1.8482  1.0433
  169MOL0     H23300   3.736  -0.417   8.365 -1.2149 -0.9174 -0.6411
  169MOL0     H23301   3.598  -0.318   8.360 -0.8619  1.2105  0.3040
  169MOL0     H23302   3.819   0.278   9.243 -1.5661 -0.5707 -0.3894
  169MOL0     H23303   3.849   0.326   9.478  1.2372 -0.7578  3.6671
  169MOL0     H23304   4.033   0.368   9.815  1.6386  0.0145  0.0506
  169MOL0     H23305   4.169   0.467   9.990  0.2520  0.4451 -1.6162
  169MOL0     H23306   3.697   0.977  11.502 -0.4256 -1.8434 -1.8794
  169MOL0     H23307   3.601   1.186  11.573  0.7158  0.0076 -0.2302
  169MOL0     H23308   3.184   1.543  11.410 -0.0398 -2.1739  1.9098
  169MOL0     H23309   3.101   1.750  11.498 -1.7124 -2.3655  2.0204
  169MOL0     H23310   3.309   1.987  11.503  1.1180 -1.9002  1.6467
  169MOL0     H23311   3.151   2.046  11.532 -0.6019 -2.5238 -0.7351
  169MOL0     H23312   3.337   2.202  11.599  3.8966 -0.0695  0.9506
  169MOL0     H23313   3.407   2.072  11.709 -2.1648 -2.0795  2.2133
  169MOL0     H23314   3.144   2.216  11.744  1.6178 -2.2011 -2.8523
  169MOL0     H23315   3.217   2.081  11.849  2.7591 -2.8661 -2.6255
  169MOL0     H23316   3.415   2.240  11.904  0.2858 -2.3628 -1.2711
  169MOL0     H23317   3.258   2.292  11.957 -3.0835 -2.6300 -0.9437
  169MOL0     H23318   3.341   2.583  11.667 -0.3414 -0.5903 -0.1657
  169MOL0     H23319   3.401   1.801  11.781  0.5612 -3.4132  2.7557
  169MOL0     H23320   3.516   1.585  11.860  0.8893  5.5401 -2.0638
  169MOL0     H23321   3.519   1.441  11.755 -1.0192 -0.2072 -2.5237
  169MOL0     H23322   3.620   1.582  11.709 -0.0464 -0.2656 -0.8964
  170MOL0     O23323   0.553   6.213   3.183  0.9990 -0.0306  0.5228
  170MOL0     C23324   0.514   6.200   3.069 -0.1472  0.7780 -0.2260
  170MOL0     O23325   0.579   6.248   2.968 -0.0526  0.1586 -0.1329
  170MOL0     C23326   0.679   6.341   2.969  0.1231  0.1525  0.3750
  170MOL0     C23327   0.779   6.332   2.870 -1.1282  0.1936 -0.3612
  170MOL0     C23328   0.880   6.418   2.872  0.1454 -0.5727  1.1536
  170MOL0     C23329   0.898   6.516   2.963 -1.1634  0.1898 -0.6876
  170MOL0     O23330   1.003   6.598   2.942 -0.7208 -0.0775 -0.7107
  170MOL0     C23331   1.133   6.549   2.976  0.3931  0.1022  0.6031
  170MOL0     C23332   1.152   6.497   3.127  0.1087 -0.5189 -0.2219
  170MOL0     C23333   1.210   6.593   3.224  0.4793 -0.3932  0.6036
  170MOL0     C23334   1.102   6.693   3.252  0.8621 -0.2468 -0.0890
  170MOL0     C23335   1.163   6.805   3.333  0.1995 -0.5796 -0.2229
  170MOL0     C23336   1.180   6.772   3.480 -0.0845  0.8934  0.5495
  170MOL0     C23337   1.051   6.738   3.557  0.9445  0.2598 -0.7750
  170MOL0     C23338   1.083   6.678   3.687  0.4815 -0.2924 -0.0068
  170MOL0     N23339   1.167   6.756   3.779 -0.2086 -0.6846 -0.4469
  170MOL0     C23340   1.302   6.728   3.824  0.4059  0.1789  0.4063
  170MOL0     C23341   1.338   6.835   3.891  0.6353 -0.3030  0.0248
  170MOL0     C23342   1.462   6.859   3.972  0.6522  0.4093 -0.6226
  170MOL0     C23343   1.573   6.924   3.893  0.6167  1.1731 -0.3486
  170MOL0     C23344   1.682   6.965   3.987 -0.3586 -0.0086 -0.3594
  170MOL0     C23345   1.764   6.831   4.022  0.5251 -0.8129  0.4497
  170MOL0     O23346   1.883   6.869   4.086  0.1111 -0.5419  0.0223
  170MOL0     C23347   2.005   6.844   4.021 -0.4677 -0.6621 -1.0982
  170MOL0     C23348   2.125   6.860   4.102 -0.2714  0.1935 -0.7729
  170MOL0     C23349   2.257   6.848   4.044  0.0606 -0.0458 -0.0887
  170MOL0     C23350   2.377   6.859   4.146 -0.6621  0.4150  0.4051
  170MOL0     C23351   2.274   6.831   3.904 -1.1782  0.6634 -0.2271
  170MOL0     C23352   2.401   6.801   3.829 -0.3408 -0.0223 -0.1688
  170MOL0     O23353   2.397   6.808   3.685 -0.2766  0.5962  0.3512
  170MOL0     C23354   2.369   6.696   3.608  0.4545 -0.2081  0.2983
  170MOL0     C23355   2.426   6.575   3.649  0.7516  0.2611  1.1994
  170MOL0     C23356   2.390   6.455   3.586 -0.0289  0.3827 -0.6558
  170MOL0     C23357   2.289   6.455   3.485  1.1682  0.9424  0.5307
  170MOL0     O23358   2.254   6.335   3.429  0.2642 -0.4241 -0.2006
  170MOL0     C23359   2.110   6.317   3.408 -0.7684  0.1417 -0.0413
  170MOL0     C23360   2.090   6.178   3.373 -0.2035 -0.0279  0.1759
  170MOL0     C23361   2.151   6.091   3.484  1.0102  0.2142 -0.6853
  170MOL0     C23362   2.113   5.942   3.475 -0.6754 -0.9344 -0.4448
  170MOL0     C23363   2.209   5.864   3.372 -1.1504  0.5337 -0.3579
  170MOL0     C23364   2.192   5.714   3.393  0.3684 -0.6902  0.1291
  170MOL0     C23365   2.303   5.634   3.324 -0.7126 -0.3383 -0.8740
  170MOL0     C23366   2.283   5.613   3.177  0.0573 -0.4714  0.5325
  170MOL0    Cl23367   2.426   5.531   3.119  0.2570  0.0026 -0.5495
  170MOL0     C23368   2.237   6.574   3.442  0.1249 -0.8292  0.4648
  170MOL0     C23369   2.272   6.692   3.506 -0.5194 -0.3995  0.5314
  170MOL0     O23370   2.509   6.784   3.889 -0.3594 -0.8862 -0.3203
  170MOL0     C23371   2.153   6.817   3.820  0.1588 -1.1944  0.3872
  170MOL0     C23372   2.030   6.832   3.886 -0.1209  0.3878  0.8640
  170MOL0     N23373   1.232   6.929   3.885  0.2984 -0.1965 -1.4292
  170MOL0     N23374   1.131   6.888   3.820 -0.7727  0.4970 -0.1159
  170MOL0     C23375   0.795   6.542   3.049  0.3849 -0.4864 -0.0709
  170MOL0     C23376   0.686   6.450   3.056 -0.1776 -0.9423 -0.6290
  170MOL0     C23377   0.398   6.101   3.052 -0.0178  0.4386 -0.3341
  170MOL0     C23378   0.312   6.121   2.942  0.7057  1.3022 -0.4062
  170MOL0     C23379   0.208   6.036   2.920 -0.0610  0.1379  0.6145
  170MOL0     C23380   0.186   5.920   2.992  0.4964  0.5526 -0.4806
  170MOL0     O23381   0.086   5.829   2.976  0.7771 -0.7088  0.6896
  170MOL0     C23382  -0.044   5.869   3.021  0.4474 -0.2031  0.0789
  170MOL0     C23383  -0.085   5.801   3.157  0.9484  0.7355  0.3171
  170MOL0     C23384  -0.144   5.661   3.135 -0.2200 -0.4113  0.2354
  170MOL0     C23385  -0.230   5.619   3.253 -0.0180 -0.1062 -0.3324
  170MOL0     C23386  -0.154   5.544   3.356  0.3624 -0.3032  0.6884
  170MOL0     C23387  -0.110   5.489   3.451 -0.4743  0.2986  0.1259
  170MOL0     C23388   0.275   5.893   3.096  0.2483 -0.2564  0.5484
  170MOL0     C23389   0.381   5.981   3.123 -0.4002  0.0933 -0.5466
  170MOL0     C23390   0.476   5.934   3.228  0.7998  0.4423 -0.1950
  170MOL0     H23391   0.772   6.254   2.795 -0.1592  1.6081 -2.0066
  170MOL0     H23392   0.953   6.398   2.795 -0.8328 -4.4593  1.0468
  170MOL0     H23393   1.216   6.611   2.942  2.4575 -2.0939  1.3771
  170MOL0     H23394   1.157   6.461   2.914 -1.0442  1.2914 -1.8082
  170MOL0     H23395   1.058   6.457   3.167 -1.1402  3.3460  1.1468
  170MOL0     H23396   1.226   6.417   3.122  3.1716  2.0215  1.2899
  170MOL0     H23397   1.251   6.543   3.312  2.3794 -1.6745 -0.9389
  170MOL0     H23398   1.291   6.637   3.165 -0.3733  2.0457  1.1139
  170MOL0     H23399   1.058   6.738   3.162  1.4903 -1.3265 -0.9626
  170MOL0     H23400   1.017   6.648   3.304  1.5727  2.1001  3.4269
  170MOL0     H23401   1.096   6.889   3.316  0.7141  0.1661  1.2695
  170MOL0     H23402   1.263   6.827   3.293  0.9198  0.2762  1.8896
  170MOL0     H23403   1.245   6.684   3.480 -0.1602  0.8207 -0.9371
  170MOL0     H23404   1.242   6.850   3.525 -0.5408 -1.0330  5.0197
  170MOL0     H23405   0.995   6.664   3.498 -2.0657  1.5911  0.2216
  170MOL0     H23406   0.988   6.827   3.562  1.1831  0.5457 -2.3255
  170MOL0     H23407   0.999   6.647   3.750  0.8455  3.7411  2.8480
  170MOL0     H23408   1.133   6.581   3.681 -1.0523 -1.2194  1.3567
  170MOL0     H23409   1.366   6.641   3.809  0.9032  0.2902  1.7310
  170MOL0     H23410   1.515   6.768   4.001 -2.4623 -1.0698  0.8007
  170MOL0     H23411   1.432   6.909   4.065  1.2751 -0.5806  0.1296
  170MOL0     H23412   1.612   6.850   3.822 -1.8374 -1.5637  0.9452
  170MOL0     H23413   1.533   7.007   3.835  0.8137  1.9306  0.5810
  170MOL0     H23414   1.753   7.039   3.950  0.9769 -1.4503 -0.7709
  170MOL0     H23415   1.643   7.005   4.081  0.0329  3.8302 -1.6585
  170MOL0     H23416   1.700   6.779   4.094  0.8503  1.6843  2.6752
  170MOL0     H23417   1.790   6.751   3.951  2.2315 -1.7494  2.0505
  170MOL0     H23418   2.118   6.877   4.209 -0.1328  4.1794 -1.2293
  170MOL0     H23419   2.357   6.863   4.253  1.8620 -2.1841  1.1025
  170MOL0     H23420   2.448   6.938   4.120 -0.5574  0.8331  1.8728
  170MOL0     H23421   2.421   6.759   4.137  1.1044  0.9617  2.2783
  170MOL0     H23422   2.506   6.578   3.723  1.4297 -1.0877  0.5671
  170MOL0     H23423   2.427   6.356   3.612 -1.2127  0.2236  0.5093
  170MOL0     H23424   2.051   6.370   3.483 -3.1852  1.8249 -2.9225
  170MOL0     H23425   2.086   6.370   3.315 -2.6491 -2.9885 -1.5071
  170MOL0     H23426   1.982   6.175   3.358 -0.1339  0.3219 -0.4377
  170MOL0     H23427   2.146   6.150   3.283 -0.3385 -0.7023  0.2956
  170MOL0     H23428   2.112   6.138   3.574 -2.0962  0.2923 -1.9520
  170MOL0     H23429   2.259   6.095   3.467  0.8073 -1.0681 -2.5340
  170MOL0     H23430   2.010   5.935   3.441 -0.3355 -0.4055 -1.6638
  170MOL0     H23431   2.111   5.892   3.572 -1.0987  0.4045  0.2479
  170MOL0     H23432   2.174   5.884   3.271  2.0359 -0.8920 -1.8713
  170MOL0     H23433   2.312   5.898   3.391 -0.0379 -3.0211  0.7543
  170MOL0     H23434   2.097   5.678   3.353  0.6567 -0.5441 -0.7108
  170MOL0     H23435   2.205   5.696   3.500  2.6615  1.2487  0.2724
  170MOL0     H23436   2.330   5.542   3.377 -0.4326  0.7797  1.0189
  170MOL0     H23437   2.398   5.689   3.323 -0.4226 -0.8116 -0.3870
  170MOL0     H23438   2.273   5.716   3.140 -0.9323 -0.9718 -0.6760
  170MOL0     H23439   2.196   5.561   3.137 -0.4475  2.1165 -2.0915
  170MOL0     H23440   2.171   6.573   3.356  1.7741 -0.3217 -0.8576
  170MOL0     H23441   2.225   6.788   3.485 -0.2671 -0.2550  0.6256
  170MOL0     H23442   2.154   6.798   3.714  0.5655 -1.0241  0.3561
  170MOL0     H23443   1.943   6.831   3.821  0.0422 -0.1758  0.6529
  170MOL0     H23444   0.796   6.634   3.107  1.6547 -0.4662 -0.0973
  170MOL0     H23445   0.607   6.473   3.127  1.8412  1.8146  0.9246
  170MOL0     H23446   0.312   6.208   2.877 -1.9355  1.4190 -0.3592
  170MOL0     H23447   0.149   6.041   2.829  3.1153 -1.6069 -1.7369
  170MOL0     H23448  -0.037   5.975   3.045  3.2426 -0.0915 -0.8802
  170MOL0     H23449  -0.121   5.851   2.946 -0.8900  2.1831  0.7690
  170MOL0     H23450  -0.161   5.856   3.213 -2.5513 -3.6966  0.4711
  170MOL0     H23451   0.002   5.792   3.222  0.7525  0.9762  0.6119
  170MOL0     H23452  -0.210   5.668   3.049  1.9278 -0.8434 -1.5332
  170MOL0     H23453  -0.072   5.585   3.104 -0.2315 -0.1967 -0.3148
  170MOL0     H23454  -0.303   5.544   3.221 -0.6399 -0.4551  1.7849
  170MOL0     H23455  -0.291   5.698   3.297  0.2709 -1.5598  2.9544
  170MOL0     H23456  -0.084   5.429   3.536  1.0238 -0.1247 -0.5820
  170MOL0     H23457   0.249   5.819   3.172 -2.7646 -0.7124 -0.7796
  170MOL0     H23458   0.473   6.005   3.310  0.0027 -0.3028  0.4352
  170MOL0     H23459   0.462   5.833   3.269  0.3632 -0.3889 -2.2594
  170MOL0     H23460   0.575   5.933   3.181  0.1692 -1.7994 -1.6628
  171MOL0     O23461   3.041   1.963   8.935 -0.3543  0.4502 -0.7657
  171MOL0     C23462   3.101   2.021   8.846 -1.1709  0.2522 -0.6291
  171MOL0     O23463   3.150   2.141   8.856 -0.0782 -0.8539 -0.0854
  171MOL0     C23464   3.079   2.235   8.927  1.3788  0.2092 -0.8576
  171MOL0     C23465   3.127   2.287   9.047 -0.5870 -0.3184  0.1234
  171MOL0     C23466   3.062   2.392   9.112 -0.8970  0.2509  0.5302
  171MOL0     C23467   2.943   2.449   9.068  0.0446  0.2271  0.5507
  171MOL0     O23468   2.893   2.537   9.157  0.1115 -0.0897  0.8248
  171MOL0     C23469   2.749   2.551   9.150  0.7320 -0.4718  0.0680
  171MOL0     C23470   2.724   2.653   9.261 -0.9149  0.4534 -0.3687
  171MOL0     C23471   2.578   2.680   9.290  0.6423  0.4922 -0.4224
  171MOL0     C23472   2.565   2.806   9.378  0.8931 -0.2849  0.2630
  171MOL0     C23473   2.419   2.835   9.418  0.2941 -0.1471 -0.7221
  171MOL0     C23474   2.380   2.740   9.526 -0.1432 -0.5283  0.7894
  171MOL0     C23475   2.230   2.753   9.549 -1.3207  0.7288 -0.2337
  171MOL0     C23476   2.169   2.892   9.583 -0.5943  0.6188  0.5340
  171MOL0     N23477   2.225   2.951   9.706 -0.5365 -0.0613  0.7721
  171MOL0     C23478   2.313   3.063   9.710  0.3101 -0.2595 -0.1429
  171MOL0     C23479   2.302   3.101   9.841 -1.5311 -0.1383 -0.1521
  171MOL0     C23480   2.357   3.224   9.903 -0.4389 -1.5218  0.1807
  171MOL0     C23481   2.480   3.288   9.834  0.4204  1.1519  0.9128
  171MOL0     C23482   2.441   3.374   9.714  0.3478 -0.1645  0.4867
  171MOL0     C23483   2.557   3.402   9.622 -0.2549  0.9246  0.6795
  171MOL0     O23484   2.506   3.491   9.519 -0.6270 -0.6995 -0.0456
  171MOL0     C23485   2.464   3.620   9.549  0.4207 -0.9905 -0.6125
  171MOL0     C23486   2.337   3.665   9.505  0.6006 -0.2085 -0.4787
  171MOL0     C23487   2.283   3.791   9.530 -0.2181 -0.3945 -1.1919
  171MOL0     C23488   2.142   3.819   9.487  0.4192  0.3088 -0.1506
  171MOL0     C23489   2.360   3.887   9.599 -0.6933 -0.4210  0.6153
  171MOL0     C23490   2.316   4.017   9.649  0.1145  0.1227  0.4548
  171MOL0     O23491   2.418   4.108   9.677  0.1853 -0.3833  0.6768
  171MOL0     C23492   2.398   4.243   9.684  0.1547  0.1423 -0.3904
  171MOL0     C23493   2.295   4.292   9.758  0.0392 -0.0010 -0.4696
  171MOL0     C23494   2.267   4.425   9.770 -0.3053 -0.0630 -0.2471
  171MOL0     C23495   2.334   4.513   9.702 -0.1206 -1.0631  0.5902
  171MOL0     O23496   2.290   4.647   9.712 -0.2006 -0.8734  0.2268
  171MOL0     C23497   2.279   4.723   9.596 -0.7289 -0.4881 -0.1657
  171MOL0     C23498   2.218   4.852   9.625  0.6806 -0.0577  0.2909
  171MOL0     C23499   2.192   4.928   9.494 -0.7448  0.1014 -0.4767
  171MOL0     C23500   2.107   5.045   9.532 -0.0418 -0.6886  0.2185
  171MOL0     C23501   2.116   5.155   9.418  0.0470  0.6914 -0.4051
  171MOL0     C23502   2.010   5.261   9.461 -1.0198  1.2448 -0.6624
  171MOL0     C23503   1.999   5.371   9.351  0.5255 -0.5261 -0.1621
  171MOL0     C23504   1.945   5.506   9.382  0.5162 -1.1130  0.6515
  171MOL0    Cl23505   1.958   5.604   9.243  0.2694 -0.1758 -0.1446
  171MOL0     C23506   2.434   4.471   9.615 -0.4340 -0.3123 -0.6677
  171MOL0     C23507   2.473   4.339   9.614 -0.3064  0.2193 -0.6018
  171MOL0     O23508   2.193   4.040   9.652 -0.2777 -0.4660 -0.0599
  171MOL0     C23509   2.490   3.855   9.647 -0.0442 -0.0019 -1.0380
  171MOL0     C23510   2.537   3.721   9.623 -0.5597 -0.1619  0.1272
  171MOL0     N23511   2.217   3.023   9.907  0.1396  0.1938 -0.2268
  171MOL0     N23512   2.171   2.936   9.833 -0.3020  0.3365 -0.1403
  171MOL0     C23513   2.892   2.388   8.953  0.8198  0.4252 -0.0541
  171MOL0     C23514   2.951   2.281   8.884  0.6106  1.0028 -0.9739
  171MOL0     C23515   3.155   1.943   8.727  0.1144 -0.0455 -0.0808
  171MOL0     C23516   3.173   1.800   8.749  0.5265 -0.2197 -0.2425
  171MOL0     C23517   3.243   1.730   8.656 -0.3437 -0.1880 -0.3045
  171MOL0     C23518   3.293   1.783   8.531  0.1909 -0.9890  0.2329
  171MOL0     O23519   3.378   1.712   8.456 -0.3018  0.0639  0.1002
  171MOL0     C23520   3.478   1.783   8.377  0.3751 -0.2692 -0.0912
  171MOL0     C23521   3.588   1.688   8.337 -0.2543 -0.4882 -0.1550
  171MOL0     C23522   3.555   1.568   8.249  0.0529  0.2219 -0.6764
  171MOL0     C23523   3.677   1.483   8.203  0.1999  0.0125  0.3524
  171MOL0     C23524   3.764   1.457   8.312 -0.0453  1.0121 -0.6484
  171MOL0     C23525   3.841   1.401   8.382 -0.3658  0.7210  0.3230
  171MOL0     C23526   3.263   1.920   8.503 -0.4882  0.3698  0.3036
  171MOL0     C23527   3.193   2.002   8.600 -0.7453  0.6936  1.0761
  171MOL0     C23528   3.163   2.143   8.566  0.3851 -0.2502  0.6588
  171MOL0     H23529   3.226   2.254   9.079 -0.6194 -0.6988 -0.1629
  171MOL0     H23530   3.102   2.435   9.203 -0.7322  0.0735  0.5430
  171MOL0     H23531   2.707   2.452   9.167  0.8264 -0.6000 -0.4164
  171MOL0     H23532   2.695   2.591   9.064 -0.5551 -0.1179  1.0067
  171MOL0     H23533   2.781   2.627   9.350 -0.9105 -0.9762 -0.7658
  171MOL0     H23534   2.770   2.749   9.238  0.5476 -0.3258 -0.8358
  171MOL0     H23535   2.539   2.713   9.193 -0.6242 -0.7359 -0.3633
  171MOL0     H23536   2.528   2.589   9.325  0.3731  1.3147  1.4515
  171MOL0     H23537   2.622   2.789   9.470  2.2761  1.8033 -0.1383
  171MOL0     H23538   2.604   2.892   9.323  1.2478 -0.9861 -0.6104
  171MOL0     H23539   2.352   2.827   9.332  0.3301 -1.8110 -0.6352
  171MOL0     H23540   2.421   2.933   9.465  2.8459  0.0845 -1.2102
  171MOL0     H23541   2.400   2.639   9.489 -0.3314 -0.3117  0.0719
  171MOL0     H23542   2.418   2.765   9.625 -4.2173 -1.0064  2.6731
  171MOL0     H23543   2.207   2.700   9.642  0.3305  1.6480  0.7337
  171MOL0     H23544   2.179   2.708   9.463 -1.6635  0.6291  0.0167
  171MOL0     H23545   2.200   2.962   9.506  3.4246  0.8988  2.2000
  171MOL0     H23546   2.061   2.876   9.598 -0.6606  0.5349  0.0053
  171MOL0     H23547   2.370   3.105   9.629 -0.1251  0.2737 -0.1847
  171MOL0     H23548   2.381   3.212  10.009 -1.1184 -1.9733  0.2948
  171MOL0     H23549   2.277   3.299   9.903  1.9494  1.2122 -1.0354
  171MOL0     H23550   2.533   3.352   9.904  0.9164  0.7444  0.9188
  171MOL0     H23551   2.548   3.215   9.788  0.1433 -0.4492  2.8736
  171MOL0     H23552   2.362   3.330   9.653  0.0985  2.5353 -1.3132
  171MOL0     H23553   2.402   3.471   9.749  0.9168  0.8461 -1.5532
  171MOL0     H23554   2.634   3.443   9.687 -0.5176 -0.1553  1.7264
  171MOL0     H23555   2.591   3.305   9.584 -1.3992  0.1185  1.6116
  171MOL0     H23556   2.270   3.592   9.461 -1.7479  1.4150  0.2305
  171MOL0     H23557   2.066   3.862   9.552 -0.1601  1.4195 -1.4943
  171MOL0     H23558   2.095   3.736   9.434 -0.7710  1.5888 -1.2147
  171MOL0     H23559   2.151   3.899   9.413  0.5117 -0.2469 -0.7481
  171MOL0     H23560   2.225   4.223   9.805  0.1576 -0.0621 -0.3825
  171MOL0     H23561   2.185   4.462   9.831 -0.1929  0.4484 -0.4047
  171MOL0     H23562   2.381   4.749   9.568 -1.6889  1.3917 -2.3326
  171MOL0     H23563   2.229   4.687   9.505  0.6840  1.4402 -1.8090
  171MOL0     H23564   2.126   4.838   9.683  1.7971  1.0256  2.4415
  171MOL0     H23565   2.265   4.922   9.695  0.9167  0.2914 -0.2061
  171MOL0     H23566   2.140   4.865   9.422  0.4081  0.5378 -1.7393
  171MOL0     H23567   2.291   4.949   9.452  0.6741 -3.0407  0.9603
  171MOL0     H23568   2.129   5.086   9.632 -0.8053  2.4943 -0.7868
  171MOL0     H23569   2.001   5.022   9.531 -0.3554  0.4787 -2.4417
  171MOL0     H23570   2.214   5.203   9.410  0.1279  0.5645 -0.1887
  171MOL0     H23571   2.098   5.115   9.318  1.5347 -1.2089  0.0282
  171MOL0     H23572   2.027   5.295   9.563  0.9532 -0.1815 -0.4463
  171MOL0     H23573   1.916   5.208   9.480 -0.0205 -0.0445  0.9400
  171MOL0     H23574   1.936   5.325   9.276 -2.0865 -1.3039  2.3321
  171MOL0     H23575   2.096   5.383   9.302 -0.6558  1.7360 -2.1449
  171MOL0     H23576   1.990   5.545   9.473 -3.2937  1.1700  1.8052
  171MOL0     H23577   1.838   5.488   9.396  1.0459 -5.2776  0.7375
  171MOL0     H23578   2.486   4.548   9.559 -0.8471  0.2932 -0.2351
  171MOL0     H23579   2.566   4.311   9.566  1.1477  3.2953  0.1712
  171MOL0     H23580   2.544   3.924   9.712 -0.3254  0.3487 -1.1757
  171MOL0     H23581   2.638   3.701   9.657  0.3059  1.2186 -1.4345
  171MOL0     H23582   2.793   2.419   8.922  0.9674  1.3250  0.3283
  171MOL0     H23583   2.899   2.245   8.796  1.4128 -0.7760 -0.7760
  171MOL0     H23584   3.155   1.751   8.845 -0.4199 -4.9036 -2.5352
  171MOL0     H23585   3.260   1.625   8.675 -0.8710 -0.3325 -0.5912
  171MOL0     H23586   3.424   1.810   8.286 -1.6393 -5.2324 -0.6782
  171MOL0     H23587   3.517   1.874   8.423  2.1371  0.3575 -2.6475
  171MOL0     H23588   3.642   1.661   8.428  0.0827  0.7804  0.0428
  171MOL0     H23589   3.660   1.746   8.279  0.1577 -1.2533 -0.4194
  171MOL0     H23590   3.496   1.496   8.306  1.8844 -0.6333  0.2449
  171MOL0     H23591   3.512   1.597   8.153  2.4076  1.5071 -1.4322
  171MOL0     H23592   3.728   1.543   8.127  0.4470 -1.0163 -0.3055
  171MOL0     H23593   3.658   1.382   8.167  0.1877  0.1984 -0.1724
  171MOL0     H23594   3.909   1.340   8.439 -0.2700  0.3057 -0.2302
  171MOL0     H23595   3.291   1.963   8.408  0.1001  0.0458  0.3287
  171MOL0     H23596   3.077   2.183   8.621 -0.6999 -2.9713  1.1125
  171MOL0     H23597   3.242   2.209   8.601  1.1255 -0.9614  0.3636
  171MOL0     H23598   3.131   2.159   8.462 -0.3499  0.8748  1.0319
  172MOL0     O23599   7.501   3.022   6.230 -0.9084  0.6780 -1.1045
  172MOL0     C23600   7.560   2.916   6.262 -0.6683 -0.9012  0.2052
  172MOL0     O23601   7.508   2.804   6.315  0.2014  0.5915 -0.4882
  172MOL0     C23602   7.381   2.796   6.364  0.4450 -0.8185  0.1528
  172MOL0     C23603   7.326   2.670   6.366  0.4396  1.2301 -1.6636
  172MOL0     C23604   7.196   2.652   6.414 -0.1688  0.5982  0.1591
  172MOL0     C23605   7.115   2.765   6.446  0.5056 -0.0426 -0.0424
  172MOL0     O23606   6.986   2.754   6.501  0.0139 -0.0780  0.6655
  172MOL0     C23607   6.894   2.730   6.400 -0.4854  0.6164  0.5467
  172MOL0     C23608   6.756   2.722   6.476  0.5367  0.6526  0.2464
  172MOL0     C23609   6.651   2.683   6.368 -0.5188  1.0452 -0.4797
  172MOL0     C23610   6.508   2.724   6.409  0.7664 -0.8471  1.1584
  172MOL0     C23611   6.427   2.701   6.293  0.5119 -0.0035  0.3216
  172MOL0     C23612   6.279   2.742   6.317 -0.9491  0.1429 -0.7442
  172MOL0     C23613   6.206   2.671   6.198  0.1965 -0.5745 -0.8418
  172MOL0     C23614   6.060   2.709   6.186  0.3568  0.1563 -0.4355
  172MOL0     N23615   6.026   2.834   6.109 -0.4675  0.2415  0.7092
  172MOL0     C23616   5.916   2.912   6.132  0.2532 -0.4608  0.1168
  172MOL0     C23617   5.929   3.007   6.043 -0.9365  0.3811  0.0803
  172MOL0     C23618   5.823   3.115   6.016 -0.6398 -0.0691  0.5309
  172MOL0     C23619   5.861   3.259   6.068 -1.0599 -0.1243  0.5373
  172MOL0     C23620   5.965   3.323   5.981  0.2630  0.3073  0.3197
  172MOL0     C23621   5.916   3.341   5.843 -1.3724 -0.1278 -0.3187
  172MOL0     O23622   5.797   3.420   5.838  0.1267 -0.2002 -0.2876
  172MOL0     C23623   5.762   3.470   5.714  0.9424 -0.5173  0.7911
  172MOL0     C23624   5.672   3.572   5.708 -0.2083 -1.0791 -0.6984
  172MOL0     C23625   5.608   3.628   5.597 -1.0525  0.1079  1.4979
  172MOL0     C23626   5.509   3.740   5.600  0.2026 -1.9965 -0.1766
  172MOL0     C23627   5.648   3.562   5.479  0.7637  0.3606  0.5401
  172MOL0     C23628   5.591   3.600   5.343 -0.4599  0.2967  0.0989
  172MOL0     O23629   5.666   3.558   5.234 -0.0199  0.1045  0.1059
  172MOL0     C23630   5.619   3.595   5.111  0.2672  1.0738  0.9166
  172MOL0     C23631   5.615   3.719   5.050  0.9241 -0.2710 -0.1054
  172MOL0     C23632   5.568   3.746   4.925 -0.1397 -1.0228 -0.7366
  172MOL0     C23633   5.514   3.643   4.844  0.2907  0.2834 -0.7621
  172MOL0     O23634   5.467   3.640   4.709  0.4651 -0.1571  0.6881
  172MOL0     C23635   5.475   3.763   4.633 -0.6217  0.2384  0.9046
  172MOL0     C23636   5.439   3.738   4.490 -0.1107  0.6872 -0.1089
  172MOL0     C23637   5.295   3.703   4.468  0.4873 -0.6240  0.6257
  172MOL0     C23638   5.269   3.697   4.309 -0.7047 -0.3050 -0.0992
  172MOL0     C23639   5.139   3.753   4.258 -0.2760  0.8812  0.1721
  172MOL0     C23640   5.125   3.728   4.106  0.5997  0.9131 -0.2550
  172MOL0     C23641   5.103   3.583   4.055 -0.3991  0.6999  0.4610
  172MOL0     C23642   5.020   3.570   3.923  0.6382  0.4129 -0.9478
  172MOL0    Cl23643   4.852   3.586   3.958  0.1992 -0.0981  0.1638
  172MOL0     C23644   5.524   3.517   4.898  0.6558  1.1334 -0.3023
  172MOL0     C23645   5.587   3.495   5.027 -0.9113  0.3093 -0.0767
  172MOL0     O23646   5.484   3.663   5.328  0.2231  0.3063 -0.3924
  172MOL0     C23647   5.747   3.467   5.475  0.3982 -0.3863 -0.9355
  172MOL0     C23648   5.798   3.411   5.593 -0.2804 -0.8391 -0.6105
  172MOL0     N23649   6.051   2.990   5.982 -0.8564 -1.2610  0.6070
  172MOL0     N23650   6.116   2.887   6.020  0.2541  0.5342 -0.8996
  172MOL0     C23651   7.173   2.889   6.446 -0.5838 -0.5114 -0.2776
  172MOL0     C23652   7.305   2.906   6.409 -0.2850  0.3206 -0.6333
  172MOL0     C23653   7.702   2.913   6.228 -0.6887 -0.1584  0.1103
  172MOL0     C23654   7.769   2.787   6.246 -0.2453 -0.4311 -0.6697
  172MOL0     C23655   7.901   2.775   6.229 -0.1716 -0.7284  0.1095
  172MOL0     C23656   7.976   2.878   6.180 -0.3929 -0.2672  0.6082
  172MOL0     O23657   8.113   2.849   6.171 -0.4177 -0.0319 -0.2806
  172MOL0     C23658   8.204   2.941   6.100  0.1470  0.0134 -0.0679
  172MOL0     C23659   8.346   2.900   6.132 -0.2870  0.6964  0.2144
  172MOL0     C23660   8.460   2.974   6.068  0.1499  0.3943 -0.4117
  172MOL0     C23661   8.491   3.108   6.139 -0.5703  0.9840  0.7133
  172MOL0     C23662   8.622   3.166   6.097  0.0480  0.3629 -0.2405
  172MOL0     C23663   8.723   3.224   6.061  0.7960  0.0836  0.1087
  172MOL0     C23664   7.915   3.001   6.136 -0.5480  0.2625  0.6332
  172MOL0     C23665   7.779   3.021   6.166  0.1835  0.3026  0.1248
  172MOL0     C23666   7.720   3.161   6.121 -0.5862  0.3984  0.0335
  172MOL0     H23667   7.396   2.597   6.328  0.6687  2.5963 -4.0438
  172MOL0     H23668   7.165   2.549   6.425 -0.3681  0.1822 -3.3616
  172MOL0     H23669   6.908   2.630   6.359 -0.9103  0.2132  1.3501
  172MOL0     H23670   6.886   2.800   6.317  0.3517 -0.2704 -0.3113
  172MOL0     H23671   6.742   2.645   6.552 -1.9453 -3.2798 -3.7508
  172MOL0     H23672   6.721   2.818   6.516  0.3727  0.8987 -0.4667
  172MOL0     H23673   6.688   2.716   6.270  2.3428  0.0844  0.1764
  172MOL0     H23674   6.643   2.574   6.376 -1.0134  1.2069  1.7242
  172MOL0     H23675   6.485   2.654   6.490  0.1907 -2.5582 -0.4206
  172MOL0     H23676   6.504   2.829   6.441 -1.9484 -1.3093  2.5779
  172MOL0     H23677   6.433   2.594   6.268  4.2634 -0.0285  0.7711
  172MOL0     H23678   6.463   2.750   6.203 -0.9361  0.7832  0.1466
  172MOL0     H23679   6.229   2.697   6.404 -0.5533 -2.3914 -1.7262
  172MOL0     H23680   6.270   2.851   6.315  1.2628  0.4236  0.8144
  172MOL0     H23681   6.205   2.561   6.204 -1.4080 -0.5913 -0.9482
  172MOL0     H23682   6.257   2.690   6.103 -0.4615 -0.8178 -1.2556
  172MOL0     H23683   6.016   2.621   6.138  0.1631 -2.1868  3.5436
  172MOL0     H23684   6.008   2.711   6.283 -0.0601  2.9622 -0.6210
  172MOL0     H23685   5.837   2.906   6.207  0.4437  1.3979  0.5085
  172MOL0     H23686   5.736   3.088   6.077 -0.4046 -0.1706  0.8189
  172MOL0     H23687   5.783   3.119   5.914 -1.2056  2.6857  0.7655
  172MOL0     H23688   5.764   3.308   6.080 -2.1470 -1.8017 -0.7694
  172MOL0     H23689   5.904   3.227   6.163 -0.5201 -1.5795 -0.1611
  172MOL0     H23690   5.987   3.422   6.021  1.6583 -0.3878  1.3806
  172MOL0     H23691   6.059   3.267   5.984 -0.1017 -0.3568 -0.1100
  172MOL0     H23692   5.999   3.399   5.801  0.5321 -1.2310  1.7147
  172MOL0     H23693   5.903   3.249   5.785  2.8976  0.8154 -3.2448
  172MOL0     H23694   5.645   3.619   5.802 -0.7957  0.7448 -1.7326
  172MOL0     H23695   5.510   3.794   5.695 -0.2652 -1.9409 -0.2008
  172MOL0     H23696   5.412   3.694   5.579 -0.8025  0.2488 -0.7220
  172MOL0     H23697   5.527   3.815   5.523 -0.1013  2.2078  3.4500
  172MOL0     H23698   5.645   3.804   5.110  1.6948 -1.1324  0.7622
  172MOL0     H23699   5.574   3.849   4.892  1.9436 -1.0177 -0.4484
  172MOL0     H23700   5.415   3.844   4.677 -2.6124 -1.2727  1.1475
  172MOL0     H23701   5.580   3.793   4.631 -0.0973 -1.5609 -0.5323
  172MOL0     H23702   5.461   3.835   4.443  2.3641  0.6144  0.7574
  172MOL0     H23703   5.496   3.659   4.441 -1.0465 -0.3659  0.4692
  172MOL0     H23704   5.233   3.769   4.529  1.8762  0.6809  0.6882
  172MOL0     H23705   5.263   3.604   4.499 -0.4553 -0.3622  0.5442
  172MOL0     H23706   5.275   3.598   4.264 -0.9055  0.6522 -2.3993
  172MOL0     H23707   5.358   3.742   4.264  0.5015 -1.5641  0.9626
  172MOL0     H23708   5.063   3.696   4.313 -2.2719  0.2362 -3.0166
  172MOL0     H23709   5.125   3.860   4.273  1.3557  1.2867 -1.0301
  172MOL0     H23710   5.212   3.770   4.055  1.8633 -0.9808  0.2446
  172MOL0     H23711   5.051   3.798   4.065 -1.9403 -0.9357  0.9250
  172MOL0     H23712   5.042   3.529   4.128 -1.5762 -3.8341 -3.4019
  172MOL0     H23713   5.197   3.529   4.043 -1.7475 -1.4332 -1.2294
  172MOL0     H23714   5.045   3.477   3.872 -2.6890 -1.3925  0.4598
  172MOL0     H23715   5.048   3.647   3.851 -3.4851  0.1243 -3.1104
  172MOL0     H23716   5.486   3.435   4.838  0.2670 -0.6435  2.2165
  172MOL0     H23717   5.628   3.402   5.067 -0.7382  1.4722  2.6616
  172MOL0     H23718   5.781   3.419   5.383  2.1590 -2.9640  0.8853
  172MOL0     H23719   5.867   3.328   5.599 -0.3857 -0.8417  3.3685
  172MOL0     H23720   7.135   2.986   6.478  0.5049 -0.9000  2.4685
  172MOL0     H23721   7.344   3.006   6.425 -0.0696 -0.0303  1.1941
  172MOL0     H23722   7.712   2.704   6.287 -0.6740  0.8128  1.3963
  172MOL0     H23723   7.934   2.676   6.258 -1.1458 -0.6735  1.4566
  172MOL0     H23724   8.197   2.942   5.991  2.1049 -0.0506 -0.2399
  172MOL0     H23725   8.180   3.039   6.144 -1.0299 -1.2101  2.1758
  172MOL0     H23726   8.346   2.793   6.111 -7.1768  0.5296 -1.3394
  172MOL0     H23727   8.355   2.910   6.240 -0.8344 -0.9223  0.4322
  172MOL0     H23728   8.536   2.895   6.066 -1.7241 -1.5342  0.9009
  172MOL0     H23729   8.434   2.999   5.965 -2.7937  0.4438  0.2661
  172MOL0     H23730   8.489   3.092   6.247  1.7754  0.4502  0.7333
  172MOL0     H23731   8.410   3.175   6.110 -1.7349 -0.2629  0.9410
  172MOL0     H23732   8.816   3.274   6.045 -0.6773  2.4046 -1.7489
  172MOL0     H23733   7.974   3.082   6.096 -1.3000  0.8319  0.6596
  172MOL0     H23734   7.704   3.230   6.204  3.2073 -0.7079  1.9128
  172MOL0     H23735   7.799   3.207   6.060 -0.5610  1.6829  0.9988
  172MOL0     H23736   7.631   3.158   6.057  0.5446  0.7754 -1.6480
  173MOL0     O23737   2.553   7.430  10.466 -0.2442  0.0841  0.4976
  173MOL0     C23738   2.629   7.530  10.454 -0.0483 -0.9026  0.4114
  173MOL0     O23739   2.703   7.586  10.556 -0.2790 -0.5658  0.3826
  173MOL0     C23740   2.689   7.537  10.688 -0.5601  0.1004  0.1528
  173MOL0     C23741   2.724   7.407  10.723 -0.9327  0.0918 -0.0314
  173MOL0     C23742   2.710   7.364  10.856 -0.2752 -0.3026 -0.4471
  173MOL0     C23743   2.641   7.437  10.952 -0.0237  0.7281  1.7734
  173MOL0     O23744   2.614   7.381  11.074 -0.5770 -0.4495 -0.1144
  173MOL0     C23745   2.520   7.447  11.160  0.7195  0.1213  0.6384
  173MOL0     C23746   2.488   7.365  11.278 -1.0050  0.5852 -0.2198
  173MOL0     C23747   2.394   7.424  11.390 -0.1367  0.0231  1.2707
  173MOL0     C23748   2.406   7.355  11.533 -0.4448  0.6868 -0.3911
  173MOL0     C23749   2.326   7.228  11.531  0.7090  0.3558  0.1337
  173MOL0     C23750   2.220   7.223  11.645 -0.0320 -0.3744 -0.5798
  173MOL0     C23751   2.126   7.099  11.649  0.5972 -0.3915  0.4041
  173MOL0     C23752   2.034   7.113  11.526  0.5116  0.5973 -0.6903
  173MOL0     N23753   1.945   6.998  11.523 -0.0705  0.0649 -0.7422
  173MOL0     C23754   1.951   6.907  11.422  0.5512  1.1067  0.6557
  173MOL0     C23755   1.830   6.838  11.432 -0.3513 -0.2760 -0.1950
  173MOL0     C23756   1.789   6.733  11.329  0.3574  1.4259 -0.2377
  173MOL0     C23757   1.656   6.764  11.275 -0.5275  0.0942  0.3201
  173MOL0     C23758   1.658   6.898  11.193  0.2729  0.1851  1.0832
  173MOL0     C23759   1.541   6.918  11.099 -0.1598 -0.4243  0.1981
  173MOL0     O23760   1.426   6.934  11.177 -0.0592  0.3639  0.5214
  173MOL0     C23761   1.307   6.927  11.105  0.5570  1.1653 -0.4079
  173MOL0     C23762   1.194   6.923  11.183 -0.0074 -0.1781 -0.6167
  173MOL0     C23763   1.064   6.919  11.137  0.7861  0.1788  0.4193
  173MOL0     C23764   0.957   6.876  11.240  0.0956  0.5328  0.1395
  173MOL0     C23765   1.039   6.934  10.998 -0.2779  0.3256  0.3902
  173MOL0     C23766   0.910   6.921  10.935 -0.8196 -0.5650  0.3333
  173MOL0     O23767   0.803   6.963  11.007 -0.2362 -0.1365  0.3252
  173MOL0     C23768   0.679   6.971  10.956  1.0621  0.5949  1.0869
  173MOL0     C23769   0.570   6.955  11.037 -0.4771  0.4055 -0.5349
  173MOL0     C23770   0.439   6.961  10.984 -0.0634  0.2884 -0.1692
  173MOL0     C23771   0.414   6.971  10.843 -0.1537 -0.1635  0.0821
  173MOL0     O23772   0.282   6.965  10.799 -0.3078 -0.5494 -0.2084
  173MOL0     C23773   0.180   6.905  10.888  0.1164  0.1000 -0.4507
  173MOL0     C23774   0.052   6.905  10.801 -0.9329 -0.6335 -0.5612
  173MOL0     C23775  -0.046   6.807  10.862 -0.5552  0.6480 -0.2858
  173MOL0     C23776  -0.117   6.831  10.995  0.3238 -0.8591 -0.3493
  173MOL0     C23777  -0.231   6.734  11.028 -0.8077 -0.7037  0.0174
  173MOL0     C23778  -0.181   6.582  11.016 -0.0346 -1.1697  0.9629
  173MOL0     C23779  -0.307   6.493  11.022 -0.4126 -0.4854 -0.8626
  173MOL0     C23780  -0.292   6.349  10.997 -0.3664 -0.4760 -0.3602
  173MOL0    Cl23781  -0.179   6.264  11.106 -0.2845 -0.1505  0.3437
  173MOL0     C23782   0.523   6.997  10.755  0.3141  0.0486 -0.1739
  173MOL0     C23783   0.653   7.000  10.810  0.6752 -1.7366 -0.6328
  173MOL0     O23784   0.910   6.877  10.821 -0.6287  0.7965  0.4265
  173MOL0     C23785   1.155   6.945  10.909  0.4188 -0.7748 -0.0265
  173MOL0     C23786   1.282   6.935  10.971  0.4508 -0.4725 -0.2212
  173MOL0     N23787   1.768   6.885  11.560 -0.2068  0.5294  0.8553
  173MOL0     N23788   1.838   6.984  11.607  0.0642 -0.1470  0.2339
  173MOL0     C23789   2.597   7.571  10.911  0.1503 -1.2893  0.2694
  173MOL0     C23790   2.631   7.618  10.781 -0.6122 -0.8165 -0.9501
  173MOL0     C23791   2.617   7.599  10.321  0.6414 -0.0236  0.8992
  173MOL0     C23792   2.552   7.520  10.220 -0.4911  0.2683 -0.3375
  173MOL0     C23793   2.529   7.566  10.094  0.3675 -0.1474  0.4227
  173MOL0     C23794   2.546   7.704  10.068  0.3390 -0.1929 -0.0385
  173MOL0     O23795   2.513   7.764   9.955  0.3127 -0.6828 -0.1688
  173MOL0     C23796   2.401   7.719   9.874 -0.5585  0.9286  0.0360
  173MOL0     C23797   2.357   7.809   9.769 -0.7067 -0.2547 -0.7131
  173MOL0     C23798   2.245   7.741   9.705  1.7900  0.6302  0.2148
  173MOL0     C23799   2.222   7.823   9.584  0.2687 -0.1066 -0.0542
  173MOL0     C23800   2.167   7.958   9.611 -0.5392 -0.7560 -0.2318
  173MOL0     C23801   2.144   8.073   9.630 -0.1221 -0.2457  0.2704
  173MOL0     C23802   2.605   7.781  10.163 -0.0415  0.3216  0.0057
  173MOL0     C23803   2.638   7.729  10.286  0.3589 -0.0805 -0.6152
  173MOL0     C23804   2.689   7.820  10.391 -0.3177 -0.1112  0.4272
  173MOL0     H23805   2.756   7.333  10.650  2.0643 -0.3035  1.5090
  173MOL0     H23806   2.744   7.265  10.884  0.9701  0.4016  0.6761
  173MOL0     H23807   2.429   7.445  11.099  1.4541 -0.3981 -0.4911
  173MOL0     H23808   2.537   7.551  11.188 -1.1731  0.8435 -0.6453
  173MOL0     H23809   2.445   7.267  11.252  2.5127 -2.1862  3.2501
  173MOL0     H23810   2.585   7.337  11.320 -1.1488  0.0151 -0.2599
  173MOL0     H23811   2.421   7.528  11.410 -1.2457  1.4905 -3.5737
  173MOL0     H23812   2.294   7.424  11.346  0.8654 -0.4441 -1.1868
  173MOL0     H23813   2.510   7.328  11.556 -0.6791 -1.3540 -1.4399
  173MOL0     H23814   2.372   7.420  11.614 -0.3182  0.7627 -0.3986
  173MOL0     H23815   2.399   7.149  11.550  2.1852  2.2810  3.0710
  173MOL0     H23816   2.290   7.211  11.429  1.8302  1.2913 -0.4310
  173MOL0     H23817   2.264   7.242  11.743  1.0479 -1.5690 -0.8125
  173MOL0     H23818   2.153   7.307  11.626  1.4352  0.5245 -2.0242
  173MOL0     H23819   2.076   7.093  11.746  0.5214  0.5055  0.4280
  173MOL0     H23820   2.186   7.008  11.641  1.3957 -0.2427  3.4662
  173MOL0     H23821   1.972   7.197  11.558  2.6936  1.6769  1.0755
  173MOL0     H23822   2.082   7.142  11.432 -0.6230  1.1604 -1.1070
  173MOL0     H23823   2.031   6.894  11.350 -1.0073 -0.0485 -0.9664
  173MOL0     H23824   1.792   6.634  11.375 -1.2705  0.3066 -2.4142
  173MOL0     H23825   1.862   6.725  11.248 -0.6015 -1.6967 -0.9308
  173MOL0     H23826   1.626   6.678  11.215 -1.2913  0.5538  0.0348
  173MOL0     H23827   1.589   6.784  11.359 -1.5762  0.9021 -0.6782
  173MOL0     H23828   1.682   6.981  11.260 -1.3268 -0.2276  2.2205
  173MOL0     H23829   1.743   6.891  11.124 -0.9298 -0.1895 -0.4265
  173MOL0     H23830   1.567   6.995  11.026  1.0400  0.6637  1.6986
  173MOL0     H23831   1.533   6.827  11.038  0.2781 -0.4420  0.1650
  173MOL0     H23832   1.210   6.910  11.290 -0.1821  4.4329  0.2018
  173MOL0     H23833   0.882   6.955  11.258  1.5982  1.8975  0.6919
  173MOL0     H23834   1.009   6.860  11.334  1.6664  3.6784 -0.0622
  173MOL0     H23835   0.903   6.788  11.204  1.3376  0.3284 -1.3480
  173MOL0     H23836   0.588   6.944  11.143  1.5731  2.4985 -0.5810
  173MOL0     H23837   0.351   6.961  11.047 -2.4045  1.7667 -3.1583
  173MOL0     H23838   0.202   6.804  10.923  0.2620 -0.1947 -1.3746
  173MOL0     H23839   0.169   6.955  10.984  1.1432 -1.8783  0.7668
  173MOL0     H23840   0.010   7.005  10.792  0.6985  0.5853  3.2143
  173MOL0     H23841   0.085   6.877  10.700  1.9912  2.0143 -0.4947
  173MOL0     H23842   0.022   6.721  10.865  0.8081  1.7068  0.3753
  173MOL0     H23843  -0.129   6.794  10.793 -0.4154 -3.2945  0.0415
  173MOL0     H23844  -0.148   6.936  10.996 -1.2994 -1.2588 -2.1830
  173MOL0     H23845  -0.043   6.819  11.074  2.7221  2.9426 -1.7448
  173MOL0     H23846  -0.261   6.743  11.133 -1.7999 -3.1120  0.0253
  173MOL0     H23847  -0.317   6.748  10.962  0.0413 -0.9201 -1.1571
  173MOL0     H23848  -0.114   6.556  11.098  0.5932  2.2458  1.6806
  173MOL0     H23849  -0.129   6.568  10.921 -2.5138 -0.4845 -0.5919
  173MOL0     H23850  -0.387   6.520  10.952 -0.2093 -1.8999 -1.6776
  173MOL0     H23851  -0.351   6.508  11.121  1.6339  2.3356 -0.2628
  173MOL0     H23852  -0.250   6.336  10.897 -1.0437  1.1167 -0.8815
  173MOL0     H23853  -0.389   6.304  11.017 -0.7226  0.2882 -0.3467
  173MOL0     H23854   0.495   7.001  10.651 -0.3499  1.4053  0.0391
  173MOL0     H23855   0.734   7.035  10.747 -0.7972  0.4296 -1.4382
  173MOL0     H23856   1.139   6.957  10.802 -0.6340 -0.3336  0.1697
  173MOL0     H23857   1.363   6.960  10.903 -0.1741 -0.5822 -1.0145
  173MOL0     H23858   2.548   7.626  10.990 -1.1100 -1.4690 -0.3671
  173MOL0     H23859   2.605   7.718  10.750  4.0016  0.5455 -1.1616
  173MOL0     H23860   2.526   7.416  10.235  1.2799 -0.0393  0.8647
  173MOL0     H23861   2.489   7.500  10.019  0.8773  0.4962 -0.4305
  173MOL0     H23862   2.421   7.618   9.835 -3.8072 -0.1857  1.0178
  173MOL0     H23863   2.315   7.704   9.938  0.3777  2.8685  1.8721
  173MOL0     H23864   2.440   7.845   9.708  0.5982 -1.3412  0.3653
  173MOL0     H23865   2.319   7.895   9.825  2.5256  0.7756  0.1002
  173MOL0     H23866   2.255   7.635   9.680  0.1647  0.4926  0.0766
  173MOL0     H23867   2.161   7.752   9.774  4.5085  0.8894  3.8509
  173MOL0     H23868   2.153   7.762   9.525 -1.4848  0.7086  1.0662
  173MOL0     H23869   2.311   7.836   9.523  1.6436  0.0058  1.8992
  173MOL0     H23870   2.140   8.180   9.629  2.9358 -0.0579  0.1635
  173MOL0     H23871   2.613   7.889  10.156  0.5183  0.4549  1.9605
  173MOL0     H23872   2.684   7.925  10.361  0.2020  0.4991  2.3432
  173MOL0     H23873   2.627   7.807  10.480  1.3478 -3.2687  1.2697
  173MOL0     H23874   2.791   7.790  10.419 -0.1953 -0.3126 -0.2220
  174MOL0     O23875   7.608   7.593   5.642 -0.5843  0.0734  0.1564
  174MOL0     C23876   7.610   7.519   5.740  0.7726 -1.3570 -0.2533
  174MOL0     O23877   7.586   7.558   5.872  0.3538 -0.0471 -0.8589
  174MOL0     C23878   7.605   7.700   5.899  0.0068  0.1389 -0.3677
  174MOL0     C23879   7.736   7.747   5.892 -1.0593  0.4493  0.3618
  174MOL0     C23880   7.769   7.880   5.920  0.5290  0.4075  0.7909
  174MOL0     C23881   7.665   7.969   5.956  0.8582 -0.0097 -0.2272
  174MOL0     O23882   7.687   8.106   5.966  0.1084 -0.0659  0.4087
  174MOL0     C23883   7.595   8.190   5.896 -0.5312 -1.7118 -0.4600
  174MOL0     C23884   7.631   8.345   5.905 -0.5440  0.6374  0.3824
  174MOL0     C23885   7.773   8.370   5.852 -0.4248  0.1162  0.2164
  174MOL0     C23886   7.805   8.516   5.881 -0.3688  0.3197 -0.5830
  174MOL0     C23887   7.930   8.559   5.805 -0.1715  0.1357  0.0886
  174MOL0     C23888   7.916   8.574   5.649  0.4126  0.6026  0.0723
  174MOL0     C23889   7.848   8.711   5.620  0.4346 -0.1629 -0.7342
  174MOL0     C23890   7.809   8.738   5.470  0.2257  0.0157 -0.5644
  174MOL0     N23891   7.697   8.658   5.420 -0.7427 -0.9095 -0.1706
  174MOL0     C23892   7.699   8.535   5.354 -0.5973 -0.9290  0.2584
  174MOL0     C23893   7.569   8.504   5.339  0.0677  0.4838  0.1971
  174MOL0     C23894   7.512   8.385   5.267  0.3973 -0.4150  0.5149
  174MOL0     C23895   7.564   8.248   5.308 -0.3359 -0.5451 -0.2729
  174MOL0     C23896   7.718   8.222   5.316 -0.3442  0.1438 -0.2243
  174MOL0     C23897   7.745   8.071   5.329 -0.0389  0.3420  0.0751
  174MOL0     O23898   7.874   8.044   5.369  0.2317  0.8001  0.0069
  174MOL0     C23899   7.922   7.919   5.396  0.8566 -0.1735  0.4331
  174MOL0     C23900   8.035   7.876   5.331  0.8287  0.4886  0.0044
  174MOL0     C23901   8.094   7.752   5.349 -0.6244 -0.7606 -0.3370
  174MOL0     C23902   8.223   7.716   5.273  0.3255  0.2255 -0.9900
  174MOL0     C23903   8.041   7.659   5.441  0.0377 -0.3127 -0.0731
  174MOL0     C23904   8.095   7.527   5.459 -0.1218 -0.0112 -0.5885
  174MOL0     O23905   8.120   7.453   5.356  0.2400  0.1171 -0.4347
  174MOL0     C23906   8.188   7.331   5.358  0.3237 -0.3618  0.3198
  174MOL0     C23907   8.270   7.313   5.244 -0.5246  0.1922 -0.8803
  174MOL0     C23908   8.340   7.196   5.227  0.2265 -0.0798  0.3813
  174MOL0     C23909   8.327   7.091   5.322 -0.0253 -0.2203  0.1038
  174MOL0     O23910   8.373   6.967   5.314 -0.5076 -0.0860  0.3563
  174MOL0     C23911   8.364   6.901   5.182  0.0877  0.2580 -0.3927
  174MOL0     C23912   8.291   6.776   5.197 -0.1138  0.1590  0.2297
  174MOL0     C23913   8.311   6.674   5.321 -0.3801  0.3543  0.4332
  174MOL0     C23914   8.377   6.538   5.264 -0.0530  0.1561  0.2181
  174MOL0     C23915   8.412   6.448   5.387 -0.0438  0.6540 -0.4895
  174MOL0     C23916   8.298   6.376   5.457  0.4638 -0.2941  0.0928
  174MOL0     C23917   8.234   6.271   5.362 -0.4500 -0.2780 -0.1832
  174MOL0     C23918   8.132   6.186   5.446 -1.2932  0.5070  0.1992
  174MOL0    Cl23919   8.026   6.090   5.337 -0.7004 -0.0974  0.1536
  174MOL0     C23920   8.244   7.111   5.432 -0.8312  0.6957 -0.5160
  174MOL0     C23921   8.175   7.228   5.449 -0.2580  0.3576  0.6679
  174MOL0     O23922   8.106   7.486   5.575  0.2186 -0.2290 -0.7227
  174MOL0     C23923   7.933   7.706   5.520 -0.3024  0.0117  0.0537
  174MOL0     C23924   7.869   7.835   5.490  0.4994  0.0503 -1.0826
  174MOL0     N23925   7.490   8.599   5.402  0.2229 -0.9959 -0.8525
  174MOL0     N23926   7.567   8.685   5.448 -0.1428  0.1981 -1.4516
  174MOL0     C23927   7.537   7.915   5.975 -0.1537  1.3547 -0.6998
  174MOL0     C23928   7.508   7.781   5.945  1.4587 -0.2682 -0.0731
  174MOL0     C23929   7.651   7.382   5.720 -0.2615 -0.8765 -0.1980
  174MOL0     C23930   7.617   7.321   5.597  0.2380 -0.5264  0.3668
  174MOL0     C23931   7.639   7.187   5.579  0.4222 -1.6571  0.1504
  174MOL0     C23932   7.718   7.107   5.658  0.5102  0.0893  0.4797
  174MOL0     O23933   7.750   6.978   5.624  0.6001  0.1999  0.7764
  174MOL0     C23934   7.822   6.900   5.717 -0.0737 -0.5505  0.2796
  174MOL0     C23935   7.819   6.759   5.671  1.0951  0.2102  0.4804
  174MOL0     C23936   7.910   6.742   5.540 -0.1941 -1.3049  0.2401
  174MOL0     C23937   7.888   6.606   5.471  0.7804  0.3271 -0.1398
  174MOL0     C23938   7.932   6.622   5.336 -0.8326 -0.8546  0.5098
  174MOL0     C23939   7.984   6.622   5.231 -0.1004  0.7836 -0.6967
  174MOL0     C23940   7.771   7.178   5.776 -0.3370  0.3381 -0.3306
  174MOL0     C23941   7.734   7.309   5.802  0.3443 -0.4346 -1.0054
  174MOL0     C23942   7.784   7.363   5.935 -0.3596  0.2825 -0.9554
  174MOL0     H23943   7.824   7.689   5.866  0.4026  2.8696 -0.3926
  174MOL0     H23944   7.873   7.899   5.896  0.9226  1.5292  3.0546
  174MOL0     H23945   7.499   8.188   5.947 -0.1436  0.7675  0.5332
  174MOL0     H23946   7.575   8.151   5.796 -0.1257  0.4946 -1.4503
  174MOL0     H23947   7.563   8.388   5.831 -1.4364  0.1240  0.8794
  174MOL0     H23948   7.615   8.393   6.002 -0.3998  3.1725 -0.7892
  174MOL0     H23949   7.841   8.313   5.916 -1.1938 -2.4935 -1.1549
  174MOL0     H23950   7.786   8.342   5.747 -0.1387  1.5707 -0.1665
  174MOL0     H23951   7.722   8.584   5.856 -0.1153  0.6114 -0.6363
  174MOL0     H23952   7.813   8.520   5.990  1.2941  1.1310 -0.7153
  174MOL0     H23953   8.001   8.477   5.818 -1.5432 -1.4060 -1.6221
  174MOL0     H23954   7.976   8.647   5.852  0.5484  0.4372 -1.1309
  174MOL0     H23955   8.017   8.585   5.609  1.0106  0.7830  1.5454
  174MOL0     H23956   7.861   8.497   5.595  2.4591 -1.3045  0.5694
  174MOL0     H23957   7.913   8.793   5.654 -3.0524  2.5495  0.0236
  174MOL0     H23958   7.751   8.730   5.668 -0.2647  0.9297 -2.4631
  174MOL0     H23959   7.787   8.844   5.460 -1.6077 -0.4811 -2.5629
  174MOL0     H23960   7.892   8.716   5.402 -1.0733  0.8400 -2.4838
  174MOL0     H23961   7.786   8.478   5.322 -0.1348  1.1703 -2.6824
  174MOL0     H23962   7.527   8.394   5.159  1.6940  2.5005  0.8595
  174MOL0     H23963   7.403   8.376   5.277  0.1905 -1.1977 -1.9316
  174MOL0     H23964   7.540   8.258   5.414  1.6568 -0.3352  0.1975
  174MOL0     H23965   7.509   8.179   5.244 -2.0330 -1.1482  1.7199
  174MOL0     H23966   7.770   8.263   5.229 -1.7461  0.9300 -0.7184
  174MOL0     H23967   7.757   8.270   5.407 -0.6288 -1.1981  0.6401
  174MOL0     H23968   7.676   8.022   5.398 -1.1890  1.2557 -0.4007
  174MOL0     H23969   7.733   8.023   5.231 -1.1908 -1.8804  1.2403
  174MOL0     H23970   8.078   7.937   5.252 -1.1004  0.3351 -1.2291
  174MOL0     H23971   8.296   7.680   5.347 -1.1032 -0.7107  0.0364
  174MOL0     H23972   8.272   7.802   5.228  1.2715 -0.1004 -0.6172
  174MOL0     H23973   8.207   7.638   5.198  1.4573  0.2910 -1.3185
  174MOL0     H23974   8.283   7.390   5.168 -0.1569 -1.9597 -3.1297
  174MOL0     H23975   8.394   7.170   5.137  1.3215  3.0663 -0.0062
  174MOL0     H23976   8.310   6.959   5.108 -0.6231 -1.5359 -1.3338
  174MOL0     H23977   8.465   6.893   5.140  0.0311  0.4229 -0.5581
  174MOL0     H23978   8.195   6.825   5.218  0.8072  3.0846 -1.6775
  174MOL0     H23979   8.277   6.720   5.104  1.5167  1.2542 -0.7352
  174MOL0     H23980   8.220   6.656   5.379 -0.8256  3.8488  1.0865
  174MOL0     H23981   8.379   6.724   5.390 -2.5529  3.8353  0.3066
  174MOL0     H23982   8.464   6.572   5.206  1.9490 -1.3657  2.1318
  174MOL0     H23983   8.297   6.493   5.206 -1.0949  0.7690  1.1519
  174MOL0     H23984   8.487   6.375   5.356  0.3863  1.0889 -0.4975
  174MOL0     H23985   8.462   6.511   5.462  3.2426 -0.0239 -1.8981
  174MOL0     H23986   8.216   6.437   5.494  0.3323 -0.4652  0.0846
  174MOL0     H23987   8.343   6.326   5.544  2.5141 -1.2134 -1.4079
  174MOL0     H23988   8.307   6.205   5.314  1.2023  1.9668 -0.8925
  174MOL0     H23989   8.176   6.332   5.292 -3.1608  2.0068  3.6589
  174MOL0     H23990   8.063   6.256   5.495 -2.2542  1.6452 -2.5942
  174MOL0     H23991   8.188   6.124   5.517  0.4494 -0.5158 -1.9298
  174MOL0     H23992   8.231   7.037   5.510 -1.3511 -1.0084 -2.1548
  174MOL0     H23993   8.109   7.245   5.534  0.8926 -0.3693  1.7578
  174MOL0     H23994   7.885   7.647   5.598 -1.9689 -0.8077 -1.5120
  174MOL0     H23995   7.788   7.861   5.557  3.1135  0.7173  2.0971
  174MOL0     H23996   7.464   7.976   6.027 -0.5903 -0.4457  0.9161
  174MOL0     H23997   7.409   7.739   5.954  0.8580  1.0096 -0.4753
  174MOL0     H23998   7.544   7.362   5.528 -0.6604 -0.6781  1.2072
  174MOL0     H23999   7.608   7.134   5.489  1.1156 -1.7969 -0.0088
  174MOL0     H24000   7.927   6.931   5.718 -0.1336 -0.3312  0.0419
  174MOL0     H24001   7.769   6.908   5.812 -0.4645 -1.7211  0.1753
  174MOL0     H24002   7.714   6.737   5.648  1.0735  0.5367  0.2488
  174MOL0     H24003   7.868   6.688   5.737  0.7258  0.3940  0.9587
  174MOL0     H24004   7.884   6.827   5.476  3.9546 -0.4876 -0.6165
  174MOL0     H24005   8.015   6.751   5.569  0.0453 -2.4113 -0.2206
  174MOL0     H24006   7.783   6.578   5.479  1.2636 -1.0700  1.8627
  174MOL0     H24007   7.957   6.533   5.515 -0.4322 -0.4066  0.6104
  174MOL0     H24008   8.015   6.594   5.132  0.7182  0.4762 -0.3681
  174MOL0     H24009   7.827   7.113   5.843 -1.4368 -2.6621 -2.1075
  174MOL0     H24010   7.712   7.344   6.016 -0.6792 -2.5908 -1.8054
  174MOL0     H24011   7.879   7.313   5.959 -0.2949 -0.3366 -2.3951
  174MOL0     H24012   7.801   7.471   5.940 -1.3841  0.4544 -0.9639
  175MOL0     O24013  10.885   4.493   5.062 -0.0313  0.2582 -0.3261
  175MOL0     C24014  10.973   4.581   5.077 -0.3977 -0.4312 -0.1910
  175MOL0     O24015  10.974   4.704   5.003  0.0155  0.9633 -0.5025
  175MOL0     C24016  10.869   4.730   4.920 -0.0501  0.4609 -0.2557
  175MOL0     C24017  10.876   4.687   4.784  0.2828  0.1714 -1.2177
  175MOL0     C24018  10.760   4.694   4.703 -0.3461  1.3296  0.3345
  175MOL0     C24019  10.643   4.752   4.751 -0.3952 -1.1444  0.3859
  175MOL0     O24020  10.541   4.759   4.665  0.2463  0.0405 -0.1895
  175MOL0     C24021  10.414   4.822   4.708 -0.2529 -0.1507 -0.0010
  175MOL0     C24022  10.342   4.885   4.584  0.0356 -0.9608 -0.5259
  175MOL0     C24023  10.208   4.937   4.627 -1.0090  0.6847 -0.4094
  175MOL0     C24024  10.173   5.069   4.558  0.1657  0.0247 -0.0837
  175MOL0     C24025  10.026   5.096   4.583  0.1652 -0.7084  0.4702
  175MOL0     C24026   9.966   5.131   4.727 -0.8140  0.9667 -1.3897
  175MOL0     C24027   9.845   5.042   4.774 -0.0882  0.4413 -0.0782
  175MOL0     C24028   9.765   5.091   4.891  0.3296 -1.5509  0.4045
  175MOL0     N24029   9.657   5.001   4.934 -0.2478 -0.1222 -0.4968
  175MOL0     C24030   9.531   5.023   4.932  0.9807 -0.3594  0.1652
  175MOL0     C24031   9.480   4.907   4.989  0.4912  0.3853 -0.3085
  175MOL0     C24032   9.337   4.875   5.003 -0.1911  0.0149 -0.2567
  175MOL0     C24033   9.286   4.874   5.144  0.3711 -0.3355  0.1683
  175MOL0     C24034   9.297   4.999   5.231 -0.8387 -0.3590 -0.2830
  175MOL0     C24035   9.244   4.984   5.380 -0.8929 -0.2547  0.3774
  175MOL0     O24036   9.260   5.110   5.453  0.7272 -0.0744  0.1532
  175MOL0     C24037   9.247   5.115   5.589 -0.0461  1.1957 -0.4972
  175MOL0     C24038   9.318   5.211   5.662  0.0108 -0.7464 -0.2828
  175MOL0     C24039   9.317   5.217   5.797 -0.2471  0.1182 -0.0534
  175MOL0     C24040   9.361   5.343   5.872  0.4167  0.4564  0.7763
  175MOL0     C24041   9.271   5.105   5.866 -0.7500  0.2992 -0.1811
  175MOL0     C24042   9.276   5.084   6.010 -0.0521  1.0769 -0.6645
  175MOL0     O24043   9.358   5.163   6.083 -0.4395  0.5555 -0.5080
  175MOL0     C24044   9.390   5.109   6.210 -0.0997  0.0963  0.3579
  175MOL0     C24045   9.476   5.004   6.213 -0.7424  0.3641 -0.1226
  175MOL0     C24046   9.501   4.931   6.335 -0.8658  0.3442 -0.4044
  175MOL0     C24047   9.419   4.962   6.446  0.2144  0.3450 -0.3119
  175MOL0     O24048   9.425   4.908   6.571  0.4284 -0.0266  0.1280
  175MOL0     C24049   9.506   4.976   6.658  0.0174 -0.0935 -0.6066
  175MOL0     C24050   9.501   4.908   6.784 -0.0930  0.4588 -0.3390
  175MOL0     C24051   9.589   4.955   6.898 -0.4105  0.0961 -0.2962
  175MOL0     C24052   9.733   4.964   6.866  0.1227 -0.0523 -0.5193
  175MOL0     C24053   9.817   4.979   6.996  0.8012 -0.6853  0.0148
  175MOL0     C24054   9.855   4.843   7.058 -0.0115 -0.1909  0.2842
  175MOL0     C24055   9.933   4.879   7.182 -1.3791  0.2338 -0.1302
  175MOL0     C24056   9.965   4.770   7.284 -0.1848 -0.0138 -0.8081
  175MOL0    Cl24057   9.820   4.685   7.355  0.5447 -0.4886  0.0634
  175MOL0     C24058   9.334   5.071   6.434 -0.8837  0.9881 -0.0438
  175MOL0     C24059   9.327   5.146   6.322 -0.5666 -0.0393  0.4581
  175MOL0     O24060   9.205   4.992   6.060  0.5892 -0.0642  0.6145
  175MOL0     C24061   9.193   5.006   5.791 -0.2536 -0.6912  0.8942
  175MOL0     C24062   9.174   5.018   5.654 -0.1822  1.1481 -0.0676
  175MOL0     N24063   9.584   4.817   5.016  0.5444 -0.2224  0.7818
  175MOL0     N24064   9.690   4.884   4.995  1.0979  0.0223 -0.0908
  175MOL0     C24065  10.646   4.801   4.880 -0.0510 -0.0122 -0.0602
  175MOL0     C24066  10.749   4.775   4.967  0.1205 -0.0447  0.2027
  175MOL0     C24067  11.083   4.573   5.173 -0.1259 -0.4301 -0.0752
  175MOL0     C24068  11.149   4.689   5.222  0.4169  0.4107 -0.7673
  175MOL0     C24069  11.264   4.683   5.295  0.1221  0.9431 -0.1901
  175MOL0     C24070  11.316   4.564   5.333 -0.8495  1.5808  0.7267
  175MOL0     O24071  11.411   4.573   5.426 -0.3516  0.1913  0.3200
  175MOL0     C24072  11.466   4.454   5.489 -0.2554 -0.2866  0.3100
  175MOL0     C24073  11.540   4.496   5.620  0.3394 -0.1231  0.6864
  175MOL0     C24074  11.625   4.396   5.700 -0.5740  0.4012 -0.1709
  175MOL0     C24075  11.548   4.279   5.760  0.2470  1.1132  0.7826
  175MOL0     C24076  11.505   4.179   5.668 -0.2587 -0.1211  0.3114
  175MOL0     C24077  11.491   4.085   5.582 -0.6089 -0.6493 -0.3205
  175MOL0     C24078  11.257   4.439   5.290 -0.3214  0.0336 -0.2891
  175MOL0     C24079  11.143   4.448   5.206 -1.7559 -0.1626 -0.0658
  175MOL0     C24080  11.101   4.310   5.147 -0.0437 -1.2150 -0.7567
  175MOL0     H24081  10.964   4.629   4.758 -0.6059 -1.2147 -1.2089
  175MOL0     H24082  10.754   4.662   4.600  1.3791 -0.9250  0.8533
  175MOL0     H24083  10.429   4.903   4.780 -0.0259 -0.6097  0.4777
  175MOL0     H24084  10.353   4.749   4.763 -0.6542  0.8958  0.9845
  175MOL0     H24085  10.386   4.972   4.536 -5.1541  1.0820 -2.2848
  175MOL0     H24086  10.330   4.810   4.505 -1.5139 -1.1204 -0.1698
  175MOL0     H24087  10.137   4.859   4.600  2.1099 -3.5339  2.4516
  175MOL0     H24088  10.200   4.951   4.735  1.6790  0.3772 -0.1034
  175MOL0     H24089  10.232   5.152   4.598 -3.7422  2.3486  1.5148
  175MOL0     H24090  10.190   5.051   4.451 -0.0919 -2.5881  0.2477
  175MOL0     H24091   9.985   5.004   4.540 -0.3957 -0.5641  0.6834
  175MOL0     H24092   9.993   5.180   4.521 -0.2561 -1.2348 -0.0248
  175MOL0     H24093  10.050   5.129   4.797  0.5549 -1.2635 -2.9825
  175MOL0     H24094   9.933   5.236   4.724 -1.9072  0.7616  0.9039
  175MOL0     H24095   9.892   4.944   4.789  1.3517  0.6997 -2.3644
  175MOL0     H24096   9.780   5.023   4.688  1.8769  1.0683 -1.8071
  175MOL0     H24097   9.832   5.099   4.976  1.7977  1.7511 -0.8704
  175MOL0     H24098   9.728   5.189   4.859  0.4351 -1.8164 -0.5814
  175MOL0     H24099   9.477   5.112   4.899 -1.5856 -1.7204  0.4459
  175MOL0     H24100   9.307   4.781   4.955 -3.7455 -0.1293  1.9122
  175MOL0     H24101   9.290   4.955   4.945  0.4292 -0.7583 -1.9123
  175MOL0     H24102   9.183   4.837   5.148  1.0002 -2.0917  1.7691
  175MOL0     H24103   9.332   4.788   5.194 -1.0477 -1.7053 -0.7817
  175MOL0     H24104   9.399   5.037   5.231 -1.4017  1.4399  2.5021
  175MOL0     H24105   9.236   5.078   5.186 -0.5126 -0.4146 -0.8273
  175MOL0     H24106   9.138   4.957   5.376 -0.7368 -0.7600 -0.7163
  175MOL0     H24107   9.291   4.894   5.419 -3.1603 -1.7054 -0.0840
  175MOL0     H24108   9.381   5.283   5.611 -0.6910  1.2063  1.4661
  175MOL0     H24109   9.460   5.328   5.917 -0.4743 -0.6173  2.4546
  175MOL0     H24110   9.294   5.356   5.957  0.7600 -0.2075  1.1556
  175MOL0     H24111   9.360   5.433   5.809 -1.9088  0.5056  0.7908
  175MOL0     H24112   9.509   4.975   6.114  0.9429  1.0273  0.2202
  175MOL0     H24113   9.558   4.839   6.337 -2.0560 -0.4824 -2.0951
  175MOL0     H24114   9.608   4.988   6.619  0.5003  0.0064  0.6365
  175MOL0     H24115   9.460   5.074   6.677  0.4952 -0.0740  0.5137
  175MOL0     H24116   9.398   4.900   6.822 -0.4262 -0.8397 -1.4212
  175MOL0     H24117   9.530   4.805   6.762 -1.4005  0.1141 -0.5685
  175MOL0     H24118   9.575   4.879   6.975 -2.3405  0.9253  0.2368
  175MOL0     H24119   9.557   5.051   6.940  1.5843  0.3013  0.8539
  175MOL0     H24120   9.750   5.060   6.816 -0.3693 -0.0925 -0.7734
  175MOL0     H24121   9.772   4.878   6.810  2.6141  1.5109 -1.3548
  175MOL0     H24122   9.907   5.035   6.967  0.6109 -1.1711 -1.5807
  175MOL0     H24123   9.754   5.032   7.069 -1.9795  1.3441 -3.5533
  175MOL0     H24124   9.919   4.786   6.989  2.0234 -0.8326  2.5476
  175MOL0     H24125   9.759   4.795   7.078  0.0932 -0.3302  0.4492
  175MOL0     H24126   9.884   4.966   7.227  0.3791  0.7387  0.8754
  175MOL0     H24127  10.033   4.907   7.150 -1.4006  0.7546  0.2526
  175MOL0     H24128  10.025   4.820   7.361 -2.7345  0.7518  0.8056
  175MOL0     H24129  10.025   4.697   7.229  0.1076  1.8055 -3.0601
  175MOL0     H24130   9.278   5.091   6.524 -0.7962 -2.3461  0.8947
  175MOL0     H24131   9.250   5.222   6.318  1.6403  2.4620  1.8705
  175MOL0     H24132   9.148   4.923   5.844 -0.5302 -0.6052  0.7933
  175MOL0     H24133   9.110   4.948   5.601 -3.3662  3.0611  0.9611
  175MOL0     H24134  10.558   4.846   4.926  0.5375 -1.4467  2.6801
  175MOL0     H24135  10.728   4.793   5.072 -0.6611 -3.1094  0.6452
  175MOL0     H24136  11.128   4.788   5.184  2.8734  0.8813 -1.0518
  175MOL0     H24137  11.328   4.767   5.319  0.2767  0.4480  1.2641
  175MOL0     H24138  11.385   4.385   5.517 -0.5135  0.7011  2.1549
  175MOL0     H24139  11.532   4.403   5.418 -2.8176 -0.9593 -1.7490
  175MOL0     H24140  11.465   4.534   5.690 -0.0519  0.6661 -0.1321
  175MOL0     H24141  11.608   4.581   5.605  0.3906 -0.3398 -0.4191
  175MOL0     H24142  11.708   4.357   5.640 -0.4985 -2.9441  1.8593
  175MOL0     H24143  11.665   4.451   5.785  1.8067 -2.0877  0.4364
  175MOL0     H24144  11.457   4.307   5.814 -0.4875 -2.9734  1.9842
  175MOL0     H24145  11.602   4.218   5.833 -0.8764  1.3171  1.8230
  175MOL0     H24146  11.491   4.014   5.502 -0.6147  0.5811 -1.4431
  175MOL0     H24147  11.303   4.344   5.312 -2.9057 -1.5140 -1.2004
  175MOL0     H24148  10.993   4.298   5.134  0.2167 -2.0245 -2.4112
  175MOL0     H24149  11.148   4.297   5.049  0.7846 -2.5133 -0.2159
  175MOL0     H24150  11.136   4.232   5.214  1.8104  1.4358  1.5804
  176MOL0     O24151   2.725  10.582   8.656 -0.0224 -0.2984 -0.2936
  176MOL0     C24152   2.636  10.659   8.678 -0.3637 -0.7367  0.8291
  176MOL0     O24153   2.580  10.688   8.800  0.0480  0.5743  0.0449
  176MOL0     C24154   2.620  10.619   8.914  0.3305  0.0052  0.8935
  176MOL0     C24155   2.678  10.682   9.026 -0.3017  0.7330 -0.0065
  176MOL0     C24156   2.697  10.615   9.143 -0.3685  0.0132  1.0343
  176MOL0     C24157   2.687  10.472   9.147 -0.6082 -0.2067  0.2576
  176MOL0     O24158   2.735  10.411   9.262  0.3311 -0.3030 -0.4568
  176MOL0     C24159   2.645  10.310   9.320  0.3640  0.0016  0.6900
  176MOL0     C24160   2.728  10.240   9.410  0.7738  0.5912 -0.0564
  176MOL0     C24161   2.650  10.119   9.468  0.2998  0.0606 -0.3273
  176MOL0     C24162   2.734  10.070   9.582  1.2984 -0.4669  0.1278
  176MOL0     C24163   2.647   9.960   9.657 -0.8833 -0.6896 -0.0389
  176MOL0     C24164   2.598  10.024   9.792 -0.2284 -0.3251 -0.3250
  176MOL0     C24165   2.550   9.926   9.896 -0.4188 -0.1652 -0.2975
  176MOL0     C24166   2.487   9.990  10.026  0.1150  0.4410  0.0277
  176MOL0     N24167   2.600  10.043  10.099 -0.1930 -0.2683  0.3540
  176MOL0     C24168   2.678   9.974  10.196  0.3726 -0.4606  0.8118
  176MOL0     C24169   2.750  10.075  10.252  0.2399  0.0256 -0.0598
  176MOL0     C24170   2.848  10.068  10.369 -0.1658 -0.6149 -0.6989
  176MOL0     C24171   2.909   9.938  10.373  0.4124  0.4756 -0.0431
  176MOL0     C24172   3.019   9.921  10.477 -0.2763 -0.5413  0.2922
  176MOL0     C24173   2.976   9.824  10.589  0.5873  0.9842  0.0291
  176MOL0     O24174   2.952   9.683  10.544  0.6492 -0.4600 -0.4486
  176MOL0     C24175   2.871   9.596  10.621 -0.5522 -0.0315  0.6376
  176MOL0     C24176   2.849   9.623  10.753  0.1970 -0.0599 -0.0251
  176MOL0     C24177   2.780   9.538  10.832 -0.2462 -0.1423  0.1966
  176MOL0     C24178   2.769   9.590  10.975  0.9283  0.5680 -0.6751
  176MOL0     C24179   2.714   9.422  10.774 -0.8445  0.4254  0.0066
  176MOL0     C24180   2.620   9.339  10.859  1.2469 -0.3981  0.1482
  176MOL0     O24181   2.540   9.260  10.783 -0.1981 -0.0439 -0.2355
  176MOL0     C24182   2.428   9.201  10.841 -0.3256  0.2997  0.2262
  176MOL0     C24183   2.447   9.114  10.942 -0.2258  0.1596 -0.0530
  176MOL0     C24184   2.343   9.037  11.005 -0.8916  0.0227  0.0592
  176MOL0     C24185   2.213   9.045  10.963 -0.6951 -0.3983  0.1860
  176MOL0     O24186   2.120   8.964  11.030 -0.1182 -0.2190  0.1464
  176MOL0     C24187   1.988   9.021  11.036 -0.4919 -0.7871  0.4698
  176MOL0     C24188   1.890   8.951  11.128  1.0902  0.7249  0.1445
  176MOL0     C24189   1.763   9.034  11.149 -1.5312  1.2096 -0.9098
  176MOL0     C24190   1.801   9.135  11.262  0.6097  0.7280  0.2555
  176MOL0     C24191   1.696   9.250  11.254 -0.7921 -0.1427 -0.1298
  176MOL0     C24192   1.697   9.344  11.128 -1.3485 -0.0444 -0.7438
  176MOL0     C24193   1.698   9.497  11.164  1.1040 -0.2203  0.0430
  176MOL0     C24194   1.694   9.564  11.026  1.6275  0.1976 -0.4444
  176MOL0    Cl24195   1.843   9.652  10.986 -0.1870  0.7136  0.0683
  176MOL0     C24196   2.188   9.137  10.854  0.4663  0.7081 -0.2748
  176MOL0     C24197   2.297   9.204  10.788  0.0392 -0.1457  0.3427
  176MOL0     O24198   2.633   9.336  10.983  0.2058 -0.7913  0.6557
  176MOL0     C24199   2.741   9.390  10.633  0.8422 -0.3296 -0.6939
  176MOL0     C24200   2.826   9.477  10.563 -0.2673 -0.0112  0.2086
  176MOL0     N24201   2.719  10.192  10.193 -0.6728  0.5825  0.2258
  176MOL0     N24202   2.634  10.174  10.103  0.7392 -0.2290  0.5088
  176MOL0     C24203   2.642  10.403   9.034 -0.0468 -0.3859  0.3857
  176MOL0     C24204   2.606  10.482   8.923  0.4256 -0.0185 -0.1334
  176MOL0     C24205   2.617  10.768   8.565 -0.1214  1.3146 -0.1117
  176MOL0     C24206   2.729  10.814   8.489 -0.7916 -0.6484  0.3127
  176MOL0     C24207   2.711  10.918   8.399  0.0888 -0.6772 -0.2533
  176MOL0     C24208   2.581  10.977   8.374 -0.3732  0.0280  0.0730
  176MOL0     O24209   2.548  11.104   8.320 -0.3410 -0.0315 -0.0867
  176MOL0     C24210   2.662  11.175   8.274 -0.8076  0.6539  0.5656
  176MOL0     C24211   2.616  11.309   8.222  0.7931  0.0303 -0.7502
  176MOL0     C24212   2.555  11.416   8.315  0.1989 -0.5317 -0.2038
  176MOL0     C24213   2.635  11.455   8.433 -0.8654  0.4328 -0.0092
  176MOL0     C24214   2.779  11.488   8.407  0.2249 -0.5525 -0.3321
  176MOL0     C24215   2.894  11.523   8.384 -1.1006 -0.1592  0.1532
  176MOL0     C24216   2.485  10.910   8.438  0.3372 -0.8403 -0.1528
  176MOL0     C24217   2.492  10.801   8.521  1.1060  0.9416 -0.8501
  176MOL0     C24218   2.357  10.724   8.579 -0.5488 -0.0235  0.8503
  176MOL0     H24219   2.702  10.788   9.027 -0.0434  0.7554 -2.6974
  176MOL0     H24220   2.722  10.663   9.238 -1.8704  2.0527  0.4718
  176MOL0     H24221   2.619  10.245   9.236 -1.2510  1.2837  0.1510
  176MOL0     H24222   2.559  10.354   9.372 -1.4486 -0.8638 -1.4122
  176MOL0     H24223   2.821  10.206   9.364 -0.4057  1.2000 -3.1434
  176MOL0     H24224   2.747  10.314   9.489 -1.5231  3.7200 -2.2102
  176MOL0     H24225   2.551  10.148   9.504  1.4636 -0.4069  3.8702
  176MOL0     H24226   2.646  10.045   9.388  1.6771  1.5102 -1.8016
  176MOL0     H24227   2.831  10.044   9.539  1.4650  2.1277 -1.2713
  176MOL0     H24228   2.759  10.147   9.655 -1.3314  1.2266 -0.6235
  176MOL0     H24229   2.712   9.877   9.685  1.0402  1.3671  2.0416
  176MOL0     H24230   2.561   9.937   9.594 -1.4400  2.9123 -0.8341
  176MOL0     H24231   2.686  10.074   9.833 -1.3409 -0.0710  1.8848
  176MOL0     H24232   2.522  10.102   9.779  0.1412 -0.1359 -1.4983
  176MOL0     H24233   2.631   9.857   9.922 -0.1774 -0.2622 -1.2896
  176MOL0     H24234   2.469   9.868   9.851 -1.1917 -2.3729  3.5023
  176MOL0     H24235   2.421  10.073   9.999 -0.6651 -0.8660 -2.3302
  176MOL0     H24236   2.442   9.919  10.095  4.4422 -0.0568  2.7599
  176MOL0     H24237   2.673   9.866  10.209 -1.4190 -0.5455 -0.2333
  176MOL0     H24238   2.787  10.083  10.459  0.3657  1.1393 -0.5984
  176MOL0     H24239   2.923  10.147  10.361 -0.4773 -0.0786  1.0800
  176MOL0     H24240   2.830   9.863  10.377  0.9949 -0.1562 -0.1704
  176MOL0     H24241   2.961   9.933  10.277 -3.1574  0.2715 -2.1287
  176MOL0     H24242   3.112   9.883  10.434 -0.5569 -1.7895  0.7609
  176MOL0     H24243   3.041  10.024  10.508  0.8102 -0.5967 -0.2402
  176MOL0     H24244   3.050   9.830  10.670  0.6738  1.6317 -0.0887
  176MOL0     H24245   2.890   9.871  10.637  0.8456 -0.4583  2.0169
  176MOL0     H24246   2.904   9.709  10.789  0.1323  0.8814 -2.0597
  176MOL0     H24247   2.788   9.697  10.985  1.1292  0.4396  0.4000
  176MOL0     H24248   2.850   9.539  11.028  0.2467 -1.1488 -1.1897
  176MOL0     H24249   2.673   9.570  11.025  1.7120 -0.7787  0.3562
  176MOL0     H24250   2.551   9.101  10.969 -0.0719  0.4344 -0.5042
  176MOL0     H24251   2.373   8.970  11.084 -1.8710  0.8470  1.1525
  176MOL0     H24252   1.999   9.124  11.068 -1.1093  1.3947 -5.1081
  176MOL0     H24253   1.945   9.032  10.936  0.1321  0.7077  0.3543
  176MOL0     H24254   1.861   8.852  11.090 -2.6460  1.9761 -0.7014
  176MOL0     H24255   1.941   8.940  11.223  0.5494 -1.5706  0.2327
  176MOL0     H24256   1.681   8.970  11.183 -2.7750  2.7349 -0.9107
  176MOL0     H24257   1.731   9.079  11.055 -1.3235 -0.0667 -1.6122
  176MOL0     H24258   1.898   9.180  11.241 -0.6095  3.4182 -0.0049
  176MOL0     H24259   1.796   9.094  11.363  2.0484 -2.3475 -0.7599
  176MOL0     H24260   1.592   9.218  11.258 -0.6718 -1.0147 -2.6660
  176MOL0     H24261   1.707   9.314  11.343  0.7724  2.0162 -1.7694
  176MOL0     H24262   1.605   9.325  11.073 -4.0846  1.5068  2.8760
  176MOL0     H24263   1.788   9.316  11.074 -1.1550 -2.2327  0.5709
  176MOL0     H24264   1.789   9.532  11.213  3.1475 -1.5300 -2.5251
  176MOL0     H24265   1.610   9.531  11.220  0.0322 -2.1513 -0.3708
  176MOL0     H24266   1.605   9.627  11.023  1.0825 -0.3297  1.9690
  176MOL0     H24267   1.668   9.496  10.944  1.0941  1.2161 -1.1396
  176MOL0     H24268   2.089   9.148  10.812  0.3463  0.0011 -0.1933
  176MOL0     H24269   2.277   9.279  10.713 -0.1574 -2.0288 -1.5696
  176MOL0     H24270   2.705   9.296  10.593  1.0564  0.4452 -2.8128
  176MOL0     H24271   2.847   9.449  10.460  2.5079 -3.2790  1.4584
  176MOL0     H24272   2.644  10.295   9.032 -2.2224 -0.5212 -3.4246
  176MOL0     H24273   2.570  10.430   8.835 -1.2598 -1.7108  1.4616
  176MOL0     H24274   2.823  10.779   8.530 -1.9327 -3.9887  0.4295
  176MOL0     H24275   2.807  10.954   8.363  0.0231  0.5584  0.7227
  176MOL0     H24276   2.742  11.194   8.346 -0.8281 -0.6556  0.9647
  176MOL0     H24277   2.707  11.118   8.192 -2.9536  0.8136 -0.7771
  176MOL0     H24278   2.540  11.284   8.148  1.1496  1.4289 -1.6374
  176MOL0     H24279   2.685  11.361   8.155 -0.5734  0.6919 -1.7028
  176MOL0     H24280   2.529  11.503   8.253 -0.4158 -0.4964  0.0873
  176MOL0     H24281   2.452  11.392   8.344 -0.0608  1.6507  0.9510
  176MOL0     H24282   2.624  11.372   8.504 -1.1226  2.0272  1.8789
  176MOL0     H24283   2.582  11.534   8.487 -1.0832 -0.5541  1.2951
  176MOL0     H24284   2.990  11.558   8.352 -3.3787  2.8690 -4.4661
  176MOL0     H24285   2.382  10.944   8.434  1.2907  2.2347 -1.4403
  176MOL0     H24286   2.287  10.798   8.620  3.0762  2.3039  3.5567
  176MOL0     H24287   2.308  10.668   8.499  1.1810  1.7244 -1.6051
  176MOL0     H24288   2.372  10.648   8.655 -1.5449 -1.9421 -0.7862
  177MOL0     O24289  10.602   8.443   3.963  0.4590 -0.4002  0.0422
  177MOL0     C24290  10.613   8.335   3.910  0.3315 -0.2625  0.8430
  177MOL0     O24291  10.714   8.253   3.920  0.7611 -0.1972  0.0400
  177MOL0     C24292  10.836   8.282   3.964 -0.0576  0.0504  0.4461
  177MOL0     C24293  10.890   8.404   3.987 -0.4092  0.6717  0.6668
  177MOL0     C24294  11.031   8.428   4.002 -0.3720 -0.0256  0.0787
  177MOL0     C24295  11.116   8.322   4.000 -0.3625  0.2621 -0.3092
  177MOL0     O24296  11.252   8.347   4.012  0.1225 -0.1112 -0.4049
  177MOL0     C24297  11.306   8.409   3.889 -0.0358  0.1651 -0.0004
  177MOL0     C24298  11.457   8.426   3.875 -1.4611 -0.1316  0.5775
  177MOL0     C24299  11.528   8.293   3.902 -1.5316 -0.4432  0.7909
  177MOL0     C24300  11.628   8.264   3.794 -0.6568  0.8235  0.4477
  177MOL0     C24301  11.736   8.375   3.768 -0.1959 -0.3304 -0.2094
  177MOL0     C24302  11.842   8.332   3.664  0.2969  0.8640 -0.4728
  177MOL0     C24303  11.915   8.460   3.611 -0.0509 -0.3261 -0.6431
  177MOL0     C24304  12.024   8.502   3.713  0.6163  0.1182  0.5694
  177MOL0     N24305  12.095   8.624   3.670 -0.2057 -0.4607 -0.2313
  177MOL0     C24306  12.110   8.732   3.756  0.3792 -0.1729 -0.2783
  177MOL0     C24307  12.221   8.800   3.698 -0.0976 -0.1409 -0.0374
  177MOL0     C24308  12.274   8.928   3.773  1.3766  1.6886  0.1850
  177MOL0     C24309  12.423   8.956   3.738  0.5678 -0.4240  0.2442
  177MOL0     C24310  12.493   9.075   3.812 -0.6994  0.5104 -0.2217
  177MOL0     C24311  12.542   9.028   3.954  0.3707 -0.4286 -0.2796
  177MOL0     O24312  12.662   8.951   3.950  0.5786  0.9154  0.4020
  177MOL0     C24313  12.792   8.999   3.937  0.3604  0.1667 -0.0648
  177MOL0     C24314  12.885   8.910   3.958 -0.2076  0.8461 -0.3167
  177MOL0     C24315  13.022   8.936   3.957  0.5559 -0.1988 -0.1445
  177MOL0     C24316  13.135   8.835   3.977 -0.1298  0.0599  0.8680
  177MOL0     C24317  13.060   9.066   3.937  0.2448 -0.2098 -1.1264
  177MOL0     C24318  13.203   9.109   3.944 -0.3415  0.3844 -0.2238
  177MOL0     O24319  13.244   9.164   3.828  0.8048 -0.3089  0.1241
  177MOL0     C24320  13.364   9.226   3.822 -0.4474  0.6919  0.9515
  177MOL0     C24321  13.381   9.358   3.836  0.9184 -0.5749  0.3309
  177MOL0     C24322  13.506   9.414   3.836 -0.6581 -0.8706 -0.0137
  177MOL0     C24323  13.621   9.343   3.819  0.8999 -0.0506  0.6397
  177MOL0     O24324  13.744   9.412   3.823  0.6222 -0.4483  0.1778
  177MOL0     C24325  13.853   9.320   3.821 -0.2416  0.2228  0.6887
  177MOL0     C24326  13.990   9.383   3.841 -0.2751 -0.1391  0.1001
  177MOL0     C24327  14.045   9.382   3.981  0.1098  0.1096  0.8808
  177MOL0     C24328  14.197   9.402   3.985 -0.9049  0.1246 -0.1496
  177MOL0     C24329  14.245   9.413   4.132  0.0315  0.2028  0.9149
  177MOL0     C24330  14.215   9.287   4.218  0.4535 -0.2139  0.0023
  177MOL0     C24331  14.215   9.320   4.363 -0.2879  0.1680 -0.4432
  177MOL0     C24332  14.179   9.201   4.455  0.3028  0.2672  0.2934
  177MOL0    Cl24333  14.322   9.087   4.444 -0.0287 -0.1364 -0.1938
  177MOL0     C24334  13.603   9.203   3.784  0.1320 -0.1003  0.9980
  177MOL0     C24335  13.477   9.147   3.786  1.2618  0.1383  1.1169
  177MOL0     O24336  13.283   9.079   4.038 -0.2504  0.8383  0.4073
  177MOL0     C24337  12.962   9.164   3.915 -0.6902  0.5264 -0.3107
  177MOL0     C24338  12.826   9.134   3.905 -0.3239  0.2069 -0.7261
  177MOL0     N24339  12.282   8.733   3.593 -0.1760 -0.7770  0.7588
  177MOL0     N24340  12.194   8.632   3.574 -0.6096 -0.6116 -0.9188
  177MOL0     C24341  11.065   8.202   3.995  1.7134 -0.1938 -0.4231
  177MOL0     C24342  10.924   8.174   3.976  0.2306 -0.2544 -0.1394
  177MOL0     C24343  10.491   8.295   3.839  0.9718  1.3145 -0.2618
  177MOL0     C24344  10.361   8.337   3.893  0.7104  0.3521 -0.2527
  177MOL0     C24345  10.235   8.282   3.838  0.1476 -0.7163  0.0026
  177MOL0     C24346  10.236   8.209   3.721  0.9763 -0.8704  0.0651
  177MOL0     O24347  10.111   8.165   3.686 -0.2286  0.0596  0.3993
  177MOL0     C24348  10.102   8.108   3.556  0.6674 -0.6299 -0.5320
  177MOL0     C24349   9.951   8.079   3.517  0.2284 -0.1778 -0.3802
  177MOL0     C24350   9.881   8.211   3.533 -0.4764 -0.7385  0.1915
  177MOL0     C24351   9.739   8.218   3.472 -0.1348 -0.9832 -1.2149
  177MOL0     C24352   9.744   8.192   3.326 -0.2966 -1.3419  0.3991
  177MOL0     C24353   9.741   8.152   3.212  0.2980  0.2000  0.9182
  177MOL0     C24354  10.360   8.178   3.661 -0.1959 -0.2508 -0.2358
  177MOL0     C24355  10.487   8.205   3.721 -0.0519  0.1353 -0.6604
  177MOL0     C24356  10.607   8.148   3.646  0.3953 -0.1030 -0.2364
  177MOL0     H24357  10.818   8.485   3.999 -4.9077 -3.2158  3.9936
  177MOL0     H24358  11.055   8.534   4.001 -0.1818 -0.0463 -1.7176
  177MOL0     H24359  11.262   8.509   3.878  1.0381  0.7408  0.7878
  177MOL0     H24360  11.275   8.346   3.805 -2.0578  2.1839 -0.8794
  177MOL0     H24361  11.468   8.478   3.779 -1.6648 -1.0087  0.0640
  177MOL0     H24362  11.491   8.500   3.948  0.2725  0.3648 -0.6706
  177MOL0     H24363  11.577   8.291   4.000 -0.7774  2.6629  0.5860
  177MOL0     H24364  11.456   8.211   3.910  1.5851 -3.2695  3.2203
  177MOL0     H24365  11.681   8.171   3.812 -1.6802 -0.2992 -1.8918
  177MOL0     H24366  11.576   8.240   3.700 -0.7390 -1.7879  1.0995
  177MOL0     H24367  11.792   8.409   3.856  0.1020  1.7755 -1.1357
  177MOL0     H24368  11.691   8.470   3.736  2.5514  0.2101 -3.0333
  177MOL0     H24369  11.910   8.260   3.710 -2.1836 -0.2371  1.7606
  177MOL0     H24370  11.785   8.281   3.586  0.5404 -1.6323  0.8982
  177MOL0     H24371  11.832   8.527   3.584 -0.1228 -0.1130  0.0815
  177MOL0     H24372  11.963   8.427   3.519  2.9907 -0.4017  0.8511
  177MOL0     H24373  11.982   8.512   3.814 -3.7897 -0.5982 -0.9732
  177MOL0     H24374  12.088   8.414   3.716  1.3649  0.5763 -0.9037
  177MOL0     H24375  12.056   8.754   3.847 -0.5638  1.3696 -1.1874
  177MOL0     H24376  12.260   8.916   3.881  0.8992 -0.5213 -0.0769
  177MOL0     H24377  12.215   9.010   3.731 -1.7536  0.1205  1.1858
  177MOL0     H24378  12.469   8.859   3.758 -2.5536 -1.8118  1.3613
  177MOL0     H24379  12.420   8.979   3.631  2.0961 -1.0871  0.0304
  177MOL0     H24380  12.575   9.123   3.758  0.0198 -0.3145  0.1164
  177MOL0     H24381  12.424   9.157   3.836  0.9131  1.3507  1.8911
  177MOL0     H24382  12.561   9.117   4.014  1.9912  0.9271 -2.6515
  177MOL0     H24383  12.454   8.974   3.992  0.2962  0.9656  1.6710
  177MOL0     H24384  12.851   8.812   3.990  2.3452  0.5148  1.7868
  177MOL0     H24385  13.213   8.840   3.900 -0.0736 -0.9017  0.8491
  177MOL0     H24386  13.090   8.735   3.982 -2.9409  1.0760 -1.5315
  177MOL0     H24387  13.191   8.865   4.066  0.7991  2.8554 -0.5257
  177MOL0     H24388  13.302   9.430   3.856  1.9630 -0.0901  3.1690
  177MOL0     H24389  13.523   9.521   3.849  1.3371 -0.5093 -4.1014
  177MOL0     H24390  13.834   9.237   3.890 -2.1803 -1.0734 -1.2727
  177MOL0     H24391  13.862   9.277   3.721 -1.8723  1.8154 -0.2108
  177MOL0     H24392  14.062   9.315   3.793  3.1202  2.0460  1.6823
  177MOL0     H24393  13.982   9.487   3.806 -0.9377  0.8768  3.0093
  177MOL0     H24394  14.006   9.292   4.029 -1.5434  1.2596  1.8251
  177MOL0     H24395  13.995   9.467   4.029  0.3943  0.6262  0.2888
  177MOL0     H24396  14.232   9.487   3.926  2.6317 -1.7048 -0.9875
  177MOL0     H24397  14.247   9.310   3.951 -0.9258 -0.1040  0.4317
  177MOL0     H24398  14.351   9.440   4.139 -0.4838  2.4411  0.8015
  177MOL0     H24399  14.183   9.497   4.163 -3.1734 -0.7333 -2.2698
  177MOL0     H24400  14.293   9.217   4.189  0.3847 -0.9138  1.4234
  177MOL0     H24401  14.119   9.239   4.197  1.0867 -1.2763 -0.5288
  177MOL0     H24402  14.144   9.402   4.381 -1.3464 -0.8788  0.2840
  177MOL0     H24403  14.312   9.357   4.396 -0.5996  2.3268 -1.7519
  177MOL0     H24404  14.084   9.153   4.433  0.8014 -0.0861 -1.1810
  177MOL0     H24405  14.157   9.236   4.556 -0.4070  0.9097 -0.0724
  177MOL0     H24406  13.687   9.135   3.772  0.5832  0.1450  2.4986
  177MOL0     H24407  13.461   9.041   3.768  0.5793  0.5128 -0.8301
  177MOL0     H24408  12.999   9.264   3.896 -1.1570  1.1199  1.6363
  177MOL0     H24409  12.750   9.206   3.876 -0.3279  0.0756 -1.0465
  177MOL0     H24410  11.138   8.121   3.998  0.5318 -1.3333 -1.2701
  177MOL0     H24411  10.894   8.074   3.947 -0.4328 -0.8748  2.3842
  177MOL0     H24412  10.360   8.398   3.982  0.6158 -3.1740  2.3551
  177MOL0     H24413  10.147   8.322   3.888  1.6903  0.9538  1.5399
  177MOL0     H24414  10.149   8.172   3.481 -0.2880  1.6742  0.7291
  177MOL0     H24415  10.156   8.013   3.558  1.8619 -0.0237 -1.8707
  177MOL0     H24416   9.917   8.003   3.588  0.8280 -0.3810 -0.3015
  177MOL0     H24417   9.944   8.048   3.413  1.1425  8.5609 -3.8503
  177MOL0     H24418   9.871   8.228   3.641  0.2535 -1.2480  0.3466
  177MOL0     H24419   9.942   8.297   3.505 -0.7652  0.2988  2.5019
  177MOL0     H24420   9.695   8.316   3.492 -0.0196 -1.5508  2.4787
  177MOL0     H24421   9.669   8.139   3.499  0.6460 -1.3942 -0.3593
  177MOL0     H24422   9.740   8.118   3.110  0.0785 -1.2907  1.3851
  177MOL0     H24423  10.362   8.110   3.576 -1.3958 -2.7492  1.6063
  177MOL0     H24424  10.688   8.210   3.684 -0.1472 -0.5413  1.7462
  177MOL0     H24425  10.608   8.041   3.665 -1.0048 -0.5392 -2.3101
  177MOL0     H24426  10.612   8.175   3.540  3.8454  0.0827 -0.1189
  178MOL0     O24427   5.551   2.164   3.734 -0.7851 -0.1816  1.5397
  178MOL0     C24428   5.515   2.269   3.780 -0.5376 -0.7338  0.3122
  178MOL0     O24429   5.514   2.293   3.917  0.0479  0.1200  0.0042
  178MOL0     C24430   5.581   2.212   4.003 -0.6898  1.4633  0.0635
  178MOL0     C24431   5.531   2.190   4.135 -0.6513  0.3183 -0.1614
  178MOL0     C24432   5.597   2.112   4.227 -0.3345  0.9384  0.1601
  178MOL0     C24433   5.732   2.068   4.207  0.7390  1.1482 -0.8172
  178MOL0     O24434   5.797   2.003   4.316  0.4932  0.1812  0.3522
  178MOL0     C24435   5.923   1.934   4.281 -0.2896 -0.0533 -0.5628
  178MOL0     C24436   6.014   1.934   4.404  0.4356  0.1369 -1.1835
  178MOL0     C24437   6.063   2.071   4.464  0.3618  0.3105  0.4057
  178MOL0     C24438   6.176   2.121   4.379 -0.3029  0.0972  0.5869
  178MOL0     C24439   6.246   2.254   4.406 -0.5317  0.6947 -0.1235
  178MOL0     C24440   6.147   2.363   4.467  0.2711  0.3848  0.9671
  178MOL0     C24441   6.060   2.442   4.360 -0.8723  0.1665 -0.2361
  178MOL0     C24442   5.937   2.497   4.428 -0.3265 -0.7826  0.0887
  178MOL0     N24443   5.842   2.537   4.323  0.1950  1.3257 -0.6484
  178MOL0     C24444   5.807   2.469   4.206 -0.6095  0.2358 -0.8846
  178MOL0     C24445   5.746   2.564   4.134  0.0654 -0.8281  0.3198
  178MOL0     C24446   5.713   2.547   3.994 -0.0513 -0.6815 -0.1017
  178MOL0     C24447   5.642   2.676   3.934 -0.5043  0.2565  0.0335
  178MOL0     C24448   5.746   2.779   3.911  0.5668  1.0648 -0.7296
  178MOL0     C24449   5.684   2.909   3.853  0.1149 -0.6855 -0.1726
  178MOL0     O24450   5.593   2.961   3.954 -0.4634 -0.5682  0.0422
  178MOL0     C24451   5.653   3.064   4.026 -0.4228 -0.6498  0.5163
  178MOL0     C24452   5.689   3.183   3.963  0.3539  0.4284  0.3097
  178MOL0     C24453   5.763   3.277   4.027  0.1555 -0.2328  0.0441
  178MOL0     C24454   5.788   3.418   3.973  0.7385 -0.4982  0.2241
  178MOL0     C24455   5.804   3.247   4.166 -0.0615 -0.5605 -0.2710
  178MOL0     C24456   5.867   3.354   4.244 -0.4152  0.1234 -0.0129
  178MOL0     O24457   5.771   3.421   4.324  0.0736 -0.0573 -0.0878
  178MOL0     C24458   5.805   3.545   4.391 -0.1646  0.1705 -0.0145
  178MOL0     C24459   5.764   3.555   4.522 -0.5657  0.7468 -0.4644
  178MOL0     C24460   5.793   3.675   4.589 -0.6190 -0.3012 -0.2260
  178MOL0     C24461   5.863   3.777   4.525 -0.1888 -0.1627  0.2953
  178MOL0     O24462   5.891   3.897   4.584 -0.3555 -0.0641 -0.2298
  178MOL0     C24463   5.826   3.926   4.717  0.1791 -0.0625  0.1158
  178MOL0     C24464   5.856   4.070   4.751  0.5310 -0.4489 -1.2788
  178MOL0     C24465   5.835   4.100   4.896  0.2590  0.6001 -0.3698
  178MOL0     C24466   5.828   4.247   4.920  0.0005 -0.0177  0.2785
  178MOL0     C24467   5.808   4.268   5.070  0.3189 -0.0573  0.6694
  178MOL0     C24468   5.800   4.418   5.108  0.5182 -0.1955 -1.7718
  178MOL0     C24469   5.764   4.413   5.267  0.3410 -0.4783  0.3935
  178MOL0     C24470   5.889   4.447   5.343  0.0121  0.9722  0.2362
  178MOL0    Cl24471   5.937   4.615   5.317 -0.1472  0.1893  0.1769
  178MOL0     C24472   5.904   3.767   4.393  0.1713 -0.1662 -0.2742
  178MOL0     C24473   5.877   3.648   4.328  0.1048  0.0638  0.7186
  178MOL0     O24474   5.984   3.384   4.226 -0.4717 -0.4723  0.0705
  178MOL0     C24475   5.780   3.121   4.226 -0.3479 -0.3630  0.0456
  178MOL0     C24476   5.705   3.038   4.147  0.0376 -0.3615  0.3466
  178MOL0     N24477   5.735   2.680   4.212 -0.4235 -0.7831  0.7943
  178MOL0     N24478   5.790   2.657   4.328 -0.3761 -0.0595  0.9815
  178MOL0     C24479   5.788   2.096   4.074  0.5015 -0.0609 -0.1120
  178MOL0     C24480   5.715   2.165   3.978 -0.2348  0.6378 -0.4392
  178MOL0     C24481   5.435   2.367   3.696  0.1733  0.0207 -1.3238
  178MOL0     C24482   5.322   2.434   3.741  0.7821 -0.5996  0.1244
  178MOL0     C24483   5.265   2.536   3.663  0.0040 -0.6881  0.3223
  178MOL0     C24484   5.304   2.550   3.527 -0.0348 -1.4534 -0.4691
  178MOL0     O24485   5.248   2.637   3.438 -0.8733 -0.2938  0.5113
  178MOL0     C24486   5.313   2.759   3.414 -0.4608 -0.0488 -0.3961
  178MOL0     C24487   5.246   2.842   3.301 -0.3143  0.3684  0.9668
  178MOL0     C24488   5.226   2.745   3.181  0.7124 -0.4392 -0.3429
  178MOL0     C24489   5.229   2.815   3.047 -0.9632 -0.3470 -0.4425
  178MOL0     C24490   5.205   2.724   2.944 -0.2176  0.2634  1.8981
  178MOL0     C24491   5.178   2.645   2.850 -0.0952 -0.8144 -0.2545
  178MOL0     C24492   5.411   2.475   3.478  0.0562 -0.7787 -1.1140
  178MOL0     C24493   5.482   2.398   3.562 -0.2893 -0.2587 -0.4089
  178MOL0     C24494   5.606   2.356   3.490 -0.2107  0.3710 -0.7651
  178MOL0     H24495   5.433   2.227   4.166  1.5965  5.7259  1.5163
  178MOL0     H24496   5.542   2.088   4.317 -4.8754  0.4812 -2.4059
  178MOL0     H24497   5.972   1.980   4.195 -0.5629 -1.0846 -1.2898
  178MOL0     H24498   5.909   1.827   4.263  3.2169 -0.8143  0.4140
  178MOL0     H24499   5.974   1.880   4.491 -0.2969  1.0015 -0.9639
  178MOL0     H24500   6.086   1.866   4.358 -0.1841  0.6547 -3.0102
  178MOL0     H24501   5.996   2.157   4.470  0.6953  0.7023 -0.9658
  178MOL0     H24502   6.106   2.055   4.563  0.5448  0.5816  0.3725
  178MOL0     H24503   6.244   2.038   4.357 -1.2415 -0.5469  0.0790
  178MOL0     H24504   6.130   2.144   4.283  1.9732  0.4571 -0.4943
  178MOL0     H24505   6.295   2.298   4.318  0.1083  0.4868  0.1228
  178MOL0     H24506   6.316   2.246   4.490 -3.1069  1.3540  2.2017
  178MOL0     H24507   6.082   2.317   4.543 -2.0955 -0.1922 -1.2733
  178MOL0     H24508   6.205   2.443   4.516 -2.1233  1.2794  2.5519
  178MOL0     H24509   6.037   2.369   4.282 -1.2598 -2.2315  1.9846
  178MOL0     H24510   6.128   2.522   4.329 -0.0864 -0.0613  0.8719
  178MOL0     H24511   5.889   2.419   4.488 -1.2633 -0.8198 -0.6739
  178MOL0     H24512   5.964   2.587   4.483  0.6490 -1.1279  0.1886
  178MOL0     H24513   5.835   2.369   4.173 -0.0902  1.0434 -3.1172
  178MOL0     H24514   5.647   2.459   3.989 -0.3482 -0.4314 -0.6762
  178MOL0     H24515   5.796   2.520   3.928  2.0851  3.3428  0.6634
  178MOL0     H24516   5.594   2.644   3.841 -0.1426  0.6909 -0.3044
  178MOL0     H24517   5.559   2.714   3.993 -1.0465 -1.6718  0.5827
  178MOL0     H24518   5.806   2.801   4.000  0.1675  2.5828 -0.8109
  178MOL0     H24519   5.811   2.735   3.835  0.0962 -2.7098  0.8651
  178MOL0     H24520   5.762   2.981   3.826 -1.2685  0.9708  0.0664
  178MOL0     H24521   5.635   2.884   3.758 -1.3809 -3.2240  1.1507
  178MOL0     H24522   5.656   3.199   3.860 -1.0776  1.0707  0.8384
  178MOL0     H24523   5.749   3.421   3.871  0.3144 -0.5549  0.3828
  178MOL0     H24524   5.896   3.433   3.972  0.4331  2.3417  0.9841
  178MOL0     H24525   5.749   3.503   4.030  2.2626 -0.8828  1.9369
  178MOL0     H24526   5.700   3.481   4.568 -0.7013  1.5277  0.6296
  178MOL0     H24527   5.766   3.697   4.691  2.2368  1.2798  0.2695
  178MOL0     H24528   5.718   3.917   4.702  0.0811 -0.3165  0.9143
  178MOL0     H24529   5.865   3.872   4.803 -1.2591  0.8096  1.3705
  178MOL0     H24530   5.958   4.101   4.727  0.1908  2.9030  0.9802
  178MOL0     H24531   5.791   4.125   4.683 -1.8969 -2.2261 -0.5135
  178MOL0     H24532   5.926   4.059   4.940  0.5147  0.0221 -1.4120
  178MOL0     H24533   5.748   4.052   4.942 -1.1610  3.5307  0.2392
  178MOL0     H24534   5.747   4.287   4.858  2.4425  1.5096 -2.1750
  178MOL0     H24535   5.916   4.297   4.879  0.2269 -0.3120  0.3964
  178MOL0     H24536   5.714   4.217   5.095  3.1340 -5.0079  2.6926
  178MOL0     H24537   5.894   4.219   5.116  0.9748 -2.7040 -2.9174
  178MOL0     H24538   5.722   4.470   5.052  0.2691  3.4808  1.5891
  178MOL0     H24539   5.896   4.465   5.089  1.7377 -1.6881  0.2294
  178MOL0     H24540   5.725   4.314   5.293 -0.2514 -0.7296 -1.3039
  178MOL0     H24541   5.691   4.488   5.299  2.6683  0.6976  3.3950
  178MOL0     H24542   5.974   4.382   5.317  1.5784  2.7358  0.7383
  178MOL0     H24543   5.864   4.426   5.447  0.2356  0.4886  0.1973
  178MOL0     H24544   5.939   3.852   4.335  2.4118 -2.7798 -3.1258
  178MOL0     H24545   5.904   3.642   4.223  0.2246 -0.9155  0.8008
  178MOL0     H24546   5.824   3.084   4.318  0.1663  0.7136  0.2506
  178MOL0     H24547   5.679   2.939   4.181 -1.8455 -0.5990 -1.6028
  178MOL0     H24548   5.892   2.092   4.043  0.4657 -0.2662 -0.2055
  178MOL0     H24549   5.761   2.188   3.883  0.2205  1.0068 -0.1284
  178MOL0     H24550   5.288   2.424   3.843 -1.2485  3.6255  0.0915
  178MOL0     H24551   5.173   2.579   3.701  0.6584 -1.5369  3.1553
  178MOL0     H24552   5.285   2.817   3.503 -2.2476  1.3008 -1.7623
  178MOL0     H24553   5.421   2.750   3.399 -0.3673 -0.6270  0.5478
  178MOL0     H24554   5.313   2.922   3.270 -1.8264  0.7837 -1.5310
  178MOL0     H24555   5.154   2.892   3.334  0.4997  2.1479  0.6390
  178MOL0     H24556   5.318   2.687   3.186  2.4614  2.1814 -0.2444
  178MOL0     H24557   5.133   2.690   3.202  0.0873  0.8193  0.3455
  178MOL0     H24558   5.327   2.860   3.027  0.4766 -1.9881  2.3730
  178MOL0     H24559   5.154   2.894   3.048  0.3479  1.0025  2.4921
  178MOL0     H24560   5.141   2.588   2.766 -0.9470 -0.1104 -0.3725
  178MOL0     H24561   5.446   2.503   3.379 -1.0176  0.9572 -1.0369
  178MOL0     H24562   5.614   2.249   3.468  2.4884  0.7491 -1.9551
  178MOL0     H24563   5.625   2.405   3.394 -1.6506  2.6879  0.0457
  178MOL0     H24564   5.690   2.395   3.547 -0.8713  0.6758  0.0306
  179MOL0     O24565   7.697   6.633   1.573 -0.5004 -0.1221 -0.4818
  179MOL0     C24566   7.681   6.683   1.682 -0.2346 -1.1646  0.0562
  179MOL0     O24567   7.570   6.766   1.732  0.3423  0.6954  0.3242
  179MOL0     C24568   7.471   6.786   1.640 -0.0869 -0.2881 -0.4360
  179MOL0     C24569   7.333   6.789   1.680 -0.1326 -0.2631  0.6609
  179MOL0     C24570   7.239   6.830   1.588 -0.3529  0.1862  0.2522
  179MOL0     C24571   7.279   6.883   1.463  0.5310 -0.2404 -0.2179
  179MOL0     O24572   7.184   6.931   1.376  0.4314  0.9216 -0.4774
  179MOL0     C24573   7.221   6.944   1.237  0.0686 -0.2410 -0.3547
  179MOL0     C24574   7.086   6.979   1.174 -1.6580 -0.3897  0.1428
  179MOL0     C24575   7.110   7.087   1.059  0.6277  0.7980  0.0306
  179MOL0     C24576   7.174   7.229   1.090 -0.1794  0.0555 -1.3202
  179MOL0     C24577   7.092   7.332   1.014  0.5656  0.0076  0.5873
  179MOL0     C24578   7.117   7.476   1.064 -0.7161 -0.0035 -0.1409
  179MOL0     C24579   7.037   7.573   0.978 -0.2792 -0.5216 -0.3433
  179MOL0     C24580   7.074   7.716   1.035 -0.9890 -0.5842  0.8218
  179MOL0     N24581   7.191   7.790   0.987 -0.2335  0.0793 -0.1469
  179MOL0     C24582   7.266   7.757   0.876  0.6150  1.2964 -0.1519
  179MOL0     C24583   7.364   7.852   0.871  0.8411  0.8622 -0.7253
  179MOL0     C24584   7.464   7.858   0.759  0.2819  1.0604  0.7253
  179MOL0     C24585   7.402   7.875   0.617  0.6091 -0.5326 -0.5697
  179MOL0     C24586   7.277   7.964   0.610 -0.0715  0.4775 -0.8197
  179MOL0     C24587   7.249   8.008   0.469 -0.3892 -0.2877  0.3783
  179MOL0     O24588   7.267   7.888   0.383  0.2333 -0.0004  0.5382
  179MOL0     C24589   7.158   7.867   0.301 -0.3160  0.5383 -1.0039
  179MOL0     C24590   7.152   7.930   0.178  0.9103  0.0335 -0.9476
  179MOL0     C24591   7.033   7.930   0.099 -0.0965 -0.9139 -0.4213
  179MOL0     C24592   7.042   8.008  -0.040 -0.2253 -0.7052 -0.9812
  179MOL0     C24593   6.919   7.853   0.141  0.2971  0.4383 -0.2289
  179MOL0     C24594   6.790   7.832   0.059 -0.4025 -0.7383 -0.3920
  179MOL0     O24595   6.676   7.793   0.129  0.0699  0.1218 -0.0969
  179MOL0     C24596   6.570   7.738   0.054  0.3822  0.8400  0.1058
  179MOL0     C24597   6.516   7.798  -0.056 -0.7083 -0.1576 -0.3904
  179MOL0     C24598   6.401   7.757  -0.123  0.0410 -0.7204  0.2532
  179MOL0     C24599   6.343   7.637  -0.088 -0.5161  0.2641  0.5350
  179MOL0     O24600   6.238   7.571  -0.146 -0.1433 -0.2105  0.0771
  179MOL0     C24601   6.198   7.618  -0.280 -0.7488  0.4713  0.8072
  179MOL0     C24602   6.064   7.570  -0.318 -0.9314 -0.2533 -0.8151
  179MOL0     C24603   5.951   7.628  -0.235 -0.3414 -1.1615 -0.3985
  179MOL0     C24604   5.927   7.772  -0.259 -0.1608 -0.4679 -0.0649
  179MOL0     C24605   5.780   7.811  -0.215  0.1595 -0.7667 -0.0910
  179MOL0     C24606   5.753   7.968  -0.233 -0.3403  0.6505 -0.3129
  179MOL0     C24607   5.627   8.013  -0.156  0.1427 -0.4546 -0.5852
  179MOL0     C24608   5.572   8.140  -0.227 -1.2751  1.2533  0.2286
  179MOL0    Cl24609   5.462   8.227  -0.127  0.2626  0.5032  0.2242
  179MOL0     C24610   6.404   7.568   0.016  0.0865  0.5696 -0.6280
  179MOL0     C24611   6.510   7.618   0.091 -0.0747  0.0882 -1.1671
  179MOL0     O24612   6.794   7.838  -0.063  0.0411 -0.4725 -0.6354
  179MOL0     C24613   6.929   7.790   0.275 -0.0972  0.4484 -0.8137
  179MOL0     C24614   7.052   7.794   0.347 -0.2640  0.4567  0.8849
  179MOL0     N24615   7.355   7.942   0.973  0.7353  0.2110  0.7098
  179MOL0     N24616   7.254   7.900   1.044 -0.7087 -0.0501  0.1440
  179MOL0     C24617   7.407   6.877   1.424 -0.3694  0.1034 -0.3671
  179MOL0     C24618   7.507   6.828   1.507  0.0226 -0.4892  0.2094
  179MOL0     C24619   7.793   6.657   1.780  1.1282  0.1719  0.0177
  179MOL0     C24620   7.837   6.755   1.872  0.2375  0.2044  0.1924
  179MOL0     C24621   7.933   6.723   1.970 -1.2319  1.2983 -0.0212
  179MOL0     C24622   7.988   6.593   1.979 -0.1995 -0.1272  0.3221
  179MOL0     O24623   8.085   6.557   2.076  0.2265  0.0648  0.2655
  179MOL0     C24624   8.055   6.601   2.209 -0.1337 -1.0639 -0.6671
  179MOL0     C24625   8.167   6.552   2.298 -0.7670  0.0773 -0.6425
  179MOL0     C24626   8.306   6.615   2.262 -0.4486  0.1266  0.3119
  179MOL0     C24627   8.396   6.506   2.209 -0.6643 -0.5649  0.1165
  179MOL0     C24628   8.422   6.394   2.299  0.1725  0.0050 -0.1939
  179MOL0     C24629   8.450   6.297   2.377  0.7653  0.4375  0.3251
  179MOL0     C24630   7.953   6.510   1.874  0.3617 -1.0328  0.6762
  179MOL0     C24631   7.851   6.527   1.787 -0.0949  0.5235  0.8602
  179MOL0     C24632   7.818   6.401   1.698 -0.1849 -0.1329  0.6490
  179MOL0     H24633   7.315   6.751   1.779 -3.1261  0.6809  0.5720
  179MOL0     H24634   7.135   6.830   1.616 -0.1836 -1.4320  1.0055
  179MOL0     H24635   7.257   6.846   1.206  2.1627  0.0733  0.9105
  179MOL0     H24636   7.294   7.025   1.226 -0.6059  0.4986  0.4122
  179MOL0     H24637   7.048   6.887   1.129 -3.9069 -0.6597  2.3405
  179MOL0     H24638   7.015   7.015   1.250 -0.9307  1.0159  0.2015
  179MOL0     H24639   7.170   7.041   0.980  0.1419  0.1075  0.0571
  179MOL0     H24640   7.012   7.104   1.013  0.1846 -0.8197  0.3358
  179MOL0     H24641   7.168   7.250   1.197 -0.7497  1.1221 -1.5468
  179MOL0     H24642   7.282   7.243   1.078  0.5280 -1.5270  2.0441
  179MOL0     H24643   6.987   7.315   1.039  0.3519  1.5179  0.8308
  179MOL0     H24644   7.114   7.318   0.907  0.5035  1.4740  0.3588
  179MOL0     H24645   7.081   7.478   1.167  0.0030 -3.3548  0.3184
  179MOL0     H24646   7.224   7.491   1.052 -0.3804  0.7346  2.8709
  179MOL0     H24647   6.935   7.539   0.997  0.3082 -2.4482 -0.4513
  179MOL0     H24648   7.065   7.573   0.872 -0.9653 -0.5054 -0.5293
  179MOL0     H24649   6.986   7.778   1.018 -0.0279  1.1184  1.7834
  179MOL0     H24650   7.090   7.713   1.143 -0.0698 -1.5105  0.6750
  179MOL0     H24651   7.249   7.676   0.806 -1.9693 -0.2909  2.1272
  179MOL0     H24652   7.539   7.779   0.753 -2.0590 -1.2604  0.4685
  179MOL0     H24653   7.527   7.945   0.783 -1.1842  1.4873  3.3589
  179MOL0     H24654   7.480   7.920   0.555 -1.9745  2.0827 -2.1817
  179MOL0     H24655   7.376   7.780   0.569  0.7134  0.5447 -2.8742
  179MOL0     H24656   7.198   7.899   0.648  0.1460 -0.0720 -1.2789
  179MOL0     H24657   7.281   8.053   0.673  0.5333 -0.1211  0.0069
  179MOL0     H24658   7.159   8.065   0.446 -1.0974 -1.4176  0.2761
  179MOL0     H24659   7.332   8.070   0.433  1.4128 -3.0889 -0.6116
  179MOL0     H24660   7.240   7.987   0.151  1.4286 -1.6299 -2.9755
  179MOL0     H24661   6.971   8.090  -0.054 -0.4849 -0.0106  3.0695
  179MOL0     H24662   7.016   7.932  -0.114  0.1804 -1.2703 -0.5626
  179MOL0     H24663   7.147   8.039  -0.045  0.2851 -1.9893  0.6326
  179MOL0     H24664   6.570   7.888  -0.083 -2.8160  0.7597 -1.8138
  179MOL0     H24665   6.364   7.808  -0.211  0.5728  0.2967  0.5917
  179MOL0     H24666   6.178   7.725  -0.273 -0.8753  0.5966 -1.1139
  179MOL0     H24667   6.273   7.599  -0.357 -1.3265  2.1575 -0.2332
  179MOL0     H24668   6.053   7.600  -0.422  0.3344 -1.0245 -1.1905
  179MOL0     H24669   6.055   7.461  -0.316 -2.1780 -0.1519  0.4441
  179MOL0     H24670   5.964   7.607  -0.129 -4.3827 -1.1690  0.2576
  179MOL0     H24671   5.858   7.580  -0.267 -1.1887  0.2061 -0.0409
  179MOL0     H24672   5.942   7.794  -0.365 -1.4851  3.3203  0.3644
  179MOL0     H24673   6.000   7.828  -0.200 -0.3755  2.4745 -2.3572
  179MOL0     H24674   5.706   7.758  -0.276 -1.0186 -0.9385  1.4397
  179MOL0     H24675   5.776   7.797  -0.107 -0.3903  0.1766  0.0191
  179MOL0     H24676   5.737   7.994  -0.338 -1.8619  2.9236  0.4100
  179MOL0     H24677   5.839   8.030  -0.207  0.2246 -0.3849  0.3537
  179MOL0     H24678   5.654   8.034  -0.052 -1.6087  0.5965 -0.2852
  179MOL0     H24679   5.553   7.933  -0.169 -1.3359  0.8635 -0.5871
  179MOL0     H24680   5.526   8.116  -0.324 -0.1134 -0.0519 -0.0295
  179MOL0     H24681   5.658   8.206  -0.240  2.5007 -3.1235  0.5637
  179MOL0     H24682   6.376   7.471   0.056  1.5448  0.9689  1.5474
  179MOL0     H24683   6.550   7.586   0.186  1.0750  1.2948 -1.2156
  179MOL0     H24684   6.852   7.723   0.311 -0.3077  1.7494  1.3531
  179MOL0     H24685   7.065   7.736   0.437  1.8579 -0.2404  0.1891
  179MOL0     H24686   7.447   6.910   1.329 -1.5202 -1.0632 -1.2949
  179MOL0     H24687   7.610   6.828   1.471  0.3917 -0.2698  1.2211
  179MOL0     H24688   7.816   6.861   1.865  1.9852  0.5543 -0.5519
  179MOL0     H24689   7.965   6.796   2.043 -0.2651 -0.5019  1.4284
  179MOL0     H24690   8.057   6.711   2.201 -3.0710 -1.0212 -2.0224
  179MOL0     H24691   7.966   6.559   2.256  1.5083 -0.7658  3.0924
  179MOL0     H24692   8.163   6.443   2.299 -3.4807  0.1052 -0.8430
  179MOL0     H24693   8.139   6.570   2.402 -0.9257 -0.4103 -0.5989
  179MOL0     H24694   8.295   6.698   2.191 -1.6725  0.7441  1.1980
  179MOL0     H24695   8.359   6.655   2.348  0.9054  1.9684 -1.2948
  179MOL0     H24696   8.488   6.552   2.174  0.0743 -1.4069  0.9116
  179MOL0     H24697   8.356   6.468   2.114 -2.2926  2.1337 -0.3804
  179MOL0     H24698   8.453   6.217   2.448 -1.1774  1.7583  2.0038
  179MOL0     H24699   7.994   6.409   1.877 -0.0607 -1.2728 -0.8209
  179MOL0     H24700   7.856   6.423   1.598 -1.6653  0.3692  0.1602
  179MOL0     H24701   7.862   6.307   1.732  2.6418  0.1555 -1.8584
  179MOL0     H24702   7.709   6.393   1.694 -0.2187 -0.1809  1.3685
  180MOL0     O24703   9.447   5.907   0.792 -0.3872 -0.1083 -0.0555
  180MOL0     C24704   9.466   5.980   0.885  0.5627 -0.9181 -1.1197
  180MOL0     O24705   9.378   6.081   0.924 -0.5288 -0.1495 -0.3843
  180MOL0     C24706   9.275   6.107   0.842  0.4777 -0.2203  0.1585
  180MOL0     C24707   9.290   6.139   0.702  0.4405 -0.5120 -0.2173
  180MOL0     C24708   9.172   6.171   0.621 -0.0893  0.0367 -0.0359
  180MOL0     C24709   9.049   6.170   0.685  0.3491 -0.0284 -0.3362
  180MOL0     O24710   8.934   6.187   0.608 -0.4508 -0.3959 -0.0669
  180MOL0     C24711   8.806   6.131   0.653  0.5722 -0.6999  0.1173
  180MOL0     C24712   8.718   6.238   0.721  0.9311  0.0939 -0.1398
  180MOL0     C24713   8.574   6.179   0.736  0.2314  0.1512 -0.1169
  180MOL0     C24714   8.483   6.197   0.611 -0.0382  0.3613  0.2565
  180MOL0     C24715   8.367   6.100   0.603  0.4391 -1.5096  0.8336
  180MOL0     C24716   8.265   6.107   0.721  0.5388  0.9119  0.0849
  180MOL0     C24717   8.110   6.065   0.679 -0.4348  0.5887  0.6723
  180MOL0     C24718   8.008   6.098   0.788 -0.3603 -0.3706  0.9230
  180MOL0     N24719   7.872   6.128   0.742 -0.2847  0.4132 -0.2341
  180MOL0     C24720   7.832   6.180   0.624 -0.3691  0.3697  0.7637
  180MOL0     C24721   7.695   6.188   0.633  0.4591  0.9634 -0.0439
  180MOL0     C24722   7.605   6.236   0.525 -1.2199 -0.4895 -0.0535
  180MOL0     C24723   7.527   6.116   0.476  0.2201 -0.2277  0.1034
  180MOL0     C24724   7.615   6.041   0.366 -0.1808 -0.3740  0.3510
  180MOL0     C24725   7.519   6.035   0.243 -0.2429  0.2759  1.2426
  180MOL0     O24726   7.470   6.166   0.208 -0.2177 -0.3726  0.4979
  180MOL0     C24727   7.567   6.240   0.139  0.2565  0.4926 -0.0997
  180MOL0     C24728   7.561   6.375   0.161 -0.3226  0.4058 -0.2506
  180MOL0     C24729   7.632   6.467   0.076 -0.4821  0.4998 -0.4472
  180MOL0     C24730   7.597   6.606   0.111 -0.0761 -0.7637  0.9046
  180MOL0     C24731   7.722   6.419  -0.018 -0.7847  0.7068  0.1352
  180MOL0     C24732   7.803   6.516  -0.102  0.5776  1.1402  0.1498
  180MOL0     O24733   7.780   6.651  -0.113  0.4545  0.1752  0.3031
  180MOL0     C24734   7.850   6.716  -0.211  0.8726 -0.5072  0.6859
  180MOL0     C24735   7.809   6.696  -0.348 -0.6718 -0.2287 -1.6421
  180MOL0     C24736   7.886   6.771  -0.438 -0.3186 -0.1020 -0.2134
  180MOL0     C24737   7.989   6.863  -0.414 -0.2584  0.4645 -0.2974
  180MOL0     O24738   8.054   6.921  -0.515  0.0554 -0.2081  0.3518
  180MOL0     C24739   8.183   6.990  -0.490  1.1575  0.0404 -0.2643
  180MOL0     C24740   8.219   7.126  -0.574 -0.1950 -0.5785  0.0384
  180MOL0     C24741   8.247   7.109  -0.723 -0.1965  0.6985  0.5488
  180MOL0     C24742   8.240   7.251  -0.784  0.5512 -0.1636 -0.8887
  180MOL0     C24743   8.291   7.253  -0.924 -0.9842  1.4321  0.1487
  180MOL0     C24744   8.292   7.393  -0.961 -0.1348  0.3657 -0.2290
  180MOL0     C24745   8.343   7.420  -1.101 -0.1271  0.4897  0.0942
  180MOL0     C24746   8.259   7.532  -1.161 -0.5722 -0.4550  0.8669
  180MOL0    Cl24747   8.307   7.569  -1.331  0.0972  0.0272 -0.0605
  180MOL0     C24748   8.017   6.882  -0.274 -0.4954  0.5866 -1.0622
  180MOL0     C24749   7.942   6.809  -0.177  0.6718  0.3336 -0.5507
  180MOL0     O24750   7.893   6.462  -0.176  0.2880  0.5888  1.1782
  180MOL0     C24751   7.733   6.286  -0.038  0.3427 -0.1620  0.7470
  180MOL0     C24752   7.650   6.196   0.035 -0.5639 -0.2615 -0.2347
  180MOL0     N24753   7.654   6.162   0.762 -0.3248 -0.2457  0.3530
  180MOL0     N24754   7.768   6.144   0.824  0.2878  0.1818 -0.7908
  180MOL0     C24755   9.039   6.146   0.824  0.2102  0.0263 -1.0797
  180MOL0     C24756   9.151   6.117   0.899  0.0708 -1.1542  0.3730
  180MOL0     C24757   9.599   5.959   0.959  0.9327 -0.3512  0.5806
  180MOL0     C24758   9.605   5.947   1.095  0.8796  0.6781 -0.2614
  180MOL0     C24759   9.721   5.955   1.167 -0.8741  0.2984  0.1786
  180MOL0     C24760   9.842   5.971   1.107 -0.3536  0.5655 -0.5774
  180MOL0     O24761   9.957   5.975   1.183 -0.3792  0.4737 -0.0001
  180MOL0     C24762   9.934   5.952   1.326 -0.1348 -0.6813 -0.3891
  180MOL0     C24763  10.066   5.968   1.406 -0.6415  0.5950 -0.8431
  180MOL0     C24764  10.048   5.931   1.556  0.6866  0.0583  0.4033
  180MOL0     C24765  10.178   5.957   1.642  0.1374  1.2752 -0.1777
  180MOL0     C24766  10.294   5.875   1.591 -0.1534 -0.4268  0.3805
  180MOL0     C24767  10.384   5.821   1.538  0.2965 -0.1071  0.3686
  180MOL0     C24768   9.843   5.974   0.966 -0.0229 -0.3208  0.1302
  180MOL0     C24769   9.727   5.959   0.888 -0.1643 -0.8057  0.2707
  180MOL0     C24770   9.737   5.965   0.742  0.0303 -0.0131  1.0218
  180MOL0     H24771   9.385   6.125   0.651  0.0929 -0.2314 -0.9613
  180MOL0     H24772   9.185   6.188   0.515  1.7638  1.1094  0.3244
  180MOL0     H24773   8.816   6.040   0.712 -0.1268 -1.4669 -0.8995
  180MOL0     H24774   8.755   6.099   0.561  3.5137  1.6927 -2.5905
  180MOL0     H24775   8.764   6.259   0.818 -0.6395 -0.0819  0.6634
  180MOL0     H24776   8.707   6.330   0.663  0.9178  1.8573  2.5232
  180MOL0     H24777   8.587   6.073   0.758 -1.0371 -0.0173 -0.1158
  180MOL0     H24778   8.536   6.228   0.826  2.4884  0.6691  0.6146
  180MOL0     H24779   8.434   6.295   0.607  0.0587  0.5140  2.1015
  180MOL0     H24780   8.541   6.190   0.518 -3.5552  1.6116 -2.2764
  180MOL0     H24781   8.412   6.002   0.592 -1.3516 -2.2813 -0.0852
  180MOL0     H24782   8.320   6.118   0.506 -0.2780 -1.0494  1.2490
  180MOL0     H24783   8.286   6.046   0.810  0.3280  0.5586 -0.1064
  180MOL0     H24784   8.260   6.207   0.765  0.6592 -0.6589  4.0696
  180MOL0     H24785   8.106   5.959   0.654  0.3451  0.9412 -1.0541
  180MOL0     H24786   8.077   6.111   0.585  1.0347  2.4428  0.9928
  180MOL0     H24787   7.983   6.004   0.838 -4.2451 -1.5580 -2.6474
  180MOL0     H24788   8.044   6.177   0.854 -1.0329  3.3102 -2.6775
  180MOL0     H24789   7.873   6.213   0.530 -1.9365  0.3104  0.0154
  180MOL0     H24790   7.664   6.271   0.440  0.1886 -0.3164  0.9537
  180MOL0     H24791   7.527   6.305   0.558 -1.3990 -1.0486  0.7407
  180MOL0     H24792   7.502   6.048   0.558 -2.1996  2.1078  1.4928
  180MOL0     H24793   7.430   6.150   0.439  0.1386 -2.0789 -1.5487
  180MOL0     H24794   7.702   6.097   0.331 -1.0335  0.0033 -1.2419
  180MOL0     H24795   7.650   5.941   0.392  2.0475  0.9758  2.9981
  180MOL0     H24796   7.589   5.989   0.172  1.7156  1.2593  2.4266
  180MOL0     H24797   7.432   5.970   0.254 -0.3951 -0.5008 -2.8616
  180MOL0     H24798   7.494   6.408   0.239 -1.3123 -2.6138  0.2883
  180MOL0     H24799   7.518   6.616   0.186  0.8636 -2.4090  2.1797
  180MOL0     H24800   7.573   6.661   0.019  2.1853  0.6600  1.0834
  180MOL0     H24801   7.678   6.668   0.152 -0.1582  1.2917 -1.7495
  180MOL0     H24802   7.734   6.624  -0.380 -2.2637 -0.3029  1.8561
  180MOL0     H24803   7.859   6.770  -0.544  1.0293 -1.6636 -0.5885
  180MOL0     H24804   8.189   7.027  -0.387  1.6877  3.4312 -1.4120
  180MOL0     H24805   8.267   6.922  -0.506  0.9901 -0.6332  1.4304
  180MOL0     H24806   8.138   7.198  -0.558  0.7447  0.4095  0.4640
  180MOL0     H24807   8.306   7.173  -0.528 -1.3859 -1.3507  3.4326
  180MOL0     H24808   8.172   7.049  -0.775 -0.5785  0.9135  0.8456
  180MOL0     H24809   8.347   7.069  -0.741 -0.6090  0.0215 -0.3157
  180MOL0     H24810   8.291   7.318  -0.715 -1.6811  0.3980  0.3191
  180MOL0     H24811   8.133   7.275  -0.787 -0.4516 -3.8121  0.9405
  180MOL0     H24812   8.396   7.224  -0.923 -1.0403  1.2413  1.0680
  180MOL0     H24813   8.239   7.196  -1.001  0.2255  2.4155 -1.4720
  180MOL0     H24814   8.339   7.459  -0.888 -1.5384 -0.8639  1.9051
  180MOL0     H24815   8.193   7.440  -0.954 -0.7483 -0.5620 -1.9332
  180MOL0     H24816   8.314   7.336  -1.165 -1.4633  1.7312 -0.9985
  180MOL0     H24817   8.450   7.438  -1.096 -0.2499  0.9331  2.6014
  180MOL0     H24818   8.254   7.630  -1.112 -2.1782  0.3260 -0.7114
  180MOL0     H24819   8.155   7.500  -1.155  0.0814 -2.5806  1.7176
  180MOL0     H24820   8.080   6.965  -0.242  1.1733  0.2353 -3.1915
  180MOL0     H24821   7.948   6.822  -0.070 -4.0709 -4.9137  0.8393
  180MOL0     H24822   7.796   6.238  -0.112  0.4137 -1.4424  1.6094
  180MOL0     H24823   7.653   6.093   0.002 -3.1118 -0.3825 -0.2974
  180MOL0     H24824   8.947   6.163   0.879  1.3286 -1.5524  1.4647
  180MOL0     H24825   9.146   6.095   1.006  2.8512  1.1157  1.0818
  180MOL0     H24826   9.512   5.930   1.147 -0.5714  0.8361 -2.6729
  180MOL0     H24827   9.693   5.936   1.270 -1.4036 -4.5235 -0.6277
  180MOL0     H24828   9.873   6.039   1.350 -1.0296 -0.9464 -1.5946
  180MOL0     H24829   9.877   5.861   1.345  1.2535 -1.1889  1.5763
  180MOL0     H24830  10.113   6.067   1.409 -0.4179  0.5067 -1.2880
  180MOL0     H24831  10.129   5.889   1.363 -3.1054 -0.7636 -2.1898
  180MOL0     H24832   9.958   5.988   1.582  0.3922 -0.8370  1.3941
  180MOL0     H24833  10.034   5.823   1.562  0.6998  0.0372  0.1116
  180MOL0     H24834  10.151   5.940   1.746 -1.6620  0.1571 -0.7750
  180MOL0     H24835  10.213   6.060   1.640  0.4092  1.4051  3.8236
  180MOL0     H24836  10.469   5.776   1.490 -0.3913 -0.3804 -0.6118
  180MOL0     H24837   9.944   5.987   0.930  1.2132  0.4653  3.4555
  180MOL0     H24838   9.834   6.007   0.714 -0.8017  1.2953 -0.0409
  180MOL0     H24839   9.746   5.859   0.716  0.6831  0.5079 -1.0728
  180MOL0     H24840   9.656   6.017   0.689  0.5491  0.4349  0.6630
  181MOL0     O24841   4.682   4.556   5.349 -0.3403 -0.0604  1.0403
  181MOL0     C24842   4.671   4.500   5.455 -0.1506  0.6820 -0.0290
  181MOL0     O24843   4.775   4.425   5.516  0.6069  0.6360 -0.0785
  181MOL0     C24844   4.879   4.390   5.436 -0.3310 -1.9307  0.6722
  181MOL0     C24845   4.882   4.277   5.357  0.4189  1.3757 -1.0253
  181MOL0     C24846   4.982   4.258   5.254  0.1036 -1.2988 -0.8143
  181MOL0     C24847   5.071   4.361   5.228  0.1098 -0.0533 -0.2178
  181MOL0     O24848   5.150   4.339   5.120 -0.2564  0.0325  0.1091
  181MOL0     C24849   5.253   4.442   5.099  0.4986  0.9799  1.6068
  181MOL0     C24850   5.342   4.405   4.981  1.1183  0.2846 -1.1985
  181MOL0     C24851   5.249   4.365   4.868 -0.8267 -0.2791  0.1882
  181MOL0     C24852   5.260   4.205   4.856  0.0125 -0.3887  0.3473
  181MOL0     C24853   5.166   4.166   4.751 -0.5409 -0.1443  0.1552
  181MOL0     C24854   5.234   4.181   4.609  0.4838 -0.4603  0.2625
  181MOL0     C24855   5.147   4.106   4.501 -0.0870  1.1070 -0.0152
  181MOL0     C24856   5.014   4.193   4.485  0.3894  0.0994  0.7205
  181MOL0     N24857   4.956   4.145   4.358  0.3615  0.1840  0.6564
  181MOL0     C24858   4.859   4.046   4.359  0.8290 -0.3681  0.4684
  181MOL0     C24859   4.835   4.022   4.226 -0.8397 -0.4506  1.4784
  181MOL0     C24860   4.746   3.930   4.141 -0.3354 -0.7283 -0.7509
  181MOL0     C24861   4.609   3.956   4.182 -0.1600  0.3057  0.1486
  181MOL0     C24862   4.515   3.897   4.087  0.5074 -0.0261 -0.7042
  181MOL0     C24863   4.547   3.798   3.982  0.0439  0.0994 -0.0524
  181MOL0     O24864   4.421   3.745   3.943  0.7977  0.3683 -0.1649
  181MOL0     C24865   4.419   3.608   3.911  0.1060  0.6534 -0.3418
  181MOL0     C24866   4.297   3.543   3.945 -0.3397 -0.4251 -1.0942
  181MOL0     C24867   4.287   3.401   3.924  0.6905  0.1272 -0.3838
  181MOL0     C24868   4.153   3.338   3.940 -0.2777  0.0528 -0.8360
  181MOL0     C24869   4.394   3.329   3.869  1.2012  0.1894 -0.0358
  181MOL0     C24870   4.368   3.189   3.816  0.2469  0.9510  0.5739
  181MOL0     O24871   4.308   3.102   3.905  0.7926  0.0046  0.7237
  181MOL0     C24872   4.268   2.975   3.855 -0.7248  0.2918  1.0742
  181MOL0     C24873   4.139   2.948   3.812 -0.2696  0.6915 -0.1678
  181MOL0     C24874   4.105   2.811   3.777 -0.0908  0.7345 -0.2571
  181MOL0     C24875   4.208   2.717   3.784 -0.0364 -0.4968  0.1095
  181MOL0     O24876   4.180   2.595   3.735 -0.3286  0.4700 -0.0145
  181MOL0     C24877   4.277   2.488   3.760  0.5147  0.0963  0.6410
  181MOL0     C24878   4.226   2.365   3.707  0.2326 -0.3698  0.3895
  181MOL0     C24879   4.328   2.259   3.687 -0.9263 -1.2879 -0.8319
  181MOL0     C24880   4.273   2.129   3.635  0.4558 -0.1964  0.0198
  181MOL0     C24881   4.195   2.055   3.743 -0.2227  0.5952 -0.9029
  181MOL0     C24882   4.147   1.921   3.691 -0.2791 -0.3463  0.8064
  181MOL0     C24883   4.040   1.869   3.781 -0.5969  0.9254 -1.3591
  181MOL0     C24884   3.897   1.938   3.772  0.7356  0.4451 -0.2207
  181MOL0    Cl24885   3.775   1.835   3.842 -0.0795  0.2511 -0.0788
  181MOL0     C24886   4.337   2.747   3.840 -0.9780 -0.0724 -0.2337
  181MOL0     C24887   4.370   2.875   3.872 -0.3491 -0.6423  0.4787
  181MOL0     O24888   4.419   3.156   3.705  0.5163  0.0861 -0.0356
  181MOL0     C24889   4.511   3.389   3.837  0.6164 -0.2635  0.0934
  181MOL0     C24890   4.526   3.531   3.865 -0.7993  0.0420 -0.0842
  181MOL0     N24891   4.919   4.101   4.146 -0.2984 -0.1433 -0.4300
  181MOL0     N24892   4.985   4.181   4.228 -0.3758  0.8043 -0.6176
  181MOL0     C24893   5.067   4.477   5.306  0.7906 -0.2346  0.1172
  181MOL0     C24894   4.977   4.490   5.411  0.7566  0.2845 -0.3774
  181MOL0     C24895   4.541   4.518   5.530 -0.0185  0.1787  0.2318
  181MOL0     C24896   4.545   4.487   5.670  0.9973 -0.9774 -0.1971
  181MOL0     C24897   4.432   4.501   5.753  0.0850  0.2212  0.5095
  181MOL0     C24898   4.305   4.541   5.691 -0.6533  0.3878 -1.0447
  181MOL0     O24899   4.191   4.553   5.774 -0.1604  1.0572 -0.1581
  181MOL0     C24900   4.179   4.472   5.889  0.2286 -0.9287 -0.0803
  181MOL0     C24901   4.032   4.473   5.926  0.6121  0.0298  0.4305
  181MOL0     C24902   3.980   4.344   5.997  0.0972 -0.7368  0.7222
  181MOL0     C24903   3.831   4.350   6.045  1.0025 -0.2824 -0.6347
  181MOL0     C24904   3.752   4.340   5.927  0.4469  0.4452 -0.9718
  181MOL0     C24905   3.683   4.345   5.829 -0.0625  0.7796  0.5037
  181MOL0     C24906   4.310   4.574   5.558  0.2388 -1.4105 -0.5637
  181MOL0     C24907   4.418   4.555   5.474  0.1166 -0.3116  0.2469
  181MOL0     C24908   4.378   4.557   5.328 -0.1573  0.0943  0.4867
  181MOL0     H24909   4.804   4.204   5.371  2.3779 -0.4033  1.6051
  181MOL0     H24910   4.981   4.175   5.184 -2.6478 -2.4387  0.4384
  181MOL0     H24911   5.309   4.467   5.189  1.6589  2.3033  0.5458
  181MOL0     H24912   5.203   4.535   5.072 -1.0876 -1.0350 -3.7305
  181MOL0     H24913   5.412   4.485   4.957 -0.6876  3.3510  2.6936
  181MOL0     H24914   5.414   4.326   5.005  1.1530  0.4123 -0.8821
  181MOL0     H24915   5.146   4.399   4.879 -1.9468 -3.6719  1.5568
  181MOL0     H24916   5.294   4.414   4.781 -0.2797  3.2786  2.2789
  181MOL0     H24917   5.365   4.182   4.834  1.5089  2.4012  3.4864
  181MOL0     H24918   5.236   4.153   4.949 -0.7028 -0.5561  0.0680
  181MOL0     H24919   5.080   4.233   4.743  0.1125  0.4633 -3.8671
  181MOL0     H24920   5.127   4.064   4.759  0.7742 -0.8249 -1.4817
  181MOL0     H24921   5.239   4.287   4.584  2.4144 -0.7371 -0.7088
  181MOL0     H24922   5.338   4.149   4.621  1.0765  1.9152  2.2433
  181MOL0     H24923   5.130   4.003   4.533  0.5766  0.7842 -0.6648
  181MOL0     H24924   5.190   4.115   4.401 -0.3718 -0.7014 -0.3307
  181MOL0     H24925   4.945   4.189   4.570 -3.1779  1.1259 -1.9024
  181MOL0     H24926   5.045   4.297   4.476  3.8157 -0.9799 -2.5242
  181MOL0     H24927   4.802   3.999   4.438  0.5706 -0.5037  0.2029
  181MOL0     H24928   4.780   3.829   4.164  2.2366 -0.2189 -2.0249
  181MOL0     H24929   4.748   3.946   4.033 -1.9378 -2.1830 -1.0509
  181MOL0     H24930   4.601   3.909   4.280 -3.3826  1.1215  0.3858
  181MOL0     H24931   4.578   4.061   4.187  0.5837  0.4774  1.7125
  181MOL0     H24932   4.438   3.844   4.144  0.6218 -2.7961 -2.9261
  181MOL0     H24933   4.462   3.977   4.034 -0.2346  2.1835  2.9848
  181MOL0     H24934   4.600   3.844   3.898  2.8905 -2.4570  0.1689
  181MOL0     H24935   4.614   3.727   4.030  0.7195  0.2110 -0.7989
  181MOL0     H24936   4.209   3.597   3.979  0.8888 -0.0447  1.8232
  181MOL0     H24937   4.126   3.292   3.844  0.2910 -1.0687 -0.4705
  181MOL0     H24938   4.073   3.410   3.958 -0.5160 -0.2560 -0.6344
  181MOL0     H24939   4.161   3.274   4.028 -0.1131  2.3513  0.9014
  181MOL0     H24940   4.064   3.027   3.817 -1.0939  0.1958 -2.7563
  181MOL0     H24941   4.003   2.780   3.756 -1.2748  1.7731  3.3134
  181MOL0     H24942   4.368   2.506   3.703 -2.2716 -0.0954 -4.4253
  181MOL0     H24943   4.291   2.464   3.866 -2.3238  1.1986  1.3447
  181MOL0     H24944   4.149   2.327   3.775 -1.3720  2.8652  0.5446
  181MOL0     H24945   4.177   2.383   3.611 -1.5633  1.7407  1.6181
  181MOL0     H24946   4.374   2.244   3.785 -1.2262  1.8869 -0.0923
  181MOL0     H24947   4.410   2.297   3.627  1.0025 -0.2263  2.2623
  181MOL0     H24948   4.357   2.068   3.600 -1.3624 -1.3976 -2.4988
  181MOL0     H24949   4.207   2.149   3.550  2.4591 -0.0152 -1.5560
  181MOL0     H24950   4.249   2.041   3.837 -1.7626  1.0141  0.0847
  181MOL0     H24951   4.108   2.116   3.767 -0.6475 -1.1143  2.3492
  181MOL0     H24952   4.231   1.852   3.679 -0.4674 -0.1937 -2.1106
  181MOL0     H24953   4.109   1.935   3.589  2.4761 -1.1237 -0.4128
  181MOL0     H24954   4.067   1.865   3.887 -1.7283  0.7809 -1.0669
  181MOL0     H24955   4.019   1.767   3.748  3.4707 -0.9191  1.0155
  181MOL0     H24956   3.863   1.951   3.670 -0.5189  1.8449  0.3413
  181MOL0     H24957   3.911   2.040   3.811  1.8684  0.9792 -1.9001
  181MOL0     H24958   4.416   2.673   3.835 -2.0021 -1.1455 -0.8905
  181MOL0     H24959   4.471   2.893   3.906 -0.4533 -0.7812  0.8661
  181MOL0     H24960   4.599   3.339   3.801  3.1903  3.9238 -0.0914
  181MOL0     H24961   4.614   3.580   3.824 -2.0522  1.3996 -1.2870
  181MOL0     H24962   5.117   4.572   5.290 -0.2128  0.6475  1.8406
  181MOL0     H24963   4.984   4.585   5.463 -0.1488 -0.4960  1.2607
  181MOL0     H24964   4.635   4.470   5.729  0.9886  0.6348  0.3359
  181MOL0     H24965   4.437   4.473   5.858 -1.0308  1.8006  1.0225
  181MOL0     H24966   4.214   4.371   5.868  2.5565  0.1081 -1.6158
  181MOL0     H24967   4.229   4.520   5.973 -0.3943 -0.1938 -0.1194
  181MOL0     H24968   3.970   4.479   5.836 -2.2488 -1.6239  2.1673
  181MOL0     H24969   4.014   4.563   5.985  2.1739  0.8383 -0.2590
  181MOL0     H24970   3.999   4.250   5.945 -3.0482 -0.8586 -0.4234
  181MOL0     H24971   4.047   4.333   6.082  0.9184  0.3404  0.2334
  181MOL0     H24972   3.806   4.436   6.109 -0.3477 -1.5608  0.6266
  181MOL0     H24973   3.812   4.265   6.111 -2.2550  0.7071 -0.1224
  181MOL0     H24974   3.618   4.353   5.744 -1.2767 -2.3458  0.9921
  181MOL0     H24975   4.224   4.628   5.519  1.1300  0.7075  0.2988
  181MOL0     H24976   4.451   4.502   5.267 -1.3060  0.7529 -1.5734
  181MOL0     H24977   4.285   4.504   5.307 -0.3380  0.5281  0.1812
  181MOL0     H24978   4.370   4.662   5.299 -1.6311  0.7400  2.9684
  182MOL0     O24979  10.647   9.969   6.604 -0.3522  0.2914 -0.5392
  182MOL0     C24980  10.770   9.955   6.591  0.2807 -0.1313  0.5362
  182MOL0     O24981  10.834   9.832   6.595  0.3176 -0.1205 -0.0697
  182MOL0     C24982  10.757   9.730   6.658  0.4348 -0.5379 -0.4085
  182MOL0     C24983  10.659   9.752   6.767  0.1377 -0.1627  0.2776
  182MOL0     C24984  10.585   9.647   6.815  0.8135  0.1292 -0.9271
  182MOL0     C24985  10.588   9.519   6.759 -0.3414 -0.5288 -0.4742
  182MOL0     O24986  10.516   9.431   6.834 -0.4740  0.3156  0.4515
  182MOL0     C24987  10.522   9.290   6.805 -0.0850 -0.2077  0.2035
  182MOL0     C24988  10.445   9.214   6.919 -0.0649 -0.1179  0.6996
  182MOL0     C24989  10.527   9.186   7.043 -0.5671  0.3748 -0.7053
  182MOL0     C24990  10.629   9.061   7.022 -0.6020  0.0733 -0.7494
  182MOL0     C24991  10.693   9.004   7.155  0.0091  0.6238 -0.6628
  182MOL0     C24992  10.795   9.084   7.225 -0.2551 -0.1692 -0.2362
  182MOL0     C24993  10.841   9.018   7.360 -0.9462 -0.0684 -0.6080
  182MOL0     C24994  10.920   8.886   7.349 -0.3247 -0.2639 -0.6782
  182MOL0     N24995  11.006   8.847   7.465 -0.6069 -0.2847  0.0670
  182MOL0     C24996  10.960   8.783   7.576  0.2660  0.3903  0.5506
  182MOL0     C24997  11.066   8.790   7.662 -0.6762 -0.6050  0.4456
  182MOL0     C24998  11.077   8.733   7.795 -0.5887 -0.0418  0.0650
  182MOL0     C24999  10.948   8.784   7.874  0.8817  0.6994  1.1951
  182MOL0     C25000  10.970   8.760   8.020  0.0470  0.1177 -0.3760
  182MOL0     C25001  10.879   8.839   8.113 -0.0296  1.0704  0.0179
  182MOL0     O25002  10.751   8.780   8.102  0.2652 -0.4147 -0.3231
  182MOL0     C25003  10.650   8.829   8.178  0.2231 -0.2805  0.4204
  182MOL0     C25004  10.602   8.952   8.150 -0.2934 -0.1158  0.4095
  182MOL0     C25005  10.486   8.996   8.208 -0.2906  0.3850  0.4660
  182MOL0     C25006  10.436   9.133   8.170 -0.8499  0.5879 -0.0380
  182MOL0     C25007  10.415   8.916   8.300 -0.2021 -0.3507  0.1196
  182MOL0     C25008  10.288   8.956   8.363 -0.1189  0.3662 -0.3861
  182MOL0     O25009  10.254   8.877   8.474 -0.2180 -0.5475 -0.3773
  182MOL0     C25010  10.135   8.908   8.545 -1.0523 -0.0620 -0.1128
  182MOL0     C25011  10.067   8.800   8.586  0.7238 -0.0817 -0.4174
  182MOL0     C25012   9.963   8.818   8.687 -0.6793  0.1980 -0.1469
  182MOL0     C25013   9.944   8.949   8.734  0.5075 -0.4117 -0.1927
  182MOL0     O25014   9.858   8.981   8.832 -0.8609  0.3483 -0.0267
  182MOL0     C25015   9.731   8.921   8.833 -0.7762  1.3813  0.1774
  182MOL0     C25016   9.701   8.867   8.975  0.2729  0.0325 -0.0654
  182MOL0     C25017   9.789   8.759   9.047 -0.4572  0.7833  0.6181
  182MOL0     C25018   9.734   8.733   9.187  0.2847 -0.4748  0.0400
  182MOL0     C25019   9.829   8.645   9.262  0.5665 -0.1025  0.4093
  182MOL0     C25020   9.775   8.620   9.401  0.1718 -0.5518  0.2209
  182MOL0     C25021   9.632   8.568   9.417  0.0381 -0.1278  0.7862
  182MOL0     C25022   9.596   8.448   9.342 -0.3015 -0.2755  0.5673
  182MOL0    Cl25023   9.440   8.387   9.406  0.0828 -0.1814 -0.2968
  182MOL0     C25024  10.014   9.056   8.677 -0.0590  0.5444  0.6436
  182MOL0     C25025  10.103   9.047   8.580  0.4235 -0.0184  0.4990
  182MOL0     O25026  10.218   9.047   8.320  0.0949 -0.5231 -0.7749
  182MOL0     C25027  10.478   8.793   8.336  0.0137  0.1028 -0.2644
  182MOL0     C25028  10.593   8.748   8.270 -0.6465  0.2676 -0.0965
  182MOL0     N25029  11.177   8.847   7.600 -0.9743  0.1190 -1.2371
  182MOL0     N25030  11.139   8.898   7.481 -0.6032  0.4187  0.4397
  182MOL0     C25031  10.670   9.496   6.656 -0.4778 -0.2172 -0.4594
  182MOL0     C25032  10.753   9.598   6.601  0.0748 -0.5601  0.0967
  182MOL0     C25033  10.854  10.077   6.572 -0.2073 -0.1560  0.4019
  182MOL0     C25034  10.975  10.072   6.644 -0.2339 -0.6705  1.2647
  182MOL0     C25035  11.065  10.177   6.640 -0.2412  0.7996  0.0507
  182MOL0     C25036  11.036  10.291   6.566  0.2384 -0.1462  1.1578
  182MOL0     O25037  11.107  10.403   6.574 -0.2305 -0.3991  0.4273
  182MOL0     C25038  11.229  10.404   6.654  0.4011  0.2642  0.0658
  182MOL0     C25039  11.303  10.536   6.621  0.0820 -0.3756  0.0534
  182MOL0     C25040  11.431  10.538   6.703 -0.6645 -0.1466  0.2380
  182MOL0     C25041  11.542  10.602   6.624  0.3302 -0.8257 -0.8705
  182MOL0     C25042  11.518  10.747   6.610  0.4431  0.3110  0.0512
  182MOL0     C25043  11.503  10.865   6.584  0.2114 -0.5240 -0.3856
  182MOL0     C25044  10.911  10.292   6.496  0.3254 -0.5306  0.8556
  182MOL0     C25045  10.820  10.190   6.495 -0.3660  0.1719  0.8025
  182MOL0     C25046  10.681  10.195   6.433 -0.7707  1.2959  0.0209
  182MOL0     H25047  10.657   9.848   6.818 -3.3215 -0.5153  0.9952
  182MOL0     H25048  10.520   9.651   6.902  0.2233 -1.5021 -1.2617
  182MOL0     H25049  10.619   9.242   6.787 -1.3278 -2.1049 -1.9299
  182MOL0     H25050  10.470   9.286   6.709  0.1273 -0.9652  0.1114
  182MOL0     H25051  10.346   9.250   6.948 -0.0158 -0.0729  0.8110
  182MOL0     H25052  10.429   9.113   6.879 -0.3135  0.0381  0.4126
  182MOL0     H25053  10.588   9.274   7.065 -1.3194  0.8270 -0.4301
  182MOL0     H25054  10.451   9.176   7.121 -0.5256  1.4593 -0.5153
  182MOL0     H25055  10.561   8.985   6.982 -0.0768 -2.4815  2.7470
  182MOL0     H25056  10.704   9.094   6.950 -2.4375 -0.0092 -2.8326
  182MOL0     H25057  10.741   8.908   7.131  0.0922  0.3047  0.6937
  182MOL0     H25058  10.607   8.990   7.221  0.6860  3.5904  1.0176
  182MOL0     H25059  10.881   9.097   7.157 -0.8243 -0.1777 -0.9653
  182MOL0     H25060  10.755   9.182   7.254 -2.4077 -0.2776 -2.5964
  182MOL0     H25061  10.745   8.994   7.408  0.6193 -0.0704  2.8292
  182MOL0     H25062  10.895   9.091   7.420 -0.6996 -1.2432  0.6418
  182MOL0     H25063  10.848   8.804   7.341 -0.4824 -0.3489  1.2241
  182MOL0     H25064  10.981   8.891   7.259 -1.1643  0.9561 -1.1967
  182MOL0     H25065  10.864   8.734   7.588  0.8374 -1.4002 -1.4703
  182MOL0     H25066  11.168   8.767   7.845  1.0554 -1.0435 -2.0874
  182MOL0     H25067  11.074   8.624   7.789 -2.9300 -0.2147  2.4415
  182MOL0     H25068  10.925   8.885   7.841  0.1684 -0.3037 -1.6733
  182MOL0     H25069  10.862   8.724   7.844  0.1726  1.9253  0.7291
  182MOL0     H25070  10.954   8.653   8.036 -1.5997  0.2535 -0.9730
  182MOL0     H25071  11.074   8.785   8.045  1.0005 -0.1243 -3.6346
  182MOL0     H25072  10.916   8.824   8.215 -2.1208  1.5407  0.8915
  182MOL0     H25073  10.890   8.948   8.102 -0.7720  1.1723  0.2160
  182MOL0     H25074  10.648   9.023   8.083  0.2693 -0.4541  0.4313
  182MOL0     H25075  10.429   9.194   8.261 -0.0992  1.2476 -0.4122
  182MOL0     H25076  10.344   9.120   8.113 -0.3522 -2.1073 -0.3829
  182MOL0     H25077  10.498   9.193   8.103  0.1233 -1.7292 -1.3483
  182MOL0     H25078  10.080   8.698   8.553 -1.4169 -0.2742 -0.8279
  182MOL0     H25079   9.915   8.733   8.735 -3.0110  0.3626 -1.9791
  182MOL0     H25080   9.667   9.002   8.796  1.3201  2.1445 -2.0173
  182MOL0     H25081   9.715   8.840   8.762 -1.8504 -1.3664  3.2879
  182MOL0     H25082   9.707   8.945   9.051  1.3032 -1.0001  0.9506
  182MOL0     H25083   9.598   8.833   8.958  1.2387 -1.6454 -3.4630
  182MOL0     H25084   9.896   8.782   9.045 -0.3582  0.4109  1.3337
  182MOL0     H25085   9.782   8.664   8.994  1.2681  0.4589  0.8995
  182MOL0     H25086   9.644   8.672   9.171  1.6323 -2.6262  0.3601
  182MOL0     H25087   9.708   8.826   9.240  1.7199 -1.2452  2.2323
  182MOL0     H25088   9.822   8.546   9.218 -0.6028 -0.3876  1.1939
  182MOL0     H25089   9.929   8.689   9.275 -0.4281  3.0816 -1.4427
  182MOL0     H25090   9.780   8.719   9.447  1.9097  0.1380 -1.3282
  182MOL0     H25091   9.840   8.544   9.444  1.9998 -0.5174 -2.2678
  182MOL0     H25092   9.563   8.650   9.395 -0.9303  0.0091  3.8773
  182MOL0     H25093   9.626   8.537   9.522 -0.5943 -2.6275  0.0751
  182MOL0     H25094   9.680   8.379   9.326  0.7290  0.2541  3.1888
  182MOL0     H25095   9.564   8.474   9.241 -0.1074  1.5095  0.9464
  182MOL0     H25096   9.991   9.151   8.726 -1.6034 -0.5315  2.1109
  182MOL0     H25097  10.149   9.140   8.547 -3.3683  2.5922  1.9072
  182MOL0     H25098  10.422   8.725   8.398 -1.4907  0.6704 -0.9630
  182MOL0     H25099  10.651   8.658   8.286  2.9474  2.5435  0.7917
  182MOL0     H25100  10.671   9.398   6.610  0.5935 -1.5025  2.0980
  182MOL0     H25101  10.818   9.581   6.516  2.7864 -0.1635  1.9526
  182MOL0     H25102  11.008   9.988   6.705  1.0939  1.0059  2.9771
  182MOL0     H25103  11.152  10.149   6.700 -0.0965 -1.0196 -0.9672
  182MOL0     H25104  11.205  10.403   6.761 -0.7061  0.1655 -0.1760
  182MOL0     H25105  11.290  10.317   6.629  0.5308 -0.2161  1.8872
  182MOL0     H25106  11.244  10.623   6.648 -0.1457  0.2406 -2.1774
  182MOL0     H25107  11.322  10.536   6.513 -1.3923  0.3973 -0.2203
  182MOL0     H25108  11.417  10.595   6.795 -0.5312  1.8944 -0.9611
  182MOL0     H25109  11.473  10.443   6.739 -0.5592  0.3974  1.5990
  182MOL0     H25110  11.558  10.552   6.528 -2.6519 -3.5384 -0.1438
  182MOL0     H25111  11.641  10.604   6.670 -0.4631  0.2323  0.9237
  182MOL0     H25112  11.485  10.970   6.576 -0.4631 -0.3399  2.4376
  182MOL0     H25113  10.882  10.381   6.441 -1.2237 -2.4824 -1.7003
  182MOL0     H25114  10.632  10.104   6.394  0.4172 -0.4776  2.4180
  182MOL0     H25115  10.614  10.225   6.514 -1.0761 -2.6161  1.4681
  182MOL0     H25116  10.687  10.266   6.350  0.5275  1.9615  0.6591
  183MOL0     O25117   3.030  10.424  10.418  0.1153 -0.1563 -0.1773
  183MOL0     C25118   3.019  10.536  10.468  0.8825  0.4900  0.0656
  183MOL0     O25119   3.058  10.579  10.595  0.0512 -0.2142  0.8195
  183MOL0     C25120   3.091  10.488  10.681  0.3004  0.2852 -0.4464
  183MOL0     C25121   3.205  10.412  10.665 -0.9759  0.6776 -0.3382
  183MOL0     C25122   3.234  10.305  10.742 -0.0431  0.1085  0.3548
  183MOL0     C25123   3.142  10.270  10.841 -0.6121 -0.0805  0.3434
  183MOL0     O25124   3.164  10.174  10.926  0.2781  0.4478  0.1192
  183MOL0     C25125   3.217  10.050  10.873  0.6307 -0.5944 -0.3004
  183MOL0     C25126   3.215   9.967  10.992 -0.4726  0.8686  0.4286
  183MOL0     C25127   3.111   9.847  10.985 -0.3181  0.0951 -1.2840
  183MOL0     C25128   3.065   9.788  11.124 -0.5978 -0.5743  0.3940
  183MOL0     C25129   2.948   9.864  11.186 -0.2491 -1.2968  0.8899
  183MOL0     C25130   2.927   9.844  11.336 -0.2509  0.4567  0.4357
  183MOL0     C25131   2.820   9.943  11.391 -0.1593  0.2238  0.1312
  183MOL0     C25132   2.881  10.058  11.465  0.1928 -0.0948 -0.9899
  183MOL0     N25133   2.992  10.131  11.400  0.4199  1.2453  0.0355
  183MOL0     C25134   2.984  10.241  11.314  0.5013 -0.3661 -0.4275
  183MOL0     C25135   3.117  10.269  11.294 -0.0248 -0.1345  0.6862
  183MOL0     C25136   3.182  10.374  11.207 -0.8993 -1.1176  0.5703
  183MOL0     C25137   3.245  10.497  11.274 -0.3265  0.4410  0.3757
  183MOL0     C25138   3.137  10.585  11.345  0.5716 -0.6560 -0.2111
  183MOL0     C25139   3.099  10.538  11.485 -0.3337 -0.3458  0.2414
  183MOL0     O25140   2.980  10.609  11.536  0.8046  0.0160  0.2774
  183MOL0     C25141   2.868  10.532  11.564  0.3749 -1.0205 -0.8720
  183MOL0     C25142   2.875  10.426  11.649  0.3039  0.5727 -0.7358
  183MOL0     C25143   2.755  10.350  11.679 -0.0162 -0.5979  0.1778
  183MOL0     C25144   2.762  10.233  11.780  0.0154  1.3648 -0.0592
  183MOL0     C25145   2.636  10.361  11.597 -0.9596 -0.2411  0.4925
  183MOL0     C25146   2.520  10.264  11.589 -1.3108  0.0929  0.2698
  183MOL0     O25147   2.395  10.301  11.627  0.6016  0.6163 -0.4699
  183MOL0     C25148   2.296  10.209  11.620 -0.2921  0.0296 -0.2394
  183MOL0     C25149   2.268  10.122  11.730 -0.0841 -0.7288  0.6097
  183MOL0     C25150   2.149  10.054  11.741 -1.2533  0.1575 -0.6625
  183MOL0     C25151   2.062  10.052  11.634 -0.3909  0.5104  0.0774
  183MOL0     O25152   1.947   9.982  11.651  0.2134  0.2409 -0.5924
  183MOL0     C25153   1.955   9.843  11.660  0.3444 -0.2661  0.4373
  183MOL0     C25154   1.880   9.777  11.543  0.7961  0.0588 -0.4382
  183MOL0     C25155   1.912   9.625  11.520 -0.3717 -0.2707 -0.1596
  183MOL0     C25156   2.033   9.599  11.441 -0.0933 -0.2095  0.4780
  183MOL0     C25157   2.048   9.450  11.398 -0.2158  0.0865  0.3854
  183MOL0     C25158   2.167   9.443  11.303  0.2621  0.4641 -0.4611
  183MOL0     C25159   2.116   9.483  11.161 -0.7513 -0.3643 -0.1969
  183MOL0     C25160   2.209   9.432  11.050 -1.1472 -0.2488 -0.1116
  183MOL0    Cl25161   2.166   9.517  10.911  0.4069  0.0604 -0.2793
  183MOL0     C25162   2.089  10.136  11.521  0.4463  0.0123  0.9370
  183MOL0     C25163   2.199  10.221  11.515 -0.7977 -1.2136  0.9226
  183MOL0     O25164   2.554  10.158  11.535 -0.4195  0.3731  0.1368
  183MOL0     C25165   2.634  10.481  11.513  0.0632 -0.4702 -0.6261
  183MOL0     C25166   2.755  10.551  11.492  0.0715 -0.0941 -0.2632
  183MOL0     N25167   3.200  10.184  11.369 -0.2917  0.3107  0.6799
  183MOL0     N25168   3.126  10.101  11.416  0.1450 -0.4380  0.9459
  183MOL0     C25169   3.033  10.350  10.858  0.0568  0.2454  0.1116
  183MOL0     C25170   2.997  10.453  10.775 -0.6033 -0.9022 -0.0793
  183MOL0     C25171   2.975  10.640  10.366  0.5715 -0.4838 -0.7029
  183MOL0     C25172   3.014  10.769  10.392  0.7009 -0.7406  0.3136
  183MOL0     C25173   2.969  10.878  10.315  0.2475 -0.4622 -0.5792
  183MOL0     C25174   2.891  10.858  10.198  0.5988 -0.4906 -0.6527
  183MOL0     O25175   2.851  10.965  10.123  0.4771 -0.1676  0.0292
  183MOL0     C25176   2.892  11.100  10.156  0.1899  0.1703  0.2871
  183MOL0     C25177   2.851  11.204  10.048 -0.1921 -0.3171 -0.7318
  183MOL0     C25178   2.698  11.225  10.049 -0.4544 -0.3238 -0.2239
  183MOL0     C25179   2.621  11.238  10.182  0.1901 -0.3438  0.2096
  183MOL0     C25180   2.481  11.279  10.156  0.3971  0.0041  0.5600
  183MOL0     C25181   2.359  11.299  10.161 -0.1138  0.5004  1.5089
  183MOL0     C25182   2.861  10.732  10.167  0.9298  0.2083 -0.7211
  183MOL0     C25183   2.888  10.618  10.253  0.2461  0.4669  0.4272
  183MOL0     C25184   2.818  10.489  10.226 -0.1853 -0.0731 -0.2870
  183MOL0     H25185   3.269  10.453  10.586 -0.4256 -0.6852 -0.6231
  183MOL0     H25186   3.324  10.248  10.723 -1.0664 -1.4908  0.1044
  183MOL0     H25187   3.318  10.066  10.833  0.0824 -0.9553 -1.9272
  183MOL0     H25188   3.161  10.006  10.789  1.9906 -1.1731 -0.9403
  183MOL0     H25189   3.314   9.922  11.001 -1.8502 -2.6051 -0.1897
  183MOL0     H25190   3.196  10.022  11.085 -0.9981  1.7674 -0.1930
  183MOL0     H25191   3.013   9.860  10.939 -0.9866 -0.2316  0.0046
  183MOL0     H25192   3.159   9.769  10.925  0.0345  0.5770 -1.6423
  183MOL0     H25193   3.028   9.688  11.097  2.2493 -2.0428  1.4927
  183MOL0     H25194   3.155   9.780  11.186  0.9868  1.1127 -1.5539
  183MOL0     H25195   2.853   9.839  11.137  2.8538 -2.0575 -5.8480
  183MOL0     H25196   2.968   9.969  11.161 -2.1779 -1.2997 -0.9686
  183MOL0     H25197   2.888   9.744  11.353  0.2958  0.0700 -0.5061
  183MOL0     H25198   3.026   9.852  11.383 -0.3704 -0.8402  0.9478
  183MOL0     H25199   2.757   9.885  11.460  0.4885 -1.6708 -0.8163
  183MOL0     H25200   2.764   9.985  11.307  1.5226 -2.7036 -2.6386
  183MOL0     H25201   2.788  10.114  11.478 -1.5897 -2.3479 -2.9769
  183MOL0     H25202   2.919  10.009  11.555  2.0159 -3.5856 -3.4016
  183MOL0     H25203   2.901  10.295  11.269  2.9048  3.1522 -1.0792
  183MOL0     H25204   3.106  10.404  11.135  1.4282 -0.0586 -1.5870
  183MOL0     H25205   3.264  10.316  11.164 -0.4037  0.0525 -0.1019
  183MOL0     H25206   3.326  10.473  11.343  0.5412 -0.2268 -0.8465
  183MOL0     H25207   3.287  10.557  11.193 -1.6986  3.3446  1.6645
  183MOL0     H25208   3.178  10.686  11.353  2.1156 -1.2298 -0.6262
  183MOL0     H25209   3.044  10.605  11.290  0.9991  3.1040  0.2111
  183MOL0     H25210   3.079  10.431  11.479  1.3569 -0.8249  2.3559
  183MOL0     H25211   3.185  10.545  11.551  1.4439 -3.5956 -1.4907
  183MOL0     H25212   2.969  10.412  11.703 -0.5813 -0.9777  0.5001
  183MOL0     H25213   2.844  10.231  11.852  0.7126 -1.1227 -0.8306
  183MOL0     H25214   2.776  10.132  11.740 -2.3986  1.0385 -0.2575
  183MOL0     H25215   2.672  10.233  11.842  1.1927 -1.6180  1.8921
  183MOL0     H25216   2.330  10.123  11.820 -2.7583  3.6173  2.7403
  183MOL0     H25217   2.138   9.996  11.833 -0.7045 -0.3283 -0.8932
  183MOL0     H25218   2.060   9.814  11.660  0.7400  1.0590 -0.0005
  183MOL0     H25219   1.912   9.803  11.752 -1.4215  0.8371  0.1540
  183MOL0     H25220   1.772   9.784  11.562  1.0641 -1.0246  1.8328
  183MOL0     H25221   1.906   9.831  11.452  0.8081 -2.2943 -1.9044
  183MOL0     H25222   1.827   9.595  11.459 -1.2446 -1.5544  1.5845
  183MOL0     H25223   1.912   9.566  11.613 -0.4837 -0.3665 -0.2198
  183MOL0     H25224   2.121   9.624  11.501 -0.0665 -0.9718  0.7674
  183MOL0     H25225   2.026   9.662  11.352  0.5138 -1.0064 -0.1364
  183MOL0     H25226   2.081   9.400  11.489  1.8627 -0.3665 -0.5674
  183MOL0     H25227   1.952   9.411  11.363 -1.3545  0.6161  2.7238
  183MOL0     H25228   2.194   9.337  11.299 -1.7821 -0.0997 -0.2983
  183MOL0     H25229   2.256   9.502  11.329  0.2641 -0.1070  0.9155
  183MOL0     H25230   2.101   9.591  11.147  1.2925 -0.2813 -2.4651
  183MOL0     H25231   2.016   9.445  11.141 -0.5831 -1.1731  0.4667
  183MOL0     H25232   2.212   9.323  11.047 -1.7978 -0.3312  1.4081
  183MOL0     H25233   2.306   9.470  11.084 -1.7392  2.3236 -1.0559
  183MOL0     H25234   2.022  10.149  11.436  0.5031  0.2993  0.9323
  183MOL0     H25235   2.207  10.298  11.438 -3.1464  0.6402  2.3900
  183MOL0     H25236   2.542  10.505  11.460 -1.4062  0.7889  2.2647
  183MOL0     H25237   2.745  10.635  11.424 -1.3178  1.4765  1.7514
  183MOL0     H25238   2.967  10.326  10.941 -1.3636 -0.7199 -1.2348
  183MOL0     H25239   2.908  10.516  10.778  0.1198  0.6503 -4.2564
  183MOL0     H25240   3.083  10.802  10.469  0.3058  3.1905 -0.7563
  183MOL0     H25241   3.003  10.975  10.350  1.2022 -0.8917 -0.2680
  183MOL0     H25242   2.868  11.119  10.261 -1.2282  0.9677 -0.1515
  183MOL0     H25243   3.001  11.111  10.153  0.2582 -0.6793 -0.9834
  183MOL0     H25244   2.891  11.170   9.952 -1.0467 -2.4087 -0.4073
  183MOL0     H25245   2.901  11.299  10.070 -0.2151 -0.3664 -0.4592
  183MOL0     H25246   2.688  11.324  10.004 -2.8695  0.5777  1.9927
  183MOL0     H25247   2.650  11.152   9.984  1.1465 -1.5114 -0.1395
  183MOL0     H25248   2.667  11.315  10.244  5.4187 -0.0958 -3.3262
  183MOL0     H25249   2.622  11.140  10.231  4.4437 -0.9351 -0.6544
  183MOL0     H25250   2.252  11.292  10.160  0.0136 -2.5722 -0.0683
  183MOL0     H25251   2.800  10.720  10.078  1.7145  0.0231 -1.2390
  183MOL0     H25252   2.890  10.427  10.172 -2.2802 -2.2187 -0.8115
  183MOL0     H25253   2.786  10.446  10.322  1.6692 -1.0048 -0.0448
  183MOL0     H25254   2.734  10.493  10.156 -0.3672  2.7712 -0.0258
  184MOL0     O25255  10.100   5.843  10.915 -0.0573 -1.1858 -0.3577
  184MOL0     C25256  10.216   5.883  10.918 -0.0840 -0.0259 -1.0253
  184MOL0     O25257  10.309   5.876  10.813  0.0223 -0.2611  0.3333
  184MOL0     C25258  10.259   5.816  10.700  0.2095 -0.4036 -0.2178
  184MOL0     C25259  10.294   5.691  10.664 -0.9107 -0.0184  0.5388
  184MOL0     C25260  10.268   5.658  10.538 -0.0616 -0.2046  0.0257
  184MOL0     C25261  10.195   5.730  10.449  0.0413  0.6372 -0.3047
  184MOL0     O25262  10.169   5.666  10.332  0.1911  0.1280 -0.7281
  184MOL0     C25263  10.052   5.681  10.269  0.6485  0.4103  1.5712
  184MOL0     C25264  10.060   5.589  10.139 -0.5611 -0.3445 -0.4429
  184MOL0     C25265  10.082   5.441  10.165 -0.1631 -0.3147 -0.4895
  184MOL0     C25266  10.054   5.352  10.044  0.0868  0.1516  0.2174
  184MOL0     C25267  10.088   5.200  10.066 -0.5272 -0.7734  0.2009
  184MOL0     C25268  10.238   5.162  10.064 -0.2428 -0.4010  0.0096
  184MOL0     C25269  10.252   5.002  10.088 -0.1903 -0.9088  0.5502
  184MOL0     C25270  10.367   4.944  10.015 -1.1663  0.4566  0.5854
  184MOL0     N25271  10.493   5.016  10.038  0.7492  1.3770 -0.0405
  184MOL0     C25272  10.577   4.964  10.138 -0.2640 -1.0390 -0.1556
  184MOL0     C25273  10.689   5.043  10.113 -0.3114  0.3038 -0.2175
  184MOL0     C25274  10.826   5.013  10.166 -0.7491  0.6558 -0.2406
  184MOL0     C25275  10.914   5.134  10.190  0.2067 -0.7048  0.2548
  184MOL0     C25276  11.015   5.111  10.298 -0.6302 -0.4049 -0.9506
  184MOL0     C25277  11.118   5.003  10.271 -0.1431 -0.1376 -0.1072
  184MOL0     O25278  11.246   5.064  10.273 -0.4674  0.0907  0.2153
  184MOL0     C25279  11.365   4.990  10.248  0.3464 -0.7555 -0.3599
  184MOL0     C25280  11.493   5.042  10.288 -0.0368 -0.8240 -0.2385
  184MOL0     C25281  11.616   4.970  10.276 -0.3407  0.0044  0.0134
  184MOL0     C25282  11.742   5.032  10.335  0.0605  0.3682  0.1232
  184MOL0     C25283  11.606   4.842  10.204 -0.7397 -0.0526  0.5919
  184MOL0     C25284  11.734   4.762  10.164  0.2255  0.4228  0.6725
  184MOL0     O25285  11.698   4.650  10.104 -0.6567  0.2756 -0.4289
  184MOL0     C25286  11.780   4.592  10.014  0.4836  0.1281  0.3409
  184MOL0     C25287  11.717   4.568   9.898 -0.3012  0.2468 -0.6465
  184MOL0     C25288  11.779   4.506   9.795 -0.1264 -0.5605 -0.4643
  184MOL0     C25289  11.912   4.472   9.809  1.5048 -0.0908  0.2467
  184MOL0     O25290  11.954   4.426   9.685 -0.2882  1.0675  0.4715
  184MOL0     C25291  12.096   4.416   9.678 -0.3844  0.5602 -0.3249
  184MOL0     C25292  12.138   4.354   9.545  1.2482  0.0910 -0.3010
  184MOL0     C25293  12.089   4.202   9.549 -0.4759  0.2239 -0.2856
  184MOL0     C25294  12.016   4.157   9.421 -0.7669 -0.2479 -0.8302
  184MOL0     C25295  11.984   4.001   9.428 -0.5003 -0.2654 -0.2775
  184MOL0     C25296  12.106   3.903   9.406 -0.2075 -0.7033 -0.8717
  184MOL0     C25297  12.191   3.920   9.269 -0.1501 -0.8790 -0.4985
  184MOL0     C25298  12.313   3.832   9.285 -0.2503  0.5121  0.3908
  184MOL0    Cl25299  12.272   3.669   9.352  0.6801 -0.1704  0.2349
  184MOL0     C25300  11.978   4.489   9.930 -0.0882  0.0188  0.7441
  184MOL0     C25301  11.902   4.544  10.043 -0.2167 -0.5164  0.0133
  184MOL0     O25302  11.850   4.802  10.175  0.3860  1.0752 -0.3122
  184MOL0     C25303  11.478   4.795  10.167  0.7609 -0.7434  0.3819
  184MOL0     C25304  11.366   4.869  10.180  0.7302  0.0677  0.1077
  184MOL0     N25305  10.658   5.148  10.023  0.1239  0.4380 -0.9101
  184MOL0     N25306  10.544   5.129   9.981 -0.2804  0.2661 -0.0294
  184MOL0     C25307  10.143   5.854  10.491 -0.4736 -0.9809 -0.7657
  184MOL0     C25308  10.184   5.897  10.618 -0.4528 -0.1608 -0.3627
  184MOL0     C25309  10.267   5.931  11.044 -0.1018  0.4268  0.0242
  184MOL0     C25310  10.408   5.924  11.064 -0.3223  0.7778  0.3552
  184MOL0     C25311  10.476   5.949  11.189 -0.5876 -0.1326 -0.4380
  184MOL0     C25312  10.391   5.991  11.298  0.1428 -0.3686  0.3791
  184MOL0     O25313  10.437   6.005  11.426 -0.5866  0.9747 -0.2576
  184MOL0     C25314  10.576   6.020  11.456  0.2771  0.5071  0.0477
  184MOL0     C25315  10.638   6.150  11.402  0.0552 -1.1713  0.2203
  184MOL0     C25316  10.753   6.188  11.483 -0.7803 -0.0805  0.3437
  184MOL0     C25317  10.813   6.318  11.435  0.4007  0.2336 -0.2512
  184MOL0     C25318  10.925   6.294  11.340  0.8675  0.4075  0.3990
  184MOL0     C25319  11.035   6.267  11.286 -0.6092 -0.4670 -0.0539
  184MOL0     C25320  10.257   6.017  11.272 -0.8067 -0.8438 -0.4231
  184MOL0     C25321  10.199   5.979  11.153  0.6955 -0.7277 -0.7179
  184MOL0     C25322  10.051   6.011  11.154  1.2739  0.0359 -0.3321
  184MOL0     H25323  10.343   5.627  10.738 -1.9919  0.4139  1.6554
  184MOL0     H25324  10.302   5.562  10.499 -1.3956  0.0539 -1.9223
  184MOL0     H25325  10.036   5.778  10.221  3.1942 -0.4045 -1.1794
  184MOL0     H25326   9.966   5.640  10.322  0.5629 -0.8776  0.4858
  184MOL0     H25327   9.972   5.603  10.076 -0.3736 -2.0361 -1.1508
  184MOL0     H25328  10.139   5.631  10.076 -1.0803  0.6750 -0.4322
  184MOL0     H25329  10.182   5.423  10.207 -1.5693 -0.7137  3.0076
  184MOL0     H25330  10.003   5.416  10.236  0.5096 -0.3589  0.2724
  184MOL0     H25331   9.948   5.359  10.019 -1.3510 -5.3079  3.1864
  184MOL0     H25332  10.121   5.372   9.959 -0.6595 -3.2455 -1.3414
  184MOL0     H25333  10.041   5.141   9.986  2.5446 -2.6304 -0.3945
  184MOL0     H25334  10.040   5.166  10.158 -1.0363 -0.6393 -0.0085
  184MOL0     H25335  10.283   5.200   9.972 -2.8713  1.7486 -0.5140
  184MOL0     H25336  10.288   5.212  10.147  4.0398 -1.3495 -1.7119
  184MOL0     H25337  10.164   4.943  10.060  0.4095 -0.5910 -2.2461
  184MOL0     H25338  10.269   4.988  10.195  2.5560 -2.3743 -0.0000
  184MOL0     H25339  10.374   4.838  10.040  0.0342  0.4998  0.4946
  184MOL0     H25340  10.339   4.945   9.910 -2.3509 -0.7261  0.8595
  184MOL0     H25341  10.566   4.880  10.207 -2.2675 -0.2592  0.5279
  184MOL0     H25342  10.878   4.951  10.093  0.3255 -1.0610  1.9049
  184MOL0     H25343  10.808   4.949  10.252  0.7385  1.5010  0.7495
  184MOL0     H25344  10.960   5.160  10.095 -0.9071  1.8689  0.3485
  184MOL0     H25345  10.845   5.217  10.209 -3.5624 -2.7708 -2.9256
  184MOL0     H25346  11.063   5.207  10.315 -1.7735  0.1760 -0.8643
  184MOL0     H25347  10.973   5.089  10.397 -0.3050 -0.3785 -0.8064
  184MOL0     H25348  11.108   4.930  10.352 -0.9423  2.2766  2.1041
  184MOL0     H25349  11.106   4.969  10.167 -2.0254  0.1863 -0.0352
  184MOL0     H25350  11.502   5.130  10.351 -1.1966  0.3034 -1.5871
  184MOL0     H25351  11.819   5.034  10.257  1.7052  1.2075  1.6628
  184MOL0     H25352  11.785   4.977  10.419  0.1508  1.2635  0.6787
  184MOL0     H25353  11.738   5.138  10.365  0.8372  0.7163 -0.9456
  184MOL0     H25354  11.615   4.599   9.879 -1.2765 -1.3292  1.6090
  184MOL0     H25355  11.714   4.497   9.709 -0.6859 -0.1775 -0.0925
  184MOL0     H25356  12.139   4.515   9.695  0.7855  0.0586 -0.2756
  184MOL0     H25357  12.117   4.359   9.769 -0.4960 -0.5678 -0.9883
  184MOL0     H25358  12.092   4.406   9.461 -2.7493 -2.5264  0.0096
  184MOL0     H25359  12.247   4.363   9.534  1.6905  0.5255  3.1308
  184MOL0     H25360  12.031   4.180   9.639 -2.2062  0.3213 -1.3444
  184MOL0     H25361  12.183   4.149   9.567 -0.5761  0.3523  0.6974
  184MOL0     H25362  12.082   4.177   9.336 -0.8460 -1.1593 -1.1182
  184MOL0     H25363  11.928   4.222   9.417 -2.2393 -1.6949  3.2832
  184MOL0     H25364  11.933   3.964   9.518 -2.0504 -1.0326 -1.4229
  184MOL0     H25365  11.913   3.984   9.347 -2.7640  4.6730  0.3494
  184MOL0     H25366  12.077   3.798   9.415 -0.3542 -0.5196  1.2862
  184MOL0     H25367  12.168   3.919   9.495 -0.6888 -0.6342 -0.5464
  184MOL0     H25368  12.218   4.021   9.236  1.5689 -1.5867 -1.3712
  184MOL0     H25369  12.146   3.881   9.177  3.0492 -2.6892 -1.4412
  184MOL0     H25370  12.380   3.879   9.358 -1.6179 -3.3474  4.6775
  184MOL0     H25371  12.361   3.829   9.187  1.0881  0.7079  1.0040
  184MOL0     H25372  12.085   4.468   9.927  0.1098  0.8115  1.6856
  184MOL0     H25373  11.950   4.552  10.140 -0.9520 -2.3907  0.5753
  184MOL0     H25374  11.467   4.699  10.117  2.4275 -0.0246 -1.4999
  184MOL0     H25375  11.267   4.836  10.150  0.8458 -0.2420  0.0591
  184MOL0     H25376  10.071   5.909  10.431 -1.5532  1.2613  2.3368
  184MOL0     H25377  10.149   5.995  10.648  2.0560  0.3972  1.0129
  184MOL0     H25378  10.473   5.884  10.987 -1.1043  1.1189 -0.4982
  184MOL0     H25379  10.583   5.931  11.196 -0.4545  0.4098 -1.0092
  184MOL0     H25380  10.560   6.044  11.562 -2.2171  1.7004 -0.5217
  184MOL0     H25381  10.626   5.923  11.450 -2.2156 -1.0171  1.7992
  184MOL0     H25382  10.564   6.230  11.404  2.3452  1.0813  0.9332
  184MOL0     H25383  10.669   6.140  11.297 -0.0326  1.2565 -0.1002
  184MOL0     H25384  10.715   6.212  11.583 -0.5363  0.8618  0.2260
  184MOL0     H25385  10.832   6.113  11.490  0.8422  1.5300  0.2429
  184MOL0     H25386  10.842   6.379  11.520 -1.9869  0.9411  0.1361
  184MOL0     H25387  10.744   6.386  11.385  0.7919 -0.1301 -1.3132
  184MOL0     H25388  11.128   6.219  11.261  2.3364  2.8251  3.3399
  184MOL0     H25389  10.188   6.064  11.341 -1.0715  1.5091 -2.1780
  184MOL0     H25390   9.990   5.939  11.208  0.9336 -0.6471 -1.5835
  184MOL0     H25391  10.034   6.102  11.212  0.3369 -1.2108  1.4486
  184MOL0     H25392  10.017   6.028  11.052 -0.3988  1.1552  0.3745
  185MOL0     O25393   8.411   8.637  10.899 -0.5935  0.0489 -0.6345
  185MOL0     C25394   8.370   8.738  10.838  0.6407 -0.0712 -0.5771
  185MOL0     O25395   8.238   8.769  10.812  0.1467  0.4944  0.3528
  185MOL0     C25396   8.147   8.698  10.884 -0.2940 -0.8071 -0.4910
  185MOL0     C25397   8.110   8.568  10.838 -0.1032 -0.2131 -0.0039
  185MOL0     C25398   8.016   8.494  10.901  0.0318  0.4625 -0.2669
  185MOL0     C25399   7.956   8.534  11.022 -0.1107  0.2711  0.7683
  185MOL0     O25400   7.865   8.461  11.096 -0.4108  0.2726 -0.1697
  185MOL0     C25401   7.896   8.319  11.108 -1.0287  0.0907 -0.4638
  185MOL0     C25402   7.803   8.253  11.196 -0.5010  1.2897 -0.7288
  185MOL0     C25403   7.847   8.281  11.343 -0.6102  0.7921 -0.8367
  185MOL0     C25404   7.790   8.172  11.435 -0.3856 -0.6278  0.7101
  185MOL0     C25405   7.671   8.229  11.491  0.3531 -0.0660 -0.9006
  185MOL0     C25406   7.617   8.148  11.609 -0.0967 -0.3464  0.7895
  185MOL0     C25407   7.706   8.186  11.729  0.7986 -0.3928 -0.6037
  185MOL0     C25408   7.695   8.077  11.837  0.1563 -0.2848 -0.1953
  185MOL0     N25409   7.747   8.133  11.961 -0.6625  0.6733  0.0277
  185MOL0     C25410   7.871   8.183  11.960 -1.1962 -0.0608  0.8352
  185MOL0     C25411   7.886   8.244  12.084  0.6049 -0.7665  0.3092
  185MOL0     C25412   8.006   8.303  12.153  0.0813  0.2052 -0.0466
  185MOL0     C25413   8.131   8.213  12.119  0.6895  0.3111  1.0387
  185MOL0     C25414   8.264   8.253  12.187  0.8918  0.6124  0.0351
  185MOL0     C25415   8.386   8.275  12.095  0.1834  1.3683  0.7749
  185MOL0     O25416   8.347   8.385  12.018  0.8052  0.3748  0.0143
  185MOL0     C25417   8.464   8.435  11.947 -0.2314 -0.1512 -0.6115
  185MOL0     C25418   8.534   8.352  11.858  0.0027  0.0178  0.9447
  185MOL0     C25419   8.630   8.409  11.771  0.2054 -1.1561  0.1117
  185MOL0     C25420   8.687   8.317  11.662 -1.1018  0.2726 -0.1795
  185MOL0     C25421   8.677   8.539  11.792  0.1664 -0.6107 -0.4181
  185MOL0     C25422   8.798   8.597  11.722  1.1548 -0.7757 -0.8206
  185MOL0     O25423   8.813   8.737  11.726  0.0624  0.2918 -0.4099
  185MOL0     C25424   8.930   8.785  11.690 -1.3155 -0.3864  0.8977
  185MOL0     C25425   9.060   8.729  11.715 -0.0740  0.2512  1.1523
  185MOL0     C25426   9.174   8.808  11.687  0.3818  0.1180  0.0057
  185MOL0     C25427   9.165   8.938  11.648 -0.7999 -0.8776  1.1499
  185MOL0     O25428   9.274   9.024  11.635  0.4193 -0.2658 -0.0547
  185MOL0     C25429   9.393   8.998  11.704 -0.2504  0.4845  0.0367
  185MOL0     C25430   9.509   8.958  11.617 -0.6389 -0.1422  0.5249
  185MOL0     C25431   9.649   8.947  11.698  0.5716 -0.3217  0.1946
  185MOL0     C25432   9.655   8.807  11.756  0.3824  0.6074  0.1152
  185MOL0     C25433   9.772   8.807  11.872  0.1512 -1.0887  0.5224
  185MOL0     C25434   9.770   8.676  11.940  0.1202 -0.4990  0.1797
  185MOL0     C25435   9.878   8.674  12.048 -0.1050  0.5057  0.3517
  185MOL0     C25436   9.844   8.581  12.151 -1.4539  0.1482  0.3899
  185MOL0    Cl25437   9.857   8.412  12.098  0.1304 -0.1731  0.7903
  185MOL0     C25438   9.041   9.000  11.624  0.2199  0.3859  0.4392
  185MOL0     C25439   8.925   8.918  11.645 -0.1401 -0.0891  0.1185
  185MOL0     O25440   8.870   8.516  11.663  0.3724 -0.4267  0.0424
  185MOL0     C25441   8.602   8.626  11.881 -0.1138 -0.0304  0.2409
  185MOL0     C25442   8.501   8.571  11.957  0.4361 -0.6918 -0.1804
  185MOL0     N25443   7.763   8.234  12.148  0.1428 -0.2723 -0.7629
  185MOL0     N25444   7.686   8.153  12.081  0.9978 -0.1712  0.1170
  185MOL0     C25445   7.990   8.661  11.070 -0.3326  0.1190 -0.1920
  185MOL0     C25446   8.084   8.748  11.004 -1.1095  0.7344  0.5753
  185MOL0     C25447   8.471   8.840  10.786  0.8644  0.3064 -0.4470
  185MOL0     C25448   8.419   8.945  10.704 -1.0046 -0.0796 -0.8553
  185MOL0     C25449   8.507   9.036  10.648  0.6820 -0.3288 -0.7891
  185MOL0     C25450   8.640   9.039  10.692 -0.3704  0.3536 -0.7647
  185MOL0     O25451   8.717   9.140  10.623  0.0745 -0.4338  0.1115
  185MOL0     C25452   8.835   9.190  10.680  0.4721 -0.0598  0.6320
  185MOL0     C25453   8.809   9.294  10.791  0.4269  0.4255 -0.3756
  185MOL0     C25454   8.777   9.428  10.716  0.3859  0.0354  0.3491
  185MOL0     C25455   8.655   9.437  10.626 -0.1862 -0.0446  0.8835
  185MOL0     C25456   8.649   9.563  10.556  0.4233  0.9532  0.3023
  185MOL0     C25457   8.625   9.659  10.485  0.0208 -0.2969  0.6875
  185MOL0     C25458   8.692   8.947  10.784 -0.3047  0.0958  0.7510
  185MOL0     C25459   8.605   8.847  10.834  0.0202 -0.0312  1.0620
  185MOL0     C25460   8.659   8.771  10.965  0.5105  0.0085  0.4238
  185MOL0     H25461   8.164   8.546  10.747  1.1157  1.8339  0.1446
  185MOL0     H25462   7.993   8.406  10.841 -1.1661  1.4354 -1.2998
  185MOL0     H25463   7.995   8.292  11.145 -0.3625 -0.1227 -2.2948
  185MOL0     H25464   7.889   8.264  11.013  3.2770 -3.5324  0.9435
  185MOL0     H25465   7.702   8.292  11.181 -0.9449  1.4801  2.1331
  185MOL0     H25466   7.797   8.144  11.185 -0.4764  0.9411  1.9568
  185MOL0     H25467   7.956   8.275  11.336 -0.7855 -2.0149 -2.9535
  185MOL0     H25468   7.841   8.385  11.378  5.4525  1.4747 -0.7565
  185MOL0     H25469   7.785   8.074  11.387  0.1115 -0.7977  0.9957
  185MOL0     H25470   7.871   8.163  11.508  0.5130  0.0726 -0.1720
  185MOL0     H25471   7.596   8.217  11.412  1.0640  1.1507 -1.8019
  185MOL0     H25472   7.680   8.333  11.523  0.4947 -0.6148  0.9356
  185MOL0     H25473   7.511   8.157  11.634 -0.6008 -0.8183 -1.0212
  185MOL0     H25474   7.620   8.039  11.597  0.6127 -0.5741  2.6940
  185MOL0     H25475   7.682   8.291  11.751  0.5307 -0.6897  0.5853
  185MOL0     H25476   7.812   8.190  11.700  0.2217  0.1151 -2.8613
  185MOL0     H25477   7.589   8.057  11.858  0.6354 -1.0368  1.6997
  185MOL0     H25478   7.739   7.984  11.800  0.3459 -0.1084 -0.4190
  185MOL0     H25479   7.937   8.179  11.875  0.2851 -1.4564  1.9863
  185MOL0     H25480   8.005   8.309  12.262  0.1623  0.0020 -0.0348
  185MOL0     H25481   8.016   8.408  12.122 -2.6854  0.2032 -1.2483
  185MOL0     H25482   8.113   8.112  12.157  0.2015  0.3564  0.9294
  185MOL0     H25483   8.151   8.213  12.011  3.0137  1.1931  1.4083
  185MOL0     H25484   8.245   8.340  12.251  0.4747 -0.6419  1.6848
  185MOL0     H25485   8.295   8.173  12.255 -0.1266  0.9324  0.9053
  185MOL0     H25486   8.482   8.302  12.140  1.1352  2.5064 -1.7335
  185MOL0     H25487   8.402   8.188  12.031  3.7144  2.5053 -0.0800
  185MOL0     H25488   8.520   8.245  11.851  0.5176  0.0641 -1.3700
  185MOL0     H25489   8.791   8.285  11.673 -1.6497 -0.8221  2.5107
  185MOL0     H25490   8.669   8.368  11.567 -3.4417  1.1239  0.6425
  185MOL0     H25491   8.636   8.221  11.644  0.1689 -0.3857 -0.3920
  185MOL0     H25492   9.065   8.631  11.763  3.8708 -0.4413 -0.2961
  185MOL0     H25493   9.269   8.762  11.710 -0.4401 -0.8966  1.5727
  185MOL0     H25494   9.421   9.084  11.764 -1.2087 -0.6978  2.2929
  185MOL0     H25495   9.386   8.920  11.780  1.1526  1.1943  0.9371
  185MOL0     H25496   9.491   8.867  11.559  2.7970  1.2394 -3.1565
  185MOL0     H25497   9.527   9.033  11.540  0.0781  2.5395  3.1098
  185MOL0     H25498   9.649   9.017  11.783 -0.9174 -0.6392  0.4812
  185MOL0     H25499   9.726   8.981  11.628  2.0011  0.1629  1.9204
  185MOL0     H25500   9.699   8.745  11.677  1.7645  0.6100  0.8461
  185MOL0     H25501   9.554   8.772  11.777 -0.4254  1.8018 -1.5229
  185MOL0     H25502   9.873   8.831  11.837  0.5237  0.5186  2.5726
  185MOL0     H25503   9.746   8.880  11.949  1.8306  4.0507 -3.1976
  185MOL0     H25504   9.791   8.601  11.864 -2.7148 -2.1181  0.8437
  185MOL0     H25505   9.671   8.660  11.982  0.3922  1.4461  1.7491
  185MOL0     H25506   9.881   8.772  12.095 -2.9510  0.9349 -0.1621
  185MOL0     H25507   9.975   8.653  12.003 -0.5387 -1.1268  0.1170
  185MOL0     H25508   9.750   8.598  12.205 -0.8072  0.1329  1.5490
  185MOL0     H25509   9.914   8.592  12.234 -1.7100  0.0748  0.6164
  185MOL0     H25510   9.037   9.103  11.589 -1.0453  0.0318 -0.5801
  185MOL0     H25511   8.821   8.949  11.632  0.8910  2.9287 -1.9756
  185MOL0     H25512   8.638   8.726  11.898 -0.2328 -0.2183  1.6716
  185MOL0     H25513   8.447   8.642  12.019  0.5100 -1.1076  0.3702
  185MOL0     H25514   7.948   8.698  11.163  1.3934  1.0410  0.2634
  185MOL0     H25515   8.116   8.842  11.047 -0.9096  0.6838  0.5385
  185MOL0     H25516   8.319   8.945  10.661 -1.9795 -2.5107  1.1822
  185MOL0     H25517   8.479   9.110  10.574  1.2258 -0.4474 -1.1125
  185MOL0     H25518   8.886   9.106  10.728 -1.4657 -1.2657  0.6891
  185MOL0     H25519   8.893   9.230  10.596  1.2919 -0.4597  1.0022
  185MOL0     H25520   8.894   9.309  10.858 -0.5074  3.8220  0.2322
  185MOL0     H25521   8.725   9.279  10.858  1.3827  0.0666  0.7799
  185MOL0     H25522   8.755   9.495  10.800  5.6817  0.0619  2.0818
  185MOL0     H25523   8.870   9.460  10.670 -0.0027  2.1855  0.9506
  185MOL0     H25524   8.566   9.419  10.687 -1.8246 -0.2208 -1.4326
  185MOL0     H25525   8.648   9.361  10.547  0.6001 -0.0464  0.8119
  185MOL0     H25526   8.604   9.739  10.417 -0.4382  0.3107  1.5120
  185MOL0     H25527   8.797   8.933  10.808 -0.9313 -1.8126  2.6480
  185MOL0     H25528   8.661   8.663  10.942  5.5181  0.1159 -0.8468
  185MOL0     H25529   8.763   8.796  10.987  0.7934 -1.4333  0.8254
  185MOL0     H25530   8.618   8.803  11.061  1.5236 -2.4088  1.7714
  186MOL0     O25531   9.745   2.983   9.425 -0.3026 -0.3369  0.2175
  186MOL0     C25532   9.715   2.874   9.400 -0.2774 -0.0577  0.1946
  186MOL0     O25533   9.732   2.767   9.485 -0.0919 -0.9365  0.6001
  186MOL0     C25534   9.793   2.803   9.599 -0.3053 -0.2460 -0.1127
  186MOL0     C25535   9.931   2.808   9.619  0.0547 -0.0533 -0.2530
  186MOL0     C25536   9.992   2.839   9.735 -0.7329  0.1903 -0.8279
  186MOL0     C25537   9.917   2.865   9.853 -0.7137 -0.3308  0.9875
  186MOL0     O25538   9.971   2.890   9.981  1.0457  0.2779 -0.0781
  186MOL0     C25539  10.107   2.918   9.983 -0.7313  0.9708 -0.4933
  186MOL0     C25540  10.195   2.785  10.013  0.9958  0.2285 -0.8958
  186MOL0     C25541  10.343   2.802   9.968 -0.0292 -0.0082  0.4407
  186MOL0     C25542  10.432   2.914  10.037 -0.5005  0.4430  0.0994
  186MOL0     C25543  10.575   2.903   9.994  0.0890 -0.2276 -0.5104
  186MOL0     C25544  10.664   2.981  10.090 -0.8804 -0.8873  0.6048
  186MOL0     C25545  10.673   2.923  10.237  0.4977  0.5321  0.3468
  186MOL0     C25546  10.799   2.963  10.321  0.4167  0.4006 -0.1096
  186MOL0     N25547  10.805   2.909  10.453 -0.1867 -0.2188  0.4104
  186MOL0     C25548  10.720   2.947  10.551 -0.1128 -0.7092 -0.4544
  186MOL0     C25549  10.734   2.848  10.645  0.2885 -0.0909 -0.5134
  186MOL0     C25550  10.663   2.838  10.781 -0.1048 -0.2979 -0.4626
  186MOL0     C25551  10.650   2.957  10.878  0.3988 -0.1395  0.2846
  186MOL0     C25552  10.557   3.073  10.837 -0.6085  1.0583 -0.4175
  186MOL0     C25553  10.522   3.142  10.964 -1.3861 -0.2477  0.1717
  186MOL0     O25554  10.633   3.214  11.020 -0.2628 -0.0647  0.1201
  186MOL0     C25555  10.618   3.303  11.124 -0.3574 -0.1809  0.5791
  186MOL0     C25556  10.726   3.375  11.170  0.5848  1.0874 -0.1904
  186MOL0     C25557  10.716   3.477  11.272  0.1951 -0.2043  0.2817
  186MOL0     C25558  10.847   3.554  11.302  0.0474  0.3806  0.4013
  186MOL0     C25559  10.598   3.492  11.343 -0.3095 -0.5322 -0.8893
  186MOL0     C25560  10.576   3.608  11.432 -0.6064  0.4415  0.9661
  186MOL0     O25561  10.677   3.668  11.513  0.1017 -0.2887 -0.3023
  186MOL0     C25562  10.656   3.799  11.570  0.2893 -0.4782 -0.0161
  186MOL0     C25563  10.544   3.845  11.644  0.5088  0.1669 -1.0058
  186MOL0     C25564  10.544   3.963  11.711  0.4315  0.0707 -0.2453
  186MOL0     C25565  10.666   4.035  11.716  0.8581 -0.1626 -0.8242
  186MOL0     O25566  10.663   4.163  11.763  1.0550  0.8018  0.0284
  186MOL0     C25567  10.734   4.196  11.879 -0.3818  0.9842 -0.2597
  186MOL0     C25568  10.661   4.301  11.965  0.1217  0.4834 -0.8428
  186MOL0     C25569  10.737   4.339  12.098  0.8006  0.3671  0.4032
  186MOL0     C25570  10.685   4.477  12.143 -0.7100  0.6966 -0.2394
  186MOL0     C25571  10.749   4.488  12.287 -0.2690  0.6257  0.2334
  186MOL0     C25572  10.904   4.487  12.285 -0.3030 -0.0222 -1.1128
  186MOL0     C25573  10.945   4.563  12.413 -0.3360 -0.1816  0.6654
  186MOL0     C25574  11.094   4.605  12.407  0.8108  0.1545  0.3040
  186MOL0    Cl25575  11.126   4.715  12.262 -0.5198 -0.0488 -0.2578
  186MOL0     C25576  10.777   3.984  11.647 -0.1063 -0.3228 -0.2818
  186MOL0     C25577  10.770   3.873  11.571  0.3848  0.7677  1.1337
  186MOL0     O25578  10.457   3.634  11.446 -0.2506 -0.2357  0.5657
  186MOL0     C25579  10.490   3.405  11.305  0.1012 -0.4935 -0.0519
  186MOL0     C25580  10.491   3.321  11.192  0.5817  0.1740 -0.4653
  186MOL0     N25581  10.838   2.765  10.601  0.3377 -0.3794  1.0620
  186MOL0     N25582  10.878   2.803  10.489 -1.0356 -0.2719 -0.2910
  186MOL0     C25583   9.777   2.854   9.835  0.0614 -0.0771 -0.2760
  186MOL0     C25584   9.719   2.834   9.712 -0.4813  0.1098 -0.6523
  186MOL0     C25585   9.648   2.836   9.272  0.3795 -0.7774  0.3911
  186MOL0     C25586   9.509   2.800   9.277  1.1951 -0.6064  0.2280
  186MOL0     C25587   9.441   2.739   9.166  0.1070 -0.0947 -0.3815
  186MOL0     C25588   9.504   2.730   9.042 -0.9774  1.1984 -0.9165
  186MOL0     O25589   9.448   2.676   8.923 -0.0620 -0.9902 -0.1855
  186MOL0     C25590   9.307   2.661   8.915  0.6271  0.3091  0.7048
  186MOL0     C25591   9.231   2.794   8.899 -0.3696  0.5587 -0.1478
  186MOL0     C25592   9.112   2.767   8.808  0.8880  0.4206 -0.3680
  186MOL0     C25593   9.032   2.894   8.786  0.4050 -0.9268 -0.8380
  186MOL0     C25594   8.965   2.945   8.908 -0.5189  0.2194  0.4294
  186MOL0     C25595   8.905   2.967   9.009 -0.7721 -0.0218  0.6459
  186MOL0     C25596   9.635   2.776   9.045  0.0831 -0.1065 -0.5383
  186MOL0     C25597   9.710   2.838   9.147 -0.1410  0.5560 -0.3699
  186MOL0     C25598   9.852   2.888   9.150 -0.1349  0.2101 -0.1097
  186MOL0     H25599   9.988   2.780   9.531 -0.2865 -1.2379 -0.1201
  186MOL0     H25600  10.100   2.830   9.727 -0.6393 -2.7493  1.7108
  186MOL0     H25601  10.118   2.985  10.069  0.8722  3.3965 -2.4671
  186MOL0     H25602  10.144   2.955   9.887 -0.1311 -2.0096 -1.5442
  186MOL0     H25603  10.196   2.773  10.122 -0.5566  1.4020 -0.7084
  186MOL0     H25604  10.141   2.699   9.971  0.1356 -0.3964  1.3573
  186MOL0     H25605  10.390   2.703   9.970 -0.7684 -0.3890 -0.2511
  186MOL0     H25606  10.348   2.821   9.860 -1.4045  1.3981  0.5957
  186MOL0     H25607  10.393   3.015  10.027 -1.5819 -0.1490 -3.1416
  186MOL0     H25608  10.436   2.878  10.140  1.3162 -0.6771 -0.3203
  186MOL0     H25609  10.584   2.927   9.888  0.3827 -0.1178 -0.4602
  186MOL0     H25610  10.609   2.799  10.003  0.5046 -0.0825 -0.4043
  186MOL0     H25611  10.763   3.001  10.048 -1.5400  0.3308 -0.4449
  186MOL0     H25612  10.619   3.081  10.093  0.1291 -0.3112 -1.4741
  186MOL0     H25613  10.666   2.814  10.227 -0.4131  0.7772 -2.8179
  186MOL0     H25614  10.586   2.959  10.293  0.1675 -1.7237  1.4093
  186MOL0     H25615  10.885   2.934  10.261 -0.4674 -0.1457 -1.1631
  186MOL0     H25616  10.810   3.072  10.328 -0.2805  0.4394  0.5508
  186MOL0     H25617  10.650   3.029  10.547 -0.9694 -1.4840 -2.2286
  186MOL0     H25618  10.702   2.754  10.840 -1.1462  0.2449  1.0614
  186MOL0     H25619  10.562   2.804  10.757 -0.2479 -0.2960  0.1208
  186MOL0     H25620  10.617   2.909  10.971 -0.0421 -0.6688 -0.1374
  186MOL0     H25621  10.754   2.991  10.884  1.3185 -2.6452 -0.1017
  186MOL0     H25622  10.603   3.148  10.771 -1.5054  2.3264  0.3657
  186MOL0     H25623  10.467   3.042  10.784 -2.0670  1.1379  1.8909
  186MOL0     H25624  10.438   3.207  10.936 -3.1099 -3.5948 -3.3233
  186MOL0     H25625  10.487   3.076  11.044 -2.3506  0.0807  0.0455
  186MOL0     H25626  10.819   3.373  11.114 -0.0076  0.8724 -1.1806
  186MOL0     H25627  10.859   3.539  11.410 -1.0814 -1.6651  0.3035
  186MOL0     H25628  10.839   3.658  11.271  1.2677 -0.4905 -3.2703
  186MOL0     H25629  10.937   3.506  11.262  0.0975  0.2954  0.6170
  186MOL0     H25630  10.455   3.784  11.655 -0.8736  2.3811  1.5699
  186MOL0     H25631  10.447   3.999  11.744 -0.6352 -0.7853 -2.2916
  186MOL0     H25632  10.763   4.112  11.942 -2.5700 -1.4540 -2.2853
  186MOL0     H25633  10.832   4.232  11.848  1.4068 -3.6079 -0.6952
  186MOL0     H25634  10.667   4.394  11.907  2.6132  0.8850 -0.0406
  186MOL0     H25635  10.560   4.265  11.987 -0.4224  2.3788 -0.0424
  186MOL0     H25636  10.839   4.336  12.057 -0.0413 -2.5458 -1.8063
  186MOL0     H25637  10.726   4.259  12.172  1.1929 -1.1783 -1.1393
  186MOL0     H25638  10.578   4.499  12.147 -0.7565  0.9806 -2.3387
  186MOL0     H25639  10.719   4.553  12.072 -1.1386  0.8084 -0.3263
  186MOL0     H25640  10.719   4.584  12.329  1.2348  1.4374 -0.4707
  186MOL0     H25641  10.706   4.410  12.351 -1.1021  0.8581 -0.0409
  186MOL0     H25642  10.940   4.535  12.194 -1.1131 -0.6771 -1.7953
  186MOL0     H25643  10.948   4.388  12.300 -0.4621  0.4539  6.4163
  186MOL0     H25644  10.940   4.509  12.508 -1.2070  0.6556  1.0999
  186MOL0     H25645  10.895   4.660  12.411  0.0056  0.0058 -0.9356
  186MOL0     H25646  11.158   4.518  12.388  0.1788  0.0109 -1.3149
  186MOL0     H25647  11.112   4.643  12.508 -3.5584 -1.0173  1.7555
  186MOL0     H25648  10.869   4.034  11.676 -0.6899  0.3388  0.5031
  186MOL0     H25649  10.845   3.837  11.500  0.1336 -1.5665  1.9682
  186MOL0     H25650  10.398   3.421  11.362  1.1986  0.4055  1.5366
  186MOL0     H25651  10.392   3.286  11.166 -0.9440  3.1596  0.7766
  186MOL0     H25652   9.719   2.875   9.924  0.2347  1.5471 -0.5153
  186MOL0     H25653   9.612   2.816   9.705 -0.5557  1.2062 -2.8387
  186MOL0     H25654   9.439   2.801   9.360 -1.3711  1.1779 -1.8058
  186MOL0     H25655   9.335   2.731   9.188  0.4452 -0.4517  1.2331
  186MOL0     H25656   9.276   2.594   8.834  2.2527  1.0639 -0.6021
  186MOL0     H25657   9.264   2.613   9.004 -1.7694 -1.4458 -1.2716
  186MOL0     H25658   9.291   2.856   8.832 -0.4410 -0.4898 -1.2193
  186MOL0     H25659   9.204   2.834   8.997  2.8395  2.0148  0.2794
  186MOL0     H25660   9.137   2.723   8.711  0.5453 -2.8693  0.9046
  186MOL0     H25661   9.044   2.692   8.851  3.5080 -2.5871 -1.0589
  186MOL0     H25662   8.950   2.870   8.717 -1.5548  3.4724 -0.3958
  186MOL0     H25663   9.093   2.965   8.730  0.8682 -1.0926 -0.5533
  186MOL0     H25664   8.851   2.972   9.102 -3.1259 -1.8812 -0.5244
  186MOL0     H25665   9.693   2.757   8.955 -0.3204 -0.8755 -0.6455
  186MOL0     H25666   9.923   2.817   9.194  1.6725  0.3423 -2.5630
  186MOL0     H25667   9.886   2.901   9.047 -1.1067  1.5150 -0.2811
  186MOL0     H25668   9.857   2.992   9.181  2.0596 -0.0904  0.7457
  187MOL0     O25669   6.453  11.158  10.019  0.1287  0.1685 -0.3519
  187MOL0     C25670   6.426  11.058  10.087 -0.2350  0.3081  0.2640
  187MOL0     O25671   6.412  10.931  10.028  0.0270  0.1427 -0.4338
  187MOL0     C25672   6.364  10.937   9.896 -0.1025  0.4296 -0.6567
  187MOL0     C25673   6.428  10.871   9.790 -0.2065  0.2448  0.2031
  187MOL0     C25674   6.377  10.879   9.658 -0.3008 -0.3213 -1.0247
  187MOL0     C25675   6.253  10.944   9.638  0.6433  0.7299 -0.2157
  187MOL0     O25676   6.189  10.967   9.523 -0.4676 -0.4097  0.7237
  187MOL0     C25677   6.275  11.012   9.414  1.1641  0.2362  0.6015
  187MOL0     C25678   6.190  11.009   9.283  0.2086 -0.8505  0.0340
  187MOL0     C25679   6.163  10.867   9.234 -0.2286 -0.6353 -0.2789
  187MOL0     C25680   6.268  10.802   9.140 -0.4115 -0.7432  0.3377
  187MOL0     C25681   6.245  10.653   9.118 -0.5568 -0.1219 -0.3791
  187MOL0     C25682   6.351  10.590   9.032 -0.3127 -0.1180 -0.8079
  187MOL0     C25683   6.390  10.447   9.056 -0.4540 -0.3359 -0.0081
  187MOL0     C25684   6.470  10.411   9.186  0.5732  0.0723 -0.2916
  187MOL0     N25685   6.391  10.393   9.305 -0.4350 -0.6280 -0.0060
  187MOL0     C25686   6.400  10.465   9.421 -0.6809  0.4503  0.3205
  187MOL0     C25687   6.292  10.424   9.498  0.7537  0.2329  0.0349
  187MOL0     C25688   6.263  10.459   9.643  0.2903  0.1995  0.1149
  187MOL0     C25689   6.158  10.583   9.650  0.8056 -0.1225 -0.0323
  187MOL0     C25690   6.094  10.593   9.787 -0.5806  0.3483  0.5518
  187MOL0     C25691   5.941  10.613   9.786 -0.3548 -1.0683  0.1216
  187MOL0     O25692   5.853  10.534   9.709  1.0043 -0.3644 -0.2789
  187MOL0     C25693   5.716  10.564   9.721 -0.5793 -0.9881 -0.3474
  187MOL0     C25694   5.620  10.469   9.677 -1.0304  0.2727  0.2427
  187MOL0     C25695   5.478  10.500   9.681 -0.2221 -0.2328 -0.1735
  187MOL0     C25696   5.384  10.404   9.613 -0.4206  0.4435 -0.4187
  187MOL0     C25697   5.444  10.623   9.750 -0.1231  0.6907 -0.2508
  187MOL0     C25698   5.307  10.653   9.784 -0.0027  1.1300 -0.3843
  187MOL0     O25699   5.291  10.780   9.831  0.2682 -0.1668 -0.0327
  187MOL0     C25700   5.174  10.824   9.897  0.0602 -0.2932 -0.0618
  187MOL0     C25701   5.146  10.967   9.884 -0.2762  0.6239  0.0242
  187MOL0     C25702   5.022  11.025   9.929  0.4912  0.5652 -0.2113
  187MOL0     C25703   4.925  10.939   9.991 -0.4027 -0.1079 -0.0659
  187MOL0     O25704   4.817  11.000  10.049 -0.8041 -0.0353 -0.2776
  187MOL0     C25705   4.691  10.947  10.011  0.0591 -0.4483  0.0861
  187MOL0     C25706   4.594  11.051  10.067 -0.1720 -0.3891 -0.3911
  187MOL0     C25707   4.456  11.023  10.010 -0.5394 -0.3630  1.2004
  187MOL0     C25708   4.392  10.883  10.048 -0.4095 -0.2216  0.4026
  187MOL0     C25709   4.244  10.880  10.003 -0.0523  0.0134  0.6461
  187MOL0     C25710   4.208  10.727  10.008  0.6701 -0.0291  0.1616
  187MOL0     C25711   4.068  10.701   9.967 -0.2686 -0.1842 -0.5611
  187MOL0     C25712   3.970  10.697  10.092 -0.3210 -0.3571  1.5545
  187MOL0    Cl25713   3.954  10.861  10.170  0.1822 -0.1430 -0.3875
  187MOL0     C25714   4.963  10.810  10.018 -0.4602 -0.6818  0.8401
  187MOL0     C25715   5.081  10.751   9.971 -0.4734 -0.1163  0.1846
  187MOL0     O25716   5.222  10.562   9.793 -0.2681  0.4478  0.1778
  187MOL0     C25717   5.547  10.706   9.800  0.4230 -0.0924 -0.4544
  187MOL0     C25718   5.677  10.676   9.784 -0.5775 -0.9996  1.1142
  187MOL0     N25719   6.221  10.331   9.419  0.4420 -0.3714  0.2206
  187MOL0     N25720   6.284  10.311   9.309  0.0810 -0.2770  0.9568
  187MOL0     C25721   6.183  10.998   9.748 -0.9137 -0.2495  0.1977
  187MOL0     C25722   6.235  11.003   9.872 -0.5180  0.2137 -0.1225
  187MOL0     C25723   6.443  11.057  10.230  0.8120 -0.4423 -0.0793
  187MOL0     C25724   6.393  10.951  10.303  0.7980  0.9829  0.6390
  187MOL0     C25725   6.396  10.940  10.446  0.4247  0.6145 -0.5515
  187MOL0     C25726   6.462  11.034  10.523 -0.4675  0.5793 -1.0446
  187MOL0     O25727   6.473  11.031  10.664 -0.3138  1.2195  0.1027
  187MOL0     C25728   6.606  11.003  10.700  0.3763  0.5920 -0.4025
  187MOL0     C25729   6.606  10.860  10.758  1.0029  0.2954  0.2074
  187MOL0     C25730   6.741  10.832  10.835 -0.5527  0.6190  0.4031
  187MOL0     C25731   6.740  10.695  10.903 -0.2541  0.4498  0.2877
  187MOL0     C25732   6.867  10.659  10.970  0.5562  0.4013  0.3669
  187MOL0     C25733   6.964  10.619  11.038  0.3042 -0.5189 -0.2782
  187MOL0     C25734   6.502  11.146  10.455  0.1859  0.2846  0.5195
  187MOL0     C25735   6.506  11.157  10.319 -0.3189 -0.4300  0.1901
  187MOL0     C25736   6.575  11.277  10.261  0.7180  0.3397  0.1253
  187MOL0     H25737   6.527  10.828   9.802 -1.4409 -2.3918  1.6174
  187MOL0     H25738   6.445  10.850   9.579 -0.2947 -7.3983  0.8842
  187MOL0     H25739   6.363  10.948   9.408  0.6315 -0.8787  3.1845
  187MOL0     H25740   6.299  11.117   9.434 -2.8261  1.5870 -0.6285
  187MOL0     H25741   6.104  11.072   9.307  1.4399  1.1240 -0.4995
  187MOL0     H25742   6.238  11.063   9.201  2.0603  0.5612  1.9577
  187MOL0     H25743   6.138  10.798   9.315 -1.8868  0.0267 -0.1750
  187MOL0     H25744   6.073  10.872   9.172 -0.0485 -1.6914 -0.6420
  187MOL0     H25745   6.253  10.856   9.047 -1.2072  3.3767  2.5993
  187MOL0     H25746   6.365  10.846   9.165  0.0174 -2.1420  1.2403
  187MOL0     H25747   6.149  10.642   9.067  0.3964 -0.9279 -2.1085
  187MOL0     H25748   6.233  10.605   9.215 -2.4406 -1.7793 -1.3565
  187MOL0     H25749   6.317  10.607   8.929 -3.1398 -3.0153 -0.4953
  187MOL0     H25750   6.441  10.649   9.049 -0.3930 -0.1597 -0.2266
  187MOL0     H25751   6.458  10.412   8.979 -2.0359 -3.6917 -0.0622
  187MOL0     H25752   6.297  10.389   9.051 -0.4717 -0.3942  0.8536
  187MOL0     H25753   6.522  10.314   9.182 -0.2637 -0.4385  0.6289
  187MOL0     H25754   6.544  10.482   9.222 -0.9352  0.5302  2.1675
  187MOL0     H25755   6.475  10.540   9.444 -0.0648 -0.3126  0.8507
  187MOL0     H25756   6.360  10.486   9.687  1.8842 -1.2140 -2.3245
  187MOL0     H25757   6.225  10.378   9.705 -2.5897  1.4751  0.1715
  187MOL0     H25758   6.206  10.681   9.639  1.8771 -0.5183  0.9068
  187MOL0     H25759   6.084  10.578   9.569  0.9432 -0.7398 -0.1188
  187MOL0     H25760   6.119  10.500   9.837  0.6759 -1.0414 -2.4138
  187MOL0     H25761   6.135  10.683   9.833  0.8690  0.0975 -0.2048
  187MOL0     H25762   5.908  10.628   9.890  0.6764 -1.5173  0.5243
  187MOL0     H25763   5.931  10.714   9.744 -1.1725 -0.8433  0.8085
  187MOL0     H25764   5.649  10.386   9.612 -1.3038 -0.1903  0.7089
  187MOL0     H25765   5.330  10.341   9.683  2.4438 -0.9583  0.6587
  187MOL0     H25766   5.438  10.337   9.546 -0.1789  0.6667 -0.4491
  187MOL0     H25767   5.314  10.470   9.559  2.0009  2.0737 -1.7328
  187MOL0     H25768   5.203  11.025   9.812 -2.5397  0.6113 -1.9013
  187MOL0     H25769   4.995  11.128   9.913 -1.9507 -0.0529 -0.5225
  187MOL0     H25770   4.684  10.941   9.902 -0.2023 -1.3186  0.1388
  187MOL0     H25771   4.670  10.851  10.060 -2.0339 -0.6713 -1.1626
  187MOL0     H25772   4.594  11.053  10.176 -2.4367  2.1986 -0.3177
  187MOL0     H25773   4.627  11.148  10.030  0.9264 -0.5928  0.0334
  187MOL0     H25774   4.450  11.043   9.903 -1.2829  1.3306  1.5252
  187MOL0     H25775   4.405  11.112  10.047  3.4565  1.5851  2.6855
  187MOL0     H25776   4.409  10.856  10.152  2.7028 -1.1657 -0.2432
  187MOL0     H25777   4.448  10.810   9.988 -1.7205 -0.1881 -0.9474
  187MOL0     H25778   4.176  10.933  10.071 -0.7958 -0.6437  0.4251
  187MOL0     H25779   4.238  10.926   9.904 -0.2919 -0.2384  0.5430
  187MOL0     H25780   4.224  10.679  10.105  1.5709 -2.6695 -1.2036
  187MOL0     H25781   4.273  10.678   9.936 -2.0911  0.7615 -3.1312
  187MOL0     H25782   4.076  10.599   9.927  4.4504  0.4835 -1.8257
  187MOL0     H25783   4.022  10.763   9.890 -1.0225 -0.6044 -0.4623
  187MOL0     H25784   4.003  10.620  10.163 -0.0019  0.1366  1.9432
  187MOL0     H25785   3.872  10.672  10.049  0.7862 -0.3402 -1.1608
  187MOL0     H25786   4.890  10.754  10.076 -1.6990 -0.4073 -0.4257
  187MOL0     H25787   5.084  10.646  10.000 -0.0517 -1.1389 -3.1356
  187MOL0     H25788   5.535  10.797   9.858  2.0085 -0.0487 -0.1517
  187MOL0     H25789   5.749  10.739   9.836 -1.0677 -0.5574  1.2663
  187MOL0     H25790   6.083  11.037   9.730 -0.1601  0.2379 -3.9402
  187MOL0     H25791   6.182  11.036   9.960 -2.0599 -1.4189 -0.3679
  187MOL0     H25792   6.350  10.866  10.252 -1.0376  1.4093  1.3874
  187MOL0     H25793   6.363  10.848  10.492  1.4694  0.3281 -0.3601
  187MOL0     H25794   6.678  11.013  10.619  0.7396 -3.2688 -0.6963
  187MOL0     H25795   6.627  11.071  10.783 -1.7732  0.0832  0.6353
  187MOL0     H25796   6.598  10.789  10.675 -2.5392 -1.2762  1.6930
  187MOL0     H25797   6.519  10.845  10.822  2.0555 -1.5144  1.3423
  187MOL0     H25798   6.824  10.836  10.763 -1.0428 -0.7108 -0.2675
  187MOL0     H25799   6.765  10.900  10.917  4.1080  0.0081 -0.1570
  187MOL0     H25800   6.719  10.612  10.835  1.2327 -2.5322  3.1801
  187MOL0     H25801   6.655  10.690  10.972  0.2083  2.8611  1.1419
  187MOL0     H25802   7.044  10.592  11.104 -1.7412  0.3717  2.7887
  187MOL0     H25803   6.541  11.215  10.529 -0.7735  0.5326  0.8132
  187MOL0     H25804   6.503  11.333  10.200 -0.6433 -0.0463  1.3221
  187MOL0     H25805   6.614  11.343  10.338  3.2406 -1.0867  0.1794
  187MOL0     H25806   6.663  11.246  10.202  1.2035  0.8553  0.5724
  188MOL0     O25807   8.605   5.879   0.403  0.5303 -0.6946 -0.6360
  188MOL0     C25808   8.683   5.812   0.338  0.3779 -0.0091  0.5039
  188MOL0     O25809   8.813   5.783   0.376 -0.1466 -0.6612 -0.2805
  188MOL0     C25810   8.856   5.792   0.508  0.4240 -0.0607  1.4469
  188MOL0     C25811   8.782   5.760   0.620  0.4009  0.6772 -0.0091
  188MOL0     C25812   8.841   5.748   0.746  0.9137 -0.0641  0.2256
  188MOL0     C25813   8.973   5.772   0.764 -0.4740  1.0894 -0.2360
  188MOL0     O25814   9.038   5.751   0.883 -0.3185  0.8617  0.5433
  188MOL0     C25815   9.034   5.609   0.911 -0.2209  0.0243 -0.7857
  188MOL0     C25816   9.149   5.588   1.012  0.9152  0.3123 -0.9854
  188MOL0     C25817   9.288   5.630   0.986  0.5456 -0.7790 -0.9638
  188MOL0     C25818   9.399   5.535   1.042 -0.3942 -0.5726 -0.0265
  188MOL0     C25819   9.542   5.591   1.015 -0.6890 -0.0725 -0.0805
  188MOL0     C25820   9.660   5.491   1.046  0.5406 -0.5966 -0.0963
  188MOL0     C25821   9.794   5.550   1.010  0.1378  0.2646  0.2168
  188MOL0     C25822   9.823   5.571   0.857  0.0915  0.1695  0.1619
  188MOL0     N25823   9.858   5.440   0.797  0.7844 -0.2086  0.0161
  188MOL0     C25824   9.763   5.350   0.766  0.0111  0.0636  0.3610
  188MOL0     C25825   9.831   5.239   0.734 -0.0340  0.3728  0.7768
  188MOL0     C25826   9.787   5.107   0.693  1.1111  0.5752  0.5888
  188MOL0     C25827   9.822   5.003   0.804  0.3366  0.2685 -0.2094
  188MOL0     C25828   9.862   4.867   0.752  0.6187 -0.1551  0.0424
  188MOL0     C25829   9.868   4.764   0.870 -0.7927  0.1820 -0.1997
  188MOL0     O25830   9.891   4.814   1.000  0.4111 -0.5321 -0.1431
  188MOL0     C25831  10.020   4.824   1.048 -0.5107 -0.1731 -0.2210
  188MOL0     C25832  10.033   4.870   1.186  0.3543 -0.3609  1.2115
  188MOL0     C25833  10.154   4.855   1.254  0.5326  0.3248  0.0331
  188MOL0     C25834  10.167   4.895   1.399  0.2706 -0.4187  0.8228
  188MOL0     C25835  10.270   4.806   1.188 -0.4427 -0.1337  0.8198
  188MOL0     C25836  10.406   4.782   1.255 -0.2726 -0.3913 -0.2896
  188MOL0     O25837  10.509   4.843   1.186  0.4990  0.1538 -0.7159
  188MOL0     C25838  10.592   4.915   1.255 -0.1721  0.3383  0.0153
  188MOL0     C25839  10.722   4.897   1.210 -0.3894 -0.7506 -0.1279
  188MOL0     C25840  10.830   4.976   1.268 -0.2379  0.2962 -0.4599
  188MOL0     C25841  10.796   5.076   1.362  0.5992 -0.1553  0.9595
  188MOL0     O25842  10.886   5.168   1.407 -0.3140 -0.4414  0.2696
  188MOL0     C25843  10.898   5.183   1.552  1.0983  0.7240 -0.3544
  188MOL0     C25844  11.021   5.260   1.580 -0.1991 -0.0594 -0.4376
  188MOL0     C25845  11.006   5.317   1.725 -0.4651  0.1837 -0.2073
  188MOL0     C25846  11.144   5.348   1.791 -0.5435 -0.2004  0.1617
  188MOL0     C25847  11.224   5.470   1.754 -0.7579  0.0680 -0.2066
  188MOL0     C25848  11.336   5.488   1.855  0.3499  0.2176  0.2461
  188MOL0     C25849  11.420   5.606   1.799  0.0948 -0.2206 -0.5949
  188MOL0     C25850  11.483   5.685   1.920  0.4851 -0.4435  0.0955
  188MOL0    Cl25851  11.358   5.768   1.984 -0.0347  0.2330 -0.3662
  188MOL0     C25852  10.662   5.082   1.399 -0.3235  0.3651  0.4014
  188MOL0     C25853  10.553   5.007   1.347  0.3340 -0.7222 -0.4194
  188MOL0     O25854  10.407   4.727   1.364 -0.1935 -0.5708 -0.1576
  188MOL0     C25855  10.260   4.786   1.046 -0.0662  0.0193 -0.0721
  188MOL0     C25856  10.136   4.788   0.982  0.0349 -0.5836  0.6156
  188MOL0     N25857   9.967   5.257   0.749 -0.1490  0.0000  0.2893
  188MOL0     N25858   9.980   5.383   0.783  0.0832 -0.1471  0.8345
  188MOL0     C25859   9.046   5.818   0.656  0.3018 -0.5985  0.4116
  188MOL0     C25860   8.991   5.829   0.526 -0.3431 -0.3137 -0.7234
  188MOL0     C25861   8.632   5.758   0.204 -0.7241  0.3946 -0.1170
  188MOL0     C25862   8.671   5.626   0.164  0.7633  0.9805  0.7289
  188MOL0     C25863   8.633   5.571   0.043  0.0916 -1.4515  0.0402
  188MOL0     C25864   8.535   5.642  -0.031 -0.3406  0.0560 -0.4698
  188MOL0     O25865   8.487   5.601  -0.150 -0.3604  0.1559  0.1580
  188MOL0     C25866   8.363   5.526  -0.144  0.7839  0.4071  0.3005
  188MOL0     C25867   8.292   5.516  -0.277 -0.3031 -0.4789 -1.5311
  188MOL0     C25868   8.366   5.426  -0.380  0.3032 -0.2537 -0.5209
  188MOL0     C25869   8.330   5.470  -0.523 -0.4366 -0.6083 -0.9185
  188MOL0     C25870   8.386   5.603  -0.550  0.7687 -0.4568  0.4123
  188MOL0     C25871   8.419   5.722  -0.545  0.6850  0.4304 -0.1833
  188MOL0     C25872   8.483   5.753   0.015  0.2017 -0.4254 -0.0481
  188MOL0     C25873   8.535   5.822   0.123  0.2945  0.2102 -0.5606
  188MOL0     C25874   8.484   5.962   0.163 -0.2232 -0.5861 -0.0983
  188MOL0     H25875   8.676   5.736   0.609  0.5319 -2.3428  3.3406
  188MOL0     H25876   8.801   5.713   0.841  1.4012  0.2392  0.5517
  188MOL0     H25877   9.054   5.546   0.824 -1.8161 -2.1882  0.3767
  188MOL0     H25878   8.937   5.582   0.953 -0.6412 -0.7851 -2.1991
  188MOL0     H25879   9.102   5.629   1.102  0.7615 -2.9606  0.5601
  188MOL0     H25880   9.149   5.480   1.028  1.7827  0.0213 -2.6653
  188MOL0     H25881   9.295   5.626   0.877 -1.5227 -1.0587 -1.1133
  188MOL0     H25882   9.307   5.733   1.019  0.5770 -1.1946  0.3546
  188MOL0     H25883   9.380   5.527   1.149 -2.9506 -0.7563 -0.4369
  188MOL0     H25884   9.398   5.436   0.994 -0.3342  0.3407 -2.0071
  188MOL0     H25885   9.556   5.686   1.067  1.0825 -0.8593  0.9560
  188MOL0     H25886   9.542   5.603   0.906  1.7907 -2.3153 -0.4136
  188MOL0     H25887   9.654   5.465   1.152 -2.2499  1.3466  0.3383
  188MOL0     H25888   9.639   5.393   1.001  1.5247 -0.1737 -1.5493
  188MOL0     H25889   9.880   5.491   1.043  0.1690 -0.6577 -1.4314
  188MOL0     H25890   9.805   5.646   1.061  1.9733  0.1143  0.1628
  188MOL0     H25891   9.735   5.606   0.802  0.3512 -1.9591 -1.7616
  188MOL0     H25892   9.904   5.644   0.846 -0.2769  0.6502  0.5419
  188MOL0     H25893   9.654   5.355   0.759 -0.1694 -1.5973  1.3652
  188MOL0     H25894   9.850   5.083   0.607  1.1913  1.9629  0.2395
  188MOL0     H25895   9.683   5.101   0.662  1.6499 -4.0303 -1.1396
  188MOL0     H25896   9.905   5.030   0.869  0.9661  0.9283 -1.2402
  188MOL0     H25897   9.725   4.986   0.852  0.1036 -3.7186 -1.7603
  188MOL0     H25898   9.798   4.812   0.682 -0.0406 -3.2411  2.7921
  188MOL0     H25899   9.959   4.867   0.702  0.8357 -4.6866  0.0274
  188MOL0     H25900   9.772   4.711   0.869 -0.9109  0.2324 -3.3966
  188MOL0     H25901   9.939   4.684   0.846 -1.4224 -0.4918  0.1170
  188MOL0     H25902   9.951   4.926   1.228 -0.7027 -1.1741  0.3010
  188MOL0     H25903  10.092   4.968   1.431 -0.3064 -0.7297  0.2238
  188MOL0     H25904  10.265   4.937   1.423  1.7890 -0.9603 -3.5716
  188MOL0     H25905  10.159   4.806   1.463  3.1179  0.5486  2.7125
  188MOL0     H25906  10.733   4.828   1.127  1.0971  0.7420 -1.2324
  188MOL0     H25907  10.933   4.973   1.236 -0.6144 -1.6019 -1.6662
  188MOL0     H25908  10.809   5.236   1.589 -0.3107 -1.9867  0.4168
  188MOL0     H25909  10.903   5.088   1.606 -1.6034 -0.0278 -1.2539
  188MOL0     H25910  11.105   5.190   1.575  1.0508  1.3714 -0.2212
  188MOL0     H25911  11.035   5.343   1.510  0.2879 -2.0086 -2.8058
  188MOL0     H25912  10.957   5.238   1.782 -3.4193  1.1867 -1.1733
  188MOL0     H25913  10.941   5.405   1.721  0.7663  1.1196 -3.9238
  188MOL0     H25914  11.212   5.264   1.779 -0.1380  0.4066 -2.2649
  188MOL0     H25915  11.117   5.351   1.897 -0.6225  0.9027  0.1197
  188MOL0     H25916  11.263   5.458   1.652  0.3968  0.9050  0.1136
  188MOL0     H25917  11.156   5.556   1.758  1.0329  1.4956  1.3115
  188MOL0     H25918  11.391   5.394   1.864 -1.0783 -0.6530  0.1048
  188MOL0     H25919  11.281   5.518   1.944 -0.1161  0.6416 -0.1741
  188MOL0     H25920  11.365   5.674   1.733  1.1346  1.4291  0.1632
  188MOL0     H25921  11.502   5.566   1.739  0.0659 -0.4621 -0.4740
  188MOL0     H25922  11.549   5.761   1.877 -0.2923  2.3870  3.4295
  188MOL0     H25923  11.537   5.621   1.990  0.6909  0.8064  1.1107
  188MOL0     H25924  10.646   5.160   1.474  3.6108 -1.2750  3.3039
  188MOL0     H25925  10.452   5.031   1.376 -0.3547 -1.6645 -1.8962
  188MOL0     H25926  10.351   4.757   0.994 -0.2193  1.3697 -1.1661
  188MOL0     H25927  10.129   4.755   0.879 -1.6710  1.2016  0.0955
  188MOL0     H25928   9.147   5.833   0.694  1.2380 -2.2578 -1.2195
  188MOL0     H25929   9.057   5.868   0.449 -0.4941 -2.1480 -1.8278
  188MOL0     H25930   8.739   5.568   0.228  0.1780  0.5379  0.9600
  188MOL0     H25931   8.667   5.472   0.013  1.6026 -1.6758  2.2308
  188MOL0     H25932   8.399   5.431  -0.104  1.9738  0.8109  0.2600
  188MOL0     H25933   8.297   5.573  -0.070 -0.9997 -1.3310 -0.1184
  188MOL0     H25934   8.291   5.620  -0.312  0.7636 -0.1896 -0.7572
  188MOL0     H25935   8.193   5.474  -0.256 -0.7222  2.2591  3.4288
  188MOL0     H25936   8.475   5.412  -0.374 -0.0257 -2.7158  0.7650
  188MOL0     H25937   8.334   5.322  -0.373 -0.9981  0.1181 -0.7648
  188MOL0     H25938   8.224   5.470  -0.546 -0.6600 -2.8740 -0.1545
  188MOL0     H25939   8.379   5.412  -0.602  0.6192  1.8058 -2.1412
  188MOL0     H25940   8.443   5.826  -0.537 -1.8011  1.1296 -1.0975
  188MOL0     H25941   8.387   5.782  -0.027  0.1364  0.6071  0.7685
  188MOL0     H25942   8.570   6.029   0.158  0.1257 -1.0930 -3.4264
  188MOL0     H25943   8.416   6.003   0.087 -1.2711 -1.4428  0.3340
  188MOL0     H25944   8.430   5.970   0.258 -0.7283  1.4300 -0.5131
  189MOL0     O25945   7.276   0.886   0.852 -0.6753  0.2545  0.2026
  189MOL0     C25946   7.258   0.906   0.972  0.3376  0.1977  0.0590
  189MOL0     O25947   7.264   1.025   1.029  0.5869 -0.1567  0.3381
  189MOL0     C25948   7.234   1.149   0.976  0.3182  0.2534 -0.4771
  189MOL0     C25949   7.173   1.170   0.855  0.2844  0.2665 -0.0284
  189MOL0     C25950   7.131   1.301   0.820 -0.8493  0.5338  0.7608
  189MOL0     C25951   7.144   1.410   0.904 -0.6638 -0.1115 -0.5445
  189MOL0     O25952   7.131   1.537   0.861  0.4470 -0.3854 -0.0534
  189MOL0     C25953   7.011   1.599   0.916  0.0630  0.0189 -0.3407
  189MOL0     C25954   7.033   1.747   0.930  0.8851 -1.0664  0.4156
  189MOL0     C25955   6.933   1.813   1.028  0.0394  0.1328 -0.1875
  189MOL0     C25956   6.951   1.965   1.018  0.2780 -0.3319  0.1765
  189MOL0     C25957   6.935   2.020   1.154  0.6312 -0.3951  0.5791
  189MOL0     C25958   6.911   2.176   1.157 -1.0315  0.3840  0.2384
  189MOL0     C25959   6.888   2.221   1.299  0.6154 -0.2115 -0.3447
  189MOL0     C25960   6.908   2.375   1.298  0.0870 -0.6261  0.0152
  189MOL0     N25961   6.819   2.445   1.205  0.3457 -0.2055 -0.7219
  189MOL0     C25962   6.694   2.484   1.248  0.5448 -0.3725 -0.8596
  189MOL0     C25963   6.639   2.558   1.146  0.6736  0.0390 -0.3206
  189MOL0     C25964   6.498   2.619   1.145  0.2392 -0.6018 -0.3233
  189MOL0     C25965   6.400   2.557   1.055 -0.0543  0.2601  0.2323
  189MOL0     C25966   6.371   2.411   1.057 -0.7418  0.5006  0.0363
  189MOL0     C25967   6.371   2.355   1.199  0.4046  0.2195  0.1493
  189MOL0     O25968   6.487   2.292   1.233  0.1557  0.5831 -0.0292
  189MOL0     C25969   6.490   2.155   1.248 -0.1648  0.2512 -1.0452
  189MOL0     C25970   6.467   2.095   1.374 -0.7059 -0.3434 -0.1142
  189MOL0     C25971   6.500   1.960   1.389  0.4059 -0.1841  0.8204
  189MOL0     C25972   6.488   1.919   1.532 -0.0838 -0.5796 -0.1328
  189MOL0     C25973   6.543   1.878   1.286 -0.8508  0.2183  0.7415
  189MOL0     C25974   6.580   1.729   1.309  1.0674  0.3454 -0.2539
  189MOL0     O25975   6.567   1.648   1.199 -0.1330  0.3083  0.5456
  189MOL0     C25976   6.628   1.532   1.175  0.4654  0.3837  1.3114
  189MOL0     C25977   6.563   1.447   1.081 -0.4066  0.0085 -0.1788
  189MOL0     C25978   6.613   1.317   1.054  0.6820  0.3389  0.1363
  189MOL0     C25979   6.732   1.273   1.121  0.4214 -0.3524 -0.0589
  189MOL0     O25980   6.776   1.147   1.103 -0.1692 -0.7290 -0.3579
  189MOL0     C25981   6.920   1.123   1.116 -0.5941  0.2922  0.2029
  189MOL0     C25982   6.936   1.062   1.252  0.7571  0.5275 -0.3791
  189MOL0     C25983   6.873   0.922   1.252  0.2934  0.2644 -0.8890
  189MOL0     C25984   6.891   0.884   1.407 -0.7738  0.1921 -0.0068
  189MOL0     C25985   6.892   0.736   1.448  0.8316  0.0899  0.4643
  189MOL0     C25986   6.772   0.645   1.415 -0.5887 -0.2924  0.1058
  189MOL0     C25987   6.795   0.499   1.470 -0.1179 -0.4014 -0.6659
  189MOL0     C25988   6.657   0.425   1.482 -0.3902 -0.6446 -0.4952
  189MOL0    Cl25989   6.709   0.248   1.508 -0.2453 -0.4479 -0.9287
  189MOL0     C25990   6.795   1.365   1.211 -0.3715  0.0184  0.6123
  189MOL0     C25991   6.749   1.497   1.231  0.7862  0.5268 -0.5152
  189MOL0     O25992   6.632   1.684   1.415  0.2525  0.6606  0.5631
  189MOL0     C25993   6.573   1.941   1.166  0.2548  1.8618  1.6937
  189MOL0     C25994   6.546   2.081   1.148 -0.7540 -0.9319  0.1166
  189MOL0     N25995   6.735   2.550   1.051 -0.1811  0.7389 -0.2460
  189MOL0     N25996   6.832   2.475   1.083 -0.1753  0.1068 -0.2412
  189MOL0     C25997   7.210   1.387   1.018 -0.1879 -0.8189 -0.3755
  189MOL0     C25998   7.268   1.263   1.046  0.3477 -0.3868  0.0388
  189MOL0     C25999   7.234   0.790   1.059  0.4261 -0.7036  0.0326
  189MOL0     C26000   7.144   0.694   1.012  0.7289  1.1800 -0.0557
  189MOL0     C26001   7.107   0.585   1.095  0.1145  0.0573  0.8369
  189MOL0     C26002   7.176   0.559   1.206  0.5653 -0.1868  0.0676
  189MOL0     O26003   7.144   0.448   1.272  0.1462 -0.2508 -0.0047
  189MOL0     C26004   7.206   0.425   1.397 -0.7170 -0.3112  0.3309
  189MOL0     C26005   7.150   0.302   1.466 -0.1983 -0.3266  0.1308
  189MOL0     C26006   7.158   0.176   1.378 -0.1940 -0.2205 -0.3686
  189MOL0     C26007   7.026   0.092   1.375  0.2952 -0.1215  0.7116
  189MOL0     C26008   7.008   0.018   1.498 -0.2748 -0.6246 -0.3478
  189MOL0     C26009   7.009  -0.044   1.603 -0.2433 -0.8636  0.0043
  189MOL0     C26010   7.277   0.646   1.253 -0.4393 -0.0077  0.4575
  189MOL0     C26011   7.302   0.762   1.177  0.2585 -0.4651 -0.4282
  189MOL0     C26012   7.411   0.854   1.227 -0.0127  0.0509 -0.5094
  189MOL0     H26013   7.146   1.086   0.793 -1.5332  1.0216 -0.3163
  189MOL0     H26014   7.064   1.319   0.737 -3.0777  0.8061  2.5484
  189MOL0     H26015   6.977   1.561   1.014 -2.6904 -1.0032 -1.5816
  189MOL0     H26016   6.926   1.583   0.849 -2.7141 -1.0484  3.0757
  189MOL0     H26017   7.134   1.769   0.966 -0.3065  2.2260  2.1961
  189MOL0     H26018   7.026   1.782   0.827  1.4876 -2.3655 -0.0880
  189MOL0     H26019   6.831   1.776   1.012  0.7005 -2.5547  1.2120
  189MOL0     H26020   6.956   1.762   1.122 -3.5884 -0.4646  0.5560
  189MOL0     H26021   7.045   2.000   0.974  0.6222 -2.7362 -1.1725
  189MOL0     H26022   6.868   1.998   0.956  1.2454  2.9430  0.4560
  189MOL0     H26023   7.033   2.007   1.201  2.1978 -0.0742 -2.3614
  189MOL0     H26024   6.860   1.965   1.211  0.0298 -1.7784 -1.4515
  189MOL0     H26025   6.991   2.233   1.108  0.4132 -1.0473  0.8437
  189MOL0     H26026   6.817   2.187   1.102  0.1333  3.5144 -1.4029
  189MOL0     H26027   6.969   2.185   1.363 -0.7537  0.6196  1.9552
  189MOL0     H26028   6.799   2.183   1.349  0.1946 -0.0080 -0.9284
  189MOL0     H26029   6.887   2.418   1.396  1.0110  1.2005 -0.5358
  189MOL0     H26030   7.013   2.390   1.269  0.0148 -0.7287 -0.2987
  189MOL0     H26031   6.664   2.446   1.345  2.2892 -2.1692 -0.9674
  189MOL0     H26032   6.504   2.728   1.145  1.6945 -0.6517 -0.3256
  189MOL0     H26033   6.456   2.601   1.244  0.1195  0.0743 -0.2443
  189MOL0     H26034   6.308   2.608   1.087  1.0148  1.3124  1.8189
  189MOL0     H26035   6.425   2.578   0.951 -1.0137 -0.2812 -0.1216
  189MOL0     H26036   6.276   2.393   1.006 -0.1589  1.9003 -1.6510
  189MOL0     H26037   6.447   2.363   0.995 -0.8385  0.3146  0.0625
  189MOL0     H26038   6.344   2.437   1.266  3.1264  1.8708 -0.6242
  189MOL0     H26039   6.281   2.294   1.214 -0.0894  0.6717 -0.8507
  189MOL0     H26040   6.430   2.159   1.453 -3.0213 -0.6052 -0.8796
  189MOL0     H26041   6.410   1.843   1.540  1.2911 -2.1047 -0.7127
  189MOL0     H26042   6.448   2.001   1.591 -0.6656 -0.2437 -0.9692
  189MOL0     H26043   6.582   1.890   1.579 -1.5917 -1.2907  2.6487
  189MOL0     H26044   6.469   1.475   1.034 -0.7279 -2.9316 -1.4448
  189MOL0     H26045   6.567   1.276   0.964  0.2957  1.7870 -0.3475
  189MOL0     H26046   6.938   1.044   1.043  1.3391 -0.6681  1.6115
  189MOL0     H26047   6.989   1.206   1.104 -0.6189  0.3377  0.3698
  189MOL0     H26048   7.041   1.049   1.279  0.4470 -2.4608 -0.2694
  189MOL0     H26049   6.889   1.135   1.318  1.7573  0.0230  0.9208
  189MOL0     H26050   6.932   0.850   1.195  0.1647 -1.0661  0.6032
  189MOL0     H26051   6.767   0.926   1.224  0.7957  0.6620 -2.9256
  189MOL0     H26052   6.812   0.937   1.462 -2.1639 -2.7291  1.0227
  189MOL0     H26053   6.985   0.926   1.443 -1.9053  3.7678 -0.7591
  189MOL0     H26054   6.978   0.690   1.400  1.0425  0.1025  0.8220
  189MOL0     H26055   6.906   0.737   1.557  2.9040  1.5555  0.2488
  189MOL0     H26056   6.756   0.653   1.307 -3.8288  0.7156  0.5507
  189MOL0     H26057   6.690   0.692   1.470  1.6165  4.4952 -0.2110
  189MOL0     H26058   6.848   0.496   1.566  0.4394  0.6341 -0.9169
  189MOL0     H26059   6.863   0.441   1.408  0.3231 -1.2217  0.5395
  189MOL0     H26060   6.601   0.438   1.389 -3.9144  1.2046  1.6465
  189MOL0     H26061   6.596   0.456   1.568  0.8163 -2.8126  1.2488
  189MOL0     H26062   6.892   1.340   1.252  0.1666 -0.3485 -0.8036
  189MOL0     H26063   6.815   1.558   1.292  0.6341  0.7794 -0.6012
  189MOL0     H26064   6.625   1.878   1.095 -0.6149  1.6622  1.2144
  189MOL0     H26065   6.563   2.135   1.055 -1.2034 -0.2412  0.4318
  189MOL0     H26066   7.229   1.472   1.083 -0.0327 -0.0947 -1.3508
  189MOL0     H26067   7.301   1.248   1.148 -1.7033 -0.5496  0.7311
  189MOL0     H26068   7.093   0.690   0.917  1.3866  0.3310 -0.3867
  189MOL0     H26069   7.043   0.510   1.051 -3.1054  4.8740 -3.9032
  189MOL0     H26070   7.313   0.422   1.377 -0.7827 -2.9773  0.0206
  189MOL0     H26071   7.183   0.510   1.464 -2.0786  1.6537 -2.4135
  189MOL0     H26072   7.053   0.322   1.512 -1.1689  0.8800 -2.2487
  189MOL0     H26073   7.224   0.286   1.545 -0.6379  1.7273  1.0180
  189MOL0     H26074   7.197   0.201   1.279  1.2657 -0.6117  0.0820
  189MOL0     H26075   7.229   0.100   1.411 -2.3650 -4.8452 -5.0140
  189MOL0     H26076   7.033   0.025   1.289 -2.1791 -0.5583  0.7547
  189MOL0     H26077   6.937   0.153   1.357  0.1349 -0.1596  1.3487
  189MOL0     H26078   7.008  -0.103   1.693  2.2474  0.3112  0.8853
  189MOL0     H26079   7.336   0.632   1.343  1.1957 -0.9094 -0.7107
  189MOL0     H26080   7.484   0.790   1.278  0.0996 -0.5592 -1.4173
  189MOL0     H26081   7.467   0.898   1.145 -0.2303 -2.4205 -2.1010
  189MOL0     H26082   7.368   0.925   1.299  0.9225  0.4962 -0.3830
  190MOL0     O26083   7.377   4.071   2.820 -0.3854  0.1911 -0.4259
  190MOL0     C26084   7.360   3.976   2.756  0.0140  1.3707 -0.3855
  190MOL0     O26085   7.244   3.947   2.692 -0.3815  0.0560 -0.0377
  190MOL0     C26086   7.147   4.040   2.680  0.6214  0.0295  0.5025
  190MOL0     C26087   7.029   4.036   2.767  0.5378 -0.2638 -0.0383
  190MOL0     C26088   6.918   4.119   2.747 -0.9546  0.1677  1.6063
  190MOL0     C26089   6.915   4.199   2.626  0.9005 -0.3570 -0.7726
  190MOL0     O26090   6.801   4.251   2.576  0.2627 -0.1496 -0.0623
  190MOL0     C26091   6.684   4.288   2.654 -0.3207 -0.3377 -1.2004
  190MOL0     C26092   6.565   4.197   2.626 -0.4146 -0.1682 -0.3687
  190MOL0     C26093   6.560   4.053   2.701 -0.9352  0.4078  0.2095
  190MOL0     C26094   6.434   3.981   2.655 -0.0712 -1.0191  0.0907
  190MOL0     C26095   6.359   3.918   2.778  0.5055  0.5290  0.7556
  190MOL0     C26096   6.256   3.821   2.717 -0.0817  1.0831  0.3626
  190MOL0     C26097   6.171   3.887   2.604 -1.0795  0.6846 -0.7150
  190MOL0     C26098   6.047   3.804   2.571 -0.0174 -0.5197  0.3210
  190MOL0     N26099   5.968   3.807   2.692 -0.5745  0.2834  0.1573
  190MOL0     C26100   5.874   3.906   2.717  1.2262 -0.1328  0.6992
  190MOL0     C26101   5.761   3.842   2.787 -0.2297 -0.2621 -0.3411
  190MOL0     C26102   5.635   3.907   2.838 -0.6435  0.5316 -0.3089
  190MOL0     C26103   5.658   3.981   2.966 -0.7186 -0.0544  0.7625
  190MOL0     C26104   5.637   3.908   3.098  0.2791  0.3791  0.6168
  190MOL0     C26105   5.644   4.005   3.212  0.0528 -0.3506  0.3993
  190MOL0     O26106   5.666   3.944   3.338  0.9322 -0.3289 -0.2525
  190MOL0     C26107   5.719   4.021   3.441  0.2325  0.5376  0.2657
  190MOL0     C26108   5.634   4.087   3.534 -0.0384 -0.7222  0.2483
  190MOL0     C26109   5.694   4.146   3.650  0.2196 -0.0943  0.0767
  190MOL0     C26110   5.590   4.186   3.747 -0.9746 -0.7116  0.1565
  190MOL0     C26111   5.835   4.141   3.672 -0.4904 -0.5704  0.2681
  190MOL0     C26112   5.910   4.185   3.789  0.1938  0.3814 -0.3959
  190MOL0     O26113   5.866   4.266   3.886  0.7387 -0.5923  1.3339
  190MOL0     C26114   5.936   4.296   3.994  0.6654 -0.7131 -0.8900
  190MOL0     C26115   6.071   4.327   3.998 -1.3935  0.5068 -0.4132
  190MOL0     C26116   6.129   4.379   4.111  0.2192 -0.6897 -1.1573
  190MOL0     C26117   6.047   4.411   4.221 -0.0726  0.1959 -0.2097
  190MOL0     O26118   6.100   4.456   4.342  0.1435  0.1907 -0.8647
  190MOL0     C26119   6.241   4.463   4.360 -0.3819 -0.2745 -0.2306
  190MOL0     C26120   6.299   4.491   4.497  0.2288  0.7107  0.7208
  190MOL0     C26121   6.249   4.394   4.597  0.0561 -0.0620 -0.0518
  190MOL0     C26122   6.250   4.457   4.732  0.7107  0.5027 -0.0116
  190MOL0     C26123   6.224   4.350   4.845 -0.0083 -0.0228  0.6151
  190MOL0     C26124   6.199   4.409   4.979 -0.4052 -0.1938 -1.3059
  190MOL0     C26125   6.310   4.405   5.083  0.5445 -0.1205  0.1608
  190MOL0     C26126   6.274   4.454   5.222  0.1793  0.0010  1.0321
  190MOL0    Cl26127   6.241   4.628   5.216 -0.1953  0.1830  0.1970
  190MOL0     C26128   5.908   4.402   4.215  0.7085  1.0097  0.5977
  190MOL0     C26129   5.847   4.342   4.097  0.3813  0.9172  0.4510
  190MOL0     O26130   6.006   4.108   3.803  0.0590 -0.5884  0.5145
  190MOL0     C26131   5.915   4.092   3.566  0.0521  0.5299 -0.0131
  190MOL0     C26132   5.857   4.030   3.457  0.2871 -0.0373 -0.4603
  190MOL0     N26133   5.796   3.712   2.798 -0.3762  0.6433 -0.3286
  190MOL0     N26134   5.912   3.693   2.751 -0.2843 -0.2551  0.7331
  190MOL0     C26135   7.033   4.209   2.554  0.9089  0.3923 -0.8790
  190MOL0     C26136   7.147   4.135   2.583  0.0578 -0.7072 -0.3298
  190MOL0     C26137   7.472   3.867   2.762  0.5274  0.0543 -0.9616
  190MOL0     C26138   7.432   3.734   2.724  0.7840  1.2287 -0.0011
  190MOL0     C26139   7.504   3.617   2.722 -0.5190 -0.5315 -0.1520
  190MOL0     C26140   7.639   3.629   2.752  0.0783  0.6256 -0.1334
  190MOL0     O26141   7.715   3.515   2.751 -0.1081 -0.4261  0.4933
  190MOL0     C26142   7.731   3.457   2.624  0.0323  0.4599 -0.0208
  190MOL0     C26143   7.869   3.490   2.562 -1.1863  0.2453  1.1386
  190MOL0     C26144   7.988   3.538   2.648  0.5992 -0.2191  0.9394
  190MOL0     C26145   8.027   3.424   2.748  0.0077  0.5620 -0.3111
  190MOL0     C26146   8.138   3.457   2.841  0.0082 -0.8679  0.0768
  190MOL0     C26147   8.208   3.501   2.929  0.5941 -0.0129  1.1114
  190MOL0     C26148   7.690   3.754   2.801 -0.0067  0.7257  0.2978
  190MOL0     C26149   7.607   3.874   2.805 -0.7283 -0.5529 -0.5315
  190MOL0     C26150   7.677   4.003   2.855 -0.5801  0.1543 -0.1502
  190MOL0     H26151   7.017   3.963   2.847 -3.7013 -1.5425 -1.5791
  190MOL0     H26152   6.828   4.093   2.802 -3.8336  2.2997 -1.6501
  190MOL0     H26153   6.663   4.395   2.642 -1.7574 -0.3830  0.4566
  190MOL0     H26154   6.700   4.288   2.763 -1.7779 -1.2404 -0.9640
  190MOL0     H26155   6.473   4.246   2.658 -0.8032  0.9383 -2.9519
  190MOL0     H26156   6.544   4.183   2.519 -0.9924  0.3199 -0.3235
  190MOL0     H26157   6.649   3.994   2.677  0.2611 -0.9317  6.2491
  190MOL0     H26158   6.559   4.061   2.810 -0.0931  1.5514  0.1469
  190MOL0     H26159   6.354   4.044   2.615 -1.6435 -3.7702 -1.4631
  190MOL0     H26160   6.452   3.899   2.584  1.6704  0.8785 -1.8010
  190MOL0     H26161   6.319   3.991   2.847 -0.1132  0.4699  0.4634
  190MOL0     H26162   6.429   3.858   2.838  3.3029 -0.2913 -2.9422
  190MOL0     H26163   6.313   3.740   2.671  2.4799  2.4987  0.8451
  190MOL0     H26164   6.194   3.776   2.796  0.9082 -2.3713 -0.6748
  190MOL0     H26165   6.221   3.901   2.507 -1.3331  4.0654 -0.4998
  190MOL0     H26166   6.132   3.987   2.628 -2.0750 -0.2936  2.1594
  190MOL0     H26167   5.988   3.856   2.495 -0.2515 -1.8119 -0.4186
  190MOL0     H26168   6.066   3.701   2.538 -0.4326 -0.6123  0.3680
  190MOL0     H26169   5.882   4.010   2.688  3.7806  0.2256  2.3070
  190MOL0     H26170   5.561   3.826   2.849  2.4255 -2.3224  1.3376
  190MOL0     H26171   5.598   3.981   2.767  0.9094 -0.2816 -2.0341
  190MOL0     H26172   5.751   4.037   2.959  1.2581 -3.1761 -0.4455
  190MOL0     H26173   5.579   4.056   2.954  2.4599  3.4733  0.1065
  190MOL0     H26174   5.539   3.860   3.092 -0.9814  2.9222 -1.3582
  190MOL0     H26175   5.716   3.833   3.113 -1.3319 -1.8510 -1.1473
  190MOL0     H26176   5.716   4.084   3.188 -0.5073 -0.5990 -2.3951
  190MOL0     H26177   5.551   4.063   3.219  0.3154 -0.1181  3.6563
  190MOL0     H26178   5.528   4.094   3.510 -0.0214 -0.4328  0.2570
  190MOL0     H26179   5.557   4.290   3.744  1.2966  0.0579 -0.1283
  190MOL0     H26180   5.629   4.185   3.849  0.0812  4.7437  0.1139
  190MOL0     H26181   5.511   4.111   3.741  0.0513 -1.7407 -3.3021
  190MOL0     H26182   6.132   4.307   3.910 -1.4088 -0.7566 -0.1595
  190MOL0     H26183   6.237   4.389   4.116  0.0153  2.7677  4.3917
  190MOL0     H26184   6.297   4.375   4.327  3.3899  0.8211  2.5326
  190MOL0     H26185   6.285   4.548   4.306  2.2916 -1.6373 -0.3613
  190MOL0     H26186   6.406   4.512   4.496  0.2942  0.3932 -0.6899
  190MOL0     H26187   6.258   4.591   4.514  1.1918  1.3669 -0.5970
  190MOL0     H26188   6.318   4.310   4.606  2.3695  1.6097 -1.3630
  190MOL0     H26189   6.147   4.355   4.585  0.0347 -0.3994  1.1202
  190MOL0     H26190   6.163   4.523   4.738 -3.3138 -4.3488  1.7992
  190MOL0     H26191   6.347   4.498   4.761  0.7366  0.2204  0.3032
  190MOL0     H26192   6.148   4.276   4.816  0.6972 -0.0837 -1.2493
  190MOL0     H26193   6.320   4.297   4.843  0.5932  1.0680 -0.2337
  190MOL0     H26194   6.123   4.338   5.012 -0.8004 -0.5353 -2.8710
  190MOL0     H26195   6.173   4.515   4.971  0.1359 -0.1514 -2.8099
  190MOL0     H26196   6.400   4.455   5.045  1.9587 -0.4246  2.8598
  190MOL0     H26197   6.328   4.299   5.103 -3.1808 -1.3044 -1.7759
  190MOL0     H26198   6.359   4.436   5.288 -1.4736 -1.9725  2.7907
  190MOL0     H26199   6.184   4.420   5.274  0.1090 -0.2439  0.7508
  190MOL0     H26200   5.840   4.422   4.298 -0.1211  0.3031  0.1044
  190MOL0     H26201   5.739   4.335   4.091  0.5951 -3.0138 -2.3060
  190MOL0     H26202   6.023   4.083   3.565 -0.0883 -2.0594  1.6197
  190MOL0     H26203   5.926   3.970   3.399 -0.9881 -1.9827 -0.0785
  190MOL0     H26204   7.038   4.281   2.473  3.6687  0.7111 -0.5447
  190MOL0     H26205   7.236   4.147   2.522 -1.4706  1.0336 -2.3939
  190MOL0     H26206   7.335   3.725   2.676 -0.0459  3.8671  1.0539
  190MOL0     H26207   7.461   3.519   2.702  0.5220 -1.1140  0.3670
  190MOL0     H26208   7.725   3.349   2.634  0.0261  0.1893 -2.2964
  190MOL0     H26209   7.645   3.484   2.561  0.7842  0.2963 -1.1588
  190MOL0     H26210   7.858   3.561   2.480 -1.0803  0.1902  1.0771
  190MOL0     H26211   7.895   3.397   2.511 -3.3393  1.9817 -3.7913
  190MOL0     H26212   8.078   3.562   2.591  0.9050  0.4636  1.6889
  190MOL0     H26213   7.967   3.634   2.697  0.4443  0.4657 -0.4072
  190MOL0     H26214   8.049   3.334   2.690 -0.6823  0.0184  0.2458
  190MOL0     H26215   7.937   3.409   2.808 -0.1996 -0.0142 -0.7504
  190MOL0     H26216   8.284   3.532   2.997  1.5412 -2.0156  1.0501
  190MOL0     H26217   7.791   3.753   2.839 -0.4927  0.5606  1.6605
  190MOL0     H26218   7.630   4.102   2.848  1.8465  1.4793  1.1202
  190MOL0     H26219   7.690   3.991   2.963 -0.6546  1.2323 -0.0145
  190MOL0     H26220   7.777   4.010   2.811 -0.8979 -1.2993 -1.1837
  191MOL0     O26221   9.081   1.701   5.016 -0.3286  0.1685  0.0331
  191MOL0     C26222   9.046   1.735   4.901 -0.3841 -0.1928 -0.6940
  191MOL0     O26223   8.916   1.726   4.861  0.5710 -0.4570  0.1292
  191MOL0     C26224   8.811   1.672   4.926 -0.5860 -0.0773  0.0332
  191MOL0     C26225   8.740   1.748   5.028  0.1006 -0.6796 -1.5391
  191MOL0     C26226   8.654   1.681   5.121 -0.8056 -0.1858 -0.8980
  191MOL0     C26227   8.613   1.536   5.094 -0.8552 -0.5933 -0.6242
  191MOL0     O26228   8.522   1.464   5.163  0.3216 -0.3854  0.3853
  191MOL0     C26229   8.383   1.514   5.159  0.4297 -0.2027 -0.5074
  191MOL0     C26230   8.329   1.560   5.025 -0.1667  0.0966  0.3567
  191MOL0     C26231   8.180   1.588   5.011  0.4504 -0.1385  0.0275
  191MOL0     C26232   8.093   1.463   5.045  0.4737  0.4026  0.0419
  191MOL0     C26233   7.941   1.502   5.019 -0.2770  0.2680 -0.7407
  191MOL0     C26234   7.865   1.370   5.043  1.2363  0.8115  0.0346
  191MOL0     C26235   7.720   1.403   5.054  0.3061  0.2377  0.2456
  191MOL0     C26236   7.635   1.274   5.073 -0.2007 -0.3078 -0.2382
  191MOL0     N26237   7.492   1.316   5.111 -0.2743 -0.0401  0.3561
  191MOL0     C26238   7.416   1.261   5.204  0.8554 -0.2899 -0.0959
  191MOL0     C26239   7.300   1.328   5.214  1.5618 -0.0626  0.4082
  191MOL0     C26240   7.179   1.288   5.294  0.5558 -1.1430  0.1155
  191MOL0     C26241   7.137   1.148   5.271 -0.0057 -0.1760 -0.5658
  191MOL0     C26242   7.206   1.051   5.365 -0.3626 -0.1912 -0.5726
  191MOL0     C26243   7.127   0.926   5.392  0.3014  0.7940  1.1885
  191MOL0     O26244   7.215   0.812   5.414 -0.4981  0.6129 -0.8111
  191MOL0     C26245   7.142   0.706   5.457 -0.1537  0.5861  0.6700
  191MOL0     C26246   7.074   0.696   5.578 -0.0360 -0.2107 -0.3273
  191MOL0     C26247   7.006   0.584   5.621 -0.6582 -0.4293 -0.7240
  191MOL0     C26248   6.953   0.578   5.758  0.2622 -0.5656  0.5782
  191MOL0     C26249   6.996   0.483   5.530  0.0699  0.5294  0.7886
  191MOL0     C26250   6.908   0.368   5.564  0.3638  0.0466 -0.5051
  191MOL0     O26251   6.769   0.394   5.562 -0.7337  0.5723 -1.0000
  191MOL0     C26252   6.690   0.296   5.614  0.0900  0.7964 -0.7878
  191MOL0     C26253   6.638   0.299   5.737 -0.0815  0.1355  0.1412
  191MOL0     C26254   6.568   0.190   5.793  0.2888  0.2124 -0.1275
  191MOL0     C26255   6.561   0.074   5.713 -0.5984 -0.7892 -0.0395
  191MOL0     O26256   6.489  -0.034   5.757 -0.3212 -0.1443 -0.6709
  191MOL0     C26257   6.548  -0.094   5.866 -0.5051 -0.3804 -0.8400
  191MOL0     C26258   6.484  -0.225   5.904 -0.5874 -0.2920  0.4622
  191MOL0     C26259   6.528  -0.264   6.052  0.0345 -0.8055  0.3806
  191MOL0     C26260   6.461  -0.394   6.103 -1.0821 -0.1724  0.1403
  191MOL0     C26261   6.549  -0.432   6.231  0.0201  0.3442  0.3315
  191MOL0     C26262   6.507  -0.567   6.279 -0.7365  0.8585 -0.0339
  191MOL0     C26263   6.366  -0.557   6.338 -0.1832 -0.0666 -0.1715
  191MOL0     C26264   6.333  -0.685   6.412  0.5339 -0.9404 -0.7685
  191MOL0    Cl26265   6.439  -0.698   6.556 -0.5942  0.1272  0.2384
  191MOL0     C26266   6.615   0.074   5.584  0.5167 -0.0516 -0.2500
  191MOL0     C26267   6.671   0.182   5.532 -0.4249 -0.9543 -0.6867
  191MOL0     O26268   6.966   0.260   5.576  0.5117 -0.0667  0.5058
  191MOL0     C26269   7.042   0.493   5.402 -0.3388  0.5571 -0.4007
  191MOL0     C26270   7.119   0.602   5.363  0.4372  0.2507 -0.0855
  191MOL0     N26271   7.317   1.433   5.128 -0.3277 -0.2325 -1.1724
  191MOL0     N26272   7.432   1.427   5.072  0.7678 -0.3988  0.3532
  191MOL0     C26273   8.691   1.469   5.004  0.7020 -0.0212  0.0484
  191MOL0     C26274   8.786   1.533   4.922  0.7498 -0.5254  0.0322
  191MOL0     C26275   9.138   1.791   4.806 -0.4320 -0.2163  0.3854
  191MOL0     C26276   9.273   1.777   4.832 -0.1881  1.7192  0.2786
  191MOL0     C26277   9.373   1.835   4.753  0.0891  0.1285 -1.0635
  191MOL0     C26278   9.340   1.893   4.640  0.4757 -0.3140 -0.2435
  191MOL0     O26279   9.444   1.935   4.566  0.0296 -0.0409 -0.0933
  191MOL0     C26280   9.446   1.942   4.421 -0.6101  0.2522  0.1052
  191MOL0     C26281   9.591   1.945   4.364 -1.0770  0.2625  0.3380
  191MOL0     C26282   9.600   1.974   4.215 -0.3945  0.1347  0.5085
  191MOL0     C26283   9.536   1.868   4.133 -0.9770  0.0453 -0.4163
  191MOL0     C26284   9.485   1.914   4.001 -0.6347 -1.1966 -0.0158
  191MOL0     C26285   9.442   1.959   3.897  1.3129 -0.1770 -0.2429
  191MOL0     C26286   9.201   1.916   4.606  0.3112  0.3588  0.2026
  191MOL0     C26287   9.099   1.870   4.691 -0.5050  0.0283 -0.2157
  191MOL0     C26288   8.964   1.918   4.666 -0.4714  0.7358  0.2765
  191MOL0     H26289   8.761   1.854   5.033  0.6489 -0.8399  0.0011
  191MOL0     H26290   8.604   1.727   5.206 -1.4832  2.3286 -2.5322
  191MOL0     H26291   8.361   1.589   5.235 -0.1492 -1.9395  1.1032
  191MOL0     H26292   8.312   1.432   5.173 -1.5308  0.9322 -3.0170
  191MOL0     H26293   8.379   1.655   5.004  0.6701 -0.9387 -2.9609
  191MOL0     H26294   8.358   1.479   4.958  3.7990  0.6906  1.0750
  191MOL0     H26295   8.155   1.681   5.064 -2.4704  0.6284 -2.4072
  191MOL0     H26296   8.162   1.609   4.905 -0.5886 -1.3537 -0.0620
  191MOL0     H26297   8.133   1.372   4.998 -0.1949  0.5117 -0.7733
  191MOL0     H26298   8.092   1.435   5.151  0.3145 -0.5633 -0.1990
  191MOL0     H26299   7.933   1.547   4.920  1.9057  3.8621  0.5320
  191MOL0     H26300   7.903   1.587   5.077 -2.0186  1.0409 -2.8596
  191MOL0     H26301   7.881   1.298   4.962  3.1347  2.7801 -1.4668
  191MOL0     H26302   7.895   1.329   5.139 -1.4318 -3.4495 -0.6704
  191MOL0     H26303   7.696   1.453   4.960 -0.0959  2.3948  1.4467
  191MOL0     H26304   7.710   1.464   5.144 -0.5638 -2.9066  2.4572
  191MOL0     H26305   7.624   1.218   4.980  1.0067 -1.3151  0.2076
  191MOL0     H26306   7.670   1.210   5.154 -0.6050  0.0721  0.2394
  191MOL0     H26307   7.435   1.169   5.259 -0.9615 -0.4315  0.3654
  191MOL0     H26308   7.094   1.353   5.272 -0.1423 -2.6176 -1.7887
  191MOL0     H26309   7.207   1.304   5.399 -2.0855 -1.3147  0.9056
  191MOL0     H26310   7.029   1.148   5.287  0.0008  4.3267  0.9640
  191MOL0     H26311   7.154   1.120   5.166  0.4023  0.5511 -0.7067
  191MOL0     H26312   7.304   1.030   5.321 -1.4874 -0.0120 -3.4264
  191MOL0     H26313   7.215   1.095   5.465 -5.2167  3.1158 -1.2711
  191MOL0     H26314   7.057   0.935   5.476  0.4926 -0.4375  1.5029
  191MOL0     H26315   7.071   0.903   5.301 -0.4518 -0.9540  2.0418
  191MOL0     H26316   7.081   0.772   5.656 -4.4516 -0.4653  0.5848
  191MOL0     H26317   7.032   0.620   5.821  3.8456 -3.7939 -1.3368
  191MOL0     H26318   6.934   0.474   5.785 -0.4611 -0.2974  1.1221
  191MOL0     H26319   6.854   0.623   5.771 -0.3117 -1.8668  0.9614
  191MOL0     H26320   6.651   0.394   5.790 -0.4764 -0.1166  0.7012
  191MOL0     H26321   6.537   0.191   5.897  2.3585  3.1652  0.5875
  191MOL0     H26322   6.653  -0.115   5.842 -0.3790 -1.7737  0.7271
  191MOL0     H26323   6.554  -0.022   5.949  0.2668 -1.3388 -0.0435
  191MOL0     H26324   6.376  -0.208   5.905 -0.0462  5.7303 -1.5693
  191MOL0     H26325   6.523  -0.306   5.841 -0.0011  1.4334 -1.5236
  191MOL0     H26326   6.520  -0.190   6.132  0.2214  0.9667 -1.1644
  191MOL0     H26327   6.635  -0.278   6.035 -0.1852  1.1445 -4.0254
  191MOL0     H26328   6.460  -0.475   6.029 -0.5980 -0.4215  0.3967
  191MOL0     H26329   6.361  -0.373   6.141 -0.9982 -2.1671  1.6343
  191MOL0     H26330   6.655  -0.428   6.205  0.5215  2.2116  2.3975
  191MOL0     H26331   6.529  -0.356   6.307 -0.0684 -0.6677  1.3459
  191MOL0     H26332   6.581  -0.580   6.358 -0.6418  1.2030 -0.0660
  191MOL0     H26333   6.522  -0.648   6.207  2.9403  1.9950 -0.7507
  191MOL0     H26334   6.290  -0.532   6.264  0.3141  3.8260  0.3771
  191MOL0     H26335   6.366  -0.483   6.419  2.5563 -1.0293  0.8196
  191MOL0     H26336   6.337  -0.776   6.352 -0.3241 -2.2316  1.0252
  191MOL0     H26337   6.228  -0.672   6.440  0.7031  0.4799 -0.6851
  191MOL0     H26338   6.600  -0.012   5.519  1.9892 -0.9006  0.4662
  191MOL0     H26339   6.715   0.173   5.434  0.3198 -0.6194 -0.3985
  191MOL0     H26340   7.024   0.418   5.326 -0.0711 -1.2930  1.2943
  191MOL0     H26341   7.165   0.605   5.264 -0.1858 -2.3097 -0.5292
  191MOL0     H26342   8.666   1.366   4.977 -0.9733  0.2138  0.5801
  191MOL0     H26343   8.856   1.473   4.865 -0.4966 -1.5093 -0.5186
  191MOL0     H26344   9.293   1.712   4.917 -0.8224 -2.4322 -2.4374
  191MOL0     H26345   9.478   1.824   4.777 -0.6618 -3.1661  1.4124
  191MOL0     H26346   9.376   1.866   4.385 -1.7169  2.0455 -1.7103
  191MOL0     H26347   9.417   2.044   4.393  1.0742  0.7031 -0.1125
  191MOL0     H26348   9.644   1.850   4.377 -0.6092  0.6591  1.4032
  191MOL0     H26349   9.647   2.010   4.431  1.6312 -0.2039 -1.3106
  191MOL0     H26350   9.547   2.069   4.203  1.1370  0.6512 -3.7232
  191MOL0     H26351   9.703   1.988   4.180 -0.1483  2.5991  2.0084
  191MOL0     H26352   9.454   1.822   4.190 -0.6207  1.9126  1.7376
  191MOL0     H26353   9.607   1.786   4.122 -2.7328 -1.7155  0.6855
  191MOL0     H26354   9.403   2.021   3.819  0.6346 -0.2186  0.0607
  191MOL0     H26355   9.178   1.979   4.520 -0.9467  0.9547  0.9379
  191MOL0     H26356   8.957   1.998   4.591 -1.5846 -0.3548 -0.8308
  191MOL0     H26357   8.893   1.842   4.633  0.1122  1.2574 -2.4157
  191MOL0     H26358   8.929   1.962   4.760  1.4644 -0.0931  1.4478
  192MOL0     O26359  11.398   1.094  10.121 -0.2234 -0.6368 -0.5821
  192MOL0     C26360  11.370   1.028  10.022 -0.2760 -0.3135 -0.2344
  192MOL0     O26361  11.286   1.073   9.923 -0.0200  0.3199  0.0217
  192MOL0     C26362  11.231   1.188   9.949  0.0994  0.4589 -0.0368
  192MOL0     C26363  11.099   1.214   9.999  0.4669  0.3296 -0.2124
  192MOL0     C26364  11.044   1.342  10.017 -0.4162 -0.2698 -0.1818
  192MOL0     C26365  11.127   1.454   9.992  0.5984 -0.3998  0.4652
  192MOL0     O26366  11.092   1.586  10.008  0.0640 -0.3864  0.2174
  192MOL0     C26367  10.990   1.605  10.110  0.6164  0.3701 -0.1850
  192MOL0     C26368  10.975   1.755  10.124 -0.6318  0.2554  0.0809
  192MOL0     C26369  11.097   1.820  10.198 -0.3533 -0.1901 -0.9571
  192MOL0     C26370  11.115   1.787  10.340 -0.1832  0.3749 -0.2642
  192MOL0     C26371  11.244   1.740  10.384  0.1503 -1.1971 -0.2377
  192MOL0     C26372  11.279   1.604  10.333 -0.0939  0.3996 -1.0060
  192MOL0     C26373  11.202   1.493  10.413 -0.4991  0.3152  0.5260
  192MOL0     C26374  11.254   1.360  10.367 -1.0109  0.6917  0.0303
  192MOL0     N26375  11.364   1.310  10.446 -1.3579  0.2789 -0.0666
  192MOL0     C26376  11.476   1.378  10.492  0.3381 -0.7461  1.0536
  192MOL0     C26377  11.549   1.289  10.553  0.1604  0.1917  0.1690
  192MOL0     C26378  11.683   1.320  10.610  0.0747 -0.6695 -1.3199
  192MOL0     C26379  11.691   1.297  10.767 -1.0862  0.9385  0.1551
  192MOL0     C26380  11.694   1.146  10.799 -0.8255  0.9826  1.0091
  192MOL0     C26381  11.652   1.127  10.950  0.3078 -0.4441  0.8398
  192MOL0     O26382  11.740   1.200  11.034  0.0585 -0.9078  0.2110
  192MOL0     C26383  11.702   1.204  11.162 -0.2215  0.0851  0.3198
  192MOL0     C26384  11.756   1.293  11.259 -0.3564 -0.4608 -0.0607
  192MOL0     C26385  11.703   1.320  11.384  0.0960 -0.7306  0.2248
  192MOL0     C26386  11.767   1.438  11.470  0.1659  1.0176  0.8496
  192MOL0     C26387  11.593   1.246  11.423  0.1427 -0.0797 -0.0789
  192MOL0     C26388  11.517   1.266  11.555  0.3439 -1.1867 -0.1002
  192MOL0     O26389  11.582   1.324  11.663  0.2082 -0.5015 -0.6819
  192MOL0     C26390  11.496   1.354  11.765 -0.4531 -0.4504  0.3310
  192MOL0     C26391  11.475   1.260  11.870  0.1041 -0.1030 -0.6217
  192MOL0     C26392  11.388   1.287  11.972  0.9200  0.0231 -0.7296
  192MOL0     C26393  11.316   1.407  11.971  0.4176 -0.1775  0.3884
  192MOL0     O26394  11.221   1.421  12.071 -0.7406 -0.8788 -0.2767
  192MOL0     C26395  11.159   1.547  12.086  0.0518 -0.8677 -0.7689
  192MOL0     C26396  11.059   1.531  12.198 -0.3467 -0.3268  0.1620
  192MOL0     C26397  11.122   1.513  12.344  0.5005  1.3537 -0.1123
  192MOL0     C26398  11.225   1.621  12.376 -0.2381 -0.9220 -0.5622
  192MOL0     C26399  11.294   1.627  12.517 -1.0932 -0.1662  0.5014
  192MOL0     C26400  11.393   1.510  12.524 -0.1747  1.6375  0.4726
  192MOL0     C26401  11.430   1.469  12.672  0.0104  0.7268  0.4096
  192MOL0     C26402  11.494   1.575  12.756 -0.3922 -0.8600  0.1722
  192MOL0    Cl26403  11.635   1.644  12.652 -0.1316 -0.0332  0.3485
  192MOL0     C26404  11.327   1.490  11.867  0.0550  0.1490 -0.7611
  192MOL0     C26405  11.427   1.471  11.769 -0.3059  0.1934 -0.3262
  192MOL0     O26406  11.396   1.239  11.553  1.2046  0.1647 -0.2055
  192MOL0     C26407  11.546   1.145  11.343  0.3994  0.4091 -0.2030
  192MOL0     C26408  11.605   1.117  11.219  0.1461 -0.6308 -0.2999
  192MOL0     N26409  11.481   1.167  10.536  0.9855 -0.7954 -0.6300
  192MOL0     N26410  11.374   1.179  10.461  0.6670  0.0294 -1.1442
  192MOL0     C26411  11.249   1.436   9.925 -0.4512  0.0727 -0.7132
  192MOL0     C26412  11.294   1.304   9.903 -0.3765 -1.3064  0.6175
  192MOL0     C26413  11.430   0.909  10.001  0.0164  0.1892  0.7120
  192MOL0     C26414  11.355   0.789   9.997 -0.3430  0.2143  0.3739
  192MOL0     C26415  11.415   0.663   9.956  0.5420 -0.6191  0.9834
  192MOL0     C26416  11.548   0.656   9.942 -0.4879 -0.1572 -0.9696
  192MOL0     O26417  11.612   0.534   9.940 -0.0164  0.3837 -0.4081
  192MOL0     C26418  11.534   0.421   9.895  0.1206  0.5035  0.6662
  192MOL0     C26419  11.479   0.347  10.021  0.4805  0.7274 -0.5507
  192MOL0     C26420  11.386   0.233   9.998 -0.0318 -0.8319  0.2397
  192MOL0     C26421  11.327   0.181  10.120  0.3734 -0.9901 -0.3605
  192MOL0     C26422  11.256   0.048  10.103 -0.4577 -0.5685  0.9302
  192MOL0     C26423  11.194  -0.058  10.078  0.0643  0.0692  0.9004
  192MOL0     C26424  11.625   0.768   9.950 -0.3370 -0.2792  0.7765
  192MOL0     C26425  11.568   0.901   9.972 -0.0918  0.8923  0.1213
  192MOL0     C26426  11.664   1.018   9.966  0.2996  0.5674 -0.3409
  192MOL0     H26427  11.045   1.126  10.031  0.5448  1.7500  4.7366
  192MOL0     H26428  10.958   1.356  10.081  1.3881  1.2440  2.1038
  192MOL0     H26429  11.018   1.554  10.203 -1.8740 -0.7472  0.0374
  192MOL0     H26430  10.892   1.568  10.080  0.5931  0.6488 -0.4568
  192MOL0     H26431  10.972   1.811  10.031 -0.5458  5.9587  3.0794
  192MOL0     H26432  10.895   1.792  10.190  0.9944  0.4208  2.0732
  192MOL0     H26433  11.187   1.791  10.141 -1.5184 -1.0464 -2.4375
  192MOL0     H26434  11.085   1.928  10.184 -1.8738 -0.1355  0.5429
  192MOL0     H26435  11.116   1.882  10.395  2.3085  0.0824  0.3333
  192MOL0     H26436  11.037   1.716  10.369  0.1132 -0.6537 -1.8587
  192MOL0     H26437  11.246   1.753  10.493  0.6935  4.3373 -0.6267
  192MOL0     H26438  11.324   1.803  10.346 -1.5869 -0.0725 -2.2153
  192MOL0     H26439  11.256   1.584  10.228 -0.0071 -0.8641 -0.7946
  192MOL0     H26440  11.387   1.590  10.333 -0.0253  0.3064 -4.0871
  192MOL0     H26441  11.095   1.501  10.388  0.0375  3.0265 -1.4528
  192MOL0     H26442  11.214   1.508  10.520 -1.0403 -0.8823  0.7658
  192MOL0     H26443  11.173   1.290  10.390  0.4065 -0.4935  1.7572
  192MOL0     H26444  11.273   1.362  10.260  0.1281 -0.6252  0.1855
  192MOL0     H26445  11.506   1.480  10.466 -0.0245 -0.0592  3.1121
  192MOL0     H26446  11.695   1.429  10.600 -2.8158 -0.3237 -1.8782
  192MOL0     H26447  11.766   1.274  10.556 -1.7506 -3.0336 -2.3192
  192MOL0     H26448  11.774   1.352  10.810  0.0658 -1.7007  1.5279
  192MOL0     H26449  11.604   1.331  10.823 -2.5534 -4.3744  1.7474
  192MOL0     H26450  11.626   1.097  10.729  0.4610 -0.8989  1.0147
  192MOL0     H26451  11.793   1.102  10.780 -1.5019  0.5650 -2.0898
  192MOL0     H26452  11.549   1.162  10.954  0.2905 -0.4597  0.5810
  192MOL0     H26453  11.651   1.021  10.975  3.2105 -0.5461  0.8913
  192MOL0     H26454  11.837   1.356  11.226  0.6241 -1.7507 -0.1912
  192MOL0     H26455  11.703   1.519  11.505  2.2712  1.2799  4.7712
  192MOL0     H26456  11.837   1.489  11.403 -1.5126 -1.9229 -3.6313
  192MOL0     H26457  11.802   1.381  11.557 -0.2059  2.3818  1.9244
  192MOL0     H26458  11.544   1.177  11.876  0.8822  0.6081  0.7775
  192MOL0     H26459  11.377   1.224  12.060  0.8436  1.1426  0.0876
  192MOL0     H26460  11.234   1.625  12.104 -1.4809  0.2877  1.0603
  192MOL0     H26461  11.099   1.569  11.998 -2.0464 -1.2231  0.5070
  192MOL0     H26462  10.996   1.620  12.193  1.2443  1.1834  3.7421
  192MOL0     H26463  10.994   1.443  12.188  0.6395 -0.9173 -1.6063
  192MOL0     H26464  11.157   1.412  12.366 -0.9749  1.1222  1.3850
  192MOL0     H26465  11.044   1.531  12.419  2.1307 -0.2238  2.0979
  192MOL0     H26466  11.176   1.717  12.356 -0.0502 -1.1535 -2.2523
  192MOL0     H26467  11.307   1.624  12.304  1.7349  2.3373  1.5567
  192MOL0     H26468  11.364   1.712  12.520 -1.7381  0.3758  0.3469
  192MOL0     H26469  11.212   1.618  12.589  0.1454 -4.7177  1.6722
  192MOL0     H26470  11.470   1.534  12.449 -2.3561 -0.3371 -2.6254
  192MOL0     H26471  11.353   1.421  12.475 -0.9276  1.6358  1.0876
  192MOL0     H26472  11.499   1.385  12.661 -1.3078 -0.2903 -0.4309
  192MOL0     H26473  11.345   1.438  12.735  0.9058 -1.4625  0.6332
  192MOL0     H26474  11.527   1.533  12.851  1.3225  2.0783  1.0308
  192MOL0     H26475  11.424   1.658  12.769  1.8879  0.7951  3.1936
  192MOL0     H26476  11.260   1.574  11.852 -2.0465 -1.6111 -1.8403
  192MOL0     H26477  11.435   1.544  11.689  0.1266  0.2276 -0.2501
  192MOL0     H26478  11.462   1.086  11.377  2.1763 -2.2223 -0.0485
  192MOL0     H26479  11.556   1.039  11.160 -3.1160 -0.0510  1.3716
  192MOL0     H26480  11.307   1.525   9.902 -0.9384  1.3333  2.4012
  192MOL0     H26481  11.386   1.297   9.845 -2.7748  1.1162 -4.0993
  192MOL0     H26482  11.248   0.775  10.013 -0.3412 -0.9234 -0.4685
  192MOL0     H26483  11.343   0.583   9.948  0.7542 -0.7764  0.6391
  192MOL0     H26484  11.454   0.443   9.824  1.0567 -0.8847 -0.8793
  192MOL0     H26485  11.599   0.357   9.835  0.8310  2.3486 -0.6203
  192MOL0     H26486  11.446   0.425  10.090 -0.6607  0.3561 -0.6687
  192MOL0     H26487  11.572   0.309  10.065  1.2149  3.1842  0.1781
  192MOL0     H26488  11.310   0.276   9.932  0.6479 -1.9215 -1.3210
  192MOL0     H26489  11.438   0.155   9.942  2.3797 -0.5852  1.9962
  192MOL0     H26490  11.256   0.258  10.152  0.5250 -0.7134 -0.6829
  192MOL0     H26491  11.403   0.183  10.198  1.0792  1.1970 -1.0550
  192MOL0     H26492  11.156  -0.152  10.046  0.8469  0.1099 -0.2097
  192MOL0     H26493  11.733   0.762   9.952 -0.3054  0.3739  1.6936
  192MOL0     H26494  11.724   1.013   9.875 -0.2998 -2.0793 -0.6776
  192MOL0     H26495  11.606   1.110   9.960 -1.1251 -0.3457 -0.9817
  192MOL0     H26496  11.722   1.019  10.060  0.3695  0.0186 -0.3746
  193MOL0     O26497   7.263   7.494  11.281  0.0744  0.2799  0.6791
  193MOL0     C26498   7.301   7.578  11.361 -0.0930  0.3675 -0.9542
  193MOL0     O26499   7.239   7.597  11.480  0.8351 -0.0368  0.5368
  193MOL0     C26500   7.133   7.520  11.525  0.1123  1.2198  1.1861
  193MOL0     C26501   7.154   7.415  11.611  1.1202 -0.4658 -0.6479
  193MOL0     C26502   7.048   7.338  11.652 -0.1177  0.0576 -0.5388
  193MOL0     C26503   6.920   7.374  11.628  0.8202  0.3240 -0.1681
  193MOL0     O26504   6.815   7.300  11.652  0.8030  0.4548 -0.3056
  193MOL0     C26505   6.814   7.206  11.756 -0.4316  0.1787  0.2045
  193MOL0     C26506   6.670   7.162  11.770 -0.4138  0.1550  0.5075
  193MOL0     C26507   6.601   7.271  11.853 -0.4295 -0.9309 -0.0182
  193MOL0     C26508   6.448   7.242  11.867  0.0195  0.0022 -0.7478
  193MOL0     C26509   6.370   7.360  11.923 -0.9274 -0.1949 -0.5048
  193MOL0     C26510   6.218   7.331  11.929 -0.0701 -0.1977 -0.8732
  193MOL0     C26511   6.149   7.462  11.980 -0.6673 -0.4754  0.1432
  193MOL0     C26512   5.998   7.469  11.969 -0.5714  0.0988  0.0319
  193MOL0     N26513   5.946   7.367  11.879 -0.6722 -1.0106  0.0469
  193MOL0     C26514   5.953   7.371  11.742  0.4406 -0.1875  0.0942
  193MOL0     C26515   5.861   7.283  11.702  0.0469  0.6266 -0.9287
  193MOL0     C26516   5.813   7.275  11.558 -0.4910  0.1135  0.6910
  193MOL0     C26517   5.662   7.312  11.552 -0.5729  0.2958  0.1532
  193MOL0     C26518   5.612   7.441  11.615  0.2594  0.1879  0.7611
  193MOL0     C26519   5.656   7.568  11.537  0.3929 -0.0587  0.9917
  193MOL0     O26520   5.596   7.691  11.583 -0.4351 -0.3928  0.1917
  193MOL0     C26521   5.470   7.728  11.562  0.5983  0.3775  0.3256
  193MOL0     C26522   5.408   7.845  11.611 -0.1110 -0.4950  0.5513
  193MOL0     C26523   5.286   7.898  11.557 -0.1397 -0.2263 -0.6718
  193MOL0     C26524   5.226   8.026  11.618  0.0991 -0.1630 -0.3051
  193MOL0     C26525   5.223   7.831  11.451 -0.5976  0.1489  0.2997
  193MOL0     C26526   5.101   7.875  11.386  0.7305  0.5576 -0.6419
  193MOL0     O26527   5.079   7.821  11.263  0.2631  0.1890  0.3694
  193MOL0     C26528   4.976   7.859  11.179 -0.0461  0.0054 -0.5225
  193MOL0     C26529   4.892   7.967  11.193  0.0658  1.0217  0.7766
  193MOL0     C26530   4.797   7.989  11.086 -0.1014 -0.3297 -0.4343
  193MOL0     C26531   4.781   7.898  10.979  0.4954 -0.0819 -1.2764
  193MOL0     O26532   4.692   7.919  10.880 -0.8055 -0.1010 -0.5007
  193MOL0     C26533   4.569   7.982  10.911  0.0608  0.0472  0.5115
  193MOL0     C26534   4.445   7.925  10.834 -0.1704 -0.2143  0.6649
  193MOL0     C26535   4.418   7.780  10.856 -0.2794  0.2846 -0.1221
  193MOL0     C26536   4.282   7.741  10.809  0.2411 -0.5958 -0.3050
  193MOL0     C26537   4.245   7.600  10.870  0.2644 -0.0289  0.3983
  193MOL0     C26538   4.171   7.608  11.005 -0.4841  0.0128 -0.8903
  193MOL0     C26539   4.144   7.463  11.057  0.3098 -0.4752 -0.9938
  193MOL0     C26540   4.065   7.453  11.186 -0.5485 -0.4970 -1.1098
  193MOL0    Cl26541   3.910   7.552  11.172 -0.0501  0.2828 -0.0793
  193MOL0     C26542   4.863   7.782  10.971  1.0014  0.1109 -0.1754
  193MOL0     C26543   4.954   7.767  11.074  0.0319 -0.3793 -0.1056
  193MOL0     O26544   5.025   7.960  11.445  0.0660  0.5737  0.0950
  193MOL0     C26545   5.272   7.709  11.400  0.0162 -0.0832 -0.5642
  193MOL0     C26546   5.392   7.662  11.453  0.0453 -0.8850 -0.7999
  193MOL0     N26547   5.812   7.212  11.812  1.1130 -0.5827  0.0533
  193MOL0     N26548   5.871   7.262  11.915  0.0548 -0.0193 -0.0495
  193MOL0     C26549   6.898   7.485  11.551 -1.4267 -0.3806 -0.7727
  193MOL0     C26550   7.003   7.558  11.491  0.9023  0.3538 -0.0463
  193MOL0     C26551   7.425   7.654  11.322  0.7494  0.8169 -1.0929
  193MOL0     C26552   7.497   7.616  11.210 -0.6058  0.5123 -0.0781
  193MOL0     C26553   7.598   7.692  11.159  0.1011  0.1659  0.0883
  193MOL0     C26554   7.648   7.809  11.222  0.2441 -1.1359  0.2862
  193MOL0     O26555   7.757   7.875  11.178  0.4747 -0.3955  0.1853
  193MOL0     C26556   7.789   7.879  11.030  0.3441 -0.4419 -1.1598
  193MOL0     C26557   7.675   7.939  10.946  0.1384 -0.3994  0.7795
  193MOL0     C26558   7.717   7.978  10.800  0.1441  0.7353 -0.0733
  193MOL0     C26559   7.858   8.043  10.794  0.6396  0.1543 -0.3408
  193MOL0     C26560   7.860   8.116  10.670  0.2673 -0.1917 -0.2783
  193MOL0     C26561   7.857   8.171  10.564  0.0199 -0.8858 -0.2882
  193MOL0     C26562   7.582   7.847  11.339 -0.0080 -0.0717  0.2508
  193MOL0     C26563   7.470   7.777  11.382  0.6601 -0.3231  0.3007
  193MOL0     C26564   7.395   7.833  11.499 -0.4064 -0.3115  0.9841
  193MOL0     H26565   7.258   7.394  11.636  0.3908 -1.2971  2.0046
  193MOL0     H26566   7.071   7.241  11.694 -0.7343 -1.2263 -2.9727
  193MOL0     H26567   6.850   7.250  11.849 -1.7549  1.2497  0.2389
  193MOL0     H26568   6.865   7.110  11.747 -1.3646 -0.4367  1.2249
  193MOL0     H26569   6.616   7.156  11.675 -1.2200  3.2638  0.6411
  193MOL0     H26570   6.664   7.068  11.825  0.0922 -1.2164 -1.6496
  193MOL0     H26571   6.655   7.287  11.948 -0.7647  1.8969 -0.2187
  193MOL0     H26572   6.615   7.367  11.802  1.7062 -1.1741  0.0059
  193MOL0     H26573   6.403   7.219  11.770  0.5986 -0.9025 -0.8104
  193MOL0     H26574   6.425   7.156  11.930 -2.3682  1.3627  0.4131
  193MOL0     H26575   6.381   7.454  11.869 -0.8735  0.4970  0.6652
  193MOL0     H26576   6.410   7.386  12.022  2.0592  2.0741 -2.1535
  193MOL0     H26577   6.193   7.322  11.823  1.8746  2.8587 -1.7208
  193MOL0     H26578   6.186   7.245  11.988 -1.0853 -1.8762 -3.6629
  193MOL0     H26579   6.189   7.542  11.916 -2.6677  0.3969 -0.0931
  193MOL0     H26580   6.177   7.484  12.084  1.1916  0.5131 -0.5082
  193MOL0     H26581   5.951   7.460  12.067 -1.5280 -3.4716 -0.6180
  193MOL0     H26582   5.966   7.562  11.922 -0.9858 -0.3958 -0.6747
  193MOL0     H26583   6.017   7.436  11.683  4.4699 -0.6586  3.4542
  193MOL0     H26584   5.844   7.180  11.514  1.9926  0.2946  1.8805
  193MOL0     H26585   5.866   7.351  11.501 -0.1686  0.3665  1.3144
  193MOL0     H26586   5.638   7.308  11.446 -0.8567  4.0934 -0.0707
  193MOL0     H26587   5.619   7.225  11.603  0.4731  0.6988  1.7899
  193MOL0     H26588   5.503   7.435  11.613  0.2902 -0.7091  1.1919
  193MOL0     H26589   5.648   7.439  11.719 -0.2578 -0.6091  0.9340
  193MOL0     H26590   5.764   7.576  11.554  0.4766 -2.8336  2.2255
  193MOL0     H26591   5.646   7.555  11.428 -1.3934  1.0539  0.9831
  193MOL0     H26592   5.467   7.902  11.682  1.1974 -0.1268 -0.7923
  193MOL0     H26593   5.296   8.069  11.691  2.4917 -1.0065 -1.9489
  193MOL0     H26594   5.127   8.003  11.658  0.0871  1.8768  1.0018
  193MOL0     H26595   5.211   8.104  11.543 -2.0808  0.4003  0.6626
  193MOL0     H26596   4.902   8.045  11.268 -3.0171  1.0800  1.2688
  193MOL0     H26597   4.743   8.083  11.093  0.6620  0.1712 -1.1681
  193MOL0     H26598   4.559   7.954  11.017  1.1637  1.4345  1.0055
  193MOL0     H26599   4.568   8.089  10.890 -1.0764 -0.1069 -0.3309
  193MOL0     H26600   4.364   7.986  10.876  2.6107  3.1131  1.6305
  193MOL0     H26601   4.449   7.946  10.727  1.2121  0.1145  0.7677
  193MOL0     H26602   4.421   7.767  10.965 -2.1714  4.2815  0.5865
  193MOL0     H26603   4.480   7.707  10.803 -3.1265 -1.7050 -0.9591
  193MOL0     H26604   4.270   7.749  10.701  1.2619 -0.0179 -0.3909
  193MOL0     H26605   4.201   7.802  10.848 -0.4075 -2.5329  1.6150
  193MOL0     H26606   4.191   7.541  10.795 -2.0953  0.8771  1.2914
  193MOL0     H26607   4.341   7.550  10.883  0.5353  0.5242  0.5253
  193MOL0     H26608   4.076   7.659  10.991  0.1524  0.7124 -3.2482
  193MOL0     H26609   4.234   7.667  11.072 -0.4532 -0.1904 -0.7384
  193MOL0     H26610   4.240   7.411  11.065 -0.0417 -1.1345 -1.0175
  193MOL0     H26611   4.087   7.408  10.982  0.5688  2.0413 -3.1449
  193MOL0     H26612   4.122   7.493  11.270  1.6124 -2.5259 -1.4963
  193MOL0     H26613   4.042   7.353  11.225  1.1078  0.0667  1.5190
  193MOL0     H26614   4.857   7.710  10.891  1.2178 -0.2501  0.1311
  193MOL0     H26615   5.015   7.679  11.062 -3.4576 -3.4248  2.3050
  193MOL0     H26616   5.227   7.646  11.323  0.5839  0.0953 -1.0489
  193MOL0     H26617   5.427   7.572  11.403  0.9546 -0.6072 -0.6897
  193MOL0     H26618   6.796   7.519  11.534 -1.1751  0.7896 -0.0429
  193MOL0     H26619   6.970   7.630  11.416  0.0978 -0.3326 -0.3693
  193MOL0     H26620   7.474   7.527  11.153  0.6438 -1.6625  2.5720
  193MOL0     H26621   7.653   7.661  11.071 -0.3270  0.7156 -0.3809
  193MOL0     H26622   7.883   7.933  11.020  0.1557  0.3879  1.0945
  193MOL0     H26623   7.815   7.776  11.002 -1.2112 -0.7912 -1.4538
  193MOL0     H26624   7.648   8.032  10.996 -1.0846  0.0991 -0.7459
  193MOL0     H26625   7.585   7.877  10.943  0.6741 -1.1615 -0.8116
  193MOL0     H26626   7.724   7.889  10.737 -1.0340  0.4363  0.1961
  193MOL0     H26627   7.633   8.030  10.752  0.0111 -0.1428 -0.8350
  193MOL0     H26628   7.938   7.969  10.791  0.7834  0.3463 -1.6868
  193MOL0     H26629   7.886   8.119  10.868 -0.2611 -0.7603  0.9988
  193MOL0     H26630   7.843   8.216  10.468 -0.7449 -1.6767 -0.5655
  193MOL0     H26631   7.606   7.937  11.394 -0.1525  0.8450 -1.1295
  193MOL0     H26632   7.382   7.757  11.576 -0.1029  1.0643  2.4286
  193MOL0     H26633   7.456   7.903  11.557 -0.5167  0.3573  0.3164
  193MOL0     H26634   7.296   7.876  11.478 -1.2477 -2.0164  1.2832
  194MOL0     O26635   8.550   4.716   1.704 -0.5871  0.4921 -0.3352
  194MOL0     C26636   8.514   4.672   1.816 -0.8095 -0.9448  0.6106
  194MOL0     O26637   8.391   4.633   1.846  0.2002 -1.0881  0.0568
  194MOL0     C26638   8.294   4.611   1.752  0.4206 -0.0574  0.6427
  194MOL0     C26639   8.237   4.487   1.736  0.3392 -0.2759  0.3010
  194MOL0     C26640   8.126   4.464   1.655  0.1918 -0.4909  0.4488
  194MOL0     C26641   8.056   4.570   1.601  0.3333 -0.0486 -0.4595
  194MOL0     O26642   7.948   4.529   1.527  0.0878 -0.7484 -0.1486
  194MOL0     C26643   7.920   4.609   1.411 -0.0765 -1.0519  0.0983
  194MOL0     C26644   7.824   4.541   1.319 -0.0594 -0.4124 -0.3067
  194MOL0     C26645   7.682   4.532   1.380  1.1761 -0.1337  0.3435
  194MOL0     C26646   7.595   4.463   1.275  0.1853 -0.2680 -0.1539
  194MOL0     C26647   7.603   4.310   1.292  0.3064  0.3021 -0.3978
  194MOL0     C26648   7.498   4.238   1.201 -0.4266  0.3737 -0.7730
  194MOL0     C26649   7.520   4.087   1.221  0.5809 -0.6422 -0.8323
  194MOL0     C26650   7.411   4.008   1.143  0.3900 -0.0454  0.2447
  194MOL0     N26651   7.421   3.862   1.156  0.4504 -0.1635 -0.3027
  194MOL0     C26652   7.531   3.799   1.211  1.0143 -0.6403  0.4555
  194MOL0     C26653   7.511   3.667   1.199  0.7405  1.4687  0.7227
  194MOL0     C26654   7.598   3.549   1.248 -1.6138 -0.0112 -0.2511
  194MOL0     C26655   7.713   3.528   1.155 -0.6002 -0.9449 -0.0249
  194MOL0     C26656   7.817   3.637   1.158  0.2138  0.5667  0.3814
  194MOL0     C26657   7.927   3.599   1.054 -0.3788  0.0231 -0.4133
  194MOL0     O26658   8.051   3.675   1.064  0.3202  0.1191 -0.6948
  194MOL0     C26659   8.151   3.636   1.148  0.6538 -0.0677  1.1678
  194MOL0     C26660   8.275   3.696   1.118  0.5005 -0.3812 -0.6839
  194MOL0     C26661   8.388   3.662   1.192  0.3826  0.2324 -0.1509
  194MOL0     C26662   8.510   3.747   1.165 -0.2148 -0.1652  0.0611
  194MOL0     C26663   8.377   3.580   1.302 -0.1314  0.6637  0.7384
  194MOL0     C26664   8.505   3.533   1.376  0.2266 -1.0172  0.2108
  194MOL0     O26665   8.483   3.491   1.503  0.0700  0.3285  0.1458
  194MOL0     C26666   8.592   3.474   1.585 -0.2961  1.3441 -0.6216
  194MOL0     C26667   8.700   3.568   1.599  0.3414 -0.5903  0.8977
  194MOL0     C26668   8.799   3.548   1.701  0.2787  0.8786  0.5565
  194MOL0     C26669   8.791   3.442   1.780 -0.4664 -0.9849 -0.6238
  194MOL0     O26670   8.878   3.435   1.888 -0.4194 -0.6172  0.1868
  194MOL0     C26671   8.854   3.340   1.987  0.4075 -0.3132 -0.5483
  194MOL0     C26672   8.944   3.361   2.105  0.3741  0.5368 -0.5295
  194MOL0     C26673   8.893   3.315   2.245 -0.3272 -0.6584 -0.0855
  194MOL0     C26674   8.976   3.389   2.349 -0.0714  0.5558  0.0527
  194MOL0     C26675   8.962   3.340   2.494 -0.3393  0.2042 -0.8780
  194MOL0     C26676   9.075   3.386   2.589  0.0417  1.1040  0.3718
  194MOL0     C26677   9.213   3.329   2.542 -0.4065  0.4372  1.6792
  194MOL0     C26678   9.320   3.336   2.653 -0.0873  0.3908  0.3256
  194MOL0    Cl26679   9.285   3.216   2.778  0.4455  0.3621  0.3968
  194MOL0     C26680   8.685   3.352   1.764 -0.5445 -0.6872  0.0213
  194MOL0     C26681   8.587   3.372   1.674  0.0443  1.0196  0.6964
  194MOL0     O26682   8.608   3.519   1.311 -0.1728 -0.1216 -0.4292
  194MOL0     C26683   8.246   3.519   1.332 -1.2626 -0.0374  0.2136
  194MOL0     C26684   8.141   3.545   1.251  0.4168  0.7366 -0.0529
  194MOL0     N26685   7.395   3.645   1.128 -0.5729  1.0663 -0.5070
  194MOL0     N26686   7.343   3.761   1.107 -0.4023  0.7129  0.3842
  194MOL0     C26687   8.107   4.702   1.616  0.2026 -0.1036  0.5191
  194MOL0     C26688   8.223   4.719   1.690  0.2777  0.2284 -0.9232
  194MOL0     C26689   8.614   4.679   1.930  0.4793 -0.0185  0.1513
  194MOL0     C26690   8.748   4.660   1.892 -0.6025 -0.9516  0.2190
  194MOL0     C26691   8.855   4.635   1.984  1.1600  0.0956 -0.0191
  194MOL0     C26692   8.833   4.650   2.119  1.0536 -0.1076 -0.4816
  194MOL0     O26693   8.922   4.646   2.212  0.6976 -0.1607  0.1005
  194MOL0     C26694   9.052   4.686   2.192  0.2550 -0.2789 -0.2227
  194MOL0     C26695   9.068   4.832   2.147  0.3539 -0.5141 -0.7586
  194MOL0     C26696   9.206   4.887   2.154 -0.1303  0.2364  0.3691
  194MOL0     C26697   9.292   4.876   2.282  0.3321 -0.1987 -0.2088
  194MOL0     C26698   9.222   4.949   2.392  0.1058 -0.0434  0.5741
  194MOL0     C26699   9.183   5.010   2.491  0.0864 -0.8110  0.3492
  194MOL0     C26700   8.705   4.680   2.163  0.3141  0.0476  1.4511
  194MOL0     C26701   8.597   4.689   2.070  1.0309 -1.2405  0.2799
  194MOL0     C26702   8.453   4.714   2.126  0.0160  1.1186  0.5596
  194MOL0     H26703   8.297   4.401   1.761  1.0435  0.1906  0.2447
  194MOL0     H26704   8.092   4.362   1.639  0.5189 -0.9471  2.4457
  194MOL0     H26705   8.017   4.612   1.361 -0.7515 -1.7331 -1.2956
  194MOL0     H26706   7.868   4.702   1.438 -1.4578 -1.1291 -2.0744
  194MOL0     H26707   7.818   4.602   1.229 -0.3174  2.0050  1.2530
  194MOL0     H26708   7.869   4.446   1.289  1.8533  0.6137 -0.8215
  194MOL0     H26709   7.665   4.483   1.477  1.7161  1.1916  1.1325
  194MOL0     H26710   7.644   4.633   1.393  0.0799 -0.2597 -1.4848
  194MOL0     H26711   7.494   4.502   1.294  1.4366  3.4974 -0.5037
  194MOL0     H26712   7.613   4.498   1.173  0.3809  3.3675  0.9797
  194MOL0     H26713   7.589   4.284   1.398  0.4883  2.9450  0.3329
  194MOL0     H26714   7.705   4.275   1.275  0.3551  0.7781 -1.1472
  194MOL0     H26715   7.394   4.248   1.230 -1.3536 -0.3104 -3.5473
  194MOL0     H26716   7.513   4.273   1.098 -0.6689 -0.2957 -1.0370
  194MOL0     H26717   7.496   4.051   1.322  0.5046 -2.6575 -1.5231
  194MOL0     H26718   7.622   4.058   1.193  1.5993  0.8751  1.0593
  194MOL0     H26719   7.314   4.047   1.176  0.4909  2.0441 -1.7210
  194MOL0     H26720   7.421   4.034   1.037  0.3794 -1.1682 -0.0498
  194MOL0     H26721   7.604   3.857   1.267  1.1763  2.0726 -2.2998
  194MOL0     H26722   7.537   3.458   1.244 -2.0002  0.2637 -0.9294
  194MOL0     H26723   7.640   3.579   1.344  0.4816  0.3290 -1.2029
  194MOL0     H26724   7.764   3.440   1.193 -0.1847 -0.0253  1.6297
  194MOL0     H26725   7.674   3.510   1.054 -0.5366  1.0103 -0.4433
  194MOL0     H26726   7.780   3.739   1.145 -1.3495 -0.0852 -0.5465
  194MOL0     H26727   7.868   3.630   1.255 -0.9086  1.6172  1.0738
  194MOL0     H26728   7.941   3.491   1.064  1.5058  0.3582  1.1126
  194MOL0     H26729   7.890   3.614   0.952  1.2351 -3.4677 -1.6790
  194MOL0     H26730   8.284   3.778   1.047 -1.8664  2.0284  1.5404
  194MOL0     H26731   8.569   3.701   1.086 -1.0016 -2.7305  0.8905
  194MOL0     H26732   8.581   3.748   1.249 -0.0540  1.3138 -0.0527
  194MOL0     H26733   8.493   3.855   1.154 -0.3035  0.4160  4.1856
  194MOL0     H26734   8.719   3.643   1.523  1.3008 -2.5794 -0.9120
  194MOL0     H26735   8.890   3.606   1.714  0.1353  1.0010  1.0067
  194MOL0     H26736   8.750   3.336   2.022 -0.3127 -0.6274 -2.5924
  194MOL0     H26737   8.876   3.243   1.943  1.3813  1.2924 -3.9440
  194MOL0     H26738   9.035   3.309   2.075 -0.5983  0.8470 -4.4833
  194MOL0     H26739   8.954   3.470   2.098  1.8317  0.4903  0.4021
  194MOL0     H26740   8.902   3.207   2.256 -3.2585 -1.3371 -2.7222
  194MOL0     H26741   8.786   3.340   2.250 -0.7074 -1.7490 -1.7759
  194MOL0     H26742   8.944   3.492   2.332 -0.3821  0.7938  1.8713
  194MOL0     H26743   9.081   3.389   2.319 -0.0508 -0.5408  0.0626
  194MOL0     H26744   8.875   3.384   2.543  0.3234  1.0764 -0.4699
  194MOL0     H26745   8.942   3.233   2.487 -0.0564 -0.1174  2.1513
  194MOL0     H26746   9.046   3.346   2.687 -0.1117  0.5425  0.1020
  194MOL0     H26747   9.088   3.494   2.598  0.6755  1.0487  0.1810
  194MOL0     H26748   9.254   3.389   2.460  0.7176 -0.6132  1.4435
  194MOL0     H26749   9.194   3.226   2.512  4.2345 -0.5199  1.2209
  194MOL0     H26750   9.310   3.438   2.693  0.4260  1.3694 -1.8869
  194MOL0     H26751   9.421   3.327   2.613 -1.0693  0.9763 -2.5203
  194MOL0     H26752   8.687   3.266   1.830  0.8452 -0.5071  0.2534
  194MOL0     H26753   8.515   3.292   1.665  1.1709  0.0595 -0.0204
  194MOL0     H26754   8.248   3.459   1.422  0.9024  1.8066  1.5049
  194MOL0     H26755   8.045   3.507   1.284  0.3699  2.5487  2.2164
  194MOL0     H26756   8.047   4.789   1.590  1.6517  1.0840  1.0400
  194MOL0     H26757   8.263   4.820   1.700  0.1533  0.0529  3.9960
  194MOL0     H26758   8.770   4.654   1.786 -0.7398 -1.7849  0.2288
  194MOL0     H26759   8.956   4.635   1.944  0.5502 -0.3295 -1.6112
  194MOL0     H26760   9.079   4.669   2.296 -1.4181 -0.3454  0.2296
  194MOL0     H26761   9.099   4.611   2.128  0.5963  0.1582 -0.4900
  194MOL0     H26762   9.000   4.896   2.203 -1.8559 -2.7477 -0.7056
  194MOL0     H26763   9.040   4.849   2.042  1.3347  4.3641 -0.4531
  194MOL0     H26764   9.257   4.848   2.066  0.8544  1.7196  0.2430
  194MOL0     H26765   9.207   4.994   2.132  0.2645  0.4489  1.3520
  194MOL0     H26766   9.390   4.920   2.265 -0.3492  1.5616  0.1789
  194MOL0     H26767   9.298   4.771   2.313 -3.4561 -0.4136  0.3822
  194MOL0     H26768   9.162   5.073   2.575 -0.4189 -1.0620  0.4168
  194MOL0     H26769   8.696   4.684   2.272  1.4789  0.3358  1.5496
  194MOL0     H26770   8.388   4.626   2.122  0.4101  0.8398 -0.0474
  194MOL0     H26771   8.457   4.750   2.229 -0.4038 -0.1944  1.0662
  194MOL0     H26772   8.405   4.800   2.079 -2.5523  1.3104  3.2755
  195MOL0     O26773   2.307   2.364   9.753 -0.0456 -0.0164  0.4486
  195MOL0     C26774   2.371   2.453   9.811  0.3834 -0.6592 -0.7065
  195MOL0     O26775   2.322   2.533   9.906  0.2625 -0.6230 -0.0009
  195MOL0     C26776   2.204   2.500   9.963  0.0415  0.6075  0.1936
  195MOL0     C26777   2.181   2.376  10.011  0.1527  0.0408 -0.1515
  195MOL0     C26778   2.078   2.351  10.097  0.2812 -0.7842 -0.2302
  195MOL0     C26779   1.984   2.446  10.139  0.2786  0.1409  0.4956
  195MOL0     O26780   1.883   2.424  10.232 -0.2439  0.1868 -0.3111
  195MOL0     C26781   1.866   2.293  10.299 -0.5899  0.5127 -0.6369
  195MOL0     C26782   1.987   2.268  10.394  0.8933  0.2177 -0.5387
  195MOL0     C26783   1.937   2.275  10.531 -0.4962  0.9051  0.1914
  195MOL0     C26784   1.886   2.411  10.574  0.1993  0.0544 -0.3084
  195MOL0     C26785   1.830   2.419  10.710 -0.1546  0.3989  0.5363
  195MOL0     C26786   1.896   2.537  10.790  0.5815 -0.1303  0.1013
  195MOL0     C26787   1.821   2.525  10.930  0.5421 -0.8127  0.5183
  195MOL0     C26788   1.854   2.627  11.040 -0.7672  0.4786 -0.5801
  195MOL0     N26789   1.980   2.600  11.113 -1.2533  0.6268 -0.1706
  195MOL0     C26790   2.008   2.616  11.253 -0.6523  0.4993  0.0647
  195MOL0     C26791   2.112   2.537  11.281 -0.1604 -0.4071  0.5497
  195MOL0     C26792   2.162   2.508  11.416 -0.0312 -0.5451  0.8415
  195MOL0     C26793   2.265   2.589  11.478 -0.9545 -0.8675 -0.1969
  195MOL0     C26794   2.381   2.620  11.377 -0.2166  0.0052  0.6578
  195MOL0     C26795   2.503   2.677  11.445  0.0682 -0.6800 -0.1270
  195MOL0     O26796   2.491   2.818  11.476  0.6779 -0.8807  0.3492
  195MOL0     C26797   2.599   2.894  11.499  0.3049  0.0646 -0.1587
  195MOL0     C26798   2.732   2.866  11.467 -0.0076  0.3095 -0.4779
  195MOL0     C26799   2.833   2.968  11.506 -1.1137 -0.1700  0.6313
  195MOL0     C26800   2.972   2.923  11.452  0.1755 -0.7279 -0.8994
  195MOL0     C26801   2.804   3.083  11.569  0.7863 -0.8707 -0.5720
  195MOL0     C26802   2.899   3.175  11.621 -0.3221  0.7955 -0.6024
  195MOL0     O26803   2.861   3.284  11.687 -0.0790 -0.6023 -0.3722
  195MOL0     C26804   2.957   3.352  11.762 -0.2314  0.0699 -0.9318
  195MOL0     C26805   2.970   3.309  11.899 -0.0318  0.3402  0.5362
  195MOL0     C26806   3.067   3.374  11.981  0.1395 -0.2185 -0.0172
  195MOL0     C26807   3.155   3.472  11.927 -0.0344 -0.2527  0.8588
  195MOL0     O26808   3.263   3.526  11.989 -0.0803 -0.0231 -0.2177
  195MOL0     C26809   3.279   3.516  12.122 -0.8124  0.9652  0.0104
  195MOL0     C26810   3.224   3.628  12.201  0.6763  0.1191 -0.3305
  195MOL0     C26811   3.182   3.592  12.339 -0.6815 -0.1199 -0.1613
  195MOL0     C26812   3.295   3.535  12.425  0.6178  0.6687  0.1642
  195MOL0     C26813   3.241   3.514  12.566  0.1881  0.7074 -0.2791
  195MOL0     C26814   3.332   3.462  12.671 -0.6166  0.3245 -0.2283
  195MOL0     C26815   3.249   3.402  12.789  0.6137 -0.3929 -0.6664
  195MOL0     C26816   3.230   3.509  12.907 -0.1456  0.4438  0.1739
  195MOL0    Cl26817   3.105   3.431  13.013  0.1445  0.0013  0.0318
  195MOL0     C26818   3.131   3.513  11.796 -0.0605 -0.6649  0.0585
  195MOL0     C26819   3.035   3.451  11.715 -0.8512 -0.0176  1.0883
  195MOL0     O26820   3.022   3.152  11.607  0.5607 -0.4771 -0.4776
  195MOL0     C26821   2.674   3.107  11.599 -0.3414  0.0647  0.7967
  195MOL0     C26822   2.574   3.014  11.566  0.1070 -0.7330  0.2462
  195MOL0     N26823   2.163   2.479  11.159  1.1560 -0.4262 -0.7225
  195MOL0     N26824   2.084   2.521  11.064 -0.5789  0.2205 -0.2611
  195MOL0     C26825   1.997   2.569  10.088 -0.5688 -0.1819 -0.0514
  195MOL0     C26826   2.104   2.596   9.999  0.5443 -0.6873  0.8995
  195MOL0     C26827   2.508   2.474   9.773 -0.6358  0.0655 -0.6770
  195MOL0     C26828   2.588   2.540   9.870 -0.5830  0.9322 -0.4546
  195MOL0     C26829   2.727   2.549   9.856 -0.6611 -1.3480  0.1695
  195MOL0     C26830   2.781   2.505   9.742 -0.7361 -0.0562 -0.0369
  195MOL0     O26831   2.923   2.515   9.737 -0.2180 -0.0125 -0.1779
  195MOL0     C26832   3.006   2.427   9.650  0.5242  0.0323  0.0662
  195MOL0     C26833   3.148   2.472   9.644 -0.0116  0.0588  0.3139
  195MOL0     C26834   3.228   2.429   9.770 -0.1345  0.4191  0.5998
  195MOL0     C26835   3.279   2.538   9.860  1.2854  0.0241 -0.1115
  195MOL0     C26836   3.174   2.628   9.906  0.5984  0.3434 -0.4481
  195MOL0     C26837   3.086   2.694   9.960  0.6224 -0.0612 -0.5091
  195MOL0     C26838   2.705   2.461   9.634  0.0957  0.6146 -0.2186
  195MOL0     C26839   2.567   2.434   9.650 -0.2719 -0.6801 -0.4904
  195MOL0     C26840   2.503   2.362   9.532 -0.5031 -0.2783 -0.4805
  195MOL0     H26841   2.255   2.300   9.990 -2.4446 -3.0239  0.9997
  195MOL0     H26842   2.060   2.251  10.134  0.0365 -0.0335  1.8572
  195MOL0     H26843   1.862   2.213  10.224 -1.1696  1.2940 -1.4656
  195MOL0     H26844   1.774   2.289  10.357  1.4332 -0.8250  2.7636
  195MOL0     H26845   2.021   2.166  10.375 -0.2432 -0.5760  1.3885
  195MOL0     H26846   2.069   2.339  10.378  0.1627  0.7028 -2.3229
  195MOL0     H26847   1.860   2.198  10.540 -0.2657  0.0967 -3.3297
  195MOL0     H26848   2.013   2.251  10.606  0.1764 -1.7093 -1.2096
  195MOL0     H26849   1.975   2.474  10.559 -1.1481  2.2229  0.3368
  195MOL0     H26850   1.808   2.459  10.514  1.0085 -0.2860 -1.6912
  195MOL0     H26851   1.843   2.333  10.777  2.0850  0.8819  0.7822
  195MOL0     H26852   1.722   2.424  10.691 -0.8272 -2.1241  2.9360
  195MOL0     H26853   2.002   2.512  10.800  0.1657 -1.0707  2.9625
  195MOL0     H26854   1.867   2.636  10.753 -3.3929 -0.4709  1.8346
  195MOL0     H26855   1.833   2.423  10.968  0.8578 -0.8375  0.3583
  195MOL0     H26856   1.713   2.536  10.913  0.2947 -4.1520 -0.7974
  195MOL0     H26857   1.845   2.729  11.000 -1.2557  0.0095 -1.7425
  195MOL0     H26858   1.765   2.621  11.103 -0.3709  0.7920  0.0139
  195MOL0     H26859   1.951   2.680  11.320  0.8452  1.9364  0.0084
  195MOL0     H26860   2.200   2.407  11.403  1.7409  0.2463 -0.5319
  195MOL0     H26861   2.074   2.492  11.480 -1.6388 -1.4999 -1.4744
  195MOL0     H26862   2.216   2.683  11.504  0.5041 -0.0630 -0.2438
  195MOL0     H26863   2.292   2.541  11.572 -0.9724 -0.0566  0.2281
  195MOL0     H26864   2.412   2.533  11.319 -2.0272 -2.9243  3.6885
  195MOL0     H26865   2.347   2.692  11.302  0.9324 -1.0896 -0.9816
  195MOL0     H26866   2.516   2.617  11.535 -1.9160 -2.9936 -1.2492
  195MOL0     H26867   2.587   2.653  11.379  0.1904  1.0650 -0.6499
  195MOL0     H26868   2.763   2.775  11.416  3.1972 -0.0627  1.8291
  195MOL0     H26869   2.961   2.828  11.399 -0.5850 -2.1853  1.6880
  195MOL0     H26870   3.039   2.916  11.538 -0.8689  2.0282  0.2249
  195MOL0     H26871   3.011   3.000  11.386 -1.0646  0.2794 -0.4993
  195MOL0     H26872   2.912   3.231  11.946  2.9932 -0.3058  3.5508
  195MOL0     H26873   3.068   3.331  12.081 -4.4427  0.2579  0.4616
  195MOL0     H26874   3.250   3.418  12.162 -1.9821  2.5796  3.5175
  195MOL0     H26875   3.387   3.520  12.137 -0.6967 -2.1428  0.6485
  195MOL0     H26876   3.302   3.704  12.201  0.7910  0.0052  0.3776
  195MOL0     H26877   3.141   3.676  12.148  2.8221  2.0161 -2.1620
  195MOL0     H26878   3.113   3.507  12.329  0.1927 -0.7303 -1.3465
  195MOL0     H26879   3.143   3.675  12.398  1.9193  1.3599 -0.3686
  195MOL0     H26880   3.383   3.599  12.429  0.2305  1.2559 -0.4108
  195MOL0     H26881   3.328   3.438  12.389 -1.4212  0.1672 -0.4724
  195MOL0     H26882   3.221   3.610  12.614  4.4808  1.1812  1.0577
  195MOL0     H26883   3.150   3.455  12.570 -0.8957  2.3599  1.0234
  195MOL0     H26884   3.399   3.539  12.712  0.6140  2.3367 -5.2563
  195MOL0     H26885   3.394   3.388  12.620 -1.1178 -0.3075  0.0735
  195MOL0     H26886   3.306   3.318  12.830 -1.3999 -0.7997  1.5427
  195MOL0     H26887   3.149   3.367  12.762 -0.2590  1.9318 -0.7083
  195MOL0     H26888   3.191   3.600  12.862  0.0656  0.2921 -0.3259
  195MOL0     H26889   3.328   3.516  12.956  1.0291 -0.0014 -1.9517
  195MOL0     H26890   3.198   3.588  11.756  0.2779  0.8536  3.1905
  195MOL0     H26891   3.023   3.476  11.610  2.7967  1.0745  0.8073
  195MOL0     H26892   2.647   3.192  11.661 -2.3090 -0.3564  0.5850
  195MOL0     H26893   2.469   3.022  11.590 -0.3806 -0.0932 -1.9145
  195MOL0     H26894   1.922   2.647  10.097 -1.4989 -1.0257 -0.3125
  195MOL0     H26895   2.121   2.694   9.956 -0.5387 -0.8294  0.1205
  195MOL0     H26896   2.548   2.574   9.965  0.3922 -2.2389  1.2353
  195MOL0     H26897   2.796   2.597   9.925 -1.2671  1.9695 -1.3868
  195MOL0     H26898   2.997   2.325   9.689  0.4859 -0.9904 -2.4233
  195MOL0     H26899   2.964   2.424   9.550  0.9302 -3.2024 -0.1115
  195MOL0     H26900   3.146   2.581   9.644 -0.2232  0.2922 -4.7795
  195MOL0     H26901   3.199   2.441   9.552  0.3125  0.8773  0.2099
  195MOL0     H26902   3.173   2.360   9.835 -2.6761  1.1265 -0.6971
  195MOL0     H26903   3.318   2.394   9.718 -1.5364  1.5878 -2.8711
  195MOL0     H26904   3.346   2.607   9.808  0.5495  1.7478  1.1656
  195MOL0     H26905   3.336   2.505   9.947  3.6480  2.7746 -0.4665
  195MOL0     H26906   3.025   2.750  10.027  2.0616  3.3322 -1.8047
  195MOL0     H26907   2.755   2.441   9.539  2.8586  2.3893  0.7428
  195MOL0     H26908   2.571   2.372   9.447 -1.6450 -0.4571 -1.4410
  195MOL0     H26909   2.471   2.257   9.538  0.3599 -0.5334 -0.2121
  195MOL0     H26910   2.406   2.411   9.515 -0.3172  1.1274  1.9685
  196MOL0     O26911   0.865   5.562  10.447  0.4048 -0.3957 -0.1714
  196MOL0     C26912   0.793   5.465  10.469 -0.0449  0.2891  0.2224
  196MOL0     O26913   0.823   5.374  10.555  0.2921 -0.1469 -0.1883
  196MOL0     C26914   0.959   5.346  10.572 -0.7400  0.2465  0.0706
  196MOL0     C26915   1.036   5.446  10.635 -0.5764  1.2604  0.0034
  196MOL0     C26916   1.173   5.431  10.631 -1.3294 -0.3201 -0.2748
  196MOL0     C26917   1.234   5.325  10.563 -0.1823 -0.8717  0.9456
  196MOL0     O26918   1.368   5.304  10.563  0.3392  0.1031 -0.6955
  196MOL0     C26919   1.462   5.405  10.612  0.2509 -0.3905  0.2669
  196MOL0     C26920   1.469   5.404  10.766  0.2282  1.5238 -0.6525
  196MOL0     C26921   1.574   5.304  10.830 -0.0971  1.2268  0.1534
  196MOL0     C26922   1.709   5.377  10.840  0.6548  1.2785 -0.3339
  196MOL0     C26923   1.804   5.274  10.900 -0.3828 -0.1823  0.3400
  196MOL0     C26924   1.945   5.321  10.866  0.7006 -0.4153  0.2660
  196MOL0     C26925   2.040   5.225  10.952 -0.9143  0.0660  0.6404
  196MOL0     C26926   2.189   5.275  10.942 -0.3709 -0.1898  0.8610
  196MOL0     N26927   2.220   5.405  11.003 -0.5090 -0.4294  0.5299
  196MOL0     C26928   2.259   5.426  11.132  0.2855  0.0077  0.5373
  196MOL0     C26929   2.266   5.562  11.143  0.2129 -0.3319 -0.2732
  196MOL0     C26930   2.326   5.642  11.253  0.2614  0.0156  0.1481
  196MOL0     C26931   2.461   5.709  11.206  1.1322  0.3323 -0.9111
  196MOL0     C26932   2.567   5.602  11.175  0.0860  0.1187  0.0339
  196MOL0     C26933   2.703   5.665  11.135 -0.6120  0.8735 -0.5315
  196MOL0     O26934   2.751   5.715  11.259 -0.5093  0.7592 -0.3383
  196MOL0     C26935   2.857   5.809  11.259 -0.0943 -0.3325 -0.0820
  196MOL0     C26936   2.893   5.868  11.380  0.5470  0.0300 -0.4396
  196MOL0     C26937   3.011   5.950  11.394  0.1842 -0.2054 -0.0851
  196MOL0     C26938   3.033   6.016  11.530 -0.5585  0.6136  0.1679
  196MOL0     C26939   3.094   5.978  11.282  1.1692  0.3419  0.3984
  196MOL0     C26940   3.220   6.060  11.291 -0.1824 -0.7900  0.3044
  196MOL0     O26941   3.280   6.086  11.400 -0.2776 -0.8172  0.7698
  196MOL0     C26942   3.412   6.125  11.424 -0.4076  0.2611 -0.5132
  196MOL0     C26943   3.509   6.141  11.326 -0.3475 -0.1015  1.1255
  196MOL0     C26944   3.639   6.161  11.355 -0.2088 -0.7774 -0.5521
  196MOL0     C26945   3.672   6.178  11.491 -0.3373  0.0385 -0.4146
  196MOL0     O26946   3.800   6.217  11.539 -0.1004  0.6403 -0.0570
  196MOL0     C26947   3.862   6.327  11.474  0.4679  0.5872 -0.9760
  196MOL0     C26948   3.981   6.267  11.400 -0.3216 -0.1543  0.4073
  196MOL0     C26949   4.111   6.348  11.436 -0.1154 -0.2899 -0.3954
  196MOL0     C26950   4.234   6.294  11.365  0.0054  0.4573 -0.0513
  196MOL0     C26951   4.360   6.353  11.421 -0.5867  0.3349  0.3489
  196MOL0     C26952   4.366   6.503  11.410  0.1435 -1.0924 -0.3242
  196MOL0     C26953   4.338   6.581  11.546  0.0215  0.4174 -0.5308
  196MOL0     C26954   4.367   6.722  11.531 -0.2639  0.2438 -0.0286
  196MOL0    Cl26955   4.346   6.812  11.693  0.1153  0.1837 -0.2862
  196MOL0     C26956   3.580   6.159  11.591  1.1543  0.4239 -0.9553
  196MOL0     C26957   3.448   6.145  11.556 -0.2054  1.0326  0.0320
  196MOL0     O26958   3.264   6.092  11.179  0.4472 -0.1452 -0.1637
  196MOL0     C26959   3.055   5.924  11.154  0.6233 -0.4808 -0.1455
  196MOL0     C26960   2.936   5.845  11.150 -0.0881  0.2896 -0.4147
  196MOL0     N26961   2.214   5.620  11.026 -0.3458  0.4301 -0.7260
  196MOL0     N26962   2.200   5.522  10.943  0.5419  0.0100 -0.7184
  196MOL0     C26963   1.157   5.232  10.490  0.3899  0.1873 -0.2864
  196MOL0     C26964   1.020   5.235  10.497  0.4256  0.0385 -1.1012
  196MOL0     C26965   0.653   5.466  10.437  0.4531  0.5552 -0.7854
  196MOL0     C26966   0.603   5.359  10.366  0.8966  0.3657 -0.2845
  196MOL0     C26967   0.475   5.364  10.310 -0.2133  1.6369  0.2260
  196MOL0     C26968   0.393   5.461  10.324  0.4393  0.0752 -0.6823
  196MOL0     O26969   0.262   5.452  10.301  0.9730  0.0918  0.3554
  196MOL0     C26970   0.171   5.469  10.406  0.8702 -0.7983 -0.5410
  196MOL0     C26971   0.026   5.417  10.383  0.3282 -1.3922  0.3267
  196MOL0     C26972  -0.029   5.399  10.240 -0.3027 -0.1343  0.0074
  196MOL0     C26973  -0.176   5.377  10.233  0.1275  0.1114  0.0993
  196MOL0     C26974  -0.268   5.483  10.281 -0.1588  0.2424  0.1355
  196MOL0     C26975  -0.342   5.570  10.324 -0.3725  0.0265 -0.1720
  196MOL0     C26976   0.442   5.581  10.390 -0.2288  0.7639  0.0852
  196MOL0     C26977   0.575   5.585  10.442 -0.6132 -0.2688 -0.1742
  196MOL0     C26978   0.622   5.709  10.507  0.5834  0.7173 -0.5084
  196MOL0     H26979   0.987   5.525  10.690 -0.8053  0.3934  1.0813
  196MOL0     H26980   1.229   5.490  10.703 -1.0386 -1.6044  0.5733
  196MOL0     H26981   1.423   5.490  10.555 -0.3327  0.7580  2.2958
  196MOL0     H26982   1.558   5.379  10.567  0.6308  0.7643  0.3951
  196MOL0     H26983   1.502   5.505  10.795  1.8078  1.6444 -2.6720
  196MOL0     H26984   1.369   5.381  10.805  0.4521  4.3566  2.0119
  196MOL0     H26985   1.538   5.268  10.926 -0.5136 -1.1763 -0.8423
  196MOL0     H26986   1.588   5.219  10.762 -3.6343  1.3116 -0.8781
  196MOL0     H26987   1.741   5.411  10.741  4.4766 -0.1097  0.2762
  196MOL0     H26988   1.706   5.464  10.906  2.3670  1.6033 -0.6514
  196MOL0     H26989   1.786   5.174  10.860 -2.7940  0.8459 -1.4179
  196MOL0     H26990   1.802   5.275  11.009  1.9076  0.2049  0.4302
  196MOL0     H26991   1.958   5.299  10.759 -1.9840  0.5303 -0.3375
  196MOL0     H26992   1.963   5.428  10.880  1.5119 -0.5153  0.0596
  196MOL0     H26993   2.028   5.117  10.940 -1.6988  0.0147  1.7857
  196MOL0     H26994   2.015   5.222  11.058 -0.6554 -4.1604  0.7170
  196MOL0     H26995   2.245   5.193  10.987 -1.6251 -2.1791 -1.0145
  196MOL0     H26996   2.221   5.272  10.837  1.6882 -0.6867  1.4518
  196MOL0     H26997   2.308   5.365  11.208  1.1075 -0.6017 -0.4485
  196MOL0     H26998   2.357   5.600  11.349  1.6958  2.6174  0.9337
  196MOL0     H26999   2.259   5.727  11.269  1.7612  0.8436  2.5657
  196MOL0     H27000   2.440   5.772  11.119 -2.1446 -0.4636 -0.8454
  196MOL0     H27001   2.504   5.787  11.269  3.2532  1.4249 -3.5122
  196MOL0     H27002   2.596   5.544  11.263  0.0625 -2.3578 -1.5030
  196MOL0     H27003   2.538   5.532  11.097  3.0697 -1.0804 -0.1063
  196MOL0     H27004   2.768   5.580  11.114 -0.4764  0.9846 -0.5696
  196MOL0     H27005   2.704   5.733  11.050  3.5818  3.0327  0.9634
  196MOL0     H27006   2.839   5.841  11.471 -0.9459 -0.4969 -1.4518
  196MOL0     H27007   3.131   5.979  11.562 -0.3745  1.3513  0.4906
  196MOL0     H27008   2.962   5.980  11.605 -0.3249  0.2860  0.2357
  196MOL0     H27009   3.042   6.125  11.528  2.1174  0.4696 -0.3432
  196MOL0     H27010   3.476   6.128  11.223  1.8170 -2.5045  0.6413
  196MOL0     H27011   3.718   6.163  11.281 -0.6026 -0.5862 -0.9757
  196MOL0     H27012   3.801   6.384  11.403 -1.5992 -0.2623  0.0514
  196MOL0     H27013   3.900   6.398  11.548  0.2962 -1.4912  1.1918
  196MOL0     H27014   3.987   6.163  11.434  0.9510 -0.2789 -0.1521
  196MOL0     H27015   3.953   6.269  11.295 -4.3806 -2.2740  1.2258
  196MOL0     H27016   4.135   6.341  11.543 -2.2911  3.6250  0.5661
  196MOL0     H27017   4.093   6.454  11.417  1.3011  0.0795  0.1697
  196MOL0     H27018   4.213   6.300  11.258 -0.6502 -4.0540 -0.3641
  196MOL0     H27019   4.239   6.186  11.377  1.8260  0.4822 -0.3370
  196MOL0     H27020   4.393   6.300  11.510  2.4471 -1.5084 -1.6569
  196MOL0     H27021   4.436   6.325  11.346 -2.4340 -0.3168 -1.3767
  196MOL0     H27022   4.291   6.540  11.341 -2.3813 -1.1678  2.1948
  196MOL0     H27023   4.465   6.542  11.385 -0.2207  2.2744  2.6889
  196MOL0     H27024   4.394   6.529  11.624  0.0253  1.8796  0.5050
  196MOL0     H27025   4.231   6.575  11.571  0.2561 -0.2382  0.3634
  196MOL0     H27026   4.295   6.767  11.462 -0.9689 -2.9216 -1.5416
  196MOL0     H27027   4.468   6.736  11.491 -0.7764  3.1175 -0.5453
  196MOL0     H27028   3.606   6.167  11.696 -1.1523  2.3139 -0.4336
  196MOL0     H27029   3.363   6.137  11.622 -2.2981  1.6903 -2.4486
  196MOL0     H27030   3.105   5.956  11.064  4.6889 -1.6814  1.4804
  196MOL0     H27031   2.913   5.803  11.053  1.8792  1.5511 -1.4981
  196MOL0     H27032   1.223   5.157  10.448  1.1415 -0.3619  1.7614
  196MOL0     H27033   0.954   5.161  10.452 -3.2017  2.1565  0.3144
  196MOL0     H27034   0.652   5.263  10.353 -3.6989 -2.2079 -1.0376
  196MOL0     H27035   0.446   5.283  10.243  2.6824  0.7204 -0.0758
  196MOL0     H27036   0.209   5.434  10.502  3.4337  3.6280  0.3152
  196MOL0     H27037   0.152   5.575  10.423  1.5109 -0.8629  0.6786
  196MOL0     H27038  -0.038   5.486  10.437 -0.1852  0.0898 -2.0478
  196MOL0     H27039   0.010   5.325  10.441 -0.4553 -0.4102  1.7329
  196MOL0     H27040  -0.019   5.496  10.190  3.6455 -0.8420 -0.9216
  196MOL0     H27041   0.019   5.316  10.188 -0.8048  0.6280 -1.7185
  196MOL0     H27042  -0.197   5.283  10.284 -3.7819  0.9339  0.3420
  196MOL0     H27043  -0.203   5.352  10.130 -2.3750  0.8068  0.5179
  196MOL0     H27044  -0.421   5.635  10.355 -0.6343 -1.1316  1.7642
  196MOL0     H27045   0.375   5.667  10.391 -1.6355 -0.2914  0.6151
  196MOL0     H27046   0.534   5.761  10.548  0.2969 -0.3267  0.2270
  196MOL0     H27047   0.679   5.684  10.596  2.2003  0.5582 -1.5579
  196MOL0     H27048   0.688   5.775  10.451 -0.2289 -0.0569 -2.4845
  197MOL0     O27049   6.155   4.610   7.338 -0.5758  0.0505  0.2528
  197MOL0     C27050   6.056   4.677   7.305  0.3113  1.0153 -0.7072
  197MOL0     O27051   5.961   4.646   7.207  0.3458 -0.1074  0.6437
  197MOL0     C27052   5.948   4.518   7.165  0.4835 -1.0190  0.3519
  197MOL0     C27053   5.850   4.443   7.220 -0.1597 -0.1532  0.6859
  197MOL0     C27054   5.861   4.305   7.201 -0.1923  0.9154 -0.7122
  197MOL0     C27055   5.947   4.247   7.104 -0.5404 -0.5076  0.0696
  197MOL0     O27056   5.972   4.111   7.104  0.7489  0.1693 -0.8628
  197MOL0     C27057   6.062   4.051   7.010 -0.6917 -0.7335 -0.1047
  197MOL0     C27058   6.008   4.045   6.858 -1.2909  0.9111 -0.3186
  197MOL0     C27059   5.947   3.906   6.833  0.5431  0.4496 -0.6414
  197MOL0     C27060   5.823   3.912   6.737 -0.1572  0.3995 -0.4447
  197MOL0     C27061   5.762   3.771   6.717  0.3791  0.2160  0.6734
  197MOL0     C27062   5.705   3.691   6.831  0.7478 -0.6697 -0.4054
  197MOL0     C27063   5.691   3.540   6.815  0.8184  0.0921 -0.1894
  197MOL0     C27064   5.617   3.482   6.698 -0.0466  0.1318  1.0174
  197MOL0     N27065   5.475   3.526   6.694  0.2961  0.5615 -0.6049
  197MOL0     C27066   5.385   3.540   6.797  0.6968  0.4013 -0.6079
  197MOL0     C27067   5.281   3.601   6.748  0.4640 -0.6279  0.1487
  197MOL0     C27068   5.156   3.644   6.825 -0.5603 -0.4428 -0.4319
  197MOL0     C27069   5.166   3.791   6.861  0.1616 -0.1275 -0.5741
  197MOL0     C27070   5.248   3.829   6.987  0.3516  0.1805  0.5876
  197MOL0     C27071   5.175   3.782   7.118  0.3211 -0.3428 -0.6187
  197MOL0     O27072   5.192   3.645   7.146 -0.3142  0.6398 -0.4377
  197MOL0     C27073   5.317   3.599   7.201  0.3395  0.2114  0.5395
  197MOL0     C27074   5.344   3.466   7.182 -0.2190 -0.1116 -0.2473
  197MOL0     C27075   5.464   3.411   7.222 -0.1221  0.6178 -0.5673
  197MOL0     C27076   5.504   3.274   7.168 -0.4667 -0.2426 -0.7130
  197MOL0     C27077   5.549   3.483   7.308 -0.1277 -0.0685  0.1471
  197MOL0     C27078   5.677   3.419   7.372  0.0301  0.6629 -0.0097
  197MOL0     O27079   5.772   3.509   7.407 -0.9493 -0.2847  0.1770
  197MOL0     C27080   5.871   3.481   7.501 -0.6611 -1.0410  0.2032
  197MOL0     C27081   5.846   3.429   7.627 -0.4493  0.4583  1.3985
  197MOL0     C27082   5.952   3.412   7.726  0.8660  0.4448  0.1302
  197MOL0     C27083   6.084   3.456   7.696  0.5411  0.4432  0.3702
  197MOL0     O27084   6.192   3.429   7.782 -0.6205 -0.4566  0.3924
  197MOL0     C27085   6.186   3.320   7.868  0.0233  0.1460  0.1072
  197MOL0     C27086   6.317   3.272   7.930 -0.9771  0.1432  0.0373
  197MOL0     C27087   6.413   3.211   7.827  0.3638 -0.6241  1.0247
  197MOL0     C27088   6.533   3.148   7.880 -0.1576 -0.1031 -0.4749
  197MOL0     C27089   6.593   3.057   7.774 -0.2642  0.4832  1.0353
  197MOL0     C27090   6.702   2.965   7.839  0.0137  0.1437  0.4131
  197MOL0     C27091   6.810   3.039   7.913 -0.3427  0.0509 -0.3662
  197MOL0     C27092   6.884   3.131   7.813 -0.0908 -0.2770  0.3477
  197MOL0    Cl27093   6.994   3.238   7.908 -0.0179  0.7687  0.3031
  197MOL0     C27094   6.106   3.510   7.574  0.0400 -0.0788 -0.7480
  197MOL0     C27095   6.003   3.512   7.480  0.2599 -0.0521  0.0317
  197MOL0     O27096   5.673   3.298   7.406 -0.1176  0.5957  0.0831
  197MOL0     C27097   5.530   3.617   7.324 -0.3615 -0.3856 -0.0825
  197MOL0     C27098   5.413   3.676   7.263  0.2986 -0.6860 -0.3720
  197MOL0     N27099   5.294   3.609   6.614  0.1649  0.0704 -0.2411
  197MOL0     N27100   5.409   3.555   6.581  0.9565 -0.1633  0.3097
  197MOL0     C27101   6.024   4.329   7.025  0.9814  0.0225 -0.1125
  197MOL0     C27102   6.026   4.467   7.062 -1.0703  0.6510  0.7601
  197MOL0     C27103   6.038   4.816   7.364 -0.4446  1.1320 -0.0716
  197MOL0     C27104   5.915   4.875   7.332 -0.4382 -0.4847 -0.2141
  197MOL0     C27105   5.883   5.005   7.386 -0.8982  0.1375 -0.5494
  197MOL0     C27106   5.980   5.078   7.453  0.4848  1.0328 -0.0528
  197MOL0     O27107   5.971   5.199   7.513  0.2589  0.6164  0.3420
  197MOL0     C27108   5.837   5.217   7.586 -0.8496  0.3648  0.2513
  197MOL0     C27109   5.887   5.294   7.710 -0.2088 -0.9921 -0.1715
  197MOL0     C27110   5.756   5.327   7.784 -0.3266  0.5698 -0.0393
  197MOL0     C27111   5.782   5.420   7.907 -0.7845  0.8220  0.4416
  197MOL0     C27112   5.660   5.453   7.977  0.5605 -0.6387 -0.1264
  197MOL0     C27113   5.556   5.489   8.032 -0.2888  0.5355 -0.5955
  197MOL0     C27114   6.105   5.019   7.477 -0.0006  0.3085  1.2145
  197MOL0     C27115   6.131   4.895   7.432  0.4720  0.2567  0.3907
  197MOL0     C27116   6.267   4.839   7.470  0.0158  0.0958 -0.1975
  197MOL0     H27117   5.784   4.479   7.298 -0.6128 -0.2651  0.3569
  197MOL0     H27118   5.798   4.235   7.255  2.0584 -0.1618  0.6928
  197MOL0     H27119   6.078   3.949   7.046  0.9131 -1.0000 -1.4969
  197MOL0     H27120   6.159   4.102   7.012 -0.7329 -0.6001 -1.0425
  197MOL0     H27121   5.928   4.120   6.862 -0.5705  1.8010 -1.6599
  197MOL0     H27122   6.083   4.071   6.783 -1.3831  1.0776 -0.3548
  197MOL0     H27123   6.010   3.833   6.782  0.8986  1.9935 -2.5358
  197MOL0     H27124   5.909   3.868   6.927  0.5337  1.9362 -0.0084
  197MOL0     H27125   5.737   3.962   6.782 -0.1287  1.0940 -1.1290
  197MOL0     H27126   5.842   3.968   6.645  0.5068 -0.0456 -0.5841
  197MOL0     H27127   5.847   3.710   6.686  1.2384  0.2119  2.8583
  197MOL0     H27128   5.690   3.770   6.634 -0.3602  0.7139  1.2936
  197MOL0     H27129   5.774   3.701   6.916  1.2505 -1.4473 -0.7059
  197MOL0     H27130   5.608   3.738   6.847  0.3728 -1.7846  0.8680
  197MOL0     H27131   5.652   3.493   6.906 -0.4690 -1.1168 -1.3205
  197MOL0     H27132   5.794   3.505   6.798  0.1367 -2.3244  0.2701
  197MOL0     H27133   5.668   3.521   6.610  1.8432 -0.3084  1.8538
  197MOL0     H27134   5.631   3.373   6.701  0.5739  0.2027  0.8757
  197MOL0     H27135   5.391   3.530   6.905 -3.3174  2.1196 -0.0325
  197MOL0     H27136   5.147   3.567   6.902  0.6440 -1.4575 -1.2613
  197MOL0     H27137   5.072   3.626   6.758 -1.1489 -2.7445  0.8259
  197MOL0     H27138   5.225   3.837   6.781  3.7222 -1.8177  0.8792
  197MOL0     H27139   5.066   3.835   6.867  0.8828  1.5296  0.0248
  197MOL0     H27140   5.347   3.784   6.976 -0.5656 -1.4994 -1.2944
  197MOL0     H27141   5.275   3.935   6.990  0.4765  0.1429  0.8706
  197MOL0     H27142   5.210   3.823   7.213 -3.9654 -1.8468  1.8626
  197MOL0     H27143   5.069   3.798   7.097  0.6695  2.8631 -0.2986
  197MOL0     H27144   5.285   3.401   7.118 -0.9350 -0.8113  1.0747
  197MOL0     H27145   5.489   3.202   7.249  0.9063 -0.2958 -0.4740
  197MOL0     H27146   5.609   3.276   7.138 -1.1720  1.7132 -3.4344
  197MOL0     H27147   5.454   3.246   7.075  0.7246 -0.7079 -1.2241
  197MOL0     H27148   5.751   3.388   7.659 -0.4274  0.5941  1.6365
  197MOL0     H27149   5.945   3.364   7.823  1.9124 -0.2430 -0.1183
  197MOL0     H27150   6.115   3.339   7.949  0.6094 -1.1108  0.9493
  197MOL0     H27151   6.148   3.236   7.809  0.7934  0.4578 -0.8563
  197MOL0     H27152   6.348   3.358   7.989 -1.1533 -0.8709  1.6742
  197MOL0     H27153   6.293   3.198   8.007 -1.0721  1.8765  1.7488
  197MOL0     H27154   6.449   3.297   7.770 -1.8703  1.6854  2.8601
  197MOL0     H27155   6.345   3.150   7.766 -0.2391  3.0178 -2.3835
  197MOL0     H27156   6.500   3.082   7.961  0.2746 -0.4332 -0.5606
  197MOL0     H27157   6.609   3.217   7.918  0.3577 -1.7048  1.5851
  197MOL0     H27158   6.521   2.984   7.735 -1.3152  2.4916 -1.0584
  197MOL0     H27159   6.639   3.125   7.702  0.1380  0.1207  0.9425
  197MOL0     H27160   6.754   2.905   7.764  0.9039 -0.7722  1.7062
  197MOL0     H27161   6.650   2.902   7.911  1.1447 -2.3081 -0.8059
  197MOL0     H27162   6.871   2.965   7.964 -0.6942  0.8057  1.2168
  197MOL0     H27163   6.757   3.092   7.993 -4.5902 -2.3088 -1.2801
  197MOL0     H27164   6.821   3.207   7.764  0.4300  2.5438  3.6716
  197MOL0     H27165   6.931   3.072   7.734 -3.8944  2.6959 -4.8301
  197MOL0     H27166   6.203   3.548   7.544 -0.8876  1.1549 -2.3036
  197MOL0     H27167   6.026   3.557   7.384  0.8548 -0.9874 -0.2832
  197MOL0     H27168   5.607   3.678   7.370  0.6248  0.0744 -2.1985
  197MOL0     H27169   5.398   3.783   7.273  1.1675 -0.5787 -0.1467
  197MOL0     H27170   6.080   4.302   6.936 -0.4200 -1.1181 -0.6863
  197MOL0     H27171   6.087   4.546   7.021 -1.9763  0.7935 -0.3419
  197MOL0     H27172   5.836   4.829   7.273 -2.0637 -0.3729  1.7612
  197MOL0     H27173   5.790   5.057   7.371 -3.2041 -3.1804  0.9528
  197MOL0     H27174   5.772   5.271   7.518 -1.7823 -1.7242 -0.5908
  197MOL0     H27175   5.797   5.119   7.613 -2.1272  1.0896  1.0798
  197MOL0     H27176   5.940   5.387   7.686  2.9440 -1.7429  3.0318
  197MOL0     H27177   5.967   5.237   7.757  0.7915  0.7755  0.3770
  197MOL0     H27178   5.681   5.379   7.724 -0.3004 -0.8489 -1.3460
  197MOL0     H27179   5.721   5.239   7.838 -0.0719 -0.6397 -1.7731
  197MOL0     H27180   5.832   5.514   7.882  0.1156  0.9701  2.5342
  197MOL0     H27181   5.850   5.379   7.983  2.3590  1.6374 -1.7072
  197MOL0     H27182   5.464   5.523   8.074  0.1155  1.4159 -0.3853
  197MOL0     H27183   6.170   5.070   7.547 -0.7488 -1.0815  3.0043
  197MOL0     H27184   6.326   4.912   7.525 -1.1879  0.8563  0.1043
  197MOL0     H27185   6.248   4.764   7.548 -1.9797 -1.7508 -2.3188
  197MOL0     H27186   6.327   4.810   7.383 -0.0926  0.7601 -0.4954
  198MOL0     O27187   7.016   7.565   6.229 -1.2587  0.1872 -0.2327
  198MOL0     C27188   7.030   7.446   6.188  0.3788 -0.0127  0.0058
  198MOL0     O27189   6.943   7.378   6.112  0.6144  0.8818  0.4632
  198MOL0     C27190   6.824   7.437   6.070  0.7757  0.2282  1.1212
  198MOL0     C27191   6.815   7.515   5.953 -0.0632  0.9518  0.4272
  198MOL0     C27192   6.702   7.583   5.925 -0.1474 -0.4057 -0.4963
  198MOL0     C27193   6.589   7.575   6.012 -0.4164  0.3826  0.5411
  198MOL0     O27194   6.483   7.646   5.975 -0.2334 -0.5592  0.6337
  198MOL0     C27195   6.369   7.663   6.063 -0.2979 -0.0501  0.4068
  198MOL0     C27196   6.273   7.745   5.983  0.5957 -0.3931 -0.3906
  198MOL0     C27197   6.125   7.731   6.029  0.6026 -0.9790  0.0928
  198MOL0     C27198   6.047   7.620   5.948 -0.0265  1.2644 -0.5391
  198MOL0     C27199   5.898   7.609   5.991  0.2689 -0.3992  0.2308
  198MOL0     C27200   5.816   7.741   5.986  0.1384  0.8367 -0.0717
  198MOL0     C27201   5.799   7.787   5.839 -0.0190 -1.2146 -0.4202
  198MOL0     C27202   5.706   7.907   5.837 -0.0390 -0.3756  0.2407
  198MOL0     N27203   5.734   8.016   5.936  0.0978  1.0450  0.7591
  198MOL0     C27204   5.857   8.074   5.950 -0.1202 -0.3725 -0.1109
  198MOL0     C27205   5.828   8.147   6.062 -0.4123  0.7076  1.2247
  198MOL0     C27206   5.927   8.245   6.116 -0.3918  0.5832 -0.6901
  198MOL0     C27207   5.989   8.214   6.252 -0.1552 -0.3395  0.1876
  198MOL0     C27208   6.095   8.313   6.299 -0.0414  1.1110  0.0267
  198MOL0     C27209   6.166   8.259   6.423  0.3148 -0.5574  0.0355
  198MOL0     O27210   6.272   8.348   6.457  0.2841 -0.5115  0.0393
  198MOL0     C27211   6.287   8.395   6.592  0.4872 -0.2346  0.1549
  198MOL0     C27212   6.236   8.330   6.700  0.1777  0.3497 -0.3718
  198MOL0     C27213   6.261   8.389   6.828  0.1775  0.1638  0.7623
  198MOL0     C27214   6.210   8.311   6.939  0.1195  0.1866 -0.7944
  198MOL0     C27215   6.327   8.509   6.852 -0.2332 -0.2093 -0.4193
  198MOL0     C27216   6.338   8.572   6.986  0.9658  0.0375  0.3775
  198MOL0     O27217   6.461   8.621   7.005 -0.7702  0.0817 -0.3299
  198MOL0     C27218   6.508   8.647   7.133 -0.3228  1.0452 -0.9080
  198MOL0     C27219   6.592   8.754   7.156 -0.8123  0.0030 -0.0357
  198MOL0     C27220   6.666   8.774   7.265  0.0442  0.4412 -0.4932
  198MOL0     C27221   6.675   8.667   7.361  0.3563 -0.5320  0.9984
  198MOL0     O27222   6.747   8.672   7.477 -0.2597 -0.5645  0.1832
  198MOL0     C27223   6.799   8.799   7.514  0.1892 -0.0101  0.6167
  198MOL0     C27224   6.883   8.791   7.638 -0.3407  0.3595  0.1271
  198MOL0     C27225   6.922   8.939   7.660 -0.3456 -0.4018  0.5095
  198MOL0     C27226   7.052   8.960   7.742 -0.4219 -0.0028 -0.7767
  198MOL0     C27227   7.059   9.111   7.779  0.0535  0.1803 -0.5881
  198MOL0     C27228   7.188   9.159   7.846  0.3749 -1.5842 -0.4105
  198MOL0     C27229   7.197   9.313   7.857  0.0297  0.4664 -0.9918
  198MOL0     C27230   7.247   9.341   8.007 -0.2696 -0.7782 -0.8598
  198MOL0    Cl27231   7.252   9.525   8.050  0.1528  0.4806 -0.0232
  198MOL0     C27232   6.596   8.554   7.337  0.0883 -0.1093  0.2090
  198MOL0     C27233   6.514   8.543   7.225  0.4417  0.4232  0.3925
  198MOL0     O27234   6.246   8.585   7.065  0.5436 -0.3602  0.2517
  198MOL0     C27235   6.381   8.573   6.735  0.8117 -0.2925  0.0348
  198MOL0     C27236   6.360   8.512   6.609 -0.5589  0.1741 -0.2372
  198MOL0     N27237   5.699   8.146   6.099 -0.0134  0.3353  0.3285
  198MOL0     N27238   5.638   8.065   6.022 -0.0975  0.2492  0.1837
  198MOL0     C27239   6.596   7.499   6.128 -0.0611  0.1859  0.0600
  198MOL0     C27240   6.710   7.426   6.149  0.2127  0.2124 -0.3497
  198MOL0     C27241   7.147   7.376   6.235  0.2169 -0.6235 -0.2476
  198MOL0     C27242   7.118   7.269   6.330 -0.9200 -0.8182  0.2831
  198MOL0     C27243   7.230   7.200   6.376  0.1100  0.5342  0.0348
  198MOL0     C27244   7.360   7.226   6.335 -0.3303  0.7436  0.4304
  198MOL0     O27245   7.476   7.159   6.381  0.1238  0.6709  0.1984
  198MOL0     C27246   7.468   7.074   6.496 -0.0890  0.9735 -0.4656
  198MOL0     C27247   7.610   7.029   6.554  1.0539  0.4042 -0.6538
  198MOL0     C27248   7.622   6.878   6.527 -0.5385 -0.6355 -0.1531
  198MOL0     C27249   7.743   6.809   6.608  0.1837 -0.3998  0.2990
  198MOL0     C27250   7.701   6.800   6.749 -0.6675  0.0469 -0.8618
  198MOL0     C27251   7.669   6.792   6.870 -0.1700 -0.5858  0.3189
  198MOL0     C27252   7.382   7.335   6.258 -0.5386 -0.3822 -0.8098
  198MOL0     C27253   7.279   7.412   6.205  0.1934  0.3997  0.2828
  198MOL0     C27254   7.304   7.538   6.133  0.3504  0.3427 -0.1997
  198MOL0     H27255   6.897   7.529   5.883 -1.9093  2.9827 -1.4880
  198MOL0     H27256   6.697   7.654   5.844  0.3573 -0.0429 -0.2180
  198MOL0     H27257   6.393   7.715   6.155  4.6540 -2.1870  0.6289
  198MOL0     H27258   6.329   7.562   6.079 -0.4519 -1.0399 -4.6000
  198MOL0     H27259   6.302   7.850   5.996 -4.0102  0.7743  3.1951
  198MOL0     H27260   6.289   7.726   5.876  0.6017 -1.7357 -0.1726
  198MOL0     H27261   6.119   7.722   6.138  0.9326 -4.2610 -0.0535
  198MOL0     H27262   6.086   7.823   5.987  2.3035 -1.1828 -2.0850
  198MOL0     H27263   6.047   7.661   5.847 -0.3381 -1.3003 -1.6552
  198MOL0     H27264   6.098   7.523   5.943  0.5655  1.5827 -0.7688
  198MOL0     H27265   5.903   7.577   6.096  1.8908  0.6764  0.5036
  198MOL0     H27266   5.846   7.539   5.926  1.8692  0.8710 -2.5796
  198MOL0     H27267   5.722   7.724   6.038  2.0642 -3.9226  2.3652
  198MOL0     H27268   5.869   7.827   6.028 -0.6684  2.9214 -2.9456
  198MOL0     H27269   5.760   7.697   5.790  0.7031 -1.0919 -1.2447
  198MOL0     H27270   5.890   7.822   5.788 -0.1699  1.7730  1.1588
  198MOL0     H27271   5.701   7.951   5.738  0.0082  2.0035  1.2289
  198MOL0     H27272   5.608   7.862   5.856 -0.3936  0.0841 -0.4772
  198MOL0     H27273   5.938   8.071   5.878 -0.3677  1.5344 -0.5122
  198MOL0     H27274   5.868   8.335   6.137  1.2879  1.2487  1.5508
  198MOL0     H27275   6.014   8.257   6.051 -0.0017  1.8967  0.0377
  198MOL0     H27276   5.910   8.203   6.327  0.4824 -2.9307  0.5918
  198MOL0     H27277   6.037   8.118   6.234  1.0806  0.6370 -2.1322
  198MOL0     H27278   6.166   8.304   6.216 -0.3956 -1.7723 -0.0839
  198MOL0     H27279   6.057   8.415   6.307  2.0071  1.9386 -0.1466
  198MOL0     H27280   6.091   8.254   6.502  0.3339 -0.2631  0.0757
  198MOL0     H27281   6.205   8.159   6.401 -0.7554 -0.4408 -2.8384
  198MOL0     H27282   6.194   8.231   6.691  0.6561  0.2252 -1.2964
  198MOL0     H27283   6.270   8.223   6.964  1.5511  0.2654 -3.5753
  198MOL0     H27284   6.106   8.289   6.916  0.6012 -2.5022 -0.7472
  198MOL0     H27285   6.193   8.363   7.034 -2.3223  1.4678 -1.8492
  198MOL0     H27286   6.588   8.824   7.073  0.8307  1.3266  0.9330
  198MOL0     H27287   6.702   8.874   7.287 -0.7760  0.2238  2.1318
  198MOL0     H27288   6.852   8.841   7.428 -2.2788  1.1557 -0.4203
  198MOL0     H27289   6.712   8.864   7.527  1.1214  1.8135 -1.5690
  198MOL0     H27290   6.818   8.746   7.714 -1.2858  0.0123 -0.8604
  198MOL0     H27291   6.963   8.719   7.624 -0.4879  0.4871 -1.5408
  198MOL0     H27292   6.838   8.985   7.712 -0.4723  0.4152 -0.3932
  198MOL0     H27293   6.943   8.993   7.567 -1.1244  2.1459  1.7327
  198MOL0     H27294   7.139   8.915   7.693 -0.0468  2.3578 -2.4419
  198MOL0     H27295   7.053   8.908   7.838  1.8535  1.3050 -0.0105
  198MOL0     H27296   7.044   9.173   7.690  2.5190  2.3072  0.3286
  198MOL0     H27297   6.979   9.134   7.849 -1.3372  0.4077 -2.1753
  198MOL0     H27298   7.272   9.128   7.784  1.9337  3.3236 -1.2444
  198MOL0     H27299   7.212   9.105   7.938  1.4048 -3.2778 -1.6361
  198MOL0     H27300   7.103   9.364   7.838  0.1170  0.4572 -1.4611
  198MOL0     H27301   7.265   9.346   7.778  0.0861  1.2438 -0.6209
  198MOL0     H27302   7.346   9.296   8.016 -1.5022 -4.3117 -2.9105
  198MOL0     H27303   7.192   9.282   8.081  1.2085 -1.9301 -0.6348
  198MOL0     H27304   6.605   8.481   7.416  0.7807  1.1497  1.3418
  198MOL0     H27305   6.448   8.458   7.214 -4.0104  3.8813 -3.5668
  198MOL0     H27306   6.435   8.667   6.728  1.0136 -0.3518  0.7559
  198MOL0     H27307   6.398   8.542   6.512 -3.5593 -0.0746 -1.5978
  198MOL0     H27308   6.519   7.490   6.204  0.7413 -0.4919  0.8237
  198MOL0     H27309   6.706   7.383   6.248 -1.7039  2.7623  0.7886
  198MOL0     H27310   7.019   7.226   6.337 -1.2220 -0.1912 -0.0489
  198MOL0     H27311   7.214   7.121   6.450 -1.9502  3.3502  2.8379
  198MOL0     H27312   7.413   7.135   6.569 -1.9212  1.2129 -1.9739
  198MOL0     H27313   7.404   6.987   6.476  2.3569 -0.8153 -0.9260
  198MOL0     H27314   7.616   7.060   6.659 -0.0712  2.6875 -1.1854
  198MOL0     H27315   7.680   7.076   6.485 -0.1399 -0.1680 -2.3262
  198MOL0     H27316   7.529   6.827   6.555 -1.3357  0.1939 -1.2457
  198MOL0     H27317   7.646   6.864   6.422  0.3464 -0.1769 -0.0244
  198MOL0     H27318   7.834   6.870   6.598  1.8379 -2.8721 -0.5387
  198MOL0     H27319   7.769   6.710   6.569 -1.7577 -0.6176 -0.5199
  198MOL0     H27320   7.659   6.780   6.976 -0.9026 -3.3507 -0.0022
  198MOL0     H27321   7.484   7.371   6.244 -0.3626  0.1821  1.4462
  198MOL0     H27322   7.241   7.618   6.173 -2.4385 -1.1846 -1.2519
  198MOL0     H27323   7.409   7.569   6.139  1.0869 -2.1822  1.5478
  198MOL0     H27324   7.284   7.530   6.026  2.3183  1.0346 -0.6687
  199MOL0     O27325   2.647   7.488   5.754 -0.4614 -0.0819 -1.1183
  199MOL0     C27326   2.597   7.590   5.724 -0.1677 -0.4834  0.7393
  199MOL0     O27327   2.664   7.690   5.662 -0.1598  0.0063  0.0764
  199MOL0     C27328   2.791   7.682   5.621  0.5586  0.4528  0.7929
  199MOL0     C27329   2.894   7.597   5.674  0.2966 -0.5004  0.1377
  199MOL0     C27330   3.016   7.591   5.612  0.0668  0.6358  0.8647
  199MOL0     C27331   3.043   7.668   5.503  0.2016  0.7066  1.0469
  199MOL0     O27332   3.168   7.665   5.441 -0.1756 -0.1020 -0.1758
  199MOL0     C27333   3.229   7.545   5.388 -0.0138 -1.2400 -0.4167
  199MOL0     C27334   3.356   7.517   5.466 -0.0148 -1.0293 -0.4152
  199MOL0     C27335   3.437   7.395   5.417 -0.1517 -0.0452  0.4575
  199MOL0     C27336   3.363   7.258   5.418 -0.0172 -0.0234 -0.2811
  199MOL0     C27337   3.398   7.183   5.559 -0.5101 -0.6527 -0.8875
  199MOL0     C27338   3.359   7.029   5.541  0.3516 -0.3992  1.0207
  199MOL0     C27339   3.422   6.958   5.662  0.6654  0.2592  0.2654
  199MOL0     C27340   3.385   6.810   5.675 -0.5598  0.0958 -0.1963
  199MOL0     N27341   3.441   6.737   5.566  0.3649 -0.4554  0.4847
  199MOL0     C27342   3.385   6.711   5.446 -0.2060 -0.5721  0.6496
  199MOL0     C27343   3.466   6.622   5.391  0.4944 -0.0479  0.0914
  199MOL0     C27344   3.448   6.575   5.246  0.4502  0.3964 -0.3287
  199MOL0     C27345   3.575   6.527   5.166  0.2567  0.3323 -0.7945
  199MOL0     C27346   3.657   6.656   5.147 -0.3409  1.1729  0.0086
  199MOL0     C27347   3.809   6.633   5.118 -0.2370 -0.7765 -0.0146
  199MOL0     O27348   3.890   6.727   5.040  0.2531 -0.2262 -0.1491
  199MOL0     C27349   3.850   6.764   4.914 -0.4435 -0.6894 -0.3552
  199MOL0     C27350   3.897   6.889   4.864  0.0334 -0.4968  0.0859
  199MOL0     C27351   3.874   6.927   4.730 -0.7755 -0.1420  0.6618
  199MOL0     C27352   3.942   7.056   4.688  0.2151  0.1693  0.4861
  199MOL0     C27353   3.795   6.843   4.639  0.4969 -0.6062 -0.2408
  199MOL0     C27354   3.756   6.877   4.494 -0.9187 -0.0394  0.2957
  199MOL0     O27355   3.652   6.801   4.435 -0.3787 -0.6612  0.5331
  199MOL0     C27356   3.666   6.773   4.300 -0.3083 -0.6571 -0.0244
  199MOL0     C27357   3.646   6.882   4.205 -0.0176 -0.0210  0.0284
  199MOL0     C27358   3.626   6.856   4.071 -0.2101  0.5572 -0.6827
  199MOL0     C27359   3.642   6.721   4.025  0.1447 -0.5299  0.4936
  199MOL0     O27360   3.621   6.678   3.894 -0.4610 -0.5251  0.5475
  199MOL0     C27361   3.582   6.770   3.797  0.3053  0.1601 -0.5226
  199MOL0     C27362   3.432   6.774   3.787  0.9561 -0.7751  0.7612
  199MOL0     C27363   3.378   6.620   3.775 -0.5810 -0.7994  1.0948
  199MOL0     C27364   3.229   6.617   3.733 -0.4709  0.8178 -0.4520
  199MOL0     C27365   3.186   6.474   3.724 -0.0695  0.1370 -0.8431
  199MOL0     C27366   3.040   6.471   3.677 -0.4492  0.1859  0.3084
  199MOL0     C27367   2.937   6.529   3.782 -0.0155 -0.2433 -0.5059
  199MOL0     C27368   2.787   6.499   3.749  0.1059  1.0076  0.1660
  199MOL0    Cl27369   2.762   6.329   3.690 -0.2424 -0.1719 -0.2937
  199MOL0     C27370   3.674   6.612   4.120  0.0189  0.1629 -0.0938
  199MOL0     C27371   3.679   6.645   4.252  0.2379 -0.1897  0.2478
  199MOL0     O27372   3.830   6.953   4.433  0.2478 -0.0890 -0.3925
  199MOL0     C27373   3.758   6.725   4.694 -0.5385  0.6319 -0.3939
  199MOL0     C27374   3.770   6.688   4.827 -0.9646  0.5282 -0.2788
  199MOL0     N27375   3.569   6.594   5.475 -0.0627 -0.0116 -0.2791
  199MOL0     N27376   3.557   6.663   5.583 -0.3694 -0.9566 -0.3999
  199MOL0     C27377   2.953   7.762   5.457 -0.4113 -0.2297  0.0196
  199MOL0     C27378   2.829   7.769   5.520  0.9288 -0.6074  0.1944
  199MOL0     C27379   2.452   7.613   5.755 -0.0178 -0.7333 -0.3162
  199MOL0     C27380   2.364   7.510   5.733 -0.5985  0.5991 -0.2804
  199MOL0     C27381   2.227   7.514   5.774 -0.1764 -0.3193 -0.5211
  199MOL0     C27382   2.179   7.639   5.831  0.6286  0.2933  0.2139
  199MOL0     O27383   2.051   7.653   5.894 -0.4283  0.2508 -1.1092
  199MOL0     C27384   1.959   7.543   5.899  0.8613  0.2300 -1.0412
  199MOL0     C27385   1.842   7.589   5.989  0.3336 -0.1014 -0.7860
  199MOL0     C27386   1.870   7.624   6.139 -0.1714 -0.6311  0.5681
  199MOL0     C27387   1.731   7.654   6.206 -1.4513 -0.0348 -0.4008
  199MOL0     C27388   1.722   7.801   6.199 -0.0845  0.0121  1.1054
  199MOL0     C27389   1.702   7.913   6.181  1.1997  0.1356 -1.2688
  199MOL0     C27390   2.268   7.747   5.839  0.5688  0.1582  0.2487
  199MOL0     C27391   2.405   7.736   5.813  0.1182 -0.1444  0.3088
  199MOL0     C27392   2.497   7.843   5.876 -0.0747 -0.0346 -0.7707
  199MOL0     H27393   2.873   7.525   5.753 -1.1107  0.4642  0.6821
  199MOL0     H27394   3.098   7.541   5.663  0.7979 -2.3304 -2.7757
  199MOL0     H27395   3.252   7.563   5.283  2.3008 -1.0333  0.0639
  199MOL0     H27396   3.162   7.460   5.403  3.6661 -3.9301  3.1159
  199MOL0     H27397   3.416   7.608   5.461 -0.9528 -0.3887 -0.2764
  199MOL0     H27398   3.328   7.503   5.571 -2.3661  3.8953 -0.1129
  199MOL0     H27399   3.462   7.410   5.312 -1.1166 -0.7495  0.1200
  199MOL0     H27400   3.532   7.383   5.469  0.0049 -1.7965 -0.1986
  199MOL0     H27401   3.259   7.275   5.388 -0.0045  1.9149  0.5974
  199MOL0     H27402   3.403   7.197   5.336  1.6019  2.2529 -1.2756
  199MOL0     H27403   3.329   7.228   5.630  1.6346  0.0507  0.8737
  199MOL0     H27404   3.497   7.203   5.601 -1.8454  2.6570  1.0835
  199MOL0     H27405   3.251   7.025   5.527  0.6533  0.5891 -2.9814
  199MOL0     H27406   3.403   6.995   5.447  0.0048  0.4649  0.5283
  199MOL0     H27407   3.373   7.009   5.746 -0.5753 -0.6397  0.1130
  199MOL0     H27408   3.531   6.965   5.664  0.7838 -1.2179  1.9145
  199MOL0     H27409   3.418   6.762   5.767  1.1456 -2.2131 -1.8986
  199MOL0     H27410   3.276   6.804   5.675 -0.6937  1.6972  1.3456
  199MOL0     H27411   3.311   6.757   5.382  1.2025 -2.2920 -2.3850
  199MOL0     H27412   3.389   6.651   5.194 -0.7340 -1.5345 -1.9122
  199MOL0     H27413   3.377   6.493   5.254  1.0689  0.0511  2.2815
  199MOL0     H27414   3.626   6.448   5.223  0.2400  0.1952 -0.9694
  199MOL0     H27415   3.563   6.472   5.073 -2.0835 -0.5580 -0.0437
  199MOL0     H27416   3.597   6.702   5.068 -1.1273  3.3103  1.7516
  199MOL0     H27417   3.650   6.727   5.230  0.4257  1.7078 -0.3726
  199MOL0     H27418   3.853   6.637   5.218 -1.9826  1.8940  0.7604
  199MOL0     H27419   3.823   6.537   5.068 -1.5673 -1.3283  0.6372
  199MOL0     H27420   3.956   6.956   4.926 -0.0805 -0.2866 -0.0300
  199MOL0     H27421   3.992   7.110   4.769  0.2121  0.9120  0.0030
  199MOL0     H27422   3.870   7.128   4.649 -0.2100 -0.4742  0.0753
  199MOL0     H27423   4.013   7.047   4.605 -1.8187  0.1348 -1.3364
  199MOL0     H27424   3.634   6.982   4.244 -0.9058 -0.8025  1.8846
  199MOL0     H27425   3.595   6.936   4.003  1.3430  1.7234 -0.0930
  199MOL0     H27426   3.624   6.870   3.810  0.3094  0.2852 -1.4383
  199MOL0     H27427   3.629   6.721   3.711  1.6028  1.3587 -0.5317
  199MOL0     H27428   3.378   6.827   3.867  0.5056  1.9166 -1.1711
  199MOL0     H27429   3.413   6.833   3.697  1.8374  1.9354  2.2262
  199MOL0     H27430   3.397   6.553   3.859 -1.6163 -1.8508  0.5126
  199MOL0     H27431   3.430   6.573   3.691 -2.0637 -0.7153  0.0871
  199MOL0     H27432   3.215   6.653   3.630 -0.9604 -0.2620 -0.7726
  199MOL0     H27433   3.177   6.682   3.803  2.9595  1.6917  1.5407
  199MOL0     H27434   3.257   6.425   3.658 -1.3694 -2.4970 -0.4181
  199MOL0     H27435   3.201   6.420   3.818  0.8391  1.6217 -0.0853
  199MOL0     H27436   3.017   6.369   3.647 -1.1401  0.6630 -0.9075
  199MOL0     H27437   3.034   6.528   3.583 -0.5934 -3.0098 -1.7809
  199MOL0     H27438   2.937   6.639   3.781  1.3366 -0.2155  0.1371
  199MOL0     H27439   2.958   6.496   3.884  0.3303 -1.8363 -1.0694
  199MOL0     H27440   2.761   6.564   3.665  2.4968 -1.4123 -2.6922
  199MOL0     H27441   2.724   6.504   3.838  1.4577 -1.7786  1.4107
  199MOL0     H27442   3.671   6.507   4.093 -0.5554 -0.0067  0.6006
  199MOL0     H27443   3.721   6.560   4.306  1.6350 -0.3652 -1.0452
  199MOL0     H27444   3.694   6.662   4.634 -1.4035  1.9729 -0.9133
  199MOL0     H27445   3.720   6.601   4.867  0.4604 -0.9558 -1.6000
  199MOL0     H27446   2.963   7.837   5.379 -3.4961 -1.5533 -1.8152
  199MOL0     H27447   2.752   7.841   5.496  1.2191  0.1434  1.4238
  199MOL0     H27448   2.411   7.415   5.709  0.0599  0.0392  2.7223
  199MOL0     H27449   2.164   7.427   5.759  0.0598 -0.3134 -1.6508
  199MOL0     H27450   1.922   7.500   5.806 -1.2994  1.2939 -0.7272
  199MOL0     H27451   2.006   7.463   5.958 -0.8326  0.4964  0.7893
  199MOL0     H27452   1.764   7.512   5.983 -1.0189  1.2076 -0.7152
  199MOL0     H27453   1.802   7.680   5.943  1.8045  1.5728  1.0820
  199MOL0     H27454   1.905   7.535   6.193 -1.7963 -0.9609  1.1474
  199MOL0     H27455   1.946   7.702   6.144 -0.5393 -0.0705 -1.5475
  199MOL0     H27456   1.734   7.625   6.311 -0.2756  0.5213 -0.2642
  199MOL0     H27457   1.641   7.607   6.165 -1.7392 -0.8833  1.1129
  199MOL0     H27458   1.676   8.017   6.172 -2.7709 -0.0895  3.3319
  199MOL0     H27459   2.234   7.833   5.896 -1.6365  0.8377 -1.9029
  199MOL0     H27460   2.570   7.894   5.813 -1.7529  5.9461  1.4977
  199MOL0     H27461   2.438   7.929   5.907 -1.9956 -1.5026 -0.1139
  199MOL0     H27462   2.548   7.789   5.956  0.4448  2.0384  0.3370
  200MOL0     O27463   4.630   6.483   6.195  0.5721 -0.7030 -0.7215
  200MOL0     C27464   4.575   6.491   6.085 -1.3780  0.4851  1.3860
  200MOL0     O27465   4.552   6.606   6.027  0.0484  0.4093  0.3191
  200MOL0     C27466   4.579   6.712   6.102  0.8359  0.7951 -0.1888
  200MOL0     C27467   4.475   6.809   6.120 -0.8263 -0.0248 -1.2194
  200MOL0     C27468   4.496   6.921   6.210 -0.5612  0.4675  0.2440
  200MOL0     C27469   4.631   6.945   6.251 -0.6896  0.3568 -0.5857
  200MOL0     O27470   4.658   7.067   6.312 -0.1967  0.9047 -0.0548
  200MOL0     C27471   4.580   7.108   6.431 -0.6269  0.0693 -0.2398
  200MOL0     C27472   4.613   7.248   6.477 -0.2164 -0.1072  0.1778
  200MOL0     C27473   4.519   7.286   6.594  0.3544 -1.5741 -0.1562
  200MOL0     C27474   4.561   7.210   6.727  0.3152  0.0146 -0.5504
  200MOL0     C27475   4.486   7.250   6.846  0.1253 -0.0220  0.3987
  200MOL0     C27476   4.539   7.178   6.976 -0.2968  0.0045 -0.7233
  200MOL0     C27477   4.449   7.194   7.096 -0.5014 -0.5111  0.7646
  200MOL0     C27478   4.396   7.336   7.111 -0.2374  0.4147  0.1203
  200MOL0     N27479   4.361   7.366   7.246 -0.2781  0.0794 -0.0523
  200MOL0     C27480   4.449   7.397   7.337  0.0827 -0.1128 -0.0522
  200MOL0     C27481   4.395   7.434   7.453 -0.2816 -1.1189 -0.1904
  200MOL0     C27482   4.451   7.490   7.574 -0.7393  0.4271  0.3922
  200MOL0     C27483   4.499   7.633   7.548 -0.1333 -0.7455  0.2407
  200MOL0     C27484   4.533   7.718   7.665 -1.1079 -0.3582  0.3599
  200MOL0     C27485   4.618   7.852   7.641 -0.0987 -0.1290 -1.0446
  200MOL0     O27486   4.587   7.953   7.744 -0.1509  0.1373 -0.0446
  200MOL0     C27487   4.634   8.083   7.730  0.4826 -0.1061  0.2630
  200MOL0     C27488   4.620   8.161   7.843 -0.2538 -0.3149  0.5669
  200MOL0     C27489   4.643   8.297   7.832 -0.2570  0.8502 -0.0468
  200MOL0     C27490   4.622   8.369   7.966 -1.1954  0.5594 -0.4181
  200MOL0     C27491   4.679   8.355   7.708 -0.5680  0.1470  0.1216
  200MOL0     C27492   4.726   8.494   7.702  0.3586  0.6065 -0.0770
  200MOL0     O27493   4.719   8.554   7.576  0.0267  0.0524 -0.4563
  200MOL0     C27494   4.771   8.679   7.543  0.6868  0.2054  0.2119
  200MOL0     C27495   4.844   8.680   7.424 -0.9802  0.0051  0.0147
  200MOL0     C27496   4.917   8.799   7.403  0.4977  0.1499 -0.1657
  200MOL0     C27497   4.894   8.922   7.465 -0.4082  0.6830  0.6060
  200MOL0     O27498   4.978   9.033   7.447  0.1724 -0.7586 -0.8860
  200MOL0     C27499   5.078   9.025   7.339  0.2590 -0.0165 -0.1981
  200MOL0     C27500   5.179   9.145   7.334  0.0027 -0.0434  0.3395
  200MOL0     C27501   5.106   9.268   7.280 -0.5904  0.6014 -1.1951
  200MOL0     C27502   5.223   9.370   7.237  0.1909 -0.2514 -0.0858
  200MOL0     C27503   5.210   9.506   7.315 -0.6318 -0.2749 -0.6102
  200MOL0     C27504   5.092   9.582   7.276  0.1649  0.2184 -0.3423
  200MOL0     C27505   5.103   9.664   7.147  0.2988 -0.9894 -0.1664
  200MOL0     C27506   5.238   9.734   7.113  0.4292 -1.1906 -0.2239
  200MOL0    Cl27507   5.301   9.849   7.233 -0.9531  0.0643 -0.5039
  200MOL0     C27508   4.811   8.916   7.572  0.7836 -0.8184 -0.7995
  200MOL0     C27509   4.745   8.799   7.615  0.6530 -0.5759  0.2593
  200MOL0     O27510   4.765   8.555   7.804  0.2974 -0.3295  0.4153
  200MOL0     C27511   4.686   8.272   7.595  0.3753 -0.2841  0.0466
  200MOL0     C27512   4.673   8.132   7.602  1.1048 -0.3257 -0.6401
  200MOL0     N27513   4.262   7.423   7.431  0.5274 -0.2158  1.1583
  200MOL0     N27514   4.233   7.376   7.305 -0.3950  0.0573  0.2649
  200MOL0     C27515   4.740   6.851   6.233  0.3815 -1.1119  0.3679
  200MOL0     C27516   4.707   6.746   6.155  0.4590  0.5093  0.2519
  200MOL0     C27517   4.560   6.357   6.005 -0.5475  0.4371 -0.5735
  200MOL0     C27518   4.591   6.375   5.866  0.1152  0.3655  0.1196
  200MOL0     C27519   4.590   6.264   5.785 -0.9042 -1.5128 -0.1272
  200MOL0     C27520   4.589   6.134   5.834  0.4507  0.1436 -0.7209
  200MOL0     O27521   4.617   6.027   5.749  0.4832  0.1310 -0.4849
  200MOL0     C27522   4.635   5.902   5.819 -0.3393 -1.0277  0.4094
  200MOL0     C27523   4.728   5.833   5.715 -0.2373  0.6553  0.3901
  200MOL0     C27524   4.727   5.681   5.757  0.1193 -0.5646  0.2932
  200MOL0     C27525   4.800   5.598   5.649  0.8073  0.8851 -0.1343
  200MOL0     C27526   4.790   5.452   5.676 -0.2625  0.5686 -0.3852
  200MOL0     C27527   4.779   5.330   5.696 -0.2927 -0.0912  0.7519
  200MOL0     C27528   4.553   6.119   5.973  0.1734  0.1389  0.2800
  200MOL0     C27529   4.548   6.227   6.063 -0.2768  0.2318  0.0005
  200MOL0     C27530   4.521   6.199   6.212 -0.1627 -0.5038 -0.0705
  200MOL0     H27531   4.371   6.790   6.093 -0.5649 -0.2970 -2.0631
  200MOL0     H27532   4.421   6.997   6.231 -1.3793 -0.6596  1.5711
  200MOL0     H27533   4.603   7.042   6.515 -1.4483  0.5637  0.3892
  200MOL0     H27534   4.472   7.107   6.417 -0.7606 -1.0000  0.7243
  200MOL0     H27535   4.719   7.266   6.498  0.4120 -0.2108 -2.5740
  200MOL0     H27536   4.594   7.325   6.401  3.7712 -0.4016 -1.3257
  200MOL0     H27537   4.514   7.395   6.609  1.2635 -1.6671  0.9028
  200MOL0     H27538   4.422   7.245   6.565 -0.9779  0.9010  0.5096
  200MOL0     H27539   4.547   7.102   6.718  0.0971 -0.1544  1.4196
  200MOL0     H27540   4.667   7.221   6.748  0.4312  0.0117 -1.1162
  200MOL0     H27541   4.392   7.204   6.815  1.8723 -3.0137 -0.9448
  200MOL0     H27542   4.474   7.358   6.846 -0.8953 -0.0341 -2.7709
  200MOL0     H27543   4.559   7.072   6.959  0.6978  0.3403 -1.7152
  200MOL0     H27544   4.634   7.222   7.006  0.2869 -0.6107 -1.6063
  200MOL0     H27545   4.503   7.152   7.182  4.3587  0.4245 -1.4789
  200MOL0     H27546   4.364   7.130   7.075 -0.1069 -0.9888  0.6126
  200MOL0     H27547   4.466   7.411   7.073  0.9967 -0.0083  1.4454
  200MOL0     H27548   4.301   7.343   7.058  0.6647  3.3625 -1.2905
  200MOL0     H27549   4.557   7.397   7.328  0.2142 -4.2979 -0.2661
  200MOL0     H27550   4.539   7.433   7.608  0.1531  1.2139 -0.5190
  200MOL0     H27551   4.373   7.487   7.650 -0.5270  4.2172  0.9092
  200MOL0     H27552   4.586   7.638   7.482  0.2397 -2.0563  0.5853
  200MOL0     H27553   4.434   7.696   7.487 -2.2148 -0.2644  2.7746
  200MOL0     H27554   4.432   7.740   7.703 -1.5221 -0.4330 -0.6802
  200MOL0     H27555   4.585   7.670   7.749  1.5296  0.0590 -0.9627
  200MOL0     H27556   4.724   7.827   7.658 -0.1033 -0.8470 -1.9882
  200MOL0     H27557   4.600   7.897   7.543  0.2104 -3.4361 -2.7566
  200MOL0     H27558   4.599   8.115   7.940  0.8291  1.1684  1.5532
  200MOL0     H27559   4.584   8.293   8.035 -0.8655 -3.2695 -4.0232
  200MOL0     H27560   4.539   8.436   7.945  0.1234  1.9267 -1.5007
  200MOL0     H27561   4.705   8.422   8.015 -0.8712 -0.3096  0.0029
  200MOL0     H27562   4.867   8.589   7.369  3.7869 -0.1003  1.7431
  200MOL0     H27563   5.003   8.788   7.337  1.9886  2.3147  1.2621
  200MOL0     H27564   5.144   8.941   7.365  0.6113  0.6027  0.9974
  200MOL0     H27565   5.030   9.008   7.242 -0.2472  0.0819  0.0322
  200MOL0     H27566   5.221   9.166   7.433  0.9322  1.1813 -0.2761
  200MOL0     H27567   5.259   9.114   7.265 -1.9204 -1.7851 -1.2284
  200MOL0     H27568   5.039   9.322   7.347 -1.3440 -0.9439 -0.6615
  200MOL0     H27569   5.055   9.239   7.188 -1.1704 -0.9134 -0.4227
  200MOL0     H27570   5.206   9.392   7.132  0.5149  0.8607  0.0796
  200MOL0     H27571   5.319   9.317   7.238 -0.2261 -1.0238  0.1417
  200MOL0     H27572   5.215   9.497   7.424 -0.5645  1.1772 -0.4685
  200MOL0     H27573   5.300   9.567   7.301 -1.7821  1.9877  1.1920
  200MOL0     H27574   5.085   9.662   7.350  2.2128  0.8132 -0.7222
  200MOL0     H27575   4.995   9.532   7.281 -1.0494  2.4261 -0.6607
  200MOL0     H27576   5.022   9.737   7.149  1.2942  0.2450 -1.9371
  200MOL0     H27577   5.070   9.602   7.063 -1.5971  1.0413 -1.0223
  200MOL0     H27578   5.224   9.802   7.029 -2.5702 -1.3656  0.0112
  200MOL0     H27579   5.320   9.663   7.100  0.1026 -1.7014  0.4568
  200MOL0     H27580   4.795   8.999   7.640 -2.0865 -2.4199  0.6770
  200MOL0     H27581   4.677   8.811   7.699  0.8007 -3.2428  0.8459
  200MOL0     H27582   4.710   8.320   7.500 -0.5250 -0.7533 -0.4397
  200MOL0     H27583   4.676   8.072   7.512  0.2839 -3.3354  1.1852
  200MOL0     H27584   4.839   6.870   6.273  1.2437 -2.8203 -0.7863
  200MOL0     H27585   4.785   6.672   6.144  0.9773  0.8364  1.5532
  200MOL0     H27586   4.605   6.474   5.823  1.3085  0.8114  1.4251
  200MOL0     H27587   4.617   6.259   5.680  1.7185 -2.4420  0.5060
  200MOL0     H27588   4.686   5.921   5.913  2.5036 -1.4259 -0.9381
  200MOL0     H27589   4.544   5.842   5.829  0.0441 -1.9186 -1.1898
  200MOL0     H27590   4.834   5.857   5.725  0.9063 -3.7486  1.2933
  200MOL0     H27591   4.692   5.845   5.613  1.8842  0.2824 -0.4400
  200MOL0     H27592   4.793   5.680   5.844  0.5877  1.8584  0.0074
  200MOL0     H27593   4.630   5.644   5.793 -1.2021  2.2513 -0.1429
  200MOL0     H27594   4.907   5.621   5.645  0.8733  0.6608  0.2160
  200MOL0     H27595   4.759   5.612   5.549  0.6158 -0.7190 -0.3099
  200MOL0     H27596   4.765   5.224   5.696  2.2090 -0.4805  0.5115
  200MOL0     H27597   4.530   6.025   6.023  1.7995  0.5302  1.8813
  200MOL0     H27598   4.425   6.247   6.235 -0.1811  0.3914 -1.8468
  200MOL0     H27599   4.502   6.094   6.232 -3.4701  0.0312  0.1442
  200MOL0     H27600   4.593   6.238   6.284 -1.1087 -0.1279  0.7000
  201MOL0     O27601   8.562   3.462   9.840 -0.0401 -0.0540 -0.1479
  201MOL0     C27602   8.484   3.548   9.792  1.0483  0.1124  0.2766
  201MOL0     O27603   8.515   3.677   9.770  0.0369 -0.0936 -0.1641
  201MOL0     C27604   8.644   3.710   9.820  0.4838 -0.9387  0.6337
  201MOL0     C27605   8.653   3.777   9.940  0.2923  0.1812  0.4990
  201MOL0     C27606   8.770   3.833   9.988 -0.5222  0.0772 -0.5346
  201MOL0     C27607   8.886   3.824   9.904 -0.2306 -0.2634  0.0945
  201MOL0     O27608   8.996   3.898   9.936 -0.6221  0.8290  0.2772
  201MOL0     C27609   9.088   3.818  10.020 -1.1043  0.1065 -0.4921
  201MOL0     C27610   9.233   3.862  10.010 -0.2551  0.6390  0.4087
  201MOL0     C27611   9.305   3.835   9.874  0.8864  1.2310  0.7161
  201MOL0     C27612   9.435   3.916   9.874  0.9663  0.4145  0.2163
  201MOL0     C27613   9.542   3.863   9.778 -0.4951 -0.3830  1.0823
  201MOL0     C27614   9.492   3.859   9.636 -0.7756 -1.1501 -0.7170
  201MOL0     C27615   9.558   3.754   9.538  1.2662 -1.1846  0.4734
  201MOL0     C27616   9.501   3.612   9.549  0.0428  0.8520 -0.3077
  201MOL0     N27617   9.594   3.536   9.460  0.0524 -0.5073 -0.6324
  201MOL0     C27618   9.575   3.545   9.319  0.0492  0.3142  0.0097
  201MOL0     C27619   9.699   3.498   9.279  0.5258  0.1812  0.8349
  201MOL0     C27620   9.725   3.496   9.135  0.2961  0.2706  0.1768
  201MOL0     C27621   9.696   3.359   9.070 -0.1712 -0.3206 -0.2727
  201MOL0     C27622   9.713   3.362   8.911  0.2718  0.6047  0.0026
  201MOL0     C27623   9.661   3.234   8.853 -0.0480  0.9693  0.9137
  201MOL0     O27624   9.684   3.225   8.714  0.4421  0.3480 -0.6924
  201MOL0     C27625   9.653   3.107   8.647 -0.1920 -0.5488  0.3559
  201MOL0     C27626   9.681   3.103   8.506 -0.5259 -0.0130 -0.7464
  201MOL0     C27627   9.630   2.996   8.424 -0.1607  0.2561  0.3240
  201MOL0     C27628   9.666   2.996   8.282  0.0788 -0.5375  0.2674
  201MOL0     C27629   9.556   2.879   8.475  0.2129 -0.8141 -0.8461
  201MOL0     C27630   9.494   2.772   8.398  0.1525 -0.4652  0.5961
  201MOL0     O27631   9.440   2.678   8.477  0.1300  0.2608 -0.1990
  201MOL0     C27632   9.372   2.583   8.418 -0.2401  1.0685 -0.4867
  201MOL0     C27633   9.421   2.454   8.413 -0.5630  0.4516 -0.8208
  201MOL0     C27634   9.351   2.351   8.360 -0.4208  0.2108 -0.0951
  201MOL0     C27635   9.218   2.370   8.315 -0.3338  0.0492  0.6737
  201MOL0     O27636   9.143   2.266   8.261  0.1113  0.6635 -0.1820
  201MOL0     C27637   9.209   2.168   8.178 -0.0066 -0.8285  0.0713
  201MOL0     C27638   9.170   2.189   8.031 -0.1137 -0.7362  0.1105
  201MOL0     C27639   9.067   2.083   7.988 -0.7721 -0.2180 -0.0716
  201MOL0     C27640   9.033   2.096   7.841 -0.5375  0.1458  1.4701
  201MOL0     C27641   8.914   2.006   7.813  0.2809  0.4087  0.1798
  201MOL0     C27642   8.881   2.008   7.664  0.0245 -0.2378  0.1471
  201MOL0     C27643   8.852   1.851   7.636  0.0028  0.7672  0.7335
  201MOL0     C27644   8.802   1.844   7.490 -0.1988  0.3880  0.4389
  201MOL0    Cl27645   8.649   1.935   7.470 -0.5161 -0.2674 -0.0297
  201MOL0     C27646   9.166   2.496   8.322  0.3261 -0.0345  0.2153
  201MOL0     C27647   9.236   2.604   8.378  0.4617 -0.0191  0.3670
  201MOL0     O27648   9.513   2.762   8.271  0.1073  0.0796 -0.4574
  201MOL0     C27649   9.532   2.888   8.618 -0.0010 -0.0049 -0.0009
  201MOL0     C27650   9.578   2.998   8.698  1.1690 -0.4267 -0.1777
  201MOL0     N27651   9.771   3.444   9.385 -0.1287  0.2714  0.4171
  201MOL0     N27652   9.707   3.467   9.498  0.0535  0.5217 -0.8018
  201MOL0     C27653   8.880   3.749   9.784 -0.6104 -0.5714 -0.2463
  201MOL0     C27654   8.763   3.687   9.742  0.2216 -0.7037 -0.7974
  201MOL0     C27655   8.350   3.500   9.747  0.1232  0.0401  0.6168
  201MOL0     C27656   8.282   3.561   9.641 -0.2550 -0.7348 -0.1243
  201MOL0     C27657   8.160   3.511   9.583 -0.5831 -0.2140  0.8174
  201MOL0     C27658   8.106   3.393   9.632  0.7009  0.7956  0.8705
  201MOL0     O27659   7.988   3.343   9.589 -0.1735  0.9927  0.5334
  201MOL0     C27660   7.873   3.435   9.584  0.1793 -0.7365 -0.2508
  201MOL0     C27661   7.801   3.432   9.712 -0.9219 -0.2027 -0.4247
  201MOL0     C27662   7.762   3.291   9.759  0.2577 -0.3647 -0.3932
  201MOL0     C27663   7.690   3.291   9.897  0.1170 -0.3879  0.3933
  201MOL0     C27664   7.604   3.172   9.896  0.1275  0.6052  0.3696
  201MOL0     C27665   7.549   3.060   9.908  1.0581 -0.2328 -1.2271
  201MOL0     C27666   8.183   3.319   9.725 -0.1757  0.3163 -0.1817
  201MOL0     C27667   8.310   3.364   9.774  1.5352 -0.2115  0.0027
  201MOL0     C27668   8.380   3.264   9.855 -0.6282  0.9368 -0.5396
  201MOL0     H27669   8.568   3.782  10.007 -0.2949 -1.4868 -0.0821
  201MOL0     H27670   8.771   3.885  10.083  1.1487 -1.1443  0.1807
  201MOL0     H27671   9.081   3.710  10.009  0.6416  0.0458 -1.4183
  201MOL0     H27672   9.069   3.852  10.122  0.9567 -0.0976  0.0007
  201MOL0     H27673   9.240   3.969  10.031  1.3592  0.8213 -0.8508
  201MOL0     H27674   9.295   3.809  10.083 -2.5081  0.0542  1.9998
  201MOL0     H27675   9.339   3.736   9.845  0.9959  1.4940 -0.0596
  201MOL0     H27676   9.234   3.876   9.802 -0.4199  0.4249  1.4929
  201MOL0     H27677   9.407   4.021   9.861 -0.7801 -0.0560 -0.0969
  201MOL0     H27678   9.476   3.916   9.976 -0.6679  1.4032  0.9076
  201MOL0     H27679   9.576   3.766   9.816  0.0074  0.2857  2.4240
  201MOL0     H27680   9.625   3.933   9.788 -0.5736 -0.2250  0.6541
  201MOL0     H27681   9.383   3.849   9.637 -1.0890  1.3856  0.7121
  201MOL0     H27682   9.511   3.957   9.592  0.0021 -1.4905 -1.1529
  201MOL0     H27683   9.667   3.750   9.540  1.4986 -0.7373 -3.5688
  201MOL0     H27684   9.519   3.789   9.442 -2.8545 -0.1661  2.2612
  201MOL0     H27685   9.511   3.573   9.651 -1.3296  0.8931 -0.1507
  201MOL0     H27686   9.400   3.623   9.509 -0.2974  1.5348  0.6957
  201MOL0     H27687   9.486   3.573   9.263 -0.9628 -0.3170  1.2420
  201MOL0     H27688   9.832   3.510   9.120  0.3571  0.1198  0.4533
  201MOL0     H27689   9.664   3.575   9.090 -2.4931 -0.1458  2.8513
  201MOL0     H27690   9.764   3.286   9.114 -2.7037 -1.9026  1.2767
  201MOL0     H27691   9.592   3.341   9.101 -0.9346  1.8595 -1.3334
  201MOL0     H27692   9.656   3.446   8.871 -0.7825  0.3964  1.0034
  201MOL0     H27693   9.815   3.387   8.884  1.1245 -1.5242  0.9748
  201MOL0     H27694   9.712   3.156   8.911 -0.0262  3.5120  4.7108
  201MOL0     H27695   9.553   3.225   8.867  0.0620  0.6825  1.6261
  201MOL0     H27696   9.726   3.191   8.462  1.9729 -0.7004  0.2321
  201MOL0     H27697   9.734   2.914   8.255 -0.6880 -1.1129  0.0402
  201MOL0     H27698   9.710   3.091   8.253  2.3865 -1.7904 -0.5862
  201MOL0     H27699   9.574   2.976   8.227  0.8255  0.3865 -1.3645
  201MOL0     H27700   9.529   2.445   8.424 -0.7582  0.1483  1.1476
  201MOL0     H27701   9.411   2.261   8.345 -3.0170 -1.9142  1.2888
  201MOL0     H27702   9.318   2.170   8.188  0.0292 -1.0953 -0.2281
  201MOL0     H27703   9.176   2.072   8.219  0.5265 -1.0145  0.0804
  201MOL0     H27704   9.144   2.293   8.014 -0.8736 -1.0750 -0.8897
  201MOL0     H27705   9.258   2.170   7.968  1.9211 -0.6256  2.7086
  201MOL0     H27706   8.983   2.104   8.055  0.7445 -3.1952  3.0724
  201MOL0     H27707   9.096   1.981   8.016 -3.9535 -0.8732  1.2748
  201MOL0     H27708   9.115   2.067   7.774  1.4040  1.3260  3.2244
  201MOL0     H27709   9.013   2.199   7.810  1.3858 -0.2805 -1.7668
  201MOL0     H27710   8.940   1.904   7.843  2.0861  0.6349 -0.5135
  201MOL0     H27711   8.821   2.037   7.863 -1.6366 -2.1415 -1.5382
  201MOL0     H27712   8.974   2.044   7.617  1.9228  0.4361  4.0000
  201MOL0     H27713   8.791   2.066   7.643  0.2272 -0.0799 -0.2991
  201MOL0     H27714   8.776   1.806   7.700  0.1055 -0.0416  0.3098
  201MOL0     H27715   8.948   1.797   7.630  0.9330  2.5038 -2.5899
  201MOL0     H27716   8.775   1.740   7.470  4.1393 -1.4232  2.7490
  201MOL0     H27717   8.874   1.878   7.415 -1.5778  1.4853 -0.4426
  201MOL0     H27718   9.064   2.513   8.290  1.1679 -0.0246 -2.8542
  201MOL0     H27719   9.205   2.707   8.391  0.8997  0.4504 -1.9076
  201MOL0     H27720   9.476   2.812   8.672 -1.0873  1.6640  1.3275
  201MOL0     H27721   9.560   2.984   8.804  1.3143  0.1024 -0.0796
  201MOL0     H27722   8.970   3.744   9.724  0.8177 -0.7246  1.8114
  201MOL0     H27723   8.754   3.637   9.646  0.8991 -0.9141 -0.7578
  201MOL0     H27724   8.323   3.653   9.601 -0.3851  0.2770  1.9347
  201MOL0     H27725   8.111   3.564   9.502  0.9568 -1.7885 -1.2534
  201MOL0     H27726   7.903   3.539   9.573 -3.1377  0.6261  1.9326
  201MOL0     H27727   7.812   3.408   9.497  2.2587 -2.1509 -1.3420
  201MOL0     H27728   7.709   3.489   9.700 -1.8660 -1.0135  2.2927
  201MOL0     H27729   7.859   3.489   9.785 -2.4000  1.9360 -0.8183
  201MOL0     H27730   7.708   3.244   9.676  1.1243  2.0183 -2.4479
  201MOL0     H27731   7.856   3.236   9.763  2.9197  3.6422 -1.5892
  201MOL0     H27732   7.647   3.391   9.909  1.4233  0.1875  0.4262
  201MOL0     H27733   7.764   3.280   9.977 -2.1016 -0.0507  2.6013
  201MOL0     H27734   7.488   2.972   9.904 -0.1815  0.6378 -3.3801
  201MOL0     H27735   8.137   3.223   9.743  0.8049  0.2400  2.3401
  201MOL0     H27736   8.312   3.186   9.889 -0.0195  0.8573  0.5234
  201MOL0     H27737   8.468   3.218   9.809 -0.7970 -1.6641  1.5157
  201MOL0     H27738   8.415   3.310   9.948 -0.8955 -1.3524  0.7602
  202MOL0     O27739   9.565   3.494   9.972 -0.1212 -1.0624 -0.3740
  202MOL0     C27740   9.643   3.429  10.044 -1.1697  0.0915 -1.5073
  202MOL0     O27741   9.627   3.405  10.178  0.0700  0.4957  0.4344
  202MOL0     C27742   9.506   3.425  10.242 -0.0792 -0.9279  1.2539
  202MOL0     C27743   9.389   3.403  10.169  0.0725 -0.5095 -0.4347
  202MOL0     C27744   9.262   3.422  10.233 -0.2644 -0.3310 -0.1947
  202MOL0     C27745   9.255   3.456  10.368 -0.1574 -0.5829  0.1567
  202MOL0     O27746   9.131   3.464  10.426  0.0059 -0.3929  0.6452
  202MOL0     C27747   9.107   3.358  10.520  0.4400  0.5594 -1.3578
  202MOL0     C27748   9.003   3.251  10.477 -0.8996  0.1447  0.2729
  202MOL0     C27749   8.893   3.307  10.389 -0.5320  0.6518 -0.6488
  202MOL0     C27750   8.890   3.258  10.245  0.0361 -0.3159  0.1212
  202MOL0     C27751   8.755   3.294  10.170  0.2800 -0.7666 -0.2570
  202MOL0     C27752   8.766   3.247  10.022 -0.6117  0.2975 -0.5443
  202MOL0     C27753   8.885   3.314   9.949 -0.7755 -0.0635  1.0082
  202MOL0     C27754   8.872   3.298   9.792 -0.4564 -0.3804  0.6829
  202MOL0     N27755   8.873   3.154   9.764 -1.0066  0.6001  0.2607
  202MOL0     C27756   8.762   3.071   9.757 -0.1712  0.2584 -0.0831
  202MOL0     C27757   8.801   2.962   9.690  0.6407  0.7567 -0.9336
  202MOL0     C27758   8.717   2.836   9.676  0.5306  0.1972  0.3993
  202MOL0     C27759   8.717   2.796   9.527  0.3917 -0.3919 -0.2649
  202MOL0     C27760   8.624   2.679   9.491  0.3115 -0.2917 -0.2614
  202MOL0     C27761   8.629   2.557   9.588  0.1508  0.0835  0.2726
  202MOL0     O27762   8.577   2.427   9.537  0.7754 -0.1685  0.0492
  202MOL0     C27763   8.446   2.430   9.510  0.2394 -0.0330 -0.5366
  202MOL0     C27764   8.339   2.515   9.561 -0.4306 -0.2937 -0.6977
  202MOL0     C27765   8.210   2.481   9.540  0.4627 -0.1316 -0.4638
  202MOL0     C27766   8.108   2.563   9.606  0.0236  0.2964 -0.0429
  202MOL0     C27767   8.172   2.384   9.440 -0.0939  1.1270  0.1803
  202MOL0     C27768   8.030   2.343   9.397  0.4442  0.1166  0.2995
  202MOL0     O27769   8.024   2.275   9.283  0.3425 -0.3437  0.1907
  202MOL0     C27770   7.906   2.242   9.221 -0.2110  0.4572  0.0346
  202MOL0     C27771   7.814   2.155   9.282  0.2490 -0.6607  0.0195
  202MOL0     C27772   7.699   2.106   9.214  0.3974  0.3418 -0.2327
  202MOL0     C27773   7.678   2.152   9.079 -0.2561  0.4061 -0.8234
  202MOL0     O27774   7.581   2.099   9.009  0.2009 -0.4958  0.3520
  202MOL0     C27775   7.449   2.092   9.067  0.1321 -0.5097 -0.0399
  202MOL0     C27776   7.342   2.083   8.957 -0.0498 -0.4057  0.1977
  202MOL0     C27777   7.292   1.941   8.922  0.3246 -0.0203 -0.3301
  202MOL0     C27778   7.207   1.939   8.790  0.1287  0.3367 -0.2374
  202MOL0     C27779   7.186   1.802   8.732  0.7939 -0.5005 -1.1693
  202MOL0     C27780   7.102   1.709   8.819 -0.2955 -0.8475 -0.5487
  202MOL0     C27781   6.950   1.755   8.810 -0.0308  0.4880  0.1284
  202MOL0     C27782   6.861   1.684   8.916  0.0117  0.6146  0.1336
  202MOL0    Cl27783   6.688   1.745   8.921 -0.6698  0.0190 -0.0683
  202MOL0     C27784   7.758   2.250   9.022  1.2711  1.4317  0.2179
  202MOL0     C27785   7.872   2.284   9.097  0.1065  0.1668  0.9310
  202MOL0     O27786   7.934   2.387   9.457  0.7556 -0.3278  0.7413
  202MOL0     C27787   8.273   2.313   9.375  0.2529 -0.3056 -0.1752
  202MOL0     C27788   8.408   2.330   9.417 -0.4326 -0.3953 -0.2550
  202MOL0     N27789   8.929   2.982   9.652  0.8927 -1.3957 -0.5573
  202MOL0     N27790   8.974   3.097   9.688  0.6289 -0.6738 -0.2095
  202MOL0     C27791   9.376   3.484  10.438 -0.4429 -0.6990  0.5070
  202MOL0     C27792   9.498   3.463  10.375  0.2551 -0.3696 -0.0143
  202MOL0     C27793   9.773   3.382   9.983  0.2310 -0.0915  0.5090
  202MOL0     C27794   9.766   3.365   9.844  1.0827  0.1849 -0.3285
  202MOL0     C27795   9.863   3.300   9.775  0.3684  0.5112  0.9919
  202MOL0     C27796   9.982   3.246   9.834 -0.1942  0.1676  0.3755
  202MOL0     O27797  10.080   3.187   9.758  0.1916 -0.1094  1.1512
  202MOL0     C27798  10.049   3.140   9.624 -0.4324  1.3900 -0.5181
  202MOL0     C27799  10.065   3.239   9.498  0.8676 -0.4675 -0.0703
  202MOL0     C27800  10.057   3.159   9.360 -0.6902  0.3679 -0.0639
  202MOL0     C27801  10.085   3.262   9.255  0.4058  0.4318 -0.0780
  202MOL0     C27802  10.082   3.210   9.113  0.1264 -1.1888 -0.2595
  202MOL0     C27803  10.106   3.172   8.999 -0.0053  0.2733 -0.5153
  202MOL0     C27804   9.997   3.266   9.964  1.1504  0.2241 -1.0101
  202MOL0     C27805   9.895   3.327  10.041  0.1877  0.7142  0.0718
  202MOL0     C27806   9.923   3.368  10.185 -0.2220  0.1793 -0.3094
  202MOL0     H27807   9.392   3.375  10.065  0.2359 -0.7489 -0.3666
  202MOL0     H27808   9.176   3.396  10.172  0.1837  1.7097 -1.8293
  202MOL0     H27809   9.060   3.400  10.610 -3.5442 -2.4955 -1.7497
  202MOL0     H27810   9.200   3.315  10.559 -0.6405 -1.2241 -0.6100
  202MOL0     H27811   9.040   3.156  10.438 -1.9464  0.6157 -1.9818
  202MOL0     H27812   8.953   3.212  10.566  2.0657 -2.6075  0.9280
  202MOL0     H27813   8.802   3.260  10.430 -0.5441  1.3702  0.1739
  202MOL0     H27814   8.881   3.415  10.389 -0.0099  0.7110 -0.6078
  202MOL0     H27815   8.975   3.312  10.202 -0.6286  4.1308  3.6362
  202MOL0     H27816   8.907   3.150  10.241  3.0233  0.0790 -4.2094
  202MOL0     H27817   8.748   3.403  10.167  1.7575 -0.6695 -1.3311
  202MOL0     H27818   8.674   3.254  10.232  0.2288 -0.9934 -0.4697
  202MOL0     H27819   8.791   3.141  10.032 -2.7778 -0.3135 -0.9547
  202MOL0     H27820   8.669   3.265   9.975 -0.9041  0.5291  0.1381
  202MOL0     H27821   8.980   3.272   9.986 -0.9761 -2.9485 -1.3994
  202MOL0     H27822   8.878   3.422   9.965 -2.6032 -0.2260  1.4598
  202MOL0     H27823   8.777   3.343   9.764 -0.7828 -0.7713  1.1576
  202MOL0     H27824   8.944   3.367   9.746 -2.2650  1.4348  0.4639
  202MOL0     H27825   8.665   3.076   9.804 -1.2845  0.8620 -2.3108
  202MOL0     H27826   8.617   2.863   9.713 -0.7369 -3.1534 -0.2671
  202MOL0     H27827   8.754   2.755   9.739  0.5953  1.1042  1.5535
  202MOL0     H27828   8.694   2.886   9.469 -0.3723 -0.1539  0.3952
  202MOL0     H27829   8.818   2.759   9.506 -0.6070 -3.9410  0.4761
  202MOL0     H27830   8.520   2.713   9.494 -0.3082 -1.9140 -1.3702
  202MOL0     H27831   8.647   2.651   9.388  1.0146 -1.4148  0.1791
  202MOL0     H27832   8.734   2.526   9.600  0.7692  1.2435 -1.6731
  202MOL0     H27833   8.594   2.575   9.690  0.1217 -0.0665  0.2895
  202MOL0     H27834   8.353   2.592   9.636  1.3136 -1.3662  0.1556
  202MOL0     H27835   8.148   2.641   9.672 -2.6040  3.0461 -1.4820
  202MOL0     H27836   8.041   2.501   9.666  0.7689 -1.7101 -1.1648
  202MOL0     H27837   8.058   2.616   9.525  3.2723 -0.2267 -2.5986
  202MOL0     H27838   7.836   2.130   9.386  1.0809 -1.0439 -0.2348
  202MOL0     H27839   7.642   2.032   9.270 -0.2324  0.4826 -0.6715
  202MOL0     H27840   7.457   2.002   9.128  1.8045 -0.0417  0.4850
  202MOL0     H27841   7.412   2.173   9.131 -0.4467 -0.5896 -0.2601
  202MOL0     H27842   7.250   2.138   8.978 -0.9814 -1.6346 -0.4923
  202MOL0     H27843   7.376   2.147   8.875 -3.7159  4.4589  1.9676
  202MOL0     H27844   7.228   1.922   9.008 -1.9540  0.5550 -1.8089
  202MOL0     H27845   7.372   1.866   8.921 -1.4590 -2.0134 -0.3149
  202MOL0     H27846   7.248   2.000   8.709 -2.9078 -0.3864 -2.5005
  202MOL0     H27847   7.114   1.986   8.825  0.8740  0.1760  2.1978
  202MOL0     H27848   7.133   1.812   8.636  1.2364 -4.3712 -1.9673
  202MOL0     H27849   7.287   1.761   8.731  0.1831 -2.1948  0.8900
  202MOL0     H27850   7.145   1.696   8.919 -2.4215 -2.9468  0.1942
  202MOL0     H27851   7.111   1.610   8.774 -3.6241  0.1319 -3.9422
  202MOL0     H27852   6.906   1.745   8.711  2.3874 -2.1970 -0.7859
  202MOL0     H27853   6.943   1.861   8.834 -1.7226 -0.5232  5.6189
  202MOL0     H27854   6.904   1.686   9.016 -2.5598  1.2458  1.3084
  202MOL0     H27855   6.857   1.579   8.886  0.2793 -0.2549  2.9053
  202MOL0     H27856   7.733   2.300   8.929  1.1522  1.2976  0.1791
  202MOL0     H27857   7.941   2.357   9.055  3.6907 -2.9855  0.7998
  202MOL0     H27858   8.237   2.237   9.306 -2.8096  2.4542 -1.9131
  202MOL0     H27859   8.493   2.282   9.369  0.2866 -0.9361  1.4826
  202MOL0     H27860   9.384   3.527  10.537  1.9949 -0.4865  0.2833
  202MOL0     H27861   9.589   3.480  10.433 -2.0755 -3.0958  5.1344
  202MOL0     H27862   9.676   3.396   9.793 -0.2504 -1.7262  0.7359
  202MOL0     H27863   9.857   3.294   9.667 -0.5628  3.6181  0.7775
  202MOL0     H27864  10.111   3.051   9.615 -0.4766  1.3989 -0.9341
  202MOL0     H27865   9.946   3.102   9.623 -1.1330  3.0913  0.8559
  202MOL0     H27866  10.163   3.287   9.507  0.3984  0.2076  2.3403
  202MOL0     H27867   9.992   3.319   9.510  1.5526 -0.0263  1.4696
  202MOL0     H27868  10.136   3.084   9.356 -0.6624  0.4103 -0.3528
  202MOL0     H27869   9.963   3.110   9.335  0.1501 -0.9296 -0.8360
  202MOL0     H27870  10.184   3.298   9.285  0.1048 -1.0591  3.0420
  202MOL0     H27871  10.008   3.339   9.268 -0.3729 -0.7136  2.5923
  202MOL0     H27872  10.143   3.125   8.911  1.1498 -1.1432  0.6724
  202MOL0     H27873  10.083   3.236  10.022  1.9916  2.7251 -0.8747
  202MOL0     H27874   9.900   3.290  10.258  4.1749 -1.5213 -0.4221
  202MOL0     H27875  10.029   3.383  10.206 -0.2719 -0.4774  0.4980
  202MOL0     H27876   9.869   3.460  10.208 -0.1625 -0.1568  1.3297
  203MOL0     O27877   4.690   7.923   8.631  0.4793 -0.3074 -0.1142
  203MOL0     C27878   4.629   7.819   8.607 -0.0413  0.3519 -1.1194
  203MOL0     O27879   4.689   7.705   8.606  0.3630  0.1201 -0.5582
  203MOL0     C27880   4.815   7.676   8.559 -0.3067 -0.3908 -1.2696
  203MOL0     C27881   4.881   7.750   8.457  1.4240  0.6384 -0.2547
  203MOL0     C27882   5.007   7.714   8.409  0.0201  0.0812  0.9125
  203MOL0     C27883   5.068   7.598   8.447 -0.1214 -1.0818 -0.3276
  203MOL0     O27884   5.201   7.572   8.412  0.0839 -0.5309  0.1071
  203MOL0     C27885   5.251   7.437   8.406 -0.8661 -0.1919  0.2399
  203MOL0     C27886   5.395   7.451   8.349  0.2958 -0.6746 -0.0262
  203MOL0     C27887   5.487   7.526   8.443 -0.2548  0.1286  1.9947
  203MOL0     C27888   5.623   7.546   8.372  0.2809 -0.0929 -1.0219
  203MOL0     C27889   5.717   7.654   8.433  0.2093  0.2490  0.4490
  203MOL0     C27890   5.851   7.666   8.364 -0.3851 -0.3310  0.1975
  203MOL0     C27891   5.925   7.763   8.454 -0.1825 -0.7560  0.3131
  203MOL0     C27892   6.075   7.777   8.419 -0.3336 -0.0310  0.3367
  203MOL0     N27893   6.132   7.888   8.500  0.0578  0.1310 -0.4673
  203MOL0     C27894   6.170   7.885   8.634 -0.1660  0.3590 -0.2177
  203MOL0     C27895   6.185   8.009   8.665  0.6033  0.1724  0.2202
  203MOL0     C27896   6.237   8.049   8.807 -0.7480 -1.0039  0.3303
  203MOL0     C27897   6.383   8.078   8.803 -0.2781 -0.0277  0.0720
  203MOL0     C27898   6.464   7.964   8.754 -1.4108  0.1272 -0.2261
  203MOL0     C27899   6.608   8.000   8.733 -0.0504  0.5153 -1.0970
  203MOL0     O27900   6.676   7.983   8.861 -0.3692  0.4140 -0.1228
  203MOL0     C27901   6.817   7.999   8.872  0.2151  0.1107  0.1666
  203MOL0     C27902   6.875   7.963   8.993 -0.9657  0.5720 -0.0008
  203MOL0     C27903   7.017   7.986   9.017  1.0358  0.4693 -0.9480
  203MOL0     C27904   7.070   7.952   9.157 -0.1755 -0.5085 -0.2319
  203MOL0     C27905   7.091   8.046   8.916 -0.1610 -0.6852  0.1906
  203MOL0     C27906   7.242   8.080   8.925 -0.2407 -0.4143  1.2776
  203MOL0     O27907   7.308   8.049   9.040 -0.2183  0.7828  0.2175
  203MOL0     C27908   7.443   8.065   9.042  1.4518 -1.2442 -0.1321
  203MOL0     C27909   7.522   8.004   8.937 -0.4749 -0.2866  0.4675
  203MOL0     C27910   7.662   8.000   8.958  1.3690 -0.2840  0.7366
  203MOL0     C27911   7.721   8.076   9.061 -0.7571  0.3958 -0.4075
  203MOL0     O27912   7.860   8.050   9.073  0.1361  0.1760  0.3679
  203MOL0     C27913   7.932   8.111   9.178  0.9250 -0.1896  0.1353
  203MOL0     C27914   8.073   8.081   9.140 -0.7288 -0.2209 -0.4778
  203MOL0     C27915   8.167   8.058   9.256 -0.2066 -0.7160 -0.1638
  203MOL0     C27916   8.309   8.023   9.193 -0.1642  0.6200  0.2130
  203MOL0     C27917   8.405   7.959   9.308 -0.3627  0.1721  1.2893
  203MOL0     C27918   8.546   7.951   9.266 -0.1229 -0.3997 -0.1230
  203MOL0     C27919   8.608   8.089   9.238 -0.7865  0.8240  0.6603
  203MOL0     C27920   8.653   8.159   9.359 -0.2001 -0.0313  0.7570
  203MOL0    Cl27921   8.776   8.063   9.444  0.2966  0.1331 -0.2019
  203MOL0     C27922   7.647   8.150   9.153 -0.1097 -0.3285 -0.7243
  203MOL0     C27923   7.504   8.140   9.144  0.0622 -0.2597 -0.5586
  203MOL0     O27924   7.295   8.117   8.821 -0.3882  0.3363  0.0659
  203MOL0     C27925   7.032   8.076   8.792  1.2530 -0.1731  0.1827
  203MOL0     C27926   6.900   8.048   8.765  0.6221  0.4686  0.0925
  203MOL0     N27927   6.190   8.090   8.556 -0.1095  0.1360 -0.5149
  203MOL0     N27928   6.148   8.018   8.459  0.8701 -0.0754  0.6466
  203MOL0     C27929   5.002   7.524   8.552  0.6404  0.2484  0.8183
  203MOL0     C27930   4.883   7.561   8.606 -0.5889 -0.9373 -0.6121
  203MOL0     C27931   4.484   7.810   8.627 -0.7725  0.5612 -0.2737
  203MOL0     C27932   4.442   7.731   8.730 -0.0717  0.3339 -0.3398
  203MOL0     C27933   4.306   7.703   8.760 -0.4408 -0.7817 -0.4766
  203MOL0     C27934   4.203   7.763   8.683 -0.7951  0.6846 -1.2781
  203MOL0     O27935   4.071   7.747   8.694  0.4942  0.4738  0.6275
  203MOL0     C27936   4.016   7.629   8.764  0.1118 -0.4914 -0.7645
  203MOL0     C27937   3.991   7.658   8.920 -0.1302  0.5580  0.0266
  203MOL0     C27938   3.913   7.780   8.948  0.3537 -0.0409 -0.0144
  203MOL0     C27939   3.858   7.797   9.091  0.1233  0.2613 -0.4832
  203MOL0     C27940   3.806   7.936   9.105  0.2678 -0.2776 -0.0508
  203MOL0     C27941   3.759   8.045   9.120  0.2753  0.5030  0.5758
  203MOL0     C27942   4.244   7.850   8.593  0.4737  0.0632 -0.4923
  203MOL0     C27943   4.381   7.876   8.560 -0.7556 -0.2277  0.1664
  203MOL0     C27944   4.412   7.970   8.455 -0.2204 -0.6087  0.2522
  203MOL0     H27945   4.830   7.840   8.425  1.6714  1.1784  0.8381
  203MOL0     H27946   5.055   7.779   8.337  2.1292 -1.5508  0.7611
  203MOL0     H27947   5.194   7.373   8.339  1.4247 -1.1253 -0.8935
  203MOL0     H27948   5.251   7.389   8.504 -0.8370 -0.3747  0.1498
  203MOL0     H27949   5.433   7.349   8.350  1.7833 -0.1735  2.1049
  203MOL0     H27950   5.388   7.497   8.249 -2.6660 -1.0689 -0.0871
  203MOL0     H27951   5.441   7.624   8.457 -1.8576 -0.1947 -0.4515
  203MOL0     H27952   5.501   7.472   8.538 -0.6613  0.9122  2.5054
  203MOL0     H27953   5.668   7.447   8.382 -2.9542 -1.4463  2.4465
  203MOL0     H27954   5.599   7.579   8.270  1.5892  1.5101 -0.8518
  203MOL0     H27955   5.719   7.638   8.541  0.4784  3.0770  0.9441
  203MOL0     H27956   5.660   7.747   8.432 -2.1056 -1.0870 -1.0798
  203MOL0     H27957   5.896   7.566   8.366 -1.4869 -0.8468  0.0187
  203MOL0     H27958   5.842   7.709   8.264  0.6170  1.1118  0.6905
  203MOL0     H27959   5.917   7.724   8.556  1.6611  0.4274  0.9718
  203MOL0     H27960   5.889   7.864   8.433 -0.2231 -1.0698 -1.2369
  203MOL0     H27961   6.122   7.686   8.458 -0.9867  0.3596  2.1188
  203MOL0     H27962   6.091   7.796   8.312  0.4243  0.6823  0.5714
  203MOL0     H27963   6.184   7.813   8.713 -2.7189  0.6687  0.6082
  203MOL0     H27964   6.207   7.972   8.878 -2.4223  1.4663  2.5259
  203MOL0     H27965   6.183   8.140   8.838  2.2016  1.8626 -2.1632
  203MOL0     H27966   6.406   8.169   8.746  3.3566 -1.7947 -1.5825
  203MOL0     H27967   6.411   8.094   8.907 -1.6764  1.7142  0.2240
  203MOL0     H27968   6.469   7.875   8.818  0.9449  0.4794  0.1321
  203MOL0     H27969   6.417   7.937   8.658 -3.7553 -2.0125  1.3989
  203MOL0     H27970   6.650   7.932   8.659 -1.6318 -1.4782 -0.2459
  203MOL0     H27971   6.611   8.105   8.699 -3.2670  1.0412 -0.1308
  203MOL0     H27972   6.815   7.922   9.074 -1.7125 -1.2278 -1.4175
  203MOL0     H27973   7.154   7.881   9.157  2.0015  1.8844 -1.3217
  203MOL0     H27974   6.985   7.914   9.213  0.0129  0.0405  0.4403
  203MOL0     H27975   7.103   8.048   9.197  1.8319 -1.6539  1.0518
  203MOL0     H27976   7.465   7.940   8.871 -0.5340  0.5893 -0.3580
  203MOL0     H27977   7.715   7.944   8.882 -0.6409 -0.4028 -0.6351
  203MOL0     H27978   7.905   8.216   9.188 -0.1487 -0.2391 -1.7306
  203MOL0     H27979   7.907   8.055   9.268 -2.3492 -0.4742 -0.8241
  203MOL0     H27980   8.080   7.989   9.082  1.7187 -1.5626  1.7395
  203MOL0     H27981   8.104   8.163   9.074  1.7210 -0.8962 -0.2690
  203MOL0     H27982   8.122   7.980   9.319 -0.0519 -0.9409 -0.3350
  203MOL0     H27983   8.184   8.149   9.315 -0.0220 -0.8737  0.0281
  203MOL0     H27984   8.349   8.113   9.145  0.5793  0.1862  0.0057
  203MOL0     H27985   8.314   7.946   9.115  3.6027 -0.3743  1.2292
  203MOL0     H27986   8.398   8.024   9.396  0.1644  1.5419  0.3604
  203MOL0     H27987   8.371   7.858   9.331  0.3010 -0.7133 -1.2631
  203MOL0     H27988   8.541   7.893   9.173  2.1065  0.4006 -0.8015
  203MOL0     H27989   8.606   7.888   9.332  1.7314  0.2915 -1.0635
  203MOL0     H27990   8.542   8.150   9.175 -1.1787 -1.4545 -1.2806
  203MOL0     H27991   8.699   8.078   9.179 -1.0277  0.5789  0.3214
  203MOL0     H27992   8.571   8.172   9.430 -1.4799 -0.7525 -0.5638
  203MOL0     H27993   8.680   8.261   9.332  0.6997 -1.2083 -3.4261
  203MOL0     H27994   7.699   8.214   9.223 -1.4974  1.6339 -1.4016
  203MOL0     H27995   7.448   8.210   9.205  3.0522  1.3859  0.5002
  203MOL0     H27996   7.092   8.133   8.721 -0.3420 -0.0346 -1.1265
  203MOL0     H27997   6.846   8.078   8.676  0.9454  1.9894  0.3674
  203MOL0     H27998   5.057   7.436   8.585  0.0594 -0.6796 -0.5988
  203MOL0     H27999   4.833   7.506   8.685  2.5304  2.1499  3.9584
  203MOL0     H28000   4.511   7.668   8.787 -0.7951  0.4922  0.7553
  203MOL0     H28001   4.282   7.635   8.841  1.2575 -1.2799 -0.3547
  203MOL0     H28002   3.917   7.611   8.720 -1.5990  1.6151  1.8599
  203MOL0     H28003   4.081   7.543   8.746 -0.5252 -2.0006  3.0011
  203MOL0     H28004   4.097   7.673   8.944  0.6983  0.1856 -2.9927
  203MOL0     H28005   3.952   7.569   8.970 -0.7023 -0.3333 -1.9058
  203MOL0     H28006   3.972   7.869   8.930 -0.0262  0.8030  2.4667
  203MOL0     H28007   3.819   7.788   8.892 -1.4743  0.6068  2.9121
  203MOL0     H28008   3.943   7.785   9.158  0.1735 -2.2725 -0.8863
  203MOL0     H28009   3.773   7.734   9.120  0.2979  1.1455  2.2049
  203MOL0     H28010   3.702   8.134   9.137  0.6869  1.0584 -0.8269
  203MOL0     H28011   4.169   7.910   8.542  0.1273 -0.5087 -0.6611
  203MOL0     H28012   4.321   8.023   8.427 -1.5759 -2.1211  1.5943
  203MOL0     H28013   4.479   8.044   8.501 -0.2946 -1.4819  1.8359
  203MOL0     H28014   4.455   7.928   8.364 -2.2600  1.5354 -1.8574
  204MOL0     O28015   7.490   4.767   2.367  0.3291  0.1357  0.2342
  204MOL0     C28016   7.440   4.685   2.446 -0.5026  0.4133  0.6158
  204MOL0     O28017   7.330   4.712   2.508 -0.2119  0.1469 -0.2433
  204MOL0     C28018   7.276   4.833   2.513 -0.5657 -0.6070 -0.0179
  204MOL0     C28019   7.245   4.907   2.405 -0.6899 -0.7534 -0.2789
  204MOL0     C28020   7.188   5.033   2.420  0.4500 -1.2124  0.9645
  204MOL0     C28021   7.177   5.089   2.545 -0.2076  0.1910 -0.6943
  204MOL0     O28022   7.159   5.225   2.542 -0.3737  0.2260 -0.6667
  204MOL0     C28023   7.248   5.300   2.631  0.2168 -0.8780  0.7607
  204MOL0     C28024   7.207   5.443   2.635  0.7879 -0.3548 -0.0308
  204MOL0     C28025   7.238   5.529   2.516 -0.5615  0.3760  0.1328
  204MOL0     C28026   7.184   5.671   2.520 -0.1536 -0.4342 -0.6045
  204MOL0     C28027   7.164   5.727   2.376 -0.3379  0.0591 -0.4635
  204MOL0     C28028   7.295   5.739   2.299  0.4422  0.8331 -0.4336
  204MOL0     C28029   7.275   5.825   2.171 -0.1731 -0.2312 -0.8118
  204MOL0     C28030   7.409   5.852   2.095  0.3191  0.4072  0.7352
  204MOL0     N28031   7.403   5.969   2.011 -0.1677 -0.6486 -0.0659
  204MOL0     C28032   7.409   6.102   2.051  0.0472  0.7458  0.5718
  204MOL0     C28033   7.421   6.177   1.940  1.1859  0.9226  0.8905
  204MOL0     C28034   7.428   6.325   1.925  0.0729 -0.1802  1.4432
  204MOL0     C28035   7.489   6.395   2.042 -0.2942 -1.1569 -0.1229
  204MOL0     C28036   7.508   6.545   2.005 -0.1216 -1.2405 -0.4409
  204MOL0     C28037   7.581   6.623   2.114  0.3629  0.5701 -0.0954
  204MOL0     O28038   7.491   6.615   2.229 -0.1782 -0.1701 -0.1604
  204MOL0     C28039   7.536   6.663   2.347 -0.2166  0.5678 -0.9638
  204MOL0     C28040   7.632   6.770   2.370  0.2646  0.2186 -0.6445
  204MOL0     C28041   7.672   6.826   2.489  0.2470 -0.4314 -0.4508
  204MOL0     C28042   7.772   6.949   2.479 -1.9626 -0.4437  0.2083
  204MOL0     C28043   7.618   6.765   2.604  0.4889 -0.2891  0.4616
  204MOL0     C28044   7.648   6.816   2.740 -0.2470  1.1571 -0.8891
  204MOL0     O28045   7.569   6.768   2.840 -0.0609 -0.2991 -0.0549
  204MOL0     C28046   7.622   6.771   2.972 -0.1181  0.4453 -1.2216
  204MOL0     C28047   7.578   6.866   3.056  0.3212 -0.2999 -0.2950
  204MOL0     C28048   7.611   6.876   3.189  0.7176 -0.4373  0.1725
  204MOL0     C28049   7.683   6.775   3.251 -0.0813  1.0492  1.0114
  204MOL0     O28050   7.709   6.786   3.382 -0.3914 -0.1018 -0.7307
  204MOL0     C28051   7.734   6.659   3.457  0.4048  0.1324  0.5620
  204MOL0     C28052   7.772   6.670   3.605 -0.0329 -0.2937  0.3248
  204MOL0     C28053   7.923   6.666   3.626 -0.9628  0.6214 -0.2832
  204MOL0     C28054   7.962   6.640   3.770 -0.3521  0.4099  0.4974
  204MOL0     C28055   8.100   6.579   3.805 -0.2035  0.3181 -0.1546
  204MOL0     C28056   8.118   6.442   3.740 -0.0446  0.3464 -0.2389
  204MOL0     C28057   8.240   6.365   3.797 -0.3923  0.3435  0.0102
  204MOL0     C28058   8.224   6.251   3.905 -0.2752  0.2816 -0.1852
  204MOL0    Cl28059   8.145   6.320   4.062  0.7015 -0.0267  0.4704
  204MOL0     C28060   7.722   6.664   3.168 -0.4304 -0.2127 -0.7234
  204MOL0     C28061   7.689   6.662   3.031  0.3698 -0.5413 -0.3103
  204MOL0     O28062   7.750   6.885   2.767 -0.0568 -0.0348  0.3614
  204MOL0     C28063   7.515   6.661   2.593  0.5497 -0.5600 -0.4262
  204MOL0     C28064   7.485   6.610   2.471  0.8794  0.3977  0.1365
  204MOL0     N28065   7.402   6.085   1.830 -0.4074 -0.0514 -1.2575
  204MOL0     N28066   7.413   5.967   1.875  0.3046  1.3626  0.5089
  204MOL0     C28067   7.199   5.016   2.659 -0.8234 -0.3140 -0.5601
  204MOL0     C28068   7.249   4.886   2.641  0.3553  0.4954 -0.1889
  204MOL0     C28069   7.482   4.544   2.438  0.0880 -0.0982  0.1600
  204MOL0     C28070   7.539   4.508   2.314 -0.1848  0.3223  0.5894
  204MOL0     C28071   7.570   4.376   2.288  0.6226 -0.0154 -0.1697
  204MOL0     C28072   7.537   4.273   2.386  0.2249 -0.6408 -0.0348
  204MOL0     O28073   7.571   4.140   2.379 -0.5097  0.6698  0.2292
  204MOL0     C28074   7.681   4.101   2.468 -0.3719 -0.6022  1.0961
  204MOL0     C28075   7.723   3.966   2.431 -0.1001  0.1097 -0.0197
  204MOL0     C28076   7.855   3.934   2.517  0.8222 -0.2516 -0.2338
  204MOL0     C28077   7.979   3.987   2.445  0.7729  0.4587  0.2509
  204MOL0     C28078   8.105   3.947   2.507  0.0277 -0.3941 -0.7990
  204MOL0     C28079   8.215   3.901   2.559  0.8961  0.1684 -0.3386
  204MOL0     C28080   7.460   4.306   2.502 -0.8443  0.5928  0.1413
  204MOL0     C28081   7.439   4.439   2.532  0.2285  0.7197  0.2455
  204MOL0     C28082   7.341   4.458   2.651 -0.2923  0.0961  0.2772
  204MOL0     H28083   7.270   4.883   2.303  1.6500  1.5033 -0.3447
  204MOL0     H28084   7.161   5.085   2.328 -0.4577 -3.0148  0.1632
  204MOL0     H28085   7.352   5.304   2.594  0.2621  2.0334  1.0106
  204MOL0     H28086   7.263   5.252   2.728 -0.0985 -3.3744 -0.3392
  204MOL0     H28087   7.102   5.444   2.669  0.9591 -2.5767  0.6896
  204MOL0     H28088   7.263   5.488   2.718  0.2983  2.9802 -1.3315
  204MOL0     H28089   7.346   5.534   2.501 -0.6497 -2.6682 -2.4940
  204MOL0     H28090   7.196   5.476   2.430 -2.6878  0.6514  0.9269
  204MOL0     H28091   7.095   5.682   2.583 -0.3172 -1.3190 -0.6637
  204MOL0     H28092   7.265   5.718   2.576  1.4627 -5.1497  1.5375
  204MOL0     H28093   7.114   5.825   2.384 -2.3326 -0.9382  0.0642
  204MOL0     H28094   7.098   5.662   2.319 -0.1030  0.0817 -0.7639
  204MOL0     H28095   7.373   5.789   2.358 -0.0443  3.3694 -1.8275
  204MOL0     H28096   7.338   5.641   2.274  1.7696  1.5165 -0.9576
  204MOL0     H28097   7.230   5.919   2.204  1.3459 -0.0455  0.8587
  204MOL0     H28098   7.200   5.788   2.100 -1.8784  0.0164  0.8007
  204MOL0     H28099   7.488   5.857   2.170  0.9498 -2.2274  0.3492
  204MOL0     H28100   7.437   5.767   2.032 -2.4645  0.7562 -1.1497
  204MOL0     H28101   7.410   6.131   2.155  1.6674 -1.0969  1.1191
  204MOL0     H28102   7.333   6.377   1.912  1.6436  2.4455 -0.7756
  204MOL0     H28103   7.492   6.342   1.837  0.4618  0.7273  1.8960
  204MOL0     H28104   7.440   6.376   2.138  0.2565 -0.5094  0.2947
  204MOL0     H28105   7.590   6.355   2.057  0.3431  1.4420  4.0160
  204MOL0     H28106   7.576   6.555   1.920  2.4928 -2.4855  1.3702
  204MOL0     H28107   7.410   6.586   1.978 -0.1936 -0.8236  0.4426
  204MOL0     H28108   7.671   6.567   2.141  0.0401 -1.4403 -2.7891
  204MOL0     H28109   7.612   6.721   2.077  4.1843 -1.6209 -3.4648
  204MOL0     H28110   7.673   6.808   2.277  0.0107  2.2990  0.0399
  204MOL0     H28111   7.732   7.050   2.486  0.3960  0.4629  2.8751
  204MOL0     H28112   7.810   6.938   2.377 -2.5879  2.4926 -0.4012
  204MOL0     H28113   7.859   6.942   2.545 -2.0276 -1.4583  0.2083
  204MOL0     H28114   7.506   6.941   3.023  0.4102  0.3520  0.9645
  204MOL0     H28115   7.558   6.957   3.239  0.9074  0.2883 -0.7704
  204MOL0     H28116   7.653   6.589   3.437  0.9567 -0.5983  0.8375
  204MOL0     H28117   7.818   6.620   3.399 -1.0215  2.2798 -3.2466
  204MOL0     H28118   7.723   6.762   3.637 -3.8074 -2.3252  1.0871
  204MOL0     H28119   7.718   6.582   3.643 -1.6528  0.4246 -0.2023
  204MOL0     H28120   7.978   6.751   3.585 -1.1826  0.1633 -1.5984
  204MOL0     H28121   7.939   6.573   3.569 -3.9944 -1.6237  2.1277
  204MOL0     H28122   7.899   6.570   3.826  0.7302 -0.7544  0.3104
  204MOL0     H28123   7.962   6.735   3.825  0.4415 -0.2693  1.7308
  204MOL0     H28124   8.183   6.648   3.784  1.0538 -1.3547 -0.9242
  204MOL0     H28125   8.089   6.565   3.913 -3.4928 -1.3828 -0.6027
  204MOL0     H28126   8.133   6.456   3.633  1.4608  1.9017  0.1225
  204MOL0     H28127   8.029   6.379   3.745 -0.4336  0.9036 -0.0439
  204MOL0     H28128   8.302   6.442   3.844 -1.5057  0.8270  0.7295
  204MOL0     H28129   8.285   6.327   3.705  0.9289  0.5359  0.5495
  204MOL0     H28130   8.322   6.209   3.928 -0.3779 -0.0770 -0.3923
  204MOL0     H28131   8.167   6.166   3.865  2.6487 -2.5190  1.1977
  204MOL0     H28132   7.775   6.577   3.207 -1.8795  0.4919  3.3539
  204MOL0     H28133   7.721   6.580   2.968  1.1839  0.2911 -1.0027
  204MOL0     H28134   7.462   6.619   2.677 -0.1394  0.4358 -0.3394
  204MOL0     H28135   7.411   6.533   2.450 -0.0337  1.6108 -1.3203
  204MOL0     H28136   7.188   5.053   2.760 -0.8931 -0.2478 -0.5923
  204MOL0     H28137   7.280   4.818   2.719 -0.9115  0.3163  0.1922
  204MOL0     H28138   7.559   4.585   2.240  0.7097 -0.9940 -0.5703
  204MOL0     H28139   7.633   4.342   2.206  2.2970  3.3590 -0.4258
  204MOL0     H28140   7.763   4.174   2.460 -2.0413  1.2099 -0.6063
  204MOL0     H28141   7.648   4.103   2.572 -1.6300 -1.4513  0.7297
  204MOL0     H28142   7.743   3.955   2.324  0.1696  0.2926  0.0108
  204MOL0     H28143   7.640   3.901   2.460 -0.6648 -0.1477 -2.0471
  204MOL0     H28144   7.838   3.980   2.615  2.9030  0.5475 -0.1911
  204MOL0     H28145   7.861   3.828   2.540  0.5150 -0.4354 -0.9629
  204MOL0     H28146   7.980   4.095   2.427 -2.7719  0.4499 -0.5817
  204MOL0     H28147   7.988   3.944   2.345 -1.2915  1.5571 -0.4566
  204MOL0     H28148   8.309   3.866   2.595  0.7865  0.3416  0.1125
  204MOL0     H28149   7.448   4.230   2.578 -0.0778  3.0515  2.9394
  204MOL0     H28150   7.249   4.508   2.621  1.5000  2.3651 -1.9225
  204MOL0     H28151   7.311   4.362   2.693 -2.0527  1.7697  3.2436
  204MOL0     H28152   7.392   4.528   2.719  3.5564  1.3781 -3.4960
  205MOL0     O28153  10.101   2.419   6.858 -0.4583  0.2815 -0.2953
  205MOL0     C28154  10.005   2.381   6.786 -0.2952 -1.3396  0.2342
  205MOL0     O28155  10.024   2.306   6.672 -0.1898  0.1088  0.4956
  205MOL0     C28156  10.153   2.284   6.625 -0.3309  0.1037  0.9215
  205MOL0     C28157  10.190   2.151   6.589 -0.8824  0.2311 -0.0687
  205MOL0     C28158  10.321   2.133   6.536 -0.8191 -0.1744 -0.5269
  205MOL0     C28159  10.411   2.240   6.517  0.1041  0.1143  0.5560
  205MOL0     O28160  10.529   2.231   6.455 -0.0653 -0.9215  0.2141
  205MOL0     C28161  10.521   2.272   6.314  0.7235  0.0996 -0.3299
  205MOL0     C28162  10.651   2.260   6.239 -0.4893  0.6935  0.0248
  205MOL0     C28163  10.657   2.126   6.182 -1.0728 -0.2533 -1.3457
  205MOL0     C28164  10.809   2.088   6.156 -0.4446 -0.0687  0.4738
  205MOL0     C28165  10.858   2.159   6.018  0.3803  0.1122  0.5648
  205MOL0     C28166  11.009   2.123   6.000 -0.4071  0.4214 -0.3563
  205MOL0     C28167  11.067   2.214   5.891  0.2272  0.4016 -0.9305
  205MOL0     C28168  11.065   2.160   5.756  0.9636  0.1714 -0.1893
  205MOL0     N28169  11.133   2.247   5.665 -0.1218 -0.0821 -0.6986
  205MOL0     C28170  11.269   2.275   5.656  0.8016  0.3188 -0.3520
  205MOL0     C28171  11.278   2.362   5.548 -0.5246 -0.4903  0.3813
  205MOL0     C28172  11.398   2.440   5.500 -0.8349  0.3702 -0.6922
  205MOL0     C28173  11.492   2.350   5.413 -1.0246  0.3357 -0.9157
  205MOL0     C28174  11.427   2.250   5.316 -0.4528 -0.2221 -0.3374
  205MOL0     C28175  11.505   2.127   5.281  0.9232 -0.4219 -0.1456
  205MOL0     O28176  11.574   2.076   5.390  1.2645 -0.6389  0.1067
  205MOL0     C28177  11.503   1.983   5.464  1.0263 -0.2909  0.9246
  205MOL0     C28178  11.379   1.925   5.435 -0.1318 -0.0967 -1.4700
  205MOL0     C28179  11.314   1.834   5.531 -0.1350 -0.6178 -0.1431
  205MOL0     C28180  11.166   1.787   5.513  0.6779  0.1753  0.2673
  205MOL0     C28181  11.383   1.818   5.653  0.3943  0.0415  0.3638
  205MOL0     C28182  11.326   1.749   5.771  0.4706 -0.7182 -0.2599
  205MOL0     O28183  11.366   1.795   5.895  0.2351  0.0989  0.0859
  205MOL0     C28184  11.305   1.740   6.007  0.4074 -0.0551  0.2968
  205MOL0     C28185  11.171   1.779   6.015  0.7335 -0.6592 -0.6374
  205MOL0     C28186  11.099   1.752   6.129 -1.2774 -0.4028 -0.2325
  205MOL0     C28187  11.159   1.656   6.226  0.8021 -0.0055 -0.0713
  205MOL0     O28188  11.095   1.611   6.340 -0.8725 -0.0513  0.1047
  205MOL0     C28189  10.955   1.650   6.371 -0.4028 -1.1771 -0.7760
  205MOL0     C28190  10.957   1.787   6.446  0.8882 -0.1095  0.7144
  205MOL0     C28191  10.811   1.819   6.486  0.0712 -1.0452 -0.2329
  205MOL0     C28192  10.790   1.954   6.549  0.4359  0.1059 -0.3894
  205MOL0     C28193  10.658   1.957   6.624  0.3498  0.3039  0.1101
  205MOL0     C28194  10.648   1.882   6.762  0.1665 -0.1508 -0.4281
  205MOL0     C28195  10.708   1.979   6.871 -0.3890 -0.2818 -1.0740
  205MOL0     C28196  10.688   1.922   7.014  0.4747 -0.5412 -0.1425
  205MOL0    Cl28197  10.796   2.010   7.120  0.2784 -0.3833 -0.0160
  205MOL0     C28198  11.286   1.607   6.207 -0.5590 -0.8496 -0.4296
  205MOL0     C28199  11.367   1.655   6.105 -0.3357  0.0791  1.0066
  205MOL0     O28200  11.259   1.648   5.753  0.0311 -0.6248 -0.2885
  205MOL0     C28201  11.515   1.860   5.668  0.9230 -0.3725 -0.5078
  205MOL0     C28202  11.575   1.948   5.576  1.2819  1.6674  0.7696
  205MOL0     N28203  11.153   2.367   5.485 -0.0365 -0.0024 -0.1739
  205MOL0     N28204  11.069   2.295   5.559 -0.1161 -0.5442 -0.3838
  205MOL0     C28205  10.366   2.369   6.567 -0.6331 -0.1489 -0.2153
  205MOL0     C28206  10.237   2.393   6.607 -0.5025 -0.1044 -0.3862
  205MOL0     C28207   9.877   2.396   6.852 -0.3111 -0.2787  0.7009
  205MOL0     C28208   9.860   2.524   6.907  0.0755 -0.0622  0.0966
  205MOL0     C28209   9.728   2.565   6.940  0.3883  0.1990 -0.2288
  205MOL0     C28210   9.613   2.482   6.923  0.2377 -0.2788 -0.0249
  205MOL0     O28211   9.483   2.525   6.961 -0.1354  0.1086 -0.1998
  205MOL0     C28212   9.371   2.444   6.912 -0.4010 -0.1179 -0.0304
  205MOL0     C28213   9.234   2.482   6.975 -0.3988 -0.9908 -0.9964
  205MOL0     C28214   9.182   2.616   6.922  0.0545  0.3764 -0.3266
  205MOL0     C28215   9.027   2.637   6.948 -0.1880  0.7369 -0.0956
  205MOL0     C28216   9.000   2.775   6.977 -0.2578  0.0992 -0.4762
  205MOL0     C28217   8.956   2.886   6.999  0.2072 -0.1378 -0.4246
  205MOL0     C28218   9.638   2.352   6.869  0.4794  0.2855 -0.0391
  205MOL0     C28219   9.770   2.306   6.839  0.3306  1.4572 -1.2842
  205MOL0     C28220   9.796   2.160   6.794  0.0999  0.3034 -0.6913
  205MOL0     H28221  10.118   2.070   6.601 -0.6792  0.2577  1.5249
  205MOL0     H28222  10.335   2.044   6.476 -1.5435  0.6283 -1.9541
  205MOL0     H28223  10.486   2.375   6.312 -0.7444 -0.3712 -0.4949
  205MOL0     H28224  10.448   2.206   6.266  1.0360 -0.1986 -0.4005
  205MOL0     H28225  10.653   2.336   6.160 -0.7421 -1.8943 -2.6715
  205MOL0     H28226  10.728   2.277   6.315  1.0461 -1.6481 -0.9044
  205MOL0     H28227  10.626   2.060   6.264  3.4392  0.0643  0.9076
  205MOL0     H28228  10.597   2.121   6.090 -1.0904  1.9545 -1.5083
  205MOL0     H28229  10.880   2.113   6.235  0.6748 -0.5100 -0.3656
  205MOL0     H28230  10.820   1.981   6.135  1.7866  0.5520 -2.1200
  205MOL0     H28231  10.845   2.267   6.009  0.0724  0.1970  1.8479
  205MOL0     H28232  10.819   2.126   5.921 -1.2354 -0.0580  1.2345
  205MOL0     H28233  11.064   2.141   6.093 -0.9243 -0.0103  0.0417
  205MOL0     H28234  11.016   2.016   5.977 -2.1906 -0.3376  2.2078
  205MOL0     H28235  11.169   2.228   5.930 -0.9559 -2.3571  4.0579
  205MOL0     H28236  11.011   2.308   5.890 -1.5877 -0.6113 -0.1512
  205MOL0     H28237  11.124   2.068   5.758  0.7220  0.0325  0.6413
  205MOL0     H28238  10.959   2.146   5.732 -0.2036  5.4717  0.6304
  205MOL0     H28239  11.348   2.259   5.729  1.1819  1.8962 -0.3777
  205MOL0     H28240  11.452   2.482   5.586  1.3185  0.9621 -2.2554
  205MOL0     H28241  11.356   2.530   5.456 -5.6622 -0.2223  2.0089
  205MOL0     H28242  11.538   2.424   5.347 -1.7332  0.0214 -1.7923
  205MOL0     H28243  11.581   2.304   5.457  0.5141  3.0655 -0.9855
  205MOL0     H28244  11.332   2.209   5.352  0.1822 -1.8079 -0.3834
  205MOL0     H28245  11.393   2.304   5.227 -1.9354  1.0815  0.9400
  205MOL0     H28246  11.434   2.066   5.224 -4.1653  0.7853  4.0984
  205MOL0     H28247  11.583   2.146   5.207 -0.6306 -1.1562 -2.0708
  205MOL0     H28248  11.322   1.957   5.349  0.8594  0.8751 -1.7901
  205MOL0     H28249  11.104   1.848   5.447 -0.7683 -0.1912  1.2311
  205MOL0     H28250  11.120   1.811   5.609 -0.6944  0.1476 -0.3712
  205MOL0     H28251  11.146   1.682   5.489  0.0786  0.4495 -0.4534
  205MOL0     H28252  11.128   1.841   5.937  1.6690  1.1753  0.2425
  205MOL0     H28253  10.995   1.783   6.129 -0.8927  1.0114  0.8731
  205MOL0     H28254  10.897   1.643   6.278  1.0303 -1.2206 -1.7102
  205MOL0     H28255  10.914   1.589   6.452 -1.8581  1.7072  0.7818
  205MOL0     H28256  11.019   1.771   6.535  1.5485  0.2469  0.3250
  205MOL0     H28257  10.993   1.869   6.383 -0.9572  1.0172  1.0528
  205MOL0     H28258  10.767   1.740   6.548 -0.8733 -0.4020 -0.0720
  205MOL0     H28259  10.749   1.823   6.396  1.0654  2.4351 -0.9120
  205MOL0     H28260  10.788   2.034   6.474 -0.6173 -1.0057 -1.6099
  205MOL0     H28261  10.870   1.979   6.620  0.1831  2.3843 -0.8261
  205MOL0     H28262  10.627   2.060   6.642  0.3142  0.5193 -1.0635
  205MOL0     H28263  10.586   1.909   6.557  2.9685 -1.5512 -1.5797
  205MOL0     H28264  10.705   1.791   6.785 -0.6134 -0.5733 -0.0849
  205MOL0     H28265  10.547   1.872   6.804  0.4887 -0.1343  0.3690
  205MOL0     H28266  10.670   2.082   6.873 -0.8238 -0.4481 -0.0689
  205MOL0     H28267  10.817   1.983   6.859 -0.3350  2.0907 -0.4209
  205MOL0     H28268  10.717   1.817   7.018  0.7865 -0.4215  2.0011
  205MOL0     H28269  10.581   1.930   7.039  0.6735 -0.9320  0.8703
  205MOL0     H28270  11.330   1.538   6.279  3.4616  2.2577  0.4471
  205MOL0     H28271  11.472   1.628   6.112  0.3720  2.0844 -0.9028
  205MOL0     H28272  11.579   1.826   5.749 -0.5243  0.7363  1.1686
  205MOL0     H28273  11.678   1.977   5.596  0.7805  3.0732  1.4786
  205MOL0     H28274  10.430   2.456   6.566  0.3398 -0.8334  0.3828
  205MOL0     H28275  10.216   2.495   6.638 -3.0329 -0.3016 -1.2796
  205MOL0     H28276   9.940   2.597   6.913  0.0252  0.1081 -1.0707
  205MOL0     H28277   9.706   2.661   6.986  0.2310  1.3024 -2.4935
  205MOL0     H28278   9.366   2.443   6.802  1.0988 -0.9445 -0.1132
  205MOL0     H28279   9.382   2.337   6.933 -2.1710 -0.4780 -0.7717
  205MOL0     H28280   9.243   2.485   7.084 -2.2289  0.9314 -0.8409
  205MOL0     H28281   9.171   2.395   6.954 -0.3111 -1.0961 -0.8253
  205MOL0     H28282   9.242   2.696   6.967  0.7071 -0.7119  0.8020
  205MOL0     H28283   9.201   2.618   6.815 -0.0309  2.1255 -0.3442
  205MOL0     H28284   8.996   2.576   7.034 -0.3916 -0.1349 -0.7654
  205MOL0     H28285   8.965   2.617   6.860  1.4260 -0.1148 -1.0847
  205MOL0     H28286   8.918   2.981   7.032  0.9014  0.6787 -1.8527
  205MOL0     H28287   9.557   2.285   6.845  0.0503  0.9672 -0.5366
  205MOL0     H28288   9.717   2.088   6.821 -0.2090  0.3191 -1.5319
  205MOL0     H28289   9.807   2.163   6.686  0.0843  1.0633 -0.6778
  205MOL0     H28290   9.898   2.131   6.822  0.4515  0.2804 -1.9497
  206MOL0     O28291   8.460   5.385   4.770  0.8302  0.3059  0.4737
  206MOL0     C28292   8.537   5.473   4.785 -0.8733 -1.1360 -0.2484
  206MOL0     O28293   8.674   5.463   4.779  0.2069  0.3478 -0.0523
  206MOL0     C28294   8.728   5.337   4.799  0.1922  0.0172 -0.0230
  206MOL0     C28295   8.772   5.295   4.922 -0.2882 -0.3892  0.0674
  206MOL0     C28296   8.836   5.167   4.923 -0.2749 -0.4391 -0.2314
  206MOL0     C28297   8.839   5.078   4.814 -0.0672  0.5078  0.2360
  206MOL0     O28298   8.916   4.963   4.816  0.0027  0.6679  0.0726
  206MOL0     C28299   8.894   4.872   4.927 -0.1287  1.0863  0.3160
  206MOL0     C28300   8.934   4.723   4.893  0.3125  0.2136  0.1773
  206MOL0     C28301   8.869   4.669   4.760 -0.3031  0.0945 -0.2704
  206MOL0     C28302   8.715   4.694   4.757  0.3146  0.8361 -0.0260
  206MOL0     C28303   8.657   4.650   4.623 -0.2370 -0.1062  0.7127
  206MOL0     C28304   8.714   4.725   4.504  0.1821  0.4500  1.1422
  206MOL0     C28305   8.640   4.718   4.373  0.2464  0.0942  0.6918
  206MOL0     C28306   8.651   4.586   4.287  0.1259 -0.9780  0.0214
  206MOL0     N28307   8.789   4.553   4.238  0.2769 -0.4889 -0.0578
  206MOL0     C28308   8.874   4.481   4.320 -1.1062  0.5595 -0.1389
  206MOL0     C28309   8.993   4.495   4.263 -0.0635 -0.4013  0.3425
  206MOL0     C28310   9.119   4.435   4.305 -1.0502  0.5723 -0.2137
  206MOL0     C28311   9.250   4.495   4.259  0.9938  0.6366  0.2556
  206MOL0     C28312   9.365   4.433   4.334 -0.3331  0.1736  0.3618
  206MOL0     C28313   9.482   4.518   4.336  0.1455  0.1151 -0.3305
  206MOL0     O28314   9.564   4.492   4.217  0.4514 -0.7534  0.1568
  206MOL0     C28315   9.692   4.538   4.234  0.4079 -0.1800  0.5578
  206MOL0     C28316   9.719   4.672   4.214 -0.1993 -1.1605  0.2767
  206MOL0     C28317   9.854   4.712   4.233  0.0381  0.9610 -0.6127
  206MOL0     C28318   9.867   4.863   4.259  0.2557  0.5161  0.2770
  206MOL0     C28319   9.962   4.618   4.245  1.0750  0.0470  1.0801
  206MOL0     C28320  10.103   4.648   4.255  0.6643  0.0575  0.7800
  206MOL0     O28321  10.189   4.542   4.253  0.0770  0.4149  0.3951
  206MOL0     C28322  10.324   4.567   4.259  0.2510  0.0583  0.6059
  206MOL0     C28323  10.395   4.571   4.380 -0.1781 -0.5639  0.4200
  206MOL0     C28324  10.532   4.612   4.369  0.5282  0.4945 -1.2559
  206MOL0     C28325  10.597   4.622   4.249  0.2706  0.8312  0.3373
  206MOL0     O28326  10.731   4.649   4.252 -0.3143  0.6698  0.1852
  206MOL0     C28327  10.775   4.751   4.159 -0.8110  0.4423 -1.0200
  206MOL0     C28328  10.914   4.808   4.195  0.3217 -0.1295  0.6468
  206MOL0     C28329  11.013   4.699   4.198  0.2033 -0.1527 -0.3771
  206MOL0     C28330  11.152   4.760   4.200 -0.0953  0.0775  0.2715
  206MOL0     C28331  11.249   4.642   4.228 -1.0849  0.7034  0.2934
  206MOL0     C28332  11.370   4.663   4.319 -0.9248  0.2229 -0.1191
  206MOL0     C28333  11.461   4.544   4.324  0.1083  1.0023 -0.4707
  206MOL0     C28334  11.536   4.527   4.200 -1.0956 -0.2628 -0.0177
  206MOL0    Cl28335  11.571   4.352   4.181 -0.2380  0.0277  0.1075
  206MOL0     C28336  10.521   4.631   4.130 -0.6232  0.5554  0.8883
  206MOL0     C28337  10.392   4.587   4.134  0.7264  0.0234 -0.7627
  206MOL0     O28338  10.129   4.767   4.261  0.2304  0.7050 -0.5189
  206MOL0     C28339   9.926   4.476   4.244 -0.7517  0.3800  0.2402
  206MOL0     C28340   9.792   4.438   4.246  0.6662  0.0277  0.2648
  206MOL0     N28341   8.980   4.552   4.137 -0.5967  0.2601 -0.6462
  206MOL0     N28342   8.852   4.587   4.122 -0.2528  0.4053  0.3243
  206MOL0     C28343   8.784   5.121   4.695  0.4647  0.0393  0.4034
  206MOL0     C28344   8.734   5.253   4.685  0.0439 -0.0984 -1.0017
  206MOL0     C28345   8.479   5.613   4.817  0.3081  0.2119 -0.2892
  206MOL0     C28346   8.362   5.655   4.748  0.0234 -0.6091 -0.0706
  206MOL0     C28347   8.293   5.765   4.786 -0.1299 -0.4288  0.1136
  206MOL0     C28348   8.343   5.843   4.894  1.0159 -0.3473  0.8004
  206MOL0     O28349   8.275   5.954   4.944 -0.3904  0.1055  1.1063
  206MOL0     C28350   8.147   5.983   4.893  0.9200 -0.3136  0.5333
  206MOL0     C28351   8.095   6.100   4.957  0.5895 -0.5894  0.1938
  206MOL0     C28352   8.185   6.229   4.930 -0.2773  0.8563 -1.0260
  206MOL0     C28353   8.118   6.365   4.952  0.2022  0.7658 -0.5139
  206MOL0     C28354   8.213   6.468   4.918 -0.0411 -0.1875 -0.1957
  206MOL0     C28355   8.299   6.548   4.897 -0.4544  0.2469  0.0693
  206MOL0     C28356   8.451   5.794   4.962 -0.1979 -0.3739 -0.9430
  206MOL0     C28357   8.534   5.690   4.921 -0.9181 -0.1930  0.0218
  206MOL0     C28358   8.645   5.643   5.002 -0.4464 -0.8287 -0.2876
  206MOL0     H28359   8.781   5.362   5.006 -0.3018  1.3403 -1.2421
  206MOL0     H28360   8.882   5.151   5.020  1.7815  1.6637 -0.7697
  206MOL0     H28361   8.788   4.864   4.950 -0.3327 -2.9921 -1.2731
  206MOL0     H28362   8.953   4.914   5.010  0.5334  0.9732 -0.0902
  206MOL0     H28363   9.043   4.709   4.886  0.0299 -3.3002  1.1658
  206MOL0     H28364   8.901   4.661   4.977 -2.2212  1.0558 -0.1064
  206MOL0     H28365   8.924   4.703   4.672 -2.7177  0.4122 -1.7387
  206MOL0     H28366   8.889   4.562   4.763  1.3703  0.1166 -4.2049
  206MOL0     H28367   8.668   4.642   4.841 -0.2322 -0.1910 -0.9441
  206MOL0     H28368   8.702   4.802   4.759 -1.6686  0.6118  0.9744
  206MOL0     H28369   8.548   4.659   4.618 -0.6603 -4.1865 -1.7991
  206MOL0     H28370   8.694   4.550   4.601 -0.0192  0.2267 -0.4787
  206MOL0     H28371   8.703   4.830   4.532  1.8163  1.2045 -0.7970
  206MOL0     H28372   8.817   4.693   4.484  1.0665  1.4607  3.7453
  206MOL0     H28373   8.660   4.800   4.304 -2.3778 -0.2729 -0.6194
  206MOL0     H28374   8.535   4.720   4.403  0.0005 -2.0690  0.1084
  206MOL0     H28375   8.620   4.499   4.344  0.9555 -1.8188 -0.7743
  206MOL0     H28376   8.579   4.598   4.206 -0.8273 -2.2659  0.6483
  206MOL0     H28377   8.867   4.431   4.416  2.1957 -3.1444 -1.5214
  206MOL0     H28378   9.119   4.328   4.279  0.5166  0.4695  0.1562
  206MOL0     H28379   9.112   4.440   4.414 -2.0924  3.1436 -0.3267
  206MOL0     H28380   9.265   4.470   4.153  1.4302  1.1869  0.1800
  206MOL0     H28381   9.239   4.603   4.267 -0.2513  0.4642  1.1599
  206MOL0     H28382   9.336   4.402   4.435 -0.1767  1.1246  0.7066
  206MOL0     H28383   9.408   4.346   4.284 -1.8601  0.3926 -1.4796
  206MOL0     H28384   9.459   4.624   4.349 -1.7526 -0.3312  0.1389
  206MOL0     H28385   9.536   4.478   4.423 -0.9256 -2.1692 -0.6643
  206MOL0     H28386   9.644   4.751   4.213  3.9381  3.2341 -2.2784
  206MOL0     H28387   9.908   4.880   4.359 -0.0536 -2.0837  0.9201
  206MOL0     H28388   9.772   4.917   4.260  0.1628  0.3521  0.3227
  206MOL0     H28389   9.948   4.895   4.193 -1.3274 -0.1483 -2.1165
  206MOL0     H28390  10.347   4.556   4.475 -0.6254 -0.1818  0.2589
  206MOL0     H28391  10.597   4.621   4.456  1.0028  2.7849 -1.8034
  206MOL0     H28392  10.787   4.697   4.065  3.9429 -1.9608  0.6185
  206MOL0     H28393  10.712   4.840   4.149 -2.6732 -0.9271 -2.0071
  206MOL0     H28394  10.952   4.884   4.125  1.0005 -2.2672 -1.4447
  206MOL0     H28395  10.909   4.863   4.289 -0.1715  0.9159  0.0225
  206MOL0     H28396  10.999   4.642   4.106 -2.3732 -1.2681  0.5990
  206MOL0     H28397  11.006   4.637   4.287  2.5932 -0.3919 -0.3009
  206MOL0     H28398  11.177   4.835   4.276 -0.0452  1.0227 -0.6525
  206MOL0     H28399  11.180   4.803   4.104  0.6530 -0.6450  0.1572
  206MOL0     H28400  11.192   4.560   4.271 -2.4644  0.2267 -2.2504
  206MOL0     H28401  11.280   4.591   4.136  3.0696 -0.0870  1.8944
  206MOL0     H28402  11.343   4.684   4.423  0.7363 -1.1856  0.6581
  206MOL0     H28403  11.435   4.747   4.294  1.4372 -1.3116  0.5774
  206MOL0     H28404  11.411   4.451   4.355 -0.5480  1.6871  0.6234
  206MOL0     H28405  11.543   4.566   4.394  0.2084  1.1151 -0.6228
  206MOL0     H28406  11.627   4.587   4.207 -2.2664  1.4483  1.8514
  206MOL0     H28407  11.473   4.567   4.120  2.0401  1.4908 -1.7849
  206MOL0     H28408  10.563   4.647   4.031 -0.6756  1.9877  1.0678
  206MOL0     H28409  10.338   4.580   4.040 -1.4973 -2.7036  0.5454
  206MOL0     H28410   9.998   4.394   4.247 -2.5906 -1.3939 -1.1177
  206MOL0     H28411   9.746   4.340   4.248 -1.2137  0.8343 -1.0633
  206MOL0     H28412   8.772   5.050   4.614  0.5727 -1.0502  1.3308
  206MOL0     H28413   8.698   5.284   4.587  1.2085 -2.1015 -2.1381
  206MOL0     H28414   8.315   5.589   4.676  2.1716 -1.8729 -0.3827
  206MOL0     H28415   8.199   5.787   4.737 -0.6772  0.7330  1.6003
  206MOL0     H28416   8.142   6.001   4.786 -0.1403 -0.1912  0.5910
  206MOL0     H28417   8.084   5.895   4.915  0.9851 -0.5095 -0.0546
  206MOL0     H28418   8.073   6.084   5.063 -2.4732 -0.6896 -0.3678
  206MOL0     H28419   7.999   6.113   4.907  0.4956 -0.4776  0.4032
  206MOL0     H28420   8.258   6.226   5.012 -2.5256 -0.1065  1.0687
  206MOL0     H28421   8.230   6.227   4.831  0.5977  0.9433 -0.6436
  206MOL0     H28422   8.082   6.381   5.054 -0.5918  1.0724 -0.8278
  206MOL0     H28423   8.036   6.368   4.879  1.7322 -0.6186 -2.4110
  206MOL0     H28424   8.374   6.623   4.876 -1.0062  0.1752 -2.5941
  206MOL0     H28425   8.489   5.849   5.048  0.2953 -0.8607 -0.8415
  206MOL0     H28426   8.659   5.711   5.086 -4.7600  2.6753 -2.0063
  206MOL0     H28427   8.627   5.541   5.038 -1.4651 -0.4648  0.2549
  206MOL0     H28428   8.736   5.638   4.942  0.1560 -0.8435  0.6033
  207MOL0     O28429   3.009   7.042   5.934  0.5612 -0.0148 -0.1134
  207MOL0     C28430   2.914   7.084   6.004 -0.9917 -0.1124  0.4805
  207MOL0     O28431   2.781   7.053   6.003 -0.1916 -0.1338  0.1966
  207MOL0     C28432   2.749   6.967   5.904  0.2719 -0.3400 -0.8854
  207MOL0     C28433   2.721   7.016   5.776 -0.3928 -0.2991 -0.7699
  207MOL0     C28434   2.655   6.935   5.677 -0.5483  0.4359 -1.0603
  207MOL0     C28435   2.637   6.799   5.706 -0.0113 -0.3361  0.5926
  207MOL0     O28436   2.572   6.730   5.597  0.0640 -0.6847  0.2030
  207MOL0     C28437   2.505   6.611   5.640  0.5741  0.8528  0.8919
  207MOL0     C28438   2.442   6.560   5.509 -0.4407  0.9582  0.0739
  207MOL0     C28439   2.539   6.486   5.416 -0.5410 -0.1392  0.0127
  207MOL0     C28440   2.475   6.445   5.290  0.2127 -0.0630 -0.1413
  207MOL0     C28441   2.378   6.332   5.284 -0.3168 -0.1584  0.5367
  207MOL0     C28442   2.451   6.198   5.285  0.4624  0.1715  1.0542
  207MOL0     C28443   2.496   6.153   5.131  0.0341 -0.3318 -0.5455
  207MOL0     C28444   2.570   6.031   5.145 -0.4110 -0.2059 -0.6311
  207MOL0     N28445   2.603   5.954   5.022 -1.0303  0.0478  0.8455
  207MOL0     C28446   2.626   5.818   5.026 -0.3185 -0.3032 -0.0194
  207MOL0     C28447   2.662   5.799   4.887 -0.5960 -0.9668 -0.8475
  207MOL0     C28448   2.716   5.659   4.839  0.1092 -0.2831  0.0301
  207MOL0     C28449   2.862   5.643   4.823  0.2053  0.5768  0.4780
  207MOL0     C28450   2.945   5.693   4.947 -0.5907  0.5588 -0.2473
  207MOL0     C28451   2.960   5.597   5.070  0.0506 -0.0114  0.3028
  207MOL0     O28452   2.833   5.605   5.132 -0.7021 -0.9554 -0.9201
  207MOL0     C28453   2.842   5.595   5.266 -0.6230  0.3474  0.0673
  207MOL0     C28454   2.887   5.486   5.335  0.4586  0.0191  0.6281
  207MOL0     C28455   2.898   5.482   5.474  0.8134 -0.4033  0.0723
  207MOL0     C28456   2.996   5.368   5.526 -0.1179 -0.1015  0.1215
  207MOL0     C28457   2.858   5.599   5.555  0.1221 -0.3466 -0.0864
  207MOL0     C28458   2.847   5.593   5.701  0.8551 -0.4358 -0.0772
  207MOL0     O28459   2.832   5.709   5.774  0.8999  0.0937 -0.0555
  207MOL0     C28460   2.863   5.697   5.914  0.8877 -1.0121  0.1673
  207MOL0     C28461   2.794   5.791   5.989 -1.4296  0.3443  0.9783
  207MOL0     C28462   2.808   5.805   6.127  0.7879  0.4572  0.4287
  207MOL0     C28463   2.873   5.712   6.198  0.2980  0.2136 -0.2269
  207MOL0     O28464   2.887   5.726   6.338  0.6849 -0.3162  0.2848
  207MOL0     C28465   2.947   5.623   6.417 -0.8239  0.3934  0.2256
  207MOL0     C28466   2.967   5.667   6.560 -0.1738 -0.3019 -0.3855
  207MOL0     C28467   3.097   5.739   6.582  0.1918 -0.9332  0.2022
  207MOL0     C28468   3.123   5.804   6.718  0.6158  0.0207 -0.1024
  207MOL0     C28469   3.032   5.931   6.724  0.2718  0.7770  0.3293
  207MOL0     C28470   3.106   6.045   6.789  0.0213 -0.5665  0.6516
  207MOL0     C28471   3.015   6.164   6.802  0.3101  0.0722 -0.0609
  207MOL0     C28472   3.090   6.283   6.877  0.2354  1.0678  0.2565
  207MOL0    Cl28473   3.255   6.318   6.810 -0.2586 -0.2777 -0.5422
  207MOL0     C28474   2.950   5.606   6.123 -0.2111  0.3864 -0.0652
  207MOL0     C28475   2.942   5.607   5.988 -0.1686  0.3376 -0.3320
  207MOL0     O28476   2.854   5.480   5.752  0.2836 -0.0996 -0.1150
  207MOL0     C28477   2.813   5.710   5.483 -0.1333  0.6066  1.5310
  207MOL0     C28478   2.801   5.705   5.342  0.2671  0.1148  0.1575
  207MOL0     N28479   2.658   5.925   4.815 -0.1669  0.4237 -0.4068
  207MOL0     N28480   2.613   6.010   4.899 -0.2586 -0.7712  0.2197
  207MOL0     C28481   2.658   6.757   5.837  0.2712  0.0371 -0.5248
  207MOL0     C28482   2.725   6.833   5.934  0.9655 -0.2462 -0.9585
  207MOL0     C28483   2.957   7.186   6.101 -0.4552  0.4582  0.9470
  207MOL0     C28484   3.030   7.152   6.218  0.0260 -0.4858 -0.2815
  207MOL0     C28485   3.065   7.247   6.315  0.8750  0.1373 -0.4006
  207MOL0     C28486   3.033   7.379   6.294 -0.2170 -0.0539 -0.4631
  207MOL0     O28487   3.075   7.473   6.380 -0.2048 -1.0135 -0.0981
  207MOL0     C28488   2.990   7.517   6.490 -0.2456 -0.3903 -0.2068
  207MOL0     C28489   3.067   7.507   6.623 -1.0313  0.1010  0.0988
  207MOL0     C28490   3.000   7.590   6.732 -0.4175 -0.4119 -0.4929
  207MOL0     C28491   3.113   7.677   6.809  0.2022  0.0536  1.1482
  207MOL0     C28492   3.207   7.605   6.887  0.5168  0.3459  0.1197
  207MOL0     C28493   3.288   7.547   6.956 -1.0007 -1.0045 -0.5931
  207MOL0     C28494   2.955   7.418   6.187 -0.3721  0.4539 -0.3062
  207MOL0     C28495   2.917   7.320   6.091  0.2757  0.2642  0.2671
  207MOL0     C28496   2.829   7.361   5.979  0.0473  0.4828 -0.0555
  207MOL0     H28497   2.747   7.116   5.744 -3.6468  0.4727 -1.4147
  207MOL0     H28498   2.634   6.969   5.576 -0.0336  3.1592 -0.3456
  207MOL0     H28499   2.425   6.631   5.713 -0.2718 -1.3968  0.6514
  207MOL0     H28500   2.573   6.531   5.667  0.6765 -0.5582 -2.9531
  207MOL0     H28501   2.350   6.503   5.526 -0.6809  1.5971  1.0270
  207MOL0     H28502   2.408   6.649   5.455 -1.0127  1.2155  0.8249
  207MOL0     H28503   2.619   6.557   5.395 -2.1620  0.8367 -3.8981
  207MOL0     H28504   2.581   6.399   5.468 -0.7481  0.8352  1.8924
  207MOL0     H28505   2.410   6.525   5.254 -1.9143 -1.1994  0.9542
  207MOL0     H28506   2.553   6.413   5.221 -1.1554 -2.7643 -0.5527
  207MOL0     H28507   2.330   6.337   5.186  3.3851  0.8403 -1.4017
  207MOL0     H28508   2.305   6.335   5.365  0.1287  1.7223  0.9159
  207MOL0     H28509   2.536   6.216   5.351  2.7794  0.3321 -1.7923
  207MOL0     H28510   2.381   6.118   5.311  0.4185 -0.5520 -1.0873
  207MOL0     H28511   2.565   6.233   5.104 -0.1039  0.4319  1.2625
  207MOL0     H28512   2.412   6.154   5.062 -1.3017 -0.0891  1.0261
  207MOL0     H28513   2.672   6.032   5.185  0.0121  0.7207 -1.6785
  207MOL0     H28514   2.521   5.956   5.207  2.1167 -0.3602  1.3459
  207MOL0     H28515   2.633   5.750   5.111 -1.1293  1.4217  1.4944
  207MOL0     H28516   2.671   5.644   4.740  1.2932  1.7197 -0.8589
  207MOL0     H28517   2.676   5.584   4.908 -3.3109  0.3655 -1.0347
  207MOL0     H28518   2.890   5.547   4.778  0.1428 -0.1641  1.9703
  207MOL0     H28519   2.879   5.713   4.741  0.9207  0.7373  0.7613
  207MOL0     H28520   3.047   5.699   4.909  0.2155 -0.3322  1.6139
  207MOL0     H28521   2.923   5.796   4.975 -0.7736  0.3745  0.3067
  207MOL0     H28522   2.980   5.494   5.042  5.4993  0.6845  0.5796
  207MOL0     H28523   3.040   5.635   5.134  1.4186  1.1005 -1.9393
  207MOL0     H28524   2.909   5.392   5.285  2.4572  1.6770 -1.8591
  207MOL0     H28525   3.092   5.399   5.568 -0.3941 -0.6674  1.2052
  207MOL0     H28526   3.025   5.297   5.448  0.1414  1.0665 -0.8724
  207MOL0     H28527   2.932   5.316   5.598 -2.9649 -0.5765 -2.5513
  207MOL0     H28528   2.735   5.866   5.937 -1.2319 -0.3308 -0.2595
  207MOL0     H28529   2.756   5.892   6.168  1.0781  1.0792 -0.4932
  207MOL0     H28530   2.889   5.530   6.421  1.5014 -1.1129  1.6923
  207MOL0     H28531   3.050   5.606   6.387  0.0896  1.3873  2.5363
  207MOL0     H28532   2.886   5.728   6.601  0.9091 -0.4387  2.2162
  207MOL0     H28533   2.964   5.579   6.626 -0.0011  0.2968  0.4413
  207MOL0     H28534   3.117   5.820   6.511  0.5290  0.4077  1.7774
  207MOL0     H28535   3.179   5.668   6.566 -2.0410 -3.4536 -0.9480
  207MOL0     H28536   3.221   5.845   6.742  0.2407  2.8417 -2.8227
  207MOL0     H28537   3.103   5.743   6.807  2.1319  2.4055  2.0241
  207MOL0     H28538   2.983   5.963   6.631 -3.3972 -0.8619  1.5184
  207MOL0     H28539   2.946   5.904   6.786 -0.9245 -1.5849 -2.1324
  207MOL0     H28540   3.193   6.077   6.732 -0.0886 -0.6928  0.4142
  207MOL0     H28541   3.130   6.005   6.888  0.7480 -0.7932  0.3847
  207MOL0     H28542   2.921   6.136   6.849 -0.9063  1.3953 -1.6035
  207MOL0     H28543   2.982   6.206   6.707 -2.2546  0.7230  1.0496
  207MOL0     H28544   3.119   6.254   6.978 -0.6215  3.5051  1.2782
  207MOL0     H28545   3.040   6.381   6.878  3.9770  3.1572  0.1171
  207MOL0     H28546   2.996   5.519   6.168 -2.8736 -2.6441 -2.7192
  207MOL0     H28547   3.008   5.536   5.939  0.6012 -1.2422  2.7707
  207MOL0     H28548   2.791   5.796   5.545 -0.8545  1.4594  0.1369
  207MOL0     H28549   2.751   5.794   5.306  1.5335  2.3202  3.3823
  207MOL0     H28550   2.628   6.658   5.871 -5.8260  2.1366  1.5971
  207MOL0     H28551   2.746   6.781   6.027  0.8652 -2.3638 -2.0533
  207MOL0     H28552   3.069   7.052   6.234  1.1666  0.2101  1.7510
  207MOL0     H28553   3.129   7.212   6.394  1.2004 -2.3293 -1.6720
  207MOL0     H28554   2.955   7.620   6.482 -1.8849 -0.6589  2.2959
  207MOL0     H28555   2.899   7.456   6.484  1.0389 -2.4580  0.3271
  207MOL0     H28556   3.163   7.558   6.609 -2.5463  2.9897 -0.5250
  207MOL0     H28557   3.084   7.403   6.653 -1.2664  0.0777  0.1548
  207MOL0     H28558   2.929   7.661   6.688  0.4414  0.1511 -1.0018
  207MOL0     H28559   2.956   7.530   6.812 -0.0959 -1.1212 -0.8433
  207MOL0     H28560   3.060   7.749   6.872  1.7398  1.9004  0.4420
  207MOL0     H28561   3.163   7.740   6.735  0.5584 -0.7197  0.7254
  207MOL0     H28562   3.371   7.496   7.000 -0.1001  1.0442  0.2542
  207MOL0     H28563   2.942   7.526   6.178 -0.2786  0.5620  0.6596
  207MOL0     H28564   2.888   7.343   5.889  1.0357 -0.9420  0.8357
  207MOL0     H28565   2.736   7.303   5.977  0.0596  0.4813 -0.9635
  207MOL0     H28566   2.812   7.469   5.979 -2.3013  0.1703  0.4648
  208MOL0     O28567  11.395   8.164  10.653 -0.1019  0.0920  1.0266
  208MOL0     C28568  11.457   8.261  10.596  0.2100  0.2924 -0.2094
  208MOL0     O28569  11.407   8.380  10.548 -0.1634  0.0990  0.1111
  208MOL0     C28570  11.279   8.405  10.586  0.4700  0.1420  0.3151
  208MOL0     C28571  11.175   8.401  10.492 -0.1094 -0.5372 -0.0649
  208MOL0     C28572  11.053   8.441  10.538  0.7337  0.6763  0.6509
  208MOL0     C28573  11.028   8.493  10.662  0.0642 -0.4100 -0.4909
  208MOL0     O28574  10.893   8.530  10.698 -0.2293  0.1225 -0.1834
  208MOL0     C28575  10.873   8.669  10.746  0.2388  1.1158 -0.2643
  208MOL0     C28576  10.748   8.692  10.833 -0.3552 -0.6750  1.2687
  208MOL0     C28577  10.636   8.639  10.740 -0.0674 -0.7886  0.1421
  208MOL0     C28578  10.493   8.672  10.784 -0.2745  0.8725  0.0251
  208MOL0     C28579  10.445   8.615  10.911 -0.0291 -0.5275  0.4593
  208MOL0     C28580  10.297   8.659  10.929 -0.1847 -0.7328 -0.0894
  208MOL0     C28581  10.241   8.579  11.042  0.2765  0.2701 -0.9798
  208MOL0     C28582  10.280   8.626  11.181 -0.7891  0.6268 -0.3757
  208MOL0     N28583  10.181   8.591  11.282 -0.1909 -0.0438  0.2004
  208MOL0     C28584  10.063   8.664  11.302 -0.0811  0.5910 -0.1629
  208MOL0     C28585   9.989   8.574  11.375 -0.6868 -0.1349  0.1859
  208MOL0     C28586   9.850   8.605  11.430  0.0422  0.2450 -0.9121
  208MOL0     C28587   9.767   8.698  11.340 -0.9698  0.3732 -0.3574
  208MOL0     C28588   9.721   8.622  11.207  0.8770  0.2347  0.0043
  208MOL0     C28589   9.649   8.724  11.116  0.0576 -0.2490 -0.3709
  208MOL0     O28590   9.510   8.742  11.147 -0.7341  0.1121 -0.5642
  208MOL0     C28591   9.439   8.832  11.071  0.6551  0.4508 -0.5572
  208MOL0     C28592   9.330   8.888  11.128 -0.4776 -0.3446 -0.3136
  208MOL0     C28593   9.256   8.986  11.070 -0.6176  0.6396  0.4665
  208MOL0     C28594   9.141   9.039  11.150 -0.1950  0.4798  1.0744
  208MOL0     C28595   9.288   9.040  10.939  0.9285 -0.1696 -0.0283
  208MOL0     C28596   9.207   9.142  10.864 -0.5484 -0.0376  0.4568
  208MOL0     O28597   9.274   9.194  10.767 -0.3420  0.3791  0.2846
  208MOL0     C28598   9.223   9.284  10.684  0.8633  0.0288 -0.2318
  208MOL0     C28599   9.159   9.252  10.559 -0.0302  0.2586  0.1814
  208MOL0     C28600   9.113   9.352  10.477  0.1349  1.5293  0.1379
  208MOL0     C28601   9.108   9.481  10.518 -0.0208 -0.7049 -0.8903
  208MOL0     O28602   9.040   9.576  10.451 -0.4740 -0.1026 -1.2205
  208MOL0     C28603   8.959   9.540  10.335  0.3792  0.4015 -0.0872
  208MOL0     C28604   8.900   9.669  10.269  0.1859  0.0419 -0.6505
  208MOL0     C28605   8.766   9.640  10.191 -0.0029 -0.9140 -0.3981
  208MOL0     C28606   8.775   9.540  10.089  0.6830 -0.1553 -0.6955
  208MOL0     C28607   8.862   9.576   9.963 -0.0949  0.2490 -0.7584
  208MOL0     C28608   8.907   9.455   9.882  0.3095 -0.7915 -0.6935
  208MOL0     C28609   8.799   9.395   9.799 -0.0739 -0.5069  0.2441
  208MOL0     C28610   8.850   9.267   9.722  0.1093  0.5647 -0.4773
  208MOL0    Cl28611   8.710   9.181   9.657  0.0079  0.4141  0.1822
  208MOL0     C28612   9.177   9.511  10.636 -0.3146 -0.2923 -0.5647
  208MOL0     C28613   9.232   9.413  10.722 -0.5382  0.4377  0.8533
  208MOL0     O28614   9.099   9.174  10.901  0.1217 -0.1118  0.4045
  208MOL0     C28615   9.396   8.983  10.881 -0.6002 -0.9359  0.0928
  208MOL0     C28616   9.473   8.887  10.944 -0.1879 -0.0882  0.4988
  208MOL0     N28617  10.049   8.452  11.386  0.6410  0.5722 -1.2858
  208MOL0     N28618  10.163   8.460  11.324 -0.3099 -0.5069  0.4280
  208MOL0     C28619  11.136   8.505  10.751  0.4164  0.0551 -0.3545
  208MOL0     C28620  11.264   8.469  10.708 -0.5593 -0.8606 -0.0931
  208MOL0     C28621  11.605   8.239  10.578  0.1409 -0.9946  1.2344
  208MOL0     C28622  11.656   8.120  10.612  0.5072  0.3499 -0.5571
  208MOL0     C28623  11.782   8.081  10.599  0.4927 -0.3831 -0.3551
  208MOL0     C28624  11.872   8.159  10.532 -0.3283  0.5655  0.7322
  208MOL0     O28625  12.004   8.131  10.502 -0.0814  0.0673  0.3650
  208MOL0     C28626  12.050   7.994  10.525 -0.5657 -0.1576  0.3029
  208MOL0     C28627  12.087   7.990  10.666 -0.0817  0.5284 -0.2504
  208MOL0     C28628  12.153   7.853  10.705  0.5170  0.3750 -0.4699
  208MOL0     C28629  12.225   7.846  10.834 -0.5629 -0.1355  0.3236
  208MOL0     C28630  12.303   7.966  10.878 -0.2679  0.8943  0.0184
  208MOL0     C28631  12.383   8.057  10.912  0.6322  0.7025  0.4201
  208MOL0     C28632  11.829   8.283  10.493 -0.6332 -1.2263 -0.5810
  208MOL0     C28633  11.698   8.330  10.505  0.6663 -0.3889 -1.6333
  208MOL0     C28634  11.654   8.457  10.433  0.1774  1.0867  0.6491
  208MOL0     H28635  11.196   8.368  10.390 -0.0309 -0.8266  0.0423
  208MOL0     H28636  10.968   8.428  10.473  1.9092 -0.1865 -0.7858
  208MOL0     H28637  10.866   8.731  10.656 -1.4622  1.0632 -0.2071
  208MOL0     H28638  10.956   8.710  10.803 -0.4412 -2.0603  3.4472
  208MOL0     H28639  10.757   8.628  10.922  0.4925 -1.0376  0.9354
  208MOL0     H28640  10.745   8.792  10.877 -0.4746  0.6194 -1.4857
  208MOL0     H28641  10.652   8.685  10.643 -0.0312  1.5313  1.1717
  208MOL0     H28642  10.647   8.530  10.733  2.7645 -0.5077 -1.1639
  208MOL0     H28643  10.472   8.779  10.793  0.0778  0.8845  0.7239
  208MOL0     H28644  10.429   8.633  10.704 -1.1894 -0.9868  1.5635
  208MOL0     H28645  10.506   8.660  10.989  0.1586 -0.5642  0.3334
  208MOL0     H28646  10.457   8.506  10.920 -0.8452 -0.5584  1.3143
  208MOL0     H28647  10.295   8.767  10.947 -2.4846 -0.6511 -0.5236
  208MOL0     H28648  10.234   8.636  10.843 -0.8408 -3.7844  1.0813
  208MOL0     H28649  10.255   8.472  11.025 -0.0179  0.0633  0.0080
  208MOL0     H28650  10.132   8.584  11.039  0.2223 -0.8325 -1.5102
  208MOL0     H28651  10.376   8.587  11.217 -1.0741 -0.3162 -0.5956
  208MOL0     H28652  10.309   8.731  11.183 -0.0050  0.5228 -2.7459
  208MOL0     H28653  10.039   8.770  11.300 -0.9723  0.4704  2.1575
  208MOL0     H28654   9.856   8.653  11.528 -4.2270 -0.9315  0.0842
  208MOL0     H28655   9.801   8.508  11.438  4.3093 -1.9994  1.2232
  208MOL0     H28656   9.674   8.731  11.387  1.7389  4.1232  3.0104
  208MOL0     H28657   9.824   8.787  11.311  1.6251 -0.6875  1.1310
  208MOL0     H28658   9.796   8.567  11.151 -0.6879 -0.8224 -1.1465
  208MOL0     H28659   9.647   8.545  11.232 -0.2565  0.6778 -1.8544
  208MOL0     H28660   9.680   8.827  11.133  0.1024 -0.5000  1.2119
  208MOL0     H28661   9.664   8.680  11.017  0.5044 -1.0780  0.0545
  208MOL0     H28662   9.294   8.857  11.226 -0.7209 -1.5980 -0.7723
  208MOL0     H28663   9.145   9.148  11.162 -2.1201  0.5304  1.6601
  208MOL0     H28664   9.151   8.988  11.247  2.4313  0.4558  0.8484
  208MOL0     H28665   9.050   9.009  11.097  1.1544 -1.9281 -0.0043
  208MOL0     H28666   9.173   9.151  10.521 -1.5757  0.7701 -1.9445
  208MOL0     H28667   9.062   9.305  10.393  2.4607 -3.8346  1.2748
  208MOL0     H28668   9.008   9.479  10.259 -0.2481 -0.1050 -0.0944
  208MOL0     H28669   8.876   9.475  10.362 -1.6110  2.3773 -1.1698
  208MOL0     H28670   8.893   9.751  10.341  1.3235  1.1632 -1.7619
  208MOL0     H28671   8.979   9.706  10.203  1.6941  1.1667  1.6595
  208MOL0     H28672   8.730   9.733  10.146 -1.5230 -1.2526  0.0464
  208MOL0     H28673   8.682   9.602  10.250 -0.7539  2.0294  0.5615
  208MOL0     H28674   8.674   9.530  10.047  0.8827 -0.3037 -1.1435
  208MOL0     H28675   8.789   9.438  10.126 -0.1171  0.5614  1.7520
  208MOL0     H28676   8.792   9.636   9.904 -0.4611  2.5232  1.7802
  208MOL0     H28677   8.942   9.638  10.003  0.5212 -0.6800 -0.5266
  208MOL0     H28678   8.951   9.382   9.951  0.9007 -1.4962 -1.7864
  208MOL0     H28679   8.980   9.493   9.811 -0.6828  0.1922 -1.2135
  208MOL0     H28680   8.765   9.472   9.729 -1.0582 -0.9386  0.2320
  208MOL0     H28681   8.715   9.368   9.864 -0.4678 -1.0044 -0.4665
  208MOL0     H28682   8.901   9.196   9.788 -0.2434 -0.9654 -1.7977
  208MOL0     H28683   8.901   9.302   9.631 -0.0833 -0.4907 -0.9983
  208MOL0     H28684   9.178   9.616  10.665  1.5611 -1.1144  2.9630
  208MOL0     H28685   9.276   9.421  10.821  0.8177  0.8879  0.2460
  208MOL0     H28686   9.446   9.023  10.793  2.1388  0.5438  2.1514
  208MOL0     H28687   9.563   8.856  10.892 -0.1178  1.6424 -0.4765
  208MOL0     H28688  11.121   8.540  10.853 -2.1579  0.8377 -0.9435
  208MOL0     H28689  11.352   8.463  10.771 -0.0332 -2.2732 -0.9165
  208MOL0     H28690  11.591   8.053  10.667  0.6821  1.2350  0.8069
  208MOL0     H28691  11.819   7.988  10.642  0.4923  0.8833  2.6132
  208MOL0     H28692  11.971   7.924  10.497 -3.0601  2.1872  0.9295
  208MOL0     H28693  12.144   7.978  10.473 -1.5256  0.6657 -1.7896
  208MOL0     H28694  12.009   8.012  10.739  0.6727  1.9825  0.1525
  208MOL0     H28695  12.164   8.068  10.669  0.0011  0.4670 -0.7088
  208MOL0     H28696  12.085   7.768  10.705 -0.3300  1.0296 -1.1684
  208MOL0     H28697  12.225   7.833  10.626  0.3882 -0.0112 -0.4880
  208MOL0     H28698  12.284   7.753  10.832 -0.2847 -0.0524 -3.4678
  208MOL0     H28699  12.147   7.830  10.909 -0.6600 -0.1097  0.2285
  208MOL0     H28700  12.448   8.140  10.929 -2.3638  3.2777  0.3524
  208MOL0     H28701  11.901   8.336  10.430 -0.8093 -0.5640 -0.2305
  208MOL0     H28702  11.603   8.531  10.497 -2.4941  1.1825 -1.4000
  208MOL0     H28703  11.746   8.481  10.380 -0.2648  1.7505  0.1690
  208MOL0     H28704  11.577   8.422  10.364  1.1411  2.8384 -1.4002
  209MOL0     O28705   6.818   7.578   0.685  0.2907 -0.7609 -0.1261
  209MOL0     C28706   6.743   7.482   0.680  0.2361 -0.0367  0.0084
  209MOL0     O28707   6.605   7.486   0.676 -0.1212 -0.0139 -0.0299
  209MOL0     C28708   6.545   7.607   0.650 -0.4717 -0.4539  0.3999
  209MOL0     C28709   6.580   7.697   0.545  0.2180  0.7929 -0.3223
  209MOL0     C28710   6.505   7.809   0.524 -0.2476  0.2048  0.1689
  209MOL0     C28711   6.392   7.841   0.596  0.1110  0.7418  0.3102
  209MOL0     O28712   6.317   7.954   0.572  0.5990  0.2715 -0.2898
  209MOL0     C28713   6.378   8.085   0.555 -0.2992  0.6281 -0.4576
  209MOL0     C28714   6.281   8.198   0.514 -0.4686  0.7161 -0.9548
  209MOL0     C28715   6.168   8.229   0.620  0.2986  0.0094  0.8511
  209MOL0     C28716   6.098   8.355   0.606 -0.1745  0.0905  0.1925
  209MOL0     C28717   5.979   8.373   0.707 -1.2403  0.6207  0.4108
  209MOL0     C28718   5.940   8.528   0.722 -0.3894  0.2706  0.6373
  209MOL0     C28719   5.878   8.563   0.852 -0.4381  0.2948 -0.4531
  209MOL0     C28720   5.797   8.691   0.839  0.1745  0.0120  0.4681
  209MOL0     N28721   5.702   8.723   0.950 -1.1425 -0.0681  0.3537
  209MOL0     C28722   5.615   8.630   0.999  0.8620 -0.0816  0.2605
  209MOL0     C28723   5.530   8.718   1.063 -0.4591 -0.0232  1.5021
  209MOL0     C28724   5.408   8.662   1.144  0.1880 -0.6824  0.5299
  209MOL0     C28725   5.272   8.604   1.078  0.0727 -0.9015 -0.3958
  209MOL0     C28726   5.285   8.478   0.992  0.0293  0.3168  0.3800
  209MOL0     C28727   5.350   8.354   1.048  0.2344 -0.3227 -0.3708
  209MOL0     O28728   5.317   8.305   1.181  0.0785 -0.7752 -0.0181
  209MOL0     C28729   5.342   8.170   1.197  0.8163  1.3058 -0.0702
  209MOL0     C28730   5.454   8.105   1.144  0.5256 -0.4858  0.2803
  209MOL0     C28731   5.493   7.977   1.166  0.6617 -0.4047 -0.9223
  209MOL0     C28732   5.602   7.925   1.085 -0.5829 -0.6870  0.1255
  209MOL0     C28733   5.410   7.888   1.241  1.1408 -0.1160 -0.7120
  209MOL0     C28734   5.432   7.741   1.269  0.5259  0.0793  0.2418
  209MOL0     O28735   5.560   7.696   1.252  0.2994  0.2920  0.7355
  209MOL0     C28736   5.576   7.562   1.278  0.5915  0.7175  0.3720
  209MOL0     C28737   5.653   7.520   1.382  0.2222  0.5059  0.4006
  209MOL0     C28738   5.670   7.376   1.416 -0.2613 -0.7219  0.0960
  209MOL0     C28739   5.617   7.276   1.325  0.3137 -0.9959  0.3261
  209MOL0     O28740   5.635   7.149   1.352  0.1322  0.1284 -0.8080
  209MOL0     C28741   5.556   7.046   1.288  0.4226 -0.5811  0.2757
  209MOL0     C28742   5.590   6.918   1.341 -1.2312 -0.0028  0.6664
  209MOL0     C28743   5.598   6.908   1.494  0.6499 -0.6561  1.1844
  209MOL0     C28744   5.633   6.774   1.555 -0.6890  0.5240  0.5263
  209MOL0     C28745   5.520   6.670   1.550 -0.7631 -0.4017  0.7583
  209MOL0     C28746   5.558   6.527   1.581 -0.2125  0.5649  0.0781
  209MOL0     C28747   5.630   6.510   1.709 -0.4470 -0.1144 -0.3737
  209MOL0     C28748   5.674   6.374   1.730  0.1160  1.0574  0.0722
  209MOL0    Cl28749   5.767   6.359   1.883  0.2494  0.3942  0.4419
  209MOL0     C28750   5.550   7.322   1.210 -0.3958  0.0662  0.0007
  209MOL0     C28751   5.527   7.459   1.191 -0.6478 -0.0568 -0.3290
  209MOL0     O28752   5.331   7.668   1.286 -0.4744  0.2250 -0.8412
  209MOL0     C28753   5.296   7.950   1.297  0.0041 -1.1037 -0.1925
  209MOL0     C28754   5.255   8.087   1.272  0.1014  0.1696 -0.8041
  209MOL0     N28755   5.560   8.847   1.055 -0.2277 -0.4670 -0.5604
  209MOL0     N28756   5.662   8.846   0.978  0.2527  0.1041  0.0621
  209MOL0     C28757   6.345   7.751   0.690 -1.3493  0.5877 -0.5928
  209MOL0     C28758   6.419   7.631   0.718  0.2873  0.4544  0.5147
  209MOL0     C28759   6.809   7.348   0.678  0.2667  0.2628 -0.3119
  209MOL0     C28760   6.746   7.251   0.752 -0.1737  0.6139  0.0556
  209MOL0     C28761   6.785   7.119   0.746 -0.1560 -0.6054 -0.7391
  209MOL0     C28762   6.900   7.068   0.674  0.3380 -0.6935  0.6407
  209MOL0     O28763   6.927   6.932   0.681  0.1339 -0.2365  0.3697
  209MOL0     C28764   7.014   6.882   0.585 -0.3423 -0.2141  0.6075
  209MOL0     C28765   7.017   6.732   0.591  0.5314  0.2735 -0.3045
  209MOL0     C28766   7.070   6.661   0.727  0.0496  0.6292  0.5769
  209MOL0     C28767   7.082   6.741   0.853  0.6475 -0.0519  0.4132
  209MOL0     C28768   7.172   6.682   0.957  0.7298  0.2748 -0.3964
  209MOL0     C28769   7.246   6.645   1.047 -0.2929  0.8601  0.4981
  209MOL0     C28770   6.965   7.170   0.594  0.3498 -0.6334 -0.3503
  209MOL0     C28771   6.919   7.311   0.589 -0.2958 -0.1955 -0.4089
  209MOL0     C28772   6.994   7.401   0.491  0.5298 -1.0044 -0.2293
  209MOL0     H28773   6.663   7.670   0.481 -0.0971  1.6380 -1.1095
  209MOL0     H28774   6.534   7.866   0.436  0.3967 -0.6289 -0.1645
  209MOL0     H28775   6.455   8.073   0.479 -1.7728  1.7245 -2.2018
  209MOL0     H28776   6.415   8.116   0.653 -1.6286  1.2521 -0.1359
  209MOL0     H28777   6.351   8.282   0.502 -1.0286  1.8740  2.7423
  209MOL0     H28778   6.226   8.180   0.421 -1.4556  0.7797 -0.3890
  209MOL0     H28779   6.103   8.142   0.633  2.4429 -2.0561 -1.0736
  209MOL0     H28780   6.221   8.246   0.714 -0.7930  0.8819  1.3187
  209MOL0     H28781   6.168   8.438   0.616 -1.0162  0.9923 -1.0699
  209MOL0     H28782   6.063   8.364   0.503  0.0326  0.3522  0.1432
  209MOL0     H28783   6.006   8.328   0.803 -3.1026 -1.1025  0.1871
  209MOL0     H28784   5.898   8.318   0.660  1.1134 -0.4419 -2.7893
  209MOL0     H28785   6.038   8.575   0.714  1.1390 -2.7658  0.0376
  209MOL0     H28786   5.876   8.549   0.635  0.9979  1.9223 -0.0514
  209MOL0     H28787   5.954   8.571   0.930 -0.1562  1.5866 -0.8260
  209MOL0     H28788   5.811   8.480   0.875 -0.1757  0.4977  1.2104
  209MOL0     H28789   5.865   8.776   0.832  2.2591 -1.5296  0.9486
  209MOL0     H28790   5.735   8.689   0.749 -1.5204 -0.8343  1.5805
  209MOL0     H28791   5.624   8.524   0.981  3.8633  0.4848 -2.6305
  209MOL0     H28792   5.371   8.742   1.209  2.4161 -0.2289  1.3419
  209MOL0     H28793   5.442   8.585   1.213 -1.3671 -0.6674  1.3638
  209MOL0     H28794   5.207   8.594   1.166  0.1415 -1.1193 -0.3699
  209MOL0     H28795   5.228   8.685   1.019  1.2768  0.7873  0.9115
  209MOL0     H28796   5.190   8.449   0.945 -0.0803 -5.9969  3.4920
  209MOL0     H28797   5.348   8.511   0.909 -2.5563 -1.1050 -2.3372
  209MOL0     H28798   5.337   8.276   0.973 -1.2911 -1.5443  1.0733
  209MOL0     H28799   5.458   8.370   1.049  0.7091 -3.0367  0.5244
  209MOL0     H28800   5.524   8.162   1.084 -2.0147  3.0966  0.3979
  209MOL0     H28801   5.688   7.888   1.142  1.4249 -0.1184 -2.3009
  209MOL0     H28802   5.643   7.997   1.014  2.0803  1.4562  3.5165
  209MOL0     H28803   5.554   7.843   1.031 -1.5437  0.9234 -1.5831
  209MOL0     H28804   5.663   7.599   1.456  1.5848 -0.5658  1.4109
  209MOL0     H28805   5.720   7.348   1.508  0.1396 -0.9477 -0.1859
  209MOL0     H28806   5.451   7.068   1.308  0.3177  0.4077 -1.2306
  209MOL0     H28807   5.566   7.042   1.180  1.4029  0.4463  0.3179
  209MOL0     H28808   5.506   6.852   1.317 -1.2476  1.1175 -2.8760
  209MOL0     H28809   5.689   6.883   1.310 -0.2038  3.7731 -0.8293
  209MOL0     H28810   5.493   6.932   1.515 -0.3173 -1.0970 -2.4908
  209MOL0     H28811   5.667   6.981   1.538  2.2808 -0.1354 -2.0236
  209MOL0     H28812   5.647   6.782   1.664  2.1434 -0.2593  0.2851
  209MOL0     H28813   5.724   6.742   1.504 -1.3927 -1.1759  0.2865
  209MOL0     H28814   5.429   6.699   1.603 -2.9048 -1.1061 -2.2861
  209MOL0     H28815   5.484   6.659   1.447 -1.4596  2.7412  0.5660
  209MOL0     H28816   5.626   6.489   1.505  1.2725  0.1573  1.5557
  209MOL0     H28817   5.465   6.472   1.593  0.2578 -0.5860 -1.2759
  209MOL0     H28818   5.563   6.533   1.793 -1.7048 -0.3957 -1.2761
  209MOL0     H28819   5.718   6.575   1.704  1.0337 -2.1284 -2.0251
  209MOL0     H28820   5.738   6.343   1.648 -0.2390 -0.3283  0.2975
  209MOL0     H28821   5.589   6.305   1.730  2.4819 -2.0905 -1.5719
  209MOL0     H28822   5.504   7.260   1.133  0.9734 -0.1140 -0.7098
  209MOL0     H28823   5.481   7.503   1.103 -0.3848  1.7775  0.4038
  209MOL0     H28824   5.237   7.887   1.363 -0.7489  1.8645  2.2118
  209MOL0     H28825   5.166   8.137   1.310  1.4035  1.0344  1.3078
  209MOL0     H28826   6.255   7.776   0.747 -0.1517  1.7847  0.8784
  209MOL0     H28827   6.394   7.566   0.801  0.5279 -0.7584 -0.3397
  209MOL0     H28828   6.677   7.281   0.831 -0.3307  1.1466 -0.2762
  209MOL0     H28829   6.734   7.051   0.814 -4.9711  2.2571 -1.0006
  209MOL0     H28830   6.972   6.916   0.490 -2.8264 -1.2985  1.2272
  209MOL0     H28831   7.116   6.920   0.600  1.2340 -3.7837  0.0278
  209MOL0     H28832   7.079   6.702   0.506  1.3076  0.9914 -0.0100
  209MOL0     H28833   6.917   6.694   0.570 -1.7052  4.6868  1.0953
  209MOL0     H28834   6.994   6.587   0.752 -0.3408 -1.0336 -4.4997
  209MOL0     H28835   7.163   6.606   0.706  0.7820  2.3117 -0.7525
  209MOL0     H28836   6.980   6.756   0.888  1.0998 -0.8003  2.1681
  209MOL0     H28837   7.132   6.832   0.820  0.9642  1.0554  3.5780
  209MOL0     H28838   7.303   6.622   1.134 -0.5522 -1.2133  0.1613
  209MOL0     H28839   7.050   7.134   0.537 -0.4701  0.7388 -2.5383
  209MOL0     H28840   7.076   7.460   0.531  0.4917 -0.1763 -1.3354
  209MOL0     H28841   7.036   7.337   0.413  0.3863  0.1191 -1.2565
  209MOL0     H28842   6.922   7.471   0.448  0.0462 -0.8234  0.8562
  210MOL0     O28843   5.430   1.713   7.912  0.0650  1.0703 -0.3653
  210MOL0     C28844   5.309   1.720   7.924  0.8964  0.5452  0.5324
  210MOL0     O28845   5.220   1.610   7.927  0.1583 -0.4939  0.5019
  210MOL0     C28846   5.276   1.495   7.867  0.1647 -0.3097 -0.4134
  210MOL0     C28847   5.245   1.463   7.739  0.0881 -0.2177  0.1302
  210MOL0     C28848   5.293   1.349   7.671  0.0150  0.0174  0.4679
  210MOL0     C28849   5.381   1.257   7.737  0.1528 -0.0462 -0.2370
  210MOL0     O28850   5.431   1.150   7.668  0.0979 -0.3144 -0.6152
  210MOL0     C28851   5.557   1.174   7.610  0.2605 -0.6804  0.0814
  210MOL0     C28852   5.596   1.056   7.520  1.0030 -0.3733 -0.2143
  210MOL0     C28853   5.661   0.946   7.595 -0.1383  0.4391  0.7681
  210MOL0     C28854   5.690   0.816   7.515 -0.1289  0.2426  0.7749
  210MOL0     C28855   5.791   0.732   7.587 -0.0484  0.5380  0.1259
  210MOL0     C28856   5.800   0.599   7.519 -0.0109  1.3053 -0.0818
  210MOL0     C28857   5.902   0.509   7.580  0.5417  0.0541 -0.8302
  210MOL0     C28858   5.924   0.363   7.513  0.1916  0.6580  0.6358
  210MOL0     N28859   5.983   0.388   7.380 -1.2456 -0.4769 -0.5512
  210MOL0     C28860   6.125   0.409   7.349  0.9898 -0.3962  0.0008
  210MOL0     C28861   6.126   0.431   7.221  0.2328 -0.2465 -0.5686
  210MOL0     C28862   6.245   0.479   7.141  0.8991 -0.5034  0.0668
  210MOL0     C28863   6.302   0.616   7.190 -0.1736  0.1242 -0.6768
  210MOL0     C28864   6.210   0.731   7.145 -0.2486  0.9859  0.1338
  210MOL0     C28865   6.271   0.866   7.157 -0.3469  0.9139 -0.8845
  210MOL0     O28866   6.184   0.973   7.116 -0.5940  0.3628  0.2721
  210MOL0     C28867   6.234   1.071   7.037  0.0777  0.4415 -0.8693
  210MOL0     C28868   6.205   1.199   7.075  0.4672 -0.5167  0.2615
  210MOL0     C28869   6.260   1.315   7.006 -0.4783  0.0885 -1.1162
  210MOL0     C28870   6.206   1.455   7.037 -0.7870  1.1565 -0.6764
  210MOL0     C28871   6.352   1.285   6.897 -0.6571 -0.4843 -0.4974
  210MOL0     C28872   6.432   1.386   6.821 -0.6021 -0.0250 -0.2325
  210MOL0     O28873   6.508   1.332   6.718  0.3466  0.1390  0.2097
  210MOL0     C28874   6.599   1.414   6.656 -0.7350  0.5378 -0.2831
  210MOL0     C28875   6.612   1.410   6.520 -0.1969  0.2161 -0.5825
  210MOL0     C28876   6.673   1.497   6.444  0.2752 -0.7266  0.2023
  210MOL0     C28877   6.758   1.599   6.500  0.9279 -0.1621  0.4022
  210MOL0     O28878   6.827   1.678   6.414  0.3760  0.0182  0.2460
  210MOL0     C28879   6.838   1.821   6.438  0.4682  0.3773  0.0875
  210MOL0     C28880   6.877   1.903   6.315 -0.7066  0.5366 -0.1698
  210MOL0     C28881   6.817   1.845   6.191  0.3768 -0.3488 -0.7795
  210MOL0     C28882   6.878   1.916   6.067 -0.0384  0.4147 -0.3974
  210MOL0     C28883   6.819   1.867   5.937 -0.0097 -0.2147 -0.6399
  210MOL0     C28884   6.884   1.925   5.819  0.1687  0.1883  0.4744
  210MOL0     C28885   6.849   2.072   5.785 -0.9031  0.0615 -0.5027
  210MOL0     C28886   6.924   2.134   5.661 -0.4573  0.6191 -0.1372
  210MOL0    Cl28887   7.083   2.201   5.734 -0.0690 -0.0419  0.2510
  210MOL0     C28888   6.757   1.603   6.640  0.0133  0.7073 -0.5717
  210MOL0     C28889   6.684   1.510   6.716 -0.7480  0.1196 -1.4789
  210MOL0     O28890   6.431   1.501   6.851  0.0736  0.1430  0.1874
  210MOL0     C28891   6.361   1.153   6.854 -0.0402  0.4715 -0.4899
  210MOL0     C28892   6.300   1.046   6.921  0.0130  0.4905  0.6854
  210MOL0     N28893   5.990   0.430   7.173  0.5408 -0.6711 -1.1514
  210MOL0     N28894   5.913   0.412   7.271 -0.0600 -0.1649 -0.1868
  210MOL0     C28895   5.421   1.286   7.869 -0.3005 -1.1815 -0.1252
  210MOL0     C28896   5.366   1.407   7.928 -0.4393  0.6182 -0.1694
  210MOL0     C28897   5.242   1.856   7.959  0.2172  0.1830 -0.0912
  210MOL0     C28898   5.099   1.862   7.932 -0.2457 -1.0298 -0.5329
  210MOL0     C28899   5.028   1.977   7.967 -0.3224 -0.1828  0.3512
  210MOL0     C28900   5.092   2.080   8.037 -0.3165 -0.2447  0.8257
  210MOL0     O28901   5.041   2.206   8.078 -0.2750  0.0012  0.1836
  210MOL0     C28902   4.908   2.237   8.044 -0.6311  0.9397 -0.6032
  210MOL0     C28903   4.804   2.193   8.154  1.0377 -0.4342 -0.4421
  210MOL0     C28904   4.822   2.257   8.298  0.0353  0.1093 -0.1990
  210MOL0     C28905   4.699   2.229   8.365  0.3003  0.0735  0.2675
  210MOL0     C28906   4.698   2.318   8.478  0.7767 -0.1651  0.1375
  210MOL0     C28907   4.674   2.398   8.566 -1.0317 -0.7201 -0.1049
  210MOL0     C28908   5.229   2.073   8.057 -0.6733 -0.2698  0.2169
  210MOL0     C28909   5.309   1.969   8.014 -0.0870 -0.2599  0.1037
  210MOL0     C28910   5.460   1.968   8.040 -0.4086 -0.2634  0.3414
  210MOL0     H28911   5.169   1.518   7.684  0.4208  0.4384  0.3110
  210MOL0     H28912   5.266   1.325   7.568  1.6960 -0.8067  0.1735
  210MOL0     H28913   5.639   1.193   7.680 -0.9136  1.2689  0.9931
  210MOL0     H28914   5.559   1.264   7.547 -1.3399  0.8903  2.1296
  210MOL0     H28915   5.501   1.022   7.478  0.5239  1.6988 -0.9552
  210MOL0     H28916   5.655   1.091   7.435 -0.3856 -0.7971 -1.3706
  210MOL0     H28917   5.759   0.989   7.615  2.4042 -1.7220 -5.0005
  210MOL0     H28918   5.611   0.914   7.687 -2.1349 -2.9268 -1.2571
  210MOL0     H28919   5.593   0.770   7.496 -0.6933  1.9368 -0.6829
  210MOL0     H28920   5.737   0.827   7.417  0.8652 -5.3081  0.3025
  210MOL0     H28921   5.758   0.725   7.691 -0.6837 -1.0170 -0.1485
  210MOL0     H28922   5.882   0.792   7.592  0.2779  0.0755 -0.2145
  210MOL0     H28923   5.702   0.551   7.505  0.1722  1.1808 -1.0062
  210MOL0     H28924   5.822   0.621   7.414  0.0568  2.2005  0.1127
  210MOL0     H28925   5.873   0.482   7.682  0.5775 -0.7478 -1.0265
  210MOL0     H28926   5.997   0.563   7.587  0.0931  0.9112 -1.2322
  210MOL0     H28927   5.977   0.296   7.581 -1.6647 -0.1448  1.3679
  210MOL0     H28928   5.826   0.317   7.492  0.9481 -0.3811 -0.8477
  210MOL0     H28929   6.211   0.409   7.416 -0.6657  0.8575  2.2794
  210MOL0     H28930   6.213   0.483   7.036 -1.5167 -3.1070  0.5939
  210MOL0     H28931   6.322   0.401   7.141 -1.3297 -2.8889 -2.6146
  210MOL0     H28932   6.316   0.622   7.299  0.8534  1.3047 -0.8532
  210MOL0     H28933   6.403   0.626   7.148  0.3653  0.6757  0.6908
  210MOL0     H28934   6.200   0.712   7.038  0.6795 -2.1731  0.5063
  210MOL0     H28935   6.117   0.716   7.202  1.7148  0.0184  3.3692
  210MOL0     H28936   6.293   0.861   7.264 -1.0753 -1.6149 -0.7967
  210MOL0     H28937   6.371   0.880   7.114 -0.3346  1.5464 -0.6700
  210MOL0     H28938   6.141   1.217   7.161  0.5533 -0.4747  0.3176
  210MOL0     H28939   6.148   1.489   6.951 -0.9724  0.7710 -0.7081
  210MOL0     H28940   6.296   1.514   7.053  0.1225  0.4914 -2.9807
  210MOL0     H28941   6.157   1.446   7.135 -0.6548  2.0434 -0.5233
  210MOL0     H28942   6.566   1.336   6.456  1.2657 -1.5634  0.3541
  210MOL0     H28943   6.664   1.480   6.337 -3.8713  2.5785 -0.2155
  210MOL0     H28944   6.741   1.853   6.478  0.8904 -0.6138  2.0097
  210MOL0     H28945   6.907   1.847   6.519  2.0762 -0.7368 -0.8991
  210MOL0     H28946   6.847   2.008   6.328  2.0463  1.5644 -1.2531
  210MOL0     H28947   6.985   1.887   6.322 -0.9800 -2.0422 -0.8992
  210MOL0     H28948   6.708   1.858   6.187  0.2254  0.3724  2.7731
  210MOL0     H28949   6.833   1.737   6.192 -0.2990 -0.4518 -0.4010
  210MOL0     H28950   6.988   1.917   6.068  0.0229  2.6485  2.3717
  210MOL0     H28951   6.842   2.019   6.073 -0.3151  0.2329  1.9742
  210MOL0     H28952   6.842   1.760   5.929  2.3961  0.3322 -2.2434
  210MOL0     H28953   6.710   1.876   5.935  0.0640  2.8323  1.6558
  210MOL0     H28954   6.862   1.850   5.742 -1.7708 -0.6785  1.7847
  210MOL0     H28955   6.992   1.915   5.834  0.1727 -0.9075 -0.1472
  210MOL0     H28956   6.889   2.129   5.870 -1.6077 -1.5175  0.9556
  210MOL0     H28957   6.743   2.094   5.771 -0.8499  2.2182  1.7954
  210MOL0     H28958   6.868   2.222   5.630 -0.3766  0.4329 -0.8161
  210MOL0     H28959   6.937   2.065   5.577 -1.6119  0.2995 -0.0752
  210MOL0     H28960   6.828   1.659   6.700 -0.8434 -0.3597  1.5028
  210MOL0     H28961   6.684   1.520   6.824  1.2431  0.1873 -1.4476
  210MOL0     H28962   6.411   1.122   6.763 -1.5707 -1.1070 -0.8702
  210MOL0     H28963   6.324   0.947   6.884  2.1162  1.0386  0.4483
  210MOL0     H28964   5.493   1.223   7.922  0.8757 -0.9459 -1.3931
  210MOL0     H28965   5.395   1.434   8.030 -2.2847 -1.3759  0.9515
  210MOL0     H28966   5.047   1.772   7.901  0.6209 -2.6259  2.2430
  210MOL0     H28967   4.920   1.985   7.955 -0.6349  2.0892  3.4687
  210MOL0     H28968   4.909   2.345   8.033 -2.2716  1.3167  2.2337
  210MOL0     H28969   4.883   2.188   7.949 -1.6799 -0.6070  0.4235
  210MOL0     H28970   4.808   2.085   8.168  0.0360 -0.5038 -0.6670
  210MOL0     H28971   4.705   2.219   8.115 -0.1635 -1.1833  1.9451
  210MOL0     H28972   4.896   2.196   8.349 -3.5815 -4.7824 -0.1515
  210MOL0     H28973   4.852   2.359   8.271  1.8609 -1.1446 -3.6096
  210MOL0     H28974   4.699   2.125   8.400 -1.4407  0.5809  1.9176
  210MOL0     H28975   4.612   2.249   8.302  1.4108 -1.3027 -1.8340
  210MOL0     H28976   4.650   2.453   8.655  1.3449  0.1675  0.0635
  210MOL0     H28977   5.266   2.169   8.091 -1.1741  0.6813 -1.7748
  210MOL0     H28978   5.510   1.979   7.943 -2.0073 -1.4080 -0.6789
  210MOL0     H28979   5.480   2.061   8.092  2.9321 -1.0404  0.6486
  210MOL0     H28980   5.497   1.884   8.099  2.4180  0.0382 -0.8068
  211MOL0     O28981   9.874   1.524  11.103  0.2445  0.2044 -0.2992
  211MOL0     C28982   9.886   1.637  11.154  0.1736  0.3035 -1.0827
  211MOL0     O28983   9.976   1.731  11.103 -0.2864 -0.5666  0.2023
  211MOL0     C28984  10.097   1.696  11.047  0.1057  1.2096 -0.5246
  211MOL0     C28985  10.195   1.614  11.118 -0.1988 -0.4459  0.0906
  211MOL0     C28986  10.319   1.586  11.065  0.7015 -0.3630 -0.6265
  211MOL0     C28987  10.355   1.645  10.945 -1.0267  1.2103 -0.1429
  211MOL0     O28988  10.474   1.635  10.883 -0.5504  0.2644  0.2787
  211MOL0     C28989  10.547   1.506  10.909  0.0668 -0.0307  0.3515
  211MOL0     C28990  10.675   1.501  10.818  0.1045  0.0740  0.1875
  211MOL0     C28991  10.781   1.390  10.860  1.2237 -0.8722  0.1604
  211MOL0     C28992  10.908   1.412  10.777 -0.2657 -0.0624 -0.4567
  211MOL0     C28993  11.010   1.294  10.815  0.5705  0.1169  0.4608
  211MOL0     C28994  11.138   1.332  10.761 -0.2713  0.9021  0.1214
  211MOL0     C28995  11.243   1.230  10.798 -0.4067  0.2999 -0.7508
  211MOL0     C28996  11.210   1.087  10.749 -0.1140  0.1997 -0.0606
  211MOL0     N28997  11.308   0.983  10.793  0.2052 -0.2733 -0.1898
  211MOL0     C28998  11.353   0.873  10.724  0.6106 -0.3711 -0.2580
  211MOL0     C28999  11.440   0.807  10.806  0.5130  0.0053 -0.0022
  211MOL0     C29000  11.509   0.671  10.779 -0.2351  0.6066 -0.7841
  211MOL0     C29001  11.648   0.669  10.854 -0.0101 -0.2261  0.7279
  211MOL0     C29002  11.726   0.550  10.800 -0.0814  0.4131  0.3820
  211MOL0     C29003  11.692   0.419  10.875  0.1411  0.2664  0.3382
  211MOL0     O29004  11.785   0.313  10.849 -0.2715 -0.1226  0.1144
  211MOL0     C29005  11.781   0.239  10.727  0.0533  0.5413 -1.2341
  211MOL0     C29006  11.885   0.144  10.706  0.9462 -0.2170 -0.7231
  211MOL0     C29007  11.905   0.057  10.595  0.4458 -0.6642 -0.6668
  211MOL0     C29008  12.010  -0.046  10.606  0.2521 -0.2616 -0.6508
  211MOL0     C29009  11.805   0.061  10.499  0.1969 -0.1025  0.0889
  211MOL0     C29010  11.797  -0.025  10.376 -0.2701 -0.8868 -0.2789
  211MOL0     O29011  11.680  -0.039  10.305 -0.2002  0.5729  0.4634
  211MOL0     C29012  11.688  -0.104  10.180 -0.1427 -1.3299 -1.0282
  211MOL0     C29013  11.573  -0.171  10.133 -0.2007  0.1725 -0.1180
  211MOL0     C29014  11.564  -0.206   9.997  0.3499 -0.3269 -1.7832
  211MOL0     C29015  11.671  -0.191   9.911 -0.8088  0.3124 -0.2075
  211MOL0     O29016  11.662  -0.243   9.784 -0.4283 -0.5885 -0.0045
  211MOL0     C29017  11.571  -0.355   9.744  0.0271 -1.0083  0.5738
  211MOL0     C29018  11.649  -0.461   9.661  0.2113 -0.8225  0.7796
  211MOL0     C29019  11.750  -0.534   9.752 -0.1150  0.7091  0.7943
  211MOL0     C29020  11.834  -0.636   9.672  0.8109 -0.3560 -0.3763
  211MOL0     C29021  11.918  -0.701   9.773  0.2750  0.0780  0.9591
  211MOL0     C29022  11.999  -0.822   9.714  0.3166 -1.1895  0.1439
  211MOL0     C29023  11.929  -0.948   9.722 -0.5027 -0.1507  0.4907
  211MOL0     C29024  12.036  -1.056   9.703  0.8345  0.6999 -0.2053
  211MOL0    Cl29025  11.972  -1.219   9.686  0.5212  0.1422  0.0511
  211MOL0     C29026  11.786  -0.126   9.950  0.7659 -0.2403  0.2170
  211MOL0     C29027  11.793  -0.074  10.084 -0.9829 -0.1200  0.0331
  211MOL0     O29028  11.896  -0.088  10.351  0.7567 -0.4195  0.5049
  211MOL0     C29029  11.707   0.170  10.518  0.1574  0.1929  1.0162
  211MOL0     C29030  11.696   0.253  10.624 -0.3491 -0.6755  0.3456
  211MOL0     N29031  11.447   0.887  10.921  0.1440 -1.6215 -0.0761
  211MOL0     N29032  11.362   0.988  10.920  0.6158  0.5819 -0.2658
  211MOL0     C29033  10.266   1.710  10.869 -0.8335 -0.3571  0.0371
  211MOL0     C29034  10.141   1.739  10.925 -0.3687 -0.4710 -0.1229
  211MOL0     C29035   9.786   1.675  11.264 -0.0984  0.6174  0.9222
  211MOL0     C29036   9.720   1.572  11.327 -0.3173 -0.7636 -0.1933
  211MOL0     C29037   9.637   1.591  11.433  0.2268  0.5586  0.1862
  211MOL0     C29038   9.593   1.721  11.468  0.7736 -0.5228 -0.3897
  211MOL0     O29039   9.495   1.749  11.556  0.2323 -0.4660  0.2647
  211MOL0     C29040   9.400   1.655  11.591  0.4966 -0.9110 -0.1486
  211MOL0     C29041   9.444   1.569  11.710  1.2484 -0.2627 -0.1109
  211MOL0     C29042   9.407   1.643  11.834 -0.0432 -0.5366  0.2746
  211MOL0     C29043   9.461   1.567  11.956  0.0083  0.2498  0.4690
  211MOL0     C29044   9.391   1.451  12.008  0.2076  0.0228  0.5097
  211MOL0     C29045   9.328   1.349  12.042 -1.1656  0.0572  1.2301
  211MOL0     C29046   9.653   1.828  11.407 -0.8211 -0.1275 -0.3417
  211MOL0     C29047   9.751   1.809  11.303  0.8219 -1.0430  0.2619
  211MOL0     C29048   9.824   1.930  11.245  0.1098  0.3788 -0.0623
  211MOL0     H29049  10.171   1.571  11.214 -2.8136 -1.9339 -1.1105
  211MOL0     H29050  10.376   1.522  11.132  1.3866  0.8046 -0.0717
  211MOL0     H29051  10.486   1.418  10.886 -1.1919  0.7090  0.7296
  211MOL0     H29052  10.577   1.491  11.013  3.8721 -1.8587 -0.8306
  211MOL0     H29053  10.643   1.479  10.716 -3.2912  5.6511 -0.3510
  211MOL0     H29054  10.726   1.597  10.810  2.4761 -1.2024 -1.5122
  211MOL0     H29055  10.801   1.395  10.968 -1.3054 -0.0885  0.6458
  211MOL0     H29056  10.742   1.289  10.846  1.9032 -1.3880  1.7212
  211MOL0     H29057  10.883   1.415  10.670 -1.8130 -3.9769 -0.3954
  211MOL0     H29058  10.956   1.504  10.811 -2.3962  0.9458 -0.0381
  211MOL0     H29059  10.965   1.204  10.772  0.5099  1.6291 -2.9921
  211MOL0     H29060  11.016   1.282  10.923 -3.3231  1.0858  0.9559
  211MOL0     H29061  11.140   1.322  10.652 -0.6969 -0.8233  0.2412
  211MOL0     H29062  11.161   1.433  10.794  0.6002  0.5014  0.7772
  211MOL0     H29063  11.238   1.215  10.906 -3.8053 -2.4010 -1.1002
  211MOL0     H29064  11.340   1.273  10.773  0.1370  1.5939  2.9472
  211MOL0     H29065  11.111   1.051  10.778  0.0802 -1.2416 -1.0915
  211MOL0     H29066  11.211   1.082  10.640  1.2969 -2.9086 -0.0285
  211MOL0     H29067  11.293   0.835  10.641  1.0059  2.2394 -1.8637
  211MOL0     H29068  11.514   0.645  10.673 -0.0179  0.1143 -0.6551
  211MOL0     H29069  11.442   0.606  10.835  1.9311 -0.3045  0.8864
  211MOL0     H29070  11.696   0.765  10.835  1.3850 -0.1781  3.8752
  211MOL0     H29071  11.639   0.655  10.962 -1.4028 -1.8789  0.4381
  211MOL0     H29072  11.726   0.536  10.691  2.3215  1.2734  0.1976
  211MOL0     H29073  11.831   0.568  10.825  0.5961  0.9744 -2.4661
  211MOL0     H29074  11.698   0.449  10.980  1.5843 -1.1495  0.7104
  211MOL0     H29075  11.590   0.386  10.854 -0.1783 -0.6851  2.9483
  211MOL0     H29076  11.942   0.134  10.798 -1.4508 -2.9301  0.6177
  211MOL0     H29077  12.055  -0.064  10.508 -0.7546 -0.3429 -1.1119
  211MOL0     H29078  11.952  -0.133  10.639 -1.2721  0.0478 -2.3339
  211MOL0     H29079  12.089  -0.024  10.679 -2.6498  0.5699  2.4850
  211MOL0     H29080  11.485  -0.189  10.193  1.2597 -3.5444  1.1464
  211MOL0     H29081  11.466  -0.247   9.973  0.8473 -2.0157 -1.0678
  211MOL0     H29082  11.540  -0.416   9.830 -0.0969 -3.2193 -0.9483
  211MOL0     H29083  11.483  -0.326   9.685  0.9870 -0.0662 -0.4146
  211MOL0     H29084  11.582  -0.535   9.616 -1.7199  0.7036  0.9934
  211MOL0     H29085  11.698  -0.404   9.582 -1.0417  0.5820  0.9517
  211MOL0     H29086  11.699  -0.595   9.827 -1.1846  0.2756 -0.2443
  211MOL0     H29087  11.818  -0.465   9.802  3.3711 -2.2553  0.5681
  211MOL0     H29088  11.890  -0.571   9.604  1.8420  0.7130  1.4240
  211MOL0     H29089  11.777  -0.714   9.620  1.1548 -1.5305  0.9614
  211MOL0     H29090  11.988  -0.628   9.815  2.7060 -0.9887 -0.9482
  211MOL0     H29091  11.852  -0.725   9.857 -2.2144  1.7329 -0.3858
  211MOL0     H29092  12.090  -0.836   9.772 -0.7377 -1.2967  1.8353
  211MOL0     H29093  12.019  -0.810   9.607 -1.9101  0.5000 -0.1573
  211MOL0     H29094  11.852  -0.967   9.647 -0.8149  0.4459  0.6496
  211MOL0     H29095  11.877  -0.957   9.819 -1.6339 -0.5502 -0.1274
  211MOL0     H29096  12.099  -1.052   9.792  1.2867  0.3398 -0.5056
  211MOL0     H29097  12.100  -1.036   9.617  2.2794 -3.2798 -0.2751
  211MOL0     H29098  11.882  -0.143   9.901  2.3626 -3.2425  3.9230
  211MOL0     H29099  11.879  -0.015  10.114  0.6566 -3.2090  2.0046
  211MOL0     H29100  11.632   0.178  10.439  2.9253 -0.9272 -1.9399
  211MOL0     H29101  11.616   0.325  10.636  0.4655  0.6040 -1.5551
  211MOL0     H29102  10.285   1.747  10.769 -0.2670 -2.8379 -0.8214
  211MOL0     H29103  10.088   1.811  10.864 -2.5955 -2.5069 -0.7827
  211MOL0     H29104   9.755   1.469  11.318 -0.8152 -1.0310  0.7467
  211MOL0     H29105   9.591   1.505  11.480  2.0197  0.4895  1.9558
  211MOL0     H29106   9.307   1.709  11.608  1.1293  1.7108 -3.8262
  211MOL0     H29107   9.366   1.589  11.510 -3.0179 -1.2940  1.4597
  211MOL0     H29108   9.552   1.554  11.695  1.2813 -0.3317  0.1771
  211MOL0     H29109   9.390   1.474  11.710  2.0762 -0.7609  0.7407
  211MOL0     H29110   9.467   1.734  11.824 -1.1321  0.0312 -1.3745
  211MOL0     H29111   9.300   1.665  11.837  0.0643  0.0993 -0.2033
  211MOL0     H29112   9.471   1.647  12.031  1.0065  2.2528 -1.6881
  211MOL0     H29113   9.563   1.538  11.932 -0.8180 -0.8419 -1.9711
  211MOL0     H29114   9.274   1.269  12.088  0.5079 -1.0889  1.2851
  211MOL0     H29115   9.638   1.934  11.426 -0.0348 -0.2205  0.8987
  211MOL0     H29116   9.933   1.918  11.252  0.3714 -0.4625 -3.4437
  211MOL0     H29117   9.811   1.941  11.137  1.9005  1.3800 -0.2189
  211MOL0     H29118   9.799   2.028  11.285 -1.6735 -0.5054  1.1047
  212MOL0     O29119  10.432  11.530   0.140 -0.1356 -0.1082 -0.1302
  212MOL0     C29120  10.428  11.592   0.248  0.3551  0.6843  0.1133
  212MOL0     O29121  10.412  11.529   0.371 -0.0530 -0.0365 -0.0454
  212MOL0     C29122  10.444  11.394   0.386 -0.8646  1.0140 -0.0757
  212MOL0     C29123  10.369  11.293   0.322 -0.0123  0.4587 -0.1197
  212MOL0     C29124  10.397  11.159   0.338  0.2471  0.0950 -0.4887
  212MOL0     C29125  10.513  11.123   0.401  0.4739 -0.2383  0.5556
  212MOL0     O29126  10.552  10.990   0.420 -0.5473  0.3099  0.5965
  212MOL0     C29127  10.456  10.893   0.419  0.4427 -0.0174 -1.3099
  212MOL0     C29128  10.369  10.904   0.549 -0.0772 -1.0800  0.3303
  212MOL0     C29129  10.276  10.785   0.548  0.0999 -0.2431 -0.0549
  212MOL0     C29130  10.333  10.672   0.621 -1.1227  0.6802  0.0849
  212MOL0     C29131  10.241  10.551   0.618 -0.1212 -0.0067 -0.6337
  212MOL0     C29132  10.313  10.428   0.683  0.3872 -1.4564 -0.0493
  212MOL0     C29133  10.205  10.331   0.730 -0.6130 -0.6983  0.0451
  212MOL0     C29134  10.249  10.186   0.777  0.4726 -0.4598  0.2739
  212MOL0     N29135  10.328  10.115   0.678 -0.0181  0.8437  0.6197
  212MOL0     C29136  10.281  10.084   0.551 -0.0059 -0.3792  0.5060
  212MOL0     C29137  10.384  10.024   0.497 -0.4262 -0.0166 -0.0140
  212MOL0     C29138  10.379   9.981   0.357 -0.5528  0.7417  0.4832
  212MOL0     C29139  10.481   9.877   0.317  0.6741  0.4798 -1.2923
  212MOL0     C29140  10.483   9.867   0.165 -0.3884  1.4147  0.0357
  212MOL0     C29141  10.574   9.751   0.106  0.5502 -0.8244 -0.5070
  212MOL0     O29142  10.701   9.767   0.178 -0.7500 -0.6285  0.2256
  212MOL0     C29143  10.789   9.657   0.185 -0.0606 -1.4111  0.3036
  212MOL0     C29144  10.798   9.563   0.079 -0.5532 -1.1661 -0.6382
  212MOL0     C29145  10.880   9.459   0.085  0.1643  1.0804  0.2164
  212MOL0     C29146  10.863   9.345  -0.017  0.5744 -1.3093 -0.6583
  212MOL0     C29147  10.956   9.446   0.207 -0.8252  0.3123  0.3046
  212MOL0     C29148  11.048   9.329   0.225 -0.0654 -0.3857 -0.1983
  212MOL0     O29149  11.082   9.310   0.357  0.3935  0.2287  0.3454
  212MOL0     C29150  11.192   9.231   0.399  0.9437 -0.1544  0.8854
  212MOL0     C29151  11.290   9.180   0.312  0.3312  0.5317 -0.1254
  212MOL0     C29152  11.394   9.106   0.361  0.7719  0.0761  0.2492
  212MOL0     C29153  11.427   9.099   0.493  0.4509  0.3293  0.7268
  212MOL0     O29154  11.548   9.046   0.548  0.5940  0.5416  0.3945
  212MOL0     C29155  11.645   8.991   0.451 -0.2409 -1.3633 -1.2189
  212MOL0     C29156  11.751   8.891   0.524  1.4421  0.3455 -0.6310
  212MOL0     C29157  11.684   8.750   0.551  1.1337 -1.2623 -1.2158
  212MOL0     C29158  11.769   8.670   0.646  0.1668 -0.3214 -0.4084
  212MOL0     C29159  11.698   8.553   0.712  0.4842  0.7429 -0.1348
  212MOL0     C29160  11.641   8.439   0.620 -0.0083 -0.0585  0.2841
  212MOL0     C29161  11.767   8.396   0.535 -0.0503 -1.0174  0.8840
  212MOL0     C29162  11.774   8.256   0.489  0.3386  0.0866  0.3131
  212MOL0    Cl29163  11.663   8.210   0.357 -0.1463 -0.5421  0.2681
  212MOL0     C29164  11.342   9.162   0.583 -0.6072 -0.6275  0.4267
  212MOL0     C29165  11.219   9.227   0.537 -0.2149  0.7948 -0.1864
  212MOL0     O29166  11.092   9.265   0.129 -0.4982  0.5509  0.3737
  212MOL0     C29167  10.942   9.535   0.318 -0.0897  1.2637  0.9109
  212MOL0     C29168  10.857   9.648   0.303 -0.6579 -0.1732 -1.0130
  212MOL0     N29169  10.486  10.000   0.585 -0.8989 -0.1189  0.4017
  212MOL0     N29170  10.455  10.061   0.694  0.7247  0.8547 -0.9977
  212MOL0     C29171  10.593  11.216   0.470  0.3985  0.1078  0.3762
  212MOL0     C29172  10.563  11.350   0.461  0.0285  0.0865  0.9642
  212MOL0     C29173  10.418  11.748   0.244 -0.7019 -0.2452  0.0179
  212MOL0     C29174  10.350  11.822   0.341 -0.4244  0.3499 -0.1294
  212MOL0     C29175  10.354  11.957   0.339 -0.4492 -0.4508  0.0587
  212MOL0     C29176  10.429  12.027   0.246  0.5925 -0.3355  0.2812
  212MOL0     O29177  10.412  12.164   0.254  0.3299 -0.0838 -0.2363
  212MOL0     C29178  10.486  12.256   0.179 -0.7748  0.5617 -1.0035
  212MOL0     C29179  10.614  12.304   0.262 -0.1143  0.0152  0.4665
  212MOL0     C29180  10.686  12.433   0.203  0.1026  0.0713  0.7558
  212MOL0     C29181  10.719  12.423   0.052 -0.9276 -0.7810  0.0387
  212MOL0     C29182  10.796  12.299   0.014  1.1098 -0.3426 -0.0191
  212MOL0     C29183  10.852  12.204  -0.024 -0.3213  0.0628  0.0297
  212MOL0     C29184  10.490  11.960   0.147 -0.6796  0.4189  0.5309
  212MOL0     C29185  10.498  11.821   0.147  0.0552  0.0458 -0.0936
  212MOL0     C29186  10.577  11.761   0.034  0.0623  0.0585  0.0467
  212MOL0     H29187  10.278  11.317   0.267 -0.7688  1.5540  1.5117
  212MOL0     H29188  10.333  11.086   0.289  0.7393  1.4636 -3.4278
  212MOL0     H29189  10.519  10.804   0.423  2.1867  1.1521 -1.9029
  212MOL0     H29190  10.399  10.892   0.325 -1.0230 -0.5864 -0.4550
  212MOL0     H29191  10.432  10.909   0.639  2.0742 -1.3035 -1.1065
  212MOL0     H29192  10.310  10.994   0.566  1.3679 -0.1160  0.3752
  212MOL0     H29193  10.174  10.806   0.582  0.8532  1.3870  1.3397
  212MOL0     H29194  10.251  10.752   0.447  1.9601 -1.8697 -0.0462
  212MOL0     H29195  10.422  10.655   0.560  0.3109  4.1146  0.9479
  212MOL0     H29196  10.363  10.704   0.721  3.0036  0.7737 -0.9961
  212MOL0     H29197  10.225  10.523   0.513 -0.5646 -1.0137 -0.3121
  212MOL0     H29198  10.142  10.557   0.664  0.4088 -2.8404  1.1210
  212MOL0     H29199  10.387  10.391   0.611 -0.9065 -1.4684 -1.4403
  212MOL0     H29200  10.364  10.462   0.773  2.0190  3.1855 -2.3768
  212MOL0     H29201  10.125  10.322   0.657 -1.0787  0.4404  0.3899
  212MOL0     H29202  10.145  10.381   0.807 -0.1368  3.1378 -1.8667
  212MOL0     H29203  10.298  10.182   0.874 -0.5904 -2.9391  0.8084
  212MOL0     H29204  10.165  10.120   0.801 -1.4522  1.6120 -0.3621
  212MOL0     H29205  10.182  10.094   0.507  0.4671 -0.1203 -0.5359
  212MOL0     H29206  10.386  10.073   0.298  0.1801  0.8946  0.7959
  212MOL0     H29207  10.278   9.939   0.352 -0.2682 -0.1068  1.4348
  212MOL0     H29208  10.579   9.911   0.353  0.8745 -2.0318  0.7863
  212MOL0     H29209  10.455   9.785   0.370  0.3224  0.0273 -2.2291
  212MOL0     H29210  10.381   9.848   0.130 -0.2047 -1.8506  0.9617
  212MOL0     H29211  10.530   9.962   0.136  3.5910 -0.3723  0.0091
  212MOL0     H29212  10.529   9.652   0.121  0.7236 -0.6442  1.4953
  212MOL0     H29213  10.584   9.771  -0.001 -1.0057  1.8701 -0.2242
  212MOL0     H29214  10.751   9.579  -0.017 -0.2779 -1.8108 -0.8827
  212MOL0     H29215  10.878   9.247   0.028 -2.5723 -1.5682  0.0571
  212MOL0     H29216  10.937   9.368  -0.094 -0.0743  1.2142 -0.6309
  212MOL0     H29217  10.759   9.358  -0.047  1.2647  1.8342 -2.1458
  212MOL0     H29218  11.288   9.188   0.204  1.1234 -0.7266 -0.2642
  212MOL0     H29219  11.461   9.060   0.289  1.2977  2.2194 -0.7082
  212MOL0     H29220  11.601   8.921   0.380 -1.9226 -0.8473 -0.7241
  212MOL0     H29221  11.699   9.072   0.401 -0.5568 -0.3056  0.0836
  212MOL0     H29222  11.830   8.864   0.454  1.7653 -3.4509  0.9813
  212MOL0     H29223  11.789   8.935   0.617 -1.8044 -1.2821  1.6445
  212MOL0     H29224  11.661   8.707   0.454  0.5299 -0.8179 -1.2733
  212MOL0     H29225  11.587   8.764   0.600  0.8969 -2.6742 -1.2384
  212MOL0     H29226  11.798   8.728   0.734  0.9602 -0.8444 -0.3165
  212MOL0     H29227  11.862   8.630   0.607  0.3213 -0.7482  0.3853
  212MOL0     H29228  11.769   8.510   0.783 -1.3009  0.2630  1.4636
  212MOL0     H29229  11.620   8.593   0.778 -0.5078  3.9939 -2.9645
  212MOL0     H29230  11.560   8.471   0.553 -0.9640  0.2886  1.5758
  212MOL0     H29231  11.603   8.363   0.689 -0.5258  1.2014  1.4296
  212MOL0     H29232  11.852   8.406   0.604 -0.2609 -0.6041  1.0868
  212MOL0     H29233  11.780   8.474   0.459  0.3452 -2.2562 -0.3621
  212MOL0     H29234  11.769   8.185   0.572  3.0748 -2.2562 -1.3051
  212MOL0     H29235  11.875   8.229   0.456  1.2615  0.5459  2.5749
  212MOL0     H29236  11.365   9.159   0.689 -0.5266 -0.4256  0.4151
  212MOL0     H29237  11.155   9.261   0.618  1.3249 -0.5023  1.6543
  212MOL0     H29238  11.011   9.530   0.402  1.0056 -1.4533 -0.0422
  212MOL0     H29239  10.850   9.735   0.367  3.6721  0.7657 -1.4549
  212MOL0     H29240  10.682  11.184   0.521 -2.1428 -1.5659  4.2163
  212MOL0     H29241  10.628  11.418   0.514  2.8248 -2.4948  1.0944
  212MOL0     H29242  10.288  11.769   0.412 -0.0186  1.2906  0.9630
  212MOL0     H29243  10.307  12.009   0.422  2.2085  2.8478 -0.3075
  212MOL0     H29244  10.502  12.215   0.079 -2.6485  1.4312 -1.7098
  212MOL0     H29245  10.425  12.346   0.167  0.2386  1.2695 -0.9801
  212MOL0     H29246  10.682  12.219   0.270  0.0822  0.1390  0.1060
  212MOL0     H29247  10.580  12.329   0.363  1.3775 -1.1059  1.2743
  212MOL0     H29248  10.617  12.518   0.210  0.7214  0.8114 -1.3705
  212MOL0     H29249  10.784  12.452   0.248 -0.1140 -0.6374  1.5464
  212MOL0     H29250  10.776  12.505   0.008 -2.7225 -0.6553 -2.2806
  212MOL0     H29251  10.625  12.429  -0.004 -0.4705 -2.6163 -1.0109
  212MOL0     H29252  10.902  12.117  -0.062 -2.2557 -2.2629  2.4169
  212MOL0     H29253  10.547  12.008   0.068  1.6868 -1.1088  1.1877
  212MOL0     H29254  10.522  11.681  -0.017 -1.4151  1.8635 -1.3415
  212MOL0     H29255  10.605  11.829  -0.046 -2.2483  0.7228 -0.2719
  212MOL0     H29256  10.669  11.726   0.081 -0.7748 -1.3668  0.7241
  213MOL0     O29257   9.844   4.080   9.192  0.0487 -0.1123 -0.6858
  213MOL0     C29258   9.811   3.989   9.271  0.3579 -0.0390  0.7320
  213MOL0     O29259   9.785   3.859   9.239 -0.4822 -0.5066 -0.0808
  213MOL0     C29260   9.817   3.807   9.117 -0.5441 -0.2703 -0.4203
  213MOL0     C29261   9.736   3.823   9.008  0.6564  0.1137  0.2516
  213MOL0     C29262   9.782   3.768   8.878  0.5919 -0.0762 -0.3077
  213MOL0     C29263   9.904   3.705   8.867 -0.2403 -0.1158  1.1176
  213MOL0     O29264   9.956   3.654   8.748  0.2988 -0.2574  0.0422
  213MOL0     C29265   9.857   3.608   8.647  0.8452  0.0284 -0.5009
  213MOL0     C29266   9.933   3.573   8.526 -0.5526 -0.0607 -0.1066
  213MOL0     C29267   9.905   3.665   8.408 -0.1020 -0.4077 -0.3219
  213MOL0     C29268   9.964   3.599   8.271 -0.3485  0.2617 -0.4933
  213MOL0     C29269   9.872   3.623   8.157 -1.4497 -0.5986  0.9204
  213MOL0     C29270   9.928   3.561   8.025 -0.3013 -1.0002 -0.0675
  213MOL0     C29271   9.838   3.617   7.907 -0.2188  0.2478 -0.2407
  213MOL0     C29272   9.890   3.573   7.766 -0.1326  1.3395 -0.8052
  213MOL0     N29273   9.826   3.637   7.652 -0.3352  0.2411 -0.1604
  213MOL0     C29274   9.809   3.585   7.523 -0.0380  0.4867 -0.4813
  213MOL0     C29275   9.750   3.682   7.456  0.2685 -0.2671 -0.5288
  213MOL0     C29276   9.709   3.672   7.309  0.4351  0.3178 -0.0179
  213MOL0     C29277   9.843   3.670   7.216  0.4185 -0.3367  0.6392
  213MOL0     C29278   9.922   3.806   7.206  0.6143  0.0184 -0.4578
  213MOL0     C29279  10.054   3.798   7.277 -1.2749  0.4563 -0.0640
  213MOL0     O29280  10.136   3.691   7.219  0.2318  0.7889  0.0790
  213MOL0     C29281  10.276   3.706   7.217  0.7357 -0.6158 -0.4604
  213MOL0     C29282  10.347   3.807   7.293  0.6463  0.3485  0.1401
  213MOL0     C29283  10.491   3.816   7.290  0.8792 -0.4808  0.3844
  213MOL0     C29284  10.552   3.930   7.367  0.3787 -0.5500  0.1396
  213MOL0     C29285  10.562   3.728   7.203 -0.5221  0.0994  0.0743
  213MOL0     C29286  10.712   3.722   7.189  0.6323  0.6800 -0.0330
  213MOL0     O29287  10.770   3.636   7.094  0.4100 -0.4478 -0.1141
  213MOL0     C29288  10.899   3.638   7.060  1.0196  0.0234 -0.1887
  213MOL0     C29289  10.931   3.664   6.930 -0.1729 -1.1418 -0.6894
  213MOL0     C29290  11.066   3.683   6.897  0.2054  0.9334 -0.3284
  213MOL0     C29291  11.178   3.658   6.992  0.2048  0.4012  0.0148
  213MOL0     O29292  11.319   3.658   6.982  0.1149 -0.1207  1.1821
  213MOL0     C29293  11.384   3.701   6.859  0.0778 -0.8134  0.0079
  213MOL0     C29294  11.534   3.661   6.852  0.4066 -0.0420 -0.0957
  213MOL0     C29295  11.615   3.707   6.736 -0.4906  0.0888 -0.3470
  213MOL0     C29296  11.766   3.687   6.760  0.0584 -0.2043 -0.4923
  213MOL0     C29297  11.803   3.542   6.790  0.2789  0.4269  0.1046
  213MOL0     C29298  11.954   3.540   6.823 -0.3257  0.6992 -0.3650
  213MOL0     C29299  12.006   3.393   6.830  0.1871 -0.5844 -0.2768
  213MOL0     C29300  12.015   3.326   6.699  0.9506 -0.0856  0.0586
  213MOL0    Cl29301  12.095   3.181   6.729  0.1921  0.1474 -0.2897
  213MOL0     C29302  11.134   3.620   7.119 -0.6912  0.3463  1.3792
  213MOL0     C29303  11.000   3.610   7.154 -0.3960 -0.4684 -0.6845
  213MOL0     O29304  10.778   3.790   7.267  0.2411 -0.2065  0.5742
  213MOL0     C29305  10.492   3.630   7.133 -0.3541 -0.4649 -0.3195
  213MOL0     C29306  10.352   3.624   7.132  0.0870 -0.2906 -1.3991
  213MOL0     N29307   9.747   3.793   7.542  0.4828  0.4995 -1.2114
  213MOL0     N29308   9.782   3.763   7.659 -0.4168  0.0892  0.0653
  213MOL0     C29309   9.981   3.708   8.977  0.0361 -0.6795 -0.4128
  213MOL0     C29310   9.947   3.761   9.105  0.4558 -0.5104 -0.6497
  213MOL0     C29311   9.788   4.026   9.408 -0.1430  0.0490 -0.8875
  213MOL0     C29312   9.901   4.009   9.496  0.0609 -0.1871  0.6324
  213MOL0     C29313   9.903   4.061   9.626 -0.9641 -0.7657 -0.3405
  213MOL0     C29314   9.793   4.134   9.664 -0.0666  0.4813 -0.6273
  213MOL0     O29315   9.799   4.169   9.796  0.1176 -0.1168 -0.2077
  213MOL0     C29316   9.684   4.224   9.859  0.3664  0.7355 -0.6171
  213MOL0     C29317   9.682   4.162   9.999 -0.3926  0.4151  0.2796
  213MOL0     C29318   9.560   4.211  10.081 -0.7708 -0.6320  0.3384
  213MOL0     C29319   9.559   4.166  10.232 -0.3298 -0.3286 -0.1956
  213MOL0     C29320   9.675   4.206  10.314  0.4990 -0.5820 -1.1335
  213MOL0     C29321   9.773   4.247  10.370 -0.2255  1.1569 -0.2653
  213MOL0     C29322   9.683   4.164   9.581 -0.2246  0.1192 -0.5039
  213MOL0     C29323   9.692   4.113   9.451  0.3937 -0.3152  0.5672
  213MOL0     C29324   9.615   4.186   9.343 -0.1309  0.1614 -0.7741
  213MOL0     H29325   9.650   3.888   9.020  0.7857  0.2729  0.3043
  213MOL0     H29326   9.721   3.786   8.790  0.9433  1.7965 -0.2096
  213MOL0     H29327   9.777   3.678   8.621  0.0482  0.9141  3.5604
  213MOL0     H29328   9.798   3.523   8.683  0.1158  0.0329 -1.6449
  213MOL0     H29329  10.041   3.576   8.547 -0.4022  0.9964 -0.9112
  213MOL0     H29330   9.910   3.468   8.509  1.3844 -0.4402 -0.7086
  213MOL0     H29331   9.796   3.666   8.404 -0.1143 -0.4878  0.0344
  213MOL0     H29332   9.942   3.768   8.417  1.6907 -1.0284 -0.2249
  213MOL0     H29333  10.069   3.620   8.251  0.2022 -2.5656 -0.9636
  213MOL0     H29334   9.956   3.491   8.280 -0.2570  0.3592  1.1377
  213MOL0     H29335   9.864   3.732   8.145 -3.1126 -0.8626 -1.1243
  213MOL0     H29336   9.771   3.582   8.170 -2.1304  0.4080 -0.7079
  213MOL0     H29337  10.028   3.601   8.009 -0.4154  0.6904  2.6781
  213MOL0     H29338   9.923   3.454   8.044  0.5274 -1.0164  0.0737
  213MOL0     H29339   9.869   3.721   7.893  0.1555  0.3261  1.0334
  213MOL0     H29340   9.731   3.598   7.915 -0.1351  0.0120  0.3807
  213MOL0     H29341   9.996   3.600   7.764 -0.7407  3.9780 -1.9132
  213MOL0     H29342   9.882   3.464   7.760  1.7899  1.0260  1.1116
  213MOL0     H29343   9.838   3.490   7.480 -1.9098  0.4313 -1.7345
  213MOL0     H29344   9.647   3.757   7.277  1.0366  0.1958 -1.6302
  213MOL0     H29345   9.646   3.582   7.305  2.1231 -0.8791 -0.4808
  213MOL0     H29346   9.892   3.581   7.255 -0.5001 -1.4721 -0.7205
  213MOL0     H29347   9.810   3.656   7.113  3.2204  3.3246 -0.9814
  213MOL0     H29348   9.944   3.824   7.100  0.2594  1.6208 -0.2733
  213MOL0     H29349   9.858   3.879   7.256 -0.6850  1.7236 -4.2447
  213MOL0     H29350  10.111   3.892   7.271 -0.4982 -0.1065 -2.1700
  213MOL0     H29351  10.052   3.783   7.386  1.3600  1.7850  0.2577
  213MOL0     H29352  10.295   3.869   7.365 -1.1890  2.6841 -2.9599
  213MOL0     H29353  10.619   3.989   7.304  2.2263 -1.5071  1.1060
  213MOL0     H29354  10.619   3.889   7.443  1.4450  0.7714 -0.0490
  213MOL0     H29355  10.474   3.999   7.398 -0.3886 -2.5067  2.9050
  213MOL0     H29356  10.861   3.695   6.853 -0.5469 -2.5827 -0.9702
  213MOL0     H29357  11.088   3.725   6.800 -0.6004  2.0227 -0.0569
  213MOL0     H29358  11.350   3.670   6.760 -0.3606  2.9541 -1.1935
  213MOL0     H29359  11.392   3.810   6.864  1.1219 -0.8581 -0.4961
  213MOL0     H29360  11.594   3.690   6.939 -3.5230  0.3496  2.7386
  213MOL0     H29361  11.525   3.552   6.859 -1.9258 -0.0126 -1.5444
  213MOL0     H29362  11.585   3.808   6.707  0.3923  0.3523 -0.3861
  213MOL0     H29363  11.599   3.643   6.648  1.8871 -0.9761 -0.0966
  213MOL0     H29364  11.794   3.742   6.850 -1.0061 -0.6225  0.1054
  213MOL0     H29365  11.829   3.728   6.680  2.6253 -1.0506  0.9790
  213MOL0     H29366  11.741   3.506   6.873 -0.9085 -0.6210 -1.1928
  213MOL0     H29367  11.781   3.476   6.706 -0.1944  0.8983 -0.1446
  213MOL0     H29368  11.964   3.576   6.925  0.2334 -0.3232 -0.0355
  213MOL0     H29369  12.017   3.603   6.759  0.0915  0.9635  0.3031
  213MOL0     H29370  11.932   3.346   6.895 -2.3837  1.0251 -1.8530
  213MOL0     H29371  12.101   3.396   6.884 -0.7682  1.1660  1.4686
  213MOL0     H29372  12.084   3.378   6.633  1.4229 -0.6762  0.0857
  213MOL0     H29373  11.917   3.321   6.650 -0.1627 -2.0355  2.2864
  213MOL0     H29374  11.206   3.592   7.194  0.7403 -0.4310 -0.2224
  213MOL0     H29375  11.001   3.591   7.261  2.9033 -1.4423 -0.7776
  213MOL0     H29376  10.547   3.559   7.071 -1.1802  1.2767 -3.2284
  213MOL0     H29377  10.297   3.542   7.086 -0.7490 -0.2605 -0.4865
  213MOL0     H29378  10.081   3.668   8.966  0.9255  0.9815  1.1519
  213MOL0     H29379  10.027   3.757   9.178  2.0325  1.4632 -2.1396
  213MOL0     H29380   9.987   3.952   9.462  2.9625  1.7249  4.0220
  213MOL0     H29381   9.976   4.032   9.702 -1.2646 -0.0475  0.2292
  213MOL0     H29382   9.687   4.333   9.855 -1.7316  1.0306  2.3301
  213MOL0     H29383   9.590   4.187   9.819 -0.1231 -2.0603  2.6445
  213MOL0     H29384   9.772   4.181  10.058  0.5126 -2.0564 -0.2096
  213MOL0     H29385   9.667   4.054  10.004 -2.4281  0.6045 -0.6547
  213MOL0     H29386   9.567   4.320  10.079 -0.3499 -0.6648 -0.3453
  213MOL0     H29387   9.469   4.175  10.031 -0.2068 -1.9332  0.2049
  213MOL0     H29388   9.550   4.057  10.225 -0.5417 -0.2166 -3.1215
  213MOL0     H29389   9.470   4.189  10.291  0.1970 -0.9199  0.8579
  213MOL0     H29390   9.871   4.273  10.403  1.8179 -2.6256 -2.6299
  213MOL0     H29391   9.613   4.245   9.599 -1.0846 -0.8870  0.8668
  213MOL0     H29392   9.675   4.265   9.296  1.3461 -0.2434  0.3676
  213MOL0     H29393   9.581   4.119   9.263 -1.2668  0.9329 -0.9652
  213MOL0     H29394   9.530   4.231   9.396 -1.0128 -0.0640 -1.9423
  214MOL0     O29395   7.569   9.007   7.257 -0.6603  0.8419 -0.7275
  214MOL0     C29396   7.560   8.956   7.145 -0.7668  1.1006  0.5653
  214MOL0     O29397   7.527   8.826   7.131 -0.4622 -0.9376  0.1450
  214MOL0     C29398   7.516   8.740   7.231  0.8084  0.0458 -0.6137
  214MOL0     C29399   7.616   8.670   7.295 -0.1578 -0.4558  0.1564
  214MOL0     C29400   7.605   8.589   7.400  0.0697  0.7005 -0.1515
  214MOL0     C29401   7.479   8.561   7.459  0.9294 -0.0800 -0.3931
  214MOL0     O29402   7.471   8.468   7.566 -0.2491  0.6587  0.6023
  214MOL0     C29403   7.346   8.438   7.623  0.9233 -0.4474  0.1312
  214MOL0     C29404   7.359   8.336   7.732 -0.4566 -0.1378 -0.8526
  214MOL0     C29405   7.229   8.280   7.792 -0.6209  0.3095  0.3625
  214MOL0     C29406   7.259   8.159   7.890 -0.2512 -0.4711  0.4260
  214MOL0     C29407   7.139   8.078   7.917  0.3892  0.2369  0.2562
  214MOL0     C29408   7.150   8.010   8.056  0.1265 -0.2980  0.0542
  214MOL0     C29409   7.029   7.919   8.095 -0.4124  0.2027 -0.4049
  214MOL0     C29410   6.885   7.983   8.067 -0.6118 -0.3812 -0.6145
  214MOL0     N29411   6.775   7.892   8.113 -0.6371 -0.2338  0.7032
  214MOL0     C29412   6.643   7.905   8.091  0.3016 -0.5728 -0.2987
  214MOL0     C29413   6.582   7.804   8.160 -0.4356  0.6782 -0.0314
  214MOL0     C29414   6.433   7.794   8.198  0.0376 -0.2841 -0.1077
  214MOL0     C29415   6.374   7.650   8.179  0.5624 -0.0690 -0.1324
  214MOL0     C29416   6.394   7.581   8.041 -0.1048 -0.3403 -0.5180
  214MOL0     C29417   6.490   7.463   8.069  0.6827 -0.0046  0.9162
  214MOL0     O29418   6.433   7.344   8.125  0.0659 -0.5638 -1.3667
  214MOL0     C29419   6.335   7.274   8.049  0.9694 -1.0132 -0.1635
  214MOL0     C29420   6.297   7.305   7.913  0.2102  0.0980  0.3504
  214MOL0     C29421   6.194   7.236   7.848  0.6213 -0.2745 -0.5027
  214MOL0     C29422   6.155   7.272   7.710 -0.7299  0.7380  0.6724
  214MOL0     C29423   6.141   7.116   7.906  0.4757 -0.0774  0.6695
  214MOL0     C29424   6.044   7.022   7.830 -1.4465  0.3937  0.5492
  214MOL0     O29425   5.965   7.074   7.724 -0.3154  0.4076  0.0662
  214MOL0     C29426   5.911   6.996   7.628 -0.5121  0.0862  0.8180
  214MOL0     C29427   5.785   7.030   7.580  0.1288  0.6463  0.5050
  214MOL0     C29428   5.732   6.953   7.477 -0.1230  0.2398 -0.2991
  214MOL0     C29429   5.796   6.833   7.441 -0.7044  0.5334  0.2627
  214MOL0     O29430   5.756   6.734   7.358 -0.4871  0.3578 -0.0687
  214MOL0     C29431   5.720   6.781   7.232  0.2722  0.4006  0.2769
  214MOL0     C29432   5.740   6.669   7.138 -0.1350  0.1789  0.8401
  214MOL0     C29433   5.878   6.604   7.118 -0.2939  0.5600  0.6508
  214MOL0     C29434   5.870   6.515   6.991 -0.1537 -1.1780 -0.2120
  214MOL0     C29435   5.993   6.428   6.966  0.4375 -0.2023 -0.7627
  214MOL0     C29436   6.103   6.511   6.901 -0.4861 -0.3127  1.1815
  214MOL0     C29437   6.232   6.425   6.908  0.2882  0.0412 -0.0380
  214MOL0     C29438   6.356   6.517   6.893  0.5143 -0.5901  0.5416
  214MOL0    Cl29439   6.384   6.619   7.034 -0.1367  0.4203 -0.4136
  214MOL0     C29440   5.915   6.798   7.496  0.3546  0.9039 -0.8482
  214MOL0     C29441   5.980   6.881   7.584 -0.0091 -0.1650  0.5140
  214MOL0     O29442   6.038   6.904   7.867  0.4567  0.3077 -0.2477
  214MOL0     C29443   6.194   7.078   8.024  0.2777  0.8953  1.0917
  214MOL0     C29444   6.282   7.157   8.104  0.3716  0.2743 -0.4095
  214MOL0     N29445   6.678   7.727   8.208  0.1785  0.8579 -0.3261
  214MOL0     N29446   6.795   7.779   8.179  0.5272  0.4233 -0.1846
  214MOL0     C29447   7.367   8.630   7.401  0.4193  0.0312 -0.8732
  214MOL0     C29448   7.386   8.706   7.282  0.3258  0.2450 -0.8717
  214MOL0     C29449   7.550   9.026   7.019  0.1096 -0.5243 -0.3800
  214MOL0     C29450   7.558   8.949   6.903  0.0764  0.1475  0.2219
  214MOL0     C29451   7.543   9.012   6.781  0.6238  0.3696 -0.6655
  214MOL0     C29452   7.520   9.150   6.762 -0.1838  0.8769 -0.7913
  214MOL0     O29453   7.493   9.195   6.634  0.3197 -0.4574 -0.1668
  214MOL0     C29454   7.493   9.336   6.605  0.1309 -0.0867  0.7453
  214MOL0     C29455   7.468   9.353   6.454 -0.9553  0.1085  1.3492
  214MOL0     C29456   7.324   9.320   6.419 -0.2540 -0.3653  0.3744
  214MOL0     C29457   7.218   9.419   6.447 -1.1735 -0.2358 -0.3390
  214MOL0     C29458   7.270   9.550   6.401 -0.4136  0.6793 -0.1455
  214MOL0     C29459   7.320   9.659   6.374  0.0612 -0.9207 -0.7950
  214MOL0     C29460   7.527   9.230   6.879  0.1190 -0.3612 -0.1529
  214MOL0     C29461   7.543   9.171   7.009 -0.7762  0.2445  0.4821
  214MOL0     C29462   7.530   9.259   7.122  0.2790  0.0011 -0.0188
  214MOL0     H29463   7.716   8.699   7.263 -2.4720  4.6221 -4.1415
  214MOL0     H29464   7.694   8.532   7.425 -0.5122  0.4235  1.3889
  214MOL0     H29465   7.280   8.404   7.542  1.3808 -0.4132 -0.2632
  214MOL0     H29466   7.293   8.523   7.666  1.0380 -0.8953  1.1940
  214MOL0     H29467   7.415   8.252   7.690  1.1417  1.3678 -1.8708
  214MOL0     H29468   7.421   8.387   7.807  0.1690  0.6691 -1.8948
  214MOL0     H29469   7.179   8.362   7.845 -4.1363 -0.4144 -1.5650
  214MOL0     H29470   7.174   8.246   7.705 -1.2292  0.3524  0.7271
  214MOL0     H29471   7.344   8.098   7.859  1.1005  1.4536  0.2191
  214MOL0     H29472   7.285   8.212   7.982 -1.1959  1.1840 -0.2189
  214MOL0     H29473   7.120   8.000   7.844  2.6960  0.1994 -0.3790
  214MOL0     H29474   7.051   8.144   7.917 -0.4719 -0.8731 -0.5399
  214MOL0     H29475   7.247   7.963   8.075  1.4481  1.4388 -1.8904
  214MOL0     H29476   7.158   8.079   8.141  0.1360  0.5151 -0.5959
  214MOL0     H29477   7.044   7.896   8.201  2.1524  1.2377 -0.4642
  214MOL0     H29478   7.037   7.828   8.035  0.3233 -0.0053 -0.0058
  214MOL0     H29479   6.889   8.076   8.125 -0.3018 -0.8052  0.0568
  214MOL0     H29480   6.864   8.008   7.962 -5.2841 -2.2995 -0.3841
  214MOL0     H29481   6.595   7.984   8.035  1.6480  0.2991 -0.2496
  214MOL0     H29482   6.375   7.863   8.135  0.4283  1.1387  1.0418
  214MOL0     H29483   6.418   7.826   8.301 -1.0434  3.5848 -1.2985
  214MOL0     H29484   6.406   7.592   8.265  2.4322  2.9293  1.3577
  214MOL0     H29485   6.265   7.660   8.188  0.4872 -1.5828  0.8622
  214MOL0     H29486   6.299   7.551   7.997  1.6339  0.0332 -4.9735
  214MOL0     H29487   6.433   7.661   7.978 -1.2313  0.7958  0.1723
  214MOL0     H29488   6.533   7.430   7.974 -1.0873  1.1714 -0.3452
  214MOL0     H29489   6.582   7.487   8.124  3.4688  0.0993 -3.3016
  214MOL0     H29490   6.348   7.384   7.858  0.5286  0.6519  1.4085
  214MOL0     H29491   6.050   7.298   7.697 -1.0947 -1.2950 -0.8183
  214MOL0     H29492   6.177   7.191   7.640  1.4728  4.0186 -2.8561
  214MOL0     H29493   6.214   7.355   7.671 -0.6606  0.5622  0.4021
  214MOL0     H29494   5.731   7.114   7.623  0.9274  1.8449 -0.7457
  214MOL0     H29495   5.632   6.960   7.435  0.3509 -1.3995 -1.8347
  214MOL0     H29496   5.620   6.825   7.227 -0.0402 -0.3314 -0.1563
  214MOL0     H29497   5.789   6.859   7.197  1.9654 -1.4026 -0.6052
  214MOL0     H29498   5.672   6.585   7.157 -0.8853  0.5240 -0.2107
  214MOL0     H29499   5.705   6.715   7.044 -0.0980  0.6193  1.0394
  214MOL0     H29500   5.893   6.542   7.206 -2.2993  0.5510  1.0252
  214MOL0     H29501   5.953   6.684   7.110 -2.4730  2.6399 -0.0734
  214MOL0     H29502   5.844   6.568   6.899 -0.1311 -2.9773 -1.3188
  214MOL0     H29503   5.787   6.444   6.997 -0.1188 -1.2319 -0.3633
  214MOL0     H29504   6.021   6.379   7.060  2.0381 -0.9590 -1.5972
  214MOL0     H29505   5.967   6.352   6.892 -1.2544  1.4384 -1.9431
  214MOL0     H29506   6.135   6.599   6.957  4.0855  0.3270 -1.9042
  214MOL0     H29507   6.077   6.532   6.796 -1.3933 -3.7469  0.6026
  214MOL0     H29508   6.230   6.367   6.815  1.1214  1.5444 -1.0396
  214MOL0     H29509   6.238   6.356   6.992  3.0801 -0.0411 -0.2071
  214MOL0     H29510   6.352   6.575   6.801 -1.0538  0.5894  1.3065
  214MOL0     H29511   6.439   6.447   6.877  2.1794  1.3842  0.2363
  214MOL0     H29512   5.944   6.696   7.476  2.1664  0.8124  1.7741
  214MOL0     H29513   6.072   6.837   7.622 -0.4709 -0.0803  1.7928
  214MOL0     H29514   6.157   6.986   8.066  2.2853 -0.0934  0.8247
  214MOL0     H29515   6.315   7.132   8.205 -2.5078  1.0093  0.8094
  214MOL0     H29516   7.274   8.611   7.454 -0.2311  2.5274 -1.0155
  214MOL0     H29517   7.297   8.756   7.246 -0.7498  0.4301  1.8450
  214MOL0     H29518   7.569   8.841   6.906  1.2240  0.2809  2.1556
  214MOL0     H29519   7.534   8.944   6.697 -0.5230 -0.9035  0.4395
  214MOL0     H29520   7.419   9.391   6.665  0.6055 -0.2884  1.5340
  214MOL0     H29521   7.593   9.374   6.629  0.4325 -1.6927  2.2496
  214MOL0     H29522   7.524   9.281   6.393  1.0859  0.9303  2.1698
  214MOL0     H29523   7.498   9.452   6.418 -0.3642 -0.3624  0.5286
  214MOL0     H29524   7.315   9.307   6.311  1.2533 -0.4365  0.2306
  214MOL0     H29525   7.293   9.223   6.458  1.1871 -2.0497 -2.3179
  214MOL0     H29526   7.186   9.427   6.552  3.3579 -1.7052  1.3704
  214MOL0     H29527   7.127   9.395   6.391 -0.4243 -0.8413 -1.3071
  214MOL0     H29528   7.352   9.761   6.378 -3.4616  0.2835  2.7476
  214MOL0     H29529   7.519   9.338   6.867  2.5671 -0.2481 -1.3643
  214MOL0     H29530   7.423   9.252   7.146  0.4382 -0.2204  0.6488
  214MOL0     H29531   7.587   9.227   7.210  1.9014 -2.1744 -1.7554
  214MOL0     H29532   7.543   9.364   7.094  2.9712 -0.7489 -1.9734
  215MOL0     O29533   9.959   1.423   6.673 -0.8998  0.1440  1.0506
  215MOL0     C29534   9.972   1.543   6.683 -0.6948  0.3408  0.3161
  215MOL0     O29535  10.022   1.636   6.585 -0.0445  0.4762  0.6856
  215MOL0     C29536  10.055   1.595   6.451 -0.5360 -0.2785  0.0780
  215MOL0     C29537  10.107   1.701   6.368 -0.7188 -0.0798 -1.0483
  215MOL0     C29538  10.140   1.683   6.234 -0.6115  0.0057  0.6703
  215MOL0     C29539  10.111   1.559   6.176 -0.4271  0.9001 -0.1446
  215MOL0     O29540  10.148   1.555   6.050  0.5955 -0.5816 -0.0471
  215MOL0     C29541  10.148   1.439   5.968 -0.2628  0.4271 -0.3512
  215MOL0     C29542  10.002   1.411   5.911 -0.2489  0.2339  0.7422
  215MOL0     C29543  10.001   1.333   5.776 -0.0362  0.8657  0.3370
  215MOL0     C29544  10.040   1.424   5.659 -0.3574 -1.0386  1.0376
  215MOL0     C29545   9.937   1.433   5.546  0.2323  0.4276 -0.2416
  215MOL0     C29546   9.991   1.511   5.429  0.9467 -0.1789  0.8515
  215MOL0     C29547   9.915   1.489   5.299  1.0736 -0.0197 -0.1637
  215MOL0     C29548   9.950   1.607   5.201  0.0186  0.2949 -0.6945
  215MOL0     N29549   9.902   1.588   5.065  0.1804 -0.3244  0.4629
  215MOL0     C29550   9.858   1.684   4.977  0.4780 -0.3950  0.0689
  215MOL0     C29551   9.833   1.615   4.864  0.4005 -0.8217 -0.3400
  215MOL0     C29552   9.783   1.657   4.724 -0.4648  0.4138 -0.1284
  215MOL0     C29553   9.866   1.759   4.644  0.6179  1.2485  0.3468
  215MOL0     C29554   9.986   1.685   4.584  1.2476 -0.1757 -0.4421
  215MOL0     C29555  10.086   1.785   4.513 -0.2722  0.0518 -0.1067
  215MOL0     O29556  10.034   1.816   4.386  0.0752 -0.3934 -0.1976
  215MOL0     C29557  10.114   1.866   4.292 -0.2031 -0.0602  1.1029
  215MOL0     C29558  10.255   1.843   4.279 -0.2352  1.4639 -1.1587
  215MOL0     C29559  10.331   1.884   4.176 -0.3071  0.1842  0.3368
  215MOL0     C29560  10.477   1.844   4.187  0.1896 -0.1754  0.0158
  215MOL0     C29561  10.275   1.955   4.071  0.4481 -0.7962  0.3620
  215MOL0     C29562  10.365   2.014   3.958  0.6426 -0.2661 -0.9860
  215MOL0     O29563  10.297   2.058   3.850 -0.8108 -0.0182 -0.3838
  215MOL0     C29564  10.342   2.160   3.765 -0.7922  1.2089  1.1594
  215MOL0     C29565  10.414   2.276   3.808 -0.5932  0.5521 -0.3798
  215MOL0     C29566  10.451   2.379   3.716  0.2300 -0.0375  0.3321
  215MOL0     C29567  10.415   2.374   3.580  0.1650  0.9908  0.0467
  215MOL0     O29568  10.447   2.478   3.487 -0.4147  0.0855  0.2514
  215MOL0     C29569  10.435   2.467   3.343 -0.4990  0.0130  0.5043
  215MOL0     C29570  10.561   2.393   3.286  0.4392 -0.3321 -0.7934
  215MOL0     C29571  10.694   2.473   3.283  0.7148 -0.5311  0.0297
  215MOL0     C29572  10.803   2.406   3.192  0.4619  0.9866 -0.2140
  215MOL0     C29573  10.909   2.513   3.166 -0.0950 -0.1363 -0.2883
  215MOL0     C29574  11.023   2.464   3.100 -1.1465 -0.2122  0.2455
  215MOL0     C29575  11.127   2.576   3.071 -0.4133  0.1473  0.0171
  215MOL0     C29576  11.258   2.529   3.000 -0.4587  0.1222 -0.7262
  215MOL0    Cl29577  11.221   2.451   2.845  0.1040  0.7746 -0.3750
  215MOL0     C29578  10.338   2.259   3.539  0.3696 -0.7954 -0.0112
  215MOL0     C29579  10.312   2.151   3.624 -0.9866 -0.1918  0.5075
  215MOL0     O29580  10.480   2.047   3.990  0.4255  0.3534  0.2038
  215MOL0     C29581  10.141   1.989   4.085  0.4505  1.0218  1.1110
  215MOL0     C29582  10.063   1.938   4.189 -0.6055  0.2277  0.2942
  215MOL0     N29583   9.857   1.480   4.894 -0.1909  0.2442  0.5026
  215MOL0     N29584   9.903   1.470   5.008  0.2023  0.3193  0.0282
  215MOL0     C29585  10.037   1.456   6.251 -0.5607 -0.6234  0.5179
  215MOL0     C29586  10.018   1.481   6.392 -0.5360  0.4630  0.6930
  215MOL0     C29587   9.923   1.597   6.811  0.0925 -0.4070 -0.1079
  215MOL0     C29588   9.987   1.555   6.928 -0.0692 -0.0446  0.0533
  215MOL0     C29589   9.955   1.620   7.046 -0.0784 -0.1662  0.0594
  215MOL0     C29590   9.855   1.714   7.053  1.0266 -0.2217  0.6487
  215MOL0     O29591   9.803   1.755   7.176  0.2689  0.4386 -0.0310
  215MOL0     C29592   9.877   1.751   7.295 -0.4283 -0.4090 -0.3835
  215MOL0     C29593   9.814   1.856   7.396  0.4559 -0.2382  0.6831
  215MOL0     C29594   9.914   1.917   7.501 -0.6897 -0.5279 -0.4044
  215MOL0     C29595   9.848   2.011   7.613 -0.5109  0.8560 -0.0949
  215MOL0     C29596   9.763   2.118   7.557 -0.3205  0.3129 -0.3165
  215MOL0     C29597   9.683   2.199   7.519 -0.6553 -1.0759 -0.5289
  215MOL0     C29598   9.784   1.753   6.935 -1.0236  0.4383 -0.0148
  215MOL0     C29599   9.822   1.691   6.820  0.0990  0.2966 -0.3261
  215MOL0     C29600   9.748   1.737   6.691  0.1443 -0.0325 -0.0809
  215MOL0     H29601  10.143   1.788   6.422 -0.0671 -1.7030  1.2816
  215MOL0     H29602  10.175   1.773   6.184 -3.1382  1.3452  1.1081
  215MOL0     H29603  10.175   1.360   6.038 -0.5455  2.8953  2.7337
  215MOL0     H29604  10.210   1.446   5.878  0.9406  2.2735  0.5586
  215MOL0     H29605   9.951   1.345   5.982 -2.0297  0.7225 -0.0284
  215MOL0     H29606   9.943   1.504   5.906 -2.3991 -0.8324  3.6051
  215MOL0     H29607  10.066   1.245   5.776 -3.1379 -1.6423 -1.5754
  215MOL0     H29608   9.897   1.304   5.757 -0.3436  1.4492  1.0642
  215MOL0     H29609  10.043   1.528   5.692 -0.9657 -1.2732  1.8587
  215MOL0     H29610  10.138   1.393   5.621  1.3690  0.6481  3.8049
  215MOL0     H29611   9.843   1.475   5.583  1.6155  0.7153  3.3369
  215MOL0     H29612   9.912   1.331   5.514 -0.9912  0.6679 -0.0873
  215MOL0     H29613   9.983   1.618   5.453  0.2527  0.9660 -3.6456
  215MOL0     H29614  10.099   1.490   5.424  1.4301  2.0836  0.5685
  215MOL0     H29615   9.808   1.492   5.322  1.0084  0.4101 -0.5194
  215MOL0     H29616   9.943   1.394   5.252  0.8433 -0.2777  0.2176
  215MOL0     H29617   9.901   1.701   5.231  0.3699  0.4299 -0.5342
  215MOL0     H29618  10.058   1.621   5.201 -0.1318  1.6182 -1.2480
  215MOL0     H29619   9.846   1.792   4.987  0.9459 -0.2194 -1.0908
  215MOL0     H29620   9.675   1.672   4.732 -0.9862 -3.2604  2.8238
  215MOL0     H29621   9.790   1.568   4.660  0.2185  0.4780 -0.1531
  215MOL0     H29622   9.819   1.813   4.561  0.7189 -0.1603 -0.6432
  215MOL0     H29623   9.898   1.847   4.701 -4.2329  4.4485 -1.1561
  215MOL0     H29624  10.034   1.632   4.666  0.9024  0.3905  0.1432
  215MOL0     H29625   9.954   1.613   4.509 -2.9246  1.8003 -0.8700
  215MOL0     H29626  10.094   1.871   4.580 -2.6304 -1.2450  1.9610
  215MOL0     H29627  10.183   1.737   4.499 -0.7392 -0.8636 -0.2546
  215MOL0     H29628  10.314   1.804   4.361 -2.5164  1.6975  0.7081
  215MOL0     H29629  10.531   1.931   4.223  0.2946 -1.0188  2.0178
  215MOL0     H29630  10.530   1.818   4.094  3.6249 -2.1143  2.3001
  215MOL0     H29631  10.496   1.768   4.263 -0.6764  2.4750  3.0620
  215MOL0     H29632  10.427   2.290   3.915 -0.1334  0.7630 -0.4608
  215MOL0     H29633  10.505   2.465   3.754  2.9142 -2.7658  3.3527
  215MOL0     H29634  10.347   2.410   3.314 -0.5214 -0.2046  0.9928
  215MOL0     H29635  10.434   2.571   3.308  1.6343 -0.6098 -1.6767
  215MOL0     H29636  10.580   2.304   3.347 -1.2790  0.9895  1.8722
  215MOL0     H29637  10.547   2.370   3.180 -0.8851  1.0412 -0.9485
  215MOL0     H29638  10.739   2.475   3.382  1.4113  2.9936 -0.2099
  215MOL0     H29639  10.677   2.581   3.267  1.3879 -0.2532  1.1173
  215MOL0     H29640  10.762   2.374   3.096  0.7898  1.5736 -0.5550
  215MOL0     H29641  10.842   2.318   3.244  1.1707 -0.7580 -3.4644
  215MOL0     H29642  10.866   2.590   3.101  0.4612  0.2545 -0.2038
  215MOL0     H29643  10.934   2.550   3.266  0.7888  0.1704 -0.6121
  215MOL0     H29644  10.998   2.424   3.002  1.0148  1.8230 -1.2732
  215MOL0     H29645  11.074   2.380   3.148 -2.8578 -1.6078 -0.2777
  215MOL0     H29646  11.157   2.612   3.170  0.9048  2.3582 -1.1039
  215MOL0     H29647  11.083   2.661   3.018  0.3769 -1.2802 -3.1395
  215MOL0     H29648  11.306   2.446   3.051  0.7305  0.0516 -1.9146
  215MOL0     H29649  11.325   2.615   2.986 -1.8770  1.2087 -1.1463
  215MOL0     H29650  10.300   2.246   3.438 -2.5581 -0.9852  1.0093
  215MOL0     H29651  10.269   2.056   3.594 -1.3195 -1.2427  3.9038
  215MOL0     H29652  10.094   2.052   4.010 -0.5400 -0.6937  0.2114
  215MOL0     H29653   9.960   1.970   4.195 -1.6878 -2.8801  0.0646
  215MOL0     H29654   9.998   1.365   6.207  0.4801 -1.3032  0.9605
  215MOL0     H29655   9.975   1.394   6.440  1.0927  0.6433  2.5811
  215MOL0     H29656  10.069   1.484   6.928 -0.2153 -0.2162 -0.1736
  215MOL0     H29657  10.019   1.590   7.128 -0.6499 -3.0621 -0.4344
  215MOL0     H29658   9.868   1.657   7.351 -1.2929  0.2089  0.5469
  215MOL0     H29659   9.983   1.766   7.273  0.3033 -3.9178  0.1768
  215MOL0     H29660   9.722   1.818   7.442 -0.1759  2.1507  1.5639
  215MOL0     H29661   9.788   1.944   7.336 -1.4647  0.9881  3.1266
  215MOL0     H29662   9.966   1.831   7.544 -3.2838 -0.7660  2.6026
  215MOL0     H29663  10.000   1.968   7.456  1.9794 -2.4711  2.1313
  215MOL0     H29664   9.930   2.057   7.669  0.7031  1.3291 -2.1695
  215MOL0     H29665   9.780   1.941   7.661  1.1850 -0.0633  1.0881
  215MOL0     H29666   9.609   2.269   7.487 -1.6923 -3.1502 -3.0029
  215MOL0     H29667   9.716   1.837   6.945 -2.0051 -0.1936 -1.0763
  215MOL0     H29668   9.687   1.657   6.650 -1.0993  1.6410 -1.6305
  215MOL0     H29669   9.683   1.824   6.696  0.3809  0.3338 -2.4307
  215MOL0     H29670   9.823   1.777   6.622 -1.4522  0.1468 -1.7952
  216MOL0     O29671   0.881   6.710   6.848 -0.2230  0.0688  0.4469
  216MOL0     C29672   0.767   6.692   6.817 -0.0450  1.0048  0.4856
  216MOL0     O29673   0.661   6.773   6.840 -0.8579  0.6442 -0.3599
  216MOL0     C29674   0.659   6.885   6.911  0.6218 -1.1892 -0.0841
  216MOL0     C29675   0.572   6.981   6.867  0.5688  0.2756  0.7116
  216MOL0     C29676   0.535   7.088   6.942 -0.6196 -0.2346  0.0308
  216MOL0     C29677   0.605   7.122   7.066 -0.3368  0.1868 -1.1217
  216MOL0     O29678   0.582   7.244   7.125  0.3308 -0.0332 -0.7548
  216MOL0     C29679   0.709   7.302   7.174 -0.3012  0.4701  0.2818
  216MOL0     C29680   0.702   7.445   7.211 -0.3760  0.7738  0.0565
  216MOL0     C29681   0.655   7.542   7.102 -1.1869 -0.1922  0.4714
  216MOL0     C29682   0.712   7.532   6.959  1.3025 -0.5073  0.4229
  216MOL0     C29683   0.681   7.654   6.881  0.0622 -0.0540 -0.5533
  216MOL0     C29684   0.722   7.627   6.736  0.8964 -0.4242  1.0227
  216MOL0     C29685   0.656   7.735   6.641  0.6736 -0.2982 -0.7371
  216MOL0     C29686   0.669   7.698   6.490 -0.9685  0.6041 -0.7971
  216MOL0     N29687   0.627   7.805   6.406 -0.3415  0.4780 -0.0067
  216MOL0     C29688   0.495   7.850   6.407  1.0356 -0.2456 -0.9805
  216MOL0     C29689   0.498   7.985   6.374 -1.0761  0.4040  0.0321
  216MOL0     C29690   0.398   8.093   6.382  0.7358 -1.7200  0.2958
  216MOL0     C29691   0.407   8.211   6.282 -0.4816  0.2832  0.4551
  216MOL0     C29692   0.332   8.191   6.147  0.7713  0.2615 -0.9590
  216MOL0     C29693   0.341   8.314   6.059 -0.7948 -0.6835 -0.2996
  216MOL0     O29694   0.298   8.438   6.116  0.6694  0.4649  0.0776
  216MOL0     C29695   0.314   8.548   6.031  1.0120  0.6165 -1.0007
  216MOL0     C29696   0.269   8.672   6.082 -1.2777 -0.1505  0.0090
  216MOL0     C29697   0.288   8.793   6.016  0.4052  0.0798  0.4024
  216MOL0     C29698   0.222   8.920   6.071  0.0146 -0.7732  0.1904
  216MOL0     C29699   0.349   8.796   5.890 -0.0041 -0.3466  0.2805
  216MOL0     C29700   0.378   8.915   5.805 -0.1857  0.2478 -0.3296
  216MOL0     O29701   0.409   8.895   5.677 -0.0858  0.1419  0.2899
  216MOL0     C29702   0.465   8.991   5.602  0.3818  0.0716  1.2010
  216MOL0     C29703   0.583   9.064   5.624  0.1922 -0.2571  0.4352
  216MOL0     C29704   0.631   9.152   5.525  1.1156  0.2206  0.4223
  216MOL0     C29705   0.572   9.172   5.401 -0.4256  0.6622 -0.1314
  216MOL0     O29706   0.632   9.251   5.301  0.1334  0.4657 -0.2232
  216MOL0     C29707   0.578   9.234   5.176  0.5701  0.1010 -0.2751
  216MOL0     C29708   0.610   9.101   5.120 -0.4280  0.7241  0.0828
  216MOL0     C29709   0.587   9.123   4.970 -0.0111  0.7411 -1.1661
  216MOL0     C29710   0.588   8.989   4.906  0.3703  0.9288  0.0707
  216MOL0     C29711   0.581   8.989   4.755  0.8390  0.0179  0.3773
  216MOL0     C29712   0.547   8.855   4.697  0.7076  0.2406 -0.0752
  216MOL0     C29713   0.628   8.729   4.747 -0.5111 -0.3237  0.5558
  216MOL0     C29714   0.581   8.605   4.671  0.1010  0.1001 -0.1887
  216MOL0    Cl29715   0.653   8.452   4.759  0.0879 -0.0468 -0.1201
  216MOL0     C29716   0.447   9.107   5.384 -0.0449  0.4412  0.2123
  216MOL0     C29717   0.398   9.019   5.480  0.0428  0.2670 -0.6082
  216MOL0     O29718   0.356   9.030   5.846  0.0105  0.5271 -0.2099
  216MOL0     C29719   0.394   8.668   5.843  0.0619 -0.3429 -0.3471
  216MOL0     C29720   0.384   8.553   5.914 -0.6742  0.2536  0.3464
  216MOL0     N29721   0.638   8.008   6.354  0.1540  0.0653  0.4638
  216MOL0     N29722   0.712   7.907   6.379  0.9557 -0.0143  0.4405
  216MOL0     C29723   0.682   7.019   7.122  0.3604 -1.2243  0.3006
  216MOL0     C29724   0.713   6.904   7.046 -0.2079  0.6919  0.2026
  216MOL0     C29725   0.727   6.573   6.728 -0.4771  0.1291  0.2630
  216MOL0     C29726   0.624   6.589   6.638  0.9365  0.3155  0.9450
  216MOL0     C29727   0.566   6.484   6.563 -0.6727 -0.1960  0.0134
  216MOL0     C29728   0.613   6.354   6.582 -0.5671 -0.6163  0.4566
  216MOL0     O29729   0.586   6.254   6.488 -0.4057  0.2482  0.1189
  216MOL0     C29730   0.459   6.194   6.503  0.8307  0.8447  0.2988
  216MOL0     C29731   0.340   6.261   6.428 -0.0152 -0.0400  0.3822
  216MOL0     C29732   0.344   6.287   6.276 -0.0638 -0.9056  0.3271
  216MOL0     C29733   0.211   6.320   6.218 -0.2728 -0.4339 -0.7757
  216MOL0     C29734   0.161   6.455   6.248  0.9089 -0.7133 -0.2759
  216MOL0     C29735   0.106   6.557   6.261  0.2662 -0.5610 -0.2895
  216MOL0     C29736   0.723   6.339   6.673  0.6299  0.2945 -0.0104
  216MOL0     C29737   0.783   6.448   6.748  0.4866  0.5045  0.1209
  216MOL0     C29738   0.894   6.418   6.845  0.5685  0.2180  0.7855
  216MOL0     H29739   0.529   6.956   6.771  2.2324 -0.1651  0.0398
  216MOL0     H29740   0.468   7.162   6.900 -0.7229 -1.6354 -2.5102
  216MOL0     H29741   0.788   7.297   7.099  0.4744  1.8451  0.9575
  216MOL0     H29742   0.766   7.253   7.253 -0.5534 -0.2854  0.0012
  216MOL0     H29743   0.637   7.454   7.298 -1.0629 -0.6395 -0.2763
  216MOL0     H29744   0.796   7.481   7.255 -0.1068  4.8687 -3.2296
  216MOL0     H29745   0.547   7.537   7.091 -1.4791  5.3388 -2.7321
  216MOL0     H29746   0.682   7.642   7.137 -1.9873  1.1965 -2.5313
  216MOL0     H29747   0.821   7.520   6.965  1.3491 -0.2179  0.1981
  216MOL0     H29748   0.675   7.443   6.907 -2.1008 -0.2186  2.0419
  216MOL0     H29749   0.740   7.742   6.911  2.2077 -0.4563 -3.2234
  216MOL0     H29750   0.574   7.669   6.895 -0.4597 -3.2675 -0.3969
  216MOL0     H29751   0.830   7.636   6.721  1.0504 -2.3329  0.7633
  216MOL0     H29752   0.705   7.523   6.708 -2.0478 -0.4635  2.6150
  216MOL0     H29753   0.692   7.832   6.679 -1.1691 -0.9865  3.3551
  216MOL0     H29754   0.551   7.730   6.671  1.1160 -1.5002  0.7840
  216MOL0     H29755   0.769   7.656   6.474 -1.8888 -0.9941 -2.7127
  216MOL0     H29756   0.608   7.609   6.472  1.1085 -1.0083 -0.2349
  216MOL0     H29757   0.408   7.797   6.445  1.0743  0.0157 -0.5111
  216MOL0     H29758   0.403   8.126   6.486 -0.6383  0.2639 -0.2085
  216MOL0     H29759   0.297   8.054   6.368  0.7629 -1.1420 -1.8308
  216MOL0     H29760   0.353   8.290   6.336 -0.6481  0.1297  0.5143
  216MOL0     H29761   0.511   8.242   6.271 -0.5007  1.0934  2.0890
  216MOL0     H29762   0.377   8.105   6.098 -1.6045 -1.8766  0.3839
  216MOL0     H29763   0.229   8.160   6.170 -0.6035  2.2327 -3.7373
  216MOL0     H29764   0.448   8.323   6.035 -0.5017 -3.1933 -0.2104
  216MOL0     H29765   0.289   8.295   5.965 -0.9670  0.4217 -0.4411
  216MOL0     H29766   0.221   8.672   6.179 -3.3710  0.8213 -0.9552
  216MOL0     H29767   0.157   8.890   6.154 -0.1330 -2.3481 -0.4502
  216MOL0     H29768   0.161   8.963   5.992  0.7567 -0.8597 -0.4505
  216MOL0     H29769   0.292   9.000   6.097  0.0440 -0.9459  0.6585
  216MOL0     H29770   0.635   9.038   5.715  1.7694 -0.5720 -0.5312
  216MOL0     H29771   0.731   9.190   5.545  1.9088 -2.5052  2.1800
  216MOL0     H29772   0.474   9.266   5.168  1.2515  1.9958 -2.8268
  216MOL0     H29773   0.628   9.310   5.116 -0.5974  3.9857  3.1678
  216MOL0     H29774   0.718   9.087   5.134 -0.2432  2.6192  0.9175
  216MOL0     H29775   0.556   9.017   5.165 -0.1990  0.3360 -0.3631
  216MOL0     H29776   0.665   9.185   4.927  0.7150  1.0545  0.5070
  216MOL0     H29777   0.492   9.173   4.948 -1.3080  0.2456  2.5975
  216MOL0     H29778   0.508   8.923   4.943  0.0648  2.0665  1.5575
  216MOL0     H29779   0.681   8.936   4.929 -0.9040 -2.7418 -2.3638
  216MOL0     H29780   0.514   9.070   4.721  1.3693 -0.1613 -1.1913
  216MOL0     H29781   0.676   9.023   4.714 -0.5117 -0.3843 -3.5283
  216MOL0     H29782   0.555   8.867   4.588 -2.0633 -2.7145 -0.7441
  216MOL0     H29783   0.443   8.834   4.723  0.3618  0.1494 -1.4141
  216MOL0     H29784   0.618   8.720   4.855  0.1403 -2.1390  0.5079
  216MOL0     H29785   0.733   8.742   4.721 -1.4661  0.5106 -3.6083
  216MOL0     H29786   0.629   8.615   4.573 -1.6624  2.1338 -0.9288
  216MOL0     H29787   0.476   8.592   4.643  0.0099 -2.5929  1.1061
  216MOL0     H29788   0.390   9.126   5.294  2.4572  1.5986 -1.2422
  216MOL0     H29789   0.301   8.973   5.462 -2.5629  3.7619  2.8139
  216MOL0     H29790   0.434   8.662   5.743  1.3548 -1.7363  0.2052
  216MOL0     H29791   0.429   8.474   5.855 -0.8070  1.5232 -1.5346
  216MOL0     H29792   0.733   7.044   7.214  2.5393  1.2767 -1.4187
  216MOL0     H29793   0.773   6.826   7.091 -2.1071 -2.1056 -1.7882
  216MOL0     H29794   0.581   6.688   6.636 -2.1052 -0.8952 -0.1932
  216MOL0     H29795   0.480   6.509   6.502  0.7626  1.6699 -1.3525
  216MOL0     H29796   0.485   6.090   6.483 -1.9607 -0.3099  1.9831
  216MOL0     H29797   0.431   6.185   6.609 -0.3722 -1.7964 -0.1563
  216MOL0     H29798   0.323   6.355   6.482 -0.9175 -0.5098  0.9374
  216MOL0     H29799   0.259   6.188   6.433 -0.7602  0.7309 -0.1447
  216MOL0     H29800   0.410   6.371   6.253 -1.1997 -0.7241 -2.7352
  216MOL0     H29801   0.373   6.193   6.228 -0.1930 -0.2240 -1.1442
  216MOL0     H29802   0.144   6.235   6.237 -0.2324 -0.5026 -0.9411
  216MOL0     H29803   0.214   6.336   6.110 -0.3822  1.5565 -0.5188
  216MOL0     H29804   0.065   6.655   6.275  0.2440 -0.7996  1.5605
  216MOL0     H29805   0.764   6.238   6.669  0.6263  0.2395  0.9827
  216MOL0     H29806   0.887   6.323   6.899  0.5372 -0.1558  0.1263
  216MOL0     H29807   0.974   6.406   6.771  0.7817 -0.7925  1.1663
  216MOL0     H29808   0.916   6.497   6.918 -2.4586 -0.0245  2.1139
  217MOL0     O29809   5.250   6.624   7.148 -0.7464  0.7286 -0.2508
  217MOL0     C29810   5.289   6.532   7.220 -0.4808  0.2973  0.4021
  217MOL0     O29811   5.288   6.537   7.359  0.0882  0.2506  0.3286
  217MOL0     C29812   5.267   6.655   7.420  0.4469 -1.5902 -0.0064
  217MOL0     C29813   5.183   6.648   7.528  0.2714 -0.2430 -0.5394
  217MOL0     C29814   5.176   6.757   7.623  0.5343  1.2946 -0.4633
  217MOL0     C29815   5.246   6.873   7.600 -0.2523 -0.2913 -0.0476
  217MOL0     O29816   5.229   6.991   7.672  0.8761  0.1655  0.5329
  217MOL0     C29817   5.153   6.983   7.793 -0.8134 -0.2566 -0.3251
  217MOL0     C29818   5.173   7.119   7.862  0.6261 -0.9139  0.3045
  217MOL0     C29819   5.054   7.140   7.975 -0.4630 -0.3971  0.0221
  217MOL0     C29820   5.084   7.249   8.071  0.1607  0.1352 -0.3172
  217MOL0     C29821   4.958   7.306   8.124 -0.4765 -0.0766 -0.0948
  217MOL0     C29822   4.892   7.215   8.235 -0.6349 -0.3367  0.3763
  217MOL0     C29823   4.748   7.255   8.281  0.7454 -0.4286  0.7746
  217MOL0     C29824   4.748   7.403   8.327 -1.1363 -0.0484 -0.6429
  217MOL0     N29825   4.630   7.426   8.413  0.0170 -0.0546  1.0048
  217MOL0     C29826   4.508   7.446   8.361 -0.5779 -0.3697 -0.3272
  217MOL0     C29827   4.422   7.440   8.466 -0.6490  0.7097 -0.3313
  217MOL0     C29828   4.275   7.490   8.450 -0.7265  0.0392 -0.3851
  217MOL0     C29829   4.199   7.420   8.342  0.8247  0.0495 -0.1606
  217MOL0     C29830   4.066   7.501   8.316 -0.4372 -0.2632  0.1358
  217MOL0     C29831   3.970   7.437   8.218 -0.8218 -0.1956  1.1800
  217MOL0     O29832   3.935   7.304   8.257  0.5634 -0.7598  1.1782
  217MOL0     C29833   3.842   7.239   8.174  0.1515 -0.4684  0.1614
  217MOL0     C29834   3.814   7.259   8.042 -0.7636  0.4823  0.9473
  217MOL0     C29835   3.724   7.191   7.959  0.3175  0.5582 -0.8561
  217MOL0     C29836   3.695   7.213   7.811 -0.4315 -0.2234 -0.7676
  217MOL0     C29837   3.657   7.086   8.026 -0.4096  0.8786  0.1827
  217MOL0     C29838   3.567   6.985   7.962  0.0092 -0.0591 -1.1665
  217MOL0     O29839   3.573   6.851   8.015  0.4001 -0.2798 -0.0700
  217MOL0     C29840   3.478   6.757   7.999  0.2516 -0.2674 -0.0220
  217MOL0     C29841   3.521   6.631   7.992  0.4596  0.1484 -0.1572
  217MOL0     C29842   3.423   6.528   7.993  0.3146  0.1774 -0.0814
  217MOL0     C29843   3.283   6.557   7.974 -1.1621  0.5121 -0.6177
  217MOL0     O29844   3.195   6.466   7.946  0.3344  0.1602 -1.2161
  217MOL0     C29845   3.239   6.372   7.854 -0.2435 -0.2071  0.1997
  217MOL0     C29846   3.119   6.295   7.795  0.2123 -0.7566 -0.7313
  217MOL0     C29847   3.066   6.182   7.880 -0.3025  0.2674 -0.0301
  217MOL0     C29848   2.931   6.117   7.841  0.2870  0.4728 -1.2052
  217MOL0     C29849   2.948   6.039   7.715 -0.4454 -0.9369  0.9105
  217MOL0     C29850   2.816   5.988   7.662 -0.0607 -0.1369 -0.7447
  217MOL0     C29851   2.793   5.952   7.516 -0.5521  0.2154 -0.0716
  217MOL0     C29852   2.654   5.883   7.517 -0.9056  0.2776  0.3006
  217MOL0    Cl29853   2.657   5.801   7.359 -0.1274 -0.5430 -0.7512
  217MOL0     C29854   3.253   6.690   7.974 -1.0674  0.6872  0.4424
  217MOL0     C29855   3.344   6.782   7.986  0.3043 -0.4016 -0.0897
  217MOL0     O29856   3.481   7.027   7.889 -0.3483 -0.7723 -0.0032
  217MOL0     C29857   3.677   7.057   8.160  0.7237  0.3957  1.0227
  217MOL0     C29858   3.767   7.133   8.235 -0.2077  0.3568 -0.3478
  217MOL0     N29859   4.482   7.379   8.577  0.4084 -0.2705  0.7944
  217MOL0     N29860   4.609   7.369   8.538 -0.3153  1.1878  0.1587
  217MOL0     C29861   5.337   6.875   7.492 -0.2119  0.0936  0.2291
  217MOL0     C29862   5.339   6.779   7.398 -0.1533  0.4403 -0.5609
  217MOL0     C29863   5.353   6.416   7.151  0.0808  0.4643  0.3501
  217MOL0     C29864   5.357   6.297   7.231 -0.0049  0.5249 -0.0697
  217MOL0     C29865   5.426   6.181   7.174  0.4761  0.2372 -0.5034
  217MOL0     C29866   5.471   6.189   7.042 -0.4651  0.5910  0.5180
  217MOL0     O29867   5.534   6.090   6.981 -0.1725  0.2856 -0.0663
  217MOL0     C29868   5.679   6.091   6.999 -0.2481  0.1411 -0.2592
  217MOL0     C29869   5.768   6.123   6.880 -0.1379  0.5098  0.3416
  217MOL0     C29870   5.720   6.046   6.750  0.0793 -0.1088 -0.7891
  217MOL0     C29871   5.804   6.087   6.630  0.0919  0.2534 -0.3389
  217MOL0     C29872   5.826   6.231   6.625  0.4816  0.3155  0.1380
  217MOL0     C29873   5.847   6.345   6.621 -0.3206  0.2161 -0.2118
  217MOL0     C29874   5.473   6.311   6.970 -0.6074  0.6634  1.4268
  217MOL0     C29875   5.411   6.415   7.021  0.5419 -0.5086 -0.1564
  217MOL0     C29876   5.408   6.539   6.927 -0.3441  0.4016 -1.5806
  217MOL0     H29877   5.120   6.561   7.538  0.0324 -0.1721 -1.3647
  217MOL0     H29878   5.104   6.760   7.704  0.1658 -0.3787 -0.6936
  217MOL0     H29879   5.207   6.910   7.854 -0.8258 -0.9875 -1.1727
  217MOL0     H29880   5.047   6.965   7.773 -0.2246 -0.4495 -4.1076
  217MOL0     H29881   5.274   7.133   7.902 -0.0451  1.3093  1.3445
  217MOL0     H29882   5.159   7.194   7.783  0.1525 -1.5380 -0.2123
  217MOL0     H29883   4.960   7.161   7.922  1.7772  2.0144 -3.3856
  217MOL0     H29884   5.043   7.044   8.026 -0.5047  0.0147  0.7907
  217MOL0     H29885   5.147   7.209   8.152  1.1766 -0.3404 -1.3159
  217MOL0     H29886   5.150   7.326   8.028  1.0711 -0.2177  0.4075
  217MOL0     H29887   4.881   7.296   8.047 -1.8671 -0.3937  1.2852
  217MOL0     H29888   4.959   7.409   8.162 -0.5075 -0.1250  0.0389
  217MOL0     H29889   4.882   7.111   8.202  1.7102 -0.5838  0.2298
  217MOL0     H29890   4.955   7.223   8.325 -0.0661  0.4639 -0.0823
  217MOL0     H29891   4.713   7.190   8.361 -1.4308 -1.2943 -0.7816
  217MOL0     H29892   4.663   7.241   8.213 -1.0037  0.7589  2.5980
  217MOL0     H29893   4.840   7.406   8.387 -1.8045 -1.4081  0.4920
  217MOL0     H29894   4.753   7.467   8.239 -4.8571 -0.9680 -1.6737
  217MOL0     H29895   4.485   7.479   8.260  2.8456  1.6230 -0.6062
  217MOL0     H29896   4.272   7.594   8.414 -2.1804 -0.4728 -1.8405
  217MOL0     H29897   4.233   7.477   8.550 -1.0347  1.6579 -0.2665
  217MOL0     H29898   4.256   7.416   8.249  2.2828 -2.9415  0.7185
  217MOL0     H29899   4.175   7.316   8.366 -2.3330  0.6331 -0.3915
  217MOL0     H29900   4.021   7.518   8.414  2.9437  2.2472  1.4683
  217MOL0     H29901   4.089   7.603   8.284 -1.2675  0.0109  0.3778
  217MOL0     H29902   3.882   7.502   8.225  1.1511  2.6362  1.4739
  217MOL0     H29903   3.997   7.442   8.112 -3.1580  1.3197  0.5698
  217MOL0     H29904   3.868   7.331   7.982 -0.8035 -1.4121 -1.5219
  217MOL0     H29905   3.613   7.286   7.806 -0.2673  0.1537  1.0955
  217MOL0     H29906   3.655   7.127   7.756 -1.2038  0.1230 -0.7611
  217MOL0     H29907   3.780   7.260   7.761 -0.7577 -1.5869 -2.7131
  217MOL0     H29908   3.627   6.617   8.011  0.5215  2.1332  1.1591
  217MOL0     H29909   3.459   6.432   8.027 -1.7748  0.4396  3.3521
  217MOL0     H29910   3.303   6.405   7.772  0.3845  1.6651  1.3840
  217MOL0     H29911   3.306   6.301   7.904  0.3986 -1.0254 -1.7042
  217MOL0     H29912   3.037   6.364   7.774  1.1976  0.6034 -0.3016
  217MOL0     H29913   3.146   6.246   7.701  2.0186 -2.6517  0.6827
  217MOL0     H29914   3.043   6.227   7.977 -1.2299  0.1596 -0.1967
  217MOL0     H29915   3.137   6.101   7.900 -0.5767 -0.2973 -1.2423
  217MOL0     H29916   2.856   6.196   7.832  0.2988  0.9645  1.8827
  217MOL0     H29917   2.900   6.044   7.917 -0.9596 -0.2156 -2.3187
  217MOL0     H29918   2.998   6.085   7.629  2.7890 -2.7497  1.6325
  217MOL0     H29919   3.005   5.953   7.750 -2.3790 -1.8495  1.9551
  217MOL0     H29920   2.737   6.058   7.688 -2.8467 -3.8137  1.6212
  217MOL0     H29921   2.789   5.898   7.717  1.1733  0.4394  0.9016
  217MOL0     H29922   2.864   5.872   7.494  0.9606  2.1934 -2.9598
  217MOL0     H29923   2.800   6.042   7.453 -3.6355  1.3036  0.9263
  217MOL0     H29924   2.576   5.959   7.523 -0.1081  1.0812  0.6111
  217MOL0     H29925   2.650   5.811   7.599  1.7746 -0.3649 -0.0265
  217MOL0     H29926   3.148   6.719   7.974 -1.0693  0.7734 -0.9831
  217MOL0     H29927   3.302   6.882   7.987 -0.7159 -0.8235  0.5769
  217MOL0     H29928   3.625   6.983   8.219  0.3176  0.3138  0.5659
  217MOL0     H29929   3.787   7.107   8.339  4.5690 -3.3507 -1.8214
  217MOL0     H29930   5.388   6.969   7.475 -1.2314  0.7206  0.5270
  217MOL0     H29931   5.400   6.787   7.308  1.0015 -1.6646 -0.0425
  217MOL0     H29932   5.325   6.285   7.334  1.1700 -2.6588  0.0421
  217MOL0     H29933   5.414   6.094   7.237  0.3677  0.8418  0.3331
  217MOL0     H29934   5.710   6.159   7.079 -1.8766 -1.1981  1.5958
  217MOL0     H29935   5.704   5.993   7.039  0.3547  0.5861  0.4799
  217MOL0     H29936   5.872   6.091   6.895 -0.9139 -2.9753 -0.6559
  217MOL0     H29937   5.764   6.231   6.866 -0.8517  0.3660 -0.6557
  217MOL0     H29938   5.726   5.938   6.770  0.0734 -0.0578 -0.5087
  217MOL0     H29939   5.614   6.065   6.731 -0.2242 -0.6718  0.2971
  217MOL0     H29940   5.757   6.046   6.540  0.8104 -2.4297  0.4099
  217MOL0     H29941   5.895   6.034   6.661 -0.0299  0.9169  1.2495
  217MOL0     H29942   5.857   6.451   6.634 -0.4357 -0.0174  2.3943
  217MOL0     H29943   5.529   6.329   6.878 -0.8154  1.9012  1.5327
  217MOL0     H29944   5.305   6.559   6.896  0.1609  7.1718 -0.5581
  217MOL0     H29945   5.437   6.632   6.978 -0.2717 -0.6927  0.4464
  217MOL0     H29946   5.473   6.530   6.839 -1.1760  0.0603 -2.1702
  218MOL0     O29947   0.740  11.362   1.893 -0.2759  0.3919 -0.5194
  218MOL0     C29948   0.787  11.394   2.003 -0.6577  0.7878  0.1725
  218MOL0     O29949   0.719  11.463   2.108  0.2690 -0.5783  0.4439
  218MOL0     C29950   0.590  11.497   2.089  0.5731 -0.6373 -0.6916
  218MOL0     C29951   0.489  11.406   2.061  0.3743  0.7651 -0.4662
  218MOL0     C29952   0.354  11.439   2.050 -0.1499 -1.2193 -0.4797
  218MOL0     C29953   0.315  11.574   2.065  0.0254  0.1211  0.2895
  218MOL0     O29954   0.187  11.616   2.082 -0.5716  0.6790 -0.6339
  218MOL0     C29955   0.077  11.524   2.084  0.2489  0.2208 -0.6839
  218MOL0     C29956  -0.048  11.620   2.071 -0.2718  0.0247 -0.6659
  218MOL0     C29957  -0.032  11.664   1.923 -0.1990 -0.5723 -0.4239
  218MOL0     C29958  -0.161  11.717   1.861  0.3194 -0.1905 -0.0923
  218MOL0     C29959  -0.164  11.715   1.712  0.0658 -0.1395  0.1573
  218MOL0     C29960  -0.095  11.849   1.655  0.1538 -0.4744  1.0478
  218MOL0     C29961  -0.068  11.853   1.503 -0.8005  0.4020 -0.0932
  218MOL0     C29962  -0.061  11.986   1.442 -0.0522  0.7373 -0.6343
  218MOL0     N29963   0.005  11.982   1.303 -0.0034 -0.0779 -0.1576
  218MOL0     C29964   0.035  11.873   1.220 -0.5143 -0.1222  0.4268
  218MOL0     C29965   0.093  11.930   1.110  0.2628  0.1729 -0.0095
  218MOL0     C29966   0.156  11.853   0.994 -0.3197  0.4687 -0.5045
  218MOL0     C29967   0.054  11.858   0.881  0.2992  0.3393 -0.9025
  218MOL0     C29968   0.097  11.777   0.751 -0.4724  0.0884  0.2829
  218MOL0     C29969   0.224  11.812   0.671 -0.4732 -0.1942 -0.6194
  218MOL0     O29970   0.285  11.692   0.618  0.1693  0.2518 -0.3099
  218MOL0     C29971   0.413  11.681   0.602  0.1776  0.0876  0.8180
  218MOL0     C29972   0.486  11.793   0.582  0.2430  0.1595 -0.4057
  218MOL0     C29973   0.620  11.772   0.557  0.4950  0.1874 -0.1054
  218MOL0     C29974   0.700  11.897   0.539 -0.8038 -0.2263 -0.3069
  218MOL0     C29975   0.677  11.638   0.546  0.6408  0.0608 -0.4015
  218MOL0     C29976   0.816  11.609   0.507 -0.6147 -0.7362  0.6130
  218MOL0     O29977   0.840  11.476   0.458  0.1963  0.4435  0.3506
  218MOL0     C29978   0.975  11.450   0.454  0.2169  0.1768  0.1929
  218MOL0     C29979   1.042  11.434   0.331 -0.5715 -0.4593  0.1014
  218MOL0     C29980   1.169  11.372   0.320  0.0391 -0.3699  0.1229
  218MOL0     C29981   1.252  11.351   0.437 -0.5798 -0.3827  0.0450
  218MOL0     O29982   1.368  11.290   0.444  0.2323 -0.5220  0.0567
  218MOL0     C29983   1.443  11.269   0.325  0.6241 -0.0484 -0.3270
  218MOL0     C29984   1.579  11.228   0.368 -0.0892 -0.1068  0.8001
  218MOL0     C29985   1.657  11.354   0.429  0.4996  0.7972 -0.5352
  218MOL0     C29986   1.799  11.387   0.377 -0.0243  0.0264  0.8172
  218MOL0     C29987   1.855  11.508   0.448 -0.2781  0.7320  0.6433
  218MOL0     C29988   1.981  11.570   0.377  0.0132  0.1245 -0.6122
  218MOL0     C29989   2.018  11.700   0.459 -0.0034 -0.3591 -0.3201
  218MOL0     C29990   1.927  11.819   0.415  0.4703  0.0968 -0.5406
  218MOL0    Cl29991   1.973  11.876   0.247 -0.1805 -0.4513 -0.1011
  218MOL0     C29992   1.186  11.370   0.563  0.7719  0.2293  0.7771
  218MOL0     C29993   1.049  11.413   0.567 -0.2823  0.0466 -0.5268
  218MOL0     O29994   0.902  11.697   0.498  0.7106  0.2175 -1.5474
  218MOL0     C29995   0.589  11.524   0.557  0.2860 -0.1825 -0.2924
  218MOL0     C29996   0.457  11.549   0.598  0.0063 -0.1914  0.0861
  218MOL0     N29997   0.101  12.062   1.117  0.1133 -0.1117 -0.5586
  218MOL0     N29998   0.048  12.090   1.232  0.0871 -0.4568 -0.3460
  218MOL0     C29999   0.411  11.669   2.081  0.1996 -0.5353 -0.3119
  218MOL0     C30000   0.548  11.632   2.097 -0.4086  0.0184 -0.2873
  218MOL0     C30001   0.924  11.353   2.023  0.3784 -0.1183  0.3388
  218MOL0     C30002   0.966  11.220   2.040 -0.1960 -0.3479  0.9830
  218MOL0     C30003   1.103  11.186   2.049  0.5515 -0.1620  0.7507
  218MOL0     C30004   1.199  11.287   2.067 -0.0461  0.5555 -0.7163
  218MOL0     O30005   1.326  11.248   2.082 -0.2784 -0.6201 -0.4369
  218MOL0     C30006   1.435  11.324   2.142  0.0125 -0.5323 -0.7166
  218MOL0     C30007   1.523  11.233   2.220  0.3495 -0.0581  0.5582
  218MOL0     C30008   1.641  11.319   2.286  0.0961 -0.0350 -0.2588
  218MOL0     C30009   1.702  11.241   2.415 -0.2902  0.7180  0.2774
  218MOL0     C30010   1.708  11.093   2.419  0.4309 -0.1754 -0.2305
  218MOL0     C30011   1.712  10.971   2.434 -0.5441  0.3066 -1.0455
  218MOL0     C30012   1.159  11.424   2.062  1.3974  0.2486 -0.4061
  218MOL0     C30013   1.022  11.456   2.031 -0.2462 -0.1299  0.5106
  218MOL0     C30014   0.990  11.599   2.011  1.2198  0.4506 -0.2128
  218MOL0     H30015   0.507  11.300   2.052  2.0250  0.8206  1.5316
  218MOL0     H30016   0.288  11.353   2.055 -0.2726 -1.0935  3.6560
  218MOL0     H30017   0.069  11.468   2.178 -0.1112  0.0306 -0.8241
  218MOL0     H30018   0.075  11.442   2.012 -0.4103 -1.7970  1.4831
  218MOL0     H30019  -0.148  11.583   2.092  0.3604 -1.5946 -0.3803
  218MOL0     H30020  -0.016  11.696   2.143  1.0158  0.2906 -1.4717
  218MOL0     H30021   0.045  11.742   1.926 -1.6510  0.9179 -0.1747
  218MOL0     H30022   0.016  11.595   1.853  0.4631 -2.0708  1.4187
  218MOL0     H30023  -0.245  11.653   1.889 -0.0702  0.5546  0.4941
  218MOL0     H30024  -0.192  11.813   1.904 -0.3632 -0.6366  0.4318
  218MOL0     H30025  -0.266  11.691   1.681  0.5383 -3.7098  0.9185
  218MOL0     H30026  -0.109  11.628   1.675 -0.5795 -0.6128  0.3016
  218MOL0     H30027  -0.159  11.936   1.672  0.4488  0.1087 -0.5745
  218MOL0     H30028   0.004  11.861   1.701  1.5971 -0.4677 -1.8066
  218MOL0     H30029  -0.145  11.799   1.446 -0.4803 -1.9295  1.5027
  218MOL0     H30030   0.030  11.807   1.484 -1.5505 -1.2042 -0.2687
  218MOL0     H30031  -0.165  12.022   1.443 -0.7570 -0.9838  3.0750
  218MOL0     H30032  -0.005  12.059   1.501  3.0098 -0.4992 -1.8281
  218MOL0     H30033   0.021  11.767   1.240 -2.6701  0.5534  3.1090
  218MOL0     H30034   0.175  11.747   1.013 -1.0795  0.2825 -0.7546
  218MOL0     H30035   0.252  11.895   0.962  0.5547 -1.4600 -0.5675
  218MOL0     H30036  -0.046  11.826   0.911 -0.1015  0.2535 -2.2385
  218MOL0     H30037   0.043  11.961   0.844 -1.5974 -0.4081 -2.6648
  218MOL0     H30038   0.109  11.677   0.793 -2.1590  0.3614  1.4890
  218MOL0     H30039   0.016  11.777   0.678  0.6927 -2.7471 -1.1719
  218MOL0     H30040   0.194  11.875   0.587 -0.2518 -0.1218 -0.6469
  218MOL0     H30041   0.284  11.859   0.749 -0.0715 -4.0983  1.6471
  218MOL0     H30042   0.454  11.897   0.582 -0.6732 -0.0230  2.8263
  218MOL0     H30043   0.638  11.986   0.528  2.0282  2.3370  2.5171
  218MOL0     H30044   0.767  11.890   0.452  1.8251  1.4217  1.4377
  218MOL0     H30045   0.763  11.909   0.628  1.6872  3.3255 -2.2945
  218MOL0     H30046   0.984  11.460   0.244 -0.4950  3.7094  1.1168
  218MOL0     H30047   1.203  11.360   0.218  1.6712 -1.3757  0.7444
  218MOL0     H30048   1.399  11.179   0.282  0.8649 -0.4656  0.2896
  218MOL0     H30049   1.443  11.356   0.258  3.2751 -1.1748 -1.9607
  218MOL0     H30050   1.579  11.145   0.439  1.3383 -0.1400  0.7979
  218MOL0     H30051   1.648  11.202   0.287  1.4899  0.4176  1.9175
  218MOL0     H30052   1.661  11.344   0.538  0.9640  0.7240 -0.5572
  218MOL0     H30053   1.606  11.449   0.410  2.5570  1.7274 -1.8409
  218MOL0     H30054   1.792  11.400   0.269  1.0993 -4.2680  0.0598
  218MOL0     H30055   1.859  11.300   0.403 -1.4858 -1.0202  0.7990
  218MOL0     H30056   1.782  11.589   0.452 -0.8237  0.5424 -2.5866
  218MOL0     H30057   1.875  11.474   0.550 -2.8749  0.8403  1.2547
  218MOL0     H30058   1.948  11.604   0.278 -0.6976  0.0529 -0.4069
  218MOL0     H30059   2.066  11.510   0.344  1.3215  1.3903  0.3139
  218MOL0     H30060   2.119  11.724   0.425  1.2460 -2.1271  1.8199
  218MOL0     H30061   2.022  11.680   0.567 -3.8183  0.4866  0.1253
  218MOL0     H30062   1.934  11.903   0.485  2.6579 -0.9608  0.5891
  218MOL0     H30063   1.827  11.775   0.412  0.4217  0.2633 -1.6566
  218MOL0     H30064   1.239  11.358   0.657 -0.0057  5.4745  2.2319
  218MOL0     H30065   0.988  11.422   0.657 -0.0210 -2.2179 -0.0586
  218MOL0     H30066   0.616  11.420   0.546 -0.5895 -0.4204 -0.3244
  218MOL0     H30067   0.391  11.463   0.590  3.7987 -3.6425  1.8555
  218MOL0     H30068   0.388  11.772   2.104  1.3985 -0.5397  1.0539
  218MOL0     H30069   0.627  11.706   2.101  2.2473 -2.4333 -2.7586
  218MOL0     H30070   0.899  11.135   2.050 -0.0682 -1.2925 -3.7990
  218MOL0     H30071   1.111  11.078   2.056  3.4646 -0.5047 -3.6552
  218MOL0     H30072   1.488  11.379   2.064 -0.3121  0.1492 -0.4628
  218MOL0     H30073   1.385  11.398   2.205  1.3799 -0.7170  0.6531
  218MOL0     H30074   1.558  11.156   2.151 -2.2496 -0.2841 -0.6228
  218MOL0     H30075   1.469  11.181   2.299 -2.1775  0.0326 -0.9715
  218MOL0     H30076   1.724  11.330   2.216  2.6097 -0.8180  2.3951
  218MOL0     H30077   1.607  11.419   2.313  2.5132  0.4130  1.4670
  218MOL0     H30078   1.640  11.256   2.504  0.2712  1.0019  0.6244
  218MOL0     H30079   1.802  11.279   2.438 -0.7580  2.8035 -0.8851
  218MOL0     H30080   1.732  10.865   2.441  0.1570  0.5073  0.6642
  218MOL0     H30081   1.230  11.502   2.088  2.0294 -1.5555  4.2201
  218MOL0     H30082   1.079  11.662   2.006 -0.6774  3.2849 -0.2786
  218MOL0     H30083   0.913  11.596   1.934  1.8506 -1.2922 -0.8312
  218MOL0     H30084   0.927  11.629   2.095  2.1660  1.7891  0.0499
  219MOL0     O30085   5.351   7.660   7.568  0.0380  0.5257  0.0383
  219MOL0     C30086   5.415   7.605   7.661  0.2016  0.6824  0.5199
  219MOL0     O30087   5.471   7.472   7.655  0.1818 -0.2554  0.1818
  219MOL0     C30088   5.524   7.419   7.538 -0.4870 -0.6653  0.1309
  219MOL0     C30089   5.438   7.382   7.438 -0.0288 -0.9580  1.6124
  219MOL0     C30090   5.493   7.353   7.311  0.5611 -0.0378 -0.0338
  219MOL0     C30091   5.627   7.355   7.294 -0.0591  0.3711  0.8568
  219MOL0     O30092   5.693   7.336   7.172 -0.1642 -1.3665 -0.9310
  219MOL0     C30093   5.613   7.289   7.061  0.4615  0.8946 -0.8309
  219MOL0     C30094   5.687   7.251   6.935  0.3518  0.0060 -0.2902
  219MOL0     C30095   5.788   7.143   6.954 -1.0320 -0.2168 -0.2020
  219MOL0     C30096   5.850   7.101   6.822  0.4481 -1.1944  0.1215
  219MOL0     C30097   5.941   6.981   6.847 -0.0032 -0.7400 -0.6362
  219MOL0     C30098   5.998   6.937   6.717  1.0607  0.5549 -0.1581
  219MOL0     C30099   6.057   6.804   6.752 -0.9115  0.8312 -0.1147
  219MOL0     C30100   6.172   6.777   6.647  0.1753 -0.0942  0.2420
  219MOL0     N30101   6.137   6.821   6.508 -0.2794 -0.3436 -0.2254
  219MOL0     C30102   6.217   6.896   6.426 -0.5705  0.7134  0.5860
  219MOL0     C30103   6.162   6.884   6.301  0.6584  0.3840 -0.4791
  219MOL0     C30104   6.219   6.933   6.181  0.6083  0.0815  0.5719
  219MOL0     C30105   6.231   6.818   6.077  0.2368 -0.9436 -1.0816
  219MOL0     C30106   6.300   6.877   5.951  0.1915 -0.0260  0.4245
  219MOL0     C30107   6.286   6.776   5.841 -0.4781  0.0254 -0.1342
  219MOL0     O30108   6.392   6.672   5.846 -0.0683  0.7596 -0.3140
  219MOL0     C30109   6.394   6.574   5.751 -0.3774 -0.5324  0.2496
  219MOL0     C30110   6.505   6.486   5.756  0.3166 -0.6853  0.5074
  219MOL0     C30111   6.510   6.370   5.684 -0.0038 -0.9773 -0.3388
  219MOL0     C30112   6.638   6.295   5.695  0.0264 -0.1048  0.4264
  219MOL0     C30113   6.407   6.343   5.591 -0.4686  0.1984 -0.4020
  219MOL0     C30114   6.420   6.223   5.506 -0.2333 -0.3688 -0.9876
  219MOL0     O30115   6.308   6.144   5.503  0.1754  0.3362 -0.5507
  219MOL0     C30116   6.315   6.015   5.459 -0.2469  0.1751  0.5383
  219MOL0     C30117   6.191   5.951   5.427 -0.0835 -0.3577  0.7200
  219MOL0     C30118   6.181   5.827   5.371  0.0840  0.7767  0.5069
  219MOL0     C30119   6.292   5.754   5.347  0.5501  0.8657  0.8868
  219MOL0     O30120   6.291   5.633   5.286 -0.0573  0.6840 -0.5409
  219MOL0     C30121   6.177   5.559   5.271  0.0927  0.2884 -0.6778
  219MOL0     C30122   6.218   5.411   5.273  0.1221 -0.0836 -0.0764
  219MOL0     C30123   6.213   5.359   5.417  0.8449 -0.4351  0.2146
  219MOL0     C30124   6.230   5.209   5.426  0.2663 -0.1484  0.8497
  219MOL0     C30125   6.294   5.155   5.552  0.0068 -0.1875 -0.0090
  219MOL0     C30126   6.302   5.007   5.542  0.6030  0.6605 -0.1982
  219MOL0     C30127   6.352   4.967   5.684 -0.6231  0.3112 -0.7315
  219MOL0     C30128   6.374   4.819   5.707 -0.2820 -0.1774  0.6683
  219MOL0    Cl30129   6.503   4.797   5.829 -0.1137 -0.0548 -0.1654
  219MOL0     C30130   6.424   5.803   5.379 -0.4955  0.1034  0.4672
  219MOL0     C30131   6.432   5.934   5.424  0.2257 -0.2327  0.1138
  219MOL0     O30132   6.527   6.211   5.442  0.0565 -1.0563 -0.1406
  219MOL0     C30133   6.294   6.421   5.591  0.7194 -1.2716  0.9749
  219MOL0     C30134   6.283   6.539   5.664  0.2262 -0.7004 -0.5358
  219MOL0     N30135   6.044   6.810   6.311  0.4734  0.4428  0.9165
  219MOL0     N30136   6.034   6.774   6.435 -0.3355  0.8767  0.4635
  219MOL0     C30137   5.713   7.386   7.402 -0.1032  0.5066  0.8433
  219MOL0     C30138   5.666   7.421   7.524 -0.1952 -0.1881  0.1295
  219MOL0     C30139   5.420   7.676   7.785  0.9467  0.0052 -0.4381
  219MOL0     C30140   5.434   7.818   7.776 -0.7338 -0.0263 -0.2130
  219MOL0     C30141   5.461   7.903   7.895 -0.0145  0.0178  0.0666
  219MOL0     C30142   5.433   7.852   8.022 -1.1598  0.8531  0.7040
  219MOL0     O30143   5.449   7.945   8.128  0.1680  0.8659  0.5917
  219MOL0     C30144   5.370   7.917   8.237  0.5386  0.1502  1.0152
  219MOL0     C30145   5.418   8.011   8.355  0.0482 -0.0154 -0.1297
  219MOL0     C30146   5.327   7.986   8.477 -0.6536 -1.3073  0.0829
  219MOL0     C30147   5.208   8.084   8.481 -0.6486 -0.8172  0.2519
  219MOL0     C30148   5.105   8.026   8.572  0.3505 -1.2230  0.4473
  219MOL0     C30149   5.028   7.972   8.648  0.0144 -0.2875 -0.2002
  219MOL0     C30150   5.377   7.719   8.024 -0.0274 -0.2471 -0.2764
  219MOL0     C30151   5.384   7.627   7.910  0.6016 -1.2396 -0.6604
  219MOL0     C30152   5.344   7.482   7.930  0.6037  0.1796  0.8919
  219MOL0     H30153   5.333   7.405   7.447  0.2869  0.6614  1.4381
  219MOL0     H30154   5.421   7.352   7.230 -0.7543  2.9473  0.9542
  219MOL0     H30155   5.526   7.352   7.043 -1.3746 -0.7618  1.5131
  219MOL0     H30156   5.562   7.199   7.097  0.3946  1.6819  1.2128
  219MOL0     H30157   5.609   7.215   6.867  1.8181 -0.4090 -1.8218
  219MOL0     H30158   5.731   7.346   6.904 -1.3528  0.7791 -0.4638
  219MOL0     H30159   5.863   7.168   7.029 -1.6081  0.3240  0.1992
  219MOL0     H30160   5.733   7.052   6.979 -0.7070  0.2090  2.3249
  219MOL0     H30161   5.765   7.065   6.763 -1.7240  0.0229  2.3173
  219MOL0     H30162   5.899   7.191   6.783 -0.7164  2.5545  5.9607
  219MOL0     H30163   5.891   6.894   6.890 -1.1905  0.2931  0.1337
  219MOL0     H30164   6.023   7.006   6.915 -1.6807  0.5326  1.0005
  219MOL0     H30165   5.926   6.920   6.637 -2.1807 -0.5312  2.7609
  219MOL0     H30166   6.071   7.010   6.681  1.7576  0.1289  0.3650
  219MOL0     H30167   5.977   6.730   6.747  0.9150 -1.7761  3.8419
  219MOL0     H30168   6.123   6.796   6.839  2.0533  0.8779 -2.1888
  219MOL0     H30169   6.266   6.818   6.684  1.7335 -2.1993 -1.1535
  219MOL0     H30170   6.181   6.668   6.649  2.3285  0.0178 -0.5381
  219MOL0     H30171   6.318   6.931   6.448  0.1987 -1.0432 -0.0266
  219MOL0     H30172   6.319   6.976   6.196  1.0724 -0.3626 -1.0285
  219MOL0     H30173   6.153   7.000   6.126 -0.0769  1.7024  3.1846
  219MOL0     H30174   6.291   6.744   6.131 -1.6909 -2.0382 -0.3474
  219MOL0     H30175   6.142   6.764   6.043  0.8475 -3.8974  1.5348
  219MOL0     H30176   6.250   6.971   5.926  0.5206 -1.2889 -7.3036
  219MOL0     H30177   6.405   6.895   5.974  0.5656 -1.9032  0.2757
  219MOL0     H30178   6.192   6.722   5.854  0.8932 -2.4349  0.0770
  219MOL0     H30179   6.289   6.817   5.740  1.0324 -1.6349 -0.8314
  219MOL0     H30180   6.580   6.524   5.825  0.3056  4.0012 -1.6212
  219MOL0     H30181   6.697   6.297   5.603  0.1522 -2.7175  0.3528
  219MOL0     H30182   6.612   6.191   5.717 -1.9737  0.4240  0.7659
  219MOL0     H30183   6.698   6.326   5.780 -0.7287  2.7311  0.0085
  219MOL0     H30184   6.107   6.018   5.440  1.5444  1.6029  1.6765
  219MOL0     H30185   6.080   5.803   5.340  0.0488  3.0743 -1.5346
  219MOL0     H30186   6.085   5.582   5.324  1.3817  5.0716 -0.0462
  219MOL0     H30187   6.150   5.581   5.167  1.2758  1.6714 -0.7342
  219MOL0     H30188   6.152   5.356   5.206  1.4984 -1.9260 -0.0192
  219MOL0     H30189   6.320   5.387   5.242  0.2369 -4.3201  2.6770
  219MOL0     H30190   6.117   5.388   5.460  0.7326  1.2296 -1.0166
  219MOL0     H30191   6.286   5.417   5.474 -2.0689  4.2555 -0.3349
  219MOL0     H30192   6.289   5.172   5.341 -2.3898 -0.5357 -0.9382
  219MOL0     H30193   6.132   5.165   5.409 -1.2533  3.4845 -0.8596
  219MOL0     H30194   6.393   5.197   5.572  0.9148 -2.6214  1.0535
  219MOL0     H30195   6.219   5.174   5.630 -0.5115 -0.1557 -0.5107
  219MOL0     H30196   6.383   4.990   5.471 -0.5286  1.1557 -1.6599
  219MOL0     H30197   6.201   4.972   5.517 -0.4806  2.4282  1.3796
  219MOL0     H30198   6.299   5.014   5.768  1.0549 -1.1874  1.2879
  219MOL0     H30199   6.456   5.003   5.691  0.6590 -2.7014 -2.3902
  219MOL0     H30200   6.405   4.778   5.611  2.0713  3.5588 -0.3797
  219MOL0     H30201   6.281   4.767   5.731  0.2506 -1.5916 -0.2016
  219MOL0     H30202   6.503   5.733   5.354 -0.7542 -0.5811  1.5174
  219MOL0     H30203   6.529   5.973   5.453 -2.0931  6.6164  0.3340
  219MOL0     H30204   6.203   6.384   5.545 -0.3986 -0.4786  2.4720
  219MOL0     H30205   6.190   6.595   5.661  1.0473  0.7145 -3.2309
  219MOL0     H30206   5.822   7.380   7.407  0.0354 -1.0462 -2.0183
  219MOL0     H30207   5.728   7.450   7.608 -1.0881  2.5328 -0.0753
  219MOL0     H30208   5.439   7.866   7.678 -2.1574  2.6637  0.9138
  219MOL0     H30209   5.497   8.001   7.868 -0.1684 -0.0058 -0.2230
  219MOL0     H30210   5.266   7.943   8.214 -0.3807 -3.1362  0.9729
  219MOL0     H30211   5.378   7.810   8.257 -0.0346 -0.0492  0.2468
  219MOL0     H30212   5.428   8.116   8.325  0.6263  0.6300  2.1223
  219MOL0     H30213   5.516   7.970   8.377 -0.7050 -3.0665 -1.9172
  219MOL0     H30214   5.289   7.883   8.477  1.0548 -1.9692  1.2135
  219MOL0     H30215   5.379   8.014   8.569 -0.1013  0.8049 -0.8200
  219MOL0     H30216   5.157   8.083   8.384 -0.3403  1.1490  0.0280
  219MOL0     H30217   5.230   8.188   8.508 -2.1097 -0.3490 -0.2174
  219MOL0     H30218   4.938   7.938   8.696 -1.2452  0.5213 -1.8737
  219MOL0     H30219   5.344   7.663   8.111 -0.0104  0.6231  0.2983
  219MOL0     H30220   5.356   7.461   8.037  0.2367  0.0686  0.9121
  219MOL0     H30221   5.236   7.481   7.912  0.3181  0.6353  2.4313
  219MOL0     H30222   5.397   7.414   7.862  0.3664  2.6358 -1.9488
  220MOL0     O30223   3.750   4.018   3.848  0.5851  0.1569 -0.5606
  220MOL0     C30224   3.825   4.067   3.766  0.5956 -0.8381  0.2085
  220MOL0     O30225   3.947   4.118   3.797  0.2419 -0.3602 -0.9472
  220MOL0     C30226   3.966   4.166   3.930 -0.6527  0.2452 -1.4218
  220MOL0     C30227   3.867   4.230   3.995  0.1698  0.0373 -1.0215
  220MOL0     C30228   3.884   4.286   4.119 -0.4543 -0.0805  0.4744
  220MOL0     C30229   4.006   4.284   4.189  0.3084 -0.6936  0.1263
  220MOL0     O30230   4.020   4.331   4.321 -1.7086  0.1798 -0.2852
  220MOL0     C30231   4.139   4.421   4.339  0.9800  0.0815 -1.4982
  220MOL0     C30232   4.116   4.557   4.286 -0.3526  1.2778  0.3785
  220MOL0     C30233   3.972   4.598   4.318 -0.1912 -0.5606  0.1868
  220MOL0     C30234   3.955   4.744   4.355 -0.0162  0.1102  0.3198
  220MOL0     C30235   3.997   4.781   4.501 -0.0913 -0.1387 -1.0953
  220MOL0     C30236   4.018   4.933   4.522 -0.8122 -0.1019 -0.5458
  220MOL0     C30237   4.081   4.976   4.658 -0.3233  0.6326  0.6897
  220MOL0     C30238   4.015   4.914   4.778 -0.1335  0.1115 -1.0186
  220MOL0     N30239   4.087   4.971   4.895  0.3286 -0.0720  0.0743
  220MOL0     C30240   4.076   5.095   4.939  0.3133  0.0537  0.0658
  220MOL0     C30241   4.186   5.107   5.019 -0.1447  1.1269  0.8993
  220MOL0     C30242   4.212   5.223   5.108 -0.6036 -0.6205 -1.0256
  220MOL0     C30243   4.146   5.221   5.250 -0.9329 -0.1779  0.2107
  220MOL0     C30244   4.186   5.103   5.347 -0.0718  0.4322  0.8182
  220MOL0     C30245   4.330   5.056   5.349  0.8491 -0.8520  0.0422
  220MOL0     O30246   4.443   5.143   5.382  0.4398 -0.3750  0.3273
  220MOL0     C30247   4.433   5.209   5.501  0.3261  0.5417  0.0422
  220MOL0     C30248   4.405   5.146   5.619 -0.0128  0.2461  0.2815
  220MOL0     C30249   4.359   5.223   5.729 -0.2102 -0.4491 -1.1721
  220MOL0     C30250   4.303   5.152   5.847  0.0419 -0.5005 -0.5502
  220MOL0     C30251   4.388   5.358   5.737 -0.0509  0.5427  0.2524
  220MOL0     C30252   4.364   5.459   5.850 -0.0575 -0.1773 -0.3602
  220MOL0     O30253   4.300   5.412   5.966 -0.7321 -0.2279 -0.7710
  220MOL0     C30254   4.316   5.469   6.099 -0.2658 -0.0660  0.7964
  220MOL0     C30255   4.397   5.578   6.128  0.3597  0.2769 -0.7464
  220MOL0     C30256   4.379   5.643   6.255 -0.5358  0.3849  0.6508
  220MOL0     C30257   4.297   5.593   6.355  0.8078 -0.4342  0.1274
  220MOL0     O30258   4.299   5.632   6.492  0.5117  0.2035 -0.5665
  220MOL0     C30259   4.272   5.772   6.517 -0.4534  0.0537 -0.8146
  220MOL0     C30260   4.122   5.801   6.545 -0.9477  0.0907  0.1108
  220MOL0     C30261   4.049   5.681   6.611  0.0736 -0.7143  0.0669
  220MOL0     C30262   4.088   5.671   6.764  0.3147  0.6375  0.0135
  220MOL0     C30263   4.009   5.555   6.827  0.2062 -0.5417  0.4850
  220MOL0     C30264   4.035   5.562   6.978  0.6451  0.1136 -0.0389
  220MOL0     C30265   4.139   5.462   7.027 -1.0289 -0.7005 -0.5724
  220MOL0     C30266   4.160   5.474   7.181 -0.0454  0.1654 -0.5416
  220MOL0    Cl30267   4.035   5.380   7.269 -0.2352 -0.2843 -0.0694
  220MOL0     C30268   4.221   5.474   6.323  0.8347  1.2969  0.1355
  220MOL0     C30269   4.222   5.420   6.192 -0.0283 -0.1936  0.7316
  220MOL0     O30270   4.387   5.577   5.823 -0.6739 -0.2160 -0.4580
  220MOL0     C30271   4.439   5.423   5.620 -0.4235  0.5212  0.2745
  220MOL0     C30272   4.466   5.344   5.511 -0.8723  0.1123  0.3993
  220MOL0     N30273   4.245   4.987   5.030 -0.1015  0.3596 -0.3985
  220MOL0     N30274   4.182   4.900   4.969  0.1787  0.4319  0.6247
  220MOL0     C30275   4.113   4.228   4.120 -0.0153  0.2658  0.6277
  220MOL0     C30276   4.097   4.169   3.992  0.5680 -0.1461  0.7171
  220MOL0     C30277   3.782   4.049   3.620 -0.5990 -0.5067  0.5471
  220MOL0     C30278   3.836   4.127   3.513  0.4853 -0.3458 -0.4159
  220MOL0     C30279   3.786   4.122   3.382  0.6361 -0.4361  0.3357
  220MOL0     C30280   3.680   4.046   3.349 -0.4666  0.9788 -0.6771
  220MOL0     O30281   3.630   4.074   3.221 -0.2417 -0.5041 -0.2416
  220MOL0     C30282   3.589   3.967   3.128  0.1930 -0.1735 -0.4649
  220MOL0     C30283   3.658   3.828   3.160  0.7606 -0.1954  1.1420
  220MOL0     C30284   3.814   3.846   3.159  0.6285  0.7610  1.2851
  220MOL0     C30285   3.868   3.756   3.272 -0.3993 -0.8235 -0.9957
  220MOL0     C30286   3.831   3.614   3.273 -0.4706 -0.4788  1.0246
  220MOL0     C30287   3.816   3.493   3.255  0.1738 -0.9022 -0.6209
  220MOL0     C30288   3.633   3.959   3.446  0.1003 -0.0528 -0.1799
  220MOL0     C30289   3.699   3.944   3.574 -0.1385  0.5901  0.9894
  220MOL0     C30290   3.671   3.829   3.651 -0.5170  0.2010  0.1732
  220MOL0     H30291   3.761   4.217   3.973 -0.0153  2.7195 -2.1123
  220MOL0     H30292   3.794   4.325   4.166  0.3694  0.9533  1.2274
  220MOL0     H30293   4.229   4.380   4.293  1.4540 -1.2857  0.5110
  220MOL0     H30294   4.158   4.415   4.447  5.6341  0.7828 -2.0855
  220MOL0     H30295   4.198   4.624   4.310  0.6941 -0.0323  0.5878
  220MOL0     H30296   4.114   4.543   4.177 -1.2176 -2.8991  0.7481
  220MOL0     H30297   3.914   4.577   4.227  0.5048 -0.8601 -0.1994
  220MOL0     H30298   3.941   4.532   4.399  0.5895 -3.5319 -1.7605
  220MOL0     H30299   4.021   4.796   4.284 -0.0394 -1.1224 -0.6354
  220MOL0     H30300   3.854   4.780   4.335 -0.3340 -0.2194  1.3068
  220MOL0     H30301   4.088   4.731   4.534  1.5437  2.9063 -0.6087
  220MOL0     H30302   3.927   4.748   4.579 -1.5860  0.2803 -2.2012
  220MOL0     H30303   4.094   4.965   4.450  1.8236 -1.5984  1.3779
  220MOL0     H30304   3.926   4.991   4.513  0.0952  2.1661  2.8170
  220MOL0     H30305   4.071   5.084   4.661 -2.9260  0.5983 -1.8578
  220MOL0     H30306   4.188   4.955   4.655 -0.7644 -2.0290  0.9974
  220MOL0     H30307   3.909   4.941   4.779 -1.8771 -5.4571 -1.8357
  220MOL0     H30308   4.044   4.808   4.772 -2.0629 -0.8449  3.2231
  220MOL0     H30309   4.015   5.177   4.903  0.0782 -0.2287 -0.1824
  220MOL0     H30310   4.166   5.311   5.063 -0.0415 -0.2476 -0.8753
  220MOL0     H30311   4.319   5.233   5.126 -0.9649 -1.1238  1.8791
  220MOL0     H30312   4.169   5.312   5.305  0.0589  0.0753 -0.5866
  220MOL0     H30313   4.038   5.228   5.242 -0.9743  1.8513  1.7983
  220MOL0     H30314   4.163   5.141   5.448  2.6277  2.2463  0.8545
  220MOL0     H30315   4.113   5.025   5.327 -1.6035  1.6876  1.2800
  220MOL0     H30316   4.334   4.965   5.411  1.8450 -1.3786 -0.7595
  220MOL0     H30317   4.362   5.013   5.254  2.0401 -1.6180  0.7498
  220MOL0     H30318   4.397   5.038   5.625 -1.3015  0.2866 -0.5314
  220MOL0     H30319   4.316   5.045   5.831 -1.3693 -0.7882  0.0928
  220MOL0     H30320   4.196   5.169   5.863 -0.7939 -2.2569 -3.5661
  220MOL0     H30321   4.350   5.182   5.941 -0.3346 -0.1042 -0.4813
  220MOL0     H30322   4.462   5.629   6.057  2.4933 -1.4377 -0.1466
  220MOL0     H30323   4.437   5.733   6.275 -1.3390  1.4308 -1.4302
  220MOL0     H30324   4.337   5.794   6.602 -2.6539 -0.9332  1.2370
  220MOL0     H30325   4.311   5.840   6.441  0.8967  0.0440 -0.1622
  220MOL0     H30326   4.111   5.889   6.609  1.7746  0.6175 -0.0306
  220MOL0     H30327   4.077   5.823   6.448 -0.7961 -2.1193 -0.5212
  220MOL0     H30328   4.059   5.585   6.559  0.7896 -1.1116  0.9221
  220MOL0     H30329   3.942   5.704   6.615  0.2001  0.2993 -1.3381
  220MOL0     H30330   4.051   5.762   6.814  2.3054 -0.2448  3.4041
  220MOL0     H30331   4.196   5.660   6.774  0.0628 -1.0510  1.5909
  220MOL0     H30332   3.903   5.569   6.802  0.8270  1.4912 -1.2093
  220MOL0     H30333   4.034   5.456   6.788 -0.0037 -0.7214  0.8038
  220MOL0     H30334   3.946   5.533   7.035  2.1703 -0.1658  2.3358
  220MOL0     H30335   4.059   5.666   7.002  0.3664  0.0084  0.7114
  220MOL0     H30336   4.237   5.473   6.979  0.0887 -1.3275  1.4611
  220MOL0     H30337   4.113   5.357   7.009  3.5354 -1.9925 -0.9018
  220MOL0     H30338   4.159   5.578   7.213  1.0061 -0.9703  3.8562
  220MOL0     H30339   4.258   5.432   7.203 -1.6629 -3.0385  1.3778
  220MOL0     H30340   4.143   5.436   6.389 -1.0042 -0.9792 -3.0373
  220MOL0     H30341   4.143   5.354   6.156 -0.2885  1.2021 -1.4575
  220MOL0     H30342   4.461   5.528   5.609  2.8582  0.0140  0.9157
  220MOL0     H30343   4.503   5.390   5.420 -0.9891  1.4624  1.0096
  220MOL0     H30344   4.210   4.226   4.169 -0.2651  0.1835  1.1339
  220MOL0     H30345   4.181   4.112   3.952 -1.2174 -4.4896  2.5152
  220MOL0     H30346   3.914   4.198   3.539 -0.2947  1.0628 -1.7260
  220MOL0     H30347   3.836   4.187   3.310  1.7341 -1.8594 -0.2410
  220MOL0     H30348   3.479   3.959   3.127  0.0080  1.4309  1.6706
  220MOL0     H30349   3.612   3.988   3.023 -1.8191 -2.7643 -1.5580
  220MOL0     H30350   3.625   3.761   3.080  2.1845  1.0424 -0.5571
  220MOL0     H30351   3.612   3.789   3.252 -0.4037  0.0545  0.6871
  220MOL0     H30352   3.845   3.798   3.066  1.9789 -1.7281  2.8964
  220MOL0     H30353   3.844   3.951   3.154  0.2277  0.8780  1.2999
  220MOL0     H30354   3.829   3.792   3.368 -1.6055 -3.8444 -0.2419
  220MOL0     H30355   3.977   3.763   3.273 -0.3180 -1.9148 -1.0578
  220MOL0     H30356   3.802   3.392   3.222 -0.1975 -0.6499 -1.2770
  220MOL0     H30357   3.563   3.877   3.430  0.4088 -0.4581  0.4992
  220MOL0     H30358   3.760   3.793   3.703  1.8558  2.5125 -1.9853
  220MOL0     H30359   3.594   3.852   3.725  1.6154  2.4653  1.8536
  220MOL0     H30360   3.645   3.755   3.575 -0.1229  1.1485 -0.9210
  221MOL0     O30361   1.155   5.251   9.200 -0.5667 -0.6957  0.3248
  221MOL0     C30362   1.041   5.283   9.222 -0.3934  1.2099 -1.0888
  221MOL0     O30363   0.929   5.234   9.164  0.3714 -0.4760 -0.4383
  221MOL0     C30364   0.948   5.145   9.061  0.2487  0.6452 -0.3934
  221MOL0     C30365   0.979   5.003   9.070 -0.7420  0.0044 -0.2136
  221MOL0     C30366   0.988   4.926   8.954  0.8128  0.3397  0.1712
  221MOL0     C30367   0.964   4.982   8.830 -0.2752 -0.2953 -0.4449
  221MOL0     O30368   0.965   4.910   8.715  0.3588 -0.3564  0.1924
  221MOL0     C30369   1.098   4.875   8.661  0.1592 -0.6841  0.8198
  221MOL0     C30370   1.152   4.976   8.555  0.1369  0.3344  0.1395
  221MOL0     C30371   1.040   5.019   8.453  0.0968  0.1730 -0.4648
  221MOL0     C30372   1.007   4.895   8.359  0.0368  0.2237  0.2727
  221MOL0     C30373   0.914   4.920   8.246 -0.1242 -0.4196  0.1274
  221MOL0     C30374   0.921   4.816   8.134 -0.6908  0.1340  0.3948
  221MOL0     C30375   0.912   4.667   8.173 -0.3301 -0.3715  0.7824
  221MOL0     C30376   0.935   4.575   8.051 -0.7614  0.7064 -0.3414
  221MOL0     N30377   0.967   4.438   8.101 -0.0873  0.1802  0.5355
  221MOL0     C30378   0.897   4.320   8.084 -0.7737  0.0802 -0.5260
  221MOL0     C30379   0.970   4.219   8.144  0.7432 -0.1846  0.2428
  221MOL0     C30380   0.932   4.072   8.162 -0.5134  0.5214 -0.1513
  221MOL0     C30381   0.798   4.029   8.098  0.3185 -1.1801 -0.8592
  221MOL0     C30382   0.783   3.876   8.107  0.0542  0.6760 -0.1761
  221MOL0     C30383   0.771   3.807   8.247 -0.2270 -0.4821  0.3624
  221MOL0     O30384   0.787   3.670   8.229  0.3475 -0.0618  0.5520
  221MOL0     C30385   0.712   3.580   8.295  0.6009  0.7698  0.1329
  221MOL0     C30386   0.739   3.524   8.420  0.1831  0.0053 -0.6512
  221MOL0     C30387   0.663   3.425   8.475  0.2347  0.7012 -1.4198
  221MOL0     C30388   0.710   3.384   8.621  0.7555 -0.3235  1.0207
  221MOL0     C30389   0.549   3.378   8.410  0.5459 -0.0017  0.3642
  221MOL0     C30390   0.465   3.259   8.463  0.0054  0.7813 -0.2308
  221MOL0     O30391   0.404   3.182   8.365 -0.1431  0.3260 -0.3423
  221MOL0     C30392   0.269   3.164   8.384  0.2452 -0.0682  0.2284
  221MOL0     C30393   0.210   3.056   8.442 -0.1662 -0.2440  0.2413
  221MOL0     C30394   0.072   3.034   8.439  0.5520  0.4700  0.0010
  221MOL0     C30395  -0.021   3.126   8.387 -0.2076  0.6278 -0.0853
  221MOL0     O30396  -0.162   3.105   8.370  0.1101 -0.4269  0.4783
  221MOL0     C30397  -0.223   3.009   8.451 -0.1076 -0.6291 -0.2500
  221MOL0     C30398  -0.372   3.031   8.440 -0.4523  0.3758 -0.6498
  221MOL0     C30399  -0.444   2.937   8.541 -1.1368 -0.7783  0.6324
  221MOL0     C30400  -0.554   2.865   8.468 -0.4097  0.2062 -0.1327
  221MOL0     C30401  -0.627   2.774   8.563 -0.3140 -0.2927  1.0203
  221MOL0     C30402  -0.756   2.711   8.515  0.7169  0.2643  0.1371
  221MOL0     C30403  -0.818   2.627   8.626 -0.1746  1.0017 -0.4374
  221MOL0     C30404  -0.731   2.505   8.660 -0.5841  0.3979  0.2143
  221MOL0    Cl30405  -0.814   2.370   8.736  0.0662  0.2118 -0.0189
  221MOL0     C30406   0.032   3.239   8.325  0.7915 -0.7880 -0.8508
  221MOL0     C30407   0.177   3.256   8.324  0.1046  0.4405  0.5889
  221MOL0     O30408   0.427   3.270   8.581  0.0739  0.2313  0.7075
  221MOL0     C30409   0.530   3.426   8.282  0.3979 -1.0096 -0.0816
  221MOL0     C30410   0.603   3.530   8.221 -0.3582 -0.7384  0.3208
  221MOL0     N30411   1.091   4.275   8.193 -0.2190 -0.5632  0.3816
  221MOL0     N30412   1.071   4.403   8.171 -0.3425  0.7724 -0.2733
  221MOL0     C30413   0.930   5.117   8.820  0.6584 -0.2433  0.0303
  221MOL0     C30414   0.915   5.195   8.928  0.2891 -0.1287 -1.0670
  221MOL0     C30415   1.014   5.373   9.335  0.2794  0.1063  1.1822
  221MOL0     C30416   1.089   5.478   9.362 -0.9969 -0.2057 -0.3049
  221MOL0     C30417   1.071   5.569   9.470 -0.4538  0.3303 -0.2348
  221MOL0     C30418   0.963   5.554   9.554 -0.0780 -0.1157  0.2295
  221MOL0     O30419   0.955   5.644   9.662 -0.2641  0.6621  0.4153
  221MOL0     C30420   0.829   5.650   9.728 -0.4354  0.2591 -1.1213
  221MOL0     C30421   0.785   5.789   9.733  0.2262 -0.0265 -0.6293
  221MOL0     C30422   0.833   5.880   9.616  0.4043 -0.3412  0.3700
  221MOL0     C30423   0.768   5.841   9.475  0.7437 -0.2945 -0.4535
  221MOL0     C30424   0.626   5.804   9.475  0.3280  0.0040  0.5690
  221MOL0     C30425   0.508   5.775   9.476  0.2949 -1.7986 -0.5200
  221MOL0     C30426   0.885   5.436   9.535  0.6258  0.2681 -0.1588
  221MOL0     C30427   0.910   5.351   9.422  0.5834  0.0347 -0.0910
  221MOL0     C30428   0.811   5.238   9.407 -0.6146 -0.0325  0.0300
  221MOL0     H30429   1.007   4.966   9.169 -1.1325  0.6339  0.1408
  221MOL0     H30430   1.001   4.818   8.956 -0.5238  0.1449 -0.0924
  221MOL0     H30431   1.085   4.786   8.600  1.3539 -0.0573 -0.3918
  221MOL0     H30432   1.167   4.844   8.740 -1.6735  1.4186  3.4707
  221MOL0     H30433   1.193   5.066   8.601 -3.0822  3.6638 -2.8212
  221MOL0     H30434   1.231   4.927   8.496 -0.9370 -0.0707 -1.0221
  221MOL0     H30435   0.949   5.047   8.508 -0.3497 -0.5909 -0.8057
  221MOL0     H30436   1.089   5.095   8.392 -0.0460  0.1598 -0.5983
  221MOL0     H30437   1.102   4.856   8.320 -0.0424 -0.4951  0.7558
  221MOL0     H30438   0.967   4.810   8.415  1.7490 -0.4541  0.5277
  221MOL0     H30439   0.949   5.015   8.204  0.6326  0.1948  2.0581
  221MOL0     H30440   0.811   4.936   8.279 -0.4097 -1.4707 -0.2150
  221MOL0     H30441   0.854   4.854   8.056 -0.2688  1.6022  0.7291
  221MOL0     H30442   1.016   4.824   8.081 -1.3378 -0.8649 -0.9762
  221MOL0     H30443   0.817   4.668   8.226 -0.5194  0.8847  0.4515
  221MOL0     H30444   0.994   4.643   8.242  0.0678  0.1923  0.5066
  221MOL0     H30445   0.853   4.592   7.980 -1.1425 -0.8197 -0.3048
  221MOL0     H30446   1.029   4.604   8.003  1.8856 -3.3724  1.8392
  221MOL0     H30447   0.799   4.323   8.038 -1.8515  6.3282  1.2517
  221MOL0     H30448   0.927   4.054   8.270  0.6911 -3.4147 -0.5959
  221MOL0     H30449   1.010   4.006   8.121 -1.6318  0.3646 -2.1140
  221MOL0     H30450   0.717   4.074   8.156  1.1079 -1.8923  0.8946
  221MOL0     H30451   0.779   4.052   7.993 -0.5234 -3.2832 -1.2026
  221MOL0     H30452   0.688   3.846   8.061  1.2856 -1.4573 -1.4777
  221MOL0     H30453   0.876   3.835   8.068 -1.1542 -1.7169 -0.7368
  221MOL0     H30454   0.852   3.844   8.310 -0.3027  0.7594 -0.2451
  221MOL0     H30455   0.670   3.828   8.284 -0.9250  1.1742 -2.2412
  221MOL0     H30456   0.829   3.559   8.470 -1.5532  2.0399  1.2525
  221MOL0     H30457   0.819   3.395   8.633  1.1260 -3.1998  0.8017
  221MOL0     H30458   0.687   3.279   8.639 -0.0735 -0.3910 -0.3385
  221MOL0     H30459   0.666   3.445   8.701  0.4939 -2.0088  2.2154
  221MOL0     H30460   0.264   2.968   8.476  0.0515 -0.3828 -0.4615
  221MOL0     H30461   0.035   2.940   8.479  1.5214  1.5257  3.7917
  221MOL0     H30462  -0.195   2.904   8.433 -0.6832 -1.5388  3.3568
  221MOL0     H30463  -0.192   3.028   8.554 -4.3269 -1.7105  1.4309
  221MOL0     H30464  -0.403   3.135   8.454  1.9342  1.0312  0.1341
  221MOL0     H30465  -0.416   3.007   8.342 -3.4455 -1.9657  1.1034
  221MOL0     H30466  -0.479   3.002   8.622  5.5972  2.5652  1.5528
  221MOL0     H30467  -0.373   2.880   8.601  1.6514  1.2128 -0.5568
  221MOL0     H30468  -0.516   2.816   8.377 -3.2947  1.0295 -1.9014
  221MOL0     H30469  -0.625   2.939   8.430 -0.6618 -1.0591 -2.3509
  221MOL0     H30470  -0.560   2.689   8.579 -0.3890 -0.7740 -0.8926
  221MOL0     H30471  -0.642   2.803   8.667  0.4956 -1.7898  1.5855
  221MOL0     H30472  -0.750   2.661   8.418 -1.3621 -0.4039  0.3024
  221MOL0     H30473  -0.829   2.790   8.496  2.1003  2.5320  3.3141
  221MOL0     H30474  -0.906   2.576   8.585  2.1830 -1.2353 -3.1775
  221MOL0     H30475  -0.844   2.673   8.721  1.4803 -0.0392  0.5617
  221MOL0     H30476  -0.654   2.534   8.732 -0.0978 -0.8443  0.2176
  221MOL0     H30477  -0.681   2.458   8.575 -0.4157 -2.8358  1.9464
  221MOL0     H30478  -0.031   3.310   8.273  1.0857 -0.0518 -0.2182
  221MOL0     H30479   0.226   3.338   8.272 -3.1142  0.4830 -2.8116
  221MOL0     H30480   0.442   3.382   8.237  0.8121 -2.6970  0.7019
  221MOL0     H30481   0.579   3.555   8.118 -1.7419  4.5352  1.6246
  221MOL0     H30482   0.895   5.155   8.725 -0.8202  0.1758  0.7200
  221MOL0     H30483   0.869   5.293   8.924  1.0360  0.3256  0.5488
  221MOL0     H30484   1.166   5.501   9.289 -0.2551  1.2418  0.8838
  221MOL0     H30485   1.136   5.657   9.472 -0.6977  0.5214 -0.5586
  221MOL0     H30486   0.754   5.582   9.687 -3.4937  3.0191 -0.5797
  221MOL0     H30487   0.849   5.607   9.827  0.4128 -0.9072 -1.7843
  221MOL0     H30488   0.829   5.825   9.827 -0.4955 -3.1099  1.0219
  221MOL0     H30489   0.676   5.789   9.738  0.2687 -0.1231  0.5274
  221MOL0     H30490   0.808   5.985   9.630  3.1681  0.3610  0.6542
  221MOL0     H30491   0.941   5.882   9.601  0.2197  1.0998 -0.9684
  221MOL0     H30492   0.836   5.761   9.444 -1.7481 -2.6036 -0.3558
  221MOL0     H30493   0.773   5.922   9.402 -2.0903  0.5652  0.1990
  221MOL0     H30494   0.405   5.745   9.481  0.3998 -2.0339  0.6227
  221MOL0     H30495   0.812   5.419   9.613  1.7787  1.0758  1.1484
  221MOL0     H30496   0.741   5.263   9.327  1.5271  1.3456 -1.5351
  221MOL0     H30497   0.870   5.148   9.385 -0.0709 -0.0296  1.4042
  221MOL0     H30498   0.759   5.217   9.500 -1.5130  2.5245  0.1800
  222MOL0     O30499  10.935   7.054   8.270 -0.4686  0.5056  0.2184
  222MOL0     C30500  11.012   6.970   8.208  1.3607  0.3810 -0.2391
  222MOL0     O30501  11.015   6.836   8.235  0.9096  0.3819  0.4213
  222MOL0     C30502  10.950   6.810   8.351 -0.5009  0.2806  0.4317
  222MOL0     C30503  10.815   6.774   8.359 -0.2033  0.6609  1.1127
  222MOL0     C30504  10.754   6.719   8.471  0.5635  0.2090  0.2904
  222MOL0     C30505  10.827   6.703   8.587 -0.2976  0.3825 -1.1181
  222MOL0     O30506  10.770   6.621   8.680  0.5176  0.5461 -0.3694
  222MOL0     C30507  10.848   6.567   8.784 -0.5910  0.5314  0.2419
  222MOL0     C30508  10.763   6.452   8.840 -0.3942 -0.0716  0.9013
  222MOL0     C30509  10.857   6.362   8.920  0.7454 -0.3181  0.3515
  222MOL0     C30510  10.805   6.218   8.927  0.1670 -0.0900  0.7354
  222MOL0     C30511  10.905   6.133   9.004  0.0037 -0.4513 -0.1701
  222MOL0     C30512  10.847   5.997   9.042 -0.0171 -0.0606  0.3482
  222MOL0     C30513  10.950   5.902   9.115 -0.2873  0.3214  0.0514
  222MOL0     C30514  11.033   5.976   9.221 -0.0278 -0.0470 -0.5804
  222MOL0     N30515  11.119   5.879   9.287 -0.0991 -0.1215 -0.0791
  222MOL0     C30516  11.197   5.909   9.396 -0.7893  0.0688  0.7953
  222MOL0     C30517  11.304   5.831   9.391 -0.5927 -0.0907  1.1280
  222MOL0     C30518  11.421   5.830   9.486  0.1735  0.1918  0.0700
  222MOL0     C30519  11.381   5.771   9.625  0.1554 -0.5908 -0.0757
  222MOL0     C30520  11.509   5.792   9.716  0.0544 -0.4513 -0.2165
  222MOL0     C30521  11.627   5.689   9.685  0.5894  0.6248 -0.8081
  222MOL0     O30522  11.718   5.690   9.796  0.0056  0.1490 -0.3946
  222MOL0     C30523  11.817   5.598   9.791  0.6823  0.4280  0.1467
  222MOL0     C30524  11.863   5.537   9.672  0.2701  0.4770 -0.3010
  222MOL0     C30525  11.979   5.464   9.668  0.6224 -0.3981 -0.9676
  222MOL0     C30526  12.033   5.417   9.538  0.1665 -0.6031 -0.0540
  222MOL0     C30527  12.039   5.442   9.798 -0.3900  0.1000  0.0191
  222MOL0     C30528  12.160   5.366   9.824 -1.1822  0.4482  0.0450
  222MOL0     O30529  12.205   5.358   9.959 -0.3216  1.2085 -0.5339
  222MOL0     C30530  12.308   5.272  10.003 -0.1430 -0.4730 -0.1515
  222MOL0     C30531  12.333   5.143   9.958  0.3901 -0.1596 -0.4932
  222MOL0     C30532  12.425   5.064  10.017 -0.7619  0.0666 -0.3259
  222MOL0     C30533  12.514   5.118  10.115  1.0714  0.4221 -1.2643
  222MOL0     O30534  12.608   5.039  10.189  0.2301  0.3404  0.1181
  222MOL0     C30535  12.648   4.922  10.117 -0.3017  0.4505 -0.2643
  222MOL0     C30536  12.745   4.850  10.208 -0.7999 -0.4944  0.7298
  222MOL0     C30537  12.870   4.931  10.237  1.2187 -0.1484 -0.0192
  222MOL0     C30538  12.955   4.855  10.332  0.2017  1.1349 -0.0262
  222MOL0     C30539  13.070   4.946  10.383  0.5054  0.3008  1.0751
  222MOL0     C30540  13.134   4.902  10.515  0.6354  0.6209  0.5199
  222MOL0     C30541  13.252   4.974  10.568  0.4305 -0.9909 -0.1537
  222MOL0     C30542  13.322   4.911  10.688  0.6189  0.2629 -0.4620
  222MOL0    Cl30543  13.477   5.000  10.722 -0.1120  0.0129  0.0074
  222MOL0     C30544  12.491   5.250  10.158  0.9076 -0.5065 -0.0836
  222MOL0     C30545  12.384   5.321  10.109  0.0920 -0.0577  0.2283
  222MOL0     O30546  12.207   5.289   9.741  0.1596  0.1269 -0.1541
  222MOL0     C30547  11.980   5.490   9.921  0.6592 -0.0005  0.5156
  222MOL0     C30548  11.873   5.569   9.914  0.2931 -0.6401 -0.4824
  222MOL0     N30549  11.288   5.742   9.279  0.2200  0.6207  0.0533
  222MOL0     N30550  11.180   5.775   9.217 -1.2498  0.2943 -0.6012
  222MOL0     C30551  10.962   6.747   8.594 -0.1475  0.1374 -0.4660
  222MOL0     C30552  11.017   6.798   8.469 -0.4181 -0.6394 -0.8313
  222MOL0     C30553  11.091   7.022   8.092  0.4224  1.2018 -0.1674
  222MOL0     C30554  11.201   6.939   8.062  0.1778  0.0719 -0.4832
  222MOL0     C30555  11.313   6.996   7.984 -0.5657  0.5731  0.6577
  222MOL0     C30556  11.299   7.122   7.929 -0.0565  0.1548  0.1571
  222MOL0     O30557  11.397   7.181   7.848 -0.4524 -0.2652  0.8220
  222MOL0     C30558  11.396   7.155   7.704 -0.0437 -0.2348 -1.1107
  222MOL0     C30559  11.313   7.265   7.632  0.0969  0.3171 -0.1382
  222MOL0     C30560  11.409   7.375   7.585 -0.1700 -0.6931  0.8128
  222MOL0     C30561  11.333   7.491   7.525  0.2860 -0.5498 -0.3428
  222MOL0     C30562  11.237   7.556   7.616  0.4758  1.1832  0.3189
  222MOL0     C30563  11.142   7.596   7.681 -0.9310 -0.2926 -0.6493
  222MOL0     C30564  11.173   7.178   7.949 -0.5959 -0.9876 -0.4573
  222MOL0     C30565  11.067   7.137   8.027 -0.7638  0.2720 -0.2960
  222MOL0     C30566  10.944   7.230   8.020 -0.2210 -0.7473 -0.2910
  222MOL0     H30567  10.782   6.760   8.256  2.9890 -2.6683  0.3189
  222MOL0     H30568  10.655   6.678   8.458  0.2938 -0.7628  4.0388
  222MOL0     H30569  10.857   6.649   8.857 -1.1055  1.6927 -0.9576
  222MOL0     H30570  10.946   6.535   8.749 -2.4156 -1.2596 -3.8423
  222MOL0     H30571  10.678   6.485   8.900 -0.2088  1.6057  0.3028
  222MOL0     H30572  10.720   6.402   8.754 -1.7173  2.8139 -0.2381
  222MOL0     H30573  10.953   6.354   8.868 -0.2826  0.0107 -1.6966
  222MOL0     H30574  10.874   6.398   9.022  1.1541 -0.1022  0.2087
  222MOL0     H30575  10.703   6.214   8.966 -1.8547  0.3115 -3.9023
  222MOL0     H30576  10.791   6.194   8.822  1.4733  1.9588  0.0479
  222MOL0     H30577  10.932   6.179   9.099 -0.5258 -1.6598  0.5949
  222MOL0     H30578  10.999   6.121   8.949  0.8533 -0.4126  1.2377
  222MOL0     H30579  10.766   6.033   9.106 -1.1465  3.3194 -2.6426
  222MOL0     H30580  10.798   5.950   8.956  0.6048  0.7551 -0.4790
  222MOL0     H30581  11.025   5.863   9.045 -0.8624  0.1427 -0.4743
  222MOL0     H30582  10.897   5.820   9.165  1.2814  1.0499  3.1570
  222MOL0     H30583  11.093   6.055   9.175  0.7002  1.5961  2.9039
  222MOL0     H30584  10.975   6.029   9.296  4.8082  3.0904  1.4343
  222MOL0     H30585  11.185   5.996   9.459  1.9737  0.9786  0.1966
  222MOL0     H30586  11.449   5.936   9.498 -1.4511  0.6580  0.0115
  222MOL0     H30587  11.499   5.763   9.448 -1.9304 -3.2911  1.4930
  222MOL0     H30588  11.300   5.823   9.676 -0.7857 -0.9742 -1.1543
  222MOL0     H30589  11.353   5.667   9.607  0.2027 -0.4484 -1.0269
  222MOL0     H30590  11.540   5.895   9.694 -0.2024 -0.8044 -2.5080
  222MOL0     H30591  11.493   5.782   9.824 -1.6597  1.9054 -0.1896
  222MOL0     H30592  11.583   5.591   9.666  2.6032 -1.0409  2.3648
  222MOL0     H30593  11.685   5.734   9.604  2.3822  1.4810  0.8656
  222MOL0     H30594  11.821   5.559   9.574  1.0711 -0.3104 -0.8407
  222MOL0     H30595  11.996   5.485   9.462 -0.4427 -1.6663 -0.7355
  222MOL0     H30596  12.000   5.319   9.503 -1.9047  0.0212  0.0372
  222MOL0     H30597  12.142   5.415   9.534  0.1760  0.7575 -3.2120
  222MOL0     H30598  12.265   5.115   9.877 -1.3825  1.4727  0.3433
  222MOL0     H30599  12.418   4.957   9.999 -0.7888  0.0538 -0.2408
  222MOL0     H30600  12.564   4.853  10.107 -0.0738 -0.3481  2.4534
  222MOL0     H30601  12.683   4.945  10.016 -1.2792 -0.8809 -0.9395
  222MOL0     H30602  12.687   4.829  10.298  1.8670 -3.4222  1.9782
  222MOL0     H30603  12.764   4.750  10.167 -0.6760 -0.3207  0.3582
  222MOL0     H30604  12.839   5.018  10.296  2.0106 -0.7379  1.2910
  222MOL0     H30605  12.934   4.975  10.160  1.3897  2.1832  1.3603
  222MOL0     H30606  12.997   4.769  10.278  0.1775  0.4198  1.0599
  222MOL0     H30607  12.901   4.808  10.415  0.4172  0.1416 -0.4281
  222MOL0     H30608  13.142   4.958  10.302 -2.2635  2.9675 -1.2686
  222MOL0     H30609  13.026   5.045  10.398 -0.6089 -0.2881  1.8785
  222MOL0     H30610  13.167   4.798  10.505 -1.6202 -0.0225 -0.8530
  222MOL0     H30611  13.063   4.901  10.597  0.6063 -3.0254  0.5910
  222MOL0     H30612  13.229   5.079  10.590 -1.3708 -1.6524  1.3161
  222MOL0     H30613  13.327   4.985  10.489  4.6627 -1.4936  3.3532
  222MOL0     H30614  13.336   4.806  10.663 -1.3237 -0.7385  2.1446
  222MOL0     H30615  13.257   4.908  10.776  0.4594  0.1626 -0.5837
  222MOL0     H30616  12.552   5.280  10.242  3.6634 -1.2182 -1.7068
  222MOL0     H30617  12.366   5.422  10.145 -3.0934 -0.8533  1.1677
  222MOL0     H30618  12.015   5.468  10.021  3.3119 -1.5241 -0.6606
  222MOL0     H30619  11.820   5.597  10.004 -1.3415 -2.0289 -0.9441
  222MOL0     H30620  11.021   6.729   8.683  0.1665  0.4698 -0.6050
  222MOL0     H30621  11.123   6.825   8.473 -0.4660 -0.5359  2.2422
  222MOL0     H30622  11.219   6.845   8.114  0.5444  0.0412 -0.6630
  222MOL0     H30623  11.403   6.943   7.955 -0.0352  1.1875  1.1562
  222MOL0     H30624  11.499   7.156   7.670  0.8039  0.9968  1.2521
  222MOL0     H30625  11.358   7.053   7.689 -0.9153 -0.3831  1.5684
  222MOL0     H30626  11.226   7.287   7.695  0.1327  2.6279 -0.8048
  222MOL0     H30627  11.275   7.200   7.552 -1.9955 -2.1915  2.6715
  222MOL0     H30628  11.467   7.416   7.669 -1.2431 -0.7506  1.6069
  222MOL0     H30629  11.481   7.341   7.511 -1.1386  0.4874 -0.7259
  222MOL0     H30630  11.285   7.453   7.434  0.1207 -3.7512  0.9318
  222MOL0     H30631  11.417   7.552   7.493  0.8390 -2.0892 -1.9101
  222MOL0     H30632  11.064   7.621   7.750  1.6497 -2.6661  3.6202
  222MOL0     H30633  11.160   7.259   7.878 -2.3481 -0.8100 -0.0036
  222MOL0     H30634  10.958   7.292   8.109  1.3048  0.1651 -1.0999
  222MOL0     H30635  10.930   7.291   7.930 -1.5500  0.2127  0.5277
  222MOL0     H30636  10.850   7.177   8.032 -1.3915  0.9476 -1.3864
  223MOL0     O30637   6.490   5.480   4.548 -0.2600 -0.1825 -0.2567
  223MOL0     C30638   6.479   5.378   4.473 -0.2855 -0.6523 -0.0124
  223MOL0     O30639   6.539   5.264   4.485  0.0758  0.2657 -0.1469
  223MOL0     C30640   6.629   5.224   4.582  0.3149 -0.3026 -0.2417
  223MOL0     C30641   6.748   5.154   4.552  0.9442  0.2397  0.6212
  223MOL0     C30642   6.847   5.121   4.651 -0.5358 -0.7059 -0.0437
  223MOL0     C30643   6.828   5.164   4.781 -0.3188 -0.5547  0.3867
  223MOL0     O30644   6.917   5.113   4.875  0.2355  0.1977  0.3021
  223MOL0     C30645   6.863   5.082   4.997 -0.0569  0.4644  0.2542
  223MOL0     C30646   6.957   4.983   5.061 -0.3185  0.5864 -0.2826
  223MOL0     C30647   7.089   5.048   5.081 -0.4944  0.1601  0.2247
  223MOL0     C30648   7.088   5.185   5.151 -0.2169 -1.0484  0.1713
  223MOL0     C30649   7.221   5.217   5.230  0.1249  0.3073 -0.7007
  223MOL0     C30650   7.195   5.345   5.310  1.0487  0.9652  0.2482
  223MOL0     C30651   7.318   5.410   5.378 -0.4758  0.4566 -0.4168
  223MOL0     C30652   7.389   5.329   5.479 -0.5308  0.0838 -0.2548
  223MOL0     N30653   7.299   5.307   5.593  0.8765  0.0421 -0.2184
  223MOL0     C30654   7.237   5.407   5.668 -0.1346  0.9984 -0.2231
  223MOL0     C30655   7.171   5.340   5.769 -0.1103 -0.5413 -0.0250
  223MOL0     C30656   7.079   5.395   5.866 -0.1510  0.2847 -0.4564
  223MOL0     C30657   6.933   5.354   5.835 -0.0510 -0.1935  0.6299
  223MOL0     C30658   6.835   5.429   5.931 -0.5699  0.0634 -0.9241
  223MOL0     C30659   6.694   5.398   5.892 -0.1929 -0.2460 -0.8261
  223MOL0     O30660   6.656   5.463   5.766 -0.5492  0.1437 -0.0704
  223MOL0     C30661   6.526   5.499   5.764 -0.0987 -0.3052  1.6432
  223MOL0     C30662   6.414   5.426   5.806  0.2739 -1.1842  1.2028
  223MOL0     C30663   6.288   5.484   5.798 -0.4875 -0.2405  0.0456
  223MOL0     C30664   6.178   5.410   5.874  0.4527 -0.1570  0.0090
  223MOL0     C30665   6.264   5.610   5.737 -0.3874 -0.1048  0.3202
  223MOL0     C30666   6.127   5.675   5.724 -0.2408 -0.0603 -0.4970
  223MOL0     O30667   6.024   5.587   5.700 -0.3950 -0.3551  0.0390
  223MOL0     C30668   5.895   5.622   5.709 -0.1974 -0.8666  0.3966
  223MOL0     C30669   5.829   5.740   5.748 -0.8041 -0.1578 -0.0464
  223MOL0     C30670   5.688   5.751   5.775 -0.3992  0.0618  0.2551
  223MOL0     C30671   5.604   5.642   5.754  0.5009  0.1100  0.8719
  223MOL0     O30672   5.461   5.658   5.774 -0.2804  0.5134  0.2100
  223MOL0     C30673   5.413   5.581   5.881 -0.2320 -0.6742 -0.6250
  223MOL0     C30674   5.266   5.603   5.895 -0.1124 -0.3799  0.2730
  223MOL0     C30675   5.207   5.508   6.007  0.5216 -1.0608  0.0536
  223MOL0     C30676   5.243   5.539   6.149  0.3223 -0.3284  0.3837
  223MOL0     C30677   5.224   5.426   6.248 -0.3579  0.4910  0.2644
  223MOL0     C30678   5.080   5.365   6.246 -0.4957  0.0539  0.1610
  223MOL0     C30679   5.064   5.225   6.311  0.0094  0.0905  0.7933
  223MOL0     C30680   4.917   5.196   6.348  0.9709  0.3083  0.4244
  223MOL0    Cl30681   4.894   5.059   6.459 -0.5308  0.4049  0.1532
  223MOL0     C30682   5.663   5.518   5.708 -0.0351 -0.0091 -0.2366
  223MOL0     C30683   5.800   5.514   5.678 -0.3810  0.3266  0.0248
  223MOL0     O30684   6.117   5.797   5.723 -0.0411 -0.7452 -0.1160
  223MOL0     C30685   6.377   5.676   5.683  0.5895 -1.5424 -0.0141
  223MOL0     C30686   6.502   5.622   5.695 -0.1491 -0.0277 -0.2179
  223MOL0     N30687   7.206   5.203   5.759  0.0847 -0.0790 -1.0501
  223MOL0     N30688   7.252   5.187   5.637  0.5455  0.2216  0.3051
  223MOL0     C30689   6.712   5.236   4.809 -0.7827 -0.4942 -0.0763
  223MOL0     C30690   6.611   5.260   4.722  0.0343 -0.8901 -0.2281
  223MOL0     C30691   6.400   5.396   4.345  0.5271  0.0153 -0.7555
  223MOL0     C30692   6.315   5.280   4.314  0.6430  0.2155  0.1147
  223MOL0     C30693   6.248   5.274   4.191  0.4194 -0.1446  0.2706
  223MOL0     C30694   6.256   5.382   4.107  0.0451 -0.5486 -0.5797
  223MOL0     O30695   6.202   5.386   3.977  0.2978  0.1371 -0.8001
  223MOL0     C30696   6.137   5.259   3.928  0.6916  0.3726 -0.2190
  223MOL0     C30697   6.055   5.299   3.801  0.0606  0.0516  1.0481
  223MOL0     C30698   6.135   5.376   3.697 -0.1082  0.4668 -0.8236
  223MOL0     C30699   6.049   5.401   3.575  0.1803  0.4535  0.2601
  223MOL0     C30700   6.133   5.478   3.477 -0.7680 -0.6503 -0.1780
  223MOL0     C30701   6.215   5.530   3.404 -0.3653 -0.7786 -0.2533
  223MOL0     C30702   6.325   5.492   4.142 -0.4426 -0.0546 -0.1372
  223MOL0     C30703   6.393   5.509   4.258 -0.7488  0.7019 -0.3264
  223MOL0     C30704   6.467   5.640   4.273 -0.0839 -0.7497  0.6012
  223MOL0     H30705   6.759   5.128   4.448 -1.8872 -1.1169  0.5735
  223MOL0     H30706   6.940   5.072   4.625 -0.4806 -0.7317  0.1993
  223MOL0     H30707   6.760   5.045   5.003 -1.0347  3.2636  2.8583
  223MOL0     H30708   6.863   5.175   5.054  0.9606 -0.8782  2.5419
  223MOL0     H30709   6.918   4.952   5.158  1.1889  2.1003  0.8575
  223MOL0     H30710   6.974   4.900   4.991  2.3339  0.8353 -0.0468
  223MOL0     H30711   7.141   4.979   5.149 -1.4152  2.2623  3.3135
  223MOL0     H30712   7.147   5.060   4.990 -0.9867 -0.0883 -0.1254
  223MOL0     H30713   7.077   5.263   5.074  0.0889 -1.9993 -0.8609
  223MOL0     H30714   7.011   5.197   5.227  0.2149  2.6546  0.2030
  223MOL0     H30715   7.314   5.228   5.173  0.0660  2.8916 -0.4584
  223MOL0     H30716   7.243   5.135   5.299 -2.9069  0.1871  0.2279
  223MOL0     H30717   7.138   5.419   5.253  0.9629 -0.3718 -1.4753
  223MOL0     H30718   7.125   5.312   5.388  0.0889 -3.3612 -2.1527
  223MOL0     H30719   7.288   5.504   5.424  2.5387  1.6073 -0.5502
  223MOL0     H30720   7.397   5.443   5.309 -0.4246 -0.2379 -0.6985
  223MOL0     H30721   7.425   5.232   5.443  0.2285 -0.6542  2.2647
  223MOL0     H30722   7.484   5.372   5.514 -1.2596  0.0395  1.9709
  223MOL0     H30723   7.233   5.515   5.651 -5.3847  2.1600  5.1284
  223MOL0     H30724   7.086   5.504   5.876 -2.3691  0.3649  1.1103
  223MOL0     H30725   7.109   5.365   5.967 -0.6513  2.4218  0.3984
  223MOL0     H30726   6.918   5.388   5.732 -0.4038 -1.8577  0.1171
  223MOL0     H30727   6.915   5.247   5.841 -0.0796 -0.2048  0.3563
  223MOL0     H30728   6.861   5.371   6.021  3.5360 -2.2572 -3.2635
  223MOL0     H30729   6.856   5.536   5.944 -0.5061 -0.0348 -0.1417
  223MOL0     H30730   6.672   5.291   5.880 -1.0939  0.1518 -3.7498
  223MOL0     H30731   6.627   5.432   5.971 -1.9263 -1.2893 -1.7749
  223MOL0     H30732   6.418   5.324   5.843 -0.0643 -1.9500 -0.7245
  223MOL0     H30733   6.099   5.481   5.902 -1.4556 -2.5443  1.0149
  223MOL0     H30734   6.217   5.365   5.966  0.0568  2.0911  1.3554
  223MOL0     H30735   6.145   5.333   5.804 -1.3068  3.0083 -3.0187
  223MOL0     H30736   5.881   5.833   5.767 -0.1894 -0.5060  0.0024
  223MOL0     H30737   5.646   5.842   5.818 -2.5817 -0.7797  0.0104
  223MOL0     H30738   5.425   5.474   5.861 -0.7984 -1.2600  1.8863
  223MOL0     H30739   5.460   5.597   5.978 -0.0535 -1.3137 -0.5990
  223MOL0     H30740   5.241   5.707   5.918  0.7121  0.7659 -3.3471
  223MOL0     H30741   5.228   5.575   5.796  1.6329 -0.1553 -0.4931
  223MOL0     H30742   5.248   5.412   5.976  2.9396  0.5673 -2.1422
  223MOL0     H30743   5.100   5.494   5.988  0.3732  1.4489 -1.3796
  223MOL0     H30744   5.198   5.628   6.193  2.7403  1.2793 -0.1884
  223MOL0     H30745   5.351   5.555   6.153  0.4141 -0.5024 -0.8139
  223MOL0     H30746   5.292   5.344   6.220  1.4843  1.4396  1.7595
  223MOL0     H30747   5.255   5.451   6.349  3.6581 -1.6295 -0.2103
  223MOL0     H30748   5.038   5.356   6.145  2.0341  1.9109 -1.1797
  223MOL0     H30749   5.022   5.446   6.291 -0.7629 -0.6258  1.0796
  223MOL0     H30750   5.133   5.207   6.394 -0.2743  1.2136  1.2985
  223MOL0     H30751   5.095   5.150   6.237 -1.3323 -0.7378  1.0425
  223MOL0     H30752   4.859   5.197   6.256  1.6409  4.8911 -0.1761
  223MOL0     H30753   4.882   5.280   6.408 -0.6961  0.7196 -1.0460
  223MOL0     H30754   5.593   5.435   5.696 -2.0321  1.7911 -1.8715
  223MOL0     H30755   5.851   5.424   5.643  1.6801  0.1774  3.0431
  223MOL0     H30756   6.371   5.778   5.646  0.5404 -1.3124  0.6313
  223MOL0     H30757   6.592   5.674   5.661 -1.1565  1.8978 -0.0625
  223MOL0     H30758   6.701   5.273   4.910  0.3419  0.6944 -0.3509
  223MOL0     H30759   6.526   5.315   4.762  2.1108  1.9515  0.5985
  223MOL0     H30760   6.318   5.189   4.374  1.7441  0.4290  0.3995
  223MOL0     H30761   6.207   5.176   4.167  1.9108 -1.0437  1.2170
  223MOL0     H30762   6.210   5.179   3.915  1.4469  0.3949  3.0748
  223MOL0     H30763   6.061   5.231   4.001 -1.4614  3.7909 -0.9422
  223MOL0     H30764   5.970   5.362   3.824 -0.4571 -0.1744 -0.1481
  223MOL0     H30765   6.018   5.206   3.756  3.1865 -2.1154  2.5733
  223MOL0     H30766   6.160   5.470   3.747 -2.3833  2.2831 -2.8131
  223MOL0     H30767   6.232   5.334   3.669 -0.2283 -0.3264 -0.0869
  223MOL0     H30768   5.952   5.447   3.596 -0.8967 -2.0277  1.1393
  223MOL0     H30769   6.026   5.305   3.528  0.7274  0.8144 -0.7622
  223MOL0     H30770   6.288   5.591   3.356  1.4832  0.3098  3.5089
  223MOL0     H30771   6.317   5.575   4.072 -4.7989  0.1140  0.2859
  223MOL0     H30772   6.446   5.697   4.364  1.3885  0.9207 -0.0458
  223MOL0     H30773   6.574   5.627   4.260  0.5955  0.3258  4.1858
  223MOL0     H30774   6.431   5.708   4.195  0.5810 -0.5272  0.4838
  224MOL0     O30775   8.684  10.834   4.439 -0.1807  0.2795  0.5032
  224MOL0     C30776   8.733  10.899   4.526  1.1720  0.3339 -0.3466
  224MOL0     O30777   8.658  10.993   4.599 -0.1395  0.0482  0.3921
  224MOL0     C30778   8.521  10.975   4.581 -0.0954  0.2766  0.1791
  224MOL0     C30779   8.448  11.050   4.476  0.0476 -1.0245  0.5555
  224MOL0     C30780   8.313  11.018   4.446  0.2930  0.5282 -0.1596
  224MOL0     C30781   8.243  10.928   4.526  0.1641 -0.6309  0.9018
  224MOL0     O30782   8.111  10.894   4.511  0.1240  0.1201 -0.0816
  224MOL0     C30783   8.025  10.976   4.437  0.5972  0.5582 -0.7216
  224MOL0     C30784   7.885  10.908   4.410  0.5594 -1.6146 -0.5972
  224MOL0     C30785   7.761  11.007   4.413  0.4735 -0.5799 -0.1024
  224MOL0     C30786   7.724  11.034   4.267 -0.7629  0.3858  0.9937
  224MOL0     C30787   7.640  10.909   4.206  0.2082 -0.0039 -0.3886
  224MOL0     C30788   7.540  10.958   4.105 -0.1512  0.0181  0.7154
  224MOL0     C30789   7.477  10.845   4.037 -0.0018 -0.5131  0.5755
  224MOL0     C30790   7.417  10.904   3.919  0.6288  0.7351  0.7178
  224MOL0     N30791   7.335  10.802   3.841 -0.9242 -0.4092  0.6510
  224MOL0     C30792   7.253  10.717   3.900  0.5928 -0.3764 -0.6142
  224MOL0     C30793   7.225  10.618   3.805  0.5991  0.3700 -0.1511
  224MOL0     C30794   7.131  10.497   3.836  0.2402 -0.0683 -0.1179
  224MOL0     C30795   7.166  10.401   3.949  0.0428 -0.0918  0.5990
  224MOL0     C30796   7.215  10.270   3.889  0.5944 -0.9030 -0.7158
  224MOL0     C30797   7.288  10.184   3.992 -0.2685  0.5113  0.6499
  224MOL0     O30798   7.400  10.245   4.062  0.3146 -0.3583  0.1769
  224MOL0     C30799   7.508  10.246   3.972  0.5887  0.8353  0.4540
  224MOL0     C30800   7.541  10.358   3.900  0.7164 -0.1754  0.4598
  224MOL0     C30801   7.645  10.362   3.799 -0.2084 -0.2310  0.1161
  224MOL0     C30802   7.667  10.497   3.739 -0.2274  0.4478 -0.4780
  224MOL0     C30803   7.714  10.235   3.769 -0.0912 -0.3715 -0.6421
  224MOL0     C30804   7.830  10.229   3.672  0.0843  0.4862 -0.0356
  224MOL0     O30805   7.884  10.343   3.614  0.3635  0.3590  0.2259
  224MOL0     C30806   7.988  10.327   3.517  0.1600  0.5946 -0.3714
  224MOL0     C30807   8.105  10.260   3.555 -0.2385 -1.6759  0.2276
  224MOL0     C30808   8.199  10.234   3.464 -0.7593  0.7271  0.0866
  224MOL0     C30809   8.187  10.283   3.331  0.2495 -0.0311 -0.5308
  224MOL0     O30810   8.280  10.252   3.241 -0.0567  1.1698  0.6497
  224MOL0     C30811   8.420  10.260   3.269  0.8691 -0.7817 -0.1701
  224MOL0     C30812   8.495  10.192   3.161  1.1212  0.7675  0.3507
  224MOL0     C30813   8.504  10.275   3.028 -0.4983 -0.1124  0.1901
  224MOL0     C30814   8.614  10.224   2.926 -0.8564 -0.1843 -0.3734
  224MOL0     C30815   8.572  10.268   2.776 -0.0862 -0.8945  0.2638
  224MOL0     C30816   8.470  10.172   2.701 -0.2226  0.2958 -0.0176
  224MOL0     C30817   8.334  10.140   2.766 -1.2679 -0.1477  0.3028
  224MOL0     C30818   8.259  10.023   2.695 -0.1326 -0.4129  0.9066
  224MOL0    Cl30819   8.219  10.079   2.533  0.2139  0.1586 -0.3928
  224MOL0     C30820   8.063  10.334   3.285 -0.0077  0.2849  0.0963
  224MOL0     C30821   7.952  10.350   3.381 -0.3794  0.0533 -0.1217
  224MOL0     O30822   7.833  10.116   3.616 -0.7033 -0.2254 -0.1863
  224MOL0     C30823   7.674  10.120   3.841  0.5335 -0.5106 -0.4158
  224MOL0     C30824   7.581  10.134   3.943 -0.7548  0.2321  0.1629
  224MOL0     N30825   7.292  10.649   3.688  0.0606  0.2687 -0.0874
  224MOL0     N30826   7.351  10.766   3.703 -0.6269  0.0951 -0.2502
  224MOL0     C30827   8.312  10.857   4.626 -0.6544 -0.4407 -0.1553
  224MOL0     C30828   8.448  10.888   4.661 -0.7960 -0.7674 -0.8289
  224MOL0     C30829   8.882  10.893   4.545  0.1941  0.8240 -0.3446
  224MOL0     C30830   8.943  10.984   4.643 -0.0789  0.4081  0.6083
  224MOL0     C30831   9.081  10.986   4.667  0.2125  0.9678 -0.2928
  224MOL0     C30832   9.164  10.897   4.600 -0.0849 -0.5713  1.0522
  224MOL0     O30833   9.302  10.889   4.631  0.4184  0.6757 -0.4501
  224MOL0     C30834   9.330  10.863   4.772 -0.1519 -0.6987  0.7153
  224MOL0     C30835   9.270  10.724   4.817 -0.4408  0.3084 -0.4187
  224MOL0     C30836   9.321  10.689   4.949 -0.4565  0.4014  0.5892
  224MOL0     C30837   9.218  10.593   5.014  0.2995  0.1774 -0.6020
  224MOL0     C30838   9.231  10.463   4.954 -0.7779  0.0410 -0.4624
  224MOL0     C30839   9.250  10.352   4.900 -1.1727 -0.5015 -0.6892
  224MOL0     C30840   9.108  10.814   4.500 -0.4162  0.1236 -0.2386
  224MOL0     C30841   8.968  10.809   4.472 -0.7170  0.3365  0.2110
  224MOL0     C30842   8.914  10.708   4.371  0.0939  0.5335  0.1284
  224MOL0     H30843   8.490  11.118   4.402  0.5510 -2.5932 -0.6650
  224MOL0     H30844   8.270  11.054   4.353  0.0521  1.2253  0.2151
  224MOL0     H30845   8.064  10.998   4.338 -2.3836  1.2405 -1.8563
  224MOL0     H30846   8.012  11.071   4.489  0.8392 -1.3291  3.2196
  224MOL0     H30847   7.887  10.859   4.312 -2.2761 -0.5947 -1.2924
  224MOL0     H30848   7.852  10.832   4.482 -0.3800 -1.1483 -0.5111
  224MOL0     H30849   7.679  10.975   4.478 -2.1860  1.8417 -1.9711
  224MOL0     H30850   7.785  11.103   4.461  0.4534 -1.0505  0.8765
  224MOL0     H30851   7.662  11.124   4.256 -1.4070 -0.1291  0.3305
  224MOL0     H30852   7.814  11.059   4.211 -1.6489  0.6335 -0.3520
  224MOL0     H30853   7.583  10.857   4.284  1.2088  0.4942  0.7020
  224MOL0     H30854   7.700  10.834   4.153 -1.7380 -4.1531  2.6633
  224MOL0     H30855   7.465  11.023   4.153 -1.2907 -0.7890  0.0881
  224MOL0     H30856   7.604  11.008   4.032 -2.2211  3.1239  0.7846
  224MOL0     H30857   7.403  10.801   4.104 -1.2846  0.8220  0.0758
  224MOL0     H30858   7.553  10.773   4.005 -2.6955 -2.2501 -2.6182
  224MOL0     H30859   7.335  10.977   3.931  0.8184  1.2106 -0.7164
  224MOL0     H30860   7.493  10.941   3.850 -1.2849  0.3911 -1.7053
  224MOL0     H30861   7.220  10.718   4.003 -0.0745  0.6291 -0.8205
  224MOL0     H30862   7.106  10.450   3.740 -0.5329 -1.7673  0.8737
  224MOL0     H30863   7.041  10.546   3.873  0.1429 -0.4515  0.1580
  224MOL0     H30864   7.238  10.442   4.021 -0.9456  0.3043  1.3921
  224MOL0     H30865   7.081  10.373   4.012  0.8561 -1.8287  0.9724
  224MOL0     H30866   7.129  10.223   3.840  0.2702  1.0684 -2.1755
  224MOL0     H30867   7.287  10.309   3.817  0.9180 -0.4019 -0.1338
  224MOL0     H30868   7.220  10.162   4.074  0.9033 -0.2516  1.4542
  224MOL0     H30869   7.327  10.100   3.934  1.5337 -0.1831  2.7076
  224MOL0     H30870   7.484  10.446   3.926 -2.4209 -2.1364  0.6848
  224MOL0     H30871   7.746  10.546   3.796 -2.4970 -0.4591  3.8675
  224MOL0     H30872   7.577  10.560   3.744  1.0793  2.3367  0.8682
  224MOL0     H30873   7.696  10.489   3.634  0.7234  1.3492 -0.3028
  224MOL0     H30874   8.119  10.237   3.660 -0.6892  0.0210  0.6937
  224MOL0     H30875   8.281  10.177   3.506  0.0137  2.5515  1.2090
  224MOL0     H30876   8.446  10.364   3.290  0.2649 -1.1009  2.4806
  224MOL0     H30877   8.438  10.200   3.359 -2.3377 -1.3530  0.1980
  224MOL0     H30878   8.598  10.173   3.193  1.5824  2.1538 -0.2599
  224MOL0     H30879   8.434  10.103   3.142  1.3669  0.9183 -1.2733
  224MOL0     H30880   8.520  10.379   3.056 -0.3357 -0.3902  1.1680
  224MOL0     H30881   8.409  10.275   2.974  0.6953 -1.3779 -2.0445
  224MOL0     H30882   8.627  10.116   2.935 -1.7132 -0.2294  0.4933
  224MOL0     H30883   8.711  10.271   2.944 -1.3220  1.2188 -1.2675
  224MOL0     H30884   8.533  10.370   2.783  3.9312  0.7850  1.0936
  224MOL0     H30885   8.665  10.284   2.719  0.8819  3.5942  2.6187
  224MOL0     H30886   8.518  10.076   2.680 -3.1547 -1.6493  1.4782
  224MOL0     H30887   8.447  10.219   2.605  2.8086  0.5328 -0.7294
  224MOL0     H30888   8.280  10.235   2.758 -2.0147 -0.2249  3.2634
  224MOL0     H30889   8.349  10.107   2.869 -0.4251 -1.1600 -0.1253
  224MOL0     H30890   8.172  10.009   2.759 -2.7454 -1.7632 -2.6043
  224MOL0     H30891   8.322   9.934   2.688  3.1903  1.8391 -3.1656
  224MOL0     H30892   8.063  10.349   3.178  2.0666 -1.7772 -0.2870
  224MOL0     H30893   7.855  10.381   3.343  0.5881  1.4456 -1.5708
  224MOL0     H30894   7.706  10.016   3.837  0.6105 -0.5133  0.2907
  224MOL0     H30895   7.550  10.041   3.989 -1.0436 -0.6269 -1.6713
  224MOL0     H30896   8.255  10.779   4.676 -1.0277 -0.8303 -1.1512
  224MOL0     H30897   8.507  10.847   4.742  0.6657  4.1954  0.9615
  224MOL0     H30898   8.881  11.053   4.699 -1.5395 -0.9903  0.7880
  224MOL0     H30899   9.114  11.049   4.749 -3.4510  0.9189  1.3952
  224MOL0     H30900   9.437  10.866   4.789 -0.1288  1.2026  0.4432
  224MOL0     H30901   9.287  10.945   4.830 -0.9766  2.2642 -3.5348
  224MOL0     H30902   9.294  10.641   4.750 -1.3920 -0.7855  0.5546
  224MOL0     H30903   9.162  10.744   4.823 -0.6107 -0.6873 -0.0811
  224MOL0     H30904   9.419  10.642   4.940 -0.2182  0.6200  1.8533
  224MOL0     H30905   9.344  10.769   5.020 -0.4873 -1.0312  2.3099
  224MOL0     H30906   9.115  10.628   5.010  0.5891  0.9130 -1.9201
  224MOL0     H30907   9.230  10.574   5.121 -2.4353  0.5262 -0.1589
  224MOL0     H30908   9.255  10.250   4.868 -1.5248 -0.5260 -0.6680
  224MOL0     H30909   9.189  10.756   4.459  0.7748  0.3699  1.6485
  224MOL0     H30910   8.858  10.764   4.295 -2.1951  1.0201  2.0809
  224MOL0     H30911   9.001  10.654   4.332 -0.9729 -1.6658  0.6441
  224MOL0     H30912   8.852  10.631   4.417  2.0642 -1.6574 -0.6578
  225MOL0     O30913   4.464   5.523   9.571  0.4399 -0.3081  0.4974
  225MOL0     C30914   4.343   5.547   9.555 -0.3055 -0.4668  0.0641
  225MOL0     O30915   4.266   5.525   9.442  0.0102  0.5155  0.5536
  225MOL0     C30916   4.339   5.494   9.331 -0.3156  0.3207  0.1488
  225MOL0     C30917   4.356   5.357   9.295 -0.0756 -0.7298 -0.4639
  225MOL0     C30918   4.434   5.322   9.184 -0.0545  0.0687  0.6636
  225MOL0     C30919   4.500   5.419   9.109 -0.6717  0.8496  0.5786
  225MOL0     O30920   4.591   5.393   9.000 -0.5962  0.7622  0.4697
  225MOL0     C30921   4.684   5.281   9.005 -0.0672 -2.0044  0.3464
  225MOL0     C30922   4.788   5.299   9.113 -0.5843  0.3880 -0.5114
  225MOL0     C30923   4.867   5.166   9.143  0.3618 -0.4829 -0.6196
  225MOL0     C30924   4.956   5.108   9.026 -0.0632 -0.5632 -0.9257
  225MOL0     C30925   5.052   5.004   9.085  0.0103 -0.1599 -0.6554
  225MOL0     C30926   4.995   4.861   9.105  0.3104 -0.4628 -0.1144
  225MOL0     C30927   5.007   4.770   8.984 -0.1976  0.6825  0.1808
  225MOL0     C30928   4.974   4.624   9.028  0.0393  0.0869  0.9003
  225MOL0     N30929   4.986   4.524   8.925 -0.3112  0.0812  0.4694
  225MOL0     C30930   4.905   4.415   8.905  0.1115 -0.0063  0.3048
  225MOL0     C30931   4.944   4.356   8.791 -0.8463 -1.2095  0.6401
  225MOL0     C30932   4.895   4.223   8.747 -0.1987  0.5112 -0.7321
  225MOL0     C30933   4.998   4.131   8.684  0.4735 -0.4304  0.8869
  225MOL0     C30934   4.942   3.992   8.633  0.7212  0.1227 -0.0060
  225MOL0     C30935   5.045   3.930   8.545 -0.8577 -0.7021  0.4798
  225MOL0     O30936   5.023   3.791   8.509 -0.4269 -0.1180 -0.6115
  225MOL0     C30937   5.004   3.767   8.372  0.4479  0.0196  0.0042
  225MOL0     C30938   4.893   3.810   8.291  0.2087  0.2045  0.0486
  225MOL0     C30939   4.880   3.765   8.154  0.1515  0.5582 -0.1845
  225MOL0     C30940   4.764   3.815   8.078 -0.6458 -1.1686 -0.2203
  225MOL0     C30941   4.991   3.685   8.097 -0.2104  1.0634  0.1337
  225MOL0     C30942   4.990   3.620   7.957 -0.5562  0.2956 -0.5760
  225MOL0     O30943   4.875   3.577   7.893  0.1481 -0.3404  0.2068
  225MOL0     C30944   4.885   3.546   7.762 -0.2360  0.2455  0.3401
  225MOL0     C30945   4.938   3.632   7.662 -0.1262  0.3414  0.6950
  225MOL0     C30946   4.928   3.589   7.531  0.3282 -0.2552 -0.7787
  225MOL0     C30947   4.882   3.457   7.490  0.8037 -0.3435 -0.7268
  225MOL0     O30948   4.884   3.387   7.372 -0.2748  0.2282 -0.1287
  225MOL0     C30949   4.970   3.424   7.264  0.5681 -0.1081 -0.2718
  225MOL0     C30950   4.944   3.324   7.149  0.6989  0.0678 -0.4501
  225MOL0     C30951   4.985   3.178   7.179  0.2770  0.8319  0.0620
  225MOL0     C30952   4.975   3.085   7.058 -0.2629 -0.0696  0.1330
  225MOL0     C30953   5.046   2.957   7.080 -0.1836  1.1490 -0.8635
  225MOL0     C30954   5.198   2.974   7.083  0.1182 -0.1906 -0.1255
  225MOL0     C30955   5.249   2.992   6.945  0.4073 -0.0876 -0.8236
  225MOL0     C30956   5.400   2.953   6.925 -1.0923 -0.3825  0.1280
  225MOL0    Cl30957   5.422   2.785   6.930  0.4678  0.3628 -0.6479
  225MOL0     C30958   4.815   3.382   7.590  0.4273  0.3185 -0.0140
  225MOL0     C30959   4.806   3.429   7.724 -0.4658 -0.4769  0.1893
  225MOL0     O30960   5.106   3.613   7.912 -0.0460  1.0046 -0.2280
  225MOL0     C30961   5.103   3.658   8.183 -0.4177 -0.0399  0.1145
  225MOL0     C30962   5.110   3.695   8.314  0.1386 -0.1444 -0.0495
  225MOL0     N30963   5.035   4.440   8.732 -0.0437 -0.4495  0.0845
  225MOL0     N30964   5.058   4.537   8.810 -0.3102  0.1066 -0.1885
  225MOL0     C30965   4.473   5.548   9.134  0.7364 -0.0452 -0.0114
  225MOL0     C30966   4.402   5.589   9.248 -0.9200 -0.2334  0.3281
  225MOL0     C30967   4.274   5.602   9.679 -0.3943 -0.4927  0.9357
  225MOL0     C30968   4.135   5.567   9.684  0.1433  0.1139  0.9220
  225MOL0     C30969   4.061   5.623   9.786 -0.3507  0.9932  0.3457
  225MOL0     C30970   4.114   5.711   9.879 -0.4683 -0.2667  0.3510
  225MOL0     O30971   4.042   5.792   9.963  0.9183  0.4062 -0.2911
  225MOL0     C30972   3.919   5.744  10.005  0.1256  0.6208 -0.4638
  225MOL0     C30973   3.852   5.852  10.104 -0.5577 -0.0804  0.4568
  225MOL0     C30974   3.941   5.886  10.224 -0.1535  0.2900  0.5401
  225MOL0     C30975   3.938   5.768  10.325  0.7609 -0.5200  0.2766
  225MOL0     C30976   3.791   5.768  10.365 -0.1997  0.8833  0.0163
  225MOL0     C30977   3.680   5.791  10.403  0.2758 -0.3649 -0.6020
  225MOL0     C30978   4.253   5.745   9.866  1.1425 -0.0767  0.1352
  225MOL0     C30979   4.335   5.682   9.775 -1.9758 -0.8633  1.7244
  225MOL0     C30980   4.476   5.729   9.771 -0.0237 -0.7695  0.3968
  225MOL0     H30981   4.308   5.289   9.366  1.2174  1.2979  2.5565
  225MOL0     H30982   4.462   5.220   9.162  1.5917  0.2961  1.5807
  225MOL0     H30983   4.739   5.291   8.911  2.0485  0.5671  1.7182
  225MOL0     H30984   4.636   5.184   9.017  1.9179 -3.2775 -1.3122
  225MOL0     H30985   4.855   5.380   9.083  0.6144  0.0553  1.1583
  225MOL0     H30986   4.731   5.335   9.199 -1.0353 -0.5860 -0.3928
  225MOL0     H30987   4.934   5.189   9.227 -2.1798  0.0448  1.4211
  225MOL0     H30988   4.792   5.091   9.170 -3.4805  1.8849 -3.6869
  225MOL0     H30989   4.893   5.066   8.947 -0.2684 -1.9168 -0.0640
  225MOL0     H30990   5.015   5.190   8.983 -0.9457  1.6418  1.7199
  225MOL0     H30991   5.089   5.041   9.181  0.4716  2.5764 -1.8029
  225MOL0     H30992   5.142   4.986   9.025 -1.5581 -1.3411 -2.7996
  225MOL0     H30993   5.045   4.808   9.187 -3.2268 -3.3634  0.4458
  225MOL0     H30994   4.891   4.866   9.137 -0.0977 -2.0048 -1.0566
  225MOL0     H30995   5.113   4.761   8.959 -0.4113 -2.1543  0.0131
  225MOL0     H30996   4.947   4.796   8.896  0.8363 -3.3029 -1.9437
  225MOL0     H30997   5.026   4.602   9.121  2.8934 -0.5023 -0.7018
  225MOL0     H30998   4.869   4.625   9.060 -0.6663  2.5090 -1.1587
  225MOL0     H30999   4.832   4.394   8.983  1.8240  0.2112  2.0536
  225MOL0     H31000   4.817   4.223   8.670 -0.2164  0.1343 -0.7172
  225MOL0     H31001   4.868   4.164   8.835  1.6195  0.9032  0.1391
  225MOL0     H31002   5.041   4.189   8.602  1.9074 -0.0948  1.8269
  225MOL0     H31003   5.074   4.098   8.755 -1.2258 -3.6676  1.3903
  225MOL0     H31004   4.918   3.938   8.726  0.5670  4.3999  2.7298
  225MOL0     H31005   4.848   4.007   8.581  1.4752 -0.7588 -1.7162
  225MOL0     H31006   5.075   3.986   8.456  0.6639 -0.0400  1.3727
  225MOL0     H31007   5.141   3.935   8.598 -0.0092  0.8226 -1.0779
  225MOL0     H31008   4.811   3.871   8.327  0.8084  2.3674 -1.9973
  225MOL0     H31009   4.779   3.913   8.033 -1.7421 -2.4063 -3.5797
  225MOL0     H31010   4.673   3.823   8.139  0.2930  2.8127  0.9555
  225MOL0     H31011   4.723   3.755   7.996 -0.6209  0.5780 -1.5661
  225MOL0     H31012   4.969   3.734   7.677 -3.6137  1.2521  2.9459
  225MOL0     H31013   4.956   3.651   7.446  1.8520  2.2785  1.4247
  225MOL0     H31014   4.934   3.516   7.219 -0.5386 -1.7695 -2.9920
  225MOL0     H31015   5.074   3.426   7.300 -0.1406  0.0971  1.8749
  225MOL0     H31016   4.837   3.324   7.128  0.5588 -1.9466  0.0543
  225MOL0     H31017   4.994   3.363   7.060  1.8129 -1.1637 -0.4009
  225MOL0     H31018   4.926   3.133   7.258  2.2359  1.8345  2.2072
  225MOL0     H31019   5.089   3.177   7.213 -0.6548  1.0195  3.1964
  225MOL0     H31020   5.011   3.139   6.970 -0.3132 -0.1236  0.0786
  225MOL0     H31021   4.867   3.075   7.046 -0.3065  1.9537 -1.7610
  225MOL0     H31022   5.023   2.921   7.181  0.6885  3.1302  0.0924
  225MOL0     H31023   5.004   2.883   7.011  1.9115 -0.0576 -0.9414
  225MOL0     H31024   5.238   2.893   7.145  0.0685  1.0812  1.6436
  225MOL0     H31025   5.231   3.058   7.146 -0.9895 -0.9867  1.5951
  225MOL0     H31026   5.252   3.101   6.936  0.6433  0.0432  0.6277
  225MOL0     H31027   5.188   2.956   6.861  0.3808 -1.9800 -0.0497
  225MOL0     H31028   5.456   2.999   7.007 -2.3377 -1.8780  1.8953
  225MOL0     H31029   5.439   3.001   6.834 -1.6570  1.4072  0.7744
  225MOL0     H31030   4.768   3.290   7.558  0.5501  0.8434 -1.7844
  225MOL0     H31031   4.755   3.380   7.806  1.2386  0.4134  1.8642
  225MOL0     H31032   5.191   3.603   8.151 -2.1197 -2.8371 -0.1127
  225MOL0     H31033   5.179   3.672   8.394  0.6310 -0.2567 -0.4990
  225MOL0     H31034   4.513   5.632   9.078 -0.2728  0.3661 -0.1476
  225MOL0     H31035   4.397   5.697   9.254  0.2396 -0.2376  3.4774
  225MOL0     H31036   4.084   5.488   9.629 -1.9257  1.5709  0.6059
  225MOL0     H31037   3.959   5.588   9.793  1.1741 -4.1877  0.5408
  225MOL0     H31038   3.849   5.714   9.927 -0.7580 -1.5661  1.0593
  225MOL0     H31039   3.925   5.652  10.064  0.4880  0.7227 -0.3387
  225MOL0     H31040   3.749   5.820  10.126 -1.4132  2.2303  0.1519
  225MOL0     H31041   3.840   5.950  10.056 -2.5206 -0.2468  0.5235
  225MOL0     H31042   4.044   5.896  10.189  0.1459 -2.8077  0.3166
  225MOL0     H31043   3.905   5.982  10.264 -0.2815  0.6944 -0.5047
  225MOL0     H31044   4.010   5.797  10.403  2.4754  1.0480 -1.7702
  225MOL0     H31045   3.978   5.675  10.285  1.4861  0.1434 -0.5910
  225MOL0     H31046   3.591   5.798  10.463  0.0905 -2.6629 -0.5178
  225MOL0     H31047   4.291   5.820   9.935  0.7338 -0.5066  0.8345
  225MOL0     H31048   4.508   5.755   9.670  0.8184  0.0584  0.8550
  225MOL0     H31049   4.495   5.818   9.833 -4.2179 -0.9170  2.2450
  225MOL0     H31050   4.554   5.661   9.806  0.7933 -0.7620 -1.3129
  226MOL0     O31051   9.918   5.559   7.690 -0.0425  0.5186 -0.7923
  226MOL0     C31052   9.837   5.562   7.783  0.6669 -0.4996  0.1642
  226MOL0     O31053   9.847   5.648   7.886 -0.5325 -0.1098  0.2125
  226MOL0     C31054   9.970   5.708   7.919  0.7482  0.0864  1.4106
  226MOL0     C31055  10.105   5.661   7.892 -0.4445  0.5594  0.3764
  226MOL0     C31056  10.219   5.728   7.941 -0.2954 -0.2872 -0.3419
  226MOL0     C31057  10.197   5.854   8.011  0.1805 -0.2962  0.1581
  226MOL0     O31058  10.307   5.934   8.053  0.1738  0.5821 -0.1256
  226MOL0     C31059  10.435   5.897   8.005 -0.2939 -0.4242  0.4272
  226MOL0     C31060  10.537   5.964   8.093  0.9979  0.1896 -0.0439
  226MOL0     C31061  10.529   5.896   8.235  0.3598  0.1418 -0.6594
  226MOL0     C31062  10.612   5.974   8.348  0.7862  0.1518  0.2956
  226MOL0     C31063  10.573   5.937   8.489  0.2383  0.0957  0.1127
  226MOL0     C31064  10.569   5.780   8.522 -0.7710  0.8550  0.0309
  226MOL0     C31065  10.544   5.754   8.675 -0.2169  0.6780  0.6810
  226MOL0     C31066  10.565   5.609   8.714  0.0746 -0.3018 -0.0816
  226MOL0     N31067  10.450   5.534   8.663  0.7161  1.2386 -0.4408
  226MOL0     C31068  10.447   5.415   8.594  0.2703 -0.3992 -0.5572
  226MOL0     C31069  10.321   5.363   8.601  0.2574  0.1616  0.9113
  226MOL0     C31070  10.263   5.241   8.534 -0.4074 -0.3555 -0.1286
  226MOL0     C31071  10.335   5.121   8.587 -0.1685  0.5901  0.4371
  226MOL0     C31072  10.294   4.996   8.508 -0.0530 -0.7481  0.0049
  226MOL0     C31073  10.285   4.872   8.591  0.3635  0.2693  0.3602
  226MOL0     O31074  10.416   4.843   8.654 -0.0580  0.1129  0.6291
  226MOL0     C31075  10.417   4.778   8.779  0.6124  0.4132  0.5104
  226MOL0     C31076  10.308   4.755   8.870  0.3902 -0.2804 -0.1274
  226MOL0     C31077  10.318   4.697   9.003 -0.4544 -0.1153 -0.2739
  226MOL0     C31078  10.193   4.667   9.085 -0.1873  0.5520  0.7009
  226MOL0     C31079  10.450   4.669   9.054 -0.6085 -0.1832  0.4725
  226MOL0     C31080  10.480   4.633   9.190 -0.2151 -0.1115  0.5508
  226MOL0     O31081  10.614   4.622   9.216  0.4904 -0.0153 -0.1353
  226MOL0     C31082  10.672   4.574   9.332 -0.8239 -0.3652 -1.0909
  226MOL0     C31083  10.810   4.593   9.335 -0.0988 -0.7258  0.0434
  226MOL0     C31084  10.888   4.557   9.449  0.1962 -0.1941  0.1989
  226MOL0     C31085  10.828   4.486   9.546  0.1253  0.1912  0.0562
  226MOL0     O31086  10.918   4.443   9.646 -0.3312 -0.6353  0.0434
  226MOL0     C31087  10.862   4.354   9.747 -0.0359  0.7127  1.1867
  226MOL0     C31088  10.973   4.305   9.839  0.5970  0.1921  0.2086
  226MOL0     C31089  11.079   4.229   9.757  0.5303 -0.3835  0.2410
  226MOL0     C31090  11.033   4.082   9.756 -0.0518 -0.8138 -0.2470
  226MOL0     C31091  11.157   4.006   9.710 -0.5166  0.3881 -0.1088
  226MOL0     C31092  11.139   3.860   9.670  0.4177 -0.2425 -0.8864
  226MOL0     C31093  11.274   3.797   9.625 -0.6306  0.0323  0.0984
  226MOL0     C31094  11.255   3.654   9.589  0.2915 -0.0771  0.2885
  226MOL0    Cl31095  11.194   3.635   9.419  0.3832 -0.5245  0.1099
  226MOL0     C31096  10.690   4.464   9.551 -0.2030 -1.2296 -0.6334
  226MOL0     C31097  10.610   4.510   9.447  0.1798  0.2368  0.4282
  226MOL0     O31098  10.389   4.625   9.273  0.0806 -0.1915  0.8641
  226MOL0     C31099  10.559   4.691   8.958  0.5746 -0.3889 -0.7752
  226MOL0     C31100  10.543   4.742   8.832  1.3120  0.0376 -0.2003
  226MOL0     N31101  10.237   5.458   8.664 -0.2722 -0.1069  0.5390
  226MOL0     N31102  10.319   5.552   8.703  0.3471  0.2680 -0.2634
  226MOL0     C31103  10.065   5.902   8.036  0.2806  0.4715  0.2438
  226MOL0     C31104   9.958   5.820   7.995  0.1381 -0.2192 -0.0538
  226MOL0     C31105   9.720   5.478   7.792  0.0593 -0.1031 -0.7241
  226MOL0     C31106   9.733   5.342   7.782 -0.4036 -0.5788 -0.2821
  226MOL0     C31107   9.629   5.260   7.781  1.0562  0.2710  0.3704
  226MOL0     C31108   9.498   5.298   7.804  0.4094 -0.3012  0.7275
  226MOL0     O31109   9.386   5.219   7.826 -0.0763  0.6062 -0.4299
  226MOL0     C31110   9.389   5.077   7.851 -0.5200  0.3764 -0.5337
  226MOL0     C31111   9.423   5.044   7.999  0.1129  0.2691 -0.6780
  226MOL0     C31112   9.303   5.027   8.094 -1.2061 -0.1022 -0.4719
  226MOL0     C31113   9.343   5.008   8.248  0.6218  0.4138  0.1504
  226MOL0     C31114   9.232   5.070   8.332 -0.6857 -0.5361 -0.0532
  226MOL0     C31115   9.140   5.117   8.391 -0.0686 -0.5185  1.4607
  226MOL0     C31116   9.481   5.432   7.825 -0.3596  0.3268 -0.2423
  226MOL0     C31117   9.585   5.527   7.815 -0.8242  0.2448  0.0481
  226MOL0     C31118   9.551   5.673   7.826  0.5555 -0.2959  0.3737
  226MOL0     H31119  10.118   5.557   7.863  0.4257  0.2066  1.9180
  226MOL0     H31120  10.312   5.671   7.934  0.7347  1.2708 -0.0081
  226MOL0     H31121  10.450   5.943   7.907 -1.2108 -1.2207 -0.1039
  226MOL0     H31122  10.460   5.791   7.994 -0.8049 -0.5081  0.0161
  226MOL0     H31123  10.640   5.952   8.058  1.4063  0.5933  0.9742
  226MOL0     H31124  10.517   6.071   8.094  1.2978  0.2649  1.5950
  226MOL0     H31125  10.426   5.907   8.270  0.9425  1.5213  0.7534
  226MOL0     H31126  10.570   5.796   8.219 -0.5287 -0.3392 -0.0275
  226MOL0     H31127  10.719   5.956   8.340  1.0691  1.9874 -0.6778
  226MOL0     H31128  10.578   6.078   8.335 -3.2900 -0.9779  0.6434
  226MOL0     H31129  10.474   5.981   8.507 -0.8773 -2.3355  0.3452
  226MOL0     H31130  10.639   5.985   8.562  2.7010 -0.3207 -1.7095
  226MOL0     H31131  10.489   5.737   8.462 -0.3851 -0.8074  0.6358
  226MOL0     H31132  10.665   5.728   8.513 -1.7439 -1.3801  1.5106
  226MOL0     H31133  10.439   5.783   8.690 -1.1566 -2.9613  2.3870
  226MOL0     H31134  10.600   5.825   8.736  3.6316  0.6406 -2.4170
  226MOL0     H31135  10.660   5.577   8.669 -0.2111  2.2041 -2.8009
  226MOL0     H31136  10.568   5.596   8.823 -1.6464 -2.2935 -0.2113
  226MOL0     H31137  10.527   5.376   8.531  0.2587 -2.7033  0.7248
  226MOL0     H31138  10.275   5.254   8.426  1.3372 -2.9442 -0.3355
  226MOL0     H31139  10.165   5.231   8.581 -0.4664  4.0865  1.1783
  226MOL0     H31140  10.443   5.132   8.572  0.2411 -0.8193  2.0619
  226MOL0     H31141  10.322   5.106   8.694  2.2566 -3.2873  0.3925
  226MOL0     H31142  10.191   5.005   8.474 -0.5428 -5.2003 -0.3709
  226MOL0     H31143  10.362   4.978   8.424 -0.6794 -2.0623 -0.2527
  226MOL0     H31144  10.208   4.893   8.667 -0.2528  1.4289 -0.5403
  226MOL0     H31145  10.243   4.794   8.527  0.4872 -0.2387  0.8908
  226MOL0     H31146  10.207   4.783   8.844  0.1072  0.3718  1.5395
  226MOL0     H31147  10.182   4.563   9.117 -5.3975  1.1461  1.6404
  226MOL0     H31148  10.105   4.682   9.023  1.7990  1.4833 -2.1075
  226MOL0     H31149  10.190   4.731   9.174  0.5857 -1.3425  2.1701
  226MOL0     H31150  10.853   4.639   9.247  1.1070  0.6341  1.2821
  226MOL0     H31151  10.992   4.587   9.440  0.7885 -2.2382 -0.2847
  226MOL0     H31152  10.781   4.400   9.805  0.4214  0.5326  1.9865
  226MOL0     H31153  10.830   4.263   9.696  3.5658 -0.4951  0.7986
  226MOL0     H31154  11.023   4.387   9.891  0.4778 -1.4236  3.1471
  226MOL0     H31155  10.939   4.238   9.919 -1.7317  1.4792  0.3949
  226MOL0     H31156  11.169   4.237   9.820  0.1874  2.6639  0.5026
  226MOL0     H31157  11.093   4.258   9.653  1.1589 -1.3199  0.0539
  226MOL0     H31158  10.962   4.072   9.674  0.4219 -0.9710 -0.6426
  226MOL0     H31159  10.994   4.039   9.848  0.3284  2.9052  1.8722
  226MOL0     H31160  11.197   4.056   9.621 -2.2861  3.3980  0.6269
  226MOL0     H31161  11.229   4.015   9.793 -0.9066  4.7995  0.0036
  226MOL0     H31162  11.066   3.860   9.588  0.9336 -1.5744 -1.3877
  226MOL0     H31163  11.097   3.801   9.752  0.6056 -0.9891 -1.3121
  226MOL0     H31164  11.341   3.804   9.711 -0.3365  1.3290 -0.2110
  226MOL0     H31165  11.323   3.849   9.542 -3.3184  0.7255 -1.1448
  226MOL0     H31166  11.189   3.600   9.658 -1.0507 -2.0018 -2.3602
  226MOL0     H31167  11.346   3.595   9.598 -0.9163 -2.0483  0.3643
  226MOL0     H31168  10.648   4.434   9.647 -0.4668  0.9362 -0.0151
  226MOL0     H31169  10.503   4.498   9.448  0.1231  0.3106 -1.2247
  226MOL0     H31170  10.659   4.666   8.992 -0.1190 -0.3005  1.4624
  226MOL0     H31171  10.630   4.752   8.768  0.2533 -4.2714 -2.7490
  226MOL0     H31172  10.049   5.994   8.092 -1.0754  0.5748 -0.2632
  226MOL0     H31173   9.871   5.882   8.012 -0.8593 -1.2282 -1.2953
  226MOL0     H31174   9.829   5.293   7.770  0.1775  0.2839  0.6472
  226MOL0     H31175   9.646   5.153   7.776  0.5063  0.2191 -2.7847
  226MOL0     H31176   9.301   5.018   7.823 -1.8297  2.6341 -1.4677
  226MOL0     H31177   9.474   5.027   7.804 -1.8197 -2.4287 -0.0622
  226MOL0     H31178   9.490   5.120   8.040 -0.2876  0.8129 -1.0224
  226MOL0     H31179   9.471   4.945   7.997  1.0157  0.7007 -0.9231
  226MOL0     H31180   9.231   5.108   8.079  0.6451  1.5913 -0.5049
  226MOL0     H31181   9.253   4.932   8.070  0.7604 -1.6054  1.0503
  226MOL0     H31182   9.446   5.030   8.279  0.5013 -2.4465  3.1382
  226MOL0     H31183   9.345   4.900   8.264 -0.4645  0.2054 -0.9658
  226MOL0     H31184   9.053   5.164   8.434 -0.7195 -1.1679  0.8672
  226MOL0     H31185   9.381   5.462   7.855 -1.7416 -0.4553 -3.6219
  226MOL0     H31186   9.445   5.700   7.819  0.8338  0.7736  0.0666
  226MOL0     H31187   9.580   5.713   7.924 -0.8295  0.9298  0.3307
  226MOL0     H31188   9.605   5.734   7.753 -0.5465 -2.2347 -2.1974
  227MOL0     O31189   8.958   2.864   3.353 -0.4556  0.1123 -0.5173
  227MOL0     C31190   9.067   2.905   3.395  0.4598 -0.1494 -0.5603
  227MOL0     O31191   9.141   3.000   3.334 -0.2022  0.3507  0.3985
  227MOL0     C31192   9.082   3.074   3.234 -0.9204 -0.4848 -0.6981
  227MOL0     C31193   9.173   3.149   3.158 -0.0387  0.8501  0.7950
  227MOL0     C31194   9.131   3.244   3.070 -0.4708 -0.8220  0.0874
  227MOL0     C31195   8.991   3.282   3.064  0.7068 -0.3995  0.0553
  227MOL0     O31196   8.939   3.392   3.000  0.5543 -0.4068 -0.5683
  227MOL0     C31197   9.032   3.482   2.944  1.5152  0.0872  0.2711
  227MOL0     C31198   8.969   3.608   2.891  0.8422 -0.2099 -0.0867
  227MOL0     C31199   8.900   3.704   2.994 -0.5774 -0.2630  0.1083
  227MOL0     C31200   8.779   3.640   3.068  1.0265  0.0501 -0.0671
  227MOL0     C31201   8.667   3.731   3.140  0.1077  0.1912  0.2962
  227MOL0     C31202   8.557   3.645   3.214 -0.4539 -0.0077  1.0522
  227MOL0     C31203   8.527   3.711   3.343  0.2403  0.3921 -0.8881
  227MOL0     C31204   8.422   3.632   3.437  0.1106 -0.2421 -0.2071
  227MOL0     N31205   8.299   3.613   3.367  0.3892 -1.1722  0.6160
  227MOL0     C31206   8.220   3.721   3.334 -0.8627 -0.0300  0.1182
  227MOL0     C31207   8.098   3.670   3.303 -0.8358 -0.7963  0.2023
  227MOL0     C31208   7.971   3.742   3.267 -0.8793 -0.1420 -1.0938
  227MOL0     C31209   7.982   3.889   3.237  0.5525  0.1414 -0.6548
  227MOL0     C31210   7.857   3.941   3.180 -0.8660 -0.0103 -0.4706
  227MOL0     C31211   7.745   3.939   3.286 -0.1906  0.3661 -0.8110
  227MOL0     O31212   7.652   4.036   3.240 -0.1868  0.3733 -1.0631
  227MOL0     C31213   7.520   4.004   3.273 -0.0335 -0.1370  0.2810
  227MOL0     C31214   7.422   4.041   3.177 -0.1696 -0.2804 -0.5596
  227MOL0     C31215   7.290   3.996   3.197 -0.4282  0.1544  0.9271
  227MOL0     C31216   7.192   4.047   3.095 -0.3876 -0.1799 -0.8813
  227MOL0     C31217   7.246   3.915   3.310  0.5185 -0.3826  0.1379
  227MOL0     C31218   7.121   3.841   3.322 -0.1319 -0.7431  0.6856
  227MOL0     O31219   7.126   3.745   3.420 -0.1396 -0.9801 -0.1326
  227MOL0     C31220   7.028   3.651   3.425  1.0711  0.7264  0.2674
  227MOL0     C31221   6.906   3.635   3.354 -0.4079  0.2311 -0.5001
  227MOL0     C31222   6.821   3.524   3.370 -0.3798 -0.2748 -0.0848
  227MOL0     C31223   6.859   3.426   3.462 -0.6329  0.8489  0.2740
  227MOL0     O31224   6.779   3.321   3.508  0.4169  0.4109 -0.1187
  227MOL0     C31225   6.638   3.356   3.533 -0.1449 -0.0254  0.6287
  227MOL0     C31226   6.581   3.262   3.650 -0.9969  0.6156 -0.9635
  227MOL0     C31227   6.536   3.119   3.603  1.3365  0.3151 -0.1724
  227MOL0     C31228   6.545   3.007   3.693  0.5948 -0.9950  0.2384
  227MOL0     C31229   6.417   2.967   3.777  0.0673 -0.4980 -0.3023
  227MOL0     C31230   6.441   2.842   3.866 -0.8633 -0.8901 -0.2824
  227MOL0     C31231   6.302   2.780   3.887  0.7697 -0.3286  0.1667
  227MOL0     C31232   6.300   2.671   3.985 -0.3137  0.4195 -0.2642
  227MOL0    Cl31233   6.139   2.587   3.981  0.1491  0.3074 -0.4798
  227MOL0     C31234   6.978   3.433   3.534  0.6655 -0.0312 -0.4708
  227MOL0     C31235   7.056   3.546   3.510  0.3097 -0.4839  0.2974
  227MOL0     O31236   7.022   3.872   3.253 -0.2870  0.2204  0.0902
  227MOL0     C31237   7.350   3.891   3.403  0.0255 -0.6266  0.4798
  227MOL0     C31238   7.476   3.935   3.390 -0.0885 -0.0362 -0.4620
  227MOL0     N31239   8.104   3.538   3.321 -1.8607  0.7726 -0.8040
  227MOL0     N31240   8.223   3.500   3.350 -0.1773 -0.1924  0.4195
  227MOL0     C31241   8.901   3.208   3.140 -0.9719  0.2492  0.0696
  227MOL0     C31242   8.942   3.107   3.221 -0.7374  0.2947  0.2093
  227MOL0     C31243   9.111   2.866   3.536  0.0970  1.1512 -0.3109
  227MOL0     C31244   9.056   2.743   3.585 -0.1991 -0.2447  0.8931
  227MOL0     C31245   9.093   2.690   3.703  0.0324  0.7255  0.2576
  227MOL0     C31246   9.193   2.740   3.782  0.0827 -0.2157  0.8825
  227MOL0     O31247   9.223   2.699   3.905 -0.2222  0.0593  0.4653
  227MOL0     C31248   9.132   2.611   3.983 -0.1897 -1.0331 -0.8226
  227MOL0     C31249   9.011   2.696   4.043 -0.2168  0.3432  0.2565
  227MOL0     C31250   8.930   2.595   4.120 -0.1697  0.7477 -0.3673
  227MOL0     C31251   8.801   2.670   4.173 -0.0506 -0.3660 -0.2679
  227MOL0     C31252   8.697   2.585   4.238 -0.2298  0.2127  0.7098
  227MOL0     C31253   8.608   2.529   4.284 -0.2182  0.6362 -0.4835
  227MOL0     C31254   9.259   2.859   3.734 -0.3882  0.2905  0.1786
  227MOL0     C31255   9.210   2.919   3.618 -1.4321  0.3965  0.6678
  227MOL0     C31256   9.294   3.032   3.566 -0.2886  0.6021 -0.0929
  227MOL0     H31257   9.277   3.117   3.156 -0.9035 -2.2249  0.0417
  227MOL0     H31258   9.193   3.312   3.013 -2.9056  3.3867  1.9510
  227MOL0     H31259   9.098   3.446   2.864  2.1722  1.5474  0.1382
  227MOL0     H31260   9.096   3.509   3.028  1.6124  1.0705 -0.1026
  227MOL0     H31261   9.040   3.676   2.843  0.1423  0.6692  0.0905
  227MOL0     H31262   8.891   3.585   2.819 -0.8269  2.9682  0.5109
  227MOL0     H31263   8.973   3.750   3.061 -0.7988  3.2677 -1.8397
  227MOL0     H31264   8.860   3.785   2.933  0.5375 -0.5629 -1.0728
  227MOL0     H31265   8.735   3.576   2.992 -0.9435  0.8140  0.3640
  227MOL0     H31266   8.826   3.578   3.145  1.5017 -0.1742 -0.5308
  227MOL0     H31267   8.622   3.797   3.065  0.2034 -0.3474 -0.2435
  227MOL0     H31268   8.716   3.801   3.209 -0.6555  0.6476  0.3863
  227MOL0     H31269   8.467   3.628   3.153 -0.1752  4.1800 -0.8910
  227MOL0     H31270   8.606   3.555   3.253  4.3687  3.2947  3.6256
  227MOL0     H31271   8.492   3.815   3.333 -2.1385 -0.1102  1.1104
  227MOL0     H31272   8.620   3.722   3.400 -1.3398  2.1198  1.5591
  227MOL0     H31273   8.462   3.533   3.460  0.5206  0.1551  0.8855
  227MOL0     H31274   8.419   3.677   3.537 -0.8490 -1.5984  0.3976
  227MOL0     H31275   8.260   3.820   3.351 -0.0084 -0.2462 -0.5506
  227MOL0     H31276   7.905   3.720   3.351 -0.0670 -1.3317 -0.7321
  227MOL0     H31277   7.925   3.696   3.179 -0.7724  0.1258 -1.2910
  227MOL0     H31278   7.990   3.941   3.333 -1.6485  1.6400 -1.2050
  227MOL0     H31279   8.066   3.905   3.169  0.8861 -2.3456 -0.9226
  227MOL0     H31280   7.879   4.042   3.144  1.4353 -1.0981 -2.4270
  227MOL0     H31281   7.829   3.882   3.092  1.3247  1.2170 -2.0991
  227MOL0     H31282   7.704   3.838   3.299  2.8526 -1.2091 -2.2577
  227MOL0     H31283   7.777   3.973   3.385  3.2773  1.2998 -2.0834
  227MOL0     H31284   7.442   4.093   3.084 -1.9778 -0.4908 -1.1068
  227MOL0     H31285   7.119   4.100   3.157  1.7259 -0.8319  2.4320
  227MOL0     H31286   7.134   3.974   3.038 -2.0392 -1.4956  2.2314
  227MOL0     H31287   7.240   4.120   3.029 -1.9915  1.9979  0.2144
  227MOL0     H31288   6.869   3.708   3.283 -0.3919 -0.0618 -0.8142
  227MOL0     H31289   6.725   3.511   3.320 -1.0020  0.4139  0.8944
  227MOL0     H31290   6.635   3.461   3.562  2.8350 -0.1187  1.5593
  227MOL0     H31291   6.579   3.340   3.442 -0.9338  1.4526  0.8483
  227MOL0     H31292   6.666   3.250   3.718 -0.5304 -0.5434 -1.7129
  227MOL0     H31293   6.499   3.318   3.696 -0.6271  2.2412 -2.1799
  227MOL0     H31294   6.603   3.092   3.522  1.5573  1.4120 -0.3743
  227MOL0     H31295   6.435   3.134   3.565  1.2552  0.3323  0.0450
  227MOL0     H31296   6.630   3.011   3.762  1.0718  4.1457 -0.2388
  227MOL0     H31297   6.563   2.922   3.627 -0.0239  0.0039 -1.2663
  227MOL0     H31298   6.382   3.051   3.838  0.8725 -0.7275  0.5030
  227MOL0     H31299   6.343   2.944   3.701  0.5814 -3.0203 -0.1210
  227MOL0     H31300   6.465   2.887   3.963  0.0790 -0.8272 -0.5352
  227MOL0     H31301   6.512   2.767   3.828 -3.3700 -2.9042 -1.3312
  227MOL0     H31302   6.278   2.739   3.789  0.0985  2.5909 -0.9842
  227MOL0     H31303   6.228   2.859   3.904 -0.2123 -0.5769 -2.5470
  227MOL0     H31304   6.311   2.718   4.083  0.4951  0.6119 -0.4368
  227MOL0     H31305   6.376   2.596   3.963 -2.2219 -1.0554 -2.3017
  227MOL0     H31306   7.011   3.362   3.609 -0.8542  1.9557  2.2568
  227MOL0     H31307   7.150   3.551   3.564  0.1540 -2.9125  0.9107
  227MOL0     H31308   7.338   3.819   3.484 -0.0457  0.9043  1.8969
  227MOL0     H31309   7.541   3.916   3.475 -0.6070 -0.5317 -0.1702
  227MOL0     H31310   8.800   3.248   3.140 -2.1519 -2.4175 -1.9742
  227MOL0     H31311   8.863   3.068   3.284 -0.3101  0.6797  1.0004
  227MOL0     H31312   8.985   2.679   3.536  0.1254  0.2121 -0.2092
  227MOL0     H31313   9.043   2.596   3.725  0.0299  1.3263  3.0730
  227MOL0     H31314   9.093   2.530   3.920 -2.2786 -0.7130 -0.0207
  227MOL0     H31315   9.189   2.574   4.068 -1.8111 -0.9211  0.3566
  227MOL0     H31316   8.953   2.743   3.962 -3.1759 -0.6463  1.6463
  227MOL0     H31317   9.051   2.771   4.113 -0.7316  0.8884 -0.0197
  227MOL0     H31318   8.903   2.510   4.057 -3.4285  2.6364 -1.7692
  227MOL0     H31319   8.990   2.561   4.205 -1.5900  1.4741  0.9851
  227MOL0     H31320   8.744   2.717   4.092 -1.1695 -2.8786 -1.0441
  227MOL0     H31321   8.832   2.746   4.244 -2.0104 -3.8860  4.9208
  227MOL0     H31322   8.529   2.469   4.324 -0.2368  0.6297 -0.5308
  227MOL0     H31323   9.338   2.898   3.797  0.3007  2.0138 -1.6428
  227MOL0     H31324   9.359   3.068   3.646  0.9786 -0.1351 -0.7533
  227MOL0     H31325   9.369   2.993   3.497 -1.9904 -3.8822  0.2928
  227MOL0     H31326   9.228   3.108   3.523 -0.8174 -1.6883 -3.7668
  228MOL0     O31327   7.012   4.053   7.790 -0.8594 -0.7246  0.2268
  228MOL0     C31328   7.065   4.169   7.783  0.0491  0.6998 -0.3957
  228MOL0     O31329   7.108   4.231   7.897  0.2058  0.1099 -0.2355
  228MOL0     C31330   7.081   4.181   8.030  0.1377  0.6636 -0.0521
  228MOL0     C31331   6.989   4.078   8.071 -0.0363  0.1440 -0.2858
  228MOL0     C31332   6.963   4.042   8.207  0.2148 -1.0579  0.1449
  228MOL0     C31333   7.029   4.113   8.306 -0.2655  0.5335  0.1556
  228MOL0     O31334   7.000   4.077   8.436  0.0278  0.6247 -0.1551
  228MOL0     C31335   7.102   4.073   8.537 -0.6212 -0.0910  0.2556
  228MOL0     C31336   7.107   3.937   8.597 -0.0471 -0.8674 -0.4245
  228MOL0     C31337   7.144   3.833   8.493 -0.1564  0.3758 -0.9841
  228MOL0     C31338   7.141   3.690   8.568  0.9905 -0.0354  0.6159
  228MOL0     C31339   7.224   3.587   8.503  0.5508  0.7060  0.3179
  228MOL0     C31340   7.367   3.609   8.521 -0.7846  0.3789  0.1730
  228MOL0     C31341   7.451   3.480   8.502 -1.1636 -0.0491 -0.7670
  228MOL0     C31342   7.466   3.446   8.353  0.4927 -0.5256 -0.1965
  228MOL0     N31343   7.571   3.528   8.291  0.2382 -0.2379 -0.4342
  228MOL0     C31344   7.695   3.476   8.254  0.7276 -0.4160 -1.1264
  228MOL0     C31345   7.744   3.582   8.188 -0.4886 -1.1158 -0.5530
  228MOL0     C31346   7.894   3.595   8.165  0.5753  0.4793  0.5541
  228MOL0     C31347   7.954   3.674   8.284  0.0667 -0.0950 -0.6780
  228MOL0     C31348   7.939   3.829   8.287  0.0752  0.4336  0.1719
  228MOL0     C31349   8.019   3.908   8.392  0.0776 -0.1668  0.1371
  228MOL0     O31350   8.148   3.904   8.347  0.5021 -0.6155 -1.4321
  228MOL0     C31351   8.252   3.936   8.433 -0.0294 -0.0982  0.4588
  228MOL0     C31352   8.377   3.886   8.400 -0.8173  0.0347  0.1167
  228MOL0     C31353   8.487   3.919   8.482  0.1078  0.8079 -0.8324
  228MOL0     C31354   8.622   3.860   8.432  0.7467 -0.2971  0.4691
  228MOL0     C31355   8.477   4.006   8.594 -0.1050 -0.4187  0.6193
  228MOL0     C31356   8.592   4.046   8.675 -0.2847 -0.1590 -0.5590
  228MOL0     O31357   8.561   4.140   8.768  0.8597  0.4955 -0.3583
  228MOL0     C31358   8.644   4.214   8.839 -0.0623 -0.2709 -0.1043
  228MOL0     C31359   8.638   4.356   8.839 -0.5263  0.1511 -0.9609
  228MOL0     C31360   8.727   4.431   8.919 -0.0537 -0.0605  0.0348
  228MOL0     C31361   8.823   4.379   9.005  0.8057  0.4493 -0.9257
  228MOL0     O31362   8.889   4.471   9.077 -0.1365 -0.1350  0.0165
  228MOL0     C31363   9.012   4.427   9.137 -0.4068 -0.8082 -0.2875
  228MOL0     C31364   9.131   4.376   9.052 -0.7823  0.4838 -0.2445
  228MOL0     C31365   9.258   4.357   9.135  0.8612  0.4182 -0.5154
  228MOL0     C31366   9.250   4.249   9.247 -0.2753 -0.0015  0.0840
  228MOL0     C31367   9.222   4.111   9.184 -0.1985  1.1422  0.2613
  228MOL0     C31368   9.239   3.994   9.280 -1.6789 -0.7064 -0.4584
  228MOL0     C31369   9.174   3.867   9.230 -0.8533 -0.0732 -0.2370
  228MOL0     C31370   9.217   3.828   9.090 -1.4476  0.1263  0.2558
  228MOL0    Cl31371   9.393   3.807   9.087 -0.3843  0.1759  0.0486
  228MOL0     C31372   8.830   4.236   9.013  0.2817  0.4338 -0.1994
  228MOL0     C31373   8.740   4.161   8.926 -0.0998  0.0060 -0.1752
  228MOL0     O31374   8.702   4.022   8.643 -0.2108 -0.2518  0.5892
  228MOL0     C31375   8.342   4.058   8.627 -0.4101 -0.1779 -0.2614
  228MOL0     C31376   8.241   4.036   8.537  0.2307 -0.0958 -0.1926
  228MOL0     N31377   7.647   3.667   8.144  0.3483  1.4270 -1.3319
  228MOL0     N31378   7.551   3.639   8.223  0.3944 -0.1589  0.0728
  228MOL0     C31379   7.114   4.217   8.270  0.1770 -0.0396 -0.8912
  228MOL0     C31380   7.122   4.260   8.141 -0.4531  0.4195 -0.9974
  228MOL0     C31381   7.086   4.242   7.652 -0.1377  0.9156 -0.4511
  228MOL0     C31382   7.187   4.339   7.663  0.4348 -0.4922  0.3009
  228MOL0     C31383   7.248   4.405   7.554 -0.2441  0.1209 -0.2450
  228MOL0     C31384   7.196   4.374   7.424  0.4051  0.2465 -1.3704
  228MOL0     O31385   7.254   4.427   7.312 -0.0775 -0.2336 -0.3150
  228MOL0     C31386   7.255   4.572   7.321 -0.4542  0.0765  1.2965
  228MOL0     C31387   7.193   4.613   7.186 -0.0290 -0.5705 -0.0850
  228MOL0     C31388   7.262   4.563   7.060 -0.2347 -0.9813  0.3841
  228MOL0     C31389   7.237   4.667   6.946  1.0947  0.5585  0.2738
  228MOL0     C31390   7.269   4.587   6.823 -0.1366 -0.7792  0.2196
  228MOL0     C31391   7.296   4.515   6.724 -0.7195 -0.2027  0.7336
  228MOL0     C31392   7.088   4.289   7.412 -0.1332  0.0266 -0.0398
  228MOL0     C31393   7.026   4.229   7.523  0.3457  0.3250  0.8717
  228MOL0     C31394   6.902   4.151   7.489 -0.6492 -0.1806 -0.6938
  228MOL0     H31395   6.929   4.018   8.003  1.1786  0.9171 -2.1311
  228MOL0     H31396   6.898   3.958   8.227  1.0450 -1.5459  0.8891
  228MOL0     H31397   7.062   4.138   8.615  0.1910 -0.4555  0.9920
  228MOL0     H31398   7.201   4.106   8.506 -0.9826 -0.1276 -1.0035
  228MOL0     H31399   7.189   3.934   8.669  2.3731 -1.1510 -3.0238
  228MOL0     H31400   7.006   3.907   8.627  0.2428 -3.4679 -1.7382
  228MOL0     H31401   7.061   3.829   8.422 -0.7030 -1.0708 -0.3126
  228MOL0     H31402   7.233   3.859   8.435 -0.8158  1.3146 -1.6066
  228MOL0     H31403   7.160   3.693   8.676 -0.8842 -3.1061  1.1541
  228MOL0     H31404   7.040   3.651   8.551  1.3852 -0.2140 -1.5587
  228MOL0     H31405   7.200   3.590   8.396 -3.5384 -2.8906  0.8770
  228MOL0     H31406   7.193   3.493   8.550 -1.0536  1.0383 -0.0390
  228MOL0     H31407   7.396   3.692   8.456 -1.9657  1.8401  1.4428
  228MOL0     H31408   7.386   3.632   8.626  0.7148 -1.3413  0.3257
  228MOL0     H31409   7.407   3.390   8.548  1.2948 -0.5757  0.7372
  228MOL0     H31410   7.549   3.492   8.549  0.4124 -1.1325 -3.5880
  228MOL0     H31411   7.481   3.339   8.340 -1.9369 -0.7989 -1.3465
  228MOL0     H31412   7.368   3.464   8.308  0.0819  1.1239  1.2301
  228MOL0     H31413   7.731   3.386   8.302 -0.6490 -1.3866 -1.8505
  228MOL0     H31414   7.925   3.635   8.068 -1.2011  0.0158 -0.2459
  228MOL0     H31415   7.927   3.490   8.169  1.8212  0.7246 -1.5466
  228MOL0     H31416   7.908   3.654   8.381 -3.5372  5.4543 -0.7435
  228MOL0     H31417   8.062   3.656   8.286 -0.3783 -4.4328  4.0259
  228MOL0     H31418   7.976   3.859   8.188 -1.0539 -0.0520 -0.4173
  228MOL0     H31419   7.832   3.852   8.291 -0.2193 -0.3806 -1.8953
  228MOL0     H31420   7.966   4.003   8.404 -0.9386 -0.6856 -0.1836
  228MOL0     H31421   8.012   3.857   8.488  2.2603 -2.9878 -1.0462
  228MOL0     H31422   8.379   3.813   8.320  1.0714 -2.0400  1.9172
  228MOL0     H31423   8.685   3.821   8.512  1.6243 -2.8415 -1.3265
  228MOL0     H31424   8.682   3.938   8.385  0.5491 -0.2366  0.3143
  228MOL0     H31425   8.606   3.775   8.364 -0.4968  0.8392 -0.7315
  228MOL0     H31426   8.563   4.401   8.775  0.3519 -1.5109 -3.3340
  228MOL0     H31427   8.712   4.538   8.921  0.9670  0.1088  2.2989
  228MOL0     H31428   9.049   4.514   9.192  1.6293 -0.9906 -1.3026
  228MOL0     H31429   8.974   4.346   9.200 -0.1739 -1.3462 -0.8294
  228MOL0     H31430   9.102   4.279   9.009 -1.4825  0.3061  0.6037
  228MOL0     H31431   9.146   4.448   8.972 -2.1753  1.4450  0.3291
  228MOL0     H31432   9.283   4.444   9.197 -1.4100 -1.0860  2.8348
  228MOL0     H31433   9.345   4.333   9.073  0.4055  0.1941 -1.0768
  228MOL0     H31434   9.174   4.278   9.319 -1.5984 -1.2700 -0.7456
  228MOL0     H31435   9.346   4.243   9.299 -0.5726 -1.1878  0.5213
  228MOL0     H31436   9.133   4.105   9.122  0.8438 -0.4545 -1.1830
  228MOL0     H31437   9.296   4.102   9.104  0.1244  0.0266  0.6640
  228MOL0     H31438   9.198   4.016   9.380  1.5802  3.2917  0.2493
  228MOL0     H31439   9.344   3.984   9.306 -1.5818  1.5200  0.2069
  228MOL0     H31440   9.065   3.872   9.223 -0.7347  1.6925 -1.3045
  228MOL0     H31441   9.208   3.788   9.298  0.5952  0.8873  0.2153
  228MOL0     H31442   9.188   3.905   9.019  3.5936  2.4454  0.3136
  228MOL0     H31443   9.174   3.730   9.067  0.1721 -0.1963 -1.5884
  228MOL0     H31444   8.904   4.186   9.075  0.9106  0.3405 -1.0103
  228MOL0     H31445   8.735   4.053   8.938 -1.1475  0.1655  1.1269
  228MOL0     H31446   8.318   4.120   8.713  3.0075 -0.7881  1.2889
  228MOL0     H31447   8.146   4.086   8.554  1.6237  2.3659  0.7498
  228MOL0     H31448   7.157   4.276   8.350  0.1965 -0.3908 -0.6364
  228MOL0     H31449   7.158   4.361   8.125  2.9041  0.4981  4.4522
  228MOL0     H31450   7.229   4.371   7.758  0.6937 -2.4530  0.8906
  228MOL0     H31451   7.330   4.475   7.566 -1.1376  1.0174  0.8647
  228MOL0     H31452   7.195   4.619   7.399 -0.6420  0.9811  0.6241
  228MOL0     H31453   7.357   4.608   7.336  0.4187  0.5116 -3.8512
  228MOL0     H31454   7.198   4.722   7.199 -3.0163 -0.5280  1.6078
  228MOL0     H31455   7.088   4.586   7.175 -0.7989  1.6913  1.0567
  228MOL0     H31456   7.368   4.544   7.074  0.2331  0.3677 -1.0117
  228MOL0     H31457   7.212   4.467   7.042 -1.4246 -0.4123  0.5407
  228MOL0     H31458   7.314   4.744   6.956  1.6993 -0.2951  2.8346
  228MOL0     H31459   7.136   4.708   6.954 -0.3122 -2.7388  0.9075
  228MOL0     H31460   7.308   4.462   6.632 -0.0487 -0.0420  0.7219
  228MOL0     H31461   7.058   4.283   7.308 -0.5142  0.4041  0.0429
  228MOL0     H31462   6.924   4.049   7.458  0.2356 -0.7953  1.6993
  228MOL0     H31463   6.849   4.153   7.585  1.8015 -0.5869  0.7803
  228MOL0     H31464   6.850   4.211   7.414  0.5668  1.9958  0.1220
  229MOL0     O31465   9.283   5.165  10.448 -0.1052  0.2051 -0.2365
  229MOL0     C31466   9.335   5.277  10.458 -0.0216  0.3118 -0.1208
  229MOL0     O31467   9.425   5.319  10.541  0.3840 -0.5259 -0.3570
  229MOL0     C31468   9.487   5.231  10.626  0.4360 -1.0061 -0.0878
  229MOL0     C31469   9.618   5.272  10.666 -0.0472 -0.8140 -0.7842
  229MOL0     C31470   9.678   5.213  10.776  0.5032  0.5460  0.0046
  229MOL0     C31471   9.627   5.095  10.839  0.1436 -0.0035 -0.0327
  229MOL0     O31472   9.707   5.034  10.940 -0.0317 -0.8684 -0.0269
  229MOL0     C31473   9.708   4.891  10.966 -0.3249 -0.1461  0.5584
  229MOL0     C31474   9.790   4.860  11.094  0.2947  0.6533  0.1669
  229MOL0     C31475   9.811   4.709  11.089 -0.4321 -0.0977 -0.4186
  229MOL0     C31476   9.901   4.662  11.201 -0.5212 -0.0192 -1.1366
  229MOL0     C31477   9.933   4.511  11.189 -0.8216 -0.1233  0.5928
  229MOL0     C31478   9.987   4.454  11.324  0.5462  0.5060 -0.0847
  229MOL0     C31479  10.006   4.307  11.301  0.3563  0.1845 -0.7514
  229MOL0     C31480  10.006   4.229  11.439  0.3600 -0.0911  0.1101
  229MOL0     N31481   9.876   4.213  11.491 -0.2473  0.2662 -0.5582
  229MOL0     C31482   9.813   4.293  11.584 -0.1400  0.7879 -1.1279
  229MOL0     C31483   9.686   4.242  11.606  0.7267  1.4692  0.2405
  229MOL0     C31484   9.584   4.291  11.713  0.5911 -0.0910 -0.0271
  229MOL0     C31485   9.603   4.199  11.838  0.6104  0.0591  0.3210
  229MOL0     C31486   9.463   4.149  11.895 -0.6601 -0.3920 -0.1245
  229MOL0     C31487   9.492   4.027  11.987 -0.0949 -0.4656 -0.0974
  229MOL0     O31488   9.356   3.983  12.031 -0.2552  0.3593  0.0132
  229MOL0     C31489   9.338   3.848  12.022  0.3782 -0.1254  0.1678
  229MOL0     C31490   9.389   3.763  12.115 -0.2626  0.2406 -0.2415
  229MOL0     C31491   9.379   3.623  12.114 -0.9748 -0.2186  0.5968
  229MOL0     C31492   9.459   3.543  12.212  0.1871  0.6387 -0.6108
  229MOL0     C31493   9.295   3.569  12.009 -0.2157 -0.2661 -0.2556
  229MOL0     C31494   9.256   3.430  11.989 -0.0487  0.7722 -0.0730
  229MOL0     O31495   9.149   3.411  11.911 -0.5976  0.9476 -0.2094
  229MOL0     C31496   9.081   3.291  11.906 -0.3580 -0.3824  0.1985
  229MOL0     C31497   9.016   3.247  11.790  0.1574  0.8282 -0.1475
  229MOL0     C31498   8.935   3.128  11.794  1.2230 -0.2954  0.4172
  229MOL0     C31499   8.898   3.077  11.917  0.1609 -0.1486 -0.2424
  229MOL0     O31500   8.793   2.995  11.928  0.1045  0.0228 -0.7740
  229MOL0     C31501   8.785   2.874  11.860  0.3122  0.2731  0.5064
  229MOL0     C31502   8.827   2.753  11.955 -0.3445 -0.7462 -0.0655
  229MOL0     C31503   8.768   2.774  12.096  0.2068  0.0856 -1.1211
  229MOL0     C31504   8.646   2.692  12.127 -0.1023 -1.3207  0.0429
  229MOL0     C31505   8.528   2.712  12.045 -0.1435  0.0446  0.2727
  229MOL0     C31506   8.459   2.835  12.073  0.0612 -0.2704  0.0355
  229MOL0     C31507   8.334   2.849  11.993 -0.1706 -1.0013  0.0909
  229MOL0     C31508   8.265   2.984  12.037 -0.5730 -0.1405  0.8531
  229MOL0    Cl31509   8.127   3.012  11.931  0.0556  0.4730  0.6389
  229MOL0     C31510   8.966   3.114  12.030  0.2302 -0.3058 -0.1668
  229MOL0     C31511   9.052   3.220  12.027  0.3927  0.5267 -0.5347
  229MOL0     O31512   9.316   3.334  12.054 -0.1483  0.3967 -0.0226
  229MOL0     C31513   9.239   3.660  11.917  0.1880  0.2432 -0.1466
  229MOL0     C31514   9.264   3.794  11.923  0.2704  1.0941 -0.0889
  229MOL0     N31515   9.687   4.122  11.536  0.3140 -1.0043  0.5146
  229MOL0     N31516   9.795   4.101  11.467  0.2092 -0.1230  0.5208
  229MOL0     C31517   9.506   5.047  10.792 -1.0862 -0.1648 -0.1925
  229MOL0     C31518   9.429   5.115  10.695 -0.9924 -0.7094  0.4093
  229MOL0     C31519   9.291   5.379  10.364  0.5509  0.2759 -0.1972
  229MOL0     C31520   9.271   5.322  10.244  0.0639  0.0726 -0.4121
  229MOL0     C31521   9.227   5.400  10.145 -0.6582  0.1189  0.6827
  229MOL0     C31522   9.204   5.538  10.150 -1.1110  0.8951  1.4036
  229MOL0     O31523   9.167   5.606  10.029  0.0127 -0.4614  0.4860
  229MOL0     C31524   9.131   5.546   9.906  0.9801 -1.2942  0.5252
  229MOL0     C31525   9.129   5.650   9.786 -0.7695  0.1833 -0.1664
  229MOL0     C31526   9.018   5.750   9.816 -1.1486 -0.0461  0.6601
  229MOL0     C31527   9.030   5.876   9.723 -0.2236 -0.3791 -0.9036
  229MOL0     C31528   8.953   5.993   9.777 -0.3176 -0.2077  0.1361
  229MOL0     C31529   8.879   6.076   9.832  0.3741 -0.2219 -0.4952
  229MOL0     C31530   9.246   5.597  10.266  0.5698  0.3952  0.3258
  229MOL0     C31531   9.283   5.520  10.380  0.1502 -0.4917  0.9084
  229MOL0     C31532   9.330   5.589  10.501 -0.8510 -1.2628  0.7289
  229MOL0     H31533   9.667   5.365  10.638 -1.7402  0.0780 -0.9512
  229MOL0     H31534   9.773   5.250  10.816 -0.4554  2.6865  0.4820
  229MOL0     H31535   9.754   4.846  10.878 -0.9185 -0.3654  0.3568
  229MOL0     H31536   9.608   4.848  10.975 -0.0357 -0.6307  1.5768
  229MOL0     H31537   9.885   4.914  11.088  0.1468  0.7873 -1.8000
  229MOL0     H31538   9.742   4.889  11.187 -1.7292  0.7701 -0.8657
  229MOL0     H31539   9.719   4.651  11.099 -0.8513  0.8670  2.3565
  229MOL0     H31540   9.859   4.696  10.992 -0.4437  0.3545 -0.4884
  229MOL0     H31541   9.997   4.714  11.192 -0.9021  0.6534 -1.3593
  229MOL0     H31542   9.867   4.678  11.304  1.4547  0.4158 -0.5059
  229MOL0     H31543  10.009   4.503  11.111 -2.9141 -0.0428 -1.5701
  229MOL0     H31544   9.845   4.453  11.162 -0.1417 -1.1392  0.4903
  229MOL0     H31545  10.075   4.507  11.362 -0.1522 -0.1240  2.6731
  229MOL0     H31546   9.905   4.479  11.392  1.5446 -1.7177  2.1426
  229MOL0     H31547  10.105   4.293  11.257 -0.1729 -2.7833 -1.1614
  229MOL0     H31548   9.928   4.269  11.234 -0.7695 -1.3609  1.3227
  229MOL0     H31549  10.055   4.132  11.428  0.3656 -0.0470 -0.2378
  229MOL0     H31550  10.066   4.293  11.505  1.1125  0.6104 -1.2144
  229MOL0     H31551   9.860   4.372  11.643  2.0585 -1.6082  0.5646
  229MOL0     H31552   9.480   4.285  11.678  0.9074 -0.4588 -0.9287
  229MOL0     H31553   9.607   4.396  11.732  0.2712 -0.1112  0.4816
  229MOL0     H31554   9.656   4.107  11.811 -3.7336 -3.1296  1.5678
  229MOL0     H31555   9.655   4.254  11.918  1.7143  2.8556 -2.1218
  229MOL0     H31556   9.421   4.235  11.948  0.4810  0.2131 -0.1738
  229MOL0     H31557   9.394   4.120  11.815 -2.1548 -0.3521  1.1003
  229MOL0     H31558   9.556   3.950  11.942  1.8769  2.3548 -2.4703
  229MOL0     H31559   9.549   4.056  12.077  2.4797 -0.0023 -1.7703
  229MOL0     H31560   9.464   3.803  12.184  0.8126 -1.2001 -0.5158
  229MOL0     H31561   9.553   3.511  12.168  0.0486 -0.6477 -0.0006
  229MOL0     H31562   9.407   3.453  12.245 -1.4424  1.5900 -0.4253
  229MOL0     H31563   9.489   3.593  12.304  0.8398 -0.6529 -0.0985
  229MOL0     H31564   9.042   3.298  11.698 -0.8675 -1.0637 -1.5685
  229MOL0     H31565   8.893   3.093  11.701 -2.8567 -0.0600  1.9555
  229MOL0     H31566   8.684   2.861  11.821  0.7363 -0.3700 -0.4156
  229MOL0     H31567   8.856   2.873  11.778  1.2305  1.5827  1.2535
  229MOL0     H31568   8.800   2.654  11.915  0.8159 -1.0901 -0.0331
  229MOL0     H31569   8.936   2.755  11.957 -0.3563 -0.1058  0.0993
  229MOL0     H31570   8.749   2.879  12.120 -2.2166 -0.4376 -0.4734
  229MOL0     H31571   8.836   2.740  12.175 -1.5471  0.3025  0.5838
  229MOL0     H31572   8.614   2.716  12.228 -0.1432 -0.6816 -0.1202
  229MOL0     H31573   8.678   2.587  12.123 -0.2746 -1.3868  0.3490
  229MOL0     H31574   8.536   2.700  11.936 -1.3149  1.9895 -0.0879
  229MOL0     H31575   8.460   2.633  12.077  2.1300 -1.6443  1.2046
  229MOL0     H31576   8.517   2.927  12.057 -0.0187  0.3483  2.6597
  229MOL0     H31577   8.432   2.826  12.179 -0.8768 -3.0609 -0.3617
  229MOL0     H31578   8.268   2.763  12.009 -2.8583  0.9604  0.2186
  229MOL0     H31579   8.374   2.846  11.892  1.6814  0.1362  0.7572
  229MOL0     H31580   8.339   3.064  12.041  0.7310 -1.3393  1.2631
  229MOL0     H31581   8.220   2.980  12.136 -4.4058  2.8084 -0.5060
  229MOL0     H31582   8.931   3.077  12.126 -1.4130  2.9239  0.6117
  229MOL0     H31583   9.111   3.249  12.113 -0.3293 -0.4435  0.3037
  229MOL0     H31584   9.173   3.616  11.843 -0.8244  0.0272  0.8571
  229MOL0     H31585   9.217   3.857  11.849 -0.6371 -1.8767 -2.2385
  229MOL0     H31586   9.465   4.950  10.818 -0.0521 -1.3763 -2.7156
  229MOL0     H31587   9.331   5.078  10.665 -1.0832  0.3118 -0.6339
  229MOL0     H31588   9.291   5.219  10.219  0.4964  0.0124  0.1616
  229MOL0     H31589   9.190   5.351  10.055  0.8616  2.1286 -1.1232
  229MOL0     H31590   9.205   5.473   9.874  1.5117  0.1239 -1.6615
  229MOL0     H31591   9.031   5.503   9.919  0.1496  1.0084  2.4529
  229MOL0     H31592   9.115   5.599   9.690 -0.3659  3.1071 -1.8738
  229MOL0     H31593   9.226   5.697   9.767 -0.3507 -0.4333  0.4142
  229MOL0     H31594   8.919   5.707   9.834 -0.9066 -0.0947  2.0436
  229MOL0     H31595   9.036   5.784   9.919 -2.0655  0.6391  0.6073
  229MOL0     H31596   8.987   5.846   9.627  2.1536  0.3810 -2.3093
  229MOL0     H31597   9.135   5.897   9.701 -0.5793  0.2455 -2.0511
  229MOL0     H31598   8.820   6.149   9.883  0.0051 -0.1543 -1.0122
  229MOL0     H31599   9.244   5.705  10.267  1.7545  0.4490  2.4793
  229MOL0     H31600   9.439   5.587  10.511 -0.4335  1.2026 -2.0738
  229MOL0     H31601   9.285   5.689  10.497  0.4812 -0.6654 -0.0621
  229MOL0     H31602   9.278   5.549  10.589 -1.1364 -0.8857  0.7369
  230MOL0     O31603   5.135   9.946   2.141  0.2216  0.2089  0.3526
  230MOL0     C31604   5.128   9.829   2.102  0.6948  0.7229 -0.6173
  230MOL0     O31605   5.077   9.728   2.183 -0.0032 -0.1529  0.2476
  230MOL0     C31606   5.044   9.764   2.311  0.2559 -0.6209 -0.3094
  230MOL0     C31607   5.119   9.726   2.415 -0.0463  0.5019 -0.5247
  230MOL0     C31608   5.074   9.750   2.547 -0.1348 -0.5158 -0.9467
  230MOL0     C31609   4.948   9.799   2.574 -0.4037  0.1528 -0.2650
  230MOL0     O31610   4.918   9.815   2.713  0.3944  0.5073 -0.3368
  230MOL0     C31611   4.807   9.898   2.738  0.5414  0.2348 -0.2125
  230MOL0     C31612   4.765   9.882   2.893 -0.1342 -0.7665  0.4604
  230MOL0     C31613   4.632   9.956   2.914  0.4352 -0.4330 -0.0306
  230MOL0     C31614   4.607  10.091   2.851 -0.5619  0.0851  0.7668
  230MOL0     C31615   4.468  10.146   2.886 -0.0515 -0.5736  0.1171
  230MOL0     C31616   4.468  10.230   3.022  0.1058 -0.1269  0.4867
  230MOL0     C31617   4.327  10.269   3.049  0.1816 -0.6212  0.1990
  230MOL0     C31618   4.309  10.366   3.166  0.2985  0.1777  0.7455
  230MOL0     N31619   4.371  10.498   3.155  0.0605  0.0492  0.3658
  230MOL0     C31620   4.364  10.576   3.041 -0.4293 -0.2148  0.9403
  230MOL0     C31621   4.449  10.677   3.068 -0.0857 -0.2415  0.6254
  230MOL0     C31622   4.466  10.797   2.968 -0.7082  0.2238  0.2117
  230MOL0     C31623   4.572  10.913   3.007  0.5218  1.0280  0.0831
  230MOL0     C31624   4.502  11.011   3.100 -0.0145  0.0959  0.8165
  230MOL0     C31625   4.597  11.104   3.157 -0.8905 -0.2837  0.1491
  230MOL0     O31626   4.521  11.197   3.235 -0.1420 -0.0818 -0.5609
  230MOL0     C31627   4.578  11.318   3.273  0.8344  0.4138 -0.0512
  230MOL0     C31628   4.490  11.430   3.292 -0.3452  0.6416 -0.0983
  230MOL0     C31629   4.539  11.552   3.338  0.7315 -0.1742  1.1563
  230MOL0     C31630   4.440  11.656   3.351  0.4703  0.2522 -0.3671
  230MOL0     C31631   4.672  11.571   3.367  0.2688  0.0464 -0.5139
  230MOL0     C31632   4.720  11.695   3.439  0.0738 -0.3622 -0.5714
  230MOL0     O31633   4.757  11.800   3.361 -0.0471  0.4727 -0.2938
  230MOL0     C31634   4.839  11.889   3.416 -0.9146  0.6823 -0.5204
  230MOL0     C31635   4.949  11.861   3.509  1.5305  0.9251  0.3420
  230MOL0     C31636   5.039  11.954   3.556  0.0821  1.4938 -0.4792
  230MOL0     C31637   5.028  12.091   3.517 -0.2283  0.2143 -0.4905
  230MOL0     O31638   5.110  12.184   3.578 -0.0412 -0.0300 -0.5432
  230MOL0     C31639   5.074  12.319   3.580 -0.4335 -0.1585 -0.2241
  230MOL0     C31640   5.203  12.371   3.644  0.0942 -0.6402 -0.1375
  230MOL0     C31641   5.202  12.523   3.677 -0.3954 -0.1608  0.5227
  230MOL0     C31642   5.318  12.568   3.769 -0.1695  0.0902 -0.8159
  230MOL0     C31643   5.348  12.709   3.745  0.2002  0.6644 -0.5032
  230MOL0     C31644   5.490  12.743   3.798  0.0993 -0.0963 -0.8135
  230MOL0     C31645   5.497  12.769   3.954  0.4814 -0.1812 -1.1060
  230MOL0     C31646   5.639  12.816   3.995  0.6168 -0.1762 -0.0099
  230MOL0    Cl31647   5.750  12.674   4.015 -0.6904  0.1718  0.0315
  230MOL0     C31648   4.926  12.122   3.430  1.2616 -0.1768 -0.8309
  230MOL0     C31649   4.850  12.019   3.372 -0.5991  0.8790  0.4123
  230MOL0     O31650   4.710  11.689   3.557 -0.7884  0.2912 -0.3891
  230MOL0     C31651   4.754  11.458   3.365 -0.1771 -0.1462 -0.8125
  230MOL0     C31652   4.712  11.322   3.323 -0.4252 -0.0582 -0.0119
  230MOL0     N31653   4.518  10.653   3.182  0.2354 -0.5270 -0.3224
  230MOL0     N31654   4.475  10.548   3.234 -0.9542 -0.4091  0.2472
  230MOL0     C31655   4.869   9.843   2.464  0.6129  0.5760 -0.8654
  230MOL0     C31656   4.923   9.831   2.337 -0.4351  0.3948 -0.1841
  230MOL0     C31657   5.133   9.790   1.958 -0.4784 -0.8455  1.1039
  230MOL0     C31658   5.111   9.652   1.919  0.2839 -1.1425  0.0390
  230MOL0     C31659   5.096   9.618   1.788  0.5322 -0.2922  0.4574
  230MOL0     C31660   5.087   9.718   1.692 -0.0650  0.5217 -0.0467
  230MOL0     O31661   5.059   9.691   1.554  0.2938 -0.0966  0.4939
  230MOL0     C31662   5.041   9.557   1.509 -0.0630  1.0678  0.1153
  230MOL0     C31663   4.980   9.557   1.368 -0.9442 -0.3315 -0.7315
  230MOL0     C31664   5.074   9.605   1.268 -0.4396  0.7180  0.4301
  230MOL0     C31665   5.016   9.610   1.127  1.1492  0.7242  1.1171
  230MOL0     C31666   5.118   9.593   1.014 -0.3339  0.3565  0.4524
  230MOL0     C31667   5.204   9.607   0.925 -1.0027 -0.3178 -0.6129
  230MOL0     C31668   5.124   9.846   1.722  0.1387  0.2855 -1.2156
  230MOL0     C31669   5.145   9.890   1.856  0.3008 -0.5457 -0.0654
  230MOL0     C31670   5.189  10.028   1.874 -0.7979 -0.1034 -0.1155
  230MOL0     H31671   5.214   9.676   2.400 -2.5565 -4.6595 -1.4682
  230MOL0     H31672   5.133   9.716   2.631 -1.0870  0.4021  0.1352
  230MOL0     H31673   4.727   9.882   2.665  2.5322 -0.3437 -2.3675
  230MOL0     H31674   4.837  10.002   2.721 -1.0350  0.4784 -1.8749
  230MOL0     H31675   4.763   9.778   2.927 -0.6849 -0.6340  0.8459
  230MOL0     H31676   4.851   9.930   2.940  0.3967 -0.5283 -0.7171
  230MOL0     H31677   4.556   9.883   2.885  1.2128 -0.7783 -1.2960
  230MOL0     H31678   4.611   9.968   3.021  0.7429 -0.4178  0.0279
  230MOL0     H31679   4.690  10.158   2.876 -0.9852  0.3003  1.6357
  230MOL0     H31680   4.593  10.079   2.743 -0.5173  1.0545  0.6417
  230MOL0     H31681   4.398  10.067   2.915  0.8475 -1.8433 -1.0753
  230MOL0     H31682   4.420  10.206   2.808 -2.4318  0.0642  1.9516
  230MOL0     H31683   4.508  10.178   3.109 -2.0508 -1.3738  0.8123
  230MOL0     H31684   4.521  10.323   2.998 -1.0536  0.6805  0.9628
  230MOL0     H31685   4.277  10.176   3.077  1.4494 -1.6521 -0.8034
  230MOL0     H31686   4.284  10.320   2.963  0.7614  0.3859  0.4890
  230MOL0     H31687   4.201  10.371   3.184  0.2723  0.5744  0.4898
  230MOL0     H31688   4.354  10.316   3.251  1.7160  0.3113  0.1006
  230MOL0     H31689   4.295  10.568   2.957 -0.8705  3.0175  0.8280
  230MOL0     H31690   4.364  10.837   2.965 -0.8812 -0.0614  1.7151
  230MOL0     H31691   4.485  10.752   2.869 -1.0796  1.5707 -0.4919
  230MOL0     H31692   4.658  10.865   3.055 -0.9665  0.3267  2.2011
  230MOL0     H31693   4.593  10.973   2.918  4.0393  2.3699  1.6381
  230MOL0     H31694   4.429  11.063   3.038  1.4329  1.1269 -0.0819
  230MOL0     H31695   4.452  10.954   3.179 -0.6538 -1.6921 -0.8070
  230MOL0     H31696   4.672  11.060   3.223 -0.7772 -1.0635 -0.4896
  230MOL0     H31697   4.659  11.156   3.084 -0.6218  0.6852  1.0322
  230MOL0     H31698   4.387  11.424   3.259  0.4187 -2.2006 -2.4424
  230MOL0     H31699   4.480  11.753   3.319 -1.4899  1.6996  1.2413
  230MOL0     H31700   4.398  11.662   3.451 -1.6744 -4.1440 -0.7687
  230MOL0     H31701   4.352  11.641   3.287 -0.7740 -0.0789  1.3585
  230MOL0     H31702   4.950  11.753   3.522 -0.4619  0.9858  1.3512
  230MOL0     H31703   5.096  11.924   3.644 -3.7616  0.2112  1.7893
  230MOL0     H31704   5.072  12.359   3.479 -1.2740 -1.0025 -0.5563
  230MOL0     H31705   4.984  12.347   3.636 -1.0455  0.7226 -1.5961
  230MOL0     H31706   5.212  12.313   3.737 -3.1160 -1.5101 -0.2493
  230MOL0     H31707   5.287  12.353   3.575  0.1839 -1.1924  0.1072
  230MOL0     H31708   5.112  12.543   3.737 -0.2667  1.6693  0.1499
  230MOL0     H31709   5.192  12.578   3.584  0.3229 -1.8121 -0.5823
  230MOL0     H31710   5.402  12.505   3.741 -0.2928 -0.7271  0.5522
  230MOL0     H31711   5.296  12.559   3.876  1.7811  1.8958 -0.2047
  230MOL0     H31712   5.357  12.727   3.637 -0.0528 -0.0080 -0.6353
  230MOL0     H31713   5.279  12.781   3.791 -1.0224 -0.3248 -0.7485
  230MOL0     H31714   5.512  12.837   3.745 -1.4680 -0.6356 -2.5241
  230MOL0     H31715   5.564  12.665   3.778  1.8156  1.5596 -1.3091
  230MOL0     H31716   5.464  12.685   4.016  1.1182  1.7095  2.0230
  230MOL0     H31717   5.424  12.847   3.979  0.2423 -1.6813  3.9710
  230MOL0     H31718   5.634  12.865   4.093 -1.2408  1.6916 -0.9728
  230MOL0     H31719   5.673  12.874   3.909  1.7364 -1.6806 -0.6244
  230MOL0     H31720   4.911  12.227   3.408  0.2081  0.7733  3.5031
  230MOL0     H31721   4.788  12.032   3.284 -1.5443  0.2335  0.9643
  230MOL0     H31722   4.850  11.462   3.415 -0.3656 -3.1559  0.0096
  230MOL0     H31723   4.776  11.235   3.322 -0.6522 -0.2247  0.0457
  230MOL0     H31724   4.771   9.890   2.466  1.7894  3.1653 -0.0766
  230MOL0     H31725   4.852   9.857   2.260  1.5818  1.3330 -1.8364
  230MOL0     H31726   5.086   9.573   1.989 -0.1415  0.2135  1.4709
  230MOL0     H31727   5.084   9.514   1.758  0.4601 -0.2142  0.2089
  230MOL0     H31728   5.138   9.508   1.522  1.1998  3.3181 -0.2797
  230MOL0     H31729   4.977   9.509   1.583  1.0548  0.1744  0.5257
  230MOL0     H31730   4.884   9.610   1.373 -0.2519  0.9591 -0.7371
  230MOL0     H31731   4.960   9.450   1.356 -0.1855 -0.2550 -3.3111
  230MOL0     H31732   5.107   9.708   1.286  1.2136  0.1068  1.0559
  230MOL0     H31733   5.152   9.528   1.270  0.3832  1.5530  1.4984
  230MOL0     H31734   4.961   9.704   1.120  2.0936  1.3105  1.5147
  230MOL0     H31735   4.944   9.528   1.115  3.4975 -1.6841  2.3681
  230MOL0     H31736   5.295   9.627   0.872 -0.0703 -3.6734 -0.4510
  230MOL0     H31737   5.143   9.914   1.639 -4.1310 -0.3718 -3.0032
  230MOL0     H31738   5.134  10.093   1.942  2.0745  0.8523  1.4720
  230MOL0     H31739   5.289  10.021   1.918  0.0230  0.8793 -1.7181
  230MOL0     H31740   5.216  10.086   1.786  3.0073 -0.8689  0.3803
  231MOL0     O31741   9.587   8.270   3.808 -0.9146  0.4024 -0.8760
  231MOL0     C31742   9.564   8.188   3.897 -0.3006  0.1488 -0.0652
  231MOL0     O31743   9.460   8.099   3.887 -0.3148  0.2718  0.1936
  231MOL0     C31744   9.367   8.124   3.787 -0.2125  0.1495  1.4382
  231MOL0     C31745   9.304   8.249   3.769 -0.1400  0.6358  0.5305
  231MOL0     C31746   9.210   8.280   3.668 -0.7572  0.2165  0.8923
  231MOL0     C31747   9.187   8.179   3.570 -0.0464  0.6208  0.2445
  231MOL0     O31748   9.105   8.194   3.462 -1.1976  0.3274  0.0994
  231MOL0     C31749   9.142   8.299   3.366  0.2239 -0.3734 -0.3066
  231MOL0     C31750   9.049   8.423   3.379  1.0092  0.4896 -0.3610
  231MOL0     C31751   9.086   8.545   3.299  0.1815 -0.9116 -0.7490
  231MOL0     C31752   9.233   8.598   3.314 -0.6910 -0.4139  0.1612
  231MOL0     C31753   9.244   8.731   3.229 -0.2895 -1.3383  0.4014
  231MOL0     C31754   9.371   8.805   3.267 -0.0378 -0.7433  0.1036
  231MOL0     C31755   9.383   8.942   3.196  0.0236 -0.4830  0.6218
  231MOL0     C31756   9.525   9.014   3.225 -0.3239 -0.5671 -0.3906
  231MOL0     N31757   9.537   9.150   3.166 -0.6361  0.0463  0.1396
  231MOL0     C31758   9.663   9.208   3.148 -0.6157 -0.5411 -0.9248
  231MOL0     C31759   9.629   9.315   3.080 -0.0203  0.1954  0.6438
  231MOL0     C31760   9.727   9.415   3.012  0.4115  0.2653  0.4649
  231MOL0     C31761   9.752   9.379   2.857  0.8368 -0.5092 -0.4268
  231MOL0     C31762   9.805   9.236   2.838 -0.3315 -0.0417  0.6227
  231MOL0     C31763   9.710   9.129   2.784  0.1310 -0.4675  0.1346
  231MOL0     O31764   9.783   9.012   2.744  0.4942 -0.0160  0.2846
  231MOL0     C31765   9.784   8.987   2.612 -0.7169  0.2826  0.0210
  231MOL0     C31766   9.681   8.927   2.541 -0.0427  0.2152  0.4525
  231MOL0     C31767   9.686   8.915   2.403 -0.3442  0.0266  0.2883
  231MOL0     C31768   9.563   8.881   2.330 -0.1100 -0.2039 -0.1300
  231MOL0     C31769   9.799   8.957   2.335  0.1071 -0.2973 -0.1712
  231MOL0     C31770   9.817   8.954   2.198 -0.6308 -0.3620 -0.2378
  231MOL0     O31771   9.834   9.075   2.133 -0.0456  0.2234 -0.3392
  231MOL0     C31772   9.895   9.069   2.014  0.1484 -0.0343 -0.2909
  231MOL0     C31773   9.830   9.014   1.903 -0.1834 -0.0691 -0.2002
  231MOL0     C31774   9.879   9.026   1.779  0.3546  0.0015 -0.2469
  231MOL0     C31775  10.005   9.081   1.754 -0.3706 -0.8593  0.2124
  231MOL0     O31776  10.053   9.076   1.627  0.0279  0.3649 -0.0771
  231MOL0     C31777  10.179   9.133   1.591 -0.6909  0.3346  0.8074
  231MOL0     C31778  10.291   9.035   1.614  0.6309 -0.1630 -0.5258
  231MOL0     C31779  10.292   8.917   1.517  0.2203 -1.3235 -0.2231
  231MOL0     C31780  10.382   8.799   1.551 -0.1084  0.2958 -0.2916
  231MOL0     C31781  10.409   8.722   1.418  0.5915 -0.7760 -0.0905
  231MOL0     C31782  10.516   8.613   1.434 -0.3515 -0.2792  1.1110
  231MOL0     C31783  10.532   8.530   1.297  0.1083  0.8913  0.3694
  231MOL0     C31784  10.649   8.435   1.302 -0.4850  1.0885  0.7025
  231MOL0    Cl31785  10.667   8.360   1.147  0.4127  0.2967 -0.1795
  231MOL0     C31786  10.081   9.137   1.862 -0.4364 -0.1344  0.4478
  231MOL0     C31787  10.018   9.142   1.991  0.5813 -0.2923 -0.3296
  231MOL0     O31788   9.826   8.845   2.143  0.1538 -0.1239 -0.4587
  231MOL0     C31789   9.902   9.022   2.416 -0.7666 -0.0462 -0.0886
  231MOL0     C31790   9.890   9.038   2.544 -0.0836  0.6045 -0.3117
  231MOL0     N31791   9.496   9.315   3.043 -0.7155  0.6095  0.8276
  231MOL0     N31792   9.436   9.218   3.105 -0.4580 -0.2102  0.7156
  231MOL0     C31793   9.263   8.056   3.580  0.0459 -0.1131  0.0761
  231MOL0     C31794   9.343   8.028   3.688 -0.1034 -0.0451  0.4728
  231MOL0     C31795   9.662   8.185   4.007  0.3752 -0.2263 -0.8902
  231MOL0     C31796   9.646   8.090   4.106  1.1886 -0.3138 -1.5039
  231MOL0     C31797   9.740   8.056   4.205 -0.0042  0.5939  0.3993
  231MOL0     C31798   9.856   8.130   4.220 -0.5423  0.5529 -0.9923
  231MOL0     O31799   9.928   8.108   4.339  0.2534 -0.1735  0.0941
  231MOL0     C31800  10.067   8.130   4.335 -0.1525 -1.2400  0.6034
  231MOL0     C31801  10.146   8.002   4.379  0.1003 -0.1021 -1.0463
  231MOL0     C31802  10.105   7.966   4.519 -0.0233  0.1368 -0.3982
  231MOL0     C31803  10.231   7.905   4.591 -0.7801 -0.5554  0.0440
  231MOL0     C31804  10.187   7.863   4.725 -0.5764 -1.0877  0.0018
  231MOL0     C31805  10.141   7.831   4.836  0.5036  0.3798 -0.7286
  231MOL0     C31806   9.869   8.240   4.134 -0.7813  0.7723 -0.2764
  231MOL0     C31807   9.778   8.268   4.027  1.1031  0.5700  0.2187
  231MOL0     C31808   9.810   8.385   3.939 -0.0518  0.1909  0.9287
  231MOL0     H31809   9.324   8.327   3.841 -2.8122 -0.1252  2.2101
  231MOL0     H31810   9.157   8.375   3.669 -2.1349 -0.5238  0.6874
  231MOL0     H31811   9.129   8.249   3.270  4.4902  0.3475 -1.4744
  231MOL0     H31812   9.245   8.331   3.384 -0.1405  3.0295 -3.1085
  231MOL0     H31813   8.941   8.411   3.369  0.3037  3.8923  1.6776
  231MOL0     H31814   9.069   8.457   3.480  0.8144  0.2060 -0.2253
  231MOL0     H31815   9.066   8.528   3.193  0.0911 -5.3752 -0.1809
  231MOL0     H31816   9.015   8.621   3.334  0.7930  0.1681 -1.7722
  231MOL0     H31817   9.269   8.614   3.416 -0.7058  3.2076 -0.2769
  231MOL0     H31818   9.302   8.527   3.267 -0.2152  0.2824 -0.2095
  231MOL0     H31819   9.151   8.786   3.250  1.1853  2.0767 -1.2929
  231MOL0     H31820   9.244   8.701   3.124 -1.7222 -0.1543  0.0347
  231MOL0     H31821   9.362   8.827   3.373  0.5700 -1.1078  0.2335
  231MOL0     H31822   9.456   8.738   3.254 -1.1926 -2.1510 -0.3935
  231MOL0     H31823   9.312   9.018   3.228  1.7612  0.9468  1.2129
  231MOL0     H31824   9.361   8.939   3.089 -5.7912  0.1728  1.4357
  231MOL0     H31825   9.548   9.016   3.332 -3.2500  1.3406  0.2940
  231MOL0     H31826   9.601   8.951   3.177  0.2686  2.1992 -3.4416
  231MOL0     H31827   9.759   9.173   3.184 -0.1108  0.8306 -0.8564
  231MOL0     H31828   9.817   9.425   3.074  1.4912 -3.9967 -0.1036
  231MOL0     H31829   9.687   9.517   3.014  3.2201  1.6080 -2.6691
  231MOL0     H31830   9.656   9.390   2.806  1.7715  3.1152 -1.7389
  231MOL0     H31831   9.814   9.450   2.800  2.4399 -0.7553  0.9417
  231MOL0     H31832   9.886   9.244   2.765  1.9075  0.6224  3.0347
  231MOL0     H31833   9.861   9.204   2.926  1.0242 -0.6248 -0.4121
  231MOL0     H31834   9.631   9.113   2.858  0.0704  0.3372  0.2496
  231MOL0     H31835   9.648   9.162   2.700 -0.6195 -1.0785  0.4358
  231MOL0     H31836   9.595   8.883   2.590 -1.1041  0.1542 -1.3956
  231MOL0     H31837   9.561   8.916   2.227  3.1564 -3.3582 -1.4754
  231MOL0     H31838   9.479   8.913   2.392 -0.4655 -1.3064 -0.0184
  231MOL0     H31839   9.553   8.772   2.320 -2.0245 -0.1501  0.8017
  231MOL0     H31840   9.734   8.967   1.922 -0.9249  1.5486  0.2385
  231MOL0     H31841   9.829   8.990   1.690  2.9068 -0.5225 -1.5614
  231MOL0     H31842  10.175   9.159   1.485  0.3990 -0.1714  0.6335
  231MOL0     H31843  10.206   9.228   1.637 -0.7224  1.2078 -0.9041
  231MOL0     H31844  10.390   9.078   1.599  0.6773 -1.0188 -3.0375
  231MOL0     H31845  10.287   8.998   1.717  1.9407 -0.8242 -0.6973
  231MOL0     H31846  10.329   8.966   1.427 -2.9446  0.2027 -0.8469
  231MOL0     H31847  10.194   8.873   1.495  1.0686 -3.5963  0.2561
  231MOL0     H31848  10.334   8.733   1.624 -0.7228  2.4131  1.3488
  231MOL0     H31849  10.471   8.835   1.603 -0.3077 -1.4825  1.4178
  231MOL0     H31850  10.319   8.673   1.380 -1.5414  2.6219  0.1358
  231MOL0     H31851  10.442   8.788   1.338 -2.6877 -0.1224 -1.0133
  231MOL0     H31852  10.495   8.537   1.509  1.5047 -0.5151  1.4441
  231MOL0     H31853  10.620   8.643   1.444  1.6663 -3.1710 -5.3565
  231MOL0     H31854  10.555   8.590   1.209  1.4940  0.3295  0.3244
  231MOL0     H31855  10.436   8.484   1.273  0.1222  1.6624 -1.3673
  231MOL0     H31856  10.632   8.365   1.385  0.1164  0.5983  0.4193
  231MOL0     H31857  10.748   8.473   1.331  1.3276  0.5533 -3.9695
  231MOL0     H31858  10.182   9.175   1.860  0.2230 -1.8315 -0.7970
  231MOL0     H31859  10.069   9.190   2.074 -0.5978  1.5791 -0.6425
  231MOL0     H31860   9.991   9.067   2.373  0.5757 -0.3709  2.1931
  231MOL0     H31861   9.978   9.076   2.595 -1.8688  0.8489  2.8126
  231MOL0     H31862   9.237   7.993   3.495 -1.3204 -0.8287  0.9867
  231MOL0     H31863   9.398   7.935   3.687  1.5966  0.9278  0.1652
  231MOL0     H31864   9.555   8.030   4.111  2.6726 -2.6349  1.7022
  231MOL0     H31865   9.717   7.987   4.285  1.6718 -0.9847 -0.4148
  231MOL0     H31866  10.091   8.159   4.232  0.2770  0.1134  1.0702
  231MOL0     H31867  10.094   8.212   4.402  0.6154 -2.1253  1.4183
  231MOL0     H31868  10.255   8.008   4.371  0.2344 -0.6739  0.2370
  231MOL0     H31869  10.116   7.920   4.313 -1.9287 -0.4347  0.1897
  231MOL0     H31870  10.059   8.054   4.564  2.8571  1.4302  0.2620
  231MOL0     H31871  10.025   7.892   4.514  0.4159 -0.4484  0.8428
  231MOL0     H31872  10.319   7.970   4.593 -1.6192  0.7365 -1.9232
  231MOL0     H31873  10.260   7.811   4.543 -1.1040 -0.7856  0.2960
  231MOL0     H31874  10.099   7.810   4.932 -2.3940  1.4163 -1.6706
  231MOL0     H31875   9.950   8.311   4.146 -1.4861  1.6865 -0.8064
  231MOL0     H31876   9.827   8.348   3.837 -1.1811 -2.7057  1.7009
  231MOL0     H31877   9.735   8.465   3.938  1.6691  1.9012  0.0167
  231MOL0     H31878   9.895   8.440   3.981  0.3927  0.2872 -0.0660
  232MOL0     O31879   0.164   7.724   6.322  0.2702 -0.7496  0.0926
  232MOL0     C31880   0.136   7.680   6.204 -0.3182  0.1840 -0.3022
  232MOL0     O31881   0.080   7.752   6.101 -0.6428 -0.8350  0.3257
  232MOL0     C31882   0.011   7.876   6.098 -0.2164  0.0044  0.4088
  232MOL0     C31883  -0.034   7.951   6.201  0.6171  0.7694  0.2559
  232MOL0     C31884  -0.108   8.067   6.174  0.5821  0.0999 -0.2753
  232MOL0     C31885  -0.147   8.107   6.041  0.0091  0.2429 -0.2831
  232MOL0     O31886  -0.239   8.212   6.017  0.1006  0.3565 -0.5079
  232MOL0     C31887  -0.307   8.211   5.881 -1.0581 -0.1015  0.0413
  232MOL0     C31888  -0.215   8.303   5.786  0.4247 -0.8829 -0.0007
  232MOL0     C31889  -0.222   8.453   5.814 -0.4680  0.4028  0.2850
  232MOL0     C31890  -0.118   8.531   5.732 -0.5537 -0.7214  0.0910
  232MOL0     C31891  -0.145   8.673   5.766  0.4551 -0.1053 -0.2369
  232MOL0     C31892  -0.022   8.754   5.713  0.8538 -0.3599  0.3141
  232MOL0     C31893  -0.029   8.903   5.750  1.4920 -0.9570  0.5673
  232MOL0     C31894   0.057   8.976   5.647  0.9137 -0.5091  0.2848
  232MOL0     N31895   0.037   9.121   5.631 -0.2659  0.3646 -0.3068
  232MOL0     C31896   0.143   9.208   5.659  1.0820 -0.7165 -0.0755
  232MOL0     C31897   0.097   9.326   5.605 -0.4500  0.2586 -0.5432
  232MOL0     C31898   0.183   9.448   5.588 -0.9951  0.2044 -0.4973
  232MOL0     C31899   0.331   9.409   5.537  0.2207 -0.0793  0.4819
  232MOL0     C31900   0.404   9.536   5.492 -0.0613 -0.6397 -0.0643
  232MOL0     C31901   0.439   9.635   5.613 -0.3800 -1.0074 -0.0415
  232MOL0     O31902   0.498   9.758   5.565 -0.1150  0.3377  0.5466
  232MOL0     C31903   0.505   9.872   5.654 -0.1963  0.4170 -0.0071
  232MOL0     C31904   0.558   9.986   5.600 -0.0421 -0.9822 -0.6461
  232MOL0     C31905   0.567  10.119   5.668  0.8156  0.0026  0.0070
  232MOL0     C31906   0.630  10.224   5.588 -0.0615 -0.0375 -0.0035
  232MOL0     C31907   0.503  10.131   5.791  0.7062  0.2900  1.4860
  232MOL0     C31908   0.497  10.254   5.864  0.9952  0.7067  0.0996
  232MOL0     O31909   0.374  10.285   5.908  0.3399  0.6837  0.0221
  232MOL0     C31910   0.338  10.412   5.963  0.1685  0.4526 -0.0976
  232MOL0     C31911   0.218  10.421   6.049  0.6406  0.2470 -0.1451
  232MOL0     C31912   0.179  10.539   6.117 -0.0389 -0.2541 -0.3244
  232MOL0     C31913   0.262  10.653   6.100  0.6759 -0.1048  0.0676
  232MOL0     O31914   0.244  10.773   6.153  0.3638 -0.5852  0.2874
  232MOL0     C31915   0.113  10.809   6.209 -0.1385 -1.3881  0.1971
  232MOL0     C31916   0.126  10.956   6.254  0.3037 -0.9176  0.0057
  232MOL0     C31917   0.168  11.053   6.142 -0.0391 -0.0169  1.1345
  232MOL0     C31918   0.207  11.195   6.188 -0.5628 -0.0194 -0.1888
  232MOL0     C31919   0.358  11.222   6.218 -0.8071  0.7740  0.0865
  232MOL0     C31920   0.386  11.371   6.239  0.6918  0.6194 -0.0586
  232MOL0     C31921   0.354  11.459   6.109 -0.6931 -0.2186 -0.4224
  232MOL0     C31922   0.456  11.559   6.085  0.4597 -0.1234  0.1409
  232MOL0    Cl31923   0.385  11.689   5.977 -0.3501  0.3065  0.3778
  232MOL0     C31924   0.374  10.642   6.007 -0.5069  0.8762 -0.0988
  232MOL0     C31925   0.415  10.534   5.944  0.0151  0.3394 -0.0146
  232MOL0     O31926   0.601  10.298   5.906 -0.0512  0.2295  0.2188
  232MOL0     C31927   0.443  10.018   5.845  0.4287  0.7222  0.5674
  232MOL0     C31928   0.455   9.889   5.783  1.4652  0.2761  0.2197
  232MOL0     N31929  -0.022   9.313   5.542 -0.2722  0.1811  0.5508
  232MOL0     N31930  -0.064   9.187   5.557 -1.3533 -0.3976 -0.0981
  232MOL0     C31931  -0.087   8.030   5.941 -0.7764  0.7947  0.1361
  232MOL0     C31932  -0.027   7.910   5.964 -0.8807 -0.4175  0.2229
  232MOL0     C31933   0.160   7.535   6.189  0.4958  0.5960 -0.3321
  232MOL0     C31934   0.114   7.473   6.070  0.8595 -0.4326  0.0099
  232MOL0     C31935   0.145   7.335   6.033 -0.3767  0.8697  0.2998
  232MOL0     C31936   0.225   7.262   6.119  0.3377 -0.3394 -0.6221
  232MOL0     O31937   0.244   7.130   6.090 -0.3559  0.3574 -0.7765
  232MOL0     C31938   0.166   7.044   6.167 -0.2028  1.1583  0.9814
  232MOL0     C31939   0.094   6.928   6.088  0.2597 -0.9213  0.1966
  232MOL0     C31940   0.198   6.867   5.999 -0.9349  0.4095 -0.1652
  232MOL0     C31941   0.137   6.745   5.924  0.7012  0.0232 -0.9393
  232MOL0     C31942   0.019   6.783   5.836 -0.3247 -0.0906 -0.6394
  232MOL0     C31943  -0.072   6.831   5.778  0.5627 -0.0250  0.1832
  232MOL0     C31944   0.283   7.328   6.230 -0.2801  0.0842 -0.1969
  232MOL0     C31945   0.246   7.457   6.270 -0.0637 -0.1572  0.2112
  232MOL0     C31946   0.315   7.504   6.397 -0.3570  0.1046  0.2254
  232MOL0     H31947  -0.023   7.912   6.301 -1.4080 -0.7239 -0.0432
  232MOL0     H31948  -0.161   8.119   6.252 -2.0354 -4.2181  1.1461
  232MOL0     H31949  -0.411   8.245   5.885 -1.5216 -0.8481 -3.0654
  232MOL0     H31950  -0.304   8.110   5.838  2.1207  0.5060 -1.4643
  232MOL0     H31951  -0.114   8.262   5.786 -0.6924 -4.0731 -2.0665
  232MOL0     H31952  -0.255   8.299   5.684  2.4146 -2.8395 -0.7948
  232MOL0     H31953  -0.317   8.492   5.777 -0.4105 -0.5241 -0.9050
  232MOL0     H31954  -0.219   8.482   5.919  2.2226 -0.7322  0.5998
  232MOL0     H31955  -0.020   8.490   5.757  0.6880  2.7801  1.5697
  232MOL0     H31956  -0.126   8.505   5.626  0.0137  0.6205 -0.2965
  232MOL0     H31957  -0.151   8.685   5.875  0.2523  1.3347 -0.3859
  232MOL0     H31958  -0.237   8.718   5.729  0.2046 -0.5798 -0.2055
  232MOL0     H31959   0.066   8.709   5.761 -1.4667 -1.1285  4.3046
  232MOL0     H31960  -0.014   8.746   5.604  0.5339  1.9598  0.0651
  232MOL0     H31961   0.017   8.925   5.846  1.5869  2.5200 -0.1440
  232MOL0     H31962  -0.132   8.941   5.750  1.1067 -1.9105  2.0408
  232MOL0     H31963   0.164   8.965   5.668  0.4087 -1.8997  2.4172
  232MOL0     H31964   0.023   8.943   5.548  1.4830 -2.2565  0.6402
  232MOL0     H31965   0.237   9.181   5.705  0.9371  0.5001  0.9742
  232MOL0     H31966   0.179   9.503   5.683 -4.0265 -0.8229  0.0925
  232MOL0     H31967   0.144   9.515   5.511 -0.4013 -0.9448 -1.8145
  232MOL0     H31968   0.386   9.372   5.624  0.4502  1.1408  0.8761
  232MOL0     H31969   0.326   9.338   5.454 -0.2482 -1.0819  1.3501
  232MOL0     H31970   0.494   9.514   5.434  0.3100  1.4442 -0.3528
  232MOL0     H31971   0.333   9.579   5.421  0.0012 -0.1372  0.1761
  232MOL0     H31972   0.346   9.655   5.667 -0.9403 -2.1580 -0.5514
  232MOL0     H31973   0.514   9.593   5.681  0.8913  1.3965  0.1862
  232MOL0     H31974   0.610   9.968   5.507 -2.6818  0.3358 -2.4888
  232MOL0     H31975   0.628  10.211   5.479  2.1325  0.3666 -0.1257
  232MOL0     H31976   0.739  10.228   5.594  0.4422  2.3128 -5.0776
  232MOL0     H31977   0.587  10.321   5.614 -0.7552  0.4580 -2.6480
  232MOL0     H31978   0.158  10.331   6.052  2.3061 -0.9568  3.2294
  232MOL0     H31979   0.092  10.549   6.181  1.4940  1.2537  1.6760
  232MOL0     H31980   0.037  10.794   6.133  0.0430  1.6747 -0.7249
  232MOL0     H31981   0.096  10.746   6.297  2.0545  1.5090  2.9621
  232MOL0     H31982   0.027  10.983   6.292  1.7161  1.0728  2.6354
  232MOL0     H31983   0.194  10.969   6.339 -2.2295 -0.9925  2.1646
  232MOL0     H31984   0.095  11.057   6.060  1.9943 -0.7640 -0.7900
  232MOL0     H31985   0.254  11.001   6.100 -0.5972 -1.5083  1.7702
  232MOL0     H31986   0.151  11.230   6.275  1.5712  1.5742  0.6171
  232MOL0     H31987   0.167  11.263   6.112  0.1997 -0.7220 -1.2530
  232MOL0     H31988   0.383  11.175   6.314  3.2697 -0.6420 -1.4473
  232MOL0     H31989   0.424  11.168   6.150 -0.0039 -2.4754  3.1485
  232MOL0     H31990   0.494  11.375   6.253  0.8848 -1.8615 -0.4165
  232MOL0     H31991   0.336  11.400   6.331 -0.4860  0.4975 -0.6416
  232MOL0     H31992   0.261  11.516   6.116 -0.2938  0.2434  2.3415
  232MOL0     H31993   0.368  11.396   6.021 -0.2696 -1.1104  0.2635
  232MOL0     H31994   0.539  11.507   6.036  0.8362  0.5749  0.0378
  232MOL0     H31995   0.487  11.607   6.178 -3.9775  2.3470  0.6287
  232MOL0     H31996   0.433  10.731   5.989  2.8893 -0.8480  1.5129
  232MOL0     H31997   0.513  10.525   5.898  1.0920 -1.5138  2.4160
  232MOL0     H31998   0.403  10.034   5.945  0.0739 -1.7635  0.9068
  232MOL0     H31999   0.425   9.802   5.841  0.9382  1.4803  1.8226
  232MOL0     H32000  -0.108   8.051   5.836 -3.0917  0.3472  0.4528
  232MOL0     H32001   0.008   7.848   5.882 -3.6876  1.5400 -2.6621
  232MOL0     H32002   0.064   7.531   5.993 -1.2357 -0.6111  1.1625
  232MOL0     H32003   0.121   7.291   5.937 -1.6039  3.4346 -0.6465
  232MOL0     H32004   0.228   6.995   6.243  0.6253  2.7527  1.3677
  232MOL0     H32005   0.089   7.097   6.224 -0.5750  0.4703  1.1333
  232MOL0     H32006   0.008   6.970   6.035  0.4404  0.5194  0.9854
  232MOL0     H32007   0.052   6.850   6.151  0.1261  0.1887  1.5341
  232MOL0     H32008   0.238   6.946   5.934 -1.3651 -1.3430 -2.7165
  232MOL0     H32009   0.271   6.835   6.074  0.6386 -1.1770 -2.2589
  232MOL0     H32010   0.106   6.666   5.994  0.9168  0.9577  0.2587
  232MOL0     H32011   0.227   6.710   5.872 -0.4833 -1.6743 -1.9357
  232MOL0     H32012  -0.161   6.863   5.728  3.0921  2.6044 -3.0806
  232MOL0     H32013   0.353   7.269   6.288 -0.5755 -0.7210 -0.6501
  232MOL0     H32014   0.228   7.514   6.463 -0.4528 -1.4866  0.3760
  232MOL0     H32015   0.392   7.435   6.431  0.1332  1.0110  0.9981
  232MOL0     H32016   0.363   7.602   6.394 -0.6435  0.2843  1.2935
  233MOL0     O32017   3.057   7.191   0.246 -0.3696 -0.2380 -0.0677
  233MOL0     C32018   2.987   7.114   0.312 -0.1061 -0.8983  0.0729
  233MOL0     O32019   2.860   7.145   0.356  0.3304  0.2116  0.0285
  233MOL0     C32020   2.801   7.270   0.335  0.3332  0.0042  1.8364
  233MOL0     C32021   2.824   7.356   0.226 -0.7909  1.0343 -0.0900
  233MOL0     C32022   2.749   7.471   0.200  0.8000 -0.1885 -0.2509
  233MOL0     C32023   2.648   7.502   0.291 -0.2483 -0.2089  0.0194
  233MOL0     O32024   2.568   7.614   0.265  0.8969  0.6585  0.0991
  233MOL0     C32025   2.640   7.736   0.253  0.0263 -0.9586 -0.2032
  233MOL0     C32026   2.536   7.859   0.246 -0.0834 -0.0099 -1.0088
  233MOL0     C32027   2.440   7.847   0.124 -0.0604 -1.3906 -1.6000
  233MOL0     C32028   2.361   7.979   0.086 -0.8466  0.3349  0.1130
  233MOL0     C32029   2.291   8.043   0.211  0.5868 -0.2165  0.8880
  233MOL0     C32030   2.192   8.153   0.168  0.8694 -0.0265 -0.8675
  233MOL0     C32031   2.223   8.277   0.258 -0.1333  0.0065  0.7694
  233MOL0     C32032   2.134   8.394   0.205  1.0528  1.0798 -0.4014
  233MOL0     N32033   2.130   8.500   0.308  0.3693  0.8261  0.3487
  233MOL0     C32034   2.102   8.480   0.438  0.8116  0.7039  0.3689
  233MOL0     C32035   2.081   8.600   0.492 -0.1236 -0.2794  0.1902
  233MOL0     C32036   2.042   8.628   0.638 -0.1794 -0.9686  0.3390
  233MOL0     C32037   1.919   8.546   0.672  0.8416 -0.0806 -0.1250
  233MOL0     C32038   1.889   8.576   0.812  1.0376 -0.5711  0.0378
  233MOL0     C32039   1.968   8.488   0.915 -0.3482  0.2171 -0.0968
  233MOL0     O32040   2.020   8.584   1.010 -0.3806 -0.8767  0.0029
  233MOL0     C32041   2.136   8.557   1.084  0.5386  0.2984 -0.0209
  233MOL0     C32042   2.203   8.435   1.082 -0.4588  0.0794 -0.7902
  233MOL0     C32043   2.301   8.401   1.174 -0.9860 -0.1046  0.6918
  233MOL0     C32044   2.325   8.252   1.170 -0.2132  0.4230  1.2212
  233MOL0     C32045   2.353   8.497   1.271 -1.5831  0.0756 -0.1705
  233MOL0     C32046   2.466   8.469   1.366  0.5362 -0.1227 -0.8314
  233MOL0     O32047   2.570   8.380   1.347  0.1370  0.1448 -0.3029
  233MOL0     C32048   2.664   8.350   1.443  0.2358  0.7394 -0.2304
  233MOL0     C32049   2.794   8.346   1.424  0.0195 -0.0008  0.3716
  233MOL0     C32050   2.881   8.322   1.527 -0.7705 -0.0005  0.4771
  233MOL0     C32051   2.835   8.320   1.661  0.4111  0.3886 -0.7083
  233MOL0     O32052   2.929   8.328   1.759  0.2965 -0.3606 -0.6393
  233MOL0     C32053   3.068   8.310   1.734 -0.4115 -0.4646 -0.3408
  233MOL0     C32054   3.144   8.311   1.867  0.4797 -0.6908  0.1196
  233MOL0     C32055   3.099   8.429   1.954 -0.1857 -0.6636 -0.0927
  233MOL0     C32056   3.127   8.571   1.895 -0.4894  0.0308 -0.0404
  233MOL0     C32057   3.276   8.595   1.875 -0.1460  0.2417  1.1686
  233MOL0     C32058   3.317   8.744   1.833 -0.4990  0.1361  0.3348
  233MOL0     C32059   3.463   8.762   1.806 -0.0719  0.2688 -0.4692
  233MOL0     C32060   3.549   8.715   1.926 -0.1009 -0.3071 -0.9152
  233MOL0    Cl32061   3.720   8.710   1.899 -0.1402  0.2088  0.2153
  233MOL0     C32062   2.703   8.306   1.690  0.3351  0.9292  0.1357
  233MOL0     C32063   2.619   8.327   1.577 -0.3646 -0.9405 -0.8192
  233MOL0     O32064   2.463   8.546   1.465 -0.2426  0.7312  0.2586
  233MOL0     C32065   2.298   8.626   1.255 -0.0872  0.3080 -0.0709
  233MOL0     C32066   2.187   8.655   1.170 -0.7375  0.1491 -0.2115
  233MOL0     N32067   2.095   8.694   0.391  0.3655  0.1824 -0.3418
  233MOL0     N32068   2.114   8.630   0.279 -0.9810 -0.0909 -0.0751
  233MOL0     C32069   2.642   7.426   0.417  0.4002 -0.8056  0.0588
  233MOL0     C32070   2.714   7.312   0.436  0.6581  0.5738 -0.1630
  233MOL0     C32071   3.033   6.968   0.314  0.2209  0.2836  0.0081
  233MOL0     C32072   2.936   6.867   0.316  0.8327  1.8163  0.1868
  233MOL0     C32073   2.969   6.732   0.292  0.8628  0.2488 -0.1420
  233MOL0     C32074   3.102   6.689   0.283  1.5747 -0.6392 -0.9640
  233MOL0     O32075   3.135   6.552   0.272  0.5029 -1.1519  0.8911
  233MOL0     C32076   3.135   6.493   0.141  0.1238 -0.4493 -0.9516
  233MOL0     C32077   3.185   6.569   0.023 -0.3991  0.4990  0.5676
  233MOL0     C32078   3.169   6.491  -0.116 -0.0032  0.1168 -0.4449
  233MOL0     C32079   3.177   6.596  -0.230  0.7617  0.3782 -0.8555
  233MOL0     C32080   3.303   6.668  -0.210  0.4019 -0.8604  0.1172
  233MOL0     C32081   3.418   6.693  -0.221 -0.1845 -0.4190 -0.0177
  233MOL0     C32082   3.199   6.784   0.295 -0.6539 -0.8087 -0.8698
  233MOL0     C32083   3.168   6.921   0.323  0.6835 -0.1591 -0.3790
  233MOL0     C32084   3.280   7.017   0.352 -0.6360 -0.1857  0.4769
  233MOL0     H32085   2.887   7.335   0.140 -1.8186  2.6392 -1.2871
  233MOL0     H32086   2.755   7.537   0.114 -1.1696  1.0805  0.5270
  233MOL0     H32087   2.702   7.736   0.163 -0.2606  0.4087 -0.4255
  233MOL0     H32088   2.705   7.739   0.341 -2.1620 -1.7789  1.5364
  233MOL0     H32089   2.487   7.867   0.343 -3.8391 -0.4135 -2.6948
  233MOL0     H32090   2.602   7.945   0.234  3.4287 -2.5474 -1.3339
  233MOL0     H32091   2.500   7.810   0.041 -0.4082 -0.9455 -2.0520
  233MOL0     H32092   2.361   7.776   0.151 -0.0158 -0.7802  0.2776
  233MOL0     H32093   2.430   8.039   0.025 -0.6276  1.1751  1.1662
  233MOL0     H32094   2.286   7.932   0.021 -1.8772 -1.5623  2.4958
  233MOL0     H32095   2.365   8.068   0.288  0.7701  0.4598  0.5046
  233MOL0     H32096   2.236   7.958   0.252  1.9999 -0.7334  1.7583
  233MOL0     H32097   2.186   8.169   0.060 -0.0865 -1.8244 -1.1262
  233MOL0     H32098   2.097   8.108   0.196  1.0930 -1.0253 -1.6239
  233MOL0     H32099   2.326   8.312   0.244 -0.5722  1.6259  1.3700
  233MOL0     H32100   2.201   8.248   0.361 -2.8413  1.3084  0.6311
  233MOL0     H32101   2.150   8.429   0.103 -1.3635 -1.0857 -1.6438
  233MOL0     H32102   2.036   8.346   0.201  1.4873 -0.1654  2.1554
  233MOL0     H32103   2.106   8.381   0.482  0.8394 -1.4894 -4.0618
  233MOL0     H32104   2.013   8.732   0.650  1.1417 -0.8739  3.7920
  233MOL0     H32105   2.126   8.603   0.703  0.6484  0.9823  0.0770
  233MOL0     H32106   1.828   8.575   0.619  2.0881  0.9163 -1.8013
  233MOL0     H32107   1.935   8.438   0.659 -1.4861 -0.4832  0.0349
  233MOL0     H32108   1.919   8.680   0.824  3.6337 -1.3940  1.3459
  233MOL0     H32109   1.784   8.557   0.835  0.7986 -0.7340 -1.1001
  233MOL0     H32110   1.896   8.419   0.960 -1.4868  0.5422 -1.3552
  233MOL0     H32111   2.051   8.435   0.868 -1.0700  0.3895 -1.6168
  233MOL0     H32112   2.152   8.360   1.022 -2.4926  0.0384  0.8687
  233MOL0     H32113   2.409   8.225   1.234 -0.6741  0.2688  1.7746
  233MOL0     H32114   2.347   8.204   1.075  0.7340 -0.7844  2.0303
  233MOL0     H32115   2.227   8.213   1.199  0.3137 -0.0403  2.4373
  233MOL0     H32116   2.814   8.353   1.317 -0.3860  1.0778  0.3540
  233MOL0     H32117   2.989   8.325   1.511 -0.7316 -2.1387  0.0827
  233MOL0     H32118   3.090   8.211   1.692 -0.3257 -1.0138  0.9528
  233MOL0     H32119   3.107   8.383   1.662 -0.0456  0.4683  0.7692
  233MOL0     H32120   3.136   8.223   1.931  2.0267  1.1675  3.0910
  233MOL0     H32121   3.249   8.326   1.840 -0.8629  0.9049 -5.5438
  233MOL0     H32122   3.160   8.411   2.043 -1.9668 -0.8120  1.1570
  233MOL0     H32123   2.992   8.419   1.976 -0.4641 -1.1790 -1.5510
  233MOL0     H32124   3.091   8.645   1.967  2.0152 -0.6580  2.0733
  233MOL0     H32125   3.058   8.575   1.810  0.1878 -1.2278 -0.6917
  233MOL0     H32126   3.322   8.567   1.971  3.4893 -0.4409 -0.5950
  233MOL0     H32127   3.310   8.522   1.801 -1.3292 -0.5025  1.3355
  233MOL0     H32128   3.288   8.804   1.920  3.3275  1.4720  0.8968
  233MOL0     H32129   3.260   8.771   1.744 -0.7514 -1.4683 -0.0170
  233MOL0     H32130   3.465   8.869   1.779 -2.0894  0.2952 -0.6891
  233MOL0     H32131   3.477   8.715   1.708 -1.6946  1.1225 -1.1636
  233MOL0     H32132   3.524   8.612   1.956  0.5622 -0.0450  0.6545
  233MOL0     H32133   3.534   8.785   2.009 -2.1587  1.0702 -2.3634
  233MOL0     H32134   2.668   8.285   1.790  1.3521 -0.8145  0.1676
  233MOL0     H32135   2.512   8.322   1.596 -0.1281 -2.0407  0.4250
  233MOL0     H32136   2.343   8.707   1.311 -0.8081  1.2114 -0.7787
  233MOL0     H32137   2.139   8.752   1.157  1.6556  1.3573 -0.5635
  233MOL0     H32138   2.562   7.459   0.482 -0.0371 -0.5245 -0.6122
  233MOL0     H32139   2.699   7.261   0.531 -2.4126  2.0178  0.2295
  233MOL0     H32140   2.831   6.883   0.336  0.9135  1.2124  1.1598
  233MOL0     H32141   2.882   6.667   0.281 -1.4846  3.2654 -0.8625
  233MOL0     H32142   3.177   6.392   0.139 -0.7905 -0.8700  0.0616
  233MOL0     H32143   3.027   6.489   0.123 -0.2398  1.3588  0.4725
  233MOL0     H32144   3.290   6.594   0.043 -0.2633  1.1568 -0.8948
  233MOL0     H32145   3.131   6.664   0.027 -2.5892 -0.7155  1.7335
  233MOL0     H32146   3.246   6.416  -0.134 -1.0610 -0.9743 -0.4860
  233MOL0     H32147   3.067   6.452  -0.109 -0.7188  2.1044  3.0009
  233MOL0     H32148   3.097   6.667  -0.208  1.7806  0.5466  2.9436
  233MOL0     H32149   3.176   6.545  -0.328 -0.1394 -1.6505  0.1339
  233MOL0     H32150   3.521   6.724  -0.228 -0.3749 -0.1056 -1.8680
  233MOL0     H32151   3.305   6.757   0.294 -0.3156  0.4034  0.2630
  233MOL0     H32152   3.280   7.092   0.273 -0.4094 -0.3512  0.3197
  233MOL0     H32153   3.256   7.062   0.449  0.3934 -4.5695  3.0463
  233MOL0     H32154   3.369   6.954   0.357 -1.5554 -1.8508 -2.1687
  234MOL0     O32155   6.420   8.724   2.028  0.9054 -0.6777 -0.3332
  234MOL0     C32156   6.376   8.677   1.927  0.7897  1.2217  0.6016
  234MOL0     O32157   6.248   8.642   1.906 -0.1430 -0.2267 -0.2508
  234MOL0     C32158   6.141   8.655   2.000 -0.2486 -0.2509  0.8222
  234MOL0     C32159   6.155   8.677   2.139  0.4836 -0.0414  0.1230
  234MOL0     C32160   6.039   8.683   2.218 -0.2388 -0.0780  0.2972
  234MOL0     C32161   5.913   8.686   2.154 -0.0527 -0.3463 -1.1304
  234MOL0     O32162   5.813   8.703   2.246  0.3055  0.3469 -0.5588
  234MOL0     C32163   5.700   8.616   2.231  1.1935  0.9477  0.3163
  234MOL0     C32164   5.712   8.466   2.274 -0.2281  0.4353  0.6064
  234MOL0     C32165   5.584   8.394   2.250  1.0815 -0.3427  0.8586
  234MOL0     C32166   5.574   8.268   2.337  0.3561  0.0165 -0.6762
  234MOL0     C32167   5.430   8.223   2.350  0.4549 -0.2797  0.2526
  234MOL0     C32168   5.403   8.152   2.479 -0.5791  0.4022 -0.4824
  234MOL0     C32169   5.513   8.053   2.523 -0.2787  0.5967 -0.4952
  234MOL0     C32170   5.531   7.927   2.425 -0.5596  0.2198 -0.6358
  234MOL0     N32171   5.589   7.807   2.492  0.0633  0.1167  0.1079
  234MOL0     C32172   5.718   7.768   2.495 -0.5416 -0.2549  0.2438
  234MOL0     C32173   5.714   7.652   2.568 -0.4299 -0.4587 -0.3264
  234MOL0     C32174   5.832   7.568   2.608  0.5231 -0.4687  0.3599
  234MOL0     C32175   5.805   7.481   2.733  0.1527 -0.2782 -0.3253
  234MOL0     C32176   5.940   7.428   2.797  0.3499  0.3724 -0.7240
  234MOL0     C32177   5.943   7.341   2.940 -0.9608 -0.3471  0.4997
  234MOL0     O32178   6.034   7.230   2.939 -0.2797 -0.0378 -0.4249
  234MOL0     C32179   6.027   7.151   3.054 -0.5094  0.0355 -0.5429
  234MOL0     C32180   5.970   7.188   3.178  0.5709  0.3736 -0.2083
  234MOL0     C32181   5.978   7.097   3.289 -0.8614 -0.1141  0.9216
  234MOL0     C32182   5.892   7.125   3.402  0.2270 -0.2105 -0.3038
  234MOL0     C32183   6.061   6.979   3.275 -0.5317 -0.1762  1.0468
  234MOL0     C32184   6.097   6.891   3.386 -0.0811  0.5872  0.4885
  234MOL0     O32185   5.999   6.852   3.470 -0.0160 -0.4819 -0.0031
  234MOL0     C32186   6.024   6.784   3.590  0.8516  0.2277 -0.1538
  234MOL0     C32187   6.009   6.643   3.591 -0.1273 -0.8416 -0.2592
  234MOL0     C32188   6.021   6.565   3.710 -0.1598 -0.5679  0.1751
  234MOL0     C32189   6.057   6.639   3.827 -0.3966  0.4945  0.7183
  234MOL0     O32190   6.084   6.574   3.945 -0.8126 -0.4328 -0.2288
  234MOL0     C32191   6.159   6.457   3.929  0.5441 -0.0051  1.3619
  234MOL0     C32192   6.104   6.346   4.007  0.4394 -0.2059 -0.6677
  234MOL0     C32193   5.997   6.270   3.930 -0.4537  0.7388 -0.3633
  234MOL0     C32194   5.970   6.128   3.995 -0.3580 -0.2597 -0.3692
  234MOL0     C32195   5.882   6.042   3.907 -0.2074 -0.0437 -0.2687
  234MOL0     C32196   5.732   6.084   3.921 -0.3308 -0.4777 -0.5730
  234MOL0     C32197   5.645   6.002   3.832 -0.8408  0.2192 -0.0215
  234MOL0     C32198   5.496   5.999   3.866  1.0911 -0.8100  0.1735
  234MOL0    Cl32199   5.440   6.173   3.846  0.0751  0.2986 -0.2739
  234MOL0     C32200   6.059   6.779   3.829  0.2119 -0.2530 -0.2132
  234MOL0     C32201   6.047   6.848   3.714 -0.3238  0.1493 -0.6920
  234MOL0     O32202   6.207   6.827   3.381 -0.2558 -0.1019 -1.1815
  234MOL0     C32203   6.121   6.954   3.158  0.1679  0.3390 -0.1045
  234MOL0     C32204   6.108   7.038   3.048 -0.1967 -0.6425 -0.0714
  234MOL0     N32205   5.582   7.626   2.597  0.0071  0.3667 -0.6908
  234MOL0     N32206   5.502   7.714   2.549 -0.3426 -0.5522 -0.1849
  234MOL0     C32207   5.899   8.653   2.015 -0.0775 -0.0235 -0.7222
  234MOL0     C32208   6.012   8.644   1.940  0.2137 -0.4977 -0.1668
  234MOL0     C32209   6.461   8.657   1.799 -0.2656  0.5517 -0.1307
  234MOL0     C32210   6.390   8.594   1.697 -0.5506 -0.8629  0.7755
  234MOL0     C32211   6.457   8.575   1.575  0.2105 -0.2872  0.1423
  234MOL0     C32212   6.584   8.598   1.552 -0.4055 -0.2976  0.1839
  234MOL0     O32213   6.640   8.567   1.426  0.2812 -0.3713 -0.8392
  234MOL0     C32214   6.785   8.568   1.410  0.4592 -0.5314 -0.4685
  234MOL0     C32215   6.807   8.495   1.283 -0.5950  0.6433  0.3512
  234MOL0     C32216   6.949   8.494   1.221 -0.4063  0.5745 -0.9529
  234MOL0     C32217   6.958   8.415   1.086  0.3208 -0.0905 -0.3358
  234MOL0     C32218   7.090   8.457   1.027 -0.7182 -0.9817 -0.0862
  234MOL0     C32219   7.180   8.491   0.958 -0.1022 -0.1539  0.2496
  234MOL0     C32220   6.656   8.666   1.654  0.4119 -0.6078  0.1070
  234MOL0     C32221   6.601   8.688   1.779  0.6419  0.1287  0.2483
  234MOL0     C32222   6.693   8.731   1.890 -0.5980 -0.0663  0.3467
  234MOL0     H32223   6.256   8.676   2.177  0.8408 -1.6889 -0.7821
  234MOL0     H32224   6.045   8.712   2.323  0.3966 -1.0242  0.5341
  234MOL0     H32225   5.649   8.626   2.135 -0.9006 -5.3696  0.3163
  234MOL0     H32226   5.630   8.668   2.297 -0.3192  0.5740 -0.9497
  234MOL0     H32227   5.794   8.409   2.230  0.5926  2.6284 -0.8570
  234MOL0     H32228   5.740   8.458   2.380 -0.4114 -1.1925  0.5498
  234MOL0     H32229   5.497   8.460   2.260  1.4330  0.2047  0.3542
  234MOL0     H32230   5.596   8.363   2.145  3.4334 -1.2960  1.3343
  234MOL0     H32231   5.646   8.190   2.311 -1.5371 -2.1870  0.3119
  234MOL0     H32232   5.601   8.311   2.434 -4.4400  1.5043  0.2967
  234MOL0     H32233   5.399   8.159   2.267 -0.5721  1.0828 -0.4575
  234MOL0     H32234   5.364   8.310   2.340 -0.7076 -1.3355 -2.1012
  234MOL0     H32235   5.376   8.222   2.559 -2.6264  0.1890 -0.9547
  234MOL0     H32236   5.311   8.093   2.476 -0.3887  0.1530 -2.0678
  234MOL0     H32237   5.500   8.005   2.621  1.5627 -1.0680 -1.0014
  234MOL0     H32238   5.610   8.103   2.520 -0.6212  1.2613 -3.1098
  234MOL0     H32239   5.430   7.897   2.398 -0.9090  1.4254 -0.7231
  234MOL0     H32240   5.598   7.951   2.341  0.6238 -1.2183 -0.1466
  234MOL0     H32241   5.807   7.825   2.468 -0.9092  0.6776  0.9677
  234MOL0     H32242   5.912   7.628   2.651  0.1531 -0.9488  1.7604
  234MOL0     H32243   5.866   7.513   2.519  0.6145 -0.2659  0.2698
  234MOL0     H32244   5.759   7.540   2.812 -0.7714 -0.9695 -0.3306
  234MOL0     H32245   5.734   7.400   2.711 -2.8954  2.2134 -0.4895
  234MOL0     H32246   5.969   7.353   2.724  2.0404  1.2543 -1.0098
  234MOL0     H32247   6.029   7.491   2.794 -0.6727  2.1127  1.7031
  234MOL0     H32248   5.963   7.409   3.023 -4.1882  1.7841 -0.2841
  234MOL0     H32249   5.843   7.301   2.956 -0.9483  0.5446  3.1718
  234MOL0     H32250   5.915   7.279   3.200  4.4181  2.7889  0.2640
  234MOL0     H32251   5.942   7.181   3.481 -0.2854 -2.8976  2.0736
  234MOL0     H32252   5.857   7.034   3.451  0.8935  0.7205  2.0143
  234MOL0     H32253   5.803   7.175   3.363 -0.7704 -1.3158  0.5156
  234MOL0     H32254   5.986   6.590   3.499 -2.2611 -1.1467  0.3948
  234MOL0     H32255   5.996   6.463   3.735 -2.7035  0.3660  1.8827
  234MOL0     H32256   6.172   6.423   3.826 -0.2474  0.1516  1.1998
  234MOL0     H32257   6.260   6.478   3.965  1.3969 -0.9727 -0.3631
  234MOL0     H32258   6.182   6.275   4.036 -0.4473 -0.0260  2.6484
  234MOL0     H32259   6.060   6.375   4.103  0.9646 -0.0356 -0.4717
  234MOL0     H32260   6.020   6.247   3.826  0.1096  0.4200 -0.1701
  234MOL0     H32261   5.908   6.333   3.944 -0.0063  1.2558  0.2073
  234MOL0     H32262   5.926   6.142   4.094  2.1310  2.1517  0.5055
  234MOL0     H32263   6.066   6.079   4.014 -2.0418 -2.2970  4.5175
  234MOL0     H32264   5.909   6.036   3.801  1.0667 -1.0400  0.0836
  234MOL0     H32265   5.891   5.936   3.932  2.1574 -0.0224 -0.7318
  234MOL0     H32266   5.735   6.191   3.896  2.1067 -0.4285 -0.3143
  234MOL0     H32267   5.690   6.074   4.022 -0.2149 -0.8927 -0.5652
  234MOL0     H32268   5.676   5.898   3.843 -1.1117  0.1123 -0.2670
  234MOL0     H32269   5.657   6.037   3.729 -0.1666 -0.4988 -0.1983
  234MOL0     H32270   5.483   5.958   3.966  0.3507  0.0812  0.4538
  234MOL0     H32271   5.439   5.942   3.792 -0.3631  0.9449 -0.1063
  234MOL0     H32272   6.079   6.834   3.920 -0.8933  0.8895 -0.6377
  234MOL0     H32273   6.048   6.957   3.721  0.2856  0.1029  0.1750
  234MOL0     H32274   6.166   6.856   3.146  0.9058  0.7809 -1.0179
  234MOL0     H32275   6.163   7.010   2.958 -0.6200 -0.4997 -0.3761
  234MOL0     H32276   5.798   8.648   1.975 -0.9483 -0.0960  1.3633
  234MOL0     H32277   6.009   8.635   1.832  2.8293 -2.2908 -0.1665
  234MOL0     H32278   6.282   8.587   1.691 -0.7476  1.8120 -1.5891
  234MOL0     H32279   6.389   8.535   1.501 -1.1612  1.4046  0.4297
  234MOL0     H32280   6.837   8.664   1.410 -0.2276 -0.0527 -3.7810
  234MOL0     H32281   6.843   8.504   1.478  2.8746 -0.9507 -2.7393
  234MOL0     H32282   6.741   8.533   1.205 -0.8823 -0.2765  0.1329
  234MOL0     H32283   6.786   8.388   1.297 -1.7409  0.4819 -2.1308
  234MOL0     H32284   6.966   8.601   1.207 -0.5888  0.6164 -0.8499
  234MOL0     H32285   7.011   8.456   1.303 -2.1230  1.9766  1.1125
  234MOL0     H32286   6.870   8.444   1.028 -1.3871 -3.0754  0.5646
  234MOL0     H32287   6.955   8.308   1.110 -3.2997 -0.1615 -0.5936
  234MOL0     H32288   7.261   8.522   0.895 -0.4394 -1.0941 -0.6859
  234MOL0     H32289   6.755   8.706   1.634 -1.5699  4.8474 -0.4882
  234MOL0     H32290   6.797   8.749   1.862 -0.9216 -0.1352 -0.9538
  234MOL0     H32291   6.653   8.828   1.921 -2.2443 -0.2083 -1.2132
  234MOL0     H32292   6.679   8.657   1.969 -2.0064 -1.1285 -0.8505
  235MOL0     O32293   3.012   4.882  10.702 -0.2114 -0.4893 -0.3031
  235MOL0     C32294   3.081   4.838  10.799  0.5247 -0.3168 -0.2419
  235MOL0     O32295   3.217   4.846  10.806  0.6496 -0.1402 -0.5901
  235MOL0     C32296   3.286   4.887  10.703  0.2896 -1.0846 -0.5141
  235MOL0     C32297   3.331   5.024  10.699 -0.8565  0.8496  0.0296
  235MOL0     C32298   3.404   5.056  10.583 -0.1900  0.0905  0.4663
  235MOL0     C32299   3.440   4.967  10.485 -0.1324  0.2377  0.3974
  235MOL0     O32300   3.530   5.022  10.394  0.6869  0.4688  0.4677
  235MOL0     C32301   3.596   4.920  10.320 -0.0872  0.4544  0.5743
  235MOL0     C32302   3.686   4.978  10.206 -0.3972 -0.5097  0.1237
  235MOL0     C32303   3.749   4.876  10.109  0.2959 -0.7688 -0.6178
  235MOL0     C32304   3.843   4.961  10.020 -0.0098  0.0682 -0.0088
  235MOL0     C32305   3.925   4.887   9.913 -0.6128  0.2931 -0.0869
  235MOL0     C32306   3.835   4.863   9.796 -1.0159  0.5087 -0.7157
  235MOL0     C32307   3.903   4.801   9.671  0.0422 -0.8687  0.6639
  235MOL0     C32308   3.947   4.648   9.702 -1.4879  0.0158  0.0944
  235MOL0     N32309   3.839   4.564   9.752  0.4219  0.3668 -0.1999
  235MOL0     C32310   3.843   4.471   9.859 -0.0983 -0.2517 -0.9140
  235MOL0     C32311   3.733   4.402   9.843 -0.4926 -0.1352  0.5205
  235MOL0     C32312   3.672   4.283   9.911 -0.2821 -0.1264 -0.2793
  235MOL0     C32313   3.714   4.142   9.870 -0.7492  0.1495  0.1978
  235MOL0     C32314   3.654   4.096   9.729  0.4719  0.4135  0.2727
  235MOL0     C32315   3.692   3.947   9.711  0.7416 -0.3071 -0.4929
  235MOL0     O32316   3.831   3.934   9.688  0.0898 -0.2007 -0.2344
  235MOL0     C32317   3.862   3.903   9.564  0.4958 -0.3586  0.4100
  235MOL0     C32318   3.995   3.868   9.548 -0.7360  0.5907 -1.0190
  235MOL0     C32319   4.056   3.842   9.425  0.1928 -0.4976  0.6233
  235MOL0     C32320   4.201   3.813   9.412 -0.3065  0.0790  0.3604
  235MOL0     C32321   3.980   3.860   9.306 -0.3743  0.0072  0.3464
  235MOL0     C32322   4.022   3.834   9.165  1.0491  0.5680 -0.2596
  235MOL0     O32323   3.944   3.892   9.065 -0.3675 -0.0062 -0.4444
  235MOL0     C32324   3.966   3.847   8.934 -0.5200 -0.3835  0.2416
  235MOL0     C32325   4.085   3.841   8.870 -0.8946 -0.2834  0.9062
  235MOL0     C32326   4.113   3.773   8.754 -0.4065  0.1602 -0.4896
  235MOL0     C32327   4.011   3.728   8.677 -0.0985 -0.0724  0.0089
  235MOL0     O32328   4.042   3.674   8.551  0.1491 -0.1725  0.2141
  235MOL0     C32329   3.942   3.586   8.503  0.1075  0.1833 -0.1862
  235MOL0     C32330   4.002   3.496   8.402 -0.4435 -0.5221  1.4725
  235MOL0     C32331   4.129   3.423   8.448 -0.5368 -0.1840  0.2754
  235MOL0     C32332   4.108   3.333   8.565 -0.0539 -0.0736 -0.3010
  235MOL0     C32333   4.231   3.267   8.612 -0.1163  0.3421  0.3072
  235MOL0     C32334   4.298   3.177   8.512  1.0521  0.1366  0.1858
  235MOL0     C32335   4.387   3.085   8.591  0.2352  0.2364 -0.5546
  235MOL0     C32336   4.448   2.985   8.498  0.2291 -0.2631  0.1108
  235MOL0    Cl32337   4.534   2.857   8.591 -0.0330 -0.1461  0.2738
  235MOL0     C32338   3.886   3.722   8.741 -0.7239 -0.0479 -0.7609
  235MOL0     C32339   3.864   3.782   8.872  0.8824  0.2428  0.2775
  235MOL0     O32340   4.118   3.763   9.147 -0.5369  0.0082 -0.2561
  235MOL0     C32341   3.846   3.892   9.323 -0.5943 -1.1215  0.1387
  235MOL0     C32342   3.790   3.920   9.446 -0.4507  0.6196 -0.1188
  235MOL0     N32343   3.659   4.451   9.735 -0.1231 -0.4859 -0.1801
  235MOL0     N32344   3.726   4.545   9.685  0.2262  0.2190  0.5514
  235MOL0     C32345   3.407   4.823  10.503 -0.6845 -0.2133  0.3340
  235MOL0     C32346   3.323   4.790  10.604 -0.0985 -0.3998 -0.2650
  235MOL0     C32347   3.007   4.788  10.918 -0.0545 -0.5802 -0.1329
  235MOL0     C32348   3.070   4.786  11.043  0.0465 -0.0749  0.5886
  235MOL0     C32349   3.010   4.724  11.153 -0.6627  0.2467 -0.4457
  235MOL0     C32350   2.881   4.672  11.148  1.3082  0.6209  0.1579
  235MOL0     O32351   2.811   4.607  11.248 -0.6447  0.5721  0.3270
  235MOL0     C32352   2.893   4.574  11.353  0.8358  0.7762 -0.8062
  235MOL0     C32353   2.824   4.487  11.453  0.1144  0.2209  0.0337
  235MOL0     C32354   2.711   4.554  11.539  0.1733 -0.1274  0.5220
  235MOL0     C32355   2.591   4.617  11.473  0.3186 -0.5058  0.0554
  235MOL0     C32356   2.489   4.684  11.554 -0.6215  0.3288  0.1647
  235MOL0     C32357   2.407   4.737  11.622  1.2635  0.0292 -0.1104
  235MOL0     C32358   2.823   4.679  11.020  0.2322  0.7542 -0.4596
  235MOL0     C32359   2.875   4.735  10.914 -0.1075 -0.6866 -0.2842
  235MOL0     C32360   2.797   4.727  10.786 -0.3235 -0.6492 -1.0667
  235MOL0     H32361   3.308   5.099  10.774 -1.4669 -0.8891  1.6679
  235MOL0     H32362   3.440   5.156  10.560 -0.6234 -0.4262 -2.9298
  235MOL0     H32363   3.518   4.870  10.262  0.8444  2.7718 -2.9262
  235MOL0     H32364   3.653   4.850  10.382 -3.2817 -2.6306  0.4080
  235MOL0     H32365   3.626   5.052  10.153  0.0496  1.4454  2.1901
  235MOL0     H32366   3.751   5.045  10.263  1.5024  0.7493 -3.1984
  235MOL0     H32367   3.800   4.788  10.148 -0.0647 -1.0809 -0.8430
  235MOL0     H32368   3.682   4.824  10.040 -0.0847 -0.8868 -0.1583
  235MOL0     H32369   3.789   5.050   9.987  1.1067  0.4240 -0.9403
  235MOL0     H32370   3.921   4.995  10.088 -0.0079 -2.3248  1.3145
  235MOL0     H32371   3.964   4.790   9.945  0.0751  0.5058 -0.2467
  235MOL0     H32372   4.010   4.956   9.902  2.5346 -3.1563  0.4088
  235MOL0     H32373   3.749   4.799   9.820 -0.3037 -0.1638  0.1565
  235MOL0     H32374   3.801   4.963   9.767  0.0930  1.4562  1.0732
  235MOL0     H32375   3.987   4.865   9.645 -1.2162  0.3836 -0.4725
  235MOL0     H32376   3.829   4.797   9.590 -2.1879 -1.6928  2.5976
  235MOL0     H32377   3.984   4.605   9.609 -0.2029  0.2011  0.5082
  235MOL0     H32378   4.033   4.629   9.767 -0.6092 -2.5528 -1.6800
  235MOL0     H32379   3.915   4.458   9.939 -1.5032 -0.4204  0.3443
  235MOL0     H32380   3.563   4.289   9.899 -0.2951 -1.0341 -0.6412
  235MOL0     H32381   3.690   4.301  10.017 -0.9105  2.5077 -0.5428
  235MOL0     H32382   3.823   4.137   9.866 -0.6494 -0.1261  2.1006
  235MOL0     H32383   3.678   4.063   9.937  1.9231 -3.6775 -2.4205
  235MOL0     H32384   3.548   4.125   9.729  1.2803  3.9250 -1.4529
  235MOL0     H32385   3.699   4.156   9.649  1.0779  0.9907  1.0332
  235MOL0     H32386   3.663   3.897   9.803 -1.1270  2.3641  0.5142
  235MOL0     H32387   3.628   3.903   9.633  0.4840 -3.7671  1.4653
  235MOL0     H32388   4.055   3.863   9.638 -4.1063  1.0540  1.4317
  235MOL0     H32389   4.252   3.840   9.319  0.9553 -2.2505  0.3048
  235MOL0     H32390   4.217   3.705   9.411 -0.7677 -0.0034 -1.2554
  235MOL0     H32391   4.259   3.852   9.497 -1.3093  0.8472  0.7259
  235MOL0     H32392   4.172   3.889   8.913 -0.4454 -0.0336 -0.2426
  235MOL0     H32393   4.212   3.767   8.711  1.2430 -2.8162  3.1008
  235MOL0     H32394   3.897   3.523   8.581 -0.5905  0.6863 -0.1753
  235MOL0     H32395   3.857   3.639   8.459  1.0481  2.5194  0.6693
  235MOL0     H32396   3.931   3.422   8.364  2.9031 -1.9594 -2.7376
  235MOL0     H32397   4.028   3.563   8.320  0.6429 -2.9266 -0.2607
  235MOL0     H32398   4.207   3.498   8.465  0.2040 -1.2631  1.8635
  235MOL0     H32399   4.159   3.369   8.358 -2.1492  0.9777 -1.0157
  235MOL0     H32400   4.031   3.256   8.548  0.4517 -0.5511 -0.4529
  235MOL0     H32401   4.066   3.388   8.649  0.0466 -1.3812  0.6398
  235MOL0     H32402   4.305   3.342   8.643  0.0669 -0.0152  0.7333
  235MOL0     H32403   4.197   3.205   8.695 -3.1126 -1.2003 -1.8457
  235MOL0     H32404   4.343   3.232   8.429  2.4388 -0.0111  0.8122
  235MOL0     H32405   4.214   3.117   8.477 -0.4815  1.2684  1.8010
  235MOL0     H32406   4.328   3.031   8.666  2.2939  0.1165  1.0807
  235MOL0     H32407   4.469   3.137   8.643  0.6259  0.0971 -1.0321
  235MOL0     H32408   4.523   3.031   8.432  0.5435  1.0251  1.3137
  235MOL0     H32409   4.370   2.941   8.436 -0.6485 -0.0556  1.0469
  235MOL0     H32410   3.803   3.679   8.687 -3.4019  2.0383  1.3550
  235MOL0     H32411   3.766   3.784   8.918  0.9984  0.1115  0.5304
  235MOL0     H32412   3.793   3.927   9.234 -0.5559  1.5370  1.0770
  235MOL0     H32413   3.688   3.957   9.435 -0.8434  0.4282  2.2335
  235MOL0     H32414   3.456   4.759  10.430 -1.8990 -0.3021 -0.4296
  235MOL0     H32415   3.296   4.689  10.634 -1.0671 -0.4935 -1.3966
  235MOL0     H32416   3.176   4.811  11.049 -0.1044  0.9873 -0.5906
  235MOL0     H32417   3.063   4.730  11.247 -1.4273 -0.6095  0.0490
  235MOL0     H32418   2.986   4.524  11.323  2.3006  1.1395  2.6165
  235MOL0     H32419   2.929   4.660  11.410  1.1379 -0.8368  1.5969
  235MOL0     H32420   2.900   4.463  11.529  0.7041 -3.1040 -1.4302
  235MOL0     H32421   2.773   4.400  11.411 -1.5921  0.8888  0.6322
  235MOL0     H32422   2.678   4.474  11.606  1.9556 -3.9488 -2.7873
  235MOL0     H32423   2.764   4.635  11.591 -0.0543  1.4808 -1.6181
  235MOL0     H32424   2.534   4.546  11.412 -2.2164  2.8592 -1.8033
  235MOL0     H32425   2.616   4.693  11.398 -1.2769  0.2765  0.2818
  235MOL0     H32426   2.333   4.784  11.684  1.8913  0.8221  0.0581
  235MOL0     H32427   2.728   4.627  11.031 -0.2473  1.7964  0.6080
  235MOL0     H32428   2.782   4.827  10.745 -0.8186 -0.8649 -1.4266
  235MOL0     H32429   2.859   4.673  10.715  2.7099  0.9841  0.1508
  235MOL0     H32430   2.701   4.676  10.795  1.0982 -3.3452 -0.2739
  236MOL0     O32431   8.733   2.163   0.899  1.0154 -0.1805  0.1855
  236MOL0     C32432   8.745   2.097   0.796 -0.6559  0.2971 -0.0089
  236MOL0     O32433   8.808   2.145   0.682  0.7682  0.3196 -0.2939
  236MOL0     C32434   8.889   2.255   0.669 -0.5188  0.0816 -0.6329
  236MOL0     C32435   8.958   2.266   0.546  0.3971 -0.0656  0.3783
  236MOL0     C32436   9.041   2.379   0.521  0.2347  0.0004 -1.1414
  236MOL0     C32437   9.038   2.489   0.612  0.0420 -0.7885 -0.3191
  236MOL0     O32438   9.115   2.602   0.586 -0.7580  0.5605 -0.1535
  236MOL0     C32439   9.123   2.711   0.678 -1.0293 -0.2566 -0.4690
  236MOL0     C32440   9.221   2.695   0.800 -0.6679  0.3516  0.2735
  236MOL0     C32441   9.222   2.820   0.881  1.0201  0.0703  0.3472
  236MOL0     C32442   9.236   2.801   1.032  0.5011  0.2886 -0.4871
  236MOL0     C32443   9.202   2.935   1.100  0.0000  0.6000 -0.5942
  236MOL0     C32444   9.203   2.927   1.259  0.1757  1.3046 -0.4060
  236MOL0     C32445   9.349   2.899   1.313  0.2418  0.2218 -0.5355
  236MOL0     C32446   9.344   2.865   1.471  0.2749  0.6009 -0.0570
  236MOL0     N32447   9.470   2.861   1.536 -0.7990 -0.5722 -0.2320
  236MOL0     C32448   9.554   2.968   1.573  0.2037 -0.5655  0.6413
  236MOL0     C32449   9.671   2.907   1.617 -0.3821 -1.0084  0.1290
  236MOL0     C32450   9.789   2.992   1.680  0.4083  0.1769 -0.6346
  236MOL0     C32451   9.902   3.016   1.586  1.2318 -0.7513  0.3302
  236MOL0     C32452   9.876   3.135   1.493  0.8812 -0.0694 -0.0520
  236MOL0     C32453   9.996   3.136   1.390 -0.0901  0.1207  0.2337
  236MOL0     O32454   9.957   3.208   1.269 -0.0108  0.8371  0.0335
  236MOL0     C32455  10.065   3.286   1.214  0.0611  1.7219 -0.7192
  236MOL0     C32456  10.125   3.393   1.279  0.1040 -0.3345 -0.1767
  236MOL0     C32457  10.233   3.461   1.223  0.3703  0.4018 -0.7854
  236MOL0     C32458  10.293   3.576   1.300  1.0804  1.4526  0.2035
  236MOL0     C32459  10.284   3.410   1.092 -0.3004 -0.0663  0.1564
  236MOL0     C32460  10.414   3.464   1.033 -1.0152  0.1064  0.0712
  236MOL0     O32461  10.418   3.588   0.978 -1.0199 -0.1232 -0.2629
  236MOL0     C32462  10.543   3.633   0.958 -1.1504  0.7976  0.0871
  236MOL0     C32463  10.596   3.632   0.827  0.1218 -0.4723 -0.6146
  236MOL0     C32464  10.730   3.662   0.791 -0.6565 -0.6896  0.2562
  236MOL0     C32465  10.808   3.720   0.893  0.6149  0.0875 -0.6860
  236MOL0     O32466  10.919   3.782   0.849 -0.7480 -0.1718  0.1921
  236MOL0     C32467  11.009   3.853   0.936 -0.2767 -0.0547  0.3846
  236MOL0     C32468  11.108   3.943   0.846  0.1472 -0.1278  0.0663
  236MOL0     C32469  11.035   4.047   0.755 -1.5458 -0.2271  0.0712
  236MOL0     C32470  11.138   4.103   0.662  0.0572 -0.7325  0.1409
  236MOL0     C32471  11.238   4.195   0.736 -0.1069  0.9902 -0.4838
  236MOL0     C32472  11.295   4.305   0.647 -0.2715 -0.5863  0.1634
  236MOL0     C32473  11.390   4.385   0.735 -0.6265  0.4586  0.5199
  236MOL0     C32474  11.441   4.519   0.670  0.3547 -0.0864  0.4166
  236MOL0    Cl32475  11.528   4.497   0.517 -0.0627  0.1000  0.5732
  236MOL0     C32476  10.760   3.723   1.026  0.6704 -0.5875 -0.1388
  236MOL0     C32477  10.628   3.686   1.054 -0.7023  0.6844  0.0347
  236MOL0     O32478  10.504   3.381   1.033 -0.6290  0.0055 -0.1163
  236MOL0     C32479  10.216   3.309   1.023  0.5660 -0.2035  0.5700
  236MOL0     C32480  10.116   3.242   1.094  0.0509  0.5338 -0.2681
  236MOL0     N32481   9.653   2.768   1.623  0.5174 -0.5140 -0.0259
  236MOL0     N32482   9.532   2.745   1.570  0.0769  1.4110  0.7099
  236MOL0     C32483   8.975   2.462   0.742  0.2364 -0.3838 -0.6297
  236MOL0     C32484   8.906   2.352   0.771 -1.1678 -0.1848  0.1499
  236MOL0     C32485   8.684   1.956   0.799  0.3774 -0.5013  0.1622
  236MOL0     C32486   8.650   1.892   0.919 -0.1083  0.4100  0.1024
  236MOL0     C32487   8.588   1.767   0.921  0.2617 -0.2903 -0.8664
  236MOL0     C32488   8.557   1.701   0.802 -0.2219 -0.5074  0.3281
  236MOL0     O32489   8.501   1.576   0.794  0.2762 -0.1984 -0.1590
  236MOL0     C32490   8.439   1.515   0.909  0.7510  0.0062  0.8227
  236MOL0     C32491   8.361   1.386   0.867 -0.4589 -0.3103 -0.5058
  236MOL0     C32492   8.315   1.307   0.990 -0.2273 -0.7054 -0.8103
  236MOL0     C32493   8.163   1.275   0.996  0.1068 -1.0683  0.4072
  236MOL0     C32494   8.093   1.409   1.020 -0.4315  0.5150  1.3593
  236MOL0     C32495   8.058   1.519   1.041 -0.6258 -0.1461 -0.1557
  236MOL0     C32496   8.594   1.762   0.682 -0.0557 -0.0714  0.4794
  236MOL0     C32497   8.646   1.888   0.680 -0.1196 -0.7755 -0.2398
  236MOL0     C32498   8.642   1.955   0.544 -0.0840  0.0527 -0.2330
  236MOL0     H32499   8.943   2.194   0.467 -1.1579 -0.9796  1.4603
  236MOL0     H32500   9.087   2.400   0.425  2.3648  1.6758  0.1614
  236MOL0     H32501   9.024   2.739   0.716  0.3083  1.7519  1.8029
  236MOL0     H32502   9.152   2.800   0.622 -0.2790 -0.7813 -0.9332
  236MOL0     H32503   9.201   2.607   0.861  3.1528 -1.2071 -0.4527
  236MOL0     H32504   9.316   2.665   0.754  0.1184  0.9632  1.4608
  236MOL0     H32505   9.302   2.886   0.846  0.6842 -0.2785 -1.1532
  236MOL0     H32506   9.124   2.867   0.865  0.1443 -1.8629 -0.2907
  236MOL0     H32507   9.156   2.733   1.062  1.2559 -0.6592 -0.5932
  236MOL0     H32508   9.315   2.739   1.076 -1.7065 -2.4597 -0.1155
  236MOL0     H32509   9.101   2.971   1.077  0.3077  1.2336 -0.9798
  236MOL0     H32510   9.261   3.020   1.067 -0.7215  0.8577 -1.2694
  236MOL0     H32511   9.164   3.021   1.299  1.0319  2.1039 -1.3862
  236MOL0     H32512   9.139   2.840   1.278  3.0504 -0.5939  1.3796
  236MOL0     H32513   9.413   2.983   1.287  1.0500 -0.1191  0.2960
  236MOL0     H32514   9.390   2.813   1.259  0.0316  0.1896 -0.6424
  236MOL0     H32515   9.282   2.936   1.527  0.1890 -2.7894  4.7574
  236MOL0     H32516   9.298   2.768   1.489 -2.0954  1.6727  0.0648
  236MOL0     H32517   9.530   3.073   1.560 -1.4436 -1.1757 -2.0316
  236MOL0     H32518   9.823   2.930   1.764  2.3514 -0.8319 -2.0728
  236MOL0     H32519   9.736   3.077   1.724 -0.3888  1.0914 -3.1910
  236MOL0     H32520   9.985   3.040   1.652 -0.2891  0.9342  1.7252
  236MOL0     H32521   9.938   2.926   1.536 -0.3209  0.1715 -2.7109
  236MOL0     H32522   9.778   3.119   1.448  0.7239  0.9761 -0.0951
  236MOL0     H32523   9.878   3.226   1.554 -0.4586 -0.0549 -0.0055
  236MOL0     H32524  10.077   3.186   1.443 -1.4115  0.9774  1.5002
  236MOL0     H32525  10.025   3.033   1.366 -1.4532 -0.7027  1.8521
  236MOL0     H32526  10.088   3.424   1.377 -0.3909 -1.5528  0.0348
  236MOL0     H32527  10.401   3.562   1.285  0.7527 -3.2562  0.8167
  236MOL0     H32528  10.262   3.583   1.404  2.5011  0.4115  0.7264
  236MOL0     H32529  10.266   3.668   1.247  0.9076  0.3768 -1.6970
  236MOL0     H32530  10.546   3.618   0.732 -0.2192 -0.0529 -0.4962
  236MOL0     H32531  10.778   3.653   0.694 -1.1753 -2.0410  0.1032
  236MOL0     H32532  10.943   3.916   0.997 -1.3865  1.3174 -2.0963
  236MOL0     H32533  11.060   3.788   1.008  1.9442  0.7639 -0.3855
  236MOL0     H32534  11.174   3.994   0.917  0.1664  2.0965 -1.4400
  236MOL0     H32535  11.168   3.882   0.779  1.7378  1.0877  0.3181
  236MOL0     H32536  11.002   4.129   0.818 -3.6437  1.4287 -2.9406
  236MOL0     H32537  10.950   4.002   0.703 -2.9389  0.0006  2.0622
  236MOL0     H32538  11.095   4.163   0.581  2.4059  0.0417 -0.6364
  236MOL0     H32539  11.190   4.021   0.612  2.5187  1.2141 -0.7105
  236MOL0     H32540  11.192   4.235   0.827  1.3929  0.1417  0.6918
  236MOL0     H32541  11.324   4.135   0.768  1.7000  3.6673  0.0859
  236MOL0     H32542  11.215   4.363   0.600 -0.2020 -0.0230  0.7229
  236MOL0     H32543  11.344   4.260   0.560 -2.0294 -0.3847 -0.9666
  236MOL0     H32544  11.480   4.324   0.743  1.5342  3.4725  0.7154
  236MOL0     H32545  11.360   4.389   0.840  2.7678 -2.8432  1.8298
  236MOL0     H32546  11.503   4.571   0.744 -4.0087  1.3718  3.5394
  236MOL0     H32547  11.356   4.585   0.646  0.4498 -0.3751 -0.7441
  236MOL0     H32548  10.811   3.778   1.104  0.5547  2.4637 -2.0208
  236MOL0     H32549  10.585   3.692   1.154 -0.4005 -3.7167  0.6236
  236MOL0     H32550  10.241   3.268   0.925 -3.2440  0.5304 -0.8823
  236MOL0     H32551  10.071   3.166   1.030 -2.3869  2.5111 -1.0922
  236MOL0     H32552   8.989   2.536   0.821 -1.3068 -0.0032 -0.6762
  236MOL0     H32553   8.864   2.344   0.871  2.0836 -1.8809  1.5219
  236MOL0     H32554   8.672   1.939   1.014  1.0616  2.1233 -0.9756
  236MOL0     H32555   8.566   1.726   1.019 -1.2858 -1.4533 -1.6521
  236MOL0     H32556   8.501   1.479   0.991  1.1975  0.1401  0.5431
  236MOL0     H32557   8.364   1.588   0.942  0.8674 -0.1254  1.3878
  236MOL0     H32558   8.434   1.326   0.811  1.3198  0.5385  0.8042
  236MOL0     H32559   8.282   1.407   0.794 -0.4415 -1.9715 -1.0500
  236MOL0     H32560   8.363   1.209   0.977  1.4656 -0.0947  0.5152
  236MOL0     H32561   8.346   1.357   1.082  1.7574  0.0357 -1.8265
  236MOL0     H32562   8.137   1.201   1.073 -2.6195 -0.8880 -0.2132
  236MOL0     H32563   8.126   1.233   0.902  0.1160 -0.0478 -0.0646
  236MOL0     H32564   8.015   1.610   1.077 -1.4591 -1.2680  1.8634
  236MOL0     H32565   8.559   1.717   0.590  0.6304  0.1344  0.1144
  236MOL0     H32566   8.555   1.912   0.494 -1.6220  0.7801  1.6860
  236MOL0     H32567   8.615   2.060   0.557 -0.3767  0.1056 -1.2077
  236MOL0     H32568   8.737   1.952   0.490 -0.7197  0.1403 -1.3832
  237MOL0     O32569   4.240  10.611   6.445  0.7740  0.3311 -0.1058
  237MOL0     C32570   4.300  10.701   6.495 -0.5169 -1.0121 -0.1506
  237MOL0     O32571   4.370  10.792   6.415 -0.1337 -0.3703  0.0736
  237MOL0     C32572   4.318  10.803   6.284 -0.3719 -0.7968 -0.4714
  237MOL0     C32573   4.408  10.815   6.176  0.3342 -0.0950 -0.6103
  237MOL0     C32574   4.357  10.827   6.043  0.1669  0.5595 -0.2162
  237MOL0     C32575   4.219  10.820   6.019 -0.6153 -0.5366  0.2915
  237MOL0     O32576   4.180  10.835   5.890 -0.2192 -0.1537 -0.0094
  237MOL0     C32577   4.055  10.775   5.852 -0.3486 -0.3373  0.3841
  237MOL0     C32578   3.953  10.891   5.809  0.2637 -0.1319 -0.5574
  237MOL0     C32579   4.006  10.973   5.692  0.9211 -0.2136  0.0601
  237MOL0     C32580   3.892  11.046   5.628  0.8427 -0.0450  0.1156
  237MOL0     C32581   3.828  10.968   5.517 -0.0795  0.4848  0.4806
  237MOL0     C32582   3.707  11.052   5.456  0.1197  0.2735 -0.7709
  237MOL0     C32583   3.762  11.139   5.343  1.0088 -0.2680  0.6538
  237MOL0     C32584   3.676  11.239   5.280  0.3632 -0.4998  0.0152
  237MOL0     N32585   3.644  11.358   5.356 -0.0432  0.4377 -0.0778
  237MOL0     C32586   3.528  11.364   5.432  0.1830 -0.6170  0.1262
  237MOL0     C32587   3.535  11.487   5.488 -0.5560 -0.0756  0.1100
  237MOL0     C32588   3.454  11.532   5.601 -0.1436 -0.1493  1.4108
  237MOL0     C32589   3.328  11.597   5.546  0.2528 -1.2544  0.8308
  237MOL0     C32590   3.216  11.606   5.650  1.2861 -0.2392 -0.0600
  237MOL0     C32591   3.242  11.727   5.748 -0.4419  0.2915  0.0741
  237MOL0     O32592   3.130  11.719   5.834  0.4592 -0.2626 -0.0741
  237MOL0     C32593   3.054  11.827   5.857  0.0524  0.1523 -1.2432
  237MOL0     C32594   3.102  11.958   5.859  0.8500  0.6929  0.3355
  237MOL0     C32595   3.022  12.068   5.898  0.1338  0.5324 -0.2003
  237MOL0     C32596   3.092  12.196   5.883 -0.0676 -0.0485  0.0551
  237MOL0     C32597   2.889  12.055   5.920  0.3355 -0.2364  0.2170
  237MOL0     C32598   2.801  12.169   5.928 -0.1273  0.6790 -0.5352
  237MOL0     O32599   2.804  12.247   5.826 -0.7981 -0.2695  1.1932
  237MOL0     C32600   2.745  12.365   5.837  0.4213 -0.1456 -0.2755
  237MOL0     C32601   2.753  12.445   5.957 -0.4965  0.2029  0.2848
  237MOL0     C32602   2.696  12.575   5.963  0.1665  0.4990  1.3888
  237MOL0     C32603   2.625  12.630   5.852  0.0130 -0.7074  0.0741
  237MOL0     O32604   2.569  12.758   5.866  0.3827  0.5362 -0.3157
  237MOL0     C32605   2.455  12.791   5.789  0.2333 -0.0762  1.1017
  237MOL0     C32606   2.381  12.914   5.826  0.2380 -0.4901 -0.4506
  237MOL0     C32607   2.465  13.039   5.842 -0.2754 -0.2654  0.4474
  237MOL0     C32608   2.396  13.172   5.835  0.0882 -0.3202 -0.4806
  237MOL0     C32609   2.366  13.203   5.682 -0.8518  0.2826  0.5967
  237MOL0     C32610   2.297  13.343   5.648  0.0793 -0.3950 -0.8558
  237MOL0     C32611   2.319  13.377   5.502  0.5733 -0.6221 -0.2681
  237MOL0     C32612   2.444  13.471   5.482 -0.2568  0.0996  0.7163
  237MOL0    Cl32613   2.407  13.626   5.547 -0.1490  0.4033 -0.8220
  237MOL0     C32614   2.627  12.554   5.729  0.8061  0.5512  0.3968
  237MOL0     C32615   2.685  12.428   5.725  0.8125 -0.4603 -0.3454
  237MOL0     O32616   2.726  12.181   6.031 -0.4910  0.7268  0.6773
  237MOL0     C32617   2.837  11.921   5.930 -0.2599  0.1362  0.1273
  237MOL0     C32618   2.915  11.816   5.891 -0.3254  0.6472 -0.1902
  237MOL0     N32619   3.622  11.567   5.420 -0.8137  0.0482 -0.6939
  237MOL0     N32620   3.680  11.486   5.331  0.2379 -0.6982 -1.3081
  237MOL0     C32621   4.133  10.809   6.134  0.3353  0.1625 -0.0774
  237MOL0     C32622   4.183  10.810   6.265 -0.6163 -0.0264  0.5061
  237MOL0     C32623   4.305  10.720   6.629  1.0521 -0.0317 -0.8390
  237MOL0     C32624   4.322  10.846   6.680  0.3759  0.1534  0.7016
  237MOL0     C32625   4.322  10.869   6.816  0.4991  0.6412 -0.7909
  237MOL0     C32626   4.330  10.759   6.903  0.1506 -0.6280  0.3167
  237MOL0     O32627   4.353  10.785   7.039  0.1284  0.2579 -0.5344
  237MOL0     C32628   4.409  10.695   7.139 -0.0574  0.6795 -0.3955
  237MOL0     C32629   4.560  10.694   7.122  0.5407  0.8706 -1.1812
  237MOL0     C32630   4.636  10.819   7.073  0.2875 -0.2717 -0.2405
  237MOL0     C32631   4.641  10.922   7.182  0.3929 -0.7212  0.4680
  237MOL0     C32632   4.768  10.927   7.257 -0.0070 -0.0863 -0.6709
  237MOL0     C32633   4.861  10.926   7.334 -0.9336 -0.7849  0.5264
  237MOL0     C32634   4.316  10.636   6.851 -0.5528  0.0487 -0.6981
  237MOL0     C32635   4.303  10.609   6.714  0.2483  1.1899  0.4637
  237MOL0     C32636   4.299  10.464   6.678  0.5611 -0.2433 -0.7476
  237MOL0     H32637   4.514  10.833   6.189 -0.0057  2.1743 -0.6500
  237MOL0     H32638   4.432  10.837   5.965  0.0124  1.3553 -0.2655
  237MOL0     H32639   4.022  10.711   5.934 -4.0450 -2.2559 -2.2937
  237MOL0     H32640   4.068  10.709   5.766  1.7098 -1.7450  1.6840
  237MOL0     H32641   3.862  10.844   5.772  1.5308 -3.3263 -0.0589
  237MOL0     H32642   3.922  10.946   5.898  1.3890 -2.4153  1.3760
  237MOL0     H32643   4.067  11.054   5.732  0.4798  0.6522 -0.9783
  237MOL0     H32644   4.068  10.916   5.622 -1.3168 -0.4491 -1.8747
  237MOL0     H32645   3.836  11.084   5.714  1.8321  1.3737  0.1828
  237MOL0     H32646   3.933  11.137   5.582 -1.7456  0.3533 -1.6130
  237MOL0     H32647   3.795  10.869   5.551 -0.6622  1.7652  4.0544
  237MOL0     H32648   3.893  10.937   5.434  0.6984  1.0220  0.8735
  237MOL0     H32649   3.643  10.980   5.405  1.3660  0.4375 -2.7030
  237MOL0     H32650   3.646  11.115   5.521  0.2184 -0.7544  0.3608
  237MOL0     H32651   3.808  11.079   5.263 -2.2578 -0.8706 -0.9157
  237MOL0     H32652   3.835  11.207   5.388  1.6598 -0.1422 -0.5316
  237MOL0     H32653   3.709  11.271   5.181 -1.4240 -1.0929 -0.8036
  237MOL0     H32654   3.573  11.204   5.274 -0.2410  0.8218  1.8153
  237MOL0     H32655   3.458  11.283   5.452  3.1417 -2.7457  2.8716
  237MOL0     H32656   3.518  11.606   5.651  0.4021 -1.1921  2.2978
  237MOL0     H32657   3.443  11.446   5.668 -0.5337 -2.3637 -1.3152
  237MOL0     H32658   3.344  11.699   5.508 -0.0631 -0.2094  3.3348
  237MOL0     H32659   3.286  11.542   5.461  2.2301  2.2505 -2.7886
  237MOL0     H32660   3.131  11.625   5.583  3.2621 -0.1528 -2.7215
  237MOL0     H32661   3.202  11.508   5.696 -0.5846  0.4838  1.0322
  237MOL0     H32662   3.336  11.722   5.804 -0.9323 -1.2490  0.8097
  237MOL0     H32663   3.232  11.812   5.679 -3.3297 -0.5618 -0.7185
  237MOL0     H32664   3.207  11.963   5.833  0.5591 -0.5281 -1.2922
  237MOL0     H32665   3.087  12.255   5.975  0.8432  0.9796 -0.5259
  237MOL0     H32666   3.044  12.262   5.810 -1.8721 -0.0335  1.1936
  237MOL0     H32667   3.199  12.188   5.863 -0.2487 -0.4572 -0.7618
  237MOL0     H32668   2.801  12.411   6.047 -0.1157 -0.3493 -0.1181
  237MOL0     H32669   2.720  12.627   6.055  2.3391 -1.9187  2.3097
  237MOL0     H32670   2.490  12.803   5.686 -1.5966  0.8404  0.5401
  237MOL0     H32671   2.380  12.712   5.787  0.7764 -0.7997  3.9564
  237MOL0     H32672   2.299  12.936   5.757  0.4160  1.1390 -0.1782
  237MOL0     H32673   2.327  12.901   5.920  0.4074 -4.0425 -0.6949
  237MOL0     H32674   2.540  13.038   5.762 -3.2273 -2.6705 -2.5805
  237MOL0     H32675   2.522  13.026   5.935 -1.0494 -0.5258  0.8931
  237MOL0     H32676   2.464  13.249   5.872 -0.7956 -0.4583  1.5360
  237MOL0     H32677   2.299  13.181   5.886  0.2608  0.1483 -0.2278
  237MOL0     H32678   2.462  13.186   5.631  1.2668 -1.3061  4.5985
  237MOL0     H32679   2.295  13.133   5.636  0.1180  2.6378 -5.4357
  237MOL0     H32680   2.324  13.432   5.706  2.0062 -2.1285  1.0778
  237MOL0     H32681   2.193  13.337   5.680 -0.4978  0.1061 -2.5759
  237MOL0     H32682   2.229  13.434   5.477  3.3422  3.6313 -1.5296
  237MOL0     H32683   2.331  13.290   5.437 -0.9487  1.0195 -2.9570
  237MOL0     H32684   2.467  13.478   5.375  0.4199 -1.9600  0.6850
  237MOL0     H32685   2.536  13.429   5.525  1.2975  1.1432 -1.3877
  237MOL0     H32686   2.590  12.587   5.633  0.0859 -0.6766  0.2419
  237MOL0     H32687   2.693  12.375   5.630 -0.6123 -4.8350  1.7203
  237MOL0     H32688   2.735  11.917   5.968  1.1859  0.7574  4.6074
  237MOL0     H32689   2.873  11.716   5.894  1.4590 -0.1232  1.5233
  237MOL0     H32690   4.025  10.799   6.126  0.5252 -2.6990 -0.3531
  237MOL0     H32691   4.123  10.807   6.355 -1.6811 -2.3033 -0.2019
  237MOL0     H32692   4.327  10.938   6.623  1.0779 -1.1851 -1.5229
  237MOL0     H32693   4.327  10.969   6.857  0.0266  0.6703 -0.8098
  237MOL0     H32694   4.377  10.736   7.235 -1.0744 -2.7436  0.8589
  237MOL0     H32695   4.378  10.591   7.125 -1.3162  0.9429  0.3351
  237MOL0     H32696   4.577  10.635   7.032  2.0523  0.0905 -0.4242
  237MOL0     H32697   4.602  10.641   7.208 -1.8316 -0.9657 -1.0508
  237MOL0     H32698   4.738  10.805   7.036  1.8742  0.2382  3.4394
  237MOL0     H32699   4.584  10.850   6.982 -0.0286 -2.8427 -1.0268
  237MOL0     H32700   4.569  10.906   7.262  1.7849 -2.1892  1.4959
  237MOL0     H32701   4.631  11.020   7.134  1.2657 -1.3676 -1.1307
  237MOL0     H32702   4.956  10.941   7.380  2.0061 -4.8921 -3.3591
  237MOL0     H32703   4.313  10.549   6.916  0.3998  1.0638  0.7544
  237MOL0     H32704   4.201  10.451   6.632 -1.5936  3.6690  2.1449
  237MOL0     H32705   4.369  10.445   6.597  2.4232 -1.9973  1.1338
  237MOL0     H32706   4.317  10.392   6.758 -1.8752 -4.6408 -3.7565
  238MOL0     O32707   7.716   2.415  10.844 -0.6878  0.3893 -0.4552
  238MOL0     C32708   7.764   2.345  10.933 -0.6299 -0.3758 -0.0532
  238MOL0     O32709   7.733   2.218  10.954 -0.2844 -0.1178  0.7369
  238MOL0     C32710   7.631   2.172  10.879  0.5509  0.2599 -0.8332
  238MOL0     C32711   7.516   2.144  10.938 -0.0871  0.8632  0.4259
  238MOL0     C32712   7.406   2.082  10.879  0.0455  1.4487  0.7666
  238MOL0     C32713   7.403   2.037  10.741 -0.6359 -0.5940 -0.3291
  238MOL0     O32714   7.295   1.985  10.677  0.5853  0.8874 -0.6248
  238MOL0     C32715   7.238   1.873  10.747  0.1678  0.3228 -0.5855
  238MOL0     C32716   7.151   1.771  10.661  0.0282  0.0466 -0.6841
  238MOL0     C32717   7.094   1.828  10.536 -0.1602 -0.4544  0.3153
  238MOL0     C32718   7.206   1.846  10.423  0.4051  0.4387 -1.1910
  238MOL0     C32719   7.133   1.827  10.290 -0.3063 -0.2624 -0.5202
  238MOL0     C32720   7.220   1.850  10.158  0.2404  0.4337 -0.9217
  238MOL0     C32721   7.128   1.859  10.040  0.2293 -0.1588  0.2754
  238MOL0     C32722   7.022   1.736  10.020 -0.1047 -1.0326  0.2235
  238MOL0     N32723   6.942   1.757   9.900 -0.4253  0.6878  0.1469
  238MOL0     C32724   6.988   1.761   9.767  0.3522 -0.5859  0.2486
  238MOL0     C32725   6.874   1.788   9.688  0.2839 -0.8673 -0.0232
  238MOL0     C32726   6.871   1.802   9.537  0.5746  0.1075  0.0733
  238MOL0     C32727   6.746   1.740   9.478  0.5432 -0.2154  0.5993
  238MOL0     C32728   6.768   1.663   9.357 -0.1244  0.4076 -0.2528
  238MOL0     C32729   6.812   1.514   9.396 -0.4003 -0.0316 -0.3547
  238MOL0     O32730   6.912   1.452   9.312 -0.7867 -0.2296 -0.0226
  238MOL0     C32731   6.869   1.385   9.200 -0.4911 -0.3035 -0.7236
  238MOL0     C32732   6.969   1.309   9.136 -0.0635 -0.2908  0.3439
  238MOL0     C32733   6.941   1.233   9.023 -0.1914  0.2986  0.6973
  238MOL0     C32734   7.061   1.150   8.960  0.2560  0.5071 -0.1563
  238MOL0     C32735   6.804   1.222   8.982  0.4421  1.4233 -0.0195
  238MOL0     C32736   6.758   1.135   8.870  0.0086  0.9097 -0.3661
  238MOL0     O32737   6.848   1.034   8.824  0.4596  0.0987 -0.1703
  238MOL0     C32738   6.811   0.968   8.713  0.1566  0.5221  0.6436
  238MOL0     C32739   6.757   0.840   8.727  0.6948 -1.0096 -0.0183
  238MOL0     C32740   6.729   0.759   8.616 -1.0884 -0.8519 -0.6681
  238MOL0     C32741   6.728   0.815   8.491 -0.0083  0.2154  0.0503
  238MOL0     O32742   6.674   0.754   8.379  0.6697  0.5647  0.9922
  238MOL0     C32743   6.611   0.625   8.396 -0.3163 -0.5674 -0.4994
  238MOL0     C32744   6.546   0.576   8.270  0.6580  0.3066  0.1054
  238MOL0     C32745   6.504   0.426   8.265  0.5687 -0.2274  0.2121
  238MOL0     C32746   6.437   0.404   8.127  0.1370 -0.4611 -0.2313
  238MOL0     C32747   6.361   0.274   8.109  1.0487  0.1887  0.1986
  238MOL0     C32748   6.443   0.140   8.117 -0.2365  0.2613 -0.8170
  238MOL0     C32749   6.539   0.118   7.994  0.3367 -0.4341  0.4972
  238MOL0     C32750   6.679   0.059   8.015 -0.3604 -0.0572 -1.1005
  238MOL0    Cl32751   6.771   0.052   7.863  0.3878  0.0738  0.0552
  238MOL0     C32752   6.789   0.945   8.479  0.6586  2.1006  0.4210
  238MOL0     C32753   6.837   1.009   8.584  0.2250 -0.0246 -0.1692
  238MOL0     O32754   6.646   1.151   8.822 -0.5379  0.0994  0.4326
  238MOL0     C32755   6.705   1.307   9.042 -0.8756  0.9356 -0.1239
  238MOL0     C32756   6.737   1.381   9.156  0.6443 -0.1399  0.2026
  238MOL0     N32757   6.767   1.803   9.778 -0.3695 -0.5703 -0.9517
  238MOL0     N32758   6.805   1.778   9.900  0.3356 -0.6526  0.2018
  238MOL0     C32759   7.528   2.070  10.674  0.3291 -0.6192  0.4059
  238MOL0     C32760   7.636   2.131  10.743 -0.0376  0.9008  0.5579
  238MOL0     C32761   7.869   2.398  11.017  0.0810 -1.4729  0.2247
  238MOL0     C32762   7.908   2.312  11.126  0.5621 -0.6298  0.4536
  238MOL0     C32763   8.017   2.350  11.207  0.2250  0.9208 -0.0156
  238MOL0     C32764   8.094   2.456  11.179 -1.0486  0.4037 -0.1620
  238MOL0     O32765   8.182   2.494  11.273  0.6958  0.0366  0.4291
  238MOL0     C32766   8.308   2.499  11.227  0.4256 -0.3058 -0.7816
  238MOL0     C32767   8.392   2.569  11.338 -0.2503  0.7673  1.0321
  238MOL0     C32768   8.431   2.478  11.460 -0.7950  0.2298  0.2537
  238MOL0     C32769   8.481   2.557  11.586 -0.1134 -0.4386 -0.1699
  238MOL0     C32770   8.379   2.644  11.634 -0.0502  0.2374  0.2273
  238MOL0     C32771   8.280   2.702  11.671  0.1858  0.0709  0.3645
  238MOL0     C32772   8.057   2.537  11.076 -0.2565 -0.4126 -0.2309
  238MOL0     C32773   7.953   2.513  10.995  0.5198 -0.2637 -0.8199
  238MOL0     C32774   7.926   2.608  10.884 -0.6601 -0.9084  1.2340
  238MOL0     H32775   7.516   2.164  11.044 -0.8854  1.4459  0.3240
  238MOL0     H32776   7.319   2.052  10.937  0.3856 -1.8313 -0.2378
  238MOL0     H32777   7.172   1.918  10.822  3.3652  3.4403  0.6385
  238MOL0     H32778   7.316   1.806  10.785  0.1926  0.5337 -0.2650
  238MOL0     H32779   7.212   1.684  10.635  3.1263  1.9475 -0.2229
  238MOL0     H32780   7.057   1.738  10.706 -0.4410 -1.9783 -2.9225
  238MOL0     H32781   7.013   1.761  10.507  0.5174 -2.2713  2.3829
  238MOL0     H32782   7.052   1.927  10.557  0.9693  0.3559 -1.0530
  238MOL0     H32783   7.259   1.942  10.425  1.0864  0.0955 -1.9243
  238MOL0     H32784   7.274   1.761  10.430 -1.9733 -1.3715  2.6353
  238MOL0     H32785   7.045   1.892  10.289 -0.3396 -0.3058 -0.3996
  238MOL0     H32786   7.109   1.720  10.286 -1.0896 -0.0968 -0.5424
  238MOL0     H32787   7.267   1.948  10.169  1.1032 -0.1650  1.1174
  238MOL0     H32788   7.287   1.765  10.144 -0.5575 -0.4991  0.6764
  238MOL0     H32789   7.196   1.879   9.957 -0.0781  0.9993  0.2884
  238MOL0     H32790   7.057   1.941  10.055 -1.2378 -0.9793 -1.5932
  238MOL0     H32791   7.074   1.642  10.003  0.7381 -0.5979  0.3059
  238MOL0     H32792   6.970   1.730  10.116  0.8022  0.7587  0.8902
  238MOL0     H32793   7.089   1.744   9.731 -0.6515 -0.7968 -2.8217
  238MOL0     H32794   6.955   1.746   9.497 -0.9140 -0.7753 -2.0275
  238MOL0     H32795   6.883   1.904   9.499  0.3176 -0.5099 -1.7449
  238MOL0     H32796   6.688   1.681   9.550 -0.0323  0.6015  0.8161
  238MOL0     H32797   6.679   1.825   9.464  1.4236  0.8112  2.2266
  238MOL0     H32798   6.676   1.649   9.298  0.8687 -0.5630 -1.6459
  238MOL0     H32799   6.844   1.714   9.298  1.0835  0.4228  1.2591
  238MOL0     H32800   6.857   1.524   9.495 -0.8096  2.2092 -0.3455
  238MOL0     H32801   6.721   1.456   9.415 -2.3790  3.1435  0.5467
  238MOL0     H32802   7.070   1.318   9.173 -0.6293  1.8409  1.5058
  238MOL0     H32803   7.077   1.049   9.000  0.1229 -0.1207 -1.6328
  238MOL0     H32804   7.155   1.201   8.983 -1.4249  3.2908  1.0468
  238MOL0     H32805   7.052   1.138   8.852  2.1677 -1.3646 -0.1794
  238MOL0     H32806   6.725   0.800   8.823 -0.6439  1.7659  0.7984
  238MOL0     H32807   6.708   0.654   8.635  4.1326 -1.8369  1.3771
  238MOL0     H32808   6.689   0.555   8.427  0.3159  0.8221  1.2534
  238MOL0     H32809   6.541   0.636   8.480  0.7431  1.1285  0.2197
  238MOL0     H32810   6.462   0.637   8.235  1.2018 -0.9654 -4.0758
  238MOL0     H32811   6.622   0.588   8.192 -0.7917 -1.5014 -1.7031
  238MOL0     H32812   6.433   0.414   8.348 -0.3150 -1.2016 -0.6595
  238MOL0     H32813   6.584   0.352   8.275 -0.5770 -2.0036 -2.5814
  238MOL0     H32814   6.506   0.412   8.043 -0.4526 -0.6519 -0.7380
  238MOL0     H32815   6.374   0.491   8.107  3.0975  1.9057 -0.0606
  238MOL0     H32816   6.293   0.262   8.194  1.0566 -1.6969 -0.0139
  238MOL0     H32817   6.300   0.279   8.019  1.0934  3.9866  0.2076
  238MOL0     H32818   6.377   0.053   8.123 -0.1262  0.2710  1.4329
  238MOL0     H32819   6.492   0.134   8.214 -1.0372  2.2090 -0.2414
  238MOL0     H32820   6.552   0.216   7.947  1.0662 -1.2815 -1.1798
  238MOL0     H32821   6.494   0.050   7.921  2.2878 -0.0399 -1.1757
  238MOL0     H32822   6.667  -0.046   8.042  2.4005 -0.1962 -0.1787
  238MOL0     H32823   6.736   0.120   8.086 -1.4233  0.1654 -0.4097
  238MOL0     H32824   6.789   0.999   8.384 -1.3940 -1.0317 -1.5503
  238MOL0     H32825   6.886   1.106   8.577  0.0974  0.2664  2.0432
  238MOL0     H32826   6.603   1.285   9.010 -0.2070 -4.0696  0.3464
  238MOL0     H32827   6.657   1.441   9.196  1.8843  0.2947  2.1947
  238MOL0     H32828   7.528   2.041  10.569 -0.5264 -0.7268  0.4239
  238MOL0     H32829   7.726   2.139  10.682  0.5486 -1.8412  0.9136
  238MOL0     H32830   7.862   2.217  11.150  1.5494 -1.0897  0.5582
  238MOL0     H32831   8.035   2.288  11.295  3.6764 -1.0814 -1.9126
  238MOL0     H32832   8.353   2.400  11.217  0.9263 -0.4077  1.6548
  238MOL0     H32833   8.320   2.557  11.135 -0.0418 -1.4368 -1.5617
  238MOL0     H32834   8.336   2.653  11.379 -3.5971 -0.2147 -1.0785
  238MOL0     H32835   8.485   2.608  11.296 -1.3815  3.9930  1.2906
  238MOL0     H32836   8.348   2.418  11.497 -0.7667  0.6927  1.0867
  238MOL0     H32837   8.515   2.417  11.425 -0.2231  1.2705 -0.2365
  238MOL0     H32838   8.568   2.617  11.560  1.7635 -1.9873  2.0872
  238MOL0     H32839   8.504   2.494  11.673 -1.7329  0.6925  1.1351
  238MOL0     H32840   8.194   2.745  11.718 -0.2317  0.5090 -0.7915
  238MOL0     H32841   8.111   2.631  11.063 -1.5108  0.1339 -1.6848
  238MOL0     H32842   7.907   2.552  10.791 -0.3390 -2.0957  1.8535
  238MOL0     H32843   7.841   2.672  10.907 -0.3439 -0.0165 -0.0038
  238MOL0     H32844   8.021   2.657  10.861 -0.8550 -1.0630  0.0214
  239MOL0     O32845   1.236   2.450   7.321  0.0759 -0.1455 -0.4235
  239MOL0     C32846   1.246   2.496   7.208  0.8285 -0.5398 -1.0978
  239MOL0     O32847   1.264   2.628   7.175 -0.4781 -0.0834 -0.9193
  239MOL0     C32848   1.236   2.718   7.268 -0.3908 -0.6323 -0.2881
  239MOL0     C32849   1.320   2.733   7.379 -0.1981 -0.7740  0.0928
  239MOL0     C32850   1.288   2.826   7.476 -0.2120 -0.1494 -0.1345
  239MOL0     C32851   1.183   2.917   7.466 -0.5413 -0.1850 -0.3825
  239MOL0     O32852   1.142   3.000   7.561 -0.1035 -0.0300  0.1044
  239MOL0     C32853   1.235   3.093   7.631 -0.0529 -0.4167  0.2239
  239MOL0     C32854   1.174   3.236   7.629 -0.4970  0.3222  0.1779
  239MOL0     C32855   1.207   3.303   7.498  0.2752 -0.4592  0.0827
  239MOL0     C32856   1.131   3.435   7.483 -0.3592  0.6595 -0.7333
  239MOL0     C32857   1.005   3.426   7.393  0.7212  0.3368  0.4907
  239MOL0     C32858   0.906   3.321   7.438 -0.4716  0.3578  0.5363
  239MOL0     C32859   0.788   3.327   7.341 -0.0027  0.0499 -0.3679
  239MOL0     C32860   0.697   3.213   7.369  0.0776  0.2831 -0.0690
  239MOL0     N32861   0.643   3.209   7.509  0.2273  0.0496 -0.5110
  239MOL0     C32862   0.602   3.310   7.589  0.5976 -0.0194 -0.2667
  239MOL0     C32863   0.605   3.262   7.715  0.2325  0.2356 -0.2368
  239MOL0     C32864   0.604   3.349   7.837 -0.8163 -0.8150 -0.6238
  239MOL0     C32865   0.460   3.343   7.906 -1.5300  0.0317  0.3564
  239MOL0     C32866   0.391   3.463   7.855  0.4496 -0.6180 -0.4567
  239MOL0     C32867   0.246   3.471   7.919  0.3607 -0.3175  0.6782
  239MOL0     O32868   0.242   3.495   8.057 -1.3508 -1.1907  0.7780
  239MOL0     C32869   0.259   3.628   8.107  0.0800  0.0723 -0.1259
  239MOL0     C32870   0.262   3.642   8.244  0.1872  0.7195 -1.0073
  239MOL0     C32871   0.298   3.764   8.309  0.2607  0.5925 -0.0226
  239MOL0     C32872   0.284   3.760   8.460  0.2965 -0.1866  0.2016
  239MOL0     C32873   0.340   3.877   8.232  0.4613  1.1824 -0.6233
  239MOL0     C32874   0.383   4.009   8.286 -0.7201  0.1015 -0.2429
  239MOL0     O32875   0.359   4.119   8.206 -0.3731  1.0094 -0.4539
  239MOL0     C32876   0.394   4.238   8.251 -0.3086 -0.0711 -0.6332
  239MOL0     C32877   0.509   4.296   8.204 -0.3258  1.0827  0.3818
  239MOL0     C32878   0.555   4.418   8.249  0.2735  0.1294  1.3057
  239MOL0     C32879   0.474   4.494   8.340 -1.0768 -0.2466  0.0175
  239MOL0     O32880   0.537   4.614   8.384  0.1319  0.2608 -0.1578
  239MOL0     C32881   0.496   4.658   8.521 -0.0301 -0.0138  0.4425
  239MOL0     C32882   0.577   4.787   8.554 -0.4337  0.0471 -0.9005
  239MOL0     C32883   0.512   4.902   8.473  0.3507  0.4682 -0.8307
  239MOL0     C32884   0.576   5.037   8.510 -0.3131 -0.7727 -0.5534
  239MOL0     C32885   0.567   5.146   8.398  1.2760  0.7976 -0.2432
  239MOL0     C32886   0.613   5.273   8.458 -0.4187 -0.5698  0.0184
  239MOL0     C32887   0.579   5.395   8.371  0.1281  0.6614  0.8104
  239MOL0     C32888   0.628   5.528   8.437 -0.4242 -0.5568 -0.0129
  239MOL0    Cl32889   0.809   5.515   8.435 -0.0510  0.9456  0.0664
  239MOL0     C32890   0.366   4.433   8.391  0.8419  0.6287  0.0245
  239MOL0     C32891   0.319   4.309   8.343  0.9027  0.6251  0.1337
  239MOL0     O32892   0.448   4.019   8.393  0.1285  1.0124  0.6795
  239MOL0     C32893   0.335   3.863   8.093 -0.6092  0.8769  0.0640
  239MOL0     C32894   0.300   3.739   8.035  0.4577  0.4514  0.1836
  239MOL0     N32895   0.647   3.135   7.720  0.6035  0.4971  0.1182
  239MOL0     N32896   0.658   3.099   7.592 -0.0452  0.4201  0.2000
  239MOL0     C32897   1.112   2.914   7.348 -0.2406  0.1456  0.1998
  239MOL0     C32898   1.132   2.810   7.250  0.2215 -0.2571 -0.8909
  239MOL0     C32899   1.258   2.406   7.096  0.2154  1.0167 -0.0330
  239MOL0     C32900   1.311   2.274   7.111 -0.0332  0.2526  0.1357
  239MOL0     C32901   1.314   2.182   7.010 -0.1492 -0.0328 -0.1470
  239MOL0     C32902   1.254   2.218   6.893 -0.3872 -0.6350 -0.2104
  239MOL0     O32903   1.256   2.125   6.794  0.4995  0.1400 -0.2721
  239MOL0     C32904   1.271   1.990   6.819  0.5480 -0.1603 -0.6555
  239MOL0     C32905   1.231   1.916   6.690 -0.2689 -0.2944 -0.3366
  239MOL0     C32906   1.226   1.762   6.693 -0.7943 -1.0550 -0.4673
  239MOL0     C32907   1.171   1.699   6.572  0.1828  0.1200 -0.0584
  239MOL0     C32908   1.228   1.565   6.536 -0.2105 -0.0212  1.0263
  239MOL0     C32909   1.262   1.451   6.503  0.6736 -0.2418  0.6747
  239MOL0     C32910   1.217   2.347   6.864  0.4984  0.1810 -0.9608
  239MOL0     C32911   1.211   2.441   6.963  0.5988  0.0196  0.3835
  239MOL0     C32912   1.142   2.570   6.922 -0.1209  0.0483 -0.6646
  239MOL0     H32913   1.411   2.673   7.381  0.0834 -0.3787 -0.5924
  239MOL0     H32914   1.356   2.825   7.561 -1.6126 -1.6330  1.0192
  239MOL0     H32915   1.330   3.084   7.578 -0.2675  2.5209 -0.7999
  239MOL0     H32916   1.245   3.050   7.731  0.8088  0.2841  0.4484
  239MOL0     H32917   1.065   3.236   7.643 -0.8201  1.5366 -1.9372
  239MOL0     H32918   1.202   3.295   7.717  0.1549  0.8475 -0.3704
  239MOL0     H32919   1.315   3.319   7.492 -0.2057  3.0326 -3.2735
  239MOL0     H32920   1.172   3.234   7.421 -1.3108 -0.9550  1.1756
  239MOL0     H32921   1.103   3.470   7.583 -0.8835  2.0017 -1.3222
  239MOL0     H32922   1.186   3.515   7.433  0.0571  0.4575 -0.6020
  239MOL0     H32923   1.054   3.403   7.298  0.3782 -1.4166  0.7064
  239MOL0     H32924   0.959   3.524   7.378 -0.8231 -0.3638  0.4657
  239MOL0     H32925   0.945   3.220   7.421 -1.6170  0.2626 -2.0903
  239MOL0     H32926   0.884   3.337   7.544  0.1158  1.8267  0.4577
  239MOL0     H32927   0.819   3.343   7.237  1.2378  3.7520  0.4059
  239MOL0     H32928   0.739   3.425   7.350  1.6056  1.0119 -1.3741
  239MOL0     H32929   0.609   3.211   7.304  1.5559 -2.1914 -2.1447
  239MOL0     H32930   0.756   3.122   7.359  0.1963  0.2148  1.0536
  239MOL0     H32931   0.575   3.414   7.578  1.0546  0.4401  2.3323
  239MOL0     H32932   0.647   3.448   7.818  0.7654 -1.2560  0.4893
  239MOL0     H32933   0.675   3.308   7.909 -1.9604 -1.1620  0.3477
  239MOL0     H32934   0.419   3.245   7.879 -0.5052 -0.2242 -0.3423
  239MOL0     H32935   0.470   3.346   8.015 -1.6338  3.4127  0.3669
  239MOL0     H32936   0.444   3.550   7.893 -2.2023  1.0111 -0.2048
  239MOL0     H32937   0.391   3.465   7.745 -2.6524  1.5470 -0.5587
  239MOL0     H32938   0.185   3.551   7.875 -2.3744 -2.2037  0.7658
  239MOL0     H32939   0.193   3.376   7.910  1.4868 -0.8028 -1.1207
  239MOL0     H32940   0.213   3.574   8.312  0.1800  1.2032 -0.5167
  239MOL0     H32941   0.210   3.832   8.495  0.1376 -0.4398  0.3946
  239MOL0     H32942   0.385   3.784   8.496 -0.9442  1.5165  2.9313
  239MOL0     H32943   0.246   3.664   8.498 -1.3762  0.5880  0.5748
  239MOL0     H32944   0.573   4.241   8.137  2.2540  0.7868  2.9120
  239MOL0     H32945   0.653   4.463   8.236 -0.6527  2.3901  1.7095
  239MOL0     H32946   0.392   4.691   8.521  0.3493  1.3064 -0.8732
  239MOL0     H32947   0.506   4.580   8.596 -2.7859 -2.4801 -1.5317
  239MOL0     H32948   0.568   4.814   8.659 -2.2549 -0.9869 -0.7503
  239MOL0     H32949   0.684   4.776   8.533 -0.9678 -3.1807 -2.5635
  239MOL0     H32950   0.404   4.916   8.479  0.2849 -0.2854 -0.1070
  239MOL0     H32951   0.529   4.883   8.367 -0.3504 -0.6900 -0.7501
  239MOL0     H32952   0.682   5.013   8.520 -0.0663  1.1831  3.0834
  239MOL0     H32953   0.522   5.072   8.598 -0.5123  1.8007 -1.6051
  239MOL0     H32954   0.608   5.116   8.301  4.3883 -2.6000  1.8504
  239MOL0     H32955   0.458   5.148   8.391  1.1800 -0.5401  0.5134
  239MOL0     H32956   0.722   5.279   8.463 -0.4034 -0.9131  0.1358
  239MOL0     H32957   0.571   5.286   8.558 -0.2740 -0.1283  0.0236
  239MOL0     H32958   0.471   5.404   8.361  0.2885  5.1725  0.7663
  239MOL0     H32959   0.628   5.380   8.274  2.1183 -0.8227  1.9754
  239MOL0     H32960   0.583   5.534   8.537 -0.9397  0.4989 -0.3009
  239MOL0     H32961   0.599   5.619   8.385 -0.8129  1.6306  3.6678
  239MOL0     H32962   0.304   4.474   8.470  0.7329 -0.4134  0.5026
  239MOL0     H32963   0.237   4.253   8.386  0.1865 -0.0687 -2.0103
  239MOL0     H32964   0.356   3.940   8.019 -4.0378  0.4347 -1.5719
  239MOL0     H32965   0.309   3.724   7.928  1.3102  0.3356  0.2667
  239MOL0     H32966   1.024   2.976   7.330 -0.7842 -0.6973 -0.1623
  239MOL0     H32967   1.069   2.804   7.162 -1.0017  0.3613 -0.0748
  239MOL0     H32968   1.356   2.240   7.204 -0.9870 -0.9788  0.1753
  239MOL0     H32969   1.362   2.084   7.016  0.3909 -0.1668 -3.8671
  239MOL0     H32970   1.374   1.971   6.849  0.1409  0.3170  1.1767
  239MOL0     H32971   1.201   1.956   6.896 -3.0008  1.6718 -2.7670
  239MOL0     H32972   1.312   1.942   6.622  0.8374  1.2413  1.4658
  239MOL0     H32973   1.135   1.958   6.659 -1.8165 -2.4863  1.2200
  239MOL0     H32974   1.321   1.718   6.724 -0.3753 -0.7426 -1.2726
  239MOL0     H32975   1.153   1.754   6.774 -2.5911 -0.2410 -1.9332
  239MOL0     H32976   1.188   1.755   6.480  0.1328 -1.6330 -1.1867
  239MOL0     H32977   1.062   1.686   6.573  0.3304 -1.7264 -1.5876
  239MOL0     H32978   1.303   1.360   6.465  0.2424 -0.7521  1.3940
  239MOL0     H32979   1.175   2.358   6.764 -1.3847 -1.5187 -0.4319
  239MOL0     H32980   1.205   2.656   6.944  0.4988 -0.5781  0.0850
  239MOL0     H32981   1.116   2.584   6.817  2.7972  3.0055 -1.1637
  239MOL0     H32982   1.060   2.593   6.990 -0.4092 -2.9197  0.1320
  240MOL0     O32983   3.163   4.654   6.410  0.1576  0.0549 -0.4972
  240MOL0     C32984   3.083   4.572   6.453 -0.7589  0.1777  0.4372
  240MOL0     O32985   3.074   4.536   6.580  0.6707  0.3313  0.0597
  240MOL0     C32986   3.147   4.604   6.677  0.6573 -0.4241  0.5787
  240MOL0     C32987   3.101   4.724   6.726 -0.5429 -0.6346 -0.1071
  240MOL0     C32988   3.184   4.800   6.814  0.2499 -0.0031  0.0737
  240MOL0     C32989   3.323   4.773   6.819 -0.4820  0.2069  0.0433
  240MOL0     O32990   3.408   4.856   6.884 -0.7400 -0.7305  0.4462
  240MOL0     C32991   3.419   4.983   6.818 -0.1792  0.1239 -0.0997
  240MOL0     C32992   3.530   4.987   6.704 -0.7345  0.4518  0.2153
  240MOL0     C32993   3.489   4.920   6.572 -0.2309 -0.6789 -0.3509
  240MOL0     C32994   3.596   4.896   6.465 -0.7812  0.5686 -0.3854
  240MOL0     C32995   3.541   4.805   6.354  0.3244  0.5669  0.3346
  240MOL0     C32996   3.644   4.803   6.237  0.6967  0.1846  0.7418
  240MOL0     C32997   3.593   4.711   6.125 -0.2779  0.5914  0.8773
  240MOL0     C32998   3.688   4.714   6.007 -0.6383  0.0952 -0.3065
  240MOL0     N32999   3.700   4.853   5.953  0.2759 -0.2919 -1.1226
  240MOL0     C33000   3.819   4.925   5.937  0.3102 -0.4454  0.6042
  240MOL0     C33001   3.770   5.041   5.905 -0.2552 -0.9707  0.3558
  240MOL0     C33002   3.846   5.169   5.900 -0.1260  0.2254 -0.1990
  240MOL0     C33003   3.844   5.239   5.764 -0.4091 -0.1850 -0.0401
  240MOL0     C33004   3.937   5.352   5.740 -0.0811  0.3700 -0.9479
  240MOL0     C33005   3.942   5.460   5.852 -0.1560 -0.1027  0.4320
  240MOL0     O33006   3.824   5.537   5.872  0.4162 -0.4211  0.3519
  240MOL0     C33007   3.798   5.625   5.973 -0.2790 -0.1667 -0.8684
  240MOL0     C33008   3.682   5.707   5.950 -0.0727  1.0143 -0.1450
  240MOL0     C33009   3.653   5.813   6.032 -0.2122 -0.2727 -0.2263
  240MOL0     C33010   3.548   5.895   5.980 -0.4177 -0.7617 -0.3362
  240MOL0     C33011   3.728   5.825   6.152 -0.8809  0.4080 -0.3581
  240MOL0     C33012   3.693   5.921   6.257 -0.0724  0.0213  0.4553
  240MOL0     O33013   3.707   5.879   6.381 -0.3082  0.3650 -0.5015
  240MOL0     C33014   3.673   5.970   6.477 -0.0617  0.1470 -0.1023
  240MOL0     C33015   3.771   6.044   6.535 -0.1218  0.3781 -0.5420
  240MOL0     C33016   3.740   6.144   6.625 -0.4922 -0.3203  0.2956
  240MOL0     C33017   3.606   6.171   6.653  0.6418 -0.4621  0.5094
  240MOL0     O33018   3.560   6.256   6.751  0.3087  0.6338 -0.5769
  240MOL0     C33019   3.636   6.271   6.868  0.2074  0.4074  0.2382
  240MOL0     C33020   3.543   6.300   6.990  0.4200 -0.2878  0.6634
  240MOL0     C33021   3.613   6.313   7.130 -0.1946  0.5156 -0.1863
  240MOL0     C33022   3.500   6.371   7.220 -0.6386 -0.9562 -0.2698
  240MOL0     C33023   3.465   6.525   7.226 -0.7764  0.0584  0.4474
  240MOL0     C33024   3.450   6.599   7.360  0.5711  0.0837 -0.0923
  240MOL0     C33025   3.391   6.735   7.361 -0.1652 -0.1297 -0.2956
  240MOL0     C33026   3.414   6.818   7.487  0.4684 -1.1562  0.0812
  240MOL0    Cl33027   3.372   6.721   7.633 -0.0754  0.1157  0.0832
  240MOL0     C33028   3.501   6.099   6.591  0.2159 -0.0109 -0.4382
  240MOL0     C33029   3.539   5.999   6.497  0.0518 -0.5244 -0.5324
  240MOL0     O33030   3.645   6.032   6.225  0.2417  0.3640 -0.8584
  240MOL0     C33031   3.837   5.735   6.184  0.4488 -0.1662  0.0376
  240MOL0     C33032   3.876   5.639   6.086  0.8610 -0.4041 -0.8055
  240MOL0     N33033   3.631   5.044   5.898 -0.1434  0.4860  0.3293
  240MOL0     N33034   3.591   4.926   5.934 -0.4378 -0.6065 -0.0626
  240MOL0     C33035   3.364   4.651   6.760 -0.1056  1.0109 -0.8423
  240MOL0     C33036   3.280   4.576   6.685 -1.2053  0.2615  0.5620
  240MOL0     C33037   2.989   4.501   6.363  0.3044 -0.0038  0.1813
  240MOL0     C33038   3.004   4.540   6.233 -0.5966 -0.3527  0.3603
  240MOL0     C33039   2.930   4.485   6.130  0.1989 -1.0788  0.0575
  240MOL0     C33040   2.832   4.391   6.165  0.0839  0.1034  1.0515
  240MOL0     O33041   2.738   4.326   6.089  0.3712 -0.1231 -0.2192
  240MOL0     C33042   2.760   4.298   5.949 -0.2250 -0.2963  0.2261
  240MOL0     C33043   2.856   4.177   5.930 -0.5802  0.7516 -0.9654
  240MOL0     C33044   2.892   4.163   5.783 -0.0389 -0.2963  0.0388
  240MOL0     C33045   2.941   4.013   5.766 -0.5216 -0.5030 -0.8664
  240MOL0     C33046   3.006   3.984   5.637 -1.3239  0.7753 -0.3826
  240MOL0     C33047   3.063   3.950   5.542  0.9614 -0.8319 -0.2516
  240MOL0     C33048   2.813   4.349   6.297 -0.0946  0.0915  0.0662
  240MOL0     C33049   2.889   4.401   6.395 -0.4257  0.2696 -0.9098
  240MOL0     C33050   2.865   4.335   6.535  0.1326 -0.8116  0.7935
  240MOL0     H33051   2.995   4.746   6.724 -0.7017 -1.3082  0.4361
  240MOL0     H33052   3.131   4.881   6.863 -0.8194  0.7174 -2.1661
  240MOL0     H33053   3.435   5.064   6.889 -0.5738  0.2639 -0.1690
  240MOL0     H33054   3.331   5.019   6.765 -1.1700 -0.8966  0.7907
  240MOL0     H33055   3.556   5.091   6.682  0.2892 -0.2298 -2.0810
  240MOL0     H33056   3.615   4.933   6.748  0.1310  1.3540 -0.3154
  240MOL0     H33057   3.464   4.817   6.600  0.7560 -0.7758  0.2385
  240MOL0     H33058   3.399   4.971   6.536 -0.5640  1.3751  2.8852
  240MOL0     H33059   3.637   4.989   6.424  2.6042 -1.0442 -1.0552
  240MOL0     H33060   3.684   4.857   6.517  0.0189  1.8122 -0.7388
  240MOL0     H33061   3.445   4.846   6.322 -1.0779 -2.1613  0.7048
  240MOL0     H33062   3.522   4.709   6.402  0.6475  0.7449  0.8210
  240MOL0     H33063   3.666   4.906   6.207  2.0840  0.3511  2.1773
  240MOL0     H33064   3.741   4.762   6.269  0.0553 -0.1930  2.2904
  240MOL0     H33065   3.489   4.726   6.093  0.0826 -0.6672 -1.0563
  240MOL0     H33066   3.591   4.614   6.175 -1.7754 -0.5327 -1.1933
  240MOL0     H33067   3.783   4.673   6.042 -0.1720  0.8117 -0.7053
  240MOL0     H33068   3.648   4.649   5.928 -2.6281  0.1517  0.5982
  240MOL0     H33069   3.920   4.895   5.963  0.1237 -2.4333 -0.8002
  240MOL0     H33070   3.945   5.137   5.933 -0.0256  1.1377  0.4220
  240MOL0     H33071   3.812   5.238   5.977 -3.8118 -0.7683 -0.7304
  240MOL0     H33072   3.864   5.165   5.686 -2.3949 -1.5752  0.6778
  240MOL0     H33073   3.740   5.270   5.748 -0.2762 -0.6541 -2.0997
  240MOL0     H33074   4.037   5.317   5.711  0.8731  3.3051 -1.5840
  240MOL0     H33075   3.904   5.401   5.648 -0.4832  0.4269 -0.7751
  240MOL0     H33076   3.969   5.414   5.947  0.3087 -0.2395  0.2359
  240MOL0     H33077   4.018   5.534   5.826 -2.0341  2.1977  1.0827
  240MOL0     H33078   3.638   5.708   5.851 -0.7784  4.2526  0.0876
  240MOL0     H33079   3.489   5.856   5.897  1.5656  0.9879 -2.7562
  240MOL0     H33080   3.591   5.991   5.950  1.0166 -0.9814  0.8792
  240MOL0     H33081   3.479   5.917   6.062 -0.7152 -1.3320 -0.4352
  240MOL0     H33082   3.876   6.018   6.531  0.8154  3.1719  2.3618
  240MOL0     H33083   3.811   6.201   6.685  1.2957 -0.7987 -1.2497
  240MOL0     H33084   3.696   6.184   6.896 -2.0043 -1.5374 -0.7376
  240MOL0     H33085   3.704   6.355   6.851  1.0622 -0.3759 -0.3064
  240MOL0     H33086   3.490   6.387   6.949  0.9601 -0.6163 -0.8026
  240MOL0     H33087   3.468   6.222   7.000  2.3412 -2.1708  0.9913
  240MOL0     H33088   3.699   6.380   7.126  0.0364  0.4216  2.0765
  240MOL0     H33089   3.649   6.216   7.165 -0.9636 -0.6517 -2.4022
  240MOL0     H33090   3.518   6.332   7.321 -1.7947 -1.0668 -0.0979
  240MOL0     H33091   3.406   6.320   7.200 -1.9907  1.7819 -1.3544
  240MOL0     H33092   3.540   6.578   7.167  0.4451  0.9252  2.6800
  240MOL0     H33093   3.366   6.533   7.180  0.2145  2.0993 -1.4854
  240MOL0     H33094   3.549   6.603   7.405  1.6226 -0.6392 -2.2293
  240MOL0     H33095   3.374   6.544   7.418  0.5952 -2.3972 -2.2127
  240MOL0     H33096   3.282   6.726   7.358 -0.2865  0.8632  0.4666
  240MOL0     H33097   3.408   6.790   7.268 -1.3175  0.5298 -0.1253
  240MOL0     H33098   3.345   6.903   7.492  3.4110  1.3571  1.0290
  240MOL0     H33099   3.518   6.854   7.488 -0.1300  0.6582  0.1257
  240MOL0     H33100   3.406   6.137   6.625  0.2928 -0.0760 -0.1506
  240MOL0     H33101   3.474   5.935   6.437  1.2655 -2.5640  0.2251
  240MOL0     H33102   3.894   5.746   6.276  0.2885 -2.0596  0.3927
  240MOL0     H33103   3.972   5.591   6.099  0.4438 -0.9541  0.4901
  240MOL0     H33104   3.470   4.629   6.748 -0.1397  1.7944 -3.0702
  240MOL0     H33105   3.322   4.490   6.635  1.0362  1.8170 -0.3603
  240MOL0     H33106   3.068   4.626   6.212 -0.8900 -0.3519 -0.5830
  240MOL0     H33107   2.939   4.520   6.027  1.8607  2.5697  1.2790
  240MOL0     H33108   2.675   4.279   5.884  0.0426 -4.5385  0.8039
  240MOL0     H33109   2.820   4.382   5.913 -0.0003 -0.2748  0.6365
  240MOL0     H33110   2.812   4.084   5.967 -1.3084  0.8379 -1.6058
  240MOL0     H33111   2.954   4.182   5.978 -0.1725 -0.4342 -1.6137
  240MOL0     H33112   2.799   4.169   5.727 -0.0801 -1.2246 -0.0071
  240MOL0     H33113   2.961   4.241   5.751 -0.7608 -0.0654 -0.9688
  240MOL0     H33114   2.859   3.945   5.791 -1.6576  1.3413  0.7727
  240MOL0     H33115   3.015   4.005   5.847 -0.4327  4.1555 -0.2069
  240MOL0     H33116   3.121   3.937   5.452  2.3424  1.8018  0.1505
  240MOL0     H33117   2.742   4.271   6.322 -0.6302  0.3372 -0.6512
  240MOL0     H33118   2.936   4.252   6.538 -1.5034 -2.5282 -2.5237
  240MOL0     H33119   2.884   4.411   6.611  1.3463 -0.4296  0.1310
  240MOL0     H33120   2.769   4.281   6.540 -0.4070 -0.1496 -1.4517
  241MOL0     O33121  10.125   9.312   8.900  0.2396  0.3588  0.5996
  241MOL0     C33122  10.064   9.372   8.809  0.0088 -0.7198 -0.7881
  241MOL0     O33123   9.925   9.403   8.809  0.0494 -0.5415  0.1832
  241MOL0     C33124   9.860   9.388   8.930  0.0629  0.4533  1.1260
  241MOL0     C33125   9.873   9.281   9.019 -1.3227  0.0733  0.4286
  241MOL0     C33126   9.783   9.265   9.125 -0.0538 -0.4450 -0.5880
  241MOL0     C33127   9.714   9.384   9.170 -0.1006  0.0718  0.4688
  241MOL0     O33128   9.637   9.385   9.286 -0.2000 -0.3523  0.5539
  241MOL0     C33129   9.696   9.354   9.412  0.6321  0.3714  0.3997
  241MOL0     C33130   9.582   9.387   9.514 -0.3595 -1.1495  0.3743
  241MOL0     C33131   9.459   9.302   9.490 -0.3366  0.3662  1.0407
  241MOL0     C33132   9.320   9.362   9.535  0.6099  0.4054 -0.0749
  241MOL0     C33133   9.219   9.244   9.536 -0.4052 -0.1320  0.2226
  241MOL0     C33134   9.106   9.263   9.441 -0.2140  0.6420 -0.1065
  241MOL0     C33135   9.019   9.132   9.439  1.1091 -0.4670  0.7910
  241MOL0     C33136   8.890   9.158   9.351  0.4255  0.0881 -0.4959
  241MOL0     N33137   8.915   9.133   9.209  0.3867  0.0424 -0.2088
  241MOL0     C33138   8.900   9.221   9.106  0.1217 -0.0669  0.4776
  241MOL0     C33139   8.923   9.141   8.998 -0.2243 -0.1639 -0.4503
  241MOL0     C33140   8.923   9.188   8.854 -0.0250 -0.5856  0.9408
  241MOL0     C33141   8.959   9.334   8.849 -1.1740  0.9666 -0.1315
  241MOL0     C33142   8.920   9.401   8.713  0.2707  0.2058  0.0454
  241MOL0     C33143   8.956   9.545   8.701  0.3243 -0.9006 -1.0888
  241MOL0     O33144   9.063   9.562   8.614 -0.0965  1.1767  0.3417
  241MOL0     C33145   9.080   9.678   8.542  0.4505  0.2487  0.5492
  241MOL0     C33146   9.169   9.677   8.441  0.1549  0.6401  0.3624
  241MOL0     C33147   9.190   9.793   8.357 -0.0841  1.4615  0.3210
  241MOL0     C33148   9.310   9.792   8.261 -0.4264 -0.1342  0.5210
  241MOL0     C33149   9.123   9.915   8.386  0.2710 -0.3179  1.0392
  241MOL0     C33150   9.156  10.038   8.305 -0.2048 -0.2391  0.8509
  241MOL0     O33151   9.189  10.034   8.173 -0.3710 -0.0057  0.2915
  241MOL0     C33152   9.246  10.140   8.113 -0.0364  0.6427 -0.0229
  241MOL0     C33153   9.176  10.253   8.082  0.5175  0.8313  0.3620
  241MOL0     C33154   9.230  10.356   8.010 -0.3823  0.3891  0.2161
  241MOL0     C33155   9.360  10.349   7.960 -0.5066 -0.0215  0.0525
  241MOL0     O33156   9.391  10.446   7.867  0.7126  0.0978 -0.5408
  241MOL0     C33157   9.526  10.437   7.806  0.4115 -0.6712  0.1152
  241MOL0     C33158   9.531  10.529   7.678 -0.4114  0.8936  0.5762
  241MOL0     C33159   9.454  10.481   7.554  1.2895 -0.2434  0.4634
  241MOL0     C33160   9.469  10.573   7.433 -0.4916  0.0993  0.0630
  241MOL0     C33161   9.440  10.511   7.291 -0.1551  0.5226  0.4052
  241MOL0     C33162   9.563  10.427   7.244 -0.3377 -0.1840 -0.0713
  241MOL0     C33163   9.511  10.355   7.127  0.0393 -0.1005 -0.4596
  241MOL0     C33164   9.617  10.356   7.010 -0.4562  0.4881 -0.0483
  241MOL0    Cl33165   9.749  10.235   7.030  0.4865  0.1429  0.1529
  241MOL0     C33166   9.435  10.239   7.993 -0.3345  0.8516  0.1494
  241MOL0     C33167   9.374  10.136   8.070 -0.2605  0.2348  0.4474
  241MOL0     O33168   9.156  10.132   8.373 -0.9789  0.2571 -0.6509
  241MOL0     C33169   9.026   9.909   8.486  0.2647  1.0655  0.6236
  241MOL0     C33170   9.013   9.797   8.564 -0.3445 -0.3126  0.7985
  241MOL0     N33171   8.928   9.011   9.035  0.6173  0.2339 -0.1567
  241MOL0     N33172   8.943   9.004   9.160  1.1048  0.1457 -1.1172
  241MOL0     C33173   9.698   9.488   9.081 -0.6195  0.4856 -1.0643
  241MOL0     C33174   9.773   9.490   8.964 -0.3245 -0.4897 -0.5845
  241MOL0     C33175  10.140   9.409   8.688  0.9502  0.3912  0.0671
  241MOL0     C33176  10.275   9.376   8.685  0.6490  0.6578  0.0734
  241MOL0     C33177  10.354   9.389   8.570  1.0826 -0.2198  0.2718
  241MOL0     C33178  10.310   9.460   8.465 -0.3429 -0.0717 -0.3587
  241MOL0     O33179  10.388   9.490   8.358  0.1382 -0.1575 -0.4812
  241MOL0     C33180  10.508   9.570   8.392 -0.1220  0.6467 -0.6116
  241MOL0     C33181  10.579   9.572   8.262 -0.0211 -0.4054  0.1903
  241MOL0     C33182  10.672   9.448   8.239  0.2555  0.7552  1.4153
  241MOL0     C33183  10.743   9.439   8.109 -0.8534  0.5012  0.8863
  241MOL0     C33184  10.833   9.559   8.098  0.6945 -0.2207  0.6181
  241MOL0     C33185  10.914   9.647   8.076  0.8760 -0.7495  0.2286
  241MOL0     C33186  10.178   9.510   8.471  1.0103 -0.7917  0.1705
  241MOL0     C33187  10.086   9.485   8.577 -1.2844 -0.2309 -0.4835
  241MOL0     C33188   9.946   9.528   8.552 -0.5960 -0.5103 -0.3194
  241MOL0     H33189   9.943   9.204   8.987  1.6188  2.3899  0.8607
  241MOL0     H33190   9.767   9.177   9.186  1.1446 -1.6719 -1.9702
  241MOL0     H33191   9.785   9.413   9.431 -0.6435  2.3537  0.4908
  241MOL0     H33192   9.715   9.248   9.432  0.7752  0.7666  2.5596
  241MOL0     H33193   9.615   9.371   9.617  0.5021 -0.5792  0.1947
  241MOL0     H33194   9.557   9.493   9.505  2.5005 -0.4952 -0.7392
  241MOL0     H33195   9.453   9.267   9.387 -3.5022 -1.3628  1.6810
  241MOL0     H33196   9.477   9.210   9.546 -1.4676  0.5434  1.7344
  241MOL0     H33197   9.320   9.400   9.637  2.1013  2.1705 -0.6807
  241MOL0     H33198   9.295   9.438   9.459  2.1548 -0.1420 -1.1777
  241MOL0     H33199   9.178   9.239   9.638 -3.8381  1.0185 -0.9589
  241MOL0     H33200   9.273   9.153   9.511  0.6288 -0.1166  2.2260
  241MOL0     H33201   9.046   9.350   9.470 -0.3069  0.0932  1.4529
  241MOL0     H33202   9.147   9.289   9.344 -0.4558 -1.7586 -0.9071
  241MOL0     H33203   8.988   9.109   9.541  3.4193  0.8626  1.8791
  241MOL0     H33204   9.071   9.041   9.409  1.6610 -0.4772  1.7219
  241MOL0     H33205   8.814   9.082   9.372 -1.1108  1.2155 -1.7151
  241MOL0     H33206   8.839   9.253   9.372 -0.1328  0.0025 -1.3787
  241MOL0     H33207   8.875   9.326   9.108 -0.7052 -0.2297 -0.3755
  241MOL0     H33208   8.819   9.179   8.821  0.7340 -1.3596 -1.4482
  241MOL0     H33209   8.993   9.135   8.789  3.7528  2.7574  1.8748
  241MOL0     H33210   8.922   9.402   8.926  1.0182  0.7130  1.2197
  241MOL0     H33211   9.067   9.342   8.861 -0.5266 -2.4638 -2.2600
  241MOL0     H33212   8.977   9.331   8.652  0.4570 -1.0198  1.5577
  241MOL0     H33213   8.813   9.401   8.690 -0.0972 -1.1026  1.5542
  241MOL0     H33214   8.874   9.599   8.652 -0.1426  0.2563  0.8581
  241MOL0     H33215   8.967   9.587   8.801 -3.8473 -0.8813 -0.4430
  241MOL0     H33216   9.213   9.582   8.416  3.0115  2.7136 -3.6893
  241MOL0     H33217   9.402   9.844   8.291 -1.2735  1.2989  0.7057
  241MOL0     H33218   9.282   9.824   8.161 -1.5058 -0.7616  0.6094
  241MOL0     H33219   9.338   9.688   8.239 -0.1566  0.0818 -0.1717
  241MOL0     H33220   9.072  10.265   8.110  0.2375  0.7945 -0.6066
  241MOL0     H33221   9.168  10.435   7.968 -0.1802  0.3338 -0.1866
  241MOL0     H33222   9.604  10.458   7.880  1.7807 -2.9107 -0.5673
  241MOL0     H33223   9.529  10.333   7.770  0.8395 -0.9185  0.8412
  241MOL0     H33224   9.500  10.632   7.699 -4.7118  0.0911 -0.8738
  241MOL0     H33225   9.637  10.522   7.650 -0.3619 -0.4414  1.0181
  241MOL0     H33226   9.348  10.487   7.579  0.7572 -2.5537 -0.9045
  241MOL0     H33227   9.469  10.376   7.524  0.8048 -0.3177  0.4754
  241MOL0     H33228   9.568  10.620   7.426  0.3460 -1.1636  2.3594
  241MOL0     H33229   9.399  10.657   7.442  2.1207  2.5337 -0.8892
  241MOL0     H33230   9.342  10.462   7.282 -0.1831  0.8711 -1.7588
  241MOL0     H33231   9.429  10.601   7.230  0.7178  1.3225  1.3878
  241MOL0     H33232   9.573  10.351   7.322 -1.8801 -1.9923 -1.5529
  241MOL0     H33233   9.649  10.490   7.220 -0.1346 -0.4305  0.0086
  241MOL0     H33234   9.426  10.400   7.075 -0.3272 -3.0691 -2.7289
  241MOL0     H33235   9.474  10.254   7.149 -0.1076  0.5809  2.9891
  241MOL0     H33236   9.650  10.460   7.005  0.6216  0.1592 -0.2330
  241MOL0     H33237   9.572  10.318   6.918 -2.4003  1.4737  0.4448
  241MOL0     H33238   9.536  10.235   7.953 -0.1333  3.0505  0.3290
  241MOL0     H33239   9.423  10.045   8.100  1.5889  1.0561  0.0393
  241MOL0     H33240   8.972   9.999   8.513 -1.2208  0.4098 -0.0236
  241MOL0     H33241   8.934   9.792   8.639  1.0009 -0.9917  2.2487
  241MOL0     H33242   9.640   9.574   9.113 -0.9993 -0.3793  0.7515
  241MOL0     H33243   9.764   9.570   8.892  0.2322  0.0203 -0.0998
  241MOL0     H33244  10.322   9.315   8.762  0.0085 -2.7005 -1.9806
  241MOL0     H33245  10.452   9.345   8.556 -0.4628 -3.0174 -3.1409
  241MOL0     H33246  10.492   9.674   8.421 -0.9188  0.1311  0.8568
  241MOL0     H33247  10.569   9.534   8.475 -2.3982  0.2597  0.9870
  241MOL0     H33248  10.631   9.668   8.257  1.1922 -1.0963 -1.7148
  241MOL0     H33249  10.498   9.574   8.189 -0.7597 -2.5050  0.8652
  241MOL0     H33250  10.743   9.448   8.322  2.4958 -0.0197 -0.3680
  241MOL0     H33251  10.621   9.353   8.254 -0.5360  0.2190 -3.1398
  241MOL0     H33252  10.671   9.437   8.027  0.7236  1.8596 -0.6025
  241MOL0     H33253  10.808   9.351   8.115  1.9847  2.4883  1.6283
  241MOL0     H33254  10.988   9.724   8.064  0.6353 -0.2017  1.9588
  241MOL0     H33255  10.137   9.555   8.382  1.2071 -4.1506 -1.7579
  241MOL0     H33256   9.933   9.597   8.468 -1.3447 -0.3603 -0.0860
  241MOL0     H33257   9.881   9.441   8.541  2.8146 -3.4816  0.9198
  241MOL0     H33258   9.911   9.593   8.632  0.3910  1.3261 -1.2838
  242MOL0     O33259   8.668   9.702   0.494 -0.8166 -0.3575  0.3064
  242MOL0     C33260   8.777   9.707   0.441 -0.5913 -1.2030 -0.4050
  242MOL0     O33261   8.866   9.609   0.443  0.6077 -0.2837  0.1933
  242MOL0     C33262   8.830   9.484   0.498 -0.6405 -0.1915 -0.4693
  242MOL0     C33263   8.930   9.396   0.543  0.2442 -0.9336 -0.7692
  242MOL0     C33264   8.909   9.276   0.613 -0.3228 -1.0373 -0.1020
  242MOL0     C33265   8.778   9.226   0.622  1.1151 -0.1461 -0.1734
  242MOL0     O33266   8.770   9.097   0.659 -0.1601 -0.5749 -0.4026
  242MOL0     C33267   8.744   9.083   0.803 -0.7428 -0.0366  1.2302
  242MOL0     C33268   8.602   9.127   0.835  1.3207 -0.4102  0.2475
  242MOL0     C33269   8.566   9.100   0.983 -0.4185  0.0860  0.0330
  242MOL0     C33270   8.432   9.170   1.010 -1.0070 -0.6424  0.4946
  242MOL0     C33271   8.367   9.094   1.134  0.4341  1.3419  0.1158
  242MOL0     C33272   8.276   8.970   1.098 -0.0783 -1.1159  0.1039
  242MOL0     C33273   8.254   8.892   1.225 -0.4478 -1.0963 -0.0132
  242MOL0     C33274   8.178   8.759   1.203  0.1162 -0.5474  0.5569
  242MOL0     N33275   8.270   8.639   1.203 -0.1207  0.1919  0.5409
  242MOL0     C33276   8.325   8.578   1.313  0.1079 -0.0653  0.2769
  242MOL0     C33277   8.358   8.455   1.275 -0.0403 -0.2191 -0.1269
  242MOL0     C33278   8.426   8.351   1.356 -0.8394  0.0029  0.4461
  242MOL0     C33279   8.362   8.322   1.486  0.2025 -0.3403 -0.4087
  242MOL0     C33280   8.463   8.254   1.572  0.0147 -0.5254 -0.7739
  242MOL0     C33281   8.422   8.159   1.685  0.1125 -0.4068  0.5194
  242MOL0     O33282   8.419   8.239   1.808 -0.2693  0.6964 -1.1025
  242MOL0     C33283   8.415   8.165   1.925  0.8095 -1.1745  0.4798
  242MOL0     C33284   8.359   8.029   1.936  0.0169  0.3871 -0.5145
  242MOL0     C33285   8.325   7.964   2.059 -0.4399 -0.4053  0.0042
  242MOL0     C33286   8.282   7.826   2.035  0.6525  1.0647 -0.2098
  242MOL0     C33287   8.337   8.033   2.181 -0.4166 -0.0683 -0.5161
  242MOL0     C33288   8.283   7.989   2.311  0.9220 -0.5228 -1.0034
  242MOL0     O33289   8.242   8.088   2.392 -0.1792 -0.0377  0.2370
  242MOL0     C33290   8.228   8.053   2.524  0.1040 -1.0771 -0.7149
  242MOL0     C33291   8.113   8.102   2.598 -0.2020 -0.1191 -0.1249
  242MOL0     C33292   8.092   8.072   2.735 -0.2488 -0.3027 -0.6300
  242MOL0     C33293   8.185   7.996   2.803  0.0796  0.5259 -0.1257
  242MOL0     O33294   8.177   7.958   2.940 -0.5854 -0.2612 -0.6852
  242MOL0     C33295   8.055   7.957   3.006  0.3545  0.7262  0.1473
  242MOL0     C33296   8.092   7.935   3.156  0.1531 -0.7546  0.6366
  242MOL0     C33297   8.144   7.795   3.185  0.2809 -0.3494  0.0986
  242MOL0     C33298   8.247   7.797   3.291  0.1373 -0.3385  0.1604
  242MOL0     C33299   8.202   7.816   3.431  0.0959  0.4447  0.7731
  242MOL0     C33300   8.316   7.782   3.535  0.6870 -0.5461 -0.3424
  242MOL0     C33301   8.273   7.785   3.682 -0.6599 -0.3036  0.8042
  242MOL0     C33302   8.388   7.746   3.783 -0.1308 -0.7047 -0.7308
  242MOL0    Cl33303   8.309   7.684   3.930  0.0047 -0.1888 -0.0731
  242MOL0     C33304   8.293   7.948   2.730 -0.3070  0.5994 -0.2461
  242MOL0     C33305   8.317   7.975   2.598  0.5975  0.5884  0.8681
  242MOL0     O33306   8.269   7.867   2.326 -0.1970 -0.3484  0.0897
  242MOL0     C33307   8.393   8.166   2.179  0.1029 -0.2185 -0.1594
  242MOL0     C33308   8.425   8.228   2.054  0.6525 -1.4828 -0.3382
  242MOL0     N33309   8.363   8.463   1.138 -0.3622  0.5711  0.4833
  242MOL0     N33310   8.303   8.565   1.086  0.0546  0.6164 -0.7220
  242MOL0     C33311   8.675   9.305   0.572  0.6684 -0.4142  0.1665
  242MOL0     C33312   8.698   9.435   0.517 -0.4013 -0.5085  0.0708
  242MOL0     C33313   8.829   9.838   0.372 -0.1823  0.3462 -0.4309
  242MOL0     C33314   8.943   9.827   0.291 -0.1169  0.2450 -0.2979
  242MOL0     C33315   9.017   9.945   0.254  0.5317  0.0044 -0.1835
  242MOL0     C33316   8.966  10.065   0.298 -0.6032  0.1825 -0.6516
  242MOL0     O33317   9.027  10.191   0.281  0.4541  1.0372 -0.3309
  242MOL0     C33318   9.169  10.186   0.265 -0.3581 -0.1921 -0.1382
  242MOL0     C33319   9.215  10.330   0.293 -0.1337  0.5042  0.1266
  242MOL0     C33320   9.368  10.322   0.280 -0.5501 -0.8106 -1.0265
  242MOL0     C33321   9.431  10.466   0.284 -0.9873 -0.1570 -0.0960
  242MOL0     C33322   9.554  10.477   0.197 -0.1179  1.0686  0.4575
  242MOL0     C33323   9.654  10.488   0.125  0.7114  0.9026 -0.2267
  242MOL0     C33324   8.853  10.070   0.366  0.0090 -0.4688 -0.4706
  242MOL0     C33325   8.770   9.966   0.393  0.6955 -0.5173 -0.2799
  242MOL0     C33326   8.635   9.978   0.449 -0.8128 -1.2253 -0.7204
  242MOL0     H33327   9.034   9.415   0.516  0.5614 -1.4590  0.0433
  242MOL0     H33328   8.995   9.213   0.633  2.9838  2.9082 -0.5244
  242MOL0     H33329   8.818   9.142   0.858 -0.7479  0.8624  0.3033
  242MOL0     H33330   8.756   8.975   0.820 -1.2187 -0.2856  0.1020
  242MOL0     H33331   8.588   9.231   0.805 -2.1533 -1.4639 -2.5498
  242MOL0     H33332   8.526   9.079   0.772 -2.7657 -0.4365  4.6480
  242MOL0     H33333   8.558   8.996   1.014 -0.4304  0.3112  0.8018
  242MOL0     H33334   8.647   9.141   1.045  0.7768  0.9248 -1.9704
  242MOL0     H33335   8.449   9.272   1.046 -2.6969  0.0453 -0.4974
  242MOL0     H33336   8.363   9.170   0.925 -0.6978 -1.6620  0.2391
  242MOL0     H33337   8.319   9.169   1.198  2.1783  0.4846  2.5869
  242MOL0     H33338   8.439   9.054   1.205 -1.1045 -2.7523 -0.4098
  242MOL0     H33339   8.179   9.010   1.066 -1.5564 -3.5694  1.2468
  242MOL0     H33340   8.319   8.909   1.018  1.6550 -0.0368  0.1621
  242MOL0     H33341   8.197   8.956   1.293  0.5611 -0.6671  0.4457
  242MOL0     H33342   8.352   8.865   1.264  0.8911 -0.1999 -2.5348
  242MOL0     H33343   8.103   8.752   1.283  0.3470 -0.2735  0.7971
  242MOL0     H33344   8.117   8.766   1.113 -0.4960  0.9386  1.0615
  242MOL0     H33345   8.341   8.610   1.416  1.1088  1.8388 -0.4146
  242MOL0     H33346   8.531   8.382   1.359 -1.2925  1.7790 -0.6095
  242MOL0     H33347   8.441   8.261   1.295  2.0547  1.4431 -1.1672
  242MOL0     H33348   8.338   8.418   1.531  0.0005 -0.2468 -0.7060
  242MOL0     H33349   8.270   8.263   1.482  0.0078 -0.0023 -1.1671
  242MOL0     H33350   8.539   8.205   1.510 -1.6670 -2.9696 -1.0820
  242MOL0     H33351   8.526   8.333   1.614 -0.3223 -0.7218  0.1113
  242MOL0     H33352   8.327   8.111   1.659 -0.8602  1.4050  0.5529
  242MOL0     H33353   8.507   8.091   1.688 -0.1239 -0.7730 -0.6763
  242MOL0     H33354   8.332   7.974   1.847 -3.7707 -0.2883  0.8913
  242MOL0     H33355   8.301   7.806   1.929  0.3364  0.7886 -0.2167
  242MOL0     H33356   8.173   7.827   2.045  0.7955  2.4381  1.7884
  242MOL0     H33357   8.325   7.747   2.097 -0.0879 -0.0258 -1.0425
  242MOL0     H33358   8.047   8.169   2.544  1.1944 -0.1912 -2.0340
  242MOL0     H33359   8.014   8.119   2.794  1.8408 -0.8606  2.8111
  242MOL0     H33360   7.992   8.047   3.001 -1.4835 -0.5727 -1.1164
  242MOL0     H33361   7.992   7.872   2.978  0.8588  0.1362  0.7582
  242MOL0     H33362   8.172   8.007   3.173 -1.0116  0.3735  1.5699
  242MOL0     H33363   8.010   7.946   3.229 -1.8692  0.5537 -1.6777
  242MOL0     H33364   8.187   7.746   3.098  2.4653 -0.3081  1.0672
  242MOL0     H33365   8.062   7.730   3.217  1.1723 -1.1241  0.8638
  242MOL0     H33366   8.323   7.866   3.253  1.1677 -1.6526 -0.2909
  242MOL0     H33367   8.302   7.702   3.289  1.8978  0.6167  0.6425
  242MOL0     H33368   8.181   7.921   3.452 -0.6679 -0.0582  2.7636
  242MOL0     H33369   8.118   7.750   3.453  0.8212 -0.7608  0.0417
  242MOL0     H33370   8.399   7.850   3.518  0.1506 -0.0158 -0.9078
  242MOL0     H33371   8.359   7.682   3.527  0.3740 -0.7637  0.6036
  242MOL0     H33372   8.182   7.729   3.705 -1.1174  0.9935  2.3180
  242MOL0     H33373   8.254   7.891   3.698  0.9152 -0.0571  1.2438
  242MOL0     H33374   8.434   7.843   3.801 -3.0590  0.4867  1.0244
  242MOL0     H33375   8.449   7.663   3.746  1.9682  0.5232 -0.2151
  242MOL0     H33376   8.371   7.896   2.784 -0.4613  2.0054  1.4217
  242MOL0     H33377   8.404   7.938   2.545  0.0448  0.0643  0.3122
  242MOL0     H33378   8.394   8.235   2.263  0.1785 -2.8153  2.1067
  242MOL0     H33379   8.460   8.331   2.049 -1.8137 -0.6144 -4.4856
  242MOL0     H33380   8.571   9.277   0.560 -0.1480  2.1509  0.6473
  242MOL0     H33381   8.622   9.493   0.465  2.0778  0.2689 -2.9685
  242MOL0     H33382   8.987   9.732   0.263  2.1560  0.6367  1.6461
  242MOL0     H33383   9.104   9.926   0.193  1.3971 -1.8247  1.4851
  242MOL0     H33384   9.218  10.110   0.328 -0.9014 -1.8322 -1.6104
  242MOL0     H33385   9.187  10.159   0.161  0.7676  0.0477 -0.0191
  242MOL0     H33386   9.183  10.362   0.392  0.5599  3.0932 -0.3826
  242MOL0     H33387   9.181  10.391   0.209  3.4225  2.2153 -0.2867
  242MOL0     H33388   9.417  10.283   0.370 -1.0389  3.5198  1.3932
  242MOL0     H33389   9.390  10.261   0.192 -2.5982 -0.4064 -1.8841
  242MOL0     H33390   9.462  10.478   0.388  0.2687 -2.1512 -0.1866
  242MOL0     H33391   9.356  10.541   0.258 -0.5791 -0.4604 -2.3837
  242MOL0     H33392   9.741  10.504   0.066  0.4259  2.2624 -0.3101
  242MOL0     H33393   8.825  10.171   0.393 -3.3258 -0.7152 -2.4608
  242MOL0     H33394   8.571   9.897   0.414 -1.7411 -0.6529 -0.3935
  242MOL0     H33395   8.640   9.987   0.558  0.5207  2.0745 -0.9232
  242MOL0     H33396   8.589  10.070   0.410  2.5331  0.3052 -1.3830
  243MOL0     O33397   5.218   8.238   7.101  0.6694  0.3398  0.3092
  243MOL0     C33398   5.126   8.271   7.173 -0.6912 -1.1279  0.7869
  243MOL0     O33399   5.017   8.195   7.192 -0.6750  0.3906  0.0691
  243MOL0     C33400   5.016   8.070   7.134  0.0710 -0.3112 -0.8521
  243MOL0     C33401   4.886   8.035   7.075 -0.0011  0.2298 -0.9116
  243MOL0     C33402   4.888   7.909   7.002 -0.7895 -0.2994  0.1004
  243MOL0     C33403   5.000   7.820   6.996  0.3462 -0.1170 -0.1276
  243MOL0     O33404   4.999   7.699   6.931  0.3785 -0.1148 -0.4796
  243MOL0     C33405   4.894   7.660   6.841  0.1765 -1.2728  0.0092
  243MOL0     C33406   4.946   7.539   6.767  0.5415  0.1873 -0.0639
  243MOL0     C33407   4.921   7.404   6.849 -1.0247  0.5113  0.1597
  243MOL0     C33408   5.038   7.373   6.944 -0.8570 -0.3872  0.1820
  243MOL0     C33409   5.048   7.229   6.992  0.2691 -0.2897 -0.7665
  243MOL0     C33410   5.134   7.192   7.118 -0.1580 -0.3001  0.4743
  243MOL0     C33411   5.150   7.049   7.157 -0.4554  0.2295  0.2977
  243MOL0     C33412   5.024   6.957   7.156 -0.7492  0.0279 -0.2320
  243MOL0     N33413   4.936   7.003   7.262 -0.7228 -0.3170 -0.9481
  243MOL0     C33414   4.978   7.015   7.399  0.7680  0.3555  0.4244
  243MOL0     C33415   4.876   7.091   7.449  0.0166  0.2487 -0.0847
  243MOL0     C33416   4.886   7.150   7.587 -0.1036  0.4855  0.2943
  243MOL0     C33417   4.888   7.302   7.567  0.5058 -0.6311  0.3450
  243MOL0     C33418   5.034   7.349   7.540  0.3842  0.0918  0.2073
  243MOL0     C33419   5.032   7.499   7.552 -1.1960 -0.5694  0.6255
  243MOL0     O33420   4.993   7.561   7.672  0.0468 -0.2019  0.6460
  243MOL0     C33421   5.000   7.700   7.679 -0.2046 -0.6136  0.3493
  243MOL0     C33422   5.025   7.790   7.569 -0.4776  0.0409 -0.0249
  243MOL0     C33423   5.032   7.925   7.599 -0.2041  0.1424 -0.2620
  243MOL0     C33424   5.032   8.014   7.480 -0.7597 -0.1467  0.0131
  243MOL0     C33425   5.007   7.972   7.734  0.4980 -0.2464  0.0415
  243MOL0     C33426   5.019   8.114   7.784 -0.1426  0.5754  0.4709
  243MOL0     O33427   5.041   8.129   7.921 -0.0137 -0.0646  0.1569
  243MOL0     C33428   5.098   8.249   7.972  0.1272  0.3552  0.3799
  243MOL0     C33429   5.039   8.376   7.947 -0.8391  0.1569 -0.4276
  243MOL0     C33430   5.083   8.489   8.013 -0.2250  0.2449 -0.1752
  243MOL0     C33431   5.201   8.476   8.088  0.5898  0.4828 -0.9042
  243MOL0     O33432   5.276   8.569   8.154  0.0794 -0.2663  0.4698
  243MOL0     C33433   5.226   8.699   8.145  0.0897  0.3095  0.6793
  243MOL0     C33434   5.320   8.795   8.219  0.0633  0.4094  0.3035
  243MOL0     C33435   5.290   8.797   8.379 -0.2431 -0.4555  0.0760
  243MOL0     C33436   5.373   8.910   8.439 -0.7710  0.9834 -0.0534
  243MOL0     C33437   5.321   8.937   8.580 -0.3235 -0.3071  0.3773
  243MOL0     C33438   5.444   9.001   8.657 -0.2828 -0.0703 -0.3813
  243MOL0     C33439   5.409   9.022   8.812  0.1967  0.2306  0.8188
  243MOL0     C33440   5.347   8.898   8.874 -0.6176  0.4019  0.6726
  243MOL0    Cl33441   5.326   8.917   9.055 -0.1272  0.1776  0.3903
  243MOL0     C33442   5.262   8.348   8.111  0.8240 -0.1152 -0.1785
  243MOL0     C33443   5.207   8.231   8.054  0.1092  0.0772  0.3732
  243MOL0     O33444   5.002   8.205   7.709  0.2514  0.5862 -0.0475
  243MOL0     C33445   4.977   7.883   7.839 -0.6136  0.3436 -0.5280
  243MOL0     C33446   4.984   7.743   7.814  0.0126  0.2524 -0.7454
  243MOL0     N33447   4.772   7.102   7.355  0.2701 -0.5389  0.2768
  243MOL0     N33448   4.809   7.046   7.247 -0.0115 -0.8606  0.1873
  243MOL0     C33449   5.114   7.856   7.056  0.7805 -0.1351  0.5687
  243MOL0     C33450   5.123   7.983   7.125  0.1888  1.2155  0.5099
  243MOL0     C33451   5.127   8.396   7.262 -0.1299  0.2862 -0.4542
  243MOL0     C33452   5.049   8.385   7.390  1.1717 -0.4782 -0.0154
  243MOL0     C33453   5.078   8.463   7.507 -0.6076 -0.1672 -0.6265
  243MOL0     C33454   5.169   8.566   7.486  0.0444 -1.7009 -0.7544
  243MOL0     O33455   5.215   8.661   7.572 -0.0917 -0.7479 -0.3118
  243MOL0     C33456   5.162   8.669   7.709  0.5035  0.4552  0.5580
  243MOL0     C33457   5.143   8.815   7.755  0.6504 -0.0468 -0.4880
  243MOL0     C33458   5.265   8.888   7.783  0.6802  0.0459  0.4604
  243MOL0     C33459   5.229   9.029   7.838 -0.2881  0.7769 -0.0696
  243MOL0     C33460   5.314   9.091   7.947 -0.7049 -0.1443  0.0340
  243MOL0     C33461   5.381   9.147   8.029 -0.1287  0.4647 -0.5302
  243MOL0     C33462   5.227   8.584   7.359  0.2401 -0.6393 -0.2173
  243MOL0     C33463   5.222   8.498   7.253 -0.8869  1.1215  0.2256
  243MOL0     C33464   5.301   8.523   7.122 -0.0210  0.4266  0.4166
  243MOL0     H33465   4.796   8.096   7.074 -1.3137 -1.5883  0.0242
  243MOL0     H33466   4.799   7.876   6.950 -0.2882 -0.7899 -0.4523
  243MOL0     H33467   4.885   7.739   6.766  3.2113  0.4099  1.2303
  243MOL0     H33468   4.795   7.638   6.882  0.3875 -0.0277  1.2946
  243MOL0     H33469   4.885   7.531   6.676 -2.1503 -1.9976  1.7723
  243MOL0     H33470   5.053   7.550   6.745  0.1757  1.4952 -1.3312
  243MOL0     H33471   4.830   7.413   6.909 -1.0024 -2.0465  0.7095
  243MOL0     H33472   4.905   7.317   6.784 -2.5806  2.2473 -1.9261
  243MOL0     H33473   5.137   7.401   6.906 -1.1825  0.9186  0.2670
  243MOL0     H33474   5.013   7.432   7.033 -0.7263 -2.0593  1.3772
  243MOL0     H33475   5.077   7.173   6.903 -1.0715 -0.7478 -0.9473
  243MOL0     H33476   4.944   7.196   7.007  0.9876 -2.8324 -0.9311
  243MOL0     H33477   5.231   7.232   7.088  0.6516  1.6692  4.8725
  243MOL0     H33478   5.095   7.248   7.204  2.4850 -1.5636  2.6707
  243MOL0     H33479   5.195   7.037   7.256 -0.5862 -0.9158  0.2381
  243MOL0     H33480   5.215   6.988   7.092 -0.1340 -1.6494  2.2584
  243MOL0     H33481   4.973   6.964   7.059  2.3536  3.0389 -1.8593
  243MOL0     H33482   5.042   6.852   7.181 -3.8892  0.0055  2.6436
  243MOL0     H33483   5.061   6.966   7.449 -0.9790 -3.1757  0.2045
  243MOL0     H33484   4.976   7.110   7.635 -1.5601 -1.5141  1.5045
  243MOL0     H33485   4.794   7.129   7.643  0.0664  0.0830  0.4286
  243MOL0     H33486   4.819   7.339   7.491 -4.3997 -1.9808  3.6870
  243MOL0     H33487   4.853   7.348   7.660 -2.1140 -1.7434 -0.0126
  243MOL0     H33488   5.102   7.317   7.620  1.7424  0.3219 -0.8246
  243MOL0     H33489   5.073   7.319   7.443 -1.6153  2.1909 -1.3489
  243MOL0     H33490   5.133   7.532   7.529 -1.0981 -0.4722  1.1725
  243MOL0     H33491   4.969   7.530   7.468  0.8791 -2.1018 -1.6065
  243MOL0     H33492   5.033   7.747   7.470  1.7863 -0.7301  0.4382
  243MOL0     H33493   5.021   8.120   7.505 -4.5502  0.3988 -2.9882
  243MOL0     H33494   4.940   8.003   7.422 -0.8377  4.6331 -1.1756
  243MOL0     H33495   5.122   8.002   7.419 -0.1371 -1.8757  1.2001
  243MOL0     H33496   4.957   8.391   7.878  1.2190  2.3340 -2.5762
  243MOL0     H33497   5.039   8.588   8.005  2.1293  1.3894  0.2375
  243MOL0     H33498   5.214   8.732   8.042  1.8539 -0.0260  0.3307
  243MOL0     H33499   5.126   8.706   8.189  0.4547  1.1535  1.4212
  243MOL0     H33500   5.418   8.753   8.195 -0.4246  0.3711 -1.8051
  243MOL0     H33501   5.299   8.894   8.176 -3.1942 -0.0111  0.6483
  243MOL0     H33502   5.294   8.700   8.429 -2.0509 -1.0246 -0.7901
  243MOL0     H33503   5.187   8.834   8.390  0.4044  0.8035  2.5951
  243MOL0     H33504   5.393   8.994   8.372  2.5757 -1.0903 -1.9592
  243MOL0     H33505   5.471   8.867   8.458 -0.8287  0.6818 -0.4277
  243MOL0     H33506   5.242   9.013   8.580  0.4459  0.5574  2.4048
  243MOL0     H33507   5.285   8.842   8.621 -2.5554 -0.4875 -1.7253
  243MOL0     H33508   5.469   9.099   8.616 -2.8942  0.8601  0.0044
  243MOL0     H33509   5.531   8.936   8.656  0.5478  1.0236 -1.7490
  243MOL0     H33510   5.330   9.097   8.824 -0.6627 -0.3959 -0.6626
  243MOL0     H33511   5.491   9.051   8.878 -0.3249 -0.8552  1.9781
  243MOL0     H33512   5.418   8.815   8.863  0.8970  1.3629  2.6077
  243MOL0     H33513   5.258   8.874   8.815  1.5939 -3.2438 -1.6109
  243MOL0     H33514   5.360   8.343   8.157  2.1983  6.2569 -1.4773
  243MOL0     H33515   5.247   8.131   8.069  3.1074  0.7535 -1.9717
  243MOL0     H33516   4.955   7.904   7.943 -0.3239 -0.5718 -0.2701
  243MOL0     H33517   4.976   7.670   7.894  1.0781  0.3437 -0.5477
  243MOL0     H33518   5.193   7.782   7.066 -0.3095 -1.2307  1.3389
  243MOL0     H33519   5.220   8.005   7.169  1.3860  0.0436 -1.4076
  243MOL0     H33520   4.976   8.307   7.406 -2.6021  3.1252  2.0124
  243MOL0     H33521   5.023   8.449   7.599 -1.5303 -0.4534 -1.1986
  243MOL0     H33522   5.058   8.637   7.714 -0.5958  3.6397  0.1552
  243MOL0     H33523   5.228   8.605   7.770 -1.4557 -0.2373  2.0407
  243MOL0     H33524   5.080   8.809   7.844 -1.6450 -1.3690 -2.0812
  243MOL0     H33525   5.088   8.871   7.678  4.3606  1.1108 -2.5627
  243MOL0     H33526   5.327   8.832   7.854  1.5308  1.8865  1.2421
  243MOL0     H33527   5.318   8.892   7.687  0.2145 -3.1070 -0.0296
  243MOL0     H33528   5.133   9.022   7.889 -0.9801  3.0565 -0.9388
  243MOL0     H33529   5.220   9.089   7.747 -0.1989 -1.7222 -1.8184
  243MOL0     H33530   5.443   9.186   8.107 -0.6588  0.0869  0.0917
  243MOL0     H33531   5.298   8.665   7.348 -0.9990  0.3851 -0.9705
  243MOL0     H33532   5.266   8.456   7.044 -2.0049 -0.8455  2.3017
  243MOL0     H33533   5.297   8.630   7.099  1.2697  1.8150  5.3288
  243MOL0     H33534   5.410   8.513   7.122  0.1832  2.1986  0.2444
  244MOL0     O33535   5.572   2.875   1.925  0.2540 -0.0758 -0.1603
  244MOL0     C33536   5.547   2.799   1.829 -0.1276  0.1450 -1.1165
  244MOL0     O33537   5.612   2.686   1.813  0.2171  0.3884  0.1126
  244MOL0     C33538   5.695   2.640   1.916 -0.6557  0.2127  0.0847
  244MOL0     C33539   5.651   2.548   2.000 -0.5735 -0.4681  0.3222
  244MOL0     C33540   5.721   2.509   2.120  0.1910 -0.2474  0.7697
  244MOL0     C33541   5.849   2.561   2.137  0.0332 -0.2357  0.4623
  244MOL0     O33542   5.919   2.522   2.250  0.3372 -0.3017  0.2795
  244MOL0     C33543   6.061   2.532   2.256 -0.5022 -0.5815  0.2561
  244MOL0     C33544   6.092   2.675   2.305 -0.1455 -0.2005 -0.8576
  244MOL0     C33545   6.112   2.661   2.452  0.2902  0.1601 -0.1123
  244MOL0     C33546   6.160   2.790   2.503 -0.8640 -0.2274 -0.0734
  244MOL0     C33547   6.181   2.796   2.661 -0.1557 -0.5392  0.6177
  244MOL0     C33548   6.262   2.680   2.725 -0.4381  0.5147  0.1335
  244MOL0     C33549   6.412   2.693   2.684 -0.2521  0.3750 -0.3571
  244MOL0     C33550   6.480   2.568   2.721  0.1415 -0.7222  0.3280
  244MOL0     N33551   6.625   2.577   2.703 -0.0717 -0.3033  0.7331
  244MOL0     C33552   6.713   2.651   2.773  0.7020 -0.5267  0.6126
  244MOL0     C33553   6.834   2.616   2.715  0.2575 -0.8809  0.1020
  244MOL0     C33554   6.971   2.674   2.759 -0.7160 -0.2311  0.5521
  244MOL0     C33555   7.071   2.703   2.639 -0.5097  0.4264 -0.4478
  244MOL0     C33556   7.006   2.768   2.513 -0.6614 -0.5800 -0.7391
  244MOL0     C33557   7.096   2.800   2.395 -0.4549 -0.2188 -0.8335
  244MOL0     O33558   7.202   2.892   2.442 -0.1911  0.0380  0.0332
  244MOL0     C33559   7.173   3.011   2.501 -0.0438 -0.8616 -0.7110
  244MOL0     C33560   7.254   3.066   2.603 -0.7400  0.0182  0.2676
  244MOL0     C33561   7.238   3.192   2.655  1.4095 -0.3485  0.1193
  244MOL0     C33562   7.340   3.233   2.767  1.2267 -0.6549 -0.2877
  244MOL0     C33563   7.127   3.275   2.611  0.5663  0.5038 -0.1215
  244MOL0     C33564   7.074   3.397   2.684  0.8197  0.0473 -0.0888
  244MOL0     O33565   6.932   3.421   2.685 -0.2981  0.6828 -0.5288
  244MOL0     C33566   6.868   3.521   2.752  0.4834  0.2051 -0.7346
  244MOL0     C33567   6.929   3.594   2.856 -0.3081  0.6109 -0.2605
  244MOL0     C33568   6.873   3.705   2.911 -0.0114  0.3395  0.0484
  244MOL0     C33569   6.741   3.735   2.883  0.6824 -0.0434 -0.8348
  244MOL0     O33570   6.665   3.833   2.942 -0.6989 -0.1360  0.6629
  244MOL0     C33571   6.731   3.905   3.041  0.4170 -0.3679 -1.3199
  244MOL0     C33572   6.619   3.969   3.128  0.8817 -1.4370  0.1052
  244MOL0     C33573   6.690   4.078   3.217  0.0676  0.1227 -0.0830
  244MOL0     C33574   6.610   4.131   3.334  0.6889  0.2351  0.0547
  244MOL0     C33575   6.542   4.265   3.307 -0.1127  1.1003  0.5269
  244MOL0     C33576   6.642   4.377   3.319  0.2665 -0.5440  0.5335
  244MOL0     C33577   6.687   4.412   3.467  0.5282 -0.3027 -0.1000
  244MOL0     C33578   6.583   4.428   3.569 -0.2446 -0.7857  0.2575
  244MOL0    Cl33579   6.486   4.567   3.497 -0.0961 -0.1772  0.0300
  244MOL0     C33580   6.675   3.660   2.784  0.4859 -0.7081 -0.3352
  244MOL0     C33581   6.742   3.558   2.723  0.7631  0.8720 -0.5883
  244MOL0     O33582   7.158   3.468   2.730 -0.4888  0.4236  0.4668
  244MOL0     C33583   7.038   3.224   2.512 -0.3146 -0.4453 -0.7676
  244MOL0     C33584   7.061   3.088   2.461  0.7903 -0.6336  0.1849
  244MOL0     N33585   6.817   2.529   2.614 -0.5182  0.6795  0.1383
  244MOL0     N33586   6.687   2.501   2.608 -0.0989  0.2766  0.6598
  244MOL0     C33587   5.910   2.642   2.037  0.6149 -0.5531  0.4970
  244MOL0     C33588   5.829   2.682   1.924  0.3367  0.4235 -0.4247
  244MOL0     C33589   5.433   2.838   1.734 -0.6251  0.0358 -0.0130
  244MOL0     C33590   5.391   2.734   1.650 -0.6042 -1.1511  0.7770
  244MOL0     C33591   5.299   2.767   1.551  0.2896 -0.7161 -0.3043
  244MOL0     C33592   5.239   2.897   1.538  0.5923  0.1365 -0.5358
  244MOL0     O33593   5.144   2.913   1.434  0.5957 -1.1682  0.1690
  244MOL0     C33594   5.083   3.043   1.414 -0.2017  0.1198 -0.2532
  244MOL0     C33595   4.995   3.059   1.287  1.2299  0.3670 -0.2717
  244MOL0     C33596   4.901   2.924   1.275  0.4449 -0.4511 -0.2169
  244MOL0     C33597   4.792   2.953   1.167 -1.0053  0.5743  0.3992
  244MOL0     C33598   4.764   2.820   1.111 -0.2373  0.4935  0.0481
  244MOL0     C33599   4.743   2.704   1.069  0.6971  0.4412  0.7743
  244MOL0     C33600   5.259   2.980   1.643 -0.2904 -0.1174  0.2547
  244MOL0     C33601   5.360   2.963   1.736 -0.1815 -0.1680 -0.7633
  244MOL0     C33602   5.389   3.084   1.826 -0.1332 -0.1403  0.0237
  244MOL0     H33603   5.546   2.521   1.996 -1.0255  1.1283  0.8355
  244MOL0     H33604   5.677   2.441   2.193 -0.8829 -2.1893 -1.5288
  244MOL0     H33605   6.111   2.516   2.159 -2.0648 -0.3728 -0.6200
  244MOL0     H33606   6.105   2.456   2.321  2.9847  0.1556 -0.9640
  244MOL0     H33607   6.175   2.711   2.245 -0.0240 -0.3234 -0.7655
  244MOL0     H33608   6.010   2.740   2.275  1.7553  1.9766 -1.5916
  244MOL0     H33609   6.019   2.644   2.508 -0.1098  3.2185  0.3795
  244MOL0     H33610   6.181   2.578   2.467 -1.2932 -1.1502  0.1978
  244MOL0     H33611   6.252   2.820   2.453  0.0524 -2.4537  0.1628
  244MOL0     H33612   6.085   2.863   2.473  0.3949  2.4262  2.7650
  244MOL0     H33613   6.081   2.803   2.704  1.4984  0.7391  4.8530
  244MOL0     H33614   6.241   2.886   2.674  2.6361 -1.9408 -1.4315
  244MOL0     H33615   6.268   2.701   2.832  0.8423 -2.5630  0.7917
  244MOL0     H33616   6.211   2.589   2.694 -1.3205  1.8883 -2.7512
  244MOL0     H33617   6.459   2.780   2.732  2.2778 -2.1775  2.1870
  244MOL0     H33618   6.428   2.708   2.576 -0.1502  1.9490 -0.1455
  244MOL0     H33619   6.457   2.541   2.824 -3.5326  0.4627 -0.0398
  244MOL0     H33620   6.438   2.482   2.670  2.5020 -2.7171  1.5163
  244MOL0     H33621   6.687   2.723   2.849 -0.6633  2.2073 -2.2526
  244MOL0     H33622   7.031   2.621   2.833  3.7402  1.8925 -1.1378
  244MOL0     H33623   6.958   2.777   2.795  0.8867  0.7819 -1.4982
  244MOL0     H33624   7.143   2.774   2.680 -1.5670  0.2638  1.8460
  244MOL0     H33625   7.113   2.606   2.611 -2.0577 -0.1199 -0.9982
  244MOL0     H33626   6.940   2.691   2.473  0.9341 -2.8799  0.7987
  244MOL0     H33627   6.941   2.849   2.546  0.3171 -0.8573  2.1646
  244MOL0     H33628   7.138   2.706   2.356 -3.3139 -1.8344 -0.2556
  244MOL0     H33629   7.045   2.841   2.308 -0.6336 -2.5140 -1.8771
  244MOL0     H33630   7.344   3.015   2.636  0.4414  1.5085 -0.5049
  244MOL0     H33631   7.300   3.311   2.833  1.1582  0.7014 -1.8538
  244MOL0     H33632   7.429   3.276   2.720  1.3079  1.9604  1.9467
  244MOL0     H33633   7.372   3.141   2.818 -0.3412 -0.2721  1.5296
  244MOL0     H33634   7.021   3.573   2.910 -0.8827  1.8437  1.2639
  244MOL0     H33635   6.938   3.761   2.977 -0.0403  0.0353  0.3401
  244MOL0     H33636   6.791   3.842   3.108  2.2945  1.5937 -1.0537
  244MOL0     H33637   6.793   3.985   3.001  1.9442 -0.0588  1.4093
  244MOL0     H33638   6.544   4.015   3.063  0.2889 -1.1576  0.9680
  244MOL0     H33639   6.575   3.894   3.195 -1.0658 -0.9881 -0.6088
  244MOL0     H33640   6.712   4.154   3.142 -1.1982 -0.4051 -1.0399
  244MOL0     H33641   6.791   4.049   3.247 -0.3188 -0.3633  0.7782
  244MOL0     H33642   6.680   4.138   3.417  2.1461 -1.3959 -0.9694
  244MOL0     H33643   6.529   4.061   3.358  0.5727  0.8536  1.6307
  244MOL0     H33644   6.493   4.262   3.209 -0.7698 -0.0009  0.8818
  244MOL0     H33645   6.462   4.275   3.380  0.4558  2.0928  1.0506
  244MOL0     H33646   6.598   4.468   3.278 -1.5338 -2.5863 -2.4200
  244MOL0     H33647   6.734   4.363   3.262  0.9871 -0.0936  1.5517
  244MOL0     H33648   6.748   4.503   3.469  0.3318 -0.0353 -2.9644
  244MOL0     H33649   6.751   4.325   3.488  0.3295 -0.4195  0.0258
  244MOL0     H33650   6.624   4.468   3.663  0.4828 -0.3327 -0.2461
  244MOL0     H33651   6.533   4.331   3.582 -1.5513 -0.5924 -2.5956
  244MOL0     H33652   6.574   3.681   2.752  0.1117 -0.3120  1.0197
  244MOL0     H33653   6.691   3.510   2.639 -2.0164  0.9945  0.9012
  244MOL0     H33654   6.953   3.278   2.472 -0.5893 -0.2336  0.0806
  244MOL0     H33655   6.995   3.049   2.384  0.2912 -0.5968  0.5901
  244MOL0     H33656   6.012   2.676   2.028  0.3417  0.0900 -0.3204
  244MOL0     H33657   5.872   2.765   1.868  0.4673  1.3779  1.0456
  244MOL0     H33658   5.432   2.634   1.643  1.0591 -0.3802 -2.4989
  244MOL0     H33659   5.249   2.698   1.484 -2.2335 -1.1250  1.7989
  244MOL0     H33660   5.014   3.064   1.496  2.0316  2.0623  1.2497
  244MOL0     H33661   5.156   3.124   1.407 -0.0835 -0.0027 -6.2933
  244MOL0     H33662   5.059   3.077   1.200  2.0397  1.2911  0.4740
  244MOL0     H33663   4.932   3.146   1.305 -0.0679 -1.0405  2.6302
  244MOL0     H33664   4.965   2.842   1.243 -0.5922 -1.6090  0.5694
  244MOL0     H33665   4.859   2.900   1.373 -3.4500  1.1532 -1.2941
  244MOL0     H33666   4.827   3.015   1.085  0.4124  0.6060  0.9936
  244MOL0     H33667   4.701   3.004   1.202 -2.3048  1.8508 -4.1588
  244MOL0     H33668   4.712   2.604   1.045  0.0666  0.8661 -0.2673
  244MOL0     H33669   5.190   3.064   1.647 -1.2676 -0.9373  0.9307
  244MOL0     H33670   5.494   3.097   1.854 -1.0819  1.0569  3.5053
  244MOL0     H33671   5.365   3.175   1.770  2.5006 -0.6010 -2.0221
  244MOL0     H33672   5.327   3.061   1.914  2.2057 -3.3806  1.0193
  245MOL0     O33673  11.397   7.932   2.916  0.0349 -0.9817  0.2389
  245MOL0     C33674  11.285   7.954   2.879  0.5487  0.4845 -0.4006
  245MOL0     O33675  11.221   7.883   2.790  0.5511  0.9051  0.1689
  245MOL0     C33676  11.260   7.755   2.751 -0.8180 -0.8160 -0.2762
  245MOL0     C33677  11.197   7.706   2.639 -0.5091  0.4346 -0.3787
  245MOL0     C33678  11.226   7.571   2.609  0.3880  0.2147 -1.3807
  245MOL0     C33679  11.325   7.487   2.666  0.0085 -0.5213  0.2239
  245MOL0     O33680  11.329   7.361   2.620  0.0932  0.3863 -0.7391
  245MOL0     C33681  11.391   7.245   2.697  0.2924 -0.9360 -0.0353
  245MOL0     C33682  11.338   7.106   2.640  0.3026 -0.2304 -0.5802
  245MOL0     C33683  11.427   7.054   2.526 -0.0467 -0.4806 -0.1247
  245MOL0     C33684  11.367   6.928   2.465  0.3446  0.7707 -0.9480
  245MOL0     C33685  11.429   6.882   2.340 -0.1475  0.0753  0.8328
  245MOL0     C33686  11.345   6.779   2.271  0.0978  0.2961  0.1007
  245MOL0     C33687  11.341   6.651   2.354 -0.6860 -1.0145 -0.1171
  245MOL0     C33688  11.328   6.521   2.283  0.3397  0.2589  0.4791
  245MOL0     N33689  11.218   6.499   2.175  0.0479  0.3170  0.3427
  245MOL0     C33690  11.102   6.561   2.168 -0.5156 -0.7727 -0.1594
  245MOL0     C33691  11.056   6.533   2.045 -0.1130 -0.1437  0.2431
  245MOL0     C33692  10.924   6.583   1.992 -0.2801 -0.4904  0.0575
  245MOL0     C33693  10.807   6.510   2.056 -0.1186 -0.4755  0.9142
  245MOL0     C33694  10.795   6.537   2.209  0.2419  0.0103  0.0935
  245MOL0     C33695  10.660   6.504   2.268 -0.0410 -0.1379  0.7237
  245MOL0     O33696  10.569   6.585   2.186 -0.2554  0.9119 -0.9790
  245MOL0     C33697  10.437   6.555   2.195 -0.2078  0.3063 -0.7917
  245MOL0     C33698  10.355   6.639   2.123  0.9748  0.2344 -0.3845
  245MOL0     C33699  10.212   6.627   2.139  0.3547 -0.0424  0.5826
  245MOL0     C33700  10.130   6.714   2.035 -1.3977  0.7553 -0.7280
  245MOL0     C33701  10.145   6.534   2.218  0.1277  0.0078  0.3927
  245MOL0     C33702   9.998   6.527   2.238  0.7708 -0.1596  0.2977
  245MOL0     O33703   9.954   6.431   2.320  0.1087 -0.7123  0.5242
  245MOL0     C33704   9.827   6.419   2.363 -0.1792  0.2208 -0.4398
  245MOL0     C33705   9.819   6.328   2.469  0.8558  0.8124  0.2427
  245MOL0     C33706   9.705   6.297   2.546  0.1937  0.3897  0.4685
  245MOL0     C33707   9.578   6.337   2.494 -1.0455  0.2035  0.5181
  245MOL0     O33708   9.450   6.302   2.537  0.4025 -0.5882 -0.0817
  245MOL0     C33709   9.454   6.233   2.661  0.6260 -0.2534 -0.0274
  245MOL0     C33710   9.308   6.256   2.720 -0.1679  0.4414  0.9789
  245MOL0     C33711   9.298   6.185   2.856 -0.3684 -0.3333  0.1015
  245MOL0     C33712   9.343   6.264   2.975  0.4980 -0.3746 -0.5835
  245MOL0     C33713   9.241   6.367   3.019 -0.8014 -0.5338 -0.3391
  245MOL0     C33714   9.303   6.470   3.119  1.0546  0.5784  0.2652
  245MOL0     C33715   9.186   6.516   3.207  0.5240  0.1681  0.5690
  245MOL0     C33716   9.233   6.605   3.323 -0.0973 -0.0610 -0.1622
  245MOL0    Cl33717   9.297   6.760   3.257  0.1563  0.2708 -0.7171
  245MOL0     C33718   9.583   6.428   2.386 -0.7825  0.3878  0.3242
  245MOL0     C33719   9.703   6.471   2.323 -0.9775  0.9331  0.2466
  245MOL0     O33720   9.924   6.601   2.177  0.0789 -0.7837  0.2900
  245MOL0     C33721  10.236   6.450   2.288 -0.4906  0.2162 -0.8828
  245MOL0     C33722  10.379   6.465   2.286  0.7834  0.1629 -0.1839
  245MOL0     N33723  11.139   6.438   1.980  0.1733 -0.3067 -0.0112
  245MOL0     N33724  11.237   6.416   2.060  1.0143 -1.0913 -0.0594
  245MOL0     C33725  11.404   7.552   2.765 -0.3829  0.3455  0.1493
  245MOL0     C33726  11.368   7.679   2.813 -0.6388  1.1418 -0.7034
  245MOL0     C33727  11.198   8.055   2.936 -0.1113  0.2268 -0.5597
  245MOL0     C33728  11.117   8.139   2.854 -0.2720 -0.0343  0.3867
  245MOL0     C33729  11.034   8.240   2.899 -0.5767  0.3780 -0.7218
  245MOL0     C33730  11.036   8.268   3.035 -0.0913  0.4514 -0.3116
  245MOL0     O33731  10.961   8.375   3.072  0.0479  0.2616  0.1544
  245MOL0     C33732  11.018   8.469   3.162 -0.5335 -0.0698  0.2020
  245MOL0     C33733  11.156   8.511   3.113 -0.0166 -0.5211 -0.9126
  245MOL0     C33734  11.137   8.582   2.980  0.4486 -0.6679  0.1536
  245MOL0     C33735  11.267   8.639   2.917  0.3901 -0.7061 -0.9985
  245MOL0     C33736  11.306   8.766   2.977 -1.1480  0.1577 -0.4995
  245MOL0     C33737  11.345   8.870   3.022  0.4752  0.5290  0.6419
  245MOL0     C33738  11.103   8.175   3.125  0.2184 -0.1373  0.7510
  245MOL0     C33739  11.185   8.071   3.081  0.3685  0.7623  1.0163
  245MOL0     C33740  11.245   7.974   3.179  0.1941 -0.0031 -0.6026
  245MOL0     H33741  11.125   7.765   2.582 -0.3360  1.6531  0.6155
  245MOL0     H33742  11.166   7.519   2.534  0.7490  1.0279 -2.2580
  245MOL0     H33743  11.366   7.239   2.803  0.9825 -2.9474  0.0674
  245MOL0     H33744  11.500   7.244   2.697  0.3141 -0.7105 -1.4781
  245MOL0     H33745  11.341   7.031   2.720 -1.5427  0.8102  0.5318
  245MOL0     H33746  11.237   7.117   2.600  0.5338 -0.5641 -1.2645
  245MOL0     H33747  11.439   7.124   2.442 -0.9639 -1.5296 -1.1755
  245MOL0     H33748  11.528   7.037   2.563 -0.2119  1.9411  1.6624
  245MOL0     H33749  11.378   6.844   2.536  1.3201 -0.4798 -2.5119
  245MOL0     H33750  11.265   6.961   2.449  0.2747  0.6651 -0.7296
  245MOL0     H33751  11.532   6.848   2.350 -0.4237 -0.5138  1.7773
  245MOL0     H33752  11.430   6.969   2.273  0.7982 -0.1175  0.5867
  245MOL0     H33753  11.243   6.813   2.253  1.3078  3.3767 -1.5335
  245MOL0     H33754  11.390   6.765   2.172 -2.7330  0.5327 -1.3106
  245MOL0     H33755  11.265   6.664   2.431 -0.4660  0.4300 -0.1173
  245MOL0     H33756  11.431   6.639   2.415 -2.1744 -0.9181  2.2326
  245MOL0     H33757  11.425   6.516   2.231  0.3630 -0.3172  0.5807
  245MOL0     H33758  11.322   6.448   2.364 -2.9661 -1.8031 -1.4380
  245MOL0     H33759  11.063   6.626   2.246 -1.9443  1.5901 -2.6585
  245MOL0     H33760  10.922   6.577   1.883  0.2472  1.8587 -0.1193
  245MOL0     H33761  10.904   6.688   2.017 -0.3740 -0.2906 -0.8258
  245MOL0     H33762  10.721   6.537   1.993  1.0514 -1.4402 -1.2306
  245MOL0     H33763  10.823   6.405   2.030 -0.3782  0.1339 -2.1018
  245MOL0     H33764  10.873   6.480   2.259  3.0138  1.2094 -2.5213
  245MOL0     H33765  10.820   6.641   2.232 -2.5227  1.0606 -1.2083
  245MOL0     H33766  10.646   6.396   2.266 -0.6300 -0.0804 -1.7797
  245MOL0     H33767  10.648   6.539   2.371 -2.5240 -0.1606  0.5216
  245MOL0     H33768  10.407   6.720   2.073  1.6615  0.4069  0.5757
  245MOL0     H33769  10.062   6.643   1.987 -1.2117 -0.1331  0.2800
  245MOL0     H33770  10.203   6.758   1.967 -2.3600  0.3219 -2.0745
  245MOL0     H33771  10.074   6.790   2.091 -1.5141 -0.0620  0.3045
  245MOL0     H33772   9.912   6.275   2.489  1.2773  0.9557 -1.1784
  245MOL0     H33773   9.711   6.234   2.633 -0.9616  0.9757  0.9859
  245MOL0     H33774   9.477   6.127   2.657 -2.5037 -1.1977  2.5036
  245MOL0     H33775   9.525   6.266   2.738  1.8740  0.1554 -1.3155
  245MOL0     H33776   9.286   6.363   2.715  1.3888  0.7291 -1.1455
  245MOL0     H33777   9.230   6.209   2.659 -0.7364  0.4339  1.6955
  245MOL0     H33778   9.353   6.090   2.851 -0.9037 -0.6126 -0.9015
  245MOL0     H33779   9.192   6.168   2.875 -1.4973  0.7385 -4.0492
  245MOL0     H33780   9.437   6.313   2.947  0.6980  0.7619  1.8378
  245MOL0     H33781   9.358   6.204   3.064  0.0204  0.9585  0.4294
  245MOL0     H33782   9.201   6.424   2.934 -1.3040  1.1505  0.9622
  245MOL0     H33783   9.166   6.299   3.060  3.8334 -6.0307  0.2275
  245MOL0     H33784   9.345   6.553   3.061 -2.8796  1.5023 -1.5512
  245MOL0     H33785   9.374   6.412   3.179 -0.5743 -0.0509  1.6430
  245MOL0     H33786   9.127   6.436   3.253 -0.8733  1.4657  1.1086
  245MOL0     H33787   9.127   6.574   3.136 -0.2429  3.1450  3.3853
  245MOL0     H33788   9.303   6.557   3.391 -0.8870  2.4367  2.6065
  245MOL0     H33789   9.144   6.625   3.384  0.1814 -1.3771  0.7215
  245MOL0     H33790   9.491   6.479   2.358 -1.3653 -0.7738  0.0696
  245MOL0     H33791   9.686   6.540   2.241  0.2804  0.5445 -0.3628
  245MOL0     H33792  10.207   6.378   2.364  4.8836 -0.8032  0.6160
  245MOL0     H33793  10.430   6.406   2.362 -0.1616  1.6895  1.7384
  245MOL0     H33794  11.480   7.500   2.822 -2.4601  0.9397  3.7674
  245MOL0     H33795  11.419   7.714   2.902 -2.6725 -0.0384  1.0391
  245MOL0     H33796  11.128   8.110   2.749 -1.7523  1.0265 -0.0874
  245MOL0     H33797  10.981   8.308   2.833  1.4925  3.4046  0.5062
  245MOL0     H33798  10.945   8.550   3.159 -0.1428  0.2675 -2.3329
  245MOL0     H33799  11.022   8.451   3.270 -1.8023  0.4952  0.3592
  245MOL0     H33800  11.233   8.433   3.116  1.7422  1.1943  1.5412
  245MOL0     H33801  11.197   8.586   3.181 -2.2546 -1.5583  1.7537
  245MOL0     H33802  11.088   8.520   2.905  0.8127  0.4250 -1.0320
  245MOL0     H33803  11.078   8.673   2.996  4.6993  2.4893 -0.1223
  245MOL0     H33804  11.257   8.666   2.811  1.1494  0.1411 -0.8573
  245MOL0     H33805  11.344   8.563   2.930  0.4472 -0.3377  1.0800
  245MOL0     H33806  11.372   8.970   3.051  0.3146  1.9202 -3.3724
  245MOL0     H33807  11.073   8.198   3.227 -2.2098 -1.1937  0.3456
  245MOL0     H33808  11.183   7.946   3.264 -1.4831  3.0856 -0.6742
  245MOL0     H33809  11.281   7.882   3.133  3.0899 -0.2573  1.8559
  245MOL0     H33810  11.332   8.011   3.233 -2.4624  1.6569  2.9552
  246MOL0     O33811   4.814   5.076  10.024  0.8599  0.0542  0.6434
  246MOL0     C33812   4.928   5.043   9.997 -0.7701 -0.9171 -0.8337
  246MOL0     O33813   4.969   4.922   9.947 -0.6282  0.1662  0.6329
  246MOL0     C33814   4.885   4.837   9.877  0.5345 -0.2570  0.1504
  246MOL0     C33815   4.812   4.884   9.774 -0.1331 -0.3161 -0.4558
  246MOL0     C33816   4.728   4.795   9.706  0.8664 -0.4947  0.1362
  246MOL0     C33817   4.719   4.662   9.728 -0.4831 -0.1564 -0.2399
  246MOL0     O33818   4.619   4.593   9.659  0.1263 -0.3955 -0.5746
  246MOL0     C33819   4.620   4.450   9.672  0.2715 -0.5241 -0.1032
  246MOL0     C33820   4.523   4.391   9.571 -0.5923 -0.1694 -1.1555
  246MOL0     C33821   4.383   4.453   9.566 -0.2119 -0.3066 -0.0317
  246MOL0     C33822   4.349   4.532   9.442  0.1100  0.4654 -0.4940
  246MOL0     C33823   4.205   4.592   9.447 -0.3627  0.0368  0.2576
  246MOL0     C33824   4.176   4.703   9.340 -0.5251 -0.0631  0.0981
  246MOL0     C33825   4.035   4.713   9.292 -0.1397 -0.7158 -0.2496
  246MOL0     C33826   4.001   4.605   9.194 -0.0420 -0.4282  0.6631
  246MOL0     N33827   4.005   4.642   9.057 -0.0327  0.4530  0.0093
  246MOL0     C33828   3.898   4.677   8.979 -0.8102  0.2426 -0.5057
  246MOL0     C33829   3.957   4.735   8.874 -0.8523 -0.6164 -0.3117
  246MOL0     C33830   3.877   4.796   8.758 -1.4304  0.5591  0.2268
  246MOL0     C33831   3.841   4.699   8.649  0.4212  0.6198  0.1428
  246MOL0     C33832   3.957   4.597   8.609  0.1274  0.9440  0.2915
  246MOL0     C33833   3.937   4.549   8.464 -0.7034 -0.1870 -0.6144
  246MOL0     O33834   3.933   4.652   8.370 -0.8355  1.1478 -0.1673
  246MOL0     C33835   3.847   4.634   8.270  0.1326  0.7372 -0.4413
  246MOL0     C33836   3.741   4.713   8.250 -0.0294 -0.5508 -1.5080
  246MOL0     C33837   3.657   4.714   8.135  0.2528 -0.8760 -0.5363
  246MOL0     C33838   3.581   4.844   8.111 -0.4340  0.0539  0.2206
  246MOL0     C33839   3.653   4.592   8.061  0.4152 -0.7484 -0.7548
  246MOL0     C33840   3.546   4.568   7.961  0.8724 -0.1088  1.2719
  246MOL0     O33841   3.557   4.438   7.898  0.3451  0.5794 -0.2333
  246MOL0     C33842   3.474   4.418   7.789  0.4540 -0.0748 -0.5080
  246MOL0     C33843   3.355   4.358   7.808  0.4666  1.0671  0.1800
  246MOL0     C33844   3.263   4.343   7.702  0.2032  0.3054  0.1755
  246MOL0     C33845   3.306   4.371   7.571 -0.0954  0.2227 -0.0925
  246MOL0     O33846   3.232   4.363   7.458 -1.2060 -0.1083 -0.3543
  246MOL0     C33847   3.100   4.311   7.477 -0.2189 -0.4866  0.2805
  246MOL0     C33848   3.031   4.300   7.339  0.1121  1.0243  0.7383
  246MOL0     C33849   2.897   4.212   7.350  0.1439  0.7473 -0.7394
  246MOL0     C33850   2.792   4.252   7.256 -0.1933  0.1226 -0.0702
  246MOL0     C33851   2.672   4.167   7.269  0.2234  0.3805 -0.3162
  246MOL0     C33852   2.589   4.180   7.144 -0.1183  1.1513 -0.3921
  246MOL0     C33853   2.475   4.074   7.147 -0.4950  0.2549  1.0287
  246MOL0     C33854   2.531   3.933   7.111  0.4592 -0.9947 -0.1401
  246MOL0    Cl33855   2.420   3.806   7.133  0.4824  0.2230 -0.6561
  246MOL0     C33856   3.435   4.406   7.552 -0.2821 -0.1838 -0.3742
  246MOL0     C33857   3.518   4.431   7.660  0.1343  0.6144 -0.9969
  246MOL0     O33858   3.445   4.640   7.954  0.0820 -0.3661  0.1120
  246MOL0     C33859   3.759   4.504   8.090 -0.6731  0.5103  0.2480
  246MOL0     C33860   3.853   4.517   8.195  0.8729 -0.8939 -0.2243
  246MOL0     N33861   4.093   4.720   8.879  0.1791 -0.3485  0.4843
  246MOL0     N33862   4.119   4.676   8.997 -0.7547 -0.4787 -0.0177
  246MOL0     C33863   4.804   4.607   9.827 -0.1519  0.1842 -0.1257
  246MOL0     C33864   4.879   4.698   9.902 -0.2523  0.4775  0.9683
  246MOL0     C33865   5.035   5.150  10.016 -0.0741 -1.3990  0.7390
  246MOL0     C33866   4.994   5.284  10.049  0.5611 -0.4523 -0.8548
  246MOL0     C33867   5.090   5.391  10.064 -0.3950 -0.5931 -0.0818
  246MOL0     C33868   5.217   5.379  10.023 -0.6513  0.3583  0.3088
  246MOL0     O33869   5.301   5.482  10.030 -0.3280  0.8683 -0.1588
  246MOL0     C33870   5.446   5.474  10.035 -0.6252  0.4308  0.2666
  246MOL0     C33871   5.510   5.469   9.894  0.3538  0.6351  0.3464
  246MOL0     C33872   5.466   5.557   9.787 -0.2344  0.3329  0.0703
  246MOL0     C33873   5.565   5.567   9.674 -0.5872  1.1580  1.0388
  246MOL0     C33874   5.515   5.637   9.555 -0.3087  0.5783  0.5562
  246MOL0     C33875   5.468   5.664   9.445 -0.4457  0.6001  0.2921
  246MOL0     C33876   5.260   5.249   9.984 -0.0323  0.7661 -1.4689
  246MOL0     C33877   5.166   5.134   9.984 -0.0590 -1.1209 -0.0361
  246MOL0     C33878   5.242   5.010   9.952  0.1543  0.4983 -0.1143
  246MOL0     H33879   4.812   4.992   9.763 -0.5729 -0.0036  2.0301
  246MOL0     H33880   4.672   4.840   9.624 -0.5828 -2.2403  0.1169
  246MOL0     H33881   4.586   4.423   9.773 -0.4198 -2.9288 -0.9124
  246MOL0     H33882   4.725   4.422   9.654  0.2590 -1.0110  0.5094
  246MOL0     H33883   4.567   4.390   9.471 -1.4751  2.3216 -1.6393
  246MOL0     H33884   4.508   4.289   9.606 -1.3774  1.3201  3.5320
  246MOL0     H33885   4.309   4.374   9.582 -2.8992  1.8975 -0.6736
  246MOL0     H33886   4.389   4.528   9.645 -2.9717 -0.1952  0.1768
  246MOL0     H33887   4.425   4.609   9.428  1.1190  0.1466  2.6310
  246MOL0     H33888   4.351   4.465   9.355 -2.3754 -1.7851  1.0273
  246MOL0     H33889   4.184   4.645   9.541 -0.8238 -1.0924  0.8031
  246MOL0     H33890   4.138   4.505   9.443  2.0365 -1.9938  1.4993
  246MOL0     H33891   4.192   4.797   9.393  0.5611 -0.4673  0.5223
  246MOL0     H33892   4.240   4.691   9.251 -2.2099 -3.0775 -0.8760
  246MOL0     H33893   4.012   4.815   9.261 -2.5368 -0.6221  1.5696
  246MOL0     H33894   3.972   4.702   9.380 -0.4473  2.2007 -0.0100
  246MOL0     H33895   4.072   4.523   9.205  1.8144  1.0594  0.4274
  246MOL0     H33896   3.897   4.576   9.210 -1.3223  0.8220 -3.7969
  246MOL0     H33897   3.794   4.648   8.992 -1.2329  1.9492  0.1959
  246MOL0     H33898   3.926   4.882   8.712 -0.9082  0.9035  1.3821
  246MOL0     H33899   3.781   4.834   8.793 -1.9125  0.4615 -0.9424
  246MOL0     H33900   3.754   4.640   8.679 -1.2581  1.7201 -2.2025
  246MOL0     H33901   3.816   4.754   8.558 -1.0818 -0.2573  0.0080
  246MOL0     H33902   4.055   4.644   8.619 -1.0602  3.3459  1.4313
  246MOL0     H33903   3.955   4.518   8.685  2.9566  0.9811  0.4928
  246MOL0     H33904   4.022   4.487   8.436  1.4693  2.5222 -0.4182
  246MOL0     H33905   3.855   4.476   8.466 -0.0601 -0.9459  1.7394
  246MOL0     H33906   3.742   4.804   8.309  3.3300  0.7834 -3.3825
  246MOL0     H33907   3.579   4.912   8.197 -0.8387  0.1189  0.1600
  246MOL0     H33908   3.478   4.821   8.083  0.1762 -3.2429  0.3083
  246MOL0     H33909   3.629   4.902   8.032 -0.6608 -0.0374  0.0175
  246MOL0     H33910   3.321   4.338   7.909 -0.4979 -2.1332 -0.6523
  246MOL0     H33911   3.160   4.320   7.725  0.2936 -2.9941 -2.0615
  246MOL0     H33912   3.100   4.215   7.530  1.8722 -1.3539 -1.1903
  246MOL0     H33913   3.041   4.389   7.526 -2.5464 -1.4318 -0.8154
  246MOL0     H33914   3.015   4.405   7.313  1.6685  0.9521 -0.6635
  246MOL0     H33915   3.098   4.250   7.268 -2.9390 -3.1896  0.4733
  246MOL0     H33916   2.863   4.204   7.454  2.6931 -0.6913  0.0832
  246MOL0     H33917   2.934   4.112   7.327 -0.6836  0.3103 -0.2428
  246MOL0     H33918   2.838   4.243   7.157  1.5659  0.4939  0.6604
  246MOL0     H33919   2.775   4.358   7.280  2.5933  0.3793  1.1549
  246MOL0     H33920   2.699   4.061   7.273 -1.1504 -0.0857 -2.3321
  246MOL0     H33921   2.607   4.204   7.349  0.9063  2.5214 -0.6935
  246MOL0     H33922   2.650   4.161   7.055 -1.7179  0.1475 -1.3103
  246MOL0     H33923   2.558   4.284   7.129 -3.6925  0.1913 -0.5159
  246MOL0     H33924   2.400   4.101   7.073 -1.4682 -2.7002  0.8281
  246MOL0     H33925   2.419   4.079   7.241 -2.5694 -1.0303 -0.0679
  246MOL0     H33926   2.610   3.905   7.182 -1.3356  0.1832  2.4991
  246MOL0     H33927   2.558   3.933   7.005 -0.9095  0.4511 -0.5291
  246MOL0     H33928   3.470   4.401   7.449  2.1327 -0.3316  0.3879
  246MOL0     H33929   3.618   4.468   7.638  0.5190  1.6543  2.0318
  246MOL0     H33930   3.756   4.409   8.038  0.6922 -0.1070  1.2044
  246MOL0     H33931   3.914   4.431   8.222 -0.6407 -2.4932 -1.6424
  246MOL0     H33932   4.803   4.501   9.853  4.5300  0.1696  0.9747
  246MOL0     H33933   4.946   4.651   9.974  1.7530 -1.8606 -2.1697
  246MOL0     H33934   4.890   5.312  10.064  0.6738 -0.0166 -0.8780
  246MOL0     H33935   5.054   5.490  10.087 -3.1613 -1.4967 -0.1492
  246MOL0     H33936   5.476   5.573  10.070  0.3937  1.4392 -3.1420
  246MOL0     H33937   5.491   5.396  10.098  1.2359  0.8469 -0.4844
  246MOL0     H33938   5.497   5.370   9.849 -0.4907  1.6259 -1.6876
  246MOL0     H33939   5.617   5.479   9.913  0.9366 -1.7510 -1.2486
  246MOL0     H33940   5.374   5.513   9.748  0.8881 -3.2989  1.1495
  246MOL0     H33941   5.456   5.661   9.820  2.0281  0.3790  0.7508
  246MOL0     H33942   5.614   5.471   9.658 -2.1390 -0.0085  2.8015
  246MOL0     H33943   5.654   5.625   9.699  2.0537 -1.1592 -2.0189
  246MOL0     H33944   5.426   5.698   9.353 -1.2561 -2.0848 -0.4282
  246MOL0     H33945   5.362   5.222   9.961  1.1076  0.9668  2.5342
  246MOL0     H33946   5.207   4.921  10.005  0.6320 -0.6073 -1.5779
  246MOL0     H33947   5.236   5.003   9.843  1.6265 -1.3856 -0.1192
  246MOL0     H33948   5.347   5.019   9.980  0.3314  0.1994 -0.6585
  247MOL0     O33949  11.000   0.155   6.664 -0.0070  0.1792  0.3047
  247MOL0     C33950  11.040   0.063   6.600 -0.8784  0.1931  0.3088
  247MOL0     O33951  11.053  -0.060   6.649  1.0377 -0.4550  0.3033
  247MOL0     C33952  10.990  -0.094   6.769 -1.1065 -0.3898 -0.0715
  247MOL0     C33953  10.981  -0.016   6.887 -0.3364  0.0082  0.8333
  247MOL0     C33954  10.927  -0.078   7.000  0.0875  0.1675  0.1019
  247MOL0     C33955  10.889  -0.211   7.004  0.0982 -0.2265  0.2018
  247MOL0     O33956  10.829  -0.257   7.117 -0.4763  0.3036  0.0765
  247MOL0     C33957  10.883  -0.380   7.172 -0.3153  0.4687 -0.3949
  247MOL0     C33958  10.862  -0.380   7.326 -0.4385 -0.0097 -0.3466
  247MOL0     C33959  10.714  -0.382   7.362 -0.3329 -0.2447 -0.4181
  247MOL0     C33960  10.687  -0.462   7.488 -0.0808 -1.3403  0.1426
  247MOL0     C33961  10.591  -0.580   7.459  0.5977  0.3792  0.2505
  247MOL0     C33962  10.667  -0.697   7.401 -0.3351 -0.9283 -0.8882
  247MOL0     C33963  10.580  -0.824   7.372 -0.2605  0.1027 -0.4357
  247MOL0     C33964  10.674  -0.928   7.309  0.5946  0.4971 -0.3704
  247MOL0     N33965  10.770  -0.981   7.409  0.0913 -0.4063 -0.6979
  247MOL0     C33966  10.747  -1.009   7.541 -0.4356  0.9926  1.1422
  247MOL0     C33967  10.862  -1.068   7.586 -0.0401 -0.3597 -0.5716
  247MOL0     C33968  10.903  -1.118   7.723  0.1068 -1.1167 -0.0870
  247MOL0     C33969  10.992  -1.243   7.712  0.7966  0.0802 -0.2460
  247MOL0     C33970  11.045  -1.292   7.853 -0.9782  0.2076 -0.2199
  247MOL0     C33971  11.146  -1.191   7.910  0.1172  0.1502  0.2675
  247MOL0     O33972  11.219  -1.262   8.004 -0.1605  0.0633  0.3083
  247MOL0     C33973  11.361  -1.258   8.014 -0.4336 -0.0700 -0.6584
  247MOL0     C33974  11.440  -1.257   7.901  0.7889  0.5426  0.3163
  247MOL0     C33975  11.574  -1.256   7.909 -0.7021 -0.6131  0.4253
  247MOL0     C33976  11.655  -1.271   7.776  0.7123  0.1936 -0.4311
  247MOL0     C33977  11.640  -1.253   8.030  0.1425 -0.5623  0.5088
  247MOL0     C33978  11.791  -1.262   8.046  0.5355 -0.2324 -0.4848
  247MOL0     O33979  11.828  -1.315   8.165  0.9637  0.5560  0.0519
  247MOL0     C33980  11.957  -1.350   8.169  0.0794 -0.9509  0.1657
  247MOL0     C33981  12.048  -1.257   8.204  0.3737 -0.3604 -0.2346
  247MOL0     C33982  12.187  -1.292   8.241  0.7315 -0.2703 -0.4757
  247MOL0     C33983  12.221  -1.426   8.208 -0.4023 -0.8576  0.2868
  247MOL0     O33984  12.357  -1.442   8.231  0.2629 -0.4709  0.4813
  247MOL0     C33985  12.434  -1.522   8.137 -0.4506 -0.0121  0.4623
  247MOL0     C33986  12.455  -1.448   8.003 -0.1493 -0.8286  0.1279
  247MOL0     C33987  12.552  -1.524   7.914 -1.2121  0.3413  0.1218
  247MOL0     C33988  12.623  -1.436   7.813 -0.2503 -0.8038  0.5918
  247MOL0     C33989  12.523  -1.343   7.727 -0.2353 -0.1203 -1.2381
  247MOL0     C33990  12.429  -1.421   7.638 -0.4858  0.4602  0.4065
  247MOL0     C33991  12.489  -1.502   7.511  0.3750 -0.2046 -0.5536
  247MOL0     C33992  12.384  -1.519   7.407  0.0602  0.1911 -0.2231
  247MOL0    Cl33993  12.447  -1.645   7.291 -0.4242 -0.6293 -0.1221
  247MOL0     C33994  12.134  -1.523   8.152 -0.4382 -0.2111 -0.4791
  247MOL0     C33995  12.002  -1.483   8.142 -0.2108 -0.3523  0.4912
  247MOL0     O33996  11.863  -1.193   7.970  0.7386  0.5976 -0.4925
  247MOL0     C33997  11.559  -1.245   8.148  0.3411  0.0807 -0.5352
  247MOL0     C33998  11.420  -1.256   8.137 -0.6277 -0.6457 -0.4262
  247MOL0     N33999  10.947  -1.069   7.478  0.2706 -0.0012 -0.5918
  247MOL0     N34000  10.896  -1.016   7.379  0.0420  0.2984  1.3606
  247MOL0     C34001  10.909  -0.289   6.888 -0.5679 -0.0598 -0.0473
  247MOL0     C34002  10.955  -0.224   6.774  0.1584  0.6651 -0.0905
  247MOL0     C34003  11.085   0.078   6.461 -0.1838  0.5739  0.0206
  247MOL0     C34004  11.079  -0.029   6.371 -0.3497 -0.8755 -0.8253
  247MOL0     C34005  11.113  -0.004   6.232  0.1687  0.4324 -0.2029
  247MOL0     C34006  11.164   0.117   6.186  0.6972  0.1653 -0.7153
  247MOL0     O34007  11.198   0.141   6.056  0.0503 -0.2935  0.1688
  247MOL0     C34008  11.240   0.022   5.978 -0.3374 -0.8141  0.0660
  247MOL0     C34009  11.335   0.066   5.872  0.1344  0.2864  0.1784
  247MOL0     C34010  11.275   0.166   5.773  0.0976  0.5219  0.3225
  247MOL0     C34011  11.346   0.205   5.644 -1.0597  0.1214  0.3917
  247MOL0     C34012  11.483   0.272   5.672  0.3666 -0.7742 -0.0894
  247MOL0     C34013  11.593   0.324   5.696  0.4922  0.3352  0.1824
  247MOL0     C34014  11.164   0.222   6.281 -0.3611 -0.2199  0.3342
  247MOL0     C34015  11.131   0.203   6.417  0.4024 -0.1336  0.2073
  247MOL0     C34016  11.143   0.321   6.507  0.3278  0.1006 -0.0482
  247MOL0     H34017  11.023   0.084   6.887 -1.5984  0.6299 -2.0979
  247MOL0     H34018  10.922  -0.028   7.097 -0.7429  1.3065 -0.5137
  247MOL0     H34019  10.990  -0.376   7.148 -0.5889  1.7463 -1.4961
  247MOL0     H34020  10.839  -0.468   7.123  0.4261  0.9770 -2.0542
  247MOL0     H34021  10.905  -0.474   7.360  2.6326  0.6405 -2.0238
  247MOL0     H34022  10.924  -0.306   7.378 -0.6085 -0.5581  0.6524
  247MOL0     H34023  10.679  -0.278   7.369  1.1121  0.2915 -0.9220
  247MOL0     H34024  10.642  -0.426   7.293  0.2056 -0.9418 -0.5404
  247MOL0     H34025  10.789  -0.478   7.525  1.8749  2.8445 -2.6783
  247MOL0     H34026  10.640  -0.392   7.557 -0.3853  0.4735 -1.8107
  247MOL0     H34027  10.503  -0.554   7.400  0.8703 -1.8971 -1.2826
  247MOL0     H34028  10.557  -0.621   7.554 -1.0895 -1.3256 -1.0178
  247MOL0     H34029  10.717  -0.669   7.308  0.4059  1.3768  0.1334
  247MOL0     H34030  10.743  -0.720   7.476  0.8499  2.7286 -0.7667
  247MOL0     H34031  10.513  -0.783   7.296  0.5803  1.3613 -0.5378
  247MOL0     H34032  10.529  -0.857   7.463 -0.4841 -0.1427 -0.6474
  247MOL0     H34033  10.607  -1.010   7.280  1.7049 -0.3998 -0.4662
  247MOL0     H34034  10.719  -0.900   7.213  1.6492 -0.4654 -0.1813
  247MOL0     H34035  10.653  -1.011   7.595  0.1282 -3.8170  2.4111
  247MOL0     H34036  10.817  -1.119   7.790 -1.0221  4.9637 -0.8267
  247MOL0     H34037  10.968  -1.042   7.767  0.6993 -2.6375  1.8014
  247MOL0     H34038  10.936  -1.328   7.672  0.6047  0.2052 -0.2449
  247MOL0     H34039  11.077  -1.226   7.645  0.4185  1.3061 -0.4387
  247MOL0     H34040  10.965  -1.325   7.920 -0.5397  1.8895  1.1965
  247MOL0     H34041  11.108  -1.380   7.836  1.9265  2.1194 -0.0337
  247MOL0     H34042  11.207  -1.167   7.823  1.5558 -3.2879  0.1689
  247MOL0     H34043  11.095  -1.108   7.960 -0.7544 -0.5470  0.5624
  247MOL0     H34044  11.397  -1.288   7.806 -0.1821  0.0506  0.8955
  247MOL0     H34045  11.710  -1.182   7.745  0.7270 -0.1657 -1.5075
  247MOL0     H34046  11.584  -1.282   7.693  1.6589 -0.2741 -1.1968
  247MOL0     H34047  11.711  -1.365   7.779 -0.0271 -0.3126 -1.3743
  247MOL0     H34048  12.022  -1.152   8.215  1.8483  0.5285 -3.8397
  247MOL0     H34049  12.262  -1.218   8.265  0.1599  0.4562 -0.8671
  247MOL0     H34050  12.531  -1.535   8.185  0.9808  2.2773 -1.5678
  247MOL0     H34051  12.386  -1.621   8.138  0.3945 -0.4753  3.2357
  247MOL0     H34052  12.365  -1.412   7.952  0.5506 -2.1018 -2.1484
  247MOL0     H34053  12.513  -1.365   8.046 -0.1777 -0.2250 -0.9658
  247MOL0     H34054  12.490  -1.593   7.857  1.2811 -2.8628  0.9586
  247MOL0     H34055  12.623  -1.579   7.976  0.3050  0.5201 -1.3760
  247MOL0     H34056  12.691  -1.482   7.741 -1.0937  0.8793 -1.3638
  247MOL0     H34057  12.685  -1.378   7.882  1.1690  1.2330 -2.1819
  247MOL0     H34058  12.466  -1.270   7.785  1.0050 -0.3429  0.3473
  247MOL0     H34059  12.592  -1.290   7.661  1.1147  1.2273  1.1080
  247MOL0     H34060  12.375  -1.338   7.590  2.8011  0.8807 -3.0904
  247MOL0     H34061  12.367  -1.485   7.701  3.2595 -1.8952  2.0160
  247MOL0     H34062  12.525  -1.598   7.548 -4.7165 -3.4378 -2.8746
  247MOL0     H34063  12.565  -1.435   7.470 -3.7177  3.9952 -2.2236
  247MOL0     H34064  12.358  -1.423   7.362  1.6080  0.9391  0.4043
  247MOL0     H34065  12.299  -1.575   7.447 -0.3117 -3.7473 -5.4911
  247MOL0     H34066  12.172  -1.620   8.122  3.6598  2.2549 -4.6155
  247MOL0     H34067  11.942  -1.566   8.106 -0.2416  1.0703 -3.1324
  247MOL0     H34068  11.591  -1.240   8.251  0.6795 -3.1015 -0.4031
  247MOL0     H34069  11.347  -1.278   8.215 -1.0760 -2.4207 -1.3005
  247MOL0     H34070  10.897  -0.397   6.896 -0.9873 -0.0301 -0.2557
  247MOL0     H34071  10.986  -0.285   6.690 -3.6096  1.0199 -1.9178
  247MOL0     H34072  11.059  -0.133   6.395 -1.3151 -1.2844 -3.1839
  247MOL0     H34073  11.106  -0.082   6.157  3.0252  1.5921 -1.8376
  247MOL0     H34074  11.282  -0.053   6.046 -1.7560 -2.8326 -1.1784
  247MOL0     H34075  11.157  -0.038   5.941 -0.3879  0.4240 -2.0111
  247MOL0     H34076  11.368  -0.018   5.810  4.2213  1.1920  0.8129
  247MOL0     H34077  11.417   0.124   5.917 -0.2930  2.2910 -1.4815
  247MOL0     H34078  11.178   0.121   5.751 -0.3412  1.0804  1.0753
  247MOL0     H34079  11.273   0.258   5.833  1.8201  0.4258  0.5672
  247MOL0     H34080  11.290   0.282   5.589  1.1844 -0.5791 -3.2468
  247MOL0     H34081  11.347   0.137   5.559 -0.1110  2.2945 -1.4546
  247MOL0     H34082  11.685   0.373   5.721  2.2164 -1.3859 -2.3631
  247MOL0     H34083  11.196   0.321   6.251 -1.3997  0.8651  2.5311
  247MOL0     H34084  11.041   0.349   6.533  0.5690 -0.3106  1.4322
  247MOL0     H34085  11.202   0.298   6.596 -0.8640 -2.0270  0.2572
  247MOL0     H34086  11.207   0.401   6.469  4.4627 -3.0785 -0.4916
  248MOL0     O34087   6.915  10.590   9.477  0.3129  0.3331 -0.6734
  248MOL0     C34088   6.913  10.646   9.585  0.3197  0.1610 -0.9127
  248MOL0     O34089   6.979  10.596   9.706 -0.1020 -0.4932  0.3435
  248MOL0     C34090   7.073  10.507   9.682  0.8619 -0.3249 -0.1198
  248MOL0     C34091   7.197  10.539   9.612  0.0181 -0.2664 -0.0002
  248MOL0     C34092   7.295  10.443   9.602 -0.2081  1.0752  0.3906
  248MOL0     C34093   7.281  10.314   9.655  0.3598 -0.2218  0.5751
  248MOL0     O34094   7.386  10.223   9.650  0.3455  0.0638  0.4541
  248MOL0     C34095   7.363  10.080   9.628  0.2056 -0.2282 -0.5734
  248MOL0     C34096   7.387  10.028   9.487 -0.1046  0.4513  1.4689
  248MOL0     C34097   7.276  10.071   9.388  0.2994 -0.1854  0.5577
  248MOL0     C34098   7.299  10.007   9.247  0.5775 -0.4760 -0.5449
  248MOL0     C34099   7.185  10.027   9.142 -0.0921  0.3860 -0.6048
  248MOL0     C34100   7.231   9.975   9.007 -0.9501 -0.1307 -0.2895
  248MOL0     C34101   7.112   9.989   8.905  0.3301  0.9500 -0.2751
  248MOL0     C34102   7.155   9.939   8.770 -0.1496  0.8355  0.4151
  248MOL0     N34103   7.282   9.987   8.712  0.1671 -0.4482  0.4562
  248MOL0     C34104   7.420   9.947   8.740  0.8223  0.0260  1.0248
  248MOL0     C34105   7.494  10.004   8.634  0.2419 -0.5107 -0.9171
  248MOL0     C34106   7.650   9.985   8.624 -0.0432  0.2535  0.7595
  248MOL0     C34107   7.680   9.873   8.529 -0.4983 -0.1440  0.4129
  248MOL0     C34108   7.836   9.901   8.488  0.6072  0.4077  0.1812
  248MOL0     C34109   7.888   9.777   8.405  0.7439  0.3553 -0.0166
  248MOL0     O34110   7.789   9.729   8.315  0.8967 -0.9693 -0.4036
  248MOL0     C34111   7.733   9.610   8.338  0.7401 -0.3173  0.1149
  248MOL0     C34112   7.782   9.498   8.408  0.8266 -0.2428 -0.1689
  248MOL0     C34113   7.709   9.373   8.406  0.9157 -0.6039 -0.5165
  248MOL0     C34114   7.776   9.266   8.487  0.7548  0.6737  0.1208
  248MOL0     C34115   7.578   9.369   8.361 -0.1691 -0.5159  0.2811
  248MOL0     C34116   7.486   9.255   8.384  0.3660 -0.3504 -0.2360
  248MOL0     O34117   7.530   9.132   8.351 -0.2551  0.2010 -0.0609
  248MOL0     C34118   7.451   9.027   8.319 -0.2603 -0.0579 -0.8774
  248MOL0     C34119   7.510   8.904   8.302 -0.6365 -0.2204 -0.8037
  248MOL0     C34120   7.457   8.800   8.226  0.0421 -0.0902 -0.3520
  248MOL0     C34121   7.319   8.819   8.179 -0.2780 -0.3578  0.2978
  248MOL0     O34122   7.250   8.731   8.110 -0.1474  0.0363 -0.8899
  248MOL0     C34123   7.317   8.642   8.023 -0.3012  0.2124  0.2761
  248MOL0     C34124   7.441   8.682   7.938 -0.9240  0.2178 -0.2224
  248MOL0     C34125   7.408   8.786   7.831 -0.1535  0.1602  0.0357
  248MOL0     C34126   7.523   8.814   7.738 -0.5059  0.3391  0.4629
  248MOL0     C34127   7.519   8.959   7.680  0.3481 -0.0332  0.0179
  248MOL0     C34128   7.433   8.986   7.560  0.1379 -0.2277  1.1917
  248MOL0     C34129   7.436   9.138   7.523  0.8375 -0.0220 -0.5124
  248MOL0     C34130   7.337   9.179   7.417 -0.9612 -0.2884 -1.1369
  248MOL0    Cl34131   7.171   9.117   7.451  0.3122 -0.1329  0.2240
  248MOL0     C34132   7.258   8.937   8.208  0.5233 -0.7065 -0.7627
  248MOL0     C34133   7.318   9.045   8.272 -0.3060 -0.4829 -1.1702
  248MOL0     O34134   7.385   9.279   8.445 -0.4691 -0.2219  0.0059
  248MOL0     C34135   7.526   9.484   8.298  0.3306 -0.2322  0.1954
  248MOL0     C34136   7.609   9.596   8.284  0.5888 -0.3873 -0.0621
  248MOL0     N34137   7.410  10.087   8.550 -0.3527  0.2668 -0.2830
  248MOL0     N34138   7.292  10.059   8.597  0.1526 -0.6029 -1.8358
  248MOL0     C34139   7.159  10.283   9.721 -0.5078 -0.2150  0.3396
  248MOL0     C34140   7.059  10.381   9.733  0.2297  0.2401  0.1365
  248MOL0     C34141   6.825  10.762   9.600  0.4106 -0.1356 -0.1002
  248MOL0     C34142   6.835  10.837   9.719 -0.4532  0.0077  0.9673
  248MOL0     C34143   6.766  10.953   9.738 -0.0279  0.3078 -0.0756
  248MOL0     C34144   6.684  11.009   9.646  0.4197  0.3748 -1.0858
  248MOL0     O34145   6.621  11.133   9.653  0.0044  0.0728 -0.1693
  248MOL0     C34146   6.668  11.222   9.752 -0.1471 -0.6274  0.5197
  248MOL0     C34147   6.686  11.360   9.688 -1.1527 -0.1429  0.6899
  248MOL0     C34148   6.787  11.437   9.781  0.2048 -0.8431  0.7059
  248MOL0     C34149   6.796  11.583   9.745 -0.0029 -0.4485  0.1100
  248MOL0     C34150   6.886  11.650   9.833 -0.3540  0.0771 -0.0946
  248MOL0     C34151   6.969  11.712   9.888  0.1340 -0.1898  0.9215
  248MOL0     C34152   6.665  10.936   9.529 -0.1726  0.4586  0.3837
  248MOL0     C34153   6.729  10.808   9.499  0.2362 -0.6763  0.4920
  248MOL0     C34154   6.704  10.753   9.363  0.2111  0.2510 -0.1337
  248MOL0     H34155   7.217  10.638   9.571  0.5799 -0.5249 -0.3659
  248MOL0     H34156   7.397  10.461   9.571 -0.0401 -2.4853 -1.6817
  248MOL0     H34157   7.262  10.045   9.655  0.4349 -1.3548 -1.1201
  248MOL0     H34158   7.425  10.032   9.704 -1.6186 -2.0642 -0.1385
  248MOL0     H34159   7.482  10.055   9.441 -1.1259  1.9448  0.0838
  248MOL0     H34160   7.378   9.920   9.502 -1.6479  0.4713  0.9122
  248MOL0     H34161   7.183  10.045   9.441 -0.2424  0.3884 -0.0876
  248MOL0     H34162   7.255  10.178   9.383  2.2673  0.1967 -0.7502
  248MOL0     H34163   7.383  10.059   9.199 -0.3421  0.4714 -1.1813
  248MOL0     H34164   7.313   9.900   9.262 -0.1601 -0.6590 -1.1108
  248MOL0     H34165   7.148  10.130   9.140  0.1246  0.5962  1.9657
  248MOL0     H34166   7.104   9.962   9.177  1.0098  0.1363  1.6972
  248MOL0     H34167   7.311  10.044   8.976 -1.3003  1.5638  2.2593
  248MOL0     H34168   7.273   9.877   9.030  0.2151  0.7838  1.7051
  248MOL0     H34169   7.084  10.094   8.896  1.1110  1.2093  0.1579
  248MOL0     H34170   7.022   9.935   8.937  1.1661  0.0728  0.6878
  248MOL0     H34171   7.151   9.831   8.779 -1.5933  0.9518  1.7311
  248MOL0     H34172   7.075   9.969   8.701 -0.7147  0.7726  1.0387
  248MOL0     H34173   7.436   9.883   8.826 -0.3966 -1.5685  0.1153
  248MOL0     H34174   7.693   9.957   8.720  1.0312 -0.3785  0.1168
  248MOL0     H34175   7.687  10.077   8.579 -0.2014  0.0075  0.1103
  248MOL0     H34176   7.680   9.782   8.589  0.5650  1.4196  2.9380
  248MOL0     H34177   7.619   9.857   8.440  3.0392 -0.8133 -2.1426
  248MOL0     H34178   7.840   9.987   8.420 -2.0863  1.3624  1.0875
  248MOL0     H34179   7.901   9.921   8.574 -1.9209 -0.8516  2.5545
  248MOL0     H34180   7.980   9.802   8.352  1.5192 -1.2313  0.5226
  248MOL0     H34181   7.912   9.707   8.486  0.3373 -0.2690 -0.4249
  248MOL0     H34182   7.877   9.500   8.462  0.5545 -3.1642  0.5652
  248MOL0     H34183   7.716   9.175   8.490 -2.3364  2.5644  2.4608
  248MOL0     H34184   7.793   9.290   8.593  3.6113 -0.4556  0.0063
  248MOL0     H34185   7.878   9.240   8.457  0.2658 -0.4229 -0.6347
  248MOL0     H34186   7.610   8.906   8.346 -0.6587 -0.2584 -0.7514
  248MOL0     H34187   7.504   8.702   8.224 -1.9078 -1.0498 -1.7968
  248MOL0     H34188   7.351   8.558   8.084  2.9196  2.0481  1.2471
  248MOL0     H34189   7.250   8.604   7.944  0.2704  0.1279 -0.1726
  248MOL0     H34190   7.524   8.717   7.999  1.0786 -6.1731  1.5153
  248MOL0     H34191   7.480   8.592   7.891  1.6596  0.0313  2.0483
  248MOL0     H34192   7.377   8.875   7.886  1.0263 -0.4087  1.6792
  248MOL0     H34193   7.322   8.753   7.772 -0.9120 -0.7734  1.5860
  248MOL0     H34194   7.522   8.750   7.648 -1.1336  1.2023 -0.1641
  248MOL0     H34195   7.613   8.803   7.798  0.0168  2.2148  0.1005
  248MOL0     H34196   7.491   9.015   7.769  0.2090 -1.1192  0.6681
  248MOL0     H34197   7.618   8.988   7.642 -0.1345  2.3598  0.4156
  248MOL0     H34198   7.330   8.956   7.583  0.0661 -0.2125  0.8942
  248MOL0     H34199   7.468   8.928   7.475  1.2345  1.2731  0.5833
  248MOL0     H34200   7.537   9.160   7.488  0.6909 -1.1575 -1.6892
  248MOL0     H34201   7.415   9.200   7.611  0.0790  2.8273 -2.5708
  248MOL0     H34202   7.369   9.127   7.326 -1.1898 -3.1832  0.3267
  248MOL0     H34203   7.330   9.287   7.400 -2.0304  0.2475  2.1034
  248MOL0     H34204   7.150   8.946   8.197  0.2627 -1.2225  1.0965
  248MOL0     H34205   7.258   9.135   8.272  2.0041  1.1544  0.5736
  248MOL0     H34206   7.424   9.485   8.261  0.8781 -0.8248 -1.4294
  248MOL0     H34207   7.558   9.686   8.250 -3.0684 -2.2348  0.0715
  248MOL0     H34208   7.129  10.183   9.750  2.2707 -1.4656 -0.7792
  248MOL0     H34209   6.975  10.353   9.795 -0.5625  3.6271  0.8357
  248MOL0     H34210   6.905  10.795   9.790  0.0919  1.1154  1.1140
  248MOL0     H34211   6.785  10.992   9.837 -0.8437  0.3468  0.0784
  248MOL0     H34212   6.593  11.222   9.832  0.1409  2.5666  0.9444
  248MOL0     H34213   6.770  11.206   9.790  0.8762  0.3136 -1.6499
  248MOL0     H34214   6.594  11.419   9.676 -1.1745 -0.3508 -0.1833
  248MOL0     H34215   6.734  11.340   9.592  2.6624 -1.9737  2.7647
  248MOL0     H34216   6.744  11.445   9.881  2.2563  2.2416  1.4798
  248MOL0     H34217   6.887  11.392   9.782  0.9080  0.6015 -0.4551
  248MOL0     H34218   6.696  11.622   9.765  0.0785  1.0240 -1.9487
  248MOL0     H34219   6.829  11.595   9.641  0.1048 -2.3529 -0.1056
  248MOL0     H34220   7.051  11.771   9.925  0.1402  0.4678 -0.1225
  248MOL0     H34221   6.619  10.995   9.449 -0.4437  0.3956  0.4920
  248MOL0     H34222   6.783  10.763   9.288  0.7888  1.8885  0.6624
  248MOL0     H34223   6.671  10.649   9.358  3.0416 -0.6720 -2.5632
  248MOL0     H34224   6.620  10.813   9.326  0.6348  0.0471 -1.4848
  249MOL0     O34225   2.681   3.606   2.234 -1.2181  0.2144 -0.2250
  249MOL0     C34226   2.609   3.701   2.213 -0.3692  0.3023  0.2840
  249MOL0     O34227   2.639   3.821   2.147 -0.0427  0.1945  0.4752
  249MOL0     C34228   2.756   3.847   2.083 -0.4673  0.4757 -0.4453
  249MOL0     C34229   2.871   3.762   2.060 -0.8114 -0.3776 -0.9718
  249MOL0     C34230   2.984   3.810   1.993 -0.6520 -1.2175 -0.6768
  249MOL0     C34231   2.983   3.942   1.946  0.0617 -0.1489  0.2807
  249MOL0     O34232   3.082   4.002   1.868  0.7854 -0.0650  0.5202
  249MOL0     C34233   3.121   3.939   1.739 -0.6099  0.1555  0.1661
  249MOL0     C34234   3.216   4.009   1.646  0.3567  0.3182  0.0759
  249MOL0     C34235   3.232   3.913   1.525  0.7800 -0.5718 -0.1466
  249MOL0     C34236   3.293   3.979   1.404  0.7096 -0.1220 -0.0059
  249MOL0     C34237   3.270   3.898   1.273  0.1275 -0.4580 -0.3545
  249MOL0     C34238   3.344   3.937   1.145  0.3702  0.2562  0.5548
  249MOL0     C34239   3.496   3.889   1.147  0.4870  0.5608  0.5501
  249MOL0     C34240   3.564   3.899   1.008  0.1161  0.6574  0.6600
  249MOL0     N34241   3.564   4.026   0.950  0.9725  0.0210  0.5250
  249MOL0     C34242   3.663   4.110   0.970  0.1027  0.4945 -0.2216
  249MOL0     C34243   3.626   4.215   0.901 -0.6652 -0.1534 -0.2833
  249MOL0     C34244   3.697   4.349   0.873 -0.6100 -0.5881 -0.2960
  249MOL0     C34245   3.757   4.424   0.999  1.0460 -0.2320  0.4230
  249MOL0     C34246   3.863   4.534   0.947 -0.1225  0.8049 -1.0044
  249MOL0     C34247   3.883   4.625   1.061  0.2087  0.3177  0.2337
  249MOL0     O34248   3.994   4.712   1.038 -0.2396  0.9379  0.9113
  249MOL0     C34249   4.120   4.671   1.080 -0.6982  0.2367 -0.2879
  249MOL0     C34250   4.154   4.536   1.105 -0.8365  0.7981 -1.4201
  249MOL0     C34251   4.282   4.502   1.139 -1.3046  1.4178  0.0809
  249MOL0     C34252   4.313   4.353   1.171 -0.0445  0.2223 -0.1207
  249MOL0     C34253   4.395   4.598   1.124  0.9005 -0.2729 -0.9470
  249MOL0     C34254   4.539   4.572   1.124  0.2236 -0.1012 -0.7551
  249MOL0     O34255   4.622   4.665   1.071  0.1226  0.1918 -1.0414
  249MOL0     C34256   4.756   4.655   1.087  0.4435 -0.4085  0.1259
  249MOL0     C34257   4.825   4.731   1.185 -0.5405  0.4403  0.7239
  249MOL0     C34258   4.965   4.717   1.206 -0.0004  0.5846  0.0094
  249MOL0     C34259   5.035   4.613   1.136  1.1406 -0.3456  0.0127
  249MOL0     O34260   5.169   4.588   1.153 -0.7005  0.4545 -0.2312
  249MOL0     C34261   5.240   4.655   1.256 -0.2514  0.5592 -0.5466
  249MOL0     C34262   5.378   4.595   1.253  0.2915 -0.1399  0.1075
  249MOL0     C34263   5.484   4.684   1.316  0.0078  0.0368 -0.0853
  249MOL0     C34264   5.602   4.586   1.352 -0.4350  0.2092 -0.2232
  249MOL0     C34265   5.681   4.671   1.452 -0.4740  0.2375  0.2724
  249MOL0     C34266   5.724   4.812   1.408  0.2168  0.4940  0.1907
  249MOL0     C34267   5.827   4.874   1.500  0.3265 -0.5049  0.8742
  249MOL0     C34268   5.895   4.984   1.426  0.2717  0.7511  0.1439
  249MOL0    Cl34269   6.030   5.054   1.513 -0.0760  0.2197 -0.2459
  249MOL0     C34270   4.961   4.533   1.050 -0.9029  0.4571 -0.6078
  249MOL0     C34271   4.823   4.556   1.013  1.1119 -0.3488  0.4767
  249MOL0     O34272   4.568   4.471   1.187  0.0091  0.5781  0.1277
  249MOL0     C34273   4.353   4.730   1.103  0.0459 -0.6503 -0.4148
  249MOL0     C34274   4.221   4.766   1.084 -0.4108  0.0318 -0.1098
  249MOL0     N34275   3.510   4.184   0.828  1.1251 -0.1145  0.2401
  249MOL0     N34276   3.469   4.078   0.873 -0.2250  0.6337  0.1350
  249MOL0     C34277   2.884   4.030   1.978 -0.3996 -0.1996  0.0462
  249MOL0     C34278   2.776   3.976   2.048  0.9121  0.8624  0.6400
  249MOL0     C34279   2.474   3.683   2.267 -0.1226 -0.0167 -0.3237
  249MOL0     C34280   2.408   3.796   2.297  0.7376 -0.5729 -0.5850
  249MOL0     C34281   2.276   3.798   2.347 -0.8478 -0.3133 -0.1898
  249MOL0     C34282   2.209   3.678   2.356  0.5129  0.9370 -0.5073
  249MOL0     O34283   2.076   3.683   2.375 -0.3124 -1.0255 -0.7860
  249MOL0     C34284   2.043   3.674   2.508 -0.5659 -0.4983 -0.8440
  249MOL0     C34285   2.004   3.815   2.568 -0.0686 -0.6368 -0.1373
  249MOL0     C34286   1.911   3.890   2.475  0.3885  0.7591  0.0286
  249MOL0     C34287   1.866   4.021   2.533  0.0293  0.0722  0.6959
  249MOL0     C34288   1.751   4.082   2.456  1.2458  0.3355  0.1570
  249MOL0     C34289   1.654   4.133   2.390 -0.5076 -0.9193 -1.3379
  249MOL0     C34290   2.266   3.565   2.299  0.1807 -0.6433  0.4593
  249MOL0     C34291   2.397   3.565   2.264 -0.0656  0.9138  0.7941
  249MOL0     C34292   2.450   3.423   2.208 -0.1575 -0.1501 -0.5424
  249MOL0     H34293   2.877   3.663   2.104  1.8216  0.1500  0.0134
  249MOL0     H34294   3.052   3.730   1.969 -0.2050 -0.8802 -0.5485
  249MOL0     H34295   3.030   3.924   1.680  1.2567 -5.6571 -1.9304
  249MOL0     H34296   3.165   3.842   1.765 -1.6765 -1.1280 -2.4640
  249MOL0     H34297   3.187   4.105   1.604  0.1047 -1.1499 -3.3806
  249MOL0     H34298   3.318   4.019   1.685 -0.3952 -0.6601  2.5035
  249MOL0     H34299   3.294   3.832   1.564  1.1882  0.3524  1.2019
  249MOL0     H34300   3.128   3.889   1.502 -0.3840  1.7154  2.2163
  249MOL0     H34301   3.271   4.086   1.396  1.8325  0.0495 -1.0463
  249MOL0     H34302   3.402   3.979   1.413  0.6708  2.0952  1.5267
  249MOL0     H34303   3.162   3.908   1.263 -0.4083 -2.2190  2.4358
  249MOL0     H34304   3.289   3.792   1.292 -1.6087 -1.0159 -1.5056
  249MOL0     H34305   3.307   3.870   1.067  1.1554 -1.6003  1.7002
  249MOL0     H34306   3.325   4.042   1.121 -3.1856  0.0972  2.0010
  249MOL0     H34307   3.498   3.785   1.181  0.1129 -0.5690 -2.6257
  249MOL0     H34308   3.541   3.952   1.225 -3.2699  1.4426  2.2409
  249MOL0     H34309   3.668   3.867   1.021  0.2953  0.7806 -0.3915
  249MOL0     H34310   3.520   3.825   0.942 -2.1823  1.3771  1.2920
  249MOL0     H34311   3.747   4.084   1.034 -0.4966 -0.1275  0.3238
  249MOL0     H34312   3.625   4.416   0.826 -1.9537 -2.1240 -0.4760
  249MOL0     H34313   3.776   4.332   0.799 -1.9354 -0.8803 -1.6859
  249MOL0     H34314   3.674   4.481   1.042  0.4243  0.2743 -1.3690
  249MOL0     H34315   3.806   4.377   1.085  1.6079 -1.5815 -0.6080
  249MOL0     H34316   3.964   4.502   0.921  0.0911  0.0198  0.6691
  249MOL0     H34317   3.822   4.581   0.857  1.0297  0.6777 -1.6192
  249MOL0     H34318   3.800   4.693   1.042 -0.7111 -1.1988 -1.3830
  249MOL0     H34319   3.873   4.583   1.162  1.0992  0.2387  0.3022
  249MOL0     H34320   4.083   4.454   1.101  0.2153 -0.4201  1.7515
  249MOL0     H34321   4.224   4.300   1.207 -0.9273  0.6196 -1.6335
  249MOL0     H34322   4.395   4.333   1.239 -0.2924 -0.7034 -0.0898
  249MOL0     H34323   4.341   4.303   1.078  0.1622 -1.1244  0.6411
  249MOL0     H34324   4.773   4.811   1.236  1.3422  2.3438 -0.1598
  249MOL0     H34325   5.008   4.797   1.266 -0.3795 -0.2725  1.4878
  249MOL0     H34326   5.243   4.762   1.234 -3.3298  0.7169 -0.6916
  249MOL0     H34327   5.208   4.631   1.359 -1.4243  0.6044 -0.8835
  249MOL0     H34328   5.385   4.505   1.315  3.4544  0.7927  1.2602
  249MOL0     H34329   5.416   4.571   1.153  0.5860  1.2632 -0.1301
  249MOL0     H34330   5.442   4.721   1.410 -4.1494 -2.3703 -0.7445
  249MOL0     H34331   5.516   4.763   1.247 -0.5083 -1.8288 -2.6309
  249MOL0     H34332   5.658   4.568   1.260  1.3372 -3.1949  1.3462
  249MOL0     H34333   5.579   4.490   1.400 -1.0562  0.1558 -0.6080
  249MOL0     H34334   5.623   4.671   1.545 -0.8873 -0.3794  0.0221
  249MOL0     H34335   5.769   4.610   1.476  0.1942  0.6291 -1.0646
  249MOL0     H34336   5.635   4.876   1.411  1.7026  2.7202 -1.1796
  249MOL0     H34337   5.763   4.811   1.306 -0.5195  0.3564 -0.0984
  249MOL0     H34338   5.897   4.796   1.532  1.1590  0.5651  1.7523
  249MOL0     H34339   5.766   4.917   1.580 -1.7053 -2.2169  0.3352
  249MOL0     H34340   5.810   5.049   1.405 -2.4804 -2.2338  1.3343
  249MOL0     H34341   5.941   4.944   1.335  1.3191 -1.6979  1.6464
  249MOL0     H34342   5.013   4.464   0.984 -5.1364  0.6651 -4.6452
  249MOL0     H34343   4.773   4.497   0.937 -1.1340  0.4166  1.2776
  249MOL0     H34344   4.419   4.811   1.073  0.3742 -0.7996 -0.1097
  249MOL0     H34345   4.195   4.871   1.086  1.3430  0.4995 -0.1567
  249MOL0     H34346   2.889   4.130   1.934  2.0147 -0.9244 -1.5146
  249MOL0     H34347   2.701   4.052   2.072  1.5521  1.9178 -0.5717
  249MOL0     H34348   2.446   3.897   2.294 -1.1086  0.4293  3.1405
  249MOL0     H34349   2.208   3.880   2.367 -1.2099 -0.8936  1.0130
  249MOL0     H34350   1.964   3.599   2.510  0.2101 -1.3620 -1.4162
  249MOL0     H34351   2.128   3.636   2.567  0.6382  2.2808 -0.6247
  249MOL0     H34352   2.099   3.868   2.584 -0.0234 -0.1705 -1.8132
  249MOL0     H34353   1.966   3.788   2.667  0.7050 -1.3424 -0.0139
  249MOL0     H34354   1.957   3.908   2.378  0.7502 -0.9092 -0.1387
  249MOL0     H34355   1.824   3.828   2.452 -0.4605  1.8765  0.1615
  249MOL0     H34356   1.939   4.103   2.531 -0.2062  0.2768 -1.1900
  249MOL0     H34357   1.829   4.003   2.634 -1.3326  0.2983  0.2624
  249MOL0     H34358   1.562   4.163   2.343  1.6575  0.9633 -4.7893
  249MOL0     H34359   2.211   3.474   2.277  2.1432 -1.7403 -0.1791
  249MOL0     H34360   2.374   3.380   2.142 -2.3070  1.5639  0.6792
  249MOL0     H34361   2.541   3.444   2.151  2.3397 -1.0186  2.7489
  249MOL0     H34362   2.492   3.357   2.285  2.9293 -0.3934 -2.2571
  250MOL0     O34363   0.521   1.765   3.248 -0.7836  0.2523 -0.3779
  250MOL0     C34364   0.444   1.678   3.284 -0.8105  0.2295  0.9501
  250MOL0     O34365   0.461   1.585   3.382 -0.8392  0.0830 -0.0413
  250MOL0     C34366   0.597   1.580   3.424 -0.2033  0.2475  0.0417
  250MOL0     C34367   0.602   1.579   3.567 -0.0143 -0.0283  0.5348
  250MOL0     C34368   0.724   1.582   3.631 -0.3726 -0.0043 -0.1352
  250MOL0     C34369   0.842   1.597   3.561 -0.7027  0.2738 -0.2864
  250MOL0     O34370   0.951   1.612   3.643 -0.5490  0.5957  0.2821
  250MOL0     C34371   1.086   1.625   3.578 -0.3244 -0.0256  1.2341
  250MOL0     C34372   1.175   1.658   3.702 -0.6769 -0.5466 -0.3499
  250MOL0     C34373   1.151   1.788   3.778 -0.6280  0.7291  1.3708
  250MOL0     C34374   1.224   1.775   3.916  0.1767  0.4644 -0.0152
  250MOL0     C34375   1.220   1.878   4.025 -0.6883 -0.5256 -0.5884
  250MOL0     C34376   1.089   1.906   4.091  0.8717 -0.2046  0.2878
  250MOL0     C34377   1.073   2.045   4.145  1.0326 -0.4302 -0.1920
  250MOL0     C34378   0.948   2.064   4.218  0.3857 -0.1406  0.4365
  250MOL0     N34379   0.973   2.021   4.366  0.3669 -0.9503  0.1403
  250MOL0     C34380   0.898   1.918   4.430  0.2367 -0.4322 -0.3250
  250MOL0     C34381   0.929   1.939   4.562  0.0636  0.3458  0.7483
  250MOL0     C34382   0.872   1.865   4.685 -0.1337 -0.7196  0.7713
  250MOL0     C34383   0.715   1.904   4.694 -0.6140  1.6402 -0.1325
  250MOL0     C34384   0.679   2.019   4.788 -0.1462 -0.5824 -1.4084
  250MOL0     C34385   0.745   2.151   4.746  0.1683  0.0173 -0.5992
  250MOL0     O34386   0.672   2.257   4.831 -0.0334  0.5323 -1.1507
  250MOL0     C34387   0.712   2.388   4.816 -0.0976  0.4373 -0.4491
  250MOL0     C34388   0.634   2.492   4.865  0.0694 -0.4360  0.2158
  250MOL0     C34389   0.648   2.629   4.856 -0.2512  0.0661 -0.6942
  250MOL0     C34390   0.554   2.721   4.928  0.1780  0.8486 -0.3975
  250MOL0     C34391   0.774   2.666   4.797  1.0559 -0.9357  0.6921
  250MOL0     C34392   0.813   2.815   4.769 -1.1009  0.4585 -0.4031
  250MOL0     O34393   0.948   2.825   4.736  0.1111  0.5972  0.7441
  250MOL0     C34394   0.990   2.936   4.658 -0.1188  0.3109 -0.1558
  250MOL0     C34395   0.962   3.073   4.677 -0.0903  0.5049  0.4450
  250MOL0     C34396   1.004   3.170   4.585  0.5716 -0.0513 -0.4562
  250MOL0     C34397   1.072   3.130   4.469  0.6340 -0.0051  0.1776
  250MOL0     O34398   1.110   3.205   4.370  0.6837 -0.0191  0.3088
  250MOL0     C34399   1.018   3.305   4.327  0.6529 -0.2455 -0.2065
  250MOL0     C34400   1.034   3.330   4.180  0.2616  0.2715 -0.1973
  250MOL0     C34401   1.177   3.369   4.150  0.0911  1.2037 -0.3091
  250MOL0     C34402   1.174   3.417   4.001  0.1955  0.4172  0.4318
  250MOL0     C34403   1.140   3.313   3.893  0.4214 -0.3962 -0.8428
  250MOL0     C34404   1.037   3.355   3.782 -0.7036 -0.3704  0.0221
  250MOL0     C34405   1.076   3.295   3.649 -0.1525 -0.6328  0.6469
  250MOL0     C34406   1.105   3.143   3.657 -0.0581 -0.5027  0.7241
  250MOL0    Cl34407   0.954   3.049   3.670 -0.3559  0.1903 -0.0886
  250MOL0     C34408   1.111   2.995   4.456 -0.5996 -0.0110  0.6854
  250MOL0     C34409   1.079   2.900   4.543  0.3121  0.4290 -0.6242
  250MOL0     O34410   0.726   2.899   4.756 -0.3938  0.2981 -0.0950
  250MOL0     C34411   0.849   2.564   4.732  0.1584  0.2082 -0.3356
  250MOL0     C34412   0.822   2.425   4.739  0.0690 -0.4911 -0.5941
  250MOL0     N34413   1.024   2.039   4.574 -0.5544  1.1160  0.3916
  250MOL0     N34414   1.043   2.093   4.461  0.8384 -0.0382  0.6091
  250MOL0     C34415   0.846   1.578   3.424  0.7171  0.3856 -0.0080
  250MOL0     C34416   0.719   1.573   3.359  1.0486  0.4336  0.2470
  250MOL0     C34417   0.316   1.678   3.204 -0.1386 -0.6593 -0.7914
  250MOL0     C34418   0.219   1.596   3.262  0.1645  0.9809 -0.2979
  250MOL0     C34419   0.099   1.591   3.201  0.4751  0.1786  1.0061
  250MOL0     C34420   0.081   1.645   3.076 -0.0472  0.0284  0.0349
  250MOL0     O34421  -0.032   1.617   3.007  0.2115  0.3245  0.8107
  250MOL0     C34422  -0.128   1.716   3.003 -0.7248 -0.2879 -0.6995
  250MOL0     C34423  -0.254   1.687   2.910  0.2176  0.6908 -0.0046
  250MOL0     C34424  -0.336   1.814   2.885 -0.0395 -0.3696  0.0133
  250MOL0     C34425  -0.466   1.799   2.809 -0.7976  0.2919  0.5155
  250MOL0     C34426  -0.461   1.714   2.691  0.0390  0.4645 -1.0019
  250MOL0     C34427  -0.425   1.660   2.584  0.7681  0.0783 -0.3598
  250MOL0     C34428   0.172   1.724   3.014 -0.6537 -0.5418 -0.7978
  250MOL0     C34429   0.295   1.736   3.073  0.6263  0.1758 -0.7560
  250MOL0     C34430   0.393   1.815   2.992 -0.8691  0.5000 -0.1309
  250MOL0     H34431   0.508   1.563   3.619 -1.4836  1.9046 -1.3748
  250MOL0     H34432   0.731   1.576   3.739  0.4763 -1.1898 -0.2334
  250MOL0     H34433   1.094   1.710   3.509 -0.4510  0.3079  1.6303
  250MOL0     H34434   1.117   1.537   3.521  1.1038  2.1412 -1.5751
  250MOL0     H34435   1.172   1.572   3.769 -2.5285 -0.4828 -0.2897
  250MOL0     H34436   1.278   1.673   3.670 -0.4351 -0.8531  0.2570
  250MOL0     H34437   1.191   1.872   3.720  2.3155 -2.5901 -1.9013
  250MOL0     H34438   1.044   1.811   3.781 -0.6441  1.0476 -0.3795
  250MOL0     H34439   1.177   1.688   3.963 -2.3387  1.8946  0.3212
  250MOL0     H34440   1.326   1.750   3.886  0.0898 -1.3495  1.0315
  250MOL0     H34441   1.253   1.970   3.974 -0.9231 -0.3990 -0.5118
  250MOL0     H34442   1.294   1.858   4.103 -2.9347 -0.2474  1.7554
  250MOL0     H34443   1.007   1.890   4.020  1.7258  0.8965 -0.9803
  250MOL0     H34444   1.081   1.835   4.174 -0.3462  0.5556  0.8507
  250MOL0     H34445   1.076   2.116   4.062  0.9437  0.7599  0.7825
  250MOL0     H34446   1.157   2.060   4.214  0.2398  0.7409  0.5438
  250MOL0     H34447   0.932   2.172   4.225  3.2122  0.3005  1.4058
  250MOL0     H34448   0.857   2.015   4.181  0.0832  1.3478 -0.9432
  250MOL0     H34449   0.826   1.846   4.392  0.3642  0.6508 -2.7870
  250MOL0     H34450   0.926   1.905   4.771  0.4724  0.0319  0.0645
  250MOL0     H34451   0.884   1.757   4.692  1.3608 -0.7390 -1.1976
  250MOL0     H34452   0.676   1.923   4.594  0.5096  2.1797 -0.4878
  250MOL0     H34453   0.660   1.814   4.723  0.9936  0.2125 -1.2789
  250MOL0     H34454   0.571   2.019   4.802  0.0303 -3.0081  0.6894
  250MOL0     H34455   0.703   1.988   4.890 -2.0690 -1.1648 -1.0956
  250MOL0     H34456   0.851   2.147   4.774 -0.6039  0.2274  2.6955
  250MOL0     H34457   0.732   2.172   4.639 -1.1739 -0.1495 -0.4891
  250MOL0     H34458   0.549   2.464   4.927  0.7872  1.8597  2.3699
  250MOL0     H34459   0.611   2.781   4.999  1.3329 -1.9989  1.2726
  250MOL0     H34460   0.470   2.673   4.979 -0.8904  1.4196 -1.5594
  250MOL0     H34461   0.504   2.782   4.853  1.4542 -0.5607 -2.5014
  250MOL0     H34462   0.901   3.097   4.764 -0.9737  2.8810 -0.7569
  250MOL0     H34463   0.958   3.268   4.600  1.7275  0.5920 -0.9420
  250MOL0     H34464   0.911   3.284   4.338  0.5053 -0.2732 -1.4888
  250MOL0     H34465   1.044   3.398   4.378 -2.7763 -0.1014  1.5609
  250MOL0     H34466   1.015   3.236   4.128  0.0000 -0.9020  1.8822
  250MOL0     H34467   0.965   3.407   4.144  1.2721  1.0165 -0.5983
  250MOL0     H34468   1.240   3.280   4.162 -0.8050  0.6641  0.5725
  250MOL0     H34469   1.224   3.448   4.209  2.8959 -0.7992  0.3497
  250MOL0     H34470   1.272   3.460   3.976 -0.6664  1.8603 -0.6158
  250MOL0     H34471   1.095   3.491   3.987  1.0644  1.0677 -1.5691
  250MOL0     H34472   1.229   3.273   3.844 -0.0979 -1.5712 -0.8651
  250MOL0     H34473   1.100   3.222   3.938 -2.4327  0.4013 -1.5686
  250MOL0     H34474   1.043   3.464   3.778  0.4610 -0.3090  2.1200
  250MOL0     H34475   0.933   3.327   3.804 -0.5127 -0.6331  0.6020
  250MOL0     H34476   1.163   3.341   3.602 -1.4247  0.5397 -0.6415
  250MOL0     H34477   0.998   3.328   3.580  1.0143 -2.3940 -1.6499
  250MOL0     H34478   1.155   3.116   3.751 -0.4447  0.1526  1.1231
  250MOL0     H34479   1.173   3.098   3.584 -1.8179 -2.6455  0.3115
  250MOL0     H34480   1.163   2.981   4.362 -1.3756  0.3270  0.1935
  250MOL0     H34481   1.104   2.795   4.529 -0.2423  0.0379  1.0294
  250MOL0     H34482   0.938   2.593   4.676 -0.5394  0.5503 -1.3096
  250MOL0     H34483   0.881   2.357   4.679  0.0738 -1.7266  0.7431
  250MOL0     H34484   0.942   1.587   3.375  1.3255  2.3329  1.4366
  250MOL0     H34485   0.709   1.576   3.250  1.9190 -0.5017  0.1257
  250MOL0     H34486   0.227   1.542   3.355 -2.0912  4.4664  2.1955
  250MOL0     H34487   0.021   1.533   3.250  0.3559  0.3495  1.0155
  250MOL0     H34488  -0.152   1.744   3.106  1.7524 -2.5244  0.5784
  250MOL0     H34489  -0.086   1.812   2.970 -0.1934  0.3856  1.7798
  250MOL0     H34490  -0.310   1.602   2.951  1.4564 -0.6715 -1.0352
  250MOL0     H34491  -0.214   1.658   2.813  0.3006 -0.6717  0.4177
  250MOL0     H34492  -0.358   1.856   2.983 -1.6707  2.3396 -1.3818
  250MOL0     H34493  -0.272   1.891   2.840  1.7766 -1.4549  0.6378
  250MOL0     H34494  -0.512   1.894   2.782 -2.2774 -0.6811 -0.5739
  250MOL0     H34495  -0.544   1.755   2.871 -2.3697 -1.0322 -2.2343
  250MOL0     H34496  -0.415   1.590   2.503  0.5803 -2.6416  1.8212
  250MOL0     H34497   0.133   1.781   2.930 -1.5045 -0.0971 -0.1206
  250MOL0     H34498   0.489   1.765   2.979 -1.6322 -0.9900 -0.3278
  250MOL0     H34499   0.359   1.844   2.892 -1.4650  2.7311  0.6703
  250MOL0     H34500   0.413   1.905   3.051  0.6467 -0.9688  1.7359
  251MOL0     O34501   4.501   4.723   7.499  0.5125 -0.1282  0.9582
  251MOL0     C34502   4.424   4.783   7.573  0.1572  0.2499 -0.4976
  251MOL0     O34503   4.298   4.732   7.606 -0.3837 -0.5155 -0.1332
  251MOL0     C34504   4.260   4.614   7.549 -0.3755  0.7673 -0.6487
  251MOL0     C34505   4.306   4.491   7.602  1.0915  0.6127 -0.3462
  251MOL0     C34506   4.251   4.370   7.570 -0.0553 -0.2036  0.0849
  251MOL0     C34507   4.151   4.366   7.471  0.2270  0.6377  0.5043
  251MOL0     O34508   4.102   4.243   7.434  0.2578 -0.0371 -0.5102
  251MOL0     C34509   3.960   4.238   7.412 -0.2237 -0.9110 -0.6629
  251MOL0     C34510   3.927   4.090   7.409  0.6144 -0.1405 -0.3058
  251MOL0     C34511   3.912   4.040   7.256 -0.1999 -0.2807 -0.7167
  251MOL0     C34512   3.822   3.914   7.243 -0.5593  0.2841 -0.1481
  251MOL0     C34513   3.805   3.872   7.090  0.9721 -0.8673 -0.3875
  251MOL0     C34514   3.689   3.935   7.013  0.3375 -1.2363  0.8221
  251MOL0     C34515   3.684   3.878   6.870  0.6650 -0.8343 -0.8696
  251MOL0     C34516   3.569   3.941   6.785  0.0203  0.2920 -0.5894
  251MOL0     N34517   3.583   4.079   6.755 -0.3544  0.1960  0.0286
  251MOL0     C34518   3.560   4.195   6.829  0.0208 -0.4154 -0.4969
  251MOL0     C34519   3.646   4.281   6.773 -0.3742  0.5572 -0.4253
  251MOL0     C34520   3.674   4.421   6.825 -0.3470 -0.8168  0.5202
  251MOL0     C34521   3.754   4.512   6.730  0.7238 -0.7105  0.6626
  251MOL0     C34522   3.665   4.543   6.605 -0.3476  0.1526  0.3466
  251MOL0     C34523   3.753   4.541   6.478  0.5651 -1.0395 -0.7907
  251MOL0     O34524   3.833   4.657   6.483  0.4134 -0.1682  0.9823
  251MOL0     C34525   3.954   4.661   6.420 -0.1158  0.9608  0.3654
  251MOL0     C34526   4.036   4.545   6.406  0.5177 -0.2775 -0.5177
  251MOL0     C34527   4.157   4.542   6.335  0.3885 -0.1477 -0.3790
  251MOL0     C34528   4.229   4.411   6.308 -0.1128  0.6748 -0.5949
  251MOL0     C34529   4.197   4.667   6.276 -0.1784  2.0584 -0.0543
  251MOL0     C34530   4.314   4.686   6.178 -0.6737  0.8039 -0.6759
  251MOL0     O34531   4.326   4.807   6.126  0.0478  0.5472  0.7046
  251MOL0     C34532   4.424   4.825   6.036  0.8059 -0.3758  0.0350
  251MOL0     C34533   4.404   4.811   5.898  0.2340  0.6082  0.2559
  251MOL0     C34534   4.507   4.841   5.803  0.6789  0.1450 -0.0648
  251MOL0     C34535   4.627   4.880   5.849 -0.1775 -0.1927  0.5167
  251MOL0     O34536   4.738   4.898   5.770  0.1657  0.7169  0.0076
  251MOL0     C34537   4.748   4.842   5.637 -0.3690  0.1778  0.7331
  251MOL0     C34538   4.870   4.872   5.549 -0.2990 -0.5774 -0.2006
  251MOL0     C34539   4.869   5.006   5.472 -0.3757  0.6545 -0.4615
  251MOL0     C34540   4.791   4.982   5.337 -1.2985 -0.2237  0.1508
  251MOL0     C34541   4.758   5.117   5.283 -0.0418 -0.0853  0.1392
  251MOL0     C34542   4.713   5.120   5.140  0.6482  0.5656  0.4132
  251MOL0     C34543   4.596   5.023   5.105 -0.6595 -0.6833 -0.0365
  251MOL0     C34544   4.602   4.969   4.963  0.1730 -0.0408  0.6955
  251MOL0    Cl34545   4.607   5.105   4.850  0.2682  0.0041  0.1775
  251MOL0     C34546   4.643   4.891   5.988  0.4821  0.0412 -0.6470
  251MOL0     C34547   4.546   4.862   6.082 -0.4756 -0.6278 -0.0806
  251MOL0     O34548   4.378   4.587   6.148 -0.5010  0.4364  0.4828
  251MOL0     C34549   4.120   4.785   6.311  0.4075  0.1928  0.5866
  251MOL0     C34550   4.010   4.782   6.395 -0.3339 -0.7660  0.7026
  251MOL0     N34551   3.689   4.238   6.650 -0.2281  0.0887 -0.3173
  251MOL0     N34552   3.657   4.114   6.644  0.0452  0.1553  1.2102
  251MOL0     C34553   4.103   4.494   7.418 -0.2780  0.2191 -0.0434
  251MOL0     C34554   4.161   4.616   7.450  0.1799  1.4418  0.0707
  251MOL0     C34555   4.460   4.901   7.661  0.9653 -0.3631  0.5088
  251MOL0     C34556   4.369   4.986   7.731 -0.7217  0.0135  1.0616
  251MOL0     C34557   4.411   5.092   7.812 -0.7740 -0.2418  0.3858
  251MOL0     C34558   4.547   5.115   7.836 -0.1623  0.0403 -0.3029
  251MOL0     O34559   4.588   5.216   7.921 -0.5307  0.4977  0.3730
  251MOL0     C34560   4.485   5.320   7.956  1.2849  0.1383 -0.6586
  251MOL0     C34561   4.548   5.453   7.996 -0.1540 -0.3671  0.7835
  251MOL0     C34562   4.441   5.537   8.075 -0.2959 -0.6625  1.2752
  251MOL0     C34563   4.518   5.672   8.133  0.6578  0.3610  0.0733
  251MOL0     C34564   4.559   5.749   8.023 -0.2357 -0.7563 -0.1929
  251MOL0     C34565   4.590   5.843   7.953 -0.4089  0.8109 -0.5638
  251MOL0     C34566   4.637   5.040   7.763 -1.0045 -0.0657  0.1733
  251MOL0     C34567   4.603   4.937   7.681  1.2277  0.4878  0.7601
  251MOL0     C34568   4.727   4.868   7.612 -0.6496 -0.4486 -0.4330
  251MOL0     H34569   4.396   4.491   7.663 -1.2111  1.1874  3.3787
  251MOL0     H34570   4.298   4.284   7.617  1.0730  1.1209  1.5090
  251MOL0     H34571   3.919   4.295   7.328 -0.5831 -0.8716 -0.4643
  251MOL0     H34572   3.908   4.267   7.504  2.3205 -1.9481  1.2199
  251MOL0     H34573   3.994   4.027   7.468 -0.6634 -0.2428  1.1204
  251MOL0     H34574   3.832   4.079   7.462  1.7940 -0.5320  1.8335
  251MOL0     H34575   3.852   4.113   7.201 -2.2567 -1.6350 -0.3682
  251MOL0     H34576   4.012   4.023   7.215 -0.2346 -0.3503 -0.7735
  251MOL0     H34577   3.876   3.841   7.303  0.1520  0.3934 -0.6334
  251MOL0     H34578   3.730   3.923   7.301 -0.6594  3.2275 -0.6207
  251MOL0     H34579   3.786   3.764   7.096 -1.6119 -0.3920  2.6371
  251MOL0     H34580   3.901   3.890   7.042  0.8549  2.5834  0.3798
  251MOL0     H34581   3.598   3.901   7.063 -1.3300  0.2972 -1.0022
  251MOL0     H34582   3.690   4.044   7.010 -1.5901 -1.0764 -3.9972
  251MOL0     H34583   3.674   3.770   6.882  3.2861 -1.1017 -0.6983
  251MOL0     H34584   3.780   3.898   6.822  2.2174 -1.4906  1.7365
  251MOL0     H34585   3.565   3.893   6.687 -1.8189  0.0714 -0.4429
  251MOL0     H34586   3.469   3.918   6.825  0.0713 -0.1499 -0.7073
  251MOL0     H34587   3.492   4.205   6.913 -2.0976  3.3518 -2.4250
  251MOL0     H34588   3.731   4.403   6.917 -0.2967 -0.2323  0.6104
  251MOL0     H34589   3.583   4.475   6.851 -0.6453 -1.7009  1.3636
  251MOL0     H34590   3.784   4.603   6.783  3.3214 -1.1838  0.1818
  251MOL0     H34591   3.848   4.459   6.710  1.7545  0.3483  2.4555
  251MOL0     H34592   3.579   4.476   6.597  0.3546 -1.0334  2.1500
  251MOL0     H34593   3.635   4.647   6.626  0.9370  0.8446 -1.0150
  251MOL0     H34594   3.813   4.452   6.456  1.8062  0.4251 -3.7928
  251MOL0     H34595   3.681   4.541   6.396 -0.1553  0.3474 -0.1914
  251MOL0     H34596   4.015   4.451   6.457 -0.5147  0.8111  1.1516
  251MOL0     H34597   4.218   4.379   6.204 -0.0435  0.5319 -0.5577
  251MOL0     H34598   4.178   4.333   6.366 -0.3670 -0.6576 -2.5343
  251MOL0     H34599   4.334   4.431   6.332 -0.9999  2.0146  2.8568
  251MOL0     H34600   4.318   4.767   5.848  0.0595  0.7475  0.4303
  251MOL0     H34601   4.488   4.806   5.703 -1.1935  1.3238 -0.1674
  251MOL0     H34602   4.742   4.733   5.633 -2.2674  0.2140  1.5899
  251MOL0     H34603   4.656   4.875   5.588  0.5450 -1.0048 -1.9545
  251MOL0     H34604   4.965   4.869   5.605  0.4848  1.6558 -1.2538
  251MOL0     H34605   4.872   4.783   5.486  0.8225 -0.6547 -0.0788
  251MOL0     H34606   4.972   5.021   5.438 -0.1200 -3.7928 -2.3420
  251MOL0     H34607   4.826   5.086   5.532  0.5235 -1.2830  3.0094
  251MOL0     H34608   4.695   4.931   5.348 -1.4353  0.2339  1.1956
  251MOL0     H34609   4.862   4.932   5.272 -1.5764 -0.1100 -0.2492
  251MOL0     H34610   4.676   5.158   5.343 -0.1066  1.3855 -0.9017
  251MOL0     H34611   4.840   5.188   5.295  0.5230 -1.2168  4.6896
  251MOL0     H34612   4.803   5.100   5.081  0.7534  2.1223 -0.0108
  251MOL0     H34613   4.686   5.224   5.117 -0.8489  0.2734  0.7637
  251MOL0     H34614   4.502   5.078   5.110  0.2038  0.8475 -0.2287
  251MOL0     H34615   4.588   4.938   5.174  2.4563 -0.4463  0.7934
  251MOL0     H34616   4.521   4.900   4.937  1.3628 -1.6716  1.1620
  251MOL0     H34617   4.699   4.921   4.949  1.0314  0.8887  2.9848
  251MOL0     H34618   4.741   4.920   6.025  0.1089 -0.9348  1.2017
  251MOL0     H34619   4.571   4.866   6.187  1.2586 -4.3980 -0.1930
  251MOL0     H34620   4.146   4.877   6.259 -1.1319 -0.1130 -0.8232
  251MOL0     H34621   3.950   4.870   6.414  2.6859  1.5375  0.4038
  251MOL0     H34622   4.021   4.507   7.349 -0.1207  2.7742  0.1698
  251MOL0     H34623   4.120   4.705   7.403  0.6182  1.7033  0.1750
  251MOL0     H34624   4.263   4.965   7.733 -0.4582 -1.3936  1.0627
  251MOL0     H34625   4.330   5.153   7.852 -2.4168 -1.2028 -1.3071
  251MOL0     H34626   4.430   5.350   7.867  1.3681  1.9244 -0.1400
  251MOL0     H34627   4.423   5.288   8.041  0.2634  2.3281 -0.5125
  251MOL0     H34628   4.577   5.515   7.911  0.2602  2.4169  2.8121
  251MOL0     H34629   4.636   5.433   8.057  0.6529  2.7337  0.7956
  251MOL0     H34630   4.355   5.570   8.017  1.1742  3.7679  1.2571
  251MOL0     H34631   4.412   5.486   8.168 -0.7390 -0.8747  1.0210
  251MOL0     H34632   4.600   5.641   8.198  2.2364  1.3676 -1.3615
  251MOL0     H34633   4.458   5.744   8.190  2.4129  3.2308 -1.4876
  251MOL0     H34634   4.619   5.923   7.888 -0.0008  1.0893 -0.0464
  251MOL0     H34635   4.743   5.067   7.763 -1.2933  1.1717 -1.1423
  251MOL0     H34636   4.814   4.932   7.629 -0.4573 -0.5686 -0.9653
  251MOL0     H34637   4.744   4.779   7.673  1.2226 -0.5299 -1.0018
  251MOL0     H34638   4.714   4.849   7.505  0.2206  2.4568 -1.1458
  252MOL0     O34639   3.689   6.646   0.648  0.4007 -0.6991 -0.8950
  252MOL0     C34640   3.569   6.655   0.604 -0.2369 -0.3327 -0.6269
  252MOL0     O34641   3.521   6.757   0.526  0.1856  0.1354 -0.4229
  252MOL0     C34642   3.626   6.838   0.479 -0.0883 -0.1710 -0.4542
  252MOL0     C34643   3.704   6.912   0.573 -1.0741 -0.4935 -0.2436
  252MOL0     C34644   3.793   7.010   0.525  0.8373 -0.1491  0.9287
  252MOL0     C34645   3.823   7.011   0.382  0.5663 -0.2090  0.3641
  252MOL0     O34646   3.906   7.103   0.322  0.2607 -0.7791  0.5217
  252MOL0     C34647   4.046   7.077   0.348 -0.4256  0.7711  0.0798
  252MOL0     C34648   4.120   7.210   0.325 -0.9880  0.1943  0.0899
  252MOL0     C34649   4.083   7.319   0.415 -0.1941  0.5628 -0.5110
  252MOL0     C34650   4.159   7.444   0.370  0.3304  0.6404 -0.2016
  252MOL0     C34651   4.175   7.542   0.493  0.1771 -0.3090  0.0414
  252MOL0     C34652   4.042   7.587   0.558 -0.1570 -0.4900 -1.1186
  252MOL0     C34653   4.069   7.682   0.678 -0.4227 -0.1818 -0.6521
  252MOL0     C34654   4.043   7.829   0.646  0.7674 -0.0275 -0.0209
  252MOL0     N34655   4.167   7.875   0.586 -0.9970 -0.1982  0.2746
  252MOL0     C34656   4.185   7.872   0.449 -0.3042  0.1644  0.8883
  252MOL0     C34657   4.309   7.922   0.437 -0.8231  0.8785  0.4545
  252MOL0     C34658   4.387   7.937   0.306  0.1514  0.1310 -0.0482
  252MOL0     C34659   4.396   8.078   0.263 -0.2976 -0.3715  1.2505
  252MOL0     C34660   4.465   8.085   0.126 -0.4534  0.4731 -0.0396
  252MOL0     C34661   4.615   8.050   0.124  0.5913  0.7075 -0.5818
  252MOL0     O34662   4.699   8.142   0.193 -0.4294 -0.2273 -0.3629
  252MOL0     C34663   4.750   8.238   0.112  0.2290  0.5785 -0.1932
  252MOL0     C34664   4.691   8.366   0.079 -1.0293  0.3019 -0.1579
  252MOL0     C34665   4.758   8.447  -0.014 -0.1395 -1.1541  0.1299
  252MOL0     C34666   4.687   8.579  -0.041 -0.5566  0.7466 -0.3478
  252MOL0     C34667   4.881   8.408  -0.068 -0.2095 -0.6106  0.5173
  252MOL0     C34668   4.954   8.485  -0.178 -0.3315 -0.2393  0.3967
  252MOL0     O34669   5.087   8.452  -0.193 -0.5083  0.9715 -0.4655
  252MOL0     C34670   5.156   8.515  -0.290 -0.0538 -0.4208 -0.6877
  252MOL0     C34671   5.262   8.446  -0.351 -0.8065 -0.7002 -0.0176
  252MOL0     C34672   5.358   8.503  -0.434 -0.4326 -0.3990 -0.5360
  252MOL0     C34673   5.350   8.643  -0.451 -0.0230  0.0607 -1.0286
  252MOL0     O34674   5.443   8.701  -0.513 -0.6328 -0.8479  0.1687
  252MOL0     C34675   5.429   8.678  -0.651 -0.4418 -0.8114 -0.2683
  252MOL0     C34676   5.442   8.804  -0.731 -0.1143 -0.4620 -0.7583
  252MOL0     C34677   5.563   8.891  -0.697 -0.0586  0.3888  0.2237
  252MOL0     C34678   5.594   9.010  -0.784  0.3879 -0.0027 -0.0471
  252MOL0     C34679   5.653   8.978  -0.922 -0.9478  0.3268  0.0835
  252MOL0     C34680   5.784   8.893  -0.912  0.1935  0.0311  0.3451
  252MOL0     C34681   5.855   8.891  -1.055  1.1777 -0.6608  0.3709
  252MOL0     C34682   5.910   8.748  -1.088  0.2465  0.5771 -0.0773
  252MOL0    Cl34683   5.775   8.618  -1.113 -0.4907 -0.1698 -0.1378
  252MOL0     C34684   5.246   8.712  -0.380 -0.6474 -0.0616  0.4738
  252MOL0     C34685   5.154   8.656  -0.310 -0.4642  0.4087 -0.1458
  252MOL0     O34686   4.895   8.560  -0.259  0.3475  0.3714  0.1383
  252MOL0     C34687   4.937   8.288  -0.024 -0.1828  0.7137  0.1906
  252MOL0     C34688   4.881   8.201   0.068  0.1038  0.0864 -0.2646
  252MOL0     N34689   4.353   7.972   0.566 -0.2663  0.7066  0.2542
  252MOL0     N34690   4.265   7.941   0.660  0.8056 -0.3883  0.4267
  252MOL0     C34691   3.734   6.946   0.289 -0.0853 -1.0229 -0.0590
  252MOL0     C34692   3.640   6.857   0.340 -0.4780  0.4058  0.1107
  252MOL0     C34693   3.482   6.535   0.628  0.3081 -0.2400  0.7991
  252MOL0     C34694   3.362   6.533   0.557  1.1563  0.0130  0.4139
  252MOL0     C34695   3.262   6.426   0.582 -0.6040 -0.2628 -0.3414
  252MOL0     C34696   3.296   6.322   0.665  1.3932  0.0494  0.2226
  252MOL0     O34697   3.214   6.214   0.665  0.7631  0.2042 -0.4852
  252MOL0     C34698   3.261   6.108   0.578  0.5529  0.3732 -0.2381
  252MOL0     C34699   3.156   6.068   0.477  0.4210  0.0094 -1.0921
  252MOL0     C34700   3.097   6.190   0.397  0.2344 -0.1237 -1.2147
  252MOL0     C34701   3.011   6.131   0.282 -0.1658  0.3070  0.7237
  252MOL0     C34702   2.884   6.080   0.317  0.0172  0.4927 -0.9785
  252MOL0     C34703   2.770   6.041   0.336  0.3627  0.8544 -0.3241
  252MOL0     C34704   3.418   6.321   0.726  0.5137  0.5823 -0.0418
  252MOL0     C34705   3.508   6.426   0.720 -0.7350  0.2475  0.3407
  252MOL0     C34706   3.623   6.422   0.817 -0.8732  0.4886 -0.2658
  252MOL0     H34707   3.689   6.910   0.680 -1.6138  3.5097 -0.1006
  252MOL0     H34708   3.838   7.071   0.603 -0.8806  0.8429  1.2182
  252MOL0     H34709   4.081   7.002   0.276 -3.9773  0.3925 -1.4802
  252MOL0     H34710   4.045   7.038   0.450 -1.8967  3.0649  1.0313
  252MOL0     H34711   4.227   7.194   0.340 -0.7948 -1.8397 -2.7026
  252MOL0     H34712   4.104   7.251   0.225  0.5359  1.7512  0.4462
  252MOL0     H34713   3.976   7.336   0.396  0.4618  2.9768 -2.6818
  252MOL0     H34714   4.103   7.299   0.521  1.4432 -3.3255 -1.3753
  252MOL0     H34715   4.259   7.416   0.335  0.7099 -0.2872  1.5143
  252MOL0     H34716   4.100   7.498   0.295  0.1533 -0.4613 -0.8675
  252MOL0     H34717   4.238   7.628   0.471 -2.8736  2.5575  1.6546
  252MOL0     H34718   4.229   7.496   0.577  0.7135 -0.5151 -0.4147
  252MOL0     H34719   3.989   7.653   0.489  0.1169  1.0457  0.0808
  252MOL0     H34720   3.984   7.500   0.591  0.7815 -0.0519  2.1009
  252MOL0     H34721   4.166   7.663   0.725  1.4990  1.2898 -3.7055
  252MOL0     H34722   3.997   7.665   0.759  0.6911  0.7653  0.5869
  252MOL0     H34723   3.965   7.857   0.574  0.0931  1.1627  1.1239
  252MOL0     H34724   4.029   7.880   0.742  0.0624 -2.6998  1.3934
  252MOL0     H34725   4.122   7.834   0.369  0.1885  1.8121 -0.3203
  252MOL0     H34726   4.350   7.873   0.226 -0.6572  1.0633 -0.4427
  252MOL0     H34727   4.493   7.913   0.323 -0.0006 -0.4430  0.0908
  252MOL0     H34728   4.292   8.112   0.260 -0.4793 -0.4677  3.9074
  252MOL0     H34729   4.456   8.138   0.333  1.4643 -2.0674  1.2966
  252MOL0     H34730   4.412   8.023   0.053  2.1484 -1.6488 -0.2526
  252MOL0     H34731   4.464   8.185   0.081 -1.5972  1.3825  1.8701
  252MOL0     H34732   4.639   7.948   0.158  1.4961  1.4522  1.0979
  252MOL0     H34733   4.641   8.050   0.018  4.0179  1.9362  0.1241
  252MOL0     H34734   4.595   8.390   0.124 -0.9026 -3.1517  2.3870
  252MOL0     H34735   4.630   8.567  -0.133 -2.6227 -1.0077  1.0495
  252MOL0     H34736   4.754   8.665  -0.055  1.9889 -1.0124  0.3903
  252MOL0     H34737   4.616   8.606   0.039  0.2975  2.8501 -0.2200
  252MOL0     H34738   5.273   8.341  -0.327  2.0224 -0.4101  0.2712
  252MOL0     H34739   5.434   8.449  -0.489 -1.4149 -0.0859 -2.2632
  252MOL0     H34740   5.516   8.616  -0.676 -0.3779 -1.3180  1.1114
  252MOL0     H34741   5.342   8.629  -0.696 -0.7123  1.1257 -1.9859
  252MOL0     H34742   5.453   8.782  -0.837 -0.9525  2.0323 -1.4250
  252MOL0     H34743   5.350   8.863  -0.717 -1.4212 -2.6026  0.2553
  252MOL0     H34744   5.649   8.823  -0.697 -1.5102 -1.5477  1.0921
  252MOL0     H34745   5.549   8.927  -0.595  2.7372 -1.2956  1.3066
  252MOL0     H34746   5.671   9.070  -0.733  0.0103 -0.3946  1.0251
  252MOL0     H34747   5.504   9.067  -0.809  1.9507  1.3753 -3.0048
  252MOL0     H34748   5.575   8.929  -0.980 -4.0344  3.5191  1.1786
  252MOL0     H34749   5.663   9.076  -0.969 -1.6065  0.9286  1.1461
  252MOL0     H34750   5.752   8.793  -0.883 -0.7324 -1.0071 -3.7297
  252MOL0     H34751   5.857   8.925  -0.836  0.4008  0.5702 -0.0761
  252MOL0     H34752   5.930   8.971  -1.057 -0.8488  1.4548  2.6380
  252MOL0     H34753   5.786   8.920  -1.135  1.7935  0.2470  0.1572
  252MOL0     H34754   5.966   8.721  -0.999 -0.9698  0.8796  0.8084
  252MOL0     H34755   5.974   8.762  -1.175  1.6710  1.1525  1.0251
  252MOL0     H34756   5.246   8.821  -0.378 -2.3711 -0.0395  0.2779
  252MOL0     H34757   5.080   8.720  -0.263  0.1051  0.8024  0.2260
  252MOL0     H34758   5.033   8.252  -0.059 -0.7811 -1.3940  0.5890
  252MOL0     H34759   4.908   8.100   0.097 -0.4252 -0.3809 -1.3336
  252MOL0     H34760   3.747   6.958   0.182  0.6562 -2.1498 -0.1169
  252MOL0     H34761   3.579   6.785   0.286  0.7224  0.0246 -0.7896
  252MOL0     H34762   3.338   6.607   0.481  1.2703  0.3388  0.6944
  252MOL0     H34763   3.174   6.417   0.519  0.1189 -0.2872 -1.3715
  252MOL0     H34764   3.350   6.138   0.520  0.5939  0.1748 -0.2785
  252MOL0     H34765   3.293   6.026   0.642 -0.7283 -1.3068 -1.6731
  252MOL0     H34766   3.077   6.031   0.542 -0.2953  0.3879 -1.7411
  252MOL0     H34767   3.185   5.984   0.413 -1.2694 -3.1798  1.9730
  252MOL0     H34768   3.043   6.263   0.457 -1.6981 -3.7996  1.9858
  252MOL0     H34769   3.181   6.245   0.355  0.6606 -0.5145 -0.8966
  252MOL0     H34770   3.066   6.045   0.243 -0.0211 -0.5328  2.6335
  252MOL0     H34771   2.997   6.205   0.202 -2.5341 -2.1684 -1.3216
  252MOL0     H34772   2.672   6.017   0.373 -0.1229  0.9033 -1.5431
  252MOL0     H34773   3.431   6.247   0.805 -2.1601 -0.8764 -0.8425
  252MOL0     H34774   3.715   6.440   0.760 -1.2845 -0.9797 -1.4481
  252MOL0     H34775   3.611   6.499   0.894 -0.2433  0.1874  0.1425
  252MOL0     H34776   3.621   6.328   0.873  0.1967 -0.6564 -2.0484
  253MOL0     O34777   7.596   0.587   6.261 -0.2451 -0.2543 -0.3236
  253MOL0     C34778   7.586   0.497   6.176 -0.5491  0.8896  0.1710
  253MOL0     O34779   7.499   0.497   6.068  0.0546  0.2612  0.2636
  253MOL0     C34780   7.378   0.571   6.082  0.1360 -0.0407  0.0370
  253MOL0     C34781   7.363   0.712   6.077 -0.3993  0.2522 -0.1041
  253MOL0     C34782   7.233   0.758   6.094  0.4373 -0.4784 -0.4374
  253MOL0     C34783   7.122   0.676   6.113 -0.6104  0.9529  0.1844
  253MOL0     O34784   7.004   0.738   6.135  0.0775 -0.6439  0.4986
  253MOL0     C34785   6.893   0.681   6.198 -0.8590 -0.0609  0.0923
  253MOL0     C34786   6.781   0.672   6.089  0.4611 -0.4639 -0.8030
  253MOL0     C34787   6.646   0.625   6.155  0.3000  0.6424  0.0790
  253MOL0     C34788   6.527   0.604   6.066  0.5726  0.2722  0.3754
  253MOL0     C34789   6.399   0.538   6.124  0.0150  0.2118 -0.2632
  253MOL0     C34790   6.328   0.612   6.236 -0.0031 -1.3585  0.7587
  253MOL0     C34791   6.307   0.771   6.193  0.1938  1.0792  0.4641
  253MOL0     C34792   6.195   0.845   6.276  0.9167  0.1052  0.4040
  253MOL0     N34793   6.223   0.830   6.422  0.8723 -0.9993  0.2362
  253MOL0     C34794   6.124   0.768   6.500 -0.2651 -0.7239  0.9190
  253MOL0     C34795   6.160   0.807   6.623  0.0694 -0.8292 -0.6304
  253MOL0     C34796   6.072   0.782   6.737  0.1092  1.2117 -0.3904
  253MOL0     C34797   6.122   0.649   6.809  0.0928 -0.3173 -0.2280
  253MOL0     C34798   6.108   0.520   6.712  1.4583 -0.4791  0.0295
  253MOL0     C34799   6.169   0.397   6.774 -0.4888  0.9110  0.8429
  253MOL0     O34800   6.159   0.281   6.694  0.3123  0.4427  0.0706
  253MOL0     C34801   6.240   0.253   6.591  0.0502  0.7550 -0.1236
  253MOL0     C34802   6.223   0.142   6.506 -0.8417 -0.6324  0.4247
  253MOL0     C34803   6.319   0.105   6.406 -0.2330 -0.5854  0.0655
  253MOL0     C34804   6.299  -0.024   6.336  0.4509 -0.1010  0.1028
  253MOL0     C34805   6.430   0.194   6.382 -0.3065 -0.0870  0.0480
  253MOL0     C34806   6.547   0.162   6.299  0.3682 -0.3745 -0.5043
  253MOL0     O34807   6.657   0.235   6.317 -0.1963 -0.8193  0.1148
  253MOL0     C34808   6.766   0.215   6.243 -0.2392  0.2663 -0.9927
  253MOL0     C34809   6.751   0.266   6.116 -0.5891 -0.3213 -0.4482
  253MOL0     C34810   6.870   0.264   6.035  0.7700  0.2523 -0.2439
  253MOL0     C34811   6.990   0.210   6.085  0.4126 -0.4585  0.2178
  253MOL0     O34812   7.103   0.204   6.003  0.0137 -0.1858  0.8243
  253MOL0     C34813   7.084   0.128   5.887 -1.2356  1.1313  0.4957
  253MOL0     C34814   7.214   0.136   5.808 -0.6876  0.4847  0.3032
  253MOL0     C34815   7.324   0.051   5.868 -0.0818  0.0840 -0.3899
  253MOL0     C34816   7.397   0.116   5.995  1.1321  1.0492 -0.7720
  253MOL0     C34817   7.524   0.039   6.042  0.5350  0.2420 -0.5455
  253MOL0     C34818   7.485  -0.100   6.074  2.0254 -0.2360 -0.2805
  253MOL0     C34819   7.591  -0.157   6.162 -0.2146  0.4012 -0.6228
  253MOL0     C34820   7.694  -0.224   6.070 -0.0268  0.3256 -0.3143
  253MOL0    Cl34821   7.841  -0.278   6.145  0.3921 -0.1434 -0.1562
  253MOL0     C34822   6.992   0.149   6.207 -0.3941  0.1995 -0.2706
  253MOL0     C34823   6.881   0.157   6.295 -0.3515  0.2827  0.9505
  253MOL0     O34824   6.536   0.062   6.226  1.0714  0.5814  0.3643
  253MOL0     C34825   6.435   0.313   6.458 -0.0667  0.0624 -0.0396
  253MOL0     C34826   6.348   0.336   6.565 -0.5166 -0.3281  0.0076
  253MOL0     N34827   6.269   0.893   6.618 -0.3378  0.6744 -0.6474
  253MOL0     N34828   6.306   0.905   6.496  0.6549 -0.1260 -0.7955
  253MOL0     C34829   7.135   0.542   6.109 -0.0321  0.4671 -0.7918
  253MOL0     C34830   7.261   0.490   6.093 -0.3099 -0.1400 -0.0340
  253MOL0     C34831   7.689   0.391   6.201  0.1736  0.7585 -1.0808
  253MOL0     C34832   7.715   0.355   6.336  0.3252 -0.0811  0.1167
  253MOL0     C34833   7.803   0.257   6.367  0.5718  0.0626  0.4249
  253MOL0     C34834   7.861   0.174   6.263 -0.2504 -0.0255 -0.2952
  253MOL0     O34835   7.951   0.075   6.294 -0.3876  0.1752 -0.2859
  253MOL0     C34836   7.972   0.031   6.430  0.5628 -0.6636  0.5254
  253MOL0     C34837   7.860  -0.064   6.485  1.0378  0.0012  0.3113
  253MOL0     C34838   7.901  -0.108   6.630  0.3293  0.4965  0.5703
  253MOL0     C34839   7.808  -0.210   6.686  0.2857  0.0241  0.1473
  253MOL0     C34840   7.802  -0.190   6.832 -0.3232  0.5859 -0.2704
  253MOL0     C34841   7.789  -0.195   6.948 -0.2325  0.6607 -0.1942
  253MOL0     C34842   7.834   0.205   6.132 -0.4607  0.2252 -0.5329
  253MOL0     C34843   7.748   0.306   6.099 -0.0326 -0.6379 -0.0436
  253MOL0     C34844   7.725   0.325   5.950 -0.3302 -0.9919 -0.0165
  253MOL0     H34845   7.447   0.776   6.053 -0.5747 -0.2526 -2.2534
  253MOL0     H34846   7.213   0.863   6.078 -1.2404 -0.6155  0.4970
  253MOL0     H34847   6.859   0.753   6.273 -4.0487 -0.1528 -1.1304
  253MOL0     H34848   6.914   0.588   6.252  1.8123  0.1991 -0.3279
  253MOL0     H34849   6.771   0.765   6.032 -1.1571 -1.6454 -2.5598
  253MOL0     H34850   6.810   0.586   6.028 -2.4095 -2.5154  0.5048
  253MOL0     H34851   6.655   0.532   6.211 -3.7883 -2.1437 -3.2836
  253MOL0     H34852   6.618   0.706   6.224 -1.9180 -0.9840  1.2391
  253MOL0     H34853   6.510   0.700   6.018  0.0823  1.1738  2.2715
  253MOL0     H34854   6.547   0.534   5.985  0.4527 -1.0193  1.4138
  253MOL0     H34855   6.434   0.439   6.153 -0.9446  0.1357  0.7034
  253MOL0     H34856   6.325   0.513   6.048  0.2980 -0.2809 -0.3789
  253MOL0     H34857   6.235   0.559   6.261 -1.0377 -0.0861 -0.2503
  253MOL0     H34858   6.387   0.610   6.327  1.0536 -1.9007  0.0824
  253MOL0     H34859   6.279   0.784   6.088 -2.4323  1.3419  1.1232
  253MOL0     H34860   6.403   0.821   6.205 -0.9731  3.3240  0.9917
  253MOL0     H34861   6.189   0.948   6.243  0.3680  0.1509  0.6195
  253MOL0     H34862   6.095   0.810   6.248  1.8206  0.6235 -4.1417
  253MOL0     H34863   6.031   0.716   6.480 -1.7863  2.0089  0.4556
  253MOL0     H34864   5.969   0.770   6.700 -0.2608 -0.6427  1.0913
  253MOL0     H34865   6.085   0.862   6.810  1.9482 -2.2039  3.3832
  253MOL0     H34866   6.229   0.653   6.829 -0.0513 -1.2942  0.8652
  253MOL0     H34867   6.067   0.628   6.901  0.2932  1.1824  0.2533
  253MOL0     H34868   6.003   0.506   6.684  1.6440  1.5698 -2.0117
  253MOL0     H34869   6.160   0.556   6.622 -1.6909  2.7459 -0.7526
  253MOL0     H34870   6.272   0.418   6.805 -0.2357  0.7342  0.1489
  253MOL0     H34871   6.113   0.369   6.864 -0.8751  1.6496  0.8361
  253MOL0     H34872   6.136   0.085   6.535 -1.5742  0.8087  1.1606
  253MOL0     H34873   6.218  -0.077   6.386  1.0026  0.5581  1.7494
  253MOL0     H34874   6.383  -0.094   6.333 -0.5382 -1.6334  3.5063
  253MOL0     H34875   6.279   0.007   6.233  0.6960  0.0453  0.0975
  253MOL0     H34876   6.660   0.306   6.073 -1.2363  0.0041  1.1608
  253MOL0     H34877   6.876   0.312   5.939 -3.5382  2.6982  0.4419
  253MOL0     H34878   7.055   0.025   5.908 -0.4642  0.6057 -0.8541
  253MOL0     H34879   6.998   0.159   5.827 -1.9554 -1.3025  0.1594
  253MOL0     H34880   7.194   0.099   5.707  0.5511 -2.6008  1.0564
  253MOL0     H34881   7.246   0.240   5.807  1.5992 -0.1500 -1.3636
  253MOL0     H34882   7.402   0.046   5.791  0.4538 -4.2337  0.1744
  253MOL0     H34883   7.291  -0.051   5.885  2.7747 -0.7864  0.5644
  253MOL0     H34884   7.325   0.124   6.077  1.4809  2.0261 -0.5382
  253MOL0     H34885   7.414   0.222   5.974  1.7055  1.1655  0.1960
  253MOL0     H34886   7.604   0.040   5.967  1.4175  0.2259  0.3752
  253MOL0     H34887   7.563   0.085   6.133  0.8376 -1.2427  0.0968
  253MOL0     H34888   7.469  -0.151   5.979  0.5535 -0.4484  0.0548
  253MOL0     H34889   7.388  -0.098   6.125  0.7058 -1.4069 -2.6226
  253MOL0     H34890   7.548  -0.233   6.228  1.6935  0.3035  0.5607
  253MOL0     H34891   7.639  -0.080   6.222  0.6275  0.1037 -0.8932
  253MOL0     H34892   7.727  -0.154   5.992  2.9112 -1.5916 -0.9509
  253MOL0     H34893   7.660  -0.321   6.033  2.4593 -1.3497  1.4322
  253MOL0     H34894   7.083   0.091   6.220  0.3348  1.3416 -0.1084
  253MOL0     H34895   6.883   0.125   6.398  0.9397  1.4360  1.3229
  253MOL0     H34896   6.516   0.380   6.431  1.0338 -0.3135  2.0967
  253MOL0     H34897   6.366   0.432   6.613  0.0890 -0.2156 -0.4413
  253MOL0     H34898   7.053   0.471   6.119  0.7810 -0.3064  0.8533
  253MOL0     H34899   7.287   0.384   6.099  0.2316  0.0129  0.5324
  253MOL0     H34900   7.673   0.406   6.422  1.3630 -0.7079  1.0295
  253MOL0     H34901   7.822   0.252   6.474  1.0700 -2.3967  0.2682
  253MOL0     H34902   8.072  -0.015   6.431 -0.0966 -2.1696  2.1811
  253MOL0     H34903   7.976   0.122   6.490 -3.6351 -0.4958  0.8306
  253MOL0     H34904   7.862  -0.143   6.410 -0.8225 -0.9884  1.2475
  253MOL0     H34905   7.758  -0.025   6.485  0.6256 -1.0676  0.6490
  253MOL0     H34906   8.006  -0.140   6.628  0.8529  2.1446 -0.2026
  253MOL0     H34907   7.900  -0.026   6.704 -1.2157 -0.1308  1.2743
  253MOL0     H34908   7.835  -0.312   6.657 -0.2172  0.6211 -2.7565
  253MOL0     H34909   7.709  -0.191   6.644 -1.0920 -0.3258  2.9989
  253MOL0     H34910   7.792  -0.197   7.055  0.7355  1.2518 -0.2022
  253MOL0     H34911   7.891   0.146   6.062  1.5949  1.1061  0.3303
  253MOL0     H34912   7.751   0.429   5.932  3.3386 -1.9324 -0.8769
  253MOL0     H34913   7.778   0.266   5.875 -0.5580 -1.6216  0.3083
  253MOL0     H34914   7.620   0.303   5.930 -0.3621 -0.8079 -0.0547
  254MOL0     O34915   7.079   9.396   1.661 -0.8773  0.3951  0.7704
  254MOL0     C34916   7.053   9.310   1.750  0.2426 -0.7753 -0.0302
  254MOL0     O34917   7.143   9.244   1.821  0.2974  0.4995  0.4325
  254MOL0     C34918   7.279   9.260   1.818 -1.2938  0.1604  0.1794
  254MOL0     C34919   7.343   9.385   1.831  0.1354 -0.1869  0.2522
  254MOL0     C34920   7.479   9.394   1.819 -0.4683 -0.8031 -0.3757
  254MOL0     C34921   7.560   9.279   1.812 -0.0920  0.7943 -0.8734
  254MOL0     O34922   7.689   9.271   1.817 -0.7629  0.3886  0.0328
  254MOL0     C34923   7.775   9.396   1.807  0.1917 -0.3844 -0.2894
  254MOL0     C34924   7.926   9.372   1.816  0.1608  0.5407  0.0723
  254MOL0     C34925   7.959   9.335   1.961 -0.4318  0.2015  0.4813
  254MOL0     C34926   8.106   9.273   1.970 -0.1897 -0.1573 -0.1376
  254MOL0     C34927   8.121   9.179   2.093  0.3676 -0.1918  0.2024
  254MOL0     C34928   8.241   9.085   2.080  0.7296  1.4744 -0.4821
  254MOL0     C34929   8.377   9.140   2.038  0.7470  0.7007  0.2169
  254MOL0     C34930   8.486   9.044   2.072 -0.5422  0.5185 -0.2728
  254MOL0     N34931   8.609   9.098   2.023 -0.5234 -0.9071  0.1543
  254MOL0     C34932   8.663   9.224   2.042 -0.3672 -0.2482 -0.6123
  254MOL0     C34933   8.782   9.223   1.978  0.4045 -0.8980  0.8134
  254MOL0     C34934   8.882   9.334   1.977  0.1849 -0.3046  0.2545
  254MOL0     C34935   8.828   9.466   2.012 -0.5798 -0.5216 -0.4623
  254MOL0     C34936   8.931   9.579   2.006 -1.2021 -0.3803  0.6836
  254MOL0     C34937   8.977   9.635   1.865 -0.0117 -0.2468 -0.6829
  254MOL0     O34938   9.022   9.536   1.780 -0.4624 -0.2503  0.1415
  254MOL0     C34939   9.096   9.566   1.667 -0.4534  0.8803 -0.3632
  254MOL0     C34940   9.095   9.695   1.604 -0.3580  0.7551 -0.4572
  254MOL0     C34941   9.171   9.710   1.490 -0.1073  0.9164 -1.5877
  254MOL0     C34942   9.152   9.848   1.419  0.4227  0.1496 -0.3078
  254MOL0     C34943   9.251   9.602   1.444 -0.3559  0.8677 -0.4415
  254MOL0     C34944   9.332   9.605   1.317 -0.5455  0.1166 -1.1911
  254MOL0     O34945   9.346   9.728   1.251 -0.5146  0.1741  0.8432
  254MOL0     C34946   9.426   9.740   1.140  0.1825  0.0034 -0.6847
  254MOL0     C34947   9.566   9.776   1.154 -0.5453  0.3694 -0.0892
  254MOL0     C34948   9.642   9.799   1.034 -1.0388 -0.3905  0.1331
  254MOL0     C34949   9.588   9.795   0.907  0.2143 -0.3975  0.0374
  254MOL0     O34950   9.671   9.830   0.807  0.0245  0.1583 -0.3826
  254MOL0     C34951   9.643   9.857   0.672  0.1362  0.3433 -0.0541
  254MOL0     C34952   9.580   9.993   0.634 -0.0445 -0.0503 -0.3140
  254MOL0     C34953   9.680  10.116   0.636 -0.0499  0.3324  0.1916
  254MOL0     C34954   9.750  10.157   0.768  0.0657 -0.3830  0.4335
  254MOL0     C34955   9.658  10.196   0.894  0.0796  0.1934  0.0663
  254MOL0     C34956   9.741  10.243   1.011 -0.1817  0.3289  0.1235
  254MOL0     C34957   9.833  10.129   1.052 -0.8429  0.0254  0.1390
  254MOL0     C34958   9.901  10.151   1.191  1.1799 -0.3745 -0.0588
  254MOL0    Cl34959   9.792  10.089   1.317 -0.3150 -0.3165  0.1208
  254MOL0     C34960   9.450   9.766   0.894 -0.9946 -0.0022  0.0032
  254MOL0     C34961   9.375   9.741   1.010  0.2097  0.2448 -0.3285
  254MOL0     O34962   9.409   9.510   1.306 -0.0378  0.4798  0.7195
  254MOL0     C34963   9.252   9.477   1.512 -0.6036  0.2692 -0.1925
  254MOL0     C34964   9.166   9.462   1.618 -1.3487 -0.0038  0.5169
  254MOL0     N34965   8.796   9.092   1.925  0.2705 -0.3541  0.2131
  254MOL0     N34966   8.695   9.015   1.953 -0.2719 -0.0595 -0.1798
  254MOL0     C34967   7.494   9.153   1.794  0.1428 -0.1598 -0.0390
  254MOL0     C34968   7.355   9.148   1.787 -1.0265 -0.7418 -0.0997
  254MOL0     C34969   6.913   9.281   1.793  0.4835  0.7737  1.0226
  254MOL0     C34970   6.883   9.156   1.863  0.1064 -1.4494  0.0163
  254MOL0     C34971   6.754   9.133   1.905  0.0280 -0.6881  0.1970
  254MOL0     C34972   6.651   9.226   1.878 -0.8064 -0.5069  0.5903
  254MOL0     O34973   6.520   9.214   1.910 -0.2731  0.1265  0.1232
  254MOL0     C34974   6.475   9.101   1.991 -0.2179  0.1901  0.2719
  254MOL0     C34975   6.328   9.136   2.009  0.1679 -1.0832 -0.3318
  254MOL0     C34976   6.237   9.043   2.079  0.0393 -0.4287  0.1861
  254MOL0     C34977   6.124   8.995   1.993  0.0285 -0.4452 -0.1775
  254MOL0     C34978   6.042   9.117   1.968 -0.3653  0.8265 -0.2514
  254MOL0     C34979   5.964   9.216   1.960  0.1770  0.4023 -0.4204
  254MOL0     C34980   6.685   9.344   1.805  0.2463 -0.0028 -0.4310
  254MOL0     C34981   6.812   9.372   1.761  0.6685  0.4833  1.6284
  254MOL0     C34982   6.828   9.497   1.670 -0.5365  0.1648 -0.7734
  254MOL0     H34983   7.284   9.475   1.846  0.1671 -0.4692  2.3816
  254MOL0     H34984   7.526   9.491   1.829  1.7549 -1.9700  1.6766
  254MOL0     H34985   7.738   9.462   1.887 -1.9823 -2.7927  0.8808
  254MOL0     H34986   7.751   9.434   1.708  1.1107 -1.3074 -0.8862
  254MOL0     H34987   7.947   9.286   1.752 -0.9105  0.4960 -0.2421
  254MOL0     H34988   7.975   9.464   1.783 -0.3693  0.3876 -1.1838
  254MOL0     H34989   7.949   9.419   2.030  0.0321 -0.4806  1.3960
  254MOL0     H34990   7.900   9.251   1.997 -1.1072  0.2444 -0.4890
  254MOL0     H34991   8.125   9.206   1.885 -4.4516  0.5713 -1.9487
  254MOL0     H34992   8.183   9.350   1.973 -0.5015  0.2217 -1.3553
  254MOL0     H34993   8.030   9.118   2.098  0.2665  0.0374  1.7221
  254MOL0     H34994   8.128   9.251   2.175  0.4186  0.8914 -0.7339
  254MOL0     H34995   8.256   9.042   2.179 -0.4578  2.7565  0.2771
  254MOL0     H34996   8.212   9.001   2.015 -1.0974  1.8826 -0.2650
  254MOL0     H34997   8.403   9.230   2.095  2.6934  0.5811 -0.4280
  254MOL0     H34998   8.374   9.169   1.933 -1.0886 -2.8656 -0.8931
  254MOL0     H34999   8.496   9.044   2.181 -2.4140  2.0285 -0.0598
  254MOL0     H35000   8.477   8.941   2.034  0.8354 -0.9739  3.0366
  254MOL0     H35001   8.631   9.313   2.096  1.8705  2.7584 -3.7878
  254MOL0     H35002   8.919   9.345   1.874 -1.1252  2.2878 -0.0325
  254MOL0     H35003   8.966   9.308   2.041  0.0759 -0.6952  0.2383
  254MOL0     H35004   8.743   9.489   1.947 -0.9784  3.0398  1.0909
  254MOL0     H35005   8.804   9.460   2.118  2.5460  0.3356  0.4059
  254MOL0     H35006   8.884   9.664   2.056 -0.1329  0.7585 -0.2167
  254MOL0     H35007   9.016   9.550   2.069 -0.8159  1.1151  0.8923
  254MOL0     H35008   8.888   9.687   1.828 -0.8972 -0.1400  1.4863
  254MOL0     H35009   9.055   9.710   1.885 -0.3083  0.3103 -1.5636
  254MOL0     H35010   9.037   9.774   1.651 -0.6596 -0.2415  0.9065
  254MOL0     H35011   9.052   9.883   1.445 -0.2221 -1.4851 -0.4738
  254MOL0     H35012   9.150   9.839   1.310 -1.3676 -1.1918 -0.2190
  254MOL0     H35013   9.231   9.917   1.450 -1.4593  1.0972  2.8908
  254MOL0     H35014   9.600   9.803   1.254  1.0167 -2.1180  0.1642
  254MOL0     H35015   9.747   9.827   1.044 -1.1397  0.2793 -0.5898
  254MOL0     H35016   9.735   9.840   0.615 -0.7153 -0.5703 -1.1921
  254MOL0     H35017   9.569   9.785   0.636 -0.1382  1.5809 -2.1270
  254MOL0     H35018   9.533   9.986   0.536 -3.4744 -0.3952  1.2015
  254MOL0     H35019   9.497  10.010   0.703 -0.7359 -0.2492 -1.0787
  254MOL0     H35020   9.624  10.204   0.605 -3.1155 -0.3968  3.0868
  254MOL0     H35021   9.773  10.096   0.581  0.3350  0.5387  0.7660
  254MOL0     H35022   9.827  10.233   0.756  1.2418 -1.2288  2.1515
  254MOL0     H35023   9.805  10.069   0.804  1.9236  0.6720  0.2988
  254MOL0     H35024   9.597  10.284   0.874 -0.2349  0.0835  0.5008
  254MOL0     H35025   9.595  10.110   0.922  0.3163 -0.1487 -0.4508
  254MOL0     H35026   9.679  10.260   1.100  0.2078 -1.9394  0.8919
  254MOL0     H35027   9.806  10.330   0.995  0.5504 -0.2260  0.0391
  254MOL0     H35028   9.914  10.126   0.979 -1.9517  3.6353 -1.4345
  254MOL0     H35029   9.766  10.042   1.052 -1.0180  0.1376 -1.0639
  254MOL0     H35030   9.922  10.257   1.205  0.3864 -0.2771  0.4221
  254MOL0     H35031  10.003  10.111   1.196  1.1454 -0.5765 -0.9193
  254MOL0     H35032   9.409   9.756   0.795 -2.0182 -1.0047  0.5204
  254MOL0     H35033   9.270   9.714   1.001 -0.3723  1.7198  1.3622
  254MOL0     H35034   9.304   9.386   1.482 -0.7596 -0.8678  2.7196
  254MOL0     H35035   9.165   9.370   1.675  3.8124  1.2865  3.4215
  254MOL0     H35036   7.556   9.066   1.773  1.0099  1.0683 -3.2142
  254MOL0     H35037   7.310   9.051   1.768 -1.2535 -1.2192  2.5062
  254MOL0     H35038   6.963   9.087   1.884  1.9770  0.8555  0.9274
  254MOL0     H35039   6.736   9.044   1.965 -3.6677  2.3337  4.3006
  254MOL0     H35040   6.475   9.004   1.941 -3.6134 -0.9434  2.1572
  254MOL0     H35041   6.536   9.092   2.081 -1.0662 -6.0040  0.6540
  254MOL0     H35042   6.289   9.157   1.909 -2.4067  2.0600  1.1184
  254MOL0     H35043   6.336   9.232   2.061  2.0642 -0.9894 -0.7439
  254MOL0     H35044   6.297   8.954   2.098  1.8483  1.0884  2.1185
  254MOL0     H35045   6.188   9.081   2.170 -3.4693 -1.0365 -1.3080
  254MOL0     H35046   6.067   8.919   2.048  3.2592 -2.2161  0.9770
  254MOL0     H35047   6.152   8.945   1.899 -1.5877 -0.8615 -0.4790
  254MOL0     H35048   5.888   9.289   1.946 -0.3151 -0.1427 -0.6648
  254MOL0     H35049   6.613   9.420   1.777 -0.3852 -0.8394 -1.1324
  254MOL0     H35050   6.733   9.545   1.646 -2.1193 -3.0620 -1.6406
  254MOL0     H35051   6.897   9.572   1.710 -0.7701  0.2982 -0.6250
  254MOL0     H35052   6.865   9.464   1.572 -0.4046 -2.0151 -0.0427
  255MOL0     O35053   3.104   0.698   9.852 -0.1885 -0.1263 -0.4750
  255MOL0     C35054   2.993   0.742   9.821 -0.1939 -0.1854  0.0976
  255MOL0     O35055   2.953   0.874   9.837 -0.4747 -0.0521  0.0871
  255MOL0     C35056   3.024   0.938   9.937 -0.7733  0.6079 -0.1277
  255MOL0     C35057   3.043   0.897  10.072 -0.0326  1.0229 -0.1261
  255MOL0     C35058   3.096   0.986  10.170 -0.9135  0.1334 -0.2589
  255MOL0     C35059   3.128   1.117  10.142  0.1746  0.0451  1.0770
  255MOL0     O35060   3.186   1.195  10.244  0.8152 -0.0591  0.3492
  255MOL0     C35061   3.177   1.339  10.231  0.2222 -0.0233 -0.3427
  255MOL0     C35062   3.208   1.402  10.366  0.0412 -0.3445 -0.2276
  255MOL0     C35063   3.334   1.373  10.440  0.2488 -0.1269  0.8938
  255MOL0     C35064   3.456   1.395  10.345 -0.1565 -0.1019 -0.1890
  255MOL0     C35065   3.591   1.400  10.429 -0.7708 -0.1275 -0.4055
  255MOL0     C35066   3.710   1.436  10.337  0.9633 -0.7966  0.8594
  255MOL0     C35067   3.824   1.503  10.424  0.2403  0.1267  0.9406
  255MOL0     C35068   3.924   1.574  10.335 -1.8073 -1.2467  0.3216
  255MOL0     N35069   3.895   1.720  10.311 -0.4754  0.1785 -0.0796
  255MOL0     C35070   3.906   1.814  10.401 -0.4383  0.6929 -0.3753
  255MOL0     C35071   3.882   1.928  10.328 -0.2320 -0.9977  0.2227
  255MOL0     C35072   3.889   2.066  10.396 -0.1055  0.2201 -1.0296
  255MOL0     C35073   3.876   2.180  10.291  0.5885 -0.0686 -0.6432
  255MOL0     C35074   3.920   2.310  10.360  0.3835  0.3284  0.4664
  255MOL0     C35075   3.963   2.415  10.256  0.7684 -0.5977  0.3262
  255MOL0     O35076   4.074   2.390  10.168  0.4296  0.5613 -0.2108
  255MOL0     C35077   4.195   2.341  10.210 -0.6225  0.0961 -0.4692
  255MOL0     C35078   4.253   2.376  10.327 -0.6955  0.2520 -0.7272
  255MOL0     C35079   4.389   2.348  10.350  0.1597  0.2146 -0.8136
  255MOL0     C35080   4.448   2.405  10.475 -0.3257 -0.3874 -0.2970
  255MOL0     C35081   4.459   2.260  10.267  0.4970  0.2406  0.4889
  255MOL0     C35082   4.602   2.225  10.282 -0.1673  0.5441 -0.1064
  255MOL0     O35083   4.642   2.098  10.257 -1.0741  0.4024 -0.5872
  255MOL0     C35084   4.770   2.070  10.269  0.2854  0.0480  0.3913
  255MOL0     C35085   4.869   2.081  10.169  0.9537  0.0267 -0.5821
  255MOL0     C35086   5.000   2.043  10.204  0.2600 -0.1494  0.5296
  255MOL0     C35087   5.040   2.001  10.335 -1.0161 -0.3633  0.8333
  255MOL0     O35088   5.173   1.972  10.367 -0.0170  0.2330  0.5234
  255MOL0     C35089   5.260   1.936  10.261  0.0459  0.7946  0.4534
  255MOL0     C35090   5.380   1.853  10.316 -0.5933  0.0821 -0.3437
  255MOL0     C35091   5.502   1.942  10.350 -0.7435 -0.5353  0.5135
  255MOL0     C35092   5.480   2.043  10.459 -0.7178  0.0701 -0.1091
  255MOL0     C35093   5.563   2.175  10.446  0.2270  0.2368 -0.2410
  255MOL0     C35094   5.579   2.268  10.561  0.4029 -1.4602  0.1342
  255MOL0     C35095   5.443   2.334  10.593 -0.6120 -0.0774  0.2513
  255MOL0     C35096   5.454   2.418  10.714 -0.1756  0.7561  0.1416
  255MOL0    Cl35097   5.293   2.511  10.750 -0.6906  0.2108 -0.4453
  255MOL0     C35098   4.943   2.006  10.434  0.6441  1.1343 -0.1735
  255MOL0     C35099   4.814   2.043  10.399  0.9724 -0.7744 -0.2949
  255MOL0     O35100   4.669   2.325  10.298  0.7195 -0.8966 -0.1689
  255MOL0     C35101   4.399   2.214  10.148  0.9439 -1.2024  0.6504
  255MOL0     C35102   4.261   2.259  10.116 -0.8346  0.2598 -0.5242
  255MOL0     N35103   3.844   1.896  10.195 -0.2133  0.0406  0.0710
  255MOL0     N35104   3.859   1.769  10.185 -0.3140  0.7402 -0.2729
  255MOL0     C35105   3.118   1.157  10.010 -0.6875 -0.5438  0.8856
  255MOL0     C35106   3.070   1.068   9.912 -1.0466 -0.4581  0.3561
  255MOL0     C35107   2.899   0.661   9.729 -0.3137 -0.5191  0.6863
  255MOL0     C35108   2.781   0.724   9.675  0.0575 -0.4409 -1.1851
  255MOL0     C35109   2.696   0.661   9.590 -0.4196 -1.2546  0.3716
  255MOL0     C35110   2.713   0.531   9.549 -0.1156  0.4438  0.1985
  255MOL0     O35111   2.622   0.473   9.460 -0.6460  0.1897  0.4948
  255MOL0     C35112   2.630   0.344   9.408  0.7549  1.1931 -0.8247
  255MOL0     C35113   2.576   0.239   9.503 -0.0572 -0.3606  0.3757
  255MOL0     C35114   2.596   0.097   9.452 -0.1383  0.4074  0.2319
  255MOL0     C35115   2.508   0.036   9.362  0.4038  0.9494 -0.3905
  255MOL0     C35116   2.501   0.090   9.226  1.7345  0.5961 -0.3905
  255MOL0     C35117   2.486   0.132   9.109  0.5933  0.4031  0.4351
  255MOL0     C35118   2.815   0.462   9.617  0.0139  0.9307  0.1873
  255MOL0     C35119   2.904   0.517   9.710  0.8288  0.3232  0.0760
  255MOL0     C35120   3.032   0.422   9.745  0.3471  0.2287  0.7681
  255MOL0     H35121   3.026   0.790  10.087  2.2658  0.7728  1.2292
  255MOL0     H35122   3.114   0.951  10.271  3.1173  1.1502 -0.4417
  255MOL0     H35123   3.082   1.376  10.192  0.3851  0.9864  0.1757
  255MOL0     H35124   3.244   1.363  10.148 -1.6662 -2.0008 -2.5988
  255MOL0     H35125   3.203   1.511  10.357 -2.0400 -0.2031  1.7376
  255MOL0     H35126   3.131   1.377  10.439  2.7403  3.0872  4.2679
  255MOL0     H35127   3.333   1.443  10.524 -1.5995  3.6475 -2.0123
  255MOL0     H35128   3.322   1.272  10.482 -1.5121 -1.5656 -2.6373
  255MOL0     H35129   3.465   1.307  10.282  0.8586  1.0595 -1.7469
  255MOL0     H35130   3.440   1.479  10.276  1.7486  0.6077  0.1448
  255MOL0     H35131   3.613   1.303  10.475  0.9821 -0.2750 -1.4755
  255MOL0     H35132   3.581   1.481  10.502  3.1539  2.3713 -2.3142
  255MOL0     H35133   3.749   1.351  10.281  2.3318  1.0095 -1.1303
  255MOL0     H35134   3.687   1.515  10.264  3.2557 -1.2160 -0.4358
  255MOL0     H35135   3.878   1.416  10.462  2.8147  0.4153 -1.6698
  255MOL0     H35136   3.792   1.569  10.504 -0.7870 -1.8934  2.3008
  255MOL0     H35137   4.017   1.579  10.392 -0.1566  0.9044 -2.2919
  255MOL0     H35138   3.935   1.506  10.249 -0.0874  0.4292 -0.8691
  255MOL0     H35139   3.946   1.794  10.500  1.4770  1.5002 -0.9489
  255MOL0     H35140   3.982   2.070  10.454  0.4978 -1.7547 -1.7937
  255MOL0     H35141   3.805   2.063  10.466  1.7190 -1.0050  1.2506
  255MOL0     H35142   3.947   2.154  10.212  1.1686  3.3756 -1.4421
  255MOL0     H35143   3.774   2.193  10.252  0.0966  2.2196  1.1272
  255MOL0     H35144   3.840   2.353  10.421  0.0568  1.2122 -0.5531
  255MOL0     H35145   4.005   2.289  10.425  1.7329  3.1265 -0.2407
  255MOL0     H35146   3.867   2.445  10.213  1.5307  3.1795  0.8684
  255MOL0     H35147   3.995   2.493  10.326  5.7513 -1.2746 -0.7960
  255MOL0     H35148   4.198   2.433  10.401  1.8110 -0.3715  1.8059
  255MOL0     H35149   4.381   2.442  10.552  2.6728  3.1729  0.9206
  255MOL0     H35150   4.505   2.488  10.431  0.6959 -1.0134 -0.1991
  255MOL0     H35151   4.515   2.332  10.520 -0.2542 -1.1389 -1.5614
  255MOL0     H35152   4.831   2.109  10.071  0.3005  0.2091 -0.2857
  255MOL0     H35153   5.085   2.053  10.138 -1.3636 -1.8245 -1.9814
  255MOL0     H35154   5.217   1.859  10.196  5.1901 -1.6790 -0.5090
  255MOL0     H35155   5.291   2.025  10.205  0.1610 -0.5828 -1.7932
  255MOL0     H35156   5.348   1.775  10.386  1.7078 -0.7562 -0.1388
  255MOL0     H35157   5.425   1.800  10.232  1.5736  2.6926 -0.9937
  255MOL0     H35158   5.527   1.997  10.259 -0.8629 -0.3189  0.6116
  255MOL0     H35159   5.587   1.877  10.373 -0.5164 -0.6851 -0.6912
  255MOL0     H35160   5.513   1.997  10.552  1.5517 -1.3925 -1.5355
  255MOL0     H35161   5.374   2.066  10.466 -0.1128  3.2101  0.0406
  255MOL0     H35162   5.665   2.143  10.424  0.2582 -1.2142  1.7887
  255MOL0     H35163   5.515   2.236  10.368 -1.5502  0.1930  0.7750
  255MOL0     H35164   5.667   2.329  10.542 -0.7454 -0.1487 -1.2356
  255MOL0     H35165   5.620   2.217  10.649  2.0547 -3.2525 -1.5598
  255MOL0     H35166   5.377   2.252  10.622  1.0393 -1.9455 -0.9602
  255MOL0     H35167   5.401   2.395  10.512 -0.0766  0.5127  0.4116
  255MOL0     H35168   5.539   2.486  10.704  0.4248 -0.0109 -0.0432
  255MOL0     H35169   5.495   2.357  10.795  3.2636  0.8268 -1.3820
  255MOL0     H35170   4.969   1.973  10.535  0.9253  1.9258  0.0167
  255MOL0     H35171   4.745   2.028  10.481 -0.1748  0.2304 -1.0569
  255MOL0     H35172   4.455   2.158  10.073  2.3494  0.0021  0.7484
  255MOL0     H35173   4.207   2.229  10.027 -0.8929 -1.4915  0.0548
  255MOL0     H35174   3.159   1.253   9.977  2.9091 -1.7614  1.3725
  255MOL0     H35175   3.060   1.104   9.810  0.2644 -2.4070 -0.5190
  255MOL0     H35176   2.745   0.825   9.689 -0.1483 -0.6790  0.1964
  255MOL0     H35177   2.611   0.716   9.552  1.6964  2.5086  0.5568
  255MOL0     H35178   2.563   0.347   9.323 -3.5524  1.4096  2.2669
  255MOL0     H35179   2.734   0.319   9.382  1.4381 -1.5237  3.4172
  255MOL0     H35180   2.471   0.250   9.534 -0.4772 -3.7285  0.4245
  255MOL0     H35181   2.635   0.246   9.595 -2.3715  0.6702  1.8816
  255MOL0     H35182   2.689   0.079   9.398 -0.9098 -2.6927 -0.2530
  255MOL0     H35183   2.599   0.033   9.541 -0.3638 -2.1910 -1.5195
  255MOL0     H35184   2.409   0.047   9.406  1.2112  3.9193  0.9221
  255MOL0     H35185   2.542  -0.067   9.348  1.3113  0.9832  1.2369
  255MOL0     H35186   2.473   0.196   9.024 -0.5492  4.8091  3.6094
  255MOL0     H35187   2.830   0.359   9.586  0.4578  1.0351  0.0478
  255MOL0     H35188   3.126   0.476   9.730  0.4846 -0.1730  0.1524
  255MOL0     H35189   3.018   0.368   9.839  0.3889 -2.7209 -0.8109
  255MOL0     H35190   3.032   0.340   9.672  1.0500 -0.0234  1.0415
  256MOL0     O35191   2.347   4.269   8.284 -0.1716  0.1877 -0.2948
  256MOL0     C35192   2.419   4.299   8.190  0.0323 -0.2577  0.0311
  256MOL0     O35193   2.554   4.303   8.201  0.1114 -0.0751  0.4599
  256MOL0     C35194   2.614   4.255   8.316 -0.8699  0.6115 -0.7080
  256MOL0     C35195   2.624   4.344   8.426 -0.0286  0.0381 -0.4501
  256MOL0     C35196   2.686   4.302   8.549 -0.0006 -0.4389  0.1658
  256MOL0     C35197   2.731   4.168   8.563  0.7877 -0.2668  0.2771
  256MOL0     O35198   2.811   4.121   8.666  0.2274 -0.4965 -0.1993
  256MOL0     C35199   2.950   4.160   8.651  0.7325 -0.2422  0.4272
  256MOL0     C35200   3.035   4.113   8.765  0.5617 -0.5277  0.1790
  256MOL0     C35201   3.054   3.967   8.784  0.1886  0.4254 -0.2925
  256MOL0     C35202   3.031   3.897   8.654 -1.0795 -0.0684  0.4163
  256MOL0     C35203   3.086   3.747   8.668  1.0753 -0.7409 -0.6096
  256MOL0     C35204   3.034   3.654   8.562  0.1065 -0.5589  0.4871
  256MOL0     C35205   3.109   3.522   8.571 -0.1075  0.0584 -0.3035
  256MOL0     C35206   3.092   3.429   8.448 -0.2058 -0.1153  0.1669
  256MOL0     N35207   3.018   3.302   8.483 -0.0358 -0.0977 -0.5980
  256MOL0     C35208   2.881   3.288   8.504 -0.4436 -0.0596  0.4139
  256MOL0     C35209   2.867   3.151   8.501 -0.1674 -0.1876  0.6992
  256MOL0     C35210   2.727   3.096   8.528 -0.4590  0.2302 -0.0123
  256MOL0     C35211   2.675   3.014   8.405 -0.2052 -0.5285  0.7131
  256MOL0     C35212   2.644   2.873   8.451 -0.3385  0.5985  0.0048
  256MOL0     C35213   2.656   2.753   8.346  0.0859  0.1604 -0.1781
  256MOL0     O35214   2.780   2.752   8.278 -0.5397  0.1149 -0.5717
  256MOL0     C35215   2.781   2.679   8.162 -0.3981 -0.5046  0.0735
  256MOL0     C35216   2.904   2.680   8.098 -0.6464  0.4617  0.8808
  256MOL0     C35217   2.918   2.613   7.970 -0.3132 -0.0370 -0.7496
  256MOL0     C35218   3.049   2.641   7.906 -0.1463  0.0041 -0.6093
  256MOL0     C35219   2.812   2.537   7.912  0.1467 -0.0964 -0.0018
  256MOL0     C35220   2.807   2.460   7.783  0.0927  0.1606 -0.1886
  256MOL0     O35221   2.682   2.439   7.731 -0.1695  0.2673 -0.6541
  256MOL0     C35222   2.656   2.437   7.599 -0.6430 -0.8511 -0.3746
  256MOL0     C35223   2.755   2.467   7.496 -0.2716  0.3337 -0.4497
  256MOL0     C35224   2.714   2.455   7.363  0.5459  0.2671 -0.3086
  256MOL0     C35225   2.582   2.428   7.325 -0.4580  0.4856  0.3447
  256MOL0     O35226   2.550   2.418   7.191  0.4196 -0.2502  0.1959
  256MOL0     C35227   2.635   2.322   7.120  0.4240  0.1785 -0.5404
  256MOL0     C35228   2.578   2.287   6.980  0.0470 -0.3598 -0.3038
  256MOL0     C35229   2.639   2.167   6.923 -1.2198  0.2659  0.3055
  256MOL0     C35230   2.782   2.181   6.884  0.2746 -0.2225  0.4251
  256MOL0     C35231   2.849   2.038   6.857 -0.1958  0.2533  0.6789
  256MOL0     C35232   2.788   1.956   6.739 -0.5948 -0.0258  0.2836
  256MOL0     C35233   2.863   1.830   6.704 -0.5846 -0.3350 -0.2254
  256MOL0     C35234   2.761   1.725   6.658 -0.5913 -0.0081 -1.1608
  256MOL0    Cl35235   2.863   1.590   6.611  0.7011  0.2551  0.0457
  256MOL0     C35236   2.485   2.413   7.423 -0.0734 -0.2574 -0.5259
  256MOL0     C35237   2.526   2.408   7.555  0.5554 -0.6830 -0.4192
  256MOL0     O35238   2.916   2.420   7.734 -0.0249 -0.2623 -0.3024
  256MOL0     C35239   2.689   2.527   7.992 -0.0082  0.4880  0.2613
  256MOL0     C35240   2.676   2.592   8.113 -0.9472 -0.2298 -0.2769
  256MOL0     N35241   2.992   3.088   8.481  0.6606 -0.2280 -0.3801
  256MOL0     N35242   3.081   3.180   8.483 -0.4868 -0.4280  0.6193
  256MOL0     C35243   2.724   4.085   8.455 -0.1161  0.0564 -0.3705
  256MOL0     C35244   2.681   4.128   8.333  0.1863  0.1881 -0.0810
  256MOL0     C35245   2.360   4.349   8.058 -0.5617  0.3423  0.6446
  256MOL0     C35246   2.440   4.423   7.977 -0.4962 -0.2248  0.0275
  256MOL0     C35247   2.403   4.457   7.851 -0.2277 -0.5355 -0.0324
  256MOL0     C35248   2.271   4.437   7.802  0.1703  0.5297 -0.8015
  256MOL0     O35249   2.225   4.485   7.685  0.1552  0.3703  0.9704
  256MOL0     C35250   2.323   4.487   7.574 -0.4997 -0.2405  0.5271
  256MOL0     C35251   2.258   4.499   7.439 -1.2125 -0.7254 -0.0849
  256MOL0     C35252   2.209   4.357   7.402  0.0591  0.2252 -0.2146
  256MOL0     C35253   2.202   4.337   7.251 -1.0995  0.9093 -0.0939
  256MOL0     C35254   2.139   4.215   7.202  0.6119 -0.4248  0.2657
  256MOL0     C35255   2.104   4.115   7.152 -0.0731 -0.0900 -0.0285
  256MOL0     C35256   2.188   4.370   7.891 -0.2513  0.3453  0.1689
  256MOL0     C35257   2.226   4.320   8.013 -0.1870  0.4976 -0.8807
  256MOL0     C35258   2.132   4.238   8.098 -0.1301 -0.5369  1.2153
  256MOL0     H35259   2.570   4.438   8.416  0.4198  0.5194  1.3952
  256MOL0     H35260   2.695   4.362   8.639 -0.4089  0.2510 -0.2475
  256MOL0     H35261   2.960   4.268   8.660  3.2385 -0.4049  0.3057
  256MOL0     H35262   2.998   4.158   8.552  1.6249  3.6527  0.6277
  256MOL0     H35263   3.130   4.165   8.748 -0.3394  0.5196 -1.9258
  256MOL0     H35264   2.996   4.148   8.861 -0.1639  2.5849 -1.1464
  256MOL0     H35265   3.154   3.934   8.814 -0.3903 -4.2680 -2.6696
  256MOL0     H35266   2.975   3.935   8.852 -2.5096  1.6109 -2.6157
  256MOL0     H35267   2.923   3.882   8.640 -0.3652 -4.3941 -2.2526
  256MOL0     H35268   3.084   3.940   8.569  0.1285 -0.8585  0.7496
  256MOL0     H35269   3.051   3.717   8.767  2.1554  1.8858  0.6627
  256MOL0     H35270   3.194   3.759   8.680  0.7634  0.3663  1.6134
  256MOL0     H35271   2.925   3.650   8.571 -0.1553  3.1978  0.6655
  256MOL0     H35272   3.056   3.705   8.468  0.1900 -0.0573  0.7731
  256MOL0     H35273   3.067   3.484   8.665 -0.5948  3.1640  0.8746
  256MOL0     H35274   3.214   3.550   8.582  0.6289 -2.9764  1.6257
  256MOL0     H35275   3.041   3.477   8.364 -0.6478  0.2952  0.6691
  256MOL0     H35276   3.192   3.394   8.421 -0.1610  0.1421 -0.0025
  256MOL0     H35277   2.802   3.361   8.517 -1.5705 -1.3545  1.2265
  256MOL0     H35278   2.656   3.177   8.544 -0.0016  0.1848  2.7168
  256MOL0     H35279   2.728   3.038   8.621 -0.0513  0.5534  0.1925
  256MOL0     H35280   2.591   3.068   8.361  1.2804  0.2108 -1.3296
  256MOL0     H35281   2.754   3.009   8.330  1.5967  0.3987  2.4543
  256MOL0     H35282   2.709   2.847   8.535 -0.5707  0.2595  0.0858
  256MOL0     H35283   2.545   2.873   8.497 -1.1863  2.7877 -1.6843
  256MOL0     H35284   2.646   2.657   8.399 -0.2166 -0.5483 -1.4756
  256MOL0     H35285   2.571   2.770   8.279 -1.9041 -3.0388  1.2967
  256MOL0     H35286   2.982   2.748   8.129 -2.1876  2.9117 -0.2754
  256MOL0     H35287   3.051   2.739   7.857  2.3004 -0.8918 -2.4447
  256MOL0     H35288   3.077   2.554   7.848  0.2925 -1.8607  2.1842
  256MOL0     H35289   3.122   2.645   7.988  2.3570 -0.7953 -2.6655
  256MOL0     H35290   2.858   2.498   7.514 -0.6517  1.1671  0.3875
  256MOL0     H35291   2.785   2.484   7.286  3.3618  0.7427  2.2848
  256MOL0     H35292   2.736   2.363   7.113  0.2563  0.3666 -2.3402
  256MOL0     H35293   2.637   2.229   7.176  0.6274  0.4420 -0.1043
  256MOL0     H35294   2.471   2.263   6.979  0.5402 -2.8106 -0.6633
  256MOL0     H35295   2.579   2.374   6.913 -1.4598  1.2678  1.6581
  256MOL0     H35296   2.587   2.159   6.827  0.1021 -0.2881 -0.3974
  256MOL0     H35297   2.612   2.082   6.986 -1.6215  0.2830  0.1619
  256MOL0     H35298   2.838   2.239   6.958  2.9272 -2.1406  0.0590
  256MOL0     H35299   2.772   2.239   6.792  0.2655  0.3729  0.7954
  256MOL0     H35300   2.958   2.042   6.842  0.2325 -0.1806  3.1939
  256MOL0     H35301   2.835   1.981   6.950  1.5048 -0.4657  0.5325
  256MOL0     H35302   2.773   2.020   6.652 -1.6646 -1.1769 -0.4295
  256MOL0     H35303   2.684   1.929   6.765 -0.7140 -0.1787 -0.3359
  256MOL0     H35304   2.926   1.791   6.784 -1.2751 -1.0380 -0.0113
  256MOL0     H35305   2.936   1.853   6.625 -0.3189 -0.0170  0.1094
  256MOL0     H35306   2.700   1.761   6.575 -3.4829  1.9622  1.5939
  256MOL0     H35307   2.697   1.703   6.744 -0.6033  0.3261 -1.0812
  256MOL0     H35308   2.383   2.377   7.408 -1.7850  3.3122  1.2973
  256MOL0     H35309   2.466   2.376   7.639  1.1766  1.6108  0.9971
  256MOL0     H35310   2.606   2.468   7.953  0.7476 -0.1028 -0.5040
  256MOL0     H35311   2.588   2.577   8.175 -1.4286 -0.9090 -1.0939
  256MOL0     H35312   2.762   3.983   8.453  0.6006  0.3116 -2.5293
  256MOL0     H35313   2.677   4.052   8.256  0.0366 -0.6210  0.7102
  256MOL0     H35314   2.546   4.432   7.999 -0.1731 -3.2711  0.1190
  256MOL0     H35315   2.472   4.519   7.795 -3.2979  2.3883 -0.8840
  256MOL0     H35316   2.397   4.567   7.575  1.3881 -1.7313 -2.6041
  256MOL0     H35317   2.379   4.393   7.578 -1.3440 -0.8514 -0.9463
  256MOL0     H35318   2.338   4.520   7.368 -0.0140  1.3977  1.7516
  256MOL0     H35319   2.180   4.576   7.440 -1.2527 -0.7523  1.2543
  256MOL0     H35320   2.285   4.288   7.440 -0.1953  1.8214  3.5941
  256MOL0     H35321   2.111   4.338   7.445  0.2694 -0.1666  0.0996
  256MOL0     H35322   2.304   4.337   7.211  0.4486  2.4532  3.4670
  256MOL0     H35323   2.144   4.424   7.218  0.7343  1.5141 -2.0238
  256MOL0     H35324   2.072   4.034   7.090 -0.6859 -1.0991  1.5625
  256MOL0     H35325   2.089   4.339   7.861 -1.5014  2.1057  2.2025
  256MOL0     H35326   2.166   4.134   8.099  1.1330 -0.1551  0.6244
  256MOL0     H35327   2.135   4.284   8.197 -2.4321 -1.1484  1.6272
  256MOL0     H35328   2.031   4.246   8.056  0.2105  1.9554  0.7520
  257MOL0     O35329   9.350   2.437   1.570 -0.4595  0.5792  0.1518
  257MOL0     C35330   9.235   2.407   1.562  0.4090  0.1349 -0.3497
  257MOL0     O35331   9.188   2.289   1.549 -0.1572 -0.0554  0.4962
  257MOL0     C35332   9.261   2.182   1.520  0.1980 -0.6726 -0.2241
  257MOL0     C35333   9.333   2.181   1.393 -0.0000  0.1546  0.3262
  257MOL0     C35334   9.424   2.074   1.375 -0.0055  0.4047  0.1211
  257MOL0     C35335   9.434   1.971   1.474 -0.6608 -0.7255 -0.5100
  257MOL0     O35336   9.537   1.878   1.460  1.3693 -0.0003 -0.3910
  257MOL0     C35337   9.491   1.787   1.362  0.1248 -0.2817  0.0901
  257MOL0     C35338   9.597   1.679   1.367 -0.5949  0.6967 -0.9203
  257MOL0     C35339   9.602   1.563   1.272  1.2694  0.3026 -0.1036
  257MOL0     C35340   9.457   1.503   1.252  0.3618  0.0422 -0.0797
  257MOL0     C35341   9.398   1.410   1.371  0.1273  0.2716  0.8406
  257MOL0     C35342   9.495   1.307   1.418 -0.4592  0.0427 -0.5896
  257MOL0     C35343   9.427   1.220   1.526  0.4502 -0.1726  0.1508
  257MOL0     C35344   9.521   1.142   1.618 -1.1444  0.4248 -0.7646
  257MOL0     N35345   9.452   1.065   1.729  0.1712 -0.1714  0.5058
  257MOL0     C35346   9.316   1.055   1.743 -1.2980 -0.0916  0.3897
  257MOL0     C35347   9.297   0.974   1.848 -0.4159 -0.5592  0.2248
  257MOL0     C35348   9.158   0.950   1.901  0.6358  0.2633 -0.5826
  257MOL0     C35349   9.138   1.037   2.021  0.6494  0.1239  0.0500
  257MOL0     C35350   9.126   1.183   1.980  0.4960 -0.4278  1.0270
  257MOL0     C35351   9.036   1.265   2.067 -0.2420 -0.3769  0.0905
  257MOL0     O35352   9.085   1.265   2.199 -0.3398 -0.0185 -0.5126
  257MOL0     C35353   8.994   1.281   2.302 -0.4979  0.4076 -0.8270
  257MOL0     C35354   8.861   1.232   2.306 -0.2666  0.2245 -0.2808
  257MOL0     C35355   8.776   1.258   2.418  0.2686 -0.3870  0.1884
  257MOL0     C35356   8.637   1.209   2.409  0.5597 -0.5843 -0.8719
  257MOL0     C35357   8.826   1.338   2.525  0.7092 -0.2289 -0.3110
  257MOL0     C35358   8.751   1.362   2.651 -0.4337 -0.0493 -0.4862
  257MOL0     O35359   8.754   1.489   2.706  0.4976  0.3722 -0.6260
  257MOL0     C35360   8.687   1.513   2.820 -0.0651 -0.3293 -0.1570
  257MOL0     C35361   8.696   1.436   2.935  0.5823  0.4965 -0.4056
  257MOL0     C35362   8.602   1.458   3.033  0.3379 -1.0925  0.3003
  257MOL0     C35363   8.507   1.565   3.026  0.3031 -0.4057  0.1806
  257MOL0     O35364   8.426   1.580   3.129  0.6482 -0.3804  0.1918
  257MOL0     C35365   8.300   1.650   3.108  0.0923  0.1009  0.6166
  257MOL0     C35366   8.304   1.788   3.172  0.7631  0.7165  0.8437
  257MOL0     C35367   8.157   1.827   3.174 -1.0095 -0.6183 -0.0205
  257MOL0     C35368   8.119   1.977   3.156 -1.8426  1.7199 -0.0253
  257MOL0     C35369   8.162   2.060   3.265  0.2264  0.6451 -0.2057
  257MOL0     C35370   8.161   2.210   3.253 -1.1760 -0.5721 -0.7066
  257MOL0     C35371   8.186   2.289   3.385 -1.7346 -0.4458 -0.1137
  257MOL0     C35372   8.333   2.294   3.418 -1.3172 -0.7361 -0.0151
  257MOL0    Cl35373   8.415   2.399   3.288 -0.0132  0.0504 -0.2610
  257MOL0     C35374   8.518   1.658   2.915 -0.0494  0.0307  0.0976
  257MOL0     C35375   8.598   1.625   2.807  0.2383  0.4519 -0.3322
  257MOL0     O35376   8.696   1.263   2.697  0.1799 -0.4343  0.3342
  257MOL0     C35377   8.962   1.382   2.521 -0.4454  0.9833  1.1326
  257MOL0     C35378   9.041   1.369   2.407 -0.2209 -0.3320 -0.3493
  257MOL0     N35379   9.420   0.953   1.908 -0.7622 -0.0806  0.6574
  257MOL0     N35380   9.509   1.012   1.836 -0.4252 -0.0903  0.6119
  257MOL0     C35381   9.367   1.979   1.595  0.8800  0.9660  0.8298
  257MOL0     C35382   9.274   2.079   1.609 -0.2314 -0.1815 -0.1490
  257MOL0     C35383   9.146   2.509   1.548  0.7266  0.0007  0.1882
  257MOL0     C35384   9.061   2.502   1.435 -0.7428  0.0592  0.7171
  257MOL0     C35385   8.965   2.587   1.410  1.2064 -0.3101 -0.3714
  257MOL0     C35386   8.950   2.705   1.487 -0.4493  0.0171 -0.2199
  257MOL0     O35387   8.853   2.795   1.446 -0.6426  0.6477 -0.0345
  257MOL0     C35388   8.872   2.934   1.490 -0.1341 -0.0811  0.4593
  257MOL0     C35389   8.760   3.028   1.474 -0.3004  0.1061 -1.1406
  257MOL0     C35390   8.725   3.060   1.330  0.1269  0.2650  0.5094
  257MOL0     C35391   8.635   3.179   1.310  0.9877 -0.1533 -0.6063
  257MOL0     C35392   8.519   3.158   1.397  0.1804  0.6489 -0.2427
  257MOL0     C35393   8.416   3.135   1.460 -0.3391  0.3769 -0.3773
  257MOL0     C35394   9.026   2.718   1.602 -0.2414  0.2584  0.0213
  257MOL0     C35395   9.124   2.616   1.636  0.2193 -0.1410  0.6980
  257MOL0     C35396   9.225   2.649   1.747  0.7780 -0.4284  1.0486
  257MOL0     H35397   9.355   2.266   1.330 -1.4519  0.0835 -0.3234
  257MOL0     H35398   9.501   2.085   1.299 -0.5761  3.7835 -0.1018
  257MOL0     H35399   9.488   1.814   1.256  0.2676 -1.7775 -0.3263
  257MOL0     H35400   9.396   1.740   1.388  1.3127 -2.2791  1.0552
  257MOL0     H35401   9.698   1.719   1.361  1.8391 -4.4097  0.0595
  257MOL0     H35402   9.587   1.623   1.461  2.2799 -1.1512 -1.5840
  257MOL0     H35403   9.656   1.601   1.185  1.9089 -0.4225 -0.0276
  257MOL0     H35404   9.668   1.485   1.311 -1.3903 -1.2284  1.6561
  257MOL0     H35405   9.388   1.585   1.230  0.8295  1.2536  2.4848
  257MOL0     H35406   9.457   1.449   1.158 -1.9183 -0.7860  0.3154
  257MOL0     H35407   9.305   1.365   1.334 -1.3051  0.4765  3.8933
  257MOL0     H35408   9.371   1.465   1.461 -1.4031 -0.4165  0.8340
  257MOL0     H35409   9.526   1.240   1.338  0.0660 -1.3818  0.7579
  257MOL0     H35410   9.584   1.347   1.468 -0.0815 -0.9032 -0.4927
  257MOL0     H35411   9.366   1.149   1.469 -0.7519 -0.6955  1.9833
  257MOL0     H35412   9.364   1.287   1.584 -0.5656  0.2843 -1.4272
  257MOL0     H35413   9.584   1.071   1.563 -0.3721 -1.7506  2.6331
  257MOL0     H35414   9.582   1.213   1.675 -0.0337  1.3516 -2.9616
  257MOL0     H35415   9.250   1.099   1.669  0.5254 -1.5637 -2.2752
  257MOL0     H35416   9.149   0.846   1.936  3.3286  0.6827  1.5968
  257MOL0     H35417   9.080   0.978   1.829  0.2361  0.6115 -0.0235
  257MOL0     H35418   9.054   1.004   2.083  0.4882  0.6460  0.1136
  257MOL0     H35419   9.229   1.029   2.081  1.0378  1.8002 -0.2752
  257MOL0     H35420   9.226   1.226   1.985  0.8738 -0.6014 -2.3888
  257MOL0     H35421   9.088   1.199   1.878 -2.3942  0.9948  2.2213
  257MOL0     H35422   9.035   1.368   2.031 -2.3970  0.8626  3.2468
  257MOL0     H35423   8.934   1.227   2.063 -1.5623  2.9331 -0.3970
  257MOL0     H35424   8.836   1.166   2.224  1.6951  0.7963 -1.4245
  257MOL0     H35425   8.561   1.287   2.423  1.8611  0.3549  1.4262
  257MOL0     H35426   8.607   1.144   2.491  2.2066  2.9133  2.8183
  257MOL0     H35427   8.622   1.154   2.315 -0.6513 -2.0974  0.1455
  257MOL0     H35428   8.771   1.360   2.953  0.0714  0.8714  5.4386
  257MOL0     H35429   8.612   1.402   3.125  4.1945 -0.2277  0.5687
  257MOL0     H35430   8.270   1.670   3.005  0.7037  0.3014  0.4683
  257MOL0     H35431   8.227   1.579   3.146 -0.7251 -3.5596 -6.1596
  257MOL0     H35432   8.352   1.788   3.270 -0.5653 -2.7824  1.6286
  257MOL0     H35433   8.356   1.855   3.102 -2.8090  1.5497 -1.2315
  257MOL0     H35434   8.102   1.788   3.260 -0.9102 -0.0350  0.3177
  257MOL0     H35435   8.105   1.780   3.090 -0.0926  0.4817 -1.2524
  257MOL0     H35436   8.012   1.978   3.132 -1.8172 -2.2090 -0.9564
  257MOL0     H35437   8.178   2.012   3.071 -1.6891 -1.5451 -1.4073
  257MOL0     H35438   8.113   2.031   3.359 -0.2441  0.9161 -0.3666
  257MOL0     H35439   8.269   2.039   3.276 -0.2291 -1.0385  1.9939
  257MOL0     H35440   8.061   2.236   3.217 -0.0242  1.4366 -2.7411
  257MOL0     H35441   8.225   2.248   3.173  1.8007 -3.0436  0.3002
  257MOL0     H35442   8.140   2.227   3.463  1.1796 -1.5939  0.8148
  257MOL0     H35443   8.140   2.388   3.377  0.5306  0.9285  2.3854
  257MOL0     H35444   8.383   2.197   3.417  0.7927  0.2788 -2.0020
  257MOL0     H35445   8.351   2.339   3.516  1.1578 -1.5915 -0.0005
  257MOL0     H35446   8.463   1.751   2.927  0.7513  0.6162 -0.6855
  257MOL0     H35447   8.584   1.676   2.713  1.8912  0.5160 -0.5787
  257MOL0     H35448   9.005   1.438   2.604  0.3837  0.1739  1.2728
  257MOL0     H35449   9.133   1.427   2.409 -2.4613  3.6123 -0.0341
  257MOL0     H35450   9.387   1.907   1.673 -1.9206 -0.7833  0.0913
  257MOL0     H35451   9.216   2.074   1.700 -0.2275  2.2284  0.0429
  257MOL0     H35452   9.069   2.427   1.357 -3.4692 -1.1778  1.4910
  257MOL0     H35453   8.898   2.570   1.327  0.4071  2.3719 -0.3513
  257MOL0     H35454   8.887   2.940   1.598 -0.1141  1.7999  0.3797
  257MOL0     H35455   8.955   2.974   1.430  1.8657 -3.3366  0.8351
  257MOL0     H35456   8.777   3.124   1.523 -1.3215 -0.5042  0.5078
  257MOL0     H35457   8.680   2.972   1.523  0.6029 -0.1726  0.0826
  257MOL0     H35458   8.820   3.091   1.286 -0.0443 -2.1161 -1.7891
  257MOL0     H35459   8.686   2.967   1.286  2.8166  0.1971 -2.0203
  257MOL0     H35460   8.597   3.184   1.208  1.7067 -0.4173 -0.8939
  257MOL0     H35461   8.684   3.271   1.343  1.5338 -1.2575  1.8936
  257MOL0     H35462   8.339   3.102   1.528 -0.9588 -1.2183 -1.7838
  257MOL0     H35463   9.013   2.793   1.679  0.3605  0.1362  0.2521
  257MOL0     H35464   9.214   2.746   1.796  1.9611 -1.4939  3.6877
  257MOL0     H35465   9.226   2.583   1.835  3.2024 -1.7605  0.1418
  257MOL0     H35466   9.324   2.644   1.702  0.7708 -1.6646  1.1154
  258MOL0     O35467   4.323  11.155   9.392  0.1531 -0.4780 -0.6067
  258MOL0     C35468   4.255  11.184   9.492  0.7341 -0.2377  0.3793
  258MOL0     O35469   4.291  11.219   9.618 -0.6784 -0.0066 -0.6248
  258MOL0     C35470   4.426  11.243   9.630 -0.1016 -0.9412 -0.3843
  258MOL0     C35471   4.464  11.377   9.629 -0.0795  0.1620  0.0679
  258MOL0     C35472   4.596  11.418   9.627 -0.5003 -0.2808 -0.0990
  258MOL0     C35473   4.700  11.323   9.631  0.0339  0.4941 -1.0693
  258MOL0     O35474   4.840  11.349   9.633  0.3663  1.2941  0.0919
  258MOL0     C35475   4.898  11.450   9.554 -0.9393  0.0127  0.9317
  258MOL0     C35476   5.054  11.428   9.573  0.1093  0.0476 -0.1760
  258MOL0     C35477   5.128  11.544   9.521  0.7782 -0.2128  0.1039
  258MOL0     C35478   5.279  11.540   9.542  0.6199 -0.4826 -0.0141
  258MOL0     C35479   5.353  11.647   9.459  0.2464  0.3928 -0.3672
  258MOL0     C35480   5.376  11.789   9.508 -0.4556  0.2720 -0.8633
  258MOL0     C35481   5.434  11.811   9.648  0.1655  0.4858  1.0116
  258MOL0     C35482   5.476  11.949   9.687 -0.3103 -0.2462  0.4028
  258MOL0     N35483   5.532  11.948   9.824  0.8506  0.1351  0.5924
  258MOL0     C35484   5.458  11.996   9.928  0.4016 -1.1283 -0.2246
  258MOL0     C35485   5.544  12.005  10.030  0.0609  0.0550  0.5392
  258MOL0     C35486   5.504  12.067  10.161 -0.1144 -1.2590  0.1314
  258MOL0     C35487   5.621  12.147  10.224  0.5574 -0.7972  0.6401
  258MOL0     C35488   5.686  12.254  10.136 -0.7940  0.5311  1.1431
  258MOL0     C35489   5.751  12.360  10.211  0.2842 -1.1230 -0.2308
  258MOL0     O35490   5.649  12.461  10.241 -0.1752 -0.3494 -0.5899
  258MOL0     C35491   5.656  12.528  10.362  0.0678 -0.0452  1.0350
  258MOL0     C35492   5.544  12.582  10.423 -0.1825 -0.3532  0.5541
  258MOL0     C35493   5.548  12.657  10.549  0.0499  0.2086 -1.5257
  258MOL0     C35494   5.417  12.732  10.598  0.0774 -0.6867 -0.3002
  258MOL0     C35495   5.673  12.672  10.620  0.2200  0.1046 -0.0076
  258MOL0     C35496   5.683  12.723  10.753 -0.0327 -0.7156  0.3489
  258MOL0     O35497   5.771  12.660  10.835  0.0285 -0.1368  0.1704
  258MOL0     C35498   5.725  12.668  10.965 -0.3775 -0.4809 -0.3275
  258MOL0     C35499   5.783  12.762  11.060 -0.0722 -0.3691  0.0648
  258MOL0     C35500   5.750  12.748  11.194  0.1592  0.6964 -0.0299
  258MOL0     C35501   5.657  12.657  11.233  0.5558 -0.0185  1.1646
  258MOL0     O35502   5.645  12.637  11.370  1.2592  0.2491 -0.2311
  258MOL0     C35503   5.596  12.508  11.420  0.2225 -0.8542  0.1589
  258MOL0     C35504   5.454  12.530  11.434 -0.0004  0.0990 -0.0709
  258MOL0     C35505   5.390  12.414  11.511 -0.0915 -0.3489  0.8616
  258MOL0     C35506   5.245  12.446  11.541  0.4797  0.1493 -1.0131
  258MOL0     C35507   5.180  12.356  11.652  0.3711  0.7307 -0.0602
  258MOL0     C35508   5.163  12.213  11.607 -0.5060 -1.1270  0.9584
  258MOL0     C35509   5.077  12.139  11.711  0.1899  0.2212  0.2122
  258MOL0     C35510   5.112  11.994  11.715  0.6126  0.2142 -0.0652
  258MOL0    Cl35511   5.045  11.927  11.572 -0.0375 -0.0705 -0.3922
  258MOL0     C35512   5.583  12.584  11.142 -0.1138  0.0304  0.2987
  258MOL0     C35513   5.624  12.582  11.008  0.4046  0.4609 -0.5076
  258MOL0     O35514   5.650  12.843  10.766  0.5847 -0.3061  0.2393
  258MOL0     C35515   5.787  12.618  10.557 -0.3135  0.8315  1.1683
  258MOL0     C35516   5.776  12.544  10.432  0.3536  0.1849 -0.1295
  258MOL0     N35517   5.655  11.935   9.995 -0.5039  0.8024 -0.0917
  258MOL0     N35518   5.657  11.919   9.869  0.2116 -0.6984  0.4258
  258MOL0     C35519   4.660  11.198   9.660  0.4833  0.4910  0.7202
  258MOL0     C35520   4.528  11.150   9.664  0.4815  0.1538 -1.1033
  258MOL0     C35521   4.102  11.168   9.470  0.2537 -0.0666  1.2166
  258MOL0     C35522   4.010  11.216   9.572 -0.6232 -0.3360  0.1849
  258MOL0     C35523   3.873  11.235   9.550 -0.5915 -0.1732 -0.3004
  258MOL0     C35524   3.819  11.185   9.428  0.8690  0.9544  0.0395
  258MOL0     O35525   3.685  11.162   9.393 -0.4141 -1.3060 -0.9975
  258MOL0     C35526   3.589  11.256   9.449 -0.4005  0.1094  0.5050
  258MOL0     C35527   3.610  11.393   9.399  0.3459  0.5581  0.5997
  258MOL0     C35528   3.594  11.395   9.242  0.7153 -0.2952 -0.1250
  258MOL0     C35529   3.506  11.521   9.205 -0.4188  0.9183  0.3801
  258MOL0     C35530   3.359  11.506   9.226 -0.4781 -0.1283 -0.3593
  258MOL0     C35531   3.244  11.479   9.251 -0.4508  0.3150 -0.5815
  258MOL0     C35532   3.904  11.134   9.328 -0.4799 -0.0990 -0.3865
  258MOL0     C35533   4.041  11.132   9.342  0.7217  0.1520  0.1593
  258MOL0     C35534   4.110  11.064   9.217  0.2278  0.3653 -0.3504
  258MOL0     H35535   4.401  11.463   9.608  1.0468  1.7375  2.6390
  258MOL0     H35536   4.617  11.524   9.622  3.0123 -0.7906  0.7248
  258MOL0     H35537   4.855  11.550   9.569  0.0886  0.7965 -0.9493
  258MOL0     H35538   4.880  11.430   9.448  0.2559 -0.6408  0.8372
  258MOL0     H35539   5.086  11.417   9.677 -0.6055 -1.4135 -0.0779
  258MOL0     H35540   5.091  11.340   9.519  0.1004  0.4924 -0.9194
  258MOL0     H35541   5.097  11.558   9.417 -1.8392 -2.2857  0.5054
  258MOL0     H35542   5.097  11.634   9.574 -2.0878 -1.7053  1.1869
  258MOL0     H35543   5.312  11.539   9.646 -1.8116  2.6439  0.9353
  258MOL0     H35544   5.317  11.446   9.500  3.7812  1.7821 -2.8163
  258MOL0     H35545   5.311  11.643   9.358  1.6098  0.7376 -0.9593
  258MOL0     H35546   5.456  11.612   9.454  0.2342 -0.6159  3.3058
  258MOL0     H35547   5.442  11.842   9.440 -1.4777  2.2939 -0.3444
  258MOL0     H35548   5.283  11.846   9.513  0.2158  1.3334  2.1640
  258MOL0     H35549   5.517  11.744   9.675  1.2869  0.9755 -0.9668
  258MOL0     H35550   5.352  11.783   9.714  0.5201 -2.4925  0.3260
  258MOL0     H35551   5.563  11.983   9.630 -0.8297  0.7482  0.1891
  258MOL0     H35552   5.393  12.019   9.672  0.1131  0.3773  0.9205
  258MOL0     H35553   5.351  12.014   9.935  0.6549 -0.3634  2.9091
  258MOL0     H35554   5.476  11.981  10.222  0.4421 -1.7466 -0.2850
  258MOL0     H35555   5.426  12.141  10.142  1.1681 -0.6811 -3.8260
  258MOL0     H35556   5.586  12.186  10.320  0.6032 -1.3975  0.9033
  258MOL0     H35557   5.695  12.067  10.232  2.1462  0.1198 -2.9160
  258MOL0     H35558   5.750  12.201  10.065 -0.9687  1.6375  0.1362
  258MOL0     H35559   5.614  12.300  10.068 -0.7101  0.2970  0.8955
  258MOL0     H35560   5.801  12.321  10.300  0.4136  2.4484  1.4329
  258MOL0     H35561   5.821  12.424  10.156 -0.2803 -0.3667 -0.0923
  258MOL0     H35562   5.446  12.566  10.378 -1.1690 -2.5031  3.1560
  258MOL0     H35563   5.450  12.836  10.611  2.4966 -1.6446  1.9100
  258MOL0     H35564   5.383  12.699  10.696  3.2209  2.0425  1.9194
  258MOL0     H35565   5.342  12.722  10.518 -0.8014  1.0556  0.2351
  258MOL0     H35566   5.860  12.823  11.014  1.9871 -3.8022 -1.3896
  258MOL0     H35567   5.804  12.800  11.273  1.6176  0.0147 -0.5391
  258MOL0     H35568   5.618  12.423  11.354 -0.6753 -1.0038  0.0332
  258MOL0     H35569   5.640  12.497  11.519  2.5186  0.4798 -0.6455
  258MOL0     H35570   5.431  12.616  11.498 -3.7903 -1.4371  0.8761
  258MOL0     H35571   5.403  12.551  11.340 -0.6633  3.1730  0.8427
  258MOL0     H35572   5.441  12.408  11.608  1.7167 -4.0909 -0.1138
  258MOL0     H35573   5.404  12.322  11.454 -0.9521  1.1582 -1.9637
  258MOL0     H35574   5.193  12.456  11.445 -1.2574 -0.4426 -0.1795
  258MOL0     H35575   5.240  12.546  11.583  1.0027 -0.8858  1.7168
  258MOL0     H35576   5.253  12.351  11.734  0.0197  0.9573  0.2737
  258MOL0     H35577   5.083  12.399  11.680 -0.3293 -1.0717  0.3993
  258MOL0     H35578   5.260  12.165  11.597 -0.2677 -0.7147  1.2658
  258MOL0     H35579   5.116  12.211  11.508  1.2337  1.5143 -0.0331
  258MOL0     H35580   4.971  12.160  11.696  0.2640  0.6743  0.2874
  258MOL0     H35581   5.118  12.181  11.803  0.4089  1.6081 -0.4821
  258MOL0     H35582   5.080  11.953  11.812 -0.5887  2.2923  0.4807
  258MOL0     H35583   5.220  11.974  11.711  0.7542  0.5671  1.3629
  258MOL0     H35584   5.519  12.504  11.176  1.2098  0.2708  3.7331
  258MOL0     H35585   5.577  12.512  10.939  1.2240 -0.0234 -0.5861
  258MOL0     H35586   5.884  12.625  10.604 -1.2117  1.3109  3.0407
  258MOL0     H35587   5.865  12.518  10.377  1.1363 -1.4694  1.8079
  258MOL0     H35588   4.730  11.118   9.682  1.2299  1.6058  2.6348
  258MOL0     H35589   4.501  11.046   9.679 -0.6056  0.7850  1.8655
  258MOL0     H35590   4.043  11.251   9.670 -0.6424  2.0851 -0.6168
  258MOL0     H35591   3.806  11.275   9.626  0.3769  2.2480 -0.6140
  258MOL0     H35592   3.488  11.219   9.429 -0.4359 -0.1100  1.0726
  258MOL0     H35593   3.596  11.254   9.558 -0.2222  1.3268  0.5312
  258MOL0     H35594   3.708  11.437   9.417 -0.6720  3.7386 -0.8474
  258MOL0     H35595   3.532  11.456   9.444 -2.4399 -1.5312 -0.9550
  258MOL0     H35596   3.695  11.393   9.201  2.9635  0.8966  4.6691
  258MOL0     H35597   3.549  11.304   9.202  0.1415 -1.4830  2.9505
  258MOL0     H35598   3.527  11.532   9.098 -0.6585  0.1018  0.2420
  258MOL0     H35599   3.534  11.614   9.256  0.0501  1.1520 -0.2813
  258MOL0     H35600   3.149  11.465   9.298 -1.4700  1.5177 -2.1958
  258MOL0     H35601   3.847  11.107   9.240  2.0262 -0.2497 -2.0681
  258MOL0     H35602   4.039  11.022   9.145  0.9597 -1.5320 -0.0342
  258MOL0     H35603   4.165  11.137   9.158  2.0471  1.0475  2.0191
  258MOL0     H35604   4.175  10.982   9.250 -2.3049 -0.8114  2.1851
  259MOL0     O35605   4.954   8.722   3.281 -0.2223 -0.1535 -0.2438
  259MOL0     C35606   5.071   8.713   3.261  0.8697  0.8837 -0.2215
  259MOL0     O35607   5.166   8.798   3.320  0.2595  0.4580  1.0748
  259MOL0     C35608   5.119   8.883   3.421  0.4406 -0.5708 -1.0076
  259MOL0     C35609   5.034   8.993   3.398  0.6488 -0.3059  0.2693
  259MOL0     C35610   5.006   9.089   3.501 -0.2661  0.9705 -0.2215
  259MOL0     C35611   5.061   9.071   3.634  0.9399 -0.9623 -0.6442
  259MOL0     O35612   5.038   9.178   3.720 -0.3125  0.4301 -0.9123
  259MOL0     C35613   5.069   9.156   3.865 -0.5155  0.6349 -0.0379
  259MOL0     C35614   5.010   9.261   3.953 -0.6010 -0.3386 -0.5181
  259MOL0     C35615   4.856   9.255   4.005  0.8423 -0.6933 -0.7605
  259MOL0     C35616   4.855   9.138   4.100  0.1165  0.7668  0.4493
  259MOL0     C35617   4.709   9.105   4.139 -0.3474 -0.7433  0.5403
  259MOL0     C35618   4.594   9.098   4.028 -0.1928 -0.1885 -0.4249
  259MOL0     C35619   4.495   8.987   4.080 -0.1701 -0.8287 -0.1042
  259MOL0     C35620   4.422   9.039   4.202  0.7292 -0.4671  0.2720
  259MOL0     N35621   4.339   9.161   4.188 -0.1561  0.4970  0.2980
  259MOL0     C35622   4.345   9.275   4.266  0.7156 -0.0787 -0.5656
  259MOL0     C35623   4.222   9.336   4.250  0.2601  0.6028 -0.4392
  259MOL0     C35624   4.181   9.463   4.304  0.2682 -0.0028 -0.8128
  259MOL0     C35625   4.081   9.433   4.417 -0.3106  1.1853  1.0087
  259MOL0     C35626   4.148   9.366   4.541 -0.2941 -0.7553  0.4149
  259MOL0     C35627   4.273   9.439   4.599 -0.3889  0.8992  0.6335
  259MOL0     O35628   4.236   9.573   4.643  0.2142  0.2038  0.6921
  259MOL0     C35629   4.175   9.597   4.753  0.1612 -0.6911 -0.4713
  259MOL0     C35630   4.134   9.731   4.771 -0.5674 -0.2734 -0.6642
  259MOL0     C35631   4.081   9.778   4.890  0.1574 -0.0453 -0.2642
  259MOL0     C35632   4.072   9.926   4.903 -1.4017 -0.2315 -0.4599
  259MOL0     C35633   4.042   9.681   4.999  0.4620 -0.0232  0.3266
  259MOL0     C35634   3.978   9.717   5.127  0.5126  0.3267 -0.2799
  259MOL0     O35635   3.964   9.612   5.224 -0.0362 -0.3448  0.3503
  259MOL0     C35636   3.866   9.629   5.316 -0.7527 -0.6840 -1.0664
  259MOL0     C35637   3.728   9.611   5.299 -0.4493  0.0062  0.4038
  259MOL0     C35638   3.630   9.635   5.398  0.4611  0.5689  0.1921
  259MOL0     C35639   3.663   9.700   5.513 -0.0378 -0.8162  0.9740
  259MOL0     O35640   3.561   9.719   5.602 -0.0313  0.3723  0.0371
  259MOL0     C35641   3.600   9.796   5.724 -0.5275  0.6393 -0.1986
  259MOL0     C35642   3.464   9.835   5.794  0.4002  0.5876  0.0275
  259MOL0     C35643   3.383   9.936   5.723 -0.8938  0.2604 -0.5511
  259MOL0     C35644   3.244   9.950   5.786  0.0000  0.3848  0.4875
  259MOL0     C35645   3.159  10.060   5.725  0.7935  0.1743  0.2289
  259MOL0     C35646   3.014  10.063   5.772 -0.0961 -1.3838 -0.0419
  259MOL0     C35647   2.918  10.141   5.680 -0.2370  0.4599 -0.4888
  259MOL0     C35648   2.769  10.102   5.708 -0.8986  0.1171  0.3487
  259MOL0    Cl35649   2.648  10.128   5.584  0.0696  0.7241  0.1767
  259MOL0     C35650   3.808   9.729   5.539 -0.3413 -0.5733  0.1721
  259MOL0     C35651   3.904   9.696   5.439  0.5645 -0.3268  0.7366
  259MOL0     O35652   3.932   9.828   5.142 -0.2638  0.5366 -0.7396
  259MOL0     C35653   4.068   9.537   4.965  1.0227  0.1507 -0.1470
  259MOL0     C35654   4.145   9.510   4.854 -0.2363  1.1151 -0.1527
  259MOL0     N35655   4.151   9.265   4.163  0.1327  0.3972  0.4305
  259MOL0     N35656   4.219   9.172   4.116  0.2805 -0.3660 -0.7686
  259MOL0     C35657   5.153   8.968   3.664 -0.0035  0.6978  0.6771
  259MOL0     C35658   5.178   8.876   3.554  0.0886  0.6848  0.3145
  259MOL0     C35659   5.119   8.610   3.165  0.4346 -0.0158 -0.3948
  259MOL0     C35660   5.013   8.557   3.078 -1.0395  0.0927  0.8524
  259MOL0     C35661   5.035   8.475   2.972 -0.8344  0.1636 -1.1130
  259MOL0     C35662   5.174   8.433   2.953  0.0047 -0.0214 -0.6142
  259MOL0     O35663   5.212   8.352   2.843  0.1558  0.9200 -0.6561
  259MOL0     C35664   5.151   8.379   2.718 -0.7784  0.0449  0.6502
  259MOL0     C35665   5.190   8.506   2.644  0.3995 -0.7226 -0.4972
  259MOL0     C35666   5.339   8.529   2.663  0.3863 -0.1651 -0.0188
  259MOL0     C35667   5.406   8.598   2.541  0.1453 -0.2677  0.0136
  259MOL0     C35668   5.413   8.749   2.544 -0.7242 -0.0025 -0.8383
  259MOL0     C35669   5.409   8.866   2.552  0.3987  0.8970 -0.4800
  259MOL0     C35670   5.270   8.465   3.047  0.0058 -0.4565 -0.2590
  259MOL0     C35671   5.250   8.551   3.150  1.7826  0.4914 -0.1375
  259MOL0     C35672   5.349   8.590   3.250  0.6277 -0.5969 -0.4372
  259MOL0     H35673   5.003   9.004   3.295 -1.5593  0.2509  0.9354
  259MOL0     H35674   4.952   9.181   3.480 -0.6492  0.2074 -2.8545
  259MOL0     H35675   5.178   9.148   3.867 -0.6234 -3.5721 -1.1139
  259MOL0     H35676   5.036   9.055   3.894  1.4450 -0.2864 -0.8506
  259MOL0     H35677   5.079   9.251   4.037 -1.1865  0.0399  0.0184
  259MOL0     H35678   5.028   9.362   3.915 -1.9272 -0.6818 -2.2061
  259MOL0     H35679   4.824   9.348   4.053  2.1914 -1.2513  1.3463
  259MOL0     H35680   4.788   9.232   3.922  0.7737 -2.0055 -0.3702
  259MOL0     H35681   4.891   9.042   4.063 -1.5299  0.0995  0.5163
  259MOL0     H35682   4.922   9.168   4.181  1.6211  1.2236 -0.9156
  259MOL0     H35683   4.678   9.171   4.220 -0.8336 -0.8779  0.4645
  259MOL0     H35684   4.706   9.008   4.190 -0.1073 -0.5711  0.8866
  259MOL0     H35685   4.538   9.192   4.020 -2.8743 -1.6240  0.5195
  259MOL0     H35686   4.641   9.066   3.934  1.3276  2.0032 -0.5204
  259MOL0     H35687   4.544   8.893   4.106 -1.4894 -1.1745  1.2660
  259MOL0     H35688   4.427   8.958   4.000 -0.8314 -1.0414  0.5197
  259MOL0     H35689   4.353   8.971   4.253  0.9309  0.1807  1.4552
  259MOL0     H35690   4.508   9.042   4.270  2.7398 -1.9918 -2.0403
  259MOL0     H35691   4.413   9.321   4.338 -1.3408  1.6129  0.4258
  259MOL0     H35692   4.137   9.519   4.220  1.2230  1.2561 -0.5074
  259MOL0     H35693   4.265   9.524   4.340 -1.0243  1.5156 -0.2455
  259MOL0     H35694   4.019   9.519   4.445  0.2105  1.4066  1.5149
  259MOL0     H35695   4.006   9.362   4.382  2.5123 -0.6772 -1.9236
  259MOL0     H35696   4.069   9.365   4.617 -2.4222 -0.8151 -1.6922
  259MOL0     H35697   4.166   9.262   4.512 -1.8432 -1.2412  1.0645
  259MOL0     H35698   4.311   9.389   4.688  3.1833  1.9206 -0.1308
  259MOL0     H35699   4.357   9.448   4.529  1.4511 -0.7957  2.4611
  259MOL0     H35700   4.144   9.792   4.682  1.8067  0.7288  0.2143
  259MOL0     H35701   4.100   9.976   4.810  0.1062  0.9333  0.5707
  259MOL0     H35702   4.144   9.967   4.974 -1.6991  1.2728 -0.9899
  259MOL0     H35703   3.971   9.960   4.929 -0.3217  4.5058 -1.5213
  259MOL0     H35704   3.688   9.560   5.212 -4.5199  1.4635  1.2243
  259MOL0     H35705   3.526   9.605   5.402 -1.0991  4.7668 -1.7915
  259MOL0     H35706   3.662   9.748   5.799 -0.7350  2.0062  0.8971
  259MOL0     H35707   3.657   9.885   5.695  0.7138 -0.2242 -0.4506
  259MOL0     H35708   3.402   9.746   5.803 -1.7756  2.0167 -0.1507
  259MOL0     H35709   3.470   9.859   5.901 -3.8166  1.7991  0.1687
  259MOL0     H35710   3.357   9.894   5.625 -3.0518  1.4789 -0.5492
  259MOL0     H35711   3.431  10.034   5.712  0.1234 -0.2486 -0.8273
  259MOL0     H35712   3.270   9.977   5.888  2.2239 -1.1142  0.3623
  259MOL0     H35713   3.198   9.851   5.776  3.1555 -1.0365 -1.3493
  259MOL0     H35714   3.195  10.159   5.755 -1.3283  1.2532 -0.5485
  259MOL0     H35715   3.161  10.053   5.615 -1.0227  0.9988  0.0971
  259MOL0     H35716   3.011  10.113   5.870  0.2126  0.4901 -0.9307
  259MOL0     H35717   2.973   9.962   5.774 -1.4374 -0.9389 -2.2686
  259MOL0     H35718   2.947  10.117   5.578 -1.8917 -0.3248 -0.8063
  259MOL0     H35719   2.923  10.250   5.693 -1.7856  0.3448  1.7891
  259MOL0     H35720   2.746  10.148   5.805  0.7772 -0.9094  1.2718
  259MOL0     H35721   2.771   9.994   5.725  1.0006  0.3837  2.1256
  259MOL0     H35722   3.836   9.785   5.627  2.0936 -1.1140 -0.1780
  259MOL0     H35723   4.006   9.731   5.450 -0.3366  2.7879  0.0349
  259MOL0     H35724   4.036   9.470   5.045 -1.1916  1.0102 -0.2305
  259MOL0     H35725   4.171   9.405   4.846 -0.5121  1.1841 -3.5166
  259MOL0     H35726   5.201   8.962   3.761  0.8762 -0.8937  0.1822
  259MOL0     H35727   5.246   8.795   3.579 -0.0860  0.6013  0.5202
  259MOL0     H35728   4.912   8.595   3.089 -1.3668 -0.5558  0.1389
  259MOL0     H35729   4.953   8.439   2.911 -0.6456 -0.4011 -1.0375
  259MOL0     H35730   5.187   8.298   2.655  3.1136  2.8697 -1.1691
  259MOL0     H35731   5.044   8.360   2.728 -1.0045  1.9832  3.6163
  259MOL0     H35732   5.134   8.591   2.683 -0.6037 -1.2394 -0.7702
  259MOL0     H35733   5.163   8.487   2.540 -0.5160 -0.5751 -0.2875
  259MOL0     H35734   5.357   8.583   2.757 -0.8233  1.2826 -0.5662
  259MOL0     H35735   5.387   8.431   2.662 -0.9066 -0.8308  0.7921
  259MOL0     H35736   5.345   8.569   2.455  0.5903 -0.2095 -0.3261
  259MOL0     H35737   5.502   8.546   2.530 -1.7194 -3.8015 -1.1385
  259MOL0     H35738   5.415   8.971   2.534  2.3380  0.8106 -0.5241
  259MOL0     H35739   5.367   8.415   3.039 -0.7918 -1.7998 -2.4312
  259MOL0     H35740   5.305   8.588   3.350 -3.6689 -0.8745 -2.1146
  259MOL0     H35741   5.424   8.510   3.248 -0.7226 -1.9646  1.0953
  259MOL0     H35742   5.382   8.689   3.216 -3.1071  0.5200 -1.2623
  260MOL0     O35743  11.475   0.506   2.471  0.5315 -0.7367 -0.7448
  260MOL0     C35744  11.415   0.616   2.478  0.5580  1.0688  0.9459
  260MOL0     O35745  11.277   0.638   2.464 -0.5912 -0.7887 -0.3801
  260MOL0     C35746  11.184   0.546   2.439 -0.9194  0.2699  0.8073
  260MOL0     C35747  11.055   0.567   2.491  1.2398 -0.7758  0.3085
  260MOL0     C35748  10.965   0.466   2.484 -0.1902 -0.2784 -0.0126
  260MOL0     C35749  10.984   0.352   2.405 -0.5136  0.6939 -0.5531
  260MOL0     O35750  10.893   0.249   2.380  0.6522  0.3074 -0.3772
  260MOL0     C35751  10.772   0.251   2.467 -0.1592 -0.1528 -0.7468
  260MOL0     C35752  10.721   0.109   2.486  0.8163 -0.1015 -1.0183
  260MOL0     C35753  10.600   0.094   2.575  0.3761  0.5705  0.1298
  260MOL0     C35754  10.565  -0.055   2.614  1.1832 -0.5225  0.7486
  260MOL0     C35755  10.426  -0.063   2.685  0.5186 -0.8314 -0.0612
  260MOL0     C35756  10.405  -0.190   2.755 -0.0176 -0.6734  0.0468
  260MOL0     C35757  10.257  -0.207   2.795 -0.0669 -0.2571  0.0890
  260MOL0     C35758  10.256  -0.336   2.879  0.2352  0.4762  1.5909
  260MOL0     N35759  10.118  -0.364   2.922  0.3178  0.6389 -0.3924
  260MOL0     C35760  10.007  -0.405   2.851  0.3684 -0.2470  1.0246
  260MOL0     C35761   9.907  -0.432   2.948 -0.0977 -0.4151  0.3026
  260MOL0     C35762   9.770  -0.493   2.909 -0.0451  0.1219 -0.5136
  260MOL0     C35763   9.652  -0.386   2.879 -0.7430  0.6275 -0.9163
  260MOL0     C35764   9.688  -0.290   2.776  0.1584  0.1097 -0.1654
  260MOL0     C35765   9.576  -0.220   2.714  1.0955  0.0896 -0.5611
  260MOL0     O35766   9.473  -0.303   2.657  0.5508  0.2779  0.2221
  260MOL0     C35767   9.412  -0.238   2.554  0.4598  0.4665  0.0013
  260MOL0     C35768   9.365  -0.111   2.560 -0.7332 -0.5811 -0.7894
  260MOL0     C35769   9.283  -0.055   2.462  0.2118  0.2017  0.4858
  260MOL0     C35770   9.236   0.085   2.481  0.9291 -0.4833  0.2802
  260MOL0     C35771   9.247  -0.132   2.348 -0.1398 -0.2152 -0.0276
  260MOL0     C35772   9.164  -0.087   2.228  0.6896 -0.3452  0.5128
  260MOL0     O35773   9.115  -0.186   2.146  0.3236  0.0574 -0.0572
  260MOL0     C35774   8.977  -0.178   2.119 -0.0708 -0.4325 -0.0688
  260MOL0     C35775   8.941  -0.255   2.004  0.5589  1.0618 -0.4458
  260MOL0     C35776   8.816  -0.244   1.955  0.7371  0.7339 -0.4826
  260MOL0     C35777   8.715  -0.150   2.013  0.0839  0.5699  0.4326
  260MOL0     O35778   8.591  -0.130   1.952  0.3199  0.1334 -0.0314
  260MOL0     C35779   8.581  -0.045   1.845  0.9167 -1.1435  0.6247
  260MOL0     C35780   8.642  -0.099   1.717  0.7558 -0.3467 -0.1175
  260MOL0     C35781   8.574  -0.232   1.674  0.3901  0.1192 -0.2905
  260MOL0     C35782   8.419  -0.217   1.654 -0.3469  0.1806  0.9793
  260MOL0     C35783   8.353  -0.342   1.605 -0.0782 -0.2106 -0.5118
  260MOL0     C35784   8.198  -0.326   1.584  0.5136  0.3894  0.6407
  260MOL0     C35785   8.115  -0.456   1.587  0.0784  0.6683 -0.4578
  260MOL0     C35786   7.966  -0.438   1.584 -1.0537  0.3525 -0.0755
  260MOL0    Cl35787   7.920  -0.362   1.744  0.1667 -0.0429  0.0019
  260MOL0     C35788   8.754  -0.091   2.141 -0.1637  0.3408  0.9637
  260MOL0     C35789   8.878  -0.117   2.199 -0.5647 -0.3842 -0.5119
  260MOL0     O35790   9.152   0.032   2.205  0.1150 -0.4217 -0.1393
  260MOL0     C35791   9.298  -0.262   2.336 -0.3239 -1.1025  0.2671
  260MOL0     C35792   9.377  -0.311   2.442 -0.2564  0.1213 -0.0249
  260MOL0     N35793   9.957  -0.403   3.065 -0.0552  0.0420 -0.6581
  260MOL0     N35794  10.071  -0.360   3.051  0.6794 -0.8659 -0.7272
  260MOL0     C35795  11.107   0.328   2.345  0.9774  0.0620 -0.2985
  260MOL0     C35796  11.210   0.422   2.370 -0.2430 -0.4013  0.3803
  260MOL0     C35797  11.504   0.738   2.496 -0.0515 -0.3919  0.5755
  260MOL0     C35798  11.639   0.722   2.538 -0.5599  0.4528  0.2737
  260MOL0     C35799  11.728   0.830   2.562 -0.5971 -0.2177 -0.2434
  260MOL0     C35800  11.695   0.956   2.513 -0.3189 -0.4526 -0.3404
  260MOL0     O35801  11.786   1.061   2.521 -1.1686  0.6238  0.1802
  260MOL0     C35802  11.780   1.152   2.411  0.1782  0.9911 -0.4050
  260MOL0     C35803  11.798   1.082   2.278  0.1838  1.0779  0.2824
  260MOL0     C35804  11.791   1.177   2.160  0.2106  0.0434 -0.5177
  260MOL0     C35805  11.804   1.111   2.023  0.0548 -0.5897 -0.3693
  260MOL0     C35806  11.774   1.206   1.921  0.8382 -0.1785 -0.5263
  260MOL0     C35807  11.760   1.284   1.833  0.6816 -0.0927  0.7918
  260MOL0     C35808  11.563   0.973   2.464  0.1196  0.0824  0.0981
  260MOL0     C35809  11.472   0.866   2.449 -0.2003 -0.3216  1.0478
  260MOL0     C35810  11.345   0.905   2.383  0.8858 -0.1724 -0.6887
  260MOL0     H35811  11.045   0.659   2.547  1.8110  0.5322 -1.6288
  260MOL0     H35812  10.866   0.505   2.506 -1.0481 -0.0493 -3.5821
  260MOL0     H35813  10.696   0.319   2.427  1.2484  0.7457 -2.0414
  260MOL0     H35814  10.794   0.302   2.561 -0.5138 -3.1673  1.0762
  260MOL0     H35815  10.686   0.069   2.390 -1.4645 -3.6533  1.0806
  260MOL0     H35816  10.798   0.048   2.533  2.4171  2.4463 -0.1262
  260MOL0     H35817  10.622   0.147   2.668 -0.9255  0.2216  0.6609
  260MOL0     H35818  10.524   0.143   2.513 -0.6833 -2.8064 -1.5349
  260MOL0     H35819  10.562  -0.127   2.532  4.6118 -1.3857  1.1987
  260MOL0     H35820  10.641  -0.086   2.687  1.3832  0.2384  0.8746
  260MOL0     H35821  10.348  -0.044   2.610 -0.2992  1.0853  1.2248
  260MOL0     H35822  10.415   0.019   2.756 -1.1489 -2.0971  1.2124
  260MOL0     H35823  10.427  -0.262   2.675  1.8917 -1.5216  1.2772
  260MOL0     H35824  10.484  -0.205   2.829  0.5086 -0.9555 -0.5641
  260MOL0     H35825  10.186  -0.212   2.712 -2.2160  0.2678  1.8161
  260MOL0     H35826  10.225  -0.130   2.866  2.6027 -0.8556  2.0714
  260MOL0     H35827  10.282  -0.424   2.820  0.0560  2.2520 -1.3465
  260MOL0     H35828  10.336  -0.336   2.953  2.4694  0.2077 -0.6683
  260MOL0     H35829  10.003  -0.417   2.743  2.4415 -0.8081  0.9777
  260MOL0     H35830   9.735  -0.538   3.003  0.9648 -0.1602 -0.2671
  260MOL0     H35831   9.772  -0.575   2.837 -0.3513  0.6363 -1.1118
  260MOL0     H35832   9.562  -0.447   2.874 -0.6250  0.0294  2.3515
  260MOL0     H35833   9.647  -0.325   2.969  3.4926 -0.6370  0.4293
  260MOL0     H35834   9.759  -0.225   2.828  2.3020 -3.3452  1.5736
  260MOL0     H35835   9.744  -0.342   2.699  0.7645 -1.9929  1.6076
  260MOL0     H35836   9.537  -0.160   2.797  4.3925  2.1732 -0.3565
  260MOL0     H35837   9.614  -0.145   2.644 -2.0294 -0.3237 -2.9249
  260MOL0     H35838   9.368  -0.056   2.653 -1.1976 -1.2622 -0.3661
  260MOL0     H35839   9.128   0.095   2.497  1.4724  1.3603  3.7231
  260MOL0     H35840   9.261   0.144   2.393  1.8551 -0.4568  0.5553
  260MOL0     H35841   9.284   0.138   2.563  0.2833 -1.0433  1.0345
  260MOL0     H35842   9.006  -0.327   1.956 -1.5901 -0.7198 -0.8442
  260MOL0     H35843   8.790  -0.306   1.869  2.2061 -3.1321  1.6112
  260MOL0     H35844   8.475  -0.022   1.829  1.0122  2.0281  3.4815
  260MOL0     H35845   8.623   0.051   1.878 -0.3893 -1.0808  2.2453
  260MOL0     H35846   8.612  -0.033   1.636 -1.0658 -0.2725  0.5608
  260MOL0     H35847   8.749  -0.116   1.705  0.8157  1.0427 -1.8996
  260MOL0     H35848   8.600  -0.313   1.743 -0.6966  0.7092  0.8469
  260MOL0     H35849   8.614  -0.259   1.576  4.5202 -0.3242  1.3176
  260MOL0     H35850   8.403  -0.141   1.576 -1.7554 -1.7585 -0.7356
  260MOL0     H35851   8.367  -0.180   1.742 -2.0044 -0.7906  0.4453
  260MOL0     H35852   8.400  -0.375   1.512 -1.5546  2.4513 -2.3519
  260MOL0     H35853   8.366  -0.424   1.675 -0.4189 -1.0968 -1.4610
  260MOL0     H35854   8.178  -0.268   1.493 -0.6635 -0.0581  0.5894
  260MOL0     H35855   8.169  -0.259   1.665  0.4157 -1.1579  1.9267
  260MOL0     H35856   8.157  -0.510   1.673  1.3570  0.4468 -1.2030
  260MOL0     H35857   8.148  -0.510   1.499  0.2257  1.0715 -0.6503
  260MOL0     H35858   7.925  -0.538   1.565  0.0005  0.2013 -1.7263
  260MOL0     H35859   7.936  -0.379   1.497 -2.2418  0.8995  0.6832
  260MOL0     H35860   8.683  -0.029   2.195 -0.9766  0.7643 -0.5502
  260MOL0     H35861   8.896  -0.058   2.288 -1.6671  2.3423 -1.9870
  260MOL0     H35862   9.285  -0.324   2.248  6.5322 -4.7217  1.1432
  260MOL0     H35863   9.413  -0.412   2.425  1.9932  0.5279  1.7621
  260MOL0     H35864  11.135   0.240   2.287 -0.0221  0.2987 -1.1730
  260MOL0     H35865  11.312   0.402   2.337 -0.3472 -2.9799  1.3722
  260MOL0     H35866  11.684   0.623   2.540 -1.2012 -0.0146 -2.8821
  260MOL0     H35867  11.828   0.808   2.598  0.0857  0.3151 -1.7324
  260MOL0     H35868  11.688   1.210   2.422 -0.5981 -0.1223 -0.8167
  260MOL0     H35869  11.864   1.223   2.417  1.6450 -0.7886  2.5753
  260MOL0     H35870  11.728   1.001   2.256  0.6369  0.9944 -0.9397
  260MOL0     H35871  11.899   1.040   2.274  0.0723  0.2555  3.5556
  260MOL0     H35872  11.693   1.226   2.161  1.1785  2.0845  1.0795
  260MOL0     H35873  11.863   1.259   2.158  0.7687 -0.3941 -3.4499
  260MOL0     H35874  11.730   1.031   2.015 -1.5228  0.8065 -0.1687
  260MOL0     H35875  11.908   1.081   2.010  0.5005  1.4369 -2.0048
  260MOL0     H35876  11.759   1.362   1.760 -0.5688  0.1556  1.0505
  260MOL0     H35877  11.536   1.066   2.415 -0.4086 -0.4066 -0.5547
  260MOL0     H35878  11.316   0.833   2.306 -0.3292  0.1673 -0.5762
  260MOL0     H35879  11.255   0.892   2.445  1.3975  0.7473  0.2933
  260MOL0     H35880  11.349   1.007   2.344  0.5273 -0.6154 -1.9168
  261MOL0     O35881   1.727   8.303   5.844 -0.3046 -0.6195 -0.0987
  261MOL0     C35882   1.757   8.332   5.960 -0.4927 -0.1185  0.2415
  261MOL0     O35883   1.886   8.333   6.007  0.9677  0.5598  0.0913
  261MOL0     C35884   1.979   8.286   5.917  0.2029 -1.5843 -1.4515
  261MOL0     C35885   2.052   8.164   5.940 -0.0304 -0.7965  0.3792
  261MOL0     C35886   2.151   8.123   5.844  0.8576  0.3444  0.6408
  261MOL0     C35887   2.192   8.192   5.728  0.2374  0.8573 -0.6412
  261MOL0     O35888   2.291   8.159   5.632  0.1147  0.1702 -0.0412
  261MOL0     C35889   2.306   8.017   5.587 -0.4779 -0.3961  0.1224
  261MOL0     C35890   2.353   8.027   5.433 -0.4277 -0.3750  0.2743
  261MOL0     C35891   2.437   8.146   5.384 -0.4224 -0.2127  0.5300
  261MOL0     C35892   2.578   8.142   5.465 -0.4687 -0.5575  0.0762
  261MOL0     C35893   2.682   8.247   5.425 -0.3673  0.1485 -0.4052
  261MOL0     C35894   2.734   8.245   5.279 -0.7338  0.0591  0.5983
  261MOL0     C35895   2.811   8.118   5.242  0.8543 -0.3095  0.0083
  261MOL0     C35896   2.817   8.101   5.091  0.7378 -0.0240 -1.2534
  261MOL0     N35897   2.692   8.058   5.030 -0.4858  0.1638 -0.1217
  261MOL0     C35898   2.589   7.983   5.079  0.2289 -0.8943  0.4721
  261MOL0     C35899   2.514   7.971   4.963  1.7736 -0.8133 -0.2233
  261MOL0     C35900   2.397   7.870   4.974  0.5567 -1.0350  1.2801
  261MOL0     C35901   2.262   7.935   5.003  0.1535 -1.1643  0.6437
  261MOL0     C35902   2.157   7.829   5.041  0.4912  0.4263  0.1388
  261MOL0     C35903   2.014   7.880   5.076  0.7206  0.1788 -0.6098
  261MOL0     O35904   1.926   7.770   5.059  0.0887 -0.1097 -0.0339
  261MOL0     C35905   1.803   7.784   5.118 -0.5932  0.4656  1.0754
  261MOL0     C35906   1.729   7.901   5.122  0.1246 -0.2023  0.0599
  261MOL0     C35907   1.600   7.913   5.172 -0.4954  0.1964  1.3906
  261MOL0     C35908   1.530   8.054   5.176  0.5304 -1.0731  0.0954
  261MOL0     C35909   1.548   7.797   5.213 -0.4140 -0.1002 -0.5348
  261MOL0     C35910   1.408   7.788   5.263  1.0685 -0.1699  0.3938
  261MOL0     O35911   1.369   7.675   5.335  0.0611  0.4628  0.0201
  261MOL0     C35912   1.236   7.658   5.335  0.4275 -0.2597  0.1046
  261MOL0     C35913   1.139   7.740   5.401 -0.1305  0.0571 -0.0548
  261MOL0     C35914   1.003   7.711   5.398  0.5767  0.6684  0.4837
  261MOL0     C35915   0.956   7.587   5.348 -0.8250 -1.0593 -0.2793
  261MOL0     O35916   0.821   7.554   5.345  0.3518 -0.4343 -0.6785
  261MOL0     C35917   0.774   7.553   5.480  1.0079 -0.6243  0.0990
  261MOL0     C35918   0.652   7.459   5.477  0.7306 -0.8125 -0.1075
  261MOL0     C35919   0.531   7.503   5.571 -0.6590  0.2856 -0.4984
  261MOL0     C35920   0.465   7.642   5.546 -0.6773 -0.1879 -1.3227
  261MOL0     C35921   0.407   7.704   5.666 -0.4742 -0.3088 -0.5453
  261MOL0     C35922   0.307   7.800   5.618  0.4056  0.5205 -0.4520
  261MOL0     C35923   0.242   7.858   5.749  0.6586 -0.7641 -0.0614
  261MOL0     C35924   0.318   7.956   5.833 -0.4732  0.2066 -0.9212
  261MOL0    Cl35925   0.362   8.096   5.736  0.0504 -0.0717 -0.1543
  261MOL0     C35926   1.057   7.503   5.296 -0.3884  0.8433 -0.7905
  261MOL0     C35927   1.188   7.541   5.277  0.2426 -0.0378 -0.1087
  261MOL0     O35928   1.333   7.867   5.212  0.6491  0.1475 -0.1372
  261MOL0     C35929   1.626   7.674   5.226 -0.5369  0.7957  0.3632
  261MOL0     C35930   1.750   7.672   5.166  0.1942 -0.6993  0.0709
  261MOL0     N35931   2.549   8.052   4.861  0.0941 -0.7905 -0.0312
  261MOL0     N35932   2.654   8.105   4.907 -0.6650  0.3890 -0.8525
  261MOL0     C35933   2.120   8.314   5.715  1.0277  0.3040  0.0660
  261MOL0     C35934   2.017   8.354   5.804  0.5354  0.8606 -0.8893
  261MOL0     C35935   1.652   8.351   6.061 -0.4949 -0.2265  0.0602
  261MOL0     C35936   1.689   8.348   6.193 -0.8560  0.2294 -0.9213
  261MOL0     C35937   1.606   8.358   6.296  0.7117 -1.2336  0.1140
  261MOL0     C35938   1.471   8.366   6.273  0.9925 -0.9694 -0.8181
  261MOL0     O35939   1.382   8.372   6.373  0.2632  0.0690  0.7713
  261MOL0     C35940   1.375   8.260   6.463  0.6583  0.5100 -0.1347
  261MOL0     C35941   1.357   8.308   6.607  0.5665  0.6001 -1.0970
  261MOL0     C35942   1.340   8.187   6.702  0.3004 -0.0464  0.5514
  261MOL0     C35943   1.339   8.215   6.848 -0.0226 -0.8252 -0.2057
  261MOL0     C35944   1.225   8.290   6.889  1.2325  0.8355  0.4647
  261MOL0     C35945   1.120   8.331   6.936 -0.3813 -0.0292  0.3032
  261MOL0     C35946   1.424   8.358   6.144  0.5117  0.2771 -0.0517
  261MOL0     C35947   1.513   8.355   6.033 -0.2293 -0.2943 -0.1559
  261MOL0     C35948   1.453   8.349   5.895 -0.0574 -0.3151 -0.7331
  261MOL0     H35949   2.024   8.109   6.029  1.9574 -0.8973  0.9711
  261MOL0     H35950   2.207   8.029   5.850 -0.3744 -0.4988 -0.5160
  261MOL0     H35951   2.209   7.970   5.602 -1.0188  1.2962  2.5803
  261MOL0     H35952   2.377   7.966   5.653  1.2046  1.8628  0.2073
  261MOL0     H35953   2.412   7.937   5.413  0.9145  0.0314  2.0831
  261MOL0     H35954   2.265   8.025   5.369  0.1795  0.2216 -0.6030
  261MOL0     H35955   2.463   8.151   5.277  1.2342 -0.9666  0.8755
  261MOL0     H35956   2.382   8.240   5.398 -0.4354 -0.2354  0.6277
  261MOL0     H35957   2.558   8.152   5.573  3.6697 -3.9612  1.4246
  261MOL0     H35958   2.624   8.045   5.447 -0.2148 -0.5065  0.4451
  261MOL0     H35959   2.774   8.236   5.484  1.5458  1.3996 -2.9489
  261MOL0     H35960   2.645   8.350   5.435  3.9360  1.8894  0.0808
  261MOL0     H35961   2.644   8.260   5.219 -0.6730 -1.0726  0.2143
  261MOL0     H35962   2.799   8.331   5.261 -2.6664  1.7177  1.1240
  261MOL0     H35963   2.747   8.037   5.280  0.7198  1.3310  3.6302
  261MOL0     H35964   2.908   8.131   5.290  0.3824  2.3461  0.3543
  261MOL0     H35965   2.848   8.199   5.054  1.1880  0.0677 -0.6551
  261MOL0     H35966   2.897   8.031   5.068 -0.3315 -0.3351 -4.5204
  261MOL0     H35967   2.558   7.950   5.178 -0.6073 -3.3527 -0.5297
  261MOL0     H35968   2.394   7.799   5.058 -0.8458 -0.4608  1.7392
  261MOL0     H35969   2.402   7.807   4.885  4.5695  1.9446 -0.9377
  261MOL0     H35970   2.271   8.010   5.082  0.7741  1.2686 -1.5907
  261MOL0     H35971   2.215   7.978   4.914  1.1825 -1.6323 -0.1430
  261MOL0     H35972   2.154   7.763   4.953 -4.4992  2.6495 -1.7617
  261MOL0     H35973   2.195   7.795   5.137  2.7994  0.9594 -0.5302
  261MOL0     H35974   2.017   7.919   5.178  1.7656  0.2824 -0.6715
  261MOL0     H35975   1.990   7.961   5.006  0.5972  0.8283  0.1792
  261MOL0     H35976   1.779   7.987   5.079  2.2485 -0.9720  0.8699
  261MOL0     H35977   1.607   8.124   5.142  0.8601  0.4636  3.5823
  261MOL0     H35978   1.498   8.068   5.280  0.7567 -1.2204  0.1845
  261MOL0     H35979   1.440   8.059   5.113 -0.8313 -2.3078  1.8350
  261MOL0     H35980   1.173   7.833   5.446 -0.1405 -0.3342  0.7752
  261MOL0     H35981   0.930   7.774   5.448  1.3306  2.6173 -0.7528
  261MOL0     H35982   0.846   7.514   5.552  0.6869  2.0355  2.0122
  261MOL0     H35983   0.742   7.652   5.515  0.1301 -0.1688 -1.8453
  261MOL0     H35984   0.602   7.459   5.380  1.5302 -1.8522 -0.5343
  261MOL0     H35985   0.691   7.359   5.497  0.3646 -0.3408  3.7725
  261MOL0     H35986   0.566   7.502   5.674 -4.6294  2.8787  1.1382
  261MOL0     H35987   0.452   7.427   5.569 -0.3610 -0.3159  3.3765
  261MOL0     H35988   0.383   7.625   5.475 -1.6098 -1.2668 -0.0413
  261MOL0     H35989   0.539   7.704   5.493 -3.4728  1.3878 -3.7109
  261MOL0     H35990   0.362   7.639   5.741 -1.3466 -0.1764 -0.9398
  261MOL0     H35991   0.493   7.752   5.714 -0.4467 -2.0492  1.2814
  261MOL0     H35992   0.219   7.747   5.581  0.1269  1.2636 -0.8828
  261MOL0     H35993   0.349   7.861   5.537  0.9424 -1.8109 -2.0407
  261MOL0     H35994   0.222   7.782   5.824  0.6226  0.2268  0.9539
  261MOL0     H35995   0.143   7.896   5.725  0.4167 -1.4212 -0.1340
  261MOL0     H35996   0.409   7.914   5.877 -1.0419 -0.0935  0.0162
  261MOL0     H35997   0.263   7.997   5.919 -0.9189 -1.0732 -0.5722
  261MOL0     H35998   1.011   7.413   5.256 -3.0862  1.8348 -0.1060
  261MOL0     H35999   1.264   7.492   5.217  0.1558  1.3752 -1.4131
  261MOL0     H36000   1.583   7.581   5.261  0.5218 -0.0921 -0.6425
  261MOL0     H36001   1.806   7.580   5.151 -0.7590 -0.9920 -1.9771
  261MOL0     H36002   2.163   8.389   5.649  0.1610 -1.1157 -2.2153
  261MOL0     H36003   1.964   8.449   5.805  1.0614  1.2057  1.6483
  261MOL0     H36004   1.795   8.330   6.211 -0.6763  1.8240 -0.1781
  261MOL0     H36005   1.643   8.366   6.398 -1.6187 -0.9949  1.0038
  261MOL0     H36006   1.288   8.198   6.441  1.9710 -1.9461  1.1241
  261MOL0     H36007   1.461   8.192   6.462 -1.7090 -2.7349  0.2376
  261MOL0     H36008   1.267   8.370   6.612 -1.9433 -2.6941 -1.8673
  261MOL0     H36009   1.448   8.356   6.644  0.6399  0.3332 -0.9280
  261MOL0     H36010   1.249   8.132   6.677  0.8198  0.3849 -2.7149
  261MOL0     H36011   1.423   8.119   6.678 -0.4573  0.2736 -3.7083
  261MOL0     H36012   1.419   8.282   6.881 -0.1784 -0.6088 -0.2664
  261MOL0     H36013   1.341   8.119   6.899  1.5364 -0.1464  1.1138
  261MOL0     H36014   1.017   8.349   6.956 -0.5018 -0.3412 -0.0253
  261MOL0     H36015   1.316   8.351   6.135  0.3234  0.6522  1.6130
  261MOL0     H36016   1.492   8.438   5.842  0.6636 -0.3140 -0.2135
  261MOL0     H36017   1.481   8.255   5.847 -1.4502 -0.6831 -0.8534
  261MOL0     H36018   1.345   8.362   5.899 -0.0167  0.8778 -2.2777
  262MOL0     O36019   9.840   4.772   9.266  0.8707 -0.0785 -0.1647
  262MOL0     C36020   9.833   4.663   9.333  0.0381 -0.4313 -0.1384
  262MOL0     O36021   9.729   4.569   9.304 -0.6441 -0.0096 -0.7563
  262MOL0     C36022   9.632   4.605   9.225 -0.6219 -0.0352 -0.9208
  262MOL0     C36023   9.606   4.525   9.119  0.4822  0.7771  0.2656
  262MOL0     C36024   9.496   4.552   9.027  0.0890  0.2430 -0.2916
  262MOL0     C36025   9.419   4.665   9.046 -0.1406 -0.0769 -0.4094
  262MOL0     O36026   9.307   4.678   8.973  0.4325 -0.5222  0.3497
  262MOL0     C36027   9.203   4.771   9.010 -0.2068  0.9178 -0.3846
  262MOL0     C36028   9.070   4.757   8.934  0.3457  0.0299 -0.9368
  262MOL0     C36029   8.965   4.856   8.975 -0.0216  0.6511 -0.0602
  262MOL0     C36030   8.980   5.001   8.927  0.6726  0.4541 -0.0950
  262MOL0     C36031   8.976   5.015   8.774  0.3524 -0.0158  0.1302
  262MOL0     C36032   8.954   5.168   8.739 -0.0841 -0.8947 -0.1345
  262MOL0     C36033   9.085   5.239   8.730  0.6237  0.3337  0.3819
  262MOL0     C36034   9.068   5.386   8.698  0.7612  1.5157 -0.5062
  262MOL0     N36035   9.204   5.447   8.689  0.5958  0.6459 -0.2827
  262MOL0     C36036   9.291   5.414   8.586  0.3427 -0.1734 -0.4428
  262MOL0     C36037   9.377   5.517   8.570  0.7142 -1.1764  0.4891
  262MOL0     C36038   9.491   5.523   8.467  0.5680 -0.6802 -1.2580
  262MOL0     C36039   9.435   5.534   8.326  0.5039 -0.2936 -0.3471
  262MOL0     C36040   9.524   5.497   8.198  0.6140  0.5196 -0.5609
  262MOL0     C36041   9.640   5.598   8.178  0.1526  0.1829 -0.1272
  262MOL0     O36042   9.733   5.594   8.285  0.5413  0.1445  1.2795
  262MOL0     C36043   9.849   5.521   8.264  0.1617 -0.4727 -0.2399
  262MOL0     C36044   9.971   5.576   8.311  0.7758  0.0055 -0.2522
  262MOL0     C36045  10.095   5.527   8.275  0.5306 -0.6000 -0.3203
  262MOL0     C36046  10.222   5.600   8.321 -0.3011 -0.7200  0.6350
  262MOL0     C36047  10.096   5.403   8.202 -0.8988 -1.1412 -0.2206
  262MOL0     C36048  10.221   5.354   8.152 -0.9752 -0.5238 -0.4872
  262MOL0     O36049  10.231   5.221   8.144  0.3367 -1.1351  0.1626
  262MOL0     C36050  10.328   5.155   8.079  0.5743 -0.3830 -0.3442
  262MOL0     C36051  10.452   5.206   8.033  0.2265 -0.0510  0.5483
  262MOL0     C36052  10.536   5.124   7.954 -0.3860 -0.2428  0.3236
  262MOL0     C36053  10.496   4.989   7.925 -0.0759  0.1796  0.4023
  262MOL0     O36054  10.568   4.907   7.844 -0.7857  0.5992 -0.6522
  262MOL0     C36055  10.654   4.968   7.745 -0.7092  0.7443 -0.1505
  262MOL0     C36056  10.705   4.855   7.662 -0.0189  0.1148  0.0585
  262MOL0     C36057  10.762   4.742   7.751 -0.1244 -0.3161 -1.2768
  262MOL0     C36058  10.886   4.779   7.833  0.4759  0.4930  0.5830
  262MOL0     C36059  10.936   4.654   7.923  1.2184  0.6656  0.2066
  262MOL0     C36060  11.044   4.693   8.020  0.3029  0.3608 -0.3644
  262MOL0     C36061  11.131   4.580   8.079  0.0958  0.9398 -0.1053
  262MOL0     C36062  11.040   4.479   8.144 -0.1105 -0.0587 -0.4769
  262MOL0    Cl36063  10.943   4.551   8.271 -0.0560  0.1280  0.5713
  262MOL0     C36064  10.387   4.934   7.983  1.2266 -0.2847  0.2651
  262MOL0     C36065  10.303   5.019   8.058  0.3139  0.6947  0.0872
  262MOL0     O36066  10.305   5.430   8.106 -0.0690 -0.2335  0.3266
  262MOL0     C36067   9.972   5.343   8.165 -0.5197 -0.7438  0.0469
  262MOL0     C36068   9.857   5.407   8.194  0.1164  0.2722  0.1085
  262MOL0     N36069   9.347   5.607   8.676  0.7261 -0.4064  0.4850
  262MOL0     N36070   9.241   5.562   8.737 -0.2265 -0.4071 -0.2631
  262MOL0     C36071   9.449   4.755   9.142 -0.0516 -0.9592  0.1128
  262MOL0     C36072   9.556   4.722   9.233 -0.2629 -0.1660 -0.2391
  262MOL0     C36073   9.930   4.625   9.443  0.0336  0.3301  0.4616
  262MOL0     C36074   9.930   4.493   9.493 -0.2582  0.5119  0.1962
  262MOL0     C36075  10.010   4.457   9.602 -0.1189 -0.3836  1.6435
  262MOL0     C36076  10.101   4.544   9.653 -0.1913 -0.3689 -0.0121
  262MOL0     O36077  10.178   4.500   9.760 -0.4627  0.2899 -0.0473
  262MOL0     C36078  10.217   4.603   9.854  0.1186 -0.1513  0.2605
  262MOL0     C36079  10.230   4.533   9.998  0.2476  0.2657  0.4189
  262MOL0     C36080  10.093   4.479  10.049  0.2632 -0.1812  0.3187
  262MOL0     C36081  10.067   4.335  10.023 -0.0219  0.0701 -0.2747
  262MOL0     C36082  10.102   4.263  10.146 -0.2603  0.3302  0.2819
  262MOL0     C36083  10.129   4.219  10.257  0.3318 -0.5263  0.6628
  262MOL0     C36084  10.118   4.669   9.593  0.3540 -0.3773 -0.0370
  262MOL0     C36085  10.037   4.713   9.490  1.6150  0.5015  1.2126
  262MOL0     C36086  10.057   4.846   9.437  0.0113  1.1377 -0.0184
  262MOL0     H36087   9.666   4.434   9.118  2.3082  1.8531  2.5513
  262MOL0     H36088   9.460   4.479   8.955 -2.1131 -0.4408  1.3989
  262MOL0     H36089   9.251   4.867   8.988  2.9093 -0.5000 -0.2757
  262MOL0     H36090   9.188   4.755   9.118 -0.0872  1.3306 -0.3042
  262MOL0     H36091   9.100   4.766   8.829 -1.7649  2.2274 -1.4499
  262MOL0     H36092   9.037   4.653   8.940 -1.1002  0.4775 -0.7908
  262MOL0     H36093   8.864   4.820   8.956 -0.2396  1.0620  0.2865
  262MOL0     H36094   8.974   4.855   9.085  1.9229 -2.6467 -0.1307
  262MOL0     H36095   8.908   5.057   8.987 -0.4020 -1.8081  0.8605
  262MOL0     H36096   9.080   5.033   8.957  0.0559  2.5547 -0.1763
  262MOL0     H36097   8.883   4.965   8.746 -0.2242 -1.1284  3.5888
  262MOL0     H36098   9.062   4.979   8.717 -1.8857 -0.5292 -3.2249
  262MOL0     H36099   8.897   5.169   8.646 -0.1607 -1.5154 -0.0927
  262MOL0     H36100   8.888   5.204   8.820  0.1650 -2.3337  0.7400
  262MOL0     H36101   9.148   5.183   8.661 -0.9922 -2.3098  0.9287
  262MOL0     H36102   9.130   5.241   8.830 -0.1880 -0.8753  0.7880
  262MOL0     H36103   9.018   5.408   8.603  1.8881  0.4609 -1.3860
  262MOL0     H36104   9.006   5.433   8.775 -2.3574 -1.2831 -1.0652
  262MOL0     H36105   9.281   5.320   8.533 -3.0653 -1.3915  2.0478
  262MOL0     H36106   9.557   5.435   8.466 -0.5892 -1.5904 -3.0223
  262MOL0     H36107   9.552   5.612   8.479 -0.4212 -0.1275 -0.0770
  262MOL0     H36108   9.338   5.483   8.323 -0.9215  2.2008  0.1232
  262MOL0     H36109   9.388   5.633   8.313 -2.8497 -1.6214  0.5489
  262MOL0     H36110   9.557   5.393   8.204 -1.5320 -0.2786 -1.5273
  262MOL0     H36111   9.469   5.504   8.104  0.1214 -3.1937 -0.6825
  262MOL0     H36112   9.689   5.580   8.081 -0.8404 -1.7441 -0.3247
  262MOL0     H36113   9.596   5.697   8.176  1.9486  1.0320  0.2086
  262MOL0     H36114   9.970   5.663   8.376  0.3707 -0.2130  0.0407
  262MOL0     H36115  10.244   5.675   8.245  2.8904  0.0568  2.1746
  262MOL0     H36116  10.306   5.531   8.314 -1.2744 -1.7821 -3.3535
  262MOL0     H36117  10.215   5.630   8.426  0.6705 -2.5879  1.2908
  262MOL0     H36118  10.492   5.300   8.071  0.9931  1.0346 -2.6476
  262MOL0     H36119  10.632   5.158   7.917 -1.3444 -1.6895 -4.1333
  262MOL0     H36120  10.607   5.036   7.674 -2.6622  0.5591  0.8956
  262MOL0     H36121  10.735   5.028   7.788  1.0292 -0.2945 -1.8193
  262MOL0     H36122  10.622   4.829   7.596  1.8975 -2.4828 -1.4954
  262MOL0     H36123  10.782   4.891   7.592  1.4188 -0.1514  1.4418
  262MOL0     H36124  10.789   4.678   7.667 -3.4612 -3.6561 -0.1003
  262MOL0     H36125  10.695   4.687   7.818 -1.1073  3.8006  1.4722
  262MOL0     H36126  10.857   4.864   7.896  0.9788  1.2942 -0.2485
  262MOL0     H36127  10.966   4.809   7.765  0.0273 -2.2738 -1.3135
  262MOL0     H36128  10.851   4.606   7.971  1.2165  2.4434  2.1290
  262MOL0     H36129  10.988   4.579   7.862  3.0528  1.2512  0.9824
  262MOL0     H36130  10.991   4.763   8.085 -0.6969 -1.1446  0.4869
  262MOL0     H36131  11.123   4.748   7.967  1.4908 -2.9494 -2.3778
  262MOL0     H36132  11.204   4.617   8.152  0.2782  0.5622 -0.0961
  262MOL0     H36133  11.189   4.527   8.003  1.2914  0.8798  0.8147
  262MOL0     H36134  11.099   4.399   8.189 -1.0025  0.5134  1.8528
  262MOL0     H36135  10.960   4.440   8.080 -1.3965  1.3325  0.2120
  262MOL0     H36136  10.367   4.828   7.978  2.3296 -0.4534 -1.3819
  262MOL0     H36137  10.216   4.977   8.107 -0.5973  0.5714 -1.5661
  262MOL0     H36138   9.974   5.251   8.108 -1.6846 -0.2239 -0.8673
  262MOL0     H36139   9.768   5.357   8.158  1.5160 -2.7636  0.5226
  262MOL0     H36140   9.402   4.852   9.157  0.0229 -0.9430  0.2412
  262MOL0     H36141   9.584   4.798   9.305  2.4185 -0.5627 -0.7634
  262MOL0     H36142   9.855   4.423   9.458  0.3896 -0.2561  0.2995
  262MOL0     H36143   9.989   4.359   9.643 -3.3700 -0.6561 -0.3097
  262MOL0     H36144  10.306   4.658   9.824 -2.0771  2.6012 -1.7442
  262MOL0     H36145  10.140   4.680   9.866 -0.5332 -0.8080  0.3859
  262MOL0     H36146  10.274   4.597  10.074  0.8496 -1.9772  2.0706
  262MOL0     H36147  10.294   4.445   9.987 -1.6302 -1.1042 -0.2073
  262MOL0     H36148  10.094   4.500  10.156  3.8668  0.8729  0.1952
  262MOL0     H36149  10.013   4.544  10.011 -0.5062 -1.5579 -0.5140
  262MOL0     H36150  10.131   4.294   9.944  4.1777  2.9834  1.2783
  262MOL0     H36151   9.961   4.310  10.018 -0.7633  1.8256  3.4325
  262MOL0     H36152  10.132   4.188  10.360 -0.7073  1.2024  1.2631
  262MOL0     H36153  10.207   4.721   9.627  1.8748 -2.8794  0.0785
  262MOL0     H36154  10.080   4.843   9.330 -0.4199 -0.7839 -0.1096
  262MOL0     H36155   9.971   4.911   9.457 -1.3125 -0.8350  1.0904
  262MOL0     H36156  10.138   4.898   9.488 -0.6323  2.1471  0.0059
  263MOL0     O36157   7.544  11.113   2.100 -0.6561 -0.5201  0.4087
  263MOL0     C36158   7.654  11.064   2.076  0.2284  0.3398  0.4103
  263MOL0     O36159   7.767  11.083   2.148  0.1497 -0.2826 -0.0871
  263MOL0     C36160   7.766  11.162   2.269  0.5640 -0.7848 -0.2909
  263MOL0     C36161   7.670  11.166   2.367  0.2660 -0.1367 -0.1251
  263MOL0     C36162   7.673  11.249   2.472  0.6854 -0.4545  0.8630
  263MOL0     C36163   7.776  11.343   2.483  0.5740 -0.6084 -0.5002
  263MOL0     O36164   7.776  11.435   2.584 -0.4054  0.2364 -0.4454
  263MOL0     C36165   7.733  11.569   2.536  0.5869 -0.3529  0.1161
  263MOL0     C36166   7.737  11.688   2.637  0.7066 -0.3247  0.2629
  263MOL0     C36167   7.829  11.658   2.763 -0.0029 -0.0058  0.5386
  263MOL0     C36168   7.966  11.716   2.725 -0.5721  0.1964  0.6122
  263MOL0     C36169   8.076  11.663   2.824  0.4220  0.1906 -0.1484
  263MOL0     C36170   8.211  11.707   2.783 -0.8223  1.5144 -1.2704
  263MOL0     C36171   8.241  11.856   2.810 -0.2632  0.6526 -0.2527
  263MOL0     C36172   8.342  11.921   2.723  0.1518  0.6165 -0.4739
  263MOL0     N36173   8.298  11.927   2.583 -0.1402 -0.6424 -0.5392
  263MOL0     C36174   8.205  12.015   2.540 -0.5536 -0.1241  0.4693
  263MOL0     C36175   8.188  11.984   2.414 -0.5004 -0.1872 -0.1802
  263MOL0     C36176   8.075  12.034   2.312  0.0650 -0.0176 -0.1717
  263MOL0     C36177   7.946  11.949   2.343 -0.4617  0.3005  0.0267
  263MOL0     C36178   7.840  11.951   2.229  0.1916  0.9217 -0.1215
  263MOL0     C36179   7.762  12.079   2.221 -0.1129 -0.1761  0.9612
  263MOL0     O36180   7.695  12.089   2.090  0.5560  0.1210 -0.2798
  263MOL0     C36181   7.562  12.053   2.082  0.1237 -1.2500 -0.0902
  263MOL0     C36182   7.479  12.124   1.991  0.3887 -0.3529 -0.4716
  263MOL0     C36183   7.353  12.077   1.956  0.0854 -0.0036 -0.2897
  263MOL0     C36184   7.279  12.159   1.846  0.6335 -0.1237 -0.1052
  263MOL0     C36185   7.300  11.952   2.009 -1.4165 -0.0213  0.6104
  263MOL0     C36186   7.173  11.893   1.964 -0.1841  0.0765  0.0361
  263MOL0     O36187   7.132  11.799   2.049 -0.0277  0.2560  0.3771
  263MOL0     C36188   7.018  11.731   2.019  0.0578  0.2075 -0.4202
  263MOL0     C36189   7.020  11.607   1.954  0.1032 -0.1007  0.0733
  263MOL0     C36190   6.894  11.541   1.911  0.9318  0.0801  0.3379
  263MOL0     C36191   6.766  11.618   1.938  0.4829 -0.5520 -0.0340
  263MOL0     O36192   6.645  11.566   1.914  0.2009  0.4472 -0.1721
  263MOL0     C36193   6.603  11.599   1.780 -0.0944 -0.9441  0.0585
  263MOL0     C36194   6.506  11.488   1.727 -0.0056 -0.4014  0.0201
  263MOL0     C36195   6.525  11.493   1.571  0.4187 -0.3512  0.4697
  263MOL0     C36196   6.428  11.396   1.502  0.1911  0.4747  0.7272
  263MOL0     C36197   6.470  11.386   1.362 -0.2547 -0.6395 -0.6299
  263MOL0     C36198   6.369  11.306   1.285 -0.5181  1.0890  0.0341
  263MOL0     C36199   6.365  11.155   1.323  0.2606 -0.5931 -0.1320
  263MOL0     C36200   6.290  11.057   1.229 -0.4399 -0.0377 -0.0644
  263MOL0    Cl36201   6.300  11.112   1.061  0.0792  0.0891 -0.3971
  263MOL0     C36202   6.780  11.737   2.004  0.0669 -0.5361 -0.0008
  263MOL0     C36203   6.898  11.787   2.038 -0.0716  0.0154  0.0053
  263MOL0     O36204   7.118  11.924   1.861  0.1436  0.1270 -0.0885
  263MOL0     C36205   7.385  11.881   2.106 -0.0605 -0.1340  0.0054
  263MOL0     C36206   7.507  11.941   2.132  0.1691  0.5460 -1.0818
  263MOL0     N36207   8.261  11.872   2.384  0.2526 -0.1547 -0.5418
  263MOL0     N36208   8.321  11.836   2.489  0.0748 -1.6693 -0.6972
  263MOL0     C36209   7.884  11.346   2.392  0.0665  0.4706  0.0909
  263MOL0     C36210   7.867  11.260   2.282  0.6981 -0.6622 -0.0289
  263MOL0     C36211   7.654  10.942   1.981  1.1073  0.2754 -0.1131
  263MOL0     C36212   7.778  10.903   1.946 -0.1736 -0.3032  0.2690
  263MOL0     C36213   7.793  10.798   1.860  1.0758 -0.3382  0.6753
  263MOL0     C36214   7.682  10.726   1.810  0.1587 -0.1176 -0.2360
  263MOL0     O36215   7.706  10.606   1.750  0.3918 -0.5692 -0.1525
  263MOL0     C36216   7.732  10.623   1.610 -0.4824 -0.8621 -0.2676
  263MOL0     C36217   7.863  10.715   1.582  0.2343  1.0389 -0.5115
  263MOL0     C36218   7.925  10.681   1.448 -0.1441  0.6269 -0.3255
  263MOL0     C36219   8.053  10.769   1.432  0.8538 -0.1006  0.6864
  263MOL0     C36220   8.144  10.747   1.321  0.4399  0.8031  0.0180
  263MOL0     C36221   8.209  10.730   1.223 -0.5116 -1.0199  0.3303
  263MOL0     C36222   7.556  10.763   1.847  0.2929 -0.7984  0.9894
  263MOL0     C36223   7.537  10.867   1.931  0.0155 -0.6972  0.1270
  263MOL0     C36224   7.395  10.896   1.971  0.1893  0.0283 -0.8546
  263MOL0     H36225   7.575  11.115   2.354 -0.0739  0.3798  0.2761
  263MOL0     H36226   7.576  11.255   2.521  0.3489  2.4058  0.0114
  263MOL0     H36227   7.628  11.553   2.508  0.5695 -1.1385  0.6129
  263MOL0     H36228   7.786  11.588   2.443 -1.7618 -0.6249 -1.3737
  263MOL0     H36229   7.766  11.784   2.593 -0.4751  1.0501  2.2672
  263MOL0     H36230   7.635  11.712   2.669  0.7507 -1.3050  1.2299
  263MOL0     H36231   7.790  11.707   2.852 -0.4740  2.2798 -0.8419
  263MOL0     H36232   7.852  11.554   2.787  1.6317  0.6309  1.9396
  263MOL0     H36233   7.988  11.684   2.623 -3.7576  0.0971 -0.1516
  263MOL0     H36234   7.959  11.825   2.730  0.2823  0.2148  2.5602
  263MOL0     H36235   8.079  11.554   2.821  0.0919  0.1902 -0.5643
  263MOL0     H36236   8.041  11.696   2.922  0.9987  1.9002 -0.4773
  263MOL0     H36237   8.282  11.642   2.835 -1.6400  2.8430  1.6996
  263MOL0     H36238   8.223  11.679   2.677  2.5499 -1.5753 -0.2814
  263MOL0     H36239   8.277  11.863   2.913  3.0759 -1.9018 -1.0823
  263MOL0     H36240   8.143  11.905   2.803 -3.5111 -4.9648 -0.2264
  263MOL0     H36241   8.366  12.020   2.764 -0.0637 -0.0145  1.2586
  263MOL0     H36242   8.436  11.867   2.734 -0.1040 -0.2327 -2.1617
  263MOL0     H36243   8.153  12.081   2.609  0.4170 -0.7615  1.8542
  263MOL0     H36244   8.111  12.028   2.209  1.5951 -0.4675  0.3544
  263MOL0     H36245   8.060  12.141   2.327  2.8813  0.8009 -2.3106
  263MOL0     H36246   7.971  11.843   2.349  2.9445  0.8332 -1.9370
  263MOL0     H36247   7.900  11.980   2.437 -2.5349  2.0107 -1.4637
  263MOL0     H36248   7.893  11.928   2.137 -0.7764  0.1863 -0.5112
  263MOL0     H36249   7.776  11.863   2.241  1.6942 -0.5840 -2.4842
  263MOL0     H36250   7.704  12.082   2.314  1.5381 -2.9332  2.2077
  263MOL0     H36251   7.835  12.158   2.239  2.4374 -2.1405 -0.1133
  263MOL0     H36252   7.524  12.209   1.940 -1.0207 -0.1510 -1.4513
  263MOL0     H36253   7.237  12.095   1.769 -1.3672 -2.1155  2.4533
  263MOL0     H36254   7.344  12.231   1.796  0.8421 -0.9460 -1.0398
  263MOL0     H36255   7.197  12.210   1.898  3.2187  1.4012  2.7750
  263MOL0     H36256   7.111  11.554   1.927  1.4136  0.7583  2.4929
  263MOL0     H36257   6.896  11.438   1.878  1.5323  0.0136  0.5602
  263MOL0     H36258   6.560  11.700   1.789  0.8657 -0.6554  2.0361
  263MOL0     H36259   6.691  11.614   1.717  0.9813 -0.2521  1.6579
  263MOL0     H36260   6.526  11.391   1.775 -3.5472 -0.7921  1.0186
  263MOL0     H36261   6.403  11.505   1.759  0.7302  2.4596  1.2287
  263MOL0     H36262   6.624  11.452   1.551  0.4502  0.5862 -1.4630
  263MOL0     H36263   6.519  11.594   1.529  4.2202  0.1548  0.7693
  263MOL0     H36264   6.324  11.428   1.500 -1.3811 -3.5662  3.4664
  263MOL0     H36265   6.439  11.298   1.551  1.4914 -0.8389 -1.9959
  263MOL0     H36266   6.476  11.486   1.317 -0.2792  0.8692  2.4786
  263MOL0     H36267   6.567  11.340   1.340 -0.1821 -0.3085 -1.0150
  263MOL0     H36268   6.415  11.316   1.186 -1.2323  0.5265 -0.3649
  263MOL0     H36269   6.280  11.369   1.291 -0.6140  0.8729  1.1311
  263MOL0     H36270   6.314  11.145   1.419 -0.7374 -0.1388 -0.6095
  263MOL0     H36271   6.472  11.131   1.331  0.8667  1.6576 -0.7289
  263MOL0     H36272   6.185  11.058   1.260  0.0042  1.1471  1.5409
  263MOL0     H36273   6.338  10.959   1.241  1.1610  0.7797  0.5976
  263MOL0     H36274   6.694  11.793   2.038  3.4138  3.2826  3.3144
  263MOL0     H36275   6.906  11.890   2.074 -1.6104  0.5350 -1.0157
  263MOL0     H36276   7.355  11.787   2.151 -1.0439  0.4346  0.5791
  263MOL0     H36277   7.571  11.894   2.206  2.1906  2.0405 -1.8019
  263MOL0     H36278   7.970  11.407   2.413  1.3336 -1.5637  1.1734
  263MOL0     H36279   7.940  11.249   2.202  0.0559 -0.8610 -0.5984
  263MOL0     H36280   7.867  10.958   1.975 -1.9689  1.3277  3.2205
  263MOL0     H36281   7.893  10.757   1.845  0.1992 -2.2092 -0.4225
  263MOL0     H36282   7.740  10.520   1.572  0.3083 -0.1276 -2.2595
  263MOL0     H36283   7.641  10.662   1.563  0.9536  3.4268  0.0907
  263MOL0     H36284   7.940  10.719   1.660 -0.9281  2.1895  0.6128
  263MOL0     H36285   7.831  10.819   1.583 -2.3298  0.2947  0.1270
  263MOL0     H36286   7.951  10.575   1.456  0.9117  0.9688  1.5497
  263MOL0     H36287   7.867  10.695   1.356  1.4628 -0.6479 -1.5898
  263MOL0     H36288   8.115  10.741   1.518  1.8698 -0.9777 -0.3160
  263MOL0     H36289   8.033  10.877   1.441 -1.6064 -0.5955  2.1946
  263MOL0     H36290   8.268  10.706   1.137  1.5290  0.3765  1.2568
  263MOL0     H36291   7.464  10.714   1.815 -2.2688  4.7192 -1.5258
  263MOL0     H36292   7.311  10.851   1.917 -0.5039 -0.5823  0.6735
  263MOL0     H36293   7.400  10.866   2.076 -0.0708 -1.5705 -1.2822
  263MOL0     H36294   7.360  10.999   1.957 -2.0601 -0.6628 -0.8211
  264MOL0     O36295   3.946   8.194   7.343 -0.2123 -0.5041  0.6733
  264MOL0     C36296   3.890   8.304   7.366 -0.4290  0.3155 -0.3520
  264MOL0     O36297   3.774   8.320   7.438 -0.8325  0.5705  0.3731
  264MOL0     C36298   3.754   8.223   7.538  0.5138 -0.1338  0.6334
  264MOL0     C36299   3.706   8.099   7.505 -0.5619  1.0917  1.1491
  264MOL0     C36300   3.687   8.008   7.608 -0.2214 -0.0755 -0.0181
  264MOL0     C36301   3.706   8.043   7.740 -0.3052 -0.4448  0.1410
  264MOL0     O36302   3.682   7.974   7.856 -0.2562 -0.1113 -0.6836
  264MOL0     C36303   3.608   7.857   7.842  1.0616  0.0743 -0.3501
  264MOL0     C36304   3.561   7.820   7.987  0.0802  0.3688  0.2177
  264MOL0     C36305   3.454   7.710   7.996  0.1261  0.0381 -0.8966
  264MOL0     C36306   3.495   7.574   7.934  0.9452  0.1825 -0.3286
  264MOL0     C36307   3.456   7.456   8.027  0.8316 -0.1074  0.1862
  264MOL0     C36308   3.308   7.434   8.046  0.3645  0.6912 -0.6683
  264MOL0     C36309   3.278   7.338   8.167  0.4239  0.1659  0.2009
  264MOL0     C36310   3.322   7.197   8.138  0.2255  0.1867 -1.6135
  264MOL0     N36311   3.260   7.102   8.236  0.1242 -0.1992 -0.3974
  264MOL0     C36312   3.128   7.101   8.277  0.6862  0.8850  0.6673
  264MOL0     C36313   3.108   6.989   8.359  0.6585 -0.3502 -0.6876
  264MOL0     C36314   2.986   6.959   8.443  1.2981  0.0548  1.3996
  264MOL0     C36315   2.857   7.003   8.367 -0.0516 -0.4393 -0.2943
  264MOL0     C36316   2.815   6.900   8.267  1.7117 -0.1844  0.2791
  264MOL0     C36317   2.664   6.917   8.225 -0.4703  0.3003  0.0378
  264MOL0     O36318   2.581   6.850   8.318  0.6722 -0.1177 -0.8460
  264MOL0     C36319   2.452   6.831   8.279 -0.0404 -1.0109 -0.3952
  264MOL0     C36320   2.352   6.895   8.349 -0.6263  0.0555  0.3994
  264MOL0     C36321   2.215   6.896   8.300  0.1701  0.8857 -0.4120
  264MOL0     C36322   2.121   6.989   8.375 -0.4062 -0.4343 -0.8351
  264MOL0     C36323   2.173   6.823   8.189 -0.8335 -0.3042 -0.2528
  264MOL0     C36324   2.037   6.820   8.141 -0.5103 -0.1411 -0.3470
  264MOL0     O36325   1.951   6.918   8.177 -1.0892 -0.1328 -0.2173
  264MOL0     C36326   1.822   6.912   8.136  0.4240  0.1099 -0.1011
  264MOL0     C36327   1.729   6.809   8.175 -0.5549  0.5276  0.4011
  264MOL0     C36328   1.597   6.808   8.126  0.2807 -0.2006  0.9737
  264MOL0     C36329   1.552   6.912   8.047  0.0057  0.3795 -0.4715
  264MOL0     O36330   1.430   6.925   8.001 -0.0513  0.7375 -0.1619
  264MOL0     C36331   1.319   6.851   8.055  0.4355  0.3541  0.2806
  264MOL0     C36332   1.281   6.921   8.188  0.2880  0.0481 -0.9461
  264MOL0     C36333   1.251   7.065   8.181  0.1320  0.2818 -0.3139
  264MOL0     C36334   1.237   7.123   8.322 -0.6095  0.1395 -0.3065
  264MOL0     C36335   1.195   7.275   8.328 -0.1795  0.6895  0.8622
  264MOL0     C36336   1.157   7.334   8.466 -0.0960  0.2388 -0.2281
  264MOL0     C36337   1.025   7.285   8.523 -0.2822  1.0725 -0.4643
  264MOL0     C36338   1.019   7.188   8.639  0.7692  0.1847 -0.0945
  264MOL0    Cl36339   1.098   7.242   8.788  0.1542 -0.4772 -0.1344
  264MOL0     C36340   1.642   7.007   8.002 -0.8518 -0.7704  1.1779
  264MOL0     C36341   1.772   7.009   8.053  0.7795 -0.5591  1.0796
  264MOL0     O36342   2.009   6.726   8.070 -0.6312  0.1028 -0.4123
  264MOL0     C36343   2.276   6.744   8.137  0.2051  0.4944  0.5253
  264MOL0     C36344   2.412   6.754   8.173 -0.6397  0.1734  0.2448
  264MOL0     N36345   3.233   6.938   8.365  0.0081 -0.0076  0.6666
  264MOL0     N36346   3.326   6.998   8.290  0.3084  0.1929  0.0403
  264MOL0     C36347   3.774   8.165   7.767 -0.4862  0.7321  0.4474
  264MOL0     C36348   3.790   8.254   7.667 -1.2707 -0.0883  0.3807
  264MOL0     C36349   3.920   8.416   7.272 -0.2267  0.4104 -0.9151
  264MOL0     C36350   3.853   8.420   7.152  0.2575  0.7424  0.8794
  264MOL0     C36351   3.882   8.513   7.051  0.0972 -0.6601  0.9502
  264MOL0     C36352   3.996   8.600   7.069 -0.8988  0.2477 -0.2394
  264MOL0     O36353   4.032   8.690   6.971 -0.3957  0.3558  0.5040
  264MOL0     C36354   4.156   8.641   6.911 -0.5464  0.3612  0.0987
  264MOL0     C36355   4.175   8.721   6.775 -0.5837  1.3216 -0.7808
  264MOL0     C36356   4.297   8.805   6.782 -0.2733 -0.1561 -0.1597
  264MOL0     C36357   4.330   8.871   6.919  0.2551 -0.5530 -0.9129
  264MOL0     C36358   4.403   8.991   6.889  0.0388  0.5761 -0.6874
  264MOL0     C36359   4.459   9.092   6.851 -0.0931 -0.0530 -0.0765
  264MOL0     C36360   4.060   8.609   7.197 -0.6049 -0.1520 -0.2367
  264MOL0     C36361   4.019   8.520   7.300  0.2614  0.1405 -0.5975
  264MOL0     C36362   4.068   8.537   7.438 -0.2362  0.1879 -0.1029
  264MOL0     H36363   3.681   8.075   7.402 -1.6227  0.8708  1.4475
  264MOL0     H36364   3.662   7.904   7.588 -0.3071 -0.2690  1.0088
  264MOL0     H36365   3.644   7.767   7.791 -1.0858  0.6785 -3.2176
  264MOL0     H36366   3.523   7.891   7.782 -1.1829 -2.3697  1.2463
  264MOL0     H36367   3.646   7.778   8.042  1.5201  1.8839 -0.7576
  264MOL0     H36368   3.526   7.908   8.043  0.7218  0.2805  0.7703
  264MOL0     H36369   3.439   7.690   8.102 -2.0761  0.7209 -1.0285
  264MOL0     H36370   3.361   7.753   7.958  1.1303  3.6621  0.3295
  264MOL0     H36371   3.458   7.564   7.831  0.7453 -0.5222 -0.1992
  264MOL0     H36372   3.603   7.590   7.926  1.3175 -2.0665 -0.6164
  264MOL0     H36373   3.499   7.484   8.123  4.6470  1.2075 -1.7171
  264MOL0     H36374   3.485   7.364   7.975 -0.7090  0.0089 -0.9398
  264MOL0     H36375   3.264   7.531   8.073  2.7603  1.1327  2.2574
  264MOL0     H36376   3.248   7.410   7.958  1.1237  2.7511 -1.8010
  264MOL0     H36377   3.170   7.351   8.174  0.0230 -0.4960 -3.1878
  264MOL0     H36378   3.322   7.385   8.256  2.5151 -0.8702 -0.2283
  264MOL0     H36379   3.285   7.164   8.040 -3.1695 -1.3543  0.0179
  264MOL0     H36380   3.430   7.184   8.142 -0.1118 -3.4409 -0.4256
  264MOL0     H36381   3.056   7.180   8.257  0.2827  0.2839 -0.3597
  264MOL0     H36382   3.009   7.013   8.534  0.4591  0.7959  1.1853
  264MOL0     H36383   2.985   6.854   8.473  0.5468 -0.8873 -1.5141
  264MOL0     H36384   2.783   7.014   8.447  3.0045 -2.3193  3.1089
  264MOL0     H36385   2.875   7.098   8.315  2.7258 -0.5446  0.3068
  264MOL0     H36386   2.877   6.905   8.177  1.2282  0.3785 -0.0287
  264MOL0     H36387   2.835   6.807   8.321  0.9682  1.1707  3.0889
  264MOL0     H36388   2.625   7.019   8.210  2.6870  1.2351 -3.6407
  264MOL0     H36389   2.651   6.874   8.125  1.1620  1.0968 -0.5742
  264MOL0     H36390   2.374   6.956   8.436 -2.3651  1.0024  0.2216
  264MOL0     H36391   2.164   7.036   8.464 -0.5802 -4.9195  1.8788
  264MOL0     H36392   2.038   6.936   8.421 -1.6676  3.4470  1.9119
  264MOL0     H36393   2.082   7.069   8.310 -0.3845  1.1131  0.9791
  264MOL0     H36394   1.760   6.727   8.240  1.4416  1.2214  0.3741
  264MOL0     H36395   1.530   6.727   8.153  0.3213  0.0894  1.9738
  264MOL0     H36396   1.228   6.871   7.998 -0.0219  1.8944  1.4865
  264MOL0     H36397   1.338   6.743   8.066  0.1330  0.0939 -1.3840
  264MOL0     H36398   1.192   6.876   8.234  0.4131  1.3263  0.6170
  264MOL0     H36399   1.367   6.910   8.254  0.7373 -1.1933 -1.7052
  264MOL0     H36400   1.154   7.083   8.135 -1.2637  2.3692  3.0632
  264MOL0     H36401   1.335   7.110   8.127 -1.1150  1.1628 -1.5910
  264MOL0     H36402   1.336   7.108   8.367 -0.0857  0.8401 -1.1913
  264MOL0     H36403   1.159   7.066   8.373  0.1026  0.4322  1.1908
  264MOL0     H36404   1.272   7.338   8.282 -0.6010  2.6925  2.7663
  264MOL0     H36405   1.111   7.291   8.260 -1.3473 -2.5819  1.3577
  264MOL0     H36406   1.160   7.443   8.471 -0.8650  0.4338 -2.7046
  264MOL0     H36407   1.239   7.306   8.534 -0.2146 -1.8545 -0.8955
  264MOL0     H36408   0.964   7.253   8.438  1.6131 -0.9462 -1.1595
  264MOL0     H36409   0.972   7.374   8.559 -0.5069  0.9027 -0.3698
  264MOL0     H36410   1.049   7.090   8.600  2.4801  1.4117 -2.0733
  264MOL0     H36411   0.913   7.174   8.660  0.9756 -0.4501  0.5753
  264MOL0     H36412   1.613   7.066   7.915  0.5615  1.5083  2.1704
  264MOL0     H36413   1.845   7.078   8.013 -0.7028  2.0924  2.6425
  264MOL0     H36414   2.261   6.682   8.049 -1.7155  1.9321 -0.2581
  264MOL0     H36415   2.485   6.693   8.121 -1.5756  0.5254 -1.5979
  264MOL0     H36416   3.810   8.190   7.866 -0.1338 -0.8708  0.7573
  264MOL0     H36417   3.846   8.343   7.690 -2.0438  0.3981  0.4235
  264MOL0     H36418   3.787   8.338   7.123  1.8069 -0.7099  1.3245
  264MOL0     H36419   3.824   8.520   6.959 -1.8367 -0.6045  2.1191
  264MOL0     H36420   4.239   8.640   6.983 -2.2086  1.9479  2.1854
  264MOL0     H36421   4.137   8.537   6.883 -2.7750  0.6150  0.4828
  264MOL0     H36422   4.087   8.785   6.766  0.9386  3.9552  1.5324
  264MOL0     H36423   4.186   8.655   6.688  1.9367  0.1218  0.3401
  264MOL0     H36424   4.386   8.766   6.732  0.4089  2.0938 -0.8392
  264MOL0     H36425   4.267   8.890   6.720 -1.1394 -1.1600 -1.1393
  264MOL0     H36426   4.377   8.811   6.998 -0.2897  0.3359  0.1178
  264MOL0     H36427   4.240   8.905   6.970  1.2341  1.0472 -0.1667
  264MOL0     H36428   4.506   9.183   6.820  1.6462 -1.2106 -1.0498
  264MOL0     H36429   4.131   8.689   7.213  1.2781 -1.9294  0.6949
  264MOL0     H36430   3.993   8.596   7.493 -0.8713  0.6585 -1.4366
  264MOL0     H36431   4.087   8.440   7.484  2.6727  0.4747 -0.5585
  264MOL0     H36432   4.165   8.587   7.444  0.3121 -0.8193 -0.3594
  265MOL0     O36433   9.200   5.059   9.346  0.4908  0.0616  0.7001
  265MOL0     C36434   9.084   5.102   9.334  0.7276 -0.6918 -1.1726
  265MOL0     O36435   9.050   5.213   9.274 -0.1548 -0.1411  0.4466
  265MOL0     C36436   9.156   5.291   9.235 -0.2402 -1.9180  0.4696
  265MOL0     C36437   9.184   5.324   9.098 -0.2795  0.2041 -0.8320
  265MOL0     C36438   9.284   5.417   9.064  0.1138  0.0219  0.5678
  265MOL0     C36439   9.367   5.474   9.161 -0.3570 -0.2610  0.1951
  265MOL0     O36440   9.463   5.561   9.125  0.2879 -0.0271 -0.2009
  265MOL0     C36441   9.439   5.653   9.015 -0.1779  0.4464  0.1113
  265MOL0     C36442   9.539   5.768   9.024 -0.2568  0.0821  0.2533
  265MOL0     C36443   9.629   5.774   8.898 -0.1178  0.7273 -0.5624
  265MOL0     C36444   9.730   5.649   8.880  0.6061  0.0217 -0.0539
  265MOL0     C36445   9.775   5.632   8.738 -0.7119  0.6460  0.3616
  265MOL0     C36446   9.881   5.515   8.730  0.0099 -0.0784 -0.2190
  265MOL0     C36447   9.815   5.371   8.735 -0.2421 -0.1943  0.2371
  265MOL0     C36448   9.933   5.262   8.755 -0.9176 -2.1511 -1.0500
  265MOL0     N36449   9.885   5.127   8.716 -0.4869  0.4115  0.0051
  265MOL0     C36450   9.889   5.005   8.785  0.0305  0.1771  0.3679
  265MOL0     C36451   9.871   4.912   8.689  0.0883  1.1949 -0.4463
  265MOL0     C36452   9.843   4.765   8.704 -0.6727 -0.3114 -0.2068
  265MOL0     C36453   9.691   4.746   8.738 -0.5438 -0.3656  0.6628
  265MOL0     C36454   9.594   4.832   8.654 -0.7298 -0.0532  1.4803
  265MOL0     C36455   9.441   4.796   8.680  0.2402 -0.8372  0.9731
  265MOL0     O36456   9.402   4.681   8.598  0.2756 -0.1463 -0.1470
  265MOL0     C36457   9.270   4.663   8.578  0.3444  0.4666  0.7253
  265MOL0     C36458   9.203   4.553   8.626 -0.7806  0.4555  0.3038
  265MOL0     C36459   9.068   4.532   8.611  0.4646  0.2387  0.1634
  265MOL0     C36460   9.015   4.419   8.699  0.1227 -0.1578  0.0995
  265MOL0     C36461   8.989   4.626   8.547 -0.9300 -0.4743 -0.1732
  265MOL0     C36462   8.853   4.618   8.519  0.8439 -0.1926 -0.4085
  265MOL0     O36463   8.804   4.493   8.509  0.0474  0.9273  0.3581
  265MOL0     C36464   8.688   4.467   8.439 -0.2299 -0.3289 -1.1293
  265MOL0     C36465   8.614   4.551   8.356 -0.1550  0.2515  0.5305
  265MOL0     C36466   8.523   4.503   8.263 -0.1529 -0.6951  0.1284
  265MOL0     C36467   8.507   4.365   8.248  0.0893  0.2916 -0.2294
  265MOL0     O36468   8.423   4.342   8.146 -0.0239  0.4421  0.8698
  265MOL0     C36469   8.345   4.227   8.146 -0.7084  0.8493 -0.3676
  265MOL0     C36470   8.297   4.193   8.007  0.8397 -0.0206 -0.0287
  265MOL0     C36471   8.216   4.067   8.007  0.3658 -0.3870  0.0329
  265MOL0     C36472   8.159   4.028   7.871  0.1754  0.3293  0.2988
  265MOL0     C36473   8.118   3.876   7.870  0.0469  0.1860  0.5003
  265MOL0     C36474   8.232   3.774   7.879 -0.3250 -1.1564  0.9535
  265MOL0     C36475   8.341   3.776   7.774  0.8877  0.5725 -0.5883
  265MOL0     C36476   8.424   3.656   7.784  0.5237 -0.8955  0.5198
  265MOL0    Cl36477   8.504   3.658   7.939  0.3967  0.3265  0.9822
  265MOL0     C36478   8.574   4.273   8.338 -1.3283 -1.4080  1.0761
  265MOL0     C36479   8.650   4.327   8.445 -0.0991  0.1954  0.6048
  265MOL0     O36480   8.789   4.721   8.505 -0.2504  0.5440  0.2973
  265MOL0     C36481   9.062   4.734   8.484  0.7152 -0.4670  0.0934
  265MOL0     C36482   9.199   4.751   8.499 -0.2730 -0.3560 -0.7488
  265MOL0     N36483   9.853   4.972   8.569 -0.0460  0.1367 -0.2650
  265MOL0     N36484   9.848   5.102   8.583 -0.4284 -0.3978  0.3372
  265MOL0     C36485   9.342   5.445   9.301 -0.3898  0.0246  1.0662
  265MOL0     C36486   9.246   5.350   9.329 -0.1266  0.3726 -0.0999
  265MOL0     C36487   8.978   5.005   9.369 -0.0253  0.0701  1.6116
  265MOL0     C36488   8.873   4.992   9.268 -0.3495  0.3694 -0.6963
  265MOL0     C36489   8.762   4.906   9.287 -0.4501  0.1776 -0.8847
  265MOL0     C36490   8.752   4.827   9.404 -0.2138  0.4279 -0.0222
  265MOL0     O36491   8.681   4.710   9.416 -0.6893  0.4366 -0.1410
  265MOL0     C36492   8.687   4.611   9.313  1.0512 -1.4224  1.0785
  265MOL0     C36493   8.544   4.567   9.301  0.9491 -0.2651 -0.5103
  265MOL0     C36494   8.520   4.426   9.239  0.0684 -0.5670  0.1399
  265MOL0     C36495   8.374   4.398   9.213 -0.4248 -0.1699 -0.5489
  265MOL0     C36496   8.364   4.265   9.147 -0.2352 -0.1759  0.1030
  265MOL0     C36497   8.342   4.165   9.081 -0.3695  0.6502 -0.7332
  265MOL0     C36498   8.847   4.838   9.503  0.9234 -0.5613  0.0457
  265MOL0     C36499   8.957   4.927   9.489 -1.1624 -0.0723  0.4976
  265MOL0     C36500   9.060   4.905   9.596 -0.3303 -0.1336  0.6021
  265MOL0     H36501   9.117   5.281   9.025 -0.2386  0.3531 -0.9573
  265MOL0     H36502   9.307   5.447   8.962 -0.9677  0.0130  0.3125
  265MOL0     H36503   9.342   5.703   9.027 -0.2004  0.9043 -1.7461
  265MOL0     H36504   9.449   5.599   8.921 -1.4129  1.7052 -0.7896
  265MOL0     H36505   9.493   5.867   9.023 -3.3457 -1.2643 -0.0325
  265MOL0     H36506   9.588   5.767   9.122  0.9419 -0.6803 -0.3186
  265MOL0     H36507   9.566   5.770   8.808 -0.9490 -0.7660  0.0455
  265MOL0     H36508   9.690   5.864   8.906  1.5230 -0.3823 -0.0579
  265MOL0     H36509   9.820   5.675   8.936  0.0437  1.9024  0.0402
  265MOL0     H36510   9.683   5.558   8.917  0.5396  0.0001 -0.1907
  265MOL0     H36511   9.837   5.718   8.710  0.1460  0.9279  2.8684
  265MOL0     H36512   9.686   5.624   8.674 -0.7447 -1.5009  0.6100
  265MOL0     H36513   9.933   5.515   8.634 -0.1632 -0.1117 -0.3139
  265MOL0     H36514   9.967   5.538   8.794  1.4819 -2.8612 -1.0487
  265MOL0     H36515   9.769   5.366   8.636  0.2138  0.9191 -0.0554
  265MOL0     H36516   9.740   5.346   8.811 -4.5048  0.0327 -3.4687
  265MOL0     H36517  10.028   5.287   8.708  0.1252  1.6589  2.5073
  265MOL0     H36518   9.941   5.266   8.864 -1.6659  1.2593 -1.0026
  265MOL0     H36519   9.906   4.983   8.890 -0.4923 -0.0027  0.4161
  265MOL0     H36520   9.918   4.721   8.771  3.1374  0.8645 -3.2483
  265MOL0     H36521   9.863   4.714   8.609  3.6560  0.7799 -0.1246
  265MOL0     H36522   9.666   4.640   8.728 -0.7500 -0.6468  3.3164
  265MOL0     H36523   9.677   4.776   8.842  0.7164  1.6883  0.3018
  265MOL0     H36524   9.620   4.936   8.677 -0.6684  1.3940 -3.7716
  265MOL0     H36525   9.615   4.818   8.548 -3.1777 -0.6052  1.0160
  265MOL0     H36526   9.420   4.776   8.785 -4.1581  1.1150  0.7178
  265MOL0     H36527   9.384   4.881   8.639  2.4464 -0.0643 -0.6979
  265MOL0     H36528   9.255   4.475   8.681 -1.7134 -0.4167 -0.0179
  265MOL0     H36529   8.917   4.436   8.743  0.2293 -3.9639  2.2533
  265MOL0     H36530   9.086   4.397   8.779  2.2265  2.0902 -1.0029
  265MOL0     H36531   9.013   4.322   8.649 -1.4059  1.1876 -2.6594
  265MOL0     H36532   8.625   4.659   8.352 -4.4090  0.8715  1.1281
  265MOL0     H36533   8.464   4.571   8.204  1.5498  0.3820 -0.3943
  265MOL0     H36534   8.401   4.137   8.172 -3.2939 -1.6238 -2.6581
  265MOL0     H36535   8.260   4.237   8.215  1.4987 -2.7193  3.2808
  265MOL0     H36536   8.226   4.269   7.974  0.6911  0.4155  1.2194
  265MOL0     H36537   8.373   4.182   7.929 -1.0262  0.2178 -1.9432
  265MOL0     H36538   8.138   4.067   8.084  2.0451  2.8248  1.9189
  265MOL0     H36539   8.284   3.991   8.046 -1.3193 -2.3316 -0.6072
  265MOL0     H36540   8.238   4.043   7.798  1.9140 -0.2482  1.9676
  265MOL0     H36541   8.077   4.094   7.842 -0.6826 -0.3738  1.0485
  265MOL0     H36542   8.049   3.856   7.952 -2.9697  3.8920 -0.8477
  265MOL0     H36543   8.070   3.853   7.774  1.2438 -0.6732  0.0786
  265MOL0     H36544   8.180   3.678   7.872  1.2679 -2.0196  0.2754
  265MOL0     H36545   8.275   3.790   7.979 -1.0815  1.3791  0.9328
  265MOL0     H36546   8.401   3.867   7.787  2.5120 -0.4850 -0.2818
  265MOL0     H36547   8.287   3.775   7.679 -2.3768  1.3387  1.1441
  265MOL0     H36548   8.493   3.638   7.701  1.7126  0.8395  1.0835
  265MOL0     H36549   8.345   3.580   7.785 -1.6863  1.2656  2.3531
  265MOL0     H36550   8.570   4.165   8.335 -0.9505 -1.4080  0.5205
  265MOL0     H36551   8.714   4.258   8.499  1.1467  1.7704  1.2071
  265MOL0     H36552   9.005   4.813   8.437  0.2706 -1.2629 -0.7476
  265MOL0     H36553   9.266   4.823   8.453  3.2318 -3.2262 -0.6508
  265MOL0     H36554   9.414   5.483   9.372  1.2993 -0.8350 -0.1241
  265MOL0     H36555   9.246   5.317   9.432 -0.2085  1.4333  0.2472
  265MOL0     H36556   8.879   5.060   9.184 -0.0352  2.1131  0.6774
  265MOL0     H36557   8.691   4.884   9.207 -1.4251  0.7619 -0.1983
  265MOL0     H36558   8.724   4.655   9.220 -1.2603 -2.2432 -0.3278
  265MOL0     H36559   8.742   4.526   9.353  1.8979 -1.1541  0.5107
  265MOL0     H36560   8.482   4.639   9.246 -1.9796 -3.5297 -1.8358
  265MOL0     H36561   8.493   4.573   9.398  1.5361 -0.2079 -0.1968
  265MOL0     H36562   8.568   4.432   9.141 -0.2660  0.8295  0.0283
  265MOL0     H36563   8.575   4.357   9.304 -0.6418 -0.9203  0.3768
  265MOL0     H36564   8.332   4.470   9.142 -1.3615 -0.2298 -0.0717
  265MOL0     H36565   8.309   4.403   9.302  1.0478  1.2360  0.5072
  265MOL0     H36566   8.319   4.088   9.010  1.2263 -1.1367  0.5568
  265MOL0     H36567   8.831   4.767   9.583  4.7472 -1.6254  0.0608
  265MOL0     H36568   9.139   4.979   9.581 -0.2976  0.4556  3.2713
  265MOL0     H36569   9.011   4.900   9.694 -0.4450 -0.7601  0.5170
  265MOL0     H36570   9.117   4.812   9.585  1.1060  0.8910 -1.2135
  266MOL0     O36571   5.005   5.006   4.008  0.3908  0.3770 -0.6524
  266MOL0     C36572   5.029   5.122   4.037  0.8646 -0.3210  0.6718
  266MOL0     O36573   5.141   5.190   4.011 -0.2798 -1.1829 -0.1001
  266MOL0     C36574   5.236   5.147   3.923 -1.3020 -0.3985 -0.2008
  266MOL0     C36575   5.241   5.032   3.848 -0.2126 -0.7988 -0.4913
  266MOL0     C36576   5.348   5.007   3.761  1.0090 -0.2779  0.3228
  266MOL0     C36577   5.449   5.099   3.740  0.9914 -0.6394  0.3360
  266MOL0     O36578   5.560   5.083   3.659  0.0524  0.3638  0.4201
  266MOL0     C36579   5.533   5.013   3.541  0.0163  0.7349  0.2233
  266MOL0     C36580   5.662   5.005   3.464 -0.9521  0.0523  0.8848
  266MOL0     C36581   5.638   4.965   3.319 -0.5387  0.5198  0.3497
  266MOL0     C36582   5.694   5.065   3.217 -0.1014  0.3748  0.5151
  266MOL0     C36583   5.846   5.037   3.197 -0.1886  0.1359  0.2156
  266MOL0     C36584   5.929   5.119   3.089  0.1226 -0.3677  0.4595
  266MOL0     C36585   5.947   5.263   3.136 -0.4769 -1.1851  0.6951
  266MOL0     C36586   5.827   5.369   3.109  0.0603 -0.9235 -0.1618
  266MOL0     N36587   5.854   5.498   3.161 -0.1831  0.4399 -0.4228
  266MOL0     C36588   5.789   5.614   3.125 -0.2801  0.0890 -0.2462
  266MOL0     C36589   5.810   5.698   3.228 -0.3603  0.3761 -0.0153
  266MOL0     C36590   5.742   5.831   3.238  0.2267 -0.2725 -0.4827
  266MOL0     C36591   5.627   5.833   3.343 -0.0099 -0.5691  0.3601
  266MOL0     C36592   5.572   5.973   3.346 -0.0238  0.8475  0.2870
  266MOL0     C36593   5.431   5.989   3.412  0.4647 -0.0265  0.3782
  266MOL0     O36594   5.325   5.914   3.348  0.7014 -0.8018 -0.1493
  266MOL0     C36595   5.197   5.941   3.388  0.2361 -0.2230  0.2241
  266MOL0     C36596   5.153   6.026   3.496  0.2277  1.0323 -1.1799
  266MOL0     C36597   5.017   6.029   3.527  0.1314 -0.2623 -0.4463
  266MOL0     C36598   4.966   6.116   3.638  0.1157 -0.0799 -0.2644
  266MOL0     C36599   4.927   5.955   3.446 -0.4704 -0.4439 -0.7753
  266MOL0     C36600   4.782   5.960   3.484 -0.5296 -0.1150  0.2078
  266MOL0     O36601   4.708   6.083   3.459 -0.1935  1.0111  0.3451
  266MOL0     C36602   4.577   6.093   3.509  0.4247  0.3660 -0.4591
  266MOL0     C36603   4.529   6.056   3.637 -0.0406  1.2540  0.6566
  266MOL0     C36604   4.386   6.077   3.667  0.8313  0.0922 -0.4714
  266MOL0     C36605   4.300   6.134   3.569  0.2453  0.1503 -0.4682
  266MOL0     O36606   4.165   6.162   3.604  0.8285  0.4456  0.4719
  266MOL0     C36607   4.072   6.073   3.539 -0.3569 -0.2454 -0.1295
  266MOL0     C36608   3.935   6.110   3.559  0.3801 -0.4176  0.0518
  266MOL0     C36609   3.898   6.155   3.705 -0.2728 -0.6579 -0.6044
  266MOL0     C36610   3.752   6.172   3.732  0.3547  0.1209  0.3830
  266MOL0     C36611   3.740   6.183   3.883 -0.1782 -0.5310 -0.0032
  266MOL0     C36612   3.601   6.231   3.920  0.4537  0.2256  0.4737
  266MOL0     C36613   3.568   6.231   4.071  0.6829  0.5203  0.3303
  266MOL0     C36614   3.536   6.099   4.133  0.1211  0.7693 -0.1708
  266MOL0    Cl36615   3.454   6.109   4.290  0.0630  0.3784 -0.8135
  266MOL0     C36616   4.354   6.178   3.448  0.3408  1.9011  0.3690
  266MOL0     C36617   4.491   6.156   3.420  1.3469 -0.7207  0.8000
  266MOL0     O36618   4.745   5.854   3.544 -0.5270  0.0067 -0.0260
  266MOL0     C36619   4.975   5.871   3.345 -0.1058 -0.0134  0.4019
  266MOL0     C36620   5.108   5.865   3.314 -0.0437  0.4840 -0.2276
  266MOL0     N36621   5.892   5.634   3.320 -0.8867  0.8354 -0.3647
  266MOL0     N36622   5.923   5.517   3.270  0.4272  0.5233 -0.6889
  266MOL0     C36623   5.450   5.204   3.825  0.4538 -0.7770  0.3961
  266MOL0     C36624   5.349   5.230   3.910  0.0801  0.3043  0.7783
  266MOL0     C36625   4.927   5.196   4.114  0.7429  0.8358  0.5245
  266MOL0     C36626   4.931   5.334   4.097 -0.2582  0.1965 -0.8418
  266MOL0     C36627   4.839   5.415   4.174 -0.0489  0.2378 -0.4842
  266MOL0     C36628   4.743   5.364   4.260  0.4425  0.7659  0.1913
  266MOL0     O36629   4.648   5.420   4.336 -0.3377  0.3450 -0.6213
  266MOL0     C36630   4.612   5.549   4.296 -0.2837 -0.3008  0.4421
  266MOL0     C36631   4.694   5.657   4.356  0.8859  0.1495 -0.1818
  266MOL0     C36632   4.607   5.723   4.470  0.9112 -0.4074 -0.7682
  266MOL0     C36633   4.524   5.846   4.427  0.6413 -0.2813 -0.0046
  266MOL0     C36634   4.405   5.810   4.351  0.1944 -0.4641  0.6315
  266MOL0     C36635   4.324   5.783   4.269  0.9977  0.8878  0.3398
  266MOL0     C36636   4.742   5.223   4.278 -0.3933  0.9843  0.6345
  266MOL0     C36637   4.834   5.139   4.209  0.3296 -0.0474 -0.1322
  266MOL0     C36638   4.801   4.991   4.216 -0.4891 -0.3236 -0.3094
  266MOL0     H36639   5.161   4.960   3.857 -0.4413 -0.4985 -0.1296
  266MOL0     H36640   5.359   4.911   3.711 -2.8680 -1.4550  1.4191
  266MOL0     H36641   5.457   5.068   3.484 -0.2454  0.3331  0.1840
  266MOL0     H36642   5.493   4.911   3.546 -3.0197  1.7996 -0.0931
  266MOL0     H36643   5.722   5.096   3.457  1.1431 -1.3857 -4.0229
  266MOL0     H36644   5.724   4.925   3.506 -0.9928 -0.4566 -0.0150
  266MOL0     H36645   5.679   4.865   3.303 -2.0191  0.1356 -1.4009
  266MOL0     H36646   5.531   4.948   3.301 -0.9898  0.8444  2.4088
  266MOL0     H36647   5.639   5.056   3.123 -1.0898  3.8734  0.6308
  266MOL0     H36648   5.684   5.168   3.251  4.1108  1.0241  0.2667
  266MOL0     H36649   5.852   4.929   3.181 -2.0941 -0.5675  3.3171
  266MOL0     H36650   5.886   5.051   3.298  4.8166 -5.1799 -0.5377
  266MOL0     H36651   6.030   5.079   3.078  0.4446 -0.0248  1.9425
  266MOL0     H36652   5.879   5.115   2.992  2.3463 -0.5739 -0.7484
  266MOL0     H36653   6.032   5.302   3.079 -0.0028 -0.7878  1.6609
  266MOL0     H36654   5.994   5.273   3.234  0.3925 -1.3153  0.3032
  266MOL0     H36655   5.816   5.373   3.001 -0.2427 -3.2639 -0.2772
  266MOL0     H36656   5.733   5.331   3.152  0.6535 -0.2048  1.9083
  266MOL0     H36657   5.736   5.634   3.032  2.4925  0.8154 -1.7963
  266MOL0     H36658   5.722   5.876   3.140 -0.1658 -0.8118 -0.6540
  266MOL0     H36659   5.818   5.894   3.285  0.1137 -1.1140  0.8647
  266MOL0     H36660   5.552   5.756   3.322 -0.1127 -0.9152  1.8843
  266MOL0     H36661   5.650   5.813   3.448 -0.5200  2.7525  1.2338
  266MOL0     H36662   5.638   6.041   3.399  0.6576  0.8658 -0.5631
  266MOL0     H36663   5.568   6.006   3.241  0.3872  0.2304  0.0707
  266MOL0     H36664   5.441   5.960   3.517  2.3524  0.4088  0.3618
  266MOL0     H36665   5.395   6.092   3.412 -0.7082 -0.4245  0.3937
  266MOL0     H36666   5.230   6.074   3.556  0.7808  0.2343 -1.2449
  266MOL0     H36667   4.906   6.055   3.707 -2.1482  1.8277 -0.4268
  266MOL0     H36668   4.906   6.196   3.593  2.9484  2.0019 -0.6072
  266MOL0     H36669   5.041   6.176   3.690 -0.5107  0.2869  0.2473
  266MOL0     H36670   4.604   6.023   3.708 -0.3533  1.5539  1.1299
  266MOL0     H36671   4.353   6.037   3.763 -0.0137  4.7896  1.4622
  266MOL0     H36672   4.102   6.050   3.437 -0.3426 -1.9514  0.2292
  266MOL0     H36673   4.077   5.975   3.586 -0.9472  1.0530  2.8740
  266MOL0     H36674   3.927   6.195   3.491 -0.1308 -1.2105 -0.9104
  266MOL0     H36675   3.873   6.025   3.529  0.4125  0.4653 -2.8477
  266MOL0     H36676   3.942   6.249   3.736 -0.1009 -0.7670 -0.5181
  266MOL0     H36677   3.931   6.076   3.774 -0.1784 -1.9597 -2.0619
  266MOL0     H36678   3.700   6.082   3.697  3.0039 -1.5200  0.3381
  266MOL0     H36679   3.724   6.256   3.668  0.8906 -0.0631 -0.1007
  266MOL0     H36680   3.764   6.090   3.934 -1.4642 -0.5003  0.6966
  266MOL0     H36681   3.812   6.252   3.929 -0.3041 -0.1677 -0.3424
  266MOL0     H36682   3.522   6.183   3.861 -1.2532  1.9128  1.2579
  266MOL0     H36683   3.598   6.335   3.886 -1.3641  0.4754  1.2818
  266MOL0     H36684   3.481   6.295   4.092  2.0756  2.4389  0.4817
  266MOL0     H36685   3.639   6.284   4.135  0.3342  1.1683  0.1877
  266MOL0     H36686   3.630   6.043   4.140  0.6075  1.6735  0.6649
  266MOL0     H36687   3.474   6.044   4.061  1.5252  0.8190 -1.4581
  266MOL0     H36688   4.291   6.224   3.373 -1.0478  2.8701  2.0547
  266MOL0     H36689   4.522   6.192   3.323 -1.6308 -0.1745 -0.0627
  266MOL0     H36690   4.906   5.803   3.298 -1.7177  0.6607  1.7047
  266MOL0     H36691   5.130   5.793   3.235 -3.8599 -1.4665  0.2958
  266MOL0     H36692   5.533   5.272   3.810  1.3399 -2.4750 -3.9333
  266MOL0     H36693   5.353   5.319   3.972 -1.0954 -0.5838  2.2029
  266MOL0     H36694   5.005   5.375   4.029  0.3406  0.9569  0.2501
  266MOL0     H36695   4.848   5.523   4.171  0.8893  0.1577 -0.8388
  266MOL0     H36696   4.622   5.555   4.187  0.4682  0.9331  0.5590
  266MOL0     H36697   4.505   5.554   4.317 -0.2281  0.2912  0.5965
  266MOL0     H36698   4.719   5.728   4.276  1.3649  1.4847  1.0962
  266MOL0     H36699   4.782   5.611   4.399 -0.2799 -1.8412  0.1739
  266MOL0     H36700   4.539   5.658   4.526  0.6008  2.5430  2.6699
  266MOL0     H36701   4.680   5.772   4.534 -0.2392  0.0270  0.2438
  266MOL0     H36702   4.595   5.913   4.376  2.4792  1.7973  4.7347
  266MOL0     H36703   4.479   5.892   4.515  2.3159  1.7533 -0.1307
  266MOL0     H36704   4.249   5.750   4.199 -0.2434 -1.4840  2.5933
  266MOL0     H36705   4.662   5.183   4.341  1.1568 -1.7128  1.0429
  266MOL0     H36706   4.772   4.949   4.119  0.6424  1.5275 -1.5058
  266MOL0     H36707   4.887   4.934   4.251 -1.1555 -0.8272  0.5304
  266MOL0     H36708   4.726   4.967   4.292 -0.9612 -1.4398 -1.0865
  267MOL0     O36709   0.031   8.338   5.050 -0.2974  0.1200  0.1976
  267MOL0     C36710  -0.025   8.450   5.022  0.0203  0.4166 -0.1851
  267MOL0     O36711   0.033   8.566   4.995 -0.1813  0.2149 -0.1528
  267MOL0     C36712   0.176   8.581   5.000  0.1669 -1.3742 -0.1030
  267MOL0     C36713   0.212   8.705   5.063  0.1276 -0.2484 -0.4066
  267MOL0     C36714   0.350   8.734   5.084 -0.9495 -0.4435 -0.7124
  267MOL0     C36715   0.443   8.631   5.072 -0.0084 -1.8465  0.3974
  267MOL0     O36716   0.567   8.655   5.097 -0.3133 -0.4542 -0.2373
  267MOL0     C36717   0.608   8.738   5.209 -0.4594 -0.4692 -0.0632
  267MOL0     C36718   0.679   8.628   5.289 -0.8445 -0.3955 -0.3127
  267MOL0     C36719   0.589   8.515   5.358  0.4291  0.5811  0.1893
  267MOL0     C36720   0.472   8.562   5.442 -0.2107 -0.1492  0.6119
  267MOL0     C36721   0.364   8.462   5.487 -0.2669 -1.0678  0.1340
  267MOL0     C36722   0.266   8.421   5.372  0.6376  0.1002 -0.2598
  267MOL0     C36723   0.137   8.355   5.401  0.7802 -0.5000 -0.2869
  267MOL0     C36724   0.156   8.218   5.472 -0.2223 -0.3559  0.9876
  267MOL0     N36725   0.033   8.133   5.468  0.4904 -0.4136  0.1781
  267MOL0     C36726  -0.089   8.185   5.451 -1.3235  0.2056  0.5015
  267MOL0     C36727  -0.180   8.082   5.492  0.7948  0.2346  0.2570
  267MOL0     C36728  -0.328   8.084   5.487  1.0023 -0.3703  0.4842
  267MOL0     C36729  -0.373   7.975   5.390 -1.4007 -0.8106 -1.2111
  267MOL0     C36730  -0.513   8.008   5.342 -0.4578  0.4523 -0.1157
  267MOL0     C36731  -0.566   7.928   5.214 -0.7978  0.0908  0.6581
  267MOL0     O36732  -0.670   8.001   5.147 -0.0947 -0.0642 -0.2826
  267MOL0     C36733  -0.748   7.942   5.055 -0.7101  1.5799 -0.3279
  267MOL0     C36734  -0.858   8.003   5.000 -0.5700 -0.0284 -0.4318
  267MOL0     C36735  -0.929   7.943   4.887 -0.9678  0.0354 -0.1468
  267MOL0     C36736  -1.041   8.034   4.826  0.5446  0.1566 -0.0353
  267MOL0     C36737  -0.887   7.822   4.837  0.9100  0.5755  0.5659
  267MOL0     C36738  -0.948   7.746   4.724  0.1344  0.0232 -0.4015
  267MOL0     O36739  -0.872   7.642   4.665 -0.1478  0.3235  0.1124
  267MOL0     C36740  -0.952   7.552   4.598  0.4314 -0.3066 -0.1626
  267MOL0     C36741  -1.013   7.590   4.475 -0.4943  0.8030 -0.8426
  267MOL0     C36742  -1.086   7.499   4.405 -0.5552  0.1717  0.0621
  267MOL0     C36743  -1.112   7.374   4.461 -0.3733 -0.4458 -0.5370
  267MOL0     O36744  -1.185   7.274   4.392 -0.0457  0.2251 -0.3259
  267MOL0     C36745  -1.292   7.329   4.307  0.0379 -0.7253 -0.2582
  267MOL0     C36746  -1.391   7.217   4.267  0.1909 -0.0007 -0.1041
  267MOL0     C36747  -1.488   7.243   4.144  0.0966  0.0090  0.0853
  267MOL0     C36748  -1.634   7.213   4.167  1.5074 -0.2853  0.2832
  267MOL0     C36749  -1.702   7.242   4.031  0.2663  0.0489  0.1592
  267MOL0     C36750  -1.821   7.334   4.053  0.8349  0.1006 -0.3290
  267MOL0     C36751  -1.885   7.371   3.920 -0.3872 -0.5146  0.0780
  267MOL0     C36752  -1.926   7.265   3.823 -0.0998  0.1073 -0.4102
  267MOL0    Cl36753  -1.925   7.330   3.658  0.0178 -0.5368  0.3638
  267MOL0     C36754  -1.046   7.331   4.576 -0.7220  0.8012 -0.0193
  267MOL0     C36755  -0.969   7.426   4.644 -0.3868  0.3300 -0.3731
  267MOL0     O36756  -1.068   7.766   4.705  0.4390  0.0486  0.4270
  267MOL0     C36757  -0.780   7.766   4.897  0.3539  0.5964  0.6584
  267MOL0     C36758  -0.704   7.826   4.995  0.1960 -1.2232 -0.3184
  267MOL0     N36759  -0.103   7.980   5.539  0.4122 -0.1631 -0.3241
  267MOL0     N36760   0.022   8.008   5.523 -0.5657  0.1929 -0.3596
  267MOL0     C36761   0.406   8.505   5.020  0.2097 -1.1803  0.4405
  267MOL0     C36762   0.273   8.481   4.984  0.4074 -0.4417 -0.1588
  267MOL0     C36763  -0.174   8.452   5.034 -1.4563  0.7149 -0.4608
  267MOL0     C36764  -0.241   8.578   5.022  0.0849 -0.2319  0.4180
  267MOL0     C36765  -0.370   8.589   5.062  0.2310 -0.2201  0.3096
  267MOL0     C36766  -0.457   8.485   5.078 -0.2402  0.1372  0.3749
  267MOL0     O36767  -0.596   8.497   5.078  0.2560 -0.7194 -0.2958
  267MOL0     C36768  -0.668   8.403   4.991 -0.7239 -0.6558 -0.4295
  267MOL0     C36769  -0.747   8.480   4.877  1.3076  0.4449 -0.4392
  267MOL0     C36770  -0.650   8.553   4.785  0.5154 -1.0986 -0.4724
  267MOL0     C36771  -0.699   8.697   4.730 -0.2104 -1.2535  0.3153
  267MOL0     C36772  -0.816   8.669   4.647  0.5201 -0.2825 -0.1898
  267MOL0     C36773  -0.922   8.641   4.592 -1.2052  0.1948  0.1001
  267MOL0     C36774  -0.393   8.358   5.080  0.3764 -0.2299 -0.3560
  267MOL0     C36775  -0.254   8.341   5.063 -0.1468 -0.3298 -0.0899
  267MOL0     C36776  -0.217   8.199   5.072 -0.2681 -0.3561  0.3285
  267MOL0     H36777   0.145   8.790   5.073  2.1925  1.4239 -0.2444
  267MOL0     H36778   0.374   8.831   5.126  1.1260 -1.2855  0.1994
  267MOL0     H36779   0.527   8.790   5.262  0.8153  2.5745 -0.8800
  267MOL0     H36780   0.682   8.814   5.182 -0.6713  0.5888  2.1399
  267MOL0     H36781   0.759   8.585   5.228  2.0076  0.3110  2.6804
  267MOL0     H36782   0.734   8.688   5.362 -0.7795 -0.4451 -0.3206
  267MOL0     H36783   0.542   8.452   5.281  0.0070 -0.1074  0.9956
  267MOL0     H36784   0.644   8.436   5.409 -1.0675 -2.3156 -2.3141
  267MOL0     H36785   0.514   8.591   5.539  1.0156  0.6062 -0.1187
  267MOL0     H36786   0.417   8.649   5.404  3.0033  0.7491 -2.5030
  267MOL0     H36787   0.312   8.513   5.569 -2.6408 -2.8879 -0.1159
  267MOL0     H36788   0.405   8.371   5.531  2.8427  0.1713  0.0133
  267MOL0     H36789   0.238   8.518   5.331  2.6268  0.4103 -0.9754
  267MOL0     H36790   0.322   8.366   5.296  0.3572 -1.1022  0.3768
  267MOL0     H36791   0.073   8.335   5.315  1.2057 -2.1040 -0.2613
  267MOL0     H36792   0.076   8.416   5.469  1.4486 -1.4471  1.2108
  267MOL0     H36793   0.238   8.169   5.419  1.3019  0.0595  2.8237
  267MOL0     H36794   0.185   8.220   5.578  0.3117 -1.2797  0.8725
  267MOL0     H36795  -0.131   8.281   5.424 -0.7426 -0.1176 -1.7177
  267MOL0     H36796  -0.361   8.181   5.449  0.3195  0.2279  2.4308
  267MOL0     H36797  -0.365   8.067   5.589 -1.1162  1.7058  0.1510
  267MOL0     H36798  -0.315   7.977   5.297  0.8228 -0.1537  0.1103
  267MOL0     H36799  -0.362   7.877   5.438  1.5317  0.3663  0.8234
  267MOL0     H36800  -0.576   7.978   5.426  0.6393 -0.5328  0.3875
  267MOL0     H36801  -0.514   8.115   5.321  0.7405  0.1485 -1.9543
  267MOL0     H36802  -0.487   7.897   5.145 -0.6544 -0.3987  1.0415
  267MOL0     H36803  -0.614   7.834   5.244  0.5477 -1.8023 -2.6295
  267MOL0     H36804  -0.893   8.101   5.031  1.6174  0.3946  0.9141
  267MOL0     H36805  -1.143   8.000   4.843  1.0150 -2.0387 -1.2057
  267MOL0     H36806  -1.021   8.026   4.718  1.4560 -0.4843  0.1683
  267MOL0     H36807  -1.019   8.139   4.850  3.3775 -0.0930 -1.1612
  267MOL0     H36808  -0.996   7.686   4.426 -1.0441  1.4870  0.2595
  267MOL0     H36809  -1.127   7.539   4.312 -1.5003 -1.3553 -0.2135
  267MOL0     H36810  -1.345   7.401   4.370 -1.0756 -0.2134 -1.7446
  267MOL0     H36811  -1.255   7.393   4.227 -2.4981  0.6553 -0.4152
  267MOL0     H36812  -1.339   7.123   4.250  3.2030  1.4896  0.1875
  267MOL0     H36813  -1.444   7.200   4.361  1.8665  2.5831  1.4288
  267MOL0     H36814  -1.458   7.175   4.063 -0.7379 -0.5446  0.2240
  267MOL0     H36815  -1.484   7.349   4.117  2.4782  0.2547  1.1294
  267MOL0     H36816  -1.677   7.281   4.242  2.4686  0.7855 -0.0993
  267MOL0     H36817  -1.644   7.108   4.194  0.5596 -0.6391 -1.3132
  267MOL0     H36818  -1.639   7.279   3.950  0.0907  0.0387  0.0181
  267MOL0     H36819  -1.748   7.146   4.006  1.1179 -0.0996 -0.8964
  267MOL0     H36820  -1.786   7.429   4.094  3.8720 -0.5266 -1.2326
  267MOL0     H36821  -1.895   7.297   4.125  0.3990  2.6323  0.6482
  267MOL0     H36822  -1.814   7.433   3.865 -2.0883  1.1676 -0.3253
  267MOL0     H36823  -1.972   7.434   3.940  1.1078  1.8432 -0.5150
  267MOL0     H36824  -2.025   7.229   3.853  1.2568 -1.3165  2.8648
  267MOL0     H36825  -1.860   7.178   3.823 -4.5752 -3.7531  1.6574
  267MOL0     H36826  -1.064   7.243   4.636 -1.2059  1.3112  0.5992
  267MOL0     H36827  -0.922   7.394   4.736  1.9709 -1.9214 -2.2403
  267MOL0     H36828  -0.742   7.688   4.831 -0.7945  1.5161 -1.2022
  267MOL0     H36829  -0.608   7.782   5.021  1.4935  1.7525  0.3951
  267MOL0     H36830   0.477   8.424   5.004  2.8094  0.3815  3.1138
  267MOL0     H36831   0.245   8.384   4.942 -0.4143 -0.5676  0.6564
  267MOL0     H36832  -0.190   8.673   5.008  0.9965 -0.6014  1.1399
  267MOL0     H36833  -0.411   8.688   5.077  1.5531  0.7688 -2.0071
  267MOL0     H36834  -0.591   8.341   4.944  1.8119  1.7916  0.2152
  267MOL0     H36835  -0.735   8.339   5.049 -0.5122 -0.4409  0.0588
  267MOL0     H36836  -0.806   8.549   4.939  1.6859 -2.4786  3.5573
  267MOL0     H36837  -0.819   8.417   4.825 -1.2593  3.0355 -0.3153
  267MOL0     H36838  -0.559   8.575   4.841 -1.5442 -1.1785  3.2395
  267MOL0     H36839  -0.633   8.491   4.696  0.2643  0.4076 -1.5992
  267MOL0     H36840  -0.630   8.740   4.656 -0.3774  0.6360  1.2123
  267MOL0     H36841  -0.731   8.773   4.802 -2.8263 -1.8954 -0.0651
  267MOL0     H36842  -1.007   8.625   4.528 -0.5585 -0.5157 -0.6183
  267MOL0     H36843  -0.458   8.272   5.097 -1.2236  0.9431 -0.2592
  267MOL0     H36844  -0.307   8.138   5.080  0.1896 -1.1717 -0.5718
  267MOL0     H36845  -0.147   8.171   4.993 -0.4493 -0.1560  0.0982
  267MOL0     H36846  -0.161   8.189   5.166  0.2804  0.1461  0.0612
  268MOL0     O36847   1.625   7.451   4.531 -0.8988 -0.3360 -0.7403
  268MOL0     C36848   1.525   7.402   4.580  0.9879  0.9681  0.0029
  268MOL0     O36849   1.416   7.369   4.508 -0.4238  0.4621 -0.1588
  268MOL0     C36850   1.415   7.387   4.372 -0.0982 -0.6545 -0.3735
  268MOL0     C36851   1.365   7.499   4.303 -0.0990 -0.1131 -1.6426
  268MOL0     C36852   1.340   7.493   4.165 -0.3207 -0.4627 -0.5427
  268MOL0     C36853   1.378   7.378   4.103  0.2392 -0.7323 -0.1690
  268MOL0     O36854   1.370   7.384   3.961 -0.7208 -0.2593  0.0572
  268MOL0     C36855   1.251   7.323   3.918  0.0663 -1.3108  0.1889
  268MOL0     C36856   1.223   7.301   3.770  0.3293 -0.3069 -0.5229
  268MOL0     C36857   1.335   7.206   3.709  0.3350  0.2261 -0.6469
  268MOL0     C36858   1.310   7.178   3.557  0.4762 -0.0204  0.1941
  268MOL0     C36859   1.363   7.289   3.478  0.2432 -0.1947 -0.1644
  268MOL0     C36860   1.369   7.246   3.330  1.0109  0.1706  0.1662
  268MOL0     C36861   1.395   7.381   3.238 -0.7358  0.0786 -0.5913
  268MOL0     C36862   1.415   7.354   3.085  1.0139 -0.4039 -0.8192
  268MOL0     N36863   1.289   7.304   3.012 -0.2325 -0.3067 -0.5069
  268MOL0     C36864   1.230   7.186   3.023  0.7967 -0.0774 -0.2421
  268MOL0     C36865   1.120   7.188   2.941  0.6915  0.7079  0.1088
  268MOL0     C36866   1.019   7.077   2.903  0.0450 -0.3389  0.1488
  268MOL0     C36867   0.944   7.058   3.031 -0.2027  0.2069 -0.2812
  268MOL0     C36868   0.810   6.989   3.027  0.0540  0.7027  0.4350
  268MOL0     C36869   0.721   6.997   3.150 -0.6678  0.4433  0.7181
  268MOL0     O36870   0.795   6.995   3.275  0.1574  0.1884 -0.0200
  268MOL0     C36871   0.728   7.053   3.386 -1.1520 -0.2896 -0.6430
  268MOL0     C36872   0.600   7.098   3.383 -0.2775 -0.3782 -0.0745
  268MOL0     C36873   0.538   7.146   3.496  0.2179 -0.1130 -0.4349
  268MOL0     C36874   0.386   7.181   3.497  0.2794 -0.2593  0.0913
  268MOL0     C36875   0.605   7.147   3.621 -0.4252 -0.1301 -0.2384
  268MOL0     C36876   0.562   7.214   3.740  1.0780 -0.2462  0.5855
  268MOL0     O36877   0.512   7.336   3.719  1.9986 -0.5591 -0.9218
  268MOL0     C36878   0.489   7.423   3.824 -0.7859  0.2841 -0.6262
  268MOL0     C36879   0.573   7.528   3.849  0.1103  0.3316  0.4722
  268MOL0     C36880   0.539   7.642   3.922 -0.0006 -0.5359 -0.0772
  268MOL0     C36881   0.414   7.649   3.991 -0.3993  0.9320 -0.0286
  268MOL0     O36882   0.389   7.757   4.071  0.5202  0.3324  0.4022
  268MOL0     C36883   0.334   7.730   4.202 -0.2148 -0.4042 -0.0893
  268MOL0     C36884   0.434   7.669   4.311 -0.1221 -0.2112 -0.1765
  268MOL0     C36885   0.345   7.659   4.433 -0.2022  0.0787 -0.5045
  268MOL0     C36886   0.448   7.596   4.543  0.1777 -0.3947 -0.5499
  268MOL0     C36887   0.429   7.677   4.682  0.3398  0.0079  0.1550
  268MOL0     C36888   0.485   7.593   4.799  0.0994  0.0503  0.0615
  268MOL0     C36889   0.466   7.676   4.924 -0.2212 -0.9817 -0.0835
  268MOL0     C36890   0.536   7.630   5.048 -0.6868  0.7818  0.1589
  268MOL0    Cl36891   0.477   7.682   5.209 -0.6300  0.0815 -0.3379
  268MOL0     C36892   0.324   7.539   3.970 -0.0316 -0.0795  0.5054
  268MOL0     C36893   0.364   7.429   3.888 -0.3128  0.6806 -0.7674
  268MOL0     O36894   0.576   7.157   3.850  0.7476 -0.1332  0.3827
  268MOL0     C36895   0.734   7.093   3.624 -0.0082  0.6476 -1.3019
  268MOL0     C36896   0.797   7.048   3.508 -0.1940 -0.0074 -0.2975
  268MOL0     N36897   1.127   7.312   2.875  0.7550 -0.3514 -0.1898
  268MOL0     N36898   1.216   7.382   2.930 -0.1857 -0.5491  0.1424
  268MOL0     C36899   1.436   7.268   4.169  0.0576 -0.4274  0.1050
  268MOL0     C36900   1.453   7.276   4.305 -0.4046  1.5185  0.3323
  268MOL0     C36901   1.517   7.364   4.724  0.0916  0.7028  0.7390
  268MOL0     C36902   1.444   7.242   4.749 -0.5441  0.2041 -0.4827
  268MOL0     C36903   1.409   7.215   4.885  0.0198  0.5594  0.0041
  268MOL0     C36904   1.453   7.303   4.988 -0.5235  0.3046 -0.1429
  268MOL0     O36905   1.444   7.283   5.119  0.1183 -0.8418  0.0370
  268MOL0     C36906   1.376   7.170   5.172  0.0566  0.0898  1.1964
  268MOL0     C36907   1.337   7.199   5.320  0.3810 -0.2599 -0.5687
  268MOL0     C36908   1.258   7.084   5.378 -0.8742  0.0507  0.3747
  268MOL0     C36909   1.356   6.969   5.411  0.4812 -0.6266  0.1638
  268MOL0     C36910   1.268   6.854   5.457  0.2064  0.9053 -0.2388
  268MOL0     C36911   1.200   6.762   5.497  0.1021  0.4355  0.2612
  268MOL0     C36912   1.535   7.416   4.953  0.3173  0.6176  0.0315
  268MOL0     C36913   1.569   7.447   4.826  1.1004 -0.1299  0.3068
  268MOL0     C36914   1.613   7.584   4.800  0.1326  0.0869  0.3977
  268MOL0     H36915   1.355   7.592   4.358  0.7177  0.5103 -2.5305
  268MOL0     H36916   1.312   7.579   4.105 -2.6779  2.3502  4.0102
  268MOL0     H36917   1.176   7.399   3.942  1.0719  0.1506 -1.1106
  268MOL0     H36918   1.226   7.228   3.967  0.3658 -1.3925  0.1849
  268MOL0     H36919   1.130   7.243   3.764 -1.1289  1.4059  2.7791
  268MOL0     H36920   1.227   7.391   3.708 -0.7893  1.8790  2.3315
  268MOL0     H36921   1.431   7.254   3.727  0.3570  0.4910 -1.4449
  268MOL0     H36922   1.339   7.104   3.749 -2.7309 -0.2382 -1.2330
  268MOL0     H36923   1.368   7.087   3.539 -1.3396 -1.1900 -0.0193
  268MOL0     H36924   1.203   7.161   3.546  0.6194  0.1234 -1.6705
  268MOL0     H36925   1.469   7.302   3.501  0.4456  1.9621 -1.9230
  268MOL0     H36926   1.310   7.379   3.511  0.3842  0.2687 -1.1583
  268MOL0     H36927   1.455   7.178   3.324  1.7359  1.1645 -2.0608
  268MOL0     H36928   1.286   7.181   3.299 -0.2754  1.2276  1.2967
  268MOL0     H36929   1.483   7.436   3.275 -2.5146  2.9076 -0.3223
  268MOL0     H36930   1.320   7.460   3.242 -2.6404 -1.6776  0.4422
  268MOL0     H36931   1.444   7.450   3.041 -0.5159  0.3958 -0.1873
  268MOL0     H36932   1.500   7.288   3.067  0.1913 -0.7980 -3.7718
  268MOL0     H36933   1.243   7.098   3.085 -2.0260 -1.2023 -1.0873
  268MOL0     H36934   1.080   6.990   2.879  1.2564 -0.3947  3.0348
  268MOL0     H36935   0.956   7.101   2.816  0.3543  1.7131  0.4328
  268MOL0     H36936   1.012   7.000   3.094  0.1946 -0.2796 -1.1372
  268MOL0     H36937   0.923   7.151   3.085  1.1590  0.2043  0.3021
  268MOL0     H36938   0.751   7.020   2.940 -1.5103 -0.8021  0.8887
  268MOL0     H36939   0.835   6.883   3.018  5.1019  1.7542 -0.8263
  268MOL0     H36940   0.680   7.097   3.135 -0.1142  0.4649 -0.8567
  268MOL0     H36941   0.654   6.911   3.150  1.0993 -1.0735  3.5038
  268MOL0     H36942   0.540   7.109   3.294 -2.2408  0.1574  1.2569
  268MOL0     H36943   0.342   7.143   3.589 -1.0568 -0.2494 -0.5226
  268MOL0     H36944   0.340   7.122   3.417  2.7254  0.1753 -1.7638
  268MOL0     H36945   0.362   7.288   3.499  3.2030  0.5072 -0.3136
  268MOL0     H36946   0.661   7.513   3.787 -0.3973 -1.0798  0.0581
  268MOL0     H36947   0.616   7.717   3.935 -0.8152  0.0871  1.4986
  268MOL0     H36948   0.307   7.827   4.243  0.2836 -0.2078 -0.2164
  268MOL0     H36949   0.241   7.677   4.179 -1.8356  2.0987  0.3279
  268MOL0     H36950   0.470   7.569   4.284 -3.2244 -1.3423 -0.5719
  268MOL0     H36951   0.523   7.733   4.313 -0.8489  0.8343 -0.6421
  268MOL0     H36952   0.254   7.601   4.418 -1.3243  2.1911 -2.3975
  268MOL0     H36953   0.317   7.756   4.474  1.2949  0.0073  0.8130
  268MOL0     H36954   0.551   7.605   4.508 -0.0170  0.2103 -0.9838
  268MOL0     H36955   0.428   7.491   4.564  0.5220  0.2476  4.0424
  268MOL0     H36956   0.483   7.773   4.680 -0.5183  0.5179  0.8761
  268MOL0     H36957   0.322   7.683   4.702 -0.9785 -0.0353 -5.2187
  268MOL0     H36958   0.592   7.585   4.777  0.4903 -1.1100  2.1807
  268MOL0     H36959   0.440   7.495   4.820  3.3233 -1.8524 -1.0269
  268MOL0     H36960   0.361   7.666   4.954  0.3567  0.7796  2.8893
  268MOL0     H36961   0.490   7.780   4.904  0.5486 -1.5473 -2.5054
  268MOL0     H36962   0.644   7.638   5.033 -0.9296  0.5719 -2.1305
  268MOL0     H36963   0.514   7.523   5.043 -0.8504  0.7431  1.4607
  268MOL0     H36964   0.229   7.533   4.023  1.1974 -1.4917  2.7360
  268MOL0     H36965   0.298   7.344   3.878  1.1699 -0.6453  0.2534
  268MOL0     H36966   0.794   7.098   3.714 -3.5493  2.6090  1.1730
  268MOL0     H36967   0.904   7.029   3.507 -0.3170 -0.6943 -1.0466
  268MOL0     H36968   1.460   7.185   4.103 -1.1104  1.3229 -2.7493
  268MOL0     H36969   1.495   7.195   4.364  0.8993  0.7552 -1.5724
  268MOL0     H36970   1.402   7.187   4.666  2.5260  0.2121 -2.1804
  268MOL0     H36971   1.368   7.117   4.905 -0.0418  0.4716 -0.5318
  268MOL0     H36972   1.283   7.142   5.122 -0.0436  2.3362  0.0018
  268MOL0     H36973   1.439   7.081   5.158  0.3622  0.1848  1.9222
  268MOL0     H36974   1.268   7.283   5.327 -1.2466 -1.5284 -0.9494
  268MOL0     H36975   1.424   7.231   5.378 -1.0515 -0.7539  2.0350
  268MOL0     H36976   1.214   7.126   5.469 -3.9215  2.4251 -1.9704
  268MOL0     H36977   1.175   7.065   5.309  1.0504 -0.3106 -1.9532
  268MOL0     H36978   1.415   7.012   5.493 -1.3094  2.4951 -0.0475
  268MOL0     H36979   1.421   6.935   5.330 -0.1986  0.5161 -0.8770
  268MOL0     H36980   1.146   6.676   5.533  1.2219 -1.0544 -1.4091
  268MOL0     H36981   1.577   7.472   5.036  2.0470  0.7138 -0.8688
  268MOL0     H36982   1.536   7.638   4.744  2.3180 -0.6349 -3.6495
  268MOL0     H36983   1.636   7.621   4.901 -3.5784 -0.4708  1.5972
  268MOL0     H36984   1.701   7.600   4.737  0.7809 -0.5356  1.1325
  269MOL0     O36985   3.494   0.130   4.656  0.1318  0.7484 -0.4768
  269MOL0     C36986   3.580   0.102   4.743  0.1480  0.6870  0.5048
  269MOL0     O36987   3.706   0.157   4.753  0.0579  0.1045  0.0154
  269MOL0     C36988   3.715   0.284   4.708 -0.9729  0.7265  0.3957
  269MOL0     C36989   3.619   0.377   4.722  0.3060  0.5289 -0.8483
  269MOL0     C36990   3.640   0.506   4.682  0.2505  0.1533 -0.6975
  269MOL0     C36991   3.755   0.557   4.635  0.9473 -0.1480  1.2652
  269MOL0     O36992   3.781   0.688   4.619  0.8852  0.0620 -0.5594
  269MOL0     C36993   3.718   0.760   4.726 -0.0346  0.4079  0.6528
  269MOL0     C36994   3.750   0.908   4.706 -0.2493 -0.2922 -0.0566
  269MOL0     C36995   3.655   0.973   4.592 -0.0037 -0.2850 -0.9464
  269MOL0     C36996   3.705   1.117   4.580  0.7938 -0.5603  0.4042
  269MOL0     C36997   3.617   1.206   4.496 -0.0309  0.4401  0.3607
  269MOL0     C36998   3.479   1.229   4.559 -0.6399  0.4783 -0.2635
  269MOL0     C36999   3.416   1.356   4.508  0.6523 -0.1745  0.1224
  269MOL0     C37000   3.308   1.395   4.611 -0.7534 -1.0078  0.0038
  269MOL0     N37001   3.360   1.500   4.704  0.3176 -0.7062  0.2629
  269MOL0     C37002   3.463   1.483   4.792  1.1189 -1.0876 -0.2877
  269MOL0     C37003   3.471   1.607   4.847 -1.1837 -0.4759  0.1583
  269MOL0     C37004   3.574   1.642   4.959  0.3331  0.5726 -0.9923
  269MOL0     C37005   3.687   1.750   4.933 -0.6127  0.4537  0.2864
  269MOL0     C37006   3.649   1.892   4.872  0.2066  0.6466 -0.4617
  269MOL0     C37007   3.773   1.979   4.851  0.2005 -0.8485 -0.1338
  269MOL0     O37008   3.740   2.111   4.796  0.6153  0.2738 -0.1726
  269MOL0     C37009   3.849   2.192   4.792  0.2866 -0.2731  0.0873
  269MOL0     C37010   3.958   2.172   4.709 -0.3486  0.9151  0.5443
  269MOL0     C37011   4.074   2.246   4.719  0.1762  0.5700  0.2904
  269MOL0     C37012   4.180   2.216   4.617  0.0229  0.5485 -0.2353
  269MOL0     C37013   4.078   2.355   4.800  0.5163  0.0548 -0.1682
  269MOL0     C37014   4.196   2.445   4.819  0.8730 -0.6277 -0.4765
  269MOL0     O37015   4.154   2.571   4.807  0.1574  0.2755  0.3643
  269MOL0     C37016   4.238   2.672   4.850 -0.1839 -0.2343  0.6522
  269MOL0     C37017   4.362   2.711   4.791 -0.2791 -0.2323  0.4949
  269MOL0     C37018   4.431   2.835   4.833 -0.2207  0.0405  0.1896
  269MOL0     C37019   4.390   2.906   4.953 -0.6794  0.1289  0.0864
  269MOL0     O37020   4.479   3.008   5.003  0.4841  0.8149  0.0460
  269MOL0     C37021   4.422   3.103   5.089  0.3302  0.1316  0.0684
  269MOL0     C37022   4.529   3.201   5.132 -0.4530 -0.2987 -0.4104
  269MOL0     C37023   4.619   3.142   5.242 -0.0318  0.0304 -0.1755
  269MOL0     C37024   4.671   3.240   5.350 -0.2671 -0.5102 -0.1133
  269MOL0     C37025   4.794   3.207   5.430 -1.0328 -0.3175 -0.3803
  269MOL0     C37026   4.868   3.329   5.497  0.2862  0.1902 -0.1553
  269MOL0     C37027   4.777   3.418   5.578 -0.1419  0.6859  0.8121
  269MOL0     C37028   4.701   3.354   5.693  0.8757  0.2801 -0.0990
  269MOL0    Cl37029   4.583   3.481   5.757  0.7801 -0.0202  0.1557
  269MOL0     C37030   4.273   2.858   5.014  1.1555 -0.1587 -0.2138
  269MOL0     C37031   4.196   2.745   4.961 -0.2284 -0.1123 -0.0958
  269MOL0     O37032   4.308   2.406   4.850  0.2158 -0.1639  0.2499
  269MOL0     C37033   3.953   2.390   4.873  0.0191  0.1072  0.6404
  269MOL0     C37034   3.844   2.309   4.875  0.3175  0.0229 -0.3288
  269MOL0     N37035   3.390   1.693   4.788  0.3815 -0.2825  0.5755
  269MOL0     N37036   3.323   1.628   4.700 -0.1853  0.2082  0.5836
  269MOL0     C37037   3.861   0.475   4.626 -0.3067  0.3755  0.7112
  269MOL0     C37038   3.840   0.332   4.659 -0.2929  0.3863 -0.6920
  269MOL0     C37039   3.525   0.005   4.845  0.2455 -0.2715 -0.0071
  269MOL0     C37040   3.450  -0.108   4.802  0.4825 -0.3218  1.6110
  269MOL0     C37041   3.402  -0.199   4.898 -0.7751 -1.5345  0.0572
  269MOL0     C37042   3.424  -0.177   5.030 -0.5101  0.5457  0.4453
  269MOL0     O37043   3.390  -0.268   5.123  0.0680  0.1054  0.1080
  269MOL0     C37044   3.314  -0.383   5.082  0.5388 -0.0723  0.1124
  269MOL0     C37045   3.286  -0.476   5.190  0.2769  0.5076 -0.5670
  269MOL0     C37046   3.199  -0.395   5.298  0.5814 -0.0536  0.2702
  269MOL0     C37047   3.171  -0.470   5.424  0.6954 -0.6948 -0.1002
  269MOL0     C37048   3.288  -0.516   5.506 -1.3733 -0.6858  0.2886
  269MOL0     C37049   3.389  -0.550   5.563 -0.6773  0.4882  0.2281
  269MOL0     C37050   3.488  -0.061   5.075  0.3857 -0.2978  0.3174
  269MOL0     C37051   3.533   0.029   4.984  0.3502 -0.3692  0.0212
  269MOL0     C37052   3.585   0.153   5.034 -0.4672 -0.0270 -0.2910
  269MOL0     H37053   3.524   0.343   4.764  1.4130 -1.0955  0.4511
  269MOL0     H37054   3.546   0.560   4.696 -1.4554 -3.1322  2.3250
  269MOL0     H37055   3.755   0.724   4.822 -3.1826  0.5768  2.0491
  269MOL0     H37056   3.610   0.744   4.732  0.3541 -3.4399 -0.2156
  269MOL0     H37057   3.737   0.957   4.802  1.4075 -1.3083  0.7272
  269MOL0     H37058   3.856   0.920   4.682  0.8789 -0.7405  4.0822
  269MOL0     H37059   3.662   0.916   4.498  0.2967 -2.1994  0.1768
  269MOL0     H37060   3.554   0.972   4.634  0.6663  0.5037  0.7602
  269MOL0     H37061   3.708   1.180   4.670 -3.9886 -0.0454  0.4490
  269MOL0     H37062   3.805   1.112   4.535  1.0438  0.9412  0.7218
  269MOL0     H37063   3.599   1.168   4.395  1.0435 -2.2496  1.0754
  269MOL0     H37064   3.681   1.295   4.491  0.6831 -0.0997 -0.4661
  269MOL0     H37065   3.412   1.150   4.524 -1.8875  1.1311  0.5343
  269MOL0     H37066   3.505   1.217   4.665  2.5602 -3.9247 -1.2751
  269MOL0     H37067   3.380   1.343   4.405  2.9947 -1.0319 -0.6514
  269MOL0     H37068   3.500   1.425   4.499  0.9256 -0.2579  1.7010
  269MOL0     H37069   3.226   1.446   4.559 -0.1891  1.2208  1.2126
  269MOL0     H37070   3.270   1.309   4.668 -0.7455  0.5827  2.5727
  269MOL0     H37071   3.527   1.397   4.812  2.9634 -0.1062 -1.6448
  269MOL0     H37072   3.620   1.547   4.985  2.9942  2.6011  2.7357
  269MOL0     H37073   3.519   1.674   5.048  3.7803  5.1671 -0.1339
  269MOL0     H37074   3.742   1.769   5.025  0.2118 -0.8045  0.0794
  269MOL0     H37075   3.764   1.703   4.872 -0.2984  0.1245  0.9276
  269MOL0     H37076   3.596   1.865   4.780 -0.1365  3.1530 -1.0827
  269MOL0     H37077   3.578   1.939   4.941 -1.3235  2.1841 -2.9056
  269MOL0     H37078   3.819   1.989   4.949 -0.2154 -1.7610  0.1674
  269MOL0     H37079   3.849   1.930   4.790  1.3234 -1.8480  1.9540
  269MOL0     H37080   3.949   2.090   4.639 -0.7626  0.0434  1.6034
  269MOL0     H37081   4.190   2.109   4.596  0.2743  0.1947  1.5581
  269MOL0     H37082   4.270   2.250   4.669 -0.4462 -1.7041  2.2571
  269MOL0     H37083   4.168   2.278   4.528 -2.5655  0.2821 -0.1420
  269MOL0     H37084   4.395   2.659   4.702 -0.0399 -1.3325  1.2073
  269MOL0     H37085   4.527   2.858   4.788  0.0492  0.4262  0.9576
  269MOL0     H37086   4.351   3.158   5.026  0.8171 -1.5036 -1.9905
  269MOL0     H37087   4.375   3.049   5.172  2.3093 -3.0032 -0.7028
  269MOL0     H37088   4.579   3.243   5.044 -1.8846 -1.8163 -2.0401
  269MOL0     H37089   4.480   3.293   5.167 -1.0035  0.1325 -2.1930
  269MOL0     H37090   4.708   3.100   5.194  1.9643  0.2653  3.0407
  269MOL0     H37091   4.568   3.073   5.309  0.6684 -2.3156 -1.9041
  269MOL0     H37092   4.600   3.267   5.429  1.3799 -0.6926  1.5037
  269MOL0     H37093   4.703   3.324   5.288  0.6636 -1.6232 -1.2064
  269MOL0     H37094   4.778   3.135   5.511  2.5088 -1.0194 -0.1540
  269MOL0     H37095   4.869   3.150   5.373  1.9487  1.7884  1.1442
  269MOL0     H37096   4.906   3.389   5.414  2.2421  2.1116  2.0156
  269MOL0     H37097   4.949   3.303   5.565 -0.4039  0.2994  0.7261
  269MOL0     H37098   4.694   3.455   5.517  0.4784  0.0269 -0.4655
  269MOL0     H37099   4.833   3.505   5.615 -4.1703  2.3264  3.8233
  269MOL0     H37100   4.775   3.315   5.763 -0.0513 -1.8343 -0.2074
  269MOL0     H37101   4.639   3.267   5.669 -1.0279  1.1791  1.3141
  269MOL0     H37102   4.240   2.921   5.096  1.5862 -0.0310 -0.1398
  269MOL0     H37103   4.104   2.723   5.015  0.0913 -1.1783  0.0308
  269MOL0     H37104   3.945   2.487   4.920 -1.8103 -0.1610  0.9573
  269MOL0     H37105   3.758   2.336   4.935 -0.4917 -2.2002 -0.3726
  269MOL0     H37106   3.950   0.510   4.574 -1.9080  0.8558 -1.9198
  269MOL0     H37107   3.931   0.273   4.652 -1.0247 -1.3090  2.2757
  269MOL0     H37108   3.441  -0.124   4.695  0.1932 -0.1629  1.6098
  269MOL0     H37109   3.358  -0.285   4.849 -1.6256 -0.6979 -0.6897
  269MOL0     H37110   3.212  -0.357   5.052 -0.0176 -0.0229  1.9477
  269MOL0     H37111   3.363  -0.436   5.000  1.7412  0.5155  0.4333
  269MOL0     H37112   3.366  -0.521   5.249 -1.2553 -1.1782  0.3431
  269MOL0     H37113   3.235  -0.569   5.163  1.6140 -2.3087  5.1257
  269MOL0     H37114   3.263  -0.312   5.329 -1.5837  0.9212  2.3909
  269MOL0     H37115   3.099  -0.358   5.272 -1.5734 -3.5769  2.6493
  269MOL0     H37116   3.113  -0.558   5.394  2.2274 -1.2302 -1.6564
  269MOL0     H37117   3.111  -0.400   5.483  3.6405  0.2297  2.0483
  269MOL0     H37118   3.469  -0.597   5.616 -2.5224 -0.8209  1.9561
  269MOL0     H37119   3.503  -0.045   5.181 -1.0970  1.5680  0.2996
  269MOL0     H37120   3.680   0.178   4.986 -0.2629  0.0420  0.1465
  269MOL0     H37121   3.503   0.225   5.024  1.0217  1.7414 -0.3271
  269MOL0     H37122   3.613   0.150   5.139  2.2435  4.3838 -0.6212
  270MOL0     O37123   6.410   8.101  10.142 -0.7287  0.0378 -0.5357
  270MOL0     C37124   6.304   8.056  10.103 -0.0909 -0.6539  0.7315
  270MOL0     O37125   6.183   8.099  10.140 -0.4141 -0.5600 -0.5412
  270MOL0     C37126   6.185   8.186  10.244 -0.0226 -0.2153 -0.2069
  270MOL0     C37127   6.104   8.304  10.238  0.2191  0.4817 -0.5698
  270MOL0     C37128   6.087   8.388  10.353  0.7202 -0.0002  0.1742
  270MOL0     C37129   6.149   8.353  10.475  0.2475  0.5837 -1.0603
  270MOL0     O37130   6.129   8.435  10.579 -0.3706  0.0865  0.3700
  270MOL0     C37131   6.160   8.371  10.707 -0.0510 -0.3974 -0.6901
  270MOL0     C37132   6.129   8.447  10.835  0.1370 -0.1882 -0.4920
  270MOL0     C37133   5.976   8.474  10.864  0.3032 -0.3297 -0.9927
  270MOL0     C37134   5.953   8.556  11.001  0.9543  0.1562 -0.8153
  270MOL0     C37135   5.807   8.600  11.017 -0.3403 -1.6985  0.0051
  270MOL0     C37136   5.754   8.650  11.150 -0.2413  0.0674  0.4920
  270MOL0     C37137   5.761   8.542  11.249 -0.5389  0.4170 -0.5211
  270MOL0     C37138   5.702   8.585  11.384  0.5723 -0.0737  0.4093
  270MOL0     N37139   5.711   8.482  11.484  0.1105 -0.3359  0.3748
  270MOL0     C37140   5.678   8.495  11.619  0.1388  0.7249  0.0808
  270MOL0     C37141   5.748   8.390  11.680  0.3307  0.2920 -0.0260
  270MOL0     C37142   5.765   8.388  11.823  0.1346  0.2033 -0.5063
  270MOL0     C37143   5.655   8.310  11.899  0.1054 -0.2467  0.0740
  270MOL0     C37144   5.544   8.393  11.970 -0.7419 -0.5052  1.2481
  270MOL0     C37145   5.581   8.452  12.107  0.4132  0.3705 -0.4859
  270MOL0     O37146   5.632   8.357  12.204  0.0447  0.8289  0.2406
  270MOL0     C37147   5.546   8.256  12.247 -0.0096 -0.3839 -0.7924
  270MOL0     C37148   5.411   8.262  12.243  0.5524 -0.4239 -0.4073
  270MOL0     C37149   5.323   8.157  12.287 -0.8873 -0.0396 -0.1272
  270MOL0     C37150   5.175   8.182  12.317  0.7400 -0.1825  0.7633
  270MOL0     C37151   5.381   8.032  12.310  0.1911  0.1398  0.2677
  270MOL0     C37152   5.313   7.905  12.331 -0.0969 -0.3018 -0.0679
  270MOL0     O37153   5.394   7.806  12.389  0.3957 -0.4044 -0.2422
  270MOL0     C37154   5.339   7.689  12.416 -0.6391 -0.8557  0.3297
  270MOL0     C37155   5.254   7.663  12.527 -0.5397  0.4694  0.0069
  270MOL0     C37156   5.205   7.532  12.565  0.0074  0.0260  0.1114
  270MOL0     C37157   5.245   7.422  12.480  0.3237 -0.5219 -0.1017
  270MOL0     O37158   5.202   7.289  12.502 -1.0630 -0.4014  0.0293
  270MOL0     C37159   5.129   7.256  12.618 -0.2931  0.0895 -0.3115
  270MOL0     C37160   5.094   7.099  12.618  0.6678 -0.7274 -0.7122
  270MOL0     C37161   5.214   7.009  12.618  0.5982  0.4920 -0.5289
  270MOL0     C37162   5.180   6.874  12.565  0.4023 -0.2327  0.9491
  270MOL0     C37163   5.288   6.778  12.572 -0.3516  0.4279  0.0171
  270MOL0     C37164   5.287   6.692  12.696  0.1234 -0.4869 -0.2751
  270MOL0     C37165   5.185   6.574  12.689  0.1432 -0.3083  0.5154
  270MOL0     C37166   5.194   6.490  12.816 -0.2629  0.8067 -0.7104
  270MOL0    Cl37167   5.188   6.591  12.962 -0.0004 -0.0449 -0.0804
  270MOL0     C37168   5.322   7.455  12.366 -0.3859  0.4276 -0.7077
  270MOL0     C37169   5.373   7.576  12.336 -0.7846  1.0454  1.7071
  270MOL0     O37170   5.195   7.889  12.303 -0.2727 -0.2394  0.1658
  270MOL0     C37171   5.518   8.028  12.307  0.7318  0.7395  0.5634
  270MOL0     C37172   5.601   8.139  12.294 -0.0196  0.0282  0.3232
  270MOL0     N37173   5.799   8.307  11.584 -0.3116 -0.1290  0.1782
  270MOL0     N37174   5.771   8.357  11.471  0.6516  0.4690 -0.7836
  270MOL0     C37175   6.233   8.235  10.482  0.4358 -0.7361  0.5147
  270MOL0     C37176   6.243   8.149  10.368  0.0774  0.3920 -0.0100
  270MOL0     C37177   6.318   7.947   9.997 -0.2642 -0.3138  0.2991
  270MOL0     C37178   6.218   7.928   9.904  0.2400  0.1664 -0.3388
  270MOL0     C37179   6.214   7.826   9.811 -0.6407  0.3611  0.9039
  270MOL0     C37180   6.316   7.731   9.812 -0.2415  0.0749 -1.0364
  270MOL0     O37181   6.321   7.620   9.734 -0.4328 -0.6139 -0.5199
  270MOL0     C37182   6.240   7.624   9.612 -0.2897  0.4338  0.5078
  270MOL0     C37183   6.312   7.566   9.492  0.7944  0.6619  0.5457
  270MOL0     C37184   6.218   7.542   9.365 -1.3828  0.1470  0.6130
  270MOL0     C37185   6.107   7.646   9.338  0.5756 -1.1264 -0.1038
  270MOL0     C37186   5.974   7.601   9.356  0.0912  0.7087  0.5499
  270MOL0     C37187   5.860   7.560   9.370 -0.1293  0.2193  0.5262
  270MOL0     C37188   6.427   7.746   9.898 -0.2756 -0.0692 -0.4133
  270MOL0     C37189   6.423   7.852   9.994  0.1687  0.1220  0.3656
  270MOL0     C37190   6.541   7.857  10.099 -0.0482  1.0590 -0.0457
  270MOL0     H37191   6.050   8.325  10.146 -1.7343 -1.3202  0.0903
  270MOL0     H37192   6.030   8.479  10.334  2.0645  1.2699  1.9052
  270MOL0     H37193   6.266   8.349  10.697  0.1630  0.5452 -0.5718
  270MOL0     H37194   6.106   8.276  10.705 -0.0619 -0.3920 -0.6845
  270MOL0     H37195   6.168   8.390  10.919  0.6093  1.2608  0.3130
  270MOL0     H37196   6.185   8.541  10.839 -0.6127  0.2329  0.3581
  270MOL0     H37197   5.940   8.520  10.772 -0.7899 -0.8023 -0.8206
  270MOL0     H37198   5.919   8.382  10.871 -0.2445  0.0239 -0.7673
  270MOL0     H37199   5.967   8.486  11.084 -0.9735 -1.1844 -1.5349
  270MOL0     H37200   6.009   8.649  11.010 -1.7618  2.1950 -3.0249
  270MOL0     H37201   5.743   8.519  10.981 -1.3584 -0.2912 -1.4829
  270MOL0     H37202   5.796   8.687  10.952 -1.1732 -1.4400  0.4781
  270MOL0     H37203   5.806   8.738  11.190  1.9019  0.4884 -2.8643
  270MOL0     H37204   5.651   8.677  11.128 -0.4207 -1.4852 -0.7921
  270MOL0     H37205   5.862   8.509  11.274 -0.9177  0.8343  1.8617
  270MOL0     H37206   5.721   8.451  11.203  4.0089 -2.4624  0.5784
  270MOL0     H37207   5.762   8.672  11.413 -1.7171  0.7083  3.4769
  270MOL0     H37208   5.595   8.610  11.381  0.3286 -1.1503 -0.8495
  270MOL0     H37209   5.624   8.573  11.671  2.1969  2.8831 -0.8821
  270MOL0     H37210   5.776   8.490  11.860 -2.4771  1.7161 -3.3985
  270MOL0     H37211   5.861   8.338  11.838 -1.2135 -2.7938 -1.0998
  270MOL0     H37212   5.595   8.251  11.829 -0.8657 -2.1428  2.3744
  270MOL0     H37213   5.697   8.240  11.971  3.0904  0.3118 -1.0021
  270MOL0     H37214   5.512   8.475  11.904  2.3233  1.7575  2.3144
  270MOL0     H37215   5.462   8.322  11.982 -1.4192  0.3122  1.5692
  270MOL0     H37216   5.660   8.524  12.083 -0.6992  1.7667 -0.0905
  270MOL0     H37217   5.496   8.504  12.152 -0.8041 -1.1892 -0.8739
  270MOL0     H37218   5.359   8.342  12.191  0.6463  0.3303  0.6273
  270MOL0     H37219   5.163   8.289  12.337  3.4956 -0.1048  2.4418
  270MOL0     H37220   5.171   8.136  12.416  2.8633 -1.2186  0.4313
  270MOL0     H37221   5.117   8.142  12.233  3.4969 -1.7538 -0.5214
  270MOL0     H37222   5.228   7.750  12.586 -3.9787  2.7919 -4.3201
  270MOL0     H37223   5.140   7.522  12.651  0.8211 -2.2633  0.5371
  270MOL0     H37224   5.172   7.278  12.717 -2.2413  1.6864  0.2479
  270MOL0     H37225   5.037   7.312  12.601  0.6338  0.9933 -2.7230
  270MOL0     H37226   5.037   7.080  12.709 -0.5835  1.3453 -0.9890
  270MOL0     H37227   5.037   7.074  12.529 -0.3694  1.2728 -0.6851
  270MOL0     H37228   5.245   6.990  12.722  1.4067  1.8284 -0.5059
  270MOL0     H37229   5.300   7.037  12.558  2.4781 -2.0684  0.7901
  270MOL0     H37230   5.153   6.886  12.460 -1.4069  0.1160  1.4229
  270MOL0     H37231   5.093   6.824  12.609 -0.0149  0.3609  0.8034
  270MOL0     H37232   5.278   6.703  12.493 -1.0052  0.7114 -0.1756
  270MOL0     H37233   5.375   6.839  12.548 -1.4916  2.3236  0.5270
  270MOL0     H37234   5.265   6.755  12.783 -0.6472  0.0038 -0.8051
  270MOL0     H37235   5.387   6.653  12.716 -0.7023 -2.3317  0.4094
  270MOL0     H37236   5.210   6.509  12.605 -1.0871  1.4644 -1.3128
  270MOL0     H37237   5.082   6.604  12.669  1.0090  0.9606 -2.5794
  270MOL0     H37238   5.287   6.433  12.820 -0.7716  0.0301  1.6264
  270MOL0     H37239   5.108   6.423  12.820  1.1110 -1.0100 -0.2842
  270MOL0     H37240   5.331   7.382  12.286  3.1655 -0.2921  0.1860
  270MOL0     H37241   5.420   7.599  12.241  1.9542 -3.7943  1.5640
  270MOL0     H37242   5.567   7.933  12.327  1.2205  0.6191 -1.0687
  270MOL0     H37243   5.707   8.117  12.294 -0.3057 -1.4796  0.7113
  270MOL0     H37244   6.294   8.199  10.564 -1.0007 -0.8556  1.5701
  270MOL0     H37245   6.299   8.059  10.391  2.3528  2.1435  1.7685
  270MOL0     H37246   6.126   7.986   9.905 -0.0410 -0.2780 -0.2583
  270MOL0     H37247   6.131   7.822   9.740 -0.2171  0.4302  0.3945
  270MOL0     H37248   6.146   7.569   9.627 -2.2817  3.9238  2.0843
  270MOL0     H37249   6.213   7.727   9.588  1.3632  0.7809  0.0350
  270MOL0     H37250   6.363   7.470   9.509  1.6087  0.7750 -1.0415
  270MOL0     H37251   6.394   7.635   9.470  0.6763 -0.1757 -3.2770
  270MOL0     H37252   6.274   7.528   9.272 -0.8731  0.7741  0.8223
  270MOL0     H37253   6.174   7.442   9.378  1.7342 -1.4644 -0.2121
  270MOL0     H37254   6.117   7.683   9.236 -3.4520  2.6993  0.6233
  270MOL0     H37255   6.112   7.730   9.408 -2.6437 -0.6274 -0.3533
  270MOL0     H37256   5.769   7.506   9.387  0.1949  0.4455  3.5236
  270MOL0     H37257   6.506   7.673   9.904 -2.3969 -2.4868 -0.2393
  270MOL0     H37258   6.511   7.874  10.203  4.2209  4.1358  0.9772
  270MOL0     H37259   6.605   7.769  10.098  0.0740  1.1245 -2.2169
  270MOL0     H37260   6.604   7.944  10.078 -0.2979  1.6398  1.4930
  271MOL0     O37261   0.866   6.964   4.307 -1.2184  0.3028  0.3444
  271MOL0     C37262   0.840   7.033   4.216  0.2849  0.2377  1.0066
  271MOL0     O37263   0.774   6.990   4.104  0.2033 -0.1570  0.2503
  271MOL0     C37264   0.772   6.859   4.057  0.1453  1.1182 -0.3703
  271MOL0     C37265   0.857   6.752   4.106 -0.2220 -1.2746  0.1475
  271MOL0     C37266   0.845   6.624   4.050  1.6155  0.3483 -0.0080
  271MOL0     C37267   0.740   6.592   3.957  0.0496 -0.2799 -0.1965
  271MOL0     O37268   0.732   6.457   3.930 -0.0201 -0.7651  0.0421
  271MOL0     C37269   0.618   6.427   3.860  0.9100  0.3756 -0.2782
  271MOL0     C37270   0.482   6.421   3.947  0.4695  0.1030 -0.3488
  271MOL0     C37271   0.355   6.374   3.874  0.1342  1.0700  0.1690
  271MOL0     C37272   0.237   6.422   3.959 -0.2820 -0.5755  0.1369
  271MOL0     C37273   0.114   6.383   3.874 -0.5400  0.3641  0.1830
  271MOL0     C37274  -0.018   6.449   3.919  0.5050 -0.2506 -0.4014
  271MOL0     C37275  -0.051   6.439   4.066  0.2896  0.7138  0.9389
  271MOL0     C37276  -0.108   6.306   4.106  1.0966  0.1034 -0.3921
  271MOL0     N37277  -0.249   6.298   4.065 -1.0503  0.2412 -0.1586
  271MOL0     C37278  -0.347   6.357   4.139 -0.6177 -0.5427  0.4377
  271MOL0     C37279  -0.453   6.336   4.056  0.2838  0.4850  0.7218
  271MOL0     C37280  -0.598   6.388   4.091 -0.2886  0.7895  0.5445
  271MOL0     C37281  -0.655   6.491   3.997  0.4555 -0.2380  0.7976
  271MOL0     C37282  -0.576   6.623   3.995 -0.1799  0.7392  0.8222
  271MOL0     C37283  -0.656   6.727   3.918 -0.0770 -0.2623 -0.1300
  271MOL0     O37284  -0.653   6.707   3.773  0.3294 -0.1362  0.0057
  271MOL0     C37285  -0.760   6.777   3.713  0.9722 -0.8742 -0.8679
  271MOL0     C37286  -0.794   6.913   3.739  0.0550  0.4499 -0.0796
  271MOL0     C37287  -0.891   6.976   3.662  1.0793 -0.9334  0.5263
  271MOL0     C37288  -0.922   7.128   3.689  0.0812  0.0539  0.3695
  271MOL0     C37289  -0.971   6.913   3.561 -0.4619 -0.1189 -0.0917
  271MOL0     C37290  -1.078   6.972   3.476 -1.0129  0.4219  0.5872
  271MOL0     O37291  -1.170   7.041   3.548  0.1054 -0.3884  0.7348
  271MOL0     C37292  -1.280   7.101   3.488  0.8013 -0.0018 -0.0807
  271MOL0     C37293  -1.303   7.140   3.353 -0.6672 -0.1359 -0.6069
  271MOL0     C37294  -1.418   7.209   3.323 -0.0424  0.4033  0.1017
  271MOL0     C37295  -1.522   7.241   3.414 -0.0437  0.0397 -0.6117
  271MOL0     O37296  -1.631   7.329   3.383  0.2604  0.2814  0.2921
  271MOL0     C37297  -1.644   7.369   3.245  0.3980 -0.4687 -0.4857
  271MOL0     C37298  -1.797   7.405   3.208  0.6054 -0.0278  0.5648
  271MOL0     C37299  -1.826   7.425   3.053  0.7308  0.8175  0.1658
  271MOL0     C37300  -1.981   7.432   3.017  0.4396 -0.0311 -0.7380
  271MOL0     C37301  -2.039   7.571   3.019 -0.1529 -0.3366  1.1008
  271MOL0     C37302  -2.198   7.573   3.017 -0.4273 -0.2204  0.2598
  271MOL0     C37303  -2.265   7.493   2.906  0.0427 -0.2193 -0.7717
  271MOL0     C37304  -2.409   7.528   2.883  0.4585  0.4638 -0.9371
  271MOL0    Cl37305  -2.485   7.408   2.783  0.3012 -0.3418 -0.2578
  271MOL0     C37306  -1.497   7.195   3.542 -0.0231  0.5661  0.3865
  271MOL0     C37307  -1.377   7.130   3.586 -0.9005  0.0456  0.2413
  271MOL0     O37308  -1.081   6.945   3.356 -0.3271 -0.0437 -0.4348
  271MOL0     C37309  -0.941   6.780   3.548 -0.6940 -0.2869  0.4695
  271MOL0     C37310  -0.844   6.713   3.620  1.1476  0.6815  0.5388
  271MOL0     N37311  -0.422   6.257   3.947 -0.1293  0.1401 -0.7680
  271MOL0     N37312  -0.294   6.219   3.960 -0.3396 -0.2765  0.4151
  271MOL0     C37313   0.667   6.697   3.903  0.8056 -0.4587  0.4135
  271MOL0     C37314   0.687   6.826   3.954  0.3468 -0.5038 -0.5830
  271MOL0     C37315   0.853   7.173   4.233 -0.2091  0.5662  0.0140
  271MOL0     C37316   0.741   7.241   4.200 -0.2879 -0.0168  0.0387
  271MOL0     C37317   0.726   7.376   4.215  0.5396 -0.8476 -0.5904
  271MOL0     C37318   0.829   7.455   4.276 -0.0140  0.3756  0.2520
  271MOL0     O37319   0.799   7.587   4.285 -0.3229 -0.4042  0.1564
  271MOL0     C37320   0.891   7.676   4.349  0.8023 -0.7884 -0.6284
  271MOL0     C37321   0.940   7.767   4.237  0.1743 -0.4537  0.0646
  271MOL0     C37322   1.045   7.699   4.149  0.4864  0.0786  0.8829
  271MOL0     C37323   1.052   7.751   4.000 -0.7725 -0.5853  0.3512
  271MOL0     C37324   1.073   7.896   3.992 -0.6686  0.5089  1.2422
  271MOL0     C37325   1.074   8.021   4.004 -0.7576 -1.1890 -0.1255
  271MOL0     C37326   0.951   7.389   4.304  0.6679  1.0396  0.2104
  271MOL0     C37327   0.960   7.249   4.290 -0.3479 -0.2372 -0.9045
  271MOL0     C37328   1.074   7.182   4.359  0.1370 -0.6420 -0.4416
  271MOL0     H37329   0.939   6.766   4.176 -1.8729  3.4367  1.5489
  271MOL0     H37330   0.894   6.534   4.086 -1.9709 -1.4986  0.6806
  271MOL0     H37331   0.638   6.325   3.825  4.5983  0.6080  0.7709
  271MOL0     H37332   0.605   6.484   3.768  1.3553 -2.4234 -2.2254
  271MOL0     H37333   0.506   6.359   4.034 -2.5740  3.0585  2.9641
  271MOL0     H37334   0.467   6.516   3.998 -0.9578 -0.0505 -0.4271
  271MOL0     H37335   0.343   6.438   3.786 -1.2578  4.3432  2.5148
  271MOL0     H37336   0.359   6.268   3.847 -6.5911 -0.0866  1.9300
  271MOL0     H37337   0.242   6.387   4.063  2.7912  0.5582  0.4855
  271MOL0     H37338   0.241   6.532   3.962 -0.6495 -0.4056 -2.7954
  271MOL0     H37339   0.111   6.274   3.869  2.7376  0.2484 -2.6691
  271MOL0     H37340   0.126   6.413   3.770 -1.8705 -0.3915 -0.2064
  271MOL0     H37341  -0.015   6.555   3.896  0.7965 -0.1467  0.1151
  271MOL0     H37342  -0.097   6.400   3.860  1.1630 -1.0271 -0.6668
  271MOL0     H37343  -0.127   6.516   4.085 -0.4135  0.3086 -0.1322
  271MOL0     H37344   0.039   6.468   4.121  2.5199  2.0600 -2.9995
  271MOL0     H37345  -0.056   6.222   4.061 -0.2410 -0.8323 -0.2525
  271MOL0     H37346  -0.110   6.314   4.215 -2.0813  6.0425 -0.4512
  271MOL0     H37347  -0.343   6.420   4.227 -2.9486  1.5803 -0.8173
  271MOL0     H37348  -0.594   6.436   4.189 -2.7749  1.8417  0.1750
  271MOL0     H37349  -0.669   6.307   4.110 -0.3948 -0.0580 -2.8023
  271MOL0     H37350  -0.674   6.465   3.892  0.7527  0.3400  0.5979
  271MOL0     H37351  -0.749   6.530   4.036 -0.9065 -1.6051 -0.9272
  271MOL0     H37352  -0.556   6.663   4.095  1.1562 -0.7313  1.1744
  271MOL0     H37353  -0.478   6.614   3.947  0.5826  2.7723  1.8570
  271MOL0     H37354  -0.755   6.740   3.961  0.7679 -1.0311  2.1875
  271MOL0     H37355  -0.597   6.817   3.942  2.0540 -2.2042  2.5954
  271MOL0     H37356  -0.750   6.977   3.815  1.9395 -0.2137 -0.5512
  271MOL0     H37357  -1.025   7.147   3.721  0.3696  3.4597 -0.3515
  271MOL0     H37358  -0.896   7.199   3.610 -0.4713 -2.1297 -1.9115
  271MOL0     H37359  -0.863   7.149   3.778 -0.3957  1.1750  0.4349
  271MOL0     H37360  -1.239   7.120   3.268  0.8160 -0.6422  0.5917
  271MOL0     H37361  -1.430   7.234   3.218  0.9827  1.2603  0.1757
  271MOL0     H37362  -1.592   7.464   3.235 -1.1553  0.2708 -2.1457
  271MOL0     H37363  -1.612   7.289   3.177  1.6072 -1.6286  1.3641
  271MOL0     H37364  -1.862   7.321   3.236 -1.2139  2.0230  3.0336
  271MOL0     H37365  -1.821   7.494   3.267 -0.2188 -0.4880  0.9428
  271MOL0     H37366  -1.786   7.340   2.998 -0.7998  0.5366 -0.5547
  271MOL0     H37367  -1.786   7.521   3.020 -1.1106  2.4615  2.3754
  271MOL0     H37368  -2.036   7.381   3.096 -0.5345  1.2548 -0.5427
  271MOL0     H37369  -2.003   7.383   2.921 -1.5051 -0.6094 -0.0362
  271MOL0     H37370  -2.008   7.617   3.114  0.7911  1.3626  0.0220
  271MOL0     H37371  -2.003   7.628   2.932 -1.0130 -0.5459  0.6027
  271MOL0     H37372  -2.235   7.676   3.017  0.1721  0.0041  0.6106
  271MOL0     H37373  -2.243   7.545   3.112 -2.2061  2.0471  0.1576
  271MOL0     H37374  -2.263   7.392   2.948 -3.1731  1.1511  3.4451
  271MOL0     H37375  -2.215   7.504   2.809 -1.6684  0.9310 -1.5983
  271MOL0     H37376  -2.417   7.625   2.834  1.0649  0.3805 -1.2126
  271MOL0     H37377  -2.459   7.518   2.980  3.2178 -1.8634  0.4183
  271MOL0     H37378  -1.578   7.225   3.608  1.4780  1.1120  2.0761
  271MOL0     H37379  -1.349   7.130   3.690 -1.2526  0.9753  0.3513
  271MOL0     H37380  -1.006   6.724   3.481  0.2801 -4.2955  2.5210
  271MOL0     H37381  -0.838   6.608   3.594  2.2296  1.0630 -0.8277
  271MOL0     H37382   0.594   6.676   3.825  0.2456 -2.8552  1.5070
  271MOL0     H37383   0.626   6.906   3.913 -0.5274  0.4300  2.3316
  271MOL0     H37384   0.663   7.189   4.145  1.0512  0.0381 -2.0343
  271MOL0     H37385   0.637   7.427   4.182 -0.1497 -3.2834 -2.8327
  271MOL0     H37386   0.836   7.740   4.418  0.3329  1.2065 -2.7014
  271MOL0     H37387   0.965   7.624   4.409  0.0271 -2.4687 -1.0527
  271MOL0     H37388   0.983   7.855   4.284 -2.5144 -0.9225  3.7980
  271MOL0     H37389   0.852   7.794   4.178 -0.6432 -1.2123  0.8970
  271MOL0     H37390   1.145   7.723   4.186  0.0068  1.8327  1.1243
  271MOL0     H37391   1.035   7.590   4.155 -0.6509  0.0054 -1.2369
  271MOL0     H37392   0.961   7.722   3.946 -0.1183  1.0324 -1.7188
  271MOL0     H37393   1.138   7.701   3.953  1.3313  1.5046  1.7827
  271MOL0     H37394   1.058   8.127   4.009 -2.0736 -1.2691 -1.6452
  271MOL0     H37395   1.038   7.437   4.347  1.1793 -1.2310  1.8961
  271MOL0     H37396   1.135   7.255   4.413 -1.4810  1.1850 -0.9511
  271MOL0     H37397   1.046   7.098   4.424  0.5699  1.0048  2.0142
  271MOL0     H37398   1.133   7.148   4.274  0.5626 -0.7217 -0.1196
  272MOL0     O37399   9.049   5.640   0.207  0.1201  0.1786 -0.4257
  272MOL0     C37400   9.110   5.721   0.138  1.1119 -0.4615  0.3053
  272MOL0     O37401   9.207   5.692   0.042 -0.1264 -0.5209 -0.3365
  272MOL0     C37402   9.249   5.561   0.052  0.3154 -0.6212  0.0784
  272MOL0     C37403   9.258   5.495  -0.069  1.0624  0.3311  0.4953
  272MOL0     C37404   9.317   5.373  -0.082 -0.8809  0.0203  0.1399
  272MOL0     C37405   9.371   5.308   0.021 -0.0609 -0.0889  0.0669
  272MOL0     O37406   9.436   5.188   0.005 -0.6806  0.3831 -0.0694
  272MOL0     C37407   9.565   5.188  -0.069 -0.0044 -0.4907 -0.2453
  272MOL0     C37408   9.582   5.059  -0.153  0.5444 -0.6872  0.2111
  272MOL0     C37409   9.472   5.034  -0.253  0.4813  0.4744  0.7183
  272MOL0     C37410   9.439   4.884  -0.260  0.9580 -0.0473 -0.6555
  272MOL0     C37411   9.300   4.865  -0.338 -0.5603 -0.4953 -0.4446
  272MOL0     C37412   9.266   4.715  -0.372 -0.7570 -0.7423  0.2119
  272MOL0     C37413   9.388   4.650  -0.441  0.3448 -0.3603  0.1151
  272MOL0     C37414   9.340   4.522  -0.515 -0.4720 -0.2484  0.1044
  272MOL0     N37415   9.440   4.410  -0.502  0.9727  0.7356 -0.6260
  272MOL0     C37416   9.429   4.294  -0.427  0.5472 -0.0543 -0.4541
  272MOL0     C37417   9.549   4.226  -0.442  0.1780  0.2126 -0.0127
  272MOL0     C37418   9.599   4.092  -0.382  0.1098  0.4381 -0.2963
  272MOL0     C37419   9.500   3.979  -0.408  0.2193 -0.4387  0.1032
  272MOL0     C37420   9.551   3.846  -0.359  0.4817 -1.1802  0.0390
  272MOL0     C37421   9.567   3.848  -0.198 -0.8394  0.5794  1.0070
  272MOL0     O37422   9.532   3.715  -0.158 -0.6379 -0.1589 -0.1535
  272MOL0     C37423   9.572   3.689  -0.028 -0.0045 -0.3316  0.5067
  272MOL0     C37424   9.543   3.556   0.007 -1.0596 -0.0120  0.5997
  272MOL0     C37425   9.560   3.512   0.135 -0.6168 -0.6847 -0.6594
  272MOL0     C37426   9.509   3.376   0.165 -0.0958 -0.0667  0.4490
  272MOL0     C37427   9.636   3.587   0.227  0.3088  0.4589 -0.1304
  272MOL0     C37428   9.693   3.542   0.354 -0.8687  0.2394  1.2690
  272MOL0     O37429   9.716   3.409   0.369 -0.0949  0.4932 -0.1098
  272MOL0     C37430   9.775   3.339   0.467 -0.2002  0.7615  0.1060
  272MOL0     C37431   9.800   3.195   0.446  0.1566 -0.4958 -0.2477
  272MOL0     C37432   9.882   3.123   0.538  0.1804 -0.1026 -0.3919
  272MOL0     C37433   9.938   3.190   0.650  0.1707  0.1569  0.6076
  272MOL0     O37434  10.014   3.124   0.750  0.2964 -0.0208 -0.1027
  272MOL0     C37435  10.021   2.985   0.750  0.3303  0.5821 -0.7181
  272MOL0     C37436  10.088   2.926   0.874  0.8656  0.8531 -0.1622
  272MOL0     C37437   9.988   2.902   0.995  1.0031  0.1959  0.4635
  272MOL0     C37438  10.054   2.813   1.095 -0.6703  1.7418  0.5059
  272MOL0     C37439   9.958   2.798   1.214 -0.2798  0.6308 -0.5071
  272MOL0     C37440   9.859   2.688   1.200 -0.3379  0.2620  0.1481
  272MOL0     C37441   9.759   2.682   1.319  0.7144 -0.5124  0.6661
  272MOL0     C37442   9.670   2.556   1.296  0.3709  0.1743 -0.5347
  272MOL0    Cl37443   9.561   2.576   1.147 -0.2136  0.2704 -0.2941
  272MOL0     C37444   9.894   3.321   0.683 -0.6712  0.0203  0.7534
  272MOL0     C37445   9.819   3.391   0.592  0.4196 -1.3915 -0.5181
  272MOL0     O37446   9.687   3.622   0.448  0.7240  0.7985  0.3220
  272MOL0     C37447   9.661   3.721   0.195 -0.9051 -0.3671  0.5998
  272MOL0     C37448   9.623   3.774   0.068 -1.3561  0.7222 -0.2184
  272MOL0     N37449   9.624   4.298  -0.529 -0.4317 -0.4980 -0.1281
  272MOL0     N37450   9.561   4.408  -0.555 -0.3820 -0.2524  0.5613
  272MOL0     C37451   9.367   5.371   0.143  0.7860  0.4514 -0.3107
  272MOL0     C37452   9.309   5.507   0.167 -0.5587  0.4089  0.7465
  272MOL0     C37453   9.081   5.866   0.162 -0.4970  0.1448  0.8289
  272MOL0     C37454   8.960   5.913   0.129  0.1570 -0.3669 -0.1549
  272MOL0     C37455   8.926   6.049   0.135 -0.1046 -0.3659  0.7847
  272MOL0     C37456   9.018   6.153   0.180 -0.1920  0.7098  0.4385
  272MOL0     O37457   8.976   6.285   0.171  0.4916 -0.4558  0.8943
  272MOL0     C37458   9.032   6.386   0.263  0.3582 -0.0689 -0.4299
  272MOL0     C37459   9.049   6.525   0.197 -0.1709  0.1159  0.6801
  272MOL0     C37460   9.093   6.642   0.289 -0.6076  0.6310  0.7180
  272MOL0     C37461   9.169   6.760   0.217 -0.3032  0.1077  0.0165
  272MOL0     C37462   9.082   6.858   0.150  0.7909  0.8505 -0.7129
  272MOL0     C37463   9.013   6.947   0.101  0.1088  0.6925  0.1626
  272MOL0     C37464   9.149   6.100   0.200  0.3905  0.2373  0.2210
  272MOL0     C37465   9.176   5.959   0.209 -0.5759  0.1651  0.2532
  272MOL0     C37466   9.312   5.923   0.256 -0.2152 -1.4872 -0.4234
  272MOL0     H37467   9.230   5.548  -0.160  0.0113  2.0327  1.7587
  272MOL0     H37468   9.328   5.326  -0.179 -0.2860 -0.6083  0.5031
  272MOL0     H37469   9.635   5.175   0.014  1.6160 -0.0140 -1.4854
  272MOL0     H37470   9.572   5.273  -0.137 -2.9132 -1.5169 -2.0219
  272MOL0     H37471   9.681   5.061  -0.200  1.0018 -4.8524  0.5773
  272MOL0     H37472   9.584   4.976  -0.081  0.6378 -0.8687  0.0008
  272MOL0     H37473   9.388   5.099  -0.229 -0.1301  0.6813 -1.7304
  272MOL0     H37474   9.506   5.076  -0.348 -0.4237 -2.0888 -0.8305
  272MOL0     H37475   9.521   4.830  -0.309 -0.6654  0.9225 -4.8540
  272MOL0     H37476   9.420   4.846  -0.159 -1.8619 -1.6036 -1.6474
  272MOL0     H37477   9.308   4.923  -0.431  4.3792 -1.0994 -0.6678
  272MOL0     H37478   9.221   4.887  -0.266  0.5239 -2.7604  1.5537
  272MOL0     H37479   9.231   4.647  -0.293 -0.2699 -0.5433  0.5985
  272MOL0     H37480   9.183   4.726  -0.442  0.4766  2.7481 -0.8944
  272MOL0     H37481   9.464   4.633  -0.364  1.9324  1.8407 -0.8507
  272MOL0     H37482   9.435   4.713  -0.516  6.1220 -3.7749  0.2800
  272MOL0     H37483   9.241   4.488  -0.483 -0.5480 -0.0709  0.0550
  272MOL0     H37484   9.338   4.542  -0.622 -2.8089 -0.7827 -0.0011
  272MOL0     H37485   9.331   4.272  -0.386  0.7761  1.0624  0.7858
  272MOL0     H37486   9.608   4.107  -0.274 -1.5409  1.6922 -0.2804
  272MOL0     H37487   9.694   4.064  -0.428  1.9768  0.8570  2.9990
  272MOL0     H37488   9.402   4.011  -0.372 -0.0559  2.7573 -2.8982
  272MOL0     H37489   9.486   3.973  -0.516  1.1800  3.0325 -0.3634
  272MOL0     H37490   9.470   3.775  -0.374 -1.8319  1.3706 -0.3455
  272MOL0     H37491   9.645   3.833  -0.413 -0.9995  2.3926 -3.9720
  272MOL0     H37492   9.666   3.877  -0.164  0.6624 -0.4275 -2.1367
  272MOL0     H37493   9.503   3.927  -0.158  1.6508  2.3183  1.7192
  272MOL0     H37494   9.489   3.501  -0.069 -0.6567  4.3308 -3.2815
  272MOL0     H37495   9.477   3.357   0.268 -0.9654 -3.8477 -0.3557
  272MOL0     H37496   9.581   3.296   0.145 -1.3821 -1.8046  2.3977
  272MOL0     H37497   9.417   3.353   0.110  1.0012  0.8927 -1.9220
  272MOL0     H37498   9.767   3.152   0.352 -3.5198  0.3451  0.4803
  272MOL0     H37499   9.903   3.023   0.505  1.0968  0.0366 -0.2539
  272MOL0     H37500   9.919   2.945   0.747  0.3391 -0.1279  3.4983
  272MOL0     H37501  10.075   2.962   0.657  0.6858  1.9468 -0.8695
  272MOL0     H37502  10.124   2.824   0.858 -1.0476 -0.0415  0.9092
  272MOL0     H37503  10.162   2.998   0.912  1.0694  0.6177 -0.1070
  272MOL0     H37504   9.902   2.848   0.955  0.5345  0.5098  1.0364
  272MOL0     H37505   9.938   2.991   1.033 -3.4618 -1.2006 -1.4353
  272MOL0     H37506  10.144   2.869   1.120 -1.5616  2.9176  1.1644
  272MOL0     H37507  10.081   2.715   1.054 -0.4858  1.1495  1.9773
  272MOL0     H37508  10.013   2.781   1.307  1.9483  2.9241 -1.2820
  272MOL0     H37509   9.902   2.892   1.221  0.4749  1.0723 -0.2277
  272MOL0     H37510   9.910   2.594   1.179 -0.0764  1.0375 -3.4275
  272MOL0     H37511   9.797   2.702   1.110  0.4266  4.0942  0.0082
  272MOL0     H37512   9.694   2.769   1.327 -0.4721 -1.4793  2.0611
  272MOL0     H37513   9.816   2.677   1.413 -1.2725  2.9325  2.2521
  272MOL0     H37514   9.598   2.529   1.374  0.7343  1.1699  0.1827
  272MOL0     H37515   9.736   2.470   1.289 -2.3401 -2.0829  0.0379
  272MOL0     H37516   9.929   3.363   0.777 -1.3406 -0.3974  1.1964
  272MOL0     H37517   9.789   3.489   0.627  0.9936 -1.2161 -0.4930
  272MOL0     H37518   9.701   3.791   0.267  0.9459 -1.8338  1.0768
  272MOL0     H37519   9.641   3.880   0.052 -1.3204  0.3005 -3.6410
  272MOL0     H37520   9.416   5.324   0.228  3.4294  1.2393 -1.3016
  272MOL0     H37521   9.315   5.542   0.269  0.0094 -1.1007  1.2519
  272MOL0     H37522   8.885   5.847   0.087 -0.4113  1.1135 -1.5992
  272MOL0     H37523   8.826   6.073   0.100 -1.4062 -0.6459  3.9392
  272MOL0     H37524   8.958   6.396   0.343 -1.9405 -1.5919 -2.2344
  272MOL0     H37525   9.127   6.348   0.302 -0.9231 -4.0226 -0.7529
  272MOL0     H37526   8.954   6.541   0.144  0.5980  0.7692 -0.5662
  272MOL0     H37527   9.119   6.522   0.113 -0.6753 -1.1194  0.2901
  272MOL0     H37528   9.013   6.682   0.352 -1.5975 -0.7298  0.3917
  272MOL0     H37529   9.163   6.604   0.363 -3.1786 -0.0971  2.9423
  272MOL0     H37530   9.247   6.721   0.153 -1.4127  1.0427 -2.0004
  272MOL0     H37531   9.219   6.812   0.299  2.9869  0.5556 -2.1114
  272MOL0     H37532   8.959   7.036   0.075 -1.4158  0.2455  1.6165
  272MOL0     H37533   9.219   6.180   0.217  0.3041  0.0399  1.6347
  272MOL0     H37534   9.337   5.980   0.347 -1.4983 -0.5892 -0.6108
  272MOL0     H37535   9.305   5.822   0.299 -2.6738 -0.0424  3.0936
  272MOL0     H37536   9.392   5.931   0.182 -0.2870 -0.3825 -0.3944
  273MOL0     O37537   1.797  10.845   4.613  0.6490  0.1782  0.1900
  273MOL0     C37538   1.772  10.905   4.508 -0.5850 -0.1620  1.0353
  273MOL0     O37539   1.762  11.045   4.508  1.1452  0.6294 -0.5449
  273MOL0     C37540   1.815  11.109   4.619 -0.1516 -0.8928  0.6712
  273MOL0     C37541   1.731  11.132   4.737 -0.2430  0.2386 -0.3652
  273MOL0     C37542   1.789  11.201   4.851  0.0688 -0.7358 -0.2871
  273MOL0     C37543   1.922  11.243   4.852 -0.6265  0.3366  0.3727
  273MOL0     O37544   1.987  11.301   4.956  0.3795 -0.4369 -0.0985
  273MOL0     C37545   1.913  11.329   5.081  0.0727  0.2873 -0.3122
  273MOL0     C37546   1.995  11.422   5.179  0.4675  0.3010  0.6963
  273MOL0     C37547   2.122  11.362   5.237  0.1271 -0.2544 -0.5645
  273MOL0     C37548   2.110  11.220   5.277  0.5577  0.1447 -0.6810
  273MOL0     C37549   2.233  11.155   5.349  0.5173 -0.0596 -0.1672
  273MOL0     C37550   2.230  10.994   5.347  0.1080  0.4061 -1.2903
  273MOL0     C37551   2.134  10.934   5.458  0.1297 -0.0164 -0.5028
  273MOL0     C37552   2.185  10.965   5.597 -1.0505 -0.3169 -0.2051
  273MOL0     N37553   2.329  10.917   5.610 -0.0511 -0.3805  0.3036
  273MOL0     C37554   2.443  10.992   5.597  0.2567 -0.8713 -0.6401
  273MOL0     C37555   2.546  10.909   5.601  0.0960 -0.0129  0.2263
  273MOL0     C37556   2.692  10.939   5.636  0.0292  0.8412 -0.7484
  273MOL0     C37557   2.713  10.976   5.787 -1.2051 -0.3876  0.1172
  273MOL0     C37558   2.866  10.981   5.816 -0.2487 -0.9535  0.0040
  273MOL0     C37559   2.937  11.098   5.753  1.1749 -0.7056 -0.0462
  273MOL0     O37560   2.979  11.211   5.837  0.2124  0.1053 -0.3604
  273MOL0     C37561   3.117  11.211   5.869  0.0349 -0.2534  0.6154
  273MOL0     C37562   3.201  11.103   5.875  0.9159 -0.1933 -1.0613
  273MOL0     C37563   3.339  11.114   5.885 -0.4762 -0.3021  0.3546
  273MOL0     C37564   3.411  10.977   5.902 -0.3251  0.1629 -0.2739
  273MOL0     C37565   3.404  11.237   5.898  0.1570  0.7815  0.5623
  273MOL0     C37566   3.555  11.251   5.901 -0.2248 -0.4156 -0.1002
  273MOL0     O37567   3.591  11.375   5.890  0.2724  0.5381  0.3770
  273MOL0     C37568   3.720  11.401   5.911 -0.2480  0.2560 -0.5825
  273MOL0     C37569   3.814  11.402   5.803  0.6178  0.8566  0.5961
  273MOL0     C37570   3.948  11.446   5.820  0.2693  0.6695 -0.6594
  273MOL0     C37571   3.985  11.493   5.942  0.2438  0.1576  0.0395
  273MOL0     O37572   4.118  11.536   5.956  0.1260  0.1254  0.2570
  273MOL0     C37573   4.147  11.603   6.086 -0.5526  0.3146  0.3370
  273MOL0     C37574   4.294  11.619   6.098  0.3103 -0.0366  0.5001
  273MOL0     C37575   4.336  11.698   6.223  0.5965  0.4626  1.0795
  273MOL0     C37576   4.354  11.846   6.186  0.3696  0.3356 -0.5165
  273MOL0     C37577   4.362  11.935   6.301 -1.1042  0.2244 -0.6960
  273MOL0     C37578   4.486  11.907   6.383  0.7532  0.3184  0.3227
  273MOL0     C37579   4.493  12.003   6.506  0.2505  0.4087  0.7915
  273MOL0     C37580   4.636  12.020   6.556  1.0928  0.0082 -0.2723
  273MOL0    Cl37581   4.718  11.862   6.581  0.4177 -0.5687  0.1735
  273MOL0     C37582   3.896  11.485   6.049 -0.3247 -0.1984 -1.2137
  273MOL0     C37583   3.764  11.437   6.035 -0.5179  0.1397  0.1629
  273MOL0     O37584   3.633  11.157   5.922 -0.6157 -0.6881 -0.2201
  273MOL0     C37585   3.318  11.350   5.896 -0.4260  0.6441  0.6844
  273MOL0     C37586   3.181  11.334   5.881  0.9074  0.0551  0.0759
  273MOL0     N37587   2.492  10.778   5.600 -0.3766  0.2946 -0.1841
  273MOL0     N37588   2.367  10.784   5.596 -0.0772  0.3828  0.7807
  273MOL0     C37589   1.996  11.235   4.731  0.3012 -0.3797  0.7073
  273MOL0     C37590   1.935  11.172   4.615  0.4719 -0.0388 -0.1185
  273MOL0     C37591   1.752  10.830   4.386  0.4338 -0.0667  0.3075
  273MOL0     C37592   1.676  10.898   4.286 -0.1096 -0.4293  0.4474
  273MOL0     C37593   1.659  10.840   4.156 -0.3061 -0.1226 -0.1042
  273MOL0     C37594   1.723  10.713   4.138  0.4758 -0.6844 -0.1500
  273MOL0     O37595   1.713  10.638   4.024  0.5184 -0.3489 -0.2083
  273MOL0     C37596   1.640  10.677   3.906 -0.2390  0.0714  0.5771
  273MOL0     C37597   1.728  10.654   3.776  0.6503 -0.6609 -0.8927
  273MOL0     C37598   1.869  10.704   3.796 -0.1437 -0.4711  0.3682
  273MOL0     C37599   1.964  10.607   3.854 -0.0445  0.9233  0.0054
  273MOL0     C37600   2.102  10.614   3.808 -0.1483 -0.5801 -0.2930
  273MOL0     C37601   2.217  10.608   3.780 -0.0543  0.2513  1.0097
  273MOL0     C37602   1.791  10.643   4.239 -0.1924 -0.6466  0.2851
  273MOL0     C37603   1.799  10.697   4.363  0.2723  0.0534  0.0250
  273MOL0     C37604   1.866  10.608   4.470  0.3049 -0.5441 -0.2069
  273MOL0     H37605   1.635  11.081   4.742 -0.7217  1.2155  1.1604
  273MOL0     H37606   1.719  11.231   4.928  2.8936  0.2236  2.0860
  273MOL0     H37607   1.874  11.239   5.128  0.0753  1.4275  2.0241
  273MOL0     H37608   1.825  11.384   5.047 -0.3945 -0.9930 -1.2167
  273MOL0     H37609   2.019  11.511   5.120  1.3283  1.7987  3.1404
  273MOL0     H37610   1.918  11.443   5.254 -0.8678 -2.2377  0.1426
  273MOL0     H37611   2.202  11.379   5.164  0.6990  1.4406  0.3904
  273MOL0     H37612   2.149  11.430   5.319 -1.5241 -0.8551  0.5193
  273MOL0     H37613   2.029  11.200   5.348  1.2685  0.8664  0.3543
  273MOL0     H37614   2.088  11.155   5.192 -5.3320 -1.6634  1.6758
  273MOL0     H37615   2.237  11.186   5.454 -0.6090 -3.0693  0.8598
  273MOL0     H37616   2.324  11.198   5.306  1.2140  1.6678  2.7635
  273MOL0     H37617   2.196  10.958   5.249  1.6217 -1.1283 -1.3074
  273MOL0     H37618   2.333  10.956   5.355  0.4481  1.5135 -0.1265
  273MOL0     H37619   2.130  10.828   5.430  0.2393 -0.7740  2.0791
  273MOL0     H37620   2.032  10.970   5.441  0.3240  2.0044  2.0079
  273MOL0     H37621   2.181  11.073   5.608 -1.7588 -0.3947  0.3741
  273MOL0     H37622   2.129  10.919   5.679  0.3420 -1.4169  0.1747
  273MOL0     H37623   2.456  11.098   5.612 -0.1047 -0.9372  0.2662
  273MOL0     H37624   2.734  11.009   5.563  1.6053 -0.6831 -1.3872
  273MOL0     H37625   2.752  10.848   5.629 -0.8340 -0.5536  5.1088
  273MOL0     H37626   2.668  11.069   5.824  1.1835  0.7086  0.5193
  273MOL0     H37627   2.699  10.885   5.846  4.1342 -1.4812  0.2067
  273MOL0     H37628   2.865  10.987   5.925  1.6534 -0.4596  0.0316
  273MOL0     H37629   2.911  10.889   5.776 -1.0940 -1.4569  0.1883
  273MOL0     H37630   3.027  11.057   5.707  2.1563 -1.2415  2.2017
  273MOL0     H37631   2.871  11.151   5.685 -0.2364 -0.1396  1.6910
  273MOL0     H37632   3.154  11.005   5.871  1.7238 -0.7340  1.1220
  273MOL0     H37633   3.448  10.966   6.004 -0.3989  3.2155  0.1833
  273MOL0     H37634   3.495  10.978   5.831  2.6598 -0.6308  2.9912
  273MOL0     H37635   3.339  10.896   5.891  0.2994 -0.6358  1.2891
  273MOL0     H37636   3.789  11.372   5.701  1.2798  1.5280  0.2262
  273MOL0     H37637   4.014  11.430   5.735 -0.8931 -0.8456 -1.3233
  273MOL0     H37638   4.110  11.706   6.082 -0.0342  0.4742 -0.5663
  273MOL0     H37639   4.114  11.548   6.175 -2.2478  1.6456  0.5971
  273MOL0     H37640   4.339  11.520   6.109 -1.0889 -0.7863 -0.2936
  273MOL0     H37641   4.325  11.669   6.006 -1.3975  0.9996  0.4405
  273MOL0     H37642   4.431  11.660   6.263  1.7668  0.4950 -1.4767
  273MOL0     H37643   4.268  11.694   6.309 -0.2652 -0.2416  0.3777
  273MOL0     H37644   4.273  11.870   6.116  1.3163 -3.3771 -3.1815
  273MOL0     H37645   4.436  11.867   6.118  0.7267  1.4509  0.2335
  273MOL0     H37646   4.372  12.036   6.260 -2.4563  1.6381  2.1996
  273MOL0     H37647   4.279  11.944   6.371  1.8751  0.1494  3.1437
  273MOL0     H37648   4.577  11.917   6.323  1.3863 -1.4490  0.9451
  273MOL0     H37649   4.482  11.807   6.425  1.2019  0.1719  0.0225
  273MOL0     H37650   4.431  11.958   6.583  0.2132 -1.1411 -0.1150
  273MOL0     H37651   4.446  12.094   6.466 -1.0869 -0.0298  1.3206
  273MOL0     H37652   4.638  12.089   6.641 -1.3597  4.0099 -3.1252
  273MOL0     H37653   4.684  12.062   6.467  1.5675  1.1777  0.5156
  273MOL0     H37654   3.912  11.526   6.149 -4.7290  2.0903 -1.2117
  273MOL0     H37655   3.697  11.427   6.120 -1.1343 -0.8081 -0.4276
  273MOL0     H37656   3.364  11.448   5.900  0.5975  0.2473 -0.6305
  273MOL0     H37657   3.107  11.413   5.873 -1.5966 -2.3232 -2.4396
  273MOL0     H37658   2.104  11.251   4.734  0.7065 -2.6508  0.3837
  273MOL0     H37659   2.002  11.162   4.530  3.7904  1.9062  2.0103
  273MOL0     H37660   1.638  10.994   4.316  1.3432 -0.5694  3.0464
  273MOL0     H37661   1.600  10.903   4.090 -1.5504  1.3093  2.2508
  273MOL0     H37662   1.547  10.620   3.891 -1.7720  1.8983  2.4514
  273MOL0     H37663   1.596  10.777   3.906 -0.2826  0.2890 -4.2907
  273MOL0     H37664   1.677  10.713   3.698  0.3326 -1.5099 -1.3461
  273MOL0     H37665   1.715  10.552   3.737 -1.1831 -1.3325  1.2821
  273MOL0     H37666   1.902  10.733   3.696  0.7872  0.0491  0.8172
  273MOL0     H37667   1.872  10.791   3.864 -0.7325 -1.6695  1.9998
  273MOL0     H37668   1.930  10.505   3.837 -0.1369  0.6978  1.3839
  273MOL0     H37669   1.981  10.618   3.962  2.5707  1.4640 -0.3897
  273MOL0     H37670   2.323  10.597   3.769 -0.0440  0.5105  0.8539
  273MOL0     H37671   1.841  10.552   4.210  0.0699 -0.5619  0.4588
  273MOL0     H37672   1.898  10.515   4.420 -2.0900 -0.6197 -1.7240
  273MOL0     H37673   1.948  10.668   4.511  0.0304  0.2500 -0.8114
  273MOL0     H37674   1.804  10.574   4.554  0.6696  1.3039  0.8582
  274MOL0     O37675   2.181   2.522   9.215  0.1764  0.6869 -0.3681
  274MOL0     C37676   2.128   2.419   9.182  0.4126  0.7106  0.0835
  274MOL0     O37677   2.031   2.355   9.248 -0.4492 -0.0760 -0.3086
  274MOL0     C37678   1.984   2.416   9.361 -0.1028 -0.7617 -0.3191
  274MOL0     C37679   1.851   2.465   9.356  0.0713  0.8706  0.3743
  274MOL0     C37680   1.795   2.513   9.476 -0.0246 -0.3487 -0.2458
  274MOL0     C37681   1.887   2.535   9.580 -0.1021  1.0554  0.1842
  274MOL0     O37682   1.863   2.589   9.706  0.9346 -0.2539 -0.6817
  274MOL0     C37683   1.721   2.604   9.752 -1.1225 -0.1389  0.6335
  274MOL0     C37684   1.646   2.477   9.782 -0.4086 -0.5524 -0.2728
  274MOL0     C37685   1.523   2.506   9.886  0.1345  0.3229  0.1682
  274MOL0     C37686   1.587   2.495  10.022  0.2516  0.7256  0.0783
  274MOL0     C37687   1.481   2.536  10.134 -0.2550  0.6956  0.0493
  274MOL0     C37688   1.531   2.492  10.272  0.8125  0.4713 -0.3369
  274MOL0     C37689   1.431   2.525  10.385 -0.3059  0.6139 -0.2475
  274MOL0     C37690   1.489   2.504  10.527 -0.1456 -0.6732  0.0379
  274MOL0     N37691   1.562   2.617  10.577 -0.2206  0.5781  0.2710
  274MOL0     C37692   1.642   2.715  10.506 -0.4399  0.6819 -1.4131
  274MOL0     C37693   1.662   2.816  10.608 -0.8892  0.8095  0.0775
  274MOL0     C37694   1.755   2.928  10.614 -0.0948  0.0572 -0.4331
  274MOL0     C37695   1.699   3.062  10.652  1.6277 -0.9465 -1.5612
  274MOL0     C37696   1.687   3.097  10.802 -0.0397 -0.2787 -0.1706
  274MOL0     C37697   1.807   3.072  10.894  0.0777  0.3536 -0.7174
  274MOL0     O37698   1.935   3.103  10.830 -0.5558  0.0083  0.0310
  274MOL0     C37699   1.962   3.230  10.806 -1.1880  0.4239 -0.3255
  274MOL0     C37700   1.902   3.340  10.875  0.6472  0.2230 -0.0720
  274MOL0     C37701   1.937   3.475  10.847  0.1137  1.5886  0.3528
  274MOL0     C37702   1.878   3.584  10.934 -0.0540  0.2512  0.2260
  274MOL0     C37703   2.026   3.503  10.744  0.2981  1.0181 -0.3143
  274MOL0     C37704   2.057   3.640  10.687  0.0241  0.3771 -0.1309
  274MOL0     O37705   2.117   3.638  10.556 -0.7652  0.0333  0.1203
  274MOL0     C37706   2.214   3.741  10.535 -0.9583 -0.4041 -0.4100
  274MOL0     C37707   2.246   3.765  10.400 -0.6545  0.4064 -0.1377
  274MOL0     C37708   2.345   3.851  10.365 -1.3237  0.3544  0.0401
  274MOL0     C37709   2.423   3.924  10.456  0.1409  0.0316 -1.0630
  274MOL0     O37710   2.500   4.022  10.408 -0.1746  0.7759 -0.2290
  274MOL0     C37711   2.603   4.084  10.487  0.3727  0.2984 -0.2885
  274MOL0     C37712   2.685   4.186  10.410  0.6278  0.2980  1.0955
  274MOL0     C37713   2.789   4.262  10.496  0.7228 -0.5140  0.0805
  274MOL0     C37714   2.915   4.188  10.544 -0.3325 -0.9384  0.0172
  274MOL0     C37715   3.008   4.137  10.444  0.2201 -0.5772  0.5756
  274MOL0     C37716   3.108   4.028  10.490  0.0227 -0.0822 -0.3394
  274MOL0     C37717   3.034   3.909  10.545 -0.3190 -0.2735  0.0881
  274MOL0     C37718   3.125   3.782  10.553  0.0270 -0.3132 -0.1803
  274MOL0    Cl37719   3.273   3.815  10.635  0.1525 -0.5073  0.0406
  274MOL0     C37720   2.396   3.909  10.591 -0.0859  1.0388  0.4975
  274MOL0     C37721   2.289   3.821  10.630 -0.8209 -0.5780 -0.1135
  274MOL0     O37722   2.025   3.738  10.750 -0.0637 -0.1917  0.2700
  274MOL0     C37723   2.096   3.386  10.689 -0.0748  0.4013 -0.6735
  274MOL0     C37724   2.069   3.253  10.727  0.0809  0.5527  0.2176
  274MOL0     N37725   1.592   2.777  10.725 -0.1184  0.1033  0.3546
  274MOL0     N37726   1.538   2.663  10.709 -0.3864  0.3633  0.4479
  274MOL0     C37727   2.018   2.494   9.577 -0.5481  0.5517 -0.6128
  274MOL0     C37728   2.071   2.423   9.472 -0.2717  0.1188 -0.9722
  274MOL0     C37729   2.165   2.343   9.057 -0.3941 -0.2956 -0.5235
  274MOL0     C37730   2.087   2.236   9.012  0.1144 -0.2366  1.0756
  274MOL0     C37731   2.123   2.153   8.896  0.8149  0.5205 -0.8426
  274MOL0     C37732   2.246   2.177   8.829 -0.3172 -0.9235  1.0739
  274MOL0     O37733   2.289   2.097   8.726  0.9005  0.0316  0.3894
  274MOL0     C37734   2.269   2.153   8.594  0.9833  0.0302  0.4369
  274MOL0     C37735   2.126   2.141   8.550  0.5816  0.2804  0.5337
  274MOL0     C37736   2.102   2.182   8.399 -0.3481 -0.2605  0.1462
  274MOL0     C37737   2.161   2.085   8.299  0.1102 -0.7687  0.9800
  274MOL0     C37738   2.119   2.111   8.157 -0.6171  0.1511  0.3793
  274MOL0     C37739   2.092   2.102   8.032  0.1639 -0.0565 -0.5050
  274MOL0     C37740   2.330   2.275   8.880  0.3336  0.0746 -0.4834
  274MOL0     C37741   2.285   2.357   8.989 -0.1474 -0.9298  1.3036
  274MOL0     C37742   2.386   2.469   9.017 -0.9693  0.1241  0.0704
  274MOL0     H37743   1.790   2.469   9.267 -1.5731  1.3515  1.4618
  274MOL0     H37744   1.704   2.572   9.471 -0.6492 -1.2859 -0.2217
  274MOL0     H37745   1.668   2.663   9.676  1.1398 -0.1644 -1.0768
  274MOL0     H37746   1.724   2.659   9.846  2.2484 -0.9667  1.1456
  274MOL0     H37747   1.613   2.426   9.691  0.2176  0.0075 -0.8151
  274MOL0     H37748   1.715   2.410   9.834  1.4608 -0.0705 -2.0063
  274MOL0     H37749   1.481   2.605   9.866 -0.4475  0.3099  1.2731
  274MOL0     H37750   1.448   2.426   9.888 -0.3855  0.6935  4.5076
  274MOL0     H37751   1.634   2.397  10.032 -2.0068 -0.3521  0.6608
  274MOL0     H37752   1.665   2.572  10.027  4.3638 -2.8596 -2.4747
  274MOL0     H37753   1.397   2.473  10.103 -1.0630 -0.0725  3.4383
  274MOL0     H37754   1.453   2.641  10.118  0.4048  1.0440  1.0949
  274MOL0     H37755   1.556   2.385  10.274  2.5232  0.8309  1.7516
  274MOL0     H37756   1.629   2.541  10.281  2.0336 -1.6511 -1.3045
  274MOL0     H37757   1.352   2.452  10.369 -1.4444  1.9010 -0.7372
  274MOL0     H37758   1.375   2.619  10.376 -3.0024 -0.9569 -1.2011
  274MOL0     H37759   1.397   2.485  10.584 -0.8138 -3.8565 -1.8576
  274MOL0     H37760   1.560   2.421  10.530  0.2909 -0.2847  1.0072
  274MOL0     H37761   1.685   2.712  10.406 -1.5317  2.6504 -1.9973
  274MOL0     H37762   1.797   2.929  10.513 -1.8328 -1.7054 -1.2370
  274MOL0     H37763   1.830   2.904  10.690  0.6061  0.0474 -1.1165
  274MOL0     H37764   1.770   3.139  10.620 -0.4973  1.7414 -0.1934
  274MOL0     H37765   1.608   3.072  10.592  0.5704  2.3242  0.3390
  274MOL0     H37766   1.676   3.205  10.816  2.8591 -0.1768  2.2637
  274MOL0     H37767   1.597   3.046  10.839  0.1787 -0.6371 -0.1312
  274MOL0     H37768   1.808   3.104  10.998  2.3253 -1.9051  0.0533
  274MOL0     H37769   1.813   2.963  10.900  2.3994  0.5415  1.9647
  274MOL0     H37770   1.816   3.332  10.941 -1.6983  1.0206 -2.8036
  274MOL0     H37771   1.808   3.647  10.878 -0.8958 -0.4407  0.4846
  274MOL0     H37772   1.948   3.658  10.974  1.2326 -0.2848 -0.9571
  274MOL0     H37773   1.818   3.540  11.014 -1.3741  1.4804 -0.0369
  274MOL0     H37774   2.194   3.716  10.318  0.6776 -0.2349 -0.6282
  274MOL0     H37775   2.368   3.877  10.262 -0.0858  2.0113  0.7003
  274MOL0     H37776   2.546   4.138  10.563  0.4281  0.6643 -0.5021
  274MOL0     H37777   2.671   4.014  10.536 -1.4539 -0.3829  1.3802
  274MOL0     H37778   2.737   4.143  10.325 -1.7625  1.3190 -1.0250
  274MOL0     H37779   2.610   4.250  10.363  1.1467 -0.3494 -0.6952
  274MOL0     H37780   2.740   4.300  10.586  1.0357 -1.6279  0.7264
  274MOL0     H37781   2.817   4.346  10.431 -1.0714 -0.1112 -0.2192
  274MOL0     H37782   2.887   4.106  10.611 -3.6764 -0.7531 -0.9946
  274MOL0     H37783   2.963   4.263  10.608 -3.0742  0.8675  0.1219
  274MOL0     H37784   2.950   4.090  10.364  0.4013  0.2686 -0.0746
  274MOL0     H37785   3.070   4.216  10.400  1.6073 -2.0825 -0.2821
  274MOL0     H37786   3.170   4.083  10.562 -3.3159  2.1110  1.0966
  274MOL0     H37787   3.167   3.997  10.403 -1.6851  1.6473 -2.2191
  274MOL0     H37788   2.947   3.899  10.480 -0.6386  1.2588  0.2283
  274MOL0     H37789   3.007   3.945  10.645  1.4918  3.4432 -0.5841
  274MOL0     H37790   3.158   3.745  10.456 -1.3896 -0.4127 -0.6552
  274MOL0     H37791   3.066   3.702  10.599 -1.1409  1.0116  0.7150
  274MOL0     H37792   2.445   3.955  10.677  2.5188 -0.8156  0.1405
  274MOL0     H37793   2.273   3.805  10.736 -2.3425  1.6196  0.0607
  274MOL0     H37794   2.170   3.403  10.612 -0.5472  1.8435 -0.8507
  274MOL0     H37795   2.118   3.167  10.683  0.6047  1.4731 -1.0906
  274MOL0     H37796   2.081   2.517   9.662 -2.6824  1.6477  0.7403
  274MOL0     H37797   2.172   2.385   9.470 -1.1930 -2.5316 -1.0951
  274MOL0     H37798   1.994   2.208   9.060 -1.5058 -0.1238 -1.8081
  274MOL0     H37799   2.045   2.088   8.858 -0.0372  0.2812  1.1765
  274MOL0     H37800   2.301   2.258   8.597  0.0469  0.2976  2.5450
  274MOL0     H37801   2.334   2.095   8.528 -1.6780 -0.4429 -1.9263
  274MOL0     H37802   2.063   2.205   8.613  0.4839  2.0230 -1.2375
  274MOL0     H37803   2.093   2.038   8.565  0.4957  0.1031 -0.7792
  274MOL0     H37804   1.995   2.190   8.375 -0.0875  1.2956 -0.5830
  274MOL0     H37805   2.142   2.283   8.393 -0.1430 -0.1621  2.4691
  274MOL0     H37806   2.115   1.987   8.309  4.2485 -3.0878 -0.3791
  274MOL0     H37807   2.269   2.078   8.316  0.1277 -0.0159  1.2375
  274MOL0     H37808   2.074   2.102   7.926 -0.1983 -2.9537 -0.5240
  274MOL0     H37809   2.433   2.274   8.844 -0.3651 -2.0864 -2.6872
  274MOL0     H37810   2.356   2.572   8.993  1.9732  1.0427 -0.1505
  274MOL0     H37811   2.428   2.459   9.117 -0.9810  0.9101  0.1602
  274MOL0     H37812   2.471   2.455   8.950  1.5886 -1.4663  3.3579
  275MOL0     O37813   6.898   1.259   0.474 -0.2057  0.7821 -0.4247
  275MOL0     C37814   6.789   1.292   0.431  0.5017  0.2815  0.1997
  275MOL0     O37815   6.768   1.367   0.318 -0.3783  0.4386  0.0761
  275MOL0     C37816   6.862   1.369   0.218  0.1961 -0.0016  0.1209
  275MOL0     C37817   6.952   1.258   0.192  0.0075 -0.7585 -0.0120
  275MOL0     C37818   7.042   1.265   0.088  0.1053 -0.4942  0.7903
  275MOL0     C37819   7.055   1.372  -0.005  0.7462  0.1753  0.1779
  275MOL0     O37820   7.160   1.393  -0.088  0.3460  0.1759  0.8365
  275MOL0     C37821   7.259   1.291  -0.104  0.0924  0.2668 -0.3194
  275MOL0     C37822   7.363   1.318  -0.221  0.8648 -0.5021 -0.1143
  275MOL0     C37823   7.495   1.254  -0.199 -0.1879  0.2939 -0.6053
  275MOL0     C37824   7.556   1.208  -0.336  0.2734  0.6560  0.1194
  275MOL0     C37825   7.700   1.256  -0.373 -0.3710 -0.1671 -0.1598
  275MOL0     C37826   7.756   1.187  -0.505  0.0246  0.4204 -0.1685
  275MOL0     C37827   7.905   1.202  -0.508 -0.1493 -0.4213 -0.3406
  275MOL0     C37828   7.970   1.092  -0.583 -0.2417 -0.4760 -0.1178
  275MOL0     N37829   8.119   1.099  -0.569 -0.1039 -0.2091 -0.5151
  275MOL0     C37830   8.211   1.067  -0.670 -0.6467 -0.7690  0.0960
  275MOL0     C37831   8.330   1.057  -0.606  0.0835 -0.2719 -0.2856
  275MOL0     C37832   8.456   1.013  -0.674 -0.8032  0.1227 -0.1926
  275MOL0     C37833   8.463   0.860  -0.680  0.6480  0.6004  0.0999
  275MOL0     C37834   8.447   0.777  -0.554  0.4022  0.6675 -0.4184
  275MOL0     C37835   8.559   0.802  -0.463 -0.4296 -0.4478  0.0707
  275MOL0     O37836   8.568   0.719  -0.345  0.6803 -0.5979  0.1176
  275MOL0     C37837   8.508   0.752  -0.224  0.2730  0.2227  0.1852
  275MOL0     C37838   8.528   0.669  -0.119  0.6214  0.4633 -1.3406
  275MOL0     C37839   8.464   0.683   0.005 -0.8527 -0.4827  0.1299
  275MOL0     C37840   8.490   0.576   0.104  0.0559  0.6828 -0.9466
  275MOL0     C37841   8.399   0.806   0.034 -0.1955  0.3384  0.6221
  275MOL0     C37842   8.344   0.844   0.168 -0.2774 -0.5824  0.4167
  275MOL0     O37843   8.260   0.951   0.171  0.2018 -0.7550  0.2870
  275MOL0     C37844   8.204   1.003   0.283 -0.0973  0.4320 -0.8147
  275MOL0     C37845   8.254   0.995   0.411 -0.2739 -0.5788 -0.2423
  275MOL0     C37846   8.185   1.039   0.525  0.9481 -0.1437 -0.0679
  275MOL0     C37847   8.056   1.097   0.515 -0.1957  0.1483  0.3398
  275MOL0     O37848   8.007   1.157   0.632  0.1255 -0.2303  1.4798
  275MOL0     C37849   7.876   1.207   0.634 -0.1174  0.1728  1.0369
  275MOL0     C37850   7.843   1.295   0.760  0.7447 -0.6981 -0.3951
  275MOL0     C37851   7.703   1.341   0.730 -0.2395 -0.4401  0.5315
  275MOL0     C37852   7.611   1.374   0.843  0.1519 -0.0267 -0.4587
  275MOL0     C37853   7.660   1.481   0.941 -0.3130 -0.4069  0.7511
  275MOL0     C37854   7.607   1.438   1.079 -0.1255  0.9867 -0.3967
  275MOL0     C37855   7.682   1.313   1.138  0.0418  0.9804 -0.0020
  275MOL0     C37856   7.674   1.313   1.286 -0.7302 -0.7130  0.2174
  275MOL0    Cl37857   7.758   1.173   1.341  0.1559  0.4767 -0.3280
  275MOL0     C37858   8.008   1.122   0.386 -0.2688 -0.1815 -0.5263
  275MOL0     C37859   8.075   1.063   0.272 -0.0914  0.8462 -0.2171
  275MOL0     O37860   8.372   0.781   0.266 -0.1126 -0.0310 -0.2812
  275MOL0     C37861   8.371   0.888  -0.076 -0.2441 -0.0835 -0.0267
  275MOL0     C37862   8.425   0.864  -0.206 -0.3440 -1.0733  0.5744
  275MOL0     N37863   8.308   1.078  -0.469  0.1037  0.8341  0.1964
  275MOL0     N37864   8.181   1.105  -0.452 -0.0167 -0.5522 -0.6425
  275MOL0     C37865   6.959   1.471   0.019  0.0601 -0.2867 -0.8832
  275MOL0     C37866   6.863   1.477   0.121 -0.4187  1.1667 -0.2410
  275MOL0     C37867   6.662   1.249   0.500  0.5004  0.4752  0.1503
  275MOL0     C37868   6.541   1.294   0.442  0.5044  0.1381  1.0822
  275MOL0     C37869   6.414   1.255   0.490 -0.2593 -0.2886 -0.0909
  275MOL0     C37870   6.398   1.174   0.605  0.0927  0.6127  0.1477
  275MOL0     O37871   6.278   1.156   0.670 -0.1599  0.4087  0.3888
  275MOL0     C37872   6.260   1.053   0.768 -0.1349 -0.6366 -0.9801
  275MOL0     C37873   6.246   1.118   0.909  0.3645  0.3710 -0.0462
  275MOL0     C37874   6.095   1.147   0.942 -0.2854  0.0747  0.3997
  275MOL0     C37875   6.070   1.169   1.098 -0.3383 -0.3061 -0.7546
  275MOL0     C37876   6.156   1.274   1.141  0.6536 -0.7561  0.7332
  275MOL0     C37877   6.228   1.373   1.165 -0.4739  0.4352  0.4251
  275MOL0     C37878   6.518   1.135   0.668 -0.4725  0.1304 -0.5052
  275MOL0     C37879   6.650   1.172   0.621 -0.5065  0.7650 -0.3145
  275MOL0     C37880   6.763   1.118   0.708  0.0405  0.4972  0.1599
  275MOL0     H37881   6.959   1.166   0.249  0.3381 -1.6973 -1.5100
  275MOL0     H37882   7.116   1.187   0.075 -0.7939 -1.5391  1.7735
  275MOL0     H37883   7.204   1.202  -0.136  3.1616 -1.2630 -1.7700
  275MOL0     H37884   7.313   1.266  -0.012 -0.2985  0.4497 -0.0384
  275MOL0     H37885   7.321   1.272  -0.311 -1.4813  1.0376  0.0972
  275MOL0     H37886   7.375   1.425  -0.242  0.9671 -0.3813  0.5565
  275MOL0     H37887   7.568   1.325  -0.159 -0.0204 -0.4418  0.4257
  275MOL0     H37888   7.478   1.178  -0.123 -0.6852  2.0643  1.1419
  275MOL0     H37889   7.546   1.099  -0.330 -0.8168  0.6843 -0.7854
  275MOL0     H37890   7.489   1.229  -0.420  0.2208  0.2879  0.0670
  275MOL0     H37891   7.767   1.218  -0.296  2.2522 -0.1422 -2.2934
  275MOL0     H37892   7.713   1.365  -0.375 -1.4636  0.3363  5.1043
  275MOL0     H37893   7.737   1.079  -0.499  0.6243  0.3192  0.0138
  275MOL0     H37894   7.723   1.239  -0.596 -3.5769 -0.3437  0.5552
  275MOL0     H37895   7.953   1.202  -0.410 -0.8575 -2.5512  0.0622
  275MOL0     H37896   7.931   1.298  -0.553 -0.1229 -0.9225 -1.4046
  275MOL0     H37897   7.940   0.990  -0.557  0.1635 -0.7340 -0.6572
  275MOL0     H37898   7.960   1.111  -0.690 -0.4991 -0.5795 -0.1118
  275MOL0     H37899   8.189   1.040  -0.773  1.0423 -0.2953 -0.4297
  275MOL0     H37900   8.536   1.035  -0.602 -2.0980 -3.0078  2.4418
  275MOL0     H37901   8.464   1.055  -0.774 -0.8459 -1.1463 -0.7499
  275MOL0     H37902   8.395   0.806  -0.747  1.2219  0.5295 -0.4412
  275MOL0     H37903   8.559   0.837  -0.727  1.0944  0.4300  1.0722
  275MOL0     H37904   8.356   0.808  -0.501 -0.8356  0.3290 -2.2428
  275MOL0     H37905   8.441   0.670  -0.575  1.2178  0.7988 -1.3958
  275MOL0     H37906   8.654   0.794  -0.517  0.1392 -0.1654  1.0075
  275MOL0     H37907   8.560   0.905  -0.425  1.5751 -0.6989  0.8133
  275MOL0     H37908   8.596   0.586  -0.130  1.1450  0.8588 -1.1052
  275MOL0     H37909   8.513   0.476   0.065  0.8987  0.5672 -0.1987
  275MOL0     H37910   8.421   0.574   0.188 -0.1232  2.1086 -1.0355
  275MOL0     H37911   8.591   0.608   0.131 -0.7676  2.2780  0.3540
  275MOL0     H37912   8.347   0.944   0.431 -0.4432 -0.8010 -0.0183
  275MOL0     H37913   8.228   1.027   0.624 -0.7522 -4.5889  0.3700
  275MOL0     H37914   7.890   1.274   0.549 -1.5822  1.5330  1.8126
  275MOL0     H37915   7.799   1.133   0.615  1.0757 -0.1664 -3.7089
  275MOL0     H37916   7.834   1.228   0.846 -1.2143 -3.0306 -2.2730
  275MOL0     H37917   7.912   1.380   0.765  1.1555 -1.0550  0.2300
  275MOL0     H37918   7.650   1.265   0.671 -1.1816  0.0820  0.6915
  275MOL0     H37919   7.721   1.432   0.673  2.5042 -1.6009 -0.6143
  275MOL0     H37920   7.590   1.276   0.887 -1.2184  0.5832  0.2926
  275MOL0     H37921   7.511   1.404   0.807  0.0192 -0.2748 -0.2967
  275MOL0     H37922   7.769   1.495   0.940 -0.2767 -0.6970  0.5521
  275MOL0     H37923   7.609   1.573   0.910 -1.9531 -1.1461  1.1819
  275MOL0     H37924   7.500   1.417   1.063 -0.6391  2.4921  0.7874
  275MOL0     H37925   7.615   1.507   1.163  1.8415 -1.6410  1.7396
  275MOL0     H37926   7.787   1.324   1.107 -0.0402  0.9372 -0.2978
  275MOL0     H37927   7.635   1.221   1.103  0.2579  2.0881 -3.6428
  275MOL0     H37928   7.568   1.308   1.314 -1.9844 -0.4140 -3.9096
  275MOL0     H37929   7.719   1.405   1.324  0.7754 -1.4164  0.2256
  275MOL0     H37930   7.920   1.185   0.373  1.4735  2.7375  0.8135
  275MOL0     H37931   8.029   1.094   0.178  0.3054  1.6264 -0.1635
  275MOL0     H37932   8.298   0.968  -0.068 -2.4935 -2.2267  4.2035
  275MOL0     H37933   8.391   0.937  -0.279 -0.4505 -1.7882 -0.1074
  275MOL0     H37934   6.962   1.538  -0.066 -3.0270 -2.7920 -3.2230
  275MOL0     H37935   6.815   1.572   0.140  0.3289  1.4456  0.3087
  275MOL0     H37936   6.541   1.350   0.348 -2.5894 -1.5780 -0.0835
  275MOL0     H37937   6.330   1.293   0.433  1.1948  1.4290 -1.1956
  275MOL0     H37938   6.177   0.994   0.729  0.0772 -0.4279 -1.7651
  275MOL0     H37939   6.339   0.978   0.778  0.0511 -0.0820  3.8123
  275MOL0     H37940   6.297   1.215   0.908 -0.7326  0.9722 -1.8171
  275MOL0     H37941   6.294   1.054   0.983  2.5658  0.0560 -1.6280
  275MOL0     H37942   6.073   1.242   0.892  5.0262 -0.0668 -3.0025
  275MOL0     H37943   6.028   1.063   0.926  3.2036 -2.8599 -0.1874
  275MOL0     H37944   6.097   1.085   1.163 -3.8331 -0.9802  0.0544
  275MOL0     H37945   5.965   1.186   1.126 -0.2176 -2.1071  1.0522
  275MOL0     H37946   6.290   1.460   1.178  1.0448 -0.4607 -0.4508
  275MOL0     H37947   6.522   1.083   0.763  4.1462 -1.1721 -1.1723
  275MOL0     H37948   6.862   1.154   0.680  0.7098 -1.7269 -0.5547
  275MOL0     H37949   6.744   1.135   0.815  0.4725 -1.0079  0.5091
  275MOL0     H37950   6.761   1.010   0.688 -0.3915  0.4377  0.5021
  276MOL0     O37951   1.310   4.452   1.468  0.5708  0.3354 -0.2015
  276MOL0     C37952   1.427   4.462   1.438 -0.1022  0.4676 -0.2383
  276MOL0     O37953   1.478   4.480   1.313 -0.0314  0.5322 -0.5441
  276MOL0     C37954   1.392   4.491   1.198 -0.3570 -0.0272 -0.2562
  276MOL0     C37955   1.391   4.386   1.109  0.5909 -0.8080 -0.5767
  276MOL0     C37956   1.288   4.389   1.012  0.1527 -1.7457 -0.3443
  276MOL0     C37957   1.198   4.502   1.001  0.2290 -0.6821 -0.0822
  276MOL0     O37958   1.095   4.521   0.914  0.3529  0.5395 -0.0929
  276MOL0     C37959   1.042   4.402   0.844 -0.6189  0.0707 -0.5114
  276MOL0     C37960   0.936   4.449   0.744  0.3617  0.2005  0.9124
  276MOL0     C37961   0.851   4.332   0.682 -0.1437 -0.1734  0.1274
  276MOL0     C37962   0.933   4.252   0.579  0.7447 -0.1864 -0.1471
  276MOL0     C37963   0.867   4.118   0.538 -0.0272 -0.0333 -0.4583
  276MOL0     C37964   0.883   4.101   0.385  0.0142 -0.1897 -0.2601
  276MOL0     C37965   0.786   3.992   0.316 -0.4915 -0.5084  0.0686
  276MOL0     C37966   0.850   3.857   0.342 -1.0002  0.1327  0.2263
  276MOL0     N37967   0.767   3.751   0.282  0.9039  0.6627  0.3636
  276MOL0     C37968   0.790   3.686   0.164 -0.0764  0.3240  0.3961
  276MOL0     C37969   0.709   3.578   0.157  1.2498 -1.2916  1.0022
  276MOL0     C37970   0.690   3.468   0.052  0.3404  0.1930 -0.4197
  276MOL0     C37971   0.763   3.478  -0.084  0.3942  0.1017  0.1458
  276MOL0     C37972   0.770   3.342  -0.172 -0.1666  1.1618  0.8647
  276MOL0     C37973   0.648   3.312  -0.265 -0.7257 -0.2362 -0.0493
  276MOL0     O37974   0.699   3.285  -0.386 -0.3315 -0.2340 -0.1194
  276MOL0     C37975   0.622   3.292  -0.503  0.0992 -0.0052 -0.4148
  276MOL0     C37976   0.493   3.321  -0.504  0.8549 -0.1398 -0.2336
  276MOL0     C37977   0.429   3.365  -0.627  0.4785  0.0539  0.3285
  276MOL0     C37978   0.282   3.393  -0.612 -0.1862 -0.1383 -0.3004
  276MOL0     C37979   0.494   3.359  -0.750 -0.4474 -0.0338  0.3325
  276MOL0     C37980   0.454   3.397  -0.887  0.1182 -0.7537 -0.2157
  276MOL0     O37981   0.323   3.449  -0.898 -0.7701  0.6684 -0.2124
  276MOL0     C37982   0.303   3.578  -0.943 -0.5408 -0.8263  0.7141
  276MOL0     C37983   0.395   3.637  -1.029  0.4687 -0.1319  0.0629
  276MOL0     C37984   0.377   3.773  -1.068 -0.2919 -0.3427 -0.1409
  276MOL0     C37985   0.258   3.836  -1.019  0.1027  0.1609  0.0043
  276MOL0     O37986   0.237   3.960  -1.060 -0.6392  0.3999 -1.2203
  276MOL0     C37987   0.316   4.060  -0.997  0.0224 -1.2735 -0.2386
  276MOL0     C37988   0.267   4.104  -0.848 -0.5591 -0.4231  0.4144
  276MOL0     C37989   0.324   4.246  -0.811 -0.0094 -0.0475  0.6957
  276MOL0     C37990   0.274   4.288  -0.681 -0.2722  0.0752 -0.4114
  276MOL0     C37991   0.302   4.435  -0.654 -0.0573  0.0571  0.5914
  276MOL0     C37992   0.288   4.481  -0.500  0.2396 -0.2360  0.6530
  276MOL0     C37993   0.348   4.624  -0.491  0.5774 -0.3802  0.2111
  276MOL0     C37994   0.282   4.692  -0.367 -0.3630  0.0748  0.5176
  276MOL0    Cl37995   0.254   4.583  -0.239 -0.2894 -0.0964  0.2622
  276MOL0     C37996   0.168   3.762  -0.944  0.4263  0.4053 -0.1555
  276MOL0     C37997   0.193   3.642  -0.905 -0.2111  0.3043 -0.1572
  276MOL0     O37998   0.525   3.366  -0.986  0.2484 -0.8191  0.5222
  276MOL0     C37999   0.627   3.312  -0.739 -0.2099  0.8340  0.4181
  276MOL0     C38000   0.691   3.286  -0.621  0.2389 -0.1771 -0.2611
  276MOL0     N38001   0.645   3.567   0.283 -1.3797  0.1303  1.2919
  276MOL0     N38002   0.680   3.677   0.349  0.5861 -0.4109  0.6930
  276MOL0     C38003   1.209   4.611   1.086 -0.4442  0.4204 -0.8910
  276MOL0     C38004   1.303   4.605   1.185  0.4661  0.8329 -0.1590
  276MOL0     C38005   1.520   4.452   1.555 -0.3406  0.5146 -0.1000
  276MOL0     C38006   1.499   4.549   1.654 -0.8057  0.7292  0.5866
  276MOL0     C38007   1.567   4.550   1.782  0.4100  0.2920  0.0727
  276MOL0     C38008   1.676   4.458   1.802  0.2578 -0.3670 -0.0331
  276MOL0     O38009   1.750   4.467   1.915  1.0024  0.1611  0.1404
  276MOL0     C38010   1.721   4.360   2.013 -0.2687 -0.4642  0.4387
  276MOL0     C38011   1.631   4.399   2.139  0.9208  0.4677  0.1059
  276MOL0     C38012   1.483   4.357   2.143 -0.4043  0.3583 -0.7466
  276MOL0     C38013   1.382   4.390   2.032 -0.7022  0.5699  0.0441
  276MOL0     C38014   1.344   4.528   2.028 -0.2204  0.2831  0.5928
  276MOL0     C38015   1.300   4.639   2.031  0.0634  0.4390 -0.1988
  276MOL0     C38016   1.702   4.367   1.697 -1.0154  0.1371  0.0164
  276MOL0     C38017   1.625   4.359   1.577 -0.8990  0.0430  0.5714
  276MOL0     C38018   1.646   4.252   1.480  0.2522  1.2318  0.0431
  276MOL0     H38019   1.443   4.293   1.129  0.9235 -0.9727 -2.0528
  276MOL0     H38020   1.267   4.306   0.946 -0.5534  2.7419 -6.7560
  276MOL0     H38021   0.993   4.339   0.919 -0.0799  4.0980  3.6158
  276MOL0     H38022   1.122   4.346   0.793 -1.4587 -3.2683  1.5259
  276MOL0     H38023   0.872   4.525   0.789  0.5405  0.3936  0.8381
  276MOL0     H38024   0.999   4.492   0.666 -2.1296  0.3954 -1.1466
  276MOL0     H38025   0.816   4.255   0.751 -1.6242 -0.2087 -0.6227
  276MOL0     H38026   0.771   4.371   0.617  0.6605  0.7156 -0.3523
  276MOL0     H38027   0.946   4.316   0.491 -4.3777 -0.0681 -1.1376
  276MOL0     H38028   1.034   4.239   0.619  0.5653  1.2677  0.8837
  276MOL0     H38029   0.765   4.106   0.575  0.3212 -0.1595  0.4935
  276MOL0     H38030   0.913   4.032   0.587 -2.3915  1.0674  4.2986
  276MOL0     H38031   0.850   4.193   0.336  1.7070  1.0935  0.8787
  276MOL0     H38032   0.989   4.083   0.362  0.4716  2.9576 -1.1330
  276MOL0     H38033   0.779   4.009   0.208  1.3535 -2.8659 -0.4983
  276MOL0     H38034   0.687   4.003   0.360  0.3999 -3.0233  3.0581
  276MOL0     H38035   0.947   3.855   0.290 -2.0861  0.5250 -1.9590
  276MOL0     H38036   0.862   3.842   0.449  1.3597  1.4281  0.2120
  276MOL0     H38037   0.881   3.690   0.106 -0.5916 -0.4430 -0.4899
  276MOL0     H38038   0.583   3.446   0.044  0.5354 -1.2616  0.6479
  276MOL0     H38039   0.734   3.386   0.110 -1.3637  0.3989  1.2607
  276MOL0     H38040   0.718   3.561  -0.139  0.3292 -0.0446 -0.0203
  276MOL0     H38041   0.865   3.514  -0.066  0.6059  0.3818 -1.4922
  276MOL0     H38042   0.846   3.366  -0.247 -2.2040  0.7885 -1.4420
  276MOL0     H38043   0.791   3.254  -0.110 -1.0529  0.3508  0.0396
  276MOL0     H38044   0.593   3.221  -0.238 -0.2930 -0.2370  0.8923
  276MOL0     H38045   0.589   3.404  -0.260 -1.4125 -0.7291  1.4717
  276MOL0     H38046   0.440   3.321  -0.410 -0.1676 -0.3704 -0.7937
  276MOL0     H38047   0.248   3.476  -0.675 -1.3817 -2.2355 -2.6390
  276MOL0     H38048   0.284   3.431  -0.510 -0.3032 -0.7238 -0.0720
  276MOL0     H38049   0.215   3.308  -0.630 -0.3971 -0.2518  0.9841
  276MOL0     H38050   0.483   3.589  -1.070  2.9493  4.0079 -0.0999
  276MOL0     H38051   0.450   3.818  -1.134  0.0379  0.1698  0.5621
  276MOL0     H38052   0.421   4.032  -0.996  0.6806  0.8127  2.2236
  276MOL0     H38053   0.289   4.154  -1.046 -2.7042 -0.4730  2.4760
  276MOL0     H38054   0.159   4.117  -0.833 -0.2281  1.0583  1.8627
  276MOL0     H38055   0.303   4.025  -0.783  0.0283  0.4517  1.1792
  276MOL0     H38056   0.284   4.304  -0.894  0.9379 -2.6749 -1.7368
  276MOL0     H38057   0.433   4.251  -0.801  0.0810  3.2403 -0.6312
  276MOL0     H38058   0.329   4.228  -0.607 -1.7258 -2.3093 -1.1559
  276MOL0     H38059   0.167   4.265  -0.680 -0.0904 -0.9168  1.2506
  276MOL0     H38060   0.401   4.462  -0.693  0.6237  0.9671  2.8084
  276MOL0     H38061   0.234   4.502  -0.708  1.0218 -0.1297 -1.0679
  276MOL0     H38062   0.357   4.421  -0.440  1.4462  0.3122 -0.1416
  276MOL0     H38063   0.188   4.467  -0.460  0.8196  1.1508  2.7820
  276MOL0     H38064   0.311   4.686  -0.573  0.1973 -2.0085 -0.8796
  276MOL0     H38065   0.457   4.628  -0.478  0.2264  1.5309  4.5879
  276MOL0     H38066   0.188   4.745  -0.385 -0.4654 -0.0742  0.6170
  276MOL0     H38067   0.358   4.767  -0.343  1.6698 -0.9788 -2.1116
  276MOL0     H38068   0.079   3.810  -0.905  1.6981  1.9632  0.9580
  276MOL0     H38069   0.128   3.584  -0.840  0.5264 -1.6878 -1.0816
  276MOL0     H38070   0.682   3.308  -0.832 -1.6578  0.4872 -0.4550
  276MOL0     H38071   0.796   3.260  -0.610  0.1156  0.0868  2.2211
  276MOL0     H38072   1.147   4.700   1.084 -0.4497  0.4824  0.5770
  276MOL0     H38073   1.310   4.677   1.266  1.6375 -0.1143  0.6126
  276MOL0     H38074   1.429   4.631   1.639 -2.6098 -1.0126 -1.2272
  276MOL0     H38075   1.546   4.625   1.857  1.2441  0.4613  0.1468
  276MOL0     H38076   1.671   4.278   1.960 -0.2951  0.1380 -0.4982
  276MOL0     H38077   1.824   4.340   2.044  0.9900  1.1009 -2.2857
  276MOL0     H38078   1.641   4.507   2.156  0.2412  0.1571  2.9688
  276MOL0     H38079   1.661   4.352   2.233 -3.3566 -3.2693 -0.0881
  276MOL0     H38080   1.482   4.248   2.133 -1.6615  0.4701 -2.6098
  276MOL0     H38081   1.440   4.384   2.239 -2.9744  0.4584 -1.8199
  276MOL0     H38082   1.300   4.320   2.050 -1.4718  1.1819 -0.9554
  276MOL0     H38083   1.429   4.353   1.941  0.2344  0.7038  0.4570
  276MOL0     H38084   1.265   4.738   2.048  1.1789  0.6770  0.8515
  276MOL0     H38085   1.768   4.282   1.706 -2.9001 -1.4793 -0.6547
  276MOL0     H38086   1.604   4.263   1.380  0.8663  1.2901 -0.2147
  276MOL0     H38087   1.750   4.219   1.479 -0.1153 -0.0093  0.1341
  276MOL0     H38088   1.591   4.166   1.521  1.0560  0.3057 -0.7614
  277MOL0     O38089   6.909   9.482   6.435 -0.4277  0.1667  0.9318
  277MOL0     C38090   6.801   9.469   6.490 -0.2204  1.4335 -0.2826
  277MOL0     O38091   6.758   9.347   6.545 -0.1366 -0.9402  0.5343
  277MOL0     C38092   6.830   9.239   6.532  0.0813  0.3242  0.6481
  277MOL0     C38093   6.837   9.167   6.410 -0.3230  0.8704 -0.2854
  277MOL0     C38094   6.939   9.069   6.392  0.0586 -0.4293  0.4246
  277MOL0     C38095   7.021   9.035   6.505 -0.6644  0.1162  0.6270
  277MOL0     O38096   7.117   8.940   6.509  0.1601 -0.0405 -0.1669
  277MOL0     C38097   7.151   8.854   6.398 -0.8361  0.1734 -0.4344
  277MOL0     C38098   7.291   8.783   6.418  0.9072  0.3526  0.4220
  277MOL0     C38099   7.404   8.875   6.365 -0.2549 -0.7139  0.1191
  277MOL0     C38100   7.539   8.826   6.412 -0.3861 -0.3306 -0.6776
  277MOL0     C38101   7.659   8.929   6.397  0.1957 -0.6105 -0.0314
  277MOL0     C38102   7.705   8.984   6.262  0.4670  0.7407  0.3323
  277MOL0     C38103   7.771   8.874   6.174 -0.1725  0.8604  1.0354
  277MOL0     C38104   7.770   8.932   6.034  0.6820  0.0937 -0.1481
  277MOL0     N38105   7.648   8.920   5.953  0.3680 -0.1487  0.3632
  277MOL0     C38106   7.596   9.018   5.870  0.7263 -0.9598 -0.7440
  277MOL0     C38107   7.499   8.954   5.798  0.3231 -0.6669  0.2463
  277MOL0     C38108   7.395   9.012   5.709  0.3886  0.1526 -0.3862
  277MOL0     C38109   7.462   9.008   5.570  0.2374 -0.7673 -0.0079
  277MOL0     C38110   7.374   9.067   5.461  0.5698 -0.5105 -0.2879
  277MOL0     C38111   7.426   9.046   5.317  0.0029  0.1775 -0.9196
  277MOL0     O38112   7.351   9.100   5.206  0.3888  0.0769 -0.0108
  277MOL0     C38113   7.335   9.240   5.207 -0.0825  0.4899  0.5442
  277MOL0     C38114   7.439   9.325   5.226 -0.8144 -0.7335  0.1807
  277MOL0     C38115   7.433   9.466   5.206  0.7519 -0.0536 -0.5645
  277MOL0     C38116   7.552   9.552   5.240  0.5806 -0.4983  0.2007
  277MOL0     C38117   7.299   9.520   5.199 -0.6374  0.5381  0.2940
  277MOL0     C38118   7.266   9.663   5.191 -0.3749  0.3385  0.5791
  277MOL0     O38119   7.134   9.692   5.156 -0.3763 -0.8307 -0.2762
  277MOL0     C38120   7.079   9.813   5.157 -1.3324 -0.5027  0.3975
  277MOL0     C38121   7.122   9.923   5.227  0.6414 -0.2268 -0.1737
  277MOL0     C38122   7.052  10.050   5.232 -0.4968  0.1667  0.2579
  277MOL0     C38123   6.933  10.061   5.158  0.8296 -0.4080  0.1472
  277MOL0     O38124   6.859  10.180   5.148  0.2825 -0.0613 -1.0286
  277MOL0     C38125   6.902  10.299   5.213 -0.3884 -0.0282  0.1171
  277MOL0     C38126   6.836  10.423   5.150  0.2896  1.1425 -0.7578
  277MOL0     C38127   6.685  10.423   5.174  0.1508 -0.6477 -0.4344
  277MOL0     C38128   6.607  10.520   5.084  0.5905 -0.1662  0.0838
  277MOL0     C38129   6.460  10.485   5.100  0.1127 -0.2414  0.2307
  277MOL0     C38130   6.363  10.592   5.050  0.1480  0.0619 -0.8138
  277MOL0     C38131   6.362  10.645   4.903  0.0809  0.3395  0.3093
  277MOL0     C38132   6.350  10.525   4.814  0.2529 -0.6187 -1.0101
  277MOL0    Cl38133   6.308  10.564   4.650  0.2758 -0.3657 -0.3687
  277MOL0     C38134   6.894   9.951   5.083 -0.2577 -0.2185 -0.4973
  277MOL0     C38135   6.956   9.823   5.091 -0.6305 -0.6062 -1.0160
  277MOL0     O38136   7.354   9.745   5.211  0.8811 -0.5113 -0.1288
  277MOL0     C38137   7.192   9.425   5.185 -0.3931 -0.0475 -0.8287
  277MOL0     C38138   7.214   9.287   5.177  0.2774 -0.6857  0.6881
  277MOL0     N38139   7.492   8.816   5.831  0.0734 -0.5026 -0.8724
  277MOL0     N38140   7.587   8.803   5.920  0.7104 -0.4182 -1.0273
  277MOL0     C38141   6.993   9.097   6.626 -0.3992 -0.1177  0.0704
  277MOL0     C38142   6.917   9.207   6.636  0.1697  0.3441  0.0746
  277MOL0     C38143   6.716   9.592   6.522 -0.6471  0.8744 -0.2425
  277MOL0     C38144   6.624   9.586   6.627 -0.4987  0.1808  0.6799
  277MOL0     C38145   6.533   9.695   6.646 -1.1144 -0.2970 -0.3127
  277MOL0     C38146   6.536   9.815   6.568 -0.9252  0.0080 -0.7479
  277MOL0     O38147   6.462   9.930   6.590 -0.5106  0.5056 -0.7231
  277MOL0     C38148   6.357   9.931   6.689  1.0348  0.3860 -0.5149
  277MOL0     C38149   6.288  10.065   6.685 -0.1740 -0.2740  1.0482
  277MOL0     C38150   6.192  10.083   6.801 -0.3618  0.0596  0.3051
  277MOL0     C38151   6.124  10.221   6.792  0.2208  1.3814  0.0752
  277MOL0     C38152   6.225  10.334   6.817 -0.2585 -0.1907 -0.3573
  277MOL0     C38153   6.277  10.438   6.845  0.3109  0.0974  0.0388
  277MOL0     C38154   6.645   9.826   6.474 -0.3136 -0.1398  0.3946
  277MOL0     C38155   6.731   9.710   6.450 -0.5500 -0.5375 -0.7015
  277MOL0     C38156   6.820   9.727   6.339  0.6553  0.2713  0.0688
  277MOL0     H38157   6.774   9.193   6.325  0.3457 -1.1802 -1.4729
  277MOL0     H38158   6.953   9.028   6.293  2.1352 -5.0519  2.3618
  277MOL0     H38159   7.161   8.914   6.308  3.6994 -1.1917 -1.0608
  277MOL0     H38160   7.077   8.773   6.395 -0.6612 -0.3341  3.4200
  277MOL0     H38161   7.294   8.751   6.522 -0.8690 -0.9298  0.1247
  277MOL0     H38162   7.282   8.695   6.354  1.8360  1.2609 -0.9967
  277MOL0     H38163   7.401   8.853   6.258 -0.9819 -1.0475  0.1978
  277MOL0     H38164   7.389   8.980   6.389  1.6948 -1.1116  3.7576
  277MOL0     H38165   7.533   8.806   6.520  1.6858 -3.2888 -0.9709
  277MOL0     H38166   7.566   8.729   6.369  0.1905 -1.6160  2.2990
  277MOL0     H38167   7.746   8.879   6.440  0.8244  0.9643  0.5609
  277MOL0     H38168   7.633   9.020   6.450  3.8945  1.6495 -1.7304
  277MOL0     H38169   7.618   9.025   6.210  0.1629  1.5458  1.4386
  277MOL0     H38170   7.765   9.074   6.279  1.3851  0.3012 -0.4808
  277MOL0     H38171   7.720   8.777   6.169  0.1100  0.7614 -1.1802
  277MOL0     H38172   7.878   8.855   6.187 -0.0404  1.3594  0.6864
  277MOL0     H38173   7.792   9.039   6.043 -0.1627  0.2925 -0.3131
  277MOL0     H38174   7.843   8.886   5.967 -0.3963  0.3588 -1.5504
  277MOL0     H38175   7.613   9.123   5.852 -0.1339 -1.0851 -2.4489
  277MOL0     H38176   7.361   9.113   5.736 -1.0782 -0.6484  0.9331
  277MOL0     H38177   7.306   8.949   5.713  0.3622  0.2327  0.4200
  277MOL0     H38178   7.549   9.075   5.580 -1.5447  1.6714  0.1361
  277MOL0     H38179   7.495   8.909   5.539 -0.7508 -1.3228  0.6723
  277MOL0     H38180   7.277   9.018   5.473  1.3614 -2.1412 -0.2413
  277MOL0     H38181   7.357   9.173   5.482  0.2165 -1.2184  3.8675
  277MOL0     H38182   7.531   9.075   5.311  1.0185 -2.3690  1.7691
  277MOL0     H38183   7.423   8.939   5.294  0.5140 -0.5104  1.8096
  277MOL0     H38184   7.540   9.286   5.232 -1.2259 -1.7512  0.6758
  277MOL0     H38185   7.537   9.610   5.332  0.6394  0.3645 -0.3188
  277MOL0     H38186   7.590   9.609   5.155  6.4701 -0.3444  2.4739
  277MOL0     H38187   7.639   9.489   5.259 -0.7535 -1.8582  2.1433
  277MOL0     H38188   7.224   9.938   5.263  0.2805  3.6570 -0.3107
  277MOL0     H38189   7.087  10.139   5.284 -1.7677  1.8189 -1.5418
  277MOL0     H38190   6.884  10.289   5.321 -2.3302  3.2683  0.2384
  277MOL0     H38191   7.008  10.312   5.190 -0.0518  2.7468  2.5921
  277MOL0     H38192   6.871  10.521   5.183 -0.1738  1.0538  0.0129
  277MOL0     H38193   6.856  10.419   5.042 -0.6663 -1.1307 -0.9025
  277MOL0     H38194   6.659  10.434   5.280  0.2977  1.9471 -0.6037
  277MOL0     H38195   6.657  10.329   5.125 -1.0148  0.7804 -2.6522
  277MOL0     H38196   6.631  10.531   4.978 -1.4801  1.1004 -0.3094
  277MOL0     H38197   6.612  10.619   5.129 -3.1991 -0.6414  1.9345
  277MOL0     H38198   6.441  10.398   5.037  1.2831  0.0557 -0.5604
  277MOL0     H38199   6.422  10.465   5.200 -1.0028  2.1440  0.3620
  277MOL0     H38200   6.378  10.675   5.119 -0.0315  1.3814 -2.2969
  277MOL0     H38201   6.267  10.543   5.067 -0.5790  1.4819 -0.7469
  277MOL0     H38202   6.438  10.717   4.872 -1.0969  1.3066 -0.4080
  277MOL0     H38203   6.277  10.712   4.889  0.3038  0.5577 -0.0193
  277MOL0     H38204   6.272  10.459   4.853 -0.0653 -0.8699 -2.0324
  277MOL0     H38205   6.442  10.466   4.808  0.4065 -0.4562 -0.3087
  277MOL0     H38206   6.814   9.962   5.010  1.6766  0.8815 -2.5915
  277MOL0     H38207   6.921   9.738   5.032  1.9178 -2.3250 -0.2358
  277MOL0     H38208   7.090   9.462   5.179  0.1069  2.0784  1.9202
  277MOL0     H38209   7.123   9.231   5.156  1.2794 -1.3416 -2.3412
  277MOL0     H38210   7.068   9.077   6.702 -1.3511 -0.7410  0.8753
  277MOL0     H38211   6.923   9.268   6.726  0.8717  2.0925 -1.0939
  277MOL0     H38212   6.611   9.496   6.685  0.4436 -0.2039  0.3041
  277MOL0     H38213   6.467   9.677   6.731  1.7281  0.8293  2.3315
  277MOL0     H38214   6.285   9.854   6.659 -0.1640  1.6149 -0.8799
  277MOL0     H38215   6.388   9.908   6.791 -3.1077 -1.3672  0.5498
  277MOL0     H38216   6.234  10.086   6.592 -0.5644 -1.4369  0.9892
  277MOL0     H38217   6.371  10.136   6.695 -0.7740  0.9072 -1.5915
  277MOL0     H38218   6.118  10.004   6.816 -2.5444  2.2873  2.2443
  277MOL0     H38219   6.260  10.084   6.886  3.9641  0.7151 -2.8237
  277MOL0     H38220   6.047  10.223   6.869  0.1946 -2.8278  0.3632
  277MOL0     H38221   6.078  10.233   6.693  2.5390  0.8147 -1.1437
  277MOL0     H38222   6.314  10.534   6.872 -1.5690  0.6812  0.7456
  277MOL0     H38223   6.646   9.918   6.416 -0.4837 -0.5039 -0.1894
  277MOL0     H38224   6.928   9.711   6.350  0.8405  1.9469  1.0289
  277MOL0     H38225   6.788   9.665   6.254  2.0349 -0.0946 -0.2204
  277MOL0     H38226   6.822   9.829   6.298 -0.4137  0.4316  0.4108
  278MOL0     O38227   1.750   8.920   9.282 -0.3230  0.0976  0.0690
  278MOL0     C38228   1.830   8.933   9.185  0.1407 -0.4721  0.9353
  278MOL0     O38229   1.935   9.025   9.174  0.2316 -0.0321  1.0169
  278MOL0     C38230   1.958   9.088   9.291 -0.0246  0.1941 -0.1194
  278MOL0     C38231   1.893   9.196   9.334  0.3260  0.8796 -0.5419
  278MOL0     C38232   1.919   9.257   9.460 -0.3427 -0.0218 -0.6000
  278MOL0     C38233   2.027   9.208   9.527  0.0928 -0.9912 -0.2076
  278MOL0     O38234   2.049   9.263   9.647  0.3564  0.5852  0.5211
  278MOL0     C38235   2.192   9.293   9.674  0.5885  0.0491 -0.1822
  278MOL0     C38236   2.239   9.421   9.616  0.2175 -0.1080 -0.1199
  278MOL0     C38237   2.369   9.480   9.682 -0.0314 -0.1653 -0.3136
  278MOL0     C38238   2.373   9.468   9.838  0.3006  0.2810  0.3394
  278MOL0     C38239   2.488   9.552   9.889 -0.3437  0.1294  0.5405
  278MOL0     C38240   2.463   9.602  10.036 -0.1709 -0.3123 -0.4486
  278MOL0     C38241   2.435   9.490  10.140 -0.3207 -0.4590 -0.2871
  278MOL0     C38242   2.349   9.556  10.259  0.0207 -0.8363 -0.1973
  278MOL0     N38243   2.418   9.648  10.352 -0.4631  0.2674  0.1526
  278MOL0     C38244   2.420   9.630  10.493 -1.0745  0.1716  1.0672
  278MOL0     C38245   2.487   9.728  10.542  0.5002 -0.3399 -0.2489
  278MOL0     C38246   2.510   9.741  10.694 -0.3488  1.1408  0.1267
  278MOL0     C38247   2.450   9.862  10.759  0.3384  0.3390  0.1495
  278MOL0     C38248   2.299   9.874  10.778 -0.3212 -0.1134  0.1319
  278MOL0     C38249   2.238  10.019  10.782  0.0389  0.3788 -0.2120
  278MOL0     O38250   2.109  10.024  10.730  1.2469  0.1316  0.0600
  278MOL0     C38251   2.091  10.074  10.602 -0.1321 -0.4698 -0.2012
  278MOL0     C38252   2.184  10.067  10.504  0.2774  0.3020 -0.2408
  278MOL0     C38253   2.163  10.129  10.380 -1.4213 -0.3167 -1.2447
  278MOL0     C38254   2.249  10.073  10.268  0.1155 -0.1782  0.2068
  278MOL0     C38255   2.049  10.211  10.365 -0.1362  0.2006  0.1156
  278MOL0     C38256   2.002  10.260  10.229 -0.0350  0.2215  0.3569
  278MOL0     O38257   1.871  10.293  10.224  0.4773 -0.5677  0.0690
  278MOL0     C38258   1.807  10.326  10.105  0.0577  0.7199 -0.9856
  278MOL0     C38259   1.669  10.338  10.102 -0.2424 -0.0455  0.2017
  278MOL0     C38260   1.595  10.360   9.982 -0.6622  0.5166 -0.3331
  278MOL0     C38261   1.656  10.370   9.857 -1.1859  0.7807 -0.1079
  278MOL0     O38262   1.578  10.369   9.743 -0.7675 -0.5688 -0.0453
  278MOL0     C38263   1.638  10.421   9.626  0.0236 -0.9492  0.4855
  278MOL0     C38264   1.543  10.451   9.505  0.0987 -0.2413 -0.2839
  278MOL0     C38265   1.409  10.502   9.558 -0.0994  0.2930 -0.6923
  278MOL0     C38266   1.350  10.585   9.444  0.4442  0.7133 -0.9410
  278MOL0     C38267   1.197  10.600   9.452 -0.4368 -0.2210  0.4450
  278MOL0     C38268   1.174  10.704   9.564  1.0810 -0.0112  0.0997
  278MOL0     C38269   1.021  10.725   9.591 -0.0183  0.0238  0.1481
  278MOL0     C38270   0.989  10.800   9.725  0.0425 -0.1028  0.8640
  278MOL0    Cl38271   0.811  10.823   9.743 -0.1050  0.0974  0.1361
  278MOL0     C38272   1.795  10.373   9.857 -0.3062  0.8271  0.4701
  278MOL0     C38273   1.867  10.354   9.974  0.2967  0.3357  0.8996
  278MOL0     O38274   2.087  10.286  10.148  0.7290  0.6157  0.6039
  278MOL0     C38275   1.960  10.228  10.473 -0.3951  0.4139  0.2453
  278MOL0     C38276   1.978  10.147  10.587 -0.2363 -0.6290 -0.8536
  278MOL0     N38277   2.519   9.808  10.434  0.1521  1.2603  0.1724
  278MOL0     N38278   2.466   9.768  10.321 -0.0880 -1.3832 -0.2246
  278MOL0     C38279   2.111   9.105   9.474 -0.3468 -0.2427  0.3196
  278MOL0     C38280   2.067   9.042   9.358 -0.6353 -0.3941  0.6755
  278MOL0     C38281   1.804   8.865   9.056  0.6460 -0.6212 -0.7695
  278MOL0     C38282   1.872   8.919   8.946  0.4773 -0.3119  0.2997
  278MOL0     C38283   1.876   8.857   8.826 -0.4589  0.2542 -0.0409
  278MOL0     C38284   1.796   8.741   8.801  0.8645 -0.1917 -0.0886
  278MOL0     O38285   1.810   8.686   8.675  0.6284  1.5570 -0.0975
  278MOL0     C38286   1.725   8.570   8.652 -0.5496 -0.0831  0.3615
  278MOL0     C38287   1.689   8.558   8.503  0.2221 -0.0595 -0.3558
  278MOL0     C38288   1.543   8.502   8.479 -0.0238  0.6941 -0.4548
  278MOL0     C38289   1.500   8.462   8.337 -0.1681  0.7489 -0.0424
  278MOL0     C38290   1.584   8.361   8.279 -0.0075 -0.7156 -0.3605
  278MOL0     C38291   1.653   8.278   8.233  0.6752  1.1747  0.6774
  278MOL0     C38292   1.723   8.680   8.914  0.2318  0.3077 -0.2697
  278MOL0     C38293   1.728   8.746   9.035 -0.8675  0.2070 -0.5526
  278MOL0     C38294   1.665   8.671   9.150 -0.3592 -0.5431 -0.5650
  278MOL0     H38295   1.799   9.221   9.284 -2.7474  0.5472  4.3945
  278MOL0     H38296   1.850   9.331   9.498 -0.1932 -0.9718  1.6658
  278MOL0     H38297   2.263   9.217   9.640  2.6783  0.8395  2.1266
  278MOL0     H38298   2.200   9.294   9.783 -1.7733  1.4450  0.0386
  278MOL0     H38299   2.252   9.428   9.507 -1.1424  2.8982 -0.1859
  278MOL0     H38300   2.150   9.483   9.629  0.5741  1.2918 -3.3108
  278MOL0     H38301   2.449   9.429   9.628  1.4926  2.8089 -1.0634
  278MOL0     H38302   2.386   9.585   9.656 -1.7773 -0.0104 -0.9666
  278MOL0     H38303   2.277   9.498   9.880  1.3941  1.3580  2.2018
  278MOL0     H38304   2.378   9.362   9.865 -5.2480  0.4174  3.5042
  278MOL0     H38305   2.513   9.642   9.833  0.9196 -1.8931 -2.3983
  278MOL0     H38306   2.575   9.486   9.882 -1.5660 -1.6822  1.5065
  278MOL0     H38307   2.553   9.658  10.065 -0.4961  1.2110 -2.2007
  278MOL0     H38308   2.375   9.667  10.027  0.7969  1.0682 -0.4153
  278MOL0     H38309   2.525   9.432  10.159 -1.4810 -2.0375  0.6874
  278MOL0     H38310   2.366   9.415  10.099 -1.1327 -0.3710  0.8700
  278MOL0     H38311   2.267   9.605  10.205 -0.1849  0.6285  1.3615
  278MOL0     H38312   2.309   9.472  10.316  0.0861 -1.1155 -0.5617
  278MOL0     H38313   2.385   9.541  10.544  0.5005 -1.8860 -1.2130
  278MOL0     H38314   2.617   9.757  10.711 -0.3223  1.2300 -0.1230
  278MOL0     H38315   2.475   9.651  10.746 -2.1946  1.3514 -0.6664
  278MOL0     H38316   2.495   9.861  10.859  0.4139 -4.0351  0.2509
  278MOL0     H38317   2.491   9.946  10.701  3.8278 -1.6313 -0.5201
  278MOL0     H38318   2.262   9.822  10.690 -0.9610 -1.0172  0.9131
  278MOL0     H38319   2.267   9.815  10.865  0.1429 -0.5017  0.0391
  278MOL0     H38320   2.234  10.050  10.887  0.4689 -0.5785  0.1081
  278MOL0     H38321   2.300  10.092  10.731 -0.5730  0.9569 -0.1346
  278MOL0     H38322   2.274  10.007  10.518 -0.5885 -0.6971  1.2993
  278MOL0     H38323   2.332  10.015  10.309 -0.1813 -1.2931 -0.6819
  278MOL0     H38324   2.288  10.150  10.200  0.1029 -2.8154 -3.0743
  278MOL0     H38325   2.187  10.004  10.210  0.5505 -1.5461  1.3255
  278MOL0     H38326   1.618  10.342  10.198 -1.4461 -4.1033 -0.0476
  278MOL0     H38327   1.488  10.374   9.982 -0.5276  1.7514 -1.1958
  278MOL0     H38328   1.683  10.518   9.651  0.7862 -1.0954 -0.2565
  278MOL0     H38329   1.719  10.354   9.597  1.7706  1.3884 -0.4229
  278MOL0     H38330   1.596  10.526   9.446 -0.5660 -0.9560 -1.8227
  278MOL0     H38331   1.520  10.362   9.447 -4.4311 -1.6935  3.1043
  278MOL0     H38332   1.422  10.564   9.648 -0.0996 -3.1975  1.9398
  278MOL0     H38333   1.347  10.420   9.595  1.9157 -1.7564 -1.6574
  278MOL0     H38334   1.367  10.542   9.344 -2.6034  0.5144 -1.4667
  278MOL0     H38335   1.382  10.690   9.451 -0.7033  0.9442  3.8962
  278MOL0     H38336   1.160  10.631   9.354  0.8268 -0.3493 -0.0935
  278MOL0     H38337   1.145  10.508   9.478  1.1406 -1.2735 -0.0250
  278MOL0     H38338   1.219  10.802   9.544 -1.5466  1.6684  1.6935
  278MOL0     H38339   1.220  10.670   9.657 -0.5386  0.0719  0.9666
  278MOL0     H38340   0.975  10.626   9.593  0.8177 -0.3648  0.8867
  278MOL0     H38341   0.970  10.784   9.514  0.5336 -0.7470 -0.8342
  278MOL0     H38342   1.028  10.899   9.702  2.9041 -1.3731 -0.2525
  278MOL0     H38343   1.024  10.751   9.816 -3.1406 -4.6862 -0.0255
  278MOL0     H38344   1.848  10.383   9.763 -0.7078 -2.5283 -0.2128
  278MOL0     H38345   1.975  10.345   9.963  0.0431 -1.3695 -0.8925
  278MOL0     H38346   1.875  10.295  10.467 -1.4092 -0.8518 -0.0450
  278MOL0     H38347   1.905  10.158  10.667  0.6583 -2.7482  0.3265
  278MOL0     H38348   2.197   9.058   9.521 -0.0121  0.5781  0.5486
  278MOL0     H38349   2.117   8.954   9.318  1.2041  0.2878  1.3427
  278MOL0     H38350   1.945   8.999   8.952  1.3923 -1.1309  0.5834
  278MOL0     H38351   1.939   8.896   8.746  0.2161  1.1995  0.9200
  278MOL0     H38352   1.767   8.474   8.684  3.1881  1.8929  2.0399
  278MOL0     H38353   1.629   8.582   8.702  0.1209  0.2588  1.6130
  278MOL0     H38354   1.759   8.492   8.451 -0.6235  0.1762 -1.8446
  278MOL0     H38355   1.722   8.653   8.459  0.2090  0.2214  0.2261
  278MOL0     H38356   1.543   8.406   8.533 -0.3691  1.0215  0.1299
  278MOL0     H38357   1.469   8.564   8.529  0.1674 -1.3094  2.6049
  278MOL0     H38358   1.490   8.548   8.271 -1.6505 -1.7306 -3.3595
  278MOL0     H38359   1.404   8.409   8.332 -0.1025  0.7260 -1.4589
  278MOL0     H38360   1.711   8.200   8.188 -2.7981  0.6886 -3.5943
  278MOL0     H38361   1.658   8.593   8.911  0.1360  0.4069 -1.4738
  278MOL0     H38362   1.746   8.628   9.210  0.5796  2.4342  0.4986
  278MOL0     H38363   1.611   8.736   9.218  0.8591  1.2221 -1.2126
  278MOL0     H38364   1.591   8.597   9.118 -0.6260  0.3950 -2.2044
  279MOL0     O38365   9.013   2.096   3.806  0.0952 -0.0601 -0.4777
  279MOL0     C38366   8.922   2.024   3.853 -0.1000  0.5542 -0.5318
  279MOL0     O38367   8.908   1.891   3.828 -0.5213  0.2651 -0.4896
  279MOL0     C38368   8.985   1.830   3.735  1.5669 -0.8740 -0.0103
  279MOL0     C38369   8.918   1.755   3.644 -0.9981  0.7684 -0.3735
  279MOL0     C38370   8.998   1.663   3.569  0.4206  0.3029  0.9218
  279MOL0     C38371   9.138   1.660   3.571 -0.2946 -0.6761  0.0746
  279MOL0     O38372   9.214   1.574   3.502 -0.3462 -0.7920  0.7709
  279MOL0     C38373   9.152   1.468   3.428  0.6797 -0.6030 -0.4597
  279MOL0     C38374   9.231   1.400   3.327 -0.8480 -0.6311  0.7429
  279MOL0     C38375   9.275   1.496   3.212  0.2544 -0.4744  0.3643
  279MOL0     C38376   9.389   1.431   3.130  0.4100 -0.4234 -0.9140
  279MOL0     C38377   9.451   1.512   3.012 -0.0690  0.4380  0.2642
  279MOL0     C38378   9.566   1.444   2.942  0.2798 -0.2123  0.1076
  279MOL0     C38379   9.511   1.318   2.881 -0.2301  0.6272  0.3036
  279MOL0     C38380   9.612   1.266   2.772  0.8186  0.8279 -0.6097
  279MOL0     N38381   9.579   1.126   2.758  0.8958  0.1544 -0.1645
  279MOL0     C38382   9.457   1.074   2.724 -0.4426 -0.2335 -0.0180
  279MOL0     C38383   9.479   0.941   2.725  0.5305  0.5090 -0.4026
  279MOL0     C38384   9.373   0.833   2.727 -0.3201 -0.6212 -0.8685
  279MOL0     C38385   9.357   0.762   2.861  0.2005 -0.0768 -1.0908
  279MOL0     C38386   9.262   0.833   2.956 -0.0905  0.9701 -0.2259
  279MOL0     C38387   9.242   0.780   3.097  0.3924  0.1647  0.8710
  279MOL0     O38388   9.273   0.635   3.110 -0.3004 -0.1173  0.2378
  279MOL0     C38389   9.175   0.543   3.136 -0.1858 -0.1703  0.6251
  279MOL0     C38390   9.198   0.419   3.203  0.5336 -0.1492 -0.5731
  279MOL0     C38391   9.098   0.316   3.229  0.2276  0.1967 -1.0688
  279MOL0     C38392   9.140   0.177   3.288  0.6263  0.0150  0.5392
  279MOL0     C38393   8.958   0.332   3.184  0.3451  0.3899 -0.1187
  279MOL0     C38394   8.840   0.240   3.197  0.0365  0.7067  0.0764
  279MOL0     O38395   8.728   0.278   3.131 -0.4417  0.5604 -0.3173
  279MOL0     C38396   8.639   0.182   3.081 -0.6418  0.1448  0.7925
  279MOL0     C38397   8.550   0.108   3.165  0.1027 -0.1985 -0.1954
  279MOL0     C38398   8.467   0.005   3.110  0.0006 -1.1974  0.5942
  279MOL0     C38399   8.470  -0.038   2.973  0.6528  0.5116  0.7293
  279MOL0     O38400   8.391  -0.149   2.938  0.5887 -0.2067  0.2333
  279MOL0     C38401   8.430  -0.234   2.824 -0.4812 -1.1725 -0.2741
  279MOL0     C38402   8.295  -0.300   2.790  0.4162  0.1381 -0.4697
  279MOL0     C38403   8.327  -0.411   2.693 -0.2143  0.4231 -0.0582
  279MOL0     C38404   8.232  -0.416   2.566 -0.6963 -0.8621  0.9953
  279MOL0     C38405   8.239  -0.530   2.465  0.2486  0.6888 -0.1775
  279MOL0     C38406   8.147  -0.501   2.344  0.3138  0.5964 -0.5231
  279MOL0     C38407   8.196  -0.571   2.223 -0.5605  0.6778 -0.2456
  279MOL0     C38408   8.115  -0.552   2.092 -0.6145  0.2366 -0.1205
  279MOL0    Cl38409   8.182  -0.405   2.012 -0.0512  0.1699 -0.1078
  279MOL0     C38410   8.567   0.028   2.899  0.0838  0.1763  0.1070
  279MOL0     C38411   8.646   0.142   2.942  0.8323  0.5598 -0.0905
  279MOL0     O38412   8.847   0.142   3.265  0.8841  0.4548  0.0858
  279MOL0     C38413   8.939   0.454   3.125 -0.0708 -0.3803 -0.5457
  279MOL0     C38414   9.042   0.552   3.102 -1.2382 -0.0406  0.0728
  279MOL0     N38415   9.606   0.917   2.758 -0.1987 -0.4067 -0.5753
  279MOL0     N38416   9.672   1.025   2.771  0.1429  0.1282  0.4756
  279MOL0     C38417   9.192   1.743   3.670 -0.9147 -0.2251 -0.7134
  279MOL0     C38418   9.123   1.828   3.751 -1.0087 -1.2112 -0.5213
  279MOL0     C38419   8.815   2.085   3.931 -0.9099 -0.4966  0.3821
  279MOL0     C38420   8.750   2.007   4.031 -0.3420  0.1917  0.1733
  279MOL0     C38421   8.654   2.060   4.109  0.8461 -0.4056 -0.8525
  279MOL0     C38422   8.615   2.193   4.105  0.0778 -0.6802 -0.2092
  279MOL0     O38423   8.517   2.237   4.186  0.6173 -0.5709 -0.0765
  279MOL0     C38424   8.388   2.175   4.161 -0.6440 -0.2734  0.3804
  279MOL0     C38425   8.348   2.098   4.286 -0.2866  0.5577 -0.1579
  279MOL0     C38426   8.358   2.176   4.424  0.2234 -0.0013 -0.8205
  279MOL0     C38427   8.260   2.287   4.434  0.1973 -0.9033  0.3378
  279MOL0     C38428   8.278   2.349   4.570 -0.1863  0.0162  0.1826
  279MOL0     C38429   8.284   2.391   4.681  0.8746  0.6496  0.3078
  279MOL0     C38430   8.687   2.283   4.020  0.4328  0.5285  0.7083
  279MOL0     C38431   8.785   2.227   3.932 -1.2570 -0.8635 -0.7643
  279MOL0     C38432   8.834   2.327   3.829  0.3191  0.2920  0.2417
  279MOL0     H38433   8.811   1.758   3.630 -1.3025  2.8903  1.6760
  279MOL0     H38434   8.939   1.607   3.497  2.4807 -0.0326 -0.5927
  279MOL0     H38435   9.067   1.514   3.376 -0.0854 -1.8456 -0.3683
  279MOL0     H38436   9.121   1.393   3.501  0.3575  3.2446  3.8020
  279MOL0     H38437   9.320   1.365   3.381  0.2846 -1.2907 -1.4038
  279MOL0     H38438   9.190   1.308   3.284  1.3852 -0.8536 -1.1158
  279MOL0     H38439   9.180   1.515   3.163 -0.4247 -1.7028  1.1645
  279MOL0     H38440   9.304   1.590   3.261 -0.0002 -0.8383  1.2462
  279MOL0     H38441   9.474   1.407   3.195  0.3592 -0.1456 -0.7426
  279MOL0     H38442   9.348   1.342   3.081 -3.7607  0.9063 -0.2644
  279MOL0     H38443   9.486   1.608   3.049  2.8409 -0.5404  0.3112
  279MOL0     H38444   9.369   1.531   2.942 -1.3382 -0.6875  1.3795
  279MOL0     H38445   9.622   1.505   2.871  3.3852  1.4160  3.6338
  279MOL0     H38446   9.641   1.424   3.018  2.0639 -0.9813 -1.7615
  279MOL0     H38447   9.414   1.326   2.832  1.6062  2.0176 -3.5173
  279MOL0     H38448   9.492   1.248   2.963 -0.9578 -0.2123 -0.5673
  279MOL0     H38449   9.611   1.319   2.676 -1.2320  0.3896 -0.8830
  279MOL0     H38450   9.713   1.259   2.812 -0.3611  1.0038  2.6415
  279MOL0     H38451   9.356   1.110   2.711 -0.1749 -0.1614 -2.2843
  279MOL0     H38452   9.391   0.755   2.653 -0.5538 -1.6709  0.1549
  279MOL0     H38453   9.274   0.877   2.709  0.0775  0.7968  0.2535
  279MOL0     H38454   9.320   0.660   2.849 -0.8477 -0.1062  1.7244
  279MOL0     H38455   9.456   0.750   2.907 -1.0741 -2.6536  1.3290
  279MOL0     H38456   9.308   0.932   2.959  1.1095  0.4266 -0.0394
  279MOL0     H38457   9.165   0.839   2.906 -1.3291  0.4805  2.0069
  279MOL0     H38458   9.317   0.836   3.153 -0.8465  1.2505  1.5163
  279MOL0     H38459   9.142   0.809   3.131 -0.1038 -2.4721  1.8807
  279MOL0     H38460   9.300   0.397   3.233  0.8891  0.1027 -1.5667
  279MOL0     H38461   9.095   0.100   3.225  1.8636 -0.8029  0.6159
  279MOL0     H38462   9.102   0.164   3.390  2.8079 -3.1465  1.0770
  279MOL0     H38463   9.246   0.153   3.286  0.3280 -1.6411  2.1869
  279MOL0     H38464   8.561   0.139   3.268 -1.7884  2.3082 -0.6520
  279MOL0     H38465   8.417  -0.062   3.178 -0.1563 -2.4694 -0.7229
  279MOL0     H38466   8.472  -0.187   2.735  1.0299  4.2554  2.8196
  279MOL0     H38467   8.500  -0.307   2.865 -0.3931 -0.5747  0.6506
  279MOL0     H38468   8.240  -0.323   2.882 -2.2139  1.5134 -1.5947
  279MOL0     H38469   8.228  -0.222   2.753 -1.5093  0.3517  3.0158
  279MOL0     H38470   8.320  -0.510   2.739  0.8426  0.3073 -0.1306
  279MOL0     H38471   8.428  -0.410   2.652 -0.5438 -0.2947 -0.9353
  279MOL0     H38472   8.254  -0.323   2.513 -2.4221 -2.2804 -2.4794
  279MOL0     H38473   8.126  -0.398   2.585 -0.8184  1.4135 -1.3557
  279MOL0     H38474   8.346  -0.539   2.441 -0.2770  1.9247 -3.4621
  279MOL0     H38475   8.211  -0.621   2.519  2.4328  0.7997  1.3088
  279MOL0     H38476   8.151  -0.394   2.321 -2.7167  0.8587 -0.2802
  279MOL0     H38477   8.043  -0.521   2.373  0.7580 -0.3743  0.4604
  279MOL0     H38478   8.188  -0.678   2.245  0.4224  0.5385 -0.5181
  279MOL0     H38479   8.301  -0.543   2.209 -0.3167 -0.4517 -0.8139
  279MOL0     H38480   8.007  -0.537   2.107 -0.6749 -0.0114 -0.2882
  279MOL0     H38481   8.122  -0.644   2.033  0.6526 -1.1394  2.0461
  279MOL0     H38482   8.580  -0.012   2.799 -0.2723 -2.8628  1.1794
  279MOL0     H38483   8.705   0.203   2.874 -2.5150  3.5111 -0.6370
  279MOL0     H38484   8.838   0.482   3.097 -0.2390 -1.3760 -0.9787
  279MOL0     H38485   8.999   0.641   3.056 -2.0017  0.6364  1.9969
  279MOL0     H38486   9.301   1.736   3.673 -0.9970 -1.9754 -0.8708
  279MOL0     H38487   9.168   1.886   3.830  0.3071 -2.4809 -0.3032
  279MOL0     H38488   8.761   1.900   4.048 -3.6075 -0.7435 -2.4527
  279MOL0     H38489   8.604   1.997   4.183  2.4593  2.1830  2.7520
  279MOL0     H38490   8.315   2.252   4.134  0.4140  0.3151 -0.9509
  279MOL0     H38491   8.389   2.108   4.075 -3.4661  0.0294  0.0153
  279MOL0     H38492   8.414   2.012   4.301 -1.6515 -0.4490  0.2649
  279MOL0     H38493   8.254   2.044   4.272  1.3039 -1.9701 -1.8095
  279MOL0     H38494   8.341   2.102   4.502  0.0367  0.4912 -0.3839
  279MOL0     H38495   8.459   2.215   4.440 -0.0586 -0.1198  1.6022
  279MOL0     H38496   8.154   2.264   4.419 -1.1099  3.7490  0.6200
  279MOL0     H38497   8.274   2.365   4.358 -1.9776  2.1096  2.7637
  279MOL0     H38498   8.303   2.409   4.784  2.6810 -2.8289  0.7198
  279MOL0     H38499   8.651   2.385   4.024  2.4354  1.2899  4.6256
  279MOL0     H38500   8.937   2.354   3.853  0.5508  0.3161 -0.7344
  279MOL0     H38501   8.830   2.297   3.724 -2.3551  3.5534 -0.7847
  279MOL0     H38502   8.759   2.402   3.802 -2.5569 -2.3373  0.3643
  280MOL0     O38503  10.809   0.216   1.332  0.2027  0.6461 -0.9390
  280MOL0     C38504  10.738   0.131   1.377  0.8661  0.5052 -0.3197
  280MOL0     O38505  10.618   0.152   1.447 -0.1903 -0.5715  0.5342
  280MOL0     C38506  10.580   0.286   1.459  0.4409  0.1007 -0.0500
  280MOL0     C38507  10.623   0.353   1.570 -0.8538 -0.0340  0.3138
  280MOL0     C38508  10.606   0.483   1.589  0.8117  0.7755 -0.1356
  280MOL0     C38509  10.549   0.563   1.486 -0.5722  0.3656  0.1065
  280MOL0     O38510  10.544   0.694   1.491  0.0663 -0.0116  0.1955
  280MOL0     C38511  10.639   0.762   1.414  0.5312  0.2003 -0.5764
  280MOL0     C38512  10.646   0.917   1.449 -0.2248  0.1698 -0.7289
  280MOL0     C38513  10.691   0.942   1.594 -0.6304 -0.1285  0.1689
  280MOL0     C38514  10.813   0.866   1.632 -0.6378 -0.3350 -0.6518
  280MOL0     C38515  10.863   0.908   1.779 -1.4109  0.4098  0.7475
  280MOL0     C38516  10.862   1.055   1.815 -0.7898  0.7987  0.5974
  280MOL0     C38517  10.948   1.079   1.933  0.2518  0.1994  0.3273
  280MOL0     C38518  11.096   1.066   1.911 -0.1097 -0.5664  0.5015
  280MOL0     N38519  11.150   1.202   1.919 -0.3342 -0.0340 -0.2688
  280MOL0     C38520  11.164   1.277   2.038  0.3618  0.6769  0.1822
  280MOL0     C38521  11.207   1.398   1.993  1.0337 -0.7639 -0.0521
  280MOL0     C38522  11.242   1.506   2.079  0.4493 -0.2383 -0.3327
  280MOL0     C38523  11.387   1.524   2.104  0.4694  0.0369 -0.0405
  280MOL0     C38524  11.444   1.432   2.211  0.4159 -0.2337  0.1306
  280MOL0     C38525  11.584   1.478   2.249  0.4866  0.2545  0.3737
  280MOL0     O38526  11.658   1.484   2.126 -0.4506 -0.2504 -0.1140
  280MOL0     C38527  11.777   1.553   2.133 -0.6954  0.0816 -0.4942
  280MOL0     C38528  11.855   1.544   2.251  0.4908 -1.5717  0.3200
  280MOL0     C38529  11.974   1.620   2.254 -0.3758 -0.3140  0.0833
  280MOL0     C38530  12.049   1.633   2.392  0.0929  0.9106 -0.2829
  280MOL0     C38531  12.004   1.709   2.147  0.6449 -0.2973 -1.0438
  280MOL0     C38532  12.133   1.794   2.146  1.0080 -0.7707 -0.8767
  280MOL0     O38533  12.245   1.753   2.209  0.4024 -0.4143 -0.4016
  280MOL0     C38534  12.367   1.809   2.192 -0.1272  0.9654 -0.4462
  280MOL0     C38535  12.398   1.946   2.210  2.1571  0.5825  0.7614
  280MOL0     C38536  12.530   1.988   2.205  0.5241 -0.1906  0.0055
  280MOL0     C38537  12.629   1.908   2.162  0.3803  0.8202  0.1324
  280MOL0     O38538  12.756   1.961   2.152  0.9298  0.3080  0.1760
  280MOL0     C38539  12.862   1.906   2.069 -0.5413 -0.1965  0.2167
  280MOL0     C38540  12.993   1.984   2.045  0.2306  0.3521  0.4027
  280MOL0     C38541  12.953   2.133   2.033 -0.2855  0.7616 -0.2456
  280MOL0     C38542  13.085   2.209   2.053  0.5805 -0.7191 -0.7968
  280MOL0     C38543  13.109   2.244   2.194  0.1350  0.2655  0.5632
  280MOL0     C38544  13.233   2.325   2.205 -0.1685  0.9123 -0.0148
  280MOL0     C38545  13.269   2.365   2.347  0.8434  0.2854  0.3711
  280MOL0     C38546  13.404   2.425   2.357 -0.1412  1.1135  0.8913
  280MOL0    Cl38547  13.458   2.361   2.517 -0.1499 -0.0073 -0.2361
  280MOL0     C38548  12.600   1.769   2.133 -0.2283  0.2772  0.5224
  280MOL0     C38549  12.477   1.723   2.163  0.3594  0.8866 -0.0163
  280MOL0     O38550  12.132   1.899   2.078 -0.1208  0.3582 -0.1485
  280MOL0     C38551  11.921   1.710   2.039  0.5750 -0.4933  0.1667
  280MOL0     C38552  11.810   1.633   2.030  1.1956 -0.3821  1.9591
  280MOL0     N38553  11.219   1.393   1.858 -1.2299 -0.4463  1.0559
  280MOL0     N38554  11.181   1.278   1.815  0.4625 -1.6496 -0.1096
  280MOL0     C38555  10.488   0.498   1.380 -0.2910  0.0317 -0.0031
  280MOL0     C38556  10.506   0.356   1.368  1.6294 -1.3631 -0.4701
  280MOL0     C38557  10.771  -0.013   1.353 -0.4360 -0.3321  0.4561
  280MOL0     C38558  10.676  -0.111   1.366  0.2464 -0.0299 -0.0158
  280MOL0     C38559  10.695  -0.233   1.320  0.3582  0.4316 -0.3726
  280MOL0     C38560  10.823  -0.285   1.286 -0.5207  0.8328 -0.2695
  280MOL0     O38561  10.843  -0.406   1.222  0.6066  0.3967  0.6520
  280MOL0     C38562  10.940  -0.492   1.296  0.7426  0.0268  0.7809
  280MOL0     C38563  10.908  -0.645   1.279  0.4076 -0.4345  0.4557
  280MOL0     C38564  10.949  -0.710   1.152 -0.7035 -0.2865 -0.3322
  280MOL0     C38565  11.100  -0.705   1.119 -0.0443 -0.1586 -0.2833
  280MOL0     C38566  11.185  -0.782   1.205 -0.4891  0.0917 -0.1182
  280MOL0     C38567  11.276  -0.848   1.252  0.2726  0.2333 -0.0393
  280MOL0     C38568  10.925  -0.193   1.283  1.3161 -0.0822  0.4519
  280MOL0     C38569  10.901  -0.055   1.308 -0.2379 -0.5458 -0.6502
  280MOL0     C38570  11.024   0.050   1.297  1.4827  0.1420 -0.0310
  280MOL0     H38571  10.670   0.296   1.649 -1.3215 -1.2723 -0.2704
  280MOL0     H38572  10.613   0.532   1.685  3.3935 -2.5059  1.5880
  280MOL0     H38573  10.605   0.759   1.310 -1.2028  0.2182 -0.0417
  280MOL0     H38574  10.733   0.712   1.439 -0.6172 -0.4108  3.1362
  280MOL0     H38575  10.706   0.973   1.376 -2.8279  1.9805 -1.5948
  280MOL0     H38576  10.546   0.957   1.434 -0.0838 -0.0514 -2.4605
  280MOL0     H38577  10.690   1.051   1.596 -3.5946  0.0506 -2.7048
  280MOL0     H38578  10.617   0.917   1.671 -2.0906 -0.9386 -1.4336
  280MOL0     H38579  10.785   0.762   1.650  0.4064 -0.1394  3.0934
  280MOL0     H38580  10.902   0.870   1.568  1.2297 -0.1620  1.7594
  280MOL0     H38581  10.966   0.871   1.790 -1.5920 -1.4298 -2.5944
  280MOL0     H38582  10.801   0.849   1.847  1.4325 -2.8573  0.7599
  280MOL0     H38583  10.904   1.108   1.729  1.0570  2.2655  2.2927
  280MOL0     H38584  10.758   1.088   1.827 -0.6734  1.1901  0.5544
  280MOL0     H38585  10.918   1.015   2.016  3.0195 -2.0897 -0.2953
  280MOL0     H38586  10.925   1.179   1.970 -1.8255 -0.6407  1.5199
  280MOL0     H38587  11.137   1.002   1.990 -1.0700 -0.8705  0.7724
  280MOL0     H38588  11.120   1.016   1.817 -3.8716 -3.2198  0.7500
  280MOL0     H38589  11.159   1.245   2.141 -1.5974  0.8404  0.1583
  280MOL0     H38590  11.183   1.494   2.170 -2.2386 -1.0834 -2.0691
  280MOL0     H38591  11.212   1.595   2.024  0.6862 -1.1972 -2.0863
  280MOL0     H38592  11.449   1.522   2.013  0.7864 -1.2401  0.1849
  280MOL0     H38593  11.393   1.629   2.134 -2.3975  0.8309 -1.8228
  280MOL0     H38594  11.385   1.424   2.303  3.3459  1.8244  2.3835
  280MOL0     H38595  11.458   1.336   2.160  2.3970 -0.0408  0.2176
  280MOL0     H38596  11.581   1.582   2.283 -0.0148 -0.2237  1.8850
  280MOL0     H38597  11.625   1.411   2.326  1.6279 -0.4345 -0.7967
  280MOL0     H38598  11.842   1.476   2.334 -1.9987  1.8191  3.0015
  280MOL0     H38599  12.020   1.559   2.467  3.6744 -0.5069 -0.0657
  280MOL0     H38600  12.038   1.734   2.432 -0.9461 -0.2350  2.6048
  280MOL0     H38601  12.154   1.613   2.369 -0.9840 -0.6198 -5.2931
  280MOL0     H38602  12.324   2.016   2.247  1.3065 -0.9666  2.0989
  280MOL0     H38603  12.563   2.087   2.233  0.8943 -0.0466 -0.9141
  280MOL0     H38604  12.881   1.808   2.115 -0.5039 -0.9084 -1.2648
  280MOL0     H38605  12.814   1.885   1.973 -3.8078 -0.3252  1.7456
  280MOL0     H38606  13.064   1.972   2.128  1.3897 -1.1018 -0.7483
  280MOL0     H38607  13.037   1.937   1.957  2.0439 -2.4140  2.5898
  280MOL0     H38608  12.871   2.176   2.091 -0.5674 -0.5328  0.3698
  280MOL0     H38609  12.932   2.145   1.927  1.7687 -0.6808 -0.8928
  280MOL0     H38610  13.079   2.300   1.991  0.4931  0.6428  1.1282
  280MOL0     H38611  13.177   2.158   2.023  0.3048 -2.4874  1.1795
  280MOL0     H38612  13.023   2.303   2.228  0.8587  1.3482  0.5885
  280MOL0     H38613  13.112   2.156   2.257  3.2269  1.6323  2.5565
  280MOL0     H38614  13.230   2.414   2.140 -4.3601  0.7475 -0.3372
  280MOL0     H38615  13.310   2.263   2.158 -1.9854  0.1053 -2.1148
  280MOL0     H38616  13.256   2.283   2.418  1.4105  0.3385  0.5433
  280MOL0     H38617  13.195   2.443   2.369 -1.5364 -1.4443 -1.0612
  280MOL0     H38618  13.382   2.532   2.354 -2.9265  0.6341  1.4756
  280MOL0     H38619  13.473   2.394   2.278 -4.9477 -1.8446 -2.5926
  280MOL0     H38620  12.672   1.701   2.091 -1.5018 -1.0433  0.3976
  280MOL0     H38621  12.468   1.615   2.170 -1.0386  1.0111  0.4309
  280MOL0     H38622  11.935   1.779   1.957 -0.6185  0.3226  0.6153
  280MOL0     H38623  11.735   1.633   1.952  1.1138 -3.4628  1.9005
  280MOL0     H38624  10.424   0.546   1.305 -0.8922 -0.3767  0.2397
  280MOL0     H38625  10.459   0.313   1.281 -1.0919  0.4765 -0.0244
  280MOL0     H38626  10.579  -0.091   1.411 -0.1632 -2.6703  0.3997
  280MOL0     H38627  10.621  -0.311   1.331  0.8800 -0.6265 -3.3866
  280MOL0     H38628  11.045  -0.470   1.276  0.6036  1.9850  1.9155
  280MOL0     H38629  10.917  -0.467   1.400  1.5638  0.1808  0.9299
  280MOL0     H38630  10.800  -0.658   1.276  0.3815 -0.1257 -2.7610
  280MOL0     H38631  10.945  -0.704   1.364 -0.9121 -4.5491 -1.5669
  280MOL0     H38632  10.926  -0.816   1.161 -0.9391 -0.2237 -0.1918
  280MOL0     H38633  10.903  -0.656   1.069 -1.3611 -1.1955 -0.5649
  280MOL0     H38634  11.130  -0.602   1.138 -0.2356  0.4911 -3.0373
  280MOL0     H38635  11.117  -0.734   1.014 -2.3860  0.3349 -0.8585
  280MOL0     H38636  11.363  -0.899   1.288  0.3868  1.4954  1.6386
  280MOL0     H38637  11.028  -0.220   1.260  0.9773 -0.0824 -1.1704
  280MOL0     H38638  10.998   0.132   1.230  1.7086  0.6751  0.5200
  280MOL0     H38639  11.037   0.098   1.394 -2.0029 -3.7095  2.7126
  280MOL0     H38640  11.119   0.004   1.268  1.7630 -0.2070  1.3384
  281MOL0     O38641   3.430   8.857   7.218  0.6199 -0.6180 -0.3002
  281MOL0     C38642   3.408   8.802   7.120  0.0399  0.2491  0.2238
  281MOL0     O38643   3.388   8.860   6.998 -0.4456  0.6365  0.2641
  281MOL0     C38644   3.414   8.993   6.984  0.2695  0.1384  0.2382
  281MOL0     C38645   3.317   9.089   7.024 -0.2408 -0.1665 -0.8908
  281MOL0     C38646   3.347   9.226   6.998  0.3771 -0.0600  0.0173
  281MOL0     C38647   3.474   9.257   6.942 -0.6829  0.2021  1.0238
  281MOL0     O38648   3.523   9.389   6.932  0.2646 -0.1338 -0.7027
  281MOL0     C38649   3.450   9.486   6.860 -0.6191 -1.2466 -0.3342
  281MOL0     C38650   3.457   9.474   6.708 -0.1853 -0.5489  0.2668
  281MOL0     C38651   3.408   9.600   6.621 -0.1768  0.7526 -0.1112
  281MOL0     C38652   3.469   9.740   6.647  0.0671  0.5200  0.3815
  281MOL0     C38653   3.389   9.851   6.573 -0.5675  1.0020  1.2022
  281MOL0     C38654   3.405   9.989   6.648 -0.3012 -0.3058 -0.3278
  281MOL0     C38655   3.324  10.107   6.573 -0.1537  1.3331  0.8384
  281MOL0     C38656   3.261  10.205   6.678  0.9008  0.2177  0.2980
  281MOL0     N38657   3.216  10.326   6.617 -0.1927 -0.7849 -0.4001
  281MOL0     C38658   3.289  10.395   6.522  0.1822 -0.0076 -0.3566
  281MOL0     C38659   3.204  10.486   6.468  0.2304 -0.5227 -0.5058
  281MOL0     C38660   3.222  10.591   6.356 -0.4231  0.2043  0.8898
  281MOL0     C38661   3.306  10.711   6.407  0.0902 -0.3418  0.3978
  281MOL0     C38662   3.337  10.804   6.296  0.4769 -1.2185  0.4453
  281MOL0     C38663   3.222  10.905   6.268  0.1768  0.8641 -0.1408
  281MOL0     O38664   3.112  10.830   6.202  0.5049 -0.6290 -0.9199
  281MOL0     C38665   2.985  10.885   6.206  0.0704 -0.0772 -0.9932
  281MOL0     C38666   2.958  11.024   6.207 -0.1829  0.0193 -0.1089
  281MOL0     C38667   2.825  11.066   6.191  0.8932 -0.3247  0.9090
  281MOL0     C38668   2.793  11.216   6.195 -0.3308  0.0313 -1.0917
  281MOL0     C38669   2.716  10.972   6.164 -0.5329 -0.0475 -1.1913
  281MOL0     C38670   2.566  11.003   6.161 -0.0334 -0.0705  0.3342
  281MOL0     O38671   2.494  10.953   6.059  0.2620 -0.0818 -0.1148
  281MOL0     C38672   2.358  10.989   6.035 -1.1200  0.2899  0.6277
  281MOL0     C38673   2.318  11.094   5.958  0.1988 -0.6006  0.3950
  281MOL0     C38674   2.181  11.123   5.948  0.3035  0.1930  0.2855
  281MOL0     C38675   2.084  11.054   6.021  0.4809 -0.0575  0.2871
  281MOL0     O38676   1.953  11.082   5.978 -0.3697  0.0277 -0.4336
  281MOL0     C38677   1.866  11.124   6.096 -0.8603 -0.1063  1.6356
  281MOL0     C38678   1.861  11.277   6.091 -0.5870  0.4115  0.2061
  281MOL0     C38679   1.805  11.344   6.213  1.1914 -0.7392 -0.2284
  281MOL0     C38680   1.925  11.383   6.297 -0.4366  0.2468  0.0590
  281MOL0     C38681   1.899  11.415   6.440  0.7475 -0.6401  0.0577
  281MOL0     C38682   2.023  11.488   6.494 -0.8634  0.8838 -0.4882
  281MOL0     C38683   2.000  11.538   6.633 -0.5148  0.0388 -0.1984
  281MOL0     C38684   2.113  11.624   6.683 -0.2112  0.4121  0.7918
  281MOL0    Cl38685   2.226  11.510   6.753  0.3076 -0.0484  0.3272
  281MOL0     C38686   2.121  10.945   6.096 -0.4273 -0.8297 -0.1238
  281MOL0     C38687   2.259  10.909   6.099 -0.0706  0.3122 -0.4919
  281MOL0     O38688   2.517  11.059   6.260  0.0342  0.3369  0.0423
  281MOL0     C38689   2.754  10.833   6.163 -1.1761 -0.1564  0.2985
  281MOL0     C38690   2.887  10.789   6.176 -0.6224  0.4100 -0.8666
  281MOL0     N38691   3.078  10.474   6.523 -0.3707  0.2160 -0.7117
  281MOL0     N38692   3.086  10.382   6.618 -0.3070 -0.5865  0.6170
  281MOL0     C38693   3.559   9.151   6.899  0.3580 -0.0428  0.6459
  281MOL0     C38694   3.531   9.023   6.929 -0.5071 -0.7719  0.5139
  281MOL0     C38695   3.401   8.648   7.128 -1.0025  0.5305  0.5323
  281MOL0     C38696   3.364   8.572   7.015 -0.4402  0.4054  0.1135
  281MOL0     C38697   3.363   8.432   7.008 -0.6660 -0.1342  0.8170
  281MOL0     C38698   3.398   8.359   7.121 -0.4490 -0.2702 -0.3726
  281MOL0     O38699   3.390   8.220   7.119 -0.5864  0.2271  0.0534
  281MOL0     C38700   3.317   8.141   7.019  0.2449  0.2319  0.2584
  281MOL0     C38701   3.296   7.998   7.068 -0.1901 -0.6212 -0.8071
  281MOL0     C38702   3.237   7.993   7.211  0.2971 -0.0920 -0.1181
  281MOL0     C38703   3.198   7.857   7.245  1.2787 -1.3254 -0.1534
  281MOL0     C38704   3.318   7.770   7.236  1.3367 -0.7243 -1.0602
  281MOL0     C38705   3.412   7.694   7.236  0.2811  0.2988  0.9771
  281MOL0     C38706   3.425   8.436   7.238  0.0341 -0.7031 -1.2635
  281MOL0     C38707   3.437   8.574   7.242 -0.4762  0.3155  0.3280
  281MOL0     C38708   3.484   8.621   7.379  0.8700 -0.3167 -0.0104
  281MOL0     H38709   3.235   9.061   7.088  1.4501 -1.0992  0.9620
  281MOL0     H38710   3.276   9.297   7.040  1.3084  1.4176 -0.8289
  281MOL0     H38711   3.507   9.577   6.881  0.6231 -1.9819 -0.4777
  281MOL0     H38712   3.346   9.493   6.894 -1.4938  0.3181 -3.0077
  281MOL0     H38713   3.563   9.457   6.690  0.4278  1.9574  1.0498
  281MOL0     H38714   3.404   9.381   6.687  3.9753 -4.6292  5.0306
  281MOL0     H38715   3.423   9.569   6.517 -0.2523 -0.4517  0.2224
  281MOL0     H38716   3.301   9.619   6.632  0.0460  0.8999  2.1680
  281MOL0     H38717   3.480   9.769   6.752  2.6771 -0.5375  0.4676
  281MOL0     H38718   3.570   9.747   6.606  0.6662 -2.5634  1.1403
  281MOL0     H38719   3.282   9.826   6.573 -0.2178 -0.6906  0.2835
  281MOL0     H38720   3.419   9.843   6.468  3.4279  0.6990  2.2149
  281MOL0     H38721   3.381   9.973   6.754 -0.0321 -4.8183 -0.7751
  281MOL0     H38722   3.509  10.021   6.652  0.7431 -3.4036 -0.3144
  281MOL0     H38723   3.250  10.069   6.502  0.8422 -1.4488  1.1503
  281MOL0     H38724   3.411  10.140   6.515 -0.1255 -0.4461 -0.1955
  281MOL0     H38725   3.170  10.169   6.726  1.9737 -0.7553  1.6686
  281MOL0     H38726   3.322  10.215   6.768  1.8448 -3.6428  0.2380
  281MOL0     H38727   3.385  10.366   6.482 -1.4713 -3.5570 -2.1544
  281MOL0     H38728   3.119  10.618   6.331 -0.4811  2.9557  3.5127
  281MOL0     H38729   3.271  10.540   6.272 -1.3359 -1.5657  1.3819
  281MOL0     H38730   3.258  10.769   6.487 -0.1943 -1.3439  0.9714
  281MOL0     H38731   3.403  10.677   6.443  0.5433 -0.2907 -0.7298
  281MOL0     H38732   3.417  10.875   6.322 -2.2330  1.9686  0.7727
  281MOL0     H38733   3.366  10.754   6.203  0.1523  1.3121 -1.1453
  281MOL0     H38734   3.177  10.932   6.364 -0.3604 -3.3642  0.9946
  281MOL0     H38735   3.259  10.987   6.205  2.1891  2.1590  2.4895
  281MOL0     H38736   3.041  11.093   6.216  1.3177 -1.7441  0.0755
  281MOL0     H38737   2.881  11.276   6.173  0.7340 -1.8551 -2.2002
  281MOL0     H38738   2.764  11.236   6.299  0.7949  0.2858 -0.8110
  281MOL0     H38739   2.708  11.246   6.133  0.5631  0.8105 -1.9724
  281MOL0     H38740   2.403  11.145   5.913 -0.2395  0.3867  0.6679
  281MOL0     H38741   2.146  11.195   5.875 -1.1388 -1.3731 -0.6248
  281MOL0     H38742   1.765  11.082   6.095 -1.2885  0.8984  1.7464
  281MOL0     H38743   1.906  11.087   6.191  2.7361  2.9687  1.5350
  281MOL0     H38744   1.960  11.317   6.068 -0.5508  0.2804  0.1284
  281MOL0     H38745   1.802  11.299   6.001  1.7186  3.3315 -0.7425
  281MOL0     H38746   1.741  11.270   6.262  0.1773  0.8905  1.0349
  281MOL0     H38747   1.738  11.428   6.191  1.2953 -0.1854  1.4230
  281MOL0     H38748   1.981  11.462   6.245 -0.0741  2.0997  3.0193
  281MOL0     H38749   1.988  11.294   6.293 -0.1065  0.5197 -1.3363
  281MOL0     H38750   1.817  11.487   6.448  0.0728 -1.5197  1.4192
  281MOL0     H38751   1.875  11.319   6.486  0.1905 -1.0342 -1.0236
  281MOL0     H38752   2.040  11.563   6.417  0.4464 -1.8381 -3.0469
  281MOL0     H38753   2.107  11.418   6.486 -0.3687  1.4654 -0.4295
  281MOL0     H38754   1.989  11.458   6.707  2.5687  0.7648  1.2085
  281MOL0     H38755   1.909  11.599   6.633  0.4942  1.5873 -0.4028
  281MOL0     H38756   2.082  11.685   6.768 -0.9103  1.0900  0.0625
  281MOL0     H38757   2.169  11.692   6.618  0.4373 -0.7249  0.1267
  281MOL0     H38758   2.052  10.874   6.142  0.5582 -2.2693 -0.7798
  281MOL0     H38759   2.285  10.829   6.168 -2.3805  0.8437  1.1214
  281MOL0     H38760   2.683  10.753   6.149 -3.1749  1.3266  1.3630
  281MOL0     H38761   2.924  10.688   6.160 -0.7782  0.0429  0.8765
  281MOL0     H38762   3.661   9.173   6.871  0.4476 -2.1965 -1.0167
  281MOL0     H38763   3.603   8.946   6.900 -0.3428  0.0554 -1.4869
  281MOL0     H38764   3.340   8.639   6.933  0.3930  3.9547  2.5473
  281MOL0     H38765   3.331   8.385   6.916 -2.6785  1.4359  0.6507
  281MOL0     H38766   3.220   8.191   7.011  0.4241  0.8405  1.5039
  281MOL0     H38767   3.368   8.133   6.923 -2.9054 -3.4553 -1.3867
  281MOL0     H38768   3.388   7.940   7.076 -1.3509 -2.4066  0.4820
  281MOL0     H38769   3.227   7.951   6.998  0.6929 -1.1511 -1.3420
  281MOL0     H38770   3.302   8.040   7.286 -1.1381  1.4818  0.2051
  281MOL0     H38771   3.143   8.048   7.219 -1.1812 -2.7398  2.8546
  281MOL0     H38772   3.117   7.818   7.183  1.3621 -0.7621 -0.6283
  281MOL0     H38773   3.154   7.859   7.345 -1.7211  0.4218 -1.4034
  281MOL0     H38774   3.489   7.621   7.221  0.6741  0.8152  0.4231
  281MOL0     H38775   3.439   8.381   7.331  3.9066  4.2543  1.6032
  281MOL0     H38776   3.536   8.539   7.429  2.6555  1.2225  0.7636
  281MOL0     H38777   3.557   8.700   7.360 -1.1254  1.7691  0.4686
  281MOL0     H38778   3.407   8.656   7.449  2.2550  1.7737  0.5635
  282MOL0     O38779   5.683   4.383   5.719 -0.5024  0.0015  0.1832
  282MOL0     C38780   5.715   4.495   5.679  0.6826  0.3047  0.0290
  282MOL0     O38781   5.830   4.550   5.715  0.1908 -0.0311 -1.0671
  282MOL0     C38782   5.922   4.480   5.799 -0.5001  0.0092  0.1285
  282MOL0     C38783   5.931   4.496   5.935 -0.0463 -0.6031  0.0009
  282MOL0     C38784   6.025   4.434   6.010 -0.0096  0.6168 -0.3166
  282MOL0     C38785   6.117   4.346   5.954 -1.1248  0.2686 -0.0940
  282MOL0     O38786   6.199   4.271   6.026 -0.4307  0.1883  0.0928
  282MOL0     C38787   6.278   4.343   6.121  0.1832 -0.0616 -0.4666
  282MOL0     C38788   6.390   4.249   6.180 -0.5170 -0.3307  0.4097
  282MOL0     C38789   6.355   4.096   6.209 -1.0135  0.5082  0.2733
  282MOL0     C38790   6.221   4.060   6.261  0.6170 -0.1216 -0.9401
  282MOL0     C38791   6.196   4.107   6.416  0.7300 -0.8200 -0.4843
  282MOL0     C38792   6.051   4.099   6.459  0.1543 -0.4859 -0.5166
  282MOL0     C38793   5.957   4.198   6.383  0.3351  0.3199  0.8136
  282MOL0     C38794   5.808   4.177   6.420 -0.0689 -0.4775  0.0522
  282MOL0     N38795   5.732   4.287   6.369  0.8234  0.5936  0.9963
  282MOL0     C38796   5.712   4.328   6.241 -0.3711  0.3234  0.2232
  282MOL0     C38797   5.660   4.453   6.235 -0.6639  0.4138  0.3336
  282MOL0     C38798   5.625   4.531   6.112 -0.1163 -0.1690  0.0108
  282MOL0     C38799   5.475   4.524   6.096  0.5146 -0.9437  0.2162
  282MOL0     C38800   5.429   4.575   5.960 -0.7150  0.9028 -0.3083
  282MOL0     C38801   5.275   4.552   5.960  0.4667 -0.4314 -0.6472
  282MOL0     O38802   5.215   4.619   5.846  0.0673 -0.1355 -0.3139
  282MOL0     C38803   5.223   4.751   5.835 -0.2604 -0.6674 -1.1472
  282MOL0     C38804   5.126   4.837   5.888 -0.0328 -0.6878 -0.2502
  282MOL0     C38805   5.122   4.976   5.855  0.1690 -0.0620 -0.1076
  282MOL0     C38806   5.019   5.072   5.912 -0.0089 -0.3742 -0.5809
  282MOL0     C38807   5.227   5.016   5.770  0.0709  0.7907 -0.4864
  282MOL0     C38808   5.246   5.160   5.734  0.4520  0.2243 -0.2475
  282MOL0     O38809   5.158   5.205   5.638  0.3637  0.1882 -0.4111
  282MOL0     C38810   5.173   5.322   5.571 -0.4222 -1.0101 -0.3622
  282MOL0     C38811   5.295   5.405   5.549  0.0031  1.0993  0.3991
  282MOL0     C38812   5.291   5.505   5.459  0.2325 -0.4546  0.3866
  282MOL0     C38813   5.179   5.546   5.396  0.0891 -0.5080  1.4330
  282MOL0     O38814   5.185   5.652   5.308  0.6882  0.1136 -0.1395
  282MOL0     C38815   5.179   5.786   5.371  0.3283 -0.3668  0.5515
  282MOL0     C38816   5.035   5.801   5.430 -0.1070  0.0686 -0.2236
  282MOL0     C38817   4.996   5.958   5.452  0.0548  1.1895 -0.0014
  282MOL0     C38818   5.089   6.031   5.558  0.8103 -0.3758 -1.2125
  282MOL0     C38819   5.048   6.183   5.552 -0.8762 -0.4987 -0.6430
  282MOL0     C38820   5.107   6.268   5.662  0.1793  0.0381  0.2510
  282MOL0     C38821   5.072   6.239   5.811 -0.6599  0.9831  0.0157
  282MOL0     C38822   4.940   6.297   5.849 -0.1686  0.1488  0.3069
  282MOL0    Cl38823   4.945   6.472   5.879 -0.4532 -0.4663  0.5007
  282MOL0     C38824   5.062   5.469   5.424  1.1460 -0.8001 -0.8731
  282MOL0     C38825   5.059   5.356   5.504 -0.3597 -0.1382  0.6245
  282MOL0     O38826   5.330   5.227   5.783 -0.3152 -0.3141 -0.4268
  282MOL0     C38827   5.323   4.929   5.713 -0.1319  0.1876 -0.5875
  282MOL0     C38828   5.320   4.799   5.750  0.0288 -0.9094  0.0183
  282MOL0     N38829   5.642   4.479   6.371 -0.3796 -1.0365  0.0281
  282MOL0     N38830   5.690   4.385   6.447 -0.9165 -0.5979 -0.1886
  282MOL0     C38831   6.113   4.338   5.811 -0.3314  0.0626  0.2543
  282MOL0     C38832   6.014   4.399   5.736  0.0941 -0.2300 -0.0753
  282MOL0     C38833   5.611   4.571   5.594  1.3387  0.6200 -0.5245
  282MOL0     C38834   5.639   4.700   5.555  0.9321 -0.5135  0.1650
  282MOL0     C38835   5.552   4.763   5.465 -0.9630  0.0802 -0.2392
  282MOL0     C38836   5.430   4.710   5.424 -0.1475 -0.1019  0.5502
  282MOL0     O38837   5.340   4.762   5.339 -0.3883 -0.2901  0.5803
  282MOL0     C38838   5.310   4.906   5.353 -1.2629 -1.2342 -0.3057
  282MOL0     C38839   5.235   4.953   5.234 -0.1067 -0.4879  0.7895
  282MOL0     C38840   5.207   5.107   5.258 -0.0615  0.6970  0.1890
  282MOL0     C38841   5.108   5.172   5.156  0.0359  0.1575  1.2161
  282MOL0     C38842   5.150   5.146   5.023 -0.0370 -0.3842  0.3337
  282MOL0     C38843   5.168   5.123   4.907  0.0294  0.2925 -0.8697
  282MOL0     C38844   5.400   4.585   5.468  1.1685  0.9722  1.1789
  282MOL0     C38845   5.479   4.513   5.555 -0.3456 -0.2747 -1.3051
  282MOL0     C38846   5.436   4.372   5.585  0.5373 -0.1716  0.4652
  282MOL0     H38847   5.861   4.569   5.974  0.7277  0.3287 -0.3080
  282MOL0     H38848   6.034   4.452   6.117  1.1421 -4.2603  0.6368
  282MOL0     H38849   6.214   4.365   6.208  1.2965 -0.3601  0.4461
  282MOL0     H38850   6.324   4.434   6.084 -1.5668  0.5003 -1.3990
  282MOL0     H38851   6.485   4.246   6.126  0.2184  2.5640  1.3445
  282MOL0     H38852   6.437   4.299   6.266  3.0593 -1.5364 -0.6546
  282MOL0     H38853   6.372   4.053   6.110 -0.6592  2.9292 -0.7812
  282MOL0     H38854   6.422   4.053   6.284 -2.2739  0.1979  1.2563
  282MOL0     H38855   6.144   4.079   6.186  1.2442  0.3953 -1.4673
  282MOL0     H38856   6.215   3.951   6.261 -0.4940 -0.1538 -3.6025
  282MOL0     H38857   6.221   4.213   6.417 -1.8270 -0.0293 -3.2402
  282MOL0     H38858   6.258   4.051   6.485  1.2627 -0.4892 -0.6880
  282MOL0     H38859   6.022   3.998   6.427 -2.9608 -0.2547  1.2491
  282MOL0     H38860   6.046   4.119   6.566  0.0362 -0.2846 -0.5591
  282MOL0     H38861   5.966   4.170   6.277  1.2265 -3.1896  1.6596
  282MOL0     H38862   5.981   4.304   6.394  0.3061  0.7171 -2.1755
  282MOL0     H38863   5.759   4.085   6.388 -2.5874  0.8623 -0.2243
  282MOL0     H38864   5.813   4.183   6.529 -2.5019  0.8572  0.1641
  282MOL0     H38865   5.735   4.258   6.161 -0.0829 -1.2313  1.6371
  282MOL0     H38866   5.665   4.487   6.020 -0.2382 -0.5434  0.1359
  282MOL0     H38867   5.660   4.634   6.124  0.4005 -0.5061  1.7267
  282MOL0     H38868   5.436   4.424   6.114 -0.4849 -0.4416  0.9480
  282MOL0     H38869   5.435   4.589   6.174 -2.2379 -1.4852 -0.6294
  282MOL0     H38870   5.456   4.680   5.946 -0.6419  0.7366 -1.4609
  282MOL0     H38871   5.474   4.511   5.884  2.5108 -2.2104  3.7215
  282MOL0     H38872   5.237   4.450   5.960  0.7974 -0.5603  0.0399
  282MOL0     H38873   5.234   4.593   6.053  0.3452 -0.8526 -0.5144
  282MOL0     H38874   5.044   4.791   5.942  1.7587 -4.0931 -0.1793
  282MOL0     H38875   4.937   5.091   5.843 -0.4291  1.9341  0.4845
  282MOL0     H38876   5.057   5.164   5.958 -5.2199 -0.0380  4.0225
  282MOL0     H38877   4.987   5.026   6.006  3.5698  1.2450  1.6657
  282MOL0     H38878   5.388   5.369   5.594 -0.5359 -0.4188  0.3590
  282MOL0     H38879   5.377   5.568   5.438 -0.5040  0.5379  0.2440
  282MOL0     H38880   5.268   5.807   5.433  1.7046 -0.6865 -1.2340
  282MOL0     H38881   5.191   5.859   5.291 -0.1049 -1.6644 -0.7539
  282MOL0     H38882   4.958   5.756   5.367  0.3993  0.8715 -1.4606
  282MOL0     H38883   5.029   5.756   5.529 -1.1385 -1.3516 -0.8938
  282MOL0     H38884   4.892   5.959   5.486  0.0053 -2.0704  0.2715
  282MOL0     H38885   5.007   6.009   5.355  0.8512 -2.2933 -1.9027
  282MOL0     H38886   5.194   6.017   5.533  0.5501 -3.1270 -1.0574
  282MOL0     H38887   5.071   5.979   5.653  1.9236 -1.1113 -1.3851
  282MOL0     H38888   5.088   6.213   5.455  1.8588 -2.9754 -0.4030
  282MOL0     H38889   4.942   6.211   5.556 -1.1745 -0.8290 -3.5170
  282MOL0     H38890   5.067   6.368   5.644 -0.1853  0.4624  2.9267
  282MOL0     H38891   5.215   6.276   5.651  0.1590  2.5477  1.1518
  282MOL0     H38892   5.154   6.272   5.876  1.6695 -1.5037 -1.4869
  282MOL0     H38893   5.072   6.131   5.826  1.9346  0.7964 -0.7253
  282MOL0     H38894   4.895   6.242   5.932 -2.9864  0.3428 -0.9892
  282MOL0     H38895   4.864   6.275   5.774 -0.3123 -2.2131  1.0787
  282MOL0     H38896   4.974   5.513   5.379  1.0148 -0.4823 -0.3058
  282MOL0     H38897   4.968   5.297   5.500 -1.2870  1.2449  0.8026
  282MOL0     H38898   5.397   4.969   5.645  2.4924 -1.6517  1.0217
  282MOL0     H38899   5.392   4.736   5.699  2.9120  1.1689  1.2766
  282MOL0     H38900   6.178   4.273   5.754 -2.3626 -0.3939 -1.6559
  282MOL0     H38901   6.013   4.387   5.628 -0.2412  4.0400 -0.7119
  282MOL0     H38902   5.727   4.745   5.599  0.7332 -2.8584  3.3312
  282MOL0     H38903   5.578   4.865   5.438 -0.4193 -0.1061 -0.4464
  282MOL0     H38904   5.243   4.925   5.437 -0.4177  2.5148 -0.2817
  282MOL0     H38905   5.393   4.976   5.364 -0.9248 -1.8969  1.6015
  282MOL0     H38906   5.139   4.901   5.229 -1.0471  0.2039  5.8121
  282MOL0     H38907   5.299   4.947   5.146 -1.1732 -0.7609  0.0042
  282MOL0     H38908   5.167   5.123   5.358  1.4393  1.2835  0.7240
  282MOL0     H38909   5.302   5.161   5.248  1.9206 -2.6820 -1.0546
  282MOL0     H38910   5.111   5.279   5.176  0.0509  0.5456 -0.6631
  282MOL0     H38911   5.003   5.147   5.174  0.0269 -0.3212  0.5472
  282MOL0     H38912   5.169   5.102   4.802 -1.1197 -2.2632 -0.4549
  282MOL0     H38913   5.304   4.546   5.436  1.4789  1.4393 -0.3825
  282MOL0     H38914   5.499   4.293   5.543 -2.1841  0.4875 -6.1311
  282MOL0     H38915   5.428   4.349   5.691  1.1069  3.8611  1.5487
  282MOL0     H38916   5.333   4.362   5.551  0.6501 -0.8852  0.3287
  283MOL0     O38917   2.397  10.157   7.949 -1.0795  0.0661 -0.6351
  283MOL0     C38918   2.396  10.180   8.068  0.4437  0.1296 -1.1318
  283MOL0     O38919   2.458  10.286   8.134  1.1819  0.3677 -0.4516
  283MOL0     C38920   2.563  10.357   8.076 -0.4514  0.0321 -0.1953
  283MOL0     C38921   2.566  10.499   8.059 -0.0695  1.1423 -0.0595
  283MOL0     C38922   2.676  10.567   8.003 -0.1317 -0.4359  0.2805
  283MOL0     C38923   2.782  10.493   7.958  0.1603 -0.0533  0.1768
  283MOL0     O38924   2.901  10.536   7.910  0.4472  0.0284  0.3740
  283MOL0     C38925   2.900  10.672   7.856 -0.1306  0.1071  0.0105
  283MOL0     C38926   3.037  10.686   7.786 -0.4203  0.2594 -0.5530
  283MOL0     C38927   3.157  10.649   7.879  0.7125  0.1525 -0.3711
  283MOL0     C38928   3.241  10.536   7.838  0.5050  0.2011  0.1938
  283MOL0     C38929   3.363  10.520   7.931  0.2771  0.2679  0.1521
  283MOL0     C38930   3.451  10.393   7.920 -0.6944  0.1307  0.4378
  283MOL0     C38931   3.477  10.362   7.779 -0.6962 -0.0733  0.2073
  283MOL0     C38932   3.598  10.263   7.756 -0.3004 -0.5201 -0.4988
  283MOL0     N38933   3.617  10.255   7.617 -0.5295  0.0532 -0.1952
  283MOL0     C38934   3.539  10.179   7.532  0.3105 -0.4847  0.3758
  283MOL0     C38935   3.585  10.211   7.411 -0.4692 -1.0998  1.2315
  283MOL0     C38936   3.538  10.150   7.284  0.0592  0.8899 -1.6815
  283MOL0     C38937   3.428  10.235   7.213  0.7302  0.2100  0.8464
  283MOL0     C38938   3.312  10.142   7.156 -0.6036 -0.2308  0.2883
  283MOL0     C38939   3.194  10.245   7.127 -0.0292 -0.1762  0.1819
  283MOL0     O38940   3.221  10.323   7.016  0.1378 -0.4644 -0.3068
  283MOL0     C38941   3.149  10.441   6.994 -0.1122 -0.1578 -0.4849
  283MOL0     C38942   3.038  10.488   7.068 -0.7287 -0.1753 -0.0986
  283MOL0     C38943   2.987  10.617   7.037 -0.3870  0.2790  0.0115
  283MOL0     C38944   2.865  10.665   7.116  1.2109 -0.0915  0.0056
  283MOL0     C38945   3.041  10.692   6.926 -0.0789  0.2793  0.3832
  283MOL0     C38946   2.994  10.827   6.892 -0.9091  0.7002 -0.5591
  283MOL0     O38947   3.045  10.864   6.770 -0.7349  0.1813  0.2907
  283MOL0     C38948   3.051  10.999   6.735 -0.3164 -0.0758 -0.6445
  283MOL0     C38949   3.067  11.110   6.817 -0.9024  0.2933  0.6000
  283MOL0     C38950   3.081  11.243   6.759  0.1831  0.2631 -0.2400
  283MOL0     C38951   3.038  11.269   6.628  0.5972  0.3477 -0.6432
  283MOL0     O38952   3.013  11.395   6.579 -0.3420 -0.5951 -0.3717
  283MOL0     C38953   2.895  11.460   6.617 -0.1764  0.2004 -0.1185
  283MOL0     C38954   2.933  11.597   6.671 -0.2927 -0.1974 -0.7405
  283MOL0     C38955   2.896  11.711   6.576  0.8557  0.3022 -0.9232
  283MOL0     C38956   2.992  11.713   6.461  0.0808 -0.0777 -0.2394
  283MOL0     C38957   2.948  11.816   6.348  0.4899  1.0852 -0.4348
  283MOL0     C38958   2.975  11.962   6.401  0.7086  0.5963  0.1670
  283MOL0     C38959   2.951  12.072   6.302  0.0906  0.4313 -0.6714
  283MOL0     C38960   2.965  12.216   6.343 -0.6270 -0.8173  0.5445
  283MOL0    Cl38961   3.140  12.263   6.365 -0.1221  0.1915  0.0029
  283MOL0     C38962   2.983  11.160   6.564 -0.6122 -0.0791 -0.3934
  283MOL0     C38963   3.005  11.028   6.614 -0.0924  0.3931  0.3235
  283MOL0     O38964   2.944  10.902   6.976 -0.4238 -0.7044  1.0421
  283MOL0     C38965   3.142  10.637   6.848 -0.5878  0.3688 -0.8306
  283MOL0     C38966   3.200  10.515   6.885 -0.6916  1.1083  0.4942
  283MOL0     N38967   3.680  10.308   7.420 -1.0075  0.3253 -0.7101
  283MOL0     N38968   3.709  10.330   7.545  1.2417  0.6684  0.4460
  283MOL0     C38969   2.769  10.353   7.963 -0.2654 -0.0455  0.4436
  283MOL0     C38970   2.670  10.282   8.035  0.9031 -0.0697  0.4161
  283MOL0     C38971   2.302  10.095   8.145 -0.9555 -0.1098  0.2409
  283MOL0     C38972   2.292  10.106   8.286 -0.2707  0.3023 -0.2816
  283MOL0     C38973   2.224  10.008   8.366 -0.8726 -0.6884  0.8688
  283MOL0     C38974   2.156   9.905   8.311 -0.6217  0.2612  0.6894
  283MOL0     O38975   2.087   9.817   8.398 -0.4086 -0.9354 -0.2734
  283MOL0     C38976   2.136   9.687   8.407 -1.0141 -1.1365  0.1151
  283MOL0     C38977   2.122   9.660   8.555 -0.8318  0.4533 -0.6423
  283MOL0     C38978   1.974   9.634   8.586  0.3216 -0.4685 -0.4696
  283MOL0     C38979   1.920   9.606   8.724  0.2626  1.1026  0.6037
  283MOL0     C38980   1.958   9.477   8.791  0.7691  0.4509  0.7498
  283MOL0     C38981   1.988   9.374   8.850 -0.9857 -0.0390  0.1002
  283MOL0     C38982   2.167   9.885   8.175 -0.7695  0.2843  0.7640
  283MOL0     C38983   2.235   9.979   8.083  0.1850  0.6925 -0.3873
  283MOL0     C38984   2.226   9.937   7.940 -0.6084  0.0575 -0.3946
  283MOL0     H38985   2.481  10.556   8.093  0.2642  0.0782  2.9067
  283MOL0     H38986   2.679  10.674   7.984  3.3418 -0.4163  0.4231
  283MOL0     H38987   2.895  10.743   7.939 -3.5311  0.5454 -0.4341
  283MOL0     H38988   2.823  10.708   7.787  0.4804  0.9387 -0.2466
  283MOL0     H38989   3.041  10.636   7.689  1.8340  1.1572 -0.9919
  283MOL0     H38990   3.047  10.791   7.757 -1.6935  0.7706  0.6974
  283MOL0     H38991   3.218  10.740   7.881 -0.4446  0.9712 -0.9358
  283MOL0     H38992   3.122  10.629   7.981  1.1842 -2.0892 -0.6041
  283MOL0     H38993   3.168  10.455   7.846  2.3467 -1.7551 -1.4305
  283MOL0     H38994   3.271  10.541   7.733  1.1597 -1.7648  0.2586
  283MOL0     H38995   3.328  10.537   8.033  0.7918 -1.3482  0.6281
  283MOL0     H38996   3.428  10.602   7.898 -2.1784  2.6923  0.9598
  283MOL0     H38997   3.544  10.405   7.976  0.7407 -2.4657 -1.1969
  283MOL0     H38998   3.387  10.316   7.964 -0.9421 -0.1203 -0.3451
  283MOL0     H38999   3.499  10.448   7.714  2.0947 -1.4303 -0.7931
  283MOL0     H39000   3.389  10.317   7.733 -0.4218 -1.4378  0.9811
  283MOL0     H39001   3.680  10.304   7.816 -2.1306  0.9855  1.1294
  283MOL0     H39002   3.567  10.165   7.793 -0.5698 -0.6523 -1.0621
  283MOL0     H39003   3.465  10.105   7.560  0.2969 -0.1010  1.3909
  283MOL0     H39004   3.512  10.045   7.297  0.2642  0.5567 -3.6658
  283MOL0     H39005   3.624  10.152   7.217 -0.3557 -0.1377 -2.2768
  283MOL0     H39006   3.400  10.323   7.273  1.2501 -0.2132  1.7271
  283MOL0     H39007   3.464  10.287   7.124 -0.6222  0.4240  0.4012
  283MOL0     H39008   3.369  10.092   7.077  1.4671 -1.6122  2.5632
  283MOL0     H39009   3.277  10.077   7.236  0.9360 -0.2253  1.0008
  283MOL0     H39010   3.116  10.173   7.100  1.4086 -2.2342  1.2120
  283MOL0     H39011   3.161  10.293   7.220  0.8252  2.3547 -0.7515
  283MOL0     H39012   3.006  10.424   7.150 -0.5946  0.4761  0.4685
  283MOL0     H39013   2.888  10.739   7.192 -2.1428  1.2510 -0.0869
  283MOL0     H39014   2.813  10.580   7.163 -3.3338  0.7702 -2.7896
  283MOL0     H39015   2.787  10.717   7.059 -0.6949 -0.7613  1.8485
  283MOL0     H39016   3.088  11.092   6.922 -1.7140 -2.0032  0.4239
  283MOL0     H39017   3.112  11.327   6.821 -0.0926  0.5747 -0.5178
  283MOL0     H39018   2.833  11.461   6.527  1.6573  2.2030 -1.4227
  283MOL0     H39019   2.843  11.410   6.700 -0.0710  1.4461  0.7249
  283MOL0     H39020   2.871  11.622   6.758 -2.3116 -5.0204 -0.4536
  283MOL0     H39021   3.040  11.589   6.692 -0.2853  1.3995 -0.0218
  283MOL0     H39022   2.905  11.811   6.621 -0.7013  0.4287 -0.8501
  283MOL0     H39023   2.792  11.712   6.542  0.2027 -0.2693  0.9505
  283MOL0     H39024   2.990  11.614   6.415  1.0551 -0.3082  0.1834
  283MOL0     H39025   3.088  11.750   6.497 -2.0862  4.7130  1.4224
  283MOL0     H39026   3.003  11.796   6.256  1.2147  2.1022 -0.2341
  283MOL0     H39027   2.843  11.801   6.323  0.6555  0.9131 -1.0515
  283MOL0     H39028   3.077  11.972   6.438  0.9655 -2.3579  0.4720
  283MOL0     H39029   2.906  11.985   6.483  0.7727 -2.7156  1.2929
  283MOL0     H39030   2.850  12.061   6.260 -0.1599  0.2831 -0.0484
  283MOL0     H39031   3.020  12.059   6.218 -1.3679  0.1354 -1.8725
  283MOL0     H39032   2.909  12.244   6.432 -1.2629 -0.6517  0.0976
  283MOL0     H39033   2.928  12.284   6.266 -0.7617  0.6628  1.8483
  283MOL0     H39034   2.946  11.184   6.465  1.7056 -2.1913 -1.8973
  283MOL0     H39035   2.988  10.939   6.554  3.8914 -2.6408  3.0901
  283MOL0     H39036   3.200  10.688   6.772 -1.0113  1.5045 -0.4137
  283MOL0     H39037   3.280  10.469   6.827 -2.1432 -0.6635 -0.2074
  283MOL0     H39038   2.849  10.285   7.937 -0.8999  0.0193 -1.9397
  283MOL0     H39039   2.675  10.174   8.041  0.4656 -0.1905 -0.9562
  283MOL0     H39040   2.355  10.188   8.318  0.5576 -0.1463 -0.7287
  283MOL0     H39041   2.221  10.014   8.474  3.4999 -0.0626  1.1627
  283MOL0     H39042   2.073   9.623   8.345 -0.0885  0.4737 -2.6375
  283MOL0     H39043   2.241   9.691   8.379 -0.8075  1.5652  1.0050
  283MOL0     H39044   2.159   9.739   8.621 -0.8912  1.8661 -2.2359
  283MOL0     H39045   2.180   9.571   8.581 -0.5448  0.7378 -0.3148
  283MOL0     H39046   1.912   9.721   8.565  1.5563  0.3145 -1.0067
  283MOL0     H39047   1.942   9.553   8.521 -0.1282 -1.3361  0.7940
  283MOL0     H39048   1.811   9.604   8.720  0.2613  1.1485  0.6215
  283MOL0     H39049   1.940   9.687   8.795  1.7366  0.8885  0.4683
  283MOL0     H39050   2.015   9.275   8.880  2.3172  0.6462 -0.2269
  283MOL0     H39051   2.108   9.802   8.138 -1.3032 -0.2694  2.7855
  283MOL0     H39052   2.319   9.891   7.904  0.9038 -0.6261  3.7609
  283MOL0     H39053   2.156   9.856   7.921  1.6344 -1.5430 -2.3533
  283MOL0     H39054   2.197  10.020   7.875 -0.4466 -1.0170 -1.8904
  284MOL0     O39055   9.127   9.987   1.941  1.0696 -0.2365 -0.5804
  284MOL0     C39056   9.211  10.041   2.010  0.0805 -0.3172  0.0701
  284MOL0     O39057   9.320  10.107   1.959 -0.9328  0.3815 -0.1746
  284MOL0     C39058   9.316  10.131   1.823  0.5415 -0.7563  0.3325
  284MOL0     C39059   9.431  10.095   1.747  0.0483 -0.2054  0.7006
  284MOL0     C39060   9.428  10.122   1.608 -0.2035 -0.7716 -0.5368
  284MOL0     C39061   9.321  10.179   1.546 -0.4138 -0.4412  0.2392
  284MOL0     O39062   9.316  10.199   1.412  0.2396  0.9420  0.1659
  284MOL0     C39063   9.426  10.186   1.323  0.0249  0.4364  0.2335
  284MOL0     C39064   9.389  10.201   1.172  0.3571  0.6176 -0.4629
  284MOL0     C39065   9.271  10.122   1.133 -0.5964  0.4331 -0.4491
  284MOL0     C39066   9.261  10.153   0.972  0.1231  0.2579 -0.5967
  284MOL0     C39067   9.141  10.088   0.921  0.4862 -0.6548  1.2221
  284MOL0     C39068   9.160  10.073   0.763 -1.2265 -0.6665  0.1079
  284MOL0     C39069   9.027  10.052   0.686  0.0254  0.4694  0.1529
  284MOL0     C39070   8.978   9.902   0.692  0.1562 -0.6947 -0.1407
  284MOL0     N39071   9.074   9.819   0.615 -0.3965  0.5276  0.4940
  284MOL0     C39072   9.090   9.688   0.646 -0.6030 -0.7521  0.4360
  284MOL0     C39073   9.211   9.655   0.600  0.9676  0.2492  0.1103
  284MOL0     C39074   9.298   9.534   0.613  0.3078 -0.0465  0.7074
  284MOL0     C39075   9.325   9.465   0.475 -0.3232  0.1948  0.1542
  284MOL0     C39076   9.385   9.328   0.482  0.5419  0.6684  0.4002
  284MOL0     C39077   9.275   9.229   0.509  0.2427 -0.7622 -0.2420
  284MOL0     O39078   9.341   9.111   0.495  0.0838  0.6597  0.1542
  284MOL0     C39079   9.282   8.988   0.492 -0.0573  0.0615  0.0597
  284MOL0     C39080   9.141   8.961   0.510 -0.0027 -0.0918 -0.9350
  284MOL0     C39081   9.089   8.833   0.501 -1.0041  0.7714  1.2608
  284MOL0     C39082   8.946   8.823   0.533  0.0231 -0.2892 -0.1039
  284MOL0     C39083   9.181   8.721   0.482 -0.0641  0.1471  0.6299
  284MOL0     C39084   9.150   8.582   0.473  0.1714 -0.3813 -0.0012
  284MOL0     O39085   9.253   8.511   0.441  0.2399 -0.3027 -0.2493
  284MOL0     C39086   9.233   8.378   0.404 -0.9976 -0.5741  0.7798
  284MOL0     C39087   9.322   8.274   0.445  0.1649 -0.2307 -1.0293
  284MOL0     C39088   9.307   8.137   0.411  0.9153 -0.4469  0.0654
  284MOL0     C39089   9.208   8.096   0.322 -0.4483 -0.2660 -0.4304
  284MOL0     O39090   9.183   7.965   0.300 -0.1694 -0.0160  1.3116
  284MOL0     C39091   9.050   7.922   0.328 -0.7406 -0.1024 -0.2563
  284MOL0     C39092   9.032   7.771   0.307  0.7880 -0.1147 -0.8534
  284MOL0     C39093   9.146   7.677   0.362  0.5554 -0.6861  0.3231
  284MOL0     C39094   9.194   7.711   0.506 -0.0616  0.6028 -0.8949
  284MOL0     C39095   9.069   7.684   0.598 -0.7376  0.3630 -0.4372
  284MOL0     C39096   9.102   7.601   0.719 -0.0030  0.1617  0.3002
  284MOL0     C39097   8.984   7.557   0.803  1.4946  0.7327 -0.0583
  284MOL0     C39098   9.004   7.422   0.866 -0.9853 -1.1455 -0.4528
  284MOL0    Cl39099   9.155   7.398   0.963  0.2133  0.3432  0.1146
  284MOL0     C39100   9.126   8.201   0.268 -0.1635  0.8492 -0.2312
  284MOL0     C39101   9.141   8.330   0.308  0.7579 -0.7264 -0.5448
  284MOL0     O39102   9.034   8.547   0.476 -0.1516 -0.2341  0.1449
  284MOL0     C39103   9.320   8.752   0.474 -0.2019  0.7556  0.9133
  284MOL0     C39104   9.374   8.882   0.470 -0.2365 -0.9301 -0.0410
  284MOL0     N39105   9.251   9.764   0.522 -0.0238  0.0967 -0.7329
  284MOL0     N39106   9.173   9.859   0.532 -0.1093 -0.0391 -0.6473
  284MOL0     C39107   9.209  10.224   1.616  0.2225 -0.2071 -0.2322
  284MOL0     C39108   9.208  10.193   1.758 -0.0189  0.0449 -0.3441
  284MOL0     C39109   9.188  10.046   2.152 -0.6510 -0.2732 -1.1250
  284MOL0     C39110   9.150   9.925   2.226  1.0804  1.3583  1.0177
  284MOL0     C39111   9.131   9.929   2.367 -1.0537 -0.0388  0.5238
  284MOL0     C39112   9.155  10.046   2.443  0.5094  0.8064  0.0274
  284MOL0     O39113   9.150  10.036   2.580  0.3131 -0.7957 -0.4134
  284MOL0     C39114   9.026  10.076   2.657 -0.6492 -0.0929  0.1331
  284MOL0     C39115   9.047  10.055   2.807  0.1638  0.0258 -0.6373
  284MOL0     C39116   9.169  10.117   2.852 -0.4553  0.6930  0.2786
  284MOL0     C39117   9.182  10.148   3.003 -0.1890 -1.0949 -0.7236
  284MOL0     C39118   9.080  10.251   3.039 -1.5229 -0.9230  0.1350
  284MOL0     C39119   8.981  10.317   3.061  1.3472 -0.2145  0.1715
  284MOL0     C39120   9.170  10.160   2.373  0.2992  0.2011 -0.0142
  284MOL0     C39121   9.196  10.160   2.236  0.1113 -0.1618 -0.1185
  284MOL0     C39122   9.223  10.297   2.175 -1.9745  0.1946 -0.0008
  284MOL0     H39123   9.516  10.056   1.801  1.5231  0.0882 -1.3020
  284MOL0     H39124   9.512  10.085   1.551  0.8606 -1.6234  1.4881
  284MOL0     H39125   9.476  10.088   1.328 -0.6748  0.1488  2.6987
  284MOL0     H39126   9.512  10.251   1.338  0.5256  0.3219 -1.7671
  284MOL0     H39127   9.361  10.305   1.151 -2.6380  0.4561  1.9958
  284MOL0     H39128   9.475  10.169   1.113  0.0434  1.6175 -1.4933
  284MOL0     H39129   9.292  10.017   1.155 -2.4372 -0.0672 -0.8846
  284MOL0     H39130   9.180  10.155   1.182  0.3195 -0.6064  2.1128
  284MOL0     H39131   9.256  10.262   0.960 -2.4435  0.2630  0.0975
  284MOL0     H39132   9.353  10.121   0.921  0.8906 -0.2494  1.0360
  284MOL0     H39133   9.052  10.140   0.958  0.6503  0.4475  0.1457
  284MOL0     H39134   9.146   9.986   0.959 -2.9449 -1.4019 -0.0513
  284MOL0     H39135   9.200  10.169   0.729  0.4540 -1.2339  0.3816
  284MOL0     H39136   9.238  10.003   0.732  3.0800  3.4908  0.5041
  284MOL0     H39137   9.035  10.091   0.584 -3.9040  0.9810 -0.1289
  284MOL0     H39138   8.954  10.112   0.742 -0.1186  1.1155 -0.7036
  284MOL0     H39139   8.954   9.874   0.795  1.7339 -0.4994  0.3011
  284MOL0     H39140   8.884   9.888   0.638  1.0226  0.3346 -2.0270
  284MOL0     H39141   9.020   9.628   0.703 -2.0707  1.2680  0.9045
  284MOL0     H39142   9.252   9.472   0.691 -0.2324 -1.1754 -0.4757
  284MOL0     H39143   9.396   9.561   0.653  0.0771 -0.0048  1.2543
  284MOL0     H39144   9.238   9.472   0.408 -2.2529 -1.2433  2.3332
  284MOL0     H39145   9.397   9.526   0.421  1.6685 -2.5890 -0.5664
  284MOL0     H39146   9.424   9.311   0.382 -0.2114 -1.9300  0.4868
  284MOL0     H39147   9.459   9.321   0.562  0.4966 -2.4161  0.2815
  284MOL0     H39148   9.245   9.249   0.613  3.6501 -2.1865  1.1645
  284MOL0     H39149   9.196   9.253   0.437  1.5343  1.7350 -0.9510
  284MOL0     H39150   9.089   9.051   0.542  1.8505  0.9836 -0.8305
  284MOL0     H39151   8.889   8.777   0.452  0.5397 -1.1010 -0.0155
  284MOL0     H39152   8.898   8.921   0.539  1.9565  0.7270 -0.4722
  284MOL0     H39153   8.921   8.752   0.612 -0.2853 -0.8587 -0.7058
  284MOL0     H39154   9.399   8.310   0.511 -0.8501  1.6955 -0.8189
  284MOL0     H39155   9.369   8.059   0.454  0.5481  0.0157  1.5087
  284MOL0     H39156   9.023   7.935   0.433  1.8337  2.4611  0.1942
  284MOL0     H39157   8.981   7.981   0.266  0.8903  2.8815  0.5444
  284MOL0     H39158   8.933   7.747   0.348  1.9240  0.8277  2.7226
  284MOL0     H39159   9.036   7.750   0.199  2.3759 -2.0466 -0.4839
  284MOL0     H39160   9.236   7.676   0.300  0.8184 -4.8271  0.5302
  284MOL0     H39161   9.121   7.571   0.354 -1.0053 -0.2147 -2.4033
  284MOL0     H39162   9.225   7.815   0.517 -0.8436  0.8451 -0.8859
  284MOL0     H39163   9.278   7.644   0.523  0.0319  0.9381  0.0120
  284MOL0     H39164   9.029   7.781   0.629  0.0349  0.6508 -0.3291
  284MOL0     H39165   8.987   7.639   0.541 -0.2355  0.1976 -1.0431
  284MOL0     H39166   9.170   7.651   0.789 -2.4761  1.1163  2.1779
  284MOL0     H39167   9.157   7.519   0.671  1.2384  2.1575 -1.8607
  284MOL0     H39168   8.897   7.541   0.738  1.9721  1.8451 -0.9957
  284MOL0     H39169   8.946   7.626   0.878 -1.1292  0.9922 -1.5027
  284MOL0     H39170   9.005   7.343   0.790 -2.0926 -0.5670 -1.0985
  284MOL0     H39171   8.918   7.409   0.934 -0.0572  0.0939  1.0198
  284MOL0     H39172   9.059   8.178   0.186  2.0949 -2.3480 -1.3748
  284MOL0     H39173   9.079   8.406   0.261  0.6777 -1.5876 -1.8982
  284MOL0     H39174   9.395   8.674   0.485 -0.5646  0.0847 -0.9574
  284MOL0     H39175   9.482   8.889   0.469 -0.2210  1.5812  2.7051
  284MOL0     H39176   9.128  10.283   1.573  1.7398 -0.3207 -3.5223
  284MOL0     H39177   9.127  10.222   1.823 -0.1464 -4.8507  2.1311
  284MOL0     H39178   9.137   9.828   2.179  2.4021  0.9319  1.4842
  284MOL0     H39179   9.097   9.842   2.422  1.7947 -1.9194 -0.4445
  284MOL0     H39180   9.016  10.184   2.638  5.6377  0.8551  0.0863
  284MOL0     H39181   8.936  10.030   2.616 -2.5180  2.3600  1.2299
  284MOL0     H39182   9.050   9.947   2.824 -0.7765  0.2867  1.4408
  284MOL0     H39183   8.960  10.096   2.859 -0.2390 -2.2149  0.5817
  284MOL0     H39184   9.246  10.045   2.824 -0.6723  0.9674 -1.0976
  284MOL0     H39185   9.175  10.212   2.798 -2.8046  1.6185  1.4627
  284MOL0     H39186   9.285  10.178   3.028 -0.2871 -2.3611  1.4353
  284MOL0     H39187   9.171  10.064   3.072 -0.1045  0.7417  1.6761
  284MOL0     H39188   8.910  10.395   3.080 -1.5844 -3.1134  2.2172
  284MOL0     H39189   9.164  10.244   2.441  0.6813  0.5281 -0.3787
  284MOL0     H39190   9.170  10.362   2.245 -2.7546 -0.9320  0.4708
  284MOL0     H39191   9.329  10.324   2.169 -1.9264 -0.2470 -3.2162
  284MOL0     H39192   9.184  10.327   2.077 -0.0247 -0.9709 -1.2149
  285MOL0     O39193   7.190   7.592   5.236  0.8623 -0.8980  0.2117
  285MOL0     C39194   7.294   7.622   5.183 -0.8869 -0.9649 -0.5242
  285MOL0     O39195   7.318   7.743   5.115  0.6652  0.5871 -0.8928
  285MOL0     C39196   7.215   7.833   5.117 -0.8688 -0.2302  0.3924
  285MOL0     C39197   7.231   7.955   5.190 -0.7830  0.2860  0.9379
  285MOL0     C39198   7.133   8.051   5.179  0.0673  0.8173 -0.0138
  285MOL0     C39199   7.011   8.028   5.116 -0.1510  0.6436 -0.5730
  285MOL0     O39200   6.914   8.120   5.145  0.1381  0.4338 -0.2260
  285MOL0     C39201   6.941   8.254   5.103  0.2473 -0.1485 -0.3367
  285MOL0     C39202   6.800   8.322   5.083  0.6477  0.0636 -0.8331
  285MOL0     C39203   6.767   8.402   5.217  0.4051  0.0528  0.1037
  285MOL0     C39204   6.643   8.350   5.289  0.0402 -0.6531  0.5973
  285MOL0     C39205   6.604   8.439   5.410  0.6733 -0.0999  1.0093
  285MOL0     C39206   6.535   8.571   5.371  0.1473 -0.2376  0.5750
  285MOL0     C39207   6.473   8.646   5.497 -0.4559  0.6952  0.2548
  285MOL0     C39208   6.432   8.797   5.469  0.0559  0.9684  0.7109
  285MOL0     N39209   6.374   8.848   5.592  0.6679  0.1949 -0.3643
  285MOL0     C39210   6.461   8.890   5.692  0.0091  1.6203 -1.2114
  285MOL0     C39211   6.376   8.916   5.792  0.1546  0.0831  0.2449
  285MOL0     C39212   6.414   8.958   5.929 -0.3484 -0.8463 -0.4593
  285MOL0     C39213   6.520   8.865   5.991  0.6156  0.2578 -0.1910
  285MOL0     C39214   6.549   8.916   6.132 -0.2708  0.1037  0.3816
  285MOL0     C39215   6.464   8.866   6.246  0.5175  0.0636  0.4710
  285MOL0     O39216   6.522   8.903   6.365 -0.3547 -0.1926 -0.2384
  285MOL0     C39217   6.446   8.992   6.439  0.5549 -0.4255  0.5510
  285MOL0     C39218   6.329   8.951   6.509 -0.5571  0.7226  0.0111
  285MOL0     C39219   6.256   9.042   6.586 -0.4423  0.1749 -0.0205
  285MOL0     C39220   6.134   8.976   6.656 -0.4531 -0.4017  0.5860
  285MOL0     C39221   6.291   9.180   6.588  0.3756  0.8970 -0.8230
  285MOL0     C39222   6.213   9.282   6.659 -0.0999  0.0317 -0.2707
  285MOL0     O39223   6.247   9.418   6.629  0.1808  0.4746 -0.3828
  285MOL0     C39224   6.197   9.519   6.712  0.9787  0.2148 -0.5006
  285MOL0     C39225   6.086   9.593   6.673  0.6261 -0.5121 -0.2595
  285MOL0     C39226   6.025   9.689   6.757 -1.2303 -0.0459 -0.3017
  285MOL0     C39227   6.080   9.711   6.887 -0.1714  0.0009  0.0576
  285MOL0     O39228   6.018   9.805   6.976 -0.1395 -0.7028  1.3190
  285MOL0     C39229   5.923   9.742   7.059 -0.0211  0.2502 -0.2707
  285MOL0     C39230   5.866   9.849   7.155 -0.0194 -0.2764  0.3237
  285MOL0     C39231   5.795   9.784   7.270  0.2145 -0.3418  0.6642
  285MOL0     C39232   5.696   9.874   7.331 -0.7676  0.3242 -0.1639
  285MOL0     C39233   5.585   9.798   7.403 -0.4289 -0.7437  0.1632
  285MOL0     C39234   5.620   9.731   7.539  0.0744  1.1557 -0.2281
  285MOL0     C39235   5.635   9.848   7.649  0.3797  0.9297  0.4309
  285MOL0     C39236   5.641   9.790   7.786  0.2560 -1.4682  0.2478
  285MOL0    Cl39237   5.654   9.950   7.882  0.0667  0.2942  0.2355
  285MOL0     C39238   6.203   9.639   6.920  0.0495 -0.1960 -0.1196
  285MOL0     C39239   6.252   9.541   6.837  0.3312  0.7199 -0.1320
  285MOL0     O39240   6.124   9.251   6.735 -0.3236  0.5118  0.5893
  285MOL0     C39241   6.405   9.220   6.512  1.2208  0.0235  0.1830
  285MOL0     C39242   6.487   9.128   6.443 -0.0648 -0.4214  0.1963
  285MOL0     N39243   6.249   8.900   5.742  0.0293  0.8614  0.0401
  285MOL0     N39244   6.244   8.858   5.626 -0.7478  0.4928 -0.4082
  285MOL0     C39245   6.985   7.901   5.064 -0.0479  0.4908  0.4993
  285MOL0     C39246   7.093   7.805   5.051 -0.1406  0.5061  0.0022
  285MOL0     C39247   7.396   7.525   5.180 -1.1586 -0.3716 -0.1147
  285MOL0     C39248   7.372   7.390   5.155  0.5956 -0.3462 -0.7438
  285MOL0     C39249   7.469   7.290   5.164  0.2881 -0.0036  1.1511
  285MOL0     C39250   7.601   7.336   5.177 -0.2522 -0.3485  0.6487
  285MOL0     O39251   7.701   7.235   5.169  0.2445  0.0691 -0.7032
  285MOL0     C39252   7.804   7.240   5.271  0.2673 -0.7511 -0.2106
  285MOL0     C39253   7.878   7.116   5.298 -0.4383  0.1470 -0.2327
  285MOL0     C39254   7.957   7.074   5.171 -0.2475 -0.2422  0.1463
  285MOL0     C39255   7.869   7.000   5.071  1.0216  0.1632  1.2863
  285MOL0     C39256   7.942   6.942   4.955 -1.7089  0.3287 -0.0599
  285MOL0     C39257   7.995   6.891   4.860  0.3152  0.1073  0.3381
  285MOL0     C39258   7.631   7.472   5.205  0.1985  0.0669 -0.4624
  285MOL0     C39259   7.530   7.574   5.210  0.4721  0.7525  0.1558
  285MOL0     C39260   7.575   7.710   5.247  0.0022 -0.8578 -0.3705
  285MOL0     H39261   7.322   7.961   5.249 -0.5164 -2.9490  1.0458
  285MOL0     H39262   7.145   8.147   5.227 -1.5345  0.6905  0.6918
  285MOL0     H39263   6.990   8.261   5.006  0.7776  4.6272  0.0276
  285MOL0     H39264   6.993   8.315   5.178 -3.5020  2.1130  0.7616
  285MOL0     H39265   6.796   8.378   4.990  1.9098  0.4486 -0.6778
  285MOL0     H39266   6.724   8.244   5.068  0.5404  0.1119 -0.5519
  285MOL0     H39267   6.839   8.396   5.299 -1.1422 -0.9547  1.4425
  285MOL0     H39268   6.754   8.509   5.200  1.5233  0.0200 -1.1167
  285MOL0     H39269   6.557   8.340   5.223  0.3246  0.7937 -0.0397
  285MOL0     H39270   6.658   8.243   5.309 -3.1374 -1.2848  0.0777
  285MOL0     H39271   6.694   8.438   5.473  1.5862 -1.7136 -0.2260
  285MOL0     H39272   6.535   8.378   5.468  0.4593 -0.3311  0.5233
  285MOL0     H39273   6.613   8.646   5.352 -0.7618  1.3354  2.6176
  285MOL0     H39274   6.466   8.555   5.289  0.6177  1.0551 -0.1088
  285MOL0     H39275   6.554   8.647   5.570 -1.0281  2.2393  0.9112
  285MOL0     H39276   6.381   8.597   5.530 -1.8286  2.1734 -1.1883
  285MOL0     H39277   6.519   8.853   5.434 -0.2898  1.6563  0.9287
  285MOL0     H39278   6.348   8.796   5.399 -0.0878 -0.5965  0.8735
  285MOL0     H39279   6.568   8.899   5.676  0.2484 -1.4671 -1.8713
  285MOL0     H39280   6.339   8.981   6.005  2.4435  1.4894  1.8649
  285MOL0     H39281   6.471   9.051   5.913  0.4465 -1.5140 -1.6275
  285MOL0     H39282   6.488   8.760   5.998  1.0004  0.0355 -1.4376
  285MOL0     H39283   6.609   8.867   5.927 -0.2778 -1.3810 -1.5685
  285MOL0     H39284   6.649   8.881   6.160 -0.3460 -0.0984  0.4036
  285MOL0     H39285   6.542   9.025   6.125 -1.1358  0.0639  0.5547
  285MOL0     H39286   6.362   8.903   6.240  1.8953  4.3022 -0.0177
  285MOL0     H39287   6.463   8.757   6.246 -1.1368  0.0064  2.9894
  285MOL0     H39288   6.305   8.845   6.515  0.9291  0.3972  0.8776
  285MOL0     H39289   6.043   9.034   6.671 -0.4889 -0.3903  0.3225
  285MOL0     H39290   6.155   8.955   6.761 -4.2569  1.0103  1.8065
  285MOL0     H39291   6.101   8.884   6.605  1.2871 -0.7009 -0.0934
  285MOL0     H39292   6.029   9.563   6.586 -2.4476  1.5182  0.8615
  285MOL0     H39293   5.943   9.752   6.724 -1.1478  0.9169  1.2273
  285MOL0     H39294   5.837   9.709   7.000  2.6640  1.0078 -5.0767
  285MOL0     H39295   5.978   9.661   7.107 -1.7441 -1.7433 -1.5092
  285MOL0     H39296   5.946   9.919   7.180 -1.2209  0.7040  1.5732
  285MOL0     H39297   5.803   9.911   7.089  1.6701 -0.2517 -1.3531
  285MOL0     H39298   5.874   9.757   7.342  1.1949  0.2053 -0.1869
  285MOL0     H39299   5.744   9.696   7.229 -2.0014  2.2665 -2.6292
  285MOL0     H39300   5.651   9.947   7.263  1.6756  2.7886  0.7039
  285MOL0     H39301   5.741   9.933   7.410 -1.9514 -1.0899  1.6506
  285MOL0     H39302   5.490   9.850   7.420 -0.7692  0.4407 -4.2453
  285MOL0     H39303   5.557   9.720   7.331 -3.1674 -1.6161  1.9756
  285MOL0     H39304   5.706   9.664   7.531  0.0948  1.0457  0.8684
  285MOL0     H39305   5.533   9.671   7.564  1.1085 -0.6620 -0.8350
  285MOL0     H39306   5.547   9.913   7.638 -0.0551  0.2830 -0.0274
  285MOL0     H39307   5.720   9.912   7.623 -0.5003  1.9217 -0.0802
  285MOL0     H39308   5.733   9.731   7.793  1.7755  0.8399  1.0321
  285MOL0     H39309   5.556   9.723   7.802 -0.6239 -0.5385 -0.4089
  285MOL0     H39310   6.253   9.669   7.012  1.4650  0.0795 -0.9580
  285MOL0     H39311   6.337   9.477   6.857  1.2568  1.0980 -2.4208
  285MOL0     H39312   6.432   9.325   6.506  2.7569 -0.3985 -1.2553
  285MOL0     H39313   6.560   9.160   6.370  1.9914 -3.7455  0.5923
  285MOL0     H39314   6.884   7.889   5.025  0.7955  0.1282 -1.7107
  285MOL0     H39315   7.082   7.702   5.020  1.0844 -0.2129  1.8108
  285MOL0     H39316   7.267   7.362   5.150  0.8571 -2.1882  1.8279
  285MOL0     H39317   7.439   7.186   5.167  1.3079 -0.3264  0.7263
  285MOL0     H39318   7.877   7.313   5.237 -0.3355  0.5459  1.1770
  285MOL0     H39319   7.755   7.274   5.363 -0.3076 -2.6085  0.2200
  285MOL0     H39320   7.816   7.033   5.334  0.7075 -0.5797  0.1561
  285MOL0     H39321   7.929   7.148   5.389 -0.5480 -1.5294  0.4600
  285MOL0     H39322   7.995   7.161   5.115 -2.3147  0.3508 -0.4299
  285MOL0     H39323   8.035   7.003   5.199 -2.8245 -3.1388  0.4799
  285MOL0     H39324   7.789   7.061   5.028  2.5175 -0.0940 -2.1789
  285MOL0     H39325   7.831   6.911   5.122  0.4241 -1.3831 -1.6480
  285MOL0     H39326   8.011   6.849   4.762  1.1336  1.0774  0.0484
  285MOL0     H39327   7.731   7.500   5.235  0.3191 -0.1044 -0.6996
  285MOL0     H39328   7.676   7.717   5.290 -0.7659  1.2700  1.2748
  285MOL0     H39329   7.560   7.768   5.156 -3.4556 -0.3694  0.3943
  285MOL0     H39330   7.504   7.764   5.310  0.1204  0.6784 -1.5095
  286MOL0     O39331   4.239   5.455   7.759 -0.0031  0.0031  0.6623
  286MOL0     C39332   4.248   5.395   7.654  0.4985 -0.0767  0.2758
  286MOL0     O39333   4.318   5.437   7.541  0.1087  0.1406 -0.4372
  286MOL0     C39334   4.381   5.556   7.552  0.1048 -0.6150  0.0032
  286MOL0     C39335   4.308   5.678   7.546 -0.8276 -0.3236 -0.0680
  286MOL0     C39336   4.377   5.801   7.566  0.0424 -0.5190  0.0060
  286MOL0     C39337   4.519   5.806   7.583  1.1796  0.2339  0.2099
  286MOL0     O39338   4.579   5.929   7.579 -0.4024  0.2359  0.0880
  286MOL0     C39339   4.722   5.931   7.575  0.0248 -0.5829 -0.1910
  286MOL0     C39340   4.750   6.075   7.580  0.5046  0.1207  0.4339
  286MOL0     C39341   4.894   6.096   7.618 -0.0362  0.0218 -0.7203
  286MOL0     C39342   4.964   6.231   7.571  0.9667  1.1445  0.6852
  286MOL0     C39343   5.095   6.269   7.647  0.7366  0.6533  0.1327
  286MOL0     C39344   5.092   6.344   7.783  0.1513  0.1391  0.6297
  286MOL0     C39345   5.227   6.347   7.850 -0.1322  0.2331 -0.2309
  286MOL0     C39346   5.294   6.481   7.859 -0.0971 -0.5741  0.4161
  286MOL0     N39347   5.236   6.563   7.969 -0.0831 -0.1976  0.4584
  286MOL0     C39348   5.274   6.577   8.099 -0.4202 -0.5664 -0.0191
  286MOL0     C39349   5.221   6.690   8.145  0.0070 -0.1461  0.6909
  286MOL0     C39350   5.248   6.751   8.279  0.1008 -0.2336  0.0237
  286MOL0     C39351   5.248   6.909   8.290 -1.1653  0.1471 -0.8743
  286MOL0     C39352   5.283   6.958   8.437 -0.5392  0.1964 -0.3412
  286MOL0     C39353   5.427   6.926   8.474 -0.8048  0.3596  0.2805
  286MOL0     O39354   5.515   6.918   8.367  0.5109  0.1781  0.2227
  286MOL0     C39355   5.627   6.842   8.380  0.1074 -1.5127 -0.5367
  286MOL0     C39356   5.704   6.853   8.493 -0.1379  0.6736 -0.2133
  286MOL0     C39357   5.815   6.759   8.511  0.4049 -0.3065 -0.4322
  286MOL0     C39358   5.903   6.785   8.632  0.2519  0.6939  0.2561
  286MOL0     C39359   5.827   6.657   8.419  0.1299  0.5362 -0.2491
  286MOL0     C39360   5.940   6.560   8.427 -0.5364  0.2806  0.0007
  286MOL0     O39361   5.970   6.493   8.307  0.6671  0.9625  0.1642
  286MOL0     C39362   6.066   6.400   8.296 -0.1929 -0.0568 -0.3488
  286MOL0     C39363   6.092   6.293   8.390  0.7742 -0.1739  0.1510
  286MOL0     C39364   6.184   6.195   8.376 -0.7544 -0.5264  0.1286
  286MOL0     C39365   6.241   6.175   8.254 -0.7547 -0.8209 -0.3651
  286MOL0     O39366   6.327   6.065   8.233  0.0034 -0.1616  0.6500
  286MOL0     C39367   6.418   6.054   8.116  0.4329  1.0840  0.1588
  286MOL0     C39368   6.525   5.936   8.130  0.3588  0.6102 -0.4569
  286MOL0     C39369   6.561   5.864   7.998  0.6964  0.4504  0.1852
  286MOL0     C39370   6.447   5.848   7.902  0.5913 -0.1613  0.6555
  286MOL0     C39371   6.476   5.765   7.784  0.3683 -0.1544 -0.9954
  286MOL0     C39372   6.591   5.810   7.698  0.7387  0.1321 -0.0992
  286MOL0     C39373   6.593   5.741   7.563 -0.8688  0.2924  0.4152
  286MOL0     C39374   6.729   5.772   7.488  0.3400 -0.1051 -0.5142
  286MOL0    Cl39375   6.709   5.748   7.314  0.2471 -0.0781 -0.2285
  286MOL0     C39376   6.217   6.270   8.152  0.6796  0.1235 -0.0826
  286MOL0     C39377   6.132   6.383   8.169 -0.5829  0.5583  1.0013
  286MOL0     O39378   5.982   6.525   8.537 -0.3694  0.2096 -0.5250
  286MOL0     C39379   5.726   6.643   8.315 -0.2665 -0.2562  0.1762
  286MOL0     C39380   5.634   6.740   8.294  1.0600 -0.5311 -0.3750
  286MOL0     N39381   5.129   6.730   8.051 -0.4822 -0.7824 -0.3254
  286MOL0     N39382   5.145   6.661   7.945  0.6969  0.2126 -0.2195
  286MOL0     C39383   4.592   5.686   7.604  0.0418  0.8479 -0.3350
  286MOL0     C39384   4.513   5.572   7.592  0.3402 -0.0374  0.4526
  286MOL0     C39385   4.163   5.270   7.635  0.6418  0.2631 -0.3706
  286MOL0     C39386   4.040   5.266   7.712  0.3832 -0.6028 -0.3698
  286MOL0     C39387   3.959   5.158   7.709  0.4753 -0.0450  0.1865
  286MOL0     C39388   3.982   5.057   7.617  0.6699 -0.5143 -0.4017
  286MOL0     O39389   3.890   4.959   7.610 -0.5294 -0.9203  0.2288
  286MOL0     C39390   3.923   4.833   7.566 -0.4752  0.3135  0.3659
  286MOL0     C39391   3.822   4.728   7.628  0.6680  0.3541 -0.5751
  286MOL0     C39392   3.843   4.701   7.782  1.1560 -0.4174  0.8559
  286MOL0     C39393   3.987   4.639   7.818  0.4556 -0.0262 -0.2216
  286MOL0     C39394   3.974   4.495   7.796  0.4219 -0.0981 -0.3366
  286MOL0     C39395   3.990   4.377   7.777  0.4922  1.6103  0.2561
  286MOL0     C39396   4.098   5.066   7.533  0.7191 -0.9957 -0.6793
  286MOL0     C39397   4.184   5.172   7.538 -0.6525  0.0630  0.5482
  286MOL0     C39398   4.302   5.161   7.446  0.1309  0.5939 -0.2892
  286MOL0     H39399   4.202   5.684   7.523 -0.1922  0.7104 -3.2147
  286MOL0     H39400   4.320   5.892   7.551 -0.5317 -1.1286 -1.7902
  286MOL0     H39401   4.777   5.883   7.493  2.1814  0.4584  0.5921
  286MOL0     H39402   4.759   5.884   7.666  0.6377  1.1847  0.5062
  286MOL0     H39403   4.738   6.118   7.481 -0.8367  1.6527  1.2071
  286MOL0     H39404   4.695   6.132   7.656 -0.7853 -0.9305  0.3191
  286MOL0     H39405   4.897   6.089   7.727  0.1309 -1.6849 -0.8022
  286MOL0     H39406   4.953   6.014   7.576 -4.3473 -3.5713 -0.4581
  286MOL0     H39407   4.985   6.227   7.464 -0.3220  1.4581  0.4100
  286MOL0     H39408   4.897   6.316   7.589  0.7125  0.5313  2.9271
  286MOL0     H39409   5.144   6.351   7.595  1.5139  1.1997  1.6805
  286MOL0     H39410   5.167   6.186   7.647 -0.7135 -0.6616 -0.9138
  286MOL0     H39411   5.051   6.443   7.760  0.7143  0.3414  0.4949
  286MOL0     H39412   5.013   6.304   7.848 -0.4028  0.7551  0.3446
  286MOL0     H39413   5.298   6.277   7.805  2.1142  1.6426  0.9244
  286MOL0     H39414   5.221   6.309   7.952 -0.6279 -0.3419 -0.4612
  286MOL0     H39415   5.400   6.456   7.867  0.3663  0.2079 -2.2917
  286MOL0     H39416   5.288   6.538   7.766  2.0406  0.4383  0.8200
  286MOL0     H39417   5.345   6.513   8.151 -4.0668 -2.3211  3.3197
  286MOL0     H39418   5.341   6.714   8.323  1.3186  0.4547 -1.8553
  286MOL0     H39419   5.164   6.725   8.344  0.9181  1.2313  1.7365
  286MOL0     H39420   5.321   6.951   8.220 -0.0198  0.9692  0.7463
  286MOL0     H39421   5.148   6.939   8.257 -0.8851  1.8647 -0.2532
  286MOL0     H39422   5.259   7.064   8.451 -3.9049 -0.4568 -0.2497
  286MOL0     H39423   5.225   6.902   8.512  0.2623  1.1807  1.0456
  286MOL0     H39424   5.464   7.008   8.536 -0.0881  0.5903 -0.4417
  286MOL0     H39425   5.431   6.834   8.534  0.3009  0.4349  0.3386
  286MOL0     H39426   5.700   6.945   8.550 -1.3778  0.3887  0.1844
  286MOL0     H39427   6.000   6.737   8.624  0.1539  0.8380 -2.4862
  286MOL0     H39428   5.848   6.750   8.721  0.1574  0.6453  0.1789
  286MOL0     H39429   5.923   6.892   8.640  1.0616  0.4211  2.6293
  286MOL0     H39430   6.035   6.305   8.482  0.1816  1.8032 -0.4295
  286MOL0     H39431   6.190   6.109   8.442 -1.1326  1.4417  2.8634
  286MOL0     H39432   6.346   6.030   8.038  0.7084  1.6194 -0.2637
  286MOL0     H39433   6.469   6.147   8.092 -1.0257  1.4740 -1.6434
  286MOL0     H39434   6.622   5.970   8.167  0.8590  0.0047 -1.1785
  286MOL0     H39435   6.485   5.860   8.198 -1.4668  2.2527  0.4220
  286MOL0     H39436   6.588   5.765   8.037 -0.8907  0.1383  0.5543
  286MOL0     H39437   6.640   5.924   7.952  0.1866  1.6660  0.8576
  286MOL0     H39438   6.412   5.945   7.868  0.0240  0.0446  1.7860
  286MOL0     H39439   6.362   5.816   7.963  0.6287  1.4182  1.6009
  286MOL0     H39440   6.493   5.664   7.820  1.3728  1.1886  2.7873
  286MOL0     H39441   6.385   5.752   7.724 -0.4072 -2.2869  0.5486
  286MOL0     H39442   6.685   5.803   7.754  1.2480  0.1308 -0.9406
  286MOL0     H39443   6.578   5.915   7.671 -0.3172  0.4527  1.5284
  286MOL0     H39444   6.513   5.785   7.504  0.5924 -1.8693 -3.5803
  286MOL0     H39445   6.584   5.632   7.563  3.8388 -0.3776 -1.9611
  286MOL0     H39446   6.808   5.704   7.521 -0.3821 -1.0068 -0.6292
  286MOL0     H39447   6.751   5.879   7.496 -0.5093  0.1557 -1.3862
  286MOL0     H39448   6.257   6.255   8.053  0.5575  0.8030 -0.2411
  286MOL0     H39449   6.096   6.439   8.084 -0.7392 -1.9285 -0.6879
  286MOL0     H39450   5.728   6.550   8.258  2.7443  0.8732 -1.8531
  286MOL0     H39451   5.562   6.729   8.214 -1.0187  4.3544  0.4472
  286MOL0     H39452   4.697   5.666   7.621 -0.1256  2.0031  3.0196
  286MOL0     H39453   4.569   5.480   7.603  1.5508  0.5035 -0.8495
  286MOL0     H39454   4.006   5.340   7.782 -0.1685  1.1751 -2.3984
  286MOL0     H39455   3.870   5.155   7.771 -0.9844 -2.4571 -1.8364
  286MOL0     H39456   3.919   4.840   7.457  1.9034  0.5214  0.2332
  286MOL0     H39457   4.024   4.801   7.595  0.1135  0.3008 -1.5214
  286MOL0     H39458   3.836   4.629   7.583 -0.4728 -0.3874  0.6518
  286MOL0     H39459   3.720   4.765   7.615 -0.0949  0.0645  3.3328
  286MOL0     H39460   3.842   4.797   7.834  1.7908 -0.1009  0.3012
  286MOL0     H39461   3.764   4.638   7.822  0.7609 -0.6129 -0.1863
  286MOL0     H39462   3.998   4.656   7.925 -0.7089  0.3680 -0.1497
  286MOL0     H39463   4.075   4.677   7.765  0.6028 -1.2639 -0.9001
  286MOL0     H39464   3.999   4.270   7.766 -1.3878  1.6959 -4.1762
  286MOL0     H39465   4.117   4.977   7.474 -2.9306 -0.7651 -2.5075
  286MOL0     H39466   4.283   5.073   7.383  0.6020 -1.4428  2.2181
  286MOL0     H39467   4.331   5.248   7.387  2.9375 -1.5005 -2.2804
  286MOL0     H39468   4.394   5.155   7.505  0.4863  0.9179 -0.7999
  287MOL0     O39469   6.147   7.686   3.303  0.1047  0.7120  0.2377
  287MOL0     C39470   6.166   7.574   3.252 -0.3913 -0.0340  1.0665
  287MOL0     O39471   6.075   7.473   3.259 -0.5716  0.9903  0.2332
  287MOL0     C39472   5.951   7.513   3.312 -0.3609 -0.0321  0.3128
  287MOL0     C39473   5.865   7.598   3.244  0.0604 -0.5647  1.0095
  287MOL0     C39474   5.740   7.644   3.281  0.4342  0.0998 -0.0391
  287MOL0     C39475   5.693   7.596   3.397  0.0336 -0.6630  0.4842
  287MOL0     O39476   5.572   7.639   3.449 -0.4237 -0.4943 -0.2796
  287MOL0     C39477   5.508   7.750   3.395  0.0556 -0.8466  0.4434
  287MOL0     C39478   5.381   7.784   3.482 -0.8966  0.5002  0.1844
  287MOL0     C39479   5.415   7.884   3.593  0.3258 -0.3024  0.7290
  287MOL0     C39480   5.509   7.815   3.697 -0.2601 -0.4389 -0.0450
  287MOL0     C39481   5.504   7.885   3.832 -0.3497  0.2671 -0.3873
  287MOL0     C39482   5.531   8.040   3.825  0.2852 -0.2752  0.8130
  287MOL0     C39483   5.538   8.098   3.962 -0.4388  0.7667  0.0541
  287MOL0     C39484   5.588   8.233   3.962  1.0093  0.6192 -0.8703
  287MOL0     N39485   5.727   8.226   3.919  0.2529  0.2856 -0.9110
  287MOL0     C39486   5.838   8.161   3.987  0.2049 -0.6172  0.5075
  287MOL0     C39487   5.941   8.172   3.907 -0.5630  0.2694  0.5500
  287MOL0     C39488   6.090   8.143   3.930  0.1421  0.7343  0.3900
  287MOL0     C39489   6.118   8.030   4.019 -0.6348  0.8762  0.2944
  287MOL0     C39490   6.264   7.984   4.004  0.1143  0.3711 -0.1113
  287MOL0     C39491   6.300   7.851   4.083  1.2498  0.0817  1.1265
  287MOL0     O39492   6.212   7.741   4.069 -0.1293 -0.2487 -0.7048
  287MOL0     C39493   6.258   7.608   4.096 -0.9450  0.2994  0.1148
  287MOL0     C39494   6.378   7.558   4.041 -0.1884  0.5139 -0.9071
  287MOL0     C39495   6.416   7.426   4.063  0.6237 -0.3273 -0.5340
  287MOL0     C39496   6.541   7.383   3.999 -0.2917 -0.3636  0.6297
  287MOL0     C39497   6.339   7.343   4.149 -1.0483  0.5298  0.1327
  287MOL0     C39498   6.366   7.197   4.170  0.7480 -0.7945  0.2210
  287MOL0     O39499   6.254   7.122   4.167 -0.4137 -0.1465 -0.3155
  287MOL0     C39500   6.283   6.987   4.176 -0.1125 -0.5561 -0.5945
  287MOL0     C39501   6.322   6.921   4.058  0.7798  0.8631  0.5200
  287MOL0     C39502   6.368   6.785   4.056 -0.3489 -0.1245 -0.5538
  287MOL0     C39503   6.379   6.716   4.175  0.8382 -0.2423 -0.4073
  287MOL0     O39504   6.438   6.586   4.165  0.3293  0.1008 -0.0139
  287MOL0     C39505   6.540   6.547   4.258  1.0706 -0.4221 -0.3603
  287MOL0     C39506   6.603   6.421   4.215  0.3345  0.4849  0.1715
  287MOL0     C39507   6.725   6.434   4.128  0.6466 -1.0772 -0.2685
  287MOL0     C39508   6.795   6.297   4.105  0.4150 -0.3606  0.1403
  287MOL0     C39509   6.762   6.239   3.969  0.3105  0.4699 -0.5428
  287MOL0     C39510   6.854   6.121   3.935 -0.7829  0.4553 -0.0986
  287MOL0     C39511   6.810   6.046   3.809 -0.1331 -0.6634 -1.0368
  287MOL0     C39512   6.925   5.966   3.753  0.0643 -0.2301 -0.1254
  287MOL0    Cl39513   6.868   5.892   3.598  0.3176  0.2316 -0.2480
  287MOL0     C39514   6.362   6.785   4.292 -0.2559  0.3182  0.8384
  287MOL0     C39515   6.305   6.911   4.295 -0.3104  0.4197  0.7449
  287MOL0     O39516   6.480   7.159   4.180 -0.1433 -0.0272 -0.2983
  287MOL0     C39517   6.210   7.388   4.182 -0.8368 -0.0230  0.3890
  287MOL0     C39518   6.170   7.525   4.155 -0.1114  0.3140  0.0580
  287MOL0     N39519   5.897   8.259   3.801  0.8979 -0.4858  0.0673
  287MOL0     N39520   5.775   8.293   3.817  0.1956 -0.4280  0.6522
  287MOL0     C39521   5.767   7.509   3.476  0.6537 -0.6066  0.4025
  287MOL0     C39522   5.896   7.470   3.433  0.5302 -0.4877 -1.0698
  287MOL0     C39523   6.292   7.540   3.192  1.0834 -0.7876  0.3861
  287MOL0     C39524   6.356   7.641   3.117  0.6920 -0.8222  0.4372
  287MOL0     C39525   6.479   7.619   3.059 -0.0255 -0.0043 -0.2909
  287MOL0     C39526   6.554   7.498   3.076 -0.0633 -0.9963  0.0749
  287MOL0     O39527   6.685   7.474   3.031  0.2647  0.7059  0.7690
  287MOL0     C39528   6.732   7.563   2.928 -0.4570  0.0642 -0.1011
  287MOL0     C39529   6.848   7.491   2.866 -0.2313  0.3901  0.1353
  287MOL0     C39530   6.887   7.563   2.732 -0.8654 -0.4552 -0.4082
  287MOL0     C39531   6.813   7.516   2.609  0.1280 -1.0486 -0.8543
  287MOL0     C39532   6.836   7.616   2.502 -0.0985  0.6751  0.7685
  287MOL0     C39533   6.874   7.690   2.405 -0.0666  0.2301 -0.4458
  287MOL0     C39534   6.491   7.397   3.140 -0.4552 -0.6411 -0.0322
  287MOL0     C39535   6.361   7.412   3.200  0.5344 -0.4956  0.2698
  287MOL0     C39536   6.302   7.296   3.263  0.3440 -0.6257 -0.4259
  287MOL0     H39537   5.893   7.626   3.142 -1.3858 -3.0799 -0.1641
  287MOL0     H39538   5.685   7.712   3.216  1.3788 -0.5339 -1.5763
  287MOL0     H39539   5.480   7.719   3.294  0.2785 -1.7306  0.6424
  287MOL0     H39540   5.577   7.834   3.387 -0.4697 -0.3939  0.5695
  287MOL0     H39541   5.300   7.835   3.428  0.3585  1.1112 -1.2224
  287MOL0     H39542   5.343   7.687   3.514 -4.3935  2.1011  1.4069
  287MOL0     H39543   5.471   7.972   3.556 -0.2425  1.0451  2.9216
  287MOL0     H39544   5.326   7.924   3.642  0.3864  4.5717 -2.3350
  287MOL0     H39545   5.479   7.710   3.704  1.7209 -1.2521 -2.5412
  287MOL0     H39546   5.610   7.827   3.658  1.4996 -0.8334  3.9337
  287MOL0     H39547   5.568   7.838   3.907 -0.2184 -1.9515 -1.7961
  287MOL0     H39548   5.404   7.865   3.872 -0.8804 -0.7023 -2.0887
  287MOL0     H39549   5.625   8.056   3.771  0.6898 -2.8960  0.6429
  287MOL0     H39550   5.453   8.096   3.772  1.3736 -2.6970 -3.9221
  287MOL0     H39551   5.599   8.036   4.029  0.3646  3.8011  2.3632
  287MOL0     H39552   5.443   8.097   4.016  0.7049 -1.8678  2.2805
  287MOL0     H39553   5.529   8.303   3.902  1.1175  0.7777 -0.7941
  287MOL0     H39554   5.593   8.275   4.063  0.4199 -0.0976 -0.5389
  287MOL0     H39555   5.827   8.121   4.087  0.1190 -2.2737 -0.1387
  287MOL0     H39556   6.137   8.233   3.969  0.2405  0.3647  1.1286
  287MOL0     H39557   6.137   8.114   3.835  2.3167  3.0025  0.6904
  287MOL0     H39558   6.104   8.049   4.126 -0.1310 -1.6832  0.8662
  287MOL0     H39559   6.046   7.952   3.991 -1.2126  1.9669 -1.4366
  287MOL0     H39560   6.278   7.961   3.898 -1.0221  0.8957 -0.3901
  287MOL0     H39561   6.324   8.066   4.044  2.2099 -1.3403  0.4290
  287MOL0     H39562   6.402   7.814   4.071  3.0010  4.0824  2.0085
  287MOL0     H39563   6.296   7.874   4.190  0.7574 -0.9878  1.3497
  287MOL0     H39564   6.448   7.629   3.997 -0.0297  0.7398 -0.2983
  287MOL0     H39565   6.521   7.290   3.944 -1.4069 -0.4071  1.0903
  287MOL0     H39566   6.606   7.349   4.081 -2.8890  1.2814  3.5682
  287MOL0     H39567   6.586   7.462   3.938 -1.2533  0.0680  0.4609
  287MOL0     H39568   6.320   6.981   3.968 -0.5048  0.8118  0.4909
  287MOL0     H39569   6.400   6.729   3.970 -0.3212  1.3781 -1.5558
  287MOL0     H39570   6.607   6.633   4.267  1.3510 -0.6015 -0.7579
  287MOL0     H39571   6.489   6.538   4.355 -0.7451 -0.1928 -1.2504
  287MOL0     H39572   6.648   6.372   4.302  3.0880  2.0790 -0.2159
  287MOL0     H39573   6.530   6.363   4.159 -1.4470  2.0370  0.7611
  287MOL0     H39574   6.799   6.500   4.175  3.3658 -2.4586 -2.3451
  287MOL0     H39575   6.697   6.484   4.035 -0.9510 -4.1203 -1.5672
  287MOL0     H39576   6.756   6.237   4.187 -2.0906  3.1599  1.7967
  287MOL0     H39577   6.900   6.294   4.134  1.0670  1.3611 -1.7697
  287MOL0     H39578   6.657   6.208   3.970  0.0297  1.1371 -2.8886
  287MOL0     H39579   6.766   6.308   3.885  1.2142  1.4634  0.2844
  287MOL0     H39580   6.855   6.052   4.019  1.3734  2.2578  1.4953
  287MOL0     H39581   6.956   6.159   3.922 -0.7870  0.3189 -0.5287
  287MOL0     H39582   6.773   6.112   3.730  1.4911 -0.3379 -1.5598
  287MOL0     H39583   6.732   5.975   3.839 -2.6603  1.3739 -2.4208
  287MOL0     H39584   6.957   5.889   3.823  0.4547  0.8779  0.9653
  287MOL0     H39585   7.010   6.025   3.718 -1.2400  1.0987 -1.2077
  287MOL0     H39586   6.379   6.743   4.391  1.0000  0.0707  0.5351
  287MOL0     H39587   6.282   6.959   4.390  0.9505  1.4106  0.5724
  287MOL0     H39588   6.144   7.318   4.234 -1.0785 -0.7558 -0.8778
  287MOL0     H39589   6.067   7.553   4.177  0.2885  1.5231  0.5082
  287MOL0     H39590   5.731   7.461   3.566 -0.2815 -1.1966 -0.2729
  287MOL0     H39591   5.956   7.392   3.478  0.4868 -0.5881 -1.1869
  287MOL0     H39592   6.308   7.736   3.097  0.9135 -1.1124 -1.7376
  287MOL0     H39593   6.533   7.705   3.020  0.1431  0.9932  1.9553
  287MOL0     H39594   6.662   7.600   2.852  0.2759  2.0268  0.1102
  287MOL0     H39595   6.772   7.653   2.977 -2.1392  1.8346 -1.7786
  287MOL0     H39596   6.826   7.386   2.846 -0.9329 -0.0733  2.9391
  287MOL0     H39597   6.927   7.492   2.942 -0.1268 -1.2575  0.0753
  287MOL0     H39598   6.894   7.671   2.747  1.0326 -0.7601  1.3328
  287MOL0     H39599   6.992   7.538   2.714  0.1320  3.2055 -0.5627
  287MOL0     H39600   6.709   7.531   2.639  0.8318 -0.4249  1.4453
  287MOL0     H39601   6.834   7.415   2.571 -0.7629 -0.7793 -2.1570
  287MOL0     H39602   6.905   7.746   2.319 -0.0772 -0.7995 -1.1384
  287MOL0     H39603   6.557   7.311   3.148  3.5235  2.0248 -0.9867
  287MOL0     H39604   6.297   7.322   3.369 -1.1260  0.3553 -0.7059
  287MOL0     H39605   6.204   7.273   3.219 -0.5045  0.6130  0.7123
  287MOL0     H39606   6.357   7.204   3.242 -2.5333 -2.0713 -2.3350
  288MOL0     O39607   3.032   4.717   7.706 -0.3422  0.3335  0.1960
  288MOL0     C39608   2.913   4.709   7.668 -0.8927 -0.6600 -0.4367
  288MOL0     O39609   2.849   4.807   7.602  0.1434 -0.1713  0.7611
  288MOL0     C39610   2.908   4.930   7.583  0.5410 -0.7405  0.3385
  288MOL0     C39611   2.952   5.020   7.687  0.3403  0.3585  0.1887
  288MOL0     C39612   2.978   5.158   7.654  0.0760 -0.7224 -0.0458
  288MOL0     C39613   2.967   5.199   7.522 -0.6411 -0.5102  0.3135
  288MOL0     O39614   3.025   5.322   7.490 -0.3930  0.4680  0.8610
  288MOL0     C39615   2.928   5.427   7.484  0.1423  0.3754 -0.6422
  288MOL0     C39616   2.998   5.546   7.559 -0.1239  0.3214  0.7309
  288MOL0     C39617   3.053   5.496   7.691 -0.6511 -0.7611  0.6307
  288MOL0     C39618   3.099   5.620   7.784 -0.7510 -0.3173 -0.5771
  288MOL0     C39619   3.154   5.541   7.907 -0.0298 -0.5749 -1.0543
  288MOL0     C39620   3.237   5.634   7.997  0.2317 -0.2296  0.5459
  288MOL0     C39621   3.252   5.562   8.135 -0.6932  0.0882 -0.1161
  288MOL0     C39622   3.125   5.595   8.218 -0.2764  0.6497  1.1687
  288MOL0     N39623   3.118   5.558   8.358  0.3097 -0.5072  0.5166
  288MOL0     C39624   3.168   5.637   8.455 -0.4444  0.8395 -0.3081
  288MOL0     C39625   3.130   5.581   8.567  0.9321  0.0397  0.0422
  288MOL0     C39626   3.150   5.640   8.702 -0.4552 -0.4887  0.0862
  288MOL0     C39627   3.026   5.736   8.744  0.1608  0.9354  0.2892
  288MOL0     C39628   3.056   5.812   8.869  0.5393  0.3788 -0.7012
  288MOL0     C39629   2.929   5.887   8.890  0.6149 -0.3317 -0.4851
  288MOL0     O39630   2.943   5.997   8.987 -0.5535  0.5674  0.3432
  288MOL0     C39631   2.836   6.049   9.056 -0.2328  0.6465  1.5454
  288MOL0     C39632   2.705   6.020   9.015  0.1390 -0.7667  0.1558
  288MOL0     C39633   2.594   6.082   9.086  0.7847  0.1601  0.0076
  288MOL0     C39634   2.455   6.042   9.040 -0.1290 -0.7262  0.1709
  288MOL0     C39635   2.612   6.141   9.211 -0.3636 -0.3228 -0.6233
  288MOL0     C39636   2.509   6.197   9.307 -0.1933  0.2813  0.6959
  288MOL0     O39637   2.561   6.234   9.429 -0.2758 -0.2190  0.0248
  288MOL0     C39638   2.491   6.310   9.517  0.2684 -0.3644 -0.4172
  288MOL0     C39639   2.371   6.363   9.507 -0.3587 -0.1402 -0.5933
  288MOL0     C39640   2.317   6.442   9.615  0.7171  0.5732 -0.8292
  288MOL0     C39641   2.383   6.467   9.734  0.2659  0.0478 -0.2097
  288MOL0     O39642   2.316   6.551   9.829  0.5538  0.2675  0.1326
  288MOL0     C39643   2.361   6.561   9.957 -0.2096  0.0829 -0.4163
  288MOL0     C39644   2.475   6.657   9.965 -0.2477  0.1552 -0.3957
  288MOL0     C39645   2.524   6.678  10.108 -0.1197 -0.0148 -0.4865
  288MOL0     C39646   2.485   6.826  10.151 -0.0965 -0.2877  0.3803
  288MOL0     C39647   2.553   6.868  10.282  0.0947 -0.4541 -0.7042
  288MOL0     C39648   2.543   7.015  10.311  0.5113  0.3578  0.0784
  288MOL0     C39649   2.540   7.063  10.460 -0.9071  0.5563 -0.0468
  288MOL0     C39650   2.678   7.057  10.538  0.2582 -0.9510  0.4032
  288MOL0    Cl39651   2.742   6.887  10.593  0.0742  0.2201  0.3051
  288MOL0     C39652   2.504   6.404   9.751  0.1757  0.4833 -0.5381
  288MOL0     C39653   2.558   6.333   9.641  0.2799  0.5398 -0.1072
  288MOL0     O39654   2.392   6.195   9.271  0.4701 -0.6051  0.2864
  288MOL0     C39655   2.751   6.166   9.244 -0.1072  0.8142  0.5070
  288MOL0     C39656   2.855   6.120   9.167 -0.2960  0.8059 -0.3686
  288MOL0     N39657   3.058   5.464   8.534 -0.6823 -0.4997  0.4960
  288MOL0     N39658   3.055   5.450   8.406 -0.3052  0.4169  0.5417
  288MOL0     C39659   2.933   5.110   7.421 -0.3836 -0.0926  0.0884
  288MOL0     C39660   2.915   4.979   7.455 -0.2360 -0.3294  0.3087
  288MOL0     C39661   2.850   4.574   7.679  0.8593  0.0291  0.1225
  288MOL0     C39662   2.907   4.478   7.768  0.1027 -0.1490 -0.3177
  288MOL0     C39663   2.856   4.346   7.786 -0.6375  0.5477 -0.7001
  288MOL0     C39664   2.739   4.310   7.717  0.1888  0.4574 -0.4280
  288MOL0     O39665   2.675   4.187   7.720  0.5628 -0.2278  0.3741
  288MOL0     C39666   2.710   4.109   7.831 -0.4740 -0.2998  0.7719
  288MOL0     C39667   2.624   3.975   7.833 -0.3120 -0.2795  0.6209
  288MOL0     C39668   2.499   3.962   7.749  0.0408 -0.5231 -0.3908
  288MOL0     C39669   2.390   4.053   7.813 -0.4574 -0.2837 -0.3306
  288MOL0     C39670   2.262   4.044   7.741 -0.1177  0.0156 -0.5889
  288MOL0     C39671   2.165   4.035   7.670  0.5754 -0.9612  0.2966
  288MOL0     C39672   2.696   4.400   7.622 -0.3469  0.3794 -0.1079
  288MOL0     C39673   2.744   4.524   7.603  0.6084 -0.3561  0.4331
  288MOL0     C39674   2.686   4.592   7.480 -0.2371 -0.4537  0.0201
  288MOL0     H39675   2.961   4.993   7.792  0.8654  0.3766  0.1510
  288MOL0     H39676   3.023   5.230   7.721  0.2756  1.5646 -2.4708
  288MOL0     H39677   2.836   5.400   7.537  0.7193  2.6528  1.7668
  288MOL0     H39678   2.904   5.455   7.381  1.4625 -0.4533 -1.2037
  288MOL0     H39679   3.084   5.578   7.500 -0.2505  2.2483  1.5016
  288MOL0     H39680   2.932   5.630   7.584 -0.3495  0.3838 -0.0328
  288MOL0     H39681   2.992   5.427   7.750 -0.2908 -0.4753  1.3607
  288MOL0     H39682   3.154   5.458   7.671 -0.5426  0.5977 -1.8665
  288MOL0     H39683   3.173   5.690   7.744  1.5039 -2.3883 -0.2695
  288MOL0     H39684   3.004   5.664   7.815 -0.9119  0.4689 -2.0647
  288MOL0     H39685   3.225   5.465   7.875  1.4387  0.5949 -0.7089
  288MOL0     H39686   3.083   5.482   7.965  3.3344 -1.1245  2.9042
  288MOL0     H39687   3.334   5.648   7.949  0.8497  0.2449  1.8805
  288MOL0     H39688   3.204   5.738   7.999 -2.2953 -0.9307 -1.1559
  288MOL0     H39689   3.339   5.601   8.189 -0.1476 -1.9798  0.5604
  288MOL0     H39690   3.254   5.456   8.112  0.2440 -0.0666  0.6142
  288MOL0     H39691   3.115   5.704   8.217  0.7343  0.7771  2.5650
  288MOL0     H39692   3.029   5.568   8.171  0.5962 -2.4957  0.9751
  288MOL0     H39693   3.221   5.730   8.438  0.5342 -0.1211 -2.9012
  288MOL0     H39694   3.241   5.701   8.694 -0.0894 -1.1863 -1.3607
  288MOL0     H39695   3.159   5.555   8.771 -2.8563 -0.7737  0.1309
  288MOL0     H39696   3.014   5.783   8.646  3.8902  0.7007 -0.4375
  288MOL0     H39697   2.941   5.668   8.749  0.8053 -0.3903 -3.5894
  288MOL0     H39698   3.075   5.758   8.961  2.0708 -0.5935 -1.5556
  288MOL0     H39699   3.143   5.877   8.856 -0.2033  1.7125  0.6634
  288MOL0     H39700   2.903   5.927   8.791 -0.0783  0.7578  0.1211
  288MOL0     H39701   2.861   5.807   8.921  1.1929 -0.6008  0.1206
  288MOL0     H39702   2.688   5.960   8.926  1.6659 -1.8341  0.5528
  288MOL0     H39703   2.401   6.136   9.026  0.4931 -0.6504 -2.1555
  288MOL0     H39704   2.400   5.999   9.124 -1.1652 -1.5675 -0.9226
  288MOL0     H39705   2.437   5.979   8.953 -4.3789  1.7076 -1.0033
  288MOL0     H39706   2.311   6.354   9.417  1.3704 -1.4029 -1.6907
  288MOL0     H39707   2.226   6.499   9.602  1.5783  2.3406  0.3841
  288MOL0     H39708   2.275   6.591  10.017 -0.3188  0.0671 -0.5661
  288MOL0     H39709   2.397   6.464   9.991 -0.0304  1.1069  2.7307
  288MOL0     H39710   2.558   6.619   9.905  0.7827 -0.0901  1.1259
  288MOL0     H39711   2.441   6.756   9.932 -0.8478  0.3624  0.7856
  288MOL0     H39712   2.632   6.670  10.126 -0.4769  1.0421  2.6894
  288MOL0     H39713   2.481   6.614  10.185  2.7283 -2.1506 -0.4978
  288MOL0     H39714   2.377   6.839  10.161 -0.0710 -0.7834  1.3983
  288MOL0     H39715   2.512   6.899  10.073  1.7941  1.3538  2.4335
  288MOL0     H39716   2.501   6.818  10.364  0.4964  1.8872  1.0667
  288MOL0     H39717   2.657   6.833  10.283 -0.3507 -1.9364 -1.8046
  288MOL0     H39718   2.463   7.042  10.242  2.6614  0.2964 -2.5876
  288MOL0     H39719   2.631   7.053  10.260 -1.3376  3.3190 -1.1436
  288MOL0     H39720   2.461   7.011  10.515 -1.0356  0.2863 -0.4811
  288MOL0     H39721   2.517   7.170  10.464  3.4181  1.6369  2.6430
  288MOL0     H39722   2.671   7.126  10.623  0.4288  1.3046 -1.3101
  288MOL0     H39723   2.756   7.103  10.476 -0.0710  1.1908  1.4885
  288MOL0     H39724   2.563   6.413   9.842 -0.7206  2.9253 -0.1157
  288MOL0     H39725   2.654   6.286   9.659 -0.8355 -1.1154  2.0059
  288MOL0     H39726   2.778   6.213   9.338  2.4623  0.5790 -0.0130
  288MOL0     H39727   2.950   6.157   9.204  0.0201 -1.6638  1.5199
  288MOL0     H39728   2.926   5.155   7.322 -2.7239  3.0593  1.5139
  288MOL0     H39729   2.893   4.918   7.368 -0.1721  1.6561 -1.1699
  288MOL0     H39730   2.982   4.518   7.835  0.1017  1.4527 -1.2043
  288MOL0     H39731   2.903   4.283   7.860  3.1366  1.6966 -1.8926
  288MOL0     H39732   2.815   4.085   7.816 -0.7574 -0.6455 -0.8593
  288MOL0     H39733   2.702   4.178   7.915  3.0666  0.9856  0.2115
  288MOL0     H39734   2.598   3.940   7.934 -1.2716  2.3606  1.3799
  288MOL0     H39735   2.693   3.902   7.789  2.6466  1.9560  1.2470
  288MOL0     H39736   2.520   3.990   7.645  0.4715 -2.2180 -0.7814
  288MOL0     H39737   2.460   3.860   7.746  0.4935 -0.7952  1.8933
  288MOL0     H39738   2.409   4.161   7.802 -4.2919  0.8267  2.1450
  288MOL0     H39739   2.374   4.027   7.917 -0.1228 -1.4953 -0.5739
  288MOL0     H39740   2.088   4.012   7.599 -1.4215 -0.9909  2.3366
  288MOL0     H39741   2.619   4.366   7.553  1.0860 -1.0624 -1.0908
  288MOL0     H39742   2.642   4.690   7.497  0.2889 -0.4302  1.4029
  288MOL0     H39743   2.767   4.603   7.408 -1.8846  1.6223 -1.6479
  288MOL0     H39744   2.609   4.534   7.428 -0.3026  0.1282 -0.5335
  289MOL0     O39745   0.620   4.831  11.015 -0.5041  0.2060 -0.8538
  289MOL0     C39746   0.654   4.910  11.104  0.2389  0.2655 -0.4873
  289MOL0     O39747   0.581   5.019  11.150 -0.6278  0.3482 -0.4310
  289MOL0     C39748   0.454   5.035  11.093 -0.4214  0.1527 -0.3226
  289MOL0     C39749   0.445   5.087  10.965  0.0050  0.0366 -1.4161
  289MOL0     C39750   0.326   5.134  10.904 -0.2294  0.5920 -0.5798
  289MOL0     C39751   0.204   5.112  10.972 -0.3014  0.1265  0.3691
  289MOL0     O39752   0.077   5.127  10.924 -0.0601 -0.4746 -0.5022
  289MOL0     C39753   0.056   5.137  10.784  0.7908 -0.8901 -0.0983
  289MOL0     C39754   0.048   5.014  10.713  0.6385  0.1024  0.2910
  289MOL0     C39755   0.174   4.928  10.706  0.1839 -0.4247 -0.3158
  289MOL0     C39756   0.146   4.794  10.635 -0.2415  0.5124  0.3481
  289MOL0     C39757   0.274   4.724  10.590 -0.7328  0.2662  1.5154
  289MOL0     C39758   0.243   4.607  10.488 -0.8242 -0.4242  0.1179
  289MOL0     C39759   0.368   4.549  10.416 -0.4171  0.8983  0.2849
  289MOL0     C39760   0.492   4.512  10.494  0.7772 -0.1747  0.1067
  289MOL0     N39761   0.562   4.401  10.433  1.0670  0.7582  0.3026
  289MOL0     C39762   0.606   4.377  10.303  0.5196  1.2641  0.7571
  289MOL0     C39763   0.610   4.246  10.296 -0.1314  0.3687  0.2922
  289MOL0     C39764   0.654   4.188  10.163  0.5688  0.6435  0.6288
  289MOL0     C39765   0.571   4.071  10.106 -0.5097  0.0537 -0.6972
  289MOL0     C39766   0.435   4.101  10.059 -0.6634  0.1950  1.2466
  289MOL0     C39767   0.327   4.145  10.171 -0.2176  0.0547 -0.5072
  289MOL0     O39768   0.192   4.146  10.124 -1.1537  0.5169  0.4486
  289MOL0     C39769   0.093   4.214  10.182  0.2091 -0.0590 -0.4520
  289MOL0     C39770  -0.042   4.181  10.159  0.4962 -0.1061 -1.0080
  289MOL0     C39771  -0.153   4.242  10.218 -0.1939 -0.7902 -0.5353
  289MOL0     C39772  -0.298   4.184  10.181 -0.7440 -0.4910 -0.6286
  289MOL0     C39773  -0.125   4.362  10.296  0.1485  0.2800 -1.2043
  289MOL0     C39774  -0.236   4.441  10.364 -0.2769 -0.0144  0.0229
  289MOL0     O39775  -0.192   4.552  10.431  0.0036  0.5227 -1.2734
  289MOL0     C39776  -0.257   4.621  10.531 -0.1640  0.0473  0.3370
  289MOL0     C39777  -0.347   4.549  10.612 -0.5300 -0.7771 -0.7992
  289MOL0     C39778  -0.419   4.613  10.712 -0.2440  0.1930 -0.7846
  289MOL0     C39779  -0.389   4.757  10.727  0.7799 -0.2190 -0.6383
  289MOL0     O39780  -0.444   4.826  10.836  0.2044 -0.8809 -0.2180
  289MOL0     C39781  -0.584   4.858  10.811  0.0930  0.5073  0.5962
  289MOL0     C39782  -0.681   4.795  10.912  0.2580  0.3434  0.5062
  289MOL0     C39783  -0.817   4.863  10.910 -0.0337  0.1009 -0.0202
  289MOL0     C39784  -0.891   4.784  11.021 -0.3327  0.1070  0.3015
  289MOL0     C39785  -1.033   4.835  11.044 -0.0274 -0.2186 -1.2870
  289MOL0     C39786  -1.045   4.970  11.116  0.2948 -0.0966 -0.3457
  289MOL0     C39787  -1.181   5.008  11.168  0.3702  1.0012 -0.2672
  289MOL0     C39788  -1.208   4.958  11.313  0.0739  0.5228  0.4696
  289MOL0    Cl39789  -1.363   5.035  11.386 -0.2219  0.3538  0.4981
  289MOL0     C39790  -0.306   4.829  10.644 -1.0523  0.0755  1.0655
  289MOL0     C39791  -0.233   4.764  10.542  0.2591 -1.3578  0.0449
  289MOL0     O39792  -0.351   4.411  10.339 -0.1461  0.0610  0.9296
  289MOL0     C39793   0.007   4.405  10.306 -0.6376 -0.0291  0.1287
  289MOL0     C39794   0.108   4.335  10.249  0.4514 -0.8287 -0.4400
  289MOL0     N39795   0.599   4.180  10.413  0.0831 -0.3778 -0.0812
  289MOL0     N39796   0.582   4.283  10.496 -0.1363 -0.4758 -0.7213
  289MOL0     C39797   0.215   5.062  11.107  0.1297  0.5173  0.7733
  289MOL0     C39798   0.332   5.028  11.165  0.1038 -0.1587 -1.1206
  289MOL0     C39799   0.789   4.903  11.157  0.2222  0.2925  0.8020
  289MOL0     C39800   0.844   5.015  11.218 -0.7334  0.2198  0.3058
  289MOL0     C39801   0.971   5.019  11.278 -0.1207  0.8260 -0.3921
  289MOL0     C39802   1.053   4.907  11.292 -0.2187  0.0152  0.4239
  289MOL0     O39803   1.180   4.912  11.355  0.4609 -0.1854  1.0692
  289MOL0     C39804   1.208   5.042  11.411 -0.1849 -0.8550 -0.0933
  289MOL0     C39805   1.345   5.031  11.474 -0.0778 -0.2357 -0.2947
  289MOL0     C39806   1.472   5.049  11.378  0.2685 -0.3824 -0.4332
  289MOL0     C39807   1.468   4.956  11.265  0.0082 -0.0797 -0.5856
  289MOL0     C39808   1.594   4.974  11.191  0.0915 -1.0644  0.7059
  289MOL0     C39809   1.684   4.987  11.107 -0.1666  0.1633 -0.8668
  289MOL0     C39810   0.998   4.791  11.225 -0.0475 -0.5242 -0.2612
  289MOL0     C39811   0.876   4.787  11.161  0.4718 -0.4298 -0.1096
  289MOL0     C39812   0.824   4.647  11.106 -0.1104  0.1880  0.0455
  289MOL0     H39813   0.539   5.097  10.911  2.6021 -0.0310  2.6961
  289MOL0     H39814   0.337   5.173  10.804 -0.7214  0.4184 -0.7056
  289MOL0     H39815   0.136   5.199  10.742  1.1965  0.4199  2.3723
  289MOL0     H39816  -0.041   5.185  10.768  1.4628  0.2494 -0.9388
  289MOL0     H39817  -0.038   4.958  10.752  0.1865  0.7053  0.1719
  289MOL0     H39818   0.013   5.043  10.613  2.4608 -1.1184 -0.7896
  289MOL0     H39819   0.255   4.973  10.648  0.5481  1.3161  1.4098
  289MOL0     H39820   0.211   4.910  10.808  0.2187 -1.1632 -0.4569
  289MOL0     H39821   0.083   4.734  10.700 -0.5884  0.2171 -0.2580
  289MOL0     H39822   0.080   4.811  10.550 -0.9269 -1.6287  0.4139
  289MOL0     H39823   0.337   4.686  10.672 -0.0425  1.5849  1.6242
  289MOL0     H39824   0.338   4.803  10.553  0.2079 -0.1946  2.1156
  289MOL0     H39825   0.189   4.526  10.538 -4.7258  0.5893 -1.9926
  289MOL0     H39826   0.168   4.647  10.418  0.3692 -0.8685 -1.4794
  289MOL0     H39827   0.394   4.622  10.339 -1.2638  1.0326  0.1220
  289MOL0     H39828   0.338   4.464  10.354 -2.9142  0.7089  1.6228
  289MOL0     H39829   0.566   4.592  10.508  3.0936 -2.4128  1.4394
  289MOL0     H39830   0.461   4.477  10.592 -3.1203  1.4909 -0.3432
  289MOL0     H39831   0.614   4.449  10.222 -0.0372  1.3496  0.7712
  289MOL0     H39832   0.761   4.166  10.159  0.4158 -0.2283  1.0842
  289MOL0     H39833   0.643   4.265  10.085  1.3498 -0.6626 -0.8416
  289MOL0     H39834   0.624   4.020  10.025 -0.9480 -0.2210 -0.8065
  289MOL0     H39835   0.546   4.006  10.190 -5.2385  1.4593 -0.7716
  289MOL0     H39836   0.425   4.159   9.967 -2.6312  0.7022  1.7239
  289MOL0     H39837   0.400   4.005  10.021 -0.7399  1.2607 -1.6031
  289MOL0     H39838   0.338   4.077  10.256 -4.0202  2.3028  2.0921
  289MOL0     H39839   0.354   4.242  10.214 -1.7399 -0.0909  0.8954
  289MOL0     H39840  -0.072   4.098  10.096  1.2352 -1.5113  0.4442
  289MOL0     H39841  -0.342   4.132  10.266  0.9695 -3.9961 -1.7031
  289MOL0     H39842  -0.292   4.102  10.109 -2.1280  0.7258 -2.1907
  289MOL0     H39843  -0.362   4.257  10.131  0.0824  0.7423  0.0394
  289MOL0     H39844  -0.365   4.444  10.588  0.6749 -0.8500 -1.4540
  289MOL0     H39845  -0.489   4.572  10.784  0.8475  0.3015  0.3725
  289MOL0     H39846  -0.606   4.964  10.825  0.8134  0.3882  3.0408
  289MOL0     H39847  -0.622   4.824  10.714  1.0517 -1.8841  0.9846
  289MOL0     H39848  -0.694   4.687  10.897  1.0900  0.4992 -1.5569
  289MOL0     H39849  -0.637   4.802  11.012  0.9861 -2.2675  0.4510
  289MOL0     H39850  -0.862   4.841  10.812 -1.8111 -2.6680  1.2945
  289MOL0     H39851  -0.810   4.971  10.928 -1.6600 -0.1373  2.3810
  289MOL0     H39852  -0.832   4.782  11.113 -0.0427 -2.6521  0.1440
  289MOL0     H39853  -0.909   4.681  10.987  1.0292  0.0474 -0.2891
  289MOL0     H39854  -1.085   4.831  10.948  0.3123 -2.4370 -1.4408
  289MOL0     H39855  -1.081   4.770  11.117  0.7991  0.7818  0.2018
  289MOL0     H39856  -1.009   5.049  11.050 -0.1947  1.0209  0.6799
  289MOL0     H39857  -0.971   4.967  11.197  1.4060 -1.9981 -1.3655
  289MOL0     H39858  -1.261   4.971  11.103  0.4435  2.5855 -1.3067
  289MOL0     H39859  -1.176   5.116  11.154  1.8098  0.7622 -1.8714
  289MOL0     H39860  -1.123   4.978  11.380 -0.9074  0.3235  1.8231
  289MOL0     H39861  -1.222   4.850  11.318 -1.3752  0.7377  2.5287
  289MOL0     H39862  -0.302   4.935  10.668 -1.3090  0.7142 -1.4573
  289MOL0     H39863  -0.160   4.821  10.485 -2.3026  0.7309 -1.3709
  289MOL0     H39864   0.029   4.505  10.343  0.3848  0.2097 -1.0606
  289MOL0     H39865   0.203   4.384  10.233  1.7142 -2.3351  1.8593
  289MOL0     H39866   0.120   5.047  11.159 -1.7472  0.2951 -2.4434
  289MOL0     H39867   0.331   4.999  11.270 -0.0718  1.1917 -0.7283
  289MOL0     H39868   0.783   5.104  11.224 -0.8926  0.3199 -1.9656
  289MOL0     H39869   1.000   5.113  11.325  2.0741  0.5918 -1.1556
  289MOL0     H39870   1.212   5.120  11.335  0.3771 -0.8946 -0.1139
  289MOL0     H39871   1.136   5.071  11.488  1.4250  3.0371  0.1913
  289MOL0     H39872   1.370   4.931  11.511  3.2544  0.7925  0.5231
  289MOL0     H39873   1.343   5.102  11.558 -0.6888  1.4677 -1.6890
  289MOL0     H39874   1.455   5.151  11.344 -0.3765 -0.8603 -1.6149
  289MOL0     H39875   1.562   5.044  11.441  0.0963 -1.4814 -0.2396
  289MOL0     H39876   1.390   4.989  11.197  0.6924  0.2956 -1.1993
  289MOL0     H39877   1.446   4.852  11.293  2.7331 -1.1728 -2.0912
  289MOL0     H39878   1.778   4.987  11.055 -0.9154 -1.8703 -2.3161
  289MOL0     H39879   1.074   4.714  11.234  0.7856  0.1048 -1.5155
  289MOL0     H39880   0.884   4.569  11.153 -1.0556 -0.0497  0.8899
  289MOL0     H39881   0.720   4.622  11.128  0.2014 -0.6012  0.6526
  289MOL0     H39882   0.836   4.636  10.998 -0.5854 -1.0889  0.1093
  290MOL0     O39883   8.360   2.783   9.821 -0.2383 -0.1471 -0.3949
  290MOL0     C39884   8.280   2.863   9.860  0.6242 -1.3384  0.8623
  290MOL0     O39885   8.264   2.898   9.993 -0.2678  0.3185  0.4385
  290MOL0     C39886   8.364   2.910  10.083 -0.0204  0.6532  0.3433
  290MOL0     C39887   8.333   2.936  10.218  1.1370  0.6702 -0.8908
  290MOL0     C39888   8.439   2.959  10.315  0.8295  0.3414  0.5390
  290MOL0     C39889   8.576   2.954  10.271  0.5426  0.3932 -0.1253
  290MOL0     O39890   8.689   2.948  10.352  0.6243  0.3298 -0.0383
  290MOL0     C39891   8.659   2.945  10.491 -0.8688  0.8029  0.2140
  290MOL0     C39892   8.787   2.923  10.572 -0.5809 -0.2080  0.6646
  290MOL0     C39893   8.831   2.777  10.606  0.2588  0.9451  0.2594
  290MOL0     C39894   8.977   2.775  10.645  0.5405 -0.3145  0.0815
  290MOL0     C39895   9.023   2.633  10.697  1.4536  0.3773  0.8940
  290MOL0     C39896   8.939   2.570  10.804  0.1659 -0.4350  0.3085
  290MOL0     C39897   8.980   2.434  10.849 -0.1563 -0.1060 -0.1571
  290MOL0     C39898   8.921   2.406  10.985  0.1127 -0.5160 -0.1473
  290MOL0     N39899   8.776   2.433  10.999  0.0441 -0.4430  0.0441
  290MOL0     C39900   8.681   2.354  10.940 -0.4374  0.3786  0.4280
  290MOL0     C39901   8.572   2.426  10.933  0.2085  0.2512 -0.6971
  290MOL0     C39902   8.443   2.394  10.870  0.5892  0.2755 -0.3247
  290MOL0     C39903   8.400   2.505  10.781 -0.4924 -0.0799 -0.4167
  290MOL0     C39904   8.261   2.475  10.715  0.6708  0.4773 -0.3096
  290MOL0     C39905   8.214   2.599  10.642  0.4586  0.0959 -0.6489
  290MOL0     O39906   8.116   2.571  10.544  0.0455 -0.1679 -0.8350
  290MOL0     C39907   8.065   2.685  10.481  0.5535  0.4193 -0.5982
  290MOL0     C39908   7.967   2.661  10.378 -0.0154 -0.9722 -0.2424
  290MOL0     C39909   7.899   2.763  10.318  0.2262 -0.2730 -0.0999
  290MOL0     C39910   7.773   2.732  10.238  0.1978 -0.0041 -0.4649
  290MOL0     C39911   7.921   2.900  10.366 -0.1840  1.0255  0.2142
  290MOL0     C39912   7.852   3.012  10.309 -0.8770 -0.6902 -0.2254
  290MOL0     O39913   7.797   3.101  10.401 -0.1048  0.6333  0.3154
  290MOL0     C39914   7.733   3.217  10.369 -0.3892  0.8299 -0.2858
  290MOL0     C39915   7.635   3.217  10.258 -0.7460  0.2006 -0.6824
  290MOL0     C39916   7.584   3.340  10.222  0.2278  0.4680  0.1444
  290MOL0     C39917   7.605   3.458  10.293 -0.4253 -0.1206 -1.1326
  290MOL0     O39918   7.581   3.579  10.235  0.6143 -0.1196 -0.1493
  290MOL0     C39919   7.464   3.653  10.262  0.5110  0.2727 -0.0130
  290MOL0     C39920   7.341   3.567  10.238 -1.4437  0.3480 -0.2391
  290MOL0     C39921   7.278   3.525  10.370  0.6260 -0.3302 -0.4937
  290MOL0     C39922   7.123   3.526  10.341  0.5770  0.0497 -0.2498
  290MOL0     C39923   7.042   3.466  10.455  1.4488 -0.3095  0.2631
  290MOL0     C39924   6.904   3.534  10.463  0.2324 -0.6858  0.3635
  290MOL0     C39925   6.818   3.499  10.594  0.2349  0.2719 -0.0681
  290MOL0     C39926   6.668   3.519  10.570 -0.8697  0.5541 -0.2987
  290MOL0    Cl39927   6.633   3.700  10.546  0.7464 -0.3158 -0.0037
  290MOL0     C39928   7.708   3.455  10.385 -0.3407 -0.2769 -0.9623
  290MOL0     C39929   7.770   3.340  10.428  0.1702  0.2566 -0.3207
  290MOL0     O39930   7.852   3.023  10.185  0.2177 -0.4802  0.2113
  290MOL0     C39931   8.032   2.921  10.460  0.2501  0.4667 -0.3651
  290MOL0     C39932   8.099   2.820  10.513  0.0654  0.7884  0.0979
  290MOL0     N39933   8.588   2.537  11.010 -0.4773  0.0023 -0.1851
  290MOL0     N39934   8.718   2.538  11.058  0.2207 -0.0691  0.7328
  290MOL0     C39935   8.599   2.937  10.133 -0.2986 -0.8333  0.5607
  290MOL0     C39936   8.498   2.914  10.041  0.2736  0.8649 -0.5395
  290MOL0     C39937   8.163   2.893   9.778 -0.1372 -0.1662 -0.5097
  290MOL0     C39938   8.040   2.919   9.847  1.2011  0.9545 -0.3465
  290MOL0     C39939   7.925   2.953   9.771  1.2209  0.9312 -0.5599
  290MOL0     C39940   7.925   2.977   9.630 -0.6395  0.0617 -0.0975
  290MOL0     O39941   7.819   3.014   9.554  0.0458  0.3976 -0.3104
  290MOL0     C39942   7.734   2.916   9.501 -0.4927 -0.9691  0.0057
  290MOL0     C39943   7.675   2.820   9.609 -0.1691  0.1234  0.5696
  290MOL0     C39944   7.580   2.714   9.557 -0.4576 -0.4651 -0.0176
  290MOL0     C39945   7.540   2.624   9.674 -0.0353 -1.0502  0.2592
  290MOL0     C39946   7.430   2.537   9.633  0.2270 -0.2001 -0.8272
  290MOL0     C39947   7.328   2.482   9.608  0.3203 -1.6585 -0.7001
  290MOL0     C39948   8.045   2.948   9.561  0.0850 -0.1624 -0.1072
  290MOL0     C39949   8.161   2.911   9.635  0.8619  0.1468 -0.0816
  290MOL0     C39950   8.279   2.898   9.555 -0.4251  0.8810  0.1837
  290MOL0     H39951   8.228   2.929  10.244  1.4523 -1.8036  0.0425
  290MOL0     H39952   8.412   2.959  10.420  0.4194 -0.1137  0.4385
  290MOL0     H39953   8.593   2.866  10.529  0.6394  1.1121  3.8240
  290MOL0     H39954   8.611   3.036  10.527  0.9948  1.5663  0.8638
  290MOL0     H39955   8.866   2.960  10.505  1.2239  0.1107  2.8317
  290MOL0     H39956   8.788   2.980  10.665  2.2911 -0.5557  0.9419
  290MOL0     H39957   8.760   2.749  10.684  0.5801 -0.6290  0.0196
  290MOL0     H39958   8.816   2.708  10.522  2.8273  0.4966  0.0904
  290MOL0     H39959   9.042   2.822  10.570  0.7227  2.8718  2.0500
  290MOL0     H39960   8.976   2.841  10.732 -0.6647  0.1708 -0.2795
  290MOL0     H39961   9.125   2.639  10.736  1.4011 -1.2419  1.3218
  290MOL0     H39962   9.014   2.570  10.608 -1.6905 -1.8620  2.6195
  290MOL0     H39963   8.948   2.639  10.888 -1.9124  1.1069 -0.6588
  290MOL0     H39964   8.834   2.578  10.777  0.6809  3.7655 -1.1514
  290MOL0     H39965   9.088   2.424  10.863 -0.0275  1.0226 -0.2183
  290MOL0     H39966   8.951   2.358  10.777  0.4958 -0.8720  0.3668
  290MOL0     H39967   8.941   2.300  11.006 -1.5226 -1.5047 -3.0164
  290MOL0     H39968   8.971   2.463  11.064  1.9218 -2.6085  0.3144
  290MOL0     H39969   8.699   2.260  10.888  1.2543 -0.9144  3.1048
  290MOL0     H39970   8.372   2.380  10.952  1.4333 -0.3071  0.3223
  290MOL0     H39971   8.452   2.301  10.813  4.8283  1.7480 -2.4861
  290MOL0     H39972   8.391   2.594  10.843  0.1053 -2.4436  3.3761
  290MOL0     H39973   8.473   2.523  10.702 -0.7895  0.3189 -0.6054
  290MOL0     H39974   8.278   2.398  10.640 -1.6482  1.2823 -1.7685
  290MOL0     H39975   8.182   2.454  10.788  0.4635 -2.5708 -1.2924
  290MOL0     H39976   8.173   2.664  10.719  0.1547 -1.4923  0.5801
  290MOL0     H39977   8.305   2.648  10.606  1.8442  1.7387  4.2673
  290MOL0     H39978   7.925   2.562  10.364 -1.4326  0.0029 -3.9620
  290MOL0     H39979   7.793   2.744  10.131 -1.6658  2.4346 -0.6160
  290MOL0     H39980   7.697   2.802  10.273  0.9096 -0.1432  1.4746
  290MOL0     H39981   7.744   2.627  10.245 -1.3581  0.3800 -0.7495
  290MOL0     H39982   7.613   3.131  10.195  0.5692  1.3687 -2.8477
  290MOL0     H39983   7.545   3.340  10.121  1.1220 -3.9023 -0.4171
  290MOL0     H39984   7.462   3.697  10.362  1.0345  3.0907 -1.1451
  290MOL0     H39985   7.474   3.734  10.189  2.7281  0.4626  0.4212
  290MOL0     H39986   7.281   3.634  10.177 -0.3689  0.3145 -1.3677
  290MOL0     H39987   7.353   3.477  10.179  1.7942  0.7123 -0.3163
  290MOL0     H39988   7.296   3.597  10.450  1.8622 -0.6604 -0.4538
  290MOL0     H39989   7.316   3.424  10.389  0.9111 -0.2552 -0.6605
  290MOL0     H39990   7.093   3.463  10.257 -2.9387  0.5997  0.4497
  290MOL0     H39991   7.087   3.628  10.321 -1.4679 -0.0342  2.4374
  290MOL0     H39992   7.020   3.359  10.444 -0.1542 -0.3631  2.9649
  290MOL0     H39993   7.102   3.483  10.545  0.5121 -0.2453  0.9035
  290MOL0     H39994   6.864   3.504  10.366  0.0315  0.4788  0.0723
  290MOL0     H39995   6.900   3.643  10.468 -0.8723 -0.7079  0.2116
  290MOL0     H39996   6.859   3.565  10.671  3.0326 -0.0356 -1.1681
  290MOL0     H39997   6.839   3.395  10.623 -0.2176 -0.8799 -3.4713
  290MOL0     H39998   6.610   3.482  10.655  0.7610  0.6441  0.9023
  290MOL0     H39999   6.633   3.465  10.481 -0.3374 -1.3093  0.5626
  290MOL0     H40000   7.750   3.550  10.419 -0.4242 -1.1062  1.7218
  290MOL0     H40001   7.861   3.333  10.487 -1.2417 -1.6965  1.7816
  290MOL0     H40002   8.067   3.021  10.485  2.2354  0.1779 -1.8014
  290MOL0     H40003   8.166   2.831  10.597  1.4450 -0.4817 -0.7789
  290MOL0     H40004   8.703   2.929  10.103 -0.1015 -0.8444  1.2364
  290MOL0     H40005   8.523   2.900   9.936 -0.6837 -2.7549 -0.4403
  290MOL0     H40006   8.043   2.918   9.955  1.9957  0.7361 -0.3597
  290MOL0     H40007   7.830   2.973   9.820  0.4300 -0.5070 -1.4232
  290MOL0     H40008   7.652   2.973   9.455  2.3781  2.1727 -1.6677
  290MOL0     H40009   7.776   2.861   9.417 -6.3924 -0.1630 -4.1719
  290MOL0     H40010   7.627   2.884   9.684  0.6990  0.4234  0.8791
  290MOL0     H40011   7.755   2.760   9.654 -1.5669 -2.0978  0.2786
  290MOL0     H40012   7.499   2.777   9.518  0.9747  0.9037 -0.9268
  290MOL0     H40013   7.623   2.648   9.480  3.1057 -2.2826  3.2000
  290MOL0     H40014   7.509   2.679   9.763 -0.2063 -0.1208 -0.3630
  290MOL0     H40015   7.626   2.564   9.705  1.1686  0.0179 -0.8650
  290MOL0     H40016   7.235   2.441   9.574  0.1440 -0.9512 -1.0799
  290MOL0     H40017   8.046   2.969   9.454  1.7791 -0.6447 -0.2156
  290MOL0     H40018   8.270   2.963   9.468 -1.5636 -2.6351 -2.5961
  290MOL0     H40019   8.370   2.930   9.606 -1.4407 -0.2753  2.8756
  290MOL0     H40020   8.284   2.800   9.506 -0.0438  1.7964 -1.7308
  291MOL0     O40021   3.718   1.464   5.433 -0.7038  0.6372  0.6746
  291MOL0     C40022   3.759   1.347   5.461  0.7838  0.5617  0.1290
  291MOL0     O40023   3.857   1.317   5.549  0.4322  0.3703 -0.4187
  291MOL0     C40024   3.941   1.419   5.591 -0.4873  0.3407  0.1570
  291MOL0     C40025   3.909   1.508   5.692 -0.0087 -0.9480 -0.5464
  291MOL0     C40026   3.994   1.605   5.747 -0.0679  0.3976  1.4290
  291MOL0     C40027   4.113   1.620   5.671  0.1589  0.1097 -0.2131
  291MOL0     O40028   4.190   1.713   5.720 -0.6596 -0.6719 -0.3779
  291MOL0     C40029   4.178   1.831   5.647  0.6464 -0.2941 -0.3161
  291MOL0     C40030   4.320   1.914   5.635  0.0894  0.1264  0.7830
  291MOL0     C40031   4.330   2.011   5.520  0.0324 -0.9276  0.4340
  291MOL0     C40032   4.472   2.045   5.471  0.0905 -0.3496 -0.8158
  291MOL0     C40033   4.537   2.149   5.566 -0.8485  0.1946 -1.1333
  291MOL0     C40034   4.665   2.188   5.508  0.5025 -0.2499 -0.2844
  291MOL0     C40035   4.726   2.300   5.591 -0.5602  0.8571  0.1014
  291MOL0     C40036   4.686   2.437   5.542  1.0519 -1.2169  0.2390
  291MOL0     N40037   4.756   2.542   5.617 -0.7996  0.1591 -0.1286
  291MOL0     C40038   4.705   2.600   5.729 -0.4418 -1.3548 -0.4049
  291MOL0     C40039   4.793   2.696   5.765  0.7530 -0.5589 -0.2859
  291MOL0     C40040   4.783   2.797   5.882 -0.5739 -1.0943  0.2540
  291MOL0     C40041   4.903   2.759   5.976 -0.1929 -0.0241 -0.0054
  291MOL0     C40042   4.898   2.834   6.106  0.4283  0.4858  1.1764
  291MOL0     C40043   5.037   2.837   6.177 -0.4360  0.8499 -0.9034
  291MOL0     O40044   5.049   2.939   6.271  0.2585  0.3619  1.3462
  291MOL0     C40045   5.165   2.960   6.340  0.8092 -0.0906  1.0696
  291MOL0     C40046   5.176   3.084   6.388  0.8617 -0.1560  0.2240
  291MOL0     C40047   5.285   3.126   6.465 -0.3703 -0.0591 -0.1040
  291MOL0     C40048   5.301   3.265   6.512  0.5546 -0.5571  0.2960
  291MOL0     C40049   5.404   3.037   6.471 -0.3431 -0.0512  0.0555
  291MOL0     C40050   5.536   3.070   6.510 -0.1181  0.2445 -0.5422
  291MOL0     O40051   5.641   3.001   6.459  0.1296  0.2815 -0.1048
  291MOL0     C40052   5.764   3.050   6.472 -0.6271 -0.0453 -0.4692
  291MOL0     C40053   5.789   3.185   6.429 -1.5984 -0.0092  1.3977
  291MOL0     C40054   5.922   3.228   6.439  0.7469 -0.5313 -0.1685
  291MOL0     C40055   6.022   3.152   6.495  0.0683  0.1142  0.3954
  291MOL0     O40056   6.137   3.216   6.505 -1.4450  0.0392  0.6790
  291MOL0     C40057   6.259   3.147   6.474  0.0799  0.0691  0.5056
  291MOL0     C40058   6.288   3.127   6.331  0.1427 -0.4260  0.1428
  291MOL0     C40059   6.304   3.266   6.245 -0.5313  1.4762 -0.2980
  291MOL0     C40060   6.356   3.247   6.105 -0.3181  1.1862  1.0162
  291MOL0     C40061   6.509   3.221   6.111  0.4917  0.7391  0.3277
  291MOL0     C40062   6.544   3.065   6.085 -0.1884  0.0639  0.3841
  291MOL0     C40063   6.493   3.028   5.944 -0.1538  0.7644 -0.6013
  291MOL0     C40064   6.595   2.940   5.870 -0.2308 -0.1683 -0.1914
  291MOL0    Cl40065   6.559   2.958   5.697 -0.1396  0.6831  0.1985
  291MOL0     C40066   6.003   3.026   6.548  0.4258 -0.0131 -0.6736
  291MOL0     C40067   5.871   2.979   6.524  0.7225  0.2025  0.2143
  291MOL0     O40068   5.539   3.150   6.607  0.5236  0.2414 -0.0765
  291MOL0     C40069   5.388   2.909   6.414 -0.5459 -0.1591 -0.9378
  291MOL0     C40070   5.267   2.867   6.353  0.0640 -0.2956  0.0652
  291MOL0     N40071   4.908   2.674   5.682 -0.3217  0.0238  0.1384
  291MOL0     N40072   4.882   2.588   5.596 -0.5378 -0.7304  0.0248
  291MOL0     C40073   4.158   1.521   5.572 -1.0419 -0.5751 -0.5263
  291MOL0     C40074   4.076   1.424   5.539 -0.4570  0.2450  0.5176
  291MOL0     C40075   3.681   1.233   5.412  0.0822  0.3055  0.7519
  291MOL0     C40076   3.649   1.143   5.509  0.0984  0.6721 -0.5747
  291MOL0     C40077   3.561   1.043   5.486  0.7867 -1.0775  0.4330
  291MOL0     C40078   3.518   1.030   5.350  0.1646 -0.0359  0.5665
  291MOL0     O40079   3.423   0.934   5.318 -0.6283  0.1260  0.5060
  291MOL0     C40080   3.460   0.803   5.351 -0.2223  0.3035  0.7543
  291MOL0     C40081   3.515   0.727   5.234  0.5373 -0.5343 -1.0167
  291MOL0     C40082   3.406   0.676   5.147 -0.7402 -1.0330 -0.8866
  291MOL0     C40083   3.476   0.586   5.042 -0.2961  1.3538  0.2664
  291MOL0     C40084   3.388   0.497   4.960 -0.8831 -0.3508  0.0507
  291MOL0     C40085   3.311   0.423   4.910 -0.7268  0.0221 -0.4173
  291MOL0     C40086   3.543   1.122   5.251  0.2995 -0.3744 -0.2414
  291MOL0     C40087   3.619   1.230   5.284 -0.2469 -0.0373 -0.3166
  291MOL0     C40088   3.637   1.345   5.178 -0.8077 -0.4292  0.4409
  291MOL0     H40089   3.810   1.507   5.736  0.5355  1.8278  1.0050
  291MOL0     H40090   3.963   1.664   5.832  2.1686 -1.2163  3.4951
  291MOL0     H40091   4.110   1.899   5.699  2.2294 -0.6236  2.3698
  291MOL0     H40092   4.155   1.808   5.543  1.0816 -1.1648 -0.2278
  291MOL0     H40093   4.346   1.954   5.733  0.1402  0.4458  0.6402
  291MOL0     H40094   4.400   1.841   5.622  0.6309  0.9970 -1.0765
  291MOL0     H40095   4.286   1.961   5.434 -1.1594 -2.4775  1.8820
  291MOL0     H40096   4.278   2.102   5.550  2.8407  0.7373  0.6477
  291MOL0     H40097   4.525   1.951   5.456  0.0943 -0.5566  0.3997
  291MOL0     H40098   4.458   2.103   5.379 -3.2451  2.4822  1.2213
  291MOL0     H40099   4.559   2.100   5.662  2.3897  0.0738 -1.8245
  291MOL0     H40100   4.474   2.238   5.564 -0.6540  0.3660 -0.0564
  291MOL0     H40101   4.737   2.106   5.499  1.0681  0.3640 -1.7108
  291MOL0     H40102   4.649   2.230   5.408  2.2295 -1.0104 -0.9241
  291MOL0     H40103   4.834   2.294   5.574 -0.8850 -0.3624 -1.8642
  291MOL0     H40104   4.706   2.290   5.698  1.4237  1.6288  0.6034
  291MOL0     H40105   4.715   2.440   5.437  1.3490 -0.9334  0.3296
  291MOL0     H40106   4.578   2.446   5.562  1.8976  1.6099  5.1471
  291MOL0     H40107   4.601   2.586   5.757  0.1070 -2.3056  1.3182
  291MOL0     H40108   4.683   2.787   5.925 -0.5285 -1.0858  0.3607
  291MOL0     H40109   4.800   2.900   5.850 -3.7789 -1.0654 -1.7850
  291MOL0     H40110   4.895   2.654   6.004 -0.5461 -0.7853 -2.7178
  291MOL0     H40111   4.995   2.776   5.920  0.6276 -0.5073  1.1590
  291MOL0     H40112   4.867   2.939   6.097 -0.9532  0.0647  0.7780
  291MOL0     H40113   4.824   2.793   6.175  0.6124  2.0714  2.3902
  291MOL0     H40114   5.038   2.748   6.240 -0.9107  2.2062  1.1229
  291MOL0     H40115   5.126   2.835   6.113  0.7570  0.6705  0.7109
  291MOL0     H40116   5.083   3.140   6.381 -1.3569 -3.6472 -0.8527
  291MOL0     H40117   5.206   3.319   6.511 -0.9462 -2.9704  2.1529
  291MOL0     H40118   5.373   3.317   6.448  1.9058 -3.0627 -0.3416
  291MOL0     H40119   5.336   3.274   6.615 -0.0729 -2.3424  0.6989
  291MOL0     H40120   5.709   3.245   6.388 -1.3534 -0.5237  0.1298
  291MOL0     H40121   5.943   3.325   6.398  0.3300 -0.1382  0.5251
  291MOL0     H40122   6.347   3.197   6.516  0.0642 -0.4648  1.2000
  291MOL0     H40123   6.270   3.048   6.521 -4.0923 -1.3296 -1.0364
  291MOL0     H40124   6.383   3.072   6.325 -0.8957 -2.2918  0.3154
  291MOL0     H40125   6.208   3.068   6.285 -0.6820 -1.0716  2.2834
  291MOL0     H40126   6.360   3.342   6.301 -0.3182  1.2646 -0.2233
  291MOL0     H40127   6.199   3.299   6.244 -0.5987  1.3401  0.7872
  291MOL0     H40128   6.334   3.328   6.035 -1.7528  0.3471  0.4566
  291MOL0     H40129   6.306   3.163   6.056  1.8571  0.9381 -0.9471
  291MOL0     H40130   6.569   3.283   6.043  2.1476 -1.3834 -0.2587
  291MOL0     H40131   6.548   3.258   6.206 -1.8037  2.5943  0.6452
  291MOL0     H40132   6.502   2.992   6.154 -0.2886 -0.1404  0.1098
  291MOL0     H40133   6.652   3.055   6.102  0.3971  1.1590 -2.1520
  291MOL0     H40134   6.485   3.121   5.887  0.5273  0.7894 -0.6661
  291MOL0     H40135   6.399   2.972   5.949 -0.6392  1.2100 -3.3253
  291MOL0     H40136   6.570   2.837   5.899 -4.1402  1.0210  1.3297
  291MOL0     H40137   6.697   2.977   5.884 -0.4043 -0.1338  1.1641
  291MOL0     H40138   6.072   2.960   6.599 -0.5588 -1.1545 -0.7647
  291MOL0     H40139   5.848   2.881   6.562 -2.5685 -0.6106 -3.2676
  291MOL0     H40140   5.465   2.834   6.433 -1.2950 -1.1261 -1.6139
  291MOL0     H40141   5.248   2.769   6.311 -0.3351 -0.9421  1.6483
  291MOL0     H40142   4.247   1.526   5.510 -0.7159  1.1147  0.0141
  291MOL0     H40143   4.116   1.350   5.470 -1.0458 -2.0777  2.4846
  291MOL0     H40144   3.705   1.144   5.602 -0.1935 -0.1757 -0.3793
  291MOL0     H40145   3.538   0.967   5.559  3.2104 -0.3597  2.0924
  291MOL0     H40146   3.525   0.795   5.439 -1.0367 -1.9651  1.2110
  291MOL0     H40147   3.376   0.747   5.393 -3.6679  3.6484 -1.1138
  291MOL0     H40148   3.569   0.642   5.278  0.1805  0.0299  0.5763
  291MOL0     H40149   3.585   0.794   5.183  2.4791 -2.7310 -1.4348
  291MOL0     H40150   3.319   0.631   5.196  0.3928 -0.7071  1.5799
  291MOL0     H40151   3.366   0.761   5.090 -3.2541 -1.6252 -0.1375
  291MOL0     H40152   3.570   0.542   5.076  0.0158 -2.2618 -4.2461
  291MOL0     H40153   3.515   0.659   4.970  0.4127  0.2087 -0.5466
  291MOL0     H40154   3.235   0.359   4.869  0.8954 -1.7035 -0.9030
  291MOL0     H40155   3.499   1.108   5.153 -0.0628 -0.7834 -0.0193
  291MOL0     H40156   3.585   1.431   5.220 -0.6573 -0.0771 -0.0811
  291MOL0     H40157   3.741   1.360   5.148 -1.4302  1.3417 -1.0220
  291MOL0     H40158   3.580   1.309   5.092 -0.4927 -0.6785  0.3340
  292MOL0     O40159   7.384   7.731   6.431 -0.2681 -0.0001  0.9134
  292MOL0     C40160   7.271   7.729   6.482 -0.3796  0.8950 -0.3370
  292MOL0     O40161   7.224   7.627   6.553  0.1326  0.1905 -0.4244
  292MOL0     C40162   7.316   7.546   6.624  0.6681 -0.4159 -0.0445
  292MOL0     C40163   7.438   7.491   6.567  0.8641  0.6556  0.7309
  292MOL0     C40164   7.520   7.394   6.644 -0.3418  0.4488 -0.0461
  292MOL0     C40165   7.486   7.379   6.784 -0.4520  1.6431  0.9716
  292MOL0     O40166   7.563   7.309   6.873  0.5943  0.9185 -0.7667
  292MOL0     C40167   7.697   7.285   6.859  0.1012 -0.9400 -0.1008
  292MOL0     C40168   7.759   7.258   7.001 -0.8124  0.2732  0.1305
  292MOL0     C40169   7.912   7.255   6.989  0.0405  0.8358  0.3175
  292MOL0     C40170   7.979   7.210   7.123  0.0078  0.1341  0.1880
  292MOL0     C40171   8.130   7.222   7.105  0.2446  0.7577 -1.3495
  292MOL0     C40172   8.193   7.358   7.089  0.0485 -0.0687 -0.4753
  292MOL0     C40173   8.277   7.379   6.960 -0.0597 -1.1260 -0.2667
  292MOL0     C40174   8.396   7.486   6.974  0.3784 -0.1455  0.4722
  292MOL0     N40175   8.342   7.612   7.023  0.9221 -1.0093 -0.6571
  292MOL0     C40176   8.338   7.721   6.943 -0.2846 -0.4198  0.3753
  292MOL0     C40177   8.281   7.818   7.025  0.5595  1.7759  0.9186
  292MOL0     C40178   8.249   7.957   6.974 -0.7337 -0.1832  0.8550
  292MOL0     C40179   8.164   7.949   6.844  0.1651  0.1098 -0.3672
  292MOL0     C40180   8.133   8.086   6.788 -0.0756 -0.7240  0.0678
  292MOL0     C40181   8.050   8.075   6.656  0.8901 -0.5874 -0.9037
  292MOL0     O40182   8.043   8.196   6.582  0.1274 -0.2281  0.5801
  292MOL0     C40183   7.990   8.299   6.647  0.0799  0.3981  0.7491
  292MOL0     C40184   8.074   8.413   6.652  0.2827 -0.0479 -0.0728
  292MOL0     C40185   8.038   8.530   6.729  0.0012 -0.4642  0.9988
  292MOL0     C40186   8.139   8.630   6.713  0.7280 -0.0561 -0.4166
  292MOL0     C40187   7.915   8.531   6.804 -0.1720  0.2743  0.6782
  292MOL0     C40188   7.887   8.634   6.903  0.2145 -0.5075 -0.5757
  292MOL0     O40189   7.990   8.691   6.966  0.2148 -1.0003 -0.1982
  292MOL0     C40190   7.968   8.778   7.068 -0.2464 -0.0387  0.1084
  292MOL0     C40191   7.888   8.889   7.059  0.0441  1.4073  0.0689
  292MOL0     C40192   7.878   8.970   7.173  0.1852  0.4759  0.0380
  292MOL0     C40193   7.942   8.948   7.291 -0.0200  0.6714  0.8301
  292MOL0     O40194   7.936   9.048   7.382  0.3246  0.3385 -0.0024
  292MOL0     C40195   7.953   9.011   7.518 -0.7436  0.6400 -0.6564
  292MOL0     C40196   7.963   9.128   7.614  0.0880  0.2132  0.1567
  292MOL0     C40197   8.085   9.215   7.581 -0.2634  0.9459  0.0283
  292MOL0     C40198   8.105   9.322   7.683  0.0123  0.3050  0.3236
  292MOL0     C40199   8.224   9.414   7.653 -1.7389 -0.2748  0.2543
  292MOL0     C40200   8.356   9.325   7.667  0.1998  0.6860  0.1699
  292MOL0     C40201   8.484   9.419   7.671 -0.6373  0.3046 -0.0083
  292MOL0     C40202   8.617   9.332   7.680  0.7235 -0.0717 -0.1219
  292MOL0    Cl40203   8.644   9.226   7.540  0.3344  0.0247 -0.3223
  292MOL0     C40204   8.010   8.827   7.295 -0.1502 -0.3505 -0.6067
  292MOL0     C40205   8.034   8.748   7.186 -0.6600  0.1160 -0.3007
  292MOL0     O40206   7.771   8.662   6.934  0.0977  0.2014 -0.3962
  292MOL0     C40207   7.826   8.418   6.775 -0.1170 -0.1566 -0.2400
  292MOL0     C40208   7.863   8.301   6.706  0.2620 -1.3308  0.5089
  292MOL0     N40209   8.260   7.759   7.146  0.2516 -1.0730 -0.1718
  292MOL0     N40210   8.300   7.643   7.149 -1.5372  0.7502  0.5727
  292MOL0     C40211   7.367   7.429   6.835  0.4689  0.1009  0.3077
  292MOL0     C40212   7.288   7.517   6.757 -0.6624  0.7215 -0.5728
  292MOL0     C40213   7.173   7.836   6.480 -0.2920 -0.9731  0.2657
  292MOL0     C40214   7.040   7.815   6.526 -0.0839 -0.0295  0.6753
  292MOL0     C40215   6.946   7.913   6.547  0.6915  0.2976  0.0754
  292MOL0     C40216   6.979   8.043   6.497 -0.4468 -0.0867 -0.2639
  292MOL0     O40217   6.876   8.141   6.513  0.1359 -0.3731  0.0795
  292MOL0     C40218   6.920   8.249   6.598  0.6294  0.2060 -0.4183
  292MOL0     C40219   6.920   8.389   6.524  0.7810 -0.7710 -0.4843
  292MOL0     C40220   6.796   8.408   6.437 -0.0125  0.0836 -0.3203
  292MOL0     C40221   6.804   8.512   6.325 -0.6020  0.2696 -0.1218
  292MOL0     C40222   6.849   8.446   6.195  0.1729  0.0250 -0.2504
  292MOL0     C40223   6.866   8.389   6.086  0.7020  0.3823  0.0600
  292MOL0     C40224   7.109   8.066   6.451  0.7758 -0.5032  0.5719
  292MOL0     C40225   7.206   7.968   6.437 -0.7930  0.2763 -0.5878
  292MOL0     C40226   7.340   8.015   6.392 -0.1454  0.6991 -0.2675
  292MOL0     H40227   7.472   7.503   6.465 -2.4261 -0.8630 -0.6933
  292MOL0     H40228   7.607   7.342   6.606 -1.4523 -1.8106  0.3342
  292MOL0     H40229   7.744   7.381   6.832  0.0617 -0.2131  2.1937
  292MOL0     H40230   7.709   7.193   6.802  0.2692 -0.8219 -0.2578
  292MOL0     H40231   7.727   7.332   7.074 -1.7897  1.1598 -1.1502
  292MOL0     H40232   7.733   7.160   7.044  3.2611  0.1345  2.7666
  292MOL0     H40233   7.927   7.175   6.916 -4.2921 -1.7984  1.9003
  292MOL0     H40234   7.951   7.350   6.951 -1.5546  1.2289 -0.4346
  292MOL0     H40235   7.943   7.269   7.208  1.3143 -0.6275  1.3253
  292MOL0     H40236   7.959   7.104   7.141  2.5437 -0.8169 -1.8930
  292MOL0     H40237   8.151   7.152   7.023  2.1840 -0.2423 -0.0695
  292MOL0     H40238   8.187   7.180   7.188  1.2413 -3.4597 -3.8641
  292MOL0     H40239   8.116   7.435   7.083  1.4312  1.2653 -2.1093
  292MOL0     H40240   8.257   7.379   7.176 -2.8282  3.0810  1.0729
  292MOL0     H40241   8.207   7.405   6.880 -1.3641  2.1196  1.7146
  292MOL0     H40242   8.331   7.288   6.935 -0.5505 -1.2862 -0.7751
  292MOL0     H40243   8.478   7.452   7.039  0.5244 -1.3060 -0.2942
  292MOL0     H40244   8.455   7.491   6.882  0.1425 -1.9237  0.1912
  292MOL0     H40245   8.374   7.728   6.840  1.8990 -2.2109  0.9284
  292MOL0     H40246   8.346   8.004   6.954 -2.3157  2.3771 -1.5458
  292MOL0     H40247   8.205   8.001   7.064  0.2173  0.8480  0.8417
  292MOL0     H40248   8.222   7.900   6.765 -2.3838 -2.1595 -0.9674
  292MOL0     H40249   8.078   7.885   6.864  0.3731 -0.6854 -1.8661
  292MOL0     H40250   8.087   8.152   6.862  2.6269  0.8966  0.4507
  292MOL0     H40251   8.229   8.134   6.767  0.0591 -0.1052  1.9154
  292MOL0     H40252   8.096   8.009   6.583 -0.0232 -1.9710 -0.2697
  292MOL0     H40253   7.950   8.037   6.681  1.2423  0.6518  3.1129
  292MOL0     H40254   8.163   8.409   6.591  0.6184 -1.8959  0.4679
  292MOL0     H40255   8.169   8.636   6.608  4.1859 -0.8240  0.3783
  292MOL0     H40256   8.223   8.593   6.774  0.2432  1.1501  1.0401
  292MOL0     H40257   8.106   8.731   6.738 -3.8371 -1.4272  0.0914
  292MOL0     H40258   7.830   8.914   6.971  2.8474  2.0964 -1.7229
  292MOL0     H40259   7.809   9.054   7.173  0.7269  0.9321  0.7471
  292MOL0     H40260   7.871   8.952   7.558 -0.2722 -0.1902 -0.8963
  292MOL0     H40261   8.048   8.956   7.522 -2.3772 -2.3073  0.4212
  292MOL0     H40262   7.874   9.190   7.606  0.3314  1.1484  3.2436
  292MOL0     H40263   7.967   9.096   7.719 -1.0330 -3.4886 -0.7768
  292MOL0     H40264   8.068   9.247   7.478 -0.1029  2.9965  0.6055
  292MOL0     H40265   8.174   9.152   7.580 -0.7572  0.2380 -1.1083
  292MOL0     H40266   8.126   9.269   7.777 -0.2877 -1.0903 -0.3727
  292MOL0     H40267   8.013   9.380   7.694 -1.5979 -2.0902  0.0323
  292MOL0     H40268   8.226   9.465   7.556 -0.8906 -0.6723  0.0618
  292MOL0     H40269   8.226   9.491   7.731 -2.7821 -0.8484  0.8734
  292MOL0     H40270   8.369   9.255   7.585  1.5348  1.1907 -0.0763
  292MOL0     H40271   8.360   9.268   7.760 -2.4474 -1.6045 -1.0040
  292MOL0     H40272   8.480   9.480   7.762  0.6107 -1.0837  1.0231
  292MOL0     H40273   8.483   9.491   7.588 -2.6687  1.6769  1.1177
  292MOL0     H40274   8.597   9.274   7.771 -0.1234 -2.5810 -1.7929
  292MOL0     H40275   8.704   9.393   7.705  0.7305 -0.9024  2.1200
  292MOL0     H40276   8.075   8.801   7.377 -0.1743  2.3927  0.3841
  292MOL0     H40277   8.112   8.675   7.205 -0.5783  1.0337  3.8929
  292MOL0     H40278   7.726   8.424   6.818  0.8584 -1.7445  2.4753
  292MOL0     H40279   7.782   8.234   6.678 -1.0427  1.4819 -3.3738
  292MOL0     H40280   7.333   7.401   6.934  1.5747 -0.6633  0.4852
  292MOL0     H40281   7.194   7.561   6.791 -2.3983 -1.3930 -2.3374
  292MOL0     H40282   7.007   7.715   6.551 -0.6397 -0.2365 -0.7730
  292MOL0     H40283   6.851   7.888   6.593  0.5844 -2.4178 -1.4065
  292MOL0     H40284   6.858   8.258   6.687 -0.3423  4.2463 -1.2886
  292MOL0     H40285   7.021   8.231   6.636 -0.2788  0.5207  2.3118
  292MOL0     H40286   7.006   8.402   6.457  2.1061  1.2378  1.4846
  292MOL0     H40287   6.923   8.459   6.608 -0.4836 -0.6279 -0.5363
  292MOL0     H40288   6.785   8.310   6.391  1.9615 -0.0627 -0.5430
  292MOL0     H40289   6.711   8.427   6.504  0.6264  1.2000  0.2076
  292MOL0     H40290   6.863   8.593   6.370 -0.2920 -0.8044  1.5081
  292MOL0     H40291   6.706   8.547   6.292  0.8437  1.3298 -3.8120
  292MOL0     H40292   6.874   8.350   5.987 -1.9114 -1.1164  0.3613
  292MOL0     H40293   7.124   8.167   6.414 -0.5226 -1.6401 -3.5662
  292MOL0     H40294   7.342   8.123   6.375 -1.1502  0.1810 -4.9362
  292MOL0     H40295   7.409   7.979   6.468 -1.0920  0.9340  0.7338
  292MOL0     H40296   7.371   7.969   6.298  1.3365  2.8491 -0.9048
  293MOL0     O40297   8.991   1.314   2.976 -0.6827 -0.0775 -0.1756
  293MOL0     C40298   9.023   1.194   2.977 -0.0325 -0.7400 -1.5233
  293MOL0     O40299   9.073   1.127   3.090  0.3742  0.4580  0.6108
  293MOL0     C40300   9.031   1.142   3.216 -0.3327  0.4367  0.6485
  293MOL0     C40301   9.109   1.070   3.306  0.4387 -0.0183  1.2503
  293MOL0     C40302   9.082   1.080   3.439  0.3908  0.2445 -0.0266
  293MOL0     C40303   8.974   1.156   3.488 -0.2643 -0.7175  0.5425
  293MOL0     O40304   8.941   1.168   3.619  0.4721 -0.5511  0.1634
  293MOL0     C40305   8.921   1.029   3.661 -0.4416  0.0219 -0.4955
  293MOL0     C40306   8.915   1.031   3.806 -0.0483  0.4634 -0.3856
  293MOL0     C40307   9.035   1.106   3.875  0.5025  0.1470 -1.3067
  293MOL0     C40308   9.172   1.038   3.848 -0.5210  0.7609 -0.1650
  293MOL0     C40309   9.283   1.064   3.960  0.2375  0.1658  0.0167
  293MOL0     C40310   9.257   0.975   4.077  0.6773  0.0640  1.1314
  293MOL0     C40311   9.361   0.970   4.185 -0.3763  0.0494 -1.0288
  293MOL0     C40312   9.340   0.876   4.300  0.2801 -0.6733 -0.5499
  293MOL0     N40313   9.347   0.741   4.243  0.3058  0.5193 -0.9307
  293MOL0     C40314   9.444   0.685   4.164  0.0269 -0.1433 -0.5759
  293MOL0     C40315   9.394   0.583   4.090  0.6800 -0.2282 -0.1794
  293MOL0     C40316   9.462   0.478   4.014 -0.0614  1.0337  1.0556
  293MOL0     C40317   9.615   0.486   3.979 -0.1771  0.3345 -0.0043
  293MOL0     C40318   9.688   0.374   3.905 -0.5678 -0.0875  0.4942
  293MOL0     C40319   9.801   0.294   3.980  0.8221  0.7755  0.2795
  293MOL0     O40320   9.887   0.365   4.067 -0.1343 -0.7356 -0.1606
  293MOL0     C40321  10.004   0.312   4.120 -0.0362  0.9088 -0.7105
  293MOL0     C40322  10.032   0.174   4.112  0.2267  0.2911 -0.1022
  293MOL0     C40323  10.147   0.126   4.171  0.0233  0.2304  0.0398
  293MOL0     C40324  10.174  -0.022   4.151  0.7926  0.5545 -0.1868
  293MOL0     C40325  10.243   0.207   4.231 -0.3700 -0.1598  0.1266
  293MOL0     C40326  10.366   0.161   4.310  0.8300  0.0892 -0.1720
  293MOL0     O40327  10.360   0.035   4.377 -0.5424 -0.0932 -0.6190
  293MOL0     C40328  10.472   0.021   4.455 -0.0774 -0.0724  0.2400
  293MOL0     C40329  10.578  -0.054   4.393  0.2058 -0.4508  0.1645
  293MOL0     C40330  10.691  -0.073   4.478  0.3558 -0.3809  0.2979
  293MOL0     C40331  10.691  -0.020   4.611 -0.9462  0.5881  0.4832
  293MOL0     O40332  10.809  -0.060   4.680 -0.1028  0.0416  0.1076
  293MOL0     C40333  10.822  -0.007   4.810 -0.3963  0.3636  0.2774
  293MOL0     C40334  10.842   0.153   4.813  0.4363 -0.2446 -0.9924
  293MOL0     C40335  10.982   0.195   4.779 -0.4064 -0.2298 -0.3715
  293MOL0     C40336  10.991   0.341   4.805 -0.1583 -1.1690 -0.3298
  293MOL0     C40337  11.119   0.406   4.732 -0.5586  0.5534  0.1731
  293MOL0     C40338  11.248   0.374   4.806 -0.2733  0.8411  0.3981
  293MOL0     C40339  11.371   0.425   4.736 -0.0730  0.5522  0.2041
  293MOL0     C40340  11.491   0.420   4.835  1.2738  0.0377  0.4080
  293MOL0    Cl40341  11.470   0.474   5.007 -0.3647 -0.0754  0.1941
  293MOL0     C40342  10.583   0.036   4.667  0.9707  0.1857  0.1824
  293MOL0     C40343  10.470   0.051   4.588 -0.0891  0.0269  1.2869
  293MOL0     O40344  10.457   0.252   4.316 -0.3628 -0.4337  0.0884
  293MOL0     C40345  10.214   0.344   4.228 -0.0404  0.5788 -0.6293
  293MOL0     C40346  10.093   0.396   4.185  0.0039 -0.4356 -0.0798
  293MOL0     N40347   9.256   0.590   4.107 -0.0615 -0.0774  0.0075
  293MOL0     N40348   9.236   0.671   4.206  0.3501 -0.4692  0.1929
  293MOL0     C40349   8.904   1.228   3.396 -0.5684 -0.8792 -0.9058
  293MOL0     C40350   8.933   1.226   3.260  0.3064  0.4015  0.2247
  293MOL0     C40351   9.019   1.116   2.856  0.0377  0.0070  0.2101
  293MOL0     C40352   9.076   1.170   2.742 -0.0641  0.1528 -0.0920
  293MOL0     C40353   9.070   1.105   2.624 -0.4441 -0.2577 -0.2384
  293MOL0     C40354   9.028   0.971   2.610  0.1285  0.0323  0.3921
  293MOL0     O40355   9.037   0.902   2.490  0.4434 -0.6914  0.2168
  293MOL0     C40356   8.990   0.773   2.471  0.8169 -0.0095 -0.2013
  293MOL0     C40357   8.989   0.748   2.322 -0.4001  0.0639  0.1332
  293MOL0     C40358   8.868   0.818   2.258 -0.0640  0.4092  0.1045
  293MOL0     C40359   8.824   0.750   2.120 -0.0071 -0.5345 -0.2108
  293MOL0     C40360   8.701   0.813   2.072  0.2014 -0.0602  0.1368
  293MOL0     C40361   8.611   0.873   2.014 -0.0411 -0.7436 -0.6345
  293MOL0     C40362   8.962   0.925   2.724  0.6353  0.0381  0.1068
  293MOL0     C40363   8.953   0.993   2.846  0.1693 -0.6254 -0.7647
  293MOL0     C40364   8.868   0.931   2.965  0.4665  0.9278  0.3872
  293MOL0     H40365   9.188   1.019   3.252 -1.4699  1.4596 -3.4075
  293MOL0     H40366   9.151   1.020   3.497  0.0594 -2.3408 -2.1620
  293MOL0     H40367   9.002   0.961   3.631 -0.3610  0.0923 -0.4381
  293MOL0     H40368   8.825   0.994   3.624  0.5756  0.8634 -4.3365
  293MOL0     H40369   8.822   1.077   3.839 -1.7162 -2.0057 -1.3836
  293MOL0     H40370   8.902   0.933   3.853 -1.6883  0.5226 -0.6707
  293MOL0     H40371   9.040   1.213   3.849 -2.1389  0.0888 -2.3845
  293MOL0     H40372   9.022   1.100   3.983  0.4156 -3.8357 -1.4101
  293MOL0     H40373   9.159   0.930   3.844  1.2030  0.2896  3.1421
  293MOL0     H40374   9.207   1.073   3.750 -1.3552 -0.4418 -0.9140
  293MOL0     H40375   9.283   1.171   3.984 -0.5576  0.2792 -0.4590
  293MOL0     H40376   9.381   1.040   3.916 -0.4540 -0.7753 -1.0624
  293MOL0     H40377   9.160   0.991   4.124 -0.4743  3.5134 -1.9172
  293MOL0     H40378   9.250   0.873   4.039 -3.0094 -0.2235  2.2458
  293MOL0     H40379   9.366   1.072   4.226  2.2777  0.6708 -2.6711
  293MOL0     H40380   9.465   0.954   4.154  0.9066 -0.9388  3.1197
  293MOL0     H40381   9.412   0.902   4.378 -1.4618  0.1680  0.8628
  293MOL0     H40382   9.242   0.897   4.345 -0.9827 -1.4198 -2.8206
  293MOL0     H40383   9.549   0.701   4.185 -0.1920 -1.5991  2.2145
  293MOL0     H40384   9.417   0.465   3.915  3.4227  1.3853 -0.7419
  293MOL0     H40385   9.443   0.388   4.074 -2.6534 -1.3583 -2.8995
  293MOL0     H40386   9.625   0.573   3.914 -0.7275  0.4059 -0.0037
  293MOL0     H40387   9.670   0.498   4.072 -1.1771  0.4854  0.5875
  293MOL0     H40388   9.612   0.306   3.865 -2.1221  0.7936  1.8346
  293MOL0     H40389   9.739   0.417   3.819 -0.9932 -2.3312 -0.9626
  293MOL0     H40390   9.762   0.208   4.035 -1.1921  3.0244  2.6562
  293MOL0     H40391   9.851   0.256   3.891  0.6082 -1.1331  0.9248
  293MOL0     H40392   9.967   0.098   4.069  1.6575 -1.7163  1.0958
  293MOL0     H40393  10.096  -0.084   4.198 -3.4653  2.9573 -3.3043
  293MOL0     H40394  10.274  -0.061   4.170 -0.3639 -1.0416  3.7820
  293MOL0     H40395  10.157  -0.054   4.048  1.3762  0.0554 -0.1348
  293MOL0     H40396  10.557  -0.092   4.294  0.0053  0.3314 -0.0955
  293MOL0     H40397  10.775  -0.124   4.433 -0.2606 -0.4809 -0.7784
  293MOL0     H40398  10.734  -0.036   4.868 -2.0386 -2.2887 -3.1573
  293MOL0     H40399  10.903  -0.057   4.864  1.6744  1.1981 -1.8983
  293MOL0     H40400  10.773   0.209   4.750  0.7088  2.5770  1.0280
  293MOL0     H40401  10.816   0.203   4.907  0.1794  4.4846 -3.3073
  293MOL0     H40402  11.012   0.165   4.678 -2.5304 -0.7434 -0.8862
  293MOL0     H40403  11.045   0.136   4.846 -1.9735  2.3488  3.7443
  293MOL0     H40404  10.998   0.355   4.913  1.3165  1.9367 -0.6805
  293MOL0     H40405  10.902   0.386   4.761  0.8850  0.1088 -1.2410
  293MOL0     H40406  11.119   0.366   4.631 -2.2745 -1.0220  0.7338
  293MOL0     H40407  11.111   0.515   4.729 -0.3978  0.6463  2.0000
  293MOL0     H40408  11.257   0.267   4.828 -0.6345  0.1845 -2.2535
  293MOL0     H40409  11.229   0.417   4.905 -2.8225 -0.9333  0.7728
  293MOL0     H40410  11.350   0.527   4.701 -1.6241  0.4243  0.6901
  293MOL0     H40411  11.399   0.371   4.646  0.5583  0.5238  0.4135
  293MOL0     H40412  11.570   0.486   4.797 -0.8491  0.6640 -3.4146
  293MOL0     H40413  11.533   0.319   4.844  0.2022 -0.4002  0.6095
  293MOL0     H40414  10.560   0.058   4.771 -0.1293 -3.3410  0.8390
  293MOL0     H40415  10.386   0.106   4.629  2.6006  4.7747  1.1202
  293MOL0     H40416  10.285   0.417   4.263  2.7939 -1.4299 -1.8209
  293MOL0     H40417  10.075   0.501   4.204  1.3146 -0.2198  0.0650
  293MOL0     H40418   8.832   1.295   3.442 -0.7160  0.2695 -2.6828
  293MOL0     H40419   8.882   1.301   3.201 -1.4884  0.4734  1.7586
  293MOL0     H40420   9.123   1.268   2.740 -1.3941  0.8053 -0.0077
  293MOL0     H40421   9.095   1.157   2.532 -0.0022  0.5791  0.3489
  293MOL0     H40422   9.065   0.707   2.516 -0.2875  0.4285  2.5468
  293MOL0     H40423   8.892   0.754   2.515  1.9315 -1.8705  1.6746
  293MOL0     H40424   8.999   0.643   2.294 -0.0308  0.1820 -0.1980
  293MOL0     H40425   9.073   0.794   2.268 -0.1117 -0.1918  0.3577
  293MOL0     H40426   8.785   0.816   2.329  0.2833 -1.2396  0.5001
  293MOL0     H40427   8.891   0.924   2.242  1.4061  0.1554  0.4435
  293MOL0     H40428   8.791   0.649   2.144 -0.8817 -0.0313  0.7513
  293MOL0     H40429   8.912   0.757   2.056 -0.8543  1.1979 -1.2594
  293MOL0     H40430   8.530   0.925   1.967  1.3416  1.9209 -0.2807
  293MOL0     H40431   8.917   0.827   2.722  1.1463 -0.2756 -4.0394
  293MOL0     H40432   8.908   0.832   2.988 -1.8230 -0.2296 -0.2763
  293MOL0     H40433   8.870   0.977   3.064  0.2920 -2.3797  2.0914
  293MOL0     H40434   8.767   0.928   2.922  1.0133 -2.1170 -0.9645
  294MOL0     O40435   0.421   1.348   5.232 -0.2632  0.2407 -0.7696
  294MOL0     C40436   0.444   1.304   5.347 -0.9990 -0.1165 -0.2060
  294MOL0     O40437   0.487   1.379   5.459 -0.1614  0.0520  0.4701
  294MOL0     C40438   0.508   1.510   5.417 -0.6611  0.5540 -0.6692
  294MOL0     C40439   0.636   1.550   5.374  0.3155  0.5007  0.4941
  294MOL0     C40440   0.655   1.683   5.344 -0.0495  0.9690 -0.4308
  294MOL0     C40441   0.546   1.778   5.345  0.9330 -0.6943  0.1674
  294MOL0     O40442   0.574   1.906   5.302  0.4483  0.0843  0.4320
  294MOL0     C40443   0.486   1.960   5.197  0.1353 -0.2643  0.4606
  294MOL0     C40444   0.433   2.102   5.214  1.2964 -0.2218 -0.8068
  294MOL0     C40445   0.341   2.142   5.103 -0.7108 -0.5187  0.0218
  294MOL0     C40446   0.320   2.284   5.108 -0.0536  0.7959 -0.5404
  294MOL0     C40447   0.244   2.327   4.982  0.2633 -0.1471 -0.3516
  294MOL0     C40448   0.192   2.472   4.999  0.2755 -0.2972  0.0131
  294MOL0     C40449   0.097   2.485   4.872 -0.8460  1.0943 -0.2949
  294MOL0     C40450   0.073   2.630   4.836  0.5290 -0.4284  1.0171
  294MOL0     N40451  -0.034   2.687   4.915 -0.2022 -0.9606  0.4934
  294MOL0     C40452  -0.164   2.636   4.920 -0.0263  0.3339 -0.4176
  294MOL0     C40453  -0.227   2.695   5.027 -1.1021 -0.5752  0.2866
  294MOL0     C40454  -0.378   2.695   5.015  0.3508 -0.1081 -0.2246
  294MOL0     C40455  -0.433   2.611   5.133  0.1699 -0.0319 -0.3064
  294MOL0     C40456  -0.587   2.591   5.141 -0.1061  1.3481 -0.3659
  294MOL0     C40457  -0.636   2.559   5.281 -0.7318  0.1978 -0.8220
  294MOL0     O40458  -0.779   2.573   5.276  0.0755  0.4814 -0.0284
  294MOL0     C40459  -0.854   2.532   5.381  0.1504  0.1936 -0.7697
  294MOL0     C40460  -0.801   2.493   5.507 -0.2856 -0.8827  0.5588
  294MOL0     C40461  -0.869   2.433   5.620 -0.2138 -0.8861  0.1240
  294MOL0     C40462  -0.796   2.393   5.748 -0.3340  0.7039 -0.3873
  294MOL0     C40463  -1.008   2.411   5.597  0.2018 -0.0915 -0.0849
  294MOL0     C40464  -1.084   2.337   5.698  0.6301 -0.1636 -0.0677
  294MOL0     O40465  -1.103   2.209   5.672  0.8050 -0.2106 -0.0963
  294MOL0     C40466  -1.207   2.161   5.738  0.1597  0.5217 -0.6888
  294MOL0     C40467  -1.207   2.090   5.860 -0.2794 -0.4648  0.2146
  294MOL0     C40468  -1.319   2.034   5.914 -0.8716 -0.2395  0.5934
  294MOL0     C40469  -1.443   2.037   5.839 -1.4170 -0.7464 -0.7175
  294MOL0     O40470  -1.563   1.977   5.876 -0.5067 -0.1354  0.6006
  294MOL0     C40471  -1.544   1.874   5.982  0.2766 -0.0374 -0.0044
  294MOL0     C40472  -1.680   1.805   5.999  0.4164 -1.0715 -0.2931
  294MOL0     C40473  -1.784   1.901   6.065  0.2400 -0.1160 -0.5961
  294MOL0     C40474  -1.735   1.937   6.206  0.5019 -1.0730  1.1229
  294MOL0     C40475  -1.838   1.949   6.311 -0.6131  1.3044 -0.5180
  294MOL0     C40476  -1.940   2.060   6.290  0.1458 -0.0697 -0.4352
  294MOL0     C40477  -2.040   2.084   6.411 -0.2922 -0.1583 -0.3220
  294MOL0     C40478  -2.084   2.233   6.408  0.2577 -0.0261  0.7025
  294MOL0    Cl40479  -2.160   2.271   6.571 -0.0613 -0.1895 -0.1263
  294MOL0     C40480  -1.451   2.113   5.715 -1.1292 -0.3997 -0.6798
  294MOL0     C40481  -1.330   2.183   5.666  0.8821  0.7032 -0.3656
  294MOL0     O40482  -1.114   2.398   5.800 -0.0999  0.2498 -0.2446
  294MOL0     C40483  -1.068   2.459   5.478 -1.0153  0.5278  0.0360
  294MOL0     C40484  -0.992   2.511   5.368  0.0185  0.5734 -0.0009
  294MOL0     N40485  -0.137   2.785   5.086 -0.6273 -0.5806 -0.6330
  294MOL0     N40486  -0.020   2.767   5.019  1.1623 -0.2657 -0.0821
  294MOL0     C40487   0.421   1.742   5.391 -1.1973 -0.1583 -0.5598
  294MOL0     C40488   0.407   1.608   5.431 -0.1138  0.7162 -0.3585
  294MOL0     C40489   0.414   1.158   5.369  0.4257  0.9069 -0.1332
  294MOL0     C40490   0.447   1.068   5.262  0.5232  0.4413  0.6356
  294MOL0     C40491   0.426   0.929   5.268  0.4018 -0.0951 -0.3004
  294MOL0     C40492   0.381   0.870   5.381  0.0406  0.5990 -0.1837
  294MOL0     O40493   0.359   0.732   5.406 -0.2677 -0.5925  0.6675
  294MOL0     C40494   0.395   0.626   5.315  0.1821  0.3951 -0.8847
  294MOL0     C40495   0.309   0.629   5.192 -1.0362 -0.2814  0.0030
  294MOL0     C40496   0.379   0.589   5.060  0.3109 -0.3280  0.1349
  294MOL0     C40497   0.276   0.550   4.957 -0.0095 -0.2901  0.1630
  294MOL0     C40498   0.207   0.671   4.902  0.7303  0.9401 -0.1322
  294MOL0     C40499   0.134   0.756   4.850 -0.1828  0.5660 -0.4351
  294MOL0     C40500   0.356   0.956   5.491  0.7293 -1.6452  0.2896
  294MOL0     C40501   0.373   1.096   5.486  0.6026 -0.0978 -0.2805
  294MOL0     C40502   0.344   1.179   5.611  0.5491  0.9893 -0.0906
  294MOL0     H40503   0.715   1.479   5.353 -0.0559  1.0148 -3.3315
  294MOL0     H40504   0.758   1.707   5.318  1.3648 -1.8944  1.7923
  294MOL0     H40505   0.395   1.909   5.166 -0.4514  0.7974  0.3946
  294MOL0     H40506   0.553   1.979   5.112  0.6956  1.1962  1.1980
  294MOL0     H40507   0.374   2.112   5.305 -2.1798  2.3472 -3.0586
  294MOL0     H40508   0.525   2.162   5.220  0.5447  0.8459  0.3770
  294MOL0     H40509   0.375   2.102   5.007 -0.4052 -1.2949  0.4419
  294MOL0     H40510   0.246   2.091   5.120 -0.1531 -2.0770 -1.2686
  294MOL0     H40511   0.281   2.312   5.207 -0.1374 -0.8641 -0.0765
  294MOL0     H40512   0.421   2.325   5.104 -0.8498  2.7563 -2.4375
  294MOL0     H40513   0.164   2.253   4.975  1.9154 -2.1388  0.7535
  294MOL0     H40514   0.301   2.312   4.890  1.1780 -0.0601  0.1859
  294MOL0     H40515   0.142   2.487   5.095 -0.1972 -0.1060 -0.2608
  294MOL0     H40516   0.277   2.541   4.995  1.4144 -1.5642  1.3044
  294MOL0     H40517   0.012   2.416   4.879  0.3257 -0.2853  0.9703
  294MOL0     H40518   0.160   2.458   4.786  1.1242  2.6043  0.6063
  294MOL0     H40519   0.166   2.688   4.839  2.1201 -2.7948 -0.0221
  294MOL0     H40520   0.039   2.642   4.733  0.5716  1.0920  1.1640
  294MOL0     H40521  -0.208   2.562   4.854 -4.1947  2.2213 -0.0353
  294MOL0     H40522  -0.414   2.657   4.919 -0.8613  0.1066  0.1296
  294MOL0     H40523  -0.426   2.793   5.019 -2.4793 -1.1599 -3.3092
  294MOL0     H40524  -0.379   2.516   5.133 -0.7058 -0.5352  0.4340
  294MOL0     H40525  -0.419   2.677   5.219 -0.5105 -0.2148 -0.0523
  294MOL0     H40526  -0.642   2.684   5.123 -0.2040  0.9718 -2.3127
  294MOL0     H40527  -0.637   2.521   5.072 -4.1460 -0.0960  3.5217
  294MOL0     H40528  -0.603   2.457   5.305 -3.8722 -0.2560  2.4634
  294MOL0     H40529  -0.594   2.628   5.355 -1.3162 -0.0610 -0.2320
  294MOL0     H40530  -0.695   2.495   5.530 -0.2983 -6.2677  2.3899
  294MOL0     H40531  -0.744   2.480   5.789  1.4793  0.0863 -1.2859
  294MOL0     H40532  -0.728   2.308   5.732 -1.6412 -0.5999  0.6651
  294MOL0     H40533  -0.858   2.362   5.832 -2.2044  1.6371 -1.3595
  294MOL0     H40534  -1.109   2.085   5.907  0.1714 -1.3031 -0.7697
  294MOL0     H40535  -1.307   1.984   6.010  0.5548 -2.0556 -0.4827
  294MOL0     H40536  -1.480   1.793   5.945 -0.1464 -0.8321  0.9676
  294MOL0     H40537  -1.498   1.920   6.070 -0.6071 -2.9559  2.1036
  294MOL0     H40538  -1.719   1.782   5.900 -0.4572 -1.9749  0.2400
  294MOL0     H40539  -1.667   1.719   6.065  2.5106  0.4485  1.4334
  294MOL0     H40540  -1.878   1.849   6.081  0.0821  0.4922  0.5672
  294MOL0     H40541  -1.810   1.984   5.999  0.1759  1.4505  1.3143
  294MOL0     H40542  -1.690   2.035   6.190 -0.4453 -1.0858 -2.6816
  294MOL0     H40543  -1.657   1.865   6.232  4.7488  0.3891 -5.3281
  294MOL0     H40544  -1.894   1.856   6.326 -0.8622  1.6657  0.9826
  294MOL0     H40545  -1.787   1.960   6.407  0.8516 -0.5786 -1.0283
  294MOL0     H40546  -1.986   2.037   6.194  2.7778 -1.1554 -1.5497
  294MOL0     H40547  -1.884   2.152   6.270 -1.0408  0.5642 -0.9234
  294MOL0     H40548  -2.006   2.068   6.514 -0.4440 -0.3406 -0.2990
  294MOL0     H40549  -2.125   2.015   6.408  1.0597 -1.8803 -2.3095
  294MOL0     H40550  -2.162   2.248   6.333 -0.1769  0.4795  1.2408
  294MOL0     H40551  -1.995   2.294   6.395 -0.3956  0.7836 -0.0971
  294MOL0     H40552  -1.550   2.131   5.674 -0.6869 -0.6537 -1.8836
  294MOL0     H40553  -1.344   2.229   5.569 -0.3019 -1.1386 -1.1219
  294MOL0     H40554  -1.174   2.439   5.463 -1.0310 -2.2429  2.8009
  294MOL0     H40555  -1.034   2.526   5.269  1.4943  0.8949 -0.6012
  294MOL0     H40556   0.334   1.806   5.388  0.0323  1.5472 -1.6145
  294MOL0     H40557   0.318   1.562   5.473  0.2718  1.5818  1.4933
  294MOL0     H40558   0.486   1.103   5.167  0.3608  3.3923  1.5364
  294MOL0     H40559   0.444   0.865   5.182 -1.1969 -1.3838  0.2583
  294MOL0     H40560   0.502   0.638   5.293 -0.4166  3.1362 -2.8701
  294MOL0     H40561   0.380   0.531   5.367 -2.3163  0.9647 -0.4183
  294MOL0     H40562   0.268   0.729   5.175 -0.4011  0.2843  1.6244
  294MOL0     H40563   0.227   0.557   5.200 -0.8213 -0.7087 -1.2647
  294MOL0     H40564   0.438   0.672   5.021 -0.8206  0.3322 -0.1979
  294MOL0     H40565   0.440   0.498   5.068  1.6256  0.2334 -2.5046
  294MOL0     H40566   0.196   0.483   4.992 -0.2603  0.8409  1.8648
  294MOL0     H40567   0.334   0.508   4.874 -0.1297 -0.4827  0.1754
  294MOL0     H40568   0.071   0.841   4.831 -1.1371  0.5056  2.0653
  294MOL0     H40569   0.341   0.910   5.588 -1.2018 -1.9077 -0.0741
  294MOL0     H40570   0.282   1.268   5.595  2.6965  2.8536  1.3794
  294MOL0     H40571   0.289   1.111   5.677  1.9439  0.7078  0.8216
  294MOL0     H40572   0.433   1.210   5.665 -1.2355  0.5913  3.4104
  295MOL0     O40573   2.609   4.750  10.471  0.3618 -0.0155  0.5297
  295MOL0     C40574   2.506   4.745  10.403  0.0320 -0.4640  0.0384
  295MOL0     O40575   2.493   4.777  10.270 -0.0625 -0.2099  0.0845
  295MOL0     C40576   2.608   4.812  10.202 -0.1149 -1.0766 -0.1018
  295MOL0     C40577   2.587   4.786  10.067 -0.6445  0.3073  0.9744
  295MOL0     C40578   2.671   4.836   9.973 -0.5823  0.4215 -0.6298
  295MOL0     C40579   2.789   4.907  10.007  0.6701  0.2156  0.1653
  295MOL0     O40580   2.876   4.945   9.906 -0.4661 -0.6499  0.2874
  295MOL0     C40581   2.990   5.033   9.944  0.5981 -0.6765  0.5633
  295MOL0     C40582   3.083   5.061   9.835  0.5743  0.4739  0.8051
  295MOL0     C40583   3.011   5.132   9.723  0.1832  0.0474  0.5447
  295MOL0     C40584   3.112   5.150   9.594  0.5679 -0.2225 -0.8177
  295MOL0     C40585   3.118   5.035   9.503 -0.2560  0.0043 -0.0619
  295MOL0     C40586   2.981   4.967   9.473 -0.4747 -0.7803  0.2480
  295MOL0     C40587   2.885   5.060   9.412  0.4211 -0.3098  0.6078
  295MOL0     C40588   2.929   5.133   9.276  0.7258 -0.4034 -0.0541
  295MOL0     N40589   2.970   5.024   9.178  0.2121 -0.2186  0.4834
  295MOL0     C40590   2.885   4.946   9.108  0.1377 -0.3836 -0.0473
  295MOL0     C40591   2.971   4.869   9.037 -0.3325 -0.2972 -0.1793
  295MOL0     C40592   2.948   4.761   8.935 -0.4966  0.3090 -0.5661
  295MOL0     C40593   2.812   4.773   8.878  0.3959  0.3573  0.0192
  295MOL0     C40594   2.778   4.648   8.788  1.0382 -0.2870 -1.4326
  295MOL0     C40595   2.879   4.595   8.693 -0.3599  1.2167  0.7769
  295MOL0     O40596   2.947   4.687   8.603 -0.3419 -0.3488 -0.4398
  295MOL0     C40597   2.888   4.693   8.485 -1.1750 -0.0660 -0.0155
  295MOL0     C40598   2.977   4.693   8.375  0.2534 -1.4332 -0.4661
  295MOL0     C40599   2.924   4.711   8.246 -0.2153 -0.5608  0.0734
  295MOL0     C40600   3.030   4.696   8.136 -0.1577  0.0502  1.1948
  295MOL0     C40601   2.783   4.736   8.236  0.5645  0.9803  0.4026
  295MOL0     C40602   2.720   4.741   8.096 -0.5947  0.3915  0.2204
  295MOL0     O40603   2.587   4.787   8.086 -0.1402  0.6507 -0.7883
  295MOL0     C40604   2.540   4.824   7.965 -0.8230 -1.1661  0.2734
  295MOL0     C40605   2.407   4.802   7.934  0.5692  0.2404 -0.2772
  295MOL0     C40606   2.342   4.819   7.813 -0.4131  0.2403 -0.9022
  295MOL0     C40607   2.413   4.886   7.708 -0.1214 -0.5788 -0.0316
  295MOL0     O40608   2.356   4.894   7.582  0.1706 -1.0384  0.1639
  295MOL0     C40609   2.385   5.002   7.488  0.2023  0.6950 -0.3008
  295MOL0     C40610   2.300   4.981   7.364 -0.2002  0.0209 -0.3315
  295MOL0     C40611   2.348   4.859   7.287  0.7208  1.4014 -0.8344
  295MOL0     C40612   2.278   4.847   7.151 -0.4784  0.6889 -0.4007
  295MOL0     C40613   2.270   4.696   7.103 -1.3055  0.3128 -0.2039
  295MOL0     C40614   2.156   4.673   6.999 -0.0611  0.6543  0.6319
  295MOL0     C40615   2.180   4.562   6.900  0.2871  0.6469  0.3907
  295MOL0     C40616   2.045   4.487   6.865  0.7414 -0.3648  0.1127
  295MOL0    Cl40617   1.908   4.604   6.826 -0.0481  0.8551 -0.2886
  295MOL0     C40618   2.543   4.927   7.737 -0.6704  0.6476  0.4569
  295MOL0     C40619   2.613   4.885   7.854  0.8458  0.8312 -0.4086
  295MOL0     O40620   2.783   4.710   8.002  0.3834  0.3459  0.1846
  295MOL0     C40621   2.698   4.754   8.346 -0.6468 -0.1684 -0.3205
  295MOL0     C40622   2.754   4.730   8.476  0.1084  0.0854  0.3200
  295MOL0     N40623   3.098   4.908   9.060  0.0868  0.0997  0.5111
  295MOL0     N40624   3.099   4.994   9.149 -0.2604 -0.1133 -0.8410
  295MOL0     C40625   2.812   4.925  10.144  0.3166  0.3668  0.2456
  295MOL0     C40626   2.723   4.894  10.238 -0.4866 -0.1944 -0.7540
  295MOL0     C40627   2.375   4.708  10.463  0.1371  0.7100  0.4786
  295MOL0     C40628   2.267   4.787  10.419  0.2227  0.3921  0.8572
  295MOL0     C40629   2.137   4.773  10.458  0.6404  0.5113  0.2802
  295MOL0     C40630   2.116   4.684  10.561  1.0911 -0.4902  0.0806
  295MOL0     O40631   1.981   4.671  10.592  0.1727 -0.0871 -0.3152
  295MOL0     C40632   1.934   4.569  10.689  0.3124  0.2139 -0.1512
  295MOL0     C40633   1.951   4.625  10.834 -0.0711 -0.3612  0.1136
  295MOL0     C40634   1.900   4.523  10.933 -0.1889 -0.2450  0.0449
  295MOL0     C40635   1.891   4.553  11.091 -0.3751 -0.2080 -0.6991
  295MOL0     C40636   1.763   4.612  11.133  0.2581 -0.3236  0.3715
  295MOL0     C40637   1.644   4.629  11.157  0.2303 -0.1402 -0.3012
  295MOL0     C40638   2.219   4.593  10.600  0.1217  0.3627  0.6349
  295MOL0     C40639   2.351   4.609  10.559 -0.2573  1.1031 -0.4058
  295MOL0     C40640   2.450   4.524  10.632 -0.1530  0.6369 -0.0406
  295MOL0     H40641   2.494   4.741  10.033 -0.6294 -0.6830  2.1460
  295MOL0     H40642   2.658   4.812   9.868  2.7523 -4.4752 -0.2780
  295MOL0     H40643   3.057   4.990  10.020  2.9690 -2.3337 -2.2410
  295MOL0     H40644   2.951   5.132   9.969  4.9627  1.2680  0.6048
  295MOL0     H40645   3.166   5.121   9.872  2.9088 -2.3249  0.4326
  295MOL0     H40646   3.120   4.968   9.790  0.2295  0.2550  0.9708
  295MOL0     H40647   2.919   5.088   9.685  1.6642 -0.0844 -3.4203
  295MOL0     H40648   2.986   5.235   9.749  0.0564  0.2873 -0.5049
  295MOL0     H40649   3.077   5.233   9.533  0.0407 -2.4061 -3.6834
  295MOL0     H40650   3.210   5.166   9.639 -0.8522  1.7739  1.8932
  295MOL0     H40651   3.201   4.975   9.540 -0.1236 -1.1001 -2.0381
  295MOL0     H40652   3.162   5.068   9.408  0.6625  3.2504  1.3382
  295MOL0     H40653   2.981   4.882   9.404  2.7327 -0.8001  0.1370
  295MOL0     H40654   2.934   4.921   9.560 -1.7944 -0.0739 -0.0606
  295MOL0     H40655   2.854   5.142   9.478  1.5359  1.1913 -0.6534
  295MOL0     H40656   2.794   5.001   9.395 -0.0001 -0.1130  2.0265
  295MOL0     H40657   2.850   5.196   9.235  1.9970  2.9252  2.1584
  295MOL0     H40658   3.020   5.187   9.304  0.6303 -1.3653  2.4336
  295MOL0     H40659   2.778   4.928   9.117 -0.3855 -1.2540 -4.9870
  295MOL0     H40660   2.963   4.660   8.975  2.0251  1.0170  0.4875
  295MOL0     H40661   3.012   4.783   8.850  0.7134 -0.8946 -0.0125
  295MOL0     H40662   2.725   4.779   8.944 -1.1762 -1.2044 -1.8205
  295MOL0     H40663   2.808   4.871   8.831  1.2025  1.3328  1.8406
  295MOL0     H40664   2.753   4.573   8.864 -0.5812  0.9198 -0.7041
  295MOL0     H40665   2.682   4.663   8.736 -0.3855  3.5008  1.8098
  295MOL0     H40666   2.951   4.533   8.748 -0.3873 -2.7729 -3.1337
  295MOL0     H40667   2.826   4.524   8.629  1.7100 -0.5398  0.9056
  295MOL0     H40668   3.083   4.677   8.392  0.2326 -0.4352  0.7391
  295MOL0     H40669   3.125   4.687   8.190  0.0280  0.8748  1.0232
  295MOL0     H40670   3.053   4.785   8.077  2.2865 -0.8710  0.6440
  295MOL0     H40671   3.012   4.608   8.074  3.1950  0.5160 -0.6791
  295MOL0     H40672   2.346   4.745   8.002  1.2466  0.0550  0.1807
  295MOL0     H40673   2.243   4.775   7.804 -1.0461  1.3807  0.1016
  295MOL0     H40674   2.358   5.089   7.549  1.0245 -1.0226  2.7490
  295MOL0     H40675   2.493   5.013   7.474  0.5845  0.5587  2.0908
  295MOL0     H40676   2.194   4.970   7.391  0.0219 -1.5048  0.0307
  295MOL0     H40677   2.307   5.072   7.304  0.4914 -0.9704 -1.8033
  295MOL0     H40678   2.325   4.775   7.353  2.3178  1.2798 -0.4091
  295MOL0     H40679   2.455   4.865   7.267  0.7925  0.0804 -0.9918
  295MOL0     H40680   2.333   4.898   7.071  1.6117 -0.6276  0.1332
  295MOL0     H40681   2.179   4.892   7.168 -0.4641  1.5677 -2.3096
  295MOL0     H40682   2.368   4.660   7.071 -0.8825 -0.0652  1.4491
  295MOL0     H40683   2.255   4.628   7.187 -4.0422 -3.0397 -3.0823
  295MOL0     H40684   2.152   4.764   6.939  1.4146 -1.1767 -2.4530
  295MOL0     H40685   2.062   4.661   7.054 -2.1751  3.4327 -2.0286
  295MOL0     H40686   2.248   4.487   6.941 -1.0002  0.1159  1.6688
  295MOL0     H40687   2.219   4.603   6.807  3.0256 -1.9029  0.2789
  295MOL0     H40688   2.010   4.434   6.954 -1.9914 -1.0893 -1.2873
  295MOL0     H40689   2.063   4.420   6.780  1.1339  2.5977 -2.3392
  295MOL0     H40690   2.603   4.966   7.655 -1.8184  0.5326 -0.4564
  295MOL0     H40691   2.719   4.907   7.854  0.8034  1.0442 -0.8683
  295MOL0     H40692   2.595   4.785   8.342 -1.0126 -0.8244  2.1820
  295MOL0     H40693   2.695   4.752   8.564  0.5693  3.9290 -0.1612
  295MOL0     H40694   2.902   4.976  10.174 -0.2114  2.6354 -1.7331
  295MOL0     H40695   2.731   4.923  10.342 -0.3624  0.7391 -1.0109
  295MOL0     H40696   2.278   4.875  10.355  3.3030 -1.0240 -0.7866
  295MOL0     H40697   2.053   4.827  10.414  1.0184 -0.6676 -2.0829
  295MOL0     H40698   1.831   4.548  10.658  1.3219 -2.2739 -2.1709
  295MOL0     H40699   1.986   4.473  10.685  0.3918  0.1649  1.5692
  295MOL0     H40700   1.898   4.719  10.850 -0.5085 -0.5580 -0.1625
  295MOL0     H40701   2.056   4.643  10.862 -0.1208  1.0577 -0.5051
  295MOL0     H40702   1.798   4.488  10.912  0.3621 -0.6754 -2.2787
  295MOL0     H40703   1.961   4.434  10.912  1.7040  1.7261 -3.7208
  295MOL0     H40704   1.982   4.608  11.120  0.6371 -2.0752 -0.2019
  295MOL0     H40705   1.911   4.458  11.140  2.1188  0.6203  0.0449
  295MOL0     H40706   1.538   4.636  11.147  0.1659 -2.4822 -2.6819
  295MOL0     H40707   2.193   4.512  10.668  0.7624  2.0307  3.0075
  295MOL0     H40708   2.549   4.513  10.586 -1.3194 -2.8777 -2.1150
  295MOL0     H40709   2.457   4.558  10.735  1.7087 -1.9430  0.7879
  295MOL0     H40710   2.416   4.420  10.621  2.5165 -0.0767 -3.8824
  296MOL0     O40711   1.886   6.991   3.173 -0.0584 -0.0897 -0.6529
  296MOL0     C40712   1.822   7.013   3.267  0.2463 -0.2639 -0.0318
  296MOL0     O40713   1.686   7.045   3.264  0.0715 -0.3593 -0.6137
  296MOL0     C40714   1.622   7.012   3.152  0.2866  0.3285 -0.3916
  296MOL0     C40715   1.644   7.072   3.032 -0.7933  0.4114  0.4383
  296MOL0     C40716   1.564   7.050   2.918 -0.4491  0.4034 -0.3290
  296MOL0     C40717   1.450   6.960   2.925 -0.1153  0.4785  0.1472
  296MOL0     O40718   1.359   6.932   2.828  0.5557  0.4373 -0.4955
  296MOL0     C40719   1.359   7.024   2.712  0.9351 -0.3194 -0.3936
  296MOL0     C40720   1.253   6.986   2.613 -0.1779  0.0673 -0.6279
  296MOL0     C40721   1.267   6.834   2.571 -0.2763 -0.4667 -0.1260
  296MOL0     C40722   1.367   6.823   2.462  0.0813  0.5496  0.1926
  296MOL0     C40723   1.367   6.678   2.415  0.6731 -0.5265 -0.4660
  296MOL0     C40724   1.398   6.684   2.258  0.8105  0.2971 -0.2588
  296MOL0     C40725   1.419   6.545   2.215 -0.7730  1.0087 -0.1232
  296MOL0     C40726   1.554   6.480   2.282  1.0017 -0.0246 -0.3213
  296MOL0     N40727   1.676   6.571   2.267  1.2498 -0.0120  0.8880
  296MOL0     C40728   1.712   6.658   2.364  0.4778 -0.7773  0.2881
  296MOL0     C40729   1.796   6.743   2.317  0.1203 -0.2073  0.5672
  296MOL0     C40730   1.865   6.857   2.391  0.0966  0.8447  0.0452
  296MOL0     C40731   1.781   6.940   2.489  0.2003 -1.4065 -0.0416
  296MOL0     C40732   1.682   7.041   2.430 -0.6018  0.3803  0.1103
  296MOL0     C40733   1.728   7.174   2.363  0.3842 -0.6926  0.5689
  296MOL0     O40734   1.834   7.229   2.440  0.0503 -0.7522 -0.3244
  296MOL0     C40735   1.805   7.274   2.567  0.5391 -1.2552 -0.6713
  296MOL0     C40736   1.901   7.250   2.666  1.0924  0.9802  0.9153
  296MOL0     C40737   1.895   7.298   2.792  0.6644  0.4919  0.5115
  296MOL0     C40738   2.004   7.257   2.884 -0.5774 -0.5210 -0.3026
  296MOL0     C40739   1.788   7.392   2.826 -0.4286  0.3364  0.8569
  296MOL0     C40740   1.779   7.460   2.959 -0.6120 -0.3383  0.2772
  296MOL0     O40741   1.792   7.380   3.074  0.1266 -0.1020 -0.8099
  296MOL0     C40742   1.837   7.433   3.191  0.2590 -0.2367 -0.5068
  296MOL0     C40743   1.778   7.389   3.307  0.5860  0.0773 -0.3373
  296MOL0     C40744   1.823   7.443   3.429 -0.7980  0.2017  0.5036
  296MOL0     C40745   1.935   7.528   3.439  0.4433 -0.1589 -0.1280
  296MOL0     O40746   1.966   7.582   3.564  0.1632  0.8224 -0.1613
  296MOL0     C40747   2.050   7.697   3.575 -0.5005  0.2477  0.6448
  296MOL0     C40748   1.999   7.823   3.516 -0.4421 -0.1180 -0.4227
  296MOL0     C40749   1.909   7.885   3.626 -0.3181  0.7461 -0.1598
  296MOL0     C40750   1.829   7.999   3.565 -0.8991 -0.1355 -0.0701
  296MOL0     C40751   1.739   8.066   3.667 -0.2528  0.1233  0.1093
  296MOL0     C40752   1.604   7.995   3.693  0.0066  0.0922  0.3093
  296MOL0     C40753   1.506   8.090   3.761 -0.1159  0.5350 -0.2970
  296MOL0     C40754   1.377   8.014   3.791 -0.3957  0.0626  0.6980
  296MOL0    Cl40755   1.401   7.852   3.871 -0.1053 -0.1391  0.3059
  296MOL0     C40756   1.992   7.569   3.319  0.8131 -1.0985  0.2485
  296MOL0     C40757   1.945   7.524   3.193 -0.2132  0.0581 -0.0741
  296MOL0     O40758   1.776   7.578   2.954 -0.3642 -0.0080 -1.2058
  296MOL0     C40759   1.688   7.419   2.727 -1.0813  0.4659  0.4979
  296MOL0     C40760   1.693   7.356   2.603 -1.1561 -0.5666 -0.7841
  296MOL0     N40761   1.810   6.719   2.187 -0.7215 -0.0371  1.2975
  296MOL0     N40762   1.737   6.619   2.158  0.5568 -0.0109  0.1516
  296MOL0     C40763   1.426   6.900   3.061 -0.1584 -0.2689 -0.0622
  296MOL0     C40764   1.512   6.931   3.173  0.2197 -0.0183  0.6485
  296MOL0     C40765   1.894   7.026   3.401  0.6188 -0.0357  0.1689
  296MOL0     C40766   2.037   7.017   3.399 -0.2147  0.3109  0.4310
  296MOL0     C40767   2.117   7.058   3.505 -0.5717 -0.1817  0.2880
  296MOL0     C40768   2.053   7.082   3.627 -0.0343 -0.5853  0.5128
  296MOL0     O40769   2.131   7.112   3.735 -0.0295 -0.4009 -0.1823
  296MOL0     C40770   2.164   7.248   3.744 -0.9281  0.3960 -1.1515
  296MOL0     C40771   2.211   7.305   3.884  0.4377 -0.0788  0.3265
  296MOL0     C40772   2.353   7.262   3.921  0.5544  0.3636  0.0605
  296MOL0     C40773   2.402   7.314   4.055 -0.2344 -1.0115 -0.3874
  296MOL0     C40774   2.337   7.238   4.163  0.0690 -0.7272  0.6768
  296MOL0     C40775   2.296   7.179   4.255 -0.6111  1.4205  0.6153
  296MOL0     C40776   1.916   7.081   3.639 -0.9787  0.8649 -0.7825
  296MOL0     C40777   1.834   7.044   3.529 -0.0567  0.2930  0.3479
  296MOL0     C40778   1.689   7.053   3.551  0.3765 -0.4959  0.0222
  296MOL0     H40779   1.730   7.138   3.034 -1.6076  1.6095 -1.3895
  296MOL0     H40780   1.606   7.092   2.827  0.5938  0.8575  0.3407
  296MOL0     H40781   1.455   7.027   2.659  0.7930  3.1479 -0.6632
  296MOL0     H40782   1.346   7.128   2.742 -2.2034 -0.8700  0.5045
  296MOL0     H40783   1.157   6.994   2.665  0.1028 -2.1020  0.3711
  296MOL0     H40784   1.256   7.043   2.520 -1.4336 -1.0407 -1.3736
  296MOL0     H40785   1.310   6.775   2.652  3.1009 -1.4815 -2.4333
  296MOL0     H40786   1.169   6.801   2.535  0.6936 -0.5570 -3.0099
  296MOL0     H40787   1.336   6.884   2.377 -3.1307  0.7111  1.3479
  296MOL0     H40788   1.470   6.837   2.499 -0.1623 -0.0796  1.1349
  296MOL0     H40789   1.269   6.636   2.440  0.3041  1.5377  2.0634
  296MOL0     H40790   1.443   6.619   2.467  2.9801  0.4072 -2.6028
  296MOL0     H40791   1.316   6.729   2.201  0.4020 -2.3161 -1.8941
  296MOL0     H40792   1.488   6.738   2.224  0.0240 -0.2836 -3.6735
  296MOL0     H40793   1.430   6.549   2.106  0.7921  1.0574  0.0067
  296MOL0     H40794   1.339   6.473   2.233  0.1885 -0.5536 -1.6838
  296MOL0     H40795   1.530   6.454   2.386 -0.3743  0.1454 -0.5692
  296MOL0     H40796   1.567   6.397   2.212  2.1103  2.0978 -2.7750
  296MOL0     H40797   1.675   6.654   2.466 -1.9711  3.0663 -0.2642
  296MOL0     H40798   1.921   6.914   2.316 -1.1392 -2.4893 -3.7851
  296MOL0     H40799   1.948   6.819   2.452 -0.6473 -1.3732 -0.2464
  296MOL0     H40800   1.723   6.856   2.529 -1.0701 -1.7086 -2.3060
  296MOL0     H40801   1.838   6.992   2.567  0.0282  1.7609 -1.8485
  296MOL0     H40802   1.620   6.979   2.364  1.3115 -2.1535  0.5280
  296MOL0     H40803   1.615   7.081   2.508 -2.2870  1.4521 -1.7809
  296MOL0     H40804   1.759   7.157   2.260 -0.3432 -1.4017  0.4533
  296MOL0     H40805   1.646   7.246   2.358 -0.7899 -2.0058  0.0056
  296MOL0     H40806   1.987   7.197   2.625 -0.1960 -1.1659  0.8448
  296MOL0     H40807   1.961   7.225   2.980 -1.1524 -0.6798 -0.6085
  296MOL0     H40808   2.078   7.337   2.893 -0.9774 -0.1476 -0.3011
  296MOL0     H40809   2.059   7.174   2.839  0.3523  0.9445 -1.9969
  296MOL0     H40810   1.699   7.316   3.293  1.4552 -1.0131  0.1804
  296MOL0     H40811   1.786   7.411   3.526  1.3728  1.3654  1.7900
  296MOL0     H40812   2.062   7.715   3.682 -4.1695 -2.9889  1.8550
  296MOL0     H40813   2.147   7.681   3.527 -1.5369 -2.8977 -0.6570
  296MOL0     H40814   2.072   7.893   3.475  1.3170 -2.2097 -1.0618
  296MOL0     H40815   1.934   7.803   3.430 -0.4897  2.3347 -1.0342
  296MOL0     H40816   1.983   7.918   3.699  1.5079 -1.5100 -0.8652
  296MOL0     H40817   1.834   7.814   3.662 -1.5159  2.6311  1.2597
  296MOL0     H40818   1.775   7.956   3.480  0.5408 -0.8234 -0.6684
  296MOL0     H40819   1.889   8.078   3.520 -0.5183 -0.3870 -0.0084
  296MOL0     H40820   1.787   8.090   3.763 -2.2670 -1.7878  1.7048
  296MOL0     H40821   1.711   8.157   3.614  0.5554  1.1785  1.4235
  296MOL0     H40822   1.622   7.899   3.741 -1.6720 -2.3883 -3.5023
  296MOL0     H40823   1.563   7.972   3.594 -0.2302  0.3790  0.3399
  296MOL0     H40824   1.475   8.172   3.695 -1.6440 -1.1419 -1.7811
  296MOL0     H40825   1.546   8.129   3.855  0.0349 -0.2772 -0.0109
  296MOL0     H40826   1.335   7.979   3.697 -2.0813 -0.8752  1.7550
  296MOL0     H40827   1.298   8.083   3.819 -0.1508  0.9933 -0.8263
  296MOL0     H40828   2.078   7.635   3.326  1.3902 -1.8612  0.6754
  296MOL0     H40829   2.002   7.544   3.103 -1.2148 -0.2606 -0.8025
  296MOL0     H40830   1.602   7.482   2.750 -1.1028  0.6993 -0.1799
  296MOL0     H40831   1.614   7.374   2.530 -2.7918  0.0341  1.0472
  296MOL0     H40832   1.341   6.834   3.075  1.8095 -3.5500 -2.2290
  296MOL0     H40833   1.496   6.909   3.278 -1.7499  1.8322  0.7985
  296MOL0     H40834   2.098   7.001   3.311 -0.8397 -0.7183  0.1726
  296MOL0     H40835   2.225   7.049   3.511 -0.4577 -0.6420 -1.6914
  296MOL0     H40836   2.242   7.259   3.668  0.5840 -2.0040 -0.0760
  296MOL0     H40837   2.074   7.305   3.716 -2.8664 -0.6873  2.3556
  296MOL0     H40838   2.141   7.296   3.968 -0.1441  1.9485  0.1273
  296MOL0     H40839   2.205   7.414   3.872 -3.4464  0.0066  1.6755
  296MOL0     H40840   2.353   7.153   3.917 -0.6897  0.3037  1.1155
  296MOL0     H40841   2.435   7.287   3.853  0.8999 -0.7574  0.0422
  296MOL0     H40842   2.370   7.417   4.073 -3.5563 -2.1550  1.1016
  296MOL0     H40843   2.511   7.306   4.048 -0.2880 -1.8706 -0.3538
  296MOL0     H40844   2.266   7.106   4.327 -0.0244 -3.1094 -3.2061
  296MOL0     H40845   1.893   7.104   3.743  0.2479  2.9629 -0.9217
  296MOL0     H40846   1.643   6.958   3.522  3.2334 -0.9616 -3.6765
  296MOL0     H40847   1.663   7.073   3.656 -0.1620  2.6947 -0.6196
  296MOL0     H40848   1.638   7.129   3.491  2.8917 -1.2866 -3.4344
  297MOL0     O40849  10.302   1.235   6.941 -0.5559  0.2263 -0.0247
  297MOL0     C40850  10.331   1.125   6.884 -1.2627 -0.4692  0.6562
  297MOL0     O40851  10.446   1.056   6.893  0.2744 -0.3029  0.3869
  297MOL0     C40852  10.527   1.089   7.000 -0.7595  0.9807 -0.0993
  297MOL0     C40853  10.618   1.206   7.003  0.0594  0.9603 -0.2891
  297MOL0     C40854  10.704   1.210   7.106  0.2999 -0.8069  0.2826
  297MOL0     C40855  10.713   1.118   7.211  0.2287 -0.9461 -0.3065
  297MOL0     O40856  10.789   1.143   7.329 -0.3312  0.1560 -0.0816
  297MOL0     C40857  10.892   1.238   7.320 -0.9597 -0.2705 -0.2556
  297MOL0     C40858  10.987   1.193   7.428  0.0196 -0.6369 -0.3637
  297MOL0     C40859  11.125   1.264   7.438 -0.4998  0.0222  0.0986
  297MOL0     C40860  11.204   1.170   7.529 -0.0588 -0.0990 -0.1655
  297MOL0     C40861  11.276   1.054   7.460  0.4648 -0.5346  0.2003
  297MOL0     C40862  11.357   0.976   7.560  0.3235  1.0517 -0.3564
  297MOL0     C40863  11.452   0.869   7.492  1.0058 -1.0706  0.1386
  297MOL0     C40864  11.392   0.820   7.358 -0.7968  0.8046  0.8284
  297MOL0     N40865  11.466   0.699   7.308 -0.3668 -0.7756 -0.0319
  297MOL0     C40866  11.430   0.574   7.345 -0.3050  1.0634 -0.7256
  297MOL0     C40867  11.497   0.502   7.251 -0.9335 -0.3837 -0.1441
  297MOL0     C40868  11.490   0.353   7.225  0.3717  0.1697  0.3052
  297MOL0     C40869  11.573   0.267   7.322  0.2805  0.8418  0.4981
  297MOL0     C40870  11.536   0.292   7.472  0.4005  0.6103  0.1837
  297MOL0     C40871  11.540   0.151   7.551  0.2689  0.5779 -0.4110
  297MOL0     O40872  11.418   0.077   7.523 -0.5326 -0.7396  0.0694
  297MOL0     C40873  11.300   0.104   7.588  0.4102 -0.2036 -0.3393
  297MOL0     C40874  11.189   0.023   7.557  0.2260 -0.7956  0.1732
  297MOL0     C40875  11.055   0.045   7.608  1.2752 -1.1184  0.0518
  297MOL0     C40876  10.936  -0.022   7.530 -0.1649 -0.6032  0.1498
  297MOL0     C40877  11.040   0.140   7.714 -1.4780 -0.0302 -0.0130
  297MOL0     C40878  10.918   0.165   7.797 -1.1353 -0.0181  0.9202
  297MOL0     O40879  10.933   0.248   7.902  1.0906  1.0503  0.4819
  297MOL0     C40880  10.830   0.311   7.951 -0.0760 -0.5045 -0.4656
  297MOL0     C40881  10.712   0.347   7.877 -0.2861  0.1088 -0.1147
  297MOL0     C40882  10.618   0.437   7.931 -0.7633  0.0930  0.4696
  297MOL0     C40883  10.626   0.474   8.062  0.4576  0.4450  0.1765
  297MOL0     O40884  10.536   0.563   8.116  1.0339  0.0922  0.0106
  297MOL0     C40885  10.415   0.607   8.051 -0.7441  0.1850  0.7115
  297MOL0     C40886  10.359   0.727   8.125 -0.4038  0.9233  0.2264
  297MOL0     C40887  10.427   0.858   8.092 -0.2141 -0.9306 -0.3079
  297MOL0     C40888  10.368   0.982   8.170  0.5296  0.5414 -1.0720
  297MOL0     C40889  10.403   1.127   8.121 -1.0091  0.5985 -0.3038
  297MOL0     C40890  10.341   1.254   8.189  0.6586  0.5851 -0.0003
  297MOL0     C40891  10.188   1.253   8.163  0.6339 -0.1462 -0.3242
  297MOL0     C40892  10.127   1.384   8.228 -0.3931  0.1041 -0.3492
  297MOL0    Cl40893  10.229   1.542   8.236 -0.7717  0.0072  0.0765
  297MOL0     C40894  10.732   0.429   8.137  0.6226  0.7610  0.6855
  297MOL0     C40895  10.837   0.359   8.082 -0.2034  1.0737  0.1026
  297MOL0     O40896  10.813   0.109   7.772 -0.3387  0.1417 -0.0917
  297MOL0     C40897  11.147   0.223   7.748  0.2434  0.2150  0.1939
  297MOL0     C40898  11.273   0.207   7.690 -0.5637 -0.3570  0.0224
  297MOL0     N40899  11.580   0.579   7.173 -0.5426  0.2270 -0.2667
  297MOL0     N40900  11.551   0.706   7.203 -0.8813  0.0441 -0.6124
  297MOL0     C40901  10.620   1.015   7.218  0.0105  0.0520 -0.1176
  297MOL0     C40902  10.528   1.000   7.109 -0.0272 -0.5477 -0.5655
  297MOL0     C40903  10.218   1.059   6.800  0.3168 -0.3267 -1.6945
  297MOL0     C40904  10.108   1.136   6.777 -0.0681 -0.0331 -0.6055
  297MOL0     C40905   9.988   1.084   6.714  0.5498 -0.2580 -0.6867
  297MOL0     C40906   9.988   0.963   6.659  0.0430  0.1351 -0.0704
  297MOL0     O40907   9.867   0.923   6.591  0.1245  0.7489  0.3293
  297MOL0     C40908   9.859   0.789   6.540 -0.1222  0.8101  0.0473
  297MOL0     C40909   9.734   0.756   6.460 -0.3207 -0.7611  0.2760
  297MOL0     C40910   9.730   0.614   6.410 -0.2143  0.3310  0.6647
  297MOL0     C40911   9.808   0.581   6.278 -0.1104 -0.4147 -0.7875
  297MOL0     C40912   9.951   0.544   6.311 -0.1044 -0.6012  0.5758
  297MOL0     C40913  10.058   0.501   6.330 -0.1364 -0.4226 -0.4602
  297MOL0     C40914  10.107   0.875   6.673  1.4976 -0.2909 -0.7602
  297MOL0     C40915  10.220   0.925   6.745  0.0094 -0.5024  0.8532
  297MOL0     C40916  10.321   0.814   6.770 -0.3957 -0.2152 -0.0542
  297MOL0     H40917  10.598   1.290   6.936  2.2170  1.3694 -0.4962
  297MOL0     H40918  10.767   1.298   7.111  0.4698 -0.8643 -0.6418
  297MOL0     H40919  10.862   1.335   7.360  0.7075 -0.1015  0.7122
  297MOL0     H40920  10.953   1.247   7.230  1.2789 -3.7809  0.6926
  297MOL0     H40921  10.938   1.213   7.524  1.8173  0.3688  0.3901
  297MOL0     H40922  11.002   1.085   7.418 -0.2096 -0.7034  0.0120
  297MOL0     H40923  11.176   1.268   7.341  0.8290  1.2880  0.8051
  297MOL0     H40924  11.126   1.368   7.470  1.1022  0.4393 -1.1614
  297MOL0     H40925  11.273   1.234   7.585 -1.4161  0.6377  0.7117
  297MOL0     H40926  11.139   1.121   7.602 -1.9649 -1.2682 -2.5203
  297MOL0     H40927  11.344   1.087   7.380 -1.6015 -1.3927 -2.0364
  297MOL0     H40928  11.197   0.987   7.427 -0.7034  0.7409  0.3375
  297MOL0     H40929  11.418   1.037   7.628 -1.0217 -0.7165  2.6379
  297MOL0     H40930  11.279   0.926   7.618 -0.5349  0.5810 -1.8620
  297MOL0     H40931  11.458   0.791   7.568 -2.7107 -1.0465  0.6584
  297MOL0     H40932  11.542   0.916   7.451 -1.0115  2.0339 -1.0818
  297MOL0     H40933  11.287   0.797   7.377  0.0860 -2.1384  2.8782
  297MOL0     H40934  11.396   0.895   7.279  1.6636 -1.1160 -1.0697
  297MOL0     H40935  11.355   0.559   7.422  2.1874  2.8158  2.2726
  297MOL0     H40936  11.526   0.319   7.127 -3.3985 -2.0196 -0.5293
  297MOL0     H40937  11.386   0.318   7.227  0.3020 -0.9407 -5.2116
  297MOL0     H40938  11.567   0.161   7.297  0.8804  0.7130  0.8878
  297MOL0     H40939  11.679   0.295   7.324  1.1841 -2.2159  0.5304
  297MOL0     H40940  11.611   0.360   7.514  0.0664  1.8662 -1.1853
  297MOL0     H40941  11.434   0.330   7.484  0.4131  0.2468  1.7036
  297MOL0     H40942  11.629   0.090   7.532  0.2798  0.1098  1.0487
  297MOL0     H40943  11.535   0.176   7.657 -1.7268  1.3698 -0.6534
  297MOL0     H40944  11.196  -0.048   7.476  0.1014  0.9471 -1.4153
  297MOL0     H40945  10.888   0.066   7.485  0.3448  1.5976  3.4551
  297MOL0     H40946  10.862  -0.075   7.591 -0.0068  1.6123  2.4434
  297MOL0     H40947  10.970  -0.081   7.445  0.1158  1.4343 -1.2426
  297MOL0     H40948  10.703   0.309   7.776 -1.4985 -2.3712  0.8328
  297MOL0     H40949  10.532   0.469   7.874 -0.7245 -1.9877 -0.8677
  297MOL0     H40950  10.433   0.633   7.946  0.2214 -0.7351  0.6342
  297MOL0     H40951  10.337   0.530   8.054 -0.1610 -0.5054 -0.8896
  297MOL0     H40952  10.254   0.732   8.094 -1.0003  0.1812  2.0040
  297MOL0     H40953  10.361   0.698   8.230 -0.1947 -0.2326 -0.0875
  297MOL0     H40954  10.412   0.878   7.985  2.2914 -0.1086 -0.5742
  297MOL0     H40955  10.534   0.847   8.112  0.4760  1.3538 -2.2257
  297MOL0     H40956  10.402   0.980   8.274 -0.0776  0.2722 -0.8732
  297MOL0     H40957  10.259   0.969   8.169  0.5867  0.0593 -1.0906
  297MOL0     H40958  10.512   1.130   8.131 -0.9921 -1.9771  1.0444
  297MOL0     H40959  10.367   1.129   8.017 -0.6368 -1.9973 -0.5551
  297MOL0     H40960  10.388   1.344   8.149 -0.4457  2.9525  3.5376
  297MOL0     H40961  10.357   1.260   8.297  0.4797  2.1580 -0.0498
  297MOL0     H40962  10.131   1.169   8.205  2.0578  0.1208  2.3379
  297MOL0     H40963  10.178   1.247   8.054 -1.3758  2.7153 -0.4175
  297MOL0     H40964  10.095   1.349   8.327 -0.8389  1.8234  0.1602
  297MOL0     H40965  10.034   1.417   8.181 -1.2438 -0.1649  1.0529
  297MOL0     H40966  10.732   0.447   8.244 -1.0617  1.7258  0.5553
  297MOL0     H40967  10.933   0.344   8.130  1.6536  4.8089 -1.9979
  297MOL0     H40968  11.142   0.298   7.827 -1.8472 -1.0155  1.3166
  297MOL0     H40969  11.357   0.261   7.731  0.9750 -1.2071 -1.8340
  297MOL0     H40970  10.620   0.944   7.300  1.9810  1.3733  1.1024
  297MOL0     H40971  10.462   0.914   7.113  0.0277 -0.5584  0.2997
  297MOL0     H40972  10.105   1.238   6.813  1.1847 -1.1092  2.9136
  297MOL0     H40973   9.901   1.149   6.701  0.7368 -0.1960 -1.7143
  297MOL0     H40974   9.942   0.779   6.470 -0.9172  2.1866 -1.1546
  297MOL0     H40975   9.870   0.712   6.616 -1.0018  2.4176  1.8888
  297MOL0     H40976   9.716   0.829   6.381  1.5151 -2.0276 -1.3928
  297MOL0     H40977   9.654   0.780   6.531 -1.1837 -0.9668 -0.6056
  297MOL0     H40978   9.756   0.538   6.484  1.0856 -1.0023 -1.0650
  297MOL0     H40979   9.626   0.598   6.380  0.5659 -0.7868 -1.7113
  297MOL0     H40980   9.800   0.670   6.216  0.3367  0.2614  0.0897
  297MOL0     H40981   9.764   0.499   6.220 -0.7485  2.0935 -4.0945
  297MOL0     H40982  10.151   0.451   6.350 -0.0175 -0.4320 -1.0233
  297MOL0     H40983  10.116   0.776   6.629 -2.2244 -1.7521  1.2980
  297MOL0     H40984  10.393   0.826   6.688  1.2295  1.7727  1.5548
  297MOL0     H40985  10.358   0.841   6.869 -1.6827  2.0733 -0.1279
  297MOL0     H40986  10.266   0.720   6.772 -1.9547  0.6702 -0.0236
  298MOL0     O40987  10.225  11.191   0.873  0.1280  0.5238 -0.1977
  298MOL0     C40988  10.330  11.124   0.891  0.7550  0.8710 -0.5442
  298MOL0     O40989  10.458  11.167   0.879  0.1240  0.6321 -0.0749
  298MOL0     C40990  10.483  11.303   0.883  0.4269  0.0681  0.3379
  298MOL0     C40991  10.442  11.384   0.780  0.6828 -0.1013  0.1332
  298MOL0     C40992  10.481  11.521   0.776 -1.3455  0.2720 -0.1127
  298MOL0     C40993  10.578  11.571   0.862  0.1201 -0.3702 -0.5080
  298MOL0     O40994  10.608  11.701   0.826  0.6704  0.7330 -0.2883
  298MOL0     C40995  10.658  11.783   0.929 -0.3382  0.7008 -0.1008
  298MOL0     C40996  10.707  11.912   0.886 -0.2963 -0.5448  0.2982
  298MOL0     C40997  10.790  11.983   1.000 -0.0446 -0.6342  0.1402
  298MOL0     C40998  10.828  12.126   0.960 -0.0140 -0.1128 -0.0354
  298MOL0     C40999  10.702  12.216   0.988 -0.2978  0.0190 -0.0028
  298MOL0     C41000  10.719  12.363   0.953  0.7080  0.2728  0.0230
  298MOL0     C41001  10.779  12.379   0.808  0.4051  0.0235 -0.8274
  298MOL0     C41002  10.699  12.305   0.699 -0.7250  0.2442 -0.6010
  298MOL0     N41003  10.567  12.358   0.685  0.6512 -0.0697 -0.0988
  298MOL0     C41004  10.542  12.488   0.664 -0.7615  0.0824  0.6039
  298MOL0     C41005  10.408  12.490   0.665 -1.0477  0.2139 -0.0413
  298MOL0     C41006  10.311  12.607   0.657 -0.4137 -0.8300 -0.0311
  298MOL0     C41007  10.306  12.694   0.776  1.0438 -0.9916 -0.0785
  298MOL0     C41008  10.199  12.807   0.785  0.3696  0.2053  0.3508
  298MOL0     C41009  10.246  12.932   0.705 -1.1258 -0.0161  0.0630
  298MOL0     O41010  10.294  12.906   0.573  0.2352 -0.5589  0.5169
  298MOL0     C41011  10.330  13.013   0.492  0.9348  0.3250  0.3251
  298MOL0     C41012  10.328  13.149   0.535 -0.5960  0.4692  0.0565
  298MOL0     C41013  10.384  13.245   0.448 -0.0740  0.5164  0.4855
  298MOL0     C41014  10.390  13.382   0.503  0.2752 -0.3268 -0.7703
  298MOL0     C41015  10.423  13.203   0.315 -0.6191 -0.0484  0.8052
  298MOL0     C41016  10.467  13.305   0.212  0.0862 -0.1251  0.0818
  298MOL0     O41017  10.488  13.253   0.086  0.7381  0.4934  0.6769
  298MOL0     C41018  10.428  13.338  -0.006 -0.6056 -0.0789 -0.5224
  298MOL0     C41019  10.286  13.337  -0.018 -0.6377  0.3211 -0.1731
  298MOL0     C41020  10.217  13.409  -0.114 -0.5973 -0.0172  0.1439
  298MOL0     C41021  10.287  13.502  -0.192 -0.1144 -0.2396 -0.2044
  298MOL0     O41022  10.213  13.585  -0.268  0.7370 -0.4683  0.3221
  298MOL0     C41023  10.267  13.683  -0.352  0.7398  0.9687  0.1532
  298MOL0     C41024  10.317  13.613  -0.483  0.1616  0.5661 -0.0944
  298MOL0     C41025  10.437  13.684  -0.560 -0.7163 -0.0198  0.2581
  298MOL0     C41026  10.489  13.600  -0.684 -0.3004 -0.4778 -0.3873
  298MOL0     C41027  10.628  13.653  -0.745  0.9951 -0.2312  0.2724
  298MOL0     C41028  10.661  13.572  -0.867  0.0451  0.6194 -0.5883
  298MOL0     C41029  10.801  13.605  -0.929 -0.1953  0.0013 -0.1179
  298MOL0     C41030  10.834  13.510  -1.043  0.0731  0.5212 -0.3430
  298MOL0    Cl41031  10.853  13.345  -0.993  0.3902  0.2603  0.6942
  298MOL0     C41032  10.427  13.510  -0.183  0.3813  0.0756  0.4247
  298MOL0     C41033  10.498  13.420  -0.097  0.4859 -0.6440  0.1431
  298MOL0     O41034  10.474  13.425   0.238 -0.7763 -0.3731  0.7131
  298MOL0     C41035  10.425  13.066   0.279  0.8056  0.6020 -0.4949
  298MOL0     C41036  10.379  12.972   0.369 -0.8616  0.1595  1.6106
  298MOL0     N41037  10.356  12.359   0.676 -1.1649 -0.5569 -0.0832
  298MOL0     N41038  10.457  12.282   0.686  0.5571  0.0847  0.2117
  298MOL0     C41039  10.611  11.499   0.973  0.5657  1.3691 -0.5460
  298MOL0     C41040  10.575  11.361   0.981  0.7691  0.3913  0.3249
  298MOL0     C41041  10.317  10.980   0.913  0.1271 -1.2008  0.4226
  298MOL0     C41042  10.427  10.911   0.972 -0.5552 -0.7805 -1.3204
  298MOL0     C41043  10.425  10.781   1.022 -0.3985  0.9507  0.4220
  298MOL0     C41044  10.314  10.704   0.997  0.2092  0.1228  1.1719
  298MOL0     O41045  10.319  10.574   1.027 -0.1806  0.1991 -0.3829
  298MOL0     C41046  10.224  10.551   1.138 -0.4593  0.7479 -0.3434
  298MOL0     C41047  10.309  10.467   1.242 -0.4862 -1.1331  0.1562
  298MOL0     C41048  10.222  10.377   1.330 -0.1906  0.2011  0.1617
  298MOL0     C41049  10.289  10.263   1.406 -0.4408  0.0738 -0.0162
  298MOL0     C41050  10.363  10.307   1.532  0.1173  0.2265  0.4507
  298MOL0     C41051  10.398  10.339   1.643 -0.0425  0.1564 -0.6576
  298MOL0     C41052  10.207  10.761   0.932 -0.1683  0.1578  0.3133
  298MOL0     C41053  10.202  10.900   0.900  0.3963  0.1410  0.2052
  298MOL0     C41054  10.069  10.936   0.842  0.3631  0.1301 -0.1639
  298MOL0     H41055  10.379  11.350   0.698 -2.0673  3.2358  0.5957
  298MOL0     H41056  10.464  11.584   0.690  3.2161 -0.9132 -2.2218
  298MOL0     H41057  10.742  11.733   0.980 -0.6835  0.6627  0.4355
  298MOL0     H41058  10.586  11.796   1.010  0.0974  2.4978  0.0464
  298MOL0     H41059  10.770  11.887   0.801 -0.0020  0.9671  0.0536
  298MOL0     H41060  10.627  11.980   0.855  0.9811  1.3227  0.9276
  298MOL0     H41061  10.735  11.985   1.095  0.8122  2.1564  0.6691
  298MOL0     H41062  10.886  11.933   1.019  1.4158  1.7846 -0.3433
  298MOL0     H41063  10.910  12.163   1.022 -1.6846  0.2938  2.0492
  298MOL0     H41064  10.856  12.124   0.855 -1.2338 -0.4082 -0.3714
  298MOL0     H41065  10.676  12.222   1.094 -1.9299  1.4923 -0.4244
  298MOL0     H41066  10.617  12.166   0.941  0.0378 -2.5233  1.9319
  298MOL0     H41067  10.625  12.419   0.958 -0.3568 -1.3779 -0.7132
  298MOL0     H41068  10.783  12.407   1.030 -2.2196  2.6684  1.3188
  298MOL0     H41069  10.885  12.353   0.801 -0.4506 -3.8544 -1.9932
  298MOL0     H41070  10.768  12.487   0.796  1.5730  0.5485  2.0777
  298MOL0     H41071  10.758  12.316   0.608  1.6510  0.5551  0.8802
  298MOL0     H41072  10.704  12.196   0.706  2.3349  0.3799  1.4488
  298MOL0     H41073  10.607  12.574   0.655 -0.7729  0.0511  0.1893
  298MOL0     H41074  10.218  12.549   0.649 -1.2993 -0.0220  3.1121
  298MOL0     H41075  10.329  12.656   0.561  0.4954 -1.9442 -0.4498
  298MOL0     H41076  10.309  12.627   0.862  0.1788 -0.2461  0.5529
  298MOL0     H41077  10.400  12.751   0.786  0.6979 -0.2220 -1.0324
  298MOL0     H41078  10.100  12.777   0.749  1.8474 -0.3058 -3.8768
  298MOL0     H41079  10.183  12.837   0.889  2.7705  3.8603 -0.1504
  298MOL0     H41080  10.161  13.000   0.694 -0.9170 -0.0211 -1.7706
  298MOL0     H41081  10.316  12.981   0.774  2.6403 -1.5126 -2.3736
  298MOL0     H41082  10.296  13.188   0.631  1.7124  0.3303  0.9557
  298MOL0     H41083  10.327  13.449   0.444 -0.4009 -0.9399 -0.7708
  298MOL0     H41084  10.486  13.434   0.495 -0.4727  1.4299  0.7256
  298MOL0     H41085  10.362  13.383   0.609  0.0350  1.0235 -0.8338
  298MOL0     H41086  10.212  13.284   0.041  1.1460 -0.3921  1.5571
  298MOL0     H41087  10.111  13.391  -0.130 -0.0354 -1.0423 -3.3719
  298MOL0     H41088  10.192  13.755  -0.384 -2.2028 -0.8047  2.4115
  298MOL0     H41089  10.342  13.744  -0.300 -1.8912  2.5333  2.3699
  298MOL0     H41090  10.347  13.509  -0.464 -4.9999 -1.2665 -0.2305
  298MOL0     H41091  10.230  13.597  -0.548 -0.0256  1.6690 -0.1301
  298MOL0     H41092  10.523  13.695  -0.494 -0.7427  1.5670  0.0639
  298MOL0     H41093  10.413  13.790  -0.577  0.4003  0.6169  2.3856
  298MOL0     H41094  10.406  13.596  -0.755 -1.3729  0.6052  0.7577
  298MOL0     H41095  10.504  13.492  -0.668 -2.6371 -1.2336 -2.7016
  298MOL0     H41096  10.612  13.758  -0.770  5.3311  0.7223  0.8033
  298MOL0     H41097  10.702  13.638  -0.666  1.4962  0.5164 -0.0461
  298MOL0     H41098  10.573  13.561  -0.931  0.5797  0.3343 -1.2789
  298MOL0     H41099  10.678  13.469  -0.833 -2.9291 -0.3921 -1.8285
  298MOL0     H41100  10.883  13.596  -0.856  1.6599  1.2179 -1.9256
  298MOL0     H41101  10.796  13.709  -0.963  3.7695  0.2705 -0.4350
  298MOL0     H41102  10.929  13.546  -1.082  2.0945  0.5722  3.9913
  298MOL0     H41103  10.756  13.517  -1.119  0.2601 -4.4282 -1.2599
  298MOL0     H41104  10.486  13.577  -0.245  2.4837 -0.8834  1.2947
  298MOL0     H41105  10.604  13.418  -0.078  0.6061  0.0154 -0.4216
  298MOL0     H41106  10.451  13.040   0.177 -0.1664 -0.4093 -0.4963
  298MOL0     H41107  10.375  12.865   0.350 -1.1069  0.9063 -4.1106
  298MOL0     H41108  10.682  11.536   1.047 -1.0191  2.0089  0.6981
  298MOL0     H41109  10.619  11.298   1.058 -0.1115  1.9661  2.2087
  298MOL0     H41110  10.522  10.962   0.983 -0.8930 -0.1611 -1.1831
  298MOL0     H41111  10.519  10.737   1.052  1.8918  2.7042 -3.3696
  298MOL0     H41112  10.189  10.641   1.190 -2.1217 -1.0387  1.8586
  298MOL0     H41113  10.135  10.500   1.099  0.5812 -0.7123 -0.8698
  298MOL0     H41114  10.354  10.526   1.322  0.3349 -1.1421 -0.2964
  298MOL0     H41115  10.386  10.414   1.185 -0.4919  0.6249 -1.5635
  298MOL0     H41116  10.168  10.436   1.405 -0.4839 -0.4602  0.4767
  298MOL0     H41117  10.146  10.335   1.264 -0.4185  0.9944 -0.0952
  298MOL0     H41118  10.363  10.213   1.343 -0.2525 -1.4047  1.2937
  298MOL0     H41119  10.212  10.186   1.423 -3.5085  2.8597 -0.2894
  298MOL0     H41120  10.423  10.367   1.744  0.1991 -1.1531 -0.3414
  298MOL0     H41121  10.119  10.699   0.915 -1.1563  2.0610 -2.2534
  298MOL0     H41122  10.077  11.041   0.815  0.0738  0.0470 -0.5696
  298MOL0     H41123  10.042  10.864   0.765 -0.8623 -0.5590  0.8677
  298MOL0     H41124   9.994  10.936   0.921  1.7667  0.3139  1.2335
  299MOL0     O41125   3.567   0.502   2.629  0.7045 -0.0834  0.7002
  299MOL0     C41126   3.666   0.430   2.604 -0.3927 -0.9191  0.9711
  299MOL0     O41127   3.796   0.457   2.651 -1.1322  0.7215  0.9006
  299MOL0     C41128   3.820   0.542   2.752  0.0816  0.8873 -0.1595
  299MOL0     C41129   3.764   0.675   2.752  0.5515  0.9317  0.4798
  299MOL0     C41130   3.802   0.760   2.852 -0.2085 -0.1747 -0.2036
  299MOL0     C41131   3.887   0.732   2.955 -0.0675  0.2973 -0.8787
  299MOL0     O41132   3.923   0.821   3.052  0.5164  0.1298  0.5105
  299MOL0     C41133   4.065   0.853   3.067  0.8400  0.5042  0.5252
  299MOL0     C41134   4.095   0.987   3.149 -1.0243  0.4357  0.1282
  299MOL0     C41135   3.990   1.094   3.108  0.1609 -0.1230  0.6863
  299MOL0     C41136   4.014   1.235   3.161  0.1244 -0.3440 -0.1010
  299MOL0     C41137   3.907   1.340   3.119  0.7586 -0.7242 -0.7574
  299MOL0     C41138   3.928   1.478   3.180 -0.3070 -0.7396 -0.4056
  299MOL0     C41139   3.910   1.483   3.332  0.2356  0.3803 -0.4201
  299MOL0     C41140   3.938   1.637   3.384  1.0716 -0.1739 -0.1446
  299MOL0     N41141   4.074   1.679   3.400  0.5213  0.1548 -0.3992
  299MOL0     C41142   4.172   1.598   3.463 -0.7707  0.1004  0.4142
  299MOL0     C41143   4.275   1.679   3.452  1.1695 -0.0316  0.8841
  299MOL0     C41144   4.417   1.633   3.504  0.1846 -0.6996 -0.2316
  299MOL0     C41145   4.478   1.519   3.423  0.0991  0.4976 -0.4778
  299MOL0     C41146   4.476   1.520   3.263  0.6545 -0.8036  0.3982
  299MOL0     C41147   4.518   1.663   3.213  0.0359 -0.0928 -0.4473
  299MOL0     O41148   4.523   1.684   3.068 -0.0381 -0.1906  0.0601
  299MOL0     C41149   4.462   1.588   2.987  0.5701  0.5160 -0.5144
  299MOL0     C41150   4.539   1.491   2.931 -0.4150  0.3680  0.8690
  299MOL0     C41151   4.489   1.412   2.823  0.5457 -0.1244 -0.3172
  299MOL0     C41152   4.601   1.338   2.751  0.7842 -0.2777  0.1309
  299MOL0     C41153   4.353   1.402   2.796 -0.6782 -0.0377 -0.2941
  299MOL0     C41154   4.279   1.312   2.711  0.2997  0.0880  1.2675
  299MOL0     O41155   4.146   1.278   2.731 -0.0846  0.5505 -0.1512
  299MOL0     C41156   4.089   1.178   2.650 -0.0362 -0.0026 -0.0120
  299MOL0     C41157   4.067   1.057   2.707  0.1704  0.1496  0.1664
  299MOL0     C41158   4.031   0.949   2.629  0.0524 -0.4584 -0.0676
  299MOL0     C41159   4.030   0.964   2.485  0.0161 -0.3359 -0.8686
  299MOL0     O41160   4.010   0.865   2.398 -0.2609  0.2615  0.1041
  299MOL0     C41161   4.060   0.735   2.436 -0.8454 -0.9814  0.5014
  299MOL0     C41162   3.957   0.641   2.374  0.3159  0.8947 -0.3269
  299MOL0     C41163   3.980   0.493   2.398 -0.3490  0.7476 -0.6158
  299MOL0     C41164   4.096   0.446   2.305  1.0334 -0.5626  0.0818
  299MOL0     C41165   4.101   0.291   2.308 -0.2319 -0.4399  0.3508
  299MOL0     C41166   3.996   0.226   2.219  0.2742 -0.4863  0.0200
  299MOL0     C41167   3.991   0.075   2.244  0.3898  0.3829 -0.6508
  299MOL0     C41168   3.893   0.008   2.144  0.1386  0.3380  0.5482
  299MOL0    Cl41169   3.899  -0.169   2.159  0.0291  0.6184  0.0556
  299MOL0     C41170   4.028   1.094   2.434 -1.4469 -0.2769  0.2152
  299MOL0     C41171   4.065   1.201   2.515 -0.2614  0.4722  0.8389
  299MOL0     O41172   4.341   1.262   2.623 -0.2325  0.5070  1.0435
  299MOL0     C41173   4.273   1.480   2.878 -0.0200 -0.4168 -0.4749
  299MOL0     C41174   4.333   1.585   2.962  0.3248  0.2979  0.0712
  299MOL0     N41175   4.241   1.799   3.379  0.2123 -0.3287 -0.4559
  299MOL0     N41176   4.116   1.804   3.361  0.4843 -0.2536 -0.5326
  299MOL0     C41177   3.947   0.607   2.948  1.0287 -0.6210 -0.8979
  299MOL0     C41178   3.917   0.511   2.846 -0.8348  0.9321 -0.3320
  299MOL0     C41179   3.645   0.302   2.531  0.7758  0.3536 -0.1729
  299MOL0     C41180   3.542   0.289   2.436  0.4693  0.4941 -0.0975
  299MOL0     C41181   3.508   0.173   2.377 -0.0251 -0.1322  0.5526
  299MOL0     C41182   3.600   0.064   2.390  0.4935  0.2237 -0.1435
  299MOL0     O41183   3.584  -0.058   2.322 -0.0145  0.7542 -0.1984
  299MOL0     C41184   3.480  -0.081   2.235  0.1642 -0.2709  0.7474
  299MOL0     C41185   3.512  -0.191   2.142  0.2480  0.5805  0.9001
  299MOL0     C41186   3.540  -0.321   2.222 -1.3134 -0.2733  0.6351
  299MOL0     C41187   3.639  -0.422   2.149 -0.2985  0.2132  0.3764
  299MOL0     C41188   3.577  -0.545   2.098  0.6188  0.3998 -0.1533
  299MOL0     C41189   3.524  -0.640   2.043  0.4112 -0.0972 -1.2544
  299MOL0     C41190   3.714   0.071   2.472 -0.2423 -0.3701 -0.1762
  299MOL0     C41191   3.730   0.189   2.544 -0.9312  0.3444  0.5574
  299MOL0     C41192   3.860   0.192   2.628 -0.0947  0.8371  0.3428
  299MOL0     H41193   3.708   0.711   2.666 -2.1527 -1.9829  0.7857
  299MOL0     H41194   3.776   0.864   2.836  1.8322  0.5768  0.9282
  299MOL0     H41195   4.099   0.862   2.963 -0.0091 -2.8579 -0.1452
  299MOL0     H41196   4.121   0.771   3.112  1.3924  0.6840  0.1703
  299MOL0     H41197   4.107   0.988   3.258  0.3310  1.4919  0.0018
  299MOL0     H41198   4.195   1.013   3.114 -1.6631 -2.2905 -4.4758
  299MOL0     H41199   3.991   1.106   3.000 -0.1927 -0.8389  0.5970
  299MOL0     H41200   3.894   1.064   3.152  0.3135 -1.2173  0.3024
  299MOL0     H41201   4.019   1.226   3.270 -1.1328  1.4740  0.1500
  299MOL0     H41202   4.107   1.268   3.113 -0.4619 -2.0415 -2.6145
  299MOL0     H41203   3.813   1.302   3.161  1.8637 -0.7657  1.9270
  299MOL0     H41204   3.892   1.355   3.012 -4.2771 -1.6042 -0.4312
  299MOL0     H41205   4.025   1.523   3.159 -0.2101 -1.5799 -1.8464
  299MOL0     H41206   3.855   1.534   3.122 -0.9268 -3.3018 -2.2803
  299MOL0     H41207   3.981   1.416   3.381  1.2153  3.2203  2.4945
  299MOL0     H41208   3.810   1.449   3.358  0.4784  0.2511  0.3943
  299MOL0     H41209   3.881   1.705   3.319  0.0635 -2.7545 -2.1314
  299MOL0     H41210   3.879   1.645   3.476 -0.9182 -2.6651 -1.0903
  299MOL0     H41211   4.164   1.503   3.516 -2.2299 -1.1091 -1.8111
  299MOL0     H41212   4.418   1.603   3.609 -2.6692 -1.1729 -0.2530
  299MOL0     H41213   4.481   1.718   3.480 -2.2413  0.8942 -1.4954
  299MOL0     H41214   4.583   1.521   3.451  0.1170  1.6241 -0.5557
  299MOL0     H41215   4.437   1.427   3.463  0.8747  1.1067  1.8435
  299MOL0     H41216   4.555   1.457   3.221  1.5066  0.4866 -0.0342
  299MOL0     H41217   4.379   1.491   3.222  0.6299 -0.8466  0.4883
  299MOL0     H41218   4.441   1.732   3.248 -1.0308 -1.7201  0.5944
  299MOL0     H41219   4.615   1.687   3.257 -0.4949 -0.6969  1.1162
  299MOL0     H41220   4.645   1.480   2.952 -0.7731 -0.3157  2.4847
  299MOL0     H41221   4.573   1.321   2.647  3.3906 -2.7275 -0.2935
  299MOL0     H41222   4.618   1.244   2.804  0.7724  0.2445  1.0968
  299MOL0     H41223   4.694   1.395   2.756  0.8805 -0.3900 -0.3260
  299MOL0     H41224   4.092   1.033   2.810 -3.0544 -1.9464  0.6220
  299MOL0     H41225   4.019   0.851   2.675  0.4921 -2.4995 -3.8830
  299MOL0     H41226   4.149   0.708   2.379 -0.1986  1.7309  0.1318
  299MOL0     H41227   4.067   0.712   2.543 -0.4179  0.8428  0.8974
  299MOL0     H41228   3.860   0.649   2.425  1.9839  0.9572  3.1726
  299MOL0     H41229   3.954   0.649   2.265 -0.8406  1.2720 -0.2836
  299MOL0     H41230   3.893   0.432   2.373  0.5938 -0.1568 -1.7783
  299MOL0     H41231   4.009   0.479   2.503 -0.8410 -1.5409 -0.7182
  299MOL0     H41232   4.191   0.480   2.348  2.0631 -3.4265  0.3339
  299MOL0     H41233   4.079   0.478   2.202  2.2128  0.6503  0.2455
  299MOL0     H41234   4.196   0.259   2.265 -0.8826 -2.5341  0.3627
  299MOL0     H41235   4.087   0.245   2.407 -4.1517 -2.2497 -0.8143
  299MOL0     H41236   4.028   0.245   2.116  1.4823 -2.6967 -0.0756
  299MOL0     H41237   3.899   0.271   2.244  0.7305  1.0005 -0.7806
  299MOL0     H41238   3.959   0.054   2.347 -0.0186  1.8354 -0.4638
  299MOL0     H41239   4.088   0.026   2.239 -1.2114 -3.1097 -0.5545
  299MOL0     H41240   3.934   0.036   2.046 -0.1356  2.0713  0.8923
  299MOL0     H41241   3.794   0.054   2.154 -0.4962 -1.1469  1.4760
  299MOL0     H41242   4.013   1.112   2.328 -1.5601 -0.1369  0.2550
  299MOL0     H41243   4.068   1.300   2.472  2.3072 -0.6853 -2.0264
  299MOL0     H41244   4.165   1.469   2.880  0.0223 -1.3900  2.9242
  299MOL0     H41245   4.268   1.649   3.020  1.1804 -0.6840  2.2278
  299MOL0     H41246   4.031   0.583   3.012  1.0744 -1.2811 -1.1975
  299MOL0     H41247   3.969   0.416   2.842  3.5982  3.1334 -0.9178
  299MOL0     H41248   3.486   0.381   2.417 -0.0383  1.0393  3.3994
  299MOL0     H41249   3.412   0.163   2.327  0.3185  0.0892 -0.1665
  299MOL0     H41250   3.389  -0.097   2.293 -0.6115  1.3080  0.0365
  299MOL0     H41251   3.454   0.003   2.170 -2.3690 -2.6581 -1.6052
  299MOL0     H41252   3.592  -0.162   2.073 -0.2820  1.7343  0.7427
  299MOL0     H41253   3.431  -0.204   2.070  1.6668 -0.3650 -0.6093
  299MOL0     H41254   3.572  -0.295   2.323 -0.9445  2.6757 -0.1512
  299MOL0     H41255   3.443  -0.369   2.238 -0.9095 -0.1676  4.0138
  299MOL0     H41256   3.720  -0.453   2.216  0.1891 -2.1831 -1.2031
  299MOL0     H41257   3.681  -0.374   2.061 -1.6190 -2.4406 -1.8637
  299MOL0     H41258   3.467  -0.711   1.986 -1.2264  0.3645 -0.2751
  299MOL0     H41259   3.787  -0.010   2.475 -1.3782 -1.5827 -2.4566
  299MOL0     H41260   3.911   0.096   2.630  0.6583  1.2270  0.4207
  299MOL0     H41261   3.925   0.264   2.577 -0.9672 -1.3529 -4.3462
  299MOL0     H41262   3.826   0.210   2.730  0.9285  0.4258  0.7677
  300MOL0     O41263   6.257   1.631   5.109 -0.4533 -0.1130  0.3101
  300MOL0     C41264   6.178   1.659   5.018  0.2840 -0.8477  0.3273
  300MOL0     O41265   6.049   1.621   5.004  1.1571 -0.6183  0.1439
  300MOL0     C41266   5.995   1.529   5.091 -0.1143 -0.3900 -0.5085
  300MOL0     C41267   5.887   1.575   5.158 -0.5945  0.6924 -1.0301
  300MOL0     C41268   5.813   1.489   5.242 -0.6828 -0.0057 -0.3723
  300MOL0     C41269   5.860   1.352   5.263  0.0518  0.0541 -0.1198
  300MOL0     O41270   5.820   1.263   5.362  0.8805 -0.2877 -0.1471
  300MOL0     C41271   5.736   1.317   5.466 -0.4200  0.1076  0.1063
  300MOL0     C41272   5.701   1.196   5.567  0.1011  0.0428 -0.4455
  300MOL0     C41273   5.558   1.153   5.547  0.0465  0.9420  0.8090
  300MOL0     C41274   5.523   1.056   5.659 -0.2130 -0.5149  0.1381
  300MOL0     C41275   5.373   1.043   5.666  0.1312  0.9205 -0.0628
  300MOL0     C41276   5.322   0.937   5.757  1.3099  0.6291 -1.5872
  300MOL0     C41277   5.173   0.962   5.813 -1.1435 -0.3737 -0.4389
  300MOL0     C41278   5.154   1.093   5.890  0.0885  0.0989  0.3744
  300MOL0     N41279   5.030   1.074   5.957  0.4727 -0.7085 -0.5685
  300MOL0     C41280   5.012   0.996   6.070 -0.0077 -0.6271 -0.6428
  300MOL0     C41281   4.895   1.036   6.122 -0.4173  0.6467  0.3245
  300MOL0     C41282   4.810   0.988   6.234  0.6049 -0.2233 -0.6922
  300MOL0     C41283   4.797   0.833   6.221 -0.5545 -0.2143  0.3959
  300MOL0     C41284   4.670   0.783   6.289  0.7302  0.8593  0.3180
  300MOL0     C41285   4.623   0.854   6.421 -1.2343  0.1999 -0.2398
  300MOL0     O41286   4.503   0.800   6.470 -0.4853  0.3534  0.3437
  300MOL0     C41287   4.441   0.853   6.578 -0.2624 -0.3521  0.3355
  300MOL0     C41288   4.329   0.787   6.639 -1.9133 -0.1065 -0.0009
  300MOL0     C41289   4.253   0.840   6.732 -0.1559  0.1755  0.0646
  300MOL0     C41290   4.153   0.753   6.799 -0.3470 -0.5229 -0.1087
  300MOL0     C41291   4.289   0.975   6.785 -0.5140 -0.1301  0.8655
  300MOL0     C41292   4.218   1.035   6.901  0.0941  0.0235 -0.0063
  300MOL0     O41293   4.265   1.149   6.953  0.3288 -0.3582  0.0036
  300MOL0     C41294   4.211   1.177   7.078  0.0425 -0.7846  0.5330
  300MOL0     C41295   4.299   1.175   7.190  0.0295 -0.1066 -0.1941
  300MOL0     C41296   4.246   1.211   7.314 -0.6017  0.5392 -0.6619
  300MOL0     C41297   4.115   1.261   7.320 -0.2365  0.3211  0.0057
  300MOL0     O41298   4.058   1.317   7.435 -0.5009  1.2135 -0.1174
  300MOL0     C41299   4.148   1.371   7.534  0.4024  0.0722  0.3675
  300MOL0     C41300   4.214   1.496   7.482 -0.0450 -0.3163 -0.2090
  300MOL0     C41301   4.266   1.598   7.593  0.2952  1.1118  0.0990
  300MOL0     C41302   4.358   1.703   7.518 -0.3762  1.1421  0.1030
  300MOL0     C41303   4.494   1.649   7.464 -0.4494 -0.0390  0.8048
  300MOL0     C41304   4.615   1.743   7.474  1.2471  0.7501  0.2417
  300MOL0     C41305   4.655   1.769   7.617  0.0176  0.1518 -0.5067
  300MOL0     C41306   4.786   1.847   7.636  0.5711 -0.5635  0.0510
  300MOL0    Cl41307   4.929   1.750   7.628 -0.0996  0.3785 -0.2398
  300MOL0     C41308   4.036   1.263   7.205 -0.2550  0.4975 -0.3516
  300MOL0     C41309   4.077   1.220   7.083 -0.1878 -0.4887 -0.0132
  300MOL0     O41310   4.118   0.978   6.943 -0.1756 -0.6845  0.6848
  300MOL0     C41311   4.390   1.053   6.728 -0.3199  1.2047 -0.5104
  300MOL0     C41312   4.463   0.985   6.625  0.1988 -0.0676 -0.1695
  300MOL0     N41313   4.841   1.134   6.039  0.0422 -1.0732 -0.4533
  300MOL0     N41314   4.927   1.160   5.952 -0.3264  0.8777 -0.2862
  300MOL0     C41315   5.972   1.301   5.191 -0.7502 -0.1463  0.4622
  300MOL0     C41316   6.034   1.393   5.107  0.3975 -0.1939  0.3829
  300MOL0     C41317   6.247   1.734   4.909  0.3524  0.7928 -0.3970
  300MOL0     C41318   6.212   1.697   4.782 -1.3523 -0.9682  1.1461
  300MOL0     C41319   6.281   1.758   4.665  0.2873 -0.0362 -0.3800
  300MOL0     C41320   6.386   1.856   4.686  0.6653 -0.5912  0.6007
  300MOL0     O41321   6.464   1.916   4.588  0.4001  0.7401 -0.3286
  300MOL0     C41322   6.479   1.844   4.463  0.6719  0.6393 -0.3848
  300MOL0     C41323   6.598   1.894   4.388 -0.4557 -0.0842  0.5698
  300MOL0     C41324   6.629   1.809   4.268 -0.4817 -0.1697  0.0369
  300MOL0     C41325   6.664   1.886   4.136  0.0513  0.0240  0.8181
  300MOL0     C41326   6.780   1.970   4.143  0.6078  0.5969 -0.8826
  300MOL0     C41327   6.878   2.035   4.169 -0.4100 -0.6345 -0.0981
  300MOL0     C41328   6.408   1.898   4.814 -0.9175  0.2327 -0.1435
  300MOL0     C41329   6.343   1.840   4.925  0.6765  0.0147  0.2583
  300MOL0     C41330   6.383   1.891   5.059 -0.2457  0.2923  0.6067
  300MOL0     H41331   5.844   1.671   5.131 -0.3147  0.9500 -0.5639
  300MOL0     H41332   5.722   1.535   5.278 -0.0633  0.6376  0.4053
  300MOL0     H41333   5.643   1.361   5.430 -0.4800  0.7080  0.9519
  300MOL0     H41334   5.788   1.401   5.512  2.2150 -0.4537 -1.6342
  300MOL0     H41335   5.766   1.113   5.542 -0.1098  0.3946 -2.2816
  300MOL0     H41336   5.719   1.219   5.673  2.5552  0.9276 -0.9870
  300MOL0     H41337   5.490   1.238   5.545 -1.5858 -0.3172  0.2079
  300MOL0     H41338   5.547   1.096   5.454  0.1868  1.0988  0.6963
  300MOL0     H41339   5.560   0.955   5.640  2.3221  0.0545  1.5609
  300MOL0     H41340   5.555   1.093   5.757 -0.9514  0.6314 -0.0409
  300MOL0     H41341   5.334   1.011   5.569 -3.5814  0.7855  1.3235
  300MOL0     H41342   5.323   1.138   5.687 -1.4413  1.1163 -3.8443
  300MOL0     H41343   5.341   0.835   5.723  0.1001 -0.3976  0.6130
  300MOL0     H41344   5.380   0.952   5.849  1.1825  1.2270 -1.6014
  300MOL0     H41345   5.162   0.873   5.876 -1.1079 -1.0250 -1.3341
  300MOL0     H41346   5.093   0.945   5.740 -2.9675  0.8676  1.1900
  300MOL0     H41347   5.238   1.100   5.960  1.1148 -2.1653 -0.5415
  300MOL0     H41348   5.152   1.179   5.823  0.3937 -0.3214 -0.1761
  300MOL0     H41349   5.081   0.919   6.102  0.6595 -0.5487 -1.8322
  300MOL0     H41350   4.717   1.044   6.223  0.2149 -0.3529  1.4943
  300MOL0     H41351   4.840   1.004   6.338 -1.7055  0.1222 -0.0279
  300MOL0     H41352   4.800   0.797   6.118  3.4615 -2.6858  1.1592
  300MOL0     H41353   4.885   0.792   6.271  0.0435  1.7279  1.0044
  300MOL0     H41354   4.584   0.805   6.225  0.4376  0.7412  0.6705
  300MOL0     H41355   4.672   0.677   6.314 -2.3584  1.2255  2.7402
  300MOL0     H41356   4.703   0.850   6.497  2.1208  0.1967 -3.4836
  300MOL0     H41357   4.616   0.960   6.394  7.0793  1.2218 -1.3121
  300MOL0     H41358   4.302   0.689   6.601 -2.0835 -1.1881  2.7204
  300MOL0     H41359   4.157   0.648   6.768  0.6751 -1.1112  1.8589
  300MOL0     H41360   4.050   0.787   6.786 -0.6088 -1.6897 -1.2554
  300MOL0     H41361   4.186   0.741   6.902  1.3438  1.1994 -0.3986
  300MOL0     H41362   4.404   1.151   7.179 -0.1180 -0.5200 -0.7650
  300MOL0     H41363   4.323   1.218   7.390 -0.2554 -0.0217 -0.9545
  300MOL0     H41364   4.079   1.403   7.613 -0.1997  4.1753 -1.5550
  300MOL0     H41365   4.228   1.304   7.566  1.4615  0.5075 -1.2508
  300MOL0     H41366   4.290   1.471   7.408  0.0124 -1.2372  0.1489
  300MOL0     H41367   4.129   1.547   7.437  1.0073  0.8337 -0.9771
  300MOL0     H41368   4.326   1.554   7.674  1.0358  2.0497  0.0768
  300MOL0     H41369   4.182   1.650   7.639  0.1003 -1.1537  2.5781
  300MOL0     H41370   4.376   1.785   7.588 -3.1617  4.1305 -2.3575
  300MOL0     H41371   4.305   1.754   7.437 -4.0760  1.7526  2.7010
  300MOL0     H41372   4.513   1.551   7.508 -0.8326 -0.3410  0.3079
  300MOL0     H41373   4.483   1.641   7.355 -0.5150  0.0840  0.8019
  300MOL0     H41374   4.586   1.836   7.423  0.0877  0.7390  0.8309
  300MOL0     H41375   4.694   1.688   7.423 -0.8920 -2.2969 -0.0573
  300MOL0     H41376   4.659   1.675   7.673  0.6995  1.5429  1.9187
  300MOL0     H41377   4.579   1.828   7.670  1.9502  1.4644  0.9570
  300MOL0     H41378   4.760   1.901   7.727 -1.1829  0.4593 -0.9854
  300MOL0     H41379   4.797   1.919   7.554  0.1860  1.4036  1.6418
  300MOL0     H41380   3.933   1.296   7.212 -1.3737 -2.7142 -0.1919
  300MOL0     H41381   4.016   1.228   6.994  0.4470  0.8759 -0.3549
  300MOL0     H41382   4.413   1.156   6.753  0.0095  0.6700  1.5387
  300MOL0     H41383   4.545   1.037   6.577  2.2121 -2.6117  0.2560
  300MOL0     H41384   6.008   1.199   5.197  0.8036  0.4399  4.6947
  300MOL0     H41385   6.119   1.363   5.046  1.9974  3.0688  0.7923
  300MOL0     H41386   6.127   1.631   4.766 -2.2820  0.1770  1.1558
  300MOL0     H41387   6.254   1.732   4.564  1.9985 -3.0145 -0.1837
  300MOL0     H41388   6.487   1.737   4.486 -3.8118  0.4832  1.6164
  300MOL0     H41389   6.381   1.845   4.414 -0.3070 -1.2839  1.3612
  300MOL0     H41390   6.682   1.916   4.455 -0.0354  0.8638 -0.2390
  300MOL0     H41391   6.567   1.990   4.347  0.8169  0.3821  0.6368
  300MOL0     H41392   6.712   1.744   4.299 -0.2418 -0.1927 -0.6460
  300MOL0     H41393   6.543   1.744   4.253 -0.4407  0.1393 -1.7203
  300MOL0     H41394   6.574   1.945   4.118  1.6003  2.3806  0.4707
  300MOL0     H41395   6.681   1.810   4.059  0.9303 -0.9011  1.8870
  300MOL0     H41396   6.969   2.091   4.181 -2.0716  2.7417 -1.9342
  300MOL0     H41397   6.486   1.973   4.819  0.7566 -1.3887 -0.5273
  300MOL0     H41398   6.446   1.979   5.050  0.7801 -0.6399 -2.3065
  300MOL0     H41399   6.285   1.914   5.104 -0.8910  3.4931 -2.0350
  300MOL0     H41400   6.430   1.816   5.123  1.8841  0.1786 -0.9958
  301MOL0     O41401   1.684  11.095   3.998 -0.5061  0.0915  0.5988
  301MOL0     C41402   1.639  11.175   3.918 -0.3225  0.8658 -0.3811
  301MOL0     O41403   1.556  11.283   3.953  0.0393 -0.8412  0.2497
  301MOL0     C41404   1.549  11.306   4.085  0.1770 -0.1789  0.4887
  301MOL0     C41405   1.627  11.418   4.126  0.7259 -0.0146  1.0051
  301MOL0     C41406   1.643  11.453   4.261 -0.4140  0.3515 -0.0779
  301MOL0     C41407   1.584  11.375   4.355 -0.7350  0.5179 -0.4057
  301MOL0     O41408   1.615  11.398   4.486 -0.1109 -0.1771  0.0303
  301MOL0     C41409   1.516  11.396   4.600 -0.9471  0.3056  0.4975
  301MOL0     C41410   1.544  11.514   4.689 -0.1046 -0.4013  0.3415
  301MOL0     C41411   1.551  11.650   4.627 -0.3491  0.6428  0.4764
  301MOL0     C41412   1.533  11.759   4.734 -0.0838  0.1790  0.3655
  301MOL0     C41413   1.555  11.909   4.687 -0.3243  0.0052  0.5839
  301MOL0     C41414   1.701  11.960   4.702  0.1879 -0.5400 -0.0328
  301MOL0     C41415   1.713  12.115   4.665 -0.6463  0.9803 -0.2143
  301MOL0     C41416   1.862  12.147   4.714 -0.4970  0.3904  0.3594
  301MOL0     N41417   1.881  12.291   4.720 -0.1456 -0.0753  0.4150
  301MOL0     C41418   1.885  12.366   4.603 -0.0891  0.3156  0.1506
  301MOL0     C41419   1.929  12.490   4.641  1.3782  0.3191 -0.2210
  301MOL0     C41420   1.932  12.621   4.555 -0.1666  0.1387 -0.8299
  301MOL0     C41421   2.078  12.625   4.495  0.1824  0.3139  0.5100
  301MOL0     C41422   2.079  12.739   4.410 -0.2889  0.1423  0.5851
  301MOL0     C41423   2.214  12.770   4.354  0.0647  0.7149 -0.0431
  301MOL0     O41424   2.233  12.684   4.240  0.2244 -0.5037  0.3546
  301MOL0     C41425   2.343  12.691   4.158  0.3584  0.0253 -0.8003
  301MOL0     C41426   2.462  12.747   4.202  0.0127  1.1126  0.2768
  301MOL0     C41427   2.571  12.771   4.111 -0.2185  0.6005 -0.5554
  301MOL0     C41428   2.698  12.836   4.155 -0.4304 -0.9866 -0.5069
  301MOL0     C41429   2.562  12.734   3.979 -0.0398  0.1479  0.2874
  301MOL0     C41430   2.655  12.774   3.867 -0.2219 -0.2465 -0.0165
  301MOL0     O41431   2.595  12.831   3.753 -0.4569  0.4813 -0.9683
  301MOL0     C41432   2.656  12.821   3.632  0.7034  0.9506 -0.5016
  301MOL0     C41433   2.746  12.726   3.595 -0.0628 -0.0869 -0.0010
  301MOL0     C41434   2.775  12.719   3.463  0.4298  0.6164  0.0335
  301MOL0     C41435   2.738  12.815   3.374 -1.3272  0.5159  0.6499
  301MOL0     O41436   2.772  12.800   3.238 -0.1509  0.4723  0.1989
  301MOL0     C41437   2.689  12.868   3.143 -0.4056 -0.2616  0.6044
  301MOL0     C41438   2.702  12.809   2.997 -0.2322  0.1037 -0.4926
  301MOL0     C41439   2.673  12.658   2.994  0.5154  0.0163  0.1926
  301MOL0     C41440   2.608  12.624   2.866  0.0848 -0.4254  0.4650
  301MOL0     C41441   2.553  12.481   2.847  0.6070 -0.3876 -0.2748
  301MOL0     C41442   2.551  12.451   2.699 -0.9564 -0.1154 -0.1857
  301MOL0     C41443   2.474  12.324   2.670 -0.2228 -0.0335  0.2122
  301MOL0     C41444   2.324  12.368   2.645 -0.0569 -0.3732  0.3948
  301MOL0    Cl41445   2.326  12.405   2.469  0.0197  0.5003 -0.0364
  301MOL0     C41446   2.671  12.920   3.416  0.2676 -0.0178  0.3820
  301MOL0     C41447   2.625  12.924   3.544  0.3817 -1.4767 -0.7947
  301MOL0     O41448   2.777  12.746   3.869 -0.2527 -0.6633 -0.5357
  301MOL0     C41449   2.432  12.690   3.938 -0.9016 -0.7956  0.6893
  301MOL0     C41450   2.332  12.657   4.025  1.1137  0.0488  0.3185
  301MOL0     N41451   1.934  12.486   4.781  1.2636 -0.0624  0.6746
  301MOL0     N41452   1.899  12.377   4.821 -0.6112 -0.1839 -0.1497
  301MOL0     C41453   1.512  11.259   4.319  0.5940  0.2557 -0.5187
  301MOL0     C41454   1.497  11.226   4.185 -0.3696 -0.0756 -0.4002
  301MOL0     C41455   1.675  11.153   3.777 -0.5750  0.2023 -0.8574
  301MOL0     C41456   1.576  11.190   3.685 -1.0261 -0.2721 -0.0797
  301MOL0     C41457   1.598  11.172   3.550  0.7172 -0.2764 -0.1531
  301MOL0     C41458   1.718  11.122   3.509 -0.1095  0.3971  0.4781
  301MOL0     O41459   1.715  11.085   3.380 -0.0176 -0.3392 -0.0166
  301MOL0     C41460   1.823  11.001   3.330 -0.4265  0.6868 -0.4896
  301MOL0     C41461   1.773  10.944   3.196 -0.4330 -0.8589 -0.0149
  301MOL0     C41462   1.762  11.056   3.097  0.2785  0.0843  0.6311
  301MOL0     C41463   1.899  11.093   3.029 -0.5575  0.2623  0.7327
  301MOL0     C41464   1.902  11.091   2.879 -0.6180 -0.4647  0.0389
  301MOL0     C41465   1.897  11.073   2.760  0.5089  0.4909  0.1982
  301MOL0     C41466   1.826  11.088   3.601  0.7458  0.0299 -0.4217
  301MOL0     C41467   1.806  11.109   3.738 -0.2131  0.7553 -0.4296
  301MOL0     C41468   1.921  11.091   3.825  0.4565 -0.0516 -0.1414
  301MOL0     H41469   1.690  11.486   4.069  0.0997  0.5752  1.0047
  301MOL0     H41470   1.692  11.545   4.291 -1.8029  1.0593  0.0797
  301MOL0     H41471   1.513  11.297   4.645 -1.5166 -0.8809 -1.9828
  301MOL0     H41472   1.413  11.416   4.567 -0.2289 -0.1994 -2.2443
  301MOL0     H41473   1.454  11.517   4.752 -0.7881 -0.8874 -0.5942
  301MOL0     H41474   1.632  11.491   4.750 -0.0821  1.9366  1.2981
  301MOL0     H41475   1.651  11.650   4.583 -0.1243  0.2128  0.9792
  301MOL0     H41476   1.481  11.660   4.543 -0.1438 -3.5437 -0.4152
  301MOL0     H41477   1.437  11.750   4.785  1.4474  2.4143  4.0455
  301MOL0     H41478   1.600  11.740   4.818 -2.8447 -0.0492  2.6304
  301MOL0     H41479   1.493  11.983   4.738 -0.7646  0.8330 -1.0753
  301MOL0     H41480   1.531  11.926   4.582  0.3649  2.8430  0.8113
  301MOL0     H41481   1.720  11.951   4.810 -1.2675  1.9086  0.5233
  301MOL0     H41482   1.777  11.902   4.649  1.6980 -1.0665  2.4976
  301MOL0     H41483   1.635  12.176   4.711 -0.6046 -2.0036  4.3830
  301MOL0     H41484   1.705  12.112   4.556 -0.6556 -1.8431 -0.2118
  301MOL0     H41485   1.879  12.116   4.817  1.1295 -0.8488 -0.2448
  301MOL0     H41486   1.950  12.113   4.658  2.3023  1.5488  3.7102
  301MOL0     H41487   1.863  12.336   4.501  2.1842 -3.9987  0.6757
  301MOL0     H41488   1.917  12.705   4.624 -1.0571 -0.7079  0.0337
  301MOL0     H41489   1.851  12.621   4.481  2.3759  1.5394 -3.8823
  301MOL0     H41490   2.161  12.628   4.566  1.3486  0.3572 -0.8013
  301MOL0     H41491   2.100  12.535   4.437  2.5807  1.0352  0.1834
  301MOL0     H41492   2.003  12.729   4.331 -1.1084 -1.0523  1.4853
  301MOL0     H41493   2.046  12.825   4.469  0.0101 -0.0141  0.9862
  301MOL0     H41494   2.232  12.875   4.331  0.2669  0.5426 -0.6933
  301MOL0     H41495   2.276  12.734   4.436 -2.6101 -0.2080  1.7378
  301MOL0     H41496   2.483  12.781   4.302 -1.9334 -2.0255  1.9341
  301MOL0     H41497   2.782  12.769   4.135  1.2630  1.7095 -3.4118
  301MOL0     H41498   2.695  12.859   4.262  1.1315 -1.1542 -0.4003
  301MOL0     H41499   2.709  12.927   4.095  1.3085 -0.7978  0.0217
  301MOL0     H41500   2.771  12.634   3.647 -2.2581 -1.7447 -1.6357
  301MOL0     H41501   2.827  12.626   3.441 -0.7088 -0.9783  3.4193
  301MOL0     H41502   2.585  12.860   3.175 -0.1395 -2.2842  1.1236
  301MOL0     H41503   2.722  12.972   3.135 -2.1300  0.1669 -2.0086
  301MOL0     H41504   2.631  12.874   2.945  1.8442  2.2830 -0.7486
  301MOL0     H41505   2.802  12.835   2.961  0.4681 -0.8037  0.7405
  301MOL0     H41506   2.600  12.635   3.072  0.0574  0.3680 -0.1258
  301MOL0     H41507   2.762  12.595   3.011  1.3616  0.5932 -1.7577
  301MOL0     H41508   2.671  12.654   2.782 -2.3571 -0.1264 -1.3645
  301MOL0     H41509   2.520  12.688   2.850 -0.0900 -1.0188 -1.2018
  301MOL0     H41510   2.620  12.415   2.904  1.4321  1.7617  1.3777
  301MOL0     H41511   2.453  12.482   2.891  0.6840 -1.4832 -0.0441
  301MOL0     H41512   2.654  12.420   2.682 -0.5304 -0.5450  2.5881
  301MOL0     H41513   2.533  12.536   2.633  2.0908  0.8984  0.1232
  301MOL0     H41514   2.482  12.248   2.748 -0.0806 -0.6286 -0.3837
  301MOL0     H41515   2.531  12.282   2.587  3.2060  0.8466  1.9074
  301MOL0     H41516   2.310  12.460   2.703  2.5014  0.3988 -0.0649
  301MOL0     H41517   2.258  12.282   2.663 -0.4248 -0.0612  0.5606
  301MOL0     H41518   2.622  12.991   3.351 -1.8928 -2.4690 -0.8440
  301MOL0     H41519   2.559  13.002   3.579  1.9137 -0.9480  1.0761
  301MOL0     H41520   2.422  12.665   3.833  0.9646  0.7608  0.1020
  301MOL0     H41521   2.236  12.632   3.982  0.7943  3.1287 -1.0371
  301MOL0     H41522   1.472  11.199   4.400 -0.5446 -0.7013 -1.7443
  301MOL0     H41523   1.446  11.135   4.154 -0.6149 -0.0660 -0.0220
  301MOL0     H41524   1.475  11.219   3.711 -1.2037 -0.2474 -0.7835
  301MOL0     H41525   1.513  11.199   3.488 -0.3743 -0.6936  1.1426
  301MOL0     H41526   1.907  11.069   3.314  0.6829  0.8108  4.4159
  301MOL0     H41527   1.846  10.918   3.398 -0.0197  0.0715 -1.3524
  301MOL0     H41528   1.674  10.904   3.222 -0.8720  2.2695  4.2220
  301MOL0     H41529   1.839  10.863   3.162 -0.6523 -2.5666  3.2047
  301MOL0     H41530   1.696  11.024   3.015  2.5608 -0.0866 -1.2430
  301MOL0     H41531   1.722  11.146   3.143  2.1147  0.8965  0.7118
  301MOL0     H41532   1.972  11.018   3.064 -1.2230  0.2151  2.0765
  301MOL0     H41533   1.924  11.195   3.061  0.0676 -0.1338  1.5762
  301MOL0     H41534   1.876  11.052   2.657 -2.6743 -0.3691  0.9064
  301MOL0     H41535   1.927  11.058   3.575  1.6868  2.7251 -0.2403
  301MOL0     H41536   1.895  11.150   3.913 -2.5664  0.5632 -1.3345
  301MOL0     H41537   1.953  10.988   3.848  0.5133  0.1997  0.9629
  301MOL0     H41538   2.008  11.134   3.774  0.1979  0.5679 -0.0574
  302MOL0     O41539   3.760  10.376   8.747 -0.3031  0.0598  0.3572
  302MOL0     C41540   3.769  10.357   8.866 -0.4710  0.7045 -0.9595
  302MOL0     O41541   3.889  10.352   8.932  0.0867  0.4949 -0.2853
  302MOL0     C41542   4.012  10.345   8.875 -0.7227 -0.5955 -0.6456
  302MOL0     C41543   4.029  10.268   8.764 -0.7527  0.0118  0.2090
  302MOL0     C41544   4.152  10.259   8.692 -1.2023  0.3855 -0.6626
  302MOL0     C41545   4.265  10.337   8.738  0.5098  0.0767 -0.1088
  302MOL0     O41546   4.390  10.315   8.693  0.0176  0.9843 -0.3291
  302MOL0     C41547   4.444  10.394   8.584 -0.2789 -0.4048  0.2401
  302MOL0     C41548   4.493  10.311   8.466  0.5587  0.8243  0.3312
  302MOL0     C41549   4.372  10.241   8.392  0.3900  0.2504  0.3485
  302MOL0     C41550   4.418  10.176   8.255  0.0764  0.3119 -0.1100
  302MOL0     C41551   4.336  10.081   8.182  0.9422 -0.1346  0.3075
  302MOL0     C41552   4.189  10.130   8.160 -0.6816 -0.0660 -0.4292
  302MOL0     C41553   4.171  10.261   8.084  0.2142 -0.1241 -0.5035
  302MOL0     C41554   4.051  10.341   8.146 -0.0184 -0.2326  0.3511
  302MOL0     N41555   3.918  10.271   8.138 -0.8678 -0.1984 -0.2656
  302MOL0     C41556   3.862  10.190   8.234 -0.3849  0.6381 -0.2256
  302MOL0     C41557   3.761  10.126   8.183  0.8857 -0.3679 -0.4802
  302MOL0     C41558   3.665  10.034   8.249  0.6795  0.8153  0.1432
  302MOL0     C41559   3.589  10.090   8.374  0.5678 -1.2988 -0.5173
  302MOL0     C41560   3.573  10.244   8.379 -0.1920  0.6139  0.2374
  302MOL0     C41561   3.494  10.300   8.258  0.1191  0.0369  0.5129
  302MOL0     O41562   3.348  10.290   8.273 -1.0546  1.0880  0.0264
  302MOL0     C41563   3.294  10.404   8.330 -0.5536  0.7316  0.7450
  302MOL0     C41564   3.167  10.434   8.277 -0.6293  0.5986 -0.1106
  302MOL0     C41565   3.093  10.547   8.322  0.2256 -0.6329 -0.2787
  302MOL0     C41566   2.943  10.566   8.295  0.5446  0.6051  0.3549
  302MOL0     C41567   3.160  10.643   8.404 -0.6064  0.0482 -0.2906
  302MOL0     C41568   3.103  10.783   8.418 -0.1193  0.6388 -0.6327
  302MOL0     O41569   3.119  10.833   8.538  0.6443  0.9058 -0.0630
  302MOL0     C41570   3.122  10.974   8.539 -0.1075 -0.2487  0.1844
  302MOL0     C41571   3.013  11.067   8.562 -0.3088 -0.3629  0.7016
  302MOL0     C41572   3.035  11.203   8.570  0.8213 -0.2158 -0.9039
  302MOL0     C41573   3.158  11.261   8.563 -1.1322  0.2794  0.1575
  302MOL0     O41574   3.171  11.395   8.559 -0.2705 -0.9285 -0.5895
  302MOL0     C41575   3.303  11.452   8.531  0.1751  0.1731 -0.1779
  302MOL0     C41576   3.286  11.604   8.540 -0.3127 -1.0136 -0.2567
  302MOL0     C41577   3.254  11.647   8.687 -0.1921  0.4005 -0.0698
  302MOL0     C41578   3.228  11.802   8.710  0.5052 -0.6904  0.0419
  302MOL0     C41579   3.202  11.835   8.857 -0.2578  1.0238 -0.5749
  302MOL0     C41580   3.058  11.814   8.902  0.7521  0.5081  0.1895
  302MOL0     C41581   3.055  11.807   9.055  0.5592  0.2549  0.7023
  302MOL0     C41582   2.911  11.786   9.105  0.0261  0.1368 -0.8767
  302MOL0    Cl41583   2.864  11.611   9.157  0.3023 -0.2354 -0.4531
  302MOL0     C41584   3.267  11.175   8.550 -0.7582  0.0293 -0.7525
  302MOL0     C41585   3.249  11.031   8.535 -0.8162 -1.3290 -0.6118
  302MOL0     O41586   3.059  10.844   8.321 -0.0323  0.4240  0.5076
  302MOL0     C41587   3.287  10.606   8.446 -1.0678 -0.9624 -0.2248
  302MOL0     C41588   3.360  10.494   8.409 -0.0075  0.0402 -0.3902
  302MOL0     N41589   3.755  10.158   8.050  0.3181 -0.3003  0.7349
  302MOL0     N41590   3.849  10.245   8.022 -0.1543  0.1085  0.4422
  302MOL0     C41591   4.245  10.413   8.857 -0.2535  0.1395 -0.0267
  302MOL0     C41592   4.120  10.419   8.916 -0.3694 -0.0815 -0.0776
  302MOL0     C41593   3.647  10.337   8.958  0.3733 -1.5697 -1.0037
  302MOL0     C41594   3.651  10.389   9.085  0.2016 -0.2894  0.1995
  302MOL0     C41595   3.544  10.386   9.173 -0.2915 -1.2872  0.7366
  302MOL0     C41596   3.419  10.345   9.131 -0.4956 -0.3736  0.6680
  302MOL0     O41597   3.317  10.336   9.225 -0.9141  0.1448  0.7497
  302MOL0     C41598   3.191  10.382   9.175 -0.5642  0.2770  0.4258
  302MOL0     C41599   3.116  10.459   9.274  0.0137  0.2260 -0.0431
  302MOL0     C41600   3.115  10.388   9.418 -0.2791 -0.0397 -0.1797
  302MOL0     C41601   3.034  10.480   9.517  0.3634 -0.6354 -0.1395
  302MOL0     C41602   3.094  10.615   9.543  0.1026 -0.9487  0.0712
  302MOL0     C41603   3.135  10.723   9.562  0.0515  0.2780  0.3201
  302MOL0     C41604   3.407  10.294   9.003 -0.1428  0.0437 -0.5260
  302MOL0     C41605   3.521  10.289   8.916  0.0967 -0.4163 -0.5633
  302MOL0     C41606   3.498  10.234   8.782 -0.3933 -0.5051 -0.6035
  302MOL0     H41607   3.953  10.210   8.713  0.5790 -1.1724 -0.5027
  302MOL0     H41608   4.177  10.187   8.614 -2.4453 -1.3932  0.4844
  302MOL0     H41609   4.524  10.456   8.626 -0.7525 -0.9387  2.0093
  302MOL0     H41610   4.372  10.470   8.554  0.2950  0.5174  1.1469
  302MOL0     H41611   4.539  10.382   8.397 -2.4948  0.4790 -2.2690
  302MOL0     H41612   4.575  10.248   8.503 -0.3716 -1.6671 -1.6217
  302MOL0     H41613   4.331  10.163   8.457  1.7151  0.4361  1.4490
  302MOL0     H41614   4.293  10.315   8.379  1.3374  1.3520  0.7419
  302MOL0     H41615   4.446  10.249   8.178 -1.9396  0.4966 -0.7283
  302MOL0     H41616   4.508  10.121   8.286  1.7670  3.3215  0.7320
  302MOL0     H41617   4.341   9.987   8.239 -2.9036 -1.5915 -1.4077
  302MOL0     H41618   4.380  10.057   8.084 -2.1634  1.5175 -1.6368
  302MOL0     H41619   4.153  10.042   8.106 -0.5966 -1.0566  1.0748
  302MOL0     H41620   4.145  10.119   8.260  1.3069 -2.4496  0.2820
  302MOL0     H41621   4.152  10.242   7.978  0.0893  0.0089 -0.5050
  302MOL0     H41622   4.255  10.330   8.101  0.7100 -0.8172 -0.0442
  302MOL0     H41623   4.077  10.365   8.250  1.8729  1.9260 -0.5358
  302MOL0     H41624   4.047  10.431   8.085 -0.2058 -1.8572 -2.1519
  302MOL0     H41625   3.888  10.187   8.339  0.2305 -0.1230 -0.3926
  302MOL0     H41626   3.721   9.948   8.287  2.7920  2.4792  1.0472
  302MOL0     H41627   3.594   9.985   8.183  3.9410 -2.3934 -1.2606
  302MOL0     H41628   3.493  10.039   8.363 -1.3645  2.1894 -1.1109
  302MOL0     H41629   3.636  10.053   8.466 -0.6482  0.8576  1.0718
  302MOL0     H41630   3.507  10.257   8.466  0.5602  2.1007  0.6110
  302MOL0     H41631   3.673  10.283   8.396  1.2729 -1.2622 -3.0863
  302MOL0     H41632   3.517  10.401   8.220  0.7240 -0.9578 -1.9785
  302MOL0     H41633   3.516  10.233   8.174  1.7395  1.0721  0.0519
  302MOL0     H41634   3.118  10.366   8.208  2.1460 -0.4518 -1.1664
  302MOL0     H41635   2.901  10.613   8.384  1.2939 -0.1540  1.1279
  302MOL0     H41636   2.894  10.468   8.300 -3.4544  2.3740 -0.2873
  302MOL0     H41637   2.918  10.625   8.206  2.0098  0.6293 -0.0819
  302MOL0     H41638   2.910  11.031   8.562 -0.6800  0.2268 -3.1809
  302MOL0     H41639   2.958  11.274   8.598  2.6367  0.4194  3.2516
  302MOL0     H41640   3.381  11.436   8.606  1.4284  1.1750 -1.2170
  302MOL0     H41641   3.339  11.407   8.438 -1.4943 -0.2051 -0.6655
  302MOL0     H41642   3.378  11.652   8.506  0.1595 -2.2727 -0.8319
  302MOL0     H41643   3.202  11.643   8.482 -0.3681  0.6470  0.8667
  302MOL0     H41644   3.342  11.626   8.749  0.2713  2.9773  0.2814
  302MOL0     H41645   3.174  11.593   8.739  0.0073  2.0762  2.1618
  302MOL0     H41646   3.139  11.830   8.653  0.4359  0.9612  0.9096
  302MOL0     H41647   3.311  11.866   8.680 -0.0183 -0.8745 -1.9387
  302MOL0     H41648   3.264  11.764   8.914 -2.9525  1.3024  3.1065
  302MOL0     H41649   3.241  11.934   8.881  1.0424  0.0859  1.4923
  302MOL0     H41650   3.013  11.721   8.867 -0.0377  1.4369 -1.3989
  302MOL0     H41651   2.995  11.898   8.870 -0.6353  0.0853  1.6363
  302MOL0     H41652   3.082  11.906   9.094  1.1784  0.6021 -0.5332
  302MOL0     H41653   3.120  11.727   9.092  3.7471  2.4227  0.2149
  302MOL0     H41654   2.837  11.825   9.035  0.7888 -0.2073 -1.9067
  302MOL0     H41655   2.902  11.849   9.194 -1.6657  0.6423 -1.3732
  302MOL0     H41656   3.368  11.215   8.548  1.1093 -3.9185  2.2304
  302MOL0     H41657   3.336  10.967   8.528 -1.7340 -2.4524 -2.9166
  302MOL0     H41658   3.339  10.682   8.504 -1.3332  0.2612 -1.5081
  302MOL0     H41659   3.461  10.475   8.443 -0.1484 -0.5461 -0.2874
  302MOL0     H41660   4.328  10.448   8.918  0.0916 -1.5088  0.5023
  302MOL0     H41661   4.119  10.476   9.009  1.0482 -0.2620  0.0772
  302MOL0     H41662   3.741  10.430   9.131 -1.3210  1.0338  2.1724
  302MOL0     H41663   3.559  10.420   9.275  1.0255 -0.2736  0.2311
  302MOL0     H41664   3.197  10.443   9.085  0.6513  1.4452  1.2642
  302MOL0     H41665   3.135  10.295   9.139  0.4928  0.5401 -2.0418
  302MOL0     H41666   3.020  10.467   9.222  0.4285 -0.0189 -0.8564
  302MOL0     H41667   3.159  10.559   9.280 -0.6982  0.5366  0.0131
  302MOL0     H41668   3.072  10.288   9.416  2.2758 -1.3230  2.2260
  302MOL0     H41669   3.220  10.383   9.448  0.0419  0.0191 -1.2290
  302MOL0     H41670   3.027  10.432   9.614 -0.9351 -1.9835 -0.8518
  302MOL0     H41671   2.932  10.484   9.477 -1.2683 -0.1861  3.7051
  302MOL0     H41672   3.174  10.823   9.558  1.1329 -0.1196  0.6506
  302MOL0     H41673   3.304  10.274   8.972 -1.7355  0.9375  3.5783
  302MOL0     H41674   3.585  10.172   8.759 -0.9410 -2.1254  1.4007
  302MOL0     H41675   3.413  10.165   8.774  0.5315 -1.6959 -0.4468
  302MOL0     H41676   3.495  10.315   8.708 -1.6035 -0.1536 -0.2019
  303MOL0     O41677   6.117   2.549   5.722 -0.8806  0.1694 -0.5899
  303MOL0     C41678   6.143   2.440   5.769 -1.0900 -0.1647 -0.0230
  303MOL0     O41679   6.267   2.379   5.772 -0.2939  0.7635 -0.0620
  303MOL0     C41680   6.390   2.437   5.741 -0.5074  0.0268 -0.5806
  303MOL0     C41681   6.425   2.560   5.673  1.1871  0.4241  0.4082
  303MOL0     C41682   6.558   2.601   5.655  0.3151  0.2182  0.7095
  303MOL0     C41683   6.656   2.520   5.713 -0.6018 -0.2221 -0.9866
  303MOL0     O41684   6.784   2.552   5.688 -0.0681 -0.1088 -0.7277
  303MOL0     C41685   6.840   2.673   5.746 -0.2193 -0.9316 -0.6418
  303MOL0     C41686   6.872   2.669   5.890  0.8012 -0.5142 -0.1666
  303MOL0     C41687   6.961   2.556   5.929  1.1458 -0.7990  0.4666
  303MOL0     C41688   6.966   2.566   6.087  0.1186  0.3258 -0.1428
  303MOL0     C41689   7.024   2.441   6.150  0.2276 -0.4556 -0.3538
  303MOL0     C41690   7.170   2.402   6.113  0.8048  0.3359 -0.1575
  303MOL0     C41691   7.217   2.272   6.176 -0.3947  0.2425 -0.5664
  303MOL0     C41692   7.219   2.277   6.333  0.1428  0.1957 -0.6594
  303MOL0     N41693   7.243   2.139   6.379 -0.6574 -0.8970  0.1603
  303MOL0     C41694   7.365   2.085   6.378  0.6840 -1.1348  0.8402
  303MOL0     C41695   7.348   1.968   6.450  0.1852 -0.5681 -0.8198
  303MOL0     C41696   7.459   1.882   6.515 -0.2070 -0.1385 -0.5473
  303MOL0     C41697   7.600   1.955   6.525  0.4064 -1.5150  0.0446
  303MOL0     C41698   7.703   1.867   6.605 -0.6681  0.1241  0.1011
  303MOL0     C41699   7.839   1.941   6.616 -0.4506 -0.1750 -0.4000
  303MOL0     O41700   7.832   2.070   6.680  0.1238 -0.1829 -0.1555
  303MOL0     C41701   7.901   2.076   6.802  1.3261  0.3971 -0.4988
  303MOL0     C41702   7.939   2.205   6.850 -0.3864 -0.2714  0.7109
  303MOL0     C41703   7.984   2.223   6.978 -1.3260  0.0684  0.5658
  303MOL0     C41704   8.030   2.362   7.004 -0.2885  0.1708  0.1714
  303MOL0     C41705   7.976   2.121   7.072 -0.8039  0.6320 -0.4784
  303MOL0     C41706   8.000   2.119   7.217  0.3097 -0.5362 -0.9311
  303MOL0     O41707   8.034   2.002   7.271  0.0640  0.8323  0.6532
  303MOL0     C41708   8.083   2.007   7.395 -1.0362 -0.8047  0.7010
  303MOL0     C41709   7.995   1.984   7.502  0.1157 -0.7871  0.6081
  303MOL0     C41710   8.041   1.973   7.630  0.4567 -1.0389 -0.3668
  303MOL0     C41711   8.174   1.983   7.658 -0.3962 -0.3922  0.3760
  303MOL0     O41712   8.218   1.985   7.791 -0.7180  0.0836  0.5185
  303MOL0     C41713   8.136   1.957   7.907  0.3149 -0.3179  1.3342
  303MOL0     C41714   8.064   2.092   7.941 -0.9677  0.0815  0.3290
  303MOL0     C41715   8.007   2.098   8.080  1.1034  0.6753 -0.2824
  303MOL0     C41716   7.922   2.225   8.106 -0.5505 -0.0546 -1.1535
  303MOL0     C41717   7.911   2.256   8.266  0.4036  0.1543  0.5400
  303MOL0     C41718   7.856   2.136   8.354  0.3578 -0.2512  0.4069
  303MOL0     C41719   7.855   2.175   8.504 -0.7423  0.9932 -0.1138
  303MOL0     C41720   7.896   2.047   8.594  0.4981 -1.1212  0.7933
  303MOL0    Cl41721   7.870   2.077   8.766  0.0023 -0.0011  0.0497
  303MOL0     C41722   8.273   2.003   7.553  0.6260 -0.0954 -0.2667
  303MOL0     C41723   8.224   2.007   7.414 -0.1944 -0.4774 -0.4515
  303MOL0     O41724   7.999   2.222   7.277  0.4093  0.2272 -0.5106
  303MOL0     C41725   7.945   1.990   7.026  0.2481  0.7410  0.3292
  303MOL0     C41726   7.889   1.971   6.898  0.5749  0.3549  0.3581
  303MOL0     N41727   7.214   1.954   6.490  1.2405  0.0063 -0.1023
  303MOL0     N41728   7.152   2.064   6.451 -0.1761 -0.6371 -0.8915
  303MOL0     C41729   6.613   2.405   5.785  0.1245  0.2822  0.2196
  303MOL0     C41730   6.488   2.355   5.796 -0.0180 -1.0378  0.3053
  303MOL0     C41731   6.025   2.359   5.799 -0.2624 -0.1614 -0.3432
  303MOL0     C41732   6.031   2.225   5.759 -0.2089  0.5204  0.1762
  303MOL0     C41733   5.934   2.138   5.794  0.2384 -0.5203  0.0509
  303MOL0     C41734   5.820   2.183   5.863  0.2972 -1.4692 -0.5508
  303MOL0     O41735   5.704   2.106   5.882 -0.3699  0.8526 -0.2644
  303MOL0     C41736   5.678   1.995   5.798 -0.2261 -0.3813  0.2674
  303MOL0     C41737   5.528   1.972   5.775  0.3614 -0.8226 -0.4989
  303MOL0     C41738   5.460   1.906   5.893 -0.3107 -0.7429 -0.4977
  303MOL0     C41739   5.402   2.002   5.990 -0.6236 -0.3684 -0.1689
  303MOL0     C41740   5.338   1.932   6.099  0.7810  1.0554  0.1044
  303MOL0     C41741   5.279   1.872   6.188 -0.7900  0.2666 -0.1016
  303MOL0     C41742   5.815   2.321   5.903 -0.2732  0.6385  0.0673
  303MOL0     C41743   5.919   2.412   5.873 -0.9764  0.2447  0.0699
  303MOL0     C41744   5.908   2.564   5.898  0.4978  0.0592  1.2054
  303MOL0     H41745   6.341   2.614   5.631 -0.8647 -1.5364  1.7687
  303MOL0     H41746   6.583   2.686   5.592  0.5856 -0.9189 -0.7569
  303MOL0     H41747   6.771   2.758   5.743  1.0431  0.2180  0.8550
  303MOL0     H41748   6.937   2.701   5.702  0.1727 -2.3589 -0.7310
  303MOL0     H41749   6.912   2.769   5.911 -3.0027  2.5732 -5.0746
  303MOL0     H41750   6.775   2.659   5.940 -0.1650 -1.2726 -2.0729
  303MOL0     H41751   6.911   2.459   5.913 -1.3413  0.4719  0.0440
  303MOL0     H41752   7.063   2.559   5.889  1.0621  2.6627  0.2925
  303MOL0     H41753   7.034   2.647   6.116  0.2290 -0.0361  0.6176
  303MOL0     H41754   6.869   2.591   6.130  1.0363  2.8529  0.6721
  303MOL0     H41755   6.952   2.366   6.116 -0.8284  1.3234 -2.3228
  303MOL0     H41756   7.010   2.430   6.258  1.3094 -1.4261 -0.2973
  303MOL0     H41757   7.171   2.403   6.003 -1.4570  3.5784 -0.2756
  303MOL0     H41758   7.244   2.477   6.141  0.8179 -0.0135  0.7806
  303MOL0     H41759   7.321   2.269   6.141  0.6889 -0.3999  2.3756
  303MOL0     H41760   7.157   2.185   6.148 -0.5953  0.1423  0.1409
  303MOL0     H41761   7.286   2.350   6.377  2.2751 -2.1967  0.3089
  303MOL0     H41762   7.120   2.307   6.369 -1.1501  1.0409 -4.4537
  303MOL0     H41763   7.448   2.136   6.330 -0.9143  0.4427 -0.3807
  303MOL0     H41764   7.465   1.781   6.474 -2.6510 -1.0184  1.0605
  303MOL0     H41765   7.427   1.862   6.617  1.9309 -3.0914 -0.3282
  303MOL0     H41766   7.633   1.970   6.422  0.2185 -1.8519 -0.0654
  303MOL0     H41767   7.595   2.057   6.566 -1.1145 -0.2844 -2.9173
  303MOL0     H41768   7.667   1.846   6.706 -0.6745  1.8980  0.5022
  303MOL0     H41769   7.731   1.771   6.560 -0.0720 -0.2106  1.1420
  303MOL0     H41770   7.912   1.880   6.671 -0.7090  0.6509  0.8945
  303MOL0     H41771   7.892   1.949   6.520  0.7590  0.7027  0.3076
  303MOL0     H41772   7.922   2.293   6.790 -1.1417 -0.4072  0.7163
  303MOL0     H41773   7.938   2.409   7.039 -2.9567 -4.6577  0.6084
  303MOL0     H41774   8.065   2.411   6.912 -2.3189  1.6741  0.1288
  303MOL0     H41775   8.107   2.354   7.081  2.0714  1.1430 -1.9342
  303MOL0     H41776   7.888   1.967   7.492  0.1581 -0.5613 -0.3112
  303MOL0     H41777   7.962   1.968   7.704  0.5615  3.3923  0.3521
  303MOL0     H41778   8.058   1.883   7.888 -0.8045  0.9907  0.7196
  303MOL0     H41779   8.200   1.916   7.986  0.1821  0.8340  2.0578
  303MOL0     H41780   8.130   2.180   7.939 -0.7468 -0.0870  0.0793
  303MOL0     H41781   7.987   2.105   7.865  0.0581 -2.9825 -1.4056
  303MOL0     H41782   8.082   2.103   8.159  2.7051  0.4154 -1.7246
  303MOL0     H41783   7.938   2.014   8.090 -2.0916  3.1383  0.0081
  303MOL0     H41784   7.828   2.213   8.051 -0.7164  1.5091 -1.2316
  303MOL0     H41785   7.975   2.312   8.068  0.5078 -0.6699 -1.1201
  303MOL0     H41786   8.004   2.298   8.305 -0.9569  3.9057  0.0835
  303MOL0     H41787   7.835   2.333   8.280 -0.2617 -0.0920 -1.3964
  303MOL0     H41788   7.918   2.047   8.339 -0.3522 -0.4996 -1.2668
  303MOL0     H41789   7.752   2.110   8.331  0.9354 -0.8180 -1.8750
  303MOL0     H41790   7.752   2.203   8.528  0.8709  6.1971  2.1442
  303MOL0     H41791   7.921   2.260   8.522 -1.3859  1.2764  0.9943
  303MOL0     H41792   8.002   2.034   8.572  0.8985  0.2791  1.7408
  303MOL0     H41793   7.842   1.956   8.569 -1.8404 -0.2271  2.2790
  303MOL0     H41794   8.375   2.005   7.590 -0.1667 -2.3443  2.4238
  303MOL0     H41795   8.291   2.030   7.332 -1.2320  2.6638 -0.5516
  303MOL0     H41796   7.927   1.903   7.087 -1.3103 -0.0868 -1.2423
  303MOL0     H41797   7.823   1.890   6.867 -0.2547  2.0163 -2.6858
  303MOL0     H41798   6.684   2.347   5.844 -1.7201 -0.0516  2.2521
  303MOL0     H41799   6.466   2.256   5.834 -0.8292 -0.5905  1.0678
  303MOL0     H41800   6.116   2.196   5.699 -0.2677 -0.2704  0.4724
  303MOL0     H41801   5.943   2.033   5.769 -0.6114 -0.5459 -0.1748
  303MOL0     H41802   5.724   2.007   5.700 -0.6588  0.5555  0.1694
  303MOL0     H41803   5.726   1.909   5.847  2.3367  0.4298 -0.6329
  303MOL0     H41804   5.519   1.906   5.689 -0.2014 -1.3811 -0.0207
  303MOL0     H41805   5.478   2.061   5.734 -0.6461 -0.9189  0.4626
  303MOL0     H41806   5.382   1.840   5.855  0.1232 -0.7201 -1.4487
  303MOL0     H41807   5.534   1.841   5.940 -2.3176 -1.9845  1.1259
  303MOL0     H41808   5.343   2.081   5.944  0.2753  1.6616  1.9895
  303MOL0     H41809   5.484   2.062   6.029 -1.2945  0.3036  0.2113
  303MOL0     H41810   5.242   1.821   6.275  0.5864  1.6658  1.3829
  303MOL0     H41811   5.727   2.353   5.957 -1.5380 -2.6105  0.1895
  303MOL0     H41812   6.003   2.619   5.895  2.4510 -3.0682  0.1516
  303MOL0     H41813   5.837   2.602   5.824  2.1264 -3.4926 -2.5935
  303MOL0     H41814   5.883   2.587   6.002  1.5252  0.1134  1.4577
  304MOL0     O41815   4.130   7.177   6.893 -0.2484  0.1651 -0.2033
  304MOL0     C41816   4.038   7.098   6.867 -0.7390  0.3469  0.1540
  304MOL0     O41817   4.007   6.979   6.934 -0.6047  0.5510 -0.0799
  304MOL0     C41818   4.059   6.953   7.055  0.6959 -0.5650  0.0223
  304MOL0     C41819   4.099   7.050   7.152 -0.3399  0.5836  0.3486
  304MOL0     C41820   4.167   7.021   7.273 -0.4322  0.3390  0.0212
  304MOL0     C41821   4.184   6.883   7.305  0.2308 -0.2259 -0.1549
  304MOL0     O41822   4.232   6.827   7.425 -0.1395 -0.5487  0.3187
  304MOL0     C41823   4.272   6.911   7.540  0.0490 -0.7961  1.0177
  304MOL0     C41824   4.403   6.980   7.509  0.1133 -0.5087  0.4011
  304MOL0     C41825   4.472   7.038   7.637 -0.5687 -0.3495 -0.2010
  304MOL0     C41826   4.529   6.934   7.735  0.4380  0.1773 -0.6054
  304MOL0     C41827   4.517   6.961   7.883 -0.1214 -0.0568  0.1117
  304MOL0     C41828   4.615   6.865   7.971 -0.2055 -0.2453  0.4133
  304MOL0     C41829   4.598   6.875   8.125  0.2077 -1.3057  0.8211
  304MOL0     C41830   4.467   6.810   8.167  0.4612  0.9341 -0.4943
  304MOL0     N41831   4.438   6.849   8.304 -0.5105  0.2126 -0.0586
  304MOL0     C41832   4.421   6.973   8.358 -0.2233 -0.9210  0.4309
  304MOL0     C41833   4.392   6.954   8.488 -0.5488 -0.2537  0.7426
  304MOL0     C41834   4.351   7.062   8.587 -0.3034 -0.2379 -0.6819
  304MOL0     C41835   4.198   7.099   8.583 -0.0921  0.0370  0.8536
  304MOL0     C41836   4.115   7.001   8.670 -0.8602  0.3882 -0.8392
  304MOL0     C41837   4.130   7.050   8.814  0.6622  1.8647  0.2754
  304MOL0     O41838   4.116   7.199   8.821  0.1678 -0.4954 -0.7106
  304MOL0     C41839   4.025   7.233   8.922  0.3872 -0.6482 -0.2919
  304MOL0     C41840   3.900   7.263   8.872  1.0865  0.2307 -0.0260
  304MOL0     C41841   3.792   7.301   8.956 -0.1684  0.2431  0.3445
  304MOL0     C41842   3.654   7.320   8.890 -0.9967  0.2435  0.9075
  304MOL0     C41843   3.817   7.325   9.096 -0.4508 -1.1534 -0.2173
  304MOL0     C41844   3.713   7.380   9.193  0.0167 -0.2584 -0.3865
  304MOL0     O41845   3.766   7.404   9.324  0.5001 -0.5398  0.4307
  304MOL0     C41846   3.678   7.457   9.415  0.2810  0.5096  0.2573
  304MOL0     C41847   3.680   7.597   9.440  0.8087  1.0317 -0.5812
  304MOL0     C41848   3.584   7.651   9.530 -0.0333 -0.5764 -0.0617
  304MOL0     C41849   3.500   7.576   9.607  0.3769 -0.1014 -0.6229
  304MOL0     O41850   3.410   7.633   9.687  0.3274  0.2239  0.4862
  304MOL0     C41851   3.470   7.682   9.804  0.3245 -0.1190  0.4938
  304MOL0     C41852   3.371   7.740   9.904 -0.7676 -0.6261 -0.1386
  304MOL0     C41853   3.433   7.827  10.013  0.2375  0.5402 -0.0977
  304MOL0     C41854   3.316   7.843  10.122  0.7479  1.4075 -0.9746
  304MOL0     C41855   3.344   7.956  10.230  0.4142  0.3450  1.0763
  304MOL0     C41856   3.475   7.940  10.312  0.5216  0.3042 -0.0966
  304MOL0     C41857   3.485   7.991  10.453  0.2386 -0.5136  0.5574
  304MOL0     C41858   3.615   7.950  10.513 -0.2263  0.3393  0.3705
  304MOL0    Cl41859   3.738   8.072  10.444  0.0881  0.4476  0.2449
  304MOL0     C41860   3.503   7.433   9.580 -0.3080  0.6511  0.2909
  304MOL0     C41861   3.591   7.373   9.489 -0.1396  0.2358  0.1025
  304MOL0     O41862   3.597   7.384   9.167  0.0836  0.2063 -0.4799
  304MOL0     C41863   3.949   7.307   9.136 -0.8031  0.8031 -1.3284
  304MOL0     C41864   4.053   7.260   9.058 -0.4257  0.6740  0.4234
  304MOL0     N41865   4.398   6.816   8.506  0.3371  0.6313  0.4115
  304MOL0     N41866   4.408   6.752   8.395  0.3054  1.0443 -0.3597
  304MOL0     C41867   4.149   6.784   7.213  0.5656  0.3972 -0.0521
  304MOL0     C41868   4.084   6.819   7.087 -0.8572  0.5718  0.1024
  304MOL0     C41869   3.963   7.095   6.739  0.1336 -0.1954 -0.6893
  304MOL0     C41870   3.907   6.974   6.696  0.0323 -0.7506 -0.3451
  304MOL0     C41871   3.821   6.970   6.584 -0.0525 -0.5341  0.4646
  304MOL0     C41872   3.805   7.091   6.511 -0.2737  0.4298 -0.2711
  304MOL0     O41873   3.751   7.098   6.383  0.3894  0.2427 -0.6803
  304MOL0     C41874   3.697   6.975   6.326 -0.3316  0.1261 -0.3024
  304MOL0     C41875   3.655   6.980   6.181 -0.4303 -0.1723 -0.1283
  304MOL0     C41876   3.554   7.095   6.143 -0.9732 -0.8934 -0.4781
  304MOL0     C41877   3.414   7.060   6.192 -0.4731  0.8581  0.3760
  304MOL0     C41878   3.340   6.977   6.097 -0.0885 -0.5341  0.5782
  304MOL0     C41879   3.271   6.919   6.019  0.0266 -0.1652 -0.4030
  304MOL0     C41880   3.855   7.208   6.556  0.2055  0.1244 -0.5773
  304MOL0     C41881   3.935   7.213   6.666  0.4246  0.2575  0.4450
  304MOL0     C41882   4.011   7.336   6.702  0.0446  0.1945 -0.6478
  304MOL0     H41883   4.082   7.156   7.139  0.2317  0.8972  1.9678
  304MOL0     H41884   4.193   7.093   7.350  0.3217  0.8734 -0.7082
  304MOL0     H41885   4.293   6.836   7.616 -1.0458 -3.4330 -1.1215
  304MOL0     H41886   4.199   6.981   7.581 -0.9581  0.2396 -2.2371
  304MOL0     H41887   4.463   6.898   7.468 -0.1234  0.1526 -1.3539
  304MOL0     H41888   4.394   7.062   7.438 -2.0306  1.6783  2.9460
  304MOL0     H41889   4.553   7.101   7.599  1.0569 -1.2487  1.5697
  304MOL0     H41890   4.399   7.109   7.678  1.8352  1.0853  1.8701
  304MOL0     H41891   4.465   6.846   7.724  0.0487  0.1860  1.2391
  304MOL0     H41892   4.628   6.898   7.704 -0.4797 -2.2261 -1.0028
  304MOL0     H41893   4.415   6.948   7.918 -0.4903  2.2704  0.0758
  304MOL0     H41894   4.540   7.067   7.902 -2.1723  0.5107 -0.3743
  304MOL0     H41895   4.623   6.764   7.929 -0.5459 -0.5949  1.1671
  304MOL0     H41896   4.714   6.905   7.948 -0.7246  1.5719  1.1715
  304MOL0     H41897   4.602   6.980   8.155 -0.1545 -1.6486  2.1176
  304MOL0     H41898   4.685   6.822   8.165  2.1426  1.7298  0.9196
  304MOL0     H41899   4.380   6.825   8.101  0.6972 -3.1953 -2.0125
  304MOL0     H41900   4.490   6.703   8.168 -2.3432  0.1285 -3.4867
  304MOL0     H41901   4.419   7.066   8.301  0.2982  0.6203  2.7882
  304MOL0     H41902   4.406   7.151   8.557  0.9745 -0.3714  1.0990
  304MOL0     H41903   4.384   7.037   8.688  1.6088  1.9833 -0.6659
  304MOL0     H41904   4.185   7.205   8.606  1.3469  0.6568 -0.9653
  304MOL0     H41905   4.157   7.092   8.482  0.1397 -0.9218  0.8132
  304MOL0     H41906   4.012   6.996   8.636 -0.3883  0.8534 -2.4374
  304MOL0     H41907   4.153   6.898   8.667 -2.8486 -0.3800 -0.9421
  304MOL0     H41908   4.052   7.007   8.876 -0.4822  1.3230 -1.4521
  304MOL0     H41909   4.225   7.026   8.861  0.0010  1.1948  1.3052
  304MOL0     H41910   3.874   7.244   8.769  2.1869 -1.9783  0.0279
  304MOL0     H41911   3.612   7.416   8.920  1.2980  1.3825  0.6269
  304MOL0     H41912   3.589   7.245   8.937  0.0229 -0.4437  1.2665
  304MOL0     H41913   3.644   7.310   8.782 -0.0354  1.6442  0.6703
  304MOL0     H41914   3.748   7.651   9.375  1.8810 -0.8542 -1.0950
  304MOL0     H41915   3.578   7.759   9.543  0.6728 -0.4077 -0.9938
  304MOL0     H41916   3.531   7.602   9.848 -2.4712 -2.2659  0.7675
  304MOL0     H41917   3.534   7.764   9.772 -0.8342 -0.1237 -2.0596
  304MOL0     H41918   3.318   7.810   9.840  1.1083 -0.2454 -1.3631
  304MOL0     H41919   3.316   7.664   9.959  1.3281 -0.7962  1.9090
  304MOL0     H41920   3.472   7.920   9.972  3.6399 -0.5720  0.3418
  304MOL0     H41921   3.523   7.783  10.057  1.0381  0.1055 -2.0399
  304MOL0     H41922   3.283   7.750  10.168 -1.5586  3.2658  1.5113
  304MOL0     H41923   3.234   7.882  10.062  1.5955 -0.3446 -3.4119
  304MOL0     H41924   3.345   8.051  10.175 -1.8593  0.2485  0.7664
  304MOL0     H41925   3.258   7.971  10.296 -1.1180 -0.2425 -0.6848
  304MOL0     H41926   3.549   7.989  10.248  1.6006  0.2667  1.0954
  304MOL0     H41927   3.512   7.837  10.314  1.5860  0.6697 -0.4862
  304MOL0     H41928   3.405   7.949  10.514 -0.2082 -2.0633 -1.0002
  304MOL0     H41929   3.489   8.100  10.459 -0.3470 -0.5106  0.9772
  304MOL0     H41930   3.643   7.848  10.484 -1.8603 -0.3936  1.2522
  304MOL0     H41931   3.613   7.950  10.622 -1.9319  2.0221  0.3885
  304MOL0     H41932   3.451   7.364   9.646 -0.0472  0.9345  0.7935
  304MOL0     H41933   3.589   7.266   9.472 -1.2708  0.1589  0.6018
  304MOL0     H41934   3.980   7.319   9.239 -0.0243 -1.5438 -1.2185
  304MOL0     H41935   4.149   7.228   9.097 -0.7049  1.7821  2.1730
  304MOL0     H41936   4.146   6.684   7.254 -0.0001  0.0812 -0.8409
  304MOL0     H41937   4.054   6.744   7.014  1.7556 -1.1830  0.7263
  304MOL0     H41938   3.931   6.874   6.731 -1.1022 -0.9515 -0.1163
  304MOL0     H41939   3.792   6.869   6.559 -1.5849  0.1258 -0.5399
  304MOL0     H41940   3.780   6.904   6.322  0.8034  1.4462 -1.2192
  304MOL0     H41941   3.613   6.939   6.386  1.2694 -2.8465  0.3245
  304MOL0     H41942   3.616   6.882   6.153  0.5754 -0.2340 -1.4171
  304MOL0     H41943   3.742   6.993   6.115 -2.4559  2.6196 -2.5372
  304MOL0     H41944   3.599   7.188   6.180 -2.0816 -0.4832 -0.1485
  304MOL0     H41945   3.544   7.098   6.034 -2.2294  2.0307 -0.3624
  304MOL0     H41946   3.363   7.155   6.210 -0.7964  0.4815  1.5014
  304MOL0     H41947   3.414   7.008   6.288 -0.2926 -1.8845 -1.0106
  304MOL0     H41948   3.210   6.878   5.943 -1.3190 -0.9854  1.0658
  304MOL0     H41949   3.837   7.292   6.490 -1.1126 -0.3873 -0.8935
  304MOL0     H41950   3.986   7.415   6.630  1.0712 -0.1201 -1.3834
  304MOL0     H41951   3.983   7.373   6.801  0.0793  0.9130 -0.8986
  304MOL0     H41952   4.116   7.313   6.681 -0.6881 -1.2548 -3.3076
  305MOL0     O41953   3.696   7.536   7.099  0.4436 -0.0555 -0.1068
  305MOL0     C41954   3.741   7.594   7.000 -0.0242  0.3859 -0.4757
  305MOL0     O41955   3.830   7.702   7.006  0.8308 -0.0677  0.2701
  305MOL0     C41956   3.902   7.728   7.122  0.7824 -0.0662 -0.2651
  305MOL0     C41957   3.867   7.832   7.222  0.2960  0.5184  0.8934
  305MOL0     C41958   3.943   7.865   7.335 -0.0569 -0.0954  0.3959
  305MOL0     C41959   4.061   7.804   7.350 -1.0591 -0.0929  0.2790
  305MOL0     O41960   4.158   7.839   7.449  0.0598 -0.2282 -0.0842
  305MOL0     C41961   4.125   7.939   7.547 -0.6927 -0.2877 -0.0124
  305MOL0     C41962   4.240   7.956   7.638  1.2125 -0.6503  0.1823
  305MOL0     C41963   4.223   8.072   7.738  0.5515 -0.1652  0.8505
  305MOL0     C41964   4.230   8.212   7.677 -0.2304 -0.0947  0.2343
  305MOL0     C41965   4.236   8.314   7.784 -0.3254 -0.1861 -0.4373
  305MOL0     C41966   4.192   8.453   7.731 -0.5759 -0.5304 -0.3960
  305MOL0     C41967   4.209   8.563   7.832  0.0728  0.2247 -0.8990
  305MOL0     C41968   4.102   8.564   7.941  0.7568 -0.3380 -0.4067
  305MOL0     N41969   3.971   8.595   7.895 -0.8141 -0.0097  0.0400
  305MOL0     C41970   3.946   8.661   7.783 -0.1318 -0.4684  0.3333
  305MOL0     C41971   3.813   8.648   7.767 -0.3112 -0.2566  0.6549
  305MOL0     C41972   3.724   8.718   7.670  1.0936 -0.4492  0.0259
  305MOL0     C41973   3.680   8.856   7.711  0.6569  0.2858 -0.0379
  305MOL0     C41974   3.602   8.936   7.615  1.0616  0.1987  1.0483
  305MOL0     C41975   3.535   9.075   7.667 -0.5066  1.4316 -0.1773
  305MOL0     O41976   3.491   9.156   7.560 -0.3129 -0.4122 -0.0749
  305MOL0     C41977   3.571   9.232   7.481 -0.4407 -0.0384 -0.1927
  305MOL0     C41978   3.681   9.293   7.527 -0.1123 -0.2051  0.1885
  305MOL0     C41979   3.745   9.386   7.447  0.2338 -0.6862 -0.3072
  305MOL0     C41980   3.858   9.461   7.521  0.1080 -0.0469 -0.0706
  305MOL0     C41981   3.694   9.420   7.319  0.4271 -0.9629  0.4038
  305MOL0     C41982   3.754   9.523   7.231  1.2513 -0.0735  0.6799
  305MOL0     O41983   3.659   9.603   7.166  0.3989 -0.4431  0.2521
  305MOL0     C41984   3.702   9.696   7.074 -0.1795  0.5364 -0.3130
  305MOL0     C41985   3.664   9.828   7.082 -0.4057  0.7845  0.0236
  305MOL0     C41986   3.687   9.909   6.970  0.2948  0.6129 -0.3153
  305MOL0     C41987   3.758   9.862   6.855  0.7677  0.5580  0.9286
  305MOL0     O41988   3.779   9.959   6.768 -0.1162  0.4971  0.7169
  305MOL0     C41989   3.869   9.930   6.664 -0.5555  0.7606 -1.0614
  305MOL0     C41990   3.951  10.058   6.623  0.6165 -1.1331 -0.2142
  305MOL0     C41991   3.874  10.163   6.546 -0.8590 -0.0369 -0.9183
  305MOL0     C41992   3.958  10.291   6.528  0.0672  0.2425  0.1660
  305MOL0     C41993   3.918  10.387   6.419  0.6070  0.8132 -0.6121
  305MOL0     C41994   3.783  10.455   6.452 -0.6720  0.7558  1.4738
  305MOL0     C41995   3.734  10.557   6.344  0.3916 -0.1142  0.1929
  305MOL0     C41996   3.834  10.672   6.335 -0.4681 -0.0231  0.3336
  305MOL0    Cl41997   3.854  10.763   6.490 -0.1016  0.5958  0.5879
  305MOL0     C41998   3.806   9.730   6.852 -0.0151  1.6044 -0.6299
  305MOL0     C41999   3.759   9.648   6.957  0.4586 -1.2198 -0.3458
  305MOL0     O42000   3.875   9.529   7.215  0.0201 -0.1394  0.3595
  305MOL0     C42001   3.586   9.350   7.275 -0.4339  0.3171  0.2433
  305MOL0     C42002   3.525   9.260   7.353 -0.2821  0.4784 -0.0875
  305MOL0     N42003   3.764   8.563   7.855 -0.1495  0.1618 -0.3367
  305MOL0     N42004   3.860   8.522   7.938  0.8542 -0.1727  0.3035
  305MOL0     C42005   4.100   7.707   7.257  0.4716 -0.6979  0.5257
  305MOL0     C42006   4.023   7.664   7.147 -0.4237 -2.0107  0.2923
  305MOL0     C42007   3.694   7.549   6.861 -0.3297  0.0716 -0.2766
  305MOL0     C42008   3.668   7.647   6.760 -0.8594 -0.2430 -0.2440
  305MOL0     C42009   3.623   7.613   6.633 -0.0994 -0.2112  0.0033
  305MOL0     C42010   3.592   7.475   6.619  0.3277  0.2039 -0.3518
  305MOL0     O42011   3.530   7.431   6.501  0.1820  0.5434  0.5451
  305MOL0     C42012   3.396   7.486   6.464 -0.1815 -0.5956 -0.4233
  305MOL0     C42013   3.392   7.546   6.316 -0.3713 -0.0282  0.3104
  305MOL0     C42014   3.363   7.433   6.212 -0.1275 -0.7753 -1.0209
  305MOL0     C42015   3.365   7.514   6.073  0.3898  0.7354 -0.2304
  305MOL0     C42016   3.356   7.408   5.974  0.3739 -1.0070  0.8082
  305MOL0     C42017   3.348   7.310   5.910 -0.2189  0.3290 -0.0548
  305MOL0     C42018   3.611   7.379   6.724 -0.1788 -0.8700  0.1283
  305MOL0     C42019   3.675   7.413   6.842  0.5841  0.2822  0.3178
  305MOL0     C42020   3.664   7.302   6.942  0.6307 -0.7946 -0.1586
  305MOL0     H42021   3.771   7.879   7.203 -0.6031 -1.5716 -0.0173
  305MOL0     H42022   3.911   7.940   7.407 -1.0487 -1.4208  1.3897
  305MOL0     H42023   4.041   7.902   7.607 -0.8637  2.9107  1.9193
  305MOL0     H42024   4.095   8.033   7.500 -3.2577 -1.4129 -0.7870
  305MOL0     H42025   4.251   7.865   7.698 -2.4316 -0.8582  0.7745
  305MOL0     H42026   4.331   7.982   7.584  1.0058 -0.5776 -0.1266
  305MOL0     H42027   4.124   8.056   7.781 -0.6117 -0.9713 -1.9271
  305MOL0     H42028   4.303   8.064   7.812  1.0117  2.1737  0.6634
  305MOL0     H42029   4.319   8.223   7.615 -0.0363  1.0474  0.6743
  305MOL0     H42030   4.148   8.221   7.605 -1.5738 -0.3309  1.6877
  305MOL0     H42031   4.335   8.323   7.829  0.4149 -1.3750 -1.7621
  305MOL0     H42032   4.168   8.285   7.864 -1.2108 -0.2266 -1.1940
  305MOL0     H42033   4.256   8.469   7.645  0.1427  1.0292  0.3910
  305MOL0     H42034   4.088   8.455   7.696 -1.0925 -2.1352  0.9029
  305MOL0     H42035   4.204   8.666   7.794 -0.2472  0.4114 -0.3646
  305MOL0     H42036   4.309   8.557   7.876 -0.8211  2.2232  1.6257
  305MOL0     H42037   4.086   8.469   7.994 -3.9199  1.0768  1.2246
  305MOL0     H42038   4.122   8.641   8.016  2.7111  1.1780 -2.3426
  305MOL0     H42039   4.021   8.714   7.725  0.1930 -0.4011  0.8119
  305MOL0     H42040   3.637   8.654   7.652  0.3647  0.8398 -1.1557
  305MOL0     H42041   3.766   8.728   7.570 -1.0406  0.7389 -0.8266
  305MOL0     H42042   3.625   8.856   7.805  0.5296  0.1859 -0.1113
  305MOL0     H42043   3.763   8.923   7.733 -0.4146  0.7180  3.0946
  305MOL0     H42044   3.653   8.963   7.522 -2.4084 -2.4022 -1.9030
  305MOL0     H42045   3.521   8.876   7.574  0.6767  3.0378 -2.9544
  305MOL0     H42046   3.450   9.052   7.732  1.3668  0.5003  2.1403
  305MOL0     H42047   3.615   9.115   7.731 -0.3851  1.2327 -0.2027
  305MOL0     H42048   3.718   9.257   7.622  0.2565 -2.7440 -0.8315
  305MOL0     H42049   3.811   9.559   7.531 -0.7184 -0.4504  0.0917
  305MOL0     H42050   3.950   9.462   7.462  0.8995  1.9232  1.1164
  305MOL0     H42051   3.890   9.419   7.617 -1.1910 -0.1538  0.3340
  305MOL0     H42052   3.620   9.865   7.174 -1.2075  0.2199 -0.1269
  305MOL0     H42053   3.652  10.012   6.967 -1.2527  0.0898 -1.5332
  305MOL0     H42054   3.953   9.869   6.699  2.1817  2.5031 -4.0010
  305MOL0     H42055   3.817   9.889   6.577  1.6860 -1.5589 -1.4537
  305MOL0     H42056   3.995  10.097   6.715  0.2855 -0.4005 -0.3593
  305MOL0     H42057   4.021  10.008   6.557 -0.5460 -4.6217  0.9615
  305MOL0     H42058   3.784  10.181   6.605 -0.3524  0.5519 -0.3150
  305MOL0     H42059   3.848  10.124   6.447 -0.8148  2.7158 -2.1141
  305MOL0     H42060   4.060  10.260   6.504  0.3792  0.2186  1.4435
  305MOL0     H42061   3.974  10.349   6.619 -0.0723  1.0879 -0.3407
  305MOL0     H42062   3.997  10.462   6.407  3.2895 -1.9379 -1.3619
  305MOL0     H42063   3.904  10.323   6.331  2.1359 -0.4121 -0.0137
  305MOL0     H42064   3.785  10.505   6.549 -3.0369 -1.1749  2.6287
  305MOL0     H42065   3.706  10.378   6.465 -0.1093 -0.6032 -2.0813
  305MOL0     H42066   3.634  10.579   6.380 -0.9373 -4.1050 -0.5356
  305MOL0     H42067   3.732  10.514   6.244  0.2587 -3.0692  1.3519
  305MOL0     H42068   3.809  10.748   6.260 -0.4272 -1.5781 -1.3414
  305MOL0     H42069   3.934  10.638   6.306 -0.5610  0.5995 -0.8041
  305MOL0     H42070   3.871   9.698   6.771 -1.2445  1.8036 -1.7284
  305MOL0     H42071   3.786   9.543   6.961 -2.1751 -1.9461 -0.3322
  305MOL0     H42072   3.540   9.368   7.178 -0.1728 -2.2045 -0.4266
  305MOL0     H42073   3.425   9.230   7.323 -0.9976  3.6961 -1.3073
  305MOL0     H42074   4.197   7.661   7.277  1.5765  2.3016  3.0477
  305MOL0     H42075   4.052   7.587   7.076 -0.9333 -0.8509 -1.2212
  305MOL0     H42076   3.709   7.748   6.763 -0.6346 -0.3098 -0.7972
  305MOL0     H42077   3.609   7.678   6.547 -4.0123  0.1389  0.6814
  305MOL0     H42078   3.320   7.409   6.478 -0.3167 -0.3114  0.5011
  305MOL0     H42079   3.365   7.558   6.540  1.7496  1.2284 -1.2364
  305MOL0     H42080   3.494   7.572   6.289 -0.7521 -0.1918 -1.4021
  305MOL0     H42081   3.329   7.634   6.301 -0.7674 -0.4957 -0.8645
  305MOL0     H42082   3.453   7.372   6.225  0.7498  0.9521  1.8477
  305MOL0     H42083   3.271   7.379   6.237  0.4662 -0.6622  1.8206
  305MOL0     H42084   3.457   7.570   6.056  1.9058 -1.4108  0.3956
  305MOL0     H42085   3.269   7.567   6.068 -1.9510 -3.1424 -0.7751
  305MOL0     H42086   3.342   7.232   5.837 -0.7243 -0.4590  0.8075
  305MOL0     H42087   3.586   7.277   6.697 -1.7485 -0.2301 -0.9960
  305MOL0     H42088   3.742   7.303   7.019 -2.2234 -4.2382  3.1875
  305MOL0     H42089   3.574   7.324   7.000  1.4458 -0.3514  0.9590
  305MOL0     H42090   3.667   7.203   6.894  3.7090  0.3938 -2.7705
  306MOL0     O42091   6.100   3.297  11.410  0.2715 -0.2682 -0.4476
  306MOL0     C42092   5.998   3.245  11.394 -0.6659  0.2683  0.2729
  306MOL0     O42093   5.955   3.210  11.275 -0.8828 -0.0368  0.6998
  306MOL0     C42094   5.990   3.269  11.159 -0.2226 -0.5324 -0.1513
  306MOL0     C42095   5.962   3.208  11.031  0.1468  0.4221 -0.1132
  306MOL0     C42096   6.007   3.268  10.915 -0.2456 -1.4530  1.2263
  306MOL0     C42097   6.077   3.391  10.918 -0.0090 -0.4048  0.4443
  306MOL0     O42098   6.100   3.433  10.783  0.3083  0.2662  0.3128
  306MOL0     C42099   6.229   3.486  10.759  0.2232  0.2204 -0.8727
  306MOL0     C42100   6.233   3.597  10.654  1.1078 -0.3084  0.0620
  306MOL0     C42101   6.152   3.553  10.533 -0.2200 -0.8253  0.5231
  306MOL0     C42102   6.155   3.662  10.420 -0.3635 -0.5765  0.4776
  306MOL0     C42103   6.291   3.698  10.352 -0.1129  0.5493 -0.1090
  306MOL0     C42104   6.350   3.576  10.273 -0.6548 -0.6991  0.4330
  306MOL0     C42105   6.464   3.639  10.180 -0.1941 -0.5593  0.1933
  306MOL0     C42106   6.547   3.520  10.126  0.1912  1.0029  0.4891
  306MOL0     N42107   6.663   3.543  10.038  0.4394  0.3396 -0.1498
  306MOL0     C42108   6.768   3.631  10.050  0.7509  0.0307 -0.7610
  306MOL0     C42109   6.817   3.656   9.920 -0.2304  0.9854  0.0335
  306MOL0     C42110   6.928   3.757   9.902 -0.6753  0.4935  0.1954
  306MOL0     C42111   7.026   3.697   9.806 -0.0185  0.2218 -0.8755
  306MOL0     C42112   7.147   3.790   9.762  0.0981  0.0560 -0.6615
  306MOL0     C42113   7.141   3.830   9.615 -0.5356  0.5022 -0.5966
  306MOL0     O42114   7.265   3.885   9.572  0.2688 -0.5091  0.6850
  306MOL0     C42115   7.273   3.929   9.441 -1.1463  0.1771 -0.1431
  306MOL0     C42116   7.150   3.943   9.366 -0.5849 -0.5974  0.0433
  306MOL0     C42117   7.151   4.025   9.245  0.3392 -0.7980  0.1666
  306MOL0     C42118   7.021   4.045   9.167 -0.1451  0.1833  0.0906
  306MOL0     C42119   7.273   4.078   9.202 -0.1580  0.7781 -0.3106
  306MOL0     C42120   7.292   4.162   9.093  0.6549 -0.6359  0.4798
  306MOL0     O42121   7.316   4.102   8.975  0.2400 -0.2070  0.0052
  306MOL0     C42122   7.320   4.185   8.865 -0.4571 -0.3125  0.2156
  306MOL0     C42123   7.441   4.213   8.802  0.0527  0.0602  0.1948
  306MOL0     C42124   7.445   4.302   8.694 -0.0074 -0.2210 -0.4211
  306MOL0     C42125   7.330   4.383   8.672  0.0041 -0.4458  0.6437
  306MOL0     O42126   7.329   4.480   8.569 -0.1196  0.3360 -0.2479
  306MOL0     C42127   7.362   4.614   8.618  0.0528  0.9501 -0.1986
  306MOL0     C42128   7.505   4.650   8.573 -0.5557  0.2185  0.1682
  306MOL0     C42129   7.533   4.803   8.553 -0.5282  0.0963  0.0717
  306MOL0     C42130   7.684   4.818   8.495  0.4048  0.2721  0.0660
  306MOL0     C42131   7.731   4.963   8.492  0.4221  0.3572  0.4669
  306MOL0     C42132   7.632   5.048   8.411 -0.0178 -0.1615 -0.2919
  306MOL0     C42133   7.708   5.185   8.394  0.9784 -0.1073  0.8893
  306MOL0     C42134   7.617   5.278   8.320  0.4485  0.8183 -0.0843
  306MOL0    Cl42135   7.563   5.229   8.154  0.4517 -0.2881 -0.2916
  306MOL0     C42136   7.205   4.346   8.729 -0.0667 -0.2477  0.4888
  306MOL0     C42137   7.198   4.246   8.820 -0.1694 -0.0564 -0.0605
  306MOL0     O42138   7.291   4.283   9.112  0.2285 -0.3293 -0.7918
  306MOL0     C42139   7.396   4.050   9.275 -0.5262  0.3185 -0.4054
  306MOL0     C42140   7.393   3.983   9.396  0.3909 -0.0548 -0.3282
  306MOL0     N42141   6.722   3.595   9.840  0.3824 -0.0536  0.4493
  306MOL0     N42142   6.641   3.529   9.915  0.0901  0.2975  0.1350
  306MOL0     C42143   6.100   3.454  11.036  0.1084 -0.1230 -0.0833
  306MOL0     C42144   6.051   3.395  11.150  0.1971  0.6059  0.2106
  306MOL0     C42145   5.920   3.217  11.519 -0.2418  0.2350 -0.4270
  306MOL0     C42146   5.796   3.167  11.507 -0.0817  0.2006  0.2173
  306MOL0     C42147   5.714   3.145  11.616 -0.7662  1.3577  0.2279
  306MOL0     C42148   5.763   3.140  11.747 -0.6042  0.1904 -0.4285
  306MOL0     O42149   5.686   3.118  11.856  0.2906 -0.2047 -0.3181
  306MOL0     C42150   5.630   2.991  11.850  0.2825 -0.9182  0.2571
  306MOL0     C42151   5.530   2.967  11.965  0.8681 -0.5501  0.0465
  306MOL0     C42152   5.590   2.984  12.108 -0.1995 -0.0259  0.2905
  306MOL0     C42153   5.530   2.895  12.208  0.5085 -0.0159 -0.0281
  306MOL0     C42154   5.586   2.896  12.343 -0.2790  0.7294 -0.5819
  306MOL0     C42155   5.639   2.917  12.446 -0.3285 -0.3193  0.1187
  306MOL0     C42156   5.895   3.184  11.764  0.1969  0.7701  0.3359
  306MOL0     C42157   5.971   3.228  11.651  0.5133  1.3253  0.1957
  306MOL0     C42158   6.106   3.280  11.687  0.0439 -0.1193  0.1711
  306MOL0     H42159   5.906   3.118  11.007 -0.3193  0.8967 -0.8499
  306MOL0     H42160   5.983   3.218  10.822 -1.6098 -1.1045  1.3690
  306MOL0     H42161   6.294   3.406  10.722 -1.2784 -0.7648 -1.4915
  306MOL0     H42162   6.266   3.521  10.856  1.1455 -0.9460 -0.7696
  306MOL0     H42163   6.185   3.684  10.698 -0.2566  0.1973 -2.2787
  306MOL0     H42164   6.332   3.637  10.629  0.5989  1.2475  0.4402
  306MOL0     H42165   6.201   3.463  10.495  2.6963  0.2821  1.3543
  306MOL0     H42166   6.046   3.544  10.558 -0.5326  0.0424 -0.4241
  306MOL0     H42167   6.092   3.628  10.337 -2.1948 -1.4943  2.1826
  306MOL0     H42168   6.109   3.755  10.455 -0.4936 -0.6131  0.4070
  306MOL0     H42169   6.354   3.748  10.425  2.6099  0.2507 -2.0812
  306MOL0     H42170   6.259   3.768  10.274  0.6979 -0.3641 -1.3103
  306MOL0     H42171   6.391   3.501  10.341  4.0730  3.7108  3.2055
  306MOL0     H42172   6.273   3.539  10.205 -0.3895  0.4308 -0.5154
  306MOL0     H42173   6.528   3.709  10.234 -0.6043 -0.0597  0.0338
  306MOL0     H42174   6.429   3.679  10.084  1.5347 -1.3504 -0.8232
  306MOL0     H42175   6.596   3.466  10.208  0.7665  0.3182 -0.2795
  306MOL0     H42176   6.484   3.445  10.078  0.5004  1.2742 -0.3811
  306MOL0     H42177   6.800   3.667  10.148 -1.8019 -1.8310  0.8915
  306MOL0     H42178   6.960   3.774  10.005 -1.6879 -1.7240  0.9486
  306MOL0     H42179   6.892   3.855   9.871  0.6082  2.1225  3.3680
  306MOL0     H42180   7.065   3.610   9.860  0.6218  1.1367  0.1864
  306MOL0     H42181   6.966   3.664   9.721 -0.5983  1.3770 -0.9267
  306MOL0     H42182   7.159   3.882   9.819  1.0275 -0.2070 -0.4139
  306MOL0     H42183   7.241   3.735   9.775  0.9600  2.1132  3.0812
  306MOL0     H42184   7.111   3.748   9.549  2.3069 -1.7864  0.7213
  306MOL0     H42185   7.066   3.910   9.613  0.5289  1.5645  0.2730
  306MOL0     H42186   7.057   3.895   9.395  0.2698 -1.1960  1.9552
  306MOL0     H42187   7.042   4.090   9.069  0.9186 -2.3037 -0.9062
  306MOL0     H42188   6.960   4.115   9.224  1.4215  0.0055  2.1134
  306MOL0     H42189   6.969   3.953   9.139  1.8760 -0.1695 -3.0901
  306MOL0     H42190   7.527   4.162   8.842  1.5642  2.9236  0.8639
  306MOL0     H42191   7.541   4.329   8.652  0.4259 -0.6579  0.2602
  306MOL0     H42192   7.289   4.690   8.592  0.9227  0.9145 -3.0296
  306MOL0     H42193   7.372   4.614   8.727  2.7660  2.6104 -0.3472
  306MOL0     H42194   7.583   4.616   8.642  2.3973  2.8559 -1.5645
  306MOL0     H42195   7.517   4.593   8.481  1.7767  0.7568  0.0582
  306MOL0     H42196   7.523   4.861   8.646 -2.3916 -1.2811  0.7845
  306MOL0     H42197   7.471   4.849   8.475 -1.8956  0.9687  1.6176
  306MOL0     H42198   7.681   4.778   8.393 -1.4345  0.6249 -0.0637
  306MOL0     H42199   7.757   4.765   8.557 -0.5311 -0.6710  0.3982
  306MOL0     H42200   7.734   5.014   8.589  2.0959  1.2554 -0.0146
  306MOL0     H42201   7.832   4.965   8.450 -1.0801  0.2296 -3.4750
  306MOL0     H42202   7.542   5.059   8.471  1.2792 -1.3509  1.9730
  306MOL0     H42203   7.609   4.999   8.316  1.5660 -2.4906  0.4619
  306MOL0     H42204   7.801   5.172   8.338 -1.1770 -1.9126 -2.6376
  306MOL0     H42205   7.729   5.229   8.492  0.7924 -0.6685  1.1849
  306MOL0     H42206   7.673   5.371   8.301  0.0159  1.6332  2.3111
  306MOL0     H42207   7.532   5.304   8.383  0.9630  0.7842  0.6287
  306MOL0     H42208   7.117   4.398   8.692  0.4672  0.6518  0.4550
  306MOL0     H42209   7.101   4.228   8.866 -1.5865  2.9120 -1.6477
  306MOL0     H42210   7.487   4.089   9.229  0.1075 -1.7529 -0.9873
  306MOL0     H42211   7.481   3.969   9.458 -2.1006 -2.2023  3.0740
  306MOL0     H42212   6.164   3.541  11.043 -0.9701  0.8099 -1.4775
  306MOL0     H42213   6.070   3.456  11.237 -1.1298 -0.7268  1.5073
  306MOL0     H42214   5.766   3.154  11.404  2.0234  2.3481 -0.7493
  306MOL0     H42215   5.609   3.127  11.593 -1.0385 -0.5316  2.5547
  306MOL0     H42216   5.565   2.991  11.762 -2.7639 -0.0056  2.3419
  306MOL0     H42217   5.705   2.914  11.831 -0.3950 -1.0004 -2.4651
  306MOL0     H42218   5.493   2.867  11.940 -2.9648  1.3016 -2.6598
  306MOL0     H42219   5.446   3.036  11.952  1.3883  0.2094  0.6199
  306MOL0     H42220   5.697   2.970  12.093 -0.0825  2.5734 -2.2328
  306MOL0     H42221   5.581   3.090  12.134 -0.5873  0.2668 -0.9279
  306MOL0     H42222   5.525   2.799  12.156  0.9558  0.9731 -2.0134
  306MOL0     H42223   5.428   2.931  12.223 -0.1681 -2.6531  2.8041
  306MOL0     H42224   5.692   2.943  12.536 -0.6565 -0.5352  0.3786
  306MOL0     H42225   5.921   3.202  11.868  1.2890  0.5035  0.1222
  306MOL0     H42226   6.120   3.297  11.794  1.5250  3.1707 -0.4123
  306MOL0     H42227   6.187   3.212  11.660  1.3895  1.5072 -0.0694
  306MOL0     H42228   6.127   3.376  11.638 -3.3243  0.1218 -1.0554
  307MOL0     O42229   1.094   6.732   7.419 -0.2863  0.0253  0.4571
  307MOL0     C42230   1.101   6.853   7.389  0.3249  0.3906 -0.5705
  307MOL0     O42231   1.062   6.946   7.481 -0.0900  0.1981  0.5223
  307MOL0     C42232   1.000   6.912   7.600 -1.6781  0.9434 -0.1746
  307MOL0     C42233   1.041   6.981   7.712 -0.0742 -0.0564  0.0934
  307MOL0     C42234   0.973   6.958   7.833 -0.1298  0.3296  0.6361
  307MOL0     C42235   0.872   6.858   7.843 -0.3777  0.6142  1.2813
  307MOL0     O42236   0.821   6.844   7.967  0.4734 -0.2993 -1.0090
  307MOL0     C42237   0.757   6.722   8.001 -0.3958 -0.0929 -0.6494
  307MOL0     C42238   0.753   6.711   8.158 -1.0493  0.8442 -0.6201
  307MOL0     C42239   0.887   6.671   8.219 -0.4623 -0.3177  0.6393
  307MOL0     C42240   0.897   6.688   8.375 -0.6737  0.5427 -0.1017
  307MOL0     C42241   1.033   6.637   8.428 -0.7094 -0.3653  0.5533
  307MOL0     C42242   1.070   6.717   8.546  0.5728 -0.3080 -1.4146
  307MOL0     C42243   1.214   6.672   8.600  0.2292 -0.8177  0.1662
  307MOL0     C42244   1.317   6.769   8.544  0.3696  0.0504 -0.1496
  307MOL0     N42245   1.443   6.692   8.547 -0.1540  0.7546  0.3065
  307MOL0     C42246   1.536   6.692   8.650  0.3600  0.5958  0.5577
  307MOL0     C42247   1.640   6.624   8.599  0.2793 -0.5071 -0.6605
  307MOL0     C42248   1.791   6.605   8.658  0.8807  0.0800 -0.0311
  307MOL0     C42249   1.893   6.683   8.566  0.2575 -0.7126 -0.5213
  307MOL0     C42250   2.034   6.664   8.607 -0.6683 -0.8472 -0.7722
  307MOL0     C42251   2.083   6.703   8.748  0.1381 -0.1621 -1.3305
  307MOL0     O42252   2.215   6.724   8.735 -0.0445 -0.1908 -0.8677
  307MOL0     C42253   2.268   6.855   8.748 -0.4852  0.4492  0.4945
  307MOL0     C42254   2.189   6.968   8.727  0.4615 -0.1687  0.6698
  307MOL0     C42255   2.243   7.093   8.734  0.2425  0.3075  1.6958
  307MOL0     C42256   2.155   7.219   8.707  0.9348 -0.6290 -0.5112
  307MOL0     C42257   2.377   7.107   8.767 -0.4172 -0.1827  0.5365
  307MOL0     C42258   2.456   7.241   8.767  0.2333  0.7634 -1.3112
  307MOL0     O42259   2.593   7.222   8.765 -0.1101  0.5788  0.5866
  307MOL0     C42260   2.664   7.320   8.704  0.0074  0.0881 -0.0289
  307MOL0     C42261   2.772   7.388   8.759  0.3994  0.0503 -0.3044
  307MOL0     C42262   2.862   7.467   8.676  0.2488 -0.4686 -0.5505
  307MOL0     C42263   2.824   7.485   8.534  0.8115 -0.0110 -0.2995
  307MOL0     O42264   2.906   7.560   8.466 -0.0147  0.0130  0.4188
  307MOL0     C42265   2.942   7.520   8.338  0.4879 -0.4921 -0.9692
  307MOL0     C42266   3.033   7.632   8.277 -0.0815  0.2233  0.3920
  307MOL0     C42267   2.956   7.769   8.276 -0.5808 -0.5705  0.1695
  307MOL0     C42268   3.039   7.887   8.211 -0.2349  1.1921 -0.3642
  307MOL0     C42269   3.118   7.985   8.307 -0.2299  0.2374  0.0724
  307MOL0     C42270   3.124   8.115   8.230 -1.1138 -0.1378  1.2195
  307MOL0     C42271   3.181   8.226   8.317 -0.4534 -0.1880 -0.0055
  307MOL0     C42272   3.247   8.343   8.228 -0.4336  0.3898  0.0187
  307MOL0    Cl42273   3.137   8.412   8.123  0.1129 -0.3329  0.3504
  307MOL0     C42274   2.715   7.417   8.483  0.4370 -0.2446  0.2166
  307MOL0     C42275   2.638   7.338   8.565  0.4756 -0.0160  0.2191
  307MOL0     O42276   2.401   7.347   8.780  0.1253  0.6729  0.5694
  307MOL0     C42277   2.458   6.995   8.798 -0.1255 -0.1376 -0.6558
  307MOL0     C42278   2.401   6.866   8.789  0.5660  0.1467  0.3203
  307MOL0     N42279   1.604   6.576   8.473  0.0279 -0.7633 -0.4302
  307MOL0     N42280   1.481   6.607   8.451  1.0014  0.1589  0.8353
  307MOL0     C42281   0.840   6.784   7.732 -0.6319 -0.3195  1.3830
  307MOL0     C42282   0.904   6.811   7.606  0.3441 -0.6630 -0.4534
  307MOL0     C42283   1.146   6.910   7.256  0.2189  0.2055 -0.4428
  307MOL0     C42284   1.215   7.031   7.257  0.3723  0.1071 -1.4375
  307MOL0     C42285   1.259   7.086   7.136 -0.6251  0.2879  1.1524
  307MOL0     C42286   1.246   7.028   7.007  0.4594  0.4099 -0.2909
  307MOL0     O42287   1.316   7.089   6.903 -0.1967  0.7065 -0.4371
  307MOL0     C42288   1.373   7.005   6.796  0.0932 -0.1542  0.5075
  307MOL0     C42289   1.392   7.098   6.676 -0.1454 -0.1212  0.3916
  307MOL0     C42290   1.268   7.201   6.655  0.6908  0.1423 -0.1296
  307MOL0     C42291   1.272   7.269   6.517 -0.7311  0.1915 -0.6679
  307MOL0     C42292   1.383   7.367   6.505 -0.0831 -0.7924  1.1248
  307MOL0     C42293   1.474   7.447   6.482  0.7461 -0.0963 -0.2832
  307MOL0     C42294   1.194   6.899   7.021  0.7094  0.1088 -0.7494
  307MOL0     C42295   1.142   6.843   7.136 -0.5373  0.4139  0.2674
  307MOL0     C42296   1.096   6.700   7.130 -0.0133 -0.4756 -0.2174
  307MOL0     H42297   1.119   7.057   7.712 -3.1789  3.4848  2.1325
  307MOL0     H42298   1.007   7.009   7.922  0.8443 -0.0751  0.5086
  307MOL0     H42299   0.817   6.641   7.959 -2.3313 -0.4884 -2.8973
  307MOL0     H42300   0.660   6.726   7.951  0.0037  1.3170 -1.3650
  307MOL0     H42301   0.723   6.806   8.202 -0.2079  1.5635 -1.5379
  307MOL0     H42302   0.669   6.646   8.182  0.9700 -0.7842  2.6936
  307MOL0     H42303   0.904   6.564   8.205 -2.0725 -0.7910  1.9238
  307MOL0     H42304   0.971   6.719   8.169 -1.3997 -0.9478 -1.6693
  307MOL0     H42305   0.885   6.796   8.392  0.2026  0.6867 -0.3219
  307MOL0     H42306   0.817   6.642   8.433 -0.4446  3.1698  2.5380
  307MOL0     H42307   1.106   6.639   8.347 -0.8571 -0.5098  0.4161
  307MOL0     H42308   1.013   6.536   8.467 -2.2386 -0.3193 -0.0450
  307MOL0     H42309   1.067   6.825   8.529 -2.2736  0.0725  0.8146
  307MOL0     H42310   0.990   6.699   8.618 -0.8766 -3.3693 -3.6040
  307MOL0     H42311   1.223   6.566   8.575 -3.0213 -1.5906  1.6950
  307MOL0     H42312   1.220   6.670   8.709  0.4567  0.8472  0.2114
  307MOL0     H42313   1.288   6.805   8.445 -4.9713  0.2271  1.1601
  307MOL0     H42314   1.328   6.857   8.608 -0.7130  0.4035 -0.4256
  307MOL0     H42315   1.525   6.756   8.737 -0.0576 -0.6523  1.4476
  307MOL0     H42316   1.830   6.505   8.680  2.3587  1.0724  2.1724
  307MOL0     H42317   1.790   6.656   8.755  0.4698  2.2423 -1.1059
  307MOL0     H42318   1.881   6.648   8.463 -1.2360  0.1404 -0.6637
  307MOL0     H42319   1.863   6.788   8.562 -0.4109 -0.8016  1.1691
  307MOL0     H42320   2.069   6.563   8.586 -2.5661 -1.1233 -3.1567
  307MOL0     H42321   2.082   6.732   8.536 -1.8352  0.3225 -0.4850
  307MOL0     H42322   2.026   6.784   8.794  1.2936 -0.2927  0.4605
  307MOL0     H42323   2.059   6.623   8.818 -1.2042  0.3244 -1.2071
  307MOL0     H42324   2.088   6.963   8.685  1.6928 -2.5874 -2.4557
  307MOL0     H42325   2.204   7.288   8.638  0.4052  0.0208 -0.2552
  307MOL0     H42326   2.138   7.271   8.802 -1.6767 -2.5078  0.1565
  307MOL0     H42327   2.060   7.198   8.657  0.6358  2.1454 -1.2739
  307MOL0     H42328   2.794   7.367   8.863  1.1015  0.2343 -0.4097
  307MOL0     H42329   2.956   7.508   8.710 -0.3655  1.8147 -1.4252
  307MOL0     H42330   2.995   7.425   8.332  0.6698 -0.3727 -1.3293
  307MOL0     H42331   2.854   7.503   8.274  1.7480 -1.4339 -2.5181
  307MOL0     H42332   3.128   7.626   8.330  1.7014 -0.6002 -2.6733
  307MOL0     H42333   3.051   7.588   8.178  0.0110  0.3885  0.3354
  307MOL0     H42334   2.917   7.799   8.373  2.2780  0.1413  1.1967
  307MOL0     H42335   2.867   7.750   8.215  0.5470  2.0051 -2.5235
  307MOL0     H42336   2.965   7.949   8.160  2.4372  2.2039 -3.3940
  307MOL0     H42337   3.109   7.857   8.132  0.3644  0.7076  0.3364
  307MOL0     H42338   3.052   8.011   8.391 -1.3581  1.3226 -1.0986
  307MOL0     H42339   3.218   7.962   8.345  0.8099 -2.2821 -3.6361
  307MOL0     H42340   3.027   8.157   8.200 -0.4000  0.9470  0.3076
  307MOL0     H42341   3.183   8.096   8.140  0.2278 -3.0020  2.5768
  307MOL0     H42342   3.260   8.183   8.380  0.7458  1.2956 -0.4376
  307MOL0     H42343   3.112   8.273   8.389  1.3571  4.3383 -0.8419
  307MOL0     H42344   3.340   8.300   8.190 -0.6685  0.3881 -0.5602
  307MOL0     H42345   3.272   8.424   8.297 -2.1621  0.8397  0.1635
  307MOL0     H42346   2.700   7.412   8.376 -0.7103  0.7202  0.3097
  307MOL0     H42347   2.580   7.262   8.516  0.4720 -1.0644  1.7755
  307MOL0     H42348   2.563   7.007   8.819 -0.3802  1.0700  0.0620
  307MOL0     H42349   2.463   6.786   8.828  1.3790  1.3737  1.6520
  307MOL0     H42350   0.777   6.697   7.720  2.1549 -2.3328  0.3519
  307MOL0     H42351   0.879   6.747   7.522  0.6771 -1.8042  0.2915
  307MOL0     H42352   1.221   7.079   7.354 -0.7486  0.5847 -1.5882
  307MOL0     H42353   1.321   7.174   7.143  0.5995 -0.2014 -1.8101
  307MOL0     H42354   1.470   6.959   6.819 -0.7214 -2.1878  0.0683
  307MOL0     H42355   1.309   6.921   6.766  1.8038 -0.9024 -1.2480
  307MOL0     H42356   1.405   7.034   6.588 -1.6644  0.2448 -0.1347
  307MOL0     H42357   1.487   7.150   6.687 -0.3433 -0.1387  2.5540
  307MOL0     H42358   1.179   7.139   6.666  0.2318  0.3800 -2.1925
  307MOL0     H42359   1.273   7.275   6.735  2.5383 -1.1847  1.0587
  307MOL0     H42360   1.178   7.324   6.509 -1.1870  0.3394  3.4174
  307MOL0     H42361   1.279   7.192   6.440 -0.7234 -0.0291 -0.4477
  307MOL0     H42362   1.543   7.526   6.459  1.0351 -0.4482 -0.6341
  307MOL0     H42363   1.198   6.841   6.929  1.7100  1.1451 -1.3888
  307MOL0     H42364   1.174   6.635   7.171  1.7501  1.9900  0.5638
  307MOL0     H42365   1.007   6.693   7.193  0.4292  0.9746  0.6253
  307MOL0     H42366   1.072   6.668   7.028 -0.0903 -0.9085 -0.0627
  308MOL0     O42367   5.031   1.853   4.768  1.2082  0.6465 -0.3070
  308MOL0     C42368   5.027   1.731   4.756 -0.1845  0.2828  0.0497
  308MOL0     O42369   5.066   1.671   4.647  0.6220 -0.4923 -0.0196
  308MOL0     C42370   5.092   1.749   4.532 -0.3454  0.4109 -0.1434
  308MOL0     C42371   5.219   1.767   4.481 -0.3976 -0.5147  0.7581
  308MOL0     C42372   5.244   1.846   4.363 -0.3242 -0.0471 -0.5257
  308MOL0     C42373   5.134   1.894   4.289  0.1062  0.0424  0.4655
  308MOL0     O42374   5.142   1.949   4.165  0.4368 -0.2942  0.9720
  308MOL0     C42375   5.043   2.043   4.108 -0.5095 -0.2657 -0.3896
  308MOL0     C42376   4.943   1.982   4.008  0.3445  0.3026  1.2251
  308MOL0     C42377   4.999   1.942   3.876  0.0532 -0.7753  0.0471
  308MOL0     C42378   5.082   2.061   3.801 -0.4424 -0.6418  0.6251
  308MOL0     C42379   5.075   2.060   3.654  0.0036  0.8092 -0.5842
  308MOL0     C42380   5.167   1.960   3.599  0.1201  0.0401 -0.0129
  308MOL0     C42381   5.202   1.971   3.449 -0.5524  0.3104  0.6005
  308MOL0     C42382   5.311   1.867   3.403  0.4426  1.1805  0.5073
  308MOL0     N42383   5.295   1.818   3.268  0.7247  0.9121  0.1092
  308MOL0     C42384   5.314   1.895   3.158  0.5217 -0.1547  0.6927
  308MOL0     C42385   5.293   1.804   3.053  0.0415 -0.4813 -0.6574
  308MOL0     C42386   5.312   1.841   2.909 -0.0675  0.4771 -0.1089
  308MOL0     C42387   5.202   1.770   2.820 -0.4853 -0.2361 -0.5634
  308MOL0     C42388   5.192   1.825   2.680 -0.3131  0.4949  0.3292
  308MOL0     C42389   5.307   1.784   2.583  0.0717 -0.4077 -0.5568
  308MOL0     O42390   5.334   1.643   2.563  0.7934 -0.2628  0.1570
  308MOL0     C42391   5.422   1.615   2.455  0.6792  0.1627 -0.2354
  308MOL0     C42392   5.436   1.486   2.408  0.4855 -0.1167 -0.6697
  308MOL0     C42393   5.514   1.456   2.294  0.0411  0.6672  0.4581
  308MOL0     C42394   5.512   1.308   2.253 -0.5316 -0.0681  0.2792
  308MOL0     C42395   5.601   1.553   2.244 -0.5239 -0.7707  0.2683
  308MOL0     C42396   5.690   1.542   2.121 -0.2241 -0.4602  0.7997
  308MOL0     O42397   5.785   1.646   2.096  0.2335 -0.1967  0.0659
  308MOL0     C42398   5.867   1.631   1.991 -0.7337 -0.2831 -0.8504
  308MOL0     C42399   5.996   1.695   2.014  0.3659  0.5807 -0.9109
  308MOL0     C42400   6.095   1.691   1.920  0.1223  0.1093  0.3704
  308MOL0     C42401   6.068   1.630   1.795  0.1402  0.3562  0.0232
  308MOL0     O42402   6.158   1.626   1.692 -0.1809  0.1133 -0.0058
  308MOL0     C42403   6.250   1.510   1.712  0.9172  0.6138  0.1421
  308MOL0     C42404   6.338   1.482   1.590  0.0955  0.1658 -0.0242
  308MOL0     C42405   6.375   1.333   1.584 -0.2754  1.0218  0.2621
  308MOL0     C42406   6.504   1.327   1.493  0.5746  0.5935  0.3924
  308MOL0     C42407   6.533   1.186   1.465  0.0418 -0.4073  0.8153
  308MOL0     C42408   6.446   1.121   1.358  0.0342 -0.9740  0.3261
  308MOL0     C42409   6.482   0.980   1.331  0.4611 -0.1090  0.1615
  308MOL0     C42410   6.354   0.909   1.295 -0.2513  0.0477 -0.1019
  308MOL0    Cl42411   6.404   0.760   1.224 -0.0672  0.3202 -0.0912
  308MOL0     C42412   5.937   1.590   1.773 -0.7966  0.5099  0.2526
  308MOL0     C42413   5.842   1.585   1.860  0.0585  0.0462  0.3581
  308MOL0     O42414   5.686   1.436   2.056 -0.7492  0.0274  0.4745
  308MOL0     C42415   5.594   1.679   2.299  0.2808  0.9361  0.7496
  308MOL0     C42416   5.508   1.718   2.395  0.0185  0.5865  0.2249
  308MOL0     N42417   5.271   1.673   3.106  0.3908  0.1275 -0.1598
  308MOL0     N42418   5.254   1.683   3.232  0.6247  0.1646 -0.4628
  308MOL0     C42419   5.006   1.877   4.342 -0.7112 -1.5896 -0.3816
  308MOL0     C42420   4.986   1.803   4.462  0.1572  0.4742  0.1482
  308MOL0     C42421   5.006   1.656   4.880  0.4819 -0.4312 -0.0620
  308MOL0     C42422   4.914   1.703   4.973  1.1060  0.1739  0.5665
  308MOL0     C42423   4.914   1.655   5.101  0.7159  0.6689 -0.8028
  308MOL0     C42424   4.980   1.536   5.127 -0.3520 -0.8327 -0.4106
  308MOL0     O42425   4.971   1.491   5.252  0.4134  0.8524 -0.5722
  308MOL0     C42426   4.861   1.399   5.288 -0.0723 -0.7160 -0.6758
  308MOL0     C42427   4.924   1.273   5.356 -0.5054  0.0459  0.4065
  308MOL0     C42428   5.031   1.220   5.263  0.5399 -0.0252  0.1221
  308MOL0     C42429   5.077   1.080   5.325  0.0280 -0.0542  0.0862
  308MOL0     C42430   5.156   1.017   5.225 -0.5875  0.4091 -0.0664
  308MOL0     C42431   5.224   0.954   5.147 -0.2749 -0.4526 -0.9512
  308MOL0     C42432   5.063   1.478   5.033 -0.4505  0.4190  0.4886
  308MOL0     C42433   5.083   1.540   4.908 -0.2781 -0.0982  0.0461
  308MOL0     C42434   5.192   1.468   4.824 -0.5335  0.8856  0.4479
  308MOL0     H42435   5.304   1.725   4.533 -0.4021 -0.2165  1.0109
  308MOL0     H42436   5.337   1.842   4.308 -0.4507  0.9613 -0.8423
  308MOL0     H42437   5.103   2.112   4.048 -0.1229 -1.3547 -1.3013
  308MOL0     H42438   4.987   2.100   4.183  0.9744 -1.5174  1.8271
  308MOL0     H42439   4.909   1.886   4.048  1.5793  0.3060  2.3359
  308MOL0     H42440   4.856   2.042   3.981  1.6218  1.0976 -1.5894
  308MOL0     H42441   5.064   1.854   3.887 -1.5641 -2.3129 -1.8592
  308MOL0     H42442   4.910   1.911   3.821 -1.3367 -0.5418  2.0704
  308MOL0     H42443   5.041   2.161   3.817 -0.3014 -0.1242 -1.8008
  308MOL0     H42444   5.185   2.062   3.838 -1.0873 -2.3769  2.7100
  308MOL0     H42445   5.106   2.158   3.616 -0.1449  0.8038 -0.7221
  308MOL0     H42446   4.978   2.032   3.611  1.1846 -2.0410 -1.6131
  308MOL0     H42447   5.263   1.951   3.650 -0.4816 -3.3354  0.7521
  308MOL0     H42448   5.125   1.859   3.609  0.1674  0.0669  0.4628
  308MOL0     H42449   5.234   2.073   3.425 -1.7556  0.2327 -1.5903
  308MOL0     H42450   5.109   1.954   3.394 -0.6279  0.5794  0.6445
  308MOL0     H42451   5.413   1.905   3.411 -0.0340  2.4658  0.7198
  308MOL0     H42452   5.313   1.781   3.471  0.5805  0.7506 -0.0328
  308MOL0     H42453   5.348   1.996   3.141 -0.9502  0.2713  0.0870
  308MOL0     H42454   5.407   1.800   2.873 -0.7732 -0.1497 -1.2964
  308MOL0     H42455   5.301   1.949   2.898 -0.2502  0.3189 -1.7278
  308MOL0     H42456   5.218   1.662   2.813 -0.7879 -0.3286  0.1810
  308MOL0     H42457   5.105   1.790   2.866  0.2807  1.7241  0.3114
  308MOL0     H42458   5.109   1.772   2.633  0.7968 -0.7916 -0.2675
  308MOL0     H42459   5.184   1.934   2.689  2.6761  0.7917  0.5059
  308MOL0     H42460   5.271   1.815   2.484 -1.8986  0.9231  0.5046
  308MOL0     H42461   5.401   1.837   2.597  0.2916  0.6919 -4.7922
  308MOL0     H42462   5.370   1.416   2.458 -0.7941 -0.0007 -2.1495
  308MOL0     H42463   5.611   1.279   2.219 -0.8709  1.3286 -2.1580
  308MOL0     H42464   5.455   1.288   2.162 -1.2029  1.6140  0.2973
  308MOL0     H42465   5.475   1.243   2.334  4.8951  0.6229  3.8236
  308MOL0     H42466   6.010   1.743   2.111  0.5458 -3.1184  1.0647
  308MOL0     H42467   6.193   1.737   1.924 -0.0914  0.9135 -1.9171
  308MOL0     H42468   6.312   1.503   1.801 -0.9896 -4.1589  1.4174
  308MOL0     H42469   6.181   1.426   1.722  1.3966  0.2577  0.4715
  308MOL0     H42470   6.270   1.492   1.505  0.2446  0.2514 -0.1334
  308MOL0     H42471   6.413   1.560   1.575 -0.1839  0.2212 -1.1993
  308MOL0     H42472   6.299   1.263   1.545  0.6436 -1.1678  2.1868
  308MOL0     H42473   6.403   1.288   1.679 -2.5655  3.9396  2.5153
  308MOL0     H42474   6.588   1.385   1.534  2.5047  0.5443 -3.1170
  308MOL0     H42475   6.480   1.377   1.399  1.3406 -1.3930 -0.9246
  308MOL0     H42476   6.640   1.185   1.441 -0.3930  2.1637 -1.7222
  308MOL0     H42477   6.531   1.128   1.558  0.3024 -1.7475 -0.0037
  308MOL0     H42478   6.440   1.183   1.268 -4.7848 -4.1438 -1.9319
  308MOL0     H42479   6.345   1.125   1.398 -1.0359 -1.6439 -2.1049
  308MOL0     H42480   6.528   0.933   1.419 -2.3962  2.4202  3.2912
  308MOL0     H42481   6.553   0.980   1.248  1.1965 -0.1367  0.7747
  308MOL0     H42482   6.314   0.968   1.212 -0.3023 -1.7620 -1.4380
  308MOL0     H42483   6.295   0.906   1.387 -1.6948  1.0304 -0.9694
  308MOL0     H42484   5.905   1.565   1.672  0.1483  1.5650 -0.3402
  308MOL0     H42485   5.746   1.536   1.844 -1.5778  3.1481 -0.0760
  308MOL0     H42486   5.630   1.767   2.247 -3.4814  2.2143  0.0062
  308MOL0     H42487   5.508   1.823   2.421  0.3769  1.4852 -2.9944
  308MOL0     H42488   4.928   1.937   4.297  1.5838  0.9454 -1.2400
  308MOL0     H42489   4.890   1.811   4.512  0.0509  1.5984 -0.1941
  308MOL0     H42490   4.854   1.789   4.949  1.5505  0.1852 -0.5739
  308MOL0     H42491   4.862   1.700   5.184  1.1320  1.2537 -0.8527
  308MOL0     H42492   4.785   1.445   5.352 -2.1621 -0.0211 -3.4782
  308MOL0     H42493   4.811   1.377   5.194 -0.6995 -0.3002 -0.4410
  308MOL0     H42494   4.847   1.201   5.385 -0.1242  0.5903  2.9740
  308MOL0     H42495   4.972   1.312   5.446  1.5765 -2.2864  0.3913
  308MOL0     H42496   4.992   1.205   5.161  3.1758  1.8376 -1.2780
  308MOL0     H42497   5.104   1.301   5.256 -0.3681  0.9036  1.0177
  308MOL0     H42498   4.984   1.031   5.355 -0.9305  2.5466  1.7388
  308MOL0     H42499   5.136   1.080   5.417  0.6492 -2.0943 -0.2592
  308MOL0     H42500   5.256   0.901   5.060 -1.1178  1.2493 -2.3540
  308MOL0     H42501   5.111   1.385   5.060  1.7837  1.7494  1.4540
  308MOL0     H42502   5.259   1.408   4.887  0.3449  0.1132 -1.1554
  308MOL0     H42503   5.133   1.402   4.760  0.4459 -0.6269  1.0553
  308MOL0     H42504   5.256   1.544   4.779  0.8120  1.7273  3.5152
  309MOL0     O42505   9.715   8.432   7.414 -0.2059  0.1487  0.2032
  309MOL0     C42506   9.749   8.520   7.331  0.7156 -0.8935 -0.1583
  309MOL0     O42507   9.849   8.508   7.237 -0.4764  0.2181 -0.4083
  309MOL0     C42508   9.934   8.407   7.239 -0.9339 -0.8343 -0.6579
  309MOL0     C42509   9.895   8.290   7.178 -0.4500 -0.5317 -0.5397
  309MOL0     C42510   9.983   8.183   7.166 -0.3519  0.2725 -0.3691
  309MOL0     C42511  10.107   8.188   7.237 -0.5547 -0.3133  0.2569
  309MOL0     O42512  10.208   8.093   7.231  0.5318  0.0047  0.8185
  309MOL0     C42513  10.171   7.954   7.239 -0.4780 -0.1729  0.1518
  309MOL0     C42514  10.291   7.879   7.302  0.1282  0.2311 -0.3728
  309MOL0     C42515  10.337   7.930   7.448  0.0385  0.9286 -0.0421
  309MOL0     C42516  10.221   7.958   7.548  0.2328 -0.4691  0.4443
  309MOL0     C42517  10.209   7.831   7.633  0.4017  1.0811 -1.4816
  309MOL0     C42518  10.090   7.830   7.723  0.8303 -0.7809  0.0231
  309MOL0     C42519  10.080   7.960   7.815 -0.6151 -0.0514  0.3215
  309MOL0     C42520  10.041   7.917   7.963 -0.9550 -0.0994  1.2569
  309MOL0     N42521   9.999   8.028   8.046 -0.3415 -0.3430  1.1360
  309MOL0     C42522  10.071   8.139   8.063 -0.0883 -0.7080  0.4806
  309MOL0     C42523  10.042   8.185   8.184 -0.6691 -0.3728  0.0465
  309MOL0     C42524  10.095   8.308   8.258  0.0844 -0.3067  0.0969
  309MOL0     C42525  10.058   8.433   8.180 -0.0506 -0.8622  0.0217
  309MOL0     C42526  10.079   8.558   8.269 -0.4269  0.0606 -0.6926
  309MOL0     C42527  10.080   8.682   8.180 -0.7153  0.3595 -0.4310
  309MOL0     O42528  10.204   8.675   8.107  0.7936 -1.1205  0.3002
  309MOL0     C42529  10.224   8.783   8.012  0.0385 -0.5021 -0.6313
  309MOL0     C42530  10.338   8.756   7.938  0.4302 -0.5822  0.5182
  309MOL0     C42531  10.394   8.851   7.857 -0.4497 -0.6439 -0.0780
  309MOL0     C42532  10.521   8.824   7.795 -0.3551 -0.2785  0.0975
  309MOL0     C42533  10.333   8.981   7.851  0.0215 -0.6741 -1.5371
  309MOL0     C42534  10.386   9.085   7.773  0.4645 -0.9279  0.3134
  309MOL0     O42535  10.351   9.070   7.646 -0.3765  0.5564  0.0574
  309MOL0     C42536  10.366   9.167   7.560  0.8138 -0.9004 -0.1310
  309MOL0     C42537  10.282   9.285   7.564  0.2430 -0.1527  0.3991
  309MOL0     C42538  10.301   9.398   7.478  0.0068  0.4636  0.1546
  309MOL0     C42539  10.408   9.387   7.382  0.3584 -0.0943 -0.1133
  309MOL0     O42540  10.441   9.484   7.296  0.6607 -0.1120 -0.0355
  309MOL0     C42541  10.378   9.617   7.288 -1.3685 -0.8287  0.0145
  309MOL0     C42542  10.463   9.684   7.183 -0.4897 -1.0266  0.0507
  309MOL0     C42543  10.572   9.775   7.242  0.7984  0.9572  0.0392
  309MOL0     C42544  10.715   9.738   7.194  0.2585  0.2306 -0.4371
  309MOL0     C42545  10.770   9.601   7.251 -0.3123  0.4796  0.3493
  309MOL0     C42546  10.897   9.569   7.179  0.2956 -0.0514  0.4054
  309MOL0     C42547  10.940   9.436   7.243  0.6838 -0.3644  0.8639
  309MOL0     C42548  11.059   9.380   7.176  0.3440 -0.5167 -0.2763
  309MOL0    Cl42549  11.116   9.219   7.246 -0.0272 -0.1955  0.1991
  309MOL0     C42550  10.492   9.272   7.383  0.2195 -0.8507 -0.2833
  309MOL0     C42551  10.467   9.162   7.463 -0.4216  0.3765  0.4017
  309MOL0     O42552  10.430   9.185   7.820  0.0969 -0.6571 -0.3869
  309MOL0     C42553  10.212   9.004   7.914  0.3270 -0.4828  0.0944
  309MOL0     C42554  10.155   8.905   7.997  0.4947 -0.1154 -0.5988
  309MOL0     N42555   9.925   8.109   8.227 -0.1205  0.0284  0.0259
  309MOL0     N42556   9.907   8.020   8.142 -0.0339  1.0318 -0.3410
  309MOL0     C42557  10.135   8.308   7.315 -0.5326  0.4054  0.1633
  309MOL0     C42558  10.057   8.421   7.300  0.1630 -0.0802 -0.3722
  309MOL0     C42559   9.689   8.658   7.331 -0.0511  0.4675 -0.2698
  309MOL0     C42560   9.696   8.737   7.211 -0.5270 -0.6300  0.3159
  309MOL0     C42561   9.659   8.870   7.216  0.2545 -0.0323  0.1500
  309MOL0     C42562   9.612   8.930   7.335  0.6184  0.5205 -0.0612
  309MOL0     O42563   9.586   9.064   7.354 -0.6641 -1.1111  0.3592
  309MOL0     C42564   9.569   9.141   7.233 -0.1112  0.2421  0.8413
  309MOL0     C42565   9.536   9.277   7.279 -0.6906  0.2268 -0.8775
  309MOL0     C42566   9.522   9.389   7.170  0.4201  0.5156 -0.0932
  309MOL0     C42567   9.474   9.526   7.237 -0.6501 -1.2715  0.3014
  309MOL0     C42568   9.514   9.636   7.148 -0.0091  0.0604 -0.2731
  309MOL0     C42569   9.551   9.726   7.076  0.2399 -0.1515 -0.8318
  309MOL0     C42570   9.616   8.852   7.450 -0.3401  1.1618 -0.6354
  309MOL0     C42571   9.646   8.719   7.450 -0.0253  0.8262 -0.0515
  309MOL0     C42572   9.614   8.648   7.583  1.0713  0.0186 -0.2049
  309MOL0     H42573   9.798   8.297   7.130 -0.6229  3.8618  0.0749
  309MOL0     H42574   9.944   8.099   7.110  0.8430 -0.9997  0.6485
  309MOL0     H42575  10.157   7.917   7.137  3.0446 -0.2699 -0.4280
  309MOL0     H42576  10.082   7.951   7.303  0.0212 -0.6860  0.8368
  309MOL0     H42577  10.271   7.773   7.315  1.1246  0.1785  0.8691
  309MOL0     H42578  10.380   7.881   7.239  2.1791  0.1689  2.3313
  309MOL0     H42579  10.412   7.861   7.487  0.5213  0.3185 -1.9672
  309MOL0     H42580  10.398   8.016   7.422  0.2168  0.6790 -0.4582
  309MOL0     H42581  10.244   8.038   7.619  4.2364 -1.4103  0.4381
  309MOL0     H42582  10.124   7.979   7.502 -0.8870  0.4240  3.0185
  309MOL0     H42583  10.305   7.828   7.686 -0.3739 -2.1075 -0.0134
  309MOL0     H42584  10.195   7.742   7.571  0.8477  0.8391 -1.2465
  309MOL0     H42585  10.000   7.816   7.663  1.3384 -0.9015 -0.7218
  309MOL0     H42586  10.096   7.743   7.789 -0.7244 -2.5025 -1.9810
  309MOL0     H42587  10.009   8.036   7.780  0.3701  1.7282  1.9813
  309MOL0     H42588  10.182   7.998   7.817 -1.3374  1.9878  1.1010
  309MOL0     H42589   9.955   7.850   7.966 -1.5207  0.5463 -0.1263
  309MOL0     H42590  10.127   7.863   8.005 -0.5325 -0.7256 -0.3194
  309MOL0     H42591  10.147   8.186   8.002  0.0564  1.1477  1.9684
  309MOL0     H42592  10.204   8.302   8.256  0.1720 -0.8390 -4.2855
  309MOL0     H42593  10.049   8.311   8.357  0.1809 -3.4227  0.3345
  309MOL0     H42594  10.124   8.441   8.093 -0.1428 -3.0440 -0.3003
  309MOL0     H42595   9.953   8.419   8.155 -0.5514  0.4591  1.2598
  309MOL0     H42596   9.991   8.572   8.331 -1.1418  1.2429 -1.9109
  309MOL0     H42597  10.161   8.549   8.341  0.4924 -0.3179 -1.7567
  309MOL0     H42598   9.987   8.681   8.122  0.0845  1.5066 -1.8227
  309MOL0     H42599  10.085   8.774   8.239  2.0813 -0.2128  0.3527
  309MOL0     H42600  10.391   8.662   7.943  1.2549 -0.1230  0.6647
  309MOL0     H42601  10.511   8.801   7.689  2.5536 -0.5935 -0.1840
  309MOL0     H42602  10.574   8.745   7.848 -1.5020 -0.5504  0.8752
  309MOL0     H42603  10.573   8.919   7.809  0.8159 -1.2847  3.3934
  309MOL0     H42604  10.209   9.291   7.645 -0.4164  0.3198 -0.2167
  309MOL0     H42605  10.245   9.491   7.480  2.3738  2.0652 -1.7718
  309MOL0     H42606  10.279   9.596   7.245 -0.0742 -0.6511 -3.3521
  309MOL0     H42607  10.374   9.677   7.379  2.0547 -1.2581  0.5769
  309MOL0     H42608  10.500   9.613   7.109 -0.4740 -2.5495  1.4659
  309MOL0     H42609  10.406   9.756   7.123  0.1441  0.6861  1.4369
  309MOL0     H42610  10.570   9.778   7.352 -2.4294  1.7227  0.0479
  309MOL0     H42611  10.547   9.879   7.222  2.0399  0.9844 -1.5729
  309MOL0     H42612  10.778   9.822   7.225  1.8301 -0.6308 -1.1683
  309MOL0     H42613  10.714   9.738   7.085 -1.0853 -2.6266 -0.5198
  309MOL0     H42614  10.789   9.608   7.359  1.9109  0.4949  0.0206
  309MOL0     H42615  10.695   9.522   7.246  2.0509 -1.8816 -0.2062
  309MOL0     H42616  10.971   9.648   7.194 -1.1134  1.7341 -1.4910
  309MOL0     H42617  10.868   9.564   7.073 -2.9480  1.5057  1.1184
  309MOL0     H42618  10.862   9.361   7.228 -0.7194  0.8841  1.6454
  309MOL0     H42619  10.952   9.453   7.350 -0.6749  1.3734  0.7875
  309MOL0     H42620  11.133   9.461   7.178 -1.4619  1.1945  0.3422
  309MOL0     H42621  11.035   9.358   7.072 -0.5013 -0.0440 -0.1888
  309MOL0     H42622  10.577   9.272   7.315 -0.6240  2.2620 -1.5092
  309MOL0     H42623  10.530   9.074   7.459  1.7623  1.7762  1.7904
  309MOL0     H42624  10.158   9.096   7.894  0.9542 -0.5728 -2.3534
  309MOL0     H42625  10.064   8.935   8.049 -0.7219  0.5431 -2.9523
  309MOL0     H42626  10.227   8.319   7.373  0.8790 -1.5962 -1.5265
  309MOL0     H42627  10.086   8.513   7.349 -0.8035  2.0509 -3.4918
  309MOL0     H42628   9.741   8.711   7.117 -0.0635  0.7710  0.1262
  309MOL0     H42629   9.657   8.919   7.119  0.9024 -0.6308 -0.1770
  309MOL0     H42630   9.669   9.144   7.188 -1.0172  0.4941 -1.2550
  309MOL0     H42631   9.490   9.094   7.174 -1.3041  2.0589  0.9255
  309MOL0     H42632   9.617   9.311   7.343 -0.8897 -1.1149  0.1258
  309MOL0     H42633   9.450   9.281   7.346 -0.0693  1.1485 -0.1120
  309MOL0     H42634   9.623   9.415   7.138  1.1531 -0.5290  1.2590
  309MOL0     H42635   9.456   9.376   7.084 -1.7487  1.4078  1.3381
  309MOL0     H42636   9.530   9.533   7.331 -0.1352 -0.9207 -0.0275
  309MOL0     H42637   9.368   9.532   7.266 -0.8659 -0.9665 -0.5176
  309MOL0     H42638   9.572   9.816   7.021 -0.1797  0.0460 -0.6754
  309MOL0     H42639   9.564   8.900   7.532 -0.6410  2.1451 -1.3820
  309MOL0     H42640   9.554   8.557   7.571  0.6719  0.3514 -0.7290
  309MOL0     H42641   9.704   8.620   7.638  1.3538  1.2401 -0.0115
  309MOL0     H42642   9.557   8.717   7.645  3.0469  3.0402 -1.5256
  310MOL0     O42643   7.868   9.701   0.736 -0.0653  0.4876 -0.6698
  310MOL0     C42644   7.977   9.666   0.773 -0.3587 -0.0472  0.3628
  310MOL0     O42645   8.102   9.700   0.730  0.2528 -0.6603  0.1163
  310MOL0     C42646   8.115   9.813   0.649 -0.3980  0.5855 -0.9132
  310MOL0     C42647   8.094   9.940   0.703 -0.4481 -0.0624  1.4075
  310MOL0     C42648   8.131  10.053   0.625  0.3129  0.1896 -0.3670
  310MOL0     C42649   8.195  10.039   0.502 -0.4009  0.4101  0.3140
  310MOL0     O42650   8.251  10.145   0.426 -1.2168  0.0274  0.8678
  310MOL0     C42651   8.291  10.267   0.488  0.2069 -0.4955 -0.9468
  310MOL0     C42652   8.341  10.364   0.373  0.4691 -0.5813 -0.6620
  310MOL0     C42653   8.484  10.324   0.315 -1.0928  0.5652 -0.5720
  310MOL0     C42654   8.526  10.435   0.218 -0.1068 -0.0347  0.0095
  310MOL0     C42655   8.432  10.421   0.089  0.5313  0.8354  0.1044
  310MOL0     C42656   8.455  10.551   0.004  0.5885  1.5974 -0.2008
  310MOL0     C42657   8.365  10.650   0.067 -0.4182  0.2290  0.1863
  310MOL0     C42658   8.353  10.782  -0.012  0.2680  0.3510  0.3305
  310MOL0     N42659   8.474  10.837  -0.065 -0.1678  0.7354  0.7853
  310MOL0     C42660   8.536  10.951  -0.019  0.6259  1.0740 -0.0625
  310MOL0     C42661   8.627  10.977  -0.110  0.2783  0.1126 -1.6830
  310MOL0     C42662   8.712  11.099  -0.111  0.0246  0.5447  0.3958
  310MOL0     C42663   8.842  11.073  -0.042  0.2098  0.3687 -0.0491
  310MOL0     C42664   8.937  11.191  -0.043 -0.0038  0.0301 -0.3861
  310MOL0     C42665   8.897  11.313   0.041 -0.1267 -0.0963  0.3060
  310MOL0     O42666   9.010  11.394   0.064 -0.1939 -1.2789  0.0653
  310MOL0     C42667   9.043  11.489  -0.030  0.5275  0.8710  0.0942
  310MOL0     C42668   8.997  11.489  -0.167  0.4960 -0.0504  0.3078
  310MOL0     C42669   9.049  11.568  -0.268  0.0381  0.0622  0.3902
  310MOL0     C42670   8.966  11.564  -0.400 -0.5846 -0.2604  0.6046
  310MOL0     C42671   9.154  11.656  -0.237 -0.3156  0.6634  0.5170
  310MOL0     C42672   9.238  11.733  -0.343 -0.1831 -0.7774  0.2249
  310MOL0     O42673   9.335  11.815  -0.295 -0.7302 -0.1365  0.7243
  310MOL0     C42674   9.414  11.882  -0.379 -0.5773  0.2245  0.5195
  310MOL0     C42675   9.447  11.854  -0.513  1.0410 -0.4899 -0.1426
  310MOL0     C42676   9.520  11.953  -0.582 -0.2862  0.3276  0.5813
  310MOL0     C42677   9.591  12.051  -0.508  1.5771 -0.2564  0.2474
  310MOL0     O42678   9.690  12.121  -0.575  0.3309  0.1386  0.8820
  310MOL0     C42679   9.675  12.258  -0.540  0.2434 -0.3438  0.7397
  310MOL0     C42680   9.725  12.355  -0.652 -0.0637 -0.6904  0.3324
  310MOL0     C42681   9.871  12.379  -0.658 -0.3737  0.1236  0.4986
  310MOL0     C42682   9.946  12.243  -0.692  0.0469 -0.0710 -0.4177
  310MOL0     C42683  10.097  12.250  -0.728 -0.1974  0.1530 -0.1119
  310MOL0     C42684  10.135  12.327  -0.855 -0.3257 -0.6275 -0.0323
  310MOL0     C42685  10.289  12.338  -0.856 -0.3842 -0.6719  0.0698
  310MOL0     C42686  10.330  12.392  -1.004  0.3295  0.0743 -0.6491
  310MOL0    Cl42687  10.265  12.559  -1.037  0.0752  0.3984 -0.2079
  310MOL0     C42688   9.571  12.072  -0.370  0.6221  0.2262  0.8118
  310MOL0     C42689   9.491  11.978  -0.314 -0.1958 -1.3909 -0.1925
  310MOL0     O42690   9.209  11.719  -0.466  0.4857 -0.4565  0.0852
  310MOL0     C42691   9.196  11.661  -0.103 -0.3350  0.2827 -0.9710
  310MOL0     C42692   9.144  11.577  -0.002 -0.1744 -0.3767  0.3344
  310MOL0     N42693   8.628  10.884  -0.210  0.2777 -0.0015 -0.2625
  310MOL0     N42694   8.531  10.804  -0.187 -0.1637  0.3954 -0.4836
  310MOL0     C42695   8.226   9.907   0.465 -0.9647 -1.4412 -0.2051
  310MOL0     C42696   8.182   9.798   0.533 -0.0676  0.1895 -0.2519
  310MOL0     C42697   7.969   9.543   0.867  0.4700  0.4844  0.8447
  310MOL0     C42698   7.841   9.489   0.898  0.2903 -0.0172  0.4864
  310MOL0     C42699   7.828   9.373   0.980 -0.3056 -0.3076 -0.0878
  310MOL0     C42700   7.944   9.300   1.020  0.1805  0.0774 -0.5331
  310MOL0     O42701   7.950   9.195   1.104 -0.0886  0.3056 -0.3107
  310MOL0     C42702   7.840   9.097   1.101 -0.4203  0.3414 -0.2711
  310MOL0     C42703   7.817   9.011   0.978  1.7386  0.4681  0.4769
  310MOL0     C42704   7.675   8.935   0.995 -0.4450  0.3752 -0.5561
  310MOL0     C42705   7.658   8.791   0.947  1.3808  0.3755  0.1140
  310MOL0     C42706   7.765   8.698   0.986  0.0720 -0.3885 -0.0188
  310MOL0     C42707   7.854   8.623   0.991 -0.3575 -0.2564  0.3003
  310MOL0     C42708   8.064   9.357   0.987 -0.7200  0.0510 -0.3005
  310MOL0     C42709   8.082   9.476   0.910 -0.5776 -0.5465  0.4563
  310MOL0     C42710   8.220   9.545   0.920 -0.9699  1.4114  0.1897
  310MOL0     H42711   8.023   9.958   0.783 -2.4593 -0.6118 -0.1403
  310MOL0     H42712   8.110  10.157   0.648  2.0472  1.1055 -2.5642
  310MOL0     H42713   8.379  10.244   0.550  3.0655  0.3093 -4.3824
  310MOL0     H42714   8.213  10.308   0.553  1.0486 -2.6509  1.6304
  310MOL0     H42715   8.257  10.376   0.304  0.4692  2.7418 -0.2559
  310MOL0     H42716   8.352  10.463   0.418  0.3279 -1.2038  0.7910
  310MOL0     H42717   8.553  10.307   0.398 -1.2157  0.6700 -0.4483
  310MOL0     H42718   8.478  10.227   0.263 -0.6380 -0.8730  1.8823
  310MOL0     H42719   8.510  10.531   0.268 -1.2131  0.3467 -1.0361
  310MOL0     H42720   8.627  10.425   0.179  1.0232  1.4671  2.3193
  310MOL0     H42721   8.328  10.401   0.117  0.9295 -0.2733  0.8767
  310MOL0     H42722   8.464  10.329   0.039  0.3686 -0.9897  3.1133
  310MOL0     H42723   8.560  10.580   0.004  0.8490  0.7501  1.0917
  310MOL0     H42724   8.418  10.532  -0.097  0.8104 -3.0602  0.3556
  310MOL0     H42725   8.406  10.693   0.159  0.3632  2.6321 -1.2042
  310MOL0     H42726   8.262  10.621   0.088 -0.8229  1.5020  0.0800
  310MOL0     H42727   8.280  10.759  -0.090 -1.4273  3.3682  0.8701
  310MOL0     H42728   8.315  10.852   0.063  1.6355  0.1633  1.2260
  310MOL0     H42729   8.516  11.001   0.075 -0.2191  0.3272  0.1691
  310MOL0     H42730   8.651  11.172  -0.057 -1.7801 -1.1445  0.7841
  310MOL0     H42731   8.722  11.130  -0.216  4.1576 -0.7683  0.2251
  310MOL0     H42732   8.826  11.041   0.061 -0.9405 -2.5395 -1.0319
  310MOL0     H42733   8.900  10.999  -0.098  0.9117  2.2573 -1.9745
  310MOL0     H42734   9.032  11.164   0.004 -0.4251 -1.7891 -0.4914
  310MOL0     H42735   8.976  11.211  -0.143 -0.7218  2.5797 -0.2256
  310MOL0     H42736   8.817  11.368  -0.010 -0.4956 -1.4582 -0.6595
  310MOL0     H42737   8.852  11.293   0.138 -1.5974 -0.6328 -0.4503
  310MOL0     H42738   8.920  11.416  -0.191  1.3065 -0.4272 -1.3180
  310MOL0     H42739   8.964  11.658  -0.455 -2.5250 -0.6419 -0.0800
  310MOL0     H42740   8.862  11.550  -0.370 -2.0227  0.6474 -3.3694
  310MOL0     H42741   9.000  11.488  -0.471 -1.3680  0.7318 -0.8773
  310MOL0     H42742   9.419  11.762  -0.563  3.3971 -2.0118  1.1095
  310MOL0     H42743   9.538  11.938  -0.688 -1.8992  1.3209  0.1259
  310MOL0     H42744   9.571  12.285  -0.519 -0.2400 -3.1484  2.4379
  310MOL0     H42745   9.720  12.262  -0.441 -0.0796 -1.4339  0.9394
  310MOL0     H42746   9.701  12.312  -0.750 -0.3991  0.5609 -0.1492
  310MOL0     H42747   9.680  12.454  -0.660 -1.6748 -1.5362 -2.9281
  310MOL0     H42748   9.915  12.395  -0.559  4.0645 -1.7891 -0.9242
  310MOL0     H42749   9.894  12.459  -0.729 -2.0159  1.8341  1.7637
  310MOL0     H42750   9.887  12.190  -0.768  0.0583 -0.6196 -0.0528
  310MOL0     H42751   9.952  12.184  -0.599  2.9060  3.8529  2.2105
  310MOL0     H42752  10.156  12.277  -0.640  0.2337  0.8406 -0.5972
  310MOL0     H42753  10.130  12.148  -0.750  1.8809  0.4566  1.2814
  310MOL0     H42754  10.085  12.424  -0.847  1.6073  0.2717  3.6204
  310MOL0     H42755  10.091  12.284  -0.946 -0.8251 -1.0214  0.3882
  310MOL0     H42756  10.333  12.238  -0.849  2.7527  0.6427  0.7962
  310MOL0     H42757  10.318  12.402  -0.773 -3.9865 -0.7503  1.5719
  310MOL0     H42758  10.293  12.314  -1.072  0.1345 -1.4373  1.0957
  310MOL0     H42759  10.440  12.394  -1.008  0.3288  2.3489 -0.3131
  310MOL0     H42760   9.610  12.152  -0.307 -0.6041  4.0212 -2.7789
  310MOL0     H42761   9.471  11.981  -0.207 -1.7128 -0.2133 -0.4725
  310MOL0     H42762   9.277  11.730  -0.082  0.0286 -0.3493 -0.2520
  310MOL0     H42763   9.183  11.589   0.099 -0.6934  0.4945  0.4425
  310MOL0     H42764   8.282   9.894   0.373 -1.6030  0.0615 -0.8364
  310MOL0     H42765   8.212   9.696   0.511  2.3206 -0.2759  3.9616
  310MOL0     H42766   7.751   9.533   0.855  0.1175 -0.4115  0.4427
  310MOL0     H42767   7.735   9.326   1.008  0.0336 -0.4594  0.8426
  310MOL0     H42768   7.852   9.032   1.188  0.7294  3.0420  1.7458
  310MOL0     H42769   7.750   9.156   1.123  1.2052  3.0438 -0.4364
  310MOL0     H42770   7.904   8.945   0.979  1.2830 -0.1286  1.0265
  310MOL0     H42771   7.803   9.087   0.900 -2.9086 -1.3845 -0.8295
  310MOL0     H42772   7.652   8.940   1.102 -0.5373  0.9016 -0.5997
  310MOL0     H42773   7.602   9.000   0.946 -0.2931 -1.0957 -2.8401
  310MOL0     H42774   7.655   8.791   0.837  0.6392 -3.3437 -0.0015
  310MOL0     H42775   7.560   8.759   0.985  0.9872  2.9673  1.5522
  310MOL0     H42776   7.942   8.563   0.986  2.6880  3.8228 -0.0850
  310MOL0     H42777   8.149   9.301   1.025 -2.3897 -3.2638 -1.1270
  310MOL0     H42778   8.283   9.503   0.999 -0.1637 -2.7580 -2.3345
  310MOL0     H42779   8.284   9.544   0.831 -2.2819  1.6197 -0.7753
  310MOL0     H42780   8.206   9.649   0.951 -2.8788  1.1225  0.3847
  311MOL0     O42781   8.615   5.105   3.655 -0.2940 -0.0323 -0.0101
  311MOL0     C42782   8.572   5.208   3.606  0.2574 -0.3363  0.7001
  311MOL0     O42783   8.578   5.335   3.666 -0.1131  0.0519  0.2991
  311MOL0     C42784   8.656   5.364   3.777  0.8473 -0.5816  0.0138
  311MOL0     C42785   8.609   5.468   3.860 -0.2975 -0.4806  0.6605
  311MOL0     C42786   8.671   5.507   3.978  0.3639 -0.1501 -1.2024
  311MOL0     C42787   8.795   5.445   4.011 -0.6572 -0.1532  0.2699
  311MOL0     O42788   8.861   5.502   4.114  0.0519  0.0854 -0.2288
  311MOL0     C42789   8.957   5.422   4.183  0.1062  0.5461 -1.1130
  311MOL0     C42790   9.071   5.491   4.251 -0.2589 -0.0294  1.0334
  311MOL0     C42791   9.178   5.417   4.320 -0.4974  0.4381 -0.0260
  311MOL0     C42792   9.128   5.361   4.457  0.3075  0.0595  0.2771
  311MOL0     C42793   9.240   5.306   4.539  0.2130 -0.5376 -0.4429
  311MOL0     C42794   9.190   5.256   4.679 -0.2530  0.4995  0.1218
  311MOL0     C42795   9.205   5.365   4.789 -0.0742 -0.8169  0.2212
  311MOL0     C42796   9.233   5.302   4.924  0.2589 -1.1522 -0.2053
  311MOL0     N42797   9.238   5.408   5.026  0.1348 -0.4111  0.4982
  311MOL0     C42798   9.335   5.509   5.051 -0.7858  0.9793  0.2655
  311MOL0     C42799   9.280   5.580   5.146 -0.3536 -0.2159 -1.2008
  311MOL0     C42800   9.360   5.680   5.222 -0.1346 -0.4480 -0.3702
  311MOL0     C42801   9.419   5.630   5.356  0.7049 -0.0490  0.2286
  311MOL0     C42802   9.301   5.635   5.462 -0.1589 -0.0149 -0.4716
  311MOL0     C42803   9.291   5.761   5.545 -0.2523  0.2697 -0.6190
  311MOL0     O42804   9.404   5.755   5.634 -0.2182  0.7598  0.1450
  311MOL0     C42805   9.408   5.792   5.764  0.8902 -0.2411  0.4555
  311MOL0     C42806   9.313   5.867   5.827  0.2252 -0.4960  0.1626
  311MOL0     C42807   9.323   5.900   5.967 -1.3953  1.0649 -0.4066
  311MOL0     C42808   9.211   5.983   6.017 -0.1767  0.2551 -0.3788
  311MOL0     C42809   9.439   5.849   6.042  0.4480  0.6424  0.8885
  311MOL0     C42810   9.470   5.890   6.178  0.6244 -0.3816 -0.1428
  311MOL0     O42811   9.577   5.836   6.242  0.4063  0.3012 -0.5511
  311MOL0     C42812   9.599   5.852   6.381  0.4992 -0.2467  0.6672
  311MOL0     C42813   9.506   5.898   6.477  0.6184 -1.0292  0.3547
  311MOL0     C42814   9.528   5.899   6.617 -0.4372 -0.3991 -0.0916
  311MOL0     C42815   9.653   5.847   6.669  1.1776 -0.5054 -0.3219
  311MOL0     O42816   9.652   5.845   6.804 -0.0720  0.3848  0.6714
  311MOL0     C42817   9.768   5.780   6.868  0.0117 -0.1171  0.1299
  311MOL0     C42818   9.762   5.794   7.013  0.4323 -0.1041  0.3090
  311MOL0     C42819   9.881   5.734   7.086  1.1164  0.4037 -0.4179
  311MOL0     C42820   9.859   5.750   7.231  0.5479 -0.3672 -0.6587
  311MOL0     C42821   9.965   5.700   7.332 -0.4944 -0.4821 -0.8090
  311MOL0     C42822  10.026   5.564   7.308 -0.2015  0.0666  0.3001
  311MOL0     C42823  10.150   5.541   7.407  0.3085 -0.8690  1.0740
  311MOL0     C42824  10.179   5.388   7.401  0.9153 -0.0541 -1.0730
  311MOL0    Cl42825  10.244   5.327   7.253 -0.2340 -0.2350  0.4176
  311MOL0     C42826   9.744   5.788   6.574  0.8045  0.1382 -0.0564
  311MOL0     C42827   9.716   5.793   6.440  1.2586 -0.3915  0.6195
  311MOL0     O42828   9.401   5.977   6.224  0.5990  0.2858 -0.7376
  311MOL0     C42829   9.532   5.773   5.971 -0.3142  0.1470  0.3476
  311MOL0     C42830   9.505   5.742   5.834 -0.7219  0.1016  0.9467
  311MOL0     N42831   9.156   5.533   5.184 -0.5440  0.3751  0.1801
  311MOL0     N42832   9.132   5.424   5.118 -0.2545  0.7178  0.7660
  311MOL0     C42833   8.851   5.341   3.926  0.3923 -0.9598  0.2381
  311MOL0     C42834   8.778   5.301   3.810 -0.3862  0.1278 -0.2718
  311MOL0     C42835   8.498   5.198   3.479 -0.5746 -0.1407 -0.5073
  311MOL0     C42836   8.462   5.319   3.410  0.9545  0.0388 -0.2016
  311MOL0     C42837   8.396   5.325   3.296 -0.1025 -0.3193  0.3824
  311MOL0     C42838   8.357   5.200   3.233 -0.3809 -0.7870 -0.7649
  311MOL0     O42839   8.278   5.181   3.122  0.3133 -0.9152  0.0922
  311MOL0     C42840   8.303   5.272   3.013 -0.5743  0.9960 -0.8147
  311MOL0     C42841   8.430   5.246   2.926 -0.5408 -0.5066  0.7550
  311MOL0     C42842   8.480   5.100   2.925  0.0593  0.1376 -0.8472
  311MOL0     C42843   8.630   5.100   2.887  0.2475  0.2179 -0.7913
  311MOL0     C42844   8.647   5.182   2.768  0.1150  0.0162 -0.7044
  311MOL0     C42845   8.680   5.245   2.669  1.0043  0.6030 -0.4349
  311MOL0     C42846   8.384   5.082   3.300 -0.4585  0.0542  0.0775
  311MOL0     C42847   8.455   5.069   3.424 -0.8199  0.2538  0.0545
  311MOL0     C42848   8.470   4.930   3.492  0.3076 -0.2833 -0.0737
  311MOL0     H42849   8.522   5.523   3.827 -0.2421 -1.0004 -0.3986
  311MOL0     H42850   8.631   5.584   4.043 -0.1369  0.1681 -1.8731
  311MOL0     H42851   9.004   5.348   4.118 -2.3618 -2.7954  0.6303
  311MOL0     H42852   8.900   5.367   4.258  2.3412 -2.0503 -1.1928
  311MOL0     H42853   9.109   5.560   4.175 -0.1886  0.4878  1.5309
  311MOL0     H42854   9.023   5.550   4.330 -0.4404  1.0145  0.1688
  311MOL0     H42855   9.217   5.332   4.262 -0.2596  0.3122  0.3176
  311MOL0     H42856   9.265   5.484   4.329 -2.0487  2.2893  2.4857
  311MOL0     H42857   9.082   5.446   4.508 -0.2506 -0.0672 -0.0082
  311MOL0     H42858   9.051   5.285   4.442  0.0163  0.6852 -1.8629
  311MOL0     H42859   9.321   5.379   4.550 -1.0265  0.9561 -0.9690
  311MOL0     H42860   9.292   5.220   4.495  2.1377  0.2534  0.1732
  311MOL0     H42861   9.085   5.232   4.656 -0.0077 -1.5510  0.9447
  311MOL0     H42862   9.251   5.168   4.704  0.8553  1.2217  0.0143
  311MOL0     H42863   9.119   5.432   4.789  0.4669 -0.0133 -2.5455
  311MOL0     H42864   9.289   5.430   4.763  0.2412 -1.4516 -0.3949
  311MOL0     H42865   9.162   5.228   4.962 -0.8157 -0.3120 -0.5326
  311MOL0     H42866   9.319   5.234   4.927  0.9632 -0.2479  1.7453
  311MOL0     H42867   9.421   5.525   4.987 -0.3752 -2.1846 -0.1515
  311MOL0     H42868   9.290   5.762   5.243  0.8912  0.3372  0.0898
  311MOL0     H42869   9.440   5.718   5.158  0.9500  0.1702  1.2685
  311MOL0     H42870   9.462   5.531   5.336  0.3304 -0.6719  2.3023
  311MOL0     H42871   9.507   5.690   5.381  1.0939 -1.2677  1.9358
  311MOL0     H42872   9.210   5.617   5.406  0.1786  1.8014 -1.6812
  311MOL0     H42873   9.312   5.549   5.529  0.8583 -0.9475 -1.7767
  311MOL0     H42874   9.303   5.848   5.479 -1.1572  0.3867 -0.6410
  311MOL0     H42875   9.195   5.767   5.596  0.8383  0.3527  1.5214
  311MOL0     H42876   9.236   5.913   5.766  1.1902  1.5961  0.4472
  311MOL0     H42877   9.134   5.994   5.940 -1.8554  1.9274  1.4358
  311MOL0     H42878   9.259   6.079   6.037  1.7960 -0.7277 -0.1417
  311MOL0     H42879   9.165   5.949   6.110 -2.7142  3.3771 -0.3317
  311MOL0     H42880   9.423   5.951   6.432  1.5398  0.1305 -0.0229
  311MOL0     H42881   9.445   5.934   6.678 -2.8442 -4.4200 -0.7158
  311MOL0     H42882   9.764   5.673   6.845 -1.4146  0.7496 -4.6756
  311MOL0     H42883   9.856   5.825   6.821  0.6583 -0.3123  1.1076
  311MOL0     H42884   9.748   5.902   7.023 -0.0608 -0.3157  2.4407
  311MOL0     H42885   9.668   5.750   7.048 -0.0392 -0.9005 -1.8241
  311MOL0     H42886   9.976   5.783   7.062  0.5611  0.9984 -1.4665
  311MOL0     H42887   9.898   5.627   7.069 -0.9799 -0.2738  1.3577
  311MOL0     H42888   9.767   5.695   7.252  0.7464 -0.2111  0.7244
  311MOL0     H42889   9.835   5.852   7.261 -1.1606 -0.3280 -2.0052
  311MOL0     H42890  10.042   5.777   7.339  0.2081 -0.5933 -4.7467
  311MOL0     H42891   9.925   5.701   7.434 -1.5410  0.7977 -1.2067
  311MOL0     H42892  10.066   5.553   7.207  1.1619  3.5103  0.3444
  311MOL0     H42893   9.945   5.492   7.326 -1.5072  1.0771 -1.1969
  311MOL0     H42894  10.106   5.564   7.504 -0.9038  2.3924 -0.1045
  311MOL0     H42895  10.236   5.607   7.391 -0.6944 -0.3004 -3.4350
  311MOL0     H42896  10.089   5.328   7.415  1.7811 -1.2272 -0.3373
  311MOL0     H42897  10.234   5.355   7.490 -1.4453  2.1348  1.3701
  311MOL0     H42898   9.832   5.736   6.611  0.7481  1.7062  2.5459
  311MOL0     H42899   9.766   5.726   6.371 -1.9508  0.3111 -2.6464
  311MOL0     H42900   9.615   5.734   6.030  0.4487  1.0349 -0.1178
  311MOL0     H42901   9.572   5.672   5.784  1.6528  2.5972  0.3951
  311MOL0     H42902   8.938   5.276   3.933 -0.5645 -2.3322 -0.2130
  311MOL0     H42903   8.824   5.216   3.760  0.1508 -1.2649  2.4232
  311MOL0     H42904   8.510   5.412   3.439  0.3165  0.8355 -1.5826
  311MOL0     H42905   8.382   5.417   3.240  2.7595  0.5354  0.9107
  311MOL0     H42906   8.210   5.269   2.954 -1.2981  3.6492  0.0363
  311MOL0     H42907   8.300   5.374   3.052 -2.3877  1.2758 -1.5861
  311MOL0     H42908   8.504   5.321   2.955 -2.1386  1.6326 -0.4337
  311MOL0     H42909   8.405   5.267   2.821  0.2859  0.3899  0.7265
  311MOL0     H42910   8.470   5.071   3.030 -1.5803  2.4532 -0.2824
  311MOL0     H42911   8.425   5.032   2.859  2.0621 -5.8434  2.8616
  311MOL0     H42912   8.666   4.997   2.887 -0.8188 -0.4366  4.5328
  311MOL0     H42913   8.689   5.158   2.958  0.7057 -2.3876  1.1062
  311MOL0     H42914   8.712   5.299   2.583 -0.8895  0.1050 -1.5036
  311MOL0     H42915   8.338   4.990   3.265  0.0856  0.0175 -0.5590
  311MOL0     H42916   8.575   4.901   3.494 -0.2102 -2.6615 -2.0886
  311MOL0     H42917   8.422   4.928   3.590 -1.5062 -0.2429 -0.9246
  311MOL0     H42918   8.423   4.853   3.430 -1.3253  1.1720 -0.7637
  312MOL0     O42919   7.936  10.651  10.278  0.0819  0.4515  1.1390
  312MOL0     C42920   8.056  10.673  10.277 -0.2042  0.3686 -0.3042
  312MOL0     O42921   8.152  10.581  10.304 -0.1745  0.3117  0.7230
  312MOL0     C42922   8.127  10.450  10.338 -0.0437 -0.4806 -0.3162
  312MOL0     C42923   8.048  10.357  10.262  0.0341  0.8141 -0.5704
  312MOL0     C42924   8.014  10.233  10.335  0.5150  0.0485  0.5713
  312MOL0     C42925   8.063  10.200  10.463 -0.0684  0.3244  0.7556
  312MOL0     O42926   8.056  10.073  10.506  0.8703  0.0857 -0.1197
  312MOL0     C42927   8.104  10.034  10.633 -0.2919 -0.2909 -0.1625
  312MOL0     C42928   8.063   9.887  10.662 -0.2882  0.1914  0.6700
  312MOL0     C42929   8.130   9.809  10.783 -0.1917  0.9067  0.8632
  312MOL0     C42930   8.222   9.695  10.735 -1.2113 -0.9792  0.4917
  312MOL0     C42931   8.333   9.645  10.840  0.4619 -0.7655  0.5849
  312MOL0     C42932   8.259   9.593  10.961  0.5264  1.3016 -0.3776
  312MOL0     C42933   8.345   9.468  11.012  0.0329  0.1850  0.4860
  312MOL0     C42934   8.276   9.390  11.124  0.1590  0.2006  0.0937
  312MOL0     N42935   8.349   9.263  11.148  1.5542 -0.1116  0.5208
  312MOL0     C42936   8.461   9.245  11.223 -0.5827 -0.7034 -0.5131
  312MOL0     C42937   8.507   9.116  11.197  0.1311 -0.3933 -0.1870
  312MOL0     C42938   8.631   9.041  11.248  0.2383  0.6310 -1.1375
  312MOL0     C42939   8.760   9.126  11.243  1.1795 -1.0748 -0.8162
  312MOL0     C42940   8.780   9.214  11.363 -0.5185 -0.8485 -0.3337
  312MOL0     C42941   8.924   9.264  11.386 -0.3231  0.0833  0.3440
  312MOL0     O42942   8.932   9.333  11.510 -0.2638  0.0417  0.0592
  312MOL0     C42943   9.030   9.429  11.525 -0.8965  0.0681 -0.4623
  312MOL0     C42944   9.002   9.551  11.468  0.5462 -0.0633  0.0413
  312MOL0     C42945   9.092   9.653  11.474  0.3917 -0.8650  0.1351
  312MOL0     C42946   9.048   9.788  11.441 -0.5828  0.5682 -0.4450
  312MOL0     C42947   9.222   9.635  11.531  0.3904 -0.9465 -0.3479
  312MOL0     C42948   9.328   9.744  11.552  0.6334  0.3814 -0.4798
  312MOL0     O42949   9.409   9.717  11.651 -0.2635 -0.0022 -0.3735
  312MOL0     C42950   9.527   9.793  11.661  1.4001 -0.5790 -0.3830
  312MOL0     C42951   9.527   9.928  11.700  0.4695  0.0227 -0.1552
  312MOL0     C42952   9.641  10.009  11.707 -0.1855 -0.2676  0.3330
  312MOL0     C42953   9.763   9.950  11.685 -0.1144  0.8861  1.0852
  312MOL0     O42954   9.889  10.003  11.687 -0.2553  0.5157 -0.3481
  312MOL0     C42955   9.900  10.143  11.739 -1.3958 -0.2769 -1.0906
  312MOL0     C42956  10.037  10.194  11.689 -1.0899 -0.1638 -0.3826
  312MOL0     C42957  10.057  10.340  11.650 -0.6160 -0.1887 -0.7119
  312MOL0     C42958  10.127  10.423  11.766 -0.5590  1.0173 -0.7861
  312MOL0     C42959  10.191  10.545  11.704 -0.1078  0.8846  0.0781
  312MOL0     C42960  10.105  10.668  11.657  0.2659 -0.5582  0.1171
  312MOL0     C42961  10.188  10.798  11.678 -0.3102 -0.1851  0.7929
  312MOL0     C42962  10.138  10.908  11.591 -0.0340 -0.2861  0.1882
  312MOL0    Cl42963  10.207  10.893  11.426 -0.1294 -0.0324 -0.0086
  312MOL0     C42964   9.758   9.812  11.651 -0.2002 -0.3487  0.2088
  312MOL0     C42965   9.644   9.730  11.639 -0.6800  0.2049 -0.6926
  312MOL0     O42966   9.342   9.845  11.483 -0.3997  0.5231  0.1619
  312MOL0     C42967   9.245   9.513  11.594 -0.0564  0.5077  0.8863
  312MOL0     C42968   9.147   9.412  11.592  0.0595  0.7471  0.4532
  312MOL0     N42969   8.419   9.074  11.097 -0.4102  0.0893  0.8033
  312MOL0     N42970   8.323   9.155  11.069  0.2111 -0.9751  0.0260
  312MOL0     C42971   8.150  10.294  10.521  0.2840  0.7082  0.4098
  312MOL0     C42972   8.174  10.419  10.464  0.0409  0.3746  0.7645
  312MOL0     C42973   8.104  10.811  10.263  0.6792 -0.3204 -0.3110
  312MOL0     C42974   8.065  10.910  10.353  0.4811 -0.3808 -0.3248
  312MOL0     C42975   8.094  11.048  10.338 -1.0116 -0.3478  0.3215
  312MOL0     C42976   8.171  11.085  10.224  0.0039  0.4065  0.6141
  312MOL0     O42977   8.199  11.214  10.226  0.1939  0.1287 -0.7772
  312MOL0     C42978   8.205  11.284  10.104 -1.0014  0.7077  0.0088
  312MOL0     C42979   8.082  11.367  10.065  0.0964  0.2034 -0.1411
  312MOL0     C42980   8.051  11.475  10.168 -0.5526  0.4080 -0.1886
  312MOL0     C42981   7.912  11.536  10.127  0.7654  0.0499  0.3335
  312MOL0     C42982   7.858  11.638  10.217  0.1887  1.3054 -0.0256
  312MOL0     C42983   7.802  11.735  10.268 -0.8067  0.2374 -0.0933
  312MOL0     C42984   8.204  10.980  10.121  0.1795  0.1365  0.2394
  312MOL0     C42985   8.158  10.859  10.138  0.2938  0.8813 -0.1827
  312MOL0     C42986   8.193  10.757  10.037 -0.8196  0.5195 -0.9107
  312MOL0     H42987   8.016  10.387  10.163 -0.4780 -0.7239 -0.9029
  312MOL0     H42988   7.952  10.169  10.272 -0.5495  1.7568 -0.2011
  312MOL0     H42989   8.058  10.097  10.710  0.3391  3.9566 -2.9197
  312MOL0     H42990   8.213  10.029  10.632 -0.2337 -0.9797  2.4702
  312MOL0     H42991   7.954   9.889  10.671 -0.4663  1.5962 -1.1397
  312MOL0     H42992   8.066   9.826  10.571 -2.2403 -1.2028  1.4704
  312MOL0     H42993   8.191   9.868  10.852  0.3747  1.3958 -0.0302
  312MOL0     H42994   8.051   9.758  10.838 -1.0422  0.5332 -0.6582
  312MOL0     H42995   8.159   9.613  10.702 -1.5042 -0.4252 -0.3608
  312MOL0     H42996   8.272   9.739  10.648 -4.7609  2.3762 -0.1352
  312MOL0     H42997   8.401   9.727  10.862  0.3686 -0.4046 -0.3976
  312MOL0     H42998   8.391   9.563  10.796  0.2286 -0.4880 -0.2775
  312MOL0     H42999   8.258   9.674  11.035 -0.0095  1.6398 -0.7458
  312MOL0     H43000   8.157   9.562  10.937  0.3035  1.9483 -0.2954
  312MOL0     H43001   8.449   9.491  11.035  1.0664 -3.9318  0.8127
  312MOL0     H43002   8.358   9.393  10.933  3.4085  1.8335 -0.7434
  312MOL0     H43003   8.263   9.440  11.220 -1.8076 -1.2931  0.6552
  312MOL0     H43004   8.174   9.359  11.099  0.5125 -2.2494  1.3577
  312MOL0     H43005   8.507   9.314  11.294 -0.6753 -0.1686 -0.9626
  312MOL0     H43006   8.642   8.957  11.179 -5.0652  0.6638 -2.4174
  312MOL0     H43007   8.610   9.001  11.348  4.8367 -3.0762 -1.2988
  312MOL0     H43008   8.846   9.059  11.240  0.3400 -2.1879 -0.5986
  312MOL0     H43009   8.760   9.177  11.146  3.3697 -0.8488 -0.7575
  312MOL0     H43010   8.714   9.300  11.352  1.6587  1.8486  4.5139
  312MOL0     H43011   8.744   9.156  11.448  0.0359  0.2845  0.7002
  312MOL0     H43012   8.999   9.184  11.385  0.8734  1.1903  0.3566
  312MOL0     H43013   8.949   9.339  11.311  1.2638 -0.1988  0.5647
  312MOL0     H43014   8.905   9.565  11.421  1.0841  2.4472 -0.4537
  312MOL0     H43015   9.066   9.818  11.337  1.9888  0.6080 -0.0541
  312MOL0     H43016   9.076   9.863  11.515 -1.7800  1.8137 -1.2020
  312MOL0     H43017   8.940   9.780  11.456 -0.5218 -3.7604 -1.0676
  312MOL0     H43018   9.431   9.976  11.716  0.5146  0.1525 -0.2710
  312MOL0     H43019   9.624  10.113  11.730 -2.0624 -0.4732  0.0289
  312MOL0     H43020   9.819  10.209  11.708 -0.3251  1.3039 -0.6578
  312MOL0     H43021   9.890  10.158  11.847  0.1092 -3.1023 -0.4362
  312MOL0     H43022  10.104  10.163  11.770 -0.0520 -1.9916 -1.8859
  312MOL0     H43023  10.069  10.150  11.595 -3.5034  2.4344 -2.5975
  312MOL0     H43024   9.957  10.383  11.633 -0.6905  0.9752  2.1081
  312MOL0     H43025  10.129  10.348  11.568  1.2671  1.4682  0.9980
  312MOL0     H43026  10.198  10.358  11.819  0.6827  1.0080 -2.3814
  312MOL0     H43027  10.047  10.449  11.835 -1.7675 -0.6412 -1.4955
  312MOL0     H43028  10.264  10.575  11.780  0.8102 -2.4438  0.6824
  312MOL0     H43029  10.250  10.502  11.623 -1.2198 -0.6725  0.0396
  312MOL0     H43030  10.019  10.681  11.724  0.8283 -0.0346  0.7517
  312MOL0     H43031  10.069  10.648  11.556  1.3470 -0.1878 -0.3515
  312MOL0     H43032  10.293  10.782  11.654  0.7083  4.3604  1.3774
  312MOL0     H43033  10.171  10.824  11.783  1.2226 -2.0487  1.5707
  312MOL0     H43034  10.170  11.008  11.624  2.6307 -1.3057  0.9177
  312MOL0     H43035  10.029  10.912  11.602  0.0048  4.4505  1.2979
  312MOL0     H43036   9.853   9.766  11.628 -1.2925 -2.9890  0.5984
  312MOL0     H43037   9.637   9.622  11.625 -2.4559  0.3429 -1.1010
  312MOL0     H43038   9.342   9.498  11.640  0.0997 -0.4275  0.2750
  312MOL0     H43039   9.171   9.326  11.653  1.9559 -0.0355 -1.2744
  312MOL0     H43040   8.211  10.267  10.607  0.7508 -0.2107 -0.1957
  312MOL0     H43041   8.227  10.492  10.524  0.8859  0.6301 -0.2665
  312MOL0     H43042   8.017  10.875  10.444 -0.8022  0.6939 -0.5589
  312MOL0     H43043   8.068  11.113  10.421 -1.9433 -0.7983  0.4006
  312MOL0     H43044   8.283  11.357  10.127 -1.1184  0.4272  1.4234
  312MOL0     H43045   8.241  11.216  10.027 -3.5477 -0.4890 -0.2372
  312MOL0     H43046   7.991  11.306  10.075 -1.1141  2.0639  0.8269
  312MOL0     H43047   8.096  11.402   9.962  0.9100 -0.2781 -0.1996
  312MOL0     H43048   8.049  11.430  10.267  0.2426 -4.2824 -2.0614
  312MOL0     H43049   8.126  11.555  10.165  0.7024 -0.7297 -0.0247
  312MOL0     H43050   7.833  11.465  10.104 -1.8692  2.3347  1.7790
  312MOL0     H43051   7.937  11.589  10.034  0.3788  3.3813  1.9753
  312MOL0     H43052   7.745  11.821  10.299 -0.2457  0.8408 -0.6958
  312MOL0     H43053   8.267  11.015  10.039 -0.1819  2.5532  0.9191
  312MOL0     H43054   8.294  10.716  10.053 -0.7889  0.7475 -0.5133
  312MOL0     H43055   8.119  10.676  10.034 -2.2252  1.5327  2.4278
  312MOL0     H43056   8.206  10.799   9.937 -0.4859 -1.4519 -1.7469
  313MOL0     O43057   4.489   4.270   2.342 -0.5442 -0.0263  0.0097
  313MOL0     C43058   4.581   4.202   2.395  0.9728  0.1071 -0.0468
  313MOL0     O43059   4.656   4.255   2.499 -0.1526 -0.1479  0.3659
  313MOL0     C43060   4.599   4.370   2.551 -0.9405  0.6664  0.7107
  313MOL0     C43061   4.553   4.363   2.671 -0.2895  0.3397  0.3568
  313MOL0     C43062   4.518   4.482   2.743  0.5788  0.2037 -0.8279
  313MOL0     C43063   4.525   4.608   2.678 -1.1659 -0.4826  0.1549
  313MOL0     O43064   4.493   4.732   2.722  0.2996  0.3168 -0.4053
  313MOL0     C43065   4.432   4.740   2.850  0.0723 -0.0846  0.0129
  313MOL0     C43066   4.459   4.875   2.915 -0.0726  0.8651  0.7419
  313MOL0     C43067   4.605   4.918   2.939 -0.0012  0.5363  0.1274
  313MOL0     C43068   4.683   4.972   2.811  0.2291  0.4036 -1.2303
  313MOL0     C43069   4.812   5.051   2.831  0.0874 -0.7280 -0.4100
  313MOL0     C43070   4.820   5.144   2.952 -0.2327 -0.0265  0.0146
  313MOL0     C43071   4.953   5.227   2.932  0.4621  0.3099  1.1244
  313MOL0     C43072   5.086   5.144   2.950 -0.4300  0.7273 -0.5423
  313MOL0     N43073   5.116   5.092   3.085  0.2115  0.2834  0.8231
  313MOL0     C43074   5.061   5.131   3.198  0.2412 -0.0074  0.2573
  313MOL0     C43075   5.127   5.065   3.294 -0.7696 -0.3874 -0.6893
  313MOL0     C43076   5.115   5.093   3.440  0.6850  0.0933  0.3179
  313MOL0     C43077   5.084   4.972   3.536  0.6697  0.4216  0.5131
  313MOL0     C43078   4.941   4.917   3.515  0.4246 -0.5834 -0.5932
  313MOL0     C43079   4.918   4.782   3.586  0.7094  0.2038  0.4068
  313MOL0     O43080   5.037   4.697   3.581 -0.0121 -0.0805 -0.0226
  313MOL0     C43081   5.019   4.598   3.483  1.3254 -0.0769 -0.3297
  313MOL0     C43082   4.938   4.605   3.365  0.0046 -0.5419  0.5534
  313MOL0     C43083   4.938   4.503   3.275  0.4188  0.7736 -0.2530
  313MOL0     C43084   4.855   4.537   3.161  0.1777 -0.4788  0.4968
  313MOL0     C43085   5.007   4.375   3.302  0.1426 -0.8750 -0.0852
  313MOL0     C43086   4.971   4.247   3.242  0.3224 -0.5183  0.1877
  313MOL0     O43087   5.064   4.148   3.222  0.3513 -0.1629 -0.2974
  313MOL0     C43088   5.021   4.040   3.156  0.6448  1.0862  0.4722
  313MOL0     C43089   5.042   3.907   3.210 -0.2212 -0.0018  0.9106
  313MOL0     C43090   4.991   3.801   3.141 -0.7029 -0.2021  0.3783
  313MOL0     C43091   4.912   3.813   3.026  0.0017 -0.8451  0.0847
  313MOL0     O43092   4.869   3.692   2.972  0.2748  0.2654 -0.0643
  313MOL0     C43093   4.751   3.693   2.888  0.2202  0.1710  0.2736
  313MOL0     C43094   4.703   3.547   2.896  0.1878  0.2374 -0.4349
  313MOL0     C43095   4.769   3.462   2.800  0.0182 -0.8753  0.5789
  313MOL0     C43096   4.708   3.485   2.656  0.2994  0.8557  0.6593
  313MOL0     C43097   4.784   3.399   2.560 -0.8083  0.4315  0.2283
  313MOL0     C43098   4.927   3.456   2.551 -0.1203 -0.4183 -0.6441
  313MOL0     C43099   5.005   3.407   2.429  0.4887 -1.1534 -0.7271
  313MOL0     C43100   5.008   3.257   2.416 -0.5390  0.7396 -0.1893
  313MOL0    Cl43101   5.123   3.217   2.286 -0.4722 -0.0190  0.1263
  313MOL0     C43102   4.896   3.934   2.967 -1.0523  0.4707 -0.1463
  313MOL0     C43103   4.951   4.048   3.033 -0.8057 -0.0695  0.3361
  313MOL0     O43104   4.846   4.235   3.225 -0.5506 -0.2864  0.4908
  313MOL0     C43105   5.104   4.388   3.401 -0.6990 -0.2305 -1.1744
  313MOL0     C43106   5.111   4.494   3.492  1.0659  0.2838  0.2859
  313MOL0     N43107   5.226   4.992   3.243  0.2167  0.2679  0.8547
  313MOL0     N43108   5.218   5.009   3.114  0.3258  0.4291 -0.7672
  313MOL0     C43109   4.585   4.614   2.553  0.3606 -0.5812 -0.0590
  313MOL0     C43110   4.617   4.492   2.491  0.5000 -0.4483  0.7720
  313MOL0     C43111   4.609   4.064   2.334  0.0254 -0.1954 -1.0103
  313MOL0     C43112   4.543   4.023   2.220  0.1757 -0.2446  0.4449
  313MOL0     C43113   4.554   3.891   2.178  1.1200 -0.8281 -0.4165
  313MOL0     C43114   4.642   3.801   2.241 -0.0200 -0.0914  0.8777
  313MOL0     O43115   4.650   3.666   2.205  0.6254  0.8107  0.6399
  313MOL0     C43116   4.533   3.595   2.146 -0.1916 -0.0471 -1.3682
  313MOL0     C43117   4.411   3.598   2.250  0.6933  0.2636 -0.0065
  313MOL0     C43118   4.432   3.502   2.367  0.1646 -0.0376 -0.3544
  313MOL0     C43119   4.328   3.536   2.481 -0.2737 -0.1707  0.7628
  313MOL0     C43120   4.332   3.425   2.572  0.7066 -0.3133  0.9188
  313MOL0     C43121   4.323   3.323   2.634  0.1071 -0.8032 -0.5097
  313MOL0     C43122   4.713   3.848   2.348 -0.3869  0.4899  0.7543
  313MOL0     C43123   4.691   3.972   2.406 -0.0758 -0.4878  0.0488
  313MOL0     C43124   4.765   3.996   2.536 -0.5911  0.4012  0.3306
  313MOL0     H43125   4.527   4.277   2.732 -2.1982  1.0564  0.6426
  313MOL0     H43126   4.471   4.475   2.840  0.5562  1.2384 -0.7520
  313MOL0     H43127   4.471   4.659   2.913 -1.1711 -1.1484 -0.5270
  313MOL0     H43128   4.323   4.730   2.848 -0.0048  0.7274 -0.3245
  313MOL0     H43129   4.408   4.955   2.861 -2.0508 -0.8682 -0.0467
  313MOL0     H43130   4.418   4.845   3.012  2.8534 -2.2858  1.2251
  313MOL0     H43131   4.591   4.993   3.017 -2.2825 -1.8862  2.2891
  313MOL0     H43132   4.655   4.825   2.967 -0.4504  0.5095  0.8494
  313MOL0     H43133   4.694   4.890   2.740  1.0488 -0.1607 -0.4572
  313MOL0     H43134   4.605   5.031   2.761 -0.5499 -1.1829 -1.9507
  313MOL0     H43135   4.815   5.112   2.740 -2.9690 -0.6894 -0.5798
  313MOL0     H43136   4.891   4.976   2.844 -0.3712 -0.7799  3.1681
  313MOL0     H43137   4.733   5.210   2.950 -0.3558 -0.1778  0.3159
  313MOL0     H43138   4.818   5.093   3.049 -0.5650  3.3046  1.9259
  313MOL0     H43139   4.955   5.311   3.002 -0.2520  2.7432 -1.5611
  313MOL0     H43140   4.951   5.274   2.833  2.7239  1.0147  1.3561
  313MOL0     H43141   5.081   5.062   2.879  0.4056 -0.1415  0.3623
  313MOL0     H43142   5.165   5.209   2.912 -1.2488  0.5007 -2.7390
  313MOL0     H43143   4.991   5.213   3.217 -0.7509 -1.2973  2.6846
  313MOL0     H43144   5.050   5.178   3.462  2.6755  1.4344  1.2854
  313MOL0     H43145   5.214   5.132   3.463  2.6519 -2.9933 -2.1763
  313MOL0     H43146   5.157   4.890   3.534  0.6272  0.2647  2.9041
  313MOL0     H43147   5.087   5.008   3.639  3.5117  1.7237  0.0622
  313MOL0     H43148   4.865   4.983   3.556  0.2556 -1.1165 -0.0403
  313MOL0     H43149   4.907   4.913   3.411 -1.1318 -3.7344 -0.0791
  313MOL0     H43150   4.905   4.810   3.691  0.9075 -1.1138  0.8025
  313MOL0     H43151   4.829   4.728   3.554  1.1383 -0.4312  0.2604
  313MOL0     H43152   4.882   4.695   3.341  0.1054  0.3300  3.3292
  313MOL0     H43153   4.751   4.519   3.192 -0.0064 -0.4222 -0.0862
  313MOL0     H43154   4.867   4.459   3.086  0.7283 -2.6944  2.7536
  313MOL0     H43155   4.872   4.632   3.110  1.0548 -0.2907  1.1155
  313MOL0     H43156   5.092   3.880   3.302  3.7106 -2.1699 -1.5526
  313MOL0     H43157   5.005   3.702   3.184  0.5887  0.4809  1.6177
  313MOL0     H43158   4.674   3.767   2.914  0.6137  1.9368 -3.0368
  313MOL0     H43159   4.781   3.724   2.787 -0.3173  0.7970  0.2973
  313MOL0     H43160   4.710   3.510   2.999  0.9303 -1.1814 -0.9705
  313MOL0     H43161   4.597   3.561   2.871 -0.6357 -0.9231  2.0638
  313MOL0     H43162   4.751   3.357   2.823 -0.1697 -1.2517 -1.1220
  313MOL0     H43163   4.877   3.475   2.807 -0.0363 -0.5389  0.8227
  313MOL0     H43164   4.698   3.589   2.623 -1.5589  0.7268  0.6923
  313MOL0     H43165   4.605   3.452   2.640  0.2601  2.3137 -2.9954
  313MOL0     H43166   4.794   3.296   2.594  2.5722 -0.0852 -1.8458
  313MOL0     H43167   4.746   3.411   2.458 -3.3986 -0.5210  1.0088
  313MOL0     H43168   4.989   3.424   2.635 -0.3478  2.0169  0.5414
  313MOL0     H43169   4.929   3.564   2.561  1.4344 -0.6672  4.0033
  313MOL0     H43170   5.107   3.444   2.442 -0.1444 -0.0668  1.7439
  313MOL0     H43171   4.966   3.453   2.339 -3.5278  0.1606  1.4315
  313MOL0     H43172   4.909   3.225   2.382 -0.1345 -0.0216 -0.6975
  313MOL0     H43173   5.034   3.209   2.512  0.7664  1.6779 -0.0468
  313MOL0     H43174   4.849   3.923   2.870 -2.5448 -0.2900  0.6321
  313MOL0     H43175   4.948   4.144   2.984  1.3886 -0.4530 -0.6778
  313MOL0     H43176   5.162   4.301   3.428  0.2586  0.6718 -0.2335
  313MOL0     H43177   5.167   4.480   3.583  0.6552  0.3930  0.5572
  313MOL0     H43178   4.612   4.711   2.512 -2.1185  1.4641  2.6855
  313MOL0     H43179   4.666   4.502   2.394 -0.6470  0.4189  0.2625
  313MOL0     H43180   4.485   4.093   2.161 -1.0855 -2.7528 -1.4475
  313MOL0     H43181   4.504   3.876   2.083  0.1408  1.7308 -0.3978
  313MOL0     H43182   4.511   3.641   2.050  2.0971  1.5743 -1.2080
  313MOL0     H43183   4.561   3.489   2.139  2.8367  0.2318  2.6508
  313MOL0     H43184   4.319   3.575   2.195  1.1209 -2.4208  0.2812
  313MOL0     H43185   4.392   3.699   2.290 -2.3711  0.2973 -1.2394
  313MOL0     H43186   4.420   3.398   2.335 -3.2167  0.1126  0.1153
  313MOL0     H43187   4.537   3.501   2.397  0.5369  0.5535 -1.5718
  313MOL0     H43188   4.234   3.537   2.424 -0.9437  0.6587  1.8347
  313MOL0     H43189   4.337   3.632   2.534  0.5512 -0.4603  1.1598
  313MOL0     H43190   4.307   3.228   2.682  0.6118  1.0836  3.9031
  313MOL0     H43191   4.774   3.775   2.401 -0.7481 -0.6029 -0.2995
  313MOL0     H43192   4.832   4.081   2.521  1.7597 -1.0253  1.9779
  313MOL0     H43193   4.696   4.025   2.616  0.0311  1.8825  0.3696
  313MOL0     H43194   4.831   3.915   2.570  2.5649  2.4346 -0.5554
  314MOL0     O43195   5.813  10.138   2.978  0.0059 -0.5078  0.3528
  314MOL0     C43196   5.845  10.261   2.978 -0.4240  0.8019 -1.2607
  314MOL0     O43197   5.907  10.318   3.084  0.0220 -0.2786  0.1991
  314MOL0     C43198   5.975  10.256   3.181  0.1331  0.5844  1.0284
  314MOL0     C43199   5.958  10.293   3.309  0.4177 -0.3393 -0.2835
  314MOL0     C43200   6.013  10.217   3.421 -0.6165 -0.1070 -0.7041
  314MOL0     C43201   6.081  10.102   3.389  0.5074 -0.1190 -0.1534
  314MOL0     O43202   6.121  10.019   3.495  0.4231 -0.7151  0.5680
  314MOL0     C43203   6.082   9.886   3.473 -0.2622 -0.5867 -0.0287
  314MOL0     C43204   6.033   9.825   3.605 -0.0735 -0.3363  0.5360
  314MOL0     C43205   6.002   9.673   3.611  0.3511 -0.2484  0.4205
  314MOL0     C43206   5.891   9.626   3.712 -0.4194 -0.2590  0.4393
  314MOL0     C43207   5.851   9.476   3.700 -0.2156 -0.3013  0.0106
  314MOL0     C43208   5.768   9.433   3.829  0.9376 -0.7739  0.5082
  314MOL0     C43209   5.740   9.288   3.846  0.2625  0.8176  0.8906
  314MOL0     C43210   5.621   9.266   3.941 -0.1305 -0.0728  0.1413
  314MOL0     N43211   5.596   9.121   3.969  0.4106  0.0892 -0.6001
  314MOL0     C43212   5.682   9.014   3.976  0.7609 -0.8482 -0.0834
  314MOL0     C43213   5.596   8.916   4.018  0.3345 -0.0983 -0.5368
  314MOL0     C43214   5.623   8.773   4.051  0.1339  0.6989  0.1529
  314MOL0     C43215   5.623   8.678   3.919  1.1932  0.6303 -0.2363
  314MOL0     C43216   5.486   8.668   3.846  0.9370 -0.0042 -0.2324
  314MOL0     C43217   5.494   8.554   3.737  0.2658 -0.3359  0.0787
  314MOL0     O43218   5.357   8.533   3.682 -0.0152 -0.9163 -0.6613
  314MOL0     C43219   5.338   8.443   3.579  0.1228 -0.0229  0.2886
  314MOL0     C43220   5.437   8.375   3.513 -0.0124  1.8607  0.2721
  314MOL0     C43221   5.398   8.280   3.410  0.5920 -0.3146  0.8656
  314MOL0     C43222   5.514   8.219   3.337 -0.3646 -0.6200 -0.2966
  314MOL0     C43223   5.256   8.265   3.374 -0.1147  0.5815  0.2746
  314MOL0     C43224   5.205   8.170   3.274  0.8390 -0.8831  0.7437
  314MOL0     O43225   5.099   8.217   3.205  1.3245  0.2849  0.2680
  314MOL0     C43226   5.020   8.119   3.146 -0.5575 -0.5808  0.3725
  314MOL0     C43227   5.043   8.073   3.016  0.2710 -0.2760  0.6800
  314MOL0     C43228   4.968   7.964   2.965 -0.5412 -0.4059 -0.5842
  314MOL0     C43229   4.872   7.895   3.043 -2.1603  0.1083  0.4974
  314MOL0     O43230   4.828   7.789   2.972  0.3956  0.1575 -0.5479
  314MOL0     C43231   4.714   7.732   3.032 -0.2262  0.3980  0.4421
  314MOL0     C43232   4.632   7.644   2.938  0.4518  0.9567 -0.0629
  314MOL0     C43233   4.715   7.514   2.899 -0.5120  0.8163  0.2470
  314MOL0     C43234   4.673   7.454   2.758  0.2728 -0.4091  0.9235
  314MOL0     C43235   4.751   7.336   2.710 -0.9447  0.9495 -0.2524
  314MOL0     C43236   4.696   7.300   2.572 -0.5783 -0.3140  0.5275
  314MOL0     C43237   4.750   7.158   2.523  0.2608  0.1869 -0.4135
  314MOL0     C43238   4.753   7.135   2.366  0.2186  0.3518 -0.3544
  314MOL0    Cl43239   4.574   7.169   2.315 -0.4375 -0.0826  0.0784
  314MOL0     C43240   4.833   7.946   3.167  0.1467  0.1841  0.5702
  314MOL0     C43241   4.904   8.061   3.223 -0.6304 -0.1937  0.7597
  314MOL0     O43242   5.229   8.050   3.291 -0.6911 -0.2702  0.0485
  314MOL0     C43243   5.166   8.331   3.453 -0.1994 -0.5837  0.0122
  314MOL0     C43244   5.204   8.412   3.554 -0.5924 -0.6413 -0.7179
  314MOL0     N43245   5.465   8.961   4.013  0.6472 -0.3145  0.1257
  314MOL0     N43246   5.463   9.085   3.979 -0.3171 -0.3417 -0.0047
  314MOL0     C43247   6.098  10.068   3.256 -0.1287  0.7457 -0.2048
  314MOL0     C43248   6.054  10.146   3.149 -0.0725 -0.2664 -0.6534
  314MOL0     C43249   5.786  10.354   2.878 -0.3886 -0.1920  0.4875
  314MOL0     C43250   5.729  10.478   2.923 -0.7544 -0.5834 -0.7098
  314MOL0     C43251   5.661  10.559   2.836  0.0009  1.2146  0.5547
  314MOL0     C43252   5.653  10.531   2.705  0.7414  0.1650 -0.3789
  314MOL0     O43253   5.594  10.628   2.631 -0.1105 -0.6591 -0.9983
  314MOL0     C43254   5.542  10.590   2.506  0.7399 -0.0894 -0.4141
  314MOL0     C43255   5.628  10.651   2.394 -0.5262 -0.0755  0.0705
  314MOL0     C43256   5.627  10.809   2.396  0.8507  1.1237  0.1880
  314MOL0     C43257   5.657  10.872   2.256  0.3667  0.3255  0.1328
  314MOL0     C43258   5.613  11.015   2.260 -0.0886  0.1676  0.2821
  314MOL0     C43259   5.574  11.134   2.262 -0.0979 -0.3921 -0.0448
  314MOL0     C43260   5.715  10.422   2.654  0.1006  0.2257  0.5649
  314MOL0     C43261   5.774  10.327   2.737 -0.3924  0.2232  0.2221
  314MOL0     C43262   5.835  10.205   2.672 -0.1148  0.0086 -0.1135
  314MOL0     H43263   5.914  10.388   3.338 -1.2610 -1.6727  1.8446
  314MOL0     H43264   6.006  10.257   3.521  0.6970  0.9144 -0.9929
  314MOL0     H43265   6.165   9.837   3.421 -1.7704  0.6788 -4.0406
  314MOL0     H43266   6.006   9.872   3.395  0.4759 -3.4353 -0.3511
  314MOL0     H43267   6.118   9.842   3.672  1.0112  1.3917 -1.1939
  314MOL0     H43268   5.954   9.888   3.646  1.0201  2.7849 -1.7601
  314MOL0     H43269   5.976   9.635   3.512  1.2535 -0.4610  0.2600
  314MOL0     H43270   6.091   9.618   3.642  0.3094  0.2613  1.5057
  314MOL0     H43271   5.934   9.661   3.805  1.2797  0.6221 -0.6329
  314MOL0     H43272   5.797   9.674   3.684 -1.1387 -2.4840 -1.3416
  314MOL0     H43273   5.942   9.417   3.691  1.1606  1.7050  0.2691
  314MOL0     H43274   5.791   9.464   3.609  0.5224  1.2120 -0.7110
  314MOL0     H43275   5.815   9.474   3.919  1.2965  0.3840 -0.1887
  314MOL0     H43276   5.673   9.487   3.834  0.3645 -1.3805 -2.3928
  314MOL0     H43277   5.832   9.244   3.885  0.0431  0.6199  1.1846
  314MOL0     H43278   5.726   9.246   3.746 -0.6022  4.4843 -0.7339
  314MOL0     H43279   5.629   9.320   4.035 -4.3435  0.4247  0.3731
  314MOL0     H43280   5.532   9.306   3.892  0.3971  0.9058 -0.0504
  314MOL0     H43281   5.790   9.007   3.984  0.7900  0.4186  1.4142
  314MOL0     H43282   5.547   8.734   4.119  1.7509 -1.7927  0.6842
  314MOL0     H43283   5.715   8.778   4.111 -0.1095  0.1480  0.5793
  314MOL0     H43284   5.701   8.710   3.849  1.6796 -1.2211 -0.6121
  314MOL0     H43285   5.650   8.577   3.951  0.1686 -0.1319 -1.6556
  314MOL0     H43286   5.400   8.642   3.909 -0.2865 -0.8359 -2.1322
  314MOL0     H43287   5.468   8.758   3.787  0.7940  0.0061 -0.1738
  314MOL0     H43288   5.560   8.593   3.659  0.5895 -3.4217 -1.3227
  314MOL0     H43289   5.546   8.467   3.777  3.3172  0.7766 -1.1459
  314MOL0     H43290   5.543   8.372   3.538  0.3752  0.1579 -1.3362
  314MOL0     H43291   5.475   8.152   3.260 -2.8440  1.3600 -0.8925
  314MOL0     H43292   5.564   8.150   3.406  0.4219  0.4522  0.2400
  314MOL0     H43293   5.595   8.290   3.317 -1.3036  0.1517 -1.4702
  314MOL0     H43294   5.119   8.116   2.951  0.7392 -1.2840  0.5399
  314MOL0     H43295   4.999   7.936   2.865  2.0647 -1.4104  0.3992
  314MOL0     H43296   4.742   7.682   3.125 -1.2776  1.6654  1.4734
  314MOL0     H43297   4.645   7.810   3.064 -0.6335 -0.3153  1.3624
  314MOL0     H43298   4.532   7.631   2.980  1.2855 -0.2108  1.6834
  314MOL0     H43299   4.610   7.702   2.848  0.5346  1.9386  0.5365
  314MOL0     H43300   4.706   7.431   2.971 -0.5679 -1.2847 -2.0426
  314MOL0     H43301   4.821   7.538   2.888 -0.3430  0.9051  1.7611
  314MOL0     H43302   4.678   7.525   2.675  0.9052 -1.2930  0.1843
  314MOL0     H43303   4.569   7.425   2.771 -0.9085  3.7904  2.3665
  314MOL0     H43304   4.860   7.345   2.707 -0.8332 -0.4143 -1.6154
  314MOL0     H43305   4.729   7.253   2.778  0.9955  0.8981  0.3537
  314MOL0     H43306   4.737   7.380   2.510 -1.5995  1.4933  2.0898
  314MOL0     H43307   4.587   7.291   2.576 -0.4763 -2.3744  5.0596
  314MOL0     H43308   4.685   7.085   2.573 -0.6688  1.8446  0.9311
  314MOL0     H43309   4.850   7.141   2.564  0.4014 -3.3291 -1.8903
  314MOL0     H43310   4.785   7.034   2.340 -1.2539 -1.3298  3.5880
  314MOL0     H43311   4.823   7.206   2.322  4.6853  0.6735  5.8338
  314MOL0     H43312   4.752   7.897   3.220 -0.5340  2.2166  1.5367
  314MOL0     H43313   4.892   8.099   3.324  0.3863 -1.5472  1.4300
  314MOL0     H43314   5.062   8.300   3.446 -0.5483  0.3874  0.6511
  314MOL0     H43315   5.126   8.456   3.616  1.6767  0.3027  1.6786
  314MOL0     H43316   6.144   9.972   3.237 -2.5828 -0.3579 -0.8810
  314MOL0     H43317   6.073  10.115   3.046  3.2359 -1.2590  0.1171
  314MOL0     H43318   5.733  10.500   3.029 -3.6160 -2.9170  0.0094
  314MOL0     H43319   5.610  10.648   2.873  1.1025  0.7364  3.4369
  314MOL0     H43320   5.518  10.486   2.487 -2.6863  0.2779  1.1147
  314MOL0     H43321   5.453  10.652   2.494  1.3795  0.9898  0.1358
  314MOL0     H43322   5.580  10.606   2.306  2.1704 -3.7102  0.2264
  314MOL0     H43323   5.733  10.622   2.402  0.1171  2.0311 -0.0376
  314MOL0     H43324   5.527  10.833   2.433  0.7148  0.6305  0.1550
  314MOL0     H43325   5.691  10.845   2.477  0.7766  1.2221  0.2036
  314MOL0     H43326   5.595  10.820   2.182  0.5912 -0.1800  0.3029
  314MOL0     H43327   5.762  10.877   2.227  0.0477  2.0772 -0.8729
  314MOL0     H43328   5.549  11.238   2.260 -1.6314 -0.7178  0.3700
  314MOL0     H43329   5.714  10.402   2.547 -3.1757  0.7491  0.4114
  314MOL0     H43330   5.847  10.215   2.564 -0.7604 -0.2571 -0.2134
  314MOL0     H43331   5.929  10.187   2.725  0.0470  2.8040  0.7061
  314MOL0     H43332   5.761  10.128   2.696  0.3104 -0.6345 -0.8265
  315MOL0     O43333   8.865   3.225   7.422  0.0454  0.4422  0.0239
  315MOL0     C43334   8.979   3.185   7.458 -0.2187  0.1725 -0.3094
  315MOL0     O43335   9.011   3.135   7.582 -0.6243  0.4002 -0.2492
  315MOL0     C43336   8.912   3.140   7.683  0.0963 -1.2557  0.1389
  315MOL0     C43337   8.815   3.243   7.702 -0.3477  0.0696 -0.9623
  315MOL0     C43338   8.714   3.239   7.801  0.1605 -0.0554 -0.1168
  315MOL0     C43339   8.729   3.143   7.903 -0.1940  0.1554  0.2989
  315MOL0     O43340   8.651   3.167   8.012  0.6175  0.9517  0.3027
  315MOL0     C43341   8.689   3.110   8.143 -0.0135  0.3102  0.2353
  315MOL0     C43342   8.581   3.126   8.262 -0.9846  0.3391  1.3767
  315MOL0     C43343   8.579   3.277   8.305 -0.4972  0.6009 -0.3876
  315MOL0     C43344   8.509   3.293   8.428  0.0924 -1.4480  0.9185
  315MOL0     C43345   8.510   3.434   8.482  0.5201  0.0314 -0.5962
  315MOL0     C43346   8.436   3.435   8.626  0.1416  1.1857  0.3976
  315MOL0     C43347   8.479   3.552   8.712  0.0722 -1.0329 -0.0382
  315MOL0     C43348   8.377   3.584   8.825  0.2257  0.4654 -0.0727
  315MOL0     N43349   8.438   3.676   8.922 -1.2481 -0.6071 -0.5565
  315MOL0     C43350   8.507   3.627   9.036  0.6455  1.0999 -0.3485
  315MOL0     C43351   8.554   3.737   9.095 -0.4133  0.0996 -0.2478
  315MOL0     C43352   8.632   3.737   9.226  0.4065  0.4928  0.5717
  315MOL0     C43353   8.736   3.857   9.239  0.3835  0.0705 -0.5970
  315MOL0     C43354   8.665   3.996   9.259 -0.3278 -0.9366  0.4284
  315MOL0     C43355   8.764   4.094   9.315 -0.8382  0.2224  0.4376
  315MOL0     O43356   8.836   4.034   9.427  0.1645 -0.2345  0.1208
  315MOL0     C43357   8.923   4.117   9.504 -0.7308  0.0343 -0.3800
  315MOL0     C43358   8.915   4.255   9.503 -0.0936 -1.3622 -0.9824
  315MOL0     C43359   9.007   4.337   9.580 -0.4310 -0.4730 -0.6307
  315MOL0     C43360   8.989   4.487   9.562 -0.6413 -0.1279 -0.4981
  315MOL0     C43361   9.114   4.277   9.650  0.1539  0.1794  0.1082
  315MOL0     C43362   9.216   4.345   9.725 -0.6714 -0.4360  0.4848
  315MOL0     O43363   9.207   4.481   9.738  0.0308  0.3749 -0.2398
  315MOL0     C43364   9.326   4.558   9.729  0.5788 -0.5329  0.2877
  315MOL0     C43365   9.336   4.679   9.808  0.3472  0.2203  0.4763
  315MOL0     C43366   9.436   4.774   9.797  0.0432  0.8610  0.0246
  315MOL0     C43367   9.524   4.763   9.681  0.5667  0.7786  0.7787
  315MOL0     O43368   9.615   4.856   9.640 -0.5909 -0.2741 -0.4474
  315MOL0     C43369   9.630   4.978   9.711  0.3386  1.0183  0.6165
  315MOL0     C43370   9.550   5.088   9.644  0.8028  0.9104 -0.2663
  315MOL0     C43371   9.549   5.083   9.489  0.9405  0.9927  0.2598
  315MOL0     C43372   9.684   5.148   9.430  0.4360  0.6003  0.4291
  315MOL0     C43373   9.714   5.124   9.283 -0.1126 -0.0029  0.2168
  315MOL0     C43374   9.613   5.171   9.180 -0.0224  0.3629 -0.8313
  315MOL0     C43375   9.667   5.144   9.044  0.4727 -0.0231 -0.4401
  315MOL0     C43376   9.597   5.020   8.979  0.4054 -0.2086  0.3005
  315MOL0    Cl43377   9.434   5.071   8.922  0.0094 -0.0720 -0.4479
  315MOL0     C43378   9.523   4.650   9.604 -0.5099  0.8191 -0.2407
  315MOL0     C43379   9.430   4.549   9.628 -0.7983 -0.1190  0.6056
  315MOL0     O43380   9.313   4.277   9.771  0.6740 -0.1087 -0.3009
  315MOL0     C43381   9.120   4.136   9.652 -0.6047  0.0036 -0.2418
  315MOL0     C43382   9.029   4.053   9.580  0.8321 -0.1084  0.8515
  315MOL0     N43383   8.524   3.850   9.013  0.1036 -0.1844  0.0612
  315MOL0     N43384   8.450   3.812   8.910 -0.7221  0.1080  0.6227
  315MOL0     C43385   8.834   3.050   7.895  0.7916  0.7729 -0.2408
  315MOL0     C43386   8.926   3.048   7.789 -0.1775  0.3485 -0.8779
  315MOL0     C43387   9.088   3.206   7.360 -0.2996 -0.4745  0.2227
  315MOL0     C43388   9.218   3.174   7.400 -0.9862  0.0774  0.6330
  315MOL0     C43389   9.328   3.169   7.313  0.1160  0.3579 -0.5843
  315MOL0     C43390   9.307   3.226   7.183 -0.2184 -0.4524 -0.7828
  315MOL0     O43391   9.407   3.241   7.099 -0.9357 -0.0838 -0.3878
  315MOL0     C43392   9.504   3.337   7.146 -0.4175 -0.1983  0.1568
  315MOL0     C43393   9.648   3.313   7.100 -0.1721 -0.3073  0.0892
  315MOL0     C43394   9.675   3.268   6.959 -0.6112  0.2883  0.1681
  315MOL0     C43395   9.828   3.255   6.922  0.2941  0.2985  0.7505
  315MOL0     C43396   9.907   3.377   6.925  0.2913  0.1358 -0.1040
  315MOL0     C43397   9.962   3.478   6.957 -0.9291 -1.0000 -0.3112
  315MOL0     C43398   9.181   3.260   7.135 -0.9935  0.6096  0.1087
  315MOL0     C43399   9.073   3.251   7.220 -0.5503  1.2422  0.3731
  315MOL0     C43400   8.937   3.278   7.154 -0.2246 -0.1772  0.2782
  315MOL0     H43401   8.819   3.317   7.622  0.3404 -0.5666 -1.5369
  315MOL0     H43402   8.637   3.316   7.799 -2.2005 -2.1388 -4.1705
  315MOL0     H43403   8.780   3.162   8.173  1.8779 -0.0057 -4.1827
  315MOL0     H43404   8.700   3.001   8.145 -2.6715 -0.0283  0.2862
  315MOL0     H43405   8.480   3.088   8.242 -0.1708 -2.2049  1.6890
  315MOL0     H43406   8.620   3.071   8.347  3.3411 -1.6455 -1.5357
  315MOL0     H43407   8.679   3.321   8.307 -0.2609  0.0609  1.1194
  315MOL0     H43408   8.525   3.335   8.230 -1.1358  2.4934  1.4741
  315MOL0     H43409   8.406   3.261   8.412  0.2940 -2.3322  1.3376
  315MOL0     H43410   8.542   3.231   8.512 -0.1348 -1.6114  0.8877
  315MOL0     H43411   8.449   3.504   8.424 -0.5097 -0.0717  0.3521
  315MOL0     H43412   8.614   3.467   8.496  1.7647 -3.7909  0.5733
  315MOL0     H43413   8.331   3.412   8.611  0.8310 -0.6269 -2.3756
  315MOL0     H43414   8.487   3.356   8.682  0.4761  0.0549 -1.4395
  315MOL0     H43415   8.494   3.639   8.647 -0.7970 -0.8750 -0.0453
  315MOL0     H43416   8.577   3.534   8.756  0.6153 -2.1403 -1.6524
  315MOL0     H43417   8.286   3.624   8.780 -0.3271  1.3751  1.7533
  315MOL0     H43418   8.338   3.492   8.869  1.1017  0.3958  0.5980
  315MOL0     H43419   8.514   3.527   9.076 -0.4339  0.9424 -0.5238
  315MOL0     H43420   8.678   3.639   9.236 -0.3264  0.0883  0.1047
  315MOL0     H43421   8.557   3.741   9.306 -1.0961 -2.1438 -0.5742
  315MOL0     H43422   8.808   3.835   9.317 -1.2130  0.8674  1.1799
  315MOL0     H43423   8.797   3.865   9.148 -0.5193  3.7227 -1.0612
  315MOL0     H43424   8.641   4.030   9.158 -0.0052  1.2987  1.0423
  315MOL0     H43425   8.578   4.002   9.326  0.0345  2.5484  0.7943
  315MOL0     H43426   8.836   4.126   9.239 -1.1998 -0.4383 -0.2031
  315MOL0     H43427   8.709   4.184   9.344  0.9305  2.1489 -1.7686
  315MOL0     H43428   8.843   4.316   9.449  0.3110 -0.2709 -0.3307
  315MOL0     H43429   9.082   4.538   9.537 -0.0158 -0.1382  1.5731
  315MOL0     H43430   8.937   4.535   9.646  0.1654 -0.4892  0.2289
  315MOL0     H43431   8.922   4.502   9.478 -1.5372 -2.5597 -0.2794
  315MOL0     H43432   9.269   4.696   9.891  1.0202  0.3639  1.0023
  315MOL0     H43433   9.447   4.862   9.859 -0.4084  2.4138 -1.9845
  315MOL0     H43434   9.616   4.957   9.817  1.0018  1.1101  0.7289
  315MOL0     H43435   9.736   5.005   9.698 -0.0437  1.8548 -0.9239
  315MOL0     H43436   9.448   5.073   9.681 -0.3253  3.2802 -2.1129
  315MOL0     H43437   9.598   5.184   9.667  0.2796  2.2283 -3.9381
  315MOL0     H43438   9.468   5.141   9.443  0.0515 -1.4305 -1.4553
  315MOL0     H43439   9.537   4.980   9.456 -1.0307  1.2580  0.0105
  315MOL0     H43440   9.768   5.118   9.493  1.0031  1.2933  0.0187
  315MOL0     H43441   9.667   5.255   9.446  0.0341  0.6054 -0.0120
  315MOL0     H43442   9.809   5.174   9.260  1.2375 -3.5617 -3.0196
  315MOL0     H43443   9.746   5.021   9.269  1.5930  0.4250  0.6191
  315MOL0     H43444   9.593   5.278   9.192  1.5780  0.8418 -2.0867
  315MOL0     H43445   9.519   5.117   9.198  1.1208 -0.3601  4.8118
  315MOL0     H43446   9.774   5.126   9.037  0.3135 -0.9245 -0.6436
  315MOL0     H43447   9.646   5.228   8.977  3.4923 -0.6395 -2.3499
  315MOL0     H43448   9.595   4.942   9.056  1.6953  0.5712  1.1628
  315MOL0     H43449   9.659   4.997   8.892 -3.1032 -0.0305 -2.5166
  315MOL0     H43450   9.589   4.642   9.518 -0.2684 -2.3711  0.1074
  315MOL0     H43451   9.420   4.457   9.572  0.5457 -0.0596  0.2352
  315MOL0     H43452   9.191   4.079   9.711 -0.7500  2.9867  3.0805
  315MOL0     H43453   9.046   3.946   9.584  3.9588  0.1450 -1.7326
  315MOL0     H43454   8.854   2.974   7.970 -0.3238 -1.8016 -2.3698
  315MOL0     H43455   9.011   2.981   7.784  0.5292  0.8618  2.3737
  315MOL0     H43456   9.243   3.141   7.501  1.0169 -1.5889 -0.3524
  315MOL0     H43457   9.428   3.141   7.345 -0.9592  0.9776  3.8778
  315MOL0     H43458   9.479   3.432   7.097 -0.6247 -1.1508 -1.6582
  315MOL0     H43459   9.512   3.352   7.254  3.0089  4.6492 -0.4532
  315MOL0     H43460   9.692   3.233   7.162 -1.5148  1.2375  3.2771
  315MOL0     H43461   9.709   3.400   7.125  1.5770 -2.1537  2.9274
  315MOL0     H43462   9.625   3.171   6.950  0.6550 -0.4888  1.1940
  315MOL0     H43463   9.623   3.341   6.896 -1.0628  0.4708  0.7322
  315MOL0     H43464   9.846   3.208   6.825 -1.0265 -0.2583  0.7609
  315MOL0     H43465   9.876   3.180   6.985  0.3906 -1.0809 -0.8827
  315MOL0     H43466  10.023   3.561   6.988  1.3790 -2.1423 -1.4975
  315MOL0     H43467   9.173   3.305   7.037 -0.9106 -1.1672 -0.7584
  315MOL0     H43468   8.883   3.183   7.165  1.2769 -0.9831  0.9628
  315MOL0     H43469   8.885   3.355   7.211 -2.3293 -1.7733  0.6573
  315MOL0     H43470   8.949   3.315   7.052  2.0255  1.9549  1.2289
  316MOL0     O43471   8.451  10.034   7.114 -0.1798  0.0464  0.2982
  316MOL0     C43472   8.339  10.074   7.156  0.3488  0.2209 -0.2850
  316MOL0     O43473   8.227   9.998   7.188  0.2723 -0.0431  0.0815
  316MOL0     C43474   8.274   9.864   7.185  0.4686 -0.0076 -0.0289
  316MOL0     C43475   8.291   9.792   7.060 -0.4663 -0.0043 -0.2439
  316MOL0     C43476   8.342   9.661   7.068  0.3854  0.1261  0.0691
  316MOL0     C43477   8.376   9.598   7.191 -0.4127  0.1002  0.0035
  316MOL0     O43478   8.434   9.481   7.221 -0.1357  0.3390  0.7415
  316MOL0     C43479   8.355   9.375   7.278  1.0504  0.3419 -0.6393
  316MOL0     C43480   8.407   9.242   7.218  0.2125  0.4473  0.8403
  316MOL0     C43481   8.313   9.121   7.239  0.1609  0.0087 -0.1770
  316MOL0     C43482   8.360   8.983   7.192  0.6340 -0.1839 -0.4557
  316MOL0     C43483   8.371   8.962   7.044  0.7637  0.6553 -0.1612
  316MOL0     C43484   8.462   8.848   6.995 -0.8565 -0.0776  0.2854
  316MOL0     C43485   8.383   8.717   7.005 -0.1989  0.3180 -0.2783
  316MOL0     C43486   8.450   8.580   7.012 -0.9112 -0.6147  0.4378
  316MOL0     N43487   8.339   8.489   7.059  0.9701 -0.1381 -1.1037
  316MOL0     C43488   8.274   8.477   7.186  0.2605  0.0434  0.6047
  316MOL0     C43489   8.181   8.383   7.166  0.0598 -0.5163  0.7917
  316MOL0     C43490   8.075   8.338   7.261  1.3308  0.4749 -1.2638
  316MOL0     C43491   7.935   8.416   7.257 -0.9844  0.4393 -0.1466
  316MOL0     C43492   7.846   8.368   7.139 -0.0405 -0.4927  0.7413
  316MOL0     C43493   7.777   8.226   7.154 -0.1327  1.3245  0.3698
  316MOL0     O43494   7.673   8.223   7.255 -0.6238  0.1289  0.3556
  316MOL0     C43495   7.604   8.110   7.274  0.5302 -0.1870  1.1208
  316MOL0     C43496   7.510   8.106   7.372  0.9720 -0.1219 -0.6058
  316MOL0     C43497   7.428   7.995   7.406 -0.3424  1.1363 -0.2358
  316MOL0     C43498   7.356   7.988   7.540 -0.2837  0.3471 -0.3471
  316MOL0     C43499   7.443   7.876   7.326 -0.1837 -0.9578 -0.5685
  316MOL0     C43500   7.380   7.748   7.344  0.6693  0.4620  0.0238
  316MOL0     O43501   7.309   7.697   7.232 -0.3491 -0.0537  0.1552
  316MOL0     C43502   7.242   7.575   7.240  0.1988  0.8510 -0.6343
  316MOL0     C43503   7.118   7.572   7.192  0.4297  0.0952 -0.0852
  316MOL0     C43504   7.029   7.462   7.209 -1.0170 -0.1539 -0.5368
  316MOL0     C43505   7.084   7.342   7.246 -0.6658  0.3491  0.1428
  316MOL0     O43506   7.026   7.216   7.255  0.4020 -0.6331 -0.1575
  316MOL0     C43507   6.893   7.215   7.198  1.1813 -0.4007 -0.2158
  316MOL0     C43508   6.823   7.079   7.236  0.1315  1.1038  0.2337
  316MOL0     C43509   6.685   7.042   7.186 -0.0028 -0.1372  0.1505
  316MOL0     C43510   6.652   6.895   7.224  0.8507  0.1839  1.1008
  316MOL0     C43511   6.682   6.843   7.362  0.2473 -0.2249  0.2117
  316MOL0     C43512   6.661   6.697   7.397  0.1025  0.1120  0.5827
  316MOL0     C43513   6.684   6.678   7.550  0.6841  0.0886 -0.7308
  316MOL0     C43514   6.632   6.540   7.597 -0.8013  0.6344  0.2848
  316MOL0    Cl43515   6.732   6.422   7.523 -0.2180 -0.6463 -0.5726
  316MOL0     C43516   7.222   7.343   7.286  0.3187  0.1726  0.0866
  316MOL0     C43517   7.298   7.458   7.290  0.6216 -0.2825  0.1577
  316MOL0     O43518   7.376   7.697   7.449 -0.3297 -0.4450  0.7872
  316MOL0     C43519   7.528   7.887   7.216 -0.3624  0.1261 -0.5855
  316MOL0     C43520   7.609   7.997   7.188 -0.0688 -0.2746 -0.0832
  316MOL0     N43521   8.182   8.341   7.035 -0.5739 -0.3418 -0.4052
  316MOL0     N43522   8.270   8.409   6.980  0.6538 -0.3357  0.0331
  316MOL0     C43523   8.347   9.668   7.310  0.1729  0.1477 -0.7401
  316MOL0     C43524   8.281   9.792   7.299  0.2853 -0.5621 -0.1997
  316MOL0     C43525   8.322  10.223   7.128 -0.6720  0.8260 -0.0229
  316MOL0     C43526   8.188  10.265   7.111 -0.7899 -0.2053  0.2405
  316MOL0     C43527   8.154  10.401   7.086  0.0401  0.2258 -0.0967
  316MOL0     C43528   8.256  10.504   7.071  0.4068  0.5757 -0.1373
  316MOL0     O43529   8.236  10.641   7.052  0.2681 -0.3542  0.8696
  316MOL0     C43530   8.107  10.699   7.038 -0.4804 -1.0152 -0.3891
  316MOL0     C43531   8.066  10.751   7.173 -0.5205  0.0978 -0.4813
  316MOL0     C43532   7.994  10.642   7.260  0.3525 -0.4467  0.8148
  316MOL0     C43533   7.936  10.698   7.390  0.2548  0.3701 -0.7113
  316MOL0     C43534   8.044  10.753   7.486  0.0456  0.2816 -0.6096
  316MOL0     C43535   8.123  10.805   7.563 -0.1770 -0.9031 -1.1300
  316MOL0     C43536   8.391  10.461   7.086  0.4734 -0.0385 -0.3992
  316MOL0     C43537   8.431  10.323   7.124  0.6337 -0.1569 -0.5954
  316MOL0     C43538   8.582  10.299   7.141  0.2216 -0.8397 -0.3155
  316MOL0     H43539   8.259   9.834   6.965 -0.7753  1.8331  0.6265
  316MOL0     H43540   8.355   9.597   6.981 -0.1327 -0.4524  0.4115
  316MOL0     H43541   8.251   9.393   7.249  0.8420 -1.3336 -1.0218
  316MOL0     H43542   8.373   9.383   7.386 -1.9223 -0.1804 -0.0376
  316MOL0     H43543   8.426   9.259   7.112  1.6206  1.6174  1.2465
  316MOL0     H43544   8.503   9.216   7.265  0.0396 -1.2786  0.3108
  316MOL0     H43545   8.298   9.114   7.347  1.9911  1.4400  0.2215
  316MOL0     H43546   8.219   9.141   7.186 -0.7788  0.2720  1.5015
  316MOL0     H43547   8.452   8.949   7.240  0.1916 -0.8835 -0.0822
  316MOL0     H43548   8.288   8.916   7.241  1.2253  1.2105  2.5550
  316MOL0     H43549   8.414   9.055   7.006  0.2705  0.9407 -0.0297
  316MOL0     H43550   8.267   8.952   7.013 -0.3586  1.5619  2.9049
  316MOL0     H43551   8.505   8.868   6.896 -0.1115 -2.8718 -0.0374
  316MOL0     H43552   8.550   8.834   7.058  0.3097 -1.3056 -1.5183
  316MOL0     H43553   8.315   8.722   6.920 -0.4755 -0.4731 -0.1114
  316MOL0     H43554   8.314   8.726   7.090  0.9531  1.0555  0.6071
  316MOL0     H43555   8.499   8.543   6.921  1.8103 -0.5568  1.7825
  316MOL0     H43556   8.533   8.576   7.084 -0.5507  1.0269  0.1561
  316MOL0     H43557   8.291   8.531   7.278 -2.9905  1.0116  0.7803
  316MOL0     H43558   8.128   8.341   7.356 -0.0355 -0.1853 -0.4541
  316MOL0     H43559   8.053   8.231   7.250  2.1172  0.1959 -0.3084
  316MOL0     H43560   7.877   8.414   7.349 -0.3903 -3.8931  0.3373
  316MOL0     H43561   7.962   8.521   7.240  2.5997 -0.3920 -0.3921
  316MOL0     H43562   7.765   8.439   7.121 -0.3716 -1.4539 -2.2567
  316MOL0     H43563   7.910   8.353   7.051 -0.7668 -1.3896  0.3505
  316MOL0     H43564   7.735   8.218   7.054 -0.8798 -1.0629  0.8047
  316MOL0     H43565   7.849   8.146   7.173 -1.4429 -0.2849 -1.1598
  316MOL0     H43566   7.513   8.192   7.439  0.1729  0.0172 -0.7398
  316MOL0     H43567   7.330   8.091   7.566  4.4941  1.3045  1.7093
  316MOL0     H43568   7.409   7.947   7.626 -1.8986 -1.3138 -0.0783
  316MOL0     H43569   7.258   7.941   7.531  0.2937 -1.0564  0.2965
  316MOL0     H43570   7.079   7.668   7.161  0.5160  2.2947  5.4976
  316MOL0     H43571   6.927   7.462   7.172 -1.1073 -1.7471 -0.3340
  316MOL0     H43572   6.826   7.289   7.244  1.3761 -2.5291  3.9223
  316MOL0     H43573   6.907   7.240   7.093  0.2338 -2.0827 -0.7692
  316MOL0     H43574   6.890   7.004   7.192  1.2356  0.9096  2.1118
  316MOL0     H43575   6.823   7.060   7.344  0.5346 -0.7394 -0.0443
  316MOL0     H43576   6.683   7.061   7.078  0.0552  2.9533  0.6093
  316MOL0     H43577   6.606   7.102   7.232 -1.7580 -1.5740 -0.8547
  316MOL0     H43578   6.707   6.830   7.156  0.0865 -1.1405  1.7004
  316MOL0     H43579   6.548   6.884   7.193  1.0465  2.4340 -0.6243
  316MOL0     H43580   6.788   6.857   7.388  1.3062 -2.2148 -2.5605
  316MOL0     H43581   6.630   6.912   7.430  1.7878 -1.1745  2.5043
  316MOL0     H43582   6.722   6.623   7.345 -1.2086  0.6145 -1.8242
  316MOL0     H43583   6.559   6.677   7.363  0.4527  0.6397 -0.8828
  316MOL0     H43584   6.629   6.752   7.609  5.0040  1.1535  2.4336
  316MOL0     H43585   6.789   6.693   7.578  0.1598 -0.3098  1.6526
  316MOL0     H43586   6.532   6.516   7.560 -2.2864  1.3891  3.5083
  316MOL0     H43587   6.635   6.533   7.706 -1.9190 -1.8854  0.2304
  316MOL0     H43588   7.264   7.244   7.304 -1.2137 -0.2476  1.5933
  316MOL0     H43589   7.397   7.456   7.334  0.5462 -3.2444  0.3905
  316MOL0     H43590   7.526   7.817   7.133 -2.8367  1.1623 -1.5148
  316MOL0     H43591   7.686   7.999   7.113  1.6615 -0.5454  1.6079
  316MOL0     H43592   8.363   9.621   7.406 -0.4101 -2.5896 -1.8997
  316MOL0     H43593   8.259   9.851   7.387 -0.4704 -0.2722 -0.5683
  316MOL0     H43594   8.107  10.193   7.117  1.7034 -3.5389 -2.4008
  316MOL0     H43595   8.050  10.424   7.067  0.5151  0.9508 -2.1333
  316MOL0     H43596   8.118  10.777   6.963 -0.0727 -0.5516  0.1385
  316MOL0     H43597   8.030  10.630   7.002 -0.5249 -0.8246 -0.6599
  316MOL0     H43598   8.000  10.838   7.173 -0.4085  0.1897  0.1846
  316MOL0     H43599   8.156  10.783   7.227 -1.0070 -0.9167  0.9964
  316MOL0     H43600   7.914  10.595   7.203 -0.4090 -0.7903  2.1361
  316MOL0     H43601   8.067  10.566   7.288 -0.2984 -1.2625  0.3450
  316MOL0     H43602   7.886  10.612   7.435  2.5059 -0.3787  0.5188
  316MOL0     H43603   7.860  10.776   7.373 -0.7256 -0.4644 -0.2474
  316MOL0     H43604   8.195  10.848   7.629 -0.5017 -2.3302  0.2359
  316MOL0     H43605   8.472  10.532   7.079  2.9080 -2.2632  2.6555
  316MOL0     H43606   8.625  10.392   7.180  0.8067 -1.8378  1.5560
  316MOL0     H43607   8.599  10.215   7.210 -3.1574 -1.3625  0.0548
  316MOL0     H43608   8.638  10.267   7.053 -0.8711  1.8579 -2.1072
  317MOL0     O43609  11.174   0.495   9.560 -0.5430 -0.0903 -0.4787
  317MOL0     C43610  11.282   0.543   9.564  0.8576  0.3270  0.4007
  317MOL0     O43611  11.300   0.684   9.545  0.4777  0.1987 -0.4424
  317MOL0     C43612  11.199   0.773   9.536  0.6300 -0.4759 -0.3291
  317MOL0     C43613  11.198   0.882   9.627  0.4842 -0.5165  1.0892
  317MOL0     C43614  11.087   0.969   9.636  0.0786 -0.7506  0.4642
  317MOL0     C43615  10.982   0.962   9.539 -0.4119 -0.2453  0.0093
  317MOL0     O43616  10.889   1.066   9.551 -0.0071 -0.0435 -0.4154
  317MOL0     C43617  10.773   1.042   9.473  0.6649 -0.2059 -0.4404
  317MOL0     C43618  10.646   1.123   9.522 -0.0602  0.1664  0.0544
  317MOL0     C43619  10.687   1.255   9.560 -0.1439 -0.4740  0.6685
  317MOL0     C43620  10.571   1.340   9.622 -0.2481 -0.8269  0.3955
  317MOL0     C43621  10.594   1.479   9.673 -0.0830 -1.2170  0.1931
  317MOL0     C43622  10.715   1.487   9.765  0.8081  0.1353 -1.0310
  317MOL0     C43623  10.755   1.632   9.825 -0.9843 -0.2604 -0.9314
  317MOL0     C43624  10.773   1.741   9.715 -0.2030  0.3995 -0.6753
  317MOL0     N43625  10.887   1.833   9.758  0.1877 -0.5331  0.4848
  317MOL0     C43626  11.024   1.818   9.727 -0.2218  0.1943 -1.1937
  317MOL0     C43627  11.087   1.922   9.778 -0.7537 -0.6614  0.7607
  317MOL0     C43628  11.233   1.959   9.753  0.2030 -0.7772 -0.5683
  317MOL0     C43629  11.298   1.929   9.882 -0.1509 -0.0648  0.0516
  317MOL0     C43630  11.447   1.958   9.895 -0.2295 -1.1111  0.7825
  317MOL0     C43631  11.514   1.888  10.007 -0.4075 -0.0224  0.3375
  317MOL0     O43632  11.519   1.746   9.986 -0.1720 -0.2975 -0.1275
  317MOL0     C43633  11.606   1.663  10.045  0.7782  0.1935 -0.4092
  317MOL0     C43634  11.737   1.697  10.084 -1.3428 -0.2400  0.5116
  317MOL0     C43635  11.816   1.602  10.153 -0.4252 -0.1841  1.0073
  317MOL0     C43636  11.950   1.660  10.181 -0.1761  0.2379 -0.6047
  317MOL0     C43637  11.779   1.468  10.165 -0.0354  0.4866 -0.8168
  317MOL0     C43638  11.854   1.368  10.250  0.4427  0.7420 -0.0911
  317MOL0     O43639  11.822   1.240  10.217 -0.0006 -0.1559  0.8246
  317MOL0     C43640  11.884   1.138  10.286 -0.7653 -0.5169 -0.0821
  317MOL0     C43641  11.819   1.078  10.399  0.3795 -1.3224  0.3679
  317MOL0     C43642  11.899   1.005  10.490 -0.1533 -0.9972  0.1190
  317MOL0     C43643  12.029   0.966  10.456 -0.5894  0.8445 -0.5182
  317MOL0     O43644  12.091   0.859  10.528 -0.0023  0.4274  0.3096
  317MOL0     C43645  12.078   0.849  10.669  0.3866 -0.6172 -0.0653
  317MOL0     C43646  12.188   0.748  10.709  0.2457 -0.5027  0.1498
  317MOL0     C43647  12.174   0.707  10.855  0.0222 -1.0469  0.0412
  317MOL0     C43648  12.311   0.643  10.914 -0.5778  0.1130 -0.7438
  317MOL0     C43649  12.324   0.627  11.063  0.2300  0.0258 -0.4888
  317MOL0     C43650  12.443   0.540  11.118 -0.3613 -0.0820 -1.0058
  317MOL0     C43651  12.424   0.512  11.274 -0.3526  0.2865 -0.5580
  317MOL0     C43652  12.533   0.419  11.318 -0.7707 -0.2470 -0.0372
  317MOL0    Cl43653  12.496   0.249  11.271 -0.0872 -0.2365  0.1673
  317MOL0     C43654  12.095   1.008  10.340  0.1272  1.4192 -0.7540
  317MOL0     C43655  12.012   1.086  10.260 -0.8188 -0.2383 -0.0951
  317MOL0     O43656  11.935   1.398  10.342  0.9321  0.1187  0.0454
  317MOL0     C43657  11.645   1.437  10.129 -0.1416 -0.0594  0.3633
  317MOL0     C43658  11.561   1.529  10.068 -0.4382 -0.1859  0.4513
  317MOL0     N43659  10.989   2.003   9.838  0.5989  0.0299 -0.6013
  317MOL0     N43660  10.874   1.956   9.815 -0.0513 -0.9966  0.6953
  317MOL0     C43661  10.981   0.855   9.445 -0.9796 -0.3079  0.0944
  317MOL0     C43662  11.093   0.768   9.443 -0.1564  0.0110 -0.7357
  317MOL0     C43663  11.401   0.457   9.568 -0.4900  0.2568  0.5031
  317MOL0     C43664  11.532   0.507   9.532 -0.4950  0.9877 -0.3567
  317MOL0     C43665  11.647   0.428   9.540  0.3798 -0.9027  0.8382
  317MOL0     C43666  11.650   0.295   9.572 -0.2254  0.8432  0.5969
  317MOL0     O43667  11.772   0.228   9.566  1.1250  0.2711 -0.1186
  317MOL0     C43668  11.768   0.090   9.592  0.1733 -0.2528 -0.7309
  317MOL0     C43669  11.915   0.047   9.619  0.6046 -0.0315  0.4806
  317MOL0     C43670  11.973   0.125   9.728  0.6624 -0.2849  0.2034
  317MOL0     C43671  12.107   0.067   9.774  0.5593  0.2615  0.6802
  317MOL0     C43672  12.158   0.165   9.872 -0.1738  1.0110 -0.5989
  317MOL0     C43673  12.212   0.246   9.938  0.2455 -0.3587 -0.2424
  317MOL0     C43674  11.517   0.244   9.607  0.3223  0.6481  0.1571
  317MOL0     C43675  11.395   0.321   9.609 -0.9816 -0.1086  0.1292
  317MOL0     C43676  11.271   0.243   9.648 -0.7896 -0.5820 -0.1578
  317MOL0     H43677  11.262   0.893   9.715  1.6568  0.7851  0.1167
  317MOL0     H43678  11.074   1.056   9.701  0.3662  1.0409 -1.7361
  317MOL0     H43679  10.733   0.941   9.466 -3.1816  0.7957  3.0519
  317MOL0     H43680  10.813   1.072   9.375  3.6460  0.4017  0.8617
  317MOL0     H43681  10.590   1.133   9.429 -1.7184  1.2336  1.1220
  317MOL0     H43682  10.602   1.074   9.610 -1.1500  0.5223 -0.2837
  317MOL0     H43683  10.759   1.243   9.641  1.3606 -0.2568 -0.6053
  317MOL0     H43684  10.722   1.310   9.473 -3.9432  0.0168 -0.7681
  317MOL0     H43685  10.483   1.346   9.557  0.4624  2.4918 -0.4980
  317MOL0     H43686  10.542   1.284   9.710  1.6679 -0.6913  1.1523
  317MOL0     H43687  10.503   1.517   9.720 -0.9920  0.1915 -2.4901
  317MOL0     H43688  10.614   1.550   9.592 -0.6054  1.3903  2.2423
  317MOL0     H43689  10.694   1.419   9.848 -2.1395  1.4276 -0.5902
  317MOL0     H43690  10.801   1.441   9.717  2.1422  0.8399  0.5744
  317MOL0     H43691  10.845   1.623   9.886 -1.8802 -1.8513  0.2594
  317MOL0     H43692  10.669   1.673   9.878 -0.2112  3.5516 -2.3348
  317MOL0     H43693  10.792   1.707   9.613 -0.3904 -1.8388 -0.0292
  317MOL0     H43694  10.675   1.790   9.710 -0.0418  0.6469 -1.5020
  317MOL0     H43695  11.069   1.725   9.694 -0.1966  0.0031 -0.6234
  317MOL0     H43696  11.233   2.063   9.720 -0.2250 -2.0654 -5.3894
  317MOL0     H43697  11.285   1.913   9.668  3.9757  0.2239  0.9690
  317MOL0     H43698  11.242   1.996   9.948 -2.2343 -1.0292 -0.6330
  317MOL0     H43699  11.277   1.827   9.915  1.7173 -1.7338 -3.3672
  317MOL0     H43700  11.504   1.917   9.810 -1.1349 -0.0795 -0.3630
  317MOL0     H43701  11.465   2.065   9.912  3.3194 -1.2289 -1.0938
  317MOL0     H43702  11.612   1.934  10.016 -1.3121  2.1867 -0.4720
  317MOL0     H43703  11.463   1.913  10.101  2.3240  0.4259  1.7823
  317MOL0     H43704  11.765   1.799  10.060  1.4333 -0.7592  1.2936
  317MOL0     H43705  11.940   1.725  10.268 -1.2591 -1.0534  0.2708
  317MOL0     H43706  12.001   1.717  10.103  2.7613 -1.2588  0.1117
  317MOL0     H43707  12.020   1.583  10.211 -0.5856 -0.3716 -1.1783
  317MOL0     H43708  11.713   1.095  10.414  0.3349 -0.2026 -1.0414
  317MOL0     H43709  11.843   0.972  10.577 -0.2380  1.2463  0.9972
  317MOL0     H43710  12.102   0.935  10.732 -0.9533 -2.0319  2.5313
  317MOL0     H43711  11.984   0.816  10.715  1.2346  2.5428  4.7142
  317MOL0     H43712  12.177   0.660  10.646 -3.0115 -1.1529  1.4058
  317MOL0     H43713  12.288   0.791  10.698 -0.1771 -0.0268 -2.6078
  317MOL0     H43714  12.098   0.629  10.863 -0.7794 -0.1596  1.5673
  317MOL0     H43715  12.150   0.792  10.919  0.7980 -0.7544 -0.0546
  317MOL0     H43716  12.401   0.693  10.878  1.4684 -2.5426  0.3910
  317MOL0     H43717  12.322   0.545  10.866  1.1869  0.2171 -0.6153
  317MOL0     H43718  12.337   0.728  11.103 -0.8738  1.3491 -3.2510
  317MOL0     H43719  12.226   0.582  11.079  0.5727 -0.8712 -0.8738
  317MOL0     H43720  12.532   0.601  11.101  0.7676 -0.0513  3.6784
  317MOL0     H43721  12.444   0.441  11.071 -0.4811 -1.5504  1.8417
  317MOL0     H43722  12.329   0.464  11.301 -0.1700 -0.6446 -1.4977
  317MOL0     H43723  12.423   0.602  11.336 -3.4579  0.8016 -1.1549
  317MOL0     H43724  12.547   0.420  11.427 -3.1449 -3.9416  0.4983
  317MOL0     H43725  12.629   0.447  11.275 -0.2527 -3.7457 -1.4673
  317MOL0     H43726  12.195   0.972  10.318 -0.6972  0.0924 -2.6154
  317MOL0     H43727  12.058   1.121  10.168 -0.2236  0.1440  0.3449
  317MOL0     H43728  11.610   1.336  10.146 -1.4059  0.6516  2.4014
  317MOL0     H43729  11.465   1.508  10.023 -0.8304  4.2524 -1.3436
  317MOL0     H43730  10.897   0.853   9.377 -2.4300 -1.6027  1.8176
  317MOL0     H43731  11.083   0.690   9.369 -1.5591  0.4998 -1.1042
  317MOL0     H43732  11.537   0.612   9.505  0.6616  1.0334 -0.0341
  317MOL0     H43733  11.750   0.459   9.523  1.1123 -3.8157 -0.5769
  317MOL0     H43734  11.710   0.064   9.681  2.3979  0.2117  0.9412
  317MOL0     H43735  11.734   0.043   9.499  2.7924  2.4749 -3.3249
  317MOL0     H43736  11.976   0.065   9.530  1.8123  1.6199  1.5693
  317MOL0     H43737  11.928  -0.059   9.643  1.4572  0.2105  1.1438
  317MOL0     H43738  11.987   0.224   9.684 -1.9782 -0.1725 -0.5391
  317MOL0     H43739  11.908   0.142   9.814  0.1674 -0.5155 -0.1187
  317MOL0     H43740  12.172   0.053   9.687  0.2739 -2.2662  0.7860
  317MOL0     H43741  12.080  -0.031   9.814 -0.3627 -0.2608 -1.1256
  317MOL0     H43742  12.263   0.321   9.997  1.6804 -0.3544 -1.4146
  317MOL0     H43743  11.513   0.139   9.635 -0.4646 -0.2261 -2.8524
  317MOL0     H43744  11.189   0.305   9.686  0.2943  0.8634 -0.0952
  317MOL0     H43745  11.234   0.175   9.571  0.3265 -0.9770 -0.3575
  317MOL0     H43746  11.303   0.182   9.733 -1.6149  2.2525  2.3510
  318MOL0     O43747   0.491   3.349   5.728  0.0741 -0.3346 -0.1732
  318MOL0     C43748   0.503   3.264   5.647  0.1089  0.7730 -0.1378
  318MOL0     O43749   0.480   3.132   5.664 -0.3167 -1.3634  0.4605
  318MOL0     C43750   0.436   3.096   5.783 -0.1634  0.2712  0.2259
  318MOL0     C43751   0.306   3.114   5.828 -0.4770 -0.2144  0.3175
  318MOL0     C43752   0.272   3.055   5.951 -0.2333  0.1654  0.2171
  318MOL0     C43753   0.365   2.979   6.020 -0.3639  1.1929 -0.1228
  318MOL0     O43754   0.317   2.913   6.139 -0.1776  0.1774  0.0770
  318MOL0     C43755   0.430   2.867   6.217 -0.0417 -0.4097  0.4471
  318MOL0     C43756   0.383   2.836   6.360 -0.3007  0.2169  0.4466
  318MOL0     C43757   0.492   2.771   6.456  0.4035 -1.2282  0.1536
  318MOL0     C43758   0.617   2.865   6.483 -0.1466 -0.5157  0.0701
  318MOL0     C43759   0.722   2.806   6.587 -0.3531 -0.5461  0.2511
  318MOL0     C43760   0.846   2.891   6.594  0.8805  0.3966  0.0566
  318MOL0     C43761   0.958   2.848   6.691 -0.3298  0.0805 -0.0405
  318MOL0     C43762   1.055   2.966   6.719  0.8554 -0.5470  0.5047
  318MOL0     N43763   1.111   3.046   6.611  0.7130 -0.3926 -0.0877
  318MOL0     C43764   1.154   3.011   6.485 -0.4660 -0.0992 -0.6857
  318MOL0     C43765   1.194   3.129   6.432 -0.2230 -0.3336 -0.1627
  318MOL0     C43766   1.268   3.140   6.305 -0.3647  0.4486  0.0066
  318MOL0     C43767   1.424   3.132   6.315 -0.2869 -0.0740  1.2327
  318MOL0     C43768   1.501   3.269   6.300 -0.3898  0.5870 -0.2529
  318MOL0     C43769   1.489   3.339   6.175  0.7549 -0.6133  0.3721
  318MOL0     O43770   1.583   3.443   6.161  0.2045  0.3108  1.1997
  318MOL0     C43771   1.602   3.504   6.040 -0.0660  0.4580  0.1847
  318MOL0     C43772   1.503   3.495   5.934 -0.1036 -0.0187 -0.2317
  318MOL0     C43773   1.517   3.566   5.816  0.9182 -0.1826  0.2886
  318MOL0     C43774   1.390   3.587   5.732  0.2112  0.0173 -0.1431
  318MOL0     C43775   1.646   3.622   5.786 -0.0795  0.7683 -0.1031
  318MOL0     C43776   1.669   3.678   5.652  0.0131  0.2130 -0.3054
  318MOL0     O43777   1.627   3.599   5.554  0.2033  0.1198  1.0879
  318MOL0     C43778   1.598   3.649   5.426 -0.3901 -0.1854 -0.3381
  318MOL0     C43779   1.514   3.761   5.434  0.1045  0.3915  0.7998
  318MOL0     C43780   1.477   3.813   5.315  0.0171 -0.8537 -0.1245
  318MOL0     C43781   1.533   3.769   5.193  0.6939 -0.2638 -0.3337
  318MOL0     O43782   1.505   3.821   5.071  0.0517 -0.2510 -0.5946
  318MOL0     C43783   1.416   3.938   5.072  0.4064 -0.3819  0.7090
  318MOL0     C43784   1.415   3.984   4.924 -0.3839  1.0621  1.0768
  318MOL0     C43785   1.306   4.088   4.888 -0.0962 -1.0567 -0.5201
  318MOL0     C43786   1.300   4.106   4.726 -0.0598 -0.4131 -0.4273
  318MOL0     C43787   1.195   4.198   4.682 -0.8417  0.5981  0.3492
  318MOL0     C43788   1.250   4.341   4.702 -0.1106  0.3284 -0.0751
  318MOL0     C43789   1.361   4.391   4.605  0.1595 -0.1204 -0.2464
  318MOL0     C43790   1.402   4.534   4.659 -0.6949 -0.5103  1.4226
  318MOL0    Cl43791   1.478   4.540   4.819 -0.1523  0.0345 -0.2159
  318MOL0     C43792   1.618   3.658   5.191  0.2432  0.4338  0.8853
  318MOL0     C43793   1.649   3.592   5.311  0.0566  0.2707  0.4340
  318MOL0     O43794   1.731   3.787   5.641  0.0627 -0.1505  0.3691
  318MOL0     C43795   1.736   3.643   5.892  0.0980  1.1232 -0.6471
  318MOL0     C43796   1.714   3.577   6.015  0.0189 -0.4677 -0.3323
  318MOL0     N43797   1.154   3.235   6.509  0.1481 -0.3442  0.7292
  318MOL0     N43798   1.107   3.186   6.617 -0.0348 -1.3372  0.0014
  318MOL0     C43799   0.489   2.939   5.965 -0.3838  0.4194  0.6837
  318MOL0     C43800   0.521   3.000   5.845 -0.4294  0.5020  0.7396
  318MOL0     C43801   0.549   3.289   5.512  0.4091 -0.4859 -0.4544
  318MOL0     C43802   0.640   3.190   5.454 -0.1047 -0.0268 -0.3609
  318MOL0     C43803   0.692   3.207   5.325 -0.3323  0.6408  0.4664
  318MOL0     C43804   0.653   3.315   5.253 -0.5697 -1.3707 -0.1086
  318MOL0     O43805   0.687   3.333   5.124  0.9521  0.4136 -0.0148
  318MOL0     C43806   0.826   3.310   5.081  0.1721 -0.3130 -0.1120
  318MOL0     C43807   0.883   3.409   4.983 -0.3302 -0.1254 -0.9137
  318MOL0     C43808   0.804   3.403   4.854  0.4667 -0.7205 -0.5878
  318MOL0     C43809   0.825   3.537   4.784  0.5393 -0.2418 -0.5542
  318MOL0     C43810   0.767   3.538   4.647 -0.1767  0.1922  0.8446
  318MOL0     C43811   0.725   3.527   4.533 -0.0640 -0.1961  0.3785
  318MOL0     C43812   0.567   3.416   5.305  0.8993 -0.8158 -0.1554
  318MOL0     C43813   0.509   3.399   5.431  0.3511 -0.7355  1.0762
  318MOL0     C43814   0.395   3.503   5.470 -0.3886 -0.1753  0.0375
  318MOL0     H43815   0.241   3.176   5.766 -0.3979 -1.3336 -0.9239
  318MOL0     H43816   0.182   3.068   6.010 -0.9954  3.8970 -1.4727
  318MOL0     H43817   0.508   2.943   6.226 -0.9406  0.9657 -2.2940
  318MOL0     H43818   0.466   2.773   6.177 -1.4110 -0.9383  0.3863
  318MOL0     H43819   0.347   2.927   6.409 -1.0559  0.8078 -1.1276
  318MOL0     H43820   0.300   2.765   6.356  0.5225 -0.8031  1.0948
  318MOL0     H43821   0.434   2.760   6.548  0.9105  0.3400  0.6963
  318MOL0     H43822   0.517   2.671   6.420  2.8814 -0.7201  0.3042
  318MOL0     H43823   0.676   2.888   6.394  1.8926 -0.6809  1.3161
  318MOL0     H43824   0.582   2.956   6.534 -1.5147  0.7137 -2.8503
  318MOL0     H43825   0.765   2.713   6.547 -0.2572  0.1344 -1.2725
  318MOL0     H43826   0.684   2.779   6.686  0.1102 -0.4878  0.4479
  318MOL0     H43827   0.895   2.894   6.496 -1.8030 -3.3619 -1.6389
  318MOL0     H43828   0.797   2.985   6.620 -0.4099 -0.6498  1.6331
  318MOL0     H43829   0.996   2.749   6.662 -1.3914  0.5297 -3.4189
  318MOL0     H43830   0.910   2.826   6.787 -0.8663 -1.9179 -0.7167
  318MOL0     H43831   0.986   3.030   6.776 -1.2823 -0.6007 -1.8523
  318MOL0     H43832   1.137   2.930   6.782  2.8991 -3.7906 -3.5086
  318MOL0     H43833   1.153   2.905   6.462  4.3126 -0.6597  0.7560
  318MOL0     H43834   1.247   3.231   6.249 -1.7348  0.3953  0.3906
  318MOL0     H43835   1.243   3.056   6.239  1.2064  1.2693 -1.7123
  318MOL0     H43836   1.451   3.086   6.411 -0.0020 -0.4719  0.9649
  318MOL0     H43837   1.461   3.060   6.242 -1.5564  0.4719  0.0085
  318MOL0     H43838   1.472   3.334   6.383  2.2687  0.5343  0.8120
  318MOL0     H43839   1.607   3.246   6.315 -0.0899  2.5583  0.9800
  318MOL0     H43840   1.503   3.262   6.099  0.5354  0.5722 -0.9145
  318MOL0     H43841   1.392   3.389   6.169  0.2817 -1.6249 -0.6724
  318MOL0     H43842   1.408   3.449   5.958  0.2312 -0.1037  1.0163
  318MOL0     H43843   1.400   3.690   5.697  1.6409  0.8872  2.5705
  318MOL0     H43844   1.306   3.574   5.801  0.8340  0.4477  0.7177
  318MOL0     H43845   1.385   3.525   5.642  1.8487  0.2764 -0.4493
  318MOL0     H43846   1.463   3.786   5.527 -0.4803 -1.2701  0.9716
  318MOL0     H43847   1.409   3.897   5.319  0.3368 -0.3522 -3.2644
  318MOL0     H43848   1.316   3.923   5.112 -0.9879  0.5178 -2.1261
  318MOL0     H43849   1.465   4.011   5.137  2.2217 -1.8014  1.0218
  318MOL0     H43850   1.506   4.036   4.893  0.3177 -0.7928 -0.0934
  318MOL0     H43851   1.395   3.892   4.868  0.4969  0.9221  0.9761
  318MOL0     H43852   1.334   4.185   4.930 -1.7427  0.4962 -2.7305
  318MOL0     H43853   1.206   4.073   4.930 -1.6176  1.4547 -2.8456
  318MOL0     H43854   1.275   4.010   4.680 -3.9948 -0.1213  0.7505
  318MOL0     H43855   1.407   4.117   4.705  0.3706  0.2476  1.8449
  318MOL0     H43856   1.172   4.195   4.575  1.8064 -1.0714 -0.2464
  318MOL0     H43857   1.109   4.168   4.743  0.7217 -1.7452  1.5368
  318MOL0     H43858   1.283   4.360   4.804  0.2748 -0.4334 -0.0529
  318MOL0     H43859   1.167   4.412   4.687  1.8287  2.1849 -3.3663
  318MOL0     H43860   1.322   4.404   4.503 -2.6825 -2.4349  0.4183
  318MOL0     H43861   1.443   4.320   4.619 -0.1318 -0.5056 -0.4604
  318MOL0     H43862   1.319   4.605   4.664 -2.3056 -2.3924  4.1938
  318MOL0     H43863   1.474   4.554   4.579 -0.5690 -3.8826  0.5325
  318MOL0     H43864   1.653   3.620   5.096 -0.5601  0.9746  0.3642
  318MOL0     H43865   1.714   3.507   5.323 -1.4880 -0.8635  1.1389
  318MOL0     H43866   1.831   3.693   5.874 -0.5363  1.7811 -2.3568
  318MOL0     H43867   1.785   3.592   6.096 -0.0466  4.3146 -0.8868
  318MOL0     H43868   0.562   2.871   6.008 -0.7993 -1.5464 -1.5297
  318MOL0     H43869   0.620   2.975   5.808 -0.3794  0.9698  0.5543
  318MOL0     H43870   0.661   3.097   5.505  2.8480  1.3881  1.3186
  318MOL0     H43871   0.761   3.133   5.285 -2.7992 -2.7164  1.8442
  318MOL0     H43872   0.894   3.315   5.166  4.0300 -0.4365 -2.9589
  318MOL0     H43873   0.827   3.211   5.035  0.9260 -0.5496  0.3886
  318MOL0     H43874   0.984   3.372   4.967 -0.3439 -2.3623  3.0372
  318MOL0     H43875   0.883   3.507   5.030 -0.9558 -0.9483  0.8755
  318MOL0     H43876   0.837   3.315   4.798  0.4737 -1.6103  0.7523
  318MOL0     H43877   0.698   3.396   4.876  1.1171 -1.5872  2.9329
  318MOL0     H43878   0.931   3.562   4.769  0.8356 -0.8217  0.4388
  318MOL0     H43879   0.780   3.619   4.842 -0.3814 -1.2159  0.1380
  318MOL0     H43880   0.701   3.550   4.431  0.9451 -1.1087 -0.0891
  318MOL0     H43881   0.544   3.495   5.234  0.8595  0.1096  0.8600
  318MOL0     H43882   0.375   3.564   5.381  0.7745  3.3398  1.9875
  318MOL0     H43883   0.300   3.452   5.488 -1.9935  2.7464  0.3549
  318MOL0     H43884   0.428   3.565   5.554  0.2756 -0.3674 -0.0702
  319MOL0     O43885   0.873   8.935   1.890 -0.3963 -0.2376 -0.7411
  319MOL0     C43886   0.895   8.959   2.004  0.6573 -0.0082 -0.6309
  319MOL0     O43887   0.802   8.932   2.109  0.0259  0.4861  0.1134
  319MOL0     C43888   0.689   8.869   2.076 -0.0564 -0.1185 -0.2724
  319MOL0     C43889   0.682   8.732   2.057  0.1642  0.2076  1.0137
  319MOL0     C43890   0.559   8.665   2.027  0.5757 -0.4509  0.1652
  319MOL0     C43891   0.437   8.736   2.007  0.0121 -0.7171  0.1499
  319MOL0     O43892   0.326   8.665   1.969  0.0303  0.5224 -0.6449
  319MOL0     C43893   0.223   8.736   1.907 -0.3339 -0.3162  1.2411
  319MOL0     C43894   0.161   8.650   1.806  0.4491 -0.2523  0.0328
  319MOL0     C43895   0.049   8.734   1.747  1.2770  0.1156  0.3921
  319MOL0     C43896  -0.005   8.694   1.608 -0.8006  0.1607 -0.2447
  319MOL0     C43897  -0.131   8.773   1.556 -0.8860  0.8228  0.0086
  319MOL0     C43898  -0.119   8.923   1.561  0.5942 -0.0333 -0.8665
  319MOL0     C43899  -0.224   8.999   1.490 -0.5841 -0.4660 -0.3487
  319MOL0     C43900  -0.194   9.145   1.506 -0.2264  0.4288 -0.0457
  319MOL0     N43901  -0.312   9.229   1.515  1.5951 -0.5564 -0.0035
  319MOL0     C43902  -0.404   9.258   1.411 -0.3037  0.6770 -0.2806
  319MOL0     C43903  -0.490   9.352   1.465 -0.1582 -0.2842 -0.6348
  319MOL0     C43904  -0.602   9.436   1.410 -0.8325 -0.3764  0.4544
  319MOL0     C43905  -0.722   9.352   1.368 -0.0280 -1.0575  0.0633
  319MOL0     C43906  -0.698   9.300   1.236 -0.2965 -0.1737  1.0043
  319MOL0     C43907  -0.818   9.225   1.184 -1.4144  0.1813 -0.6441
  319MOL0     O43908  -0.921   9.317   1.153 -0.1878  1.1919 -1.2673
  319MOL0     C43909  -1.049   9.269   1.178 -0.0466 -0.2326  0.9571
  319MOL0     C43910  -1.092   9.140   1.141  0.4998 -0.1609  0.1878
  319MOL0     C43911  -1.223   9.096   1.160  0.1151 -0.6982  0.3291
  319MOL0     C43912  -1.257   8.961   1.120  0.6142  0.7172 -0.8029
  319MOL0     C43913  -1.322   9.187   1.208 -0.0607  0.2713 -0.4635
  319MOL0     C43914  -1.463   9.142   1.203 -0.1740 -0.0641  0.3492
  319MOL0     O43915  -1.510   9.053   1.304 -0.0330  0.1699 -0.1288
  319MOL0     C43916  -1.637   9.022   1.308  0.6249 -0.1708 -0.4205
  319MOL0     C43917  -1.721   9.089   1.391  0.5598  0.2369 -0.7345
  319MOL0     C43918  -1.855   9.051   1.407 -0.4481 -0.8075  0.0895
  319MOL0     C43919  -1.902   8.941   1.337  0.3185  0.3173 -0.2975
  319MOL0     O43920  -2.036   8.914   1.360 -0.4711 -0.4527  0.2802
  319MOL0     C43921  -2.109   8.800   1.314 -0.4327 -1.1401 -0.1712
  319MOL0     C43922  -2.053   8.678   1.382 -0.0782  0.1446  0.3044
  319MOL0     C43923  -2.163   8.576   1.381 -0.2139 -0.7641 -0.0385
  319MOL0     C43924  -2.109   8.435   1.399  0.3932  0.3367 -0.7701
  319MOL0     C43925  -2.205   8.342   1.474 -0.3079  0.1873 -0.3466
  319MOL0     C43926  -2.148   8.207   1.497  0.8860  0.0416  0.0110
  319MOL0     C43927  -2.255   8.122   1.584 -1.3142 -0.2098  0.3038
  319MOL0     C43928  -2.220   7.979   1.602  0.4042 -0.2176  0.7905
  319MOL0    Cl43929  -2.038   7.956   1.640 -0.5990 -0.3255 -0.0220
  319MOL0     C43930  -1.827   8.875   1.242  0.1334  0.5568 -0.3346
  319MOL0     C43931  -1.689   8.911   1.238 -0.2931  0.6168 -0.4295
  319MOL0     O43932  -1.541   9.199   1.122 -0.6587  0.6264  0.6976
  319MOL0     C43933  -1.275   9.312   1.258  1.2513  0.3842  0.5533
  319MOL0     C43934  -1.141   9.352   1.245 -0.5199 -0.4256  0.4716
  319MOL0     N43935  -0.452   9.373   1.599 -0.5791 -0.5498  1.0069
  319MOL0     N43936  -0.338   9.311   1.623  0.5597 -0.3186 -0.8443
  319MOL0     C43937   0.453   8.875   2.019  0.3586 -0.4156 -0.5578
  319MOL0     C43938   0.575   8.941   2.054 -0.0519 -0.4614  0.2625
  319MOL0     C43939   1.026   9.031   2.025 -0.4547  0.3875  1.2761
  319MOL0     C43940   1.125   9.020   1.920  0.7354  0.6769 -0.1145
  319MOL0     C43941   1.245   9.081   1.928  0.9499  0.5291 -0.2613
  319MOL0     C43942   1.272   9.175   2.021  0.4550  1.1821 -0.1958
  319MOL0     O43943   1.397   9.242   2.013 -0.0474 -0.2283  0.0691
  319MOL0     C43944   1.412   9.381   2.062  0.7049 -0.5694 -0.0651
  319MOL0     C43945   1.454   9.375   2.210  0.1132 -0.2304  0.4859
  319MOL0     C43946   1.536   9.494   2.251 -0.7783 -0.1181 -0.9189
  319MOL0     C43947   1.683   9.451   2.285  0.2067 -0.0371  0.3144
  319MOL0     C43948   1.751   9.425   2.153 -0.0519 -0.5239 -0.6004
  319MOL0     C43949   1.824   9.415   2.063 -0.1470  0.0382  0.0504
  319MOL0     C43950   1.174   9.197   2.124 -0.2592 -0.1265 -0.2060
  319MOL0     C43951   1.055   9.123   2.128 -0.0529  0.0155 -0.9782
  319MOL0     C43952   0.955   9.169   2.227 -0.4881 -0.2650  0.3588
  319MOL0     H43953   0.765   8.666   2.080  0.4077  1.5036  4.3590
  319MOL0     H43954   0.555   8.558   2.013  0.5919 -0.6976  1.7997
  319MOL0     H43955   0.257   8.834   1.872  1.1407 -0.2283  2.7515
  319MOL0     H43956   0.157   8.756   1.991 -0.6199  0.9126  0.7420
  319MOL0     H43957   0.233   8.636   1.724  2.1497  0.4859  1.3309
  319MOL0     H43958   0.120   8.560   1.853  0.1323 -0.0319  0.1834
  319MOL0     H43959  -0.031   8.739   1.822 -0.3734  2.7255 -1.4077
  319MOL0     H43960   0.087   8.836   1.739 -2.1645  1.4882  0.2748
  319MOL0     H43961   0.076   8.717   1.538  1.1160  2.5233  2.4960
  319MOL0     H43962  -0.033   8.589   1.607  3.3941 -1.3176 -5.5684
  319MOL0     H43963  -0.206   8.751   1.633 -1.9617  0.0124 -1.2387
  319MOL0     H43964  -0.148   8.735   1.455 -1.0432 -0.3444  0.4522
  319MOL0     H43965  -0.130   8.950   1.667 -0.4382 -2.8710 -0.1383
  319MOL0     H43966  -0.026   8.966   1.524  2.9911 -3.1096  1.1037
  319MOL0     H43967  -0.319   8.960   1.528  0.7046 -2.4733  0.9952
  319MOL0     H43968  -0.234   8.977   1.383  0.6774 -0.6667 -0.4397
  319MOL0     H43969  -0.129   9.161   1.593 -3.9837  3.2043  2.5950
  319MOL0     H43970  -0.138   9.183   1.420  0.6880  0.6785  0.6357
  319MOL0     H43971  -0.409   9.214   1.312  2.0235 -0.4567  0.0517
  319MOL0     H43972  -0.566   9.495   1.325 -1.5016 -0.1120  0.3500
  319MOL0     H43973  -0.625   9.504   1.493 -1.6059 -1.8824  1.5289
  319MOL0     H43974  -0.745   9.270   1.437 -3.0069  0.6688  1.3038
  319MOL0     H43975  -0.810   9.417   1.365  0.8387  0.3208  2.1516
  319MOL0     H43976  -0.684   9.385   1.169  0.0443  0.1959  1.5423
  319MOL0     H43977  -0.617   9.227   1.235  2.0502  2.2710  0.3671
  319MOL0     H43978  -0.795   9.169   1.093  0.0676  2.3066 -1.6430
  319MOL0     H43979  -0.844   9.154   1.263 -2.4686 -0.3813 -1.4646
  319MOL0     H43980  -1.021   9.073   1.093 -1.1926 -1.1525 -1.0244
  319MOL0     H43981  -1.324   8.906   1.185 -0.5844 -1.4798 -3.6895
  319MOL0     H43982  -1.174   8.890   1.120 -1.5078 -1.9171 -0.9955
  319MOL0     H43983  -1.300   8.975   1.021  1.3740 -0.0849 -1.2645
  319MOL0     H43984  -1.681   9.168   1.454  0.2502 -1.7648  2.1635
  319MOL0     H43985  -1.918   9.111   1.472  0.5462 -1.2725  1.5333
  319MOL0     H43986  -2.211   8.828   1.342  1.1516  4.0968  1.5019
  319MOL0     H43987  -2.101   8.777   1.207 -2.4641 -1.7480 -0.2423
  319MOL0     H43988  -1.965   8.630   1.338 -0.2402  0.3211 -0.2262
  319MOL0     H43989  -2.024   8.702   1.485 -0.5467  0.1617  0.4354
  319MOL0     H43990  -2.216   8.585   1.286  2.8198  0.5991 -1.7317
  319MOL0     H43991  -2.227   8.601   1.467 -1.0720  0.3319 -0.9596
  319MOL0     H43992  -2.028   8.447   1.471 -1.6235  3.3106  1.2324
  319MOL0     H43993  -2.069   8.395   1.305  1.9739 -1.6103  0.6574
  319MOL0     H43994  -2.238   8.400   1.562 -2.1149 -0.5552 -0.4898
  319MOL0     H43995  -2.294   8.328   1.411 -0.0596 -1.2088 -0.4124
  319MOL0     H43996  -2.054   8.216   1.551  0.3010 -0.2893  1.1264
  319MOL0     H43997  -2.147   8.150   1.404 -3.1272 -2.8288  1.4051
  319MOL0     H43998  -2.350   8.132   1.532 -0.2131 -0.0985 -1.7883
  319MOL0     H43999  -2.264   8.166   1.684 -0.4340 -0.2610  0.4123
  319MOL0     H44000  -2.230   7.917   1.513  1.2076 -0.2098  0.6907
  319MOL0     H44001  -2.276   7.942   1.689  1.5222 -1.6151  0.9661
  319MOL0     H44002  -1.879   8.803   1.179  0.2441  0.8594 -0.7810
  319MOL0     H44003  -1.632   8.862   1.160 -1.2663  1.9907 -2.0846
  319MOL0     H44004  -1.337   9.382   1.313  2.3670  1.0879  0.9545
  319MOL0     H44005  -1.102   9.446   1.282  0.0746  0.5910 -2.4751
  319MOL0     H44006   0.370   8.943   2.004 -1.4182 -1.5327  3.1385
  319MOL0     H44007   0.578   9.049   2.052  0.6592 -0.4950 -0.8632
  319MOL0     H44008   1.106   8.955   1.835 -0.7423 -1.0475  1.4431
  319MOL0     H44009   1.329   9.076   1.860  2.6331  0.2730  1.7189
  319MOL0     H44010   1.486   9.436   2.004  2.2596  0.7663  2.9781
  319MOL0     H44011   1.322   9.440   2.046  1.6799  1.4632  1.5160
  319MOL0     H44012   1.506   9.283   2.238  0.7182  0.7111  2.7415
  319MOL0     H44013   1.360   9.378   2.267 -1.2334 -2.6532 -1.4016
  319MOL0     H44014   1.542   9.570   2.172 -0.2171  0.2550 -0.5216
  319MOL0     H44015   1.496   9.533   2.345  0.5859 -0.8693  0.0004
  319MOL0     H44016   1.677   9.358   2.342 -0.8266 -0.7718 -0.9287
  319MOL0     H44017   1.731   9.534   2.337  1.1140  0.2605 -0.9365
  319MOL0     H44018   1.899   9.411   1.986  0.8883  2.4529  0.8559
  319MOL0     H44019   1.187   9.264   2.208 -1.3882 -0.4266  0.2298
  319MOL0     H44020   0.991   9.236   2.307 -3.3852  2.6032 -0.5281
  319MOL0     H44021   0.876   9.232   2.185  0.1330  0.2665 -0.0448
  319MOL0     H44022   0.906   9.080   2.266 -1.4283 -0.6797 -1.6540
  320MOL0     O44023   1.298  10.099   0.983 -0.1201 -0.6440 -0.9017
  320MOL0     C44024   1.419  10.111   0.966 -0.7392 -0.0237 -0.0992
  320MOL0     O44025   1.516  10.087   1.064 -0.2647  0.2627  0.0910
  320MOL0     C44026   1.483  10.057   1.193  0.4930 -0.8831  0.8238
  320MOL0     C44027   1.439  10.163   1.285 -0.4776  0.2189  1.2676
  320MOL0     C44028   1.415  10.142   1.415 -0.9543 -0.2800 -0.0946
  320MOL0     C44029   1.450  10.024   1.472  1.0098  1.2763 -0.8592
  320MOL0     O44030   1.444  10.017   1.608 -0.3124  0.2107 -0.8324
  320MOL0     C44031   1.521   9.915   1.678 -0.1795 -1.0433  1.4114
  320MOL0     C44032   1.522   9.946   1.829 -0.6255 -0.0216  1.0092
  320MOL0     C44033   1.376   9.942   1.884 -0.3245  0.0905  0.5313
  320MOL0     C44034   1.377   9.897   2.022 -0.0656 -0.0941  0.0929
  320MOL0     C44035   1.236   9.880   2.073 -0.0103 -1.3650 -0.7749
  320MOL0     C44036   1.164  10.017   2.101  0.8916 -0.3695  0.3813
  320MOL0     C44037   1.053   9.993   2.199  0.1973  0.2760 -0.2887
  320MOL0     C44038   0.934   9.910   2.155 -1.2041  0.1939  0.3383
  320MOL0     N44039   0.823   9.984   2.087  0.1153 -0.2618  1.1233
  320MOL0     C44040   0.739  10.073   2.136  0.6553  0.1955 -0.6409
  320MOL0     C44041   0.668  10.117   2.032  0.2417 -1.7358  0.4539
  320MOL0     C44042   0.544  10.198   2.037  0.9205  0.2771  0.1763
  320MOL0     C44043   0.541  10.311   2.148 -0.0857 -0.0430 -0.1895
  320MOL0     C44044   0.505  10.451   2.099  0.3156 -0.6211  0.4313
  320MOL0     C44045   0.467  10.554   2.207  0.2079 -1.2089  0.4930
  320MOL0     O44046   0.572  10.562   2.310 -0.2675  0.3117  0.4226
  320MOL0     C44047   0.550  10.637   2.416  0.1317 -0.3164  0.1084
  320MOL0     C44048   0.629  10.608   2.522  0.1262 -0.2869 -0.2491
  320MOL0     C44049   0.613  10.667   2.658  0.3259  0.6240  0.8291
  320MOL0     C44050   0.695  10.607   2.768 -0.5021  0.6904 -0.5910
  320MOL0     C44051   0.521  10.771   2.675  0.3457 -0.5562 -0.7010
  320MOL0     C44052   0.491  10.839   2.799  0.9432 -0.5713 -0.6242
  320MOL0     O44053   0.591  10.851   2.882  0.3890 -0.2313 -0.3094
  320MOL0     C44054   0.572  10.878   3.016  0.2032  0.0231  0.0019
  320MOL0     C44055   0.641  10.978   3.082 -0.7516  0.4022 -0.4949
  320MOL0     C44056   0.619  10.992   3.220  0.1242  0.5724 -0.2463
  320MOL0     C44057   0.531  10.910   3.292 -1.0232  0.3523 -0.4088
  320MOL0     O44058   0.515  10.932   3.424 -0.2705  0.9587 -0.5662
  320MOL0     C44059   0.383  10.927   3.473  0.1122 -0.0438  0.6245
  320MOL0     C44060   0.374  10.971   3.622 -0.6456 -0.7484  0.3196
  320MOL0     C44061   0.368  11.124   3.641  0.3372 -0.1929  0.5685
  320MOL0     C44062   0.275  11.175   3.759  0.2999  0.3076 -0.3605
  320MOL0     C44063   0.296  11.326   3.775  0.1613 -0.2167  0.6329
  320MOL0     C44064   0.220  11.393   3.887  0.0158 -0.2725 -0.8879
  320MOL0     C44065   0.208  11.546   3.870  0.5182  0.6467  1.3035
  320MOL0     C44066   0.126  11.618   3.966 -0.0954  0.0934 -0.1373
  320MOL0    Cl44067  -0.040  11.598   3.915 -0.3385  0.6871 -0.8033
  320MOL0     C44068   0.461  10.804   3.220  0.5730 -0.2075  0.5261
  320MOL0     C44069   0.489  10.788   3.088  0.7186 -0.6625 -0.2547
  320MOL0     O44070   0.377  10.888   2.816 -0.6918  0.3857  1.1533
  320MOL0     C44071   0.440  10.794   2.556  0.5073 -0.0697 -0.7772
  320MOL0     C44072   0.457  10.736   2.433  0.3774  0.1646  0.3726
  320MOL0     N44073   0.723  10.070   1.913  0.3825  0.3527 -0.2276
  320MOL0     N44074   0.814   9.989   1.947 -0.6193  0.8233  1.0118
  320MOL0     C44075   1.494   9.919   1.391  0.1686 -0.1482 -0.3120
  320MOL0     C44076   1.511   9.935   1.252 -0.6253 -0.1618 -0.2645
  320MOL0     C44077   1.486  10.146   0.831 -0.1450 -0.0835 -1.1788
  320MOL0     C44078   1.620  10.188   0.828 -0.5709  1.2248 -0.3783
  320MOL0     C44079   1.693  10.223   0.713 -0.2480 -0.8291  0.7387
  320MOL0     C44080   1.632  10.202   0.583 -0.9061 -0.0979  0.2978
  320MOL0     O44081   1.691  10.219   0.465 -0.5278  0.0741  0.5338
  320MOL0     C44082   1.828  10.272   0.444  0.0144  0.1661  0.2438
  320MOL0     C44083   1.855  10.269   0.291  0.2859 -0.7046 -0.0965
  320MOL0     C44084   1.964  10.377   0.248  0.9781  1.1216 -0.2494
  320MOL0     C44085   1.921  10.440   0.106  0.5060  0.1586 -0.3491
  320MOL0     C44086   2.015  10.546   0.075 -0.1190  0.5346  0.5378
  320MOL0     C44087   2.094  10.635   0.045 -0.0635  0.1341 -0.5691
  320MOL0     C44088   1.501  10.150   0.586 -0.1726  1.5412 -0.6813
  320MOL0     C44089   1.424  10.136   0.706 -0.5125  0.7341 -0.0983
  320MOL0     C44090   1.282  10.094   0.687 -0.0343  0.5637  0.8253
  320MOL0     H44091   1.423  10.256   1.232 -0.8125 -1.6361 -2.1720
  320MOL0     H44092   1.391  10.223   1.482  0.6699  0.7445 -0.7149
  320MOL0     H44093   1.622   9.915   1.638 -0.2664  0.0043  1.1383
  320MOL0     H44094   1.466   9.823   1.656 -3.8979  1.3176 -0.3090
  320MOL0     H44095   1.585   9.873   1.881 -1.4351 -1.5971 -0.1289
  320MOL0     H44096   1.576  10.038   1.853 -2.1423  0.5348  2.4160
  320MOL0     H44097   1.329  10.039   1.870 -0.5946 -0.0431  0.4981
  320MOL0     H44098   1.323   9.867   1.824 -0.6225 -0.5987  1.6233
  320MOL0     H44099   1.446   9.813   2.030  2.0831  1.6438  0.5962
  320MOL0     H44100   1.417   9.977   2.084 -0.3235  1.3955 -1.5772
  320MOL0     H44101   1.243   9.815   2.161  1.3887 -0.5163 -0.2271
  320MOL0     H44102   1.176   9.827   1.999 -0.0243 -0.0558 -1.7325
  320MOL0     H44103   1.231  10.101   2.121  0.4309  0.9852 -3.1333
  320MOL0     H44104   1.115  10.036   2.006 -1.7007 -2.5158  1.1717
  320MOL0     H44105   1.014  10.089   2.233 -0.4398  0.5038 -1.6183
  320MOL0     H44106   1.086   9.943   2.291  1.5006  1.5169 -0.0533
  320MOL0     H44107   0.974   9.825   2.099 -1.0685 -0.8018  1.8974
  320MOL0     H44108   0.885   9.869   2.244  2.5273 -0.1708  2.4667
  320MOL0     H44109   0.714  10.079   2.242  2.6520  1.0588 -0.1708
  320MOL0     H44110   0.454  10.142   2.061  2.5961 -2.2053  0.9932
  320MOL0     H44111   0.546  10.240   1.936  1.6108  1.1300  0.5343
  320MOL0     H44112   0.459  10.286   2.216  0.7806  1.1460  1.3534
  320MOL0     H44113   0.630  10.302   2.210  0.9181 -2.6350 -1.8406
  320MOL0     H44114   0.588  10.495   2.043 -1.9120  2.0186 -1.0903
  320MOL0     H44115   0.423  10.441   2.027  1.8871  2.1828 -2.0013
  320MOL0     H44116   0.456  10.647   2.149 -0.8820 -0.6399  1.5561
  320MOL0     H44117   0.366  10.529   2.243 -0.8259  0.5449 -0.9657
  320MOL0     H44118   0.719  10.551   2.506  1.7158  2.1147 -0.3245
  320MOL0     H44119   0.624  10.574   2.844 -0.2534  0.9584 -0.2360
  320MOL0     H44120   0.770  10.681   2.799  0.8310 -0.7780 -0.1446
  320MOL0     H44121   0.741  10.513   2.736  0.6526  0.3327  1.8412
  320MOL0     H44122   0.716  11.043   3.036  1.1029 -0.1119  1.5863
  320MOL0     H44123   0.665  11.078   3.269 -1.1765  2.4664 -2.1358
  320MOL0     H44124   0.316  10.988   3.411  1.1948  0.6067  0.0440
  320MOL0     H44125   0.327  10.833   3.466  0.1931  0.0208 -2.6502
  320MOL0     H44126   0.285  10.926   3.666  0.5957 -1.1791  2.5693
  320MOL0     H44127   0.459  10.934   3.681 -2.2234  1.5640  4.4127
  320MOL0     H44128   0.318  11.154   3.548 -1.2516 -2.4984  0.5934
  320MOL0     H44129   0.468  11.169   3.647  0.6562 -0.3811 -1.9243
  320MOL0     H44130   0.297  11.120   3.852  0.8056  3.3716  1.4661
  320MOL0     H44131   0.168  11.169   3.740  0.7096 -2.2167 -2.4047
  320MOL0     H44132   0.403  11.343   3.785  0.3090 -0.1585 -0.8249
  320MOL0     H44133   0.263  11.377   3.684 -0.3782 -2.3476 -0.4329
  320MOL0     H44134   0.267  11.367   3.982  3.2626  1.2774 -1.9066
  320MOL0     H44135   0.117  11.357   3.891  0.0415 -0.4848  3.6777
  320MOL0     H44136   0.172  11.567   3.769  0.0669 -2.0025  0.8466
  320MOL0     H44137   0.306  11.593   3.858  0.5682  0.3206  0.2866
  320MOL0     H44138   0.156  11.723   3.964 -0.8138  0.3014 -0.0686
  320MOL0     H44139   0.144  11.584   4.069  0.4032 -0.1204 -0.2903
  320MOL0     H44140   0.383  10.736   3.252 -0.7838 -0.8732 -3.6240
  320MOL0     H44141   0.432  10.713   3.033 -2.5486  1.7916 -0.5109
  320MOL0     H44142   0.359  10.864   2.573  1.6175  0.5714  2.8729
  320MOL0     H44143   0.375  10.757   2.364 -2.6905 -4.1533  2.2709
  320MOL0     H44144   1.544   9.835   1.438 -1.0048 -0.4435  0.4450
  320MOL0     H44145   1.549   9.852   1.194 -0.9963 -0.2080 -0.4372
  320MOL0     H44146   1.665  10.193   0.927 -1.6582 -2.3633  0.4436
  320MOL0     H44147   1.789  10.271   0.723 -0.8537  0.7273 -0.5795
  320MOL0     H44148   1.842  10.376   0.476  0.2218  0.9094 -2.0407
  320MOL0     H44149   1.901  10.213   0.499 -0.7858 -0.0382  1.1061
  320MOL0     H44150   1.763  10.276   0.231  0.4432  1.3579 -0.1743
  320MOL0     H44151   1.891  10.169   0.265  2.8533  0.9478 -3.7461
  320MOL0     H44152   1.974  10.462   0.317 -0.7480  0.5304  0.8031
  320MOL0     H44153   2.062  10.327   0.247  0.3016 -0.3649  1.2214
  320MOL0     H44154   1.824  10.491   0.104  1.6108  2.6932  2.3588
  320MOL0     H44155   1.928  10.361   0.031  0.8635 -0.4206  0.2832
  320MOL0     H44156   2.173  10.702   0.017  0.5090 -0.8359 -1.3493
  320MOL0     H44157   1.455  10.108   0.496  3.9758 -1.0573 -1.8854
  320MOL0     H44158   1.277   9.984   0.684  1.1844  0.4170 -3.6819
  320MOL0     H44159   1.221  10.139   0.765  2.6933  2.9727  1.7453
  320MOL0     H44160   1.241  10.124   0.590  0.2031 -3.1864 -0.5970
  321MOL0     O44161   1.030   5.903   5.147  0.1776  0.3210  0.0223
  321MOL0     C44162   1.066   5.799   5.094  0.9281  0.6691  0.3609
  321MOL0     O44163   1.148   5.790   4.982 -0.3645  0.1236  0.3955
  321MOL0     C44164   1.202   5.906   4.934 -0.9602  0.2332 -0.0693
  321MOL0     C44165   1.334   5.949   4.948 -0.6200 -0.4285 -1.1558
  321MOL0     C44166   1.381   6.067   4.893 -0.4669  0.2142  0.3204
  321MOL0     C44167   1.293   6.150   4.818  0.5117 -0.4279  1.1386
  321MOL0     O44168   1.323   6.257   4.736 -0.5850  0.0042  0.1261
  321MOL0     C44169   1.464   6.282   4.728 -0.5658  0.2504  0.4871
  321MOL0     C44170   1.483   6.387   4.619  0.4952  0.5526 -0.6551
  321MOL0     C44171   1.623   6.432   4.627  0.6603  0.6392 -1.1624
  321MOL0     C44172   1.660   6.532   4.521 -0.1360  0.4181  0.1646
  321MOL0     C44173   1.817   6.575   4.529  0.9007  0.0885 -0.3390
  321MOL0     C44174   1.829   6.703   4.447 -0.4755  0.6798  0.2137
  321MOL0     C44175   1.972   6.760   4.455  0.0194 -0.0591  0.1221
  321MOL0     C44176   1.996   6.839   4.586 -0.0247 -0.7848 -0.9247
  321MOL0     N44177   2.135   6.896   4.562  0.1255  0.3426 -0.1738
  321MOL0     C44178   2.180   7.002   4.633 -0.5383  0.3849  0.8765
  321MOL0     C44179   2.314   7.015   4.595  0.0346  1.4577 -0.3871
  321MOL0     C44180   2.398   7.126   4.650 -0.0792  0.2139 -0.4963
  321MOL0     C44181   2.483   7.080   4.778 -0.5042 -0.5425  1.1005
  321MOL0     C44182   2.589   6.968   4.747  0.0428  0.0623 -0.0684
  321MOL0     C44183   2.711   6.946   4.833  0.2197 -0.6589 -0.0024
  321MOL0     O44184   2.675   6.923   4.969 -0.2872 -0.8319  0.4274
  321MOL0     C44185   2.756   6.855   5.058 -0.4496 -0.8251  0.6393
  321MOL0     C44186   2.890   6.837   5.045 -0.7513  0.7493 -0.2272
  321MOL0     C44187   2.966   6.777   5.158  0.3325  0.5631  0.0946
  321MOL0     C44188   3.118   6.730   5.136 -0.0930 -0.7508 -0.2513
  321MOL0     C44189   2.901   6.759   5.284  0.0888  0.6830 -0.0629
  321MOL0     C44190   2.952   6.688   5.403 -0.6504  0.3532  0.0726
  321MOL0     O44191   2.871   6.617   5.485 -0.5876  0.4663 -0.1569
  321MOL0     C44192   2.926   6.573   5.606 -1.1977 -0.1485 -0.0555
  321MOL0     C44193   2.955   6.670   5.706 -1.0941 -0.1382  0.1636
  321MOL0     C44194   3.014   6.634   5.820  0.3398  1.1813  0.1171
  321MOL0     C44195   3.053   6.498   5.847  0.2837 -0.1855  0.2743
  321MOL0     O44196   3.128   6.467   5.956 -0.3372 -0.0634  0.1332
  321MOL0     C44197   3.224   6.570   5.986 -0.0205 -0.4485 -0.1202
  321MOL0     C44198   3.337   6.509   6.075 -0.2809  0.0162 -0.5951
  321MOL0     C44199   3.466   6.583   6.078 -0.6627 -0.2715  0.4412
  321MOL0     C44200   3.528   6.577   6.219 -0.0124 -0.2830  0.4216
  321MOL0     C44201   3.563   6.431   6.259 -0.6288  0.4290  0.0079
  321MOL0     C44202   3.693   6.437   6.344  0.4498  0.0833  0.3952
  321MOL0     C44203   3.685   6.503   6.483 -0.3427 -0.5678  0.2167
  321MOL0     C44204   3.826   6.532   6.529 -0.1451 -0.5421  0.2543
  321MOL0    Cl44205   3.819   6.537   6.706 -0.1023  0.5851 -0.3208
  321MOL0     C44206   3.020   6.397   5.759 -0.1388 -0.6950 -0.1825
  321MOL0     C44207   2.958   6.433   5.631 -0.8084 -0.6659 -0.4492
  321MOL0     O44208   3.076   6.702   5.412 -0.0250 -0.0088  0.2683
  321MOL0     C44209   2.767   6.794   5.284 -0.0866  1.3839  0.8435
  321MOL0     C44210   2.700   6.836   5.171 -0.2431  0.0690 -0.4628
  321MOL0     N44211   2.347   6.904   4.518  0.6935 -0.0389 -0.2474
  321MOL0     N44212   2.237   6.841   4.488 -0.0091  0.2999 -0.6433
  321MOL0     C44213   1.155   6.113   4.819  0.4858 -0.3968  0.7436
  321MOL0     C44214   1.120   5.987   4.855 -0.2812  0.6401  0.0850
  321MOL0     C44215   1.016   5.669   5.147 -0.9338 -0.8738 -0.9842
  321MOL0     C44216   1.086   5.555   5.101  0.1690 -0.3263 -0.2706
  321MOL0     C44217   1.053   5.419   5.146  1.7040 -0.5771 -0.2674
  321MOL0     C44218   0.969   5.410   5.250  0.0467  0.5352  0.3679
  321MOL0     O44219   0.945   5.282   5.303  0.4405  0.2978  0.6094
  321MOL0     C44220   1.050   5.232   5.379 -0.8131  0.4287 -0.1840
  321MOL0     C44221   0.997   5.098   5.424 -0.7635  0.5607 -0.4641
  321MOL0     C44222   0.965   4.997   5.319  0.4713 -0.7012  0.0549
  321MOL0     C44223   0.805   5.007   5.319 -0.2980  0.5395  0.2362
  321MOL0     C44224   0.749   4.926   5.430 -0.4131 -0.7703  0.3439
  321MOL0     C44225   0.718   4.839   5.509  0.2290 -0.2557 -0.4081
  321MOL0     C44226   0.903   5.527   5.296  0.7031  1.0415  0.0411
  321MOL0     C44227   0.906   5.650   5.237 -0.0883 -1.5455 -0.0378
  321MOL0     C44228   0.833   5.762   5.305  1.0091  0.0004 -0.3880
  321MOL0     H44229   1.399   5.891   5.012 -1.7742 -0.9978 -0.4557
  321MOL0     H44230   1.487   6.083   4.907 -0.6118 -0.4852  2.6550
  321MOL0     H44231   1.516   6.194   4.692 -1.3477  0.1860 -0.5345
  321MOL0     H44232   1.514   6.307   4.822  2.5562 -3.5509  0.0839
  321MOL0     H44233   1.464   6.345   4.520 -2.1376 -3.3880  1.2455
  321MOL0     H44234   1.420   6.475   4.634  0.1230  0.1838  0.0050
  321MOL0     H44235   1.651   6.478   4.722  1.9220  0.0532 -1.2198
  321MOL0     H44236   1.688   6.344   4.619  1.1546  0.7192  1.2105
  321MOL0     H44237   1.634   6.489   4.424 -4.5863 -1.2944  1.8511
  321MOL0     H44238   1.606   6.625   4.543  0.0144  0.3730  0.7430
  321MOL0     H44239   1.886   6.504   4.483 -0.7273 -3.2110  1.8506
  321MOL0     H44240   1.853   6.597   4.630  0.0179 -0.1909  0.0463
  321MOL0     H44241   1.817   6.679   4.340  1.8768 -0.5209  0.1295
  321MOL0     H44242   1.769   6.785   4.486 -0.8332  0.0920  0.9326
  321MOL0     H44243   1.982   6.825   4.368  0.8561  1.8423  1.5666
  321MOL0     H44244   2.048   6.686   4.427 -0.1340 -0.1078 -0.1777
  321MOL0     H44245   1.928   6.923   4.594  1.2333  0.2733 -1.0165
  321MOL0     H44246   1.991   6.778   4.677  0.9610  4.2555  2.9640
  321MOL0     H44247   2.136   7.078   4.697 -0.2581  0.7816  0.5986
  321MOL0     H44248   2.330   7.207   4.676 -0.8422  0.0797 -1.9766
  321MOL0     H44249   2.466   7.155   4.569 -1.4383  2.2544 -0.9771
  321MOL0     H44250   2.532   7.175   4.801 -0.8618 -0.5393  1.8662
  321MOL0     H44251   2.415   7.038   4.852  0.3306 -1.8210  1.1691
  321MOL0     H44252   2.540   6.874   4.719  0.7671 -0.5559  0.6601
  321MOL0     H44253   2.638   6.995   4.654  3.4928  0.2360  1.6381
  321MOL0     H44254   2.766   6.858   4.802 -1.2983 -1.5406 -0.2945
  321MOL0     H44255   2.775   7.034   4.825  1.2887 -1.4779 -0.5990
  321MOL0     H44256   2.943   6.852   4.952  0.1311 -1.7255 -0.1804
  321MOL0     H44257   3.131   6.622   5.150  2.9288 -0.5452 -0.8817
  321MOL0     H44258   3.170   6.783   5.216 -2.0000  3.8256 -1.6801
  321MOL0     H44259   3.149   6.761   5.036  0.8559 -2.4719 -0.5398
  321MOL0     H44260   2.944   6.777   5.689 -1.8219 -0.0506  1.0764
  321MOL0     H44261   3.054   6.714   5.881 -0.3781  0.5675  1.4485
  321MOL0     H44262   3.262   6.601   5.889  0.7309 -3.0898 -0.7468
  321MOL0     H44263   3.182   6.652   6.046  0.7106 -0.2770  0.1626
  321MOL0     H44264   3.298   6.515   6.177 -0.1656  1.0532 -0.5924
  321MOL0     H44265   3.345   6.403   6.050 -2.4058 -0.4290  0.4166
  321MOL0     H44266   3.446   6.690   6.066  0.7424 -0.1575 -1.3085
  321MOL0     H44267   3.536   6.558   5.998  0.2014  1.3189  0.6600
  321MOL0     H44268   3.466   6.622   6.297  3.2609  1.3579  2.3029
  321MOL0     H44269   3.618   6.639   6.219  1.0700 -1.7819  1.0411
  321MOL0     H44270   3.479   6.384   6.310  0.5939 -1.6014  0.2960
  321MOL0     H44271   3.588   6.371   6.170 -0.9277  0.6801 -0.2499
  321MOL0     H44272   3.770   6.486   6.283 -0.1965  1.0361  0.3146
  321MOL0     H44273   3.722   6.333   6.356 -0.7311 -0.0332  2.7714
  321MOL0     H44274   3.637   6.440   6.559 -1.3648  0.4485  0.4436
  321MOL0     H44275   3.638   6.601   6.479  0.3549 -0.2228  0.2814
  321MOL0     H44276   3.864   6.627   6.490 -1.4802  0.8089  2.0635
  321MOL0     H44277   3.892   6.448   6.506 -0.2385 -0.4949 -0.1991
  321MOL0     H44278   3.055   6.298   5.786 -1.8711 -1.3164 -0.0748
  321MOL0     H44279   2.936   6.353   5.561  0.3815 -1.4732  0.0652
  321MOL0     H44280   2.717   6.787   5.380  0.7189  3.0376  1.4190
  321MOL0     H44281   2.591   6.837   5.172 -0.4024 -3.3736  0.8018
  321MOL0     H44282   1.078   6.164   4.762 -0.0536 -0.6368  1.2397
  321MOL0     H44283   1.017   5.955   4.844 -0.1090  0.1332 -0.0837
  321MOL0     H44284   1.163   5.562   5.024 -2.1705 -0.4684 -2.8110
  321MOL0     H44285   1.100   5.331   5.103  1.8546  0.4877 -2.4112
  321MOL0     H44286   1.137   5.217   5.315 -3.2852  1.4773 -4.1510
  321MOL0     H44287   1.072   5.305   5.457  0.8840 -0.9143  0.6642
  321MOL0     H44288   0.920   5.114   5.499  1.2248 -1.1996  2.1408
  321MOL0     H44289   1.077   5.049   5.480 -2.8536  0.4492  2.6385
  321MOL0     H44290   1.013   5.023   5.224 -0.6263 -0.7267 -0.5202
  321MOL0     H44291   1.008   4.898   5.334  2.1794 -0.1903 -1.0753
  321MOL0     H44292   0.769   4.954   5.230 -2.1634  1.8916  0.1280
  321MOL0     H44293   0.764   5.108   5.311 -0.1880  0.4839 -1.5125
  321MOL0     H44294   0.701   4.765   5.585 -0.2422  0.4276  0.1662
  321MOL0     H44295   0.826   5.511   5.370 -1.9539  0.4928 -2.6353
  321MOL0     H44296   0.785   5.831   5.235  2.7163  1.8342  0.1413
  321MOL0     H44297   0.758   5.731   5.378  0.6222  1.0741 -0.3060
  321MOL0     H44298   0.896   5.822   5.372 -0.8349  0.1426  1.3070
  322MOL0     O44299   8.964   6.312   2.775  0.1906  0.2890  0.2257
  322MOL0     C44300   8.899   6.412   2.754  0.4844  0.8959 -1.1748
  322MOL0     O44301   8.839   6.448   2.637  0.3878 -0.1081 -0.1984
  322MOL0     C44302   8.888   6.392   2.517 -0.0891 -0.5248  0.9540
  322MOL0     C44303   9.018   6.361   2.480 -0.0767 -0.4185  0.0336
  322MOL0     C44304   9.045   6.318   2.346  0.0024  0.9882 -0.2101
  322MOL0     C44305   8.952   6.318   2.245 -0.5004  0.5736  1.1834
  322MOL0     O44306   8.964   6.268   2.112 -0.3405 -0.4985 -0.1809
  322MOL0     C44307   9.039   6.353   2.027  0.3814  0.8564 -0.0285
  322MOL0     C44308   9.061   6.292   1.890 -0.6086 -0.1140  0.1801
  322MOL0     C44309   9.164   6.181   1.892  0.1958 -0.3447  0.0484
  322MOL0     C44310   9.293   6.247   1.870  0.0538 -0.5087 -0.2054
  322MOL0     C44311   9.392   6.130   1.832  0.9412  0.6174 -0.5159
  322MOL0     C44312   9.512   6.172   1.756 -1.4034  0.3976  0.5667
  322MOL0     C44313   9.587   6.036   1.702  0.6122 -0.0304  0.3261
  322MOL0     C44314   9.703   6.081   1.608  0.3375  0.1519 -0.9071
  322MOL0     N44315   9.657   6.182   1.517  0.9109  0.3623 -0.0139
  322MOL0     C44316   9.682   6.318   1.509 -0.4967  1.1241 -0.0359
  322MOL0     C44317   9.606   6.363   1.407 -0.3112  0.4696  0.7099
  322MOL0     C44318   9.599   6.506   1.360  0.0823  0.8318 -1.0023
  322MOL0     C44319   9.656   6.534   1.222 -0.3174 -0.1390 -0.0151
  322MOL0     C44320   9.633   6.422   1.109  0.3634  0.1431  0.4152
  322MOL0     C44321   9.488   6.440   1.052  0.1542 -0.0751  0.2156
  322MOL0     O44322   9.475   6.536   0.943 -0.4744  0.1653  0.5669
  322MOL0     C44323   9.480   6.497   0.812 -0.2351  0.7880 -0.6100
  322MOL0     C44324   9.440   6.586   0.715 -0.3847 -0.2715  0.6856
  322MOL0     C44325   9.447   6.550   0.574  1.0615 -0.2033 -0.3687
  322MOL0     C44326   9.429   6.681   0.489  0.1734 -0.4730  0.3641
  322MOL0     C44327   9.492   6.429   0.525 -0.0642  0.9121 -0.8506
  322MOL0     C44328   9.491   6.386   0.383 -0.8225  0.5577  0.0731
  322MOL0     O44329   9.546   6.253   0.369 -0.1367  0.1058 -0.5916
  322MOL0     C44330   9.583   6.200   0.247  0.0141 -0.2058 -0.9358
  322MOL0     C44331   9.618   6.067   0.253  0.5638  0.0020  0.2272
  322MOL0     C44332   9.636   5.998   0.135  0.6111 -0.1085  0.5621
  322MOL0     C44333   9.654   6.057   0.011  0.0338 -0.4237  0.7093
  322MOL0     O44334   9.682   5.966  -0.093  0.1346  0.5566  0.3560
  322MOL0     C44335   9.629   5.996  -0.227 -0.3821  0.3970  0.4009
  322MOL0     C44336   9.574   5.861  -0.285  0.1304 -0.1323  0.6678
  322MOL0     C44337   9.641   5.837  -0.418  0.3728 -0.2459  0.3767
  322MOL0     C44338   9.590   5.709  -0.489  0.1283  0.7954  0.8523
  322MOL0     C44339   9.474   5.721  -0.591 -0.2911  0.7186  0.1016
  322MOL0     C44340   9.433   5.586  -0.651  0.2659  0.0584  1.4221
  322MOL0     C44341   9.403   5.477  -0.543  0.4277 -0.4003 -0.4351
  322MOL0     C44342   9.386   5.352  -0.604 -0.0945  0.7210  0.9084
  322MOL0    Cl44343   9.328   5.216  -0.498 -0.2642 -0.0719 -0.4880
  322MOL0     C44344   9.627   6.191  -0.000  0.1770  0.5691 -0.2694
  322MOL0     C44345   9.588   6.264   0.113  0.8492 -0.0309  0.2634
  322MOL0     O44346   9.453   6.458   0.298 -0.3392 -0.7779  0.0053
  322MOL0     C44347   9.530   6.345   0.631 -0.6888 -0.5206  0.0742
  322MOL0     C44348   9.524   6.376   0.765  0.8978  0.2144 -0.8977
  322MOL0     N44349   9.536   6.257   1.352  0.1416  1.0178 -0.2255
  322MOL0     N44350   9.577   6.154   1.415  0.2820 -0.2186  0.7134
  322MOL0     C44351   8.823   6.354   2.281  1.0167  0.1354 -0.6317
  322MOL0     C44352   8.792   6.386   2.412 -0.3564  0.2780  0.8029
  322MOL0     C44353   8.853   6.476   2.882  0.0543  0.9068 -0.5510
  322MOL0     C44354   8.867   6.411   3.003  0.3541 -0.5268 -0.2064
  322MOL0     C44355   8.827   6.473   3.126 -0.8748  0.3341  0.0970
  322MOL0     C44356   8.774   6.604   3.121  0.3860  0.4162 -0.7130
  322MOL0     O44357   8.739   6.652   3.246  0.2795  0.0078 -0.3360
  322MOL0     C44358   8.808   6.779   3.277  0.7982  0.1539  0.4033
  322MOL0     C44359   8.800   6.794   3.428  0.5003 -0.1468  0.1101
  322MOL0     C44360   8.891   6.900   3.474  0.7453 -0.7434 -0.9078
  322MOL0     C44361   8.909   6.905   3.628 -0.1084  0.5746  0.1110
  322MOL0     C44362   9.039   6.975   3.659 -0.9486  0.0723  0.3225
  322MOL0     C44363   9.130   7.045   3.698 -0.2527  0.8011  0.1715
  322MOL0     C44364   8.760   6.670   3.001  0.1811 -0.2482  0.4529
  322MOL0     C44365   8.801   6.609   2.883  0.7003 -0.2412  0.7628
  322MOL0     C44366   8.767   6.696   2.760 -0.3339  0.2771  0.7351
  322MOL0     H44367   9.091   6.357   2.561  1.0514 -1.2012 -0.9810
  322MOL0     H44368   9.146   6.286   2.320 -0.1892 -0.2769  0.5329
  322MOL0     H44369   9.131   6.377   2.080  1.1209 -2.7113  0.5078
  322MOL0     H44370   8.987   6.450   2.023  1.2918  1.4839  2.0320
  322MOL0     H44371   8.966   6.246   1.861 -0.6851  0.5722 -0.7250
  322MOL0     H44372   9.089   6.367   1.815  7.1955 -1.7340  0.6705
  322MOL0     H44373   9.158   6.115   1.979  0.7445 -2.2538 -1.2838
  322MOL0     H44374   9.142   6.108   1.813  0.1708 -1.6379  1.2028
  322MOL0     H44375   9.282   6.332   1.802 -3.7483  1.8634  2.8871
  322MOL0     H44376   9.326   6.298   1.961 -0.7557  1.8853 -1.1664
  322MOL0     H44377   9.332   6.065   1.768 -0.0658  1.4553 -0.4513
  322MOL0     H44378   9.412   6.068   1.919  0.7467 -0.0516 -0.9432
  322MOL0     H44379   9.485   6.234   1.671 -0.5316 -0.8548 -0.6842
  322MOL0     H44380   9.578   6.227   1.824 -1.6911  1.4494  0.0055
  322MOL0     H44381   9.515   5.977   1.645 -0.8995  2.9163 -1.0427
  322MOL0     H44382   9.616   5.967   1.782 -2.2445 -1.8973 -0.0814
  322MOL0     H44383   9.779   6.129   1.671 -0.8831  2.1639 -0.8826
  322MOL0     H44384   9.736   5.989   1.559  1.2728  1.3996 -2.7328
  322MOL0     H44385   9.737   6.375   1.584 -0.9644 -0.6500  1.7300
  322MOL0     H44386   9.641   6.575   1.434  4.0308 -0.7968 -1.4731
  322MOL0     H44387   9.491   6.525   1.354 -0.7030 -2.6938 -0.1232
  322MOL0     H44388   9.620   6.632   1.189  0.7032  0.8516  1.6926
  322MOL0     H44389   9.759   6.555   1.251  0.0114  0.4656 -1.5011
  322MOL0     H44390   9.706   6.433   1.028 -0.9550  0.6334 -0.7325
  322MOL0     H44391   9.650   6.317   1.134  2.4052 -0.6555 -3.4607
  322MOL0     H44392   9.453   6.337   1.034  0.1823 -0.2728  1.2083
  322MOL0     H44393   9.428   6.478   1.135  0.6330 -0.1366  0.5972
  322MOL0     H44394   9.415   6.686   0.747  1.4967  1.0617 -1.6709
  322MOL0     H44395   9.324   6.711   0.494 -0.2257 -1.5066 -1.0832
  322MOL0     H44396   9.452   6.679   0.383 -1.2388 -3.3711 -0.0005
  322MOL0     H44397   9.490   6.759   0.536 -1.2000  2.1525 -1.9294
  322MOL0     H44398   9.621   6.027   0.354  3.7293 -1.2688 -0.2456
  322MOL0     H44399   9.652   5.890   0.135  0.0743 -0.2235 -1.0732
  322MOL0     H44400   9.554   6.075  -0.231  1.3001  2.0072 -2.5831
  322MOL0     H44401   9.717   6.036  -0.279 -0.1726  0.1838  0.5895
  322MOL0     H44402   9.587   5.786  -0.207 -0.5008  2.7735  3.7993
  322MOL0     H44403   9.465   5.871  -0.291  0.2266  2.4712  1.7056
  322MOL0     H44404   9.748   5.823  -0.397  0.1563  0.7691  2.3291
  322MOL0     H44405   9.637   5.926  -0.481 -1.5697 -2.1855 -2.4919
  322MOL0     H44406   9.575   5.635  -0.410  1.5459  0.5184  0.8905
  322MOL0     H44407   9.673   5.674  -0.551 -0.4945  1.0825 -0.1860
  322MOL0     H44408   9.389   5.768  -0.540  0.4926  1.3773  0.8376
  322MOL0     H44409   9.499   5.786  -0.676 -0.2316 -0.9918 -1.2351
  322MOL0     H44410   9.502   5.545  -0.725 -1.0528  1.1139 -0.4808
  322MOL0     H44411   9.336   5.593  -0.702  1.2060  0.4671 -0.3892
  322MOL0     H44412   9.322   5.508  -0.476  1.6764 -0.4855  1.1799
  322MOL0     H44413   9.485   5.467  -0.472 -1.6804 -0.5886  2.1219
  322MOL0     H44414   9.477   5.305  -0.643 -0.3928  1.9435 -1.4956
  322MOL0     H44415   9.317   5.357  -0.689  0.0590 -0.7121  0.6716
  322MOL0     H44416   9.654   6.249  -0.088 -0.1707  0.8599 -0.1847
  322MOL0     H44417   9.582   6.372   0.106  1.1701  0.1251  1.8217
  322MOL0     H44418   9.556   6.243   0.606 -0.4957 -0.7693  1.2582
  322MOL0     H44419   9.551   6.299   0.837 -2.4966 -1.2428 -0.9770
  322MOL0     H44420   8.759   6.362   2.194  1.8767 -1.1958 -1.4165
  322MOL0     H44421   8.694   6.425   2.441 -0.4607  1.4246 -0.9158
  322MOL0     H44422   8.898   6.307   3.001 -1.0262 -1.0016  1.1145
  322MOL0     H44423   8.833   6.425   3.222  0.7763 -0.6257 -0.4551
  322MOL0     H44424   8.911   6.767   3.242  0.6598 -0.1059  0.0782
  322MOL0     H44425   8.767   6.858   3.213  1.2938 -1.3087 -1.8243
  322MOL0     H44426   8.829   6.700   3.477 -1.1538 -0.5739  0.3556
  322MOL0     H44427   8.698   6.824   3.455  0.8554  3.9806 -2.4354
  322MOL0     H44428   8.984   6.885   3.418 -0.0157 -1.0553 -2.1342
  322MOL0     H44429   8.853   6.993   3.430  2.4120 -1.2219 -3.5824
  322MOL0     H44430   8.929   6.806   3.671  1.9181  0.6217 -0.6021
  322MOL0     H44431   8.829   6.962   3.675  1.0147  2.4654 -0.1865
  322MOL0     H44432   9.205   7.112   3.734  2.5395 -1.0741 -1.7425
  322MOL0     H44433   8.718   6.770   2.997 -0.6132 -0.5756  0.4631
  322MOL0     H44434   8.661   6.690   2.734 -0.5047  0.6793  1.3116
  322MOL0     H44435   8.801   6.798   2.782  3.4947 -0.7601  0.3049
  322MOL0     H44436   8.829   6.668   2.675 -2.1850  2.1670 -1.3542
  323MOL0     O44437  10.425   1.566   1.079 -0.1937 -0.3178 -0.3721
  323MOL0     C44438  10.468   1.610   0.975 -0.3970  0.3519 -0.4952
  323MOL0     O44439  10.470   1.741   0.941  0.1218 -0.7613 -0.0712
  323MOL0     C44440  10.410   1.851   1.015 -0.0665  0.9757 -0.2033
  323MOL0     C44441  10.419   1.972   0.952 -1.2171  0.5691  0.3221
  323MOL0     C44442  10.371   2.082   1.009  0.5372 -0.5930  0.1514
  323MOL0     C44443  10.309   2.092   1.134  0.4965  0.5625 -0.6120
  323MOL0     O44444  10.256   2.206   1.192 -0.4520  0.1378  0.7769
  323MOL0     C44445  10.264   2.325   1.115 -0.2424  0.2288  0.1881
  323MOL0     C44446  10.143   2.340   1.021  0.8300  0.4439  0.7358
  323MOL0     C44447  10.020   2.329   1.101 -0.9174  0.5364  0.3626
  323MOL0     C44448   9.908   2.306   1.009 -0.3595  0.2379 -0.1213
  323MOL0     C44449   9.870   2.164   0.972  0.6243  0.3913 -0.1485
  323MOL0     C44450   9.736   2.143   0.903 -0.1014 -0.5088  0.1887
  323MOL0     C44451   9.709   1.988   0.883 -0.1473  0.2446 -0.2771
  323MOL0     C44452   9.629   1.931   1.011 -0.6047 -0.2718  0.5579
  323MOL0     N44453   9.584   1.796   0.977  0.4961 -0.6993  0.0262
  323MOL0     C44454   9.653   1.681   0.951  0.4266  0.0387  0.0345
  323MOL0     C44455   9.555   1.590   0.924  0.1120 -0.2844 -0.1174
  323MOL0     C44456   9.590   1.444   0.907 -1.4452  0.1044  0.2259
  323MOL0     C44457   9.467   1.363   0.867  0.5067  0.1171 -0.4513
  323MOL0     C44458   9.498   1.212   0.856  0.8758  0.2572 -0.5739
  323MOL0     C44459   9.486   1.152   0.992 -0.3029 -0.6797  0.9628
  323MOL0     O44460   9.356   1.105   1.024 -0.0753 -0.0222 -0.1313
  323MOL0     C44461   9.339   1.016   1.131  0.2969  0.5024  0.0449
  323MOL0     C44462   9.437   0.982   1.231 -0.2700 -0.2147 -0.0514
  323MOL0     C44463   9.409   0.896   1.328  0.4762  0.8054 -0.4474
  323MOL0     C44464   9.515   0.852   1.434  0.3403  0.0520 -0.3454
  323MOL0     C44465   9.280   0.850   1.341 -0.4498 -0.6601 -0.3706
  323MOL0     C44466   9.240   0.753   1.449  0.0560 -0.2534 -0.7137
  323MOL0     O44467   9.138   0.789   1.530 -0.4820 -0.6984 -0.1188
  323MOL0     C44468   9.102   0.713   1.638 -0.3427  0.4959 -0.1989
  323MOL0     C44469   8.966   0.728   1.674  0.1245 -0.5560  0.2334
  323MOL0     C44470   8.918   0.661   1.785  0.4292  0.5295 -1.3497
  323MOL0     C44471   9.004   0.568   1.856  0.3662 -0.2509  0.1766
  323MOL0     O44472   8.936   0.484   1.937  0.0477 -0.2542 -0.6684
  323MOL0     C44473   8.999   0.362   1.976 -0.6228  0.1049  0.9143
  323MOL0     C44474   8.982   0.255   1.870 -0.1526 -0.4399  0.1511
  323MOL0     C44475   9.095   0.149   1.875  1.6008 -0.5928 -0.4528
  323MOL0     C44476   9.089   0.078   1.738  0.2342  0.2146  0.9032
  323MOL0     C44477   9.173  -0.062   1.742  0.4130 -0.3804 -0.8977
  323MOL0     C44478   9.327  -0.053   1.757  0.6351 -0.1652  0.1004
  323MOL0     C44479   9.378  -0.037   1.897  0.2181 -0.3643 -0.8715
  323MOL0     C44480   9.385  -0.173   1.976 -0.0575 -0.2045 -0.7894
  323MOL0    Cl44481   9.507  -0.270   1.906 -0.1008 -0.4195 -0.0938
  323MOL0     C44482   9.142   0.552   1.823  0.7028 -0.2838  0.4321
  323MOL0     C44483   9.195   0.630   1.712  0.9386  0.6489  0.9264
  323MOL0     O44484   9.274   0.638   1.426  0.0455 -0.5181 -0.1900
  323MOL0     C44485   9.175   0.883   1.248  0.4125 -0.4566 -0.7075
  323MOL0     C44486   9.204   0.972   1.143  0.3012 -0.2135 -0.6155
  323MOL0     N44487   9.427   1.647   0.934 -0.0214 -0.7066 -0.6346
  323MOL0     N44488   9.451   1.772   0.971 -0.6375  0.0113  0.4854
  323MOL0     C44489  10.309   1.973   1.205 -0.6035 -0.0983  1.7923
  323MOL0     C44490  10.360   1.853   1.147 -0.3591 -0.6726 -0.9097
  323MOL0     C44491  10.535   1.513   0.883 -0.1414 -0.4230  0.5552
  323MOL0     C44492  10.564   1.561   0.755 -0.2276  0.7374 -0.0964
  323MOL0     C44493  10.621   1.487   0.653 -0.1946 -0.0529 -0.1704
  323MOL0     C44494  10.659   1.349   0.679 -0.4419  0.1854 -0.9619
  323MOL0     O44495  10.710   1.266   0.587  0.1823 -0.0510  0.0390
  323MOL0     C44496  10.688   1.303   0.443 -0.2234  0.4772 -0.4049
  323MOL0     C44497  10.749   1.196   0.349 -0.6079  0.6450  0.2100
  323MOL0     C44498  10.906   1.195   0.351 -0.5396 -0.8228  0.0876
  323MOL0     C44499  10.979   1.287   0.263  0.1887 -0.3358  0.6956
  323MOL0     C44500  10.990   1.250   0.123  0.2899  0.1154  0.1175
  323MOL0     C44501  11.000   1.217   0.001  0.5412 -0.5603 -0.8317
  323MOL0     C44502  10.632   1.304   0.814 -0.8040  0.0017  0.5401
  323MOL0     C44503  10.571   1.379   0.911  0.7185 -0.7592  0.4231
  323MOL0     C44504  10.519   1.303   1.032  0.1286 -0.3614 -0.7371
  323MOL0     H44505  10.464   1.983   0.854  1.1083 -0.2316  1.2167
  323MOL0     H44506  10.383   2.167   0.943 -1.5588 -0.8627 -0.6594
  323MOL0     H44507  10.359   2.345   1.065 -0.5926  0.1611 -0.5177
  323MOL0     H44508  10.271   2.404   1.191 -0.3228  2.2157 -1.7551
  323MOL0     H44509  10.147   2.436   0.969 -2.3740  0.5607  0.4970
  323MOL0     H44510  10.143   2.261   0.945  1.6614  0.1173  1.0734
  323MOL0     H44511  10.020   2.239   1.163  1.6780 -0.3387 -0.7564
  323MOL0     H44512  10.013   2.412   1.172  0.3748 -0.2637  1.4825
  323MOL0     H44513   9.817   2.360   1.041 -2.0338 -0.6745 -3.0016
  323MOL0     H44514   9.930   2.360   0.916  2.9279 -1.0269 -0.1774
  323MOL0     H44515   9.858   2.107   1.065 -1.6879  0.4818 -0.3523
  323MOL0     H44516   9.943   2.109   0.912 -1.7391 -1.1168 -1.7693
  323MOL0     H44517   9.664   2.188   0.971  1.0628  2.8115 -0.5983
  323MOL0     H44518   9.730   2.207   0.815 -2.6730  2.6759  2.4472
  323MOL0     H44519   9.799   1.927   0.880 -0.2876  0.0225 -0.0128
  323MOL0     H44520   9.654   1.981   0.789  0.3784 -1.8018 -0.4679
  323MOL0     H44521   9.684   1.930   1.105 -0.9521 -0.9105  0.7616
  323MOL0     H44522   9.553   2.008   1.020 -0.7511 -0.2980 -0.3313
  323MOL0     H44523   9.759   1.658   0.959  0.5678  0.1740 -1.1952
  323MOL0     H44524   9.634   1.398   0.996  2.4529 -0.7670 -1.8849
  323MOL0     H44525   9.660   1.439   0.823  0.3836 -1.3125  1.7371
  323MOL0     H44526   9.382   1.396   0.928  0.4597  1.1917 -1.0881
  323MOL0     H44527   9.449   1.391   0.763  3.1023 -0.1460 -1.0448
  323MOL0     H44528   9.424   1.149   0.806  1.4912  1.0905 -2.6494
  323MOL0     H44529   9.584   1.178   0.797 -0.3230 -3.5909 -0.4144
  323MOL0     H44530   9.562   1.074   0.999  1.2039  0.5563 -0.8122
  323MOL0     H44531   9.518   1.223   1.069  1.2653 -0.7269  0.3856
  323MOL0     H44532   9.537   1.024   1.227 -0.1593 -0.5324 -2.6532
  323MOL0     H44533   9.473   0.888   1.528 -4.0277  1.5019 -2.5770
  323MOL0     H44534   9.617   0.888   1.419 -0.0812  2.0576  1.1618
  323MOL0     H44535   9.523   0.743   1.444  0.4204  0.2831  3.4618
  323MOL0     H44536   8.903   0.783   1.605  3.2358  0.3067 -2.1003
  323MOL0     H44537   8.816   0.662   1.822  2.2960 -0.9163  4.9821
  323MOL0     H44538   9.102   0.378   2.009 -0.4294 -1.7017  1.3127
  323MOL0     H44539   8.952   0.324   2.067 -0.4189 -1.6781  0.3317
  323MOL0     H44540   8.883   0.215   1.895 -0.4132  0.0832 -0.0510
  323MOL0     H44541   8.967   0.297   1.770  3.1487 -2.4195 -1.3898
  323MOL0     H44542   9.072   0.079   1.956  0.6075  0.6923  0.4119
  323MOL0     H44543   9.189   0.204   1.888 -0.7024  4.0140 -1.3976
  323MOL0     H44544   9.155   0.142   1.678  0.7835  0.7324  2.0213
  323MOL0     H44545   8.988   0.070   1.698  0.6640 -1.4021  0.0613
  323MOL0     H44546   9.145  -0.129   1.823  2.8617 -0.2444  0.1425
  323MOL0     H44547   9.148  -0.108   1.646 -1.9328  2.1431 -1.6086
  323MOL0     H44548   9.352   0.038   1.701  0.9371  0.7172  1.6328
  323MOL0     H44549   9.387  -0.137   1.720  1.1070  0.3484 -0.3081
  323MOL0     H44550   9.316   0.031   1.955  2.8205 -1.2967  3.5022
  323MOL0     H44551   9.474   0.015   1.893  0.7481 -1.1512  0.6337
  323MOL0     H44552   9.286  -0.219   1.976  0.5921 -1.6822 -0.0496
  323MOL0     H44553   9.408  -0.159   2.082  0.0342  1.3809 -0.9949
  323MOL0     H44554   9.211   0.480   1.866 -0.0013 -2.5032 -1.9267
  323MOL0     H44555   9.300   0.618   1.686  1.0330 -0.7948  1.9005
  323MOL0     H44556   9.076   0.840   1.259 -0.0261  0.1941 -1.8550
  323MOL0     H44557   9.121   0.992   1.076 -1.8876 -2.1460  1.3338
  323MOL0     H44558  10.260   1.967   1.302 -0.6530  0.3803  1.7973
  323MOL0     H44559  10.358   1.767   1.214  1.6730 -1.0103 -1.2304
  323MOL0     H44560  10.549   1.666   0.729  1.9869  1.1039 -0.1119
  323MOL0     H44561  10.637   1.524   0.552  0.9308  0.4253  0.1675
  323MOL0     H44562  10.583   1.308   0.413 -0.8299 -0.9937  1.2864
  323MOL0     H44563  10.733   1.397   0.411  0.0713  0.2070 -0.7926
  323MOL0     H44564  10.708   1.222   0.250 -0.5522  2.8579  0.7271
  323MOL0     H44565  10.717   1.096   0.380 -0.0021  0.0190 -1.0626
  323MOL0     H44566  10.931   1.205   0.457 -0.2953 -1.0551  0.0503
  323MOL0     H44567  10.941   1.097   0.319  1.3737 -0.7675  1.8270
  323MOL0     H44568  11.082   1.306   0.295  0.6502 -0.5534 -0.5864
  323MOL0     H44569  10.936   1.388   0.269  1.3210  0.4392 -2.3075
  323MOL0     H44570  11.002   1.178  -0.099 -0.8783  0.5204 -1.3105
  323MOL0     H44571  10.674   1.206   0.838  0.5741  0.8914  1.9869
  323MOL0     H44572  10.533   1.195   1.021  0.3203 -0.2154 -2.2129
  323MOL0     H44573  10.577   1.336   1.119 -1.3812  3.7481 -1.0428
  323MOL0     H44574  10.414   1.321   1.056 -0.0386 -2.6113  0.3566
  324MOL0     O44575   7.512   4.865   8.971 -0.7601  0.2203  0.6480
  324MOL0     C44576   7.431   4.871   9.061 -0.2328  0.8089  0.5210
  324MOL0     O44577   7.344   4.972   9.073  0.1929  0.0801  0.3812
  324MOL0     C44578   7.378   5.084   9.004 -0.3964 -0.5052 -0.3476
  324MOL0     C44579   7.405   5.204   9.072  0.2091  0.8533  0.2415
  324MOL0     C44580   7.424   5.332   9.009  0.5165  0.8326  0.0424
  324MOL0     C44581   7.402   5.335   8.868 -0.0234  0.1029 -0.5337
  324MOL0     O44582   7.398   5.443   8.789  0.3289  0.4014  0.2408
  324MOL0     C44583   7.459   5.563   8.832  0.0277 -0.0733 -0.3570
  324MOL0     C44584   7.513   5.652   8.721 -0.2309 -0.0276 -0.4529
  324MOL0     C44585   7.406   5.694   8.628  0.2939  1.1272 -1.4027
  324MOL0     C44586   7.451   5.789   8.523  0.4139 -0.1816 -0.1391
  324MOL0     C44587   7.332   5.857   8.458 -0.1120 -0.8967 -0.7896
  324MOL0     C44588   7.371   5.930   8.324 -0.9851 -0.5253 -0.9062
  324MOL0     C44589   7.326   5.860   8.206  0.5515 -0.2163  0.2840
  324MOL0     C44590   7.411   5.732   8.185 -0.0500 -0.4995 -0.7394
  324MOL0     N44591   7.361   5.655   8.077 -0.6064 -0.4280  0.4104
  324MOL0     C44592   7.285   5.543   8.093 -0.1327 -0.7539  0.8171
  324MOL0     C44593   7.256   5.515   7.969  0.3554 -0.4889  0.0181
  324MOL0     C44594   7.193   5.384   7.940  0.3792  0.7615  0.8432
  324MOL0     C44595   7.108   5.330   8.056  0.9287 -0.0521 -0.0717
  324MOL0     C44596   7.033   5.206   8.007  0.1374  0.5562  0.3034
  324MOL0     C44597   6.972   5.117   8.112  1.1220  0.2368 -0.5294
  324MOL0     O44598   7.057   5.088   8.220  0.1651  1.0161 -0.1109
  324MOL0     C44599   7.009   5.084   8.335  0.5761  0.2834 -0.7672
  324MOL0     C44600   6.897   5.004   8.365  0.4451 -0.8547  0.5800
  324MOL0     C44601   6.847   5.007   8.496  0.3064 -0.4730  0.3388
  324MOL0     C44602   6.717   4.938   8.507 -0.5618  0.5807  0.4216
  324MOL0     C44603   6.916   5.074   8.603  0.0923  0.4534 -0.3461
  324MOL0     C44604   6.875   5.064   8.748 -0.9087 -0.8889  0.1679
  324MOL0     O44605   6.957   5.119   8.839  0.5881  0.0693  0.6383
  324MOL0     C44606   6.931   5.121   8.970  0.3668  0.2493 -0.9199
  324MOL0     C44607   6.801   5.157   9.014  0.3365 -0.3689 -0.7786
  324MOL0     C44608   6.773   5.178   9.152 -0.2332 -1.0330  0.8879
  324MOL0     C44609   6.871   5.159   9.242 -0.2579 -1.3513  0.2509
  324MOL0     O44610   6.834   5.201   9.374  0.3523 -0.4173 -0.1542
  324MOL0     C44611   6.934   5.214   9.474 -0.7987 -0.3546 -0.7203
  324MOL0     C44612   6.976   5.083   9.542 -1.2077  0.0144  0.3484
  324MOL0     C44613   7.098   5.105   9.628  0.6412 -0.3003 -0.3766
  324MOL0     C44614   7.175   4.975   9.672  0.0882  0.6082  0.9596
  324MOL0     C44615   7.274   5.020   9.774  0.0405 -0.2174 -0.1412
  324MOL0     C44616   7.387   5.118   9.732  0.3098 -0.3077  0.1646
  324MOL0     C44617   7.493   5.114   9.835 -0.0334  0.3052 -0.7528
  324MOL0     C44618   7.574   5.235   9.822  0.2553 -0.4198 -1.0184
  324MOL0    Cl44619   7.723   5.216   9.933 -0.0359 -0.2275  0.2729
  324MOL0     C44620   6.999   5.118   9.198  0.4368 -0.8556 -0.9949
  324MOL0     C44621   7.024   5.099   9.067  0.0116 -0.5872  0.6669
  324MOL0     O44622   6.767   5.014   8.780 -0.7065 -0.3375  0.2317
  324MOL0     C44623   7.030   5.147   8.569  0.2633 -0.5412  0.4096
  324MOL0     C44624   7.072   5.152   8.439  0.4377 -0.6217  0.0926
  324MOL0     N44625   7.307   5.603   7.875 -0.4049 -0.2724  0.1359
  324MOL0     N44626   7.366   5.687   7.950 -0.5707 -0.2452  0.4959
  324MOL0     C44627   7.386   5.208   8.798 -0.8263  0.2037 -0.4231
  324MOL0     C44628   7.375   5.088   8.864 -1.3179  0.4041 -0.8050
  324MOL0     C44629   7.439   4.773   9.162 -0.1343 -0.5997 -0.3173
  324MOL0     C44630   7.428   4.821   9.291 -0.3869 -0.9465  0.8298
  324MOL0     C44631   7.440   4.745   9.408  0.1143 -0.7890 -0.1386
  324MOL0     C44632   7.438   4.608   9.387 -0.1538  0.7080 -0.1887
  324MOL0     O44633   7.449   4.518   9.489 -0.0447 -0.3374  0.5893
  324MOL0     C44634   7.524   4.552   9.604 -0.2075 -1.0387 -0.8668
  324MOL0     C44635   7.456   4.526   9.742  0.1171  0.4268 -0.2891
  324MOL0     C44636   7.317   4.600   9.756 -0.0954 -0.5055 -0.2380
  324MOL0     C44637   7.234   4.585   9.890  0.0061  1.0420 -0.1110
  324MOL0     C44638   7.280   4.680   9.998 -0.0318 -0.8748 -0.3130
  324MOL0     C44639   7.317   4.764  10.082 -0.6298 -0.0043 -0.4582
  324MOL0     C44640   7.458   4.554   9.262  1.0021 -0.5586  0.7868
  324MOL0     C44641   7.453   4.634   9.144  0.0525  0.4123 -0.6102
  324MOL0     C44642   7.465   4.562   9.007 -1.2948  0.1638 -0.4525
  324MOL0     H44643   7.385   5.199   9.179  1.4751 -1.3268  0.4376
  324MOL0     H44644   7.435   5.418   9.074  1.9018  0.1757  0.6973
  324MOL0     H44645   7.542   5.532   8.896 -0.4623 -1.7594 -0.4864
  324MOL0     H44646   7.384   5.606   8.900  0.2076  0.5778 -0.5622
  324MOL0     H44647   7.556   5.745   8.760 -1.7747  0.6035 -0.1429
  324MOL0     H44648   7.587   5.592   8.668 -1.3119 -0.5683 -1.3969
  324MOL0     H44649   7.357   5.609   8.579  1.6614  0.9940 -2.6143
  324MOL0     H44650   7.332   5.748   8.688  1.2560  1.7579 -0.7522
  324MOL0     H44651   7.513   5.867   8.568 -0.2597  1.1105 -1.3719
  324MOL0     H44652   7.514   5.730   8.455 -0.1009 -1.9443  0.8417
  324MOL0     H44653   7.291   5.934   8.524  0.6280 -1.5176  0.4437
  324MOL0     H44654   7.254   5.783   8.437 -1.3231 -0.3390  1.3767
  324MOL0     H44655   7.306   6.018   8.327  1.1745  1.1805 -1.1659
  324MOL0     H44656   7.470   5.974   8.305 -1.2397  0.2005 -0.5611
  324MOL0     H44657   7.349   5.922   8.119  0.7603  0.9014  1.1257
  324MOL0     H44658   7.219   5.839   8.205  0.9479 -2.5342  0.6013
  324MOL0     H44659   7.517   5.757   8.172 -0.1371  0.7673  0.7169
  324MOL0     H44660   7.417   5.666   8.271 -2.4911  0.2126  0.0487
  324MOL0     H44661   7.258   5.500   8.189  0.0000  0.1420  1.2653
  324MOL0     H44662   7.272   5.310   7.924  0.3046  0.9455 -0.4914
  324MOL0     H44663   7.136   5.393   7.847 -0.2332  1.3466  1.2679
  324MOL0     H44664   7.172   5.304   8.141 -1.8817  0.2191  2.2769
  324MOL0     H44665   7.037   5.407   8.087  2.1873  1.2602 -0.3275
  324MOL0     H44666   6.956   5.235   7.935 -0.6443  0.2398  0.9846
  324MOL0     H44667   7.106   5.134   7.968  1.3341  0.3750  2.6833
  324MOL0     H44668   6.882   5.167   8.149  3.0413  1.2932  3.2023
  324MOL0     H44669   6.942   5.025   8.062  1.5152 -0.7121  0.9068
  324MOL0     H44670   6.842   4.954   8.286  1.5427  2.2450 -2.4175
  324MOL0     H44671   6.642   4.996   8.562 -3.4378 -2.7981  0.4464
  324MOL0     H44672   6.735   4.845   8.562  0.5066  0.7568  0.4049
  324MOL0     H44673   6.663   4.910   8.416 -0.5221 -0.1426  0.6117
  324MOL0     H44674   6.713   5.180   8.956 -0.1949  0.1836  0.2108
  324MOL0     H44675   6.682   5.229   9.183  1.0592  0.1539  2.9409
  324MOL0     H44676   7.016   5.262   9.420  0.7066 -1.1156  0.7848
  324MOL0     H44677   6.905   5.287   9.551 -0.1347 -0.1667 -0.6375
  324MOL0     H44678   6.899   5.026   9.595  0.5156 -2.8722 -0.0121
  324MOL0     H44679   6.994   5.019   9.455 -0.2379  0.5726  0.1193
  324MOL0     H44680   7.063   5.173   9.706  0.9392  3.3949 -3.2012
  324MOL0     H44681   7.163   5.180   9.581 -0.8326  1.9620  1.0127
  324MOL0     H44682   7.216   4.910   9.594  1.7528  1.3896  1.1362
  324MOL0     H44683   7.100   4.918   9.728 -2.6117  1.1058 -1.8537
  324MOL0     H44684   7.218   5.074   9.850  1.7459  0.4855  0.6631
  324MOL0     H44685   7.324   4.936   9.822  1.1909  0.6843  0.2987
  324MOL0     H44686   7.341   5.218   9.724 -0.6701 -0.8154 -0.8967
  324MOL0     H44687   7.429   5.094   9.633  1.3162  1.3993  0.1282
  324MOL0     H44688   7.539   5.017   9.816 -1.2863  0.0161 -2.5684
  324MOL0     H44689   7.453   5.119   9.936  2.6105 -1.6370  0.4917
  324MOL0     H44690   7.517   5.321   9.859 -0.1195 -2.2204  3.1182
  324MOL0     H44691   7.590   5.250   9.715 -2.0091  2.1008 -1.1115
  324MOL0     H44692   7.073   5.085   9.271 -1.1085  0.8174  1.4719
  324MOL0     H44693   7.109   5.036   9.044  0.9205  0.3503  1.4195
  324MOL0     H44694   7.087   5.195   8.648 -3.2688  0.7888  2.3892
  324MOL0     H44695   7.169   5.199   8.424  0.1708 -0.3049 -0.7118
  324MOL0     H44696   7.374   5.212   8.690  3.4331  2.9953 -1.0353
  324MOL0     H44697   7.373   4.997   8.804  1.3363  1.8802 -3.3892
  324MOL0     H44698   7.428   4.928   9.307  2.0868 -1.0706  2.0904
  324MOL0     H44699   7.429   4.779   9.511  1.0845 -1.6012  0.2520
  324MOL0     H44700   7.604   4.477   9.597  0.7754 -0.0344 -0.6438
  324MOL0     H44701   7.570   4.650   9.617 -1.9610 -0.5206  2.7705
  324MOL0     H44702   7.520   4.562   9.824 -1.2550 -0.8335  1.4247
  324MOL0     H44703   7.441   4.418   9.754  0.7329  0.1227 -2.0788
  324MOL0     H44704   7.338   4.707   9.760 -1.2765 -0.2887  0.6302
  324MOL0     H44705   7.251   4.574   9.673 -3.2199 -0.9357  2.1840
  324MOL0     H44706   7.245   4.486   9.937 -1.5025 -0.0302 -1.8488
  324MOL0     H44707   7.129   4.604   9.864  0.5926  2.1617 -1.8365
  324MOL0     H44708   7.347   4.834  10.157 -4.4244  0.3349  0.9945
  324MOL0     H44709   7.474   4.447   9.267 -1.1748 -0.9387  0.4256
  324MOL0     H44710   7.496   4.458   9.022 -0.3090  0.8459  3.7978
  324MOL0     H44711   7.368   4.558   8.956 -0.6122 -0.1913 -1.7587
  324MOL0     H44712   7.547   4.613   8.957  0.3703 -0.4274  1.5244
  325MOL0     O44713  10.084   4.801  10.258 -0.0144  0.3480  0.7956
  325MOL0     C44714  10.008   4.843  10.344  0.3874  0.2554  0.7717
  325MOL0     O44715  10.020   4.840  10.478  0.2062 -0.0141 -0.1169
  325MOL0     C44716  10.105   4.752  10.535 -1.2345 -0.8956  0.6841
  325MOL0     C44717  10.169   4.637  10.470 -0.2069  0.5332 -0.5325
  325MOL0     C44718  10.272   4.571  10.551 -0.1089 -0.4621  0.3885
  325MOL0     C44719  10.304   4.618  10.685 -0.5970  0.2760  0.2112
  325MOL0     O44720  10.407   4.563  10.755  0.2524  0.1197  1.0146
  325MOL0     C44721  10.521   4.532  10.680 -0.1006 -0.2603  0.5264
  325MOL0     C44722  10.565   4.383  10.708 -0.1538 -0.1988  0.5277
  325MOL0     C44723  10.695   4.349  10.627  0.3305 -0.1243 -0.6735
  325MOL0     C44724  10.779   4.230  10.688 -0.6262 -0.2301  0.4051
  325MOL0     C44725  10.846   4.153  10.579 -0.1908  1.7182  1.6665
  325MOL0     C44726  10.746   4.069  10.489  0.3373 -0.2787  0.5578
  325MOL0     C44727  10.826   3.980  10.389  0.0374  0.0926  0.1137
  325MOL0     C44728  10.734   3.889  10.306 -1.4299 -0.1262  0.4242
  325MOL0     N44729  10.701   3.960  10.179  0.6161 -0.3520  0.2579
  325MOL0     C44730  10.592   4.035  10.143  0.1133 -0.3417  0.1945
  325MOL0     C44731  10.614   4.074  10.020 -0.4878  1.2168 -0.0530
  325MOL0     C44732  10.506   4.138   9.949  0.4124 -0.0818 -0.3255
  325MOL0     C44733  10.473   4.068   9.823  0.5960  0.3986  0.1227
  325MOL0     C44734  10.346   4.144   9.765 -0.9332  0.1440 -0.0511
  325MOL0     C44735  10.370   4.241   9.657  0.4260 -0.6836  0.4883
  325MOL0     O44736  10.440   4.202   9.533 -0.0786  0.1127 -0.4832
  325MOL0     C44737  10.383   4.143   9.431  1.2759 -0.4601  0.2019
  325MOL0     C44738  10.459   4.053   9.358  0.3771  0.5299  0.3766
  325MOL0     C44739  10.414   3.991   9.247 -0.0495  0.5568 -0.1359
  325MOL0     C44740  10.503   3.879   9.178 -0.1110  0.3096 -0.7583
  325MOL0     C44741  10.280   4.023   9.201 -1.2165 -0.0548 -0.6636
  325MOL0     C44742  10.221   3.961   9.082 -0.4998  0.9523  1.0598
  325MOL0     O44743  10.127   4.027   9.013  0.4020  0.4685  0.2015
  325MOL0     C44744  10.113   4.003   8.878  0.0597 -1.4321  0.2250
  325MOL0     C44745  10.219   3.975   8.785  0.4126 -0.3269  0.5315
  325MOL0     C44746  10.190   3.952   8.645 -0.5899  0.4656 -0.5654
  325MOL0     C44747  10.065   3.986   8.594  0.7680 -0.0560 -0.6530
  325MOL0     O44748  10.041   3.987   8.457  0.6381 -0.8912  0.4740
  325MOL0     C44749  10.133   3.945   8.358 -0.0555  0.0673  0.0050
  325MOL0     C44750  10.249   4.041   8.327 -0.3312  1.1804 -0.2616
  325MOL0     C44751  10.347   4.006   8.201  0.5209 -0.0882 -0.6795
  325MOL0     C44752  10.293   3.915   8.090 -0.8827  0.1308  0.1670
  325MOL0     C44753  10.191   3.981   7.994 -0.8378 -0.0994 -0.3689
  325MOL0     C44754  10.156   3.897   7.873 -0.2418 -1.1489  0.2367
  325MOL0     C44755  10.036   3.960   7.798  0.3671 -0.6631  0.6775
  325MOL0     C44756  10.039   3.922   7.648 -0.2580  1.0324 -0.3329
  325MOL0    Cl44757  10.196   4.001   7.588  0.5154 -0.2137 -0.1639
  325MOL0     C44758   9.966   4.028   8.684 -0.4518  0.5750  0.5791
  325MOL0     C44759   9.986   4.031   8.818  0.0463 -0.0747 -0.9984
  325MOL0     O44760  10.272   3.853   9.043 -0.2218  0.1649  0.7184
  325MOL0     C44761  10.201   4.113   9.276  0.4407 -0.2829 -0.2861
  325MOL0     C44762  10.251   4.177   9.387 -0.5192 -0.0803  0.0773
  325MOL0     N44763  10.741   4.032   9.974 -0.3268 -1.0817 -0.5406
  325MOL0     N44764  10.794   3.973  10.076 -0.0088 -0.4642 -0.6827
  325MOL0     C44765  10.226   4.717  10.741  0.1995 -2.0085  0.0470
  325MOL0     C44766  10.142   4.793  10.655 -0.0449 -0.9710 -0.4328
  325MOL0     C44767   9.897   4.931  10.289  0.8034  0.6465 -0.2735
  325MOL0     C44768   9.846   5.039  10.367  0.5306 -0.0176 -1.1465
  325MOL0     C44769   9.768   5.144  10.323 -0.1973  0.5193 -0.1202
  325MOL0     C44770   9.725   5.151  10.188 -0.1417 -0.1397  1.1974
  325MOL0     O44771   9.672   5.255  10.121  0.4341  1.0539  0.0230
  325MOL0     C44772   9.631   5.372  10.188 -0.0494  0.4118  0.2655
  325MOL0     C44773   9.556   5.458  10.086 -1.0918 -0.0954 -0.4633
  325MOL0     C44774   9.649   5.509   9.980  0.6537  0.3683 -0.1665
  325MOL0     C44775   9.578   5.582   9.865 -0.2165  1.0107 -0.0850
  325MOL0     C44776   9.496   5.492   9.768  0.8986 -0.1973 -0.9055
  325MOL0     C44777   9.419   5.443   9.688  0.8009  0.3903  0.5482
  325MOL0     C44778   9.767   5.041  10.108  0.0524  0.1616 -0.3946
  325MOL0     C44779   9.849   4.936  10.152  0.0687  0.4143 -0.4989
  325MOL0     C44780   9.892   4.843  10.037 -0.1939  0.5543 -0.3119
  325MOL0     H44781  10.141   4.608  10.369 -1.1711  0.8405 -0.3641
  325MOL0     H44782  10.333   4.496  10.501  1.4216 -0.0301  1.5265
  325MOL0     H44783  10.598   4.592  10.728 -0.3616 -0.9069  1.8014
  325MOL0     H44784  10.528   4.563  10.575 -0.3036  4.7745  1.7270
  325MOL0     H44785  10.595   4.388  10.814 -1.4803  4.5920  0.8936
  325MOL0     H44786  10.482   4.318  10.681  0.9603 -0.3240 -3.0905
  325MOL0     H44787  10.655   4.325  10.528 -0.0238  0.4691 -0.6745
  325MOL0     H44788  10.760   4.435  10.610  1.1621 -0.8697 -1.4276
  325MOL0     H44789  10.861   4.257  10.755  0.8295  0.7904 -1.6882
  325MOL0     H44790  10.708   4.173  10.750 -2.2181 -0.5137 -1.5660
  325MOL0     H44791  10.920   4.091  10.631  2.0864  0.8042 -2.2583
  325MOL0     H44792  10.902   4.227  10.521 -0.6696  0.3795 -0.6080
  325MOL0     H44793  10.670   4.010  10.540 -2.5416 -0.4015 -3.4322
  325MOL0     H44794  10.688   4.134  10.423 -1.0830 -1.0452  1.0232
  325MOL0     H44795  10.889   3.915  10.451 -2.7607 -3.0129 -0.0096
  325MOL0     H44796  10.889   4.048  10.330 -0.9461  0.4573 -0.5330
  325MOL0     H44797  10.791   3.803  10.269 -0.9883 -0.4718  1.8417
  325MOL0     H44798  10.661   3.840  10.370  0.2036 -1.6453  1.1873
  325MOL0     H44799  10.500   4.045  10.199 -1.3555 -1.7999 -1.8207
  325MOL0     H44800  10.526   4.244   9.930  1.3266  0.1372  1.6486
  325MOL0     H44801  10.414   4.146  10.008 -2.2043 -1.0342 -3.8688
  325MOL0     H44802  10.549   4.066   9.745  0.0787  0.7225 -0.4004
  325MOL0     H44803  10.435   3.969   9.851  4.1038 -1.2961 -0.5799
  325MOL0     H44804  10.290   4.063   9.717 -0.6057  1.1104 -2.1577
  325MOL0     H44805  10.289   4.195   9.844  0.1415 -2.0243  2.2711
  325MOL0     H44806  10.268   4.273   9.637  0.3089 -1.0164  0.5476
  325MOL0     H44807  10.429   4.324   9.698  1.2579 -2.2741  2.6841
  325MOL0     H44808  10.563   4.035   9.387  0.1587 -0.4612  0.5949
  325MOL0     H44809  10.452   3.784   9.193 -1.4668  1.4675  3.2745
  325MOL0     H44810  10.604   3.876   9.221 -0.4030  2.5601  0.2128
  325MOL0     H44811  10.521   3.884   9.070  0.6972 -0.5895 -0.6780
  325MOL0     H44812  10.322   3.966   8.816  1.7433  2.0324 -2.7261
  325MOL0     H44813  10.276   3.909   8.593 -2.0316 -0.0488 -2.6573
  325MOL0     H44814  10.170   3.848   8.392  3.7112  1.5260  0.5194
  325MOL0     H44815  10.095   3.931   8.256 -0.2378  1.5528 -0.1443
  325MOL0     H44816  10.198   4.135   8.303 -2.6396  0.3655  1.1180
  325MOL0     H44817  10.330   4.067   8.396  0.7054  0.4748 -1.1750
  325MOL0     H44818  10.440   3.965   8.242  0.6456  1.5823  0.8618
  325MOL0     H44819  10.385   4.099   8.159  0.1394  0.6594  0.5615
  325MOL0     H44820  10.256   3.819   8.127  1.6796 -0.9985  0.0562
  325MOL0     H44821  10.380   3.891   8.028 -1.0248  2.6532 -1.1409
  325MOL0     H44822  10.096   3.994   8.046 -0.2689  1.0745  0.4093
  325MOL0     H44823  10.229   4.078   7.961  1.3431  0.0437  2.2307
  325MOL0     H44824  10.126   3.795   7.898  2.1396 -2.1393 -0.6807
  325MOL0     H44825  10.242   3.896   7.805 -1.2242 -4.1446 -1.1233
  325MOL0     H44826  10.037   4.069   7.800  2.3562 -0.6257  3.4627
  325MOL0     H44827   9.943   3.927   7.845 -0.0918  0.6254  0.7117
  325MOL0     H44828   9.947   3.956   7.600 -0.5606  0.3513 -0.2511
  325MOL0     H44829  10.047   3.814   7.636  2.4096  1.2216 -0.8394
  325MOL0     H44830   9.869   4.068   8.655  1.2150  3.1757 -1.9806
  325MOL0     H44831   9.903   4.050   8.886  0.1570  1.1934 -1.1921
  325MOL0     H44832  10.102   4.134   9.237 -0.7872 -3.0132  1.0812
  325MOL0     H44833  10.191   4.247   9.444  0.8123 -0.8596  2.5955
  325MOL0     H44834  10.259   4.764  10.833  1.3436 -2.4652 -0.1194
  325MOL0     H44835  10.104   4.884  10.699 -0.8836 -2.2199  1.5761
  325MOL0     H44836   9.875   5.048  10.471  1.0770 -0.6868 -1.2294
  325MOL0     H44837   9.736   5.214  10.400  0.9471  1.9407 -0.8897
  325MOL0     H44838   9.566   5.349  10.274  2.3589 -3.1772  1.3808
  325MOL0     H44839   9.726   5.416  10.219 -0.1497  1.0845 -0.3814
  325MOL0     H44840   9.509   5.545  10.133 -0.7821  1.5058 -2.9172
  325MOL0     H44841   9.485   5.393  10.034 -3.9238  1.1233  1.6470
  325MOL0     H44842   9.717   5.574  10.036  2.0276 -0.6925 -0.5738
  325MOL0     H44843   9.705   5.424   9.942  3.7369  1.2616  1.9999
  325MOL0     H44844   9.653   5.636   9.808  1.2371  0.3963  1.1678
  325MOL0     H44845   9.513   5.660   9.904 -1.0600  1.2559 -1.8719
  325MOL0     H44846   9.343   5.407   9.622  0.8379  0.6462  0.3669
  325MOL0     H44847   9.754   5.046  10.000  3.2423 -0.1287 -0.9115
  325MOL0     H44848   9.978   4.877   9.978 -0.1053  1.8910  0.5475
  325MOL0     H44849   9.892   4.740  10.073  2.8439  0.5980  0.0948
  325MOL0     H44850   9.811   4.843   9.964 -0.2702 -0.6018 -0.2456
  326MOL0     O44851   4.137   3.714   5.595 -0.7303  0.1494 -0.6126
  326MOL0     C44852   4.239   3.770   5.553 -0.4370 -0.0076 -1.6202
  326MOL0     O44853   4.298   3.746   5.437 -0.5958  0.7486 -0.5458
  326MOL0     C44854   4.265   3.623   5.378  0.2215  0.1189  0.0236
  326MOL0     C44855   4.285   3.502   5.449  0.2600 -0.6927 -0.0999
  326MOL0     C44856   4.247   3.381   5.385 -1.3294  0.8962  0.0189
  326MOL0     C44857   4.199   3.374   5.252 -1.5263  0.3365 -0.4864
  326MOL0     O44858   4.161   3.256   5.189 -0.0560  0.4807 -0.9701
  326MOL0     C44859   4.029   3.229   5.151  1.2068  0.6676 -0.2102
  326MOL0     C44860   3.955   3.129   5.251  0.9628 -0.3915  0.4008
  326MOL0     C44861   3.908   2.996   5.187 -0.1722  0.2188  0.0169
  326MOL0     C44862   3.810   2.914   5.271 -0.9931  0.5382  0.2379
  326MOL0     C44863   3.782   2.784   5.194  0.1545 -0.6009  0.2425
  326MOL0     C44864   3.684   2.700   5.286  0.8626  0.6396  0.4086
  326MOL0     C44865   3.665   2.553   5.243  0.2268 -0.9962  0.1867
  326MOL0     C44866   3.568   2.468   5.325 -0.2036  0.1964  0.7935
  326MOL0     N44867   3.536   2.337   5.260 -0.4832  0.8446 -1.4474
  326MOL0     C44868   3.413   2.277   5.285 -1.1490 -0.1220 -0.3129
  326MOL0     C44869   3.433   2.159   5.228 -0.0509  0.3244 -0.1411
  326MOL0     C44870   3.337   2.051   5.243  0.0690  1.0757 -0.3691
  326MOL0     C44871   3.365   1.969   5.367 -0.0944 -0.7386 -0.1709
  326MOL0     C44872   3.246   1.900   5.423 -0.7025 -0.2159  0.2003
  326MOL0     C44873   3.174   1.823   5.307  0.3116 -0.4610  0.2853
  326MOL0     O44874   3.258   1.713   5.266 -0.2588  0.0767  0.3417
  326MOL0     C44875   3.213   1.639   5.159  0.7754  0.5012  0.4744
  326MOL0     C44876   3.258   1.506   5.154  0.6245  0.8071 -0.5221
  326MOL0     C44877   3.217   1.404   5.060  0.8176  0.9441  0.4147
  326MOL0     C44878   3.270   1.258   5.066 -0.4041 -1.1821  0.3223
  326MOL0     C44879   3.122   1.448   4.961  0.5968 -1.3369 -0.2383
  326MOL0     C44880   3.054   1.368   4.853 -0.6833 -0.4189 -0.1478
  326MOL0     O44881   2.983   1.440   4.752 -0.0078  0.2178 -0.2100
  326MOL0     C44882   2.895   1.365   4.682 -0.4729  0.5184  1.2230
  326MOL0     C44883   2.757   1.361   4.706 -0.9083 -0.0390  0.0807
  326MOL0     C44884   2.667   1.305   4.624  0.9599 -0.0576  0.1379
  326MOL0     C44885   2.715   1.224   4.514 -0.3105 -1.3012  0.7069
  326MOL0     O44886   2.631   1.151   4.445 -0.1056 -0.0537 -0.2194
  326MOL0     C44887   2.545   1.062   4.524  0.1274 -0.4988  0.3669
  326MOL0     C44888   2.620   0.926   4.569 -0.0985  0.1907  0.3759
  326MOL0     C44889   2.708   0.959   4.698  0.5217  0.8923 -0.3489
  326MOL0     C44890   2.829   0.877   4.710  0.0621  0.2419  0.4754
  326MOL0     C44891   2.949   0.949   4.647  0.4476 -0.9693  0.5779
  326MOL0     C44892   3.070   0.851   4.645  0.3228  0.2667 -0.6047
  326MOL0     C44893   3.206   0.936   4.675  0.4908  0.3806 -0.4350
  326MOL0     C44894   3.243   0.932   4.820 -0.0629 -0.3084  0.4712
  326MOL0    Cl44895   3.406   0.993   4.843 -0.0568 -0.0700 -0.1436
  326MOL0     C44896   2.845   1.238   4.479  1.1650 -0.5748  1.0484
  326MOL0     C44897   2.936   1.307   4.557 -0.1421 -0.7162  0.1655
  326MOL0     O44898   3.054   1.249   4.859 -0.3608  0.6832  0.4724
  326MOL0     C44899   3.072   1.585   4.967  0.2385  0.3897  0.5349
  326MOL0     C44900   3.114   1.677   5.069  0.7759  0.9174  0.1979
  326MOL0     N44901   3.558   2.143   5.177 -0.0698 -0.0036  0.7681
  326MOL0     N44902   3.623   2.252   5.206  0.0917  0.0583  1.1238
  326MOL0     C44903   4.202   3.491   5.181  0.0693 -1.3775 -0.6506
  326MOL0     C44904   4.235   3.615   5.245  0.1317  0.3381  0.4008
  326MOL0     C44905   4.289   3.876   5.647  0.7611 -0.2434 -0.0441
  326MOL0     C44906   4.273   4.011   5.607  0.4267  0.1221 -0.0162
  326MOL0     C44907   4.309   4.112   5.705 -0.4702  0.2762  0.1759
  326MOL0     C44908   4.359   4.084   5.836 -0.1485  0.1654 -0.2786
  326MOL0     O44909   4.387   4.186   5.916 -0.5699 -0.1164 -0.2482
  326MOL0     C44910   4.456   4.145   6.038  0.2126 -0.2560 -0.8168
  326MOL0     C44911   4.508   4.259   6.114  0.1160 -0.9096 -0.1548
  326MOL0     C44912   4.639   4.330   6.060 -0.0071  0.6062 -0.0971
  326MOL0     C44913   4.671   4.461   6.142  0.2067  0.2725 -0.0054
  326MOL0     C44914   4.815   4.477   6.154 -0.2084  0.7799 -0.1335
  326MOL0     C44915   4.940   4.492   6.175 -1.2010 -0.4565 -0.7723
  326MOL0     C44916   4.372   3.944   5.867  0.4065  0.6762  0.9546
  326MOL0     C44917   4.328   3.838   5.783  0.7671 -1.0889 -0.4105
  326MOL0     C44918   4.320   3.691   5.830 -0.7584 -1.0506 -0.5697
  326MOL0     H44919   4.310   3.508   5.554 -0.4904  2.4245  0.0027
  326MOL0     H44920   4.241   3.294   5.450  3.2087 -0.3920 -0.8854
  326MOL0     H44921   4.029   3.185   5.051  1.1438  2.8533 -1.2333
  326MOL0     H44922   3.966   3.318   5.145  0.2165 -0.0898 -1.6423
  326MOL0     H44923   4.023   3.107   5.334 -1.6986 -2.5350  2.2066
  326MOL0     H44924   3.872   3.188   5.291  1.7940  1.7661 -0.9221
  326MOL0     H44925   3.851   3.019   5.097  1.7807  3.6329 -0.5351
  326MOL0     H44926   3.991   2.942   5.141 -1.9009 -0.7432 -2.0819
  326MOL0     H44927   3.852   2.898   5.371 -1.1745 -0.5098  0.1575
  326MOL0     H44928   3.713   2.962   5.283 -0.2442  2.3313 -0.6139
  326MOL0     H44929   3.873   2.734   5.162  0.6993 -1.0356  2.3056
  326MOL0     H44930   3.735   2.822   5.103  0.2695 -1.3646 -0.1400
  326MOL0     H44931   3.729   2.710   5.385  1.6168 -0.4759  0.2002
  326MOL0     H44932   3.584   2.744   5.295 -0.1847 -1.6926  1.0970
  326MOL0     H44933   3.761   2.502   5.255  0.3780 -1.1551 -1.4395
  326MOL0     H44934   3.633   2.545   5.139  0.6042 -1.2994  0.0931
  326MOL0     H44935   3.617   2.449   5.421  1.2403 -2.1011 -0.2996
  326MOL0     H44936   3.474   2.523   5.329 -1.6871 -1.5512 -3.7290
  326MOL0     H44937   3.321   2.319   5.324  0.8164  2.7349  1.6495
  326MOL0     H44938   3.345   1.986   5.156  2.6096  0.6129  0.1575
  326MOL0     H44939   3.235   2.092   5.248  0.1020  1.2595 -1.0887
  326MOL0     H44940   3.447   1.898   5.346  1.5888  2.1018 -4.8995
  326MOL0     H44941   3.399   2.048   5.434 -0.8614  1.0319 -1.7795
  326MOL0     H44942   3.268   1.828   5.503 -3.1308 -0.1826  0.9717
  326MOL0     H44943   3.182   1.973   5.473  0.3368 -0.0885  1.3857
  326MOL0     H44944   3.072   1.792   5.332 -0.5596  2.0183 -0.0011
  326MOL0     H44945   3.155   1.883   5.218 -1.8686 -2.8512 -0.9893
  326MOL0     H44946   3.334   1.487   5.229  2.4682 -1.3474 -2.7955
  326MOL0     H44947   3.335   1.246   5.154 -1.0447  0.4544  1.0643
  326MOL0     H44948   3.325   1.248   4.972 -0.5491  1.1024 -0.0728
  326MOL0     H44949   3.186   1.188   5.065 -3.5130  2.1642  2.1889
  326MOL0     H44950   2.719   1.414   4.793  0.5210  1.1619  0.0312
  326MOL0     H44951   2.561   1.313   4.646  0.5711 -4.2776  0.6474
  326MOL0     H44952   2.504   1.108   4.615  2.6736 -1.1969  1.9773
  326MOL0     H44953   2.465   1.023   4.461 -0.2649 -1.5550  1.4869
  326MOL0     H44954   2.544   0.849   4.584  1.9648 -2.9961 -3.4595
  326MOL0     H44955   2.691   0.891   4.494  1.5457  0.8961  1.5517
  326MOL0     H44956   2.653   0.943   4.791 -0.1220  2.1507 -0.4995
  326MOL0     H44957   2.744   1.062   4.701  2.0033  0.4019  2.1741
  326MOL0     H44958   2.817   0.777   4.667 -1.2634  1.1291 -1.3725
  326MOL0     H44959   2.835   0.870   4.819 -4.8395  0.2749  0.9651
  326MOL0     H44960   2.932   0.973   4.541 -1.1697 -1.8913  0.5982
  326MOL0     H44961   2.971   1.040   4.703 -1.0677 -0.5263  0.4962
  326MOL0     H44962   3.084   0.807   4.546 -1.3826 -1.3471 -0.1695
  326MOL0     H44963   3.059   0.773   4.720 -2.6174  2.7844  1.8731
  326MOL0     H44964   3.190   1.033   4.629  0.1674  0.3319 -0.4234
  326MOL0     H44965   3.282   0.880   4.618  0.5910 -0.3384  0.3734
  326MOL0     H44966   3.239   0.835   4.871  0.9523 -0.2908  0.6156
  326MOL0     H44967   3.175   0.996   4.875 -1.0545  0.2259 -1.3106
  326MOL0     H44968   2.889   1.194   4.391  4.6556  2.6227  0.9627
  326MOL0     H44969   3.032   1.320   4.508 -1.3312  0.6466 -1.8995
  326MOL0     H44970   3.001   1.631   4.899  0.1773  2.3335  1.8647
  326MOL0     H44971   3.072   1.776   5.058  0.0240  0.4450 -1.6579
  326MOL0     H44972   4.179   3.485   5.075 -1.1873  1.9715 -0.6950
  326MOL0     H44973   4.239   3.717   5.207  3.0754  0.7615  1.5155
  326MOL0     H44974   4.233   4.031   5.508 -1.0753 -0.3257  0.4699
  326MOL0     H44975   4.302   4.215   5.670  1.1540  0.9280  1.6290
  326MOL0     H44976   4.380   4.094   6.100 -0.3072  0.7005 -0.6565
  326MOL0     H44977   4.541   4.080   6.018  2.1158  1.7248  0.4613
  326MOL0     H44978   4.513   4.239   6.221  0.4180  1.7522  0.3830
  326MOL0     H44979   4.426   4.331   6.116 -1.8465 -3.0378 -0.1212
  326MOL0     H44980   4.722   4.263   6.084  1.0123  2.1516  0.8880
  326MOL0     H44981   4.622   4.353   5.955  0.7122  0.6566 -0.2054
  326MOL0     H44982   4.622   4.462   6.239  1.3277 -0.5080  0.5785
  326MOL0     H44983   4.640   4.549   6.084  1.5412  1.0156  0.3891
  326MOL0     H44984   5.044   4.502   6.197 -1.1197  0.9404 -1.6680
  326MOL0     H44985   4.394   3.915   5.969  1.0020 -0.6958  0.4721
  326MOL0     H44986   4.219   3.671   5.866 -0.5617  0.5054  1.0125
  326MOL0     H44987   4.359   3.634   5.745  0.8412  4.4703 -4.0692
  326MOL0     H44988   4.388   3.667   5.913 -0.4030 -0.3107 -0.6309
  327MOL0     O44989  11.045   7.706   0.966  1.1163 -0.4399  0.3328
  327MOL0     C44990  10.988   7.722   0.855  0.4075  0.3048 -1.2646
  327MOL0     O44991  10.940   7.618   0.782 -0.4375  0.2437 -0.0418
  327MOL0     C44992  10.985   7.487   0.796  0.9285 -0.6765 -0.7399
  327MOL0     C44993  10.888   7.379   0.765 -0.5910  0.3729 -0.7179
  327MOL0     C44994  10.933   7.252   0.751  0.8378 -0.2448  0.9824
  327MOL0     C44995  11.071   7.223   0.757 -0.2620 -0.0812 -0.3988
  327MOL0     O44996  11.121   7.097   0.737  0.4485 -0.3979 -0.2008
  327MOL0     C44997  11.226   7.091   0.632  0.9439 -0.1112 -0.3628
  327MOL0     C44998  11.269   6.942   0.603  0.2945  0.1855 -0.1680
  327MOL0     C44999  11.386   6.939   0.527  0.0877  0.2128  0.4462
  327MOL0     C45000  11.417   6.800   0.464 -0.1405 -1.1375 -0.4664
  327MOL0     C45001  11.555   6.798   0.403 -0.4504  0.2918 -0.3600
  327MOL0     C45002  11.592   6.665   0.343 -1.0164 -0.1053 -0.6688
  327MOL0     C45003  11.630   6.679   0.197 -0.8767 -0.4613  0.4262
  327MOL0     C45004  11.672   6.544   0.120  0.1986  0.3767 -1.0940
  327MOL0     N45005  11.796   6.504   0.186  0.2909 -0.1409 -0.6627
  327MOL0     C45006  11.918   6.523   0.128 -0.7183  0.5714  0.1071
  327MOL0     C45007  12.011   6.435   0.181 -0.4363 -0.8868 -0.3563
  327MOL0     C45008  12.151   6.428   0.140  0.2531  0.0556  0.2451
  327MOL0     C45009  12.235   6.412   0.275 -0.2849 -1.3180 -0.7971
  327MOL0     C45010  12.384   6.378   0.238  0.3572 -0.7022 -0.7654
  327MOL0     C45011  12.480   6.471   0.152  0.2642 -0.4588  1.3525
  327MOL0     O45012  12.447   6.454   0.015  0.3839 -0.8306 -0.7692
  327MOL0     C45013  12.530   6.494  -0.081 -0.5475 -0.0957 -0.0132
  327MOL0     C45014  12.640   6.573  -0.054 -0.2266 -0.2183  0.9084
  327MOL0     C45015  12.730   6.611  -0.158  0.1209 -0.1472  0.5656
  327MOL0     C45016  12.860   6.682  -0.113 -0.1372  1.2046 -0.5739
  327MOL0     C45017  12.713   6.572  -0.291 -0.0218 -0.3599  0.2812
  327MOL0     C45018  12.811   6.590  -0.402 -0.1604 -0.2115 -0.7934
  327MOL0     O45019  12.762   6.575  -0.529  0.0430 -0.0788 -0.2472
  327MOL0     C45020  12.839   6.578  -0.645 -0.1323 -0.0166  0.6464
  327MOL0     C45021  12.790   6.633  -0.764  0.1133  0.0485 -0.2493
  327MOL0     C45022  12.868   6.647  -0.877  0.0623  0.6486 -0.0490
  327MOL0     C45023  12.977   6.567  -0.893  0.2331 -0.2347 -0.4199
  327MOL0     O45024  13.054   6.547  -1.003  1.4686  0.3951  0.9026
  327MOL0     C45025  12.990   6.551  -1.125  0.1371  0.1809  0.4272
  327MOL0     C45026  13.073   6.529  -1.250 -0.5496 -0.6752 -0.4066
  327MOL0     C45027  13.169   6.642  -1.292 -0.4982 -0.0941  0.4508
  327MOL0     C45028  13.240   6.591  -1.415  0.1221 -0.3632 -0.4407
  327MOL0     C45029  13.339   6.478  -1.388  0.4168  0.1952 -0.6224
  327MOL0     C45030  13.395   6.448  -1.521 -0.3376 -0.5017 -0.0838
  327MOL0     C45031  13.525   6.363  -1.511 -1.1901 -1.0562 -0.2554
  327MOL0     C45032  13.614   6.353  -1.634  1.3099 -0.7880  1.5763
  327MOL0    Cl45033  13.531   6.293  -1.788 -0.2848 -0.0486 -0.0921
  327MOL0     C45034  13.025   6.505  -0.778  0.1000 -0.4125 -1.4756
  327MOL0     C45035  12.955   6.506  -0.656 -0.2856  0.2637 -0.1003
  327MOL0     O45036  12.926   6.612  -0.372 -0.0020 -0.4527 -0.0932
  327MOL0     C45037  12.598   6.496  -0.325  0.0968 -0.2319 -0.6137
  327MOL0     C45038  12.519   6.455  -0.217  0.6800  0.7346  0.6526
  327MOL0     N45039  11.946   6.364   0.274 -0.3996 -0.0539 -1.0376
  327MOL0     N45040  11.816   6.401   0.281 -0.0698  0.0344 -0.3184
  327MOL0     C45041  11.157   7.326   0.806  0.0088  0.4998 -0.6700
  327MOL0     C45042  11.118   7.454   0.830 -0.3792  0.0042 -0.1819
  327MOL0     C45043  10.964   7.869   0.816 -1.1506 -0.0627  0.3132
  327MOL0     C45044  10.948   7.969   0.919  0.5692 -1.0082  0.4649
  327MOL0     C45045  10.903   8.095   0.886 -0.1158 -0.3452 -0.0203
  327MOL0     C45046  10.874   8.135   0.758 -0.0341 -0.2076 -0.7422
  327MOL0     O45047  10.827   8.261   0.717  0.1460 -0.2532 -0.1405
  327MOL0     C45048  10.771   8.355   0.807 -0.0688  0.4216 -0.3853
  327MOL0     C45049  10.885   8.434   0.881  1.1949  0.5776  0.0566
  327MOL0     C45050  10.982   8.522   0.792  0.2164  0.2147 -0.3521
  327MOL0     C45051  11.089   8.605   0.882  0.3124  0.2181 -0.7494
  327MOL0     C45052  11.159   8.707   0.804 -0.2852 -0.1853  0.2429
  327MOL0     C45053  11.217   8.792   0.750  0.9584  0.0545 -0.0143
  327MOL0     C45054  10.912   8.043   0.660  1.0877  0.5642  1.1073
  327MOL0     C45055  10.958   7.915   0.685  0.9655 -0.2705  0.4603
  327MOL0     C45056  10.967   7.815   0.567 -0.7301 -1.0813 -0.5633
  327MOL0     H45057  10.786   7.400   0.738 -1.2099 -1.1165  0.3162
  327MOL0     H45058  10.871   7.174   0.708  3.6532 -0.3792 -3.4564
  327MOL0     H45059  11.320   7.141   0.657  1.2231 -0.3569 -0.8967
  327MOL0     H45060  11.188   7.145   0.544  3.8511  1.9010 -0.5404
  327MOL0     H45061  11.267   6.889   0.699 -1.4410 -1.2640 -0.9385
  327MOL0     H45062  11.188   6.894   0.547 -1.0892  1.4113  0.6911
  327MOL0     H45063  11.382   7.007   0.442  1.3409  0.0685  0.2579
  327MOL0     H45064  11.459   6.958   0.606 -1.0982 -2.6568  2.3949
  327MOL0     H45065  11.411   6.709   0.525 -0.7171  0.4253  1.9573
  327MOL0     H45066  11.344   6.791   0.383 -0.5201  5.8569 -1.4858
  327MOL0     H45067  11.630   6.812   0.481  0.1554  0.2471 -0.9314
  327MOL0     H45068  11.575   6.883   0.338  1.4435  2.4725  2.7869
  327MOL0     H45069  11.678   6.628   0.399 -1.5300 -3.1872 -1.7551
  327MOL0     H45070  11.513   6.590   0.347 -1.3030  0.2258 -0.0757
  327MOL0     H45071  11.712   6.751   0.202 -2.0375  0.8873  0.7715
  327MOL0     H45072  11.544   6.721   0.143 -0.3932 -0.6609 -0.5153
  327MOL0     H45073  11.599   6.466   0.143  1.0486 -0.9503 -2.7110
  327MOL0     H45074  11.683   6.550   0.012  1.0720 -0.1002 -1.0391
  327MOL0     H45075  11.933   6.603   0.057  1.5927 -0.0378 -0.1733
  327MOL0     H45076  12.181   6.517   0.083 -1.4329  0.2953 -0.3298
  327MOL0     H45077  12.165   6.339   0.078  0.7510 -1.6428  2.6668
  327MOL0     H45078  12.233   6.507   0.329  0.8227 -1.7080 -0.0303
  327MOL0     H45079  12.202   6.335   0.346 -3.0878  0.4793  0.0231
  327MOL0     H45080  12.428   6.363   0.338 -2.4238 -0.7188  0.5482
  327MOL0     H45081  12.383   6.281   0.188  0.7639 -2.4687  2.3741
  327MOL0     H45082  12.476   6.578   0.176  0.5148  1.1326 -4.2976
  327MOL0     H45083  12.579   6.431   0.174 -0.4809 -2.7583  0.7816
  327MOL0     H45084  12.652   6.600   0.050  0.9325 -3.2299  1.6462
  327MOL0     H45085  12.859   6.707  -0.006  0.8823 -0.9175 -0.0186
  327MOL0     H45086  12.891   6.768  -0.174  2.6059 -0.4300 -1.6451
  327MOL0     H45087  12.934   6.602  -0.121  0.8727  2.1136 -0.5590
  327MOL0     H45088  12.698   6.691  -0.764  0.3037  0.7685  4.6040
  327MOL0     H45089  12.827   6.714  -0.953 -1.3381  1.7953  1.6387
  327MOL0     H45090  12.906   6.481  -1.133 -0.4255  0.9488 -0.7500
  327MOL0     H45091  12.937   6.644  -1.150 -0.0279 -0.0724 -0.1935
  327MOL0     H45092  13.132   6.439  -1.232 -0.8332 -1.4132 -2.7806
  327MOL0     H45093  13.010   6.510  -1.337 -2.2624  3.3313 -0.2455
  327MOL0     H45094  13.255   6.665  -1.229 -0.0171  2.0219 -0.8497
  327MOL0     H45095  13.106   6.731  -1.305 -2.6725 -1.2999  2.0028
  327MOL0     H45096  13.304   6.678  -1.434 -1.7361  1.2464  0.3698
  327MOL0     H45097  13.165   6.571  -1.492 -1.9060 -0.5155  1.4862
  327MOL0     H45098  13.419   6.507  -1.318  4.0225 -2.5075 -3.2257
  327MOL0     H45099  13.293   6.384  -1.358 -0.8080  0.3635 -1.8700
  327MOL0     H45100  13.422   6.544  -1.567  0.0319 -1.0007 -0.9286
  327MOL0     H45101  13.319   6.394  -1.577 -0.7724  0.0090  0.0014
  327MOL0     H45102  13.507   6.265  -1.465 -1.7456 -0.0073  1.8967
  327MOL0     H45103  13.578   6.422  -1.436 -1.5397 -1.5971  0.4238
  327MOL0     H45104  13.704   6.293  -1.612  1.5199 -0.0909  2.7023
  327MOL0     H45105  13.642   6.457  -1.651 -0.1236 -0.7247 -0.9758
  327MOL0     H45106  13.113   6.445  -0.795 -0.0272 -1.7886  1.9971
  327MOL0     H45107  12.981   6.449  -0.568 -0.3479 -1.6961 -1.3013
  327MOL0     H45108  12.576   6.460  -0.425 -1.4467 -3.0089  0.6243
  327MOL0     H45109  12.432   6.393  -0.236 -1.1582  3.1078  0.7864
  327MOL0     H45110  11.263   7.309   0.817 -0.0259  1.4916  1.6922
  327MOL0     H45111  11.190   7.529   0.862 -1.0965  0.3020  0.8097
  327MOL0     H45112  10.968   7.941   1.022 -0.1302 -0.9159  0.6320
  327MOL0     H45113  10.887   8.163   0.969  1.0365  3.4003 -2.5931
  327MOL0     H45114  10.706   8.422   0.750 -0.6824  0.9760  0.9084
  327MOL0     H45115  10.707   8.303   0.879  0.9746 -1.0833 -0.5164
  327MOL0     H45116  10.942   8.356   0.932  2.4199  1.3268 -0.1110
  327MOL0     H45117  10.845   8.499   0.959  1.8424  1.3409 -0.2292
  327MOL0     H45118  11.025   8.455   0.717  0.5141  0.2072 -0.1768
  327MOL0     H45119  10.924   8.595   0.734  0.8249  0.7059 -0.3561
  327MOL0     H45120  11.167   8.545   0.930  0.8762 -0.3028 -2.2485
  327MOL0     H45121  11.035   8.639   0.971 -1.8445 -3.5107 -0.4403
  327MOL0     H45122  11.283   8.869   0.716  1.0951  0.3953  1.0053
  327MOL0     H45123  10.907   8.073   0.556 -0.6946 -0.0941  0.9775
  327MOL0     H45124  10.880   7.761   0.529  0.0086 -0.8056 -2.8085
  327MOL0     H45125  11.001   7.871   0.479 -0.1032  0.5487  0.6471
  327MOL0     H45126  11.035   7.734   0.593  1.5433  0.2873 -1.8586
  328MOL0     O45127   8.105   5.149   6.018  0.2719  0.2253 -0.8000
  328MOL0     C45128   7.983   5.185   6.038 -0.6010  0.0486  0.6596
  328MOL0     O45129   7.873   5.099   6.038 -0.5156  0.4276  0.2984
  328MOL0     C45130   7.889   4.963   6.049 -0.1881 -0.1067  1.8759
  328MOL0     C45131   7.929   4.883   5.943  0.3176 -0.2761 -0.5623
  328MOL0     C45132   7.913   4.744   5.949  0.2491  0.2287  0.3406
  328MOL0     C45133   7.869   4.679   6.064  0.1376 -0.3461  0.1024
  328MOL0     O45134   7.851   4.543   6.065 -1.1157  0.7979  0.2387
  328MOL0     C45135   7.814   4.481   6.190 -0.4333 -0.1745  0.6738
  328MOL0     C45136   7.857   4.331   6.175  0.9611 -0.3904 -0.1944
  328MOL0     C45137   7.774   4.242   6.078  0.1933 -0.3723 -0.1756
  328MOL0     C45138   7.799   4.088   6.091  0.4968 -0.4520  0.6154
  328MOL0     C45139   7.721   4.000   5.991 -0.3005 -0.2281 -0.7641
  328MOL0     C45140   7.781   4.001   5.851  0.4222 -0.4410  0.2044
  328MOL0     C45141   7.741   3.893   5.750  0.0344 -0.0549  0.3223
  328MOL0     C45142   7.817   3.893   5.616 -0.6235  0.1645 -0.8385
  328MOL0     N45143   7.795   3.763   5.547  0.4969 -0.6460 -0.0407
  328MOL0     C45144   7.696   3.740   5.460  0.5917  0.8080 -0.4800
  328MOL0     C45145   7.702   3.612   5.434 -0.6001  0.7069 -0.2210
  328MOL0     C45146   7.605   3.540   5.345  0.4669 -0.7357  0.1242
  328MOL0     C45147   7.669   3.447   5.240  0.4579  0.1615  0.4446
  328MOL0     C45148   7.772   3.516   5.156  0.2013 -0.2644 -0.2535
  328MOL0     C45149   7.823   3.433   5.037  0.6753  0.0348 -0.6132
  328MOL0     O45150   7.742   3.449   4.921 -0.7545  0.4745 -0.6421
  328MOL0     C45151   7.750   3.353   4.826 -0.7716 -0.3481  0.3269
  328MOL0     C45152   7.629   3.315   4.758  0.5209  0.3147  0.3393
  328MOL0     C45153   7.628   3.207   4.668  0.1305 -0.4222  0.1941
  328MOL0     C45154   7.491   3.182   4.610  0.7312 -0.0026  0.7644
  328MOL0     C45155   7.753   3.149   4.624  0.2454 -0.5092 -0.0655
  328MOL0     C45156   7.762   3.027   4.534 -0.0237 -0.1108  0.2081
  328MOL0     O45157   7.883   2.967   4.531  0.4817 -0.2854 -0.2750
  328MOL0     C45158   7.918   2.895   4.421 -0.6368  0.1476 -0.3597
  328MOL0     C45159   7.940   2.759   4.447  0.1334  0.0778  0.2062
  328MOL0     C45160   8.006   2.684   4.351  0.7243  0.0159  0.2980
  328MOL0     C45161   8.044   2.741   4.228  0.2822  0.4210 -0.0944
  328MOL0     O45162   8.081   2.668   4.123 -0.2907 -0.2284  0.6739
  328MOL0     C45163   8.178   2.562   4.152 -0.1433 -0.7340 -0.2770
  328MOL0     C45164   8.255   2.523   4.026 -0.3955  0.2079 -0.4643
  328MOL0     C45165   8.305   2.639   3.941 -0.4810  0.6386  0.1357
  328MOL0     C45166   8.416   2.582   3.854  1.2977 -0.6065 -0.1891
  328MOL0     C45167   8.443   2.682   3.735  0.2206  0.1576 -0.0835
  328MOL0     C45168   8.557   2.633   3.634 -1.4582 -0.3047  0.4494
  328MOL0     C45169   8.606   2.742   3.533  0.6329 -0.4710  0.3283
  328MOL0     C45170   8.531   2.733   3.392 -1.1714  0.2210  0.8070
  328MOL0    Cl45171   8.603   2.846   3.269 -0.0445 -0.5490  0.0005
  328MOL0     C45172   8.004   2.874   4.202  0.2505  0.5110 -0.0290
  328MOL0     C45173   7.944   2.950   4.299 -0.0182  0.0911  0.0412
  328MOL0     O45174   7.663   3.013   4.462  0.6520 -0.1861  0.2407
  328MOL0     C45175   7.868   3.189   4.691  0.0263 -0.6060 -0.1150
  328MOL0     C45176   7.870   3.282   4.796 -0.5563 -0.0193 -0.4431
  328MOL0     N45177   7.796   3.558   5.516  0.3367  0.4713 -0.0540
  328MOL0     N45178   7.852   3.646   5.581 -0.9375  0.0249 -0.3097
  328MOL0     C45179   7.822   4.763   6.169 -1.0959  0.5045  0.5107
  328MOL0     C45180   7.835   4.901   6.160  0.3200  0.2533 -0.0942
  328MOL0     C45181   7.955   5.329   6.058  0.4263  1.1675  0.5831
  328MOL0     C45182   7.820   5.366   6.045  0.0698  0.7125  0.3844
  328MOL0     C45183   7.786   5.504   6.052 -0.9227 -0.1338  0.8100
  328MOL0     C45184   7.885   5.600   6.082  0.4012  0.2263 -0.0568
  328MOL0     O45185   7.828   5.728   6.099  0.2732  0.3642  0.0013
  328MOL0     C45186   7.917   5.833   6.144  0.5766  0.3494  0.0303
  328MOL0     C45187   8.001   5.885   6.018 -0.0183 -0.7790 -0.0880
  328MOL0     C45188   7.932   6.009   5.952 -0.1503 -0.2778  0.5991
  328MOL0     C45189   8.011   6.088   5.849 -0.4430  0.3377 -0.4017
  328MOL0     C45190   7.990   6.233   5.857  0.6829 -0.2179  0.6695
  328MOL0     C45191   7.969   6.352   5.861  0.0140 -0.1409  0.2242
  328MOL0     C45192   8.018   5.557   6.110 -0.1168 -0.8213  1.1764
  328MOL0     C45193   8.055   5.427   6.083 -0.1154  0.1639 -0.8452
  328MOL0     C45194   8.206   5.390   6.098 -0.1962 -0.1676  0.3725
  328MOL0     H45195   7.956   4.943   5.856  1.2345  3.0614  1.8294
  328MOL0     H45196   7.934   4.691   5.857 -0.0299  0.8834 -0.1054
  328MOL0     H45197   7.705   4.493   6.193 -0.2535  1.9952  4.1964
  328MOL0     H45198   7.865   4.530   6.273  1.4184  1.2045 -1.1719
  328MOL0     H45199   7.961   4.329   6.143  1.0168  0.6188 -0.1134
  328MOL0     H45200   7.862   4.309   6.282  3.5910  3.0747  0.6074
  328MOL0     H45201   7.670   4.268   6.099 -0.2088 -0.9219 -1.4111
  328MOL0     H45202   7.795   4.289   5.982 -2.0004  1.1415  0.0172
  328MOL0     H45203   7.908   4.084   6.089  0.6975  1.6089  2.5135
  328MOL0     H45204   7.768   4.047   6.187  0.4666  0.5900  1.0723
  328MOL0     H45205   7.617   4.033   5.983 -0.0104  0.2416 -3.2768
  328MOL0     H45206   7.721   3.901   6.037 -0.4799 -0.4453 -1.2260
  328MOL0     H45207   7.746   4.093   5.804 -1.7729  0.0252  2.5279
  328MOL0     H45208   7.888   3.992   5.870 -0.2146 -2.4297  3.5384
  328MOL0     H45209   7.636   3.919   5.731  0.1164  0.0865  0.0467
  328MOL0     H45210   7.748   3.796   5.799  1.7930 -0.0310  0.1632
  328MOL0     H45211   7.783   3.979   5.559 -0.6308  0.5469 -0.2640
  328MOL0     H45212   7.920   3.922   5.637 -0.7749  0.1989 -0.0906
  328MOL0     H45213   7.629   3.817   5.423 -1.0200 -0.8286 -1.1104
  328MOL0     H45214   7.543   3.616   5.297 -2.1718 -1.6563  1.8765
  328MOL0     H45215   7.541   3.484   5.413 -1.2650  0.4897 -0.4424
  328MOL0     H45216   7.709   3.356   5.286  3.3549  2.0635  2.0265
  328MOL0     H45217   7.587   3.426   5.171  0.4905 -0.4253  0.5723
  328MOL0     H45218   7.726   3.607   5.116  0.2035 -0.3270 -0.4007
  328MOL0     H45219   7.858   3.556   5.211  0.1681  1.1029 -1.1369
  328MOL0     H45220   7.923   3.468   5.011  1.1110 -1.0563 -0.4523
  328MOL0     H45221   7.829   3.330   5.073  1.9838  0.2608 -0.1672
  328MOL0     H45222   7.533   3.354   4.788  0.3856  1.9715 -2.0348
  328MOL0     H45223   7.450   3.088   4.648  0.8019  1.2138  4.2273
  328MOL0     H45224   7.503   3.186   4.501 -0.6292  2.3582  0.6434
  328MOL0     H45225   7.413   3.255   4.631  0.2670  0.1413 -1.2945
  328MOL0     H45226   7.917   2.724   4.547  1.9748  1.2749  1.0938
  328MOL0     H45227   8.021   2.581   4.382 -2.0581  0.3142  3.0792
  328MOL0     H45228   8.253   2.608   4.217 -1.4008 -2.1744  2.3454
  328MOL0     H45229   8.144   2.467   4.193  2.9767 -1.9817 -0.3187
  328MOL0     H45230   8.343   2.469   4.064 -0.3589  1.0099  0.6406
  328MOL0     H45231   8.199   2.449   3.968  1.3674 -1.8415  0.3109
  328MOL0     H45232   8.357   2.716   3.999  0.3308 -0.5081  0.9668
  328MOL0     H45233   8.224   2.700   3.900  0.4141  1.4912 -0.4247
  328MOL0     H45234   8.373   2.489   3.817 -2.5007  0.4375  1.1366
  328MOL0     H45235   8.512   2.571   3.905  1.4692 -0.7641 -0.5453
  328MOL0     H45236   8.351   2.704   3.680  1.4227 -1.6281 -3.0527
  328MOL0     H45237   8.474   2.775   3.784 -4.2489  2.0639 -0.3363
  328MOL0     H45238   8.542   2.537   3.584  0.1126 -1.2583  1.6552
  328MOL0     H45239   8.642   2.619   3.702 -1.6300  0.0253  0.7344
  328MOL0     H45240   8.712   2.724   3.518  0.4520 -0.3757 -1.2199
  328MOL0     H45241   8.608   2.846   3.568 -0.4326  0.2093 -1.4793
  328MOL0     H45242   8.426   2.763   3.400 -1.3907 -0.7131  1.5421
  328MOL0     H45243   8.533   2.631   3.353  0.1783 -0.6301  2.9029
  328MOL0     H45244   8.014   2.918   4.104  0.8118  0.6997  0.1066
  328MOL0     H45245   7.927   3.054   4.274 -2.1734 -1.0740 -4.5358
  328MOL0     H45246   7.970   3.161   4.667 -0.1329  0.1357 -1.7419
  328MOL0     H45247   7.963   3.311   4.843 -0.5796  0.1815 -0.5212
  328MOL0     H45248   7.786   4.733   6.267  0.1764  2.4651  1.6651
  328MOL0     H45249   7.792   4.964   6.237  0.4343  1.8057 -1.2433
  328MOL0     H45250   7.736   5.306   6.012  2.1761 -1.5217 -1.2893
  328MOL0     H45251   7.680   5.528   6.046 -1.3776 -2.2648 -1.3304
  328MOL0     H45252   7.862   5.920   6.183  1.5013  1.5293 -1.2134
  328MOL0     H45253   7.974   5.793   6.228  0.2360  0.5073  0.3457
  328MOL0     H45254   8.019   5.798   5.954  1.1254  0.2392 -1.2223
  328MOL0     H45255   8.092   5.932   6.056 -0.9434  2.5570 -1.6185
  328MOL0     H45256   7.835   5.984   5.909 -1.5396  2.4689  1.8976
  328MOL0     H45257   7.914   6.080   6.033 -0.0837  1.3544 -0.7584
  328MOL0     H45258   7.988   6.061   5.745 -0.0042  0.6270 -0.5780
  328MOL0     H45259   8.117   6.063   5.857 -0.1184  1.4144 -1.0673
  328MOL0     H45260   7.962   6.459   5.868  2.2588  0.3111 -2.6074
  328MOL0     H45261   8.095   5.632   6.118 -1.7411  1.4281 -1.9110
  328MOL0     H45262   8.249   5.344   6.008  0.3197 -1.6130  1.3134
  328MOL0     H45263   8.267   5.480   6.108  2.1901 -1.7338  0.9474
  328MOL0     H45264   8.240   5.341   6.190  1.0288  2.9399  1.7053
  329MOL0     O45265   7.971   6.030   8.124  0.2160  0.0856  0.5216
  329MOL0     C45266   7.880   5.992   8.064 -0.0516 -0.6677  0.2187
  329MOL0     O45267   7.791   5.891   8.104 -0.2864  0.2086 -0.1159
  329MOL0     C45268   7.800   5.814   8.224 -0.1846  0.5370 -0.5859
  329MOL0     C45269   7.801   5.670   8.226  0.1251 -0.9837  0.7408
  329MOL0     C45270   7.817   5.612   8.353  0.2940  0.5772 -0.3664
  329MOL0     C45271   7.839   5.685   8.465 -0.3658 -0.2630  0.5507
  329MOL0     O45272   7.869   5.637   8.584  0.4005 -0.2430  0.6325
  329MOL0     C45273   7.978   5.537   8.590 -0.6331  0.3963 -0.1884
  329MOL0     C45274   7.997   5.513   8.735 -0.3375 -0.6558 -1.2697
  329MOL0     C45275   7.897   5.427   8.815 -0.0396  0.4435  0.2136
  329MOL0     C45276   7.907   5.281   8.769 -1.6478  0.3075 -0.4584
  329MOL0     C45277   7.800   5.198   8.837 -0.5632 -0.5078 -0.5884
  329MOL0     C45278   7.817   5.190   8.995  0.9112 -0.0085 -0.3920
  329MOL0     C45279   7.769   5.056   9.059  0.7894 -0.0071  1.3394
  329MOL0     C45280   7.818   5.043   9.201  0.3924  0.8195  0.8605
  329MOL0     N45281   7.749   5.137   9.294 -0.9512 -0.1288  0.4660
  329MOL0     C45282   7.778   5.261   9.324  0.2234  0.2959  1.5267
  329MOL0     C45283   7.676   5.306   9.397  0.5968 -0.1374 -0.1590
  329MOL0     C45284   7.632   5.441   9.442 -0.0524  0.3408 -0.1779
  329MOL0     C45285   7.485   5.471   9.423 -0.3148 -0.6292  0.1050
  329MOL0     C45286   7.414   5.505   9.544 -0.3949  0.2115  0.8869
  329MOL0     C45287   7.256   5.491   9.513 -0.3924 -0.3752  0.2693
  329MOL0     O45288   7.225   5.591   9.424  1.3472  0.1702  0.1832
  329MOL0     C45289   7.106   5.577   9.360 -0.2673 -0.6899 -0.0044
  329MOL0     C45290   7.094   5.546   9.223 -0.4845 -0.9525 -0.4379
  329MOL0     C45291   6.976   5.550   9.143  0.3792  0.2139  0.0773
  329MOL0     C45292   6.988   5.516   9.000  1.0528  0.3014 -0.3979
  329MOL0     C45293   6.859   5.587   9.198  0.9854  0.3531 -0.1377
  329MOL0     C45294   6.730   5.565   9.123 -0.0277 -0.9074  0.0264
  329MOL0     O45295   6.625   5.515   9.208 -1.0750  0.1337  0.4623
  329MOL0     C45296   6.506   5.519   9.139  0.5927  0.4500 -0.1248
  329MOL0     C45297   6.479   5.446   9.016  0.0975  0.4944  0.5954
  329MOL0     C45298   6.354   5.422   8.963  0.5013  1.4333 -0.5950
  329MOL0     C45299   6.244   5.472   9.034 -0.2625 -0.3692 -1.2319
  329MOL0     O45300   6.122   5.470   8.987  0.2613 -0.0246  0.2655
  329MOL0     C45301   6.095   5.438   8.843  0.8332 -0.6220  1.0274
  329MOL0     C45302   5.942   5.432   8.820  0.4506 -0.5785  0.1407
  329MOL0     C45303   5.915   5.455   8.667 -0.2528  0.1143  0.2793
  329MOL0     C45304   5.961   5.335   8.577  0.3584 -0.2886  0.4062
  329MOL0     C45305   5.872   5.208   8.590  0.6113  0.9143 -1.0434
  329MOL0     C45306   5.720   5.208   8.566 -0.2783 -0.0568 -0.3621
  329MOL0     C45307   5.689   5.284   8.439  0.7434 -0.9737  0.1883
  329MOL0     C45308   5.540   5.266   8.397 -0.4858 -0.6931 -0.4741
  329MOL0    Cl45309   5.532   5.105   8.315 -0.2283 -0.0902  0.0680
  329MOL0     C45310   6.260   5.534   9.158 -0.0950 -0.0224  0.9698
  329MOL0     C45311   6.394   5.554   9.207 -0.0122 -1.0225  0.2143
  329MOL0     O45312   6.717   5.626   9.013  0.7104  0.0573 -0.7668
  329MOL0     C45313   6.861   5.600   9.341 -0.0237 -0.9997 -0.7927
  329MOL0     C45314   6.980   5.608   9.418 -0.9717  0.3932  0.0296
  329MOL0     N45315   7.589   5.191   9.407 -0.3880  0.0994 -0.7602
  329MOL0     N45316   7.634   5.096   9.339  0.1304  0.1733 -0.1512
  329MOL0     C45317   7.858   5.818   8.451  0.5319 -0.6761  0.2035
  329MOL0     C45318   7.816   5.889   8.336  1.6053  0.0228 -0.3119
  329MOL0     C45319   7.852   6.063   7.936 -0.3397 -0.0351 -0.2206
  329MOL0     C45320   7.756   6.002   7.844 -0.5130  0.3494  0.4024
  329MOL0     C45321   7.738   6.055   7.714  0.4406  0.4402 -0.6038
  329MOL0     C45322   7.813   6.164   7.662  0.0075  1.2386 -0.0407
  329MOL0     O45323   7.802   6.209   7.533 -0.0048 -0.8014 -0.9654
  329MOL0     C45324   7.680   6.185   7.458  0.1932 -0.3490  0.7425
  329MOL0     C45325   7.727   6.119   7.323 -0.5340  0.5417 -0.0577
  329MOL0     C45326   7.657   5.996   7.295  0.1238 -0.2189  0.1873
  329MOL0     C45327   7.509   6.017   7.251  0.1446 -0.3918 -0.2045
  329MOL0     C45328   7.501   6.067   7.116  0.4079 -0.1972 -0.3952
  329MOL0     C45329   7.463   6.095   7.000  0.2700  0.2779 -0.1976
  329MOL0     C45330   7.895   6.232   7.753  0.5029 -0.6214 -0.7411
  329MOL0     C45331   7.916   6.178   7.891  0.9880  0.3312  0.5481
  329MOL0     C45332   8.014   6.258   7.982 -0.2216 -0.6503  0.3446
  329MOL0     H45333   7.801   5.617   8.131  0.4636 -0.9320  0.7084
  329MOL0     H45334   7.797   5.508   8.376  2.4576  0.6366  2.3935
  329MOL0     H45335   8.067   5.578   8.542 -0.7364 -2.5070 -3.2323
  329MOL0     H45336   7.949   5.443   8.541  2.5782 -1.8440  1.8492
  329MOL0     H45337   8.095   5.467   8.751 -0.4632 -0.6723 -0.5505
  329MOL0     H45338   8.009   5.603   8.796  1.9825 -0.2338 -2.2494
  329MOL0     H45339   7.906   5.426   8.924 -1.5067  0.1481  0.3530
  329MOL0     H45340   7.791   5.447   8.794 -0.6073 -1.7091  0.8298
  329MOL0     H45341   7.886   5.264   8.663 -2.6065 -2.5362  0.1064
  329MOL0     H45342   8.005   5.236   8.786 -2.1082 -1.5201 -2.1868
  329MOL0     H45343   7.815   5.094   8.806  1.3397 -1.5533  3.2127
  329MOL0     H45344   7.701   5.224   8.797  0.4854  1.6110 -1.9856
  329MOL0     H45345   7.924   5.196   9.016  1.3432  2.7546 -2.7033
  329MOL0     H45346   7.772   5.280   9.037 -1.3765 -2.2441  2.3403
  329MOL0     H45347   7.786   4.964   9.002 -2.2045 -1.5903  2.7270
  329MOL0     H45348   7.661   5.065   9.040  0.8923 -0.0568  0.7129
  329MOL0     H45349   7.789   4.943   9.233 -2.7174  0.5407 -2.2362
  329MOL0     H45350   7.926   5.056   9.205  0.5472  1.2164 -2.0561
  329MOL0     H45351   7.860   5.316   9.279 -0.7124  1.4959  1.2392
  329MOL0     H45352   7.689   5.512   9.381 -0.4446 -1.1087 -2.3332
  329MOL0     H45353   7.652   5.441   9.550 -2.5672  2.2367  0.3813
  329MOL0     H45354   7.470   5.559   9.360 -2.4850 -0.8831  0.1633
  329MOL0     H45355   7.432   5.390   9.372  0.2945 -0.2733 -1.1375
  329MOL0     H45356   7.435   5.440   9.630 -1.1663  1.5950  2.1814
  329MOL0     H45357   7.432   5.608   9.577  1.5263 -0.4114  1.9292
  329MOL0     H45358   7.229   5.389   9.485 -0.6518 -0.2072 -0.1043
  329MOL0     H45359   7.212   5.503   9.612  2.3609  2.2279  1.3486
  329MOL0     H45360   7.191   5.521   9.181  1.1383  4.3275 -0.5455
  329MOL0     H45361   6.956   5.601   8.940 -1.2430 -1.5917 -2.0416
  329MOL0     H45362   6.927   5.429   8.972 -1.3978  2.2212 -1.4221
  329MOL0     H45363   7.096   5.506   8.988  1.1171 -0.2494  0.5187
  329MOL0     H45364   6.559   5.386   8.972 -0.8639 -1.7273  1.6826
  329MOL0     H45365   6.348   5.376   8.865  0.5735  3.8017 -1.7979
  329MOL0     H45366   6.139   5.513   8.776 -0.6025 -2.0053 -1.6258
  329MOL0     H45367   6.133   5.341   8.810 -0.1650 -0.0472 -2.1282
  329MOL0     H45368   5.906   5.336   8.857  1.2996 -1.6892 -1.8036
  329MOL0     H45369   5.898   5.518   8.872 -0.5892 -1.9531  1.6486
  329MOL0     H45370   5.966   5.549   8.642 -1.8320  1.2763  1.1530
  329MOL0     H45371   5.806   5.465   8.656 -0.0583  0.1761 -2.0990
  329MOL0     H45372   6.064   5.316   8.610 -0.1605  0.0647  2.3359
  329MOL0     H45373   5.970   5.367   8.473 -1.8701 -3.4828 -0.9403
  329MOL0     H45374   5.905   5.116   8.539 -1.8158  0.1576 -1.3974
  329MOL0     H45375   5.873   5.188   8.697 -3.3024 -0.6294 -1.1153
  329MOL0     H45376   5.671   5.254   8.653  0.0858  0.2730 -0.3329
  329MOL0     H45377   5.677   5.109   8.551  1.2783 -0.6412 -1.1036
  329MOL0     H45378   5.756   5.256   8.357  1.2765 -1.2692  0.7246
  329MOL0     H45379   5.705   5.390   8.461  1.7191 -1.5416  2.3504
  329MOL0     H45380   5.500   5.349   8.339 -0.1375 -2.9539 -4.3082
  329MOL0     H45381   5.489   5.257   8.493  2.0583 -2.1942  0.8576
  329MOL0     H45382   6.177   5.566   9.220 -1.8746 -1.3224 -0.6281
  329MOL0     H45383   6.395   5.581   9.312 -1.6672  0.9499 -0.2140
  329MOL0     H45384   6.769   5.615   9.397 -0.5434 -3.4005 -0.9099
  329MOL0     H45385   6.980   5.637   9.523 -0.0499  0.3877  0.0407
  329MOL0     H45386   7.891   5.868   8.542  2.3509 -3.3080  1.1193
  329MOL0     H45387   7.814   5.995   8.357 -1.1460 -0.1665  0.9748
  329MOL0     H45388   7.705   5.913   7.879  1.8314 -2.1231 -2.0049
  329MOL0     H45389   7.678   5.989   7.652  1.5280  0.6794 -1.9712
  329MOL0     H45390   7.623   6.116   7.520  2.4261 -1.1845  2.0021
  329MOL0     H45391   7.618   6.273   7.440  2.0499  0.7805 -0.5612
  329MOL0     H45392   7.828   6.094   7.357 -1.5684  0.3489  3.3211
  329MOL0     H45393   7.743   6.186   7.238  1.7570 -0.3909 -0.4184
  329MOL0     H45394   7.724   5.952   7.221 -0.6394  0.6168 -1.0333
  329MOL0     H45395   7.653   5.926   7.379 -1.3240 -2.1931 -1.4121
  329MOL0     H45396   7.463   6.087   7.322 -1.3941 -0.0959 -1.4267
  329MOL0     H45397   7.455   5.922   7.255 -4.0182  1.7570  0.9871
  329MOL0     H45398   7.398   6.107   6.915 -0.1708  0.0212  0.0995
  329MOL0     H45399   7.948   6.323   7.728 -0.5276  0.0770 -0.4282
  329MOL0     H45400   7.955   6.258   8.074 -1.4285 -0.9169 -0.4082
  329MOL0     H45401   8.110   6.213   8.008 -0.7486 -1.2580  1.3143
  329MOL0     H45402   8.029   6.361   7.949 -0.3479 -0.5959  0.4575
  330MOL0     O45403   5.771   6.861   4.009 -0.1584  0.2679  0.3140
  330MOL0     C45404   5.819   6.847   4.119  0.5604  0.1222 -0.1690
  330MOL0     O45405   5.899   6.947   4.178  0.1611  0.6738  0.3151
  330MOL0     C45406   5.882   7.069   4.113  0.3361  0.3027 -0.0276
  330MOL0     C45407   5.971   7.117   4.022 -0.3465  0.0803  0.1290
  330MOL0     C45408   5.959   7.242   3.965  0.8123  0.3804  0.5059
  330MOL0     C45409   5.839   7.316   3.981 -1.0929  1.0592 -1.1168
  330MOL0     O45410   5.819   7.448   3.937  0.4188  0.3659  0.2600
  330MOL0     C45411   5.919   7.510   3.855  0.0675  0.8232  0.6350
  330MOL0     C45412   5.859   7.644   3.815  0.0248 -0.5732  0.4042
  330MOL0     C45413   5.977   7.729   3.746  0.0500  1.4081 -0.8499
  330MOL0     C45414   5.927   7.846   3.674 -0.0853 -0.2957 -0.3545
  330MOL0     C45415   6.023   7.917   3.573  0.2895 -0.9596  0.1834
  330MOL0     C45416   5.964   8.053   3.521  0.0142 -0.4321  0.7725
  330MOL0     C45417   6.042   8.110   3.402  0.0552 -0.1910  0.2665
  330MOL0     C45418   6.002   8.250   3.350 -0.6882  0.7732  0.4114
  330MOL0     N45419   6.078   8.276   3.227 -0.2597  0.2422 -0.2537
  330MOL0     C45420   6.212   8.277   3.212 -0.4872  0.2536 -0.1108
  330MOL0     C45421   6.238   8.320   3.087 -0.7906  0.2286 -0.3961
  330MOL0     C45422   6.381   8.326   3.025 -0.4295 -0.0489  0.1677
  330MOL0     C45423   6.373   8.282   2.875 -0.8114  0.0858 -0.1925
  330MOL0     C45424   6.518   8.283   2.812  0.7727 -0.0372 -0.2705
  330MOL0     C45425   6.544   8.436   2.788  0.6554  0.9548 -0.8623
  330MOL0     O45426   6.677   8.436   2.732  0.0109 -0.1237  0.2588
  330MOL0     C45427   6.717   8.481   2.611  0.3896  0.5999  0.8928
  330MOL0     C45428   6.622   8.513   2.508  0.7754 -0.3629 -0.4335
  330MOL0     C45429   6.668   8.566   2.389 -0.4127  0.7077  0.8916
  330MOL0     C45430   6.575   8.609   2.284  0.0449 -0.4651 -0.8711
  330MOL0     C45431   6.813   8.584   2.367  0.2109  0.0569  0.5116
  330MOL0     C45432   6.880   8.644   2.248  0.4649  0.2841  0.6606
  330MOL0     O45433   6.962   8.564   2.179  0.3506  0.7405 -0.0098
  330MOL0     C45434   7.024   8.620   2.074  0.2007  0.0589 -0.6141
  330MOL0     C45435   7.107   8.727   2.096  0.7019  0.2092  0.4313
  330MOL0     C45436   7.139   8.807   1.985  0.7729 -0.6450  0.1183
  330MOL0     C45437   7.114   8.758   1.856 -0.4773  0.4306 -0.3130
  330MOL0     O45438   7.174   8.828   1.758 -0.3349  0.2423  0.7740
  330MOL0     C45439   7.136   8.795   1.617  0.3315  0.0321  0.4086
  330MOL0     C45440   7.208   8.896   1.534 -0.0234  0.4766  0.4425
  330MOL0     C45441   7.234   8.851   1.387  0.4104  0.2497 -0.3251
  330MOL0     C45442   7.291   8.970   1.298  0.0280  0.7178  0.5644
  330MOL0     C45443   7.351   8.922   1.163  0.3785  0.3737 -0.0114
  330MOL0     C45444   7.270   8.821   1.076  0.0898 -0.1053  0.3910
  330MOL0     C45445   7.139   8.863   1.014 -0.1318  0.3030  0.1598
  330MOL0     C45446   7.154   8.928   0.884 -0.2006 -0.9914  0.1562
  330MOL0    Cl45447   7.253   8.815   0.771  0.2624 -0.1754  0.1805
  330MOL0     C45448   7.029   8.647   1.832  0.3219 -0.2916  0.4949
  330MOL0     C45449   6.975   8.589   1.949 -0.6283  1.1254  0.6559
  330MOL0     O45450   6.845   8.757   2.209 -0.9795  0.0694 -0.1480
  330MOL0     C45451   6.894   8.533   2.458  0.7037 -0.1636  0.1026
  330MOL0     C45452   6.846   8.474   2.578 -0.4296 -0.1143  0.1261
  330MOL0     N45453   6.119   8.330   3.027  0.4642 -0.5214  0.2727
  330MOL0     N45454   6.021   8.307   3.104  0.8708  0.0083 -0.3897
  330MOL0     C45455   5.745   7.267   4.074  0.0143  0.9942  0.2314
  330MOL0     C45456   5.764   7.147   4.143 -0.0238 -0.2714 -0.6255
  330MOL0     C45457   5.809   6.718   4.190  0.1455  0.1114  0.0173
  330MOL0     C45458   5.874   6.719   4.319 -0.3218 -0.5538 -0.6528
  330MOL0     C45459   5.862   6.613   4.409 -0.4730  0.0865 -0.0582
  330MOL0     C45460   5.796   6.496   4.372  0.0639  0.6531 -0.0377
  330MOL0     O45461   5.786   6.393   4.455  0.1914  1.1290  0.3302
  330MOL0     C45462   5.908   6.335   4.510 -0.6361  0.2386  0.3037
  330MOL0     C45463   5.947   6.225   4.413 -0.0659 -0.3676  0.4531
  330MOL0     C45464   6.049   6.129   4.484  0.6865 -0.0770  0.4591
  330MOL0     C45465   6.104   6.004   4.421 -0.0757  0.5125  0.0131
  330MOL0     C45466   5.990   5.912   4.393  0.4068  0.3164  0.3217
  330MOL0     C45467   5.895   5.855   4.345  0.1129 -0.4336 -0.0915
  330MOL0     C45468   5.745   6.487   4.241 -0.2142  1.1779  0.3100
  330MOL0     C45469   5.761   6.588   4.141 -0.0972  0.3922 -0.0290
  330MOL0     C45470   5.716   6.578   3.992 -0.0356  0.6426 -0.3974
  330MOL0     H45471   6.056   7.054   3.996  0.5836  0.6812  1.5825
  330MOL0     H45472   6.028   7.287   3.895 -0.0427  0.9157 -0.0206
  330MOL0     H45473   5.945   7.447   3.770 -1.8769  0.8255  0.0053
  330MOL0     H45474   6.010   7.511   3.917  0.1554 -5.3579  1.2021
  330MOL0     H45475   5.771   7.634   3.751 -1.0753 -3.4441  2.1463
  330MOL0     H45476   5.829   7.698   3.905  0.2066  0.3531 -0.0860
  330MOL0     H45477   6.059   7.736   3.817  1.5037 -0.0469 -2.2937
  330MOL0     H45478   6.018   7.670   3.663  0.0329  1.1152 -0.6505
  330MOL0     H45479   5.841   7.816   3.613 -0.0813 -0.9552 -0.0417
  330MOL0     H45480   5.897   7.924   3.745 -0.1263  0.3770 -1.0883
  330MOL0     H45481   6.041   7.850   3.488 -1.8749 -1.8714  0.3742
  330MOL0     H45482   6.116   7.940   3.625  1.4191 -3.1120 -0.7702
  330MOL0     H45483   5.866   8.029   3.477  1.5172  0.6127 -3.6769
  330MOL0     H45484   5.963   8.119   3.608 -1.2904 -0.6022  0.9115
  330MOL0     H45485   6.016   8.055   3.311  0.9648  2.6820 -1.8856
  330MOL0     H45486   6.147   8.121   3.431 -0.3090  2.2005  0.8362
  330MOL0     H45487   5.895   8.263   3.329 -0.4983  0.8073 -0.5816
  330MOL0     H45488   6.026   8.317   3.434  0.2377  0.5379  0.3451
  330MOL0     H45489   6.279   8.252   3.293 -0.8895  1.7859  0.7363
  330MOL0     H45490   6.451   8.258   3.075 -0.2858 -2.1658 -2.6999
  330MOL0     H45491   6.431   8.424   3.031 -0.2304 -0.0795 -0.9186
  330MOL0     H45492   6.332   8.181   2.865  1.3902 -0.6341 -4.5439
  330MOL0     H45493   6.301   8.347   2.825 -0.6181 -0.0537 -0.6603
  330MOL0     H45494   6.598   8.239   2.871 -0.5572  1.2901  2.7647
  330MOL0     H45495   6.521   8.244   2.710  2.8624  1.9715 -1.0524
  330MOL0     H45496   6.470   8.474   2.717 -0.8537 -1.8489 -0.9806
  330MOL0     H45497   6.543   8.493   2.881  0.2737 -0.6719  0.1830
  330MOL0     H45498   6.515   8.499   2.517  0.5826 -0.0836 -2.0176
  330MOL0     H45499   6.477   8.638   2.324  1.4585  0.3344  2.3846
  330MOL0     H45500   6.549   8.532   2.211 -0.0782 -1.8234  0.5569
  330MOL0     H45501   6.612   8.706   2.249  0.3357 -0.5210 -0.7217
  330MOL0     H45502   7.140   8.758   2.194  0.0067 -0.5605  0.9265
  330MOL0     H45503   7.198   8.898   1.986  1.1818 -0.9094 -0.0301
  330MOL0     H45504   7.172   8.697   1.584 -0.4288 -0.6591  1.5586
  330MOL0     H45505   7.029   8.806   1.596  0.3707  0.0077  0.1930
  330MOL0     H45506   7.157   8.992   1.540  0.0057  0.4237  1.7413
  330MOL0     H45507   7.313   8.906   1.566  1.4106 -1.5964 -3.0478
  330MOL0     H45508   7.142   8.805   1.351 -0.4052 -1.6558  3.6348
  330MOL0     H45509   7.313   8.775   1.397  0.9247  0.5512 -1.9160
  330MOL0     H45510   7.356   9.034   1.357 -0.0767  1.0449  0.3268
  330MOL0     H45511   7.203   9.029   1.272 -0.7472  0.5376  2.5662
  330MOL0     H45512   7.370   9.015   1.107 -0.6367 -0.0788 -1.1619
  330MOL0     H45513   7.447   8.874   1.187 -0.7786 -1.7971  0.5080
  330MOL0     H45514   7.249   8.742   1.150 -2.5792  1.1345  1.0749
  330MOL0     H45515   7.347   8.780   1.011  3.9323 -0.1289  4.4744
  330MOL0     H45516   7.087   8.926   1.087 -1.5923  0.7391 -1.2025
  330MOL0     H45517   7.081   8.772   0.998  0.0484  0.0443  0.8981
  330MOL0     H45518   7.203   9.025   0.879 -0.4666 -0.9098 -2.0383
  330MOL0     H45519   7.057   8.944   0.836 -0.1270  1.5258  0.7132
  330MOL0     H45520   7.011   8.607   1.733  0.4181 -1.2802  0.8571
  330MOL0     H45521   6.899   8.512   1.946 -0.7704  1.2721  0.5322
  330MOL0     H45522   7.002   8.535   2.441  0.8745 -1.0967  0.9340
  330MOL0     H45523   6.920   8.438   2.650  3.7096 -1.3893 -4.2364
  330MOL0     H45524   5.651   7.322   4.077 -0.2485  0.6711 -1.1622
  330MOL0     H45525   5.699   7.116   4.224  0.0343  2.2506  0.5042
  330MOL0     H45526   5.910   6.810   4.364 -1.3054 -1.4569  2.1609
  330MOL0     H45527   5.912   6.614   4.506  1.2565  1.3358 -0.9158
  330MOL0     H45528   5.983   6.415   4.514 -1.0081  0.7350 -1.7980
  330MOL0     H45529   5.870   6.290   4.602  3.7135 -3.2455  0.6944
  330MOL0     H45530   5.994   6.272   4.326  0.3241  0.4765  1.1038
  330MOL0     H45531   5.860   6.169   4.379 -0.4457 -0.8966  2.1922
  330MOL0     H45532   6.136   6.190   4.508  0.1142  1.7588 -1.7346
  330MOL0     H45533   6.010   6.087   4.578  1.6287 -2.9681 -0.3290
  330MOL0     H45534   6.180   5.956   4.483 -0.4905  0.4878  0.5095
  330MOL0     H45535   6.149   6.024   4.323 -1.9171 -0.1370 -1.0105
  330MOL0     H45536   5.807   5.808   4.305 -1.1837  3.0790 -1.7661
  330MOL0     H45537   5.690   6.396   4.222 -0.4632  0.7411  2.7793
  330MOL0     H45538   5.620   6.629   3.983 -0.7843 -0.9956 -2.4173
  330MOL0     H45539   5.780   6.623   3.916 -0.2548  1.2301 -0.2379
  330MOL0     H45540   5.702   6.472   3.968 -0.3266 -0.1380  2.7635
  331MOL0     O45541   1.325   2.714   1.271 -0.2599  0.3239  0.6721
  331MOL0     C45542   1.304   2.778   1.377  0.7113 -0.6097 -0.9001
  331MOL0     O45543   1.277   2.721   1.496  1.0822  0.9454 -0.1953
  331MOL0     C45544   1.204   2.604   1.494 -0.1440 -0.3452  0.3447
  331MOL0     C45545   1.259   2.469   1.500 -0.7237  0.0426  0.5683
  331MOL0     C45546   1.180   2.355   1.487 -0.0752  0.3322  0.4939
  331MOL0     C45547   1.036   2.370   1.467 -0.2545 -0.1055  0.9952
  331MOL0     O45548   0.947   2.271   1.435 -0.0428  0.1604 -0.2171
  331MOL0     C45549   0.999   2.140   1.419  0.7475 -0.1423 -1.0678
  331MOL0     C45550   0.895   2.038   1.368 -0.3229  0.2494  0.0327
  331MOL0     C45551   0.952   1.904   1.328  0.0935  0.2027 -0.5591
  331MOL0     C45552   0.866   1.827   1.220  0.3442 -0.2521  0.0653
  331MOL0     C45553   0.893   1.879   1.076 -1.0716  0.3380 -0.8681
  331MOL0     C45554   0.792   1.847   0.972  0.6788 -0.2091  0.8278
  331MOL0     C45555   0.829   1.894   0.832  1.2409  0.2226 -0.1368
  331MOL0     C45556   0.697   1.940   0.746 -0.8891  0.1235  0.1485
  331MOL0     N45557   0.653   2.077   0.770  0.2766 -0.0532 -0.3698
  331MOL0     C45558   0.674   2.159   0.876  0.5964  1.5593 -0.3157
  331MOL0     C45559   0.630   2.282   0.843  0.2153 -0.0049  0.6404
  331MOL0     C45560   0.626   2.421   0.906  0.2377  0.9450  0.2337
  331MOL0     C45561   0.739   2.444   1.006  0.5697 -0.1915  0.3848
  331MOL0     C45562   0.867   2.483   0.917  0.9033 -0.4168  0.0598
  331MOL0     C45563   0.998   2.478   0.984 -1.0157 -0.1607 -0.3742
  331MOL0     O45564   1.030   2.332   0.991  0.0944  0.3087  0.4158
  331MOL0     C45565   1.142   2.298   1.072  0.4605  0.1109 -0.2739
  331MOL0     C45566   1.168   2.161   1.086  0.6911 -0.6537 -0.2081
  331MOL0     C45567   1.274   2.117   1.170  0.0281 -0.0698  0.2702
  331MOL0     C45568   1.295   1.968   1.162  0.2279  0.0815  0.0941
  331MOL0     C45569   1.357   2.207   1.234 -0.0545 -0.5173 -0.8160
  331MOL0     C45570   1.463   2.174   1.334 -0.7384  0.5499 -0.1361
  331MOL0     O45571   1.489   2.255   1.449  0.0639 -0.0502 -0.1874
  331MOL0     C45572   1.609   2.240   1.512  0.4997  0.0223 -0.1823
  331MOL0     C45573   1.605   2.233   1.650  0.0708  0.8557  0.6629
  331MOL0     C45574   1.733   2.228   1.715  0.4916  0.1357  0.0406
  331MOL0     C45575   1.851   2.205   1.644 -0.0794 -0.2134 -0.4415
  331MOL0     O45576   1.963   2.201   1.715  0.7466  0.6445  0.6506
  331MOL0     C45577   2.012   2.067   1.735  0.0704  0.6274 -0.2475
  331MOL0     C45578   2.140   2.074   1.819  0.1759 -0.1156  0.6342
  331MOL0     C45579   2.158   1.956   1.914  0.9015 -0.7405 -0.0666
  331MOL0     C45580   2.310   1.925   1.963  0.1708 -0.3995  0.6945
  331MOL0     C45581   2.309   1.818   2.062  0.0129  0.2350  0.0957
  331MOL0     C45582   2.455   1.757   2.063  0.7964 -1.2396 -0.1505
  331MOL0     C45583   2.486   1.649   2.161 -0.1922  0.4313 -0.2842
  331MOL0     C45584   2.596   1.561   2.104  0.0160  0.3365  0.0720
  331MOL0    Cl45585   2.630   1.430   2.213 -0.1026 -0.0767 -0.7484
  331MOL0     C45586   1.853   2.212   1.506  0.3307  0.8366 -0.7803
  331MOL0     C45587   1.728   2.229   1.446  0.3363  0.5108  0.1710
  331MOL0     O45588   1.517   2.071   1.304 -0.3370 -0.5979  0.5420
  331MOL0     C45589   1.335   2.346   1.209 -0.7730 -0.2184 -0.4974
  331MOL0     C45590   1.227   2.390   1.135 -0.9402  0.1716 -1.5058
  331MOL0     N45591   0.587   2.274   0.714  0.1798 -0.2808  0.3011
  331MOL0     N45592   0.617   2.153   0.664 -0.4894  0.3668 -1.1736
  331MOL0     C45593   0.985   2.506   1.464  0.7039  0.1127 -0.1042
  331MOL0     C45594   1.068   2.617   1.475  0.4931 -0.1101 -0.3845
  331MOL0     C45595   1.324   2.921   1.388 -0.3480 -0.6381  0.2711
  331MOL0     C45596   1.371   2.976   1.508 -0.1203  0.1655  0.1187
  331MOL0     C45597   1.393   3.114   1.531  0.5296  1.6693  0.6640
  331MOL0     C45598   1.366   3.206   1.425 -0.3991 -0.1821 -0.7387
  331MOL0     O45599   1.384   3.341   1.435  0.1407 -0.9387  0.0312
  331MOL0     C45600   1.442   3.401   1.548  0.5480  0.3581 -0.1605
  331MOL0     C45601   1.592   3.421   1.550  0.8818  0.8671 -0.4069
  331MOL0     C45602   1.655   3.488   1.678  0.2810  0.5314 -0.7919
  331MOL0     C45603   1.751   3.401   1.749  0.9364 -0.2798  0.1222
  331MOL0     C45604   1.684   3.281   1.802 -0.0940 -0.3192  0.5224
  331MOL0     C45605   1.620   3.184   1.852  0.5503 -0.1831 -0.0200
  331MOL0     C45606   1.309   3.151   1.307  0.9301  0.0918  0.2328
  331MOL0     C45607   1.291   3.016   1.288  0.3258 -0.2591  0.5194
  331MOL0     C45608   1.230   2.977   1.161 -0.2006 -0.3783  0.2494
  331MOL0     H45609   1.368   2.466   1.506 -0.6599  2.3690  1.2914
  331MOL0     H45610   1.232   2.262   1.467 -3.4348 -0.9943 -3.5059
  331MOL0     H45611   1.053   2.113   1.511 -1.7205 -2.2175 -0.0913
  331MOL0     H45612   1.080   2.155   1.347  0.8810 -0.3863 -0.9689
  331MOL0     H45613   0.820   2.037   1.447  0.2336  1.1479  0.5842
  331MOL0     H45614   0.837   2.083   1.287  1.9815 -0.0582 -1.9131
  331MOL0     H45615   1.056   1.912   1.297  1.1002 -1.3833  2.1002
  331MOL0     H45616   0.943   1.845   1.419 -0.9569 -1.2666 -1.5846
  331MOL0     H45617   0.891   1.722   1.236  0.0039  0.0816  3.3336
  331MOL0     H45618   0.760   1.841   1.244  0.4099  1.2086 -0.3777
  331MOL0     H45619   0.992   1.841   1.049 -0.3946  2.0219 -0.8436
  331MOL0     H45620   0.907   1.987   1.080  0.0167  0.1717  1.2017
  331MOL0     H45621   0.779   1.739   0.964  0.0656 -0.1664  1.1982
  331MOL0     H45622   0.694   1.881   1.007 -1.2377 -3.2100 -1.1569
  331MOL0     H45623   0.872   1.807   0.780  1.1580 -1.5829  2.6200
  331MOL0     H45624   0.891   1.984   0.835  0.3153  0.8464  0.2586
  331MOL0     H45625   0.715   1.942   0.638  1.2563 -2.6367  0.3459
  331MOL0     H45626   0.614   1.876   0.776 -0.1208 -0.9864 -0.0500
  331MOL0     H45627   0.709   2.113   0.968 -1.1461 -0.0408 -0.3972
  331MOL0     H45628   0.533   2.404   0.960 -0.3626  0.0675 -1.0332
  331MOL0     H45629   0.624   2.488   0.820 -3.4045  1.1044  0.3034
  331MOL0     H45630   0.729   2.532   1.071 -1.6461  0.0383 -0.1905
  331MOL0     H45631   0.761   2.351   1.059 -0.2887  0.4478  1.9526
  331MOL0     H45632   0.867   2.421   0.826 -0.9407  0.0788 -0.3186
  331MOL0     H45633   0.855   2.583   0.876  0.4390 -1.6729 -3.2257
  331MOL0     H45634   1.078   2.538   0.939 -0.1343 -2.1584 -1.5935
  331MOL0     H45635   0.985   2.522   1.084 -1.7490 -0.5056 -0.3056
  331MOL0     H45636   1.122   2.083   1.026  0.0779 -3.6408  3.7022
  331MOL0     H45637   1.395   1.937   1.129 -0.2722 -1.5758  0.0254
  331MOL0     H45638   1.216   1.925   1.100  1.0147 -0.8582 -0.2910
  331MOL0     H45639   1.275   1.921   1.259 -5.4111  2.7731  0.6193
  331MOL0     H45640   1.512   2.252   1.702  0.0655 -0.6622  1.2536
  331MOL0     H45641   1.750   2.233   1.822  3.3786  1.1121 -0.3523
  331MOL0     H45642   1.939   2.010   1.792 -2.1513  1.1526 -2.4037
  331MOL0     H45643   2.022   2.014   1.639  1.5528 -0.9087  0.7028
  331MOL0     H45644   2.232   2.079   1.759 -0.3346  0.1112 -0.1498
  331MOL0     H45645   2.132   2.159   1.886 -2.4541 -0.9948  1.5538
  331MOL0     H45646   2.135   1.861   1.864  2.6569 -2.7149  2.6113
  331MOL0     H45647   2.089   1.975   1.996  2.8116  2.2090  1.0342
  331MOL0     H45648   2.347   2.016   2.010  0.4547  0.0925 -0.4601
  331MOL0     H45649   2.367   1.891   1.876 -1.4121  0.1195 -0.5802
  331MOL0     H45650   2.271   1.845   2.160 -2.0880 -0.3152 -0.5174
  331MOL0     H45651   2.244   1.741   2.020 -0.9367 -0.5422  2.7908
  331MOL0     H45652   2.519   1.843   2.084 -1.9276  0.7734  0.6243
  331MOL0     H45653   2.475   1.728   1.960  1.7521  0.6489 -0.5257
  331MOL0     H45654   2.401   1.582   2.176 -0.9213  0.7050 -2.7577
  331MOL0     H45655   2.516   1.689   2.258 -2.7611  0.2100  0.6885
  331MOL0     H45656   2.686   1.616   2.075  0.3158  0.6173  1.4392
  331MOL0     H45657   2.558   1.514   2.013 -0.5585  2.2173 -0.6982
  331MOL0     H45658   1.935   2.190   1.438 -0.7927 -0.1812 -1.8750
  331MOL0     H45659   1.722   2.232   1.337  1.8469  0.0256  0.0523
  331MOL0     H45660   1.394   2.427   1.249  0.4084 -0.9167 -0.7925
  331MOL0     H45661   1.219   2.497   1.120 -0.1249  0.7528  1.4682
  331MOL0     H45662   0.878   2.519   1.449  1.1937  2.6135 -2.2023
  331MOL0     H45663   1.016   2.712   1.462 -3.9434 -2.4955 -1.9653
  331MOL0     H45664   1.412   2.907   1.580  0.4450 -1.9288 -2.0671
  331MOL0     H45665   1.438   3.134   1.627 -0.8792 -3.4534  2.7205
  331MOL0     H45666   1.395   3.498   1.566 -1.1948 -0.7601  1.9249
  331MOL0     H45667   1.408   3.344   1.636  0.2593  0.9311  0.1025
  331MOL0     H45668   1.618   3.471   1.456  0.8947  0.1806 -0.7829
  331MOL0     H45669   1.641   3.325   1.528  4.4801  2.3275  0.5341
  331MOL0     H45670   1.711   3.578   1.647  0.6592  0.5510 -0.0784
  331MOL0     H45671   1.578   3.532   1.741  1.8978  2.7297 -0.2099
  331MOL0     H45672   1.804   3.456   1.828  3.1633  0.2045 -1.6120
  331MOL0     H45673   1.830   3.357   1.687  0.3521  1.2531 -1.7854
  331MOL0     H45674   1.565   3.103   1.897  1.4639 -2.2973 -2.4959
  331MOL0     H45675   1.271   3.216   1.229 -0.0978  1.5960  1.8927
  331MOL0     H45676   1.134   2.926   1.179 -0.4663  0.2315  0.5721
  331MOL0     H45677   1.216   3.053   1.084 -0.5239 -1.3254 -0.6572
  331MOL0     H45678   1.295   2.903   1.112 -0.8560 -0.9821  0.2596
  332MOL0     O45679   0.504  10.828  11.374 -0.3449 -0.3460  0.0480
  332MOL0     C45680   0.532  10.706  11.391  0.7520  0.3049  0.2716
  332MOL0     O45681   0.614  10.636  11.318  0.1994  0.2910  0.3261
  332MOL0     C45682   0.661  10.685  11.201  0.8750  0.4990 -0.3744
  332MOL0     C45683   0.786  10.740  11.182 -1.2858  0.0036 -0.0875
  332MOL0     C45684   0.821  10.790  11.056  0.0963 -0.2980  0.7662
  332MOL0     C45685   0.731  10.771  10.951 -1.2238 -0.5010  0.6815
  332MOL0     O45686   0.782  10.793  10.823 -0.3347  0.6502 -0.3398
  332MOL0     C45687   0.710  10.885  10.745  1.2479  0.2344  0.1052
  332MOL0     C45688   0.725  11.026  10.819 -0.3158  0.1488  0.9963
  332MOL0     C45689   0.873  11.073  10.825  0.7812  0.1710  0.9110
  332MOL0     C45690   0.878  11.210  10.869 -0.9932 -0.3803 -0.3556
  332MOL0     C45691   1.008  11.288  10.841  0.8614  0.2620  0.5661
  332MOL0     C45692   0.992  11.441  10.883 -0.1814  0.3721 -0.2683
  332MOL0     C45693   0.915  11.535  10.790  0.4449  0.0691 -0.1908
  332MOL0     C45694   0.895  11.678  10.844  0.2132  0.1569 -0.4150
  332MOL0     N45695   1.020  11.752  10.847 -0.3264 -0.4654 -1.1770
  332MOL0     C45696   1.097  11.768  10.954 -0.0663  0.3702 -0.2467
  332MOL0     C45697   1.185  11.863  10.917 -0.7174 -0.8563  0.5529
  332MOL0     C45698   1.281  11.918  11.017  0.0639 -0.8195  0.2002
  332MOL0     C45699   1.434  11.889  10.985  0.4749  0.0132  0.4647
  332MOL0     C45700   1.474  11.907  10.837  0.2210 -0.9183 -0.7752
  332MOL0     C45701   1.470  12.061  10.793 -0.7626  1.3750 -0.4196
  332MOL0     O45702   1.545  12.141  10.877 -0.0778  0.0718 -0.5055
  332MOL0     C45703   1.497  12.269  10.901  0.1886  0.1582 -0.5879
  332MOL0     C45704   1.584  12.360  10.960  0.0581 -0.1196  0.1768
  332MOL0     C45705   1.537  12.481  11.015 -0.0023 -0.3517  0.6563
  332MOL0     C45706   1.637  12.555  11.088  0.3826 -0.6504 -0.2568
  332MOL0     C45707   1.402  12.527  10.995  0.1202 -0.2674 -0.3110
  332MOL0     C45708   1.343  12.649  11.057 -1.4570 -0.1138 -0.0061
  332MOL0     O45709   1.292  12.762  10.982 -0.0342  0.0311  0.2587
  332MOL0     C45710   1.253  12.862  11.061  0.2487  0.6528  0.6964
  332MOL0     C45711   1.128  12.906  11.035 -1.0274  0.7515  0.4752
  332MOL0     C45712   1.066  12.984  11.123 -0.3980 -1.4520  0.8705
  332MOL0     C45713   1.130  13.046  11.227  0.0283 -0.9043 -0.4900
  332MOL0     O45714   1.068  13.127  11.321  0.0035  0.2377  0.0517
  332MOL0     C45715   0.997  13.230  11.258  0.1559  0.1157 -0.1498
  332MOL0     C45716   1.071  13.360  11.275  0.3929  0.0070 -0.9268
  332MOL0     C45717   1.180  13.365  11.173 -0.3978 -0.6142  0.3427
  332MOL0     C45718   1.206  13.512  11.134  1.0607  0.3275  0.2171
  332MOL0     C45719   1.338  13.515  11.065 -0.4885  0.2993  0.4681
  332MOL0     C45720   1.379  13.648  11.014  0.4623  0.0080 -0.6617
  332MOL0     C45721   1.507  13.635  10.932 -0.5404  0.1414 -0.0388
  332MOL0     C45722   1.564  13.770  10.885 -0.5003 -0.4947 -0.5582
  332MOL0    Cl45723   1.463  13.829  10.762 -0.1130 -0.1135 -0.0234
  332MOL0     C45724   1.262  13.017  11.248 -0.3737 -0.0032 -0.5421
  332MOL0     C45725   1.329  12.922  11.166 -0.4325  0.4952 -0.2156
  332MOL0     O45726   1.336  12.647  11.179  0.0751  0.3132 -0.1987
  332MOL0     C45727   1.321  12.439  10.915  0.1530  0.0244 -0.0872
  332MOL0     C45728   1.365  12.310  10.872  0.3937 -0.0052  0.0379
  332MOL0     N45729   1.151  11.901  10.786  0.3298 -0.3320 -0.3699
  332MOL0     N45730   1.056  11.830  10.748  0.1659 -0.1760 -0.1083
  332MOL0     C45731   0.601  10.715  10.972 -0.5353 -1.1136 -0.1243
  332MOL0     C45732   0.563  10.666  11.103 -0.0483 -0.7424  1.0187
  332MOL0     C45733   0.469  10.635  11.514  0.2983 -0.2842  0.8133
  332MOL0     C45734   0.475  10.491  11.507 -0.7664  0.2261 -1.0806
  332MOL0     C45735   0.414  10.418  11.607 -0.1731 -0.4214 -0.5034
  332MOL0     C45736   0.340  10.472  11.711  0.4969  0.1379 -1.4888
  332MOL0     O45737   0.262  10.390  11.803 -0.0132  0.9278  0.1698
  332MOL0     C45738   0.281  10.426  11.939  0.0459 -0.3190  0.1839
  332MOL0     C45739   0.328  10.302  12.012  0.2680  1.3757  0.1809
  332MOL0     C45740   0.206  10.215  12.051  0.0358 -0.7760  0.5210
  332MOL0     C45741   0.252  10.125  12.170 -0.6339  0.8536  0.5383
  332MOL0     C45742   0.140  10.043  12.207 -0.0126 -0.2605 -0.1742
  332MOL0     C45743   0.043   9.977  12.240  0.5936  0.8138  0.3053
  332MOL0     C45744   0.329  10.617  11.716  0.4940  1.1629  0.2108
  332MOL0     C45745   0.399  10.707  11.616  0.2773  0.4468 -0.8721
  332MOL0     C45746   0.397  10.854  11.631  0.3525 -0.1262 -0.4341
  332MOL0     H45747   0.850  10.736  11.269 -0.6896  1.4636 -0.4384
  332MOL0     H45748   0.916  10.837  11.034  1.1882 -1.7958  2.0724
  332MOL0     H45749   0.604  10.860  10.732  0.7185  2.6122 -0.5738
  332MOL0     H45750   0.752  10.881  10.644 -2.9463 -1.7452 -1.8212
  332MOL0     H45751   0.676  11.104  10.761 -1.5754 -0.6629  0.9231
  332MOL0     H45752   0.673  11.033  10.915 -0.4091  1.6230  0.8575
  332MOL0     H45753   0.941  11.011  10.884  2.7928  3.4647  2.3417
  332MOL0     H45754   0.897  11.075  10.719 -1.8571  1.1266  0.2556
  332MOL0     H45755   0.794  11.269  10.830 -1.8794  0.4703  2.5604
  332MOL0     H45756   0.862  11.204  10.977  0.0430 -0.3964 -0.1955
  332MOL0     H45757   1.028  11.286  10.734  2.3652  0.3948  0.8195
  332MOL0     H45758   1.094  11.243  10.893  0.0134 -3.8574 -1.1628
  332MOL0     H45759   0.944  11.445  10.982  1.8925  1.3769  0.7680
  332MOL0     H45760   1.089  11.487  10.905  0.2745 -0.0048 -1.4421
  332MOL0     H45761   0.812  11.501  10.775  0.3265  0.2225  0.2499
  332MOL0     H45762   0.968  11.532  10.695 -1.5190 -3.0424 -1.3581
  332MOL0     H45763   0.835  11.744  10.781  1.7656  1.8658 -0.2049
  332MOL0     H45764   0.861  11.670  10.947 -0.8978  0.3914 -0.7525
  332MOL0     H45765   1.086  11.731  11.055  1.2117  5.1456  1.9448
  332MOL0     H45766   1.256  11.885  11.118  1.7726  0.2644  1.0360
  332MOL0     H45767   1.277  12.027  11.022 -0.1981 -0.8697  1.3386
  332MOL0     H45768   1.495  11.950  11.052  1.3427 -0.4624  0.1196
  332MOL0     H45769   1.447  11.783  11.008 -0.7776 -0.5188 -1.0776
  332MOL0     H45770   1.580  11.882  10.826  0.5029 -0.2847  0.3124
  332MOL0     H45771   1.413  11.837  10.780 -0.8861 -1.3984  0.9192
  332MOL0     H45772   1.510  12.060  10.691 -0.9386 -1.5010 -0.5185
  332MOL0     H45773   1.363  12.083  10.781 -1.0321  0.5174  0.3305
  332MOL0     H45774   1.689  12.337  10.971 -0.1655 -1.7887 -0.8365
  332MOL0     H45775   1.650  12.510  11.187  2.8765  2.7824  1.1710
  332MOL0     H45776   1.623  12.663  11.099 -0.2733 -0.9299  2.2751
  332MOL0     H45777   1.732  12.529  11.041 -1.0863 -0.1387 -3.8371
  332MOL0     H45778   1.063  12.854  10.966  1.5033 -1.2175 -0.5679
  332MOL0     H45779   0.961  12.994  11.096  0.2808 -0.6677 -1.9094
  332MOL0     H45780   0.968  13.221  11.153 -2.1023  0.9259  0.3604
  332MOL0     H45781   0.899  13.232  11.306  0.0444  0.7256 -0.3936
  332MOL0     H45782   1.013  13.452  11.271  0.4256 -0.0068 -2.5901
  332MOL0     H45783   1.119  13.348  11.373  1.1055 -0.1831 -1.2907
  332MOL0     H45784   1.160  13.303  11.085  0.4046 -2.6402  1.5135
  332MOL0     H45785   1.271  13.316  11.209  0.3772 -1.4510 -2.4624
  332MOL0     H45786   1.198  13.576  11.223 -1.7771 -2.4642  2.1909
  332MOL0     H45787   1.123  13.543  11.070  1.2622  0.7165  0.1405
  332MOL0     H45788   1.418  13.471  11.125 -2.8356 -4.2495  0.7445
  332MOL0     H45789   1.339  13.454  10.974  1.0219 -1.4185  1.5597
  332MOL0     H45790   1.388  13.716  11.099  1.8064 -1.8358  0.7695
  332MOL0     H45791   1.307  13.701  10.951 -0.1454 -1.0199 -0.8589
  332MOL0     H45792   1.474  13.579  10.845  3.0604  1.2245 -2.3340
  332MOL0     H45793   1.582  13.569  10.978 -0.9699  1.7108  3.2464
  332MOL0     H45794   1.667  13.755  10.850  0.3750  2.7234  0.3261
  332MOL0     H45795   1.567  13.840  10.969 -0.5550  0.0946 -1.0519
  332MOL0     H45796   1.320  13.061  11.328  1.1134 -4.7049  1.3307
  332MOL0     H45797   1.431  12.888  11.174 -0.8241 -1.3916 -2.3766
  332MOL0     H45798   1.215  12.459  10.900 -0.3187  0.7181  3.2788
  332MOL0     H45799   1.287  12.247  10.832  0.8717 -0.3698 -0.3309
  332MOL0     H45800   0.532  10.694  10.890 -1.8911 -0.5963  0.8462
  332MOL0     H45801   0.461  10.636  11.123 -1.0315  2.5576  1.4696
  332MOL0     H45802   0.532  10.444  11.427  2.0312 -1.8208  1.8213
  332MOL0     H45803   0.402  10.310  11.609 -3.4196 -0.1650  1.6089
  332MOL0     H45804   0.358  10.502  11.950 -1.1499  0.6014  3.1974
  332MOL0     H45805   0.192  10.467  11.988 -0.6479  0.8123 -1.9207
  332MOL0     H45806   0.391  10.315  12.100  0.0900  0.1239  0.5212
  332MOL0     H45807   0.406  10.264  11.945 -0.3745  2.5697 -1.3081
  332MOL0     H45808   0.122  10.279  12.082 -1.4181 -1.8338 -1.0328
  332MOL0     H45809   0.175  10.164  11.959 -0.4932 -1.5478  1.1143
  332MOL0     H45810   0.277  10.182  12.260  2.8276 -1.5612  1.2778
  332MOL0     H45811   0.339  10.064  12.147 -2.0450 -1.0281 -0.0603
  332MOL0     H45812  -0.039   9.912  12.264  1.1038 -0.9406 -2.2528
  332MOL0     H45813   0.261  10.655  11.792 -3.4572  1.2874 -3.0374
  332MOL0     H45814   0.503  10.868  11.650  0.0401  0.4940  0.9962
  332MOL0     H45815   0.354  10.912  11.548 -1.6082  0.5295  0.9606
  332MOL0     H45816   0.330  10.882  11.713 -0.6759 -1.1730 -0.8731
  333MOL0     O45817   5.335   3.364   5.516  0.3961  0.0132 -0.1432
  333MOL0     C45818   5.280   3.423   5.425  0.6227 -0.3582  0.3827
  333MOL0     O45819   5.198   3.536   5.436 -0.6492  0.1300  0.0419
  333MOL0     C45820   5.150   3.591   5.555 -0.2275 -0.0787 -0.8313
  333MOL0     C45821   5.044   3.679   5.546 -0.8292  0.4206  0.0820
  333MOL0     C45822   4.985   3.732   5.660  0.3565 -0.1396 -0.2839
  333MOL0     C45823   5.029   3.715   5.786  1.2961  0.5357 -1.4152
  333MOL0     O45824   4.978   3.784   5.904  0.0703  0.2018  0.6396
  333MOL0     C45825   4.920   3.698   6.004 -0.4656  0.9612  0.9456
  333MOL0     C45826   4.851   3.777   6.113  0.6267  0.2329 -0.1596
  333MOL0     C45827   4.941   3.863   6.192  0.2497 -0.2102  0.3334
  333MOL0     C45828   4.967   3.806   6.341 -0.2986  0.3281  0.8361
  333MOL0     C45829   5.047   3.923   6.421  0.8182 -0.0849 -0.9934
  333MOL0     C45830   5.196   3.931   6.408  0.0911  0.9197  0.5812
  333MOL0     C45831   5.244   4.034   6.500  0.8096 -0.4998  0.4462
  333MOL0     C45832   5.399   4.033   6.514 -0.2971 -0.1801  0.2390
  333MOL0     N45833   5.449   4.094   6.637 -0.3219 -0.5934  0.5607
  333MOL0     C45834   5.494   4.221   6.640  0.9169 -0.9552 -0.4487
  333MOL0     C45835   5.558   4.245   6.759  0.9511  0.4025  0.0452
  333MOL0     C45836   5.631   4.369   6.799  0.5972  0.4681  0.3263
  333MOL0     C45837   5.528   4.485   6.820 -0.2097  0.2903  0.5373
  333MOL0     C45838   5.486   4.494   6.974 -0.0542  0.6494 -0.0128
  333MOL0     C45839   5.354   4.564   6.991  0.5217  0.5851 -0.2113
  333MOL0     O45840   5.339   4.669   6.900 -0.0431 -0.0441 -0.6122
  333MOL0     C45841   5.410   4.780   6.932 -0.3104  0.3309  0.4619
  333MOL0     C45842   5.429   4.866   6.822  0.0032  0.5146 -0.7890
  333MOL0     C45843   5.492   4.988   6.842 -0.1123 -0.6257  0.0390
  333MOL0     C45844   5.498   5.090   6.731  0.4422 -0.1085 -0.0411
  333MOL0     C45845   5.564   5.009   6.968 -0.9295  0.8228  0.0647
  333MOL0     C45846   5.670   5.117   6.997  0.5718  0.3530 -0.2728
  333MOL0     O45847   5.650   5.194   7.109 -0.0215  0.0618 -0.0799
  333MOL0     C45848   5.706   5.322   7.123 -0.0786  1.3354  0.5039
  333MOL0     C45849   5.782   5.347   7.234 -0.0574  0.7929  0.1447
  333MOL0     C45850   5.856   5.458   7.252  0.2632 -1.1385 -0.1989
  333MOL0     C45851   5.841   5.568   7.165  0.7212  0.0913  0.3565
  333MOL0     O45852   5.910   5.686   7.183  0.0066 -0.1670 -0.3315
  333MOL0     C45853   5.807   5.789   7.210 -0.0651 -0.1509  0.8224
  333MOL0     C45854   5.888   5.910   7.268  0.6449  0.0834 -1.0500
  333MOL0     C45855   5.808   6.015   7.339  0.5011  0.0295 -0.2283
  333MOL0     C45856   5.893   6.144   7.340 -0.1145  0.0488 -0.1590
  333MOL0     C45857   5.844   6.233   7.461 -0.1624  0.3103 -0.3746
  333MOL0     C45858   5.701   6.278   7.423 -0.5833 -0.4072  0.0849
  333MOL0     C45859   5.641   6.357   7.540 -0.0201 -0.3644 -0.3678
  333MOL0     C45860   5.490   6.341   7.573  0.0662 -0.0838 -0.0085
  333MOL0    Cl45861   5.457   6.174   7.601  0.0672  0.9172 -0.2456
  333MOL0     C45862   5.752   5.547   7.054 -0.1547 -0.6790  0.1956
  333MOL0     C45863   5.692   5.423   7.025  0.5702 -0.9330  0.6695
  333MOL0     O45864   5.759   5.139   6.917 -0.2017 -0.4645  0.0799
  333MOL0     C45865   5.555   4.911   7.071  0.7069  0.1802  0.6025
  333MOL0     C45866   5.482   4.802   7.054 -0.1845  0.6531 -0.1342
  333MOL0     N45867   5.550   4.128   6.828  0.5046 -0.2951  0.0716
  333MOL0     N45868   5.480   4.039   6.760 -0.4868 -0.2047 -0.4389
  333MOL0     C45869   5.130   3.614   5.798 -1.0648 -0.5928  0.6600
  333MOL0     C45870   5.200   3.562   5.685  0.2668 -0.1562  0.9293
  333MOL0     C45871   5.295   3.351   5.296 -0.0133  0.2231  1.1952
  333MOL0     C45872   5.218   3.415   5.190 -0.5795 -0.4188 -0.5425
  333MOL0     C45873   5.227   3.372   5.057 -1.2989 -0.2167  1.4884
  333MOL0     C45874   5.298   3.256   5.017 -0.0576 -0.0126  0.1218
  333MOL0     O45875   5.290   3.216   4.884  0.9853  0.1839  0.0460
  333MOL0     C45876   5.380   3.110   4.844  0.2040  0.1146 -0.6854
  333MOL0     C45877   5.368   3.105   4.698  0.7554  0.2500 -0.8117
  333MOL0     C45878   5.445   3.219   4.633  0.2660 -0.4688 -0.3396
  333MOL0     C45879   5.436   3.213   4.481  0.1859 -0.2282  0.4718
  333MOL0     C45880   5.318   3.277   4.426  1.2504  0.1358 -0.0366
  333MOL0     C45881   5.227   3.334   4.366 -0.1803  0.4432 -0.2090
  333MOL0     C45882   5.364   3.188   5.124  0.1332 -0.0577 -0.4750
  333MOL0     C45883   5.381   3.241   5.253 -0.3305  0.3860  0.6190
  333MOL0     C45884   5.476   3.173   5.347 -0.7455 -0.6486  0.0855
  333MOL0     H45885   5.006   3.704   5.447  0.0492  1.4468 -0.0204
  333MOL0     H45886   4.896   3.794   5.659 -0.4653 -1.0469  3.0916
  333MOL0     H45887   5.008   3.648   6.045 -0.8291  1.2779  2.1549
  333MOL0     H45888   4.850   3.623   5.966  0.7477 -0.0584  0.6650
  333MOL0     H45889   4.791   3.846   6.052  1.5385  0.0871 -1.2409
  333MOL0     H45890   4.778   3.722   6.174  2.8853 -1.1859  1.4481
  333MOL0     H45891   5.040   3.881   6.150  0.1365  0.9392  0.5192
  333MOL0     H45892   4.893   3.961   6.200 -2.0126 -1.3865  2.9470
  333MOL0     H45893   4.873   3.786   6.392 -1.8704  2.7105 -0.9334
  333MOL0     H45894   5.019   3.710   6.350 -0.2049  0.1653 -1.1174
  333MOL0     H45895   5.024   3.909   6.527  2.4381 -0.8850 -0.7302
  333MOL0     H45896   4.989   4.010   6.388  1.7683  1.4045  1.0498
  333MOL0     H45897   5.247   3.835   6.423  1.5791  2.0217  3.1632
  333MOL0     H45898   5.218   3.962   6.306 -1.8999 -1.4234 -0.6776
  333MOL0     H45899   5.206   4.036   6.602 -2.1849  0.2527 -0.5738
  333MOL0     H45900   5.211   4.133   6.467 -0.5769 -1.3068 -0.7560
  333MOL0     H45901   5.434   3.929   6.515  0.8470  0.1892 -0.5600
  333MOL0     H45902   5.446   4.068   6.422 -4.0728 -1.2332 -2.3437
  333MOL0     H45903   5.475   4.289   6.558 -0.4143  1.0804  1.4368
  333MOL0     H45904   5.702   4.390   6.719  1.1686  0.9857  0.9585
  333MOL0     H45905   5.685   4.362   6.894  0.8343  2.8535  0.4198
  333MOL0     H45906   5.565   4.582   6.785  0.6470 -0.7132 -1.5709
  333MOL0     H45907   5.433   4.461   6.771 -0.6049  0.0724  1.3924
  333MOL0     H45908   5.474   4.393   7.014  1.4427 -0.8395 -2.9517
  333MOL0     H45909   5.565   4.542   7.032 -2.6332  0.8580  3.7002
  333MOL0     H45910   5.273   4.500   6.953  0.9202  0.0389 -0.1624
  333MOL0     H45911   5.344   4.575   7.099  3.0615  1.2322  0.0228
  333MOL0     H45912   5.382   4.834   6.729 -0.5491 -1.7745  0.2226
  333MOL0     H45913   5.434   5.059   6.647  0.9476 -2.1067  0.2706
  333MOL0     H45914   5.598   5.117   6.696  0.7531 -1.1662  0.0167
  333MOL0     H45915   5.462   5.186   6.769  0.9335 -0.7157  2.0858
  333MOL0     H45916   5.783   5.266   7.307 -2.8717  0.2255 -0.3109
  333MOL0     H45917   5.905   5.474   7.347 -0.6832  2.2097 -0.1400
  333MOL0     H45918   5.762   5.821   7.116  3.4366  0.5612 -0.7800
  333MOL0     H45919   5.736   5.744   7.280  1.4347 -2.2448  1.1148
  333MOL0     H45920   5.958   5.882   7.348  1.2184  0.8774 -1.2588
  333MOL0     H45921   5.945   5.961   7.190  4.0215 -2.6720 -0.6642
  333MOL0     H45922   5.788   5.990   7.444 -2.8898  3.8916  0.3104
  333MOL0     H45923   5.712   6.033   7.289  1.1571  0.5571 -1.3273
  333MOL0     H45924   5.884   6.195   7.243 -1.4100 -0.4853 -0.3343
  333MOL0     H45925   5.999   6.126   7.361  0.3599  1.7958 -0.8216
  333MOL0     H45926   5.828   6.162   7.543  0.0463  1.8623  1.0441
  333MOL0     H45927   5.909   6.317   7.486 -0.9286  0.5742  0.7671
  333MOL0     H45928   5.640   6.193   7.392 -2.1176  0.4202  0.7598
  333MOL0     H45929   5.717   6.349   7.341  0.5220 -1.6860 -0.8663
  333MOL0     H45930   5.667   6.460   7.512  0.8579 -0.0951  1.2839
  333MOL0     H45931   5.685   6.331   7.637 -2.3594 -1.8066  0.3632
  333MOL0     H45932   5.440   6.380   7.484  1.3091  0.7921 -0.3578
  333MOL0     H45933   5.453   6.404   7.655 -1.4725  0.6446 -1.2171
  333MOL0     H45934   5.758   5.626   6.981  1.5368 -1.2038 -0.2733
  333MOL0     H45935   5.645   5.406   6.929 -0.6512  2.3017  0.5668
  333MOL0     H45936   5.600   4.945   7.164  2.4681  1.2960 -0.5884
  333MOL0     H45937   5.477   4.734   7.139  0.3680 -0.9384 -1.3300
  333MOL0     H45938   5.170   3.594   5.897 -5.3392 -1.3666  2.4369
  333MOL0     H45939   5.278   3.497   5.721 -0.5610 -1.4179  0.4914
  333MOL0     H45940   5.158   3.503   5.210 -0.4592 -0.7920  1.7842
  333MOL0     H45941   5.173   3.424   4.978  1.1687  2.8550  1.6151
  333MOL0     H45942   5.482   3.130   4.878  0.1543  0.5480 -0.7834
  333MOL0     H45943   5.348   3.018   4.893 -1.3218  0.0728 -1.6891
  333MOL0     H45944   5.265   3.099   4.664  0.0902 -2.8651  1.3954
  333MOL0     H45945   5.424   3.015   4.670  2.4438  1.3014 -1.0037
  333MOL0     H45946   5.403   3.313   4.669  1.6066 -0.6892  2.0429
  333MOL0     H45947   5.550   3.214   4.666  0.6597  1.5788 -1.1692
  333MOL0     H45948   5.436   3.109   4.447  0.2588  1.1240 -4.4983
  333MOL0     H45949   5.526   3.256   4.435 -1.1430  1.1558 -0.9639
  333MOL0     H45950   5.148   3.391   4.320  1.1143  2.3129 -0.1894
  333MOL0     H45951   5.410   3.092   5.106 -0.2320  0.0578 -2.2530
  333MOL0     H45952   5.530   3.249   5.405 -2.0184  0.0446  0.3999
  333MOL0     H45953   5.411   3.125   5.421 -0.3628 -0.3201  0.6421
  333MOL0     H45954   5.553   3.104   5.311  0.0989 -1.5202  3.2350
  334MOL0     O45955   3.890   6.452   7.981 -0.1558 -0.3260 -0.0746
  334MOL0     C45956   4.007   6.478   7.987  0.3679  0.0970  0.7172
  334MOL0     O45957   4.069   6.529   8.097  0.9350  0.1346 -0.0494
  334MOL0     C45958   4.004   6.594   8.197 -0.5454  0.5759  0.2074
  334MOL0     C45959   4.082   6.690   8.268  0.5652  0.1519 -0.0860
  334MOL0     C45960   4.022   6.770   8.368 -0.4978  0.0435  0.0739
  334MOL0     C45961   3.895   6.763   8.406 -0.0812  0.4784  0.0778
  334MOL0     O45962   3.860   6.845   8.505 -0.1588  0.5249 -0.7321
  334MOL0     C45963   3.749   6.799   8.597 -0.4716 -0.1148  0.2833
  334MOL0     C45964   3.723   6.898   8.711  0.0391  0.0571  0.4491
  334MOL0     C45965   3.813   6.863   8.835  0.4809  0.2842  0.2305
  334MOL0     C45966   3.716   6.811   8.944 -0.5712 -0.3133 -0.0828
  334MOL0     C45967   3.792   6.737   9.052 -1.2816  0.0031 -0.2347
  334MOL0     C45968   3.908   6.807   9.124  0.3052  0.5782  0.0397
  334MOL0     C45969   3.850   6.910   9.230  0.3767  0.9847  0.5046
  334MOL0     C45970   3.922   6.896   9.364 -0.1765  0.0814  0.3701
  334MOL0     N45971   4.065   6.949   9.374  0.1052  0.0308  0.6618
  334MOL0     C45972   4.187   6.878   9.379 -0.3022  0.6151  1.2296
  334MOL0     C45973   4.274   6.982   9.389  0.1762  1.0146  0.4381
  334MOL0     C45974   4.425   6.977   9.382  1.4390  0.3175 -0.3476
  334MOL0     C45975   4.478   6.933   9.246 -0.0449  1.3750  0.6680
  334MOL0     C45976   4.471   6.787   9.213 -0.6367 -0.3607  1.0050
  334MOL0     C45977   4.592   6.748   9.119  0.0559 -0.0977  1.5172
  334MOL0     O45978   4.591   6.815   8.983  0.3501  0.2200 -0.5505
  334MOL0     C45979   4.672   6.747   8.891  1.1042  0.3607 -0.8247
  334MOL0     C45980   4.811   6.731   8.919  0.0808  1.2570 -0.0572
  334MOL0     C45981   4.887   6.661   8.812  0.6848 -0.0020 -0.1559
  334MOL0     C45982   5.033   6.632   8.839 -0.1906 -0.0902  0.4609
  334MOL0     C45983   4.818   6.617   8.696 -0.2297  0.0714 -0.0034
  334MOL0     C45984   4.888   6.536   8.595 -0.8299  1.1479  0.1628
  334MOL0     O45985   4.821   6.513   8.480 -0.1134  0.4475  0.3736
  334MOL0     C45986   4.881   6.420   8.392 -0.5888  0.4546 -0.2578
  334MOL0     C45987   4.903   6.290   8.427 -0.0862 -0.2983  0.7300
  334MOL0     C45988   4.949   6.194   8.334  0.2803  0.4964  0.4622
  334MOL0     C45989   4.991   6.239   8.206  0.3683 -0.5222 -0.3035
  334MOL0     O45990   5.017   6.149   8.108 -0.9027 -0.0984 -0.2924
  334MOL0     C45991   5.013   6.006   8.128 -0.2818  0.0548  1.2421
  334MOL0     C45992   5.102   5.958   8.015 -0.6466 -0.4455 -0.7113
  334MOL0     C45993   5.072   5.813   7.981  0.0246  0.3674 -0.0913
  334MOL0     C45994   5.174   5.762   7.872 -0.9464 -0.6657 -0.4014
  334MOL0     C45995   5.183   5.613   7.865  0.5983  0.2233  0.1353
  334MOL0     C45996   5.051   5.549   7.823  0.7796  0.1819 -0.5013
  334MOL0     C45997   5.058   5.395   7.819  0.2736 -0.2336  0.0585
  334MOL0     C45998   4.930   5.321   7.849  0.5848 -0.2923  0.2044
  334MOL0    Cl45999   4.806   5.373   7.727 -0.0703 -0.0346 -0.1085
  334MOL0     C46000   4.975   6.373   8.179  0.5073 -0.2297 -0.6627
  334MOL0     C46001   4.916   6.458   8.264 -0.3782 -0.5096  0.0069
  334MOL0     O46002   4.987   6.469   8.629 -0.7001  0.1598  0.0658
  334MOL0     C46003   4.681   6.624   8.686 -0.2360  0.1389 -0.0384
  334MOL0     C46004   4.609   6.698   8.780 -0.3062  0.1741  1.0178
  334MOL0     N46005   4.211   7.102   9.400  0.7418 -0.0796 -0.6711
  334MOL0     N46006   4.086   7.082   9.383 -0.2266  1.1060  0.1216
  334MOL0     C46007   3.813   6.665   8.349  0.9384  0.4527 -0.0623
  334MOL0     C46008   3.872   6.569   8.255  0.2916  0.4185  0.2146
  334MOL0     C46009   4.093   6.454   7.870 -0.1007  0.1796  0.3599
  334MOL0     C46010   4.044   6.369   7.765  0.7351  0.0700 -0.3056
  334MOL0     C46011   4.097   6.366   7.637 -0.0358 -0.2571 -1.2289
  334MOL0     C46012   4.225   6.420   7.624 -0.4693  0.7346  0.3532
  334MOL0     O46013   4.276   6.422   7.499  0.5422  0.1420 -0.3752
  334MOL0     C46014   4.286   6.291   7.428  0.1349 -0.1732  0.1073
  334MOL0     C46015   4.293   6.313   7.269  0.2688 -0.4312 -1.1832
  334MOL0     C46016   4.423   6.403   7.233  0.1023 -0.3440  0.5392
  334MOL0     C46017   4.431   6.408   7.082  1.0475 -0.6758 -0.2943
  334MOL0     C46018   4.482   6.274   7.027  0.3999  0.2288  0.8822
  334MOL0     C46019   4.521   6.164   6.970  0.8613 -0.7826  0.2925
  334MOL0     C46020   4.285   6.489   7.724 -1.0380  0.2302  0.8574
  334MOL0     C46021   4.223   6.510   7.850 -0.9507  0.5957  0.9457
  334MOL0     C46022   4.293   6.614   7.928 -0.1588  0.6373  0.1587
  334MOL0     H46023   4.181   6.713   8.230  0.1862 -1.0654 -1.9405
  334MOL0     H46024   4.084   6.842   8.420  4.5875 -2.7663 -1.4094
  334MOL0     H46025   3.763   6.705   8.650 -2.2887  1.9052  4.8822
  334MOL0     H46026   3.659   6.789   8.536  0.6466  0.3024 -1.5277
  334MOL0     H46027   3.742   7.003   8.687 -3.4827  1.3896  2.6539
  334MOL0     H46028   3.617   6.885   8.736  0.6136 -3.0160  1.7174
  334MOL0     H46029   3.891   6.791   8.808  1.0428  0.1217  2.1503
  334MOL0     H46030   3.862   6.951   8.877  2.2597  0.0467 -1.2175
  334MOL0     H46031   3.664   6.892   8.996 -1.0665 -0.2000 -0.7430
  334MOL0     H46032   3.637   6.745   8.907 -2.4167  1.5630  0.3518
  334MOL0     H46033   3.829   6.642   9.012  0.0958  0.7566 -0.8418
  334MOL0     H46034   3.711   6.717   9.123 -1.5115 -1.6907 -0.9451
  334MOL0     H46035   3.979   6.731   9.159  0.5679  1.1871  0.8778
  334MOL0     H46036   3.961   6.861   9.045 -0.2703 -0.3694 -1.0218
  334MOL0     H46037   3.744   6.886   9.245  0.2522  0.9465 -0.3787
  334MOL0     H46038   3.852   7.014   9.196 -0.6409  0.7509 -0.3229
  334MOL0     H46039   3.862   6.953   9.435  0.5721  1.6720 -0.2295
  334MOL0     H46040   3.925   6.794   9.404  0.4886  0.0968  0.3705
  334MOL0     H46041   4.210   6.773   9.369 -1.1922  0.1711  3.2951
  334MOL0     H46042   4.466   6.905   9.454  0.9499  0.5755  0.1962
  334MOL0     H46043   4.461   7.075   9.415 -2.3928  1.2279  1.7477
  334MOL0     H46044   4.442   6.998   9.165 -1.0722 -2.1914 -1.9889
  334MOL0     H46045   4.585   6.954   9.254  0.3378  0.2817 -1.0588
  334MOL0     H46046   4.466   6.728   9.305 -2.8540 -0.8689  0.6299
  334MOL0     H46047   4.379   6.771   9.155  0.9874  2.1610 -2.6300
  334MOL0     H46048   4.687   6.771   9.167  1.7716  1.0899 -2.1053
  334MOL0     H46049   4.588   6.640   9.103  1.6006 -0.2599  2.0413
  334MOL0     H46050   4.854   6.765   9.013 -1.1662 -0.1322  1.0600
  334MOL0     H46051   5.057   6.697   8.924 -2.3035 -1.8470  2.5167
  334MOL0     H46052   5.094   6.661   8.753  0.9715 -1.7049  0.7127
  334MOL0     H46053   5.050   6.525   8.853 -3.1220 -0.6866  0.1215
  334MOL0     H46054   4.879   6.263   8.530  0.4663 -1.3407  0.5987
  334MOL0     H46055   4.936   6.092   8.366 -0.2742  0.0677 -1.0472
  334MOL0     H46056   5.038   5.971   8.229 -0.9918 -2.2224  0.6715
  334MOL0     H46057   4.915   5.962   8.106 -0.4488 -0.3257  2.6534
  334MOL0     H46058   5.084   6.019   7.926  1.0148  0.3166 -0.5637
  334MOL0     H46059   5.207   5.970   8.040 -0.7661  3.0746 -1.3871
  334MOL0     H46060   4.969   5.814   7.945  0.7978 -2.2415 -2.7434
  334MOL0     H46061   5.077   5.767   8.080 -0.6212  4.6906  2.2029
  334MOL0     H46062   5.272   5.806   7.891 -1.2463  0.9635 -2.3385
  334MOL0     H46063   5.140   5.796   7.774  0.7438  0.2629 -0.7055
  334MOL0     H46064   5.258   5.594   7.787  0.8411  1.1977  0.1212
  334MOL0     H46065   5.215   5.567   7.958 -0.2309  0.5978  0.6122
  334MOL0     H46066   5.030   5.598   7.727  1.5279  0.8970 -0.3177
  334MOL0     H46067   4.972   5.568   7.895  1.7950 -0.4847  0.8386
  334MOL0     H46068   5.132   5.348   7.885  1.3394 -2.6598 -2.6238
  334MOL0     H46069   5.099   5.365   7.722 -0.7055  1.2835 -0.8496
  334MOL0     H46070   4.889   5.352   7.946 -1.5308 -0.8479 -0.4744
  334MOL0     H46071   4.935   5.212   7.847 -0.6767 -0.3487 -1.0254
  334MOL0     H46072   5.006   6.404   8.079 -0.3490 -0.5713 -1.0490
  334MOL0     H46073   4.889   6.561   8.241 -0.6988 -0.4733  0.5374
  334MOL0     H46074   4.629   6.592   8.596 -0.6525  2.2025 -0.5953
  334MOL0     H46075   4.503   6.715   8.763 -0.2513 -1.0064 -0.8369
  334MOL0     H46076   3.709   6.647   8.373  0.9528 -0.2982 -0.5312
  334MOL0     H46077   3.807   6.486   8.228  0.7392 -0.1510  0.8466
  334MOL0     H46078   3.956   6.309   7.784 -0.0551  1.1077 -0.5843
  334MOL0     H46079   4.045   6.302   7.566 -0.2889 -1.3262 -0.1200
  334MOL0     H46080   4.375   6.231   7.450  0.0596 -2.3037 -4.3096
  334MOL0     H46081   4.203   6.226   7.459 -0.4665  1.1765  1.4226
  334MOL0     H46082   4.207   6.370   7.232  1.9748  2.8291 -0.5053
  334MOL0     H46083   4.295   6.218   7.215 -1.8403 -0.6339 -0.9866
  334MOL0     H46084   4.397   6.505   7.261 -0.5229 -0.2396 -0.3888
  334MOL0     H46085   4.516   6.369   7.280  0.6631  0.0079 -0.2866
  334MOL0     H46086   4.511   6.480   7.064  0.4389  0.8226  2.4266
  334MOL0     H46087   4.337   6.444   7.039  1.2955  0.3111 -0.0386
  334MOL0     H46088   4.557   6.071   6.932 -2.8282 -1.7549 -1.3051
  334MOL0     H46089   4.372   6.546   7.690 -0.2504  0.1036  2.5669
  334MOL0     H46090   4.281   6.594   8.035 -0.4465 -1.1996 -0.1926
  334MOL0     H46091   4.401   6.627   7.915  0.0032 -0.4855  0.2938
  334MOL0     H46092   4.248   6.706   7.888  0.2319  1.2843  1.1556
  335MOL0     O46093   9.144   9.441   6.693  0.2652  0.0931 -0.5086
  335MOL0     C46094   9.032   9.478   6.733 -0.0117  0.8726 -0.6766
  335MOL0     O46095   8.967   9.428   6.842  0.2580  0.2980  0.3245
  335MOL0     C46096   9.016   9.341   6.935 -0.3263  0.7438  0.6835
  335MOL0     C46097   9.052   9.208   6.903  0.2241 -1.5117  0.3841
  335MOL0     C46098   9.132   9.135   6.989 -0.6778  0.1153 -0.4043
  335MOL0     C46099   9.174   9.186   7.114 -0.3397  0.1981  0.4237
  335MOL0     O46100   9.258   9.105   7.191  0.2215 -0.0024  0.0643
  335MOL0     C46101   9.199   9.063   7.320 -0.7630 -0.6006  0.4807
  335MOL0     C46102   9.162   8.918   7.310 -0.1263  0.2767 -0.3143
  335MOL0     C46103   9.290   8.826   7.334 -0.2073  0.1064  0.1926
  335MOL0     C46104   9.259   8.674   7.337  0.3535 -0.3626  0.3654
  335MOL0     C46105   9.321   8.608   7.223 -0.2948  0.2447  0.2549
  335MOL0     C46106   9.324   8.464   7.252 -0.5093  0.3573 -0.5391
  335MOL0     C46107   9.392   8.387   7.142  1.3158  0.2091 -0.2479
  335MOL0     C46108   9.408   8.233   7.166 -0.0662  0.7319 -0.4060
  335MOL0     N46109   9.473   8.177   7.049  0.0019 -0.5580  0.8729
  335MOL0     C46110   9.484   8.048   7.024 -0.4599 -0.3137  0.0676
  335MOL0     C46111   9.544   8.042   6.899 -0.4503  0.7852 -0.1989
  335MOL0     C46112   9.590   7.921   6.829 -0.1155  0.1911  0.3300
  335MOL0     C46113   9.726   7.931   6.770 -1.3426  1.0397  0.6052
  335MOL0     C46114   9.828   7.952   6.868  0.0349  0.3361  0.5017
  335MOL0     C46115   9.968   7.942   6.793 -0.1809  0.7495  0.2277
  335MOL0     O46116  10.076   7.969   6.879 -0.9560 -0.8687 -0.4932
  335MOL0     C46117  10.186   8.031   6.826  0.9303 -0.3190 -0.4814
  335MOL0     C46118  10.236   8.130   6.898  0.5211 -0.7412  0.7705
  335MOL0     C46119  10.358   8.194   6.860 -0.3354 -0.1600 -0.4393
  335MOL0     C46120  10.390   8.318   6.937 -0.0242  0.4424  0.2417
  335MOL0     C46121  10.429   8.145   6.751 -0.8455 -0.0940  0.1864
  335MOL0     C46122  10.561   8.199   6.702  1.2154 -0.0561  0.5225
  335MOL0     O46123  10.617   8.132   6.598 -0.3677 -0.3384 -0.3024
  335MOL0     C46124  10.755   8.131   6.574 -0.0625  0.0353  0.3156
  335MOL0     C46125  10.797   8.124   6.438  0.8582 -0.1579  0.4259
  335MOL0     C46126  10.936   8.113   6.401  0.4413 -0.6594  0.9010
  335MOL0     C46127  11.033   8.124   6.494 -0.1935 -0.5511 -0.5120
  335MOL0     O46128  11.171   8.124   6.456 -0.1655  0.6382 -0.1494
  335MOL0     C46129  11.269   8.079   6.546 -0.1871 -0.1900  0.2047
  335MOL0     C46130  11.292   7.933   6.551  0.1699 -0.0236  0.6370
  335MOL0     C46131  11.415   7.927   6.639  1.1036  0.1063 -0.3094
  335MOL0     C46132  11.444   7.778   6.672  0.2514  0.1511  0.6765
  335MOL0     C46133  11.575   7.763   6.737  0.1290 -0.6440 -0.1549
  335MOL0     C46134  11.580   7.619   6.809 -0.3931 -0.7403  0.9408
  335MOL0     C46135  11.713   7.611   6.875  0.3307  0.8577  0.0356
  335MOL0     C46136  11.835   7.588   6.790 -0.1190  0.3803  0.2678
  335MOL0    Cl46137  11.844   7.415   6.731  0.7119 -0.0802  0.2004
  335MOL0     C46138  10.995   8.148   6.627 -0.4279 -0.5394  0.5996
  335MOL0     C46139  10.860   8.149   6.670 -0.3457  0.3116  0.1671
  335MOL0     O46140  10.620   8.279   6.773 -0.7597  0.2881 -0.3196
  335MOL0     C46141  10.365   8.051   6.672 -0.3435  0.3867  1.4148
  335MOL0     C46142  10.247   7.988   6.711 -0.2620 -0.1131 -0.4022
  335MOL0     N46143   9.547   8.165   6.840 -0.2462  0.6563  0.2837
  335MOL0     N46144   9.501   8.245   6.931 -0.1713 -0.1944 -0.3535
  335MOL0     C46145   9.143   9.319   7.142  0.4286  0.1475  0.4081
  335MOL0     C46146   9.062   9.395   7.057 -0.4392 -0.5769  0.0174
  335MOL0     C46147   8.967   9.590   6.659  0.0118 -0.4189  0.2850
  335MOL0     C46148   8.893   9.684   6.727  0.6490  0.2984  0.0222
  335MOL0     C46149   8.833   9.800   6.668  0.1552  1.1356 -0.1791
  335MOL0     C46150   8.844   9.818   6.524 -0.5436 -0.3895  0.5458
  335MOL0     O46151   8.783   9.914   6.444  0.2283  0.6018  0.7016
  335MOL0     C46152   8.697  10.009   6.504 -0.2560  0.1983  0.1062
  335MOL0     C46153   8.559   9.942   6.530 -0.4233  0.5078  0.2499
  335MOL0     C46154   8.477  10.022   6.629 -0.0256 -0.0650 -0.1352
  335MOL0     C46155   8.322   9.989   6.626 -0.4137  0.0744 -1.2377
  335MOL0     C46156   8.304   9.844   6.609  0.4180 -0.5885 -0.2914
  335MOL0     C46157   8.322   9.728   6.599  0.0850 -0.7134 -0.1276
  335MOL0     C46158   8.924   9.721   6.458  0.1732 -0.4181 -0.6616
  335MOL0     C46159   8.978   9.610   6.519 -0.0300 -1.1346  0.0916
  335MOL0     C46160   9.047   9.506   6.427  0.2341 -0.3474 -0.5261
  335MOL0     H46161   9.015   9.152   6.818  0.7383 -2.5082  0.7995
  335MOL0     H46162   9.141   9.028   6.969 -1.5075  0.1204 -0.8475
  335MOL0     H46163   9.119   9.134   7.341 -0.7249  0.5420 -2.6390
  335MOL0     H46164   9.290   9.082   7.377 -0.0563  0.2812 -0.8599
  335MOL0     H46165   9.082   8.898   7.382  0.1399  1.0550  0.2129
  335MOL0     H46166   9.123   8.900   7.209 -0.9988  0.4268 -0.0122
  335MOL0     H46167   9.381   8.850   7.279  1.0275 -4.1943  0.0015
  335MOL0     H46168   9.330   8.852   7.432  2.2108  0.4567 -0.8349
  335MOL0     H46169   9.286   8.638   7.437 -1.1313  3.2104  2.2402
  335MOL0     H46170   9.151   8.657   7.336  0.6592 -2.5560 -0.1668
  335MOL0     H46171   9.427   8.634   7.217 -0.0924 -0.3145  1.1911
  335MOL0     H46172   9.261   8.623   7.133 -1.5989  1.3462  1.2608
  335MOL0     H46173   9.371   8.457   7.350  0.2699  2.5503 -0.6935
  335MOL0     H46174   9.221   8.428   7.262 -0.3133 -1.9081 -4.5264
  335MOL0     H46175   9.485   8.444   7.126 -0.6239  3.9715  0.6454
  335MOL0     H46176   9.334   8.403   7.051 -0.7950  2.8314  1.4100
  335MOL0     H46177   9.478   8.207   7.246  0.2086 -5.8106 -2.2270
  335MOL0     H46178   9.314   8.180   7.183 -0.0083  1.4117  2.6243
  335MOL0     H46179   9.479   7.963   7.091 -0.5432 -0.0878  0.3473
  335MOL0     H46180   9.522   7.909   6.745 -2.0704  2.3077  1.4910
  335MOL0     H46181   9.590   7.832   6.893 -2.0591  0.7637  1.1935
  335MOL0     H46182   9.736   7.843   6.705 -4.6873 -0.8031  2.3074
  335MOL0     H46183   9.721   8.019   6.705  1.3024  0.6043 -0.3124
  335MOL0     H46184   9.810   8.042   6.928 -1.7949  1.2413 -1.2537
  335MOL0     H46185   9.830   7.872   6.943 -1.4615 -1.5152 -1.3214
  335MOL0     H46186   9.981   7.836   6.768  2.3405  1.4421 -1.7999
  335MOL0     H46187   9.966   8.005   6.704  0.1654  0.1004 -0.2403
  335MOL0     H46188  10.173   8.161   6.980 -1.2647  4.6985 -2.1994
  335MOL0     H46189  10.346   8.408   6.892 -2.6026  0.7314  2.9616
  335MOL0     H46190  10.497   8.326   6.959  0.2479 -1.6895 -0.1299
  335MOL0     H46191  10.340   8.296   7.032  1.4113  1.3755  1.2426
  335MOL0     H46192  10.720   8.130   6.362  2.5553 -1.1439 -1.4515
  335MOL0     H46193  10.962   8.108   6.295 -2.4081  1.6694 -0.0518
  335MOL0     H46194  11.361   8.118   6.503  0.4254  0.3388  1.8989
  335MOL0     H46195  11.252   8.127   6.643 -0.6181  3.2841 -1.4127
  335MOL0     H46196  11.206   7.894   6.606  1.8843 -3.7394  0.9903
  335MOL0     H46197  11.308   7.893   6.450  0.8961  0.9396  0.3519
  335MOL0     H46198  11.388   7.970   6.735  2.4440  1.5491 -0.5511
  335MOL0     H46199  11.497   7.983   6.593 -0.3663  0.9325 -2.0292
  335MOL0     H46200  11.453   7.728   6.575  0.4322 -1.4035  1.4770
  335MOL0     H46201  11.368   7.726   6.730  0.3720  0.0790  0.7713
  335MOL0     H46202  11.653   7.785   6.663 -0.9362  1.4588 -0.7370
  335MOL0     H46203  11.598   7.843   6.808  5.1258  1.4482 -3.5530
  335MOL0     H46204  11.569   7.547   6.727 -0.5120  1.3793 -1.0339
  335MOL0     H46205  11.501   7.611   6.884 -1.3700  1.0696  0.1632
  335MOL0     H46206  11.694   7.524   6.939 -0.8256 -1.6616 -3.4322
  335MOL0     H46207  11.733   7.698   6.938 -0.1118 -0.2074  1.7361
  335MOL0     H46208  11.919   7.602   6.859  0.7028  2.1610 -1.0150
  335MOL0     H46209  11.832   7.652   6.702 -2.6804 -0.8679 -0.6636
  335MOL0     H46210  11.072   8.160   6.703  1.2324 -0.5031 -1.0354
  335MOL0     H46211  10.848   8.164   6.777  1.7198 -0.8557  0.6188
  335MOL0     H46212  10.417   8.025   6.581  0.2829  1.0325  1.5748
  335MOL0     H46213  10.215   7.911   6.641  0.0344 -0.3845 -0.2400
  335MOL0     H46214   9.175   9.371   7.232  1.6270  0.0327  0.0673
  335MOL0     H46215   9.050   9.493   7.102  0.1876 -1.2000  1.6267
  335MOL0     H46216   8.885   9.674   6.835 -0.9844  0.6137 -0.0322
  335MOL0     H46217   8.778   9.872   6.727  0.9561  1.7290 -0.1326
  335MOL0     H46218   8.744  10.051   6.593  0.6015 -0.3065 -0.0949
  335MOL0     H46219   8.688  10.083   6.424  0.8091 -3.6851 -4.0465
  335MOL0     H46220   8.574   9.837   6.554 -1.6033 -0.7789 -3.8784
  335MOL0     H46221   8.498   9.936   6.440  1.9953 -0.8397 -1.4105
  335MOL0     H46222   8.508  10.019   6.734 -2.2315  1.5270  0.6194
  335MOL0     H46223   8.492  10.128   6.606  0.0154 -0.3180 -1.3281
  335MOL0     H46224   8.279  10.033   6.535 -0.8255  2.4837  0.0471
  335MOL0     H46225   8.269  10.012   6.718  0.4914 -1.7249 -0.2147
  335MOL0     H46226   8.335   9.622   6.591 -1.6246 -0.9264 -0.5328
  335MOL0     H46227   8.938   9.727   6.351 -0.6905  0.1540 -0.7446
  335MOL0     H46228   9.151   9.529   6.456 -0.1988  2.3687 -0.8587
  335MOL0     H46229   9.018   9.404   6.453  0.3010  0.1839  1.9193
  335MOL0     H46230   9.036   9.520   6.319  1.6376  2.1635 -0.4390
  336MOL0     O46231   9.720   1.879   0.321 -0.7693  0.1626  0.6207
  336MOL0     C46232   9.681   1.982   0.262  0.7146  0.1931  0.7788
  336MOL0     O46233   9.556   2.033   0.260 -0.6537  0.2458 -0.7042
  336MOL0     C46234   9.468   1.999   0.365  0.1940 -0.0074 -0.4464
  336MOL0     C46235   9.504   1.962   0.501 -0.4201 -0.0690 -0.1896
  336MOL0     C46236   9.398   1.910   0.588 -0.2654 -0.2427 -0.7119
  336MOL0     C46237   9.261   1.905   0.548 -0.6978 -0.4852  0.1293
  336MOL0     O46238   9.167   1.839   0.625  0.1718 -0.1126 -0.2188
  336MOL0     C46239   9.184   1.697   0.620  0.0482 -0.4007 -0.9767
  336MOL0     C46240   9.072   1.640   0.691 -0.1539  0.1134  0.1874
  336MOL0     C46241   9.045   1.703   0.822 -0.2464 -0.2771 -0.3354
  336MOL0     C46242   8.938   1.636   0.902  0.8598 -0.4371  0.2076
  336MOL0     C46243   8.900   1.690   1.049  0.0907 -0.0187  0.6997
  336MOL0     C46244   9.030   1.713   1.127 -0.3015  0.2790  0.2748
  336MOL0     C46245   8.982   1.736   1.272  0.1265 -0.2005 -0.0974
  336MOL0     C46246   9.113   1.756   1.354 -0.1209 -0.3712 -0.2750
  336MOL0     N46247   9.104   1.769   1.497  0.4543 -0.2249  0.8684
  336MOL0     C46248   9.013   1.840   1.570  0.1431 -0.5447 -0.4357
  336MOL0     C46249   9.038   1.817   1.701  0.5092  0.9393 -0.5854
  336MOL0     C46250   8.983   1.888   1.826  0.0727 -0.5921  0.9230
  336MOL0     C46251   8.826   1.899   1.799 -0.3940 -0.0017 -0.5774
  336MOL0     C46252   8.766   2.038   1.787  1.2250 -0.6329 -0.0951
  336MOL0     C46253   8.809   2.113   1.664  0.7509  0.8869 -0.8928
  336MOL0     O46254   8.731   2.238   1.662 -0.2237  0.8819  0.1020
  336MOL0     C46255   8.773   2.356   1.730  0.2083 -0.3169  0.0860
  336MOL0     C46256   8.720   2.490   1.707 -0.0325  0.4947  0.5956
  336MOL0     C46257   8.760   2.605   1.775  0.6425  0.2866  0.5509
  336MOL0     C46258   8.700   2.744   1.737  0.3685 -0.1407  0.1837
  336MOL0     C46259   8.865   2.592   1.868 -0.5990  0.1756 -1.7669
  336MOL0     C46260   8.905   2.699   1.964  0.3924  0.0290 -0.0542
  336MOL0     O46261   8.970   2.660   2.076  0.2006  0.8714  0.2575
  336MOL0     C46262   9.024   2.737   2.174  0.5432  0.2014 -0.0303
  336MOL0     C46263   8.976   2.860   2.214 -0.2257 -0.0777  0.0740
  336MOL0     C46264   9.020   2.926   2.337 -0.4104 -0.1739 -0.3421
  336MOL0     C46265   9.102   2.853   2.434 -0.4820 -0.2354  0.7406
  336MOL0     O46266   9.151   2.907   2.554 -0.0588  0.2498 -0.4561
  336MOL0     C46267   9.189   2.823   2.659  0.7758 -0.0751  0.2564
  336MOL0     C46268   9.182   2.901   2.792  0.2715 -0.9748  0.3526
  336MOL0     C46269   9.061   2.994   2.811  0.4435 -0.2620  0.4488
  336MOL0     C46270   8.937   2.907   2.793  0.3997  0.0887  0.3600
  336MOL0     C46271   8.812   2.983   2.858  0.1549 -0.5648 -0.2747
  336MOL0     C46272   8.798   3.130   2.788  0.4373 -0.0169 -0.3565
  336MOL0     C46273   8.674   3.214   2.829  0.4133 -0.5806 -0.4399
  336MOL0     C46274   8.678   3.348   2.757  0.0907  0.6970 -0.5702
  336MOL0    Cl46275   8.542   3.464   2.803 -0.0018  0.3524 -0.0138
  336MOL0     C46276   9.156   2.735   2.380 -0.3527  0.6567  0.4534
  336MOL0     C46277   9.111   2.665   2.262 -0.1048 -0.6511  0.9354
  336MOL0     O46278   8.874   2.812   1.934 -0.4775 -0.2038  0.4892
  336MOL0     C46279   8.920   2.465   1.895  0.0506 -0.0151  0.1177
  336MOL0     C46280   8.874   2.345   1.831  0.6110 -0.7323 -1.0939
  336MOL0     N46281   9.146   1.729   1.706 -0.9056 -0.1844 -0.3853
  336MOL0     N46282   9.188   1.711   1.585  0.4647  0.2082 -0.8239
  336MOL0     C46283   9.231   1.969   0.426  0.3502  0.6551 -0.0038
  336MOL0     C46284   9.329   2.010   0.338  0.5173  0.0127  1.0425
  336MOL0     C46285   9.784   2.072   0.199  0.0606  0.5352 -0.5685
  336MOL0     C46286   9.747   2.204   0.190 -0.9012  0.6204 -0.1108
  336MOL0     C46287   9.846   2.291   0.143 -0.4224 -0.2556  0.5162
  336MOL0     C46288   9.975   2.255   0.102  0.0878 -0.3623 -0.4119
  336MOL0     O46289  10.062   2.343   0.057  0.0346 -0.2102 -0.8530
  336MOL0     C46290  10.171   2.296  -0.020 -0.2981  0.5343 -0.2019
  336MOL0     C46291  10.298   2.282   0.073 -0.3754  0.2957 -0.5698
  336MOL0     C46292  10.412   2.392   0.061  0.9603  0.8776  0.3133
  336MOL0     C46293  10.374   2.529   0.116 -0.6457 -0.1830  0.5506
  336MOL0     C46294  10.291   2.593   0.013  0.4976 -0.3394  0.3888
  336MOL0     C46295  10.204   2.650  -0.054 -0.1000 -0.0630 -0.6070
  336MOL0     C46296  10.003   2.112   0.116  1.1491  0.5940  0.0169
  336MOL0     C46297   9.908   2.017   0.155  0.5238 -0.0100  0.1342
  336MOL0     C46298   9.916   1.867   0.122  0.6511 -0.1889 -1.1291
  336MOL0     H46299   9.602   1.973   0.545 -0.5150  0.9138 -0.1954
  336MOL0     H46300   9.403   1.874   0.690 -2.3111  0.7192 -0.2222
  336MOL0     H46301   9.273   1.676   0.679 -0.9605 -1.3800  0.2560
  336MOL0     H46302   9.185   1.663   0.516  2.4851  1.3313 -1.6212
  336MOL0     H46303   8.984   1.658   0.629 -1.8027  0.0104  2.3562
  336MOL0     H46304   9.086   1.533   0.706  0.8427  0.4645  2.1000
  336MOL0     H46305   9.132   1.708   0.887 -0.4770  0.6031 -0.0728
  336MOL0     H46306   9.036   1.812   0.819 -0.7717 -0.2242  1.5956
  336MOL0     H46307   8.842   1.649   0.851  0.4577  2.6899  1.5529
  336MOL0     H46308   8.956   1.528   0.907 -0.1678 -0.7334 -1.4829
  336MOL0     H46309   8.829   1.621   1.094 -1.6988 -0.1683 -2.1595
  336MOL0     H46310   8.849   1.786   1.036 -1.7237 -1.3590 -5.5906
  336MOL0     H46311   9.106   1.635   1.121 -0.1498  0.5362 -2.0638
  336MOL0     H46312   9.085   1.799   1.089 -0.8937  0.6746  0.2903
  336MOL0     H46313   8.939   1.649   1.322  3.9401 -0.8733  2.4190
  336MOL0     H46314   8.906   1.815   1.269 -1.6454 -1.8294 -1.9114
  336MOL0     H46315   9.185   1.676   1.334 -0.9471 -0.7814 -1.7410
  336MOL0     H46316   9.154   1.851   1.317  4.1457 -1.1119  1.8771
  336MOL0     H46317   8.940   1.910   1.531  0.8490  0.6739  0.3361
  336MOL0     H46318   9.032   1.986   1.830 -1.0046 -0.0836  3.2345
  336MOL0     H46319   9.018   1.836   1.915  1.1300 -5.8176 -2.1266
  336MOL0     H46320   8.793   1.841   1.713 -0.8332 -0.7343  0.0741
  336MOL0     H46321   8.787   1.859   1.893  3.2896  3.7349  3.0031
  336MOL0     H46322   8.659   2.029   1.767  1.4278 -1.7513 -0.7636
  336MOL0     H46323   8.773   2.096   1.879 -0.8886 -0.5605  0.0757
  336MOL0     H46324   8.914   2.141   1.653  1.1459  0.4207  1.2208
  336MOL0     H46325   8.784   2.050   1.579  3.5513 -0.9555 -0.4532
  336MOL0     H46326   8.644   2.501   1.630 -0.4748  0.4676  1.0193
  336MOL0     H46327   8.651   2.794   1.820 -0.1870 -1.3858  0.6226
  336MOL0     H46328   8.626   2.720   1.660 -1.7622 -1.0083  2.4026
  336MOL0     H46329   8.785   2.803   1.701 -0.9440  1.5764 -0.1996
  336MOL0     H46330   8.898   2.912   2.159 -1.9240 -1.4989  1.0431
  336MOL0     H46331   8.976   3.023   2.355 -0.3522 -0.3036  0.5285
  336MOL0     H46332   9.121   2.738   2.656 -1.8871  1.9330 -1.8251
  336MOL0     H46333   9.288   2.781   2.640  0.7598  0.0864 -0.1973
  336MOL0     H46334   9.197   2.833   2.876 -0.5904 -1.1672  0.3616
  336MOL0     H46335   9.271   2.964   2.790  0.5173 -1.3382 -0.4135
  336MOL0     H46336   9.052   3.071   2.733 -1.2094 -2.1300 -1.3198
  336MOL0     H46337   9.056   3.043   2.909  1.9638 -1.0696  0.9618
  336MOL0     H46338   8.944   2.808   2.839 -0.4819  0.5626  1.5603
  336MOL0     H46339   8.919   2.891   2.686  1.7367 -0.5550  0.2048
  336MOL0     H46340   8.720   2.932   2.829 -0.4489  0.2796  0.1387
  336MOL0     H46341   8.815   3.005   2.965 -1.9476  3.8436 -0.9116
  336MOL0     H46342   8.785   3.107   2.682 -2.7298 -2.5095  0.4140
  336MOL0     H46343   8.887   3.189   2.812  1.9410 -2.4731  0.4150
  336MOL0     H46344   8.659   3.223   2.937  1.8061  1.9546 -0.3679
  336MOL0     H46345   8.590   3.158   2.787  1.7314 -1.3196 -2.2171
  336MOL0     H46346   8.681   3.334   2.648  2.8389  0.8188 -0.5795
  336MOL0     H46347   8.772   3.398   2.783  2.0411 -2.0814 -1.7711
  336MOL0     H46348   9.227   2.685   2.444  0.1399 -0.4457 -0.9120
  336MOL0     H46349   9.138   2.565   2.228 -0.0922 -0.4437  0.3145
  336MOL0     H46350   8.994   2.442   1.971  0.7455 -0.5781 -0.6936
  336MOL0     H46351   8.922   2.256   1.871 -1.2089 -0.2734  2.5197
  336MOL0     H46352   9.124   1.981   0.412  0.5586  0.2281 -2.4432
  336MOL0     H46353   9.294   2.020   0.236  1.3748 -0.4608  0.6917
  336MOL0     H46354   9.644   2.232   0.206 -1.2285 -0.4882 -0.1736
  336MOL0     H46355   9.832   2.399   0.133 -2.9585 -0.4817  0.9738
  336MOL0     H46356  10.160   2.208  -0.083  2.1631 -1.1823  1.5698
  336MOL0     H46357  10.194   2.381  -0.085  2.7002  0.1032  0.1588
  336MOL0     H46358  10.335   2.182   0.047 -0.7325 -0.4950  1.7114
  336MOL0     H46359  10.267   2.269   0.177 -0.6704  3.0142 -0.2464
  336MOL0     H46360  10.492   2.347   0.120 -0.8125 -1.0449  1.4238
  336MOL0     H46361  10.439   2.399  -0.045  0.0450 -2.0386 -0.2214
  336MOL0     H46362  10.458   2.596   0.137 -0.5040 -0.7267  1.8412
  336MOL0     H46363  10.327   2.502   0.211  0.4256 -1.1820  0.8232
  336MOL0     H46364  10.128   2.709  -0.101  0.7640  0.3065 -1.5837
  336MOL0     H46365  10.097   2.062   0.095  0.6134 -1.6315  2.4008
  336MOL0     H46366   9.822   1.822   0.088  0.4113  0.5914 -1.5353
  336MOL0     H46367   9.995   1.844   0.050  2.2107  0.8014  0.1981
  336MOL0     H46368   9.949   1.825   0.217 -1.8016  1.5569  0.6205
  337MOL0     O46369   7.012   8.659   2.891  0.8520  0.5893 -0.3017
  337MOL0     C46370   6.911   8.715   2.850 -0.5953 -0.4533  0.5266
  337MOL0     O46371   6.787   8.713   2.912 -0.1506  0.0302 -0.4875
  337MOL0     C46372   6.774   8.630   3.025  0.2157 -0.0791 -0.5110
  337MOL0     C46373   6.694   8.666   3.128  0.6030  0.1395 -0.5263
  337MOL0     C46374   6.660   8.584   3.237 -0.9052 -0.4427  0.4311
  337MOL0     C46375   6.716   8.453   3.249  0.0939 -0.6400  0.2513
  337MOL0     O46376   6.690   8.357   3.347 -0.8658  0.3799  0.4530
  337MOL0     C46377   6.581   8.382   3.427 -0.0367 -0.9108  0.2397
  337MOL0     C46378   6.569   8.274   3.532  0.1632 -0.2997 -0.4333
  337MOL0     C46379   6.503   8.148   3.472  0.0562 -0.1825 -1.5066
  337MOL0     C46380   6.481   8.034   3.578 -0.1634 -0.0051 -0.9408
  337MOL0     C46381   6.417   7.909   3.529  0.5226  0.5751  0.3251
  337MOL0     C46382   6.388   7.808   3.645 -0.4842  0.0017 -0.0005
  337MOL0     C46383   6.342   7.674   3.577 -0.1350 -0.6630 -0.0060
  337MOL0     C46384   6.355   7.557   3.677 -0.3843  0.4275 -1.4133
  337MOL0     N46385   6.305   7.421   3.643  0.0551 -0.4008  0.6889
  337MOL0     C46386   6.385   7.314   3.627  0.1027  0.3347  0.8961
  337MOL0     C46387   6.299   7.214   3.606 -0.0774 -0.4026 -0.3386
  337MOL0     C46388   6.330   7.068   3.577 -0.2941  0.1348 -0.3032
  337MOL0     C46389   6.446   7.008   3.657 -0.5147 -0.0142  0.2693
  337MOL0     C46390   6.462   6.857   3.621  0.9928  0.1358  1.2074
  337MOL0     C46391   6.580   6.779   3.664 -0.5747  0.5162  0.0624
  337MOL0     O46392   6.710   6.841   3.663  0.2266 -0.0374 -0.1935
  337MOL0     C46393   6.752   6.909   3.778 -0.7437 -0.5042  0.3728
  337MOL0     C46394   6.876   6.980   3.772  0.0264  0.1247  0.5170
  337MOL0     C46395   6.936   7.047   3.877  0.0892 -1.1332  0.1761
  337MOL0     C46396   7.062   7.131   3.853 -0.1547  0.8712 -0.1724
  337MOL0     C46397   6.870   7.056   4.004  0.0356  0.1257  0.4625
  337MOL0     C46398   6.920   7.129   4.118  0.1220  0.3835  0.5067
  337MOL0     O46399   6.829   7.134   4.220 -0.0493  0.2037  0.0641
  337MOL0     C46400   6.835   7.231   4.315 -0.4394  0.7494 -0.0032
  337MOL0     C46401   6.957   7.245   4.389 -0.2996  0.5227  0.2013
  337MOL0     C46402   6.951   7.317   4.501  0.0471  0.6173 -0.3694
  337MOL0     C46403   6.844   7.402   4.543  0.0121  1.0789  1.7651
  337MOL0     O46404   6.865   7.493   4.642 -0.1911 -0.2251  0.2485
  337MOL0     C46405   6.773   7.514   4.735  1.6756  0.7861 -0.9684
  337MOL0     C46406   6.725   7.659   4.729  1.2508 -1.2627 -0.2488
  337MOL0     C46407   6.841   7.759   4.767 -0.5653  0.4006 -0.5493
  337MOL0     C46408   6.934   7.792   4.649  0.0931  0.3546  0.4731
  337MOL0     C46409   7.052   7.892   4.654 -0.7085  0.5469  0.3188
  337MOL0     C46410   7.009   8.038   4.664  0.3546 -0.1683  0.9562
  337MOL0     C46411   7.121   8.130   4.709  0.7472  0.0195 -0.8262
  337MOL0     C46412   7.116   8.273   4.643 -0.0892 -0.1954 -1.0582
  337MOL0    Cl46413   6.953   8.354   4.693  0.4679  0.2251  0.1705
  337MOL0     C46414   6.725   7.378   4.472 -0.2669 -0.3773  0.6351
  337MOL0     C46415   6.718   7.297   4.361  0.2413  0.7934  0.2035
  337MOL0     O46416   7.042   7.157   4.122  0.1217 -0.1137 -0.7648
  337MOL0     C46417   6.743   6.994   4.005  0.3701 -0.5612  0.3458
  337MOL0     C46418   6.691   6.915   3.906  0.8653  0.1371  0.5578
  337MOL0     N46419   6.167   7.262   3.620 -0.5495  0.8198 -0.6864
  337MOL0     N46420   6.170   7.385   3.635 -0.1262 -0.9843  0.1154
  337MOL0     C46421   6.792   8.409   3.137  0.6377  1.0258  0.7969
  337MOL0     C46422   6.820   8.493   3.032 -0.1509 -0.3392 -0.3558
  337MOL0     C46423   6.930   8.785   2.718  0.6186 -0.9856 -0.7818
  337MOL0     C46424   6.823   8.863   2.672  0.3782 -1.0820  0.2646
  337MOL0     C46425   6.830   8.946   2.558 -0.2162  0.0656 -0.2645
  337MOL0     C46426   6.956   8.948   2.492 -0.1689 -0.1689 -1.0623
  337MOL0     O46427   6.978   9.019   2.374  0.5028  0.0041 -0.0328
  337MOL0     C46428   6.881   9.121   2.335  0.0453 -0.3654  0.2541
  337MOL0     C46429   6.946   9.194   2.208  0.6126  0.0480  0.0737
  337MOL0     C46430   7.042   9.310   2.252 -0.1794 -1.7814 -0.3842
  337MOL0     C46431   7.096   9.391   2.130  0.0601 -0.3761 -0.5914
  337MOL0     C46432   7.213   9.480   2.165 -0.0404 -0.1505  0.4056
  337MOL0     C46433   7.303   9.552   2.187  0.2695  0.3387 -0.5672
  337MOL0     C46434   7.063   8.885   2.549 -0.8435  0.0552  1.0134
  337MOL0     C46435   7.058   8.798   2.651  0.4115  0.9482 -0.8333
  337MOL0     C46436   7.183   8.717   2.688  0.0811 -0.6046  0.5750
  337MOL0     H46437   6.634   8.756   3.117  0.2313  0.3181  2.2709
  337MOL0     H46438   6.590   8.616   3.312 -2.0369 -1.8894  0.0513
  337MOL0     H46439   6.490   8.381   3.366  0.5732  1.8111 -0.8587
  337MOL0     H46440   6.594   8.478   3.478 -1.3000  0.3634 -1.6942
  337MOL0     H46441   6.665   8.246   3.576 -0.0967 -0.2373  0.1914
  337MOL0     H46442   6.508   8.302   3.618  1.9139 -1.9564  1.4720
  337MOL0     H46443   6.405   8.168   3.427 -0.8432  1.3861  0.9289
  337MOL0     H46444   6.575   8.105   3.402  0.8102 -4.1722  1.3706
  337MOL0     H46445   6.572   8.009   3.632 -3.8362 -1.1417  5.7992
  337MOL0     H46446   6.407   8.071   3.649 -1.1473 -1.7522 -1.0104
  337MOL0     H46447   6.483   7.871   3.450 -1.8801  0.2621 -1.6774
  337MOL0     H46448   6.326   7.941   3.476  0.9489 -0.1248 -0.8728
  337MOL0     H46449   6.473   7.783   3.710  1.2297  3.0200 -0.8972
  337MOL0     H46450   6.317   7.841   3.721  0.4916 -2.0937  1.9549
  337MOL0     H46451   6.407   7.656   3.491  0.4273 -0.8363  0.4482
  337MOL0     H46452   6.237   7.699   3.560  0.7617  1.3868 -4.0019
  337MOL0     H46453   6.460   7.539   3.701 -0.0056  1.5096 -2.1468
  337MOL0     H46454   6.309   7.587   3.772  1.4515 -2.9998  0.7332
  337MOL0     H46455   6.494   7.311   3.619  0.0642 -3.3666 -0.3830
  337MOL0     H46456   6.346   7.073   3.469  1.5479  3.4936 -0.0028
  337MOL0     H46457   6.244   7.005   3.602 -0.1305 -1.1423 -2.6382
  337MOL0     H46458   6.542   7.053   3.631 -0.4376  0.8825  1.9842
  337MOL0     H46459   6.430   7.014   3.765  3.1619  2.9656  0.8681
  337MOL0     H46460   6.373   6.802   3.654 -0.3441 -0.0451 -2.2677
  337MOL0     H46461   6.445   6.851   3.513  0.6133  3.6698  0.9446
  337MOL0     H46462   6.560   6.732   3.761 -0.8149 -1.1354 -0.7377
  337MOL0     H46463   6.583   6.688   3.603 -3.6588  2.0424 -2.7174
  337MOL0     H46464   6.917   6.984   3.672 -0.8938  0.1790  0.1250
  337MOL0     H46465   7.087   7.131   3.746 -1.3760  2.1132 -0.4803
  337MOL0     H46466   7.142   7.076   3.905  0.7334  3.9476  2.0210
  337MOL0     H46467   7.051   7.238   3.871  1.3913  1.4097 -2.0176
  337MOL0     H46468   7.048   7.186   4.385 -0.9402 -0.4278 -2.2699
  337MOL0     H46469   7.037   7.334   4.566 -1.0466 -0.1851  1.3533
  337MOL0     H46470   6.684   7.451   4.727  2.3159  0.0436 -2.7273
  337MOL0     H46471   6.815   7.492   4.833  2.8827  0.0160 -1.6420
  337MOL0     H46472   6.678   7.690   4.635  0.7199 -2.7751 -0.5126
  337MOL0     H46473   6.653   7.678   4.809  2.2960  0.0060  0.4160
  337MOL0     H46474   6.901   7.725   4.852 -0.2897  0.8168 -0.5796
  337MOL0     H46475   6.794   7.853   4.797 -0.6374 -0.6563  3.0685
  337MOL0     H46476   6.868   7.829   4.570  2.0314  2.8950 -0.1005
  337MOL0     H46477   6.976   7.695   4.622  0.4241  0.6931 -0.2692
  337MOL0     H46478   7.120   7.870   4.736  0.2751  2.3399  0.0463
  337MOL0     H46479   7.113   7.881   4.564 -0.2228  1.4529  0.5301
  337MOL0     H46480   6.920   8.031   4.728  0.9934 -4.0992  1.6582
  337MOL0     H46481   6.973   8.077   4.568  1.2299 -0.4403  0.5020
  337MOL0     H46482   7.219   8.090   4.681  2.3870  1.5588  2.1333
  337MOL0     H46483   7.113   8.147   4.817  1.6065 -1.1428 -0.5568
  337MOL0     H46484   7.105   8.264   4.534 -3.6455  0.9251 -0.9343
  337MOL0     H46485   7.203   8.336   4.664 -2.0889  2.3854  0.0699
  337MOL0     H46486   6.636   7.422   4.514 -0.9649  1.1785 -2.2334
  337MOL0     H46487   6.622   7.289   4.310  0.4747  1.9891 -0.4376
  337MOL0     H46488   6.678   7.000   4.092  0.5410  0.0491  0.4345
  337MOL0     H46489   6.605   6.850   3.922  0.7419  0.0881 -0.2833
  337MOL0     H46490   6.828   8.307   3.145 -0.9776  0.3896  0.2465
  337MOL0     H46491   6.884   8.460   2.951 -0.6203 -1.9508 -0.0901
  337MOL0     H46492   6.729   8.862   2.725  0.3758 -1.5760  0.2546
  337MOL0     H46493   6.745   9.005   2.525 -0.6327  0.5326  1.5263
  337MOL0     H46494   6.799   9.057   2.301  1.7181 -0.2085 -4.9823
  337MOL0     H46495   6.851   9.192   2.412 -0.9639  2.0339 -2.1808
  337MOL0     H46496   6.875   9.240   2.138  0.9737  2.1209  0.9944
  337MOL0     H46497   7.005   9.116   2.158 -1.6012 -0.7405 -1.4907
  337MOL0     H46498   6.996   9.379   2.323  1.1371 -0.2122 -0.9866
  337MOL0     H46499   7.125   9.259   2.302  2.3724  2.2826 -0.0099
  337MOL0     H46500   7.019   9.458   2.091  1.2014  1.3299 -0.0130
  337MOL0     H46501   7.138   9.317   2.061  3.1319  0.2211  0.4771
  337MOL0     H46502   7.382   9.617   2.218 -0.0268 -0.5326  2.2782
  337MOL0     H46503   7.158   8.880   2.496 -1.0038  3.1698  0.2427
  337MOL0     H46504   7.156   8.614   2.716 -3.0055 -1.4720 -4.4328
  337MOL0     H46505   7.255   8.707   2.607  0.8929 -2.3450  1.4500
  337MOL0     H46506   7.236   8.760   2.773  0.6518  0.9779 -0.5513
  338MOL0     O46507   1.675   7.436   2.048  0.7482  0.5703 -0.3246
  338MOL0     C46508   1.697   7.554   2.006 -0.2735 -0.4293 -0.6655
  338MOL0     O46509   1.674   7.596   1.877  0.4679 -1.0140  0.4032
  338MOL0     C46510   1.587   7.521   1.803 -0.8342  0.7275 -0.4545
  338MOL0     C46511   1.455   7.565   1.774  0.5977  0.7909  0.3519
  338MOL0     C46512   1.373   7.481   1.699  0.5148 -0.6797  1.2122
  338MOL0     C46513   1.409   7.354   1.665 -0.3836  0.9859  0.3897
  338MOL0     O46514   1.329   7.288   1.580  0.8194  0.4561 -0.2439
  338MOL0     C46515   1.308   7.151   1.606  0.1366  1.4047  0.0875
  338MOL0     C46516   1.173   7.155   1.690  0.1419 -0.2910  0.0283
  338MOL0     C46517   1.056   7.131   1.600 -0.1162  0.3732  0.1390
  338MOL0     C46518   0.928   7.098   1.688 -0.4136 -0.2305  0.3625
  338MOL0     C46519   0.804   7.111   1.603 -0.1394 -1.7763  0.6551
  338MOL0     C46520   0.813   7.057   1.449 -0.1706  0.0512  0.1373
  338MOL0     C46521   0.701   7.126   1.361 -1.2436  0.7888  0.2411
  338MOL0     C46522   0.756   7.257   1.307 -0.7135  0.5172  0.8203
  338MOL0     N46523   0.660   7.320   1.219  0.6121 -0.3449 -0.7124
  338MOL0     C46524   0.625   7.294   1.090 -0.3465  0.1966  1.3382
  338MOL0     C46525   0.534   7.390   1.053  0.5628 -0.3160 -1.0715
  338MOL0     C46526   0.430   7.373   0.954 -0.3900  0.5083 -0.0590
  338MOL0     C46527   0.470   7.421   0.819 -0.7338 -1.3950 -0.1252
  338MOL0     C46528   0.478   7.571   0.813  0.3686 -0.2426 -1.7772
  338MOL0     C46529   0.430   7.618   0.682  0.3555  0.4465 -0.2251
  338MOL0     O46530   0.458   7.758   0.657  0.0762  0.8175  0.6317
  338MOL0     C46531   0.398   7.854   0.731 -1.1878  0.1550 -0.2933
  338MOL0     C46532   0.448   7.989   0.746 -0.7573  0.1995  0.1739
  338MOL0     C46533   0.393   8.083   0.827 -0.1829 -0.2918  0.1844
  338MOL0     C46534   0.455   8.225   0.836  0.3296  1.2345 -0.1677
  338MOL0     C46535   0.276   8.053   0.898 -0.1440  0.9871 -0.8322
  338MOL0     C46536   0.207   8.138   1.005 -0.3444 -0.0617  0.5190
  338MOL0     O46537   0.126   8.074   1.093  0.1700  0.2873 -0.0267
  338MOL0     C46538   0.099   8.127   1.212 -0.4549  0.0390 -0.0619
  338MOL0     C46539   0.174   8.236   1.281  0.3782 -0.0499  0.9548
  338MOL0     C46540   0.148   8.276   1.417  0.1833  0.0905  0.2956
  338MOL0     C46541   0.048   8.198   1.493 -0.5054 -0.8678  0.0441
  338MOL0     O46542   0.011   8.246   1.614 -0.3486 -0.2368 -0.2473
  338MOL0     C46543   0.017   8.167   1.726 -0.9383  0.1697 -0.2942
  338MOL0     C46544   0.019   8.258   1.850  0.5515  0.3799  0.7541
  338MOL0     C46545  -0.013   8.172   1.967  0.0819 -0.4705 -1.0138
  338MOL0     C46546  -0.011   8.259   2.092  1.1142  0.3639  0.6963
  338MOL0     C46547   0.007   8.180   2.230  0.0780  0.7277  0.4019
  338MOL0     C46548  -0.002   8.278   2.349 -0.5940 -0.2982 -0.4195
  338MOL0     C46549   0.023   8.210   2.480  0.9263  0.7670 -0.4765
  338MOL0     C46550  -0.110   8.142   2.531  0.4019 -0.5553  0.3336
  338MOL0    Cl46551  -0.211   8.263   2.616  0.0650 -0.0426 -0.2299
  338MOL0     C46552  -0.033   8.106   1.422 -0.3413 -1.0266  0.5302
  338MOL0     C46553  -0.006   8.075   1.285  0.3815 -0.0509  0.9927
  338MOL0     O46554   0.214   8.261   0.990  0.4423  0.5144  0.0278
  338MOL0     C46555   0.212   7.923   0.882 -0.6254 -0.4259 -0.1997
  338MOL0     C46556   0.276   7.825   0.803  0.3083  0.6715 -0.1666
  338MOL0     N46557   0.515   7.476   1.157  0.4450 -0.4683  0.1270
  338MOL0     N46558   0.583   7.426   1.255 -0.1092 -0.1127  1.0624
  338MOL0     C46559   1.539   7.305   1.696  0.2610  0.1717  0.1394
  338MOL0     C46560   1.627   7.395   1.757  0.3818 -0.6006 -0.0412
  338MOL0     C46561   1.737   7.664   2.104 -0.1530  0.4656 -1.2791
  338MOL0     C46562   1.673   7.790   2.088 -0.2164 -0.9153  0.7855
  338MOL0     C46563   1.700   7.898   2.174 -0.1060  0.4262 -1.1264
  338MOL0     C46564   1.774   7.887   2.292  0.1247 -0.0725 -0.3886
  338MOL0     O46565   1.803   7.992   2.375  0.7606  1.1763 -0.1944
  338MOL0     C46566   1.891   7.975   2.485  0.0065 -0.0269  1.3097
  338MOL0     C46567   1.863   8.080   2.591 -0.3612  0.4688  0.7000
  338MOL0     C46568   1.924   8.219   2.563  0.6337  0.0223  0.2570
  338MOL0     C46569   2.069   8.241   2.524 -0.7593  0.3657 -0.2109
  338MOL0     C46570   2.107   8.385   2.527  0.5733 -0.3751 -0.1055
  338MOL0     C46571   2.134   8.502   2.541  0.5803 -0.1766  0.4365
  338MOL0     C46572   1.837   7.760   2.317  0.3918  0.6982  0.1912
  338MOL0     C46573   1.835   7.656   2.212  0.1429  0.1130 -0.8056
  338MOL0     C46574   1.903   7.536   2.253  0.2461 -0.1946  0.1299
  338MOL0     H46575   1.419   7.657   1.817  3.0499  1.3096  1.4999
  338MOL0     H46576   1.278   7.512   1.655  1.3704  2.7101  1.4705
  338MOL0     H46577   1.387   7.108   1.669 -1.5204  2.5221  3.1633
  338MOL0     H46578   1.297   7.107   1.507  1.0834  1.3543 -0.0076
  338MOL0     H46579   1.177   7.085   1.774  4.8155  0.2634  0.5078
  338MOL0     H46580   1.148   7.255   1.727 -0.3866 -0.0455 -0.9493
  338MOL0     H46581   1.036   7.209   1.526 -0.4802  0.2551  0.1135
  338MOL0     H46582   1.087   7.043   1.543  3.6166  0.4893  1.7132
  338MOL0     H46583   0.933   6.993   1.721 -2.1917 -0.2575  0.6501
  338MOL0     H46584   0.929   7.166   1.774  2.3860  0.6033 -0.2261
  338MOL0     H46585   0.792   7.220   1.609  0.2888 -1.7322  0.7325
  338MOL0     H46586   0.718   7.072   1.658 -0.8619 -2.7151 -1.0614
  338MOL0     H46587   0.912   7.084   1.411 -1.1925  1.1354 -1.9514
  338MOL0     H46588   0.809   6.948   1.444  2.3287 -0.0899  0.2560
  338MOL0     H46589   0.614   7.144   1.424 -1.0141  1.9994  0.2235
  338MOL0     H46590   0.671   7.062   1.278 -0.3017  0.1711  0.3565
  338MOL0     H46591   0.764   7.320   1.396 -2.7619  1.1052  0.6434
  338MOL0     H46592   0.854   7.242   1.262 -1.8916  1.5579 -2.3276
  338MOL0     H46593   0.649   7.198   1.044 -2.2624  0.2264  0.1528
  338MOL0     H46594   0.351   7.443   0.982  0.3158  1.5579 -0.6326
  338MOL0     H46595   0.391   7.271   0.945 -2.3512  1.3448 -2.0416
  338MOL0     H46596   0.569   7.385   0.792  0.6318  1.5537  0.5771
  338MOL0     H46597   0.387   7.393   0.754 -1.4408  0.5390 -0.1045
  338MOL0     H46598   0.423   7.610   0.899  1.0290 -2.7705 -0.0871
  338MOL0     H46599   0.579   7.613   0.819 -0.4064  1.5395 -0.3023
  338MOL0     H46600   0.480   7.552   0.611  1.4770  0.5658  0.4332
  338MOL0     H46601   0.324   7.596   0.661  0.5092  0.2918 -0.8531
  338MOL0     H46602   0.544   8.016   0.704 -1.0244  0.2362 -0.4148
  338MOL0     H46603   0.488   8.244   0.939 -1.7359 -0.0163  0.8109
  338MOL0     H46604   0.378   8.291   0.795 -1.6581 -1.9529 -1.9194
  338MOL0     H46605   0.530   8.235   0.758 -0.4673 -1.2572 -1.3450
  338MOL0     H46606   0.250   8.286   1.223 -0.3652  0.8663  0.7437
  338MOL0     H46607   0.189   8.369   1.457 -0.1627  0.0777  0.6881
  338MOL0     H46608  -0.068   8.098   1.725 -1.6510  1.0387 -0.8998
  338MOL0     H46609   0.105   8.102   1.721 -3.9866 -4.4859  0.2654
  338MOL0     H46610   0.119   8.300   1.865  0.1424  0.8344  2.4676
  338MOL0     H46611  -0.052   8.341   1.840  0.0017 -0.0682  0.9097
  338MOL0     H46612   0.060   8.091   1.969 -2.9858 -3.4330  0.4858
  338MOL0     H46613  -0.109   8.120   1.960  0.2642 -0.7612 -1.4180
  338MOL0     H46614  -0.104   8.316   2.102 -0.0999 -1.2341 -0.7841
  338MOL0     H46615   0.068   8.333   2.077 -1.4630  3.3397  0.7283
  338MOL0     H46616  -0.077   8.110   2.234  1.6985 -1.2589  4.2099
  338MOL0     H46617   0.101   8.125   2.228  1.8341  3.4175  2.1758
  338MOL0     H46618  -0.097   8.331   2.347  0.3049  1.4785  0.6820
  338MOL0     H46619   0.069   8.362   2.345 -0.2990 -0.4259  1.2291
  338MOL0     H46620   0.048   8.284   2.557 -0.0758 -1.8320  2.5991
  338MOL0     H46621   0.097   8.129   2.483 -0.6100 -0.6604  0.9092
  338MOL0     H46622  -0.065   8.067   2.598  1.4212  0.0428  0.3433
  338MOL0     H46623  -0.165   8.093   2.451  0.2496  0.3256 -0.1155
  338MOL0     H46624  -0.100   8.046   1.482  1.2809 -3.4465  0.0400
  338MOL0     H46625  -0.049   7.990   1.233 -2.2506  1.5183  0.4020
  338MOL0     H46626   0.114   7.897   0.920 -1.7829 -0.2765 -2.8498
  338MOL0     H46627   0.238   7.725   0.786 -0.6891  1.4670 -3.2690
  338MOL0     H46628   1.572   7.205   1.671  2.5631  0.6144  1.1146
  338MOL0     H46629   1.725   7.348   1.753  0.9469  0.5347 -0.1099
  338MOL0     H46630   1.611   7.796   1.999  1.9979 -1.9868 -0.9403
  338MOL0     H46631   1.655   7.996   2.164 -0.9711  0.7101  3.3293
  338MOL0     H46632   1.884   7.877   2.534 -1.8710 -0.4230  0.3649
  338MOL0     H46633   1.994   7.985   2.451 -0.3240 -3.6988 -1.4870
  338MOL0     H46634   1.909   8.049   2.685 -0.5463 -0.6571  0.4412
  338MOL0     H46635   1.753   8.083   2.593 -0.4105 -0.2782 -0.1722
  338MOL0     H46636   1.856   8.268   2.493  0.6615  3.5139  2.4543
  338MOL0     H46637   1.920   8.284   2.651  1.4213  0.4001  0.0176
  338MOL0     H46638   2.105   8.207   2.426  1.3529 -0.3460  0.7540
  338MOL0     H46639   2.126   8.187   2.600 -2.2165 -0.4865  0.3186
  338MOL0     H46640   2.152   8.607   2.555  0.6547  0.0022 -0.8499
  338MOL0     H46641   1.912   7.731   2.390 -0.5959 -0.8964  0.6103
  338MOL0     H46642   1.999   7.557   2.301 -0.2261 -0.7011  1.3250
  338MOL0     H46643   1.837   7.497   2.331  0.5593  0.9386  0.9935
  338MOL0     H46644   1.910   7.472   2.164 -2.0233 -1.4056  0.7649
  339MOL0     O46645   1.921   9.010   6.251 -0.1448 -0.6353  0.6886
  339MOL0     C46646   1.850   9.067   6.169  1.2149 -0.3764 -1.2006
  339MOL0     O46647   1.731   9.131   6.192  0.5615 -0.2314 -0.0816
  339MOL0     C46648   1.699   9.180   6.314 -0.3471  0.4750  0.1756
  339MOL0     C46649   1.571   9.226   6.334  1.3458 -0.7414 -0.6986
  339MOL0     C46650   1.521   9.261   6.462  0.5698  0.6594 -0.4658
  339MOL0     C46651   1.597   9.276   6.573 -0.4116  0.6302  0.4802
  339MOL0     O46652   1.555   9.311   6.695  0.0180  0.6648  0.1952
  339MOL0     C46653   1.500   9.439   6.703 -0.3940 -0.1297 -0.1241
  339MOL0     C46654   1.588   9.517   6.794 -1.1904 -0.0213 -1.0256
  339MOL0     C46655   1.723   9.565   6.726 -0.0404 -0.2209 -0.5437
  339MOL0     C46656   1.790   9.648   6.838  0.0060 -0.4018  0.4703
  339MOL0     C46657   1.920   9.718   6.789  0.2829 -0.4048 -1.0797
  339MOL0     C46658   1.902   9.841   6.694 -0.7531  0.5094  0.3707
  339MOL0     C46659   2.033   9.920   6.659 -0.1178 -0.3370  0.5974
  339MOL0     C46660   2.092   9.992   6.780 -0.0481 -1.0544  0.7924
  339MOL0     N46661   2.208  10.070   6.740  0.3656  0.5373  0.3146
  339MOL0     C46662   2.319  10.004   6.686  0.2853 -0.4711 -0.1301
  339MOL0     C46663   2.385  10.093   6.620 -0.8320 -0.2382 -0.2179
  339MOL0     C46664   2.518  10.070   6.546 -0.3247 -0.7932 -0.6501
  339MOL0     C46665   2.620   9.987   6.635 -0.2711 -0.2030 -0.8616
  339MOL0     C46666   2.768   9.972   6.602 -0.2034 -0.5532  0.1444
  339MOL0     C46667   2.797   9.954   6.456  0.0459  0.1919  0.0725
  339MOL0     O46668   2.936   9.975   6.434 -0.0889  0.3750  0.3966
  339MOL0     C46669   3.016   9.867   6.384 -0.2790  0.1097 -0.3148
  339MOL0     C46670   3.124   9.890   6.298 -0.3099  0.4632 -0.5389
  339MOL0     C46671   3.202   9.779   6.252  0.2565 -0.3693  0.7835
  339MOL0     C46672   3.321   9.810   6.163 -0.3902 -0.2055  0.3282
  339MOL0     C46673   3.171   9.643   6.281  0.5895 -0.3349  0.2393
  339MOL0     C46674   3.245   9.530   6.228 -0.2580 -0.4644 -0.0550
  339MOL0     O46675   3.169   9.421   6.194 -0.1159  0.5560 -0.0541
  339MOL0     C46676   3.214   9.293   6.150 -0.3875  0.9238  0.1948
  339MOL0     C46677   3.114   9.214   6.090 -0.3897 -0.1717 -1.5600
  339MOL0     C46678   3.152   9.090   6.032  0.5848 -0.4059 -0.5809
  339MOL0     C46679   3.286   9.041   6.043  0.2782  0.4622  0.8944
  339MOL0     O46680   3.315   8.910   5.990  0.0882 -0.0373 -0.6135
  339MOL0     C46681   3.459   8.870   6.016  0.2211 -0.0199  0.4530
  339MOL0     C46682   3.502   8.749   5.929 -0.5057 -0.3878 -0.9956
  339MOL0     C46683   3.507   8.798   5.785  1.2180  0.2947  0.6637
  339MOL0     C46684   3.525   8.681   5.688 -0.0725  0.6619  1.0975
  339MOL0     C46685   3.566   8.733   5.547  0.8152 -0.1337 -0.8755
  339MOL0     C46686   3.448   8.812   5.497  0.3934  0.4810  0.0076
  339MOL0     C46687   3.488   8.849   5.353 -0.6275  0.1669  0.1842
  339MOL0     C46688   3.372   8.900   5.286 -0.2609 -0.1384  0.5463
  339MOL0    Cl46689   3.392   8.921   5.114 -0.0492 -0.2245 -0.0458
  339MOL0     C46690   3.375   9.115   6.121  0.0021  0.3805 -0.3663
  339MOL0     C46691   3.336   9.237   6.172  0.6248 -0.5263 -0.0279
  339MOL0     O46692   3.365   9.540   6.209  0.5996 -0.0296 -0.2471
  339MOL0     C46693   3.057   9.627   6.361  0.2039 -0.0305 -0.1196
  339MOL0     C46694   2.984   9.736   6.408 -0.5706 -0.0866 -0.1811
  339MOL0     N46695   2.316  10.212   6.620  0.8897 -1.1089  0.3327
  339MOL0     N46696   2.215  10.197   6.703  0.1228  0.7227 -0.4185
  339MOL0     C46697   1.732   9.238   6.553 -0.8194  0.8258  0.3526
  339MOL0     C46698   1.780   9.191   6.434 -0.7124 -0.3724  0.3258
  339MOL0     C46699   1.880   9.061   6.017 -1.1139 -0.5419 -0.3021
  339MOL0     C46700   1.770   9.061   5.934 -0.2856 -0.3296 -0.1808
  339MOL0     C46701   1.787   9.037   5.803  0.7466 -0.7325  1.0399
  339MOL0     C46702   1.906   9.031   5.732  0.2789  0.0972 -0.8826
  339MOL0     O46703   1.896   9.009   5.591  0.7604 -0.0449 -0.2387
  339MOL0     C46704   1.997   9.075   5.512  0.2289 -0.2009  0.3241
  339MOL0     C46705   2.105   8.966   5.476 -0.2797  0.8348 -0.1093
  339MOL0     C46706   2.232   9.033   5.402  0.5038  0.3228  0.5901
  339MOL0     C46707   2.326   8.921   5.358  0.0057 -0.2376  0.4178
  339MOL0     C46708   2.463   8.970   5.356 -0.0727  0.3193  0.3644
  339MOL0     C46709   2.576   9.012   5.335  0.4680  0.0671 -0.2781
  339MOL0     C46710   2.013   9.031   5.813 -0.5297 -0.1870  0.0810
  339MOL0     C46711   2.011   9.053   5.954  1.0604 -0.0187  0.1461
  339MOL0     C46712   2.144   9.070   6.010  0.1232  0.1950 -0.1670
  339MOL0     H46713   1.493   9.229   6.258 -2.2423  0.5088  2.6817
  339MOL0     H46714   1.413   9.265   6.475  0.7086  0.5813  0.8910
  339MOL0     H46715   1.394   9.434   6.729 -1.3222  1.2810 -3.2533
  339MOL0     H46716   1.507   9.489   6.606 -0.5417 -1.3302 -0.7610
  339MOL0     H46717   1.532   9.607   6.822 -0.1726  0.2162  0.3117
  339MOL0     H46718   1.615   9.459   6.882  0.9999  2.1390 -0.1699
  339MOL0     H46719   1.775   9.476   6.688 -2.0000 -0.7631 -2.1298
  339MOL0     H46720   1.709   9.627   6.637 -1.0474 -2.0372 -1.7071
  339MOL0     H46721   1.728   9.725   6.885  1.0102 -0.5851  2.1514
  339MOL0     H46722   1.825   9.577   6.913  2.0545 -2.0226 -1.8658
  339MOL0     H46723   1.982   9.645   6.736  0.0111 -0.0721 -1.8688
  339MOL0     H46724   1.969   9.745   6.883 -0.0227  2.8771 -1.7559
  339MOL0     H46725   1.875   9.800   6.597  3.2029  3.6094 -2.3867
  339MOL0     H46726   1.841   9.925   6.729  0.7966  3.6544 -3.6010
  339MOL0     H46727   2.021   9.987   6.574  0.0008 -2.4290 -1.1393
  339MOL0     H46728   2.108   9.841   6.644 -1.7760 -2.3950  2.3851
  339MOL0     H46729   2.016  10.064   6.814 -0.3829  1.1009 -3.7843
  339MOL0     H46730   2.112   9.920   6.860 -2.2449  1.6084  4.0517
  339MOL0     H46731   2.345   9.903   6.716 -2.3643 -1.0580  0.5199
  339MOL0     H46732   2.562  10.168   6.523 -1.3770 -0.9598 -3.7381
  339MOL0     H46733   2.513  10.020   6.450 -1.9914 -0.2619 -0.8618
  339MOL0     H46734   2.595  10.022   6.736 -0.6043 -0.1590 -0.9594
  339MOL0     H46735   2.590   9.883   6.621  2.2530 -0.8611 -1.9334
  339MOL0     H46736   2.818  10.066   6.628  1.3262 -2.0585  3.1915
  339MOL0     H46737   2.809   9.894   6.666 -1.4581 -1.5215 -0.1978
  339MOL0     H46738   2.752   9.857   6.433 -0.2796  0.6594 -1.3741
  339MOL0     H46739   2.735  10.031   6.408  0.6088 -0.3053 -1.5146
  339MOL0     H46740   3.156   9.993   6.283  1.1188  0.2153  0.6098
  339MOL0     H46741   3.412   9.776   6.212 -0.1538 -2.9373 -1.7847
  339MOL0     H46742   3.333   9.915   6.135  0.9504 -0.7760 -1.3952
  339MOL0     H46743   3.311   9.757   6.068  0.0753  0.5899 -0.1786
  339MOL0     H46744   3.013   9.251   6.083 -0.3059  0.6859  0.8709
  339MOL0     H46745   3.081   9.027   5.980 -0.5562  1.4945 -1.3943
  339MOL0     H46746   3.528   8.952   5.993  1.0395 -1.4397 -2.6359
  339MOL0     H46747   3.478   8.843   6.120  0.4207  0.4695  0.5467
  339MOL0     H46748   3.599   8.705   5.957  0.4202  0.9571 -1.9355
  339MOL0     H46749   3.428   8.676   5.961 -1.6555  1.5770  1.0845
  339MOL0     H46750   3.579   8.878   5.765 -1.5086  2.5275 -0.9963
  339MOL0     H46751   3.416   8.854   5.760  0.6338 -1.1376 -0.6081
  339MOL0     H46752   3.440   8.612   5.680 -0.5435  1.3835 -0.9247
  339MOL0     H46753   3.606   8.615   5.721  0.0469  0.2032 -0.0523
  339MOL0     H46754   3.659   8.790   5.546  1.6010 -1.3164 -3.1396
  339MOL0     H46755   3.588   8.648   5.480 -0.4332 -1.3709  0.2213
  339MOL0     H46756   3.424   8.898   5.560 -4.4930  0.5946 -1.5528
  339MOL0     H46757   3.354   8.757   5.495  0.0103  0.9981  2.0899
  339MOL0     H46758   3.519   8.757   5.303 -2.1167 -0.8975  1.1588
  339MOL0     H46759   3.561   8.931   5.354 -1.8643  1.3967 -1.9505
  339MOL0     H46760   3.354   8.997   5.333 -1.0072 -0.9412  1.9437
  339MOL0     H46761   3.281   8.844   5.307 -0.7827  0.5088  0.0911
  339MOL0     H46762   3.478   9.084   6.136  0.0817 -0.8740 -3.0362
  339MOL0     H46763   3.417   9.293   6.218 -0.5698  0.7534  0.6089
  339MOL0     H46764   3.041   9.523   6.384  2.3917 -0.5174 -0.5689
  339MOL0     H46765   2.908   9.703   6.479  0.8912  0.5474  1.7505
  339MOL0     H46766   1.798   9.254   6.638 -0.4990  0.7442  0.1214
  339MOL0     H46767   1.882   9.154   6.425 -0.9778 -2.2658  3.5006
  339MOL0     H46768   1.670   9.072   5.973 -0.0792  0.7695  0.0545
  339MOL0     H46769   1.697   9.039   5.742  2.2779  3.3838 -1.4951
  339MOL0     H46770   1.948   9.114   5.422 -1.2124 -2.3541  0.0877
  339MOL0     H46771   2.041   9.164   5.558  2.7499  0.6826 -3.3222
  339MOL0     H46772   2.057   8.900   5.403 -1.9633  3.9936 -2.0574
  339MOL0     H46773   2.137   8.913   5.566  3.2572  0.8949 -1.1853
  339MOL0     H46774   2.190   9.096   5.323  1.7957  1.1170  0.5137
  339MOL0     H46775   2.279   9.097   5.477  0.6260  3.0047 -1.6155
  339MOL0     H46776   2.297   8.884   5.259  1.9245  2.9516 -1.5220
  339MOL0     H46777   2.315   8.834   5.423 -3.0772 -0.7104 -0.5678
  339MOL0     H46778   2.675   9.051   5.341  0.1707  0.6044  3.2534
  339MOL0     H46779   2.109   9.027   5.763  0.0179  0.6693  1.0323
  339MOL0     H46780   2.165   9.176   5.989 -0.0549  1.0911  3.4384
  339MOL0     H46781   2.132   9.056   6.118  0.0101  0.4286 -0.1471
  339MOL0     H46782   2.211   8.993   5.970 -0.3112 -1.0688  1.4519
  340MOL0     O46783   7.184   1.121   6.281  1.0230 -0.2609 -0.5178
  340MOL0     C46784   7.086   1.148   6.344  1.5290  0.5180  0.2469
  340MOL0     O46785   7.005   1.262   6.323  0.3701  0.2600  0.1039
  340MOL0     C46786   7.030   1.334   6.214 -0.0070 -0.4425  0.1026
  340MOL0     C46787   7.031   1.471   6.234  0.0580 -0.4744 -0.7472
  340MOL0     C46788   7.044   1.564   6.130  0.5116  0.1829 -0.3265
  340MOL0     C46789   7.051   1.513   5.996  0.5417  1.7233 -0.5200
  340MOL0     O46790   7.049   1.602   5.894  0.6973 -0.1861  0.2769
  340MOL0     C46791   7.106   1.558   5.772  0.5366 -0.9558 -0.5064
  340MOL0     C46792   7.148   1.687   5.685  0.4227 -0.2153  0.1991
  340MOL0     C46793   7.175   1.658   5.533  0.1825 -0.0820 -0.9282
  340MOL0     C46794   7.161   1.799   5.455 -0.1779  0.5691 -0.0643
  340MOL0     C46795   7.186   1.780   5.303  0.7513 -0.3399 -0.5165
  340MOL0     C46796   7.185   1.906   5.214 -0.9675 -0.1200 -0.3686
  340MOL0     C46797   7.210   1.865   5.072 -0.1285  0.5644  0.2978
  340MOL0     C46798   7.232   1.989   4.972  1.1197  0.4890 -0.3530
  340MOL0     N46799   7.363   2.031   4.931  0.2480  0.1425  0.0400
  340MOL0     C46800   7.392   2.159   4.891 -0.2125 -0.1811 -0.4655
  340MOL0     C46801   7.503   2.152   4.822 -0.2125  0.1184  0.5292
  340MOL0     C46802   7.566   2.270   4.759  0.3294  0.4246  1.4675
  340MOL0     C46803   7.608   2.219   4.621 -0.9064  0.0153  0.7831
  340MOL0     C46804   7.665   2.333   4.528 -0.5673  0.4118 -0.9221
  340MOL0     C46805   7.751   2.268   4.431 -0.8649 -0.5069 -0.4319
  340MOL0     O46806   7.782   2.361   4.328  0.7240 -1.3260 -0.0754
  340MOL0     C46807   7.852   2.317   4.212 -0.3688  0.8082 -0.7803
  340MOL0     C46808   7.858   2.401   4.097  0.6425 -0.6527  0.6262
  340MOL0     C46809   7.936   2.379   3.982  0.3092 -0.0091 -0.1239
  340MOL0     C46810   7.915   2.476   3.871  0.2147 -0.0076 -0.6146
  340MOL0     C46811   8.008   2.260   3.974  0.3806 -0.0754 -0.1367
  340MOL0     C46812   8.106   2.212   3.871  0.9275 -0.3564 -0.1800
  340MOL0     O46813   8.185   2.105   3.898  0.2877  0.1630  0.7610
  340MOL0     C46814   8.284   2.087   3.795 -1.0865  0.4584 -0.0010
  340MOL0     C46815   8.278   1.970   3.721 -0.7556  0.1129  0.8374
  340MOL0     C46816   8.363   1.939   3.615 -0.0406  0.2918 -0.9188
  340MOL0     C46817   8.480   2.015   3.608 -1.0695 -0.5495 -0.1412
  340MOL0     O46818   8.580   1.967   3.515  0.5972 -0.1526 -0.7430
  340MOL0     C46819   8.687   2.058   3.479 -1.3316  0.1085  0.0905
  340MOL0     C46820   8.759   2.014   3.360  0.9147  0.2275 -0.1366
  340MOL0     C46821   8.673   1.994   3.233 -0.1877 -1.1612  0.0936
  340MOL0     C46822   8.614   2.113   3.169  0.1145  0.3253 -0.3334
  340MOL0     C46823   8.576   2.070   3.020 -0.2052  0.0129  0.1234
  340MOL0     C46824   8.495   2.189   2.964  0.2125 -1.1349  0.1816
  340MOL0     C46825   8.411   2.160   2.837  0.5521  0.8677  0.0308
  340MOL0     C46826   8.488   2.115   2.716  0.2214 -1.2825 -0.9859
  340MOL0    Cl46827   8.543   1.939   2.695  0.0293 -0.3076  0.3544
  340MOL0     C46828   8.499   2.128   3.697  0.2046  0.9293 -0.0333
  340MOL0     C46829   8.395   2.170   3.782 -0.9567 -0.5131  0.2464
  340MOL0     O46830   8.122   2.288   3.777 -0.3240 -0.3439 -0.6191
  340MOL0     C46831   8.018   2.183   4.096  1.0860  0.2313  1.2318
  340MOL0     C46832   7.946   2.214   4.213 -0.0659  0.3168 -0.1707
  340MOL0     N46833   7.560   2.025   4.837 -0.4301  0.0373 -0.1557
  340MOL0     N46834   7.465   1.951   4.898 -0.7034  0.2765 -0.1854
  340MOL0     C46835   7.042   1.367   5.983 -0.8491 -0.4884  0.1000
  340MOL0     C46836   7.027   1.282   6.090 -0.2015 -0.8186 -0.1317
  340MOL0     C46837   7.061   1.060   6.460 -0.8374 -0.5103  0.1406
  340MOL0     C46838   7.125   0.928   6.473  0.1782  0.3048  0.7993
  340MOL0     C46839   7.101   0.847   6.586 -0.5418  0.1694  0.7796
  340MOL0     C46840   7.016   0.896   6.684 -1.0241  0.9209  0.8417
  340MOL0     O46841   6.994   0.813   6.791 -0.4860 -0.3475  0.5486
  340MOL0     C46842   7.105   0.772   6.876 -0.8063  0.9015  0.7917
  340MOL0     C46843   7.069   0.652   6.969  0.0244 -0.7514  0.0083
  340MOL0     C46844   7.007   0.701   7.101 -0.1772 -0.8064 -0.7583
  340MOL0     C46845   6.921   0.596   7.180  0.1760  0.4060  0.4936
  340MOL0     C46846   6.995   0.479   7.241  0.5264 -0.6673 -0.9186
  340MOL0     C46847   7.059   0.385   7.279  0.7136 -0.0110 -0.2303
  340MOL0     C46848   6.964   1.023   6.678 -0.9550  0.2616  0.0078
  340MOL0     C46849   6.984   1.107   6.569  0.0732  0.8535 -0.9279
  340MOL0     C46850   6.898   1.238   6.572 -0.6045  0.7204  0.5303
  340MOL0     H46851   7.016   1.499   6.338 -0.2782 -3.0218 -0.0570
  340MOL0     H46852   7.063   1.668   6.153  1.1732 -0.7015  4.0728
  340MOL0     H46853   7.028   1.497   5.728  0.8847 -3.5784  2.2169
  340MOL0     H46854   7.195   1.494   5.783  0.9500 -0.2269  0.6508
  340MOL0     H46855   7.067   1.761   5.682  0.9749  0.3883  0.0518
  340MOL0     H46856   7.236   1.732   5.732  0.8080  1.4115 -1.9289
  340MOL0     H46857   7.272   1.610   5.518 -1.0501 -5.5945  4.7224
  340MOL0     H46858   7.100   1.585   5.502  1.7677 -1.2477 -2.1535
  340MOL0     H46859   7.058   1.832   5.471 -1.2549 -2.6784  0.4262
  340MOL0     H46860   7.233   1.871   5.495  2.1647 -2.0529  0.6705
  340MOL0     H46861   7.105   1.718   5.264  0.0881  1.7647 -2.7398
  340MOL0     H46862   7.283   1.732   5.285  2.4782  0.9291  3.9286
  340MOL0     H46863   7.095   1.968   5.221 -2.4094 -2.2602  1.0900
  340MOL0     H46864   7.271   1.964   5.250 -1.2756  0.7974 -1.0852
  340MOL0     H46865   7.117   1.809   5.055  0.3283 -0.8889  2.1681
  340MOL0     H46866   7.291   1.793   5.056 -1.5763 -0.7076 -1.9433
  340MOL0     H46867   7.173   1.976   4.881  1.4507  1.6817 -0.7449
  340MOL0     H46868   7.193   2.072   5.032 -0.4588 -0.8869  0.6230
  340MOL0     H46869   7.333   2.250   4.887  2.4038  1.5912 -2.2716
  340MOL0     H46870   7.651   2.307   4.817 -0.3117 -0.2091  2.8604
  340MOL0     H46871   7.494   2.351   4.745 -0.5579 -0.1286  2.6221
  340MOL0     H46872   7.693   2.153   4.641 -1.9924 -0.9162  2.5802
  340MOL0     H46873   7.529   2.176   4.559 -1.4884 -1.2125  2.3274
  340MOL0     H46874   7.577   2.385   4.488  0.0145  2.8496  0.7803
  340MOL0     H46875   7.727   2.404   4.584 -1.4917  1.0920 -0.7345
  340MOL0     H46876   7.838   2.222   4.479 -2.2527 -1.3105  1.4500
  340MOL0     H46877   7.690   2.185   4.395  0.5371 -1.3565 -0.8890
  340MOL0     H46878   7.804   2.494   4.099  1.7159  0.0209 -0.2454
  340MOL0     H46879   7.939   2.433   3.773  1.7294  0.6943 -0.5863
  340MOL0     H46880   7.984   2.559   3.890 -0.6528  0.4235  0.7406
  340MOL0     H46881   7.811   2.509   3.881  0.3319 -0.2440  1.9831
  340MOL0     H46882   8.191   1.909   3.743  0.1248 -1.9977 -1.1166
  340MOL0     H46883   8.348   1.844   3.564 -0.5581 -0.1373  0.0043
  340MOL0     H46884   8.651   2.157   3.450  1.8375  0.6066 -2.8046
  340MOL0     H46885   8.764   2.058   3.557  0.3169 -3.0563 -1.3129
  340MOL0     H46886   8.827   2.089   3.317  1.2280 -0.4763 -0.8970
  340MOL0     H46887   8.814   1.920   3.372  0.7043 -0.5459 -4.0168
  340MOL0     H46888   8.594   1.921   3.253 -1.0184 -0.5559 -0.8492
  340MOL0     H46889   8.749   1.949   3.168  0.9677  0.0462  0.5665
  340MOL0     H46890   8.691   2.191   3.169  0.1493  0.2910 -0.2113
  340MOL0     H46891   8.529   2.133   3.235  0.7837 -3.4738  1.9596
  340MOL0     H46892   8.659   2.041   2.955  0.9766 -1.4784  2.1660
  340MOL0     H46893   8.516   1.979   3.019 -3.5441  2.0483 -0.0919
  340MOL0     H46894   8.565   2.271   2.946 -4.1398  2.9940  0.2893
  340MOL0     H46895   8.434   2.226   3.047  2.0582  0.0745  1.0706
  340MOL0     H46896   8.365   2.258   2.826 -1.3837  0.3933  3.0079
  340MOL0     H46897   8.333   2.087   2.859  0.8649  0.1503 -1.1205
  340MOL0     H46898   8.564   2.190   2.692  1.1103 -1.4789  0.9971
  340MOL0     H46899   8.411   2.103   2.640 -1.0115 -2.4149  0.3844
  340MOL0     H46900   8.584   2.192   3.674 -0.6532  2.0068 -0.2845
  340MOL0     H46901   8.386   2.262   3.839 -1.2145 -0.9211  0.8804
  340MOL0     H46902   8.085   2.097   4.102  0.6663 -0.2484 -0.5406
  340MOL0     H46903   7.971   2.157   4.301  0.6328  0.6349 -0.1566
  340MOL0     H46904   7.047   1.329   5.881  0.6702  2.6944 -1.1578
  340MOL0     H46905   7.006   1.176   6.082 -1.0835 -0.5690 -1.3978
  340MOL0     H46906   7.190   0.887   6.396 -1.5427 -1.6707  0.3115
  340MOL0     H46907   7.144   0.748   6.596 -0.7776  0.0268  0.4328
  340MOL0     H46908   7.180   0.734   6.806 -1.9932 -1.6894  0.8130
  340MOL0     H46909   7.143   0.855   6.936  1.1124 -0.9545  2.3370
  340MOL0     H46910   7.167   0.609   6.993  1.2719 -1.2167 -4.8601
  340MOL0     H46911   7.011   0.582   6.910  0.4432 -1.5846  0.5657
  340MOL0     H46912   7.080   0.744   7.169 -0.2220  0.6777 -1.6000
  340MOL0     H46913   6.939   0.781   7.072  2.5050  1.4122 -1.2490
  340MOL0     H46914   6.839   0.554   7.121  1.4504  0.3458 -1.2955
  340MOL0     H46915   6.881   0.643   7.271  0.5309 -3.0371  2.6335
  340MOL0     H46916   7.118   0.306   7.322  3.1335  1.3438 -0.8350
  340MOL0     H46917   6.905   1.059   6.762  1.2502 -0.6587  2.0669
  340MOL0     H46918   6.812   1.221   6.506  1.1603 -0.0066 -1.7204
  340MOL0     H46919   6.852   1.260   6.669 -0.6206 -0.8281  0.9132
  340MOL0     H46920   6.955   1.327   6.547  0.4605  0.3753  1.6452
  341MOL0     O46921   8.151   7.236   9.466  0.7137  0.4247  0.5674
  341MOL0     C46922   8.069   7.232   9.556  0.3232  0.7432 -1.4918
  341MOL0     O46923   8.086   7.181   9.686  0.1760  0.1632  0.2374
  341MOL0     C46924   8.217   7.151   9.712 -0.7819  0.6960 -0.1919
  341MOL0     C46925   8.219   7.044   9.810 -0.8209  0.2209  0.0366
  341MOL0     C46926   8.343   7.013   9.871 -0.2007  0.2813  0.5497
  341MOL0     C46927   8.465   7.057   9.828 -0.2074 -0.0438 -0.0075
  341MOL0     O46928   8.577   6.997   9.885  0.1607  0.6644  0.2143
  341MOL0     C46929   8.712   7.028   9.837 -0.7281 -0.0674 -0.2993
  341MOL0     C46930   8.752   6.924   9.737  0.2208 -0.2621  0.6614
  341MOL0     C46931   8.875   6.959   9.663  0.0703  0.2730 -0.1937
  341MOL0     C46932   8.837   6.994   9.530  1.0004  0.2276  0.8575
  341MOL0     C46933   8.966   7.032   9.450  0.3878 -0.8968  0.1807
  341MOL0     C46934   8.933   7.085   9.307  0.0023 -0.5077  0.1850
  341MOL0     C46935   9.061   7.103   9.219  0.4610 -0.6216  0.5209
  341MOL0     C46936   9.034   7.180   9.085  0.0150  0.3937 -0.5001
  341MOL0     N46937   9.159   7.194   9.016  0.7382  0.0004 -1.1146
  341MOL0     C46938   9.230   7.095   8.947 -1.2112 -0.5677 -0.3822
  341MOL0     C46939   9.341   7.164   8.904  0.1884 -0.3945  0.9531
  341MOL0     C46940   9.456   7.113   8.820 -0.0918 -0.3567  0.3370
  341MOL0     C46941   9.579   7.089   8.915 -0.2254  0.3103  0.4062
  341MOL0     C46942   9.693   7.019   8.843 -0.2277  0.1001  1.1160
  341MOL0     C46943   9.822   7.014   8.941  1.0072 -0.3339 -0.1174
  341MOL0     O46944   9.920   6.924   8.883  0.4662  0.2535  0.2371
  341MOL0     C46945   9.964   6.820   8.967  0.0863  0.0622  0.7952
  341MOL0     C46946   9.929   6.681   8.945  0.0545 -0.7077 -0.3901
  341MOL0     C46947   9.970   6.578   9.032  0.4426  0.4960  0.4007
  341MOL0     C46948   9.921   6.434   9.004  0.9524 -0.0981 -0.3501
  341MOL0     C46949  10.059   6.611   9.139  0.0411 -0.9112  0.2971
  341MOL0     C46950  10.123   6.521   9.228  0.1525 -0.0467  0.2791
  341MOL0     O46951  10.138   6.550   9.361 -0.6045 -0.5054 -0.9086
  341MOL0     C46952  10.163   6.451   9.454  1.5784 -0.4620 -0.4395
  341MOL0     C46953  10.195   6.497   9.586 -0.6036  0.6138 -0.1410
  341MOL0     C46954  10.214   6.407   9.691  0.7934  0.6379  0.1687
  341MOL0     C46955  10.219   6.271   9.670 -0.1315 -0.0849 -0.0549
  341MOL0     O46956  10.241   6.171   9.767  0.6286 -0.7545  0.1722
  341MOL0     C46957  10.316   6.206   9.886  0.1213  0.6619 -0.0559
  341MOL0     C46958  10.429   6.102   9.903  0.0464 -0.4041 -0.7490
  341MOL0     C46959  10.375   5.977   9.974  0.5595 -0.0256  0.4286
  341MOL0     C46960  10.479   5.852   9.979  0.7959  0.5168  0.5913
  341MOL0     C46961  10.436   5.724  10.031  0.1457 -0.1790  0.1562
  341MOL0     C46962  10.538   5.612  10.016 -0.4840  0.0200 -0.4013
  341MOL0     C46963  10.674   5.643  10.072 -1.0408  0.8425  0.0367
  341MOL0     C46964  10.743   5.518  10.123 -0.5105  0.5132  0.8062
  341MOL0    Cl46965  10.895   5.561  10.181 -0.3150  0.1889 -0.0946
  341MOL0     C46966  10.204   6.221   9.535 -0.1496 -0.0493 -0.6223
  341MOL0     C46967  10.176   6.317   9.434  0.3826  1.1242  0.2962
  341MOL0     O46968  10.166   6.420   9.176 -0.0437  0.8541  0.6395
  341MOL0     C46969  10.074   6.752   9.174 -0.3899  0.3898  0.5752
  341MOL0     C46970  10.029   6.850   9.087  0.1994  0.9755 -0.3517
  341MOL0     N46971   9.337   7.296   8.942  0.8809  0.3273  0.9047
  341MOL0     N46972   9.225   7.313   9.008  0.0432 -0.6442 -0.1891
  341MOL0     C46973   8.467   7.166   9.740 -0.7141 -0.4243 -1.0240
  341MOL0     C46974   8.344   7.212   9.688 -0.5478 -0.1132  0.1041
  341MOL0     C46975   7.938   7.282   9.505 -0.4646  0.8310  0.0954
  341MOL0     C46976   7.903   7.273   9.367  0.2329 -0.7125 -0.3465
  341MOL0     C46977   7.779   7.322   9.322 -0.2489  0.0837  0.1531
  341MOL0     C46978   7.689   7.380   9.404  0.4964  0.2352 -0.1099
  341MOL0     O46979   7.571   7.427   9.345 -0.3334  0.0335  0.6650
  341MOL0     C46980   7.458   7.468   9.422 -0.4816 -0.0295 -0.2828
  341MOL0     C46981   7.333   7.489   9.335 -0.5713 -0.3717 -0.3500
  341MOL0     C46982   7.316   7.395   9.212 -0.1358  0.2430 -0.5042
  341MOL0     C46983   7.387   7.454   9.087  1.4156  0.0788 -0.3506
  341MOL0     C46984   7.311   7.569   9.049  1.2804 -0.4402  0.7951
  341MOL0     C46985   7.254   7.674   9.019 -0.1733  0.9629  0.6891
  341MOL0     C46986   7.723   7.393   9.540 -0.2442  0.0641  0.0371
  341MOL0     C46987   7.848   7.352   9.589  0.2772 -0.0447 -0.1466
  341MOL0     C46988   7.883   7.400   9.725  0.4426 -0.8013 -0.1332
  341MOL0     H46989   8.133   6.993   9.852 -0.7939  1.8756  2.2793
  341MOL0     H46990   8.346   6.933   9.945  0.1102  1.1968  1.5466
  341MOL0     H46991   8.785   7.020   9.918 -3.2439 -3.0072  1.9244
  341MOL0     H46992   8.708   7.132   9.803  0.4247  1.3342  3.3989
  341MOL0     H46993   8.751   6.828   9.791 -0.8722 -0.3923  0.4347
  341MOL0     H46994   8.667   6.922   9.669 -0.2318  2.7407  1.0021
  341MOL0     H46995   8.934   7.035   9.714 -1.3448 -0.7158  3.1820
  341MOL0     H46996   8.943   6.874   9.671 -0.8573 -0.3632  1.3170
  341MOL0     H46997   8.771   6.919   9.485 -1.3152  2.8829 -0.4887
  341MOL0     H46998   8.773   7.082   9.541  1.7564  0.8492  0.3899
  341MOL0     H46999   9.024   6.942   9.428  0.5207 -0.3109 -2.0426
  341MOL0     H47000   9.018   7.115   9.498 -0.8855  1.7458 -2.6676
  341MOL0     H47001   8.869   7.018   9.249 -0.8572 -1.3729  2.0483
  341MOL0     H47002   8.872   7.175   9.316  2.1562  0.8498  2.3673
  341MOL0     H47003   9.090   7.002   9.188 -2.8703 -0.5188 -3.7752
  341MOL0     H47004   9.140   7.147   9.281 -0.2465 -0.3255  1.2379
  341MOL0     H47005   8.960   7.132   9.021  1.0727 -0.7455 -0.9202
  341MOL0     H47006   9.004   7.282   9.111 -1.2332 -0.1740  0.3840
  341MOL0     H47007   9.210   6.989   8.940  0.6312 -0.9063 -1.0715
  341MOL0     H47008   9.474   7.200   8.755  1.2719  0.7704  2.0994
  341MOL0     H47009   9.428   7.026   8.760 -1.7765 -0.2155  0.8872
  341MOL0     H47010   9.610   7.185   8.957  3.1787 -0.4146 -0.1384
  341MOL0     H47011   9.549   7.031   9.003  1.6472  3.7180  3.5612
  341MOL0     H47012   9.675   6.913   8.825 -0.7648  0.1260  1.4441
  341MOL0     H47013   9.719   7.072   8.751 -1.5921  0.1811  0.7489
  341MOL0     H47014   9.873   7.110   8.939  0.7968 -0.1204 -4.0979
  341MOL0     H47015   9.798   6.996   9.046 -0.3371  1.7381  0.0099
  341MOL0     H47016   9.868   6.642   8.863  2.6773 -2.1678 -1.7861
  341MOL0     H47017   9.965   6.360   9.071 -0.0251 -0.7805 -0.4476
  341MOL0     H47018   9.965   6.414   8.905  3.4165  1.6509  0.2982
  341MOL0     H47019   9.816   6.410   9.018  2.2204 -5.6013  2.7563
  341MOL0     H47020  10.214   6.602   9.603  3.9957  0.4829 -2.9420
  341MOL0     H47021  10.232   6.440   9.793  3.1691 -3.0346  1.1408
  341MOL0     H47022  10.354   6.309   9.891  0.6085  0.4593  0.5343
  341MOL0     H47023  10.253   6.194   9.975  0.3173  1.0120  0.1340
  341MOL0     H47024  10.475   6.074   9.808  1.7897  4.4697 -1.6267
  341MOL0     H47025  10.511   6.150   9.957 -1.2076  5.2379 -3.0276
  341MOL0     H47026  10.280   5.943   9.932 -0.4200 -2.2622  4.0202
  341MOL0     H47027  10.352   6.002  10.078 -0.2488 -0.8084  0.4483
  341MOL0     H47028  10.572   5.878  10.031 -0.0817 -0.5457  2.8249
  341MOL0     H47029  10.495   5.822   9.875  1.5429  1.8663  0.2920
  341MOL0     H47030  10.405   5.728  10.136 -0.5095 -4.8225  0.3800
  341MOL0     H47031  10.342   5.696   9.983 -1.3064  0.7931  2.3004
  341MOL0     H47032  10.544   5.600   9.907  1.7095  0.5844 -0.3805
  341MOL0     H47033  10.488   5.525  10.061 -0.2591  0.9612  1.7488
  341MOL0     H47034  10.661   5.711  10.157 -2.5849  0.3259  0.2408
  341MOL0     H47035  10.737   5.696  10.000  2.8768 -1.7283  1.2404
  341MOL0     H47036  10.750   5.448  10.039 -1.0343  1.6598 -0.2270
  341MOL0     H47037  10.672   5.483  10.199  0.5810 -3.5548  0.1987
  341MOL0     H47038  10.185   6.118   9.507 -0.5025 -0.8809  2.4102
  341MOL0     H47039  10.163   6.260   9.342 -2.5730  0.3522  1.0824
  341MOL0     H47040  10.138   6.777   9.258  0.2653 -1.4813  0.6940
  341MOL0     H47041  10.046   6.954   9.113 -0.6223  2.0074 -3.4927
  341MOL0     H47042   8.560   7.213   9.711  0.6495 -2.5530 -0.3612
  341MOL0     H47043   8.361   7.287   9.612  1.0271 -2.0016 -1.5411
  341MOL0     H47044   7.978   7.250   9.293  1.9709  4.5385 -0.5634
  341MOL0     H47045   7.745   7.321   9.219  0.2066 -1.7766 -0.0136
  341MOL0     H47046   7.429   7.393   9.497  0.3652  2.5481  2.8521
  341MOL0     H47047   7.495   7.558   9.472  0.7558 -0.8269  0.3094
  341MOL0     H47048   7.331   7.595   9.307 -2.6583 -0.3429 -0.2337
  341MOL0     H47049   7.252   7.469   9.406  0.5617 -1.2273  0.7290
  341MOL0     H47050   7.350   7.294   9.235 -1.8782 -0.7765 -2.1652
  341MOL0     H47051   7.208   7.395   9.196 -0.5582  1.7748  1.7578
  341MOL0     H47052   7.380   7.383   9.004 -0.0146 -2.0734  1.4901
  341MOL0     H47053   7.489   7.487   9.107  1.5231  0.4039 -1.3619
  341MOL0     H47054   7.209   7.769   8.999  1.5967  1.6019 -0.5753
  341MOL0     H47055   7.653   7.437   9.611 -0.0392 -0.8115  0.8054
  341MOL0     H47056   7.823   7.484   9.761 -0.9238 -2.0528  0.6136
  341MOL0     H47057   7.871   7.335   9.812 -0.6362  1.0538  1.2004
  341MOL0     H47058   7.978   7.454   9.732 -0.8449  1.4376  2.0809
  342MOL0     O47059   9.020   0.045   7.150  0.0125  0.3996  0.0935
  342MOL0     C47060   8.956   0.112   7.235  0.1324 -0.3521 -0.3729
  342MOL0     O47061   8.938   0.073   7.365  0.0907  0.7815 -0.6587
  342MOL0     C47062   9.017  -0.032   7.413 -0.2180 -1.1981 -0.3187
  342MOL0     C47063   9.135   0.012   7.490  0.5377  0.4648  0.3277
  342MOL0     C47064   9.213  -0.090   7.549 -0.1651 -0.0277 -0.7876
  342MOL0     C47065   9.189  -0.230   7.525 -0.2784 -0.0716  0.2952
  342MOL0     O47066   9.270  -0.325   7.575  0.5575  0.1976 -0.2146
  342MOL0     C47067   9.357  -0.392   7.493  0.9022  0.3211 -0.3402
  342MOL0     C47068   9.471  -0.441   7.573 -0.6768 -0.4170  0.0223
  342MOL0     C47069   9.567  -0.340   7.632  0.1081 -0.1572 -0.3898
  342MOL0     C47070   9.697  -0.399   7.690  0.1131  0.6037 -0.7360
  342MOL0     C47071   9.786  -0.289   7.741 -0.6755 -0.3457 -0.5194
  342MOL0     C47072   9.915  -0.357   7.793  0.8589 -0.3173 -0.1103
  342MOL0     C47073  10.016  -0.242   7.826 -0.5033  0.4492 -0.2300
  342MOL0     C47074  10.150  -0.293   7.890 -0.4776 -0.7132  0.0523
  342MOL0     N47075  10.133  -0.383   8.003  0.4884  0.1454  0.5137
  342MOL0     C47076  10.059  -0.374   8.116 -0.0268 -0.3335  1.0231
  342MOL0     C47077  10.064  -0.499   8.168  0.1494 -0.0120 -1.1240
  342MOL0     C47078  10.011  -0.534   8.303 -0.0324  0.2776 -0.0338
  342MOL0     C47079   9.859  -0.578   8.290 -0.6281 -0.4487 -0.4914
  342MOL0     C47080   9.790  -0.606   8.423  0.3590 -0.5130  0.5875
  342MOL0     C47081   9.865  -0.690   8.520 -0.1857  0.4563  0.3010
  342MOL0     O47082   9.875  -0.823   8.466 -0.2732 -0.3740  0.4652
  342MOL0     C47083   9.861  -0.929   8.548  0.2396 -0.4632  0.3380
  342MOL0     C47084   9.962  -1.026   8.546  1.0186 -0.1349  0.2227
  342MOL0     C47085   9.952  -1.151   8.615  0.3929  0.7701 -0.3913
  342MOL0     C47086  10.066  -1.257   8.604 -0.0843 -0.0449  0.3870
  342MOL0     C47087   9.835  -1.167   8.697 -0.0415 -0.4846 -1.0693
  342MOL0     C47088   9.825  -1.282   8.792  0.9253 -1.1018 -0.0565
  342MOL0     O47089   9.707  -1.346   8.806  0.1620 -0.6939 -0.5396
  342MOL0     C47090   9.697  -1.429   8.916 -0.5613  0.0348  0.3844
  342MOL0     C47091   9.668  -1.565   8.893 -0.3758  0.4591  0.1286
  342MOL0     C47092   9.640  -1.655   8.997  0.5235 -0.4221 -0.1541
  342MOL0     C47093   9.649  -1.606   9.125  0.3247  0.6680 -0.1704
  342MOL0     O47094   9.616  -1.681   9.239  0.1475 -0.1370  0.9750
  342MOL0     C47095   9.517  -1.616   9.321  0.9172 -0.3211 -0.1246
  342MOL0     C47096   9.389  -1.713   9.338 -0.0403 -0.0719 -0.0290
  342MOL0     C47097   9.284  -1.670   9.428  0.1421 -0.6158 -0.1366
  342MOL0     C47098   9.210  -1.790   9.484  0.4198 -0.1022  0.1667
  342MOL0     C47099   9.066  -1.755   9.521 -0.1858 -0.9739 -0.0797
  342MOL0     C47100   9.061  -1.653   9.640 -0.0178  0.5627 -0.4419
  342MOL0     C47101   8.915  -1.623   9.688 -0.0191 -0.4520 -1.3457
  342MOL0     C47102   8.917  -1.526   9.810  0.1880  0.4886  0.1287
  342MOL0    Cl47103   8.963  -1.603   9.962 -0.1555 -0.2324  0.0146
  342MOL0     C47104   9.698  -1.481   9.145  0.2647 -0.7927 -0.6097
  342MOL0     C47105   9.726  -1.391   9.047 -0.5212  0.1516  0.5439
  342MOL0     O47106   9.923  -1.302   8.867 -0.8208 -0.3316 -0.4593
  342MOL0     C47107   9.728  -1.074   8.706  0.0337  0.1513  1.2514
  342MOL0     C47108   9.738  -0.957   8.626 -0.0822  0.4067 -0.6335
  342MOL0     N47109  10.132  -0.582   8.078  0.2299  0.1793  0.5872
  342MOL0     N47110  10.167  -0.507   7.979  0.5628 -0.0222  0.8831
  342MOL0     C47111   9.071  -0.269   7.455  0.3736 -0.1546 -1.1993
  342MOL0     C47112   8.987  -0.173   7.398  0.6093  0.4110 -0.3436
  342MOL0     C47113   8.872   0.238   7.202  0.7037 -0.0213 -0.2729
  342MOL0     C47114   8.815   0.308   7.311 -0.4314  0.2554  0.2425
  342MOL0     C47115   8.757   0.435   7.285  0.5384 -0.1051 -0.3343
  342MOL0     C47116   8.745   0.492   7.154 -0.0886 -0.2560 -0.4986
  342MOL0     O47117   8.703   0.623   7.118 -0.3352  0.3880  0.0543
  342MOL0     C47118   8.675   0.723   7.222 -1.4942 -0.5557 -0.9380
  342MOL0     C47119   8.699   0.870   7.177 -0.3080 -0.7188 -0.6157
  342MOL0     C47120   8.856   0.891   7.163  0.2590 -0.1692  0.4637
  342MOL0     C47121   8.869   1.035   7.119 -1.3242 -0.7881  0.0624
  342MOL0     C47122   8.834   1.062   6.978  0.4216  0.0770 -0.3909
  342MOL0     C47123   8.809   1.087   6.867 -0.5214  0.3683 -0.0885
  342MOL0     C47124   8.779   0.408   7.047  0.0950 -1.0166 -0.8890
  342MOL0     C47125   8.835   0.283   7.071 -1.5761  1.6578  0.5303
  342MOL0     C47126   8.881   0.210   6.935  0.2662  0.0532 -0.2379
  342MOL0     H47127   9.163   0.114   7.510  0.1711  0.6221  0.0522
  342MOL0     H47128   9.295  -0.057   7.612 -1.6297 -1.5549  2.1460
  342MOL0     H47129   9.408  -0.342   7.410  1.3466  2.0555  0.9086
  342MOL0     H47130   9.297  -0.476   7.457 -0.8316  2.2836 -2.2916
  342MOL0     H47131   9.417  -0.493   7.652 -1.2164 -0.2879 -0.2533
  342MOL0     H47132   9.519  -0.525   7.522 -2.3101 -0.8695 -0.8496
  342MOL0     H47133   9.589  -0.277   7.545 -1.3867 -1.5169 -1.8409
  342MOL0     H47134   9.518  -0.276   7.706  0.8957  0.9403 -0.7961
  342MOL0     H47135   9.675  -0.472   7.768  1.0690  1.2625  0.1683
  342MOL0     H47136   9.750  -0.451   7.610  1.0068 -1.5817  1.1663
  342MOL0     H47137   9.726  -0.239   7.817 -1.1987 -1.2191 -0.3440
  342MOL0     H47138   9.811  -0.217   7.662 -1.1930  1.3433  0.8026
  342MOL0     H47139   9.883  -0.395   7.891  0.9695  1.7754  0.7851
  342MOL0     H47140   9.966  -0.420   7.719  1.1095 -1.7011  1.1957
  342MOL0     H47141   9.966  -0.185   7.905  0.9520  0.9776  0.3360
  342MOL0     H47142  10.038  -0.189   7.733  0.1177  0.1269 -0.2724
  342MOL0     H47143  10.226  -0.338   7.824  0.7117 -3.0556  2.8206
  342MOL0     H47144  10.214  -0.210   7.922  3.8851 -2.3605 -3.2350
  342MOL0     H47145  10.006  -0.287   8.153 -5.7944 -3.2953  0.7733
  342MOL0     H47146  10.005  -0.440   8.359 -0.3393  0.6837 -0.7359
  342MOL0     H47147  10.079  -0.601   8.357 -0.5368 -0.4592 -0.2838
  342MOL0     H47148   9.807  -0.494   8.245 -2.1478 -1.5082 -0.7998
  342MOL0     H47149   9.849  -0.661   8.219  1.9352 -1.9919  0.7584
  342MOL0     H47150   9.777  -0.514   8.482 -1.0344 -1.4480  1.7948
  342MOL0     H47151   9.689  -0.640   8.401 -0.1347  0.8286  0.6996
  342MOL0     H47152   9.965  -0.649   8.536  1.2389 -1.4025 -2.8293
  342MOL0     H47153   9.811  -0.691   8.615  1.6811 -0.6766  1.4429
  342MOL0     H47154  10.046  -0.989   8.488  0.5037 -1.9014 -1.7670
  342MOL0     H47155  10.018  -1.356   8.598 -2.1362  0.7990  1.9273
  342MOL0     H47156  10.118  -1.252   8.699 -1.5700  0.9575  1.1789
  342MOL0     H47157  10.139  -1.240   8.524  0.2401 -1.9205  0.2279
  342MOL0     H47158   9.667  -1.591   8.787 -0.4140 -0.1672  0.2758
  342MOL0     H47159   9.594  -1.750   8.970  1.9785 -0.6577 -1.9782
  342MOL0     H47160   9.551  -1.586   9.421  2.8934  2.1917 -1.4435
  342MOL0     H47161   9.479  -1.518   9.291 -0.6470 -0.3457  1.5983
  342MOL0     H47162   9.343  -1.735   9.241 -2.1019  1.5065  0.5286
  342MOL0     H47163   9.427  -1.807   9.379 -0.1771 -0.1662 -0.1159
  342MOL0     H47164   9.214  -1.620   9.360  1.1978  2.2061  0.6797
  342MOL0     H47165   9.312  -1.596   9.504 -3.0638  1.0852 -0.4390
  342MOL0     H47166   9.251  -1.839   9.572 -2.6664 -0.9971  1.2324
  342MOL0     H47167   9.200  -1.864   9.403 -2.4419 -0.1689  0.4743
  342MOL0     H47168   9.017  -1.713   9.433  0.6944 -0.5515 -0.3764
  342MOL0     H47169   9.013  -1.847   9.549  0.5904 -1.8733 -1.5124
  342MOL0     H47170   9.100  -1.561   9.596  1.9109 -1.4521 -3.3522
  342MOL0     H47171   9.130  -1.687   9.718  0.8446  0.3132 -1.2800
  342MOL0     H47172   8.871  -1.718   9.718 -0.0292  0.4875  1.9956
  342MOL0     H47173   8.853  -1.585   9.606 -0.5465 -1.2242 -1.3177
  342MOL0     H47174   8.815  -1.489   9.828 -0.0004 -0.1038  0.2823
  342MOL0     H47175   8.979  -1.439   9.785  0.2510  0.3330 -0.2634
  342MOL0     H47176   9.697  -1.445   9.247 -2.3228 -3.3019  0.3607
  342MOL0     H47177   9.752  -1.288   9.071  1.1346  0.4921 -2.2164
  342MOL0     H47178   9.645  -1.088   8.774  2.6587 -1.9740  4.3701
  342MOL0     H47179   9.656  -0.889   8.644  1.6095  1.9038  2.1866
  342MOL0     H47180   9.051  -0.376   7.466 -0.9249  0.2458  0.8698
  342MOL0     H47181   8.900  -0.211   7.345  1.1526 -1.5893  0.1130
  342MOL0     H47182   8.827   0.274   7.413  0.3940 -1.3827 -0.3733
  342MOL0     H47183   8.734   0.501   7.367  0.2474  0.0235 -0.5202
  342MOL0     H47184   8.570   0.714   7.252 -1.1824 -0.4310  0.2425
  342MOL0     H47185   8.739   0.702   7.308 -3.8616 -1.4347  0.6959
  342MOL0     H47186   8.654   0.942   7.246  0.8777  2.2230 -2.6840
  342MOL0     H47187   8.646   0.889   7.083 -0.1170  2.8342 -0.1363
  342MOL0     H47188   8.901   0.880   7.262  0.4986  3.0696  0.8121
  342MOL0     H47189   8.904   0.819   7.096 -0.2647 -0.2547  0.1690
  342MOL0     H47190   8.975   1.056   7.135 -1.5773  4.3579 -2.6067
  342MOL0     H47191   8.813   1.098   7.189 -0.6487 -0.6867  0.5194
  342MOL0     H47192   8.816   1.116   6.764  1.4730  2.0626  0.4702
  342MOL0     H47193   8.748   0.436   6.947  3.3717 -0.4071 -1.8298
  342MOL0     H47194   8.990   0.222   6.924  0.6059  0.5898  2.8447
  342MOL0     H47195   8.861   0.104   6.919 -0.1684  0.0783  0.1288
  342MOL0     H47196   8.841   0.250   6.842 -0.5147 -0.2993 -0.0582
  343MOL0     O47197   4.736   8.605   2.760  0.4579  0.1488  0.2382
  343MOL0     C47198   4.679   8.710   2.738 -0.1534 -0.9041 -0.1943
  343MOL0     O47199   4.715   8.824   2.796  0.1766 -0.2909 -0.3391
  343MOL0     C47200   4.839   8.847   2.845 -1.1148 -0.5408  1.2916
  343MOL0     C47201   4.850   8.948   2.938 -0.2075  0.0412  0.1657
  343MOL0     C47202   4.965   8.964   3.012 -0.0740 -0.8591  0.2490
  343MOL0     C47203   5.082   8.909   2.965 -0.6132 -0.7018  0.1343
  343MOL0     O47204   5.200   8.951   3.018  0.2413 -0.0226 -0.4138
  343MOL0     C47205   5.325   8.909   2.961 -0.9509  0.0005 -0.3210
  343MOL0     C47206   5.450   8.964   3.037  0.1530 -0.3565 -0.0904
  343MOL0     C47207   5.580   8.954   2.944  0.3686  0.1462  0.6398
  343MOL0     C47208   5.606   8.803   2.927 -0.6792 -0.0798 -0.0263
  343MOL0     C47209   5.760   8.785   2.907  0.4350  0.1818 -0.7205
  343MOL0     C47210   5.798   8.635   2.873 -0.4710  0.7473  0.2922
  343MOL0     C47211   5.738   8.574   2.739 -0.8099 -0.0067 -0.8135
  343MOL0     C47212   5.805   8.637   2.612  0.0577 -0.7263  0.8309
  343MOL0     N47213   5.944   8.600   2.598  0.2261  0.5002  0.5932
  343MOL0     C47214   5.978   8.464   2.580  0.0028  0.0175  0.8656
  343MOL0     C47215   6.108   8.468   2.542 -0.2329  1.0307  0.1430
  343MOL0     C47216   6.207   8.355   2.526 -0.5835  0.1101  0.2802
  343MOL0     C47217   6.213   8.282   2.392 -0.4126  0.3434 -0.5134
  343MOL0     C47218   6.257   8.368   2.274 -0.3185  0.1037 -0.7472
  343MOL0     C47219   6.295   8.288   2.149  0.5104 -0.2506 -0.5668
  343MOL0     O47220   6.368   8.166   2.187  0.4161  0.9359 -0.8504
  343MOL0     C47221   6.354   8.052   2.117  0.6087  0.5724  0.2383
  343MOL0     C47222   6.309   8.049   1.986  0.0320 -0.4138 -0.8866
  343MOL0     C47223   6.296   7.921   1.927  0.1715  0.2482  0.3128
  343MOL0     C47224   6.260   7.929   1.785 -0.3905 -0.9658 -0.0527
  343MOL0     C47225   6.329   7.802   2.000  0.0054 -0.6701  0.1429
  343MOL0     C47226   6.325   7.659   1.940 -0.0274 -1.2145 -0.2388
  343MOL0     O47227   6.274   7.557   2.020  0.1321 -0.0576 -0.2181
  343MOL0     C47228   6.258   7.423   1.984 -0.3090  0.1784  0.5451
  343MOL0     C47229   6.298   7.352   1.861 -0.4032 -1.3010  0.6104
  343MOL0     C47230   6.275   7.218   1.857 -0.0322  0.3984  0.1372
  343MOL0     C47231   6.219   7.136   1.962  0.4318 -0.1590 -0.1754
  343MOL0     O47232   6.189   7.005   1.944 -0.3660 -0.0035 -0.3608
  343MOL0     C47233   6.102   6.986   1.830 -0.8898  0.2287  0.8417
  343MOL0     C47234   5.980   6.886   1.837 -0.1246 -0.2144  0.3897
  343MOL0     C47235   5.882   6.941   1.941  0.1154 -0.1395  1.0660
  343MOL0     C47236   5.811   7.061   1.883  0.9323 -0.6238  0.0898
  343MOL0     C47237   5.732   7.139   1.998 -0.0619  1.1610  0.1943
  343MOL0     C47238   5.705   7.281   1.936  0.1640  0.0634 -0.3481
  343MOL0     C47239   5.814   7.379   1.984  0.2607  0.6659 -0.1252
  343MOL0     C47240   5.780   7.517   1.964  0.1664 -1.1081 -0.8354
  343MOL0    Cl47241   5.714   7.553   1.797 -0.1556 -0.1444 -0.0038
  343MOL0     C47242   6.195   7.203   2.085  0.3446  0.0949 -0.8846
  343MOL0     C47243   6.213   7.341   2.088 -0.1848 -0.4334 -0.0993
  343MOL0     O47244   6.379   7.647   1.837  0.5240 -0.1344  0.3409
  343MOL0     C47245   6.362   7.819   2.138 -0.4911 -0.5200  0.1885
  343MOL0     C47246   6.375   7.946   2.191 -0.6385  0.0939 -0.6614
  343MOL0     N47247   6.148   8.597   2.531 -0.1236  1.1646 -0.3155
  343MOL0     N47248   6.053   8.676   2.567  0.3925 -0.0332 -0.2800
  343MOL0     C47249   5.074   8.807   2.869  0.2140 -0.1943  0.8905
  343MOL0     C47250   4.958   8.768   2.812  0.2686 -0.1941  0.7153
  343MOL0     C47251   4.557   8.720   2.656  0.0317  0.6221  0.6317
  343MOL0     C47252   4.516   8.610   2.579  0.3254 -0.3800  0.0032
  343MOL0     C47253   4.387   8.605   2.524  0.2747  0.7075 -0.6651
  343MOL0     C47254   4.302   8.713   2.518  0.1771 -0.1076 -0.0810
  343MOL0     O47255   4.171   8.693   2.466 -1.0811  0.6148 -0.7143
  343MOL0     C47256   4.067   8.778   2.514  0.8617 -0.0263  0.0558
  343MOL0     C47257   3.944   8.727   2.460  0.1421  0.7810  1.3470
  343MOL0     C47258   3.915   8.583   2.522  0.7394  0.0948  0.2970
  343MOL0     C47259   3.758   8.558   2.490 -0.2185 -0.7531  0.6047
  343MOL0     C47260   3.663   8.642   2.562 -0.1054  0.9474 -0.3958
  343MOL0     C47261   3.564   8.699   2.603 -0.6609  0.3269 -0.5143
  343MOL0     C47262   4.343   8.830   2.584  0.9401  0.6282  1.1189
  343MOL0     C47263   4.469   8.837   2.632 -0.0231  0.3091 -0.2472
  343MOL0     C47264   4.509   8.975   2.661  0.0117 -0.5953  0.4777
  343MOL0     H47265   4.762   9.008   2.956  0.1616  0.6222  0.0613
  343MOL0     H47266   4.960   9.036   3.093  2.8498  1.8472 -1.7129
  343MOL0     H47267   5.337   8.918   2.853 -1.4359 -1.4597 -0.5209
  343MOL0     H47268   5.323   8.800   2.962 -0.0986 -0.1747 -4.0178
  343MOL0     H47269   5.414   9.066   3.057 -1.5339 -1.1298  1.0703
  343MOL0     H47270   5.458   8.919   3.136  0.2989 -0.4722 -0.1546
  343MOL0     H47271   5.580   9.003   2.847  1.1729  0.0734  0.6005
  343MOL0     H47272   5.655   8.997   3.011  1.0121  1.4877 -0.8982
  343MOL0     H47273   5.571   8.738   3.006 -0.8261 -0.5991 -0.5123
  343MOL0     H47274   5.554   8.766   2.838  0.5772 -0.6773 -0.5329
  343MOL0     H47275   5.819   8.812   2.995  0.9928 -2.6684 -0.1028
  343MOL0     H47276   5.788   8.852   2.826 -0.9499  2.1658  0.3513
  343MOL0     H47277   5.908   8.634   2.873 -0.4629 -0.3698 -0.1540
  343MOL0     H47278   5.774   8.567   2.955  3.4198  0.0283  1.0742
  343MOL0     H47279   5.631   8.597   2.747 -1.1532 -1.8379  0.3917
  343MOL0     H47280   5.729   8.465   2.740  2.1774 -0.3730  2.1498
  343MOL0     H47281   5.762   8.595   2.521  1.8239 -0.4019 -0.1922
  343MOL0     H47282   5.802   8.746   2.606  0.2026 -0.7839 -0.5566
  343MOL0     H47283   5.922   8.374   2.601  0.4389  0.0840  2.4415
  343MOL0     H47284   6.169   8.278   2.594 -3.6919  1.2080 -0.0589
  343MOL0     H47285   6.306   8.393   2.554  1.6372 -2.8419 -2.6308
  343MOL0     H47286   6.258   8.184   2.410  0.5864  0.9034  0.1277
  343MOL0     H47287   6.113   8.255   2.356  0.3286 -0.5962 -1.9207
  343MOL0     H47288   6.169   8.426   2.244 -1.3585 -0.0069  1.8620
  343MOL0     H47289   6.332   8.440   2.308 -1.5625  1.8562 -1.5300
  343MOL0     H47290   6.206   8.255   2.094  1.1373 -0.1090 -1.6990
  343MOL0     H47291   6.365   8.347   2.089  1.4119 -0.2240  0.4675
  343MOL0     H47292   6.321   8.131   1.916  1.2063 -0.8849 -1.2649
  343MOL0     H47293   6.184   7.853   1.764 -0.2058 -1.4478  0.9433
  343MOL0     H47294   6.346   7.913   1.719  0.2646  3.8596 -0.7335
  343MOL0     H47295   6.213   8.024   1.757 -3.7887 -1.6385  2.7004
  343MOL0     H47296   6.325   7.407   1.771 -1.4055  0.1734  1.1689
  343MOL0     H47297   6.296   7.163   1.766 -0.8227  2.0874 -1.1034
  343MOL0     H47298   6.079   7.077   1.775  1.7817 -0.7293 -2.1717
  343MOL0     H47299   6.163   6.938   1.753  0.7101 -2.1598  3.4004
  343MOL0     H47300   5.928   6.871   1.742 -2.4827  0.6949  1.4623
  343MOL0     H47301   6.013   6.788   1.875  2.4610  0.4739  0.1128
  343MOL0     H47302   5.932   6.964   2.036 -0.7853 -0.1305  1.5522
  343MOL0     H47303   5.805   6.869   1.970 -0.7774  0.6429  0.6861
  343MOL0     H47304   5.743   7.030   1.803  2.5010 -2.3181 -0.6381
  343MOL0     H47305   5.882   7.130   1.836  2.1217 -2.7528 -1.3986
  343MOL0     H47306   5.635   7.097   2.028 -0.4703  1.9292 -0.0338
  343MOL0     H47307   5.795   7.144   2.087 -0.7403 -0.1543  0.7868
  343MOL0     H47308   5.605   7.316   1.961  0.6160  0.0726  1.5920
  343MOL0     H47309   5.696   7.273   1.827 -0.3434 -1.8037 -0.1981
  343MOL0     H47310   5.904   7.351   1.929 -0.6287 -0.0513 -1.2628
  343MOL0     H47311   5.836   7.368   2.090  0.7344  1.0461 -0.1803
  343MOL0     H47312   5.876   7.566   1.982 -0.2002 -0.5970 -0.2515
  343MOL0     H47313   5.712   7.551   2.042  1.1796  1.8871 -1.1242
  343MOL0     H47314   6.137   7.154   2.162 -0.0128 -0.7821 -1.6888
  343MOL0     H47315   6.168   7.401   2.166 -0.5960  4.6440 -3.7578
  343MOL0     H47316   6.383   7.731   2.197  0.3364  0.4528  1.4032
  343MOL0     H47317   6.398   7.954   2.297  2.9862  1.8603 -1.4216
  343MOL0     H47318   5.160   8.748   2.837 -0.5326 -1.0081  0.3515
  343MOL0     H47319   4.954   8.693   2.734 -0.3078  0.0167  0.5363
  343MOL0     H47320   4.567   8.514   2.567  0.8279 -0.0381 -0.7044
  343MOL0     H47321   4.346   8.509   2.494 -1.1201  0.7996  0.7935
  343MOL0     H47322   4.071   8.788   2.622  4.3577  0.6612 -0.0122
  343MOL0     H47323   4.080   8.876   2.467  0.4542 -0.4333 -0.9452
  343MOL0     H47324   3.945   8.721   2.351  0.0843 -0.2865  1.3927
  343MOL0     H47325   3.863   8.792   2.495  1.0556  3.6223 -1.3659
  343MOL0     H47326   3.966   8.496   2.480 -1.0627 -1.2188  0.7004
  343MOL0     H47327   3.924   8.569   2.630  0.1391 -2.6562  0.0591
  343MOL0     H47328   3.726   8.454   2.501 -3.5339  0.2737  2.0891
  343MOL0     H47329   3.747   8.564   2.382 -1.2966  1.4304  0.7848
  343MOL0     H47330   3.477   8.754   2.633  0.4317  2.1424 -0.5156
  343MOL0     H47331   4.266   8.905   2.599 -0.5321 -1.0115  2.2706
  343MOL0     H47332   4.426   9.040   2.635  0.5666 -1.0236 -2.9038
  343MOL0     H47333   4.540   8.988   2.765 -1.4434  2.0709  0.6366
  343MOL0     H47334   4.597   8.987   2.597  1.4840 -2.7225  1.9726
  344MOL0     O47335   8.312   3.775   7.269  1.1516  1.1376  0.1282
  344MOL0     C47336   8.279   3.826   7.378  0.5224 -0.4968  0.6059
  344MOL0     O47337   8.153   3.798   7.444 -0.0112 -0.2931  0.1009
  344MOL0     C47338   8.104   3.673   7.417 -0.1876 -0.1063  0.5600
  344MOL0     C47339   7.987   3.656   7.339 -0.2165  0.3689 -0.2023
  344MOL0     C47340   7.951   3.525   7.301 -0.0075  0.0571  0.2381
  344MOL0     C47341   8.000   3.416   7.366  1.1539  0.6689  0.4631
  344MOL0     O47342   7.946   3.296   7.319 -0.4237  0.1898 -0.4945
  344MOL0     C47343   8.016   3.180   7.372 -0.1172 -0.2147  0.0276
  344MOL0     C47344   7.963   3.051   7.312 -0.2369  0.8968 -0.1498
  344MOL0     C47345   8.007   3.038   7.160 -0.1688 -0.9478 -0.6114
  344MOL0     C47346   7.986   2.894   7.110  0.1732  0.2655 -0.2297
  344MOL0     C47347   8.020   2.879   6.962 -0.3149 -0.1111 -0.0411
  344MOL0     C47348   8.049   2.739   6.937  0.0875  0.0979  0.9738
  344MOL0     C47349   8.157   2.724   6.825  0.1686 -0.4424 -0.2015
  344MOL0     C47350   8.086   2.777   6.690 -0.7931 -0.7300  0.4761
  344MOL0     N47351   7.978   2.693   6.632  0.4055  0.1457 -0.0549
  344MOL0     C47352   7.845   2.702   6.655 -0.1668 -0.7608 -0.3062
  344MOL0     C47353   7.793   2.616   6.571 -0.2520  0.1859 -0.9721
  344MOL0     C47354   7.643   2.597   6.578 -0.7205 -0.6620 -0.4182
  344MOL0     C47355   7.618   2.443   6.617 -0.0222 -0.0171 -0.4722
  344MOL0     C47356   7.468   2.422   6.641  0.0983  0.1383  0.0564
  344MOL0     C47357   7.449   2.298   6.724  0.5614  1.0490 -0.4374
  344MOL0     O47358   7.513   2.310   6.851  0.5405 -0.6811 -0.8245
  344MOL0     C47359   7.549   2.200   6.928  0.0790  0.2900  0.2019
  344MOL0     C47360   7.484   2.071   6.916 -0.7796 -0.0315 -0.2519
  344MOL0     C47361   7.510   1.967   7.005  0.4976 -0.0656 -0.1597
  344MOL0     C47362   7.419   1.847   6.994 -0.1685 -0.2145 -0.2396
  344MOL0     C47363   7.610   1.990   7.105  0.7026  0.1038 -0.7649
  344MOL0     C47364   7.646   1.904   7.220  0.1092 -0.5001  0.5985
  344MOL0     O47365   7.651   1.773   7.201 -0.0174 -0.1075  0.1533
  344MOL0     C47366   7.691   1.704   7.314  0.1936  1.0510  1.0603
  344MOL0     C47367   7.814   1.718   7.373 -1.3414  0.5672 -0.8650
  344MOL0     C47368   7.849   1.636   7.482 -0.5068 -0.2803  1.1512
  344MOL0     C47369   7.763   1.532   7.522  0.3139 -0.3722  0.6953
  344MOL0     O47370   7.810   1.442   7.607  0.7663  0.3369  0.4754
  344MOL0     C47371   7.728   1.386   7.709  0.5933 -0.5718 -0.5285
  344MOL0     C47372   7.674   1.496   7.806 -0.5170 -0.0248  0.2481
  344MOL0     C47373   7.771   1.557   7.901 -0.6152 -0.5048 -0.2627
  344MOL0     C47374   7.865   1.463   7.981  0.6606  0.5676 -0.6427
  344MOL0     C47375   7.962   1.530   8.085 -0.5227 -0.2525 -0.7982
  344MOL0     C47376   7.875   1.592   8.198  0.1478  0.1569 -0.3579
  344MOL0     C47377   7.950   1.626   8.328  0.6281  0.4012  0.0455
  344MOL0     C47378   7.887   1.711   8.433  0.4210  0.3253 -0.6896
  344MOL0    Cl47379   7.991   1.726   8.571 -0.2506 -0.7718  0.2678
  344MOL0     C47380   7.656   1.504   7.438 -0.2727  0.1108  0.4345
  344MOL0     C47381   7.615   1.588   7.334  0.6307  1.0959 -0.2182
  344MOL0     O47382   7.654   1.959   7.330 -0.0460 -0.2566  0.0980
  344MOL0     C47383   7.671   2.120   7.114  0.7049  0.2632  0.2893
  344MOL0     C47384   7.639   2.220   7.026 -0.4726  0.6417  0.0004
  344MOL0     N47385   7.886   2.547   6.494  0.2844 -0.5085  0.6413
  344MOL0     N47386   7.999   2.599   6.542 -0.0913 -0.7840  0.1729
  344MOL0     C47387   8.105   3.442   7.461 -0.2293 -0.3223 -0.1104
  344MOL0     C47388   8.161   3.560   7.477 -0.2921  0.2221  0.8975
  344MOL0     C47389   8.365   3.928   7.424 -1.2231  0.9988 -0.6400
  344MOL0     C47390   8.313   4.038   7.488  0.2502 -0.5517 -0.9790
  344MOL0     C47391   8.385   4.142   7.540 -0.3812  1.1812  0.2485
  344MOL0     C47392   8.526   4.151   7.514  0.0665 -0.1499  0.2091
  344MOL0     O47393   8.603   4.260   7.536 -0.1671 -0.1901 -0.4746
  344MOL0     C47394   8.623   4.306   7.669  0.5665 -0.4524 -0.7708
  344MOL0     C47395   8.648   4.192   7.768 -0.6285 -0.3018 -1.1326
  344MOL0     C47396   8.702   4.242   7.910  0.3296  0.0023  0.2545
  344MOL0     C47397   8.767   4.134   7.994  0.0734 -0.7098  0.3820
  344MOL0     C47398   8.672   4.039   8.048 -0.4553 -0.5796  0.3004
  344MOL0     C47399   8.590   3.962   8.100  0.7410  1.1588 -0.0499
  344MOL0     C47400   8.585   4.047   7.458 -0.4789  0.4445  0.5480
  344MOL0     C47401   8.514   3.932   7.416 -0.1154  0.3172 -0.4149
  344MOL0     C47402   8.590   3.822   7.348  0.6090  0.2334  0.4296
  344MOL0     H47403   7.934   3.741   7.297 -3.6414 -1.1489  0.6585
  344MOL0     H47404   7.871   3.512   7.230  0.5327  1.0202 -0.5797
  344MOL0     H47405   7.992   3.174   7.478 -0.9732 -0.7352 -0.1831
  344MOL0     H47406   8.124   3.184   7.361 -0.3019  2.9072 -1.7486
  344MOL0     H47407   8.017   2.965   7.353  1.6213  1.4846 -1.2871
  344MOL0     H47408   7.854   3.040   7.318 -0.3090  1.2823 -0.7287
  344MOL0     H47409   7.962   3.116   7.098 -1.4019  0.0230  1.4034
  344MOL0     H47410   8.111   3.072   7.165 -0.9775  1.7707 -0.9669
  344MOL0     H47411   8.052   2.832   7.170  0.7478  0.7310 -0.3663
  344MOL0     H47412   7.882   2.872   7.137  0.2879  2.6868  2.7747
  344MOL0     H47413   8.111   2.932   6.935  1.6821 -2.4472  1.6509
  344MOL0     H47414   7.938   2.918   6.901 -1.4808 -2.6959 -0.2959
  344MOL0     H47415   8.091   2.684   7.021 -0.0454 -1.7654 -0.1210
  344MOL0     H47416   7.953   2.694   6.909  0.8122 -1.6470  1.1407
  344MOL0     H47417   8.187   2.620   6.807  0.7662  0.3430 -5.4442
  344MOL0     H47418   8.245   2.783   6.848 -1.1333  1.2604  0.5962
  344MOL0     H47419   8.043   2.875   6.715  0.1537 -0.4219  0.9482
  344MOL0     H47420   8.163   2.798   6.616 -1.6641 -0.0579 -0.2634
  344MOL0     H47421   7.808   2.774   6.728  1.6055 -0.3123  0.2114
  344MOL0     H47422   7.606   2.634   6.482  2.4441  2.0929 -0.7682
  344MOL0     H47423   7.599   2.665   6.651  1.8766 -0.5944  1.2006
  344MOL0     H47424   7.662   2.378   6.541 -2.2081 -0.7533 -1.1797
  344MOL0     H47425   7.672   2.425   6.711  0.3773  0.2781 -0.6430
  344MOL0     H47426   7.425   2.509   6.693  1.5539  0.4814  0.7627
  344MOL0     H47427   7.424   2.415   6.541  1.5273 -2.2249 -0.4763
  344MOL0     H47428   7.344   2.268   6.732  1.2175 -0.9985  2.1289
  344MOL0     H47429   7.497   2.227   6.656  0.3915 -1.4095  1.8145
  344MOL0     H47430   7.414   2.055   6.834 -0.7690  2.2017 -0.7480
  344MOL0     H47431   7.403   1.800   7.092  2.0476 -0.6825 -0.0573
  344MOL0     H47432   7.452   1.783   6.911  1.0595  2.0608 -1.5873
  344MOL0     H47433   7.317   1.869   6.960  0.4882 -0.7747 -2.8248
  344MOL0     H47434   7.885   1.795   7.343  1.2434 -1.4126 -0.1596
  344MOL0     H47435   7.940   1.672   7.530  1.4828  0.8692 -3.0141
  344MOL0     H47436   7.646   1.321   7.676  0.2204 -0.3863  0.0155
  344MOL0     H47437   7.793   1.326   7.774 -2.0623  0.7756  3.8046
  344MOL0     H47438   7.632   1.576   7.745  0.8150 -0.6953 -1.6396
  344MOL0     H47439   7.594   1.457   7.869 -3.0918  0.4536 -2.5364
  344MOL0     H47440   7.719   1.620   7.974 -2.1307 -0.1860 -1.5409
  344MOL0     H47441   7.828   1.636   7.852 -0.2013 -0.6044  0.0615
  344MOL0     H47442   7.932   1.406   7.917  1.7446 -1.1623  1.8715
  344MOL0     H47443   7.802   1.390   8.033 -2.0725  3.4564  0.4369
  344MOL0     H47444   8.033   1.460   8.128 -1.2924  0.1327  1.2585
  344MOL0     H47445   8.013   1.617   8.043  0.8547 -0.2619  0.7475
  344MOL0     H47446   7.780   1.544   8.220 -0.5348  1.4263 -0.4692
  344MOL0     H47447   7.846   1.691   8.163  1.6780  0.6320 -0.3482
  344MOL0     H47448   8.053   1.660   8.313  2.7915 -2.7336  5.1587
  344MOL0     H47449   7.951   1.526   8.374 -0.6209  0.5131  0.3668
  344MOL0     H47450   7.787   1.674   8.460  0.5590 -0.1082 -0.7715
  344MOL0     H47451   7.895   1.815   8.399  1.3101 -0.2771 -2.4028
  344MOL0     H47452   7.605   1.414   7.472  4.0000 -2.7576  0.0020
  344MOL0     H47453   7.522   1.564   7.284  0.1051  0.2368  1.1347
  344MOL0     H47454   7.746   2.142   7.188 -3.0441  1.8984  4.0433
  344MOL0     H47455   7.698   2.310   7.035 -1.2124  0.9481  3.2621
  344MOL0     H47456   8.141   3.360   7.523 -1.8534  0.6915  2.3079
  344MOL0     H47457   8.239   3.562   7.552 -1.1292  0.0120  1.7930
  344MOL0     H47458   8.207   4.047   7.510  0.7819  1.3536  1.3416
  344MOL0     H47459   8.325   4.214   7.594 -2.4699  0.4205 -0.9460
  344MOL0     H47460   8.698   4.385   7.667  2.7761 -2.3659  0.9469
  344MOL0     H47461   8.531   4.354   7.703  0.4898 -0.0666 -1.5100
  344MOL0     H47462   8.730   4.129   7.729  1.0641  0.1816  1.4202
  344MOL0     H47463   8.561   4.129   7.786 -0.5856 -0.1505 -0.3850
  344MOL0     H47464   8.757   4.335   7.897 -0.3861  0.3698 -0.2385
  344MOL0     H47465   8.606   4.269   7.957 -2.0135 -4.8267 -1.0883
  344MOL0     H47466   8.811   4.174   8.086 -1.7910 -0.1683  1.0722
  344MOL0     H47467   8.848   4.089   7.936 -1.9063 -2.1226 -1.4269
  344MOL0     H47468   8.512   3.914   8.156  1.8161 -1.3288 -0.5626
  344MOL0     H47469   8.689   4.052   7.428  0.0148 -4.1575  0.7676
  344MOL0     H47470   8.549   3.725   7.379 -2.2538  0.9031 -0.8569
  344MOL0     H47471   8.574   3.836   7.240 -2.4736  1.9357  0.9902
  344MOL0     H47472   8.696   3.838   7.366  1.1382  1.9650 -3.2569
  345MOL0     O47473  10.459   0.367   2.385  1.1579  1.2176  0.2513
  345MOL0     C47474  10.364   0.332   2.318  0.6649  0.8040  0.3100
  345MOL0     O47475  10.364   0.245   2.210 -0.8260  0.1465 -0.5652
  345MOL0     C47476  10.473   0.199   2.139 -0.1426 -0.2752  0.4210
  345MOL0     C47477  10.602   0.258   2.145 -0.1731 -0.1458 -1.2583
  345MOL0     C47478  10.710   0.196   2.073  0.0952 -0.4689 -1.2103
  345MOL0     C47479  10.693   0.092   1.984  0.8034 -0.6433 -0.5148
  345MOL0     O47480  10.806   0.050   1.916 -0.0513 -0.0169 -0.2130
  345MOL0     C47481  10.775  -0.030   1.801 -1.0591 -0.7177 -0.4595
  345MOL0     C47482  10.891  -0.085   1.717 -0.7436  0.1624 -0.7968
  345MOL0     C47483  11.009  -0.142   1.807 -0.1020  0.4266 -0.0868
  345MOL0     C47484  11.145  -0.182   1.745 -0.1052 -0.1286 -0.7966
  345MOL0     C47485  11.137  -0.256   1.618 -0.7525 -0.2278  0.7371
  345MOL0     C47486  11.262  -0.346   1.602 -0.1806  0.2585  0.7850
  345MOL0     C47487  11.260  -0.408   1.450 -0.2666  0.2805 -0.4703
  345MOL0     C47488  11.349  -0.339   1.349 -0.7510 -0.0877 -0.9266
  345MOL0     N47489  11.381  -0.437   1.243  0.2974 -0.0775  0.8047
  345MOL0     C47490  11.472  -0.537   1.246  0.0464 -0.3046 -0.2764
  345MOL0     C47491  11.477  -0.594   1.124  0.3456 -0.8533  0.1800
  345MOL0     C47492  11.554  -0.703   1.071 -1.4682 -0.3986  0.0668
  345MOL0     C47493  11.710  -0.664   1.075 -0.5439  0.7695 -1.0791
  345MOL0     C47494  11.741  -0.540   1.005 -0.8745  0.2595 -0.4424
  345MOL0     C47495  11.897  -0.547   0.984  0.1633  0.1292 -0.0155
  345MOL0     O47496  11.961  -0.426   0.932  0.8361  0.5862  0.2177
  345MOL0     C47497  11.944  -0.310   0.999  0.0833 -0.6829 -0.1815
  345MOL0     C47498  11.908  -0.309   1.137 -0.1724 -0.2101  0.0774
  345MOL0     C47499  11.887  -0.181   1.210  0.1429 -0.3730  0.3960
  345MOL0     C47500  11.846  -0.195   1.344 -0.0521 -0.6982  0.0999
  345MOL0     C47501  11.944  -0.059   1.153  0.0200 -0.2183  0.0919
  345MOL0     C47502  11.955   0.069   1.228 -0.4750 -0.2964 -0.0470
  345MOL0     O47503  11.861   0.107   1.312  0.5977 -0.3061  0.4206
  345MOL0     C47504  11.886   0.222   1.386 -0.3440 -0.7443 -0.1917
  345MOL0     C47505  11.902   0.218   1.528 -0.4697  0.3455 -0.8682
  345MOL0     C47506  11.923   0.336   1.605  0.7379  0.0928 -0.1253
  345MOL0     C47507  11.926   0.466   1.540  0.1135  0.7448  0.2845
  345MOL0     O47508  11.940   0.580   1.612 -0.0905 -0.0406 -0.5636
  345MOL0     C47509  11.839   0.610   1.709  0.3350  1.0157  0.1604
  345MOL0     C47510  11.759   0.735   1.664  0.7111 -0.8486  0.1602
  345MOL0     C47511  11.843   0.862   1.644 -0.1578  1.2210  0.1515
  345MOL0     C47512  11.759   0.989   1.634 -0.1370 -0.8853  0.8648
  345MOL0     C47513  11.669   0.994   1.510 -0.2424  0.3895 -1.2795
  345MOL0     C47514  11.628   1.141   1.487  0.0928  0.4854  0.2145
  345MOL0     C47515  11.567   1.157   1.350  0.5260 -0.7885 -0.2018
  345MOL0     C47516  11.418   1.161   1.363 -0.1146  0.0686  0.5612
  345MOL0    Cl47517  11.371   1.298   1.463 -0.0194  0.0487 -0.0707
  345MOL0     C47518  11.893   0.467   1.406  0.7788 -0.0240  0.2437
  345MOL0     C47519  11.879   0.354   1.332 -0.7436  0.4081 -0.2089
  345MOL0     O47520  12.047   0.138   1.186 -0.1854 -1.3690  0.1270
  345MOL0     C47521  11.977  -0.063   1.016 -0.2601  0.0156 -0.1460
  345MOL0     C47522  11.972  -0.184   0.942  0.3079 -0.0395 -0.1596
  345MOL0     N47523  11.381  -0.533   1.053  0.0664  0.3544  0.7314
  345MOL0     N47524  11.335  -0.430   1.115 -0.1114  0.4785  0.0912
  345MOL0     C47525  10.558   0.055   1.962  0.5215 -0.4020 -0.4751
  345MOL0     C47526  10.453   0.101   2.046  0.1243 -0.0473 -0.1593
  345MOL0     C47527  10.231   0.372   2.369  0.1669  0.7214 -0.2616
  345MOL0     C47528  10.228   0.443   2.496 -0.1191 -0.4163  0.9350
  345MOL0     C47529  10.102   0.482   2.546 -0.3340  0.1171 -0.3287
  345MOL0     C47530   9.990   0.435   2.499  0.1728 -0.1401 -0.3046
  345MOL0     O47531   9.878   0.460   2.585 -0.5839 -0.2164 -0.5316
  345MOL0     C47532   9.744   0.420   2.542  0.5558  0.1862  0.3877
  345MOL0     C47533   9.665   0.414   2.676 -0.0384 -0.0035  0.3048
  345MOL0     C47534   9.521   0.366   2.651 -0.6593 -0.0874 -0.6926
  345MOL0     C47535   9.439   0.376   2.776  0.0424 -0.2586  0.5783
  345MOL0     C47536   9.483   0.263   2.860  0.4823 -0.7272 -0.0719
  345MOL0     C47537   9.509   0.172   2.929 -0.3644  0.6141  0.5393
  345MOL0     C47538   9.995   0.359   2.376  0.8901  0.0673 -0.0389
  345MOL0     C47539  10.107   0.336   2.303  0.0221 -0.2721  0.2007
  345MOL0     C47540  10.092   0.284   2.164 -0.6180  0.0730  0.7312
  345MOL0     H47541  10.625   0.339   2.214 -2.1466 -2.3042  2.2523
  345MOL0     H47542  10.817   0.216   2.071 -0.0149  0.9177  1.5079
  345MOL0     H47543  10.703   0.028   1.741 -0.3981  1.3135  0.6083
  345MOL0     H47544  10.722  -0.121   1.828  0.6157 -1.4359  0.5531
  345MOL0     H47545  10.847  -0.154   1.645 -3.9655  2.4386 -1.2078
  345MOL0     H47546  10.940  -0.001   1.667 -0.7264 -0.8638 -2.5857
  345MOL0     H47547  11.045  -0.065   1.875  3.5579 -0.4077 -0.8601
  345MOL0     H47548  10.963  -0.223   1.866 -0.0680 -0.4466 -1.2248
  345MOL0     H47549  11.215  -0.099   1.734 -4.0704  3.5418 -1.0236
  345MOL0     H47550  11.197  -0.250   1.814 -0.4835  0.7875  0.4165
  345MOL0     H47551  11.138  -0.175   1.545 -3.2138 -0.6884  0.0840
  345MOL0     H47552  11.051  -0.324   1.623 -0.0582 -1.0836  1.6883
  345MOL0     H47553  11.346  -0.277   1.609 -1.3022  1.9740 -1.2830
  345MOL0     H47554  11.281  -0.422   1.679  0.0226 -0.6455 -0.1373
  345MOL0     H47555  11.155  -0.412   1.419  0.1820 -1.5202 -2.0103
  345MOL0     H47556  11.299  -0.509   1.468  2.1741  1.7900  4.3525
  345MOL0     H47557  11.300  -0.245   1.319 -3.6999 -0.0178  3.2452
  345MOL0     H47558  11.435  -0.311   1.412 -0.5731  1.7360 -1.9063
  345MOL0     H47559  11.543  -0.567   1.323 -0.4353 -0.4572  0.1097
  345MOL0     H47560  11.518  -0.726   0.971  1.3808  1.4416 -1.5405
  345MOL0     H47561  11.536  -0.793   1.131 -2.5701  0.9353  1.8491
  345MOL0     H47562  11.756  -0.662   1.174 -0.8995  0.7740 -0.9115
  345MOL0     H47563  11.762  -0.743   1.019 -0.7606 -0.6336  0.5852
  345MOL0     H47564  11.686  -0.547   0.911 -0.6415 -0.8042 -0.5208
  345MOL0     H47565  11.709  -0.453   1.063  3.7309  2.1092 -0.2991
  345MOL0     H47566  11.939  -0.571   1.082 -1.2331  1.6663  0.9973
  345MOL0     H47567  11.920  -0.632   0.918  2.2556 -1.5908  2.7043
  345MOL0     H47568  11.885  -0.402   1.187 -0.2070  0.5169  1.4551
  345MOL0     H47569  11.922  -0.235   1.412 -0.0043 -0.4377  0.2032
  345MOL0     H47570  11.756  -0.258   1.346 -0.2874 -0.4923 -1.9573
  345MOL0     H47571  11.816  -0.098   1.385  1.1322 -1.9468  4.4241
  345MOL0     H47572  11.912   0.121   1.575  5.1567  1.1230  0.2058
  345MOL0     H47573  11.948   0.336   1.710  0.7424  1.7015 -0.1023
  345MOL0     H47574  11.781   0.518   1.726 -0.2529  0.9153 -2.0524
  345MOL0     H47575  11.887   0.636   1.804 -0.9660  0.0832  1.0996
  345MOL0     H47576  11.707   0.710   1.571  1.5090 -2.5160  0.1288
  345MOL0     H47577  11.684   0.749   1.743  0.9375 -0.0055  0.2455
  345MOL0     H47578  11.918   0.860   1.564  1.5275  3.5056  1.5569
  345MOL0     H47579  11.898   0.868   1.738 -1.2772 -2.2194  1.1846
  345MOL0     H47580  11.828   1.074   1.624 -1.5992  0.5434  2.2666
  345MOL0     H47581  11.692   0.998   1.721 -2.4562 -0.4059 -0.8642
  345MOL0     H47582  11.728   0.947   1.430  1.2460  1.3748 -0.8100
  345MOL0     H47583  11.574   0.944   1.527  0.4659 -0.7016 -0.4047
  345MOL0     H47584  11.712   1.210   1.504  2.3862 -1.9762 -0.4001
  345MOL0     H47585  11.553   1.161   1.564 -3.0144 -3.5936 -1.3687
  345MOL0     H47586  11.601   1.091   1.270 -0.0217 -0.6253 -0.5763
  345MOL0     H47587  11.611   1.253   1.322 -1.4533  0.2809  0.1666
  345MOL0     H47588  11.389   1.067   1.411  0.7660  0.3978  1.8153
  345MOL0     H47589  11.372   1.159   1.264  1.4116 -0.9864 -0.1609
  345MOL0     H47590  11.883   0.565   1.362  1.1326  1.4759  3.2489
  345MOL0     H47591  11.870   0.364   1.224 -1.0989 -1.1412 -0.3456
  345MOL0     H47592  12.007   0.029   0.968 -2.3423  0.3932 -0.8076
  345MOL0     H47593  12.001  -0.183   0.837  5.7401 -0.2091  1.0374
  345MOL0     H47594  10.533  -0.032   1.902 -1.7667  0.3714 -0.7131
  345MOL0     H47595  10.354   0.062   2.024 -0.4460 -0.7981  3.2502
  345MOL0     H47596  10.318   0.480   2.545 -1.3074  2.9590  0.8607
  345MOL0     H47597  10.090   0.541   2.636 -0.5295  0.7210 -0.7511
  345MOL0     H47598   9.709   0.501   2.477  2.3727  0.5768 -0.1436
  345MOL0     H47599   9.751   0.326   2.488 -0.8281  1.7311 -2.8053
  345MOL0     H47600   9.656   0.519   2.707 -0.0042  1.4877 -4.0805
  345MOL0     H47601   9.721   0.358   2.751 -0.9477  2.6377  3.1787
  345MOL0     H47602   9.474   0.426   2.573  0.5134 -1.8369 -2.8423
  345MOL0     H47603   9.525   0.261   2.622  1.4113 -0.0053 -0.8525
  345MOL0     H47604   9.333   0.358   2.758  0.7109 -3.7129 -0.6310
  345MOL0     H47605   9.449   0.475   2.822  1.1246 -1.3393  2.8085
  345MOL0     H47606   9.512   0.083   2.989  2.8911 -0.1876 -0.5921
  345MOL0     H47607   9.902   0.325   2.331  0.8797  1.4161 -1.0792
  345MOL0     H47608   9.986   0.287   2.136 -1.0038 -1.4077  1.9009
  345MOL0     H47609  10.154   0.350   2.103 -1.5045  0.9284  0.7182
  345MOL0     H47610  10.118   0.179   2.153 -1.1368  0.1281 -1.4469
  346MOL0     O47611  11.126   6.024   4.767  0.9773  0.9052  0.3110
  346MOL0     C47612  11.070   5.941   4.840  0.1095 -0.2142 -0.0566
  346MOL0     O47613  11.120   5.919   4.973 -0.5642  0.3679  0.5950
  346MOL0     C47614  11.205   6.016   5.024 -0.0714 -0.1468 -0.7774
  346MOL0     C47615  11.339   6.027   4.975  0.3038  0.6969 -0.6850
  346MOL0     C47616  11.430   6.124   5.029  0.0647  0.2199 -0.1622
  346MOL0     C47617  11.382   6.213   5.133  0.8963  0.9872  0.2242
  346MOL0     O47618  11.477   6.305   5.181  0.1174  0.1305 -0.0633
  346MOL0     C47619  11.462   6.435   5.113 -0.5305 -0.3536  0.1328
  346MOL0     C47620  11.399   6.546   5.205 -0.0519  0.2051 -0.7945
  346MOL0     C47621  11.496   6.660   5.228 -0.9151 -0.2832 -0.2352
  346MOL0     C47622  11.427   6.794   5.256  0.4691 -0.4289  0.2055
  346MOL0     C47623  11.524   6.907   5.293 -0.0026  0.7427  0.0422
  346MOL0     C47624  11.492   6.965   5.437 -0.1861  0.2673  0.3583
  346MOL0     C47625  11.519   7.110   5.447  1.2238 -0.6140 -0.7087
  346MOL0     C47626  11.494   7.143   5.612  0.5561  1.3647 -0.2760
  346MOL0     N47627  11.500   7.286   5.629  0.3530  0.3230 -0.3426
  346MOL0     C47628  11.403   7.377   5.589 -0.2063 -0.6036 -0.2990
  346MOL0     C47629  11.449   7.495   5.634 -0.9428 -0.4539  0.4172
  346MOL0     C47630  11.402   7.628   5.590 -0.1354 -0.5020  0.4688
  346MOL0     C47631  11.312   7.687   5.709  0.3959 -0.0104 -0.2157
  346MOL0     C47632  11.209   7.583   5.765  0.2342 -0.3204 -0.6030
  346MOL0     C47633  11.072   7.560   5.693  0.6934  0.2156 -1.2172
  346MOL0     O47634  11.099   7.540   5.550 -0.1419  0.2020 -0.1988
  346MOL0     C47635  11.002   7.521   5.457 -0.0498  0.6925 -0.0937
  346MOL0     C47636  11.042   7.493   5.327  0.2326 -1.7430  0.1937
  346MOL0     C47637  10.952   7.456   5.229 -0.0976  0.1390 -0.6694
  346MOL0     C47638  11.019   7.399   5.102  0.1022 -0.5940 -0.2211
  346MOL0     C47639  10.819   7.475   5.251 -0.2948 -0.2835  0.5503
  346MOL0     C47640  10.712   7.465   5.135  0.9562  0.1469  0.3540
  346MOL0     O47641  10.584   7.412   5.165 -0.2424 -0.5682  0.5637
  346MOL0     C47642  10.491   7.394   5.066 -0.0222 -0.1936 -1.0418
  346MOL0     C47643  10.461   7.499   4.967  0.2825  0.1256  0.0658
  346MOL0     C47644  10.368   7.460   4.880  0.7002  0.1522  0.8902
  346MOL0     C47645  10.312   7.324   4.867 -0.2382  0.8436 -0.4911
  346MOL0     O47646  10.229   7.289   4.765 -0.0560 -0.1440 -0.5933
  346MOL0     C47647  10.149   7.384   4.698  0.7018 -0.6091 -0.1159
  346MOL0     C47648  10.037   7.313   4.624  0.3765 -0.0952 -0.5131
  346MOL0     C47649   9.930   7.228   4.693  0.9007 -0.0637 -0.4981
  346MOL0     C47650   9.822   7.177   4.599 -0.4988 -0.2836  0.7548
  346MOL0     C47651   9.722   7.280   4.558  0.6890 -0.9722  0.7366
  346MOL0     C47652   9.599   7.236   4.488  0.5970  0.8764  0.3045
  346MOL0     C47653   9.515   7.345   4.435 -0.0018 -0.9042 -0.5950
  346MOL0     C47654   9.403   7.280   4.355 -0.3185 -0.8583  1.5915
  346MOL0    Cl47655   9.260   7.388   4.357 -0.1935  0.1906 -0.7065
  346MOL0     C47656  10.349   7.224   4.963  0.0836  0.0453  0.1052
  346MOL0     C47657  10.436   7.264   5.062 -0.0015  0.6416  0.4886
  346MOL0     O47658  10.756   7.490   5.022  0.2634  0.7154 -0.0670
  346MOL0     C47659  10.771   7.502   5.378 -0.2972 -0.4701 -0.4989
  346MOL0     C47660  10.859   7.532   5.483 -0.0170 -0.1586  0.4754
  346MOL0     N47661  11.576   7.474   5.698 -0.8098  0.5416  0.5293
  346MOL0     N47662  11.596   7.347   5.693  0.0074  0.5184 -0.5072
  346MOL0     C47663  11.250   6.205   5.176  0.1511  0.7012  0.0549
  346MOL0     C47664  11.166   6.105   5.129 -0.5284 -0.5019 -0.1111
  346MOL0     C47665  10.983   5.834   4.797 -0.4035 -0.9828  0.1988
  346MOL0     C47666  10.965   5.721   4.876 -0.1341 -0.2133  0.2281
  346MOL0     C47667  10.894   5.618   4.825  0.3129 -0.2588 -0.4473
  346MOL0     C47668  10.826   5.616   4.700 -0.0837  1.1171 -0.7909
  346MOL0     O47669  10.739   5.519   4.645 -0.7844  0.1907 -0.1554
  346MOL0     C47670  10.715   5.396   4.715 -0.6207  0.1975 -0.4607
  346MOL0     C47671  10.669   5.284   4.627 -0.6137  0.4941 -0.5468
  346MOL0     C47672  10.761   5.238   4.525  0.2618  0.0502  0.0946
  346MOL0     C47673  10.714   5.128   4.438 -1.0006 -0.1606 -0.0998
  346MOL0     C47674  10.590   5.157   4.364 -0.0364 -0.3394  0.1359
  346MOL0     C47675  10.495   5.199   4.305 -0.4333  0.6750  0.3058
  346MOL0     C47676  10.840   5.728   4.627 -0.2762 -0.1820 -0.2584
  346MOL0     C47677  10.913   5.838   4.672 -0.6660  0.7295 -0.3142
  346MOL0     C47678  10.922   5.953   4.575  0.2557  0.8536  0.2077
  346MOL0     H47679  11.385   5.968   4.896  0.2425 -0.6310  0.2385
  346MOL0     H47680  11.529   6.131   4.984  0.4854  0.7759  0.7952
  346MOL0     H47681  11.400   6.424   5.024  1.7542  0.8112 -1.7219
  346MOL0     H47682  11.561   6.464   5.078 -0.5735  0.4405  0.6472
  346MOL0     H47683  11.300   6.581   5.173 -0.8946 -0.1640  1.2370
  346MOL0     H47684  11.377   6.493   5.298 -3.4410  0.0874 -1.5373
  346MOL0     H47685  11.566   6.635   5.309 -0.4130  1.5199 -0.0793
  346MOL0     H47686  11.562   6.670   5.142 -0.5384  0.0730  0.0906
  346MOL0     H47687  11.369   6.815   5.166 -2.9571 -1.4917  1.9782
  346MOL0     H47688  11.351   6.771   5.331  1.7946 -3.7865  0.6805
  346MOL0     H47689  11.515   6.983   5.215  4.4739  0.8909 -0.5574
  346MOL0     H47690  11.626   6.873   5.274 -0.7801 -1.3149 -0.7233
  346MOL0     H47691  11.392   6.933   5.465 -0.1566  0.3282  0.5348
  346MOL0     H47692  11.565   6.921   5.505 -1.9507 -0.4285  1.8626
  346MOL0     H47693  11.441   7.162   5.391 -0.6420 -0.5749  1.7509
  346MOL0     H47694  11.620   7.131   5.412  0.9673 -0.1827 -1.2065
  346MOL0     H47695  11.396   7.114   5.651  1.0340 -3.8827 -2.1744
  346MOL0     H47696  11.568   7.093   5.675  1.8729  2.3748 -0.9885
  346MOL0     H47697  11.311   7.355   5.537 -1.5254  2.7921  0.3446
  346MOL0     H47698  11.340   7.628   5.500  0.1536 -0.9354  0.2677
  346MOL0     H47699  11.487   7.697   5.588  2.3131 -3.3165 -1.4664
  346MOL0     H47700  11.376   7.719   5.792 -2.8610 -2.2673  3.5186
  346MOL0     H47701  11.259   7.765   5.653  0.2870 -1.3679 -2.0737
  346MOL0     H47702  11.241   7.478   5.772 -2.9445 -1.3080  0.9658
  346MOL0     H47703  11.196   7.611   5.869  2.9832 -1.5419  0.1681
  346MOL0     H47704  11.026   7.477   5.747  1.4074  0.5710 -0.0371
  346MOL0     H47705  11.018   7.655   5.696  0.3048 -0.0251 -0.5087
  346MOL0     H47706  11.149   7.495   5.308  0.0449 -2.0164 -0.9677
  346MOL0     H47707  10.953   7.324   5.056  2.1248 -1.3873 -1.9881
  346MOL0     H47708  11.120   7.360   5.113  0.1501 -0.7245 -1.0350
  346MOL0     H47709  11.025   7.479   5.027 -0.6084 -1.2452 -0.9991
  346MOL0     H47710  10.499   7.601   4.967 -2.9285  1.4917  1.9970
  346MOL0     H47711  10.346   7.529   4.799  0.2179 -2.7621 -1.6416
  346MOL0     H47712  10.106   7.461   4.763 -0.1687  1.7288 -3.2124
  346MOL0     H47713  10.209   7.449   4.635  2.3451 -0.7793  1.2052
  346MOL0     H47714   9.987   7.398   4.578  1.3385  4.7594  5.9487
  346MOL0     H47715  10.095   7.250   4.555  1.0755  1.0212 -0.9664
  346MOL0     H47716   9.878   7.283   4.772  0.6068 -1.0412  0.0042
  346MOL0     H47717   9.961   7.136   4.743 -1.7639 -1.0414 -0.4474
  346MOL0     H47718   9.759   7.096   4.637 -0.6735  0.0970  1.2927
  346MOL0     H47719   9.867   7.154   4.502 -2.1888  0.1843 -0.1835
  346MOL0     H47720   9.680   7.319   4.652 -0.6568 -0.4172 -0.0723
  346MOL0     H47721   9.767   7.366   4.507 -1.3852  1.3239  2.5108
  346MOL0     H47722   9.537   7.179   4.557 -2.8936  1.0954 -2.3401
  346MOL0     H47723   9.636   7.172   4.407 -0.2039  1.3528 -0.4668
  346MOL0     H47724   9.572   7.409   4.366  2.2168 -2.1411 -0.0091
  346MOL0     H47725   9.470   7.401   4.517 -0.4549  0.4339 -1.7177
  346MOL0     H47726   9.384   7.184   4.404 -2.0091 -0.5496  1.5945
  346MOL0     H47727   9.443   7.270   4.254 -0.5870 -0.2260  1.4171
  346MOL0     H47728  10.302   7.127   4.975  1.1617 -0.2814  2.3144
  346MOL0     H47729  10.452   7.187   5.137 -1.4275 -0.1292  0.0327
  346MOL0     H47730  10.668   7.530   5.395  0.4199  0.7966  2.2143
  346MOL0     H47731  10.813   7.562   5.576 -1.5658 -1.4223  0.1632
  346MOL0     H47732  11.220   6.271   5.257 -3.6127 -0.4022 -0.2333
  346MOL0     H47733  11.070   6.080   5.174  0.2259 -2.5745  0.4288
  346MOL0     H47734  11.008   5.710   4.975 -1.3877 -0.0173  0.8140
  346MOL0     H47735  10.895   5.529   4.887  0.8279 -0.4276 -0.6964
  346MOL0     H47736  10.805   5.373   4.773 -2.2824 -4.4376  0.7195
  346MOL0     H47737  10.644   5.408   4.796  0.6075 -2.8766  1.2519
  346MOL0     H47738  10.595   5.342   4.571  0.2840  1.6607 -0.5643
  346MOL0     H47739  10.628   5.199   4.683 -1.1601  1.4600  0.5674
  346MOL0     H47740  10.787   5.326   4.466 -1.1547 -0.7384 -1.7774
  346MOL0     H47741  10.850   5.207   4.581 -0.4556  2.0021  2.4853
  346MOL0     H47742  10.704   5.033   4.491  0.8396 -0.8701 -0.9593
  346MOL0     H47743  10.780   5.112   4.352 -0.8222  2.2358 -0.4759
  346MOL0     H47744  10.417   5.225   4.237  2.6414  3.3805 -2.4798
  346MOL0     H47745  10.798   5.715   4.527 -2.0992 -1.4708  0.6276
  346MOL0     H47746  10.836   5.960   4.508  1.1270  0.4433 -0.9697
  346MOL0     H47747  10.908   6.044   4.634  0.6730  0.4057  1.0244
  346MOL0     H47748  11.017   5.951   4.522 -0.4731  0.2332 -1.1245
  347MOL0     O47749   9.211   3.991   1.678  0.5524  0.2799  0.5146
  347MOL0     C47750   9.154   3.908   1.748  0.7619  0.2832 -0.1362
  347MOL0     O47751   9.038   3.853   1.711  0.0422 -0.0377 -0.5554
  347MOL0     C47752   8.999   3.857   1.582 -0.5578 -0.2856  0.5828
  347MOL0     C47753   8.907   3.952   1.523 -0.4262 -0.8016 -0.5295
  347MOL0     C47754   8.869   3.934   1.391 -0.0726  0.3884 -0.8239
  347MOL0     C47755   8.921   3.831   1.314  1.0459  0.9951  0.4637
  347MOL0     O47756   8.886   3.809   1.182 -0.1898  0.2443 -0.2959
  347MOL0     C47757   8.815   3.904   1.105 -0.7654 -0.5733 -0.0695
  347MOL0     C47758   8.912   4.007   1.062  0.9720 -0.4695  0.3101
  347MOL0     C47759   8.849   4.127   0.995 -0.2829  0.5196  0.6347
  347MOL0     C47760   8.937   4.264   0.998 -0.2028  0.4004  0.2237
  347MOL0     C47761   8.865   4.380   0.933  0.3000  0.5041 -0.5888
  347MOL0     C47762   8.935   4.524   0.961  0.7232 -0.1850  1.2732
  347MOL0     C47763   9.091   4.531   0.993 -0.4702  0.4481 -0.3807
  347MOL0     C47764   9.133   4.651   1.069 -0.7255  1.3239  0.5847
  347MOL0     N47765   9.104   4.784   1.002  0.1572  0.5148 -0.8009
  347MOL0     C47766   9.003   4.876   1.039  0.5828 -0.2050  0.8200
  347MOL0     C47767   9.027   4.980   0.959 -0.7097 -0.2658 -0.8874
  347MOL0     C47768   8.948   5.106   0.946 -0.4974  0.4854 -0.7230
  347MOL0     C47769   8.805   5.079   0.912  0.3980 -0.4173  0.5013
  347MOL0     C47770   8.735   5.211   0.915 -0.9833  0.4237  0.2762
  347MOL0     C47771   8.620   5.221   0.812 -1.3470 -0.1894  0.1746
  347MOL0     O47772   8.614   5.368   0.794  0.2731 -0.1414  0.4403
  347MOL0     C47773   8.485   5.420   0.784  0.0190 -0.3696 -0.4965
  347MOL0     C47774   8.474   5.562   0.809  0.1850  0.5739  0.0775
  347MOL0     C47775   8.343   5.635   0.794  0.0128  0.7346 -0.3804
  347MOL0     C47776   8.365   5.779   0.809  0.1082  0.4266 -0.0734
  347MOL0     C47777   8.223   5.563   0.752 -0.4635 -0.1191 -0.6016
  347MOL0     C47778   8.101   5.632   0.737 -0.2268  0.4672 -0.2506
  347MOL0     O47779   8.003   5.562   0.665  0.3064 -0.1932 -0.2996
  347MOL0     C47780   7.873   5.606   0.679 -0.4632 -0.2256 -0.2382
  347MOL0     C47781   7.802   5.588   0.799  0.0886  0.3674  0.3976
  347MOL0     C47782   7.662   5.617   0.805  0.7317 -0.5553  0.8987
  347MOL0     C47783   7.595   5.677   0.699 -0.5887  0.5527 -0.5622
  347MOL0     O47784   7.460   5.700   0.696 -0.2373 -0.1362  0.1814
  347MOL0     C47785   7.408   5.798   0.788  0.3741 -0.7871 -0.3603
  347MOL0     C47786   7.264   5.839   0.779 -0.3117 -0.0040 -0.1352
  347MOL0     C47787   7.173   5.723   0.782 -0.7624  0.5980 -0.1895
  347MOL0     C47788   7.030   5.774   0.812 -0.7613 -0.4468 -0.7649
  347MOL0     C47789   6.934   5.657   0.793  0.2107  0.2490  0.6398
  347MOL0     C47790   6.781   5.692   0.794  0.8038 -0.0807 -0.2643
  347MOL0     C47791   6.708   5.699   0.661 -0.3837 -0.4832 -0.3540
  347MOL0     C47792   6.785   5.776   0.558  0.1872  0.2300  0.3499
  347MOL0    Cl47793   6.670   5.807   0.436  0.5085  0.0997  0.1550
  347MOL0     C47794   7.669   5.699   0.582  0.8997  0.2406 -0.0179
  347MOL0     C47795   7.802   5.654   0.570 -0.6350  0.1583 -0.4475
  347MOL0     O47796   8.078   5.738   0.804  0.1080  0.7534 -0.0153
  347MOL0     C47797   8.242   5.423   0.744  0.3728 -0.4128  0.0433
  347MOL0     C47798   8.362   5.350   0.755 -0.0435  0.9161  0.6514
  347MOL0     N47799   9.139   4.958   0.884  0.5913  0.3939 -0.5370
  347MOL0     N47800   9.178   4.840   0.900  0.0226  0.5246  0.1446
  347MOL0     C47801   9.011   3.745   1.371  0.5778  0.4987 -0.8759
  347MOL0     C47802   9.049   3.754   1.503 -0.7113 -0.1402 -1.0775
  347MOL0     C47803   9.231   3.858   1.869 -0.0249  0.2330  0.0450
  347MOL0     C47804   9.368   3.920   1.888  0.3980  0.3563  0.0578
  347MOL0     C47805   9.429   3.876   2.006 -0.9211 -0.4988 -0.4801
  347MOL0     C47806   9.375   3.790   2.093 -1.0454 -0.2158 -0.4579
  347MOL0     O47807   9.446   3.745   2.203  0.1003  0.1745 -0.0882
  347MOL0     C47808   9.576   3.786   2.230  0.0032 -0.2223  0.8341
  347MOL0     C47809   9.630   3.719   2.355 -0.0028 -0.2056 -0.3674
  347MOL0     C47810   9.753   3.791   2.397 -0.6782  1.0626 -0.6808
  347MOL0     C47811   9.716   3.913   2.493  0.3079  0.4282  0.6469
  347MOL0     C47812   9.848   3.978   2.541 -0.1294  0.1967  0.4223
  347MOL0     C47813   9.955   4.019   2.576  0.4578  0.0445 -0.5985
  347MOL0     C47814   9.254   3.738   2.074  0.3906  0.7283 -0.0707
  347MOL0     C47815   9.174   3.768   1.963 -0.3054 -0.4513 -0.5218
  347MOL0     C47816   9.039   3.706   1.955  0.2348 -0.2975 -0.1691
  347MOL0     H47817   8.860   4.028   1.586  3.4213  1.4580 -0.0039
  347MOL0     H47818   8.803   4.008   1.348  0.2722  1.6929  0.8104
  347MOL0     H47819   8.732   3.955   1.156  1.3604  1.7357  1.2836
  347MOL0     H47820   8.780   3.857   1.012  4.0700 -2.6363 -1.1407
  347MOL0     H47821   8.976   4.046   1.141  1.4642 -0.3758 -0.1329
  347MOL0     H47822   8.985   3.957   0.997 -0.4055 -0.4356 -1.3482
  347MOL0     H47823   8.819   4.119   0.890 -2.4311  2.0584  1.0505
  347MOL0     H47824   8.755   4.144   1.049 -0.6156 -0.5020  0.4043
  347MOL0     H47825   8.961   4.284   1.103  1.1566  0.5908 -0.1021
  347MOL0     H47826   9.034   4.258   0.947  0.7346  0.9617  1.8515
  347MOL0     H47827   8.759   4.380   0.961 -0.0504 -1.8523 -1.6766
  347MOL0     H47828   8.869   4.370   0.824 -0.0459  0.3879 -0.5914
  347MOL0     H47829   8.911   4.586   0.874 -0.0916  1.3623  2.5271
  347MOL0     H47830   8.879   4.572   1.042 -0.0573  0.6720  0.2534
  347MOL0     H47831   9.165   4.514   0.914 -0.4832 -1.0626 -0.0962
  347MOL0     H47832   9.096   4.446   1.061 -2.7611 -0.9526 -1.8139
  347MOL0     H47833   9.071   4.649   1.160 -1.9221 -0.1245 -0.2327
  347MOL0     H47834   9.240   4.646   1.092 -0.7370 -2.0249  0.3567
  347MOL0     H47835   8.930   4.862   1.119 -0.0031 -0.3836  0.2652
  347MOL0     H47836   9.005   5.154   0.865 -0.4826 -0.6316 -1.4063
  347MOL0     H47837   8.964   5.169   1.034  0.4678 -4.1941  2.8809
  347MOL0     H47838   8.796   5.039   0.811  1.1805  0.4228  0.0820
  347MOL0     H47839   8.760   5.013   0.986 -1.7646 -1.7331 -1.8345
  347MOL0     H47840   8.725   5.223   1.023  2.9137 -0.6745  0.8971
  347MOL0     H47841   8.805   5.286   0.878 -2.0925  0.7763 -1.2396
  347MOL0     H47842   8.647   5.182   0.714  1.4509  1.1866  0.2990
  347MOL0     H47843   8.529   5.170   0.845  0.1128 -1.3299  2.8158
  347MOL0     H47844   8.567   5.613   0.833  2.7798 -2.8738 -1.7759
  347MOL0     H47845   8.470   5.802   0.829  0.2039  1.0181 -1.1653
  347MOL0     H47846   8.311   5.820   0.895  3.4339 -2.2268  3.6211
  347MOL0     H47847   8.354   5.835   0.715 -0.6589  0.7668  0.2068
  347MOL0     H47848   7.847   5.527   0.877 -1.1513 -1.1460 -0.0387
  347MOL0     H47849   7.605   5.590   0.893 -0.2463 -0.1371  0.4037
  347MOL0     H47850   7.427   5.752   0.885 -1.6961 -1.5645 -0.2560
  347MOL0     H47851   7.466   5.890   0.783 -1.4614  0.3731 -2.3564
  347MOL0     H47852   7.248   5.903   0.866  0.0569  0.1714 -0.1935
  347MOL0     H47853   7.249   5.893   0.685  3.3401 -1.5564 -1.7882
  347MOL0     H47854   7.196   5.658   0.867  0.3309  0.1759 -0.7908
  347MOL0     H47855   7.177   5.664   0.690  2.4529  2.1386 -1.1961
  347MOL0     H47856   6.997   5.856   0.747  0.6105  1.1433  0.4379
  347MOL0     H47857   7.015   5.809   0.915 -1.8621  0.5107 -1.2350
  347MOL0     H47858   6.966   5.601   0.705 -0.2671  0.0650  0.5789
  347MOL0     H47859   6.953   5.585   0.873  0.2738 -0.9207 -0.4012
  347MOL0     H47860   6.772   5.793   0.834 -1.1031 -0.1075 -0.5198
  347MOL0     H47861   6.724   5.626   0.859  1.3948 -1.0833 -0.7335
  347MOL0     H47862   6.611   5.746   0.681 -0.2447 -0.9209  1.5487
  347MOL0     H47863   6.672   5.605   0.620 -3.3422  1.6505 -3.1764
  347MOL0     H47864   6.868   5.716   0.519  1.1813  0.9345  1.2828
  347MOL0     H47865   6.830   5.872   0.586 -0.3451  0.5647  0.0613
  347MOL0     H47866   7.616   5.739   0.496  2.2615  2.8071  0.2114
  347MOL0     H47867   7.860   5.651   0.478  0.3672 -0.1745  0.1794
  347MOL0     H47868   8.158   5.361   0.719  1.1719 -2.6149  2.3972
  347MOL0     H47869   8.349   5.242   0.744 -1.8352  1.1243  0.4280
  347MOL0     H47870   9.040   3.670   1.298 -1.9782 -1.4178 -0.0573
  347MOL0     H47871   9.114   3.677   1.543  1.8191  0.8739 -2.9934
  347MOL0     H47872   9.416   3.986   1.816 -1.8353 -0.2995 -2.1647
  347MOL0     H47873   9.524   3.924   2.025 -1.2611 -0.4111  1.1289
  347MOL0     H47874   9.638   3.758   2.145 -0.1159 -1.7610  1.2317
  347MOL0     H47875   9.576   3.895   2.244  1.4118  0.4305 -3.1070
  347MOL0     H47876   9.658   3.617   2.331  0.4910 -0.1950  0.1459
  347MOL0     H47877   9.550   3.718   2.430  0.9065  1.4256  0.6837
  347MOL0     H47878   9.808   3.721   2.460 -1.4230 -0.8459 -2.0722
  347MOL0     H47879   9.816   3.826   2.315  1.6738  0.1578  0.6462
  347MOL0     H47880   9.663   3.881   2.583 -1.1551  0.0087 -0.3344
  347MOL0     H47881   9.649   3.982   2.441  1.9498  1.7424  0.1911
  347MOL0     H47882  10.053   4.057   2.594  0.0378  1.9575 -2.0299
  347MOL0     H47883   9.212   3.660   2.137  3.1468 -0.8399 -0.0631
  347MOL0     H47884   9.036   3.636   1.871  2.5532 -0.8813  0.1814
  347MOL0     H47885   9.006   3.660   2.048  1.7719  0.7424  0.9353
  347MOL0     H47886   8.970   3.788   1.930 -2.6674 -2.1280  1.2267
  348MOL0     O47887  11.537   9.721   4.515  0.8829 -0.6213  0.0915
  348MOL0     C47888  11.478   9.644   4.441 -0.3542 -0.2051 -0.3789
  348MOL0     O47889  11.394   9.542   4.474 -0.9628  0.7478 -0.0345
  348MOL0     C47890  11.370   9.523   4.608  0.6026  1.1477  1.2905
  348MOL0     C47891  11.237   9.510   4.657 -1.1104  0.0505  0.2558
  348MOL0     C47892  11.206   9.488   4.791 -0.3152 -0.2336 -0.3034
  348MOL0     C47893  11.308   9.468   4.889  0.4618 -0.0115 -0.2925
  348MOL0     O47894  11.265   9.456   5.023  0.1612  0.4826 -0.4720
  348MOL0     C47895  11.346   9.379   5.117  0.6725 -0.0731  0.8960
  348MOL0     C47896  11.245   9.341   5.237 -0.3681 -0.7392  1.6697
  348MOL0     C47897  11.236   9.457   5.344 -1.5477 -0.1678  0.2253
  348MOL0     C47898  11.113   9.438   5.440 -0.3805 -0.3928  0.4658
  348MOL0     C47899  11.115   9.325   5.539  0.1947  0.2024  0.2859
  348MOL0     C47900  10.988   9.315   5.631 -0.0146 -0.0977 -0.2588
  348MOL0     C47901  10.992   9.198   5.742 -0.0689 -0.2930  1.2593
  348MOL0     C47902  11.123   9.194   5.827  0.8802  0.4869  0.3847
  348MOL0     N47903  11.120   9.091   5.940 -0.4852 -0.1023  0.0623
  348MOL0     C47904  11.084   9.108   6.072 -0.1694 -0.7968  0.5140
  348MOL0     C47905  11.108   8.980   6.128  0.3335 -0.1860  0.3623
  348MOL0     C47906  11.088   8.941   6.272 -0.4909  0.2238 -0.7044
  348MOL0     C47907  11.118   9.054   6.373 -1.0152  0.2277  0.9842
  348MOL0     C47908  11.152   8.997   6.513 -0.1535  0.5601 -1.1618
  348MOL0     C47909  11.213   9.101   6.601  0.0234  0.6013 -1.4258
  348MOL0     O47910  11.106   9.197   6.630  0.7659  1.0350  0.1771
  348MOL0     C47911  11.125   9.294   6.720  0.3544  0.3805  0.1289
  348MOL0     C47912  11.256   9.321   6.776  0.7942  0.1217  0.1705
  348MOL0     C47913  11.273   9.440   6.854  0.2212  0.2703 -0.0920
  348MOL0     C47914  11.402   9.451   6.929 -0.3235 -0.0511  0.2599
  348MOL0     C47915  11.172   9.545   6.868  0.7049  0.4237  0.1589
  348MOL0     C47916  11.200   9.673   6.926 -0.8452 -1.4422 -0.2437
  348MOL0     O47917  11.325   9.709   6.920 -0.3031 -0.6772  0.1608
  348MOL0     C47918  11.369   9.829   6.963  0.2740  0.9841  0.3946
  348MOL0     C47919  11.317   9.953   6.919 -0.2691 -0.7997  0.4496
  348MOL0     C47920  11.394  10.077   6.933  0.0120 -0.3447 -0.3060
  348MOL0     C47921  11.520  10.066   6.994 -0.1875 -0.1780  0.3663
  348MOL0     O47922  11.607  10.170   7.014 -0.1854 -0.4003  0.4580
  348MOL0     C47923  11.654  10.231   6.894 -0.2277  0.3471 -0.2893
  348MOL0     C47924  11.801  10.271   6.907 -0.1135 -0.2459  0.2566
  348MOL0     C47925  11.841  10.363   6.793 -0.0540  0.0383  0.7820
  348MOL0     C47926  11.984  10.417   6.800  0.0306 -0.0662 -0.5229
  348MOL0     C47927  12.034  10.490   6.670  0.1245  0.3202  0.1807
  348MOL0     C47928  11.944  10.611   6.641  0.6705 -0.0002 -0.4446
  348MOL0     C47929  12.001  10.714   6.549  0.0220 -0.1863 -0.5987
  348MOL0     C47930  12.022  10.683   6.406 -0.4047  0.3562 -0.1978
  348MOL0    Cl47931  12.168  10.583   6.387 -0.2002 -0.0887  0.0761
  348MOL0     C47932  11.565   9.947   7.037  0.4865  0.4867 -0.8501
  348MOL0     C47933  11.490   9.827   7.032 -0.3018 -0.0706  0.2697
  348MOL0     O47934  11.114   9.736   6.991  0.1113  0.3767  0.3359
  348MOL0     C47935  11.044   9.508   6.809 -0.2902  1.0567 -0.6695
  348MOL0     C47936  11.015   9.392   6.732 -0.8508  0.2676  0.1362
  348MOL0     N47937  11.153   8.893   6.030 -0.7174 -0.4061 -0.5070
  348MOL0     N47938  11.171   8.959   5.918  0.6103  0.2829 -0.7907
  348MOL0     C47939  11.442   9.486   4.847 -0.2646  0.5339 -0.6664
  348MOL0     C47940  11.464   9.510   4.711 -0.1024  0.0171 -0.5281
  348MOL0     C47941  11.498   9.679   4.289  0.8631  0.9273 -0.1471
  348MOL0     C47942  11.554   9.803   4.261  0.2458 -0.7525 -0.3072
  348MOL0     C47943  11.581   9.839   4.129  0.4373 -0.7278  0.2352
  348MOL0     C47944  11.551   9.758   4.022 -0.6907 -0.1047  0.4900
  348MOL0     O47945  11.571   9.781   3.888 -0.3734  0.7943  0.7838
  348MOL0     C47946  11.656   9.886   3.857 -0.5340 -0.1046  1.6355
  348MOL0     C47947  11.802   9.843   3.861 -0.2373  0.2637 -1.0187
  348MOL0     C47948  11.817   9.709   3.781 -0.9484  0.2959  0.2506
  348MOL0     C47949  11.966   9.679   3.759  0.3788 -0.0631  0.7075
  348MOL0     C47950  11.991   9.532   3.733 -0.3211 -0.0814  0.4141
  348MOL0     C47951  11.997   9.412   3.739 -0.2684  0.1723 -0.1517
  348MOL0     C47952  11.497   9.630   4.050  1.1418 -0.2895  0.3377
  348MOL0     C47953  11.455   9.596   4.178 -0.3328  0.0897 -0.0547
  348MOL0     C47954  11.370   9.474   4.196  0.6099 -0.2149  0.0707
  348MOL0     H47955  11.152   9.531   4.593 -2.2356 -2.9546  0.6103
  348MOL0     H47956  11.102   9.473   4.818 -0.3684 -3.1513 -1.7579
  348MOL0     H47957  11.432   9.431   5.159  0.9389 -2.3674  3.4839
  348MOL0     H47958  11.375   9.283   5.075 -3.0182 -1.8430  1.9552
  348MOL0     H47959  11.147   9.312   5.200 -1.0090 -0.0474  2.7549
  348MOL0     H47960  11.288   9.259   5.296 -1.3133 -1.4517  1.3770
  348MOL0     H47961  11.329   9.463   5.400 -0.5743 -2.3747 -1.0424
  348MOL0     H47962  11.223   9.552   5.291 -0.6803 -0.2354 -0.1244
  348MOL0     H47963  11.094   9.534   5.489  3.8257  0.7638  0.2763
  348MOL0     H47964  11.021   9.419   5.383 -0.2747 -2.2957  0.8891
  348MOL0     H47965  11.203   9.346   5.600 -0.6123 -2.2178  2.4436
  348MOL0     H47966  11.139   9.235   5.482  0.3325  0.7445 -0.5299
  348MOL0     H47967  10.976   9.408   5.688  0.5337  0.3176 -0.8044
  348MOL0     H47968  10.895   9.315   5.573  2.1185  1.6242 -4.0418
  348MOL0     H47969  10.980   9.104   5.688 -0.0724  0.5034 -0.1646
  348MOL0     H47970  10.907   9.198   5.812 -0.5507  1.6721  0.7452
  348MOL0     H47971  11.211   9.168   5.769  1.2452 -0.0098  1.1512
  348MOL0     H47972  11.128   9.292   5.876 -3.4134  0.3507  1.4932
  348MOL0     H47973  11.057   9.193   6.135  3.1093  1.3489 -0.7167
  348MOL0     H47974  11.157   8.861   6.301  0.8256  1.1988 -1.0636
  348MOL0     H47975  10.986   8.905   6.290  0.6683 -2.1912  1.7922
  348MOL0     H47976  11.207   9.107   6.336 -2.2327  1.4114 -0.3318
  348MOL0     H47977  11.028   9.116   6.381 -2.3653 -1.7948  2.3133
  348MOL0     H47978  11.055   8.971   6.558 -0.2078  2.0270 -0.3647
  348MOL0     H47979  11.221   8.913   6.520  1.2322  1.7322 -0.3039
  348MOL0     H47980  11.232   9.049   6.696 -2.5446 -0.3890 -1.3624
  348MOL0     H47981  11.303   9.151   6.565  1.8599 -0.3293  1.5264
  348MOL0     H47982  11.344   9.258   6.771  0.3767 -0.9145  3.6048
  348MOL0     H47983  11.463   9.530   6.883 -2.9257  1.5062 -0.7326
  348MOL0     H47984  11.469   9.365   6.920 -0.0170  0.2928 -0.9590
  348MOL0     H47985  11.388   9.481   7.033 -0.4521 -0.8424  0.4723
  348MOL0     H47986  11.221   9.953   6.866  0.1545 -1.7603 -0.3522
  348MOL0     H47987  11.354  10.169   6.893 -1.6552 -1.4481 -1.3263
  348MOL0     H47988  11.639  10.170   6.805 -2.4268  0.8810 -0.3395
  348MOL0     H47989  11.607  10.329   6.880  3.5344  2.3292 -0.6090
  348MOL0     H47990  11.815  10.327   6.999  0.1898 -0.1919  0.1787
  348MOL0     H47991  11.846  10.171   6.908  1.9350  0.6224  2.9572
  348MOL0     H47992  11.766  10.443   6.791  1.0275  1.1136  1.9225
  348MOL0     H47993  11.839  10.311   6.697  0.7889 -0.4656  1.0270
  348MOL0     H47994  12.055  10.335   6.815 -0.4710 -0.1769  1.6484
  348MOL0     H47995  11.996  10.485   6.885 -0.3653 -1.3840  0.6351
  348MOL0     H47996  12.129  10.541   6.689  0.9275 -0.5674 -1.2407
  348MOL0     H47997  12.072  10.420   6.595  1.3980  1.2234 -0.0671
  348MOL0     H47998  11.920  10.668   6.731 -2.5183 -0.4684 -0.9106
  348MOL0     H47999  11.850  10.577   6.596  0.1011  0.3489  0.4627
  348MOL0     H48000  12.102  10.731   6.587 -0.9467  2.0738  1.2299
  348MOL0     H48001  11.940  10.805   6.554 -1.9019 -1.2548 -2.6929
  348MOL0     H48002  12.045  10.773   6.349 -0.2051 -0.7586 -1.9373
  348MOL0     H48003  11.938  10.630   6.360  2.6941 -4.9533 -0.6219
  348MOL0     H48004  11.664   9.959   7.080  0.1742  2.7400 -0.6822
  348MOL0     H48005  11.532   9.731   7.058 -2.1730 -0.6639  1.3540
  348MOL0     H48006  10.960   9.576   6.819 -1.5480 -0.6879  1.8842
  348MOL0     H48007  10.918   9.357   6.699 -0.4109 -1.9447  0.9423
  348MOL0     H48008  11.520   9.479   4.922  1.3906 -0.2254 -2.3764
  348MOL0     H48009  11.568   9.536   4.693  0.3172 -0.9774  0.3012
  348MOL0     H48010  11.587   9.870   4.340 -0.4164  2.2497 -2.4274
  348MOL0     H48011  11.635   9.931   4.111 -1.8514  0.5577 -0.3452
  348MOL0     H48012  11.643   9.917   3.753  0.5046 -1.7392  0.9729
  348MOL0     H48013  11.647   9.971   3.926  1.5269 -1.4831  3.7874
  348MOL0     H48014  11.836   9.832   3.965 -3.1488  3.9119  0.5474
  348MOL0     H48015  11.862   9.925   3.819 -2.2643  2.0559 -0.5685
  348MOL0     H48016  11.775   9.629   3.844  2.1990 -3.2277 -1.6672
  348MOL0     H48017  11.765   9.725   3.687  0.9431  4.0180 -0.3286
  348MOL0     H48018  12.026   9.712   3.844 -0.4583  2.8564  0.2730
  348MOL0     H48019  12.006   9.743   3.680 -1.5274  0.2025 -0.0924
  348MOL0     H48020  11.986   9.306   3.749 -2.4315  0.1261 -2.0565
  348MOL0     H48021  11.483   9.569   3.961 -0.1848  2.3410 -1.4020
  348MOL0     H48022  11.409   9.414   4.278 -1.7713  1.3315  2.5148
  348MOL0     H48023  11.273   9.515   4.226  0.2913 -1.2302  0.4626
  348MOL0     H48024  11.360   9.412   4.107  0.5491 -1.5748  1.0000
  349MOL0     O48025  10.866   3.532   1.880  0.7199  0.6432  0.0099
  349MOL0     C48026  10.746   3.505   1.903  0.4355 -0.1962 -0.0626
  349MOL0     O48027  10.692   3.385   1.879  0.4804  0.0750  0.3742
  349MOL0     C48028  10.773   3.276   1.874 -0.1715  0.3567  0.2804
  349MOL0     C48029  10.748   3.163   1.951  0.2023 -0.4639  0.3661
  349MOL0     C48030  10.828   3.045   1.944 -0.9002 -1.0994  0.4795
  349MOL0     C48031  10.941   3.038   1.853  0.4017  0.4546  0.4020
  349MOL0     O48032  11.023   2.923   1.858 -0.7837 -0.1510 -0.4908
  349MOL0     C48033  11.094   2.881   1.743  0.5029 -0.2882 -0.2690
  349MOL0     C48034  11.196   2.770   1.783  0.3411 -0.5657  0.4739
  349MOL0     C48035  11.322   2.826   1.855  0.0648  0.5185  0.6692
  349MOL0     C48036  11.416   2.710   1.868 -0.6326  0.7514 -0.2786
  349MOL0     C48037  11.559   2.764   1.841 -0.8454  0.9240  0.7938
  349MOL0     C48038  11.682   2.668   1.865 -0.4703  0.0807 -0.1263
  349MOL0     C48039  11.665   2.538   1.783  0.2821  0.1331  0.2971
  349MOL0     C48040  11.787   2.451   1.768 -0.0624  0.5146  0.0521
  349MOL0     N48041  11.760   2.332   1.684  0.0606 -0.3120  0.8245
  349MOL0     C48042  11.725   2.342   1.552  0.4309  0.2675  1.0744
  349MOL0     C48043  11.717   2.209   1.507 -0.3318  1.1384  0.1374
  349MOL0     C48044  11.678   2.155   1.371 -0.2086 -0.4200 -0.2313
  349MOL0     C48045  11.533   2.112   1.375  0.1256  0.6125 -1.0298
  349MOL0     C48046  11.499   2.038   1.240 -0.2105 -0.2828  0.6997
  349MOL0     C48047  11.373   1.960   1.244  0.9014 -0.2405  0.2701
  349MOL0     O48048  11.262   2.042   1.185  0.1205 -0.2524  0.2005
  349MOL0     C48049  11.263   2.086   1.054 -0.3329 -0.8724 -0.3438
  349MOL0     C48050  11.163   2.187   1.018 -0.4624  1.0063  0.1075
  349MOL0     C48051  11.151   2.243   0.894 -0.9393 -0.7619  0.3101
  349MOL0     C48052  11.061   2.360   0.887 -0.3295 -0.3084  0.1571
  349MOL0     C48053  11.241   2.200   0.790  0.0760 -0.7496  0.5291
  349MOL0     C48054  11.263   2.269   0.652  0.0818  0.6874 -0.1568
  349MOL0     O48055  11.289   2.185   0.546 -0.5901  0.2251  0.5917
  349MOL0     C48056  11.333   2.245   0.428 -0.5673  0.2146  0.1156
  349MOL0     C48057  11.263   2.233   0.313 -0.7398 -0.0993 -0.7332
  349MOL0     C48058  11.301   2.286   0.184  1.0803  0.0372  0.0446
  349MOL0     C48059  11.409   2.374   0.188 -0.3113  0.3013  0.8648
  349MOL0     O48060  11.430   2.452   0.080 -0.0248 -0.4591 -0.0455
  349MOL0     C48061  11.566   2.499   0.064  0.5927 -0.1744  0.4423
  349MOL0     C48062  11.575   2.576  -0.070  0.3911 -0.3910 -1.2443
  349MOL0     C48063  11.712   2.647  -0.086  0.0449  0.1044  0.3980
  349MOL0     C48064  11.707   2.734  -0.215 -0.1042 -0.3294 -0.4661
  349MOL0     C48065  11.819   2.830  -0.227  0.8349  1.0076  0.0942
  349MOL0     C48066  11.855   2.857  -0.376 -0.6661 -0.0491  0.8399
  349MOL0     C48067  11.952   2.972  -0.397  1.1480 -1.1594  0.8750
  349MOL0     C48068  12.083   2.936  -0.332  0.1690 -0.6563 -0.0631
  349MOL0    Cl48069  12.166   2.829  -0.437  0.5259  0.5072 -0.0928
  349MOL0     C48070  11.494   2.386   0.305  0.7102  0.1234 -0.0093
  349MOL0     C48071  11.460   2.324   0.425 -0.1105 -0.0374  0.1694
  349MOL0     O48072  11.255   2.393   0.645 -0.3000 -0.2965 -0.0963
  349MOL0     C48073  11.332   2.097   0.819  0.1879  0.9076  0.2845
  349MOL0     C48074  11.336   2.041   0.948  0.0656  0.5783  0.0142
  349MOL0     N48075  11.754   2.133   1.626  0.4304 -0.9019  0.6969
  349MOL0     N48076  11.766   2.208   1.725 -0.6043  0.5780 -0.6740
  349MOL0     C48077  10.957   3.147   1.766  0.4591 -0.7736  0.5534
  349MOL0     C48078  10.869   3.257   1.774 -0.4235 -1.0009 -0.4522
  349MOL0     C48079  10.669   3.619   1.962  0.2673 -0.0454  0.0695
  349MOL0     C48080  10.741   3.727   2.024  0.3846 -0.3505 -0.2844
  349MOL0     C48081  10.684   3.835   2.088 -1.2390 -0.5271 -0.4337
  349MOL0     C48082  10.536   3.838   2.093 -0.4547 -0.8791 -0.2830
  349MOL0     O48083  10.482   3.949   2.152 -0.1998 -0.6565  0.4196
  349MOL0     C48084  10.489   3.942   2.293 -0.3594  0.5159 -1.2665
  349MOL0     C48085  10.449   4.080   2.351 -0.2579  0.7634 -0.0524
  349MOL0     C48086  10.306   4.111   2.328 -0.1840  1.7153 -0.4923
  349MOL0     C48087  10.252   4.234   2.402  0.6384  0.1887 -0.7365
  349MOL0     C48088  10.107   4.254   2.379 -0.1830 -0.1919  0.0799
  349MOL0     C48089   9.989   4.260   2.359  0.5094 -0.5425  0.1693
  349MOL0     C48090  10.464   3.737   2.034  0.5262  0.2437 -0.2861
  349MOL0     C48091  10.526   3.627   1.971  0.2210 -0.2901 -0.5309
  349MOL0     C48092  10.445   3.501   1.934  1.3536 -0.2411  0.0942
  349MOL0     H48093  10.666   3.176   2.021 -1.1949  0.0327 -1.3008
  349MOL0     H48094  10.822   2.963   2.015  0.4413 -0.5362  1.2821
  349MOL0     H48095  11.140   2.957   1.680 -0.8956 -1.1182 -2.4119
  349MOL0     H48096  11.013   2.844   1.679 -1.0623  2.8673 -0.3201
  349MOL0     H48097  11.157   2.689   1.846 -1.3684  0.7232  1.1166
  349MOL0     H48098  11.226   2.721   1.689 -3.3397  0.5780 -1.4838
  349MOL0     H48099  11.374   2.902   1.796  3.1569 -2.2032 -0.4221
  349MOL0     H48100  11.299   2.867   1.954  0.8154  1.7177  0.3764
  349MOL0     H48101  11.417   2.690   1.976  1.0412  1.8418 -0.0565
  349MOL0     H48102  11.398   2.621   1.808  1.5960  0.7325 -1.0043
  349MOL0     H48103  11.575   2.861   1.887 -2.5691  1.2677  0.7602
  349MOL0     H48104  11.557   2.787   1.734  0.9727  0.5526  0.6550
  349MOL0     H48105  11.773   2.717   1.830 -0.3014  0.0788  0.3064
  349MOL0     H48106  11.698   2.642   1.970 -0.6066 -1.6851 -0.5012
  349MOL0     H48107  11.634   2.580   1.686  2.3287  2.2856  0.4975
  349MOL0     H48108  11.596   2.468   1.831  2.0635 -1.3576  0.7968
  349MOL0     H48109  11.877   2.500   1.730  0.4859 -0.5914 -0.1060
  349MOL0     H48110  11.813   2.414   1.867 -0.6537  0.8406  0.3346
  349MOL0     H48111  11.710   2.434   1.497 -1.2282 -0.3003  0.5204
  349MOL0     H48112  11.747   2.075   1.343 -1.8713 -1.6340 -0.9894
  349MOL0     H48113  11.693   2.245   1.310 -1.3084  0.6283  0.9925
  349MOL0     H48114  11.514   2.036   1.451 -2.0030 -0.5565 -2.6182
  349MOL0     H48115  11.467   2.197   1.397  1.1226  1.2201 -0.3354
  349MOL0     H48116  11.503   2.114   1.161  3.1651 -0.5529  0.4639
  349MOL0     H48117  11.582   1.973   1.213  1.3936  1.4921  1.1497
  349MOL0     H48118  11.374   1.864   1.191 -0.9146 -0.5649  0.7572
  349MOL0     H48119  11.341   1.932   1.344 -0.7778  3.4576  0.9083
  349MOL0     H48120  11.103   2.222   1.101 -3.0402 -0.3727 -1.0681
  349MOL0     H48121  10.994   2.336   0.804 -0.3655  2.7258 -0.8052
  349MOL0     H48122  11.110   2.453   0.859 -2.7487  0.0761 -3.4212
  349MOL0     H48123  11.014   2.377   0.984 -0.9208 -2.1254  0.2306
  349MOL0     H48124  11.171   2.177   0.310 -1.0725  0.4654 -1.6482
  349MOL0     H48125  11.232   2.289   0.101 -2.1090  1.9558  2.5058
  349MOL0     H48126  11.586   2.576   0.140  2.0808  2.6009 -2.5256
  349MOL0     H48127  11.647   2.427   0.075  0.3580 -0.4887  0.1071
  349MOL0     H48128  11.564   2.513  -0.158 -0.8131  2.3509 -3.1839
  349MOL0     H48129  11.500   2.653  -0.050 -0.5466 -0.8207 -2.9551
  349MOL0     H48130  11.790   2.571  -0.089 -0.1651 -0.0849 -0.3663
  349MOL0     H48131  11.742   2.711  -0.003 -1.8134 -0.0026  1.2166
  349MOL0     H48132  11.612   2.788  -0.223  0.1631  0.3422  0.7338
  349MOL0     H48133  11.709   2.665  -0.300  3.1867  0.1457 -0.8883
  349MOL0     H48134  11.766   2.921  -0.199 -2.4443 -0.4987 -0.7167
  349MOL0     H48135  11.897   2.795  -0.159  0.0409  2.3494  1.7747
  349MOL0     H48136  11.770   2.868  -0.444  1.4886  0.8880 -1.9134
  349MOL0     H48137  11.896   2.771  -0.429 -4.3116  0.5885 -3.7210
  349MOL0     H48138  11.903   3.058  -0.351 -0.1622 -2.1232  1.3384
  349MOL0     H48139  11.964   2.999  -0.502  2.0937 -0.0872  1.2392
  349MOL0     H48140  12.068   2.887  -0.235 -2.7205 -2.0111 -1.0741
  349MOL0     H48141  12.140   3.029  -0.321  1.4328 -1.5311  1.1054
  349MOL0     H48142  11.576   2.457   0.309  1.8405 -1.1664  0.6299
  349MOL0     H48143  11.502   2.327   0.525 -1.5669  1.7535  0.7967
  349MOL0     H48144  11.406   2.076   0.743  0.0501  1.4205  0.0017
  349MOL0     H48145  11.398   1.952   0.953 -1.3046 -0.3853  0.4617
  349MOL0     H48146  11.045   3.150   1.701 -1.1254 -2.1088 -1.8143
  349MOL0     H48147  10.890   3.346   1.715 -0.2771 -0.1761  0.8166
  349MOL0     H48148  10.849   3.728   2.029  0.3216 -0.4203  2.6259
  349MOL0     H48149  10.744   3.911   2.136 -2.3105 -0.4773  0.8570
  349MOL0     H48150  10.423   3.867   2.339  2.4450  0.5446  3.4777
  349MOL0     H48151  10.584   3.913   2.338 -0.2470  1.2542 -1.0134
  349MOL0     H48152  10.525   4.148   2.312  0.3002  0.4411  0.4584
  349MOL0     H48153  10.460   4.075   2.460  1.3439 -0.0378 -0.2279
  349MOL0     H48154  10.302   4.120   2.219 -1.1069 -4.7172 -1.4121
  349MOL0     H48155  10.248   4.023   2.357  1.7680  0.9020  1.2064
  349MOL0     H48156  10.316   4.315   2.366 -1.4920  1.6477 -1.3722
  349MOL0     H48157  10.265   4.223   2.510 -0.0153 -2.1687 -0.8377
  349MOL0     H48158   9.883   4.250   2.346  0.8103 -3.0663 -0.9579
  349MOL0     H48159  10.356   3.732   2.048  0.3988  3.0333  0.3138
  349MOL0     H48160  10.479   3.420   1.999  2.6862 -0.5746 -0.9912
  349MOL0     H48161  10.336   3.507   1.947  1.3232 -0.1862 -0.1860
  349MOL0     H48162  10.466   3.462   1.835  1.0973  1.3227 -0.6174
  350MOL0     O48163   0.303  11.453   1.681 -0.6408  0.4201  0.3596
  350MOL0     C48164   0.377  11.355   1.694  0.1688  1.5546  0.5996
  350MOL0     O48165   0.492  11.332   1.626  0.5275 -0.6267  0.2679
  350MOL0     C48166   0.571  11.439   1.580 -0.0037 -0.3061  0.0163
  350MOL0     C48167   0.597  11.538   1.678 -0.1246 -0.2106  0.0298
  350MOL0     C48168   0.679  11.647   1.642 -0.1436  0.3957 -1.0966
  350MOL0     C48169   0.725  11.667   1.518  0.6228  0.9750 -0.3532
  350MOL0     O48170   0.796  11.777   1.485 -0.1425  0.0268  0.1027
  350MOL0     C48171   0.763  11.863   1.379 -0.1044 -0.2441  0.7352
  350MOL0     C48172   0.756  12.008   1.433 -0.0662  0.0584 -0.1694
  350MOL0     C48173   0.704  12.116   1.324  0.0963  0.1400 -0.4180
  350MOL0     C48174   0.720  12.256   1.376  0.0609  0.0557 -0.3148
  350MOL0     C48175   0.659  12.356   1.289 -0.2054  0.3690  0.3657
  350MOL0     C48176   0.506  12.358   1.300  0.2987  0.1326 -0.1982
  350MOL0     C48177   0.439  12.498   1.269  0.7124 -0.7744 -1.3631
  350MOL0     C48178   0.476  12.553   1.138  0.3344  0.0891  0.0999
  350MOL0     N48179   0.385  12.671   1.108  0.0333  0.9756 -0.3502
  350MOL0     C48180   0.320  12.684   0.991  0.0458  0.0387  0.7659
  350MOL0     C48181   0.238  12.785   1.008  0.4315 -0.0689  0.2018
  350MOL0     C48182   0.132  12.831   0.907  0.3117  0.2178  0.1058
  350MOL0     C48183   0.198  12.826   0.765 -1.5834  0.9435 -0.0512
  350MOL0     C48184   0.106  12.871   0.653  0.2179 -0.7468 -0.0315
  350MOL0     C48185   0.184  12.920   0.523 -0.9898  0.0196  0.3900
  350MOL0     O48186   0.273  13.036   0.559 -0.9258  0.5415 -0.5933
  350MOL0     C48187   0.320  13.120   0.451  0.7776 -0.0761 -0.4012
  350MOL0     C48188   0.349  13.247   0.491  0.2840  0.0771 -0.6671
  350MOL0     C48189   0.404  13.338   0.401  0.0454  0.3126  0.6013
  350MOL0     C48190   0.460  13.471   0.451 -0.3832 -0.3843 -0.5572
  350MOL0     C48191   0.421  13.301   0.266 -0.2032 -0.7430  0.0452
  350MOL0     C48192   0.463  13.399   0.157  0.2552 -0.6088 -0.9121
  350MOL0     O48193   0.505  13.328   0.042  0.0653  0.0220  0.1442
  350MOL0     C48194   0.560  13.401  -0.058 -0.6629  0.7322 -0.3852
  350MOL0     C48195   0.691  13.449  -0.041 -0.2759 -0.1940 -0.3082
  350MOL0     C48196   0.770  13.511  -0.139  0.4417  0.6486  0.1224
  350MOL0     C48197   0.721  13.511  -0.269 -0.3951  0.3785  0.2752
  350MOL0     O48198   0.806  13.554  -0.373  0.1693  0.2937  0.4917
  350MOL0     C48199   0.745  13.628  -0.487  0.5439 -0.0808  0.1567
  350MOL0     C48200   0.821  13.606  -0.618 -0.1062 -0.5786 -0.9331
  350MOL0     C48201   0.848  13.461  -0.644 -0.7699  0.3076  0.6505
  350MOL0     C48202   0.953  13.451  -0.759  0.6511 -0.0266 -0.0650
  350MOL0     C48203   0.981  13.309  -0.786  0.2875  0.1723  0.2627
  350MOL0     C48204   1.102  13.306  -0.874 -0.0908 -0.1708 -0.2289
  350MOL0     C48205   1.174  13.178  -0.878 -1.1343  0.5076 -0.2218
  350MOL0     C48206   1.259  13.144  -0.753 -0.5929 -0.3236 -0.3580
  350MOL0    Cl48207   1.394  13.265  -0.749 -0.0554 -0.0905  0.1984
  350MOL0     C48208   0.583  13.472  -0.292  0.1007  0.5716 -0.4384
  350MOL0     C48209   0.502  13.415  -0.187 -0.6627  0.1783 -0.6441
  350MOL0     O48210   0.448  13.522   0.163 -0.3929 -0.4790 -0.2050
  350MOL0     C48211   0.390  13.178   0.227  0.3169  0.2652 -0.5486
  350MOL0     C48212   0.341  13.074   0.323 -1.3871 -0.7217  0.0174
  350MOL0     N48213   0.277  12.855   1.125  0.4884  0.2880 -0.4784
  350MOL0     N48214   0.367  12.776   1.184 -0.4059 -0.1268 -0.0928
  350MOL0     C48215   0.699  11.554   1.420 -1.1500 -0.1211 -0.6170
  350MOL0     C48216   0.624  11.446   1.451  0.3448 -0.1773  0.4164
  350MOL0     C48217   0.331  11.241   1.781  0.5524 -0.0668  0.3628
  350MOL0     C48218   0.427  11.140   1.821  0.2454  0.7189 -0.2828
  350MOL0     C48219   0.403  11.034   1.910  0.4833  0.5202  0.1240
  350MOL0     C48220   0.277  11.004   1.955  0.3706  1.0735 -0.1544
  350MOL0     O48221   0.253  10.901   2.047 -0.4792  0.7766  0.0434
  350MOL0     C48222   0.123  10.836   2.045 -0.3888  0.0588  0.8217
  350MOL0     C48223   0.114  10.700   2.126  0.8122 -0.5206  0.0035
  350MOL0     C48224  -0.004  10.612   2.072 -0.5479  0.5619 -1.0296
  350MOL0     C48225  -0.046  10.500   2.172 -0.3196  0.0953  1.1619
  350MOL0     C48226   0.066  10.435   2.237  0.7534 -0.3375 -0.3226
  350MOL0     C48227   0.165  10.384   2.296 -0.6011  0.5034  0.0491
  350MOL0     C48228   0.176  11.097   1.918 -0.4932  1.2479  1.1493
  350MOL0     C48229   0.203  11.210   1.837 -0.1339 -0.5539  0.0126
  350MOL0     C48230   0.078  11.298   1.804 -0.1249  1.4607 -0.1487
  350MOL0     H48231   0.556  11.529   1.778 -2.5473 -0.1588 -0.8851
  350MOL0     H48232   0.711  11.719   1.717 -0.1461  1.0137 -1.6754
  350MOL0     H48233   0.672  11.842   1.322  1.4671  0.9616 -2.4379
  350MOL0     H48234   0.838  11.852   1.300  0.5449  2.4518  0.8829
  350MOL0     H48235   0.693  12.006   1.521  2.1168 -2.1520  1.4866
  350MOL0     H48236   0.854  12.038   1.473  0.0243  1.3711 -1.2822
  350MOL0     H48237   0.767  12.105   1.235  1.3985 -3.1594  0.7587
  350MOL0     H48238   0.601  12.098   1.293  0.2794  0.7104 -1.3906
  350MOL0     H48239   0.682  12.263   1.479  0.6621 -0.2584 -0.0694
  350MOL0     H48240   0.828  12.272   1.382  0.5884 -2.7189 -1.1294
  350MOL0     H48241   0.688  12.320   1.190  1.7063 -0.0499  1.0302
  350MOL0     H48242   0.708  12.452   1.313  1.5299  0.0362 -1.5070
  350MOL0     H48243   0.466  12.284   1.229  0.7661 -1.0226  0.7096
  350MOL0     H48244   0.466  12.336   1.399  3.7251 -0.9288  1.0781
  350MOL0     H48245   0.482  12.560   1.348  2.0945 -3.8203  0.4471
  350MOL0     H48246   0.330  12.485   1.260  0.6326 -0.2673 -1.1869
  350MOL0     H48247   0.581  12.585   1.134  0.6518 -0.8335  0.6106
  350MOL0     H48248   0.476  12.474   1.061  1.3866  0.7817 -0.6482
  350MOL0     H48249   0.319  12.615   0.906  1.9997 -1.4564  1.8691
  350MOL0     H48250   0.083  12.921   0.945  0.3218  0.1706  0.2327
  350MOL0     H48251   0.048  12.760   0.905 -0.8398  1.3237  3.1353
  350MOL0     H48252   0.295  12.877   0.766 -1.1454  0.1265 -0.0081
  350MOL0     H48253   0.220  12.722   0.740  2.0867  1.7527 -0.8304
  350MOL0     H48254   0.041  12.787   0.627 -0.6696 -1.0823  2.9170
  350MOL0     H48255   0.042  12.951   0.692  4.9307  2.3106  2.5381
  350MOL0     H48256   0.241  12.840   0.473 -1.0124 -0.1710  0.6680
  350MOL0     H48257   0.116  12.953   0.444 -0.2332 -0.8079 -0.6413
  350MOL0     H48258   0.324  13.273   0.593 -0.9992  2.1651 -1.4499
  350MOL0     H48259   0.555  13.492   0.401 -1.0963  0.7323 -1.5013
  350MOL0     H48260   0.484  13.479   0.557  0.6607 -1.0666 -0.7344
  350MOL0     H48261   0.390  13.551   0.425 -1.8977 -1.2372  0.7476
  350MOL0     H48262   0.736  13.440   0.057  0.1570  1.5028 -0.3062
  350MOL0     H48263   0.871  13.547  -0.121  1.5553 -0.7067 -2.6855
  350MOL0     H48264   0.647  13.590  -0.515 -0.0805 -2.4206  4.5425
  350MOL0     H48265   0.741  13.735  -0.462  2.6941  0.0351  0.2426
  350MOL0     H48266   0.767  13.638  -0.708  0.5088 -0.6236 -1.3246
  350MOL0     H48267   0.916  13.658  -0.603 -0.3708 -0.6582  1.4437
  350MOL0     H48268   0.761  13.407  -0.682  0.7654 -1.7437 -0.1634
  350MOL0     H48269   0.900  13.411  -0.562 -0.6136 -1.9112 -0.7179
  350MOL0     H48270   1.037  13.512  -0.726 -0.5177  1.5551  0.0956
  350MOL0     H48271   0.918  13.496  -0.852  0.1399  0.7706  0.4957
  350MOL0     H48272   1.003  13.260  -0.691 -1.7969 -0.3998  0.4887
  350MOL0     H48273   0.893  13.262  -0.829  1.9654  0.7809 -4.4120
  350MOL0     H48274   1.171  13.387  -0.849 -1.1892  0.0638  2.2851
  350MOL0     H48275   1.066  13.342  -0.971  0.7092  0.7315 -0.2061
  350MOL0     H48276   1.245  13.163  -0.959 -1.1398  0.0865 -0.1528
  350MOL0     H48277   1.114  13.090  -0.904  1.2129 -1.2323 -0.0154
  350MOL0     H48278   1.297  13.043  -0.771  0.4892  0.1209 -0.6588
  350MOL0     H48279   1.195  13.141  -0.664  0.9123 -3.7814  0.7848
  350MOL0     H48280   0.540  13.472  -0.391  0.0827  0.5932 -0.4302
  350MOL0     H48281   0.396  13.397  -0.200 -0.4135 -3.7574  1.2485
  350MOL0     H48282   0.394  13.145   0.124  1.4941 -2.0200  0.1504
  350MOL0     H48283   0.309  12.974   0.298 -0.5075 -1.1688  0.6116
  350MOL0     H48284   0.719  11.561   1.314 -1.6407  1.7448 -0.6234
  350MOL0     H48285   0.605  11.367   1.380 -0.6484  1.4269 -1.1754
  350MOL0     H48286   0.528  11.137   1.781  0.5955 -0.1212  0.5933
  350MOL0     H48287   0.487  10.977   1.948  1.6836  0.4215 -2.5103
  350MOL0     H48288   0.045  10.891   2.097 -1.0274  0.4521 -0.5166
  350MOL0     H48289   0.098  10.817   1.940  2.6908  1.3270 -0.2838
  350MOL0     H48290   0.101  10.709   2.235  0.9046 -0.8068  0.0380
  350MOL0     H48291   0.209  10.648   2.112  0.1486 -1.2880 -1.9145
  350MOL0     H48292  -0.088  10.680   2.054  0.1168  1.1394 -2.0268
  350MOL0     H48293   0.016  10.566   1.975  0.2980  0.0119 -0.6081
  350MOL0     H48294  -0.096  10.415   2.124 -0.6285  2.0669 -2.3804
  350MOL0     H48295  -0.107  10.537   2.255 -1.8605 -3.5899  1.8558
  350MOL0     H48296   0.240  10.351   2.365 -2.4931  0.5276  2.2419
  350MOL0     H48297   0.072  11.085   1.950 -1.4453 -1.3818 -2.2568
  350MOL0     H48298  -0.019  11.276   1.851 -0.6864  1.7247 -1.1550
  350MOL0     H48299   0.089  11.406   1.796 -2.3494  1.6330 -1.9929
  350MOL0     H48300   0.056  11.255   1.706 -1.9094  0.3744  0.6688
  351MOL0     O48301   1.781   4.697   0.304  0.7012 -0.4179  0.3634
  351MOL0     C48302   1.704   4.778   0.351  0.3338 -0.1881  0.2327
  351MOL0     O48303   1.596   4.826   0.286 -0.1018  0.3127  0.2505
  351MOL0     C48304   1.542   4.753   0.184  0.0183 -0.4450  0.8165
  351MOL0     C48305   1.568   4.771   0.054 -0.9653  0.7530 -0.7476
  351MOL0     C48306   1.517   4.684  -0.044  0.7851  0.3684  0.7306
  351MOL0     C48307   1.431   4.581  -0.007 -0.1652 -0.1132  0.7556
  351MOL0     O48308   1.362   4.497  -0.089 -0.5957  1.0109 -0.1787
  351MOL0     C48309   1.289   4.561  -0.188  1.0304  0.2032  0.3955
  351MOL0     C48310   1.186   4.454  -0.254 -0.7741 -0.1611  0.3153
  351MOL0     C48311   1.160   4.483  -0.400  1.0973  0.2039 -0.2277
  351MOL0     C48312   1.255   4.395  -0.470 -0.3571  0.2971 -0.2405
  351MOL0     C48313   1.262   4.415  -0.621 -0.1337  0.5531  0.6203
  351MOL0     C48314   1.389   4.364  -0.676 -0.4020  0.6779 -1.7004
  351MOL0     C48315   1.390   4.353  -0.825 -0.2864 -0.8864  0.5552
  351MOL0     C48316   1.489   4.452  -0.894 -1.1437  0.4445  0.2135
  351MOL0     N48317   1.519   4.414  -1.036  0.4152 -0.6768 -0.2726
  351MOL0     C48318   1.505   4.287  -1.090  0.1879  0.0907 -0.4137
  351MOL0     C48319   1.548   4.294  -1.222  0.6202 -0.1877  0.2517
  351MOL0     C48320   1.532   4.183  -1.322  0.6454 -0.7994 -1.0135
  351MOL0     C48321   1.666   4.121  -1.354  0.2813 -0.6594  0.4361
  351MOL0     C48322   1.731   4.192  -1.470  0.6138  0.2521 -0.5339
  351MOL0     C48323   1.870   4.159  -1.483  0.7397 -0.2763  0.5928
  351MOL0     O48324   1.885   4.018  -1.523  0.0034  0.7809  0.6573
  351MOL0     C48325   2.003   3.949  -1.532 -0.6178  0.1870  0.4487
  351MOL0     C48326   2.004   3.828  -1.595 -0.5959 -0.4392  0.0636
  351MOL0     C48327   2.128   3.753  -1.599 -0.3149 -0.4030  0.2879
  351MOL0     C48328   2.116   3.615  -1.657 -0.0557 -0.0881  0.1347
  351MOL0     C48329   2.252   3.816  -1.558 -0.0065  0.5720 -0.2950
  351MOL0     C48330   2.386   3.760  -1.576 -0.8257  0.5842 -1.1369
  351MOL0     O48331   2.487   3.826  -1.501  0.1693  0.5534  0.6872
  351MOL0     C48332   2.623   3.791  -1.504  1.1582  0.6453 -1.2343
  351MOL0     C48333   2.696   3.896  -1.450 -0.4705 -0.2928  0.1297
  351MOL0     C48334   2.833   3.890  -1.466  1.2016  0.7401  0.2128
  351MOL0     C48335   2.898   3.779  -1.508  0.7086  0.2420 -0.9785
  351MOL0     O48336   3.031   3.764  -1.508 -0.3638 -0.1256 -0.4087
  351MOL0     C48337   3.118   3.874  -1.530 -0.2675 -0.8192  0.0277
  351MOL0     C48338   3.257   3.814  -1.513 -0.3805 -0.6540  0.1409
  351MOL0     C48339   3.384   3.907  -1.545  0.2752  0.2820  0.0354
  351MOL0     C48340   3.398   4.030  -1.450 -0.5440  1.0846 -0.3778
  351MOL0     C48341   3.456   3.976  -1.317  0.2228 -0.1085  0.0352
  351MOL0     C48342   3.460   4.082  -1.209 -0.0584  0.7801  0.9024
  351MOL0     C48343   3.538   4.033  -1.082  0.0402  0.4993  0.2775
  351MOL0     C48344   3.493   4.110  -0.952 -0.0099  0.3796 -0.0538
  351MOL0    Cl48345   3.574   4.269  -0.951 -0.6861  0.0075 -0.6791
  351MOL0     C48346   2.819   3.672  -1.553 -0.1595 -0.2699  0.7101
  351MOL0     C48347   2.685   3.675  -1.549 -0.3088 -0.9559 -0.2499
  351MOL0     O48348   2.409   3.661  -1.637  0.1590  0.1167 -0.4212
  351MOL0     C48349   2.239   3.942  -1.511  0.1011  0.1695 -0.0087
  351MOL0     C48350   2.123   4.002  -1.489  0.7022  0.6949  0.4359
  351MOL0     N48351   1.584   4.426  -1.241 -1.0260 -0.3927 -0.0291
  351MOL0     N48352   1.570   4.498  -1.132  0.5187  0.4074  0.0385
  351MOL0     C48353   1.395   4.564   0.126 -0.6887 -1.4379 -0.6061
  351MOL0     C48354   1.449   4.653   0.220  0.1367 -0.3626 -0.1253
  351MOL0     C48355   1.727   4.861   0.475  0.2136  0.0332  0.5497
  351MOL0     C48356   1.636   4.973   0.496 -0.3807 -0.3217 -0.4413
  351MOL0     C48357   1.668   5.067   0.595  0.2152 -0.3013  0.4442
  351MOL0     C48358   1.779   5.050   0.679  0.2630  0.4823  0.0944
  351MOL0     O48359   1.805   5.129   0.790  0.5606 -0.7104  0.3145
  351MOL0     C48360   1.810   5.273   0.765 -0.0787  0.6593  0.0806
  351MOL0     C48361   1.940   5.317   0.827 -0.1630 -0.3142  0.7412
  351MOL0     C48362   1.946   5.292   0.975 -0.5011 -1.0314 -0.0904
  351MOL0     C48363   2.081   5.326   1.046 -0.8224 -0.2814 -0.1973
  351MOL0     C48364   2.073   5.280   1.180 -0.6263 -0.0068  0.7632
  351MOL0     C48365   2.072   5.252   1.293  0.7247  0.7701  0.4180
  351MOL0     C48366   1.858   4.937   0.656 -0.1162 -1.3697  0.2504
  351MOL0     C48367   1.837   4.845   0.562 -0.3390 -1.0607  0.2816
  351MOL0     C48368   1.933   4.728   0.554  0.1638 -0.1545  0.7797
  351MOL0     H48369   1.648   4.841   0.033 -1.3839  1.0415 -1.4060
  351MOL0     H48370   1.551   4.701  -0.146  0.5713  1.3544  0.8209
  351MOL0     H48371   1.362   4.595  -0.262 -3.1870 -0.9020 -4.9271
  351MOL0     H48372   1.232   4.647  -0.153  1.9460 -0.0491  2.6522
  351MOL0     H48373   1.245   4.362  -0.244  0.4444  0.6773  1.0649
  351MOL0     H48374   1.095   4.446  -0.193 -0.7974 -0.3965  0.2483
  351MOL0     H48375   1.054   4.462  -0.412  0.9838 -0.3157  1.4147
  351MOL0     H48376   1.180   4.588  -0.427 -1.3361  0.8718  0.3547
  351MOL0     H48377   1.359   4.404  -0.436 -0.2665 -1.5943  0.0624
  351MOL0     H48378   1.241   4.288  -0.452  3.9736 -0.8441 -2.3830
  351MOL0     H48379   1.269   4.522  -0.640  2.2207  0.4365  0.6315
  351MOL0     H48380   1.174   4.371  -0.670  0.0095  1.7690 -0.8141
  351MOL0     H48381   1.465   4.426  -0.628 -2.0218  1.4692 -0.0371
  351MOL0     H48382   1.403   4.264  -0.633  3.5190  2.3184  1.4011
  351MOL0     H48383   1.290   4.379  -0.858 -0.9672 -1.3395  2.1652
  351MOL0     H48384   1.401   4.245  -0.833 -2.9687 -1.1275 -0.7631
  351MOL0     H48385   1.436   4.547  -0.898 -0.1805  1.0342  1.1475
  351MOL0     H48386   1.575   4.451  -0.827 -2.1318  2.3955  1.5831
  351MOL0     H48387   1.463   4.198  -1.043  1.6015  0.0238  0.7773
  351MOL0     H48388   1.477   4.226  -1.406 -2.0720 -1.1565  0.4725
  351MOL0     H48389   1.470   4.105  -1.279  0.8091 -0.8312 -0.8309
  351MOL0     H48390   1.732   4.112  -1.267 -1.0961  2.8514  2.0316
  351MOL0     H48391   1.636   4.021  -1.387 -2.3826  0.9145 -2.4201
  351MOL0     H48392   1.673   4.167  -1.559  0.0852 -1.5671  0.2666
  351MOL0     H48393   1.733   4.300  -1.453  1.3249 -0.1882  2.9998
  351MOL0     H48394   1.916   4.227  -1.555 -2.4194 -0.3967 -1.7721
  351MOL0     H48395   1.913   4.167  -1.383  0.1579 -1.1482  0.9291
  351MOL0     H48396   1.917   3.779  -1.637  0.2438 -0.6401 -1.5617
  351MOL0     H48397   2.195   3.595  -1.730  0.0040 -3.5268  0.9810
  351MOL0     H48398   2.028   3.615  -1.722  0.6482 -0.6727 -0.8453
  351MOL0     H48399   2.105   3.530  -1.590  0.0443  0.2694  0.6110
  351MOL0     H48400   2.640   3.972  -1.397 -2.1280 -1.7861  0.5824
  351MOL0     H48401   2.892   3.976  -1.434  4.9101 -1.9808  1.4369
  351MOL0     H48402   3.110   3.922  -1.627  0.7968 -1.6597 -0.4914
  351MOL0     H48403   3.099   3.960  -1.465 -0.6410 -2.0108  1.5617
  351MOL0     H48404   3.268   3.772  -1.412 -1.3483 -1.9887 -0.2827
  351MOL0     H48405   3.267   3.733  -1.586  3.6381 -0.3285  0.0934
  351MOL0     H48406   3.374   3.951  -1.645  1.4409  1.3725  0.3717
  351MOL0     H48407   3.474   3.845  -1.545 -0.8068 -1.3608 -1.0278
  351MOL0     H48408   3.303   4.073  -1.418  0.9028  3.9207  0.4074
  351MOL0     H48409   3.459   4.107  -1.499 -0.1860  0.8431 -0.3147
  351MOL0     H48410   3.396   3.893  -1.280 -0.5215 -0.0723 -1.0588
  351MOL0     H48411   3.560   3.942  -1.324 -0.2963 -2.6731  2.8271
  351MOL0     H48412   3.358   4.104  -1.178 -2.0252 -3.1094 -1.9331
  351MOL0     H48413   3.504   4.174  -1.249  1.2360  0.5924  1.8497
  351MOL0     H48414   3.645   4.033  -1.107 -0.1326 -2.0257 -0.7862
  351MOL0     H48415   3.521   3.927  -1.060 -0.3772  0.3866 -0.5811
  351MOL0     H48416   3.530   4.060  -0.862  2.3362  2.7601  0.4335
  351MOL0     H48417   3.387   4.129  -0.936  0.0826 -0.0941  1.1934
  351MOL0     H48418   2.858   3.574  -1.579  0.9001  1.1210 -3.8755
  351MOL0     H48419   2.623   3.589  -1.574  1.2731 -1.7251 -1.6885
  351MOL0     H48420   2.328   4.004  -1.503  1.7081 -2.0098 -0.0601
  351MOL0     H48421   2.134   4.103  -1.451 -1.6532  0.3331  2.2353
  351MOL0     H48422   1.326   4.482   0.143  1.6798 -3.6970 -1.1231
  351MOL0     H48423   1.421   4.653   0.325 -0.6827  0.8698 -0.3189
  351MOL0     H48424   1.548   4.992   0.435 -1.7792  1.9298  2.0770
  351MOL0     H48425   1.608   5.154   0.622 -0.4934 -0.8316  0.5925
  351MOL0     H48426   1.808   5.296   0.658 -1.2914 -0.4269 -0.1579
  351MOL0     H48427   1.728   5.327   0.813 -0.9854 -1.5924  1.2079
  351MOL0     H48428   1.952   5.424   0.814 -0.0840 -0.4525 -0.4933
  351MOL0     H48429   2.022   5.272   0.769 -1.6411 -1.3454 -0.6304
  351MOL0     H48430   1.867   5.352   1.024 -0.3806  0.7479 -1.9563
  351MOL0     H48431   1.932   5.184   0.978  1.0722 -1.2422  0.3119
  351MOL0     H48432   2.097   5.434   1.047  4.7520 -0.8096  1.6301
  351MOL0     H48433   2.160   5.275   0.990 -0.3336 -0.7749  0.9273
  351MOL0     H48434   2.062   5.224   1.396  0.9056 -1.5427 -0.1378
  351MOL0     H48435   1.947   4.935   0.719  0.9549 -1.1889 -1.2001
  351MOL0     H48436   1.874   4.636   0.566 -0.4417  0.3971  2.3697
  351MOL0     H48437   1.989   4.732   0.460 -2.0720  0.7607 -0.5949
  351MOL0     H48438   2.000   4.735   0.640  3.0834  2.2305 -1.4778
  352MOL0     O48439  10.365   5.725   5.014  0.0654  0.4073  0.5043
  352MOL0     C48440  10.422   5.653   4.929  0.0973 -0.1690 -0.0981
  352MOL0     O48441  10.557   5.608   4.935 -0.2696  0.3107  0.5318
  352MOL0     C48442  10.620   5.681   5.026 -0.0991 -0.9170 -0.2367
  352MOL0     C48443  10.662   5.627   5.144 -0.1102  0.2075  0.1614
  352MOL0     C48444  10.747   5.700   5.223  0.9558 -0.0566 -0.0741
  352MOL0     C48445  10.792   5.836   5.197 -0.6470  0.0434 -0.2521
  352MOL0     O48446  10.889   5.896   5.274  0.5007  0.4042 -0.2726
  352MOL0     C48447  10.871   5.887   5.414  0.9630 -0.1487  0.6035
  352MOL0     C48448  10.892   6.018   5.474 -0.3069 -0.5342 -0.5602
  352MOL0     C48449  11.043   6.047   5.487  0.2540 -0.0119  0.3631
  352MOL0     C48450  11.068   6.123   5.619 -0.5395  0.3666 -0.1009
  352MOL0     C48451  11.204   6.194   5.603 -0.2979  0.0808  1.0640
  352MOL0     C48452  11.226   6.256   5.736 -0.2853 -0.1847 -0.5014
  352MOL0     C48453  11.358   6.330   5.736 -0.5895 -1.1685  0.4976
  352MOL0     C48454  11.365   6.463   5.649 -0.8307  0.3811 -0.6298
  352MOL0     N48455  11.269   6.568   5.676 -0.8828 -0.1447  0.9315
  352MOL0     C48456  11.228   6.656   5.573  0.5100 -0.1393 -0.0473
  352MOL0     C48457  11.141   6.738   5.640 -0.0552 -0.3631  0.1676
  352MOL0     C48458  11.090   6.863   5.577 -0.5397 -0.0570 -0.0428
  352MOL0     C48459  10.980   6.924   5.665  0.6303  0.1559  0.3501
  352MOL0     C48460  10.903   7.032   5.600 -0.5522 -0.8467 -0.2059
  352MOL0     C48461  10.980   7.165   5.558  0.1168 -0.8170 -0.5093
  352MOL0     O48462  11.066   7.142   5.439 -0.1535 -0.7777 -0.3574
  352MOL0     C48463  11.014   7.104   5.315 -0.1405  0.0485  0.7113
  352MOL0     C48464  11.091   7.061   5.206 -0.4763  0.8398 -0.4524
  352MOL0     C48465  11.050   7.032   5.077 -0.0271 -0.5267 -0.7561
  352MOL0     C48466  11.152   6.977   4.976  0.7155 -0.1636  0.8146
  352MOL0     C48467  10.916   7.050   5.051  0.4329  0.1218 -0.6088
  352MOL0     C48468  10.851   7.043   4.918 -0.7743 -0.0715 -0.1213
  352MOL0     O48469  10.726   7.004   4.914 -0.4317  0.3058  0.0577
  352MOL0     C48470  10.676   6.954   4.799 -0.4379  0.0717 -0.3842
  352MOL0     C48471  10.553   7.001   4.763 -1.5775  0.2492  0.6793
  352MOL0     C48472  10.504   6.970   4.638  0.6078  0.0056 -0.9073
  352MOL0     C48473  10.577   6.891   4.548 -0.3358  0.4289 -0.3899
  352MOL0     O48474  10.540   6.860   4.420  0.1840  0.1781 -0.2895
  352MOL0     C48475  10.403   6.815   4.423  0.1226  0.5540  0.4502
  352MOL0     C48476  10.360   6.747   4.295  0.1149  0.3204  0.1800
  352MOL0     C48477  10.355   6.843   4.169 -0.3261 -0.0451  0.4056
  352MOL0     C48478  10.322   6.775   4.040  0.2261 -0.3289  0.4164
  352MOL0     C48479  10.308   6.862   3.922 -0.3304  0.6285  0.1961
  352MOL0     C48480  10.294   6.792   3.783 -0.2723 -0.0345 -0.3289
  352MOL0     C48481  10.161   6.710   3.755 -0.4158 -1.2001  0.8821
  352MOL0     C48482  10.150   6.617   3.629 -0.5797 -0.6600 -0.1009
  352MOL0    Cl48483  10.259   6.479   3.657  0.0064 -0.4940 -0.2377
  352MOL0     C48484  10.696   6.828   4.585  0.5365  0.1669 -0.3007
  352MOL0     C48485  10.750   6.863   4.702 -0.1632  0.9212 -0.0943
  352MOL0     O48486  10.921   7.067   4.825  0.0946  0.4429 -0.5164
  352MOL0     C48487  10.828   7.078   5.160 -0.6476 -0.9114  0.1284
  352MOL0     C48488  10.874   7.111   5.290 -0.1995 -0.1929  0.2016
  352MOL0     N48489  11.125   6.696   5.771 -0.1290  0.2795  0.1376
  352MOL0     N48490  11.194   6.590   5.784  0.8392  0.7938  0.7815
  352MOL0     C48491  10.754   5.891   5.074  0.5079 -0.0901  0.1990
  352MOL0     C48492  10.671   5.813   4.990 -0.0262  0.3336 -0.2887
  352MOL0     C48493  10.352   5.625   4.798  0.5986 -0.3948 -0.0563
  352MOL0     C48494  10.429   5.643   4.679  0.8557  0.6556  0.3723
  352MOL0     C48495  10.371   5.630   4.549  0.3171  0.2479  0.5961
  352MOL0     C48496  10.237   5.595   4.535  0.3271  0.1024 -0.6500
  352MOL0     O48497  10.177   5.575   4.417 -0.1363 -0.1397  0.5873
  352MOL0     C48498  10.056   5.499   4.400 -0.0178  0.7147  0.3495
  352MOL0     C48499  10.041   5.439   4.261 -0.7348  0.0417 -0.6686
  352MOL0     C48500  10.051   5.286   4.268  0.2816  0.8659  0.2251
  352MOL0     C48501  10.080   5.232   4.126 -0.1187 -0.2965 -0.5121
  352MOL0     C48502   9.976   5.268   4.019 -0.4819 -0.4119 -0.9381
  352MOL0     C48503   9.895   5.291   3.932  0.4926  0.1281  0.2991
  352MOL0     C48504  10.170   5.577   4.658  0.9020 -0.0425 -0.3470
  352MOL0     C48505  10.219   5.585   4.783  0.2774  0.2482  0.1940
  352MOL0     C48506  10.106   5.574   4.884  0.5594 -0.5867 -0.4051
  352MOL0     H48507  10.646   5.526   5.181 -0.8372  0.7547  1.3973
  352MOL0     H48508  10.778   5.650   5.313 -0.2488 -3.1030 -1.2235
  352MOL0     H48509  10.936   5.811   5.459 -0.3763  0.9987  4.9928
  352MOL0     H48510  10.766   5.867   5.438  1.2501 -1.0999  1.1248
  352MOL0     H48511  10.834   6.084   5.410 -0.2181 -0.8299 -0.9476
  352MOL0     H48512  10.850   6.014   5.575  0.7273 -2.1962 -0.1445
  352MOL0     H48513  11.099   5.953   5.480 -0.7851 -0.5547 -1.3821
  352MOL0     H48514  11.071   6.111   5.403  1.4233 -1.3904 -0.3405
  352MOL0     H48515  10.983   6.187   5.646  0.4575 -0.1101  5.2320
  352MOL0     H48516  11.086   6.050   5.698 -1.7166 -0.8371 -0.9152
  352MOL0     H48517  11.191   6.263   5.519  3.9290 -0.2146 -0.0463
  352MOL0     H48518  11.283   6.121   5.583  0.8585  0.4969  3.6982
  352MOL0     H48519  11.149   6.327   5.767 -0.6315 -1.7707  2.7624
  352MOL0     H48520  11.228   6.176   5.811 -0.4746 -0.7829 -1.1287
  352MOL0     H48521  11.433   6.255   5.709 -1.1322 -2.0105  1.2806
  352MOL0     H48522  11.380   6.371   5.836  0.7378  1.3801 -0.7344
  352MOL0     H48523  11.452   6.523   5.674  1.2609 -0.8718 -4.1638
  352MOL0     H48524  11.362   6.435   5.543 -0.6176  3.0703 -1.4082
  352MOL0     H48525  11.269   6.657   5.473  0.0952 -2.5567 -0.2980
  352MOL0     H48526  11.061   6.826   5.479  0.4860  2.3760 -1.3407
  352MOL0     H48527  11.169   6.937   5.566  1.0495 -0.9082  3.9141
  352MOL0     H48528  10.912   6.848   5.706  1.8601 -0.9566  0.3813
  352MOL0     H48529  11.030   6.969   5.751 -0.8770  1.5626  0.5567
  352MOL0     H48530  10.844   7.001   5.513  0.3208 -0.9292 -0.7780
  352MOL0     H48531  10.824   7.069   5.667  0.8697  5.6453 -1.4176
  352MOL0     H48532  10.904   7.241   5.535 -0.4825 -0.9867  0.8255
  352MOL0     H48533  11.048   7.208   5.633  1.7453 -1.0753 -1.7740
  352MOL0     H48534  11.197   7.053   5.223 -0.1866  1.0107 -2.0115
  352MOL0     H48535  11.115   6.883   4.933  2.2196 -0.1103 -0.6642
  352MOL0     H48536  11.252   6.946   5.008  2.0348  1.5672 -1.3296
  352MOL0     H48537  11.164   7.045   4.892 -2.3521 -3.1124 -2.3119
  352MOL0     H48538  10.501   7.064   4.834  1.1216  1.1899  1.9577
  352MOL0     H48539  10.409   7.017   4.615 -0.0084  0.1096  1.5712
  352MOL0     H48540  10.389   6.749   4.509 -2.0603  0.9299  0.4407
  352MOL0     H48541  10.335   6.898   4.446 -2.4980 -0.9357 -1.2361
  352MOL0     H48542  10.438   6.672   4.275  0.5543  1.4110 -2.6804
  352MOL0     H48543  10.264   6.695   4.290  1.7115 -2.8921 -0.1005
  352MOL0     H48544  10.454   6.887   4.158  0.1542 -1.6891 -4.3048
  352MOL0     H48545  10.274   6.916   4.181  1.5217  2.3261 -0.7171
  352MOL0     H48546  10.230   6.720   4.062 -0.4942  1.3949  2.0025
  352MOL0     H48547  10.401   6.701   4.022 -1.1666 -1.5543 -1.0286
  352MOL0     H48548  10.215   6.920   3.929 -0.4834  0.6391 -1.4225
  352MOL0     H48549  10.397   6.925   3.924 -0.8917  1.4518  2.1867
  352MOL0     H48550  10.376   6.721   3.773 -0.8286 -0.6634 -0.5302
  352MOL0     H48551  10.304   6.866   3.702 -0.0388 -0.7837 -0.9975
  352MOL0     H48552  10.097   6.799   3.747  0.0439 -0.7542  1.9442
  352MOL0     H48553  10.146   6.647   3.843 -0.0373  1.4560  2.9866
  352MOL0     H48554  10.172   6.669   3.536 -4.9490  2.3517  0.2632
  352MOL0     H48555  10.051   6.573   3.611  0.7463 -3.4790 -1.0916
  352MOL0     H48556  10.744   6.757   4.519  0.5127  0.6747 -0.8681
  352MOL0     H48557  10.848   6.824   4.726  0.3537  1.8711 -0.5849
  352MOL0     H48558  10.722   7.083   5.134 -0.8064 -0.3767  0.8308
  352MOL0     H48559  10.793   7.134   5.358  1.1106  0.6241  1.5396
  352MOL0     H48560  10.786   5.990   5.045 -4.1499  2.9384  3.8342
  352MOL0     H48561  10.643   5.857   4.895  1.0013  2.3223  0.2819
  352MOL0     H48562  10.531   5.680   4.679  1.8840 -1.9446  0.2958
  352MOL0     H48563  10.422   5.639   4.453 -1.4621 -0.8501 -0.5167
  352MOL0     H48564  10.051   5.419   4.475 -0.1546 -0.7687 -1.1816
  352MOL0     H48565   9.966   5.560   4.411  0.0345  0.5985  1.5351
  352MOL0     H48566  10.131   5.465   4.204 -0.6282 -1.5388 -1.2817
  352MOL0     H48567   9.956   5.485   4.210 -0.5702 -0.0892 -1.0659
  352MOL0     H48568  10.130   5.249   4.334  1.2524  0.7144 -0.9836
  352MOL0     H48569   9.954   5.248   4.302  1.4433 -1.2290  1.4123
  352MOL0     H48570  10.065   5.125   4.144 -1.5961  0.3309  2.8328
  352MOL0     H48571  10.186   5.244   4.102  0.1079 -2.0076 -0.4553
  352MOL0     H48572   9.828   5.308   3.850 -3.4740  2.2270  3.6154
  352MOL0     H48573  10.063   5.565   4.644  1.0954  0.6799 -2.8224
  352MOL0     H48574  10.151   5.577   4.984  1.2053  3.3751 -0.6623
  352MOL0     H48575  10.032   5.653   4.873 -0.4055 -1.4213 -0.0555
  352MOL0     H48576  10.050   5.481   4.875 -0.7086  0.2036 -0.8736
  353MOL0     O48577   0.211   0.644   0.759  0.1257  0.0426  0.0855
  353MOL0     C48578   0.224   0.733   0.839  0.4422  0.0517  1.1610
  353MOL0     O48579   0.338   0.765   0.904 -0.4692  0.1045  0.6971
  353MOL0     C48580   0.436   0.665   0.905 -0.5429  0.8610  0.6175
  353MOL0     C48581   0.540   0.669   0.809  0.2280  0.3221  0.2217
  353MOL0     C48582   0.632   0.567   0.810 -0.3384 -0.4748  0.1557
  353MOL0     C48583   0.636   0.469   0.904 -0.2148  0.2574 -0.6479
  353MOL0     O48584   0.737   0.381   0.891  0.2097 -0.4931  0.0872
  353MOL0     C48585   0.718   0.239   0.919  0.3760 -1.1995 -0.1269
  353MOL0     C48586   0.811   0.182   1.025  0.0286  1.5227 -0.0219
  353MOL0     C48587   0.939   0.134   0.949  0.3856 -0.6180  0.0947
  353MOL0     C48588   1.042   0.076   1.057  0.3461 -0.8479 -0.2644
  353MOL0     C48589   1.151   0.008   0.988  0.7389 -0.5605 -1.2608
  353MOL0     C48590   1.251  -0.052   1.084 -0.4277 -0.1571  0.5826
  353MOL0     C48591   1.367   0.042   1.124 -0.0047 -0.2685 -0.2630
  353MOL0     C48592   1.447  -0.025   1.235  0.2055  0.3389 -0.7292
  353MOL0     N48593   1.536  -0.134   1.188  0.5885 -0.0232  0.3883
  353MOL0     C48594   1.619  -0.134   1.076 -0.1360 -1.3431 -0.4240
  353MOL0     C48595   1.681  -0.259   1.067  0.8034  0.5584  0.6459
  353MOL0     C48596   1.783  -0.288   0.967 -0.0283  0.1052  0.2674
  353MOL0     C48597   1.730  -0.299   0.821  1.0334 -0.2125  0.8245
  353MOL0     C48598   1.811  -0.384   0.719 -0.0531  0.1111  0.2600
  353MOL0     C48599   1.969  -0.368   0.730  0.1491  0.4836  0.2630
  353MOL0     O48600   1.983  -0.224   0.699  0.3463 -0.2612  0.2008
  353MOL0     C48601   2.112  -0.200   0.656  0.0529  0.4974  0.4011
  353MOL0     C48602   2.211  -0.173   0.751 -0.1924 -0.3149  0.3219
  353MOL0     C48603   2.341  -0.162   0.714 -0.3725 -0.0932 -0.4669
  353MOL0     C48604   2.442  -0.129   0.822  0.2564 -0.1610 -0.0389
  353MOL0     C48605   2.381  -0.190   0.575 -0.1565  0.1813 -0.9731
  353MOL0     C48606   2.522  -0.169   0.530 -0.5034 -0.3590 -0.5063
  353MOL0     O48607   2.544  -0.135   0.401 -0.2059 -0.3037  0.8925
  353MOL0     C48608   2.671  -0.152   0.341 -0.3795  0.4762 -0.4943
  353MOL0     C48609   2.668  -0.162   0.197  0.2406  0.0972  0.3634
  353MOL0     C48610   2.784  -0.186   0.122 -0.0700  0.1429  0.3684
  353MOL0     C48611   2.910  -0.190   0.185  0.6148 -0.0034 -0.0394
  353MOL0     O48612   3.034  -0.207   0.129 -0.0811 -0.5173 -0.1422
  353MOL0     C48613   3.048  -0.181  -0.016  0.3141  0.1170 -0.7650
  353MOL0     C48614   3.187  -0.186  -0.080  0.1311 -0.5830  0.7749
  353MOL0     C48615   3.181  -0.169  -0.231  0.4808 -0.5300 -0.5407
  353MOL0     C48616   3.313  -0.195  -0.312 -0.0206 -0.1167  0.3088
  353MOL0     C48617   3.294  -0.154  -0.454  0.9341 -0.8718  0.4165
  353MOL0     C48618   3.401  -0.208  -0.553 -0.5298 -0.3794 -0.2682
  353MOL0     C48619   3.371  -0.178  -0.694 -0.5332  0.8429  0.4276
  353MOL0     C48620   3.461  -0.247  -0.786  0.3176  0.5549  0.1456
  353MOL0    Cl48621   3.632  -0.201  -0.762  0.2059 -0.3230  0.0268
  353MOL0     C48622   2.908  -0.165   0.322 -0.0095  0.4812  0.7821
  353MOL0     C48623   2.792  -0.150   0.401 -0.4061 -0.4462 -0.1926
  353MOL0     O48624   2.612  -0.168   0.618  0.2973  0.4139 -0.7689
  353MOL0     C48625   2.282  -0.233   0.477  0.5175  0.5872  0.2999
  353MOL0     C48626   2.148  -0.225   0.515 -0.1833  0.2151  0.2174
  353MOL0     N48627   1.636  -0.329   1.179  0.4528 -0.1863  0.1126
  353MOL0     N48628   1.545  -0.263   1.236 -0.2891 -0.8592  0.4825
  353MOL0     C48629   0.540   0.470   1.010  0.1804 -0.4997  0.8419
  353MOL0     C48630   0.441   0.566   0.998  0.4362 -0.9584  0.8617
  353MOL0     C48631   0.114   0.822   0.866  0.2511  0.4833  0.2631
  353MOL0     C48632   0.051   0.833   0.989 -1.3222 -0.3321 -0.7687
  353MOL0     C48633  -0.059   0.914   1.003 -0.4425  0.4133 -0.2375
  353MOL0     C48634  -0.115   0.979   0.895  0.4985 -0.3923  0.2274
  353MOL0     O48635  -0.211   1.070   0.929  0.1676 -0.1145  0.6395
  353MOL0     C48636  -0.338   1.011   0.952 -0.2149  0.2841  0.7484
  353MOL0     C48637  -0.441   1.098   0.879  0.4587 -0.4730 -0.3462
  353MOL0     C48638  -0.412   1.117   0.728  0.2804 -1.1402  0.4625
  353MOL0     C48639  -0.417   0.976   0.673 -1.1507  0.0484 -0.1397
  353MOL0     C48640  -0.389   0.969   0.529 -0.5035  0.3667 -0.6777
  353MOL0     C48641  -0.359   0.940   0.422  0.6539 -0.0462  0.3644
  353MOL0     C48642  -0.065   0.961   0.768 -0.5999 -0.3397 -0.2364
  353MOL0     C48643   0.050   0.886   0.753  0.7275 -1.0030 -0.4825
  353MOL0     C48644   0.106   0.884   0.617 -0.5431 -1.4095  0.1744
  353MOL0     H48645   0.547   0.747   0.734 -2.1257 -0.7625 -1.2735
  353MOL0     H48646   0.704   0.549   0.731  1.0788  3.7134  0.2509
  353MOL0     H48647   0.731   0.192   0.821  3.0833  1.3547 -1.1345
  353MOL0     H48648   0.618   0.210   0.953  1.2726 -2.9912  1.0900
  353MOL0     H48649   0.832   0.259   1.100  1.0457 -1.5075  3.0643
  353MOL0     H48650   0.760   0.109   1.088 -0.2538  1.7862  0.0613
  353MOL0     H48651   0.908   0.062   0.873 -0.6458 -2.0826  1.8320
  353MOL0     H48652   0.977   0.218   0.890 -0.9272  0.8212  1.2082
  353MOL0     H48653   1.063   0.165   1.117 -1.0881  0.6371 -1.8422
  353MOL0     H48654   0.983   0.006   1.117 -6.0455  2.8964 -1.2603
  353MOL0     H48655   1.202   0.078   0.921  1.8929  0.4035  0.5324
  353MOL0     H48656   1.113  -0.078   0.932 -0.4784  0.1876 -1.6111
  353MOL0     H48657   1.200  -0.091   1.173  1.0389  0.3762  1.6900
  353MOL0     H48658   1.298  -0.135   1.030  1.2548  1.4207 -0.4954
  353MOL0     H48659   1.328   0.142   1.148  2.4405  1.4413 -2.8156
  353MOL0     H48660   1.429   0.050   1.034  0.9306 -4.8318 -0.2609
  353MOL0     H48661   1.509   0.048   1.288 -0.9017 -0.6436  2.1240
  353MOL0     H48662   1.372  -0.055   1.309  0.9038 -0.1678 -0.2134
  353MOL0     H48663   1.631  -0.049   1.009 -1.0239 -0.6303  0.2868
  353MOL0     H48664   1.826  -0.382   1.004 -1.6378  0.5589  3.7879
  353MOL0     H48665   1.862  -0.213   0.977 -1.1114  1.8901 -3.1897
  353MOL0     H48666   1.628  -0.339   0.817  0.3386  1.5266  0.4299
  353MOL0     H48667   1.718  -0.196   0.787 -2.7324  0.2570  2.9928
  353MOL0     H48668   1.785  -0.490   0.727 -1.9746  0.4520 -0.7504
  353MOL0     H48669   1.782  -0.363   0.615  1.4588 -2.4063 -0.7578
  353MOL0     H48670   2.002  -0.393   0.831 -2.0264  1.6133  1.3274
  353MOL0     H48671   2.023  -0.431   0.659  0.6797 -0.0081  1.0869
  353MOL0     H48672   2.182  -0.152   0.854  0.7629 -0.2237  0.5803
  353MOL0     H48673   2.497  -0.214   0.864 -0.9708 -0.4985  0.9609
  353MOL0     H48674   2.387  -0.094   0.910 -0.9884  2.3084 -1.6803
  353MOL0     H48675   2.507  -0.044   0.797  2.4259 -1.9809 -0.9436
  353MOL0     H48676   2.569  -0.154   0.152 -0.0098  0.3584  0.9510
  353MOL0     H48677   2.765  -0.213   0.019  3.1420  1.9228 -0.8400
  353MOL0     H48678   2.973  -0.239  -0.071 -1.1757 -1.3066  2.4900
  353MOL0     H48679   3.010  -0.081  -0.037 -0.3894  0.0815  0.2361
  353MOL0     H48680   3.252  -0.104  -0.049 -2.3054  2.9878 -2.4995
  353MOL0     H48681   3.222  -0.288  -0.064  0.3295 -0.5771  0.3946
  353MOL0     H48682   3.138  -0.073  -0.261  0.0077 -1.2824 -2.4420
  353MOL0     H48683   3.111  -0.244  -0.270  1.0876 -0.2383 -2.3044
  353MOL0     H48684   3.344  -0.300  -0.305 -1.0699 -0.4073  0.7147
  353MOL0     H48685   3.395  -0.134  -0.275  2.0456 -1.5429 -1.6292
  353MOL0     H48686   3.204  -0.207  -0.487  1.0841 -0.1404 -1.2663
  353MOL0     H48687   3.270  -0.048  -0.469 -0.1891 -1.4211 -2.3568
  353MOL0     H48688   3.410  -0.317  -0.544 -1.1647 -0.4882 -0.8538
  353MOL0     H48689   3.494  -0.157  -0.529 -1.2515  1.2048 -0.7472
  353MOL0     H48690   3.375  -0.071  -0.716  1.0311  0.4664 -1.3974
  353MOL0     H48691   3.267  -0.202  -0.720 -0.2921  1.2567 -1.0307
  353MOL0     H48692   3.426  -0.219  -0.886 -0.8253  0.3723  0.4818
  353MOL0     H48693   3.447  -0.354  -0.774  0.3956  0.1848 -2.5302
  353MOL0     H48694   3.006  -0.162   0.370 -0.0615  2.8355  0.8584
  353MOL0     H48695   2.814  -0.138   0.507 -0.5280 -0.8038 -0.1249
  353MOL0     H48696   2.313  -0.251   0.375 -1.4926  0.2179 -0.2798
  353MOL0     H48697   2.067  -0.253   0.449 -1.5806 -0.6702  2.2112
  353MOL0     H48698   0.547   0.394   1.087  1.0133  1.6758  3.0418
  353MOL0     H48699   0.360   0.580   1.069  1.6345  0.0715  2.0796
  353MOL0     H48700   0.088   0.787   1.080  0.8478  0.7696 -1.0262
  353MOL0     H48701  -0.098   0.932   1.103  0.2204  2.1355 -0.2648
  353MOL0     H48702  -0.337   0.907   0.918 -1.8086 -0.6019  3.1385
  353MOL0     H48703  -0.369   1.021   1.056 -1.7689  0.0384  0.3392
  353MOL0     H48704  -0.423   1.198   0.918  0.2136 -0.5758  0.0343
  353MOL0     H48705  -0.544   1.074   0.908 -0.1251  2.9903  0.9002
  353MOL0     H48706  -0.481   1.186   0.679  1.6431 -1.1265 -1.5503
  353MOL0     H48707  -0.310   1.153   0.711  1.5485 -4.2481  0.7834
  353MOL0     H48708  -0.516   0.935   0.695 -0.4657 -1.9200 -0.5477
  353MOL0     H48709  -0.340   0.911   0.717 -1.7172 -0.7174 -0.2665
  353MOL0     H48710  -0.316   0.925   0.325  1.7852 -2.3146  1.1409
  353MOL0     H48711  -0.107   1.021   0.688 -4.8858  0.3109  2.2231
  353MOL0     H48712   0.213   0.905   0.611 -0.8574 -0.2321 -2.3883
  353MOL0     H48713   0.091   0.783   0.579 -2.0803 -0.1240 -2.9421
  353MOL0     H48714   0.066   0.967   0.559 -0.8692 -0.3471  1.8469
  354MOL0     O48715   2.747   3.069   1.077  0.4123  0.1239  0.1501
  354MOL0     C48716   2.808   3.135   1.161 -0.5737 -0.1356 -0.4073
  354MOL0     O48717   2.854   3.260   1.145  0.0789 -0.4736  0.1089
  354MOL0     C48718   2.848   3.317   1.017 -0.8397  0.0599 -0.0480
  354MOL0     C48719   2.855   3.253   0.894 -0.4020 -0.6753  0.8710
  354MOL0     C48720   2.833   3.324   0.772 -0.0883  0.2347 -0.5347
  354MOL0     C48721   2.833   3.458   0.780  0.5283 -0.6324 -0.5703
  354MOL0     O48722   2.831   3.506   0.649  0.4384  0.0113 -1.0510
  354MOL0     C48723   2.812   3.647   0.631  0.0553  0.3649  0.1292
  354MOL0     C48724   2.804   3.669   0.480  0.1746  0.6999 -0.1744
  354MOL0     C48725   2.736   3.802   0.449 -0.8841 -0.5831 -0.1192
  354MOL0     C48726   2.700   3.821   0.297  0.3423 -0.1958 -0.0592
  354MOL0     C48727   2.612   3.937   0.269  0.1874 -0.0092  0.1637
  354MOL0     C48728   2.533   3.935   0.131 -0.5895 -0.7388  1.2598
  354MOL0     C48729   2.609   3.901  -0.001  0.2523 -0.4778 -0.5530
  354MOL0     C48730   2.545   3.934  -0.139  0.0816 -0.5254  0.6974
  354MOL0     N48731   2.509   4.082  -0.144  0.7171  0.0714 -0.4841
  354MOL0     C48732   2.383   4.132  -0.121  0.0497 -0.7918  0.7927
  354MOL0     C48733   2.403   4.260  -0.146 -0.3444 -0.9702 -0.5502
  354MOL0     C48734   2.292   4.357  -0.143  0.2707  0.7788  0.2537
  354MOL0     C48735   2.188   4.359  -0.256  0.6293  0.5378  0.6026
  354MOL0     C48736   2.235   4.322  -0.398  0.5133  0.0241  0.1451
  354MOL0     C48737   2.329   4.426  -0.457 -0.0135  0.1719 -0.2836
  354MOL0     O48738   2.259   4.542  -0.507  0.3298 -1.0411 -0.2755
  354MOL0     C48739   2.316   4.667  -0.492 -0.0044  0.8152 -1.4744
  354MOL0     C48740   2.327   4.750  -0.603 -0.4725  0.3447  0.0679
  354MOL0     C48741   2.406   4.869  -0.591 -0.4663  0.4653  0.7180
  354MOL0     C48742   2.440   4.944  -0.720  0.5143  0.5456  1.4339
  354MOL0     C48743   2.465   4.903  -0.468 -0.1249 -0.0465  1.4991
  354MOL0     C48744   2.557   5.018  -0.457  0.0358 -0.3345  0.2048
  354MOL0     O48745   2.651   5.011  -0.361  0.1129 -0.2289 -0.3908
  354MOL0     C48746   2.739   5.110  -0.330 -0.1680  0.3364  0.5254
  354MOL0     C48747   2.865   5.101  -0.395 -0.4573 -0.6098  0.2439
  354MOL0     C48748   2.967   5.189  -0.369 -0.7214 -0.0250 -1.3919
  354MOL0     C48749   2.944   5.292  -0.269 -0.0288 -1.2425 -0.2909
  354MOL0     O48750   3.040   5.394  -0.257  0.2003 -0.4467 -0.2826
  354MOL0     C48751   3.030   5.483  -0.141  0.0674  0.4134 -0.4116
  354MOL0     C48752   3.138   5.589  -0.132  0.5110  0.4225  0.3402
  354MOL0     C48753   3.284   5.548  -0.134 -0.3704  0.3073 -0.0696
  354MOL0     C48754   3.367   5.676  -0.142  0.1972  0.4358  0.1373
  354MOL0     C48755   3.519   5.639  -0.132 -0.0645 -0.2627  0.6763
  354MOL0     C48756   3.614   5.763  -0.117  0.2955  1.0648 -0.3772
  354MOL0     C48757   3.764   5.718  -0.127  0.9549 -0.2432 -0.2642
  354MOL0     C48758   3.852   5.794  -0.022  1.1688  0.2657 -0.0687
  354MOL0    Cl48759   3.963   5.679   0.071  0.2876  0.1153 -0.0935
  354MOL0     C48760   2.819   5.298  -0.200  0.0412  0.8609 -0.0909
  354MOL0     C48761   2.719   5.204  -0.229 -0.1935 -0.0608 -0.5964
  354MOL0     O48762   2.531   5.127  -0.510  0.2095  0.9410  0.0518
  354MOL0     C48763   2.436   4.826  -0.357  0.1594 -0.4286  0.6430
  354MOL0     C48764   2.366   4.703  -0.372  0.0103 -0.9518 -1.4594
  354MOL0     N48765   2.536   4.281  -0.178 -1.0806 -0.7141  0.2033
  354MOL0     N48766   2.601   4.175  -0.179  0.3670 -0.5376 -0.6381
  354MOL0     C48767   2.835   3.529   0.899  0.4731 -0.4806  0.3975
  354MOL0     C48768   2.849   3.454   1.017  0.4365 -0.9104 -0.0748
  354MOL0     C48769   2.842   3.066   1.297 -0.0315 -0.1405  0.6013
  354MOL0     C48770   2.877   3.153   1.405  0.0760  0.4774 -0.4504
  354MOL0     C48771   2.903   3.098   1.535  0.1144 -1.3494 -0.3391
  354MOL0     C48772   2.890   2.957   1.563  1.0889  0.0376  0.5047
  354MOL0     O48773   2.920   2.920   1.689 -1.2969 -0.4057  0.3874
  354MOL0     C48774   2.879   2.780   1.721 -0.1367 -0.3753 -0.4750
  354MOL0     C48775   2.879   2.771   1.879  1.1436  0.0770  0.4663
  354MOL0     C48776   3.020   2.795   1.922 -0.0816 -0.1941  1.0756
  354MOL0     C48777   3.048   2.735   2.059 -0.6906  0.3825  0.6140
  354MOL0     C48778   2.999   2.813   2.170  0.6882 -1.1206 -0.3835
  354MOL0     C48779   2.963   2.882   2.261  0.3972 -0.5966 -0.0018
  354MOL0     C48780   2.866   2.877   1.448 -0.8927 -0.3913  0.4012
  354MOL0     C48781   2.845   2.931   1.320 -0.2449 -0.3193  0.1920
  354MOL0     C48782   2.803   2.836   1.218  0.5650 -0.6425  0.3649
  354MOL0     H48783   2.865   3.146   0.879  1.3416 -0.3988 -0.1785
  354MOL0     H48784   2.825   3.281   0.673  0.6428  1.0637 -0.9679
  354MOL0     H48785   2.896   3.702   0.673  1.2951 -0.4830 -1.1369
  354MOL0     H48786   2.718   3.677   0.677 -1.3560  0.7351 -2.7381
  354MOL0     H48787   2.899   3.660   0.426  1.0518  0.9811  1.2822
  354MOL0     H48788   2.741   3.587   0.443  1.6806 -0.4020 -0.3896
  354MOL0     H48789   2.646   3.810   0.510  0.4217  0.9549  1.7111
  354MOL0     H48790   2.807   3.878   0.482  0.7216 -0.7883 -2.7374
  354MOL0     H48791   2.795   3.844   0.248  1.8803 -2.1158  1.7765
  354MOL0     H48792   2.642   3.736   0.260 -2.4986  1.7107 -0.2740
  354MOL0     H48793   2.668   4.031   0.274 -1.0045  0.8537 -1.6781
  354MOL0     H48794   2.537   3.932   0.349 -2.8510  3.1769 -2.1821
  354MOL0     H48795   2.459   3.855   0.142 -0.5580 -1.0082 -0.2170
  354MOL0     H48796   2.482   4.031   0.118 -1.1469 -1.2756 -1.1959
  354MOL0     H48797   2.636   3.795   0.011 -1.0368 -0.5074  3.4494
  354MOL0     H48798   2.706   3.950   0.006  0.0458 -0.2246  0.9260
  354MOL0     H48799   2.611   3.914  -0.224  0.0941 -1.0391  0.8213
  354MOL0     H48800   2.462   3.870  -0.170  0.0199 -0.3322  0.4590
  354MOL0     H48801   2.291   4.077  -0.101 -1.8381  1.9196  0.0360
  354MOL0     H48802   2.351   4.449  -0.146  4.0699 -1.3474  1.7141
  354MOL0     H48803   2.245   4.346  -0.045 -0.3581 -1.7192 -0.2485
  354MOL0     H48804   2.111   4.285  -0.233 -1.3528  2.2198 -0.3332
  354MOL0     H48805   2.144   4.459  -0.263  0.7436  0.4715 -1.7978
  354MOL0     H48806   2.287   4.225  -0.389 -1.3306 -1.3810 -2.9737
  354MOL0     H48807   2.145   4.311  -0.459 -1.3105 -3.3484  3.0130
  354MOL0     H48808   2.415   4.447  -0.393  0.5644 -0.6527 -0.7726
  354MOL0     H48809   2.370   4.387  -0.551 -1.1021  2.5351 -1.8384
  354MOL0     H48810   2.277   4.737  -0.698 -1.3897  1.0309  0.4497
  354MOL0     H48811   2.371   5.029  -0.718 -2.8001 -1.8759  0.2477
  354MOL0     H48812   2.420   4.882  -0.808  1.1547  2.0801  0.1554
  354MOL0     H48813   2.547   4.967  -0.727  0.4649  0.3716 -0.6676
  354MOL0     H48814   2.874   5.028  -0.475 -2.8756  0.4720 -1.1434
  354MOL0     H48815   3.057   5.179  -0.427 -0.3029  0.1604 -0.7897
  354MOL0     H48816   2.928   5.524  -0.143  0.1706  0.6597 -1.2820
  354MOL0     H48817   3.034   5.418  -0.054 -0.2672  0.7808 -0.1143
  354MOL0     H48818   3.110   5.654  -0.216 -2.6498  0.0122  0.9437
  354MOL0     H48819   3.120   5.645  -0.039  0.2424  1.7552 -0.4759
  354MOL0     H48820   3.287   5.491  -0.227 -0.6186 -0.8247  0.5919
  354MOL0     H48821   3.317   5.490  -0.047  1.6954 -0.5084 -1.3290
  354MOL0     H48822   3.352   5.748  -0.061 -1.5646  2.0573 -1.5275
  354MOL0     H48823   3.341   5.733  -0.231  2.5598 -0.7461 -1.4337
  354MOL0     H48824   3.535   5.581  -0.040  1.8576  1.7568  1.7167
  354MOL0     H48825   3.553   5.576  -0.214 -2.2518  1.1593 -1.4258
  354MOL0     H48826   3.586   5.810  -0.022 -1.4914  0.6360 -0.6499
  354MOL0     H48827   3.596   5.831  -0.201 -0.4923  2.1771  0.6587
  354MOL0     H48828   3.803   5.736  -0.227 -2.2522  0.1580 -1.5448
  354MOL0     H48829   3.762   5.610  -0.110 -2.1373 -0.0881  1.0531
  354MOL0     H48830   3.797   5.858   0.048  0.6935  0.0098 -0.2107
  354MOL0     H48831   3.918   5.856  -0.085  1.7554 -0.2290  0.0534
  354MOL0     H48832   2.782   5.371  -0.129  1.4932  1.7453 -0.1907
  354MOL0     H48833   2.626   5.214  -0.173  0.9558  0.6328  1.2665
  354MOL0     H48834   2.466   4.841  -0.254 -2.6591  2.1702  1.2242
  354MOL0     H48835   2.346   4.639  -0.287  1.2401  0.6337  0.1114
  354MOL0     H48836   2.814   3.635   0.911 -1.3139 -0.7421 -0.2268
  354MOL0     H48837   2.869   3.495   1.115 -0.7327  1.4237 -0.7442
  354MOL0     H48838   2.879   3.261   1.410 -1.1907  0.4458  2.0676
  354MOL0     H48839   2.930   3.174   1.608  0.2647 -0.9066 -0.8499
  354MOL0     H48840   2.783   2.745   1.681 -0.7842 -0.3852  0.9888
  354MOL0     H48841   2.950   2.707   1.681  1.6463  1.0803 -0.1255
  354MOL0     H48842   2.840   2.676   1.917 -0.5033  1.0051  1.1912
  354MOL0     H48843   2.814   2.852   1.913  3.4135  1.4778  1.6985
  354MOL0     H48844   3.091   2.749   1.853  1.2585 -0.8299  2.8024
  354MOL0     H48845   3.044   2.902   1.918 -0.1353 -0.2083 -1.1904
  354MOL0     H48846   3.153   2.763   2.076 -0.4733  0.5630 -0.8804
  354MOL0     H48847   3.046   2.626   2.063  1.6990  0.2573  0.2987
  354MOL0     H48848   2.939   2.942   2.347  0.8425  0.5071 -0.6300
  354MOL0     H48849   2.853   2.770   1.444  2.0441 -0.7852 -2.6513
  354MOL0     H48850   2.841   2.734   1.234  2.5165  0.3323  2.6165
  354MOL0     H48851   2.694   2.837   1.208  0.6426  2.2134 -1.1648
  354MOL0     H48852   2.840   2.867   1.120 -2.9590  1.4727 -0.4594
  355MOL0     O48853   1.824   7.330  10.559  0.1474 -0.0197  0.2565
  355MOL0     C48854   1.806   7.401  10.456  0.5338  0.3614  0.2489
  355MOL0     O48855   1.745   7.530  10.456  0.7343  0.8660  0.1242
  355MOL0     C48856   1.718   7.572  10.587 -0.7110 -0.6662 -0.7681
  355MOL0     C48857   1.827   7.597  10.682  0.2426  0.4419 -0.4843
  355MOL0     C48858   1.781   7.634  10.813 -1.0034  0.6836  0.2771
  355MOL0     C48859   1.654   7.637  10.858  0.3149  0.3311  0.2885
  355MOL0     O48860   1.620   7.673  10.986 -0.1863 -0.0456 -0.1164
  355MOL0     C48861   1.723   7.642  11.078 -1.3761 -0.7653  0.0391
  355MOL0     C48862   1.668   7.643  11.226 -0.5094 -0.3067  0.9174
  355MOL0     C48863   1.643   7.786  11.267 -0.3831  0.7245  0.5845
  355MOL0     C48864   1.587   7.764  11.407  0.4697 -0.8021  0.2842
  355MOL0     C48865   1.600   7.877  11.492 -0.0068 -1.0619  0.0417
  355MOL0     C48866   1.552   8.014  11.427 -0.2340  0.2878  0.5836
  355MOL0     C48867   1.409   8.025  11.394  0.7491 -0.1624  0.0340
  355MOL0     C48868   1.351   8.174  11.401 -0.0904  0.4919  0.2411
  355MOL0     N48869   1.393   8.252  11.286  0.2168 -0.1051  0.0156
  355MOL0     C48870   1.379   8.205  11.164  0.1584  0.8398  0.5129
  355MOL0     C48871   1.462   8.273  11.092 -0.1886 -0.0817 -0.4877
  355MOL0     C48872   1.474   8.257  10.944  0.2766 -1.4050 -1.2260
  355MOL0     C48873   1.615   8.214  10.899 -0.2735 -0.8136 -0.2986
  355MOL0     C48874   1.674   8.093  10.975  0.3233  0.3026  0.2287
  355MOL0     C48875   1.820   8.045  10.929  0.7543 -0.3340 -0.1139
  355MOL0     O48876   1.897   8.097  11.041 -0.2547  0.2711  0.5219
  355MOL0     C48877   1.947   8.001  11.126 -1.3098 -0.0054 -0.7645
  355MOL0     C48878   1.999   7.877  11.088 -0.4280 -0.3385 -0.2745
  355MOL0     C48879   2.046   7.790  11.186 -0.2479  0.9501 -0.2094
  355MOL0     C48880   2.108   7.663  11.137 -1.0648  0.9143  0.7141
  355MOL0     C48881   2.045   7.822  11.326  0.6993  0.1021  0.2858
  355MOL0     C48882   2.080   7.738  11.439 -0.1329  0.2122  0.7084
  355MOL0     O48883   1.996   7.721  11.542 -0.1734  0.2994  0.0879
  355MOL0     C48884   2.046   7.708  11.668 -0.8884  0.6849  0.2698
  355MOL0     C48885   1.983   7.785  11.769 -0.5423 -1.1830  1.0205
  355MOL0     C48886   2.027   7.776  11.900  0.0870  1.6820 -0.5547
  355MOL0     C48887   2.116   7.682  11.939  0.4369 -0.7694 -0.0816
  355MOL0     O48888   2.141   7.686  12.076 -0.0172 -0.6366 -0.2168
  355MOL0     C48889   2.235   7.590  12.130 -0.9731  0.4561  0.1065
  355MOL0     C48890   2.223   7.592  12.282  0.1400 -0.1605  0.7742
  355MOL0     C48891   2.303   7.488  12.364  0.8251 -0.0162 -0.0635
  355MOL0     C48892   2.283   7.511  12.513 -0.1276  0.9447 -0.3883
  355MOL0     C48893   2.395   7.446  12.591 -0.6215  0.1743 -0.6799
  355MOL0     C48894   2.393   7.297  12.598 -0.6138 -0.3713  0.4433
  355MOL0     C48895   2.517   7.222  12.647  0.4121 -0.0755  1.4156
  355MOL0     C48896   2.645   7.256  12.566 -0.6413 -0.5750 -0.7665
  355MOL0    Cl48897   2.626   7.284  12.387 -0.2715 -0.4742 -0.1491
  355MOL0     C48898   2.189   7.621  11.844  0.7111  0.1477 -0.4328
  355MOL0     C48899   2.160   7.632  11.709  0.8861 -0.2883 -0.6483
  355MOL0     O48900   2.202   7.703  11.437 -0.3772  0.5901  1.0383
  355MOL0     C48901   1.998   7.946  11.354  0.0295 -0.4664 -0.9126
  355MOL0     C48902   1.943   8.030  11.258 -0.0112  0.3205  0.0581
  355MOL0     N48903   1.537   8.365  11.168  0.0989  0.0470  0.9809
  355MOL0     N48904   1.503   8.334  11.290  0.4975 -0.6682  0.2004
  355MOL0     C48905   1.552   7.600  10.766  0.0395 -0.3098 -0.8944
  355MOL0     C48906   1.584   7.571  10.634  0.5895  0.1018 -0.5181
  355MOL0     C48907   1.839   7.346  10.320 -0.2271  0.1929  0.0182
  355MOL0     C48908   1.972   7.313  10.286  0.6619 -0.1090 -0.9260
  355MOL0     C48909   2.002   7.277  10.151  0.4569 -0.4251  0.1601
  355MOL0     C48910   1.902   7.277  10.055 -0.1993  0.1283 -0.9914
  355MOL0     O48911   1.944   7.247   9.928  0.0796 -0.3120 -1.0628
  355MOL0     C48912   1.834   7.227   9.830 -0.1647 -0.4534 -0.1967
  355MOL0     C48913   1.901   7.155   9.717  0.9171  0.8799  0.6620
  355MOL0     C48914   1.993   7.250   9.638  1.6777 -0.1762 -1.0338
  355MOL0     C48915   1.920   7.373   9.579  0.2415  0.4417 -0.2634
  355MOL0     C48916   2.003   7.434   9.477  0.3112  1.0631 -0.1245
  355MOL0     C48917   2.066   7.478   9.380  1.1581  0.0432 -0.6869
  355MOL0     C48918   1.767   7.309  10.094  0.0828  0.8561 -0.5366
  355MOL0     C48919   1.738   7.336  10.223 -0.4371 -0.8543  0.8374
  355MOL0     C48920   1.588   7.369  10.261 -0.3616  0.3430  0.9776
  355MOL0     H48921   1.934   7.592  10.664  0.3496  0.9044  0.0163
  355MOL0     H48922   1.866   7.652  10.877 -0.0596 -1.8030 -0.1602
  355MOL0     H48923   1.803   7.716  11.069 -0.6369 -1.6569 -0.8548
  355MOL0     H48924   1.764   7.543  11.060  0.8257  0.2432 -0.8618
  355MOL0     H48925   1.570   7.595  11.220  0.7717 -2.9424 -1.6332
  355MOL0     H48926   1.736   7.585  11.289 -0.5510 -2.6778 -1.0743
  355MOL0     H48927   1.733   7.846  11.278  1.5107 -2.1706  1.9718
  355MOL0     H48928   1.572   7.833  11.197 -2.7607 -0.0089  2.3611
  355MOL0     H48929   1.479   7.762  11.393  0.5717  3.4117 -3.8114
  355MOL0     H48930   1.624   7.675  11.457  0.7327 -1.6078 -1.2712
  355MOL0     H48931   1.707   7.877  11.515 -0.1939  0.5677  1.1164
  355MOL0     H48932   1.540   7.856  11.581  2.5342  0.3513  2.2260
  355MOL0     H48933   1.583   8.089  11.501  3.1159 -0.8718  0.5259
  355MOL0     H48934   1.610   8.051  11.342 -0.2481  2.7209  1.5330
  355MOL0     H48935   1.349   7.970  11.468  0.6149 -2.5687 -1.7459
  355MOL0     H48936   1.392   7.990  11.292 -1.3076  0.4460  0.1233
  355MOL0     H48937   1.242   8.176  11.403 -0.1418 -0.1572 -1.1024
  355MOL0     H48938   1.388   8.223  11.492 -2.0527 -3.2378  3.3016
  355MOL0     H48939   1.317   8.122  11.133 -2.0609  2.4224  0.5024
  355MOL0     H48940   1.473   8.358  10.902 -1.5226 -1.3319 -1.0681
  355MOL0     H48941   1.392   8.195  10.908 -0.6641 -0.5069 -0.6839
  355MOL0     H48942   1.608   8.189  10.793 -5.1194 -1.4708 -0.0486
  355MOL0     H48943   1.689   8.295  10.908  2.6849 -3.1369 -1.8166
  355MOL0     H48944   1.679   8.132  11.077 -0.0966 -1.6180  1.0215
  355MOL0     H48945   1.603   8.010  10.966  0.0903  0.4901  0.3479
  355MOL0     H48946   1.841   7.938  10.919  3.3593  0.0185  0.8501
  355MOL0     H48947   1.843   8.091  10.833  0.9104 -0.3831 -0.0989
  355MOL0     H48948   2.021   7.850  10.985  2.5648 -4.1071  1.0955
  355MOL0     H48949   2.053   7.609  11.060  0.1208  2.6971 -1.5223
  355MOL0     H48950   2.119   7.579  11.205  0.8315 -0.7689 -1.4811
  355MOL0     H48951   2.206   7.692  11.096 -1.0576 -0.3562 -0.2191
  355MOL0     H48952   1.906   7.857  11.746 -0.4101 -0.5416  2.4548
  355MOL0     H48953   1.989   7.821  11.991  2.3937 -1.8618  2.4307
  355MOL0     H48954   2.188   7.496  12.098  0.7807 -0.8071  1.0277
  355MOL0     H48955   2.338   7.606  12.097 -1.7581 -0.8420 -3.5056
  355MOL0     H48956   2.262   7.688  12.317  1.8975 -2.1234  4.7894
  355MOL0     H48957   2.119   7.587  12.318  1.1706  0.1704  4.1331
  355MOL0     H48958   2.409   7.491  12.338  0.0647  0.0107 -3.6970
  355MOL0     H48959   2.265   7.386  12.348 -1.9904  1.1657 -1.5526
  355MOL0     H48960   2.182   7.485  12.549  0.0628  0.4762 -0.1834
  355MOL0     H48961   2.286   7.616  12.544 -0.6119  0.7431  0.3840
  355MOL0     H48962   2.490   7.474  12.545 -0.4924  2.4502  0.7825
  355MOL0     H48963   2.390   7.500  12.686 -1.5604  2.2493 -1.8382
  355MOL0     H48964   2.375   7.274  12.493  2.1116 -1.0098  0.0269
  355MOL0     H48965   2.309   7.266  12.660 -1.9189  1.8541 -0.0984
  355MOL0     H48966   2.492   7.119  12.621  4.1240 -0.7418 -0.2667
  355MOL0     H48967   2.526   7.227  12.756  2.6317 -0.9611  1.3325
  355MOL0     H48968   2.721   7.178  12.572  3.6853  3.2161 -0.7355
  355MOL0     H48969   2.693   7.342  12.613  0.7516 -1.2849 -0.8350
  355MOL0     H48970   2.270   7.557  11.877 -1.4704 -0.8860  3.4490
  355MOL0     H48971   2.214   7.563  11.644  1.8724  1.9062 -2.2729
  355MOL0     H48972   1.983   7.981  11.456 -2.1737  1.2162 -1.7277
  355MOL0     H48973   1.899   8.124  11.292 -0.4882 -0.3539  1.3714
  355MOL0     H48974   1.451   7.583  10.800  1.6404 -3.2628  3.2337
  355MOL0     H48975   1.512   7.536  10.560  1.2359 -2.4977  0.0177
  355MOL0     H48976   2.047   7.323  10.364  0.9225  3.1357 -1.4575
  355MOL0     H48977   2.102   7.238  10.136  0.5679  0.9176 -4.0036
  355MOL0     H48978   1.754   7.162   9.865  0.4761 -0.6777  0.9144
  355MOL0     H48979   1.790   7.324   9.806  1.8127  0.1101 -1.8363
  355MOL0     H48980   1.817   7.128   9.652  0.1412  1.7619  1.2884
  355MOL0     H48981   1.959   7.068   9.751 -0.8575  0.0888  1.8443
  355MOL0     H48982   2.079   7.268   9.702  1.7368 -1.0948 -0.8472
  355MOL0     H48983   2.026   7.188   9.554 -1.0667 -0.4785 -2.0038
  355MOL0     H48984   1.897   7.451   9.652  1.2500  2.3770 -1.9315
  355MOL0     H48985   1.826   7.349   9.528  0.0442  0.1331  0.2274
  355MOL0     H48986   2.103   7.532   9.295 -0.0383 -0.5653 -1.6108
  355MOL0     H48987   1.685   7.318  10.023 -1.1070 -1.8986  0.3548
  355MOL0     H48988   1.521   7.348  10.177  3.6448  0.9137 -2.6687
  355MOL0     H48989   1.549   7.324  10.353  0.0434  0.7402  1.3496
  355MOL0     H48990   1.568   7.475  10.280 -4.1759 -0.2829  1.3217
  356MOL0     O48991   7.735   1.506   1.793 -0.2383  0.0366  0.3455
  356MOL0     C48992   7.616   1.527   1.776 -0.7012 -0.2853  0.0852
  356MOL0     O48993   7.564   1.633   1.699 -0.2127  0.3867 -0.2633
  356MOL0     C48994   7.643   1.693   1.606  0.4636 -0.2321  0.5591
  356MOL0     C48995   7.712   1.617   1.514 -0.1808 -0.0635  0.2215
  356MOL0     C48996   7.788   1.678   1.410 -0.4099 -0.1718  0.7819
  356MOL0     C48997   7.782   1.815   1.393  0.6656 -0.1070  0.8041
  356MOL0     O48998   7.856   1.868   1.293  0.6716 -0.7191  0.1801
  356MOL0     C48999   7.776   1.973   1.228 -0.4570  0.1477  0.2626
  356MOL0     C49000   7.839   2.116   1.250  0.0447 -0.1232 -0.7038
  356MOL0     C49001   7.980   2.135   1.187  0.2209 -0.4678 -0.3521
  356MOL0     C49002   8.048   2.247   1.256 -0.2831  0.0893  0.3308
  356MOL0     C49003   7.969   2.380   1.236  0.2046  0.2332  0.3905
  356MOL0     C49004   8.058   2.502   1.247 -0.1069  0.0856 -0.3548
  356MOL0     C49005   7.992   2.632   1.227  0.9423  0.6859  0.2518
  356MOL0     C49006   7.923   2.678   1.360  0.8418 -0.2788 -0.3526
  356MOL0     N49007   7.890   2.822   1.345 -0.1317  0.5587 -0.3943
  356MOL0     C49008   7.790   2.877   1.275  0.7054  0.0084 -0.2462
  356MOL0     C49009   7.764   2.996   1.328  0.7328 -1.1978  0.6749
  356MOL0     C49010   7.654   3.092   1.291 -0.4128 -0.1408 -0.5543
  356MOL0     C49011   7.517   3.024   1.242 -0.2325 -0.2939  0.4359
  356MOL0     C49012   7.456   2.914   1.338 -0.4546  0.1590  0.5338
  356MOL0     C49013   7.417   2.971   1.473 -0.1687 -0.3020 -0.3451
  356MOL0     O49014   7.352   2.869   1.542 -0.1047  0.0947 -0.3000
  356MOL0     C49015   7.436   2.785   1.614  0.4386  0.8269 -1.3718
  356MOL0     C49016   7.573   2.806   1.643  0.1458  0.4905  0.9688
  356MOL0     C49017   7.660   2.706   1.695  0.3412 -0.9032  0.8452
  356MOL0     C49018   7.801   2.752   1.702 -0.5719 -0.1933 -0.2324
  356MOL0     C49019   7.608   2.578   1.716  0.6030 -1.2091  0.1631
  356MOL0     C49020   7.688   2.461   1.762  0.0506  0.8236  0.5112
  356MOL0     O49021   7.658   2.332   1.724  0.8633 -0.7854  0.4230
  356MOL0     C49022   7.729   2.230   1.766 -0.6206 -0.0030  0.9044
  356MOL0     C49023   7.704   2.176   1.893  0.4648  0.0211 -0.1226
  356MOL0     C49024   7.795   2.093   1.954 -0.5294  0.2042 -0.1254
  356MOL0     C49025   7.909   2.052   1.883 -1.2149 -0.4503  0.1367
  356MOL0     O49026   8.000   1.958   1.936 -1.0048 -0.7399  0.4319
  356MOL0     C49027   7.938   1.833   1.969  0.7651 -0.8410  0.5721
  356MOL0     C49028   8.043   1.723   1.971  0.4250  0.8389  0.5148
  356MOL0     C49029   8.061   1.649   1.839 -0.0922 -0.7286  0.6484
  356MOL0     C49030   8.041   1.729   1.709  0.7104 -0.4005 -0.3320
  356MOL0     C49031   8.121   1.659   1.590  0.5883 -0.6166  0.3043
  356MOL0     C49032   8.153   1.766   1.486  0.2550 -0.2671 -0.5209
  356MOL0     C49033   8.181   1.690   1.349  0.0397 -0.0333  0.3809
  356MOL0     C49034   8.229   1.791   1.239 -0.3374  0.1816  0.1254
  356MOL0    Cl49035   8.370   1.870   1.303 -0.2983 -0.4939  0.1871
  356MOL0     C49036   7.941   2.099   1.752 -0.3737  0.1367 -0.1872
  356MOL0     C49037   7.853   2.183   1.693  0.1335  0.5963  0.4373
  356MOL0     O49038   7.785   2.492   1.833  0.4183  0.2583  0.0096
  356MOL0     C49039   7.473   2.565   1.700 -0.0013 -0.4744 -0.4080
  356MOL0     C49040   7.392   2.662   1.636 -0.1754  0.2302 -0.3000
  356MOL0     N49041   7.842   3.009   1.434 -0.3248 -0.0844  0.4325
  356MOL0     N49042   7.920   2.899   1.455  0.2032 -0.3862  0.8102
  356MOL0     C49043   7.709   1.891   1.490 -0.5710 -1.1576  0.1194
  356MOL0     C49044   7.649   1.830   1.602  0.5374  0.1561  0.7030
  356MOL0     C49045   7.523   1.452   1.859 -0.9889  0.5159 -0.0999
  356MOL0     C49046   7.388   1.494   1.857  0.3775 -0.1458  1.0636
  356MOL0     C49047   7.294   1.430   1.931 -0.3318  0.6725 -0.4280
  356MOL0     C49048   7.328   1.333   2.019 -0.2252 -0.6864  0.3595
  356MOL0     O49049   7.238   1.292   2.120  0.8141 -1.1201 -0.2182
  356MOL0     C49050   7.106   1.243   2.075 -0.0255 -0.4273  0.5778
  356MOL0     C49051   7.012   1.229   2.197 -0.4465  1.0268  0.4847
  356MOL0     C49052   7.009   1.335   2.297 -0.5025 -0.1677 -0.1147
  356MOL0     C49053   6.995   1.476   2.234  0.1389  0.6012  0.2305
  356MOL0     C49054   6.938   1.569   2.335 -0.0521  0.0812  0.0081
  356MOL0     C49055   6.872   1.648   2.403 -0.8373  0.7971 -0.4706
  356MOL0     C49056   7.464   1.292   2.027  0.1985  0.1189  0.1265
  356MOL0     C49057   7.564   1.344   1.944 -0.0825 -0.2075 -0.1086
  356MOL0     C49058   7.700   1.289   1.975 -0.2133 -0.4884  0.0222
  356MOL0     H49059   7.702   1.509   1.524 -3.6046 -0.0799 -2.0353
  356MOL0     H49060   7.855   1.621   1.347  2.3373  0.2421  3.1227
  356MOL0     H49061   7.671   1.976   1.258 -0.4238 -3.6971  1.3278
  356MOL0     H49062   7.787   1.964   1.119 -0.5057 -2.8899  0.4364
  356MOL0     H49063   7.763   2.180   1.205 -0.1663  0.4613  0.4601
  356MOL0     H49064   7.850   2.138   1.356  0.6815  0.6591 -0.9264
  356MOL0     H49065   8.032   2.042   1.211  0.5237 -0.3074 -0.3727
  356MOL0     H49066   7.968   2.161   1.081 -4.0377  2.4546  0.5765
  356MOL0     H49067   8.063   2.222   1.362 -0.1047 -2.4390 -0.2299
  356MOL0     H49068   8.146   2.244   1.207 -0.4104 -0.7629  0.1210
  356MOL0     H49069   7.892   2.390   1.312  0.2023  2.7775  0.1346
  356MOL0     H49070   7.928   2.397   1.136  1.4138  1.3761  0.0694
  356MOL0     H49071   8.119   2.493   1.338  0.4674 -0.8560 -0.8160
  356MOL0     H49072   8.126   2.490   1.162 -0.0499 -1.4182 -0.1248
  356MOL0     H49073   7.913   2.611   1.155  1.7336 -0.6007 -0.2799
  356MOL0     H49074   8.063   2.704   1.184  3.7136 -0.1303  3.0178
  356MOL0     H49075   7.833   2.616   1.372  0.2306 -0.0372 -3.0859
  356MOL0     H49076   7.990   2.651   1.442 -0.4021  1.8888  1.4889
  356MOL0     H49077   7.722   2.842   1.197 -2.0333 -1.7770  2.7086
  356MOL0     H49078   7.687   3.163   1.215  1.6140 -2.3514 -1.8913
  356MOL0     H49079   7.637   3.142   1.387 -2.4498 -5.0499  2.0375
  356MOL0     H49080   7.448   3.108   1.245  2.4537  2.0572  0.6056
  356MOL0     H49081   7.518   2.979   1.143 -3.4827  1.4665 -0.5228
  356MOL0     H49082   7.368   2.871   1.290  2.0359 -1.9324 -2.6393
  356MOL0     H49083   7.515   2.823   1.349 -0.9382 -0.5861 -2.2206
  356MOL0     H49084   7.496   3.022   1.530 -1.6444 -1.0104  2.5169
  356MOL0     H49085   7.340   3.048   1.467  2.3896  2.3818 -0.9509
  356MOL0     H49086   7.628   2.898   1.623  0.6352  1.3520  5.2367
  356MOL0     H49087   7.843   2.722   1.798  0.1175 -0.1477 -0.5125
  356MOL0     H49088   7.822   2.859   1.698 -3.8074  0.5593 -0.0839
  356MOL0     H49089   7.867   2.703   1.630 -0.1284  2.0218 -1.4222
  356MOL0     H49090   7.607   2.191   1.938 -0.7101  1.0862 -2.7793
  356MOL0     H49091   7.763   2.037   2.041  1.6367 -2.1618 -0.7069
  356MOL0     H49092   7.899   1.839   2.070  2.9859  0.4757  1.4179
  356MOL0     H49093   7.853   1.818   1.901  0.0493 -2.9239  1.8382
  356MOL0     H49094   8.136   1.773   1.999  0.1110  1.1623  0.9891
  356MOL0     H49095   8.014   1.657   2.054  1.1134  1.5671  1.3568
  356MOL0     H49096   8.013   1.551   1.830 -0.9331 -0.1668 -1.5742
  356MOL0     H49097   8.167   1.621   1.839  0.5668  1.5922  1.1902
  356MOL0     H49098   8.089   1.827   1.717  2.5291 -1.3475  1.2017
  356MOL0     H49099   7.936   1.745   1.683  0.9556  2.7366  0.2374
  356MOL0     H49100   8.214   1.610   1.620  1.4977  0.6911 -0.2558
  356MOL0     H49101   8.053   1.582   1.552 -0.6880  0.8510 -0.5392
  356MOL0     H49102   8.242   1.817   1.525 -1.3219  1.6385  0.7920
  356MOL0     H49103   8.069   1.835   1.471  0.8068  0.9421  1.5809
  356MOL0     H49104   8.094   1.635   1.313 -1.5803  1.0940  2.3312
  356MOL0     H49105   8.262   1.621   1.374  0.5646  0.6704  0.6836
  356MOL0     H49106   8.149   1.861   1.212 -2.1295 -1.0285  1.9846
  356MOL0     H49107   8.257   1.727   1.155  3.4595 -1.4359  2.3597
  356MOL0     H49108   8.034   2.082   1.699  1.4256 -0.4703  2.9201
  356MOL0     H49109   7.876   2.237   1.602 -1.6733 -2.1652 -1.8477
  356MOL0     H49110   7.424   2.472   1.727 -4.7595  1.7654 -0.2392
  356MOL0     H49111   7.285   2.647   1.627  0.1805 -2.7881 -0.6743
  356MOL0     H49112   7.708   2.000   1.492  1.4850 -1.0351 -1.6916
  356MOL0     H49113   7.596   1.885   1.679  0.1705 -2.0973  2.1494
  356MOL0     H49114   7.357   1.575   1.792  0.1020 -2.3332 -1.7169
  356MOL0     H49115   7.197   1.476   1.940 -0.4988  0.4924 -1.1923
  356MOL0     H49116   7.064   1.314   2.003 -1.3534  0.5255  2.2125
  356MOL0     H49117   7.116   1.147   2.024  2.2016 -0.2027  0.5300
  356MOL0     H49118   7.040   1.135   2.245 -1.5783  0.0599 -0.6551
  356MOL0     H49119   6.908   1.205   2.172  0.3641 -2.6985  0.0809
  356MOL0     H49120   6.931   1.307   2.368 -2.2507 -0.5834 -2.0931
  356MOL0     H49121   7.106   1.333   2.348 -0.9915  1.5009  0.9509
  356MOL0     H49122   6.914   1.476   2.160 -1.5392  0.7527  1.9879
  356MOL0     H49123   7.092   1.511   2.198 -0.3300  2.5799  0.7407
  356MOL0     H49124   6.799   1.700   2.462  0.0852  0.2424  1.2391
  356MOL0     H49125   7.484   1.206   2.091 -0.4433 -0.8311 -0.9013
  356MOL0     H49126   7.691   1.212   2.053  0.0044  0.5896  1.1406
  356MOL0     H49127   7.747   1.249   1.885 -0.6396  3.6416 -2.2704
  356MOL0     H49128   7.762   1.374   2.002  0.2270 -0.7860 -0.0474
  357MOL0     O49129   0.265   2.447   7.005  0.0198 -0.1167 -0.2224
  357MOL0     C49130   0.200   2.346   6.973  0.2871 -0.5442  0.0670
  357MOL0     O49131   0.065   2.331   6.985 -0.4989 -0.5301 -0.7445
  357MOL0     C49132   0.010   2.433   7.060 -0.7618 -0.7717 -0.3334
  357MOL0     C49133  -0.013   2.559   7.011 -0.8967  0.4593  0.0288
  357MOL0     C49134  -0.076   2.659   7.074 -0.1247 -0.1248  0.0065
  357MOL0     C49135  -0.125   2.631   7.202  0.1894  0.6561  0.4179
  357MOL0     O49136  -0.192   2.730   7.264 -0.5892  0.5737 -0.1509
  357MOL0     C49137  -0.197   2.717   7.405 -0.9450  0.1744  1.3742
  357MOL0     C49138  -0.331   2.654   7.454  0.3061 -0.4029 -0.9892
  357MOL0     C49139  -0.459   2.753   7.471 -0.9216 -0.9699 -0.3785
  357MOL0     C49140  -0.572   2.703   7.388 -1.2443  0.0559 -0.2143
  357MOL0     C49141  -0.677   2.806   7.356  0.0999 -0.1992  0.1130
  357MOL0     C49142  -0.777   2.825   7.479 -1.4349  0.3293 -0.9753
  357MOL0     C49143  -0.889   2.928   7.464 -0.7093  0.6920 -0.3921
  357MOL0     C49144  -0.848   3.067   7.407 -0.2479  0.0122  0.2139
  357MOL0     N49145  -0.758   3.132   7.496  0.3649  1.8769  0.5320
  357MOL0     C49146  -0.784   3.158   7.626 -0.2518  0.2840  0.2494
  357MOL0     C49147  -0.681   3.226   7.673 -0.6826 -0.3891  0.5352
  357MOL0     C49148  -0.674   3.277   7.813  0.2891  0.3914 -0.2391
  357MOL0     C49149  -0.527   3.301   7.861  0.3694 -0.4721  0.1478
  357MOL0     C49150  -0.489   3.310   8.004 -0.3681 -0.2199 -0.3158
  357MOL0     C49151  -0.531   3.179   8.078 -0.1107 -0.4203  0.7554
  357MOL0     O49152  -0.501   3.063   7.998 -1.1691  0.7473  0.0893
  357MOL0     C49153  -0.362   3.040   7.974 -0.7623 -0.8214 -0.1604
  357MOL0     C49154  -0.322   2.935   7.892 -0.2754  0.5524  0.4551
  357MOL0     C49155  -0.194   2.889   7.865  0.0908  0.2438 -0.1651
  357MOL0     C49156  -0.180   2.765   7.777 -0.2435  0.1850 -0.4620
  357MOL0     C49157  -0.091   2.970   7.930  0.7207 -0.9151 -0.5790
  357MOL0     C49158   0.056   2.951   7.908 -0.6185 -0.1312 -0.6652
  357MOL0     O49159   0.141   3.049   7.967 -0.6349  0.5355 -0.4377
  357MOL0     C49160   0.273   3.013   7.972 -0.7085 -0.2781 -0.3920
  357MOL0     C49161   0.360   2.986   7.861  0.3965 -1.1272  0.1350
  357MOL0     C49162   0.487   2.935   7.886 -0.4534 -0.0823 -1.5363
  357MOL0     C49163   0.540   2.915   8.020 -0.5272  0.3891 -0.2338
  357MOL0     O49164   0.666   2.866   8.048  0.2046  0.0393  0.0253
  357MOL0     C49165   0.745   2.849   7.932 -0.4185 -0.3972  0.1697
  357MOL0     C49166   0.887   2.861   7.987 -0.2943  0.2234  0.2132
  357MOL0     C49167   0.948   2.739   8.045 -0.9166 -0.5123  0.9507
  357MOL0     C49168   1.097   2.759   8.078 -0.2196 -0.1587  0.7781
  357MOL0     C49169   1.154   2.633   8.142  0.8198 -0.4712 -0.2798
  357MOL0     C49170   1.282   2.662   8.206 -0.2025 -0.6177  0.7147
  357MOL0     C49171   1.321   2.559   8.315  0.0035  0.1531 -0.2040
  357MOL0     C49172   1.307   2.409   8.280 -0.1491 -0.1803  0.0849
  357MOL0    Cl49173   1.406   2.393   8.128  0.5082 -0.0084 -0.2535
  357MOL0     C49174   0.453   2.939   8.127  0.4641 -0.3967 -0.3647
  357MOL0     C49175   0.324   2.986   8.099 -0.6817  0.4969  0.1077
  357MOL0     O49176   0.099   2.841   7.864  0.3475 -0.0233 -1.0423
  357MOL0     C49177  -0.123   3.079   8.008  0.0251  0.5335 -0.1859
  357MOL0     C49178  -0.252   3.110   8.040 -0.3562  0.1419  0.7469
  357MOL0     N49179  -0.586   3.236   7.568 -0.1989 -0.5371  0.1165
  357MOL0     N49180  -0.634   3.180   7.463 -0.2386 -0.5259 -0.0995
  357MOL0     C49181  -0.111   2.500   7.249  0.1329  0.1181 -1.0994
  357MOL0     C49182  -0.047   2.401   7.182 -0.6485  0.2173 -0.6242
  357MOL0     C49183   0.265   2.246   6.886 -0.9873 -0.3979 -0.3592
  357MOL0     C49184   0.190   2.186   6.781  0.2915  0.2320 -0.0568
  357MOL0     C49185   0.245   2.086   6.702 -0.5385  1.3071 -0.6521
  357MOL0     C49186   0.373   2.038   6.726  0.0888 -0.2392  0.4524
  357MOL0     O49187   0.417   1.938   6.652  0.0946 -0.5696  0.9178
  357MOL0     C49188   0.502   1.989   6.545  0.0051 -0.1180 -0.2464
  357MOL0     C49189   0.446   1.952   6.403 -0.1437  0.1449 -1.0300
  357MOL0     C49190   0.387   1.809   6.382 -0.6702 -0.1229  0.9431
  357MOL0     C49191   0.241   1.788   6.408  0.6679 -0.1221  0.7064
  357MOL0     C49192   0.212   1.652   6.349  0.4042 -0.0154 -0.0614
  357MOL0     C49193   0.195   1.541   6.316 -0.2304  0.1385 -0.2291
  357MOL0     C49194   0.458   2.104   6.816 -0.2970 -0.1444  0.4012
  357MOL0     C49195   0.402   2.208   6.900  0.3058  0.1154 -0.0482
  357MOL0     C49196   0.489   2.271   7.001  0.2679  0.0914 -0.8457
  357MOL0     H49197   0.013   2.554   6.905 -0.1997  1.0031  0.1672
  357MOL0     H49198  -0.092   2.758   7.032  1.2611  2.3119  4.6001
  357MOL0     H49199  -0.178   2.817   7.444  3.1901 -0.0680  0.5094
  357MOL0     H49200  -0.106   2.676   7.450 -1.2430 -1.9501  0.2034
  357MOL0     H49201  -0.369   2.578   7.385 -3.9608  2.5540 -2.3047
  357MOL0     H49202  -0.310   2.605   7.550  1.9442 -1.1345 -1.6693
  357MOL0     H49203  -0.477   2.758   7.578  1.3864  2.1776  0.0039
  357MOL0     H49204  -0.446   2.860   7.451 -1.4752 -0.6680  0.8333
  357MOL0     H49205  -0.543   2.671   7.288  0.5708 -1.6725  0.7953
  357MOL0     H49206  -0.622   2.618   7.435 -1.6361 -0.9846 -2.3751
  357MOL0     H49207  -0.730   2.762   7.271  0.0882 -0.3819  0.2138
  357MOL0     H49208  -0.639   2.904   7.326 -1.1039  1.0604  2.4117
  357MOL0     H49209  -0.832   2.732   7.498 -1.1957  0.5979  1.2988
  357MOL0     H49210  -0.702   2.850   7.555 -1.8562 -0.8718 -0.1442
  357MOL0     H49211  -0.940   2.946   7.560  0.9459 -1.6530  1.0371
  357MOL0     H49212  -0.967   2.885   7.401 -0.8474  2.0001 -1.1529
  357MOL0     H49213  -0.810   3.052   7.306 -3.0898 -1.8701 -0.7117
  357MOL0     H49214  -0.940   3.126   7.396 -0.7227 -0.9277 -1.1630
  357MOL0     H49215  -0.883   3.149   7.670 -1.3982 -0.4553 -2.2712
  357MOL0     H49216  -0.717   3.198   7.876 -3.0583  0.5549 -2.0747
  357MOL0     H49217  -0.740   3.364   7.818 -3.4684 -2.2492  1.9475
  357MOL0     H49218  -0.469   3.220   7.814  2.9299  1.8173 -0.9117
  357MOL0     H49219  -0.490   3.392   7.813 -1.6481  0.2985 -0.0161
  357MOL0     H49220  -0.385   3.335   8.023  0.5246 -1.8690 -2.6001
  357MOL0     H49221  -0.555   3.385   8.049 -1.0972 -0.4706 -0.9534
  357MOL0     H49222  -0.474   3.171   8.171  2.5325  0.1525 -0.6957
  357MOL0     H49223  -0.637   3.190   8.102 -0.6642  0.3151 -1.7020
  357MOL0     H49224  -0.406   2.890   7.841 -0.8222  2.9996 -0.9674
  357MOL0     H49225  -0.131   2.689   7.838 -1.3839  0.1009  0.3865
  357MOL0     H49226  -0.128   2.794   7.685 -0.1478 -0.2650 -0.5510
  357MOL0     H49227  -0.281   2.734   7.747 -0.2580  1.1254 -1.4513
  357MOL0     H49228   0.324   3.014   7.762 -0.6920 -1.3929  0.4438
  357MOL0     H49229   0.545   2.910   7.798  0.4986 -1.6968 -0.5148
  357MOL0     H49230   0.729   2.750   7.888 -1.2759 -0.6068  0.9272
  357MOL0     H49231   0.746   2.928   7.857 -0.3892  1.4307  2.0018
  357MOL0     H49232   0.954   2.884   7.903 -0.4707  0.5616  0.1623
  357MOL0     H49233   0.887   2.945   8.057 -2.4940  1.2450 -0.9118
  357MOL0     H49234   0.939   2.658   7.972 -0.3228  0.5377 -0.3127
  357MOL0     H49235   0.900   2.705   8.137 -0.2020 -1.7815  0.8772
  357MOL0     H49236   1.100   2.848   8.142  1.4965 -0.4584  1.1638
  357MOL0     H49237   1.141   2.781   7.981  0.8991 -2.1710  0.7716
  357MOL0     H49238   1.089   2.610   8.227  0.1065  2.4043  0.0500
  357MOL0     H49239   1.166   2.552   8.070 -0.1080 -1.9920  1.1997
  357MOL0     H49240   1.294   2.762   8.249 -0.3720 -1.1084  1.9217
  357MOL0     H49241   1.356   2.655   8.126  0.3440 -1.6361  1.3017
  357MOL0     H49242   1.258   2.588   8.400 -0.7776  0.8925 -1.0202
  357MOL0     H49243   1.423   2.583   8.347 -0.0890  0.9296 -0.4769
  357MOL0     H49244   1.209   2.374   8.246  1.5971 -3.5942 -1.9893
  357MOL0     H49245   1.350   2.346   8.358  1.8896 -0.0172 -0.8213
  357MOL0     H49246   0.490   2.923   8.228  2.7503 -1.9200 -1.3623
  357MOL0     H49247   0.259   3.003   8.185 -2.0983  0.0137 -0.8224
  357MOL0     H49248  -0.046   3.136   8.058  1.0851  0.9179 -2.1609
  357MOL0     H49249  -0.261   3.175   8.125  0.2968  2.1486 -0.6392
  357MOL0     H49250  -0.151   2.474   7.346 -1.7370  2.4527 -1.1505
  357MOL0     H49251  -0.044   2.299   7.221  1.6776 -0.2775 -1.8905
  357MOL0     H49252   0.086   2.214   6.767 -0.5749 -2.1154  1.0993
  357MOL0     H49253   0.193   2.029   6.625 -1.6439 -3.8497  3.3825
  357MOL0     H49254   0.524   2.097   6.543 -0.3817 -0.0440 -0.4686
  357MOL0     H49255   0.591   1.927   6.563 -2.6641 -4.1711  0.2715
  357MOL0     H49256   0.527   1.971   6.332 -0.0355 -0.6214 -1.1194
  357MOL0     H49257   0.370   2.025   6.375  0.1566 -0.3732 -3.4086
  357MOL0     H49258   0.416   1.774   6.282 -3.5730  3.0367 -1.2381
  357MOL0     H49259   0.443   1.741   6.446 -0.0264 -0.8074 -0.2982
  357MOL0     H49260   0.182   1.863   6.355  2.6245  0.1746 -1.1508
  357MOL0     H49261   0.221   1.790   6.516  2.4764 -2.9369  1.1811
  357MOL0     H49262   0.194   1.437   6.289 -2.3525 -0.1956  0.8726
  357MOL0     H49263   0.564   2.078   6.821 -0.1809  0.1840 -0.2033
  357MOL0     H49264   0.498   2.375   6.968 -1.6232  0.9177  1.0497
  357MOL0     H49265   0.457   2.271   7.106  1.2385 -1.1496 -0.5147
  357MOL0     H49266   0.587   2.221   6.999 -1.6527 -4.2484  0.3551
  358MOL0     O49267  10.319   3.866   1.449  0.1367 -0.0239  0.6727
  358MOL0     C49268  10.366   3.975   1.428 -0.3320  0.4904  0.1557
  358MOL0     O49269  10.296   4.088   1.406 -0.0750 -0.6044 -0.2531
  358MOL0     C49270  10.154   4.084   1.423  0.0302 -0.3510  0.3817
  358MOL0     C49271  10.070   4.019   1.328  0.2556 -0.5712 -0.4282
  358MOL0     C49272   9.928   4.031   1.347 -0.7994  0.2098 -0.2194
  358MOL0     C49273   9.888   4.092   1.463 -0.5579 -1.1732  0.3115
  358MOL0     O49274   9.755   4.079   1.486  0.2995 -0.5527  0.2347
  358MOL0     C49275   9.731   4.012   1.606  1.0062 -0.0155 -0.0533
  358MOL0     C49276   9.594   3.937   1.590 -0.5502  0.0386 -0.7012
  358MOL0     C49277   9.598   3.822   1.482  0.0516 -0.4102 -0.1644
  358MOL0     C49278   9.480   3.816   1.390 -0.3639  0.1972 -0.1715
  358MOL0     C49279   9.485   3.711   1.284  0.1466  0.0068  0.4446
  358MOL0     C49280   9.368   3.718   1.184  0.5183  0.3290  0.7224
  358MOL0     C49281   9.349   3.844   1.103 -0.9384 -0.3610  0.0151
  358MOL0     C49282   9.270   3.951   1.185  0.7721 -0.4685  0.4749
  358MOL0     N49283   9.328   4.084   1.160  0.4748  0.7428  0.3062
  358MOL0     C49284   9.418   4.139   1.244 -0.3323  0.0295  1.1231
  358MOL0     C49285   9.461   4.259   1.186 -0.3692 -0.2159  0.1257
  358MOL0     C49286   9.553   4.352   1.257  0.3430 -0.1680 -0.4943
  358MOL0     C49287   9.585   4.485   1.187 -0.3409  0.4877  0.4475
  358MOL0     C49288   9.681   4.486   1.073 -0.0251  0.1876  0.8962
  358MOL0     C49289   9.821   4.438   1.110 -1.1009 -0.2826 -0.1423
  358MOL0     O49290   9.916   4.471   1.005 -0.6058 -0.2272 -0.6288
  358MOL0     C49291  10.054   4.443   1.019 -0.6382 -0.4180 -0.4909
  358MOL0     C49292  10.140   4.436   0.907  0.3046 -0.6664 -0.8272
  358MOL0     C49293  10.275   4.417   0.912 -0.6543  0.2186  0.0571
  358MOL0     C49294  10.355   4.403   0.781 -0.2377 -0.2301  0.0797
  358MOL0     C49295  10.337   4.427   1.038 -0.7551 -0.1899 -0.0700
  358MOL0     C49296  10.482   4.461   1.063 -0.2131 -0.6709 -0.2871
  358MOL0     O49297  10.535   4.430   1.189 -0.0266  0.5270  0.0947
  358MOL0     C49298  10.673   4.452   1.208  0.6479 -0.7630  0.3997
  358MOL0     C49299  10.715   4.567   1.281 -1.1159  0.4019  0.0104
  358MOL0     C49300  10.855   4.598   1.308  0.5308 -0.7232  0.5510
  358MOL0     C49301  10.953   4.511   1.254  0.5644  0.0699 -0.8052
  358MOL0     O49302  11.092   4.523   1.289  0.1719  0.1437 -0.5219
  358MOL0     C49303  11.146   4.656   1.287  0.1681  0.7159 -0.1976
  358MOL0     C49304  11.282   4.668   1.353  0.7077  0.2830 -0.3631
  358MOL0     C49305  11.333   4.808   1.349 -0.4315  0.4350  0.1337
  358MOL0     C49306  11.246   4.918   1.418  0.1692  0.3701 -0.8016
  358MOL0     C49307  11.285   5.054   1.360  0.1499  0.0517  0.7589
  358MOL0     C49308  11.408   5.112   1.411 -1.2639  0.3801  0.1058
  358MOL0     C49309  11.405   5.264   1.428 -0.1604  0.3355 -0.1156
  358MOL0     C49310  11.545   5.315   1.417 -0.3172  1.4534 -0.2800
  358MOL0    Cl49311  11.658   5.297   1.558  0.1678  0.8211  0.1453
  358MOL0     C49312  10.909   4.388   1.183 -0.6464  0.1819 -0.4116
  358MOL0     C49313  10.771   4.370   1.157 -0.1949  0.3098  0.5125
  358MOL0     O49314  10.543   4.526   0.982 -0.4965  0.2106 -0.3373
  358MOL0     C49315  10.262   4.424   1.155  0.2080 -0.3569  0.0928
  358MOL0     C49316  10.120   4.434   1.146  0.4040  0.6632  0.1677
  358MOL0     N49317   9.381   4.284   1.078  0.1666 -1.3091 -0.3683
  358MOL0     N49318   9.307   4.176   1.059  0.0368  0.0727 -0.3849
  358MOL0     C49319   9.968   4.155   1.557 -0.7037 -0.2428  0.2305
  358MOL0     C49320  10.108   4.154   1.534 -0.1744 -0.3182 -0.4678
  358MOL0     C49321  10.505   3.979   1.409 -0.0129  0.4977 -0.6587
  358MOL0     C49322  10.539   4.030   1.283  0.4300 -0.1470  0.5273
  358MOL0     C49323  10.666   3.990   1.244  0.1964 -0.0925  0.0234
  358MOL0     C49324  10.759   3.930   1.323 -0.4089 -0.0262  0.3411
  358MOL0     O49325  10.890   3.916   1.273  0.1138 -0.4206  0.4522
  358MOL0     C49326  11.006   3.868   1.346 -0.4744  0.7836 -0.7916
  358MOL0     C49327  11.121   3.966   1.362 -1.4623 -0.0005 -0.1250
  358MOL0     C49328  11.057   4.107   1.369 -0.7753 -0.5629 -0.0364
  358MOL0     C49329  11.153   4.215   1.416  0.4929  0.1614 -0.8235
  358MOL0     C49330  11.252   4.244   1.310 -0.0896  0.6269  0.4046
  358MOL0     C49331  11.344   4.258   1.225  0.4816  0.8305  0.0272
  358MOL0     C49332  10.726   3.890   1.451  0.5150 -0.1925  0.0049
  358MOL0     C49333  10.592   3.911   1.498 -0.7622  0.1279 -0.7369
  358MOL0     C49334  10.543   3.840   1.619 -0.4351  0.4953  0.1293
  358MOL0     H49335  10.121   3.962   1.252 -1.9222 -0.4726 -2.0735
  358MOL0     H49336   9.859   3.967   1.293 -1.1734 -0.6931  1.2707
  358MOL0     H49337   9.731   4.094   1.678  1.7419  0.6240 -0.7608
  358MOL0     H49338   9.809   3.941   1.633 -0.6977 -2.7184 -1.7499
  358MOL0     H49339   9.561   3.896   1.686  0.8244  0.6545  0.0621
  358MOL0     H49340   9.508   3.997   1.559  1.0825  2.1528 -1.3554
  358MOL0     H49341   9.688   3.829   1.420 -0.9899 -2.5111 -2.0558
  358MOL0     H49342   9.603   3.729   1.538  1.5821 -0.0868  0.2893
  358MOL0     H49343   9.385   3.805   1.444 -1.4861 -0.4977 -2.1699
  358MOL0     H49344   9.474   3.917   1.347 -2.1189 -0.0345 -0.5696
  358MOL0     H49345   9.495   3.610   1.323  3.8589 -1.0234 -2.5429
  358MOL0     H49346   9.568   3.720   1.213 -1.8276  0.8328 -1.9384
  358MOL0     H49347   9.392   3.650   1.102 -1.2462  0.4725  0.0251
  358MOL0     H49348   9.274   3.683   1.228 -0.2207  0.7904 -0.4411
  358MOL0     H49349   9.283   3.816   1.020  0.8471 -0.0323 -1.5847
  358MOL0     H49350   9.444   3.875   1.059 -2.5497 -0.2802 -3.7753
  358MOL0     H49351   9.169   3.948   1.144  1.3971 -0.9700 -1.1021
  358MOL0     H49352   9.268   3.928   1.292  1.6375 -0.7986  0.4250
  358MOL0     H49353   9.439   4.121   1.349  3.0604  3.0330  1.1457
  358MOL0     H49354   9.646   4.304   1.290  2.2705  2.9108 -1.1121
  358MOL0     H49355   9.502   4.385   1.349  2.2052  3.3120 -0.5473
  358MOL0     H49356   9.492   4.523   1.144  0.1607 -0.6233 -1.7537
  358MOL0     H49357   9.614   4.564   1.257 -2.8991  1.7810  0.1949
  358MOL0     H49358   9.632   4.427   0.995 -1.0491  1.5286  0.4842
  358MOL0     H49359   9.682   4.592   1.046  0.3876  0.0310  0.2777
  358MOL0     H49360   9.846   4.499   1.197 -0.5014  4.7666 -3.4310
  358MOL0     H49361   9.815   4.329   1.123  0.3108 -0.5170 -1.1843
  358MOL0     H49362  10.082   4.455   0.817 -0.9776  0.7672  0.2521
  358MOL0     H49363  10.421   4.315   0.782 -1.4150 -1.1349  0.2123
  358MOL0     H49364  10.403   4.495   0.746 -2.4036  0.4916 -1.1834
  358MOL0     H49365  10.278   4.387   0.705 -1.2715 -0.4672  1.1434
  358MOL0     H49366  10.637   4.633   1.317 -0.6721  1.7870 -1.4672
  358MOL0     H49367  10.878   4.694   1.353 -0.6610  0.0729 -0.4666
  358MOL0     H49368  11.154   4.704   1.189  0.3389  1.7021  0.2849
  358MOL0     H49369  11.080   4.713   1.354 -1.2269 -1.2651  0.2228
  358MOL0     H49370  11.269   4.642   1.459  0.8129 -1.7484 -0.7976
  358MOL0     H49371  11.341   4.585   1.315 -1.6083 -1.9859  0.6404
  358MOL0     H49372  11.349   4.837   1.245 -1.7332 -3.3010 -1.2829
  358MOL0     H49373  11.432   4.811   1.396 -0.6922 -3.0899  1.1979
  358MOL0     H49374  11.258   4.911   1.527  2.2989 -1.7871 -1.1039
  358MOL0     H49375  11.139   4.910   1.397  0.6115 -1.8909 -2.5591
  358MOL0     H49376  11.281   5.056   1.251 -3.1621 -2.7388  0.6547
  358MOL0     H49377  11.204   5.124   1.384 -0.7026  0.3418 -2.5129
  358MOL0     H49378  11.495   5.082   1.352  1.1431  2.9572  2.0567
  358MOL0     H49379  11.427   5.071   1.511 -0.9067  0.3955  0.0459
  358MOL0     H49380  11.357   5.294   1.522 -0.2571  3.1609 -0.9812
  358MOL0     H49381  11.338   5.307   1.353 -0.3199  1.3294  0.5733
  358MOL0     H49382  11.535   5.421   1.395  0.0599  1.9555  1.7695
  358MOL0     H49383  11.591   5.268   1.330  0.2191 -0.3386  0.9022
  358MOL0     H49384  10.986   4.317   1.155  0.6641 -0.1180  3.2622
  358MOL0     H49385  10.728   4.294   1.094 -0.8476  0.8577  0.2872
  358MOL0     H49386  10.307   4.418   1.254  0.2987  0.4544  0.1086
  358MOL0     H49387  10.063   4.435   1.238  1.1274 -0.7629  0.6744
  358MOL0     H49388   9.937   4.209   1.646 -1.4127 -3.6561  2.2571
  358MOL0     H49389  10.170   4.200   1.610  1.0151 -1.3441 -0.8028
  358MOL0     H49390  10.476   4.083   1.212  1.4961 -3.6602 -3.4332
  358MOL0     H49391  10.686   4.025   1.143  0.6228  0.2194  0.2164
  358MOL0     H49392  10.984   3.841   1.450  1.4843 -0.0772 -0.5538
  358MOL0     H49393  11.047   3.775   1.307 -1.7977 -1.0965  1.9739
  358MOL0     H49394  11.182   3.964   1.271 -1.4939  1.1437 -0.1966
  358MOL0     H49395  11.196   3.934   1.435  3.4577  3.2046 -3.1606
  358MOL0     H49396  11.027   4.144   1.271  1.0807  2.9836  0.5514
  358MOL0     H49397  10.970   4.099   1.435 -2.3389 -0.4927 -1.9920
  358MOL0     H49398  11.199   4.175   1.506  1.9079  0.6515 -1.2979
  358MOL0     H49399  11.099   4.308   1.432  2.0114  1.2077 -1.5055
  358MOL0     H49400  11.422   4.271   1.152 -1.4115 -1.5898 -2.6807
  358MOL0     H49401  10.793   3.855   1.529  0.7280 -0.0439 -0.1102
  358MOL0     H49402  10.616   3.843   1.700 -0.5590 -1.1092  0.3343
  358MOL0     H49403  10.443   3.868   1.654  0.0051  1.3166  0.7571
  358MOL0     H49404  10.527   3.737   1.585  0.2197  0.8231 -1.2698
  359MOL0     O49405   2.784   7.465   2.657 -0.1165 -0.4226  1.6223
  359MOL0     C49406   2.711   7.501   2.568  0.1354 -0.6410  0.2505
  359MOL0     O49407   2.577   7.524   2.579  0.7775 -0.3146 -0.3293
  359MOL0     C49408   2.520   7.492   2.704  0.0606  1.0455  0.4071
  359MOL0     C49409   2.509   7.359   2.749 -0.3716 -1.2618  0.8213
  359MOL0     C49410   2.449   7.338   2.867  0.4719 -0.5110 -0.0764
  359MOL0     C49411   2.410   7.442   2.952  0.3941  0.1155 -0.1941
  359MOL0     O49412   2.355   7.405   3.072  0.2293 -0.7168 -0.1681
  359MOL0     C49413   2.310   7.279   3.122  0.0083  0.5894  0.3643
  359MOL0     C49414   2.271   7.302   3.263  0.3793  0.4091 -0.0738
  359MOL0     C49415   2.349   7.419   3.342  1.6007 -1.0794  0.5309
  359MOL0     C49416   2.496   7.438   3.301 -0.3695 -0.5594 -0.2872
  359MOL0     C49417   2.564   7.495   3.435 -0.7539 -0.5077 -0.9721
  359MOL0     C49418   2.707   7.554   3.415 -0.2053 -0.7780 -0.1253
  359MOL0     C49419   2.778   7.584   3.546  1.3067 -0.7651 -0.6765
  359MOL0     C49420   2.850   7.459   3.604  0.3206  0.4100  0.2974
  359MOL0     N49421   2.927   7.488   3.723 -0.3876 -0.6131 -0.0325
  359MOL0     C49422   2.890   7.563   3.835  0.3290 -0.0184 -1.1126
  359MOL0     C49423   3.003   7.588   3.899  0.4042 -0.0403  0.3769
  359MOL0     C49424   3.019   7.669   4.029  0.3680 -0.3439  0.9340
  359MOL0     C49425   3.058   7.570   4.139 -0.1101 -0.7024  0.3230
  359MOL0     C49426   3.133   7.646   4.245  1.0245 -0.2633 -0.1776
  359MOL0     C49427   3.148   7.575   4.384 -0.1946 -0.2653  0.8704
  359MOL0     O49428   3.225   7.655   4.470 -0.6614  0.0713  0.4160
  359MOL0     C49429   3.174   7.780   4.510 -0.0108  0.3123  0.5879
  359MOL0     C49430   3.044   7.797   4.552 -0.6302  0.5556 -0.6956
  359MOL0     C49431   3.005   7.907   4.636 -0.3762  0.2270  0.5437
  359MOL0     C49432   2.864   7.906   4.693 -0.1555 -0.6920 -0.5897
  359MOL0     C49433   3.099   8.009   4.648  0.0711 -0.2480  0.6982
  359MOL0     C49434   3.067   8.133   4.725  0.6369  0.3014 -0.4613
  359MOL0     O49435   3.008   8.237   4.657 -0.7578  0.3476 -0.3124
  359MOL0     C49436   3.018   8.363   4.713 -0.4181  0.3806 -0.1630
  359MOL0     C49437   2.914   8.427   4.778 -0.5025  0.9742 -0.2302
  359MOL0     C49438   2.935   8.560   4.820  0.1079 -0.0313 -0.0016
  359MOL0     C49439   3.056   8.625   4.800 -0.1061 -0.2675  0.5248
  359MOL0     O49440   3.069   8.761   4.835  0.2204 -0.1507 -0.6155
  359MOL0     C49441   3.119   8.850   4.739 -0.1116 -0.4902 -0.5560
  359MOL0     C49442   3.090   9.001   4.784  0.5356  0.1297 -0.2057
  359MOL0     C49443   3.187   9.091   4.713 -0.3170  0.1361 -0.6285
  359MOL0     C49444   3.144   9.247   4.736 -0.0373  0.8292  0.1947
  359MOL0     C49445   3.190   9.342   4.625 -0.2559  0.2091  0.1337
  359MOL0     C49446   3.133   9.298   4.488  0.1094 -0.7933  0.3843
  359MOL0     C49447   3.139   9.407   4.367  0.6125  0.4976  0.0833
  359MOL0     C49448   3.100   9.340   4.230 -0.2061  0.7509  0.0907
  359MOL0    Cl49449   3.090   9.430   4.080  0.1068  0.2523  0.3715
  359MOL0     C49450   3.158   8.557   4.735 -0.0126 -1.2277  0.4216
  359MOL0     C49451   3.140   8.432   4.697  0.2430  0.1650 -0.0083
  359MOL0     O49452   3.081   8.122   4.845  0.2091  0.1085 -0.6081
  359MOL0     C49453   3.230   7.995   4.599  0.3893 -0.3969 -0.5434
  359MOL0     C49454   3.270   7.879   4.541 -0.1617 -0.4856  0.0058
  359MOL0     N49455   3.103   7.534   3.826  0.2415  0.4606  0.3405
  359MOL0     N49456   3.062   7.464   3.719  0.1513  0.6734 -0.3969
  359MOL0     C49457   2.420   7.576   2.913 -0.7836 -0.3074  0.1291
  359MOL0     C49458   2.472   7.597   2.783 -0.2367 -0.4185  0.3467
  359MOL0     C49459   2.759   7.495   2.427 -0.7181 -0.6018  0.9120
  359MOL0     C49460   2.691   7.416   2.341  0.2758 -0.2132 -0.2346
  359MOL0     C49461   2.742   7.384   2.218  0.0150  0.6519  0.2617
  359MOL0     C49462   2.872   7.419   2.170  0.6788  0.0959  0.4810
  359MOL0     O49463   2.914   7.382   2.041  0.3684 -0.2780  0.4231
  359MOL0     C49464   2.962   7.476   1.950 -0.5158 -0.5475 -0.3924
  359MOL0     C49465   3.115   7.451   1.929 -0.2686  0.7738 -0.6373
  359MOL0     C49466   3.137   7.304   1.909 -0.5824  0.6041 -0.4048
  359MOL0     C49467   3.277   7.276   1.845  0.7124  0.1888 -0.3055
  359MOL0     C49468   3.294   7.132   1.800  0.0860 -0.9444 -0.5897
  359MOL0     C49469   3.285   7.013   1.779  0.2961  0.2371  0.8084
  359MOL0     C49470   2.936   7.504   2.253  0.0759 -0.9105 -0.3289
  359MOL0     C49471   2.882   7.549   2.382 -0.1753 -0.9308 -0.2777
  359MOL0     C49472   2.938   7.662   2.459 -0.3451  0.0195  0.7175
  359MOL0     H49473   2.549   7.281   2.685  0.5107 -1.5420  1.6844
  359MOL0     H49474   2.430   7.238   2.905 -1.2328  0.5625  2.1920
  359MOL0     H49475   2.395   7.210   3.123 -0.4797 -0.1238 -1.5059
  359MOL0     H49476   2.227   7.234   3.066  2.9435 -3.6931 -1.0614
  359MOL0     H49477   2.164   7.327   3.269  0.5052  0.8789  0.2771
  359MOL0     H49478   2.278   7.209   3.320  1.0260  1.0649  0.9516
  359MOL0     H49479   2.285   7.507   3.330  2.4560 -0.4769  0.2979
  359MOL0     H49480   2.342   7.403   3.450 -2.4874  0.0635  0.6146
  359MOL0     H49481   2.542   7.340   3.286 -2.2278 -1.2697 -1.7003
  359MOL0     H49482   2.508   7.514   3.223 -0.5494 -0.1506  0.0782
  359MOL0     H49483   2.565   7.406   3.499  2.1531  0.7112  0.8898
  359MOL0     H49484   2.496   7.567   3.481  0.4054  0.3063 -0.4924
  359MOL0     H49485   2.771   7.485   3.360 -1.1327 -1.7747  0.0216
  359MOL0     H49486   2.700   7.644   3.354  0.0787 -1.2376 -0.8456
  359MOL0     H49487   2.700   7.596   3.621 -0.0295  1.2065 -2.2782
  359MOL0     H49488   2.839   7.675   3.546 -0.7644  0.7919  2.8997
  359MOL0     H49489   2.768   7.392   3.631 -0.6105  2.3339  2.6253
  359MOL0     H49490   2.916   7.420   3.526  3.4182 -0.3679  3.0986
  359MOL0     H49491   2.799   7.614   3.865 -0.3702 -1.6012 -0.4088
  359MOL0     H49492   2.922   7.711   4.057 -0.0329  1.3032 -2.4165
  359MOL0     H49493   3.092   7.748   4.007 -0.8392  0.4432 -0.4179
  359MOL0     H49494   2.964   7.525   4.173 -1.2017 -0.7111 -2.4299
  359MOL0     H49495   3.118   7.484   4.109 -0.4764 -0.6865 -0.4736
  359MOL0     H49496   3.232   7.667   4.205  1.1418  0.3075  0.4026
  359MOL0     H49497   3.078   7.738   4.268 -0.2092 -1.0153 -0.0286
  359MOL0     H49498   3.051   7.566   4.433 -0.9631  3.4873  0.3749
  359MOL0     H49499   3.205   7.482   4.376  1.0121  0.5426 -0.3256
  359MOL0     H49500   2.966   7.730   4.519  1.8738 -2.4083 -0.9909
  359MOL0     H49501   2.827   7.805   4.710 -3.2100  0.0069 -2.4569
  359MOL0     H49502   2.801   7.954   4.618 -0.2494  1.0021  0.5176
  359MOL0     H49503   2.845   7.957   4.788  0.1016 -2.0118  0.2039
  359MOL0     H49504   2.813   8.389   4.775 -0.7786  1.4230  2.0299
  359MOL0     H49505   2.848   8.613   4.859 -2.0190 -1.0542 -3.0175
  359MOL0     H49506   3.224   8.823   4.728 -0.2532 -0.7174 -1.3763
  359MOL0     H49507   3.064   8.833   4.646 -4.6552 -0.0088  1.7669
  359MOL0     H49508   2.984   9.028   4.772  0.6172  0.8474  0.5603
  359MOL0     H49509   3.114   9.011   4.890 -2.1848 -2.6840  0.8285
  359MOL0     H49510   3.182   9.062   4.607  3.6868 -1.2607 -0.5822
  359MOL0     H49511   3.291   9.076   4.742 -1.1721 -0.6276  2.4251
  359MOL0     H49512   3.189   9.267   4.834  0.9688  2.6418 -0.5784
  359MOL0     H49513   3.035   9.253   4.739  0.0415  2.2647  0.8542
  359MOL0     H49514   3.171   9.446   4.651  1.9907  1.7917 -3.6130
  359MOL0     H49515   3.298   9.324   4.626 -0.3120 -0.3316 -1.0596
  359MOL0     H49516   3.028   9.269   4.499 -0.5270  0.3823 -1.9332
  359MOL0     H49517   3.187   9.211   4.447 -2.1592 -1.9289 -0.3742
  359MOL0     H49518   3.241   9.445   4.357  1.5677 -1.6343  1.1362
  359MOL0     H49519   3.065   9.482   4.397 -3.3454 -2.9681 -0.0661
  359MOL0     H49520   3.001   9.294   4.237  0.9651 -2.6513 -2.5263
  359MOL0     H49521   3.175   9.260   4.222  0.0810  0.4020  4.1023
  359MOL0     H49522   3.252   8.608   4.720 -1.0688  0.4828 -0.6435
  359MOL0     H49523   3.217   8.386   4.636 -0.7475 -2.1242  0.3767
  359MOL0     H49524   3.312   8.056   4.635  1.7196 -1.7878 -1.1268
  359MOL0     H49525   3.375   7.868   4.516 -0.7744 -1.2532 -2.4363
  359MOL0     H49526   2.395   7.654   2.985  0.1908  1.8975 -1.8062
  359MOL0     H49527   2.489   7.698   2.747 -1.9138  1.0803  3.3788
  359MOL0     H49528   2.590   7.384   2.364  0.1878  0.2385  0.0095
  359MOL0     H49529   2.683   7.318   2.155  0.5532 -1.5864  1.9551
  359MOL0     H49530   2.915   7.481   1.852 -0.1128 -0.6870 -0.5953
  359MOL0     H49531   2.954   7.577   1.991 -2.1019 -1.6337  2.2107
  359MOL0     H49532   3.168   7.475   2.021 -2.7364  2.5748  0.4194
  359MOL0     H49533   3.159   7.498   1.841  3.2322 -0.3596  0.3660
  359MOL0     H49534   3.145   7.267   2.011  1.8914  0.9646 -0.4189
  359MOL0     H49535   3.053   7.264   1.850  0.0408  0.3945 -1.1648
  359MOL0     H49536   3.361   7.284   1.915  1.6334 -2.4582 -0.9994
  359MOL0     H49537   3.293   7.337   1.755  0.1568  0.0766 -0.4824
  359MOL0     H49538   3.270   6.908   1.769 -0.7845  0.2332  2.0538
  359MOL0     H49539   3.026   7.550   2.213  1.7278 -1.3321  2.5593
  359MOL0     H49540   2.863   7.728   2.503  1.5871  2.3004  0.7987
  359MOL0     H49541   3.008   7.625   2.536  1.0369  1.7235  0.3607
  359MOL0     H49542   2.995   7.735   2.400 -1.8452  0.7201  0.0934
  360MOL0     O49543  10.320   0.378   6.632  0.3814 -0.4376  0.4325
  360MOL0     C49544  10.421   0.315   6.604  0.5663 -0.3193  0.6886
  360MOL0     O49545  10.528   0.367   6.547 -0.3542 -0.1471 -0.2520
  360MOL0     C49546  10.548   0.502   6.526  0.4144  0.0783 -0.5078
  360MOL0     C49547  10.464   0.583   6.447  0.6989 -0.7458 -0.4238
  360MOL0     C49548  10.493   0.724   6.449 -0.6106 -0.4229  0.5521
  360MOL0     C49549  10.601   0.773   6.524  0.0191 -0.5248 -0.0935
  360MOL0     O49550  10.628   0.903   6.563  0.1821  0.0357 -0.1039
  360MOL0     C49551  10.542   1.009   6.529  0.9324 -0.0042 -0.4284
  360MOL0     C49552  10.585   1.134   6.599 -0.7188  0.0942 -0.5455
  360MOL0     C49553  10.704   1.196   6.525  0.1130  0.1025  0.0549
  360MOL0     C49554  10.756   1.328   6.575  0.3653  0.1960  0.5892
  360MOL0     C49555  10.831   1.314   6.706 -0.0056  0.3749 -0.6368
  360MOL0     C49556  10.892   1.450   6.741  0.3537 -1.0260  0.2337
  360MOL0     C49557  10.960   1.457   6.871  0.2646  0.1287 -0.3047
  360MOL0     C49558  11.054   1.581   6.878  0.4182  0.7072  0.5143
  360MOL0     N49559  11.106   1.603   7.017  0.3788 -0.2892  0.1741
  360MOL0     C49560  11.039   1.667   7.117 -0.2997  0.4499  0.8539
  360MOL0     C49561  11.093   1.626   7.232  0.0968  0.2525  1.0952
  360MOL0     C49562  11.065   1.677   7.366 -0.3033  0.4630 -0.6336
  360MOL0     C49563  10.922   1.720   7.384  1.2415  0.5675  0.1725
  360MOL0     C49564  10.888   1.752   7.531  0.3423  0.3839  0.5108
  360MOL0     C49565  10.737   1.811   7.542 -0.9351  1.4401  0.3381
  360MOL0     O49566  10.751   1.931   7.470  0.8395 -0.1192  0.4468
  360MOL0     C49567  10.798   2.040   7.535 -0.1106  0.9066 -0.2409
  360MOL0     C49568  10.858   2.051   7.666  0.8528 -0.5842  0.6814
  360MOL0     C49569  10.885   2.181   7.722  0.4736  0.2815  0.8459
  360MOL0     C49570  10.925   2.184   7.862  0.6101  0.0131  0.2223
  360MOL0     C49571  10.873   2.296   7.640 -0.8257 -0.7405  0.5411
  360MOL0     C49572  10.884   2.435   7.694  0.2497  0.6267 -0.3810
  360MOL0     O49573  10.775   2.524   7.682  0.2696 -0.4175  0.0883
  360MOL0     C49574  10.759   2.630   7.766  0.1359  0.2565 -0.8676
  360MOL0     C49575  10.626   2.656   7.804 -0.7604  0.1049 -0.3715
  360MOL0     C49576  10.600   2.770   7.878  0.2117  0.2596 -1.4257
  360MOL0     C49577  10.700   2.852   7.928 -0.6732 -0.6797 -0.5029
  360MOL0     O49578  10.688   2.960   8.015 -0.1879 -0.0980 -0.0378
  360MOL0     C49579  10.556   3.020   8.032  0.1328  0.5589 -0.1227
  360MOL0     C49580  10.539   3.091   8.177 -0.6992 -0.4181 -0.6587
  360MOL0     C49581  10.558   3.004   8.295 -0.0340  0.5610  0.0778
  360MOL0     C49582  10.645   3.066   8.398 -0.3106 -0.2530 -0.2945
  360MOL0     C49583  10.576   3.193   8.458  0.3407  0.2383  0.6422
  360MOL0     C49584  10.687   3.280   8.518  0.1455 -0.2322  0.4039
  360MOL0     C49585  10.788   3.344   8.424 -0.1002  0.6775  0.6629
  360MOL0     C49586  10.897   3.419   8.498  0.1317 -0.7249  0.4533
  360MOL0    Cl49587  11.039   3.454   8.399 -0.5747 -0.0586  0.0136
  360MOL0     C49588  10.833   2.834   7.892  0.6616 -0.2036  0.6650
  360MOL0     C49589  10.859   2.718   7.810  0.0647  0.1176  0.3287
  360MOL0     O49590  10.996   2.467   7.729  0.3733  0.3149  0.1040
  360MOL0     C49591  10.838   2.282   7.509  0.7654 -0.5468 -0.3795
  360MOL0     C49592  10.792   2.153   7.466 -0.1919 -0.0334  0.2362
  360MOL0     N49593  11.176   1.528   7.198 -0.4693 -0.6853 -0.4984
  360MOL0     N49594  11.195   1.517   7.071  0.6260  0.2590  0.2029
  360MOL0     C49595  10.683   0.686   6.592 -0.9565 -0.4286 -0.1120
  360MOL0     C49596  10.652   0.555   6.596 -0.4175 -0.2080 -0.0780
  360MOL0     C49597  10.422   0.185   6.650 -0.4554  0.5619 -0.6112
  360MOL0     C49598  10.308   0.099   6.646  0.9044 -0.3757  0.9354
  360MOL0     C49599  10.305  -0.026   6.705  0.0949 -0.3470  0.2067
  360MOL0     C49600  10.415  -0.074   6.774 -0.4586  0.0768 -0.2529
  360MOL0     O49601  10.421  -0.212   6.808 -0.2775 -0.5611 -0.3709
  360MOL0     C49602  10.546  -0.274   6.845  0.3790 -0.0422  0.0482
  360MOL0     C49603  10.528  -0.423   6.804  1.1574  0.1563  0.2721
  360MOL0     C49604  10.406  -0.491   6.867 -0.3355 -0.8302  0.8818
  360MOL0     C49605  10.400  -0.639   6.838  1.1944 -0.1603 -0.3593
  360MOL0     C49606  10.354  -0.714   6.959  0.1549 -0.4604 -0.2779
  360MOL0     C49607  10.315  -0.791   7.043 -0.5962 -0.1801 -0.2867
  360MOL0     C49608  10.522   0.012   6.784 -0.0206  0.2551  0.1253
  360MOL0     C49609  10.531   0.143   6.732  0.5088  0.1434  0.4455
  360MOL0     C49610  10.640   0.230   6.765 -0.1922 -0.6104 -0.2432
  360MOL0     H49611  10.378   0.532   6.404 -0.5830  0.6533  0.3758
  360MOL0     H49612  10.414   0.786   6.406  0.2084 -0.0176 -0.4041
  360MOL0     H49613  10.439   0.980   6.552  0.5490  0.7954 -1.0679
  360MOL0     H49614  10.545   1.037   6.424  3.3641 -1.0460 -0.7006
  360MOL0     H49615  10.502   1.206   6.605  1.0167  2.2240 -0.9267
  360MOL0     H49616  10.615   1.108   6.701 -0.8349 -2.2514 -1.0522
  360MOL0     H49617  10.792   1.132   6.515  1.3852  2.0303 -2.2915
  360MOL0     H49618  10.679   1.213   6.419  3.2686  3.5616 -0.3314
  360MOL0     H49619  10.814   1.373   6.495 -1.2007  1.1868 -0.0490
  360MOL0     H49620  10.665   1.388   6.588 -1.7629 -2.9589  1.3231
  360MOL0     H49621  10.910   1.240   6.689 -0.0246  0.4789 -1.1773
  360MOL0     H49622  10.771   1.258   6.778  2.4177 -3.0156 -0.9992
  360MOL0     H49623  10.959   1.473   6.658 -1.5508 -0.6784 -1.2854
  360MOL0     H49624  10.812   1.525   6.735  0.8183 -0.6354 -3.0186
  360MOL0     H49625  11.017   1.365   6.890  1.8605  0.4277 -3.0972
  360MOL0     H49626  10.888   1.470   6.953  2.4505  1.1889  1.5672
  360MOL0     H49627  11.134   1.574   6.804 -0.0728  1.5277 -0.1119
  360MOL0     H49628  11.001   1.673   6.853 -3.5142 -1.0761  1.4392
  360MOL0     H49629  10.954   1.732   7.100 -0.8856 -0.7832 -1.2435
  360MOL0     H49630  11.118   1.771   7.384  1.0393  0.2874 -3.2012
  360MOL0     H49631  11.098   1.607   7.444 -0.9034  0.1102 -0.6848
  360MOL0     H49632  10.892   1.801   7.317 -1.8495 -1.3011 -0.8939
  360MOL0     H49633  10.857   1.638   7.351  0.9063  1.2821 -1.0023
  360MOL0     H49634  10.893   1.653   7.578  0.6763 -0.1438 -0.6126
  360MOL0     H49635  10.969   1.811   7.576  2.4947 -2.8859  1.3260
  360MOL0     H49636  10.659   1.746   7.504  0.9238  0.7406 -2.5904
  360MOL0     H49637  10.724   1.846   7.645  2.6391  1.6790  0.8463
  360MOL0     H49638  10.864   1.963   7.730 -0.2250 -0.7284  0.6090
  360MOL0     H49639  11.032   2.160   7.865  0.3900 -0.9844  0.4847
  360MOL0     H49640  10.859   2.113   7.913 -2.0324  1.6313 -0.7542
  360MOL0     H49641  10.919   2.287   7.897  1.9068  0.9034 -1.9698
  360MOL0     H49642  10.553   2.580   7.778  2.6745 -4.4442  1.7930
  360MOL0     H49643  10.499   2.768   7.917  0.1624 -0.9416 -1.5818
  360MOL0     H49644  10.537   3.099   7.958  4.1289  0.5897 -1.3899
  360MOL0     H49645  10.480   2.941   8.032  2.0187 -1.3609  0.9586
  360MOL0     H49646  10.599   3.181   8.191 -1.9862  0.1939  1.3269
  360MOL0     H49647  10.440   3.138   8.181 -1.7031 -2.4537 -0.4643
  360MOL0     H49648  10.607   2.913   8.258 -0.3932  0.9579 -1.4066
  360MOL0     H49649  10.459   2.990   8.339  0.0149  1.7462  0.6046
  360MOL0     H49650  10.747   3.076   8.360 -1.5496  2.6366 -3.3404
  360MOL0     H49651  10.653   2.996   8.482 -3.7249 -0.3236  0.0977
  360MOL0     H49652  10.515   3.250   8.388  2.0747  3.4820  1.5603
  360MOL0     H49653  10.510   3.177   8.543 -0.3977 -1.0775 -0.1460
  360MOL0     H49654  10.746   3.219   8.588  0.9448 -0.4393 -0.4306
  360MOL0     H49655  10.633   3.346   8.587 -1.1636 -0.6657 -0.1816
  360MOL0     H49656  10.750   3.423   8.360  0.4516 -0.7092 -1.4730
  360MOL0     H49657  10.844   3.269   8.367 -2.8193 -1.8486  1.0546
  360MOL0     H49658  10.931   3.355   8.580  0.1970  0.2213  1.1879
  360MOL0     H49659  10.863   3.520   8.521 -0.1738  1.4880 -7.0497
  360MOL0     H49660  10.917   2.900   7.910  2.0471 -0.8321 -2.7825
  360MOL0     H49661  10.964   2.705   7.783  0.6002  3.1506  0.5628
  360MOL0     H49662  10.824   2.368   7.444  0.3832 -1.7552 -1.9514
  360MOL0     H49663  10.750   2.153   7.366 -2.0015  1.1281  0.9446
  360MOL0     H49664  10.766   0.719   6.654 -1.4332 -1.4188  1.0890
  360MOL0     H49665  10.715   0.488   6.653 -1.6952  0.7551  2.6379
  360MOL0     H49666  10.231   0.132   6.578  1.1042 -2.1093 -0.1871
  360MOL0     H49667  10.227  -0.101   6.698 -2.5910  2.2330  0.0848
  360MOL0     H49668  10.631  -0.234   6.789  0.9812 -1.3687 -0.0183
  360MOL0     H49669  10.566  -0.267   6.952 -1.4852  3.7254  0.3027
  360MOL0     H49670  10.624  -0.473   6.822  1.2338 -1.3862 -3.4067
  360MOL0     H49671  10.509  -0.428   6.696  1.0494 -2.0006  0.3427
  360MOL0     H49672  10.401  -0.478   6.976 -1.2594  2.3755  0.5574
  360MOL0     H49673  10.318  -0.434   6.835 -0.9587 -1.2777  1.7551
  360MOL0     H49674  10.504  -0.669   6.825  2.4119  2.9866  1.0929
  360MOL0     H49675  10.334  -0.648   6.751  0.0645  2.8322  0.0421
  360MOL0     H49676  10.278  -0.866   7.110  0.1358 -1.5962 -1.4321
  360MOL0     H49677  10.615  -0.031   6.819 -0.8437 -0.7595  1.1411
  360MOL0     H49678  10.700   0.264   6.680 -0.2221  1.1958  0.4303
  360MOL0     H49679  10.599   0.325   6.798 -1.7831  0.2062 -4.0278
  360MOL0     H49680  10.703   0.183   6.841  2.0494 -1.1138 -2.2642
  361MOL0     O49681  10.084   7.842   3.233 -0.7597  0.2712  0.5963
  361MOL0     C49682  10.107   7.728   3.194  0.4604 -0.9829 -0.4056
  361MOL0     O49683  10.190   7.647   3.252 -0.1208  0.4429  0.2272
  361MOL0     C49684  10.280   7.689   3.349  1.0085  0.4589 -0.1845
  361MOL0     C49685  10.337   7.819   3.353  0.0011 -0.5750  0.8200
  361MOL0     C49686  10.440   7.852   3.442 -0.5284 -0.5301  0.6948
  361MOL0     C49687  10.491   7.748   3.526  0.2377 -0.8613 -0.4339
  361MOL0     O49688  10.604   7.785   3.597  0.0062 -0.0687 -0.4074
  361MOL0     C49689  10.636   7.712   3.709  0.5218 -0.6566 -1.1559
  361MOL0     C49690  10.721   7.792   3.798  0.3994  0.8577 -0.7854
  361MOL0     C49691  10.756   7.726   3.930 -0.3066  0.8866 -0.6872
  361MOL0     C49692  10.873   7.779   4.018  0.3920  0.4133  0.0755
  361MOL0     C49693  10.898   7.677   4.142  0.7377 -0.2420  0.4209
  361MOL0     C49694  11.044   7.690   4.191 -0.0042 -0.6565 -0.6200
  361MOL0     C49695  11.103   7.831   4.213 -0.0837 -0.1289 -0.1331
  361MOL0     C49696  11.067   7.885   4.355  0.4385  0.1286  0.5656
  361MOL0     N49697  10.924   7.932   4.372 -0.3688  0.9257 -0.1309
  361MOL0     C49698  10.864   8.025   4.305  0.8435 -0.7224  1.4747
  361MOL0     C49699  10.730   8.007   4.326  0.5453 -0.4761  0.2485
  361MOL0     C49700  10.615   8.076   4.247  0.0817  0.4893 -0.4331
  361MOL0     C49701  10.551   7.985   4.144 -0.0025 -0.0036 -0.1900
  361MOL0     C49702  10.430   8.057   4.089  0.5469  0.2032 -0.5472
  361MOL0     C49703  10.388   7.978   3.966 -0.6557 -0.4768 -0.5989
  361MOL0     O49704  10.356   7.842   3.998 -0.2481 -0.1839  0.7989
  361MOL0     C49705  10.221   7.824   4.017 -0.4291  0.6412  0.0044
  361MOL0     C49706  10.191   7.732   4.121 -0.8756 -0.7839  0.2015
  361MOL0     C49707  10.062   7.714   4.168 -0.1447 -0.0773  0.4284
  361MOL0     C49708  10.061   7.618   4.276 -0.0521 -0.0841 -0.6035
  361MOL0     C49709   9.951   7.775   4.095  0.2447  0.2030 -0.5967
  361MOL0     C49710   9.813   7.735   4.124  0.4122 -0.6672 -0.3552
  361MOL0     O49711   9.726   7.752   4.023  0.2799  0.5116  0.1069
  361MOL0     C49712   9.585   7.725   4.022  0.4357  0.2874  0.7099
  361MOL0     C49713   9.518   7.654   4.123 -0.0087 -0.7673 -0.4952
  361MOL0     C49714   9.387   7.605   4.106 -0.4123 -0.0351  0.9217
  361MOL0     C49715   9.327   7.617   3.981 -0.3214 -0.0237 -0.2744
  361MOL0     O49716   9.201   7.568   3.973 -0.4995  0.4450  0.1173
  361MOL0     C49717   9.174   7.486   3.856 -0.1431  1.0222  0.4307
  361MOL0     C49718   9.097   7.354   3.891 -0.3451 -0.1454  0.0344
  361MOL0     C49719   9.133   7.281   4.031 -0.0865 -0.0827 -0.6685
  361MOL0     C49720   9.266   7.213   4.012 -0.4457 -0.1420 -0.0465
  361MOL0     C49721   9.282   7.087   4.096 -0.1145 -1.0230  0.0198
  361MOL0     C49722   9.432   7.045   4.077 -0.0776  1.2315 -0.1214
  361MOL0     C49723   9.439   6.896   4.122  0.3312 -0.3517  0.1747
  361MOL0     C49724   9.578   6.853   4.158  0.3451  0.9220 -0.2928
  361MOL0    Cl49725   9.612   6.932   4.315 -0.2380  0.4689  0.7840
  361MOL0     C49726   9.392   7.684   3.882 -0.1129 -0.0901 -0.3393
  361MOL0     C49727   9.518   7.743   3.897 -0.4497  0.5609  0.0281
  361MOL0     O49728   9.782   7.695   4.231  0.1840  0.4753 -0.7970
  361MOL0     C49729   9.980   7.851   3.980 -0.3954  0.6915 -0.2446
  361MOL0     C49730  10.112   7.885   3.950 -0.0532 -0.0973 -0.2332
  361MOL0     N49731  10.719   7.910   4.429  0.0071 -0.7786  0.1918
  361MOL0     N49732  10.838   7.869   4.456  0.5996 -0.6291  0.1322
  361MOL0     C49733  10.422   7.628   3.533  0.1166 -0.5731 -0.6269
  361MOL0     C49734  10.318   7.599   3.445  0.0819  0.4981 -1.5396
  361MOL0     C49735  10.050   7.687   3.062  0.3230 -0.4148  0.4258
  361MOL0     C49736  10.124   7.598   2.979  1.0120 -0.3231  0.1677
  361MOL0     C49737  10.093   7.573   2.848  0.1215 -0.6226  0.3481
  361MOL0     C49738   9.981   7.634   2.784 -0.0817 -0.3407  0.1211
  361MOL0     O49739   9.953   7.594   2.653  0.5702  0.1359  0.3964
  361MOL0     C49740   9.848   7.665   2.580  0.0991 -0.6397 -0.6826
  361MOL0     C49741   9.885   7.810   2.543  0.8189  0.8618 -0.1936
  361MOL0     C49742   9.812   7.855   2.412 -0.1451  0.3424  0.9700
  361MOL0     C49743   9.658   7.839   2.426 -0.5697  0.7506 -0.3221
  361MOL0     C49744   9.615   7.937   2.520 -0.4104  0.2631  1.3398
  361MOL0     C49745   9.581   8.012   2.615  0.1331  0.3040  0.0349
  361MOL0     C49746   9.898   7.715   2.869 -0.1437  0.0439  0.1197
  361MOL0     C49747   9.934   7.752   2.999 -0.6560 -0.0228  0.9084
  361MOL0     C49748   9.847   7.863   3.062 -0.0330  0.1952  0.3829
  361MOL0     H49749  10.308   7.896   3.281  2.9120  0.5937  0.7777
  361MOL0     H49750  10.482   7.952   3.439 -1.4533 -0.1425 -1.0599
  361MOL0     H49751  10.695   7.621   3.690 -0.5303 -1.3223 -1.3166
  361MOL0     H49752  10.547   7.680   3.764  1.1446  0.8722  0.8951
  361MOL0     H49753  10.815   7.814   3.745  0.3090  0.7133 -1.0037
  361MOL0     H49754  10.658   7.880   3.815  2.7863  2.7553 -1.1897
  361MOL0     H49755  10.664   7.732   3.990  0.4094  2.5517  0.3009
  361MOL0     H49756  10.776   7.620   3.909 -1.4357 -0.3320  3.4490
  361MOL0     H49757  10.955   7.780   3.946  0.0261 -1.0003 -0.4115
  361MOL0     H49758  10.855   7.882   4.049 -1.2532  0.8928 -2.1774
  361MOL0     H49759  10.881   7.580   4.094 -0.0933  1.0009 -1.9650
  361MOL0     H49760  10.826   7.694   4.223  2.5263 -1.1716  2.3178
  361MOL0     H49761  11.047   7.624   4.278  1.2063  0.9179  0.5919
  361MOL0     H49762  11.110   7.638   4.121  0.3960 -1.6887  0.4913
  361MOL0     H49763  11.071   7.903   4.137 -2.9404 -1.3564 -0.2435
  361MOL0     H49764  11.211   7.822   4.204 -0.1475 -3.4160  0.8447
  361MOL0     H49765  11.082   7.811   4.435 -1.5718 -0.2310  0.6632
  361MOL0     H49766  11.137   7.968   4.367 -0.0241  0.5873  0.1200
  361MOL0     H49767  10.903   8.090   4.228 -2.5533 -1.4970 -1.1368
  361MOL0     H49768  10.660   8.158   4.190  0.9509 -1.3328 -2.5483
  361MOL0     H49769  10.534   8.120   4.305 -1.0930  2.4366 -3.2829
  361MOL0     H49770  10.626   7.957   4.069  0.7341  2.3552 -0.4283
  361MOL0     H49771  10.517   7.894   4.194  0.1832 -1.8649 -3.2157
  361MOL0     H49772  10.348   8.061   4.161 -0.4409 -0.4017 -1.6085
  361MOL0     H49773  10.458   8.159   4.057  1.3144 -0.1752 -1.1278
  361MOL0     H49774  10.305   8.031   3.916  0.1905  2.0664  0.5401
  361MOL0     H49775  10.469   7.978   3.892 -0.2105 -0.2203 -0.1141
  361MOL0     H49776  10.276   7.683   4.168 -1.5040 -0.3200  1.8554
  361MOL0     H49777   9.991   7.656   4.351  0.0292  0.1496 -0.6429
  361MOL0     H49778  10.162   7.604   4.318  0.2737  1.8221 -0.6464
  361MOL0     H49779  10.028   7.520   4.241  1.3500 -0.7862 -0.0671
  361MOL0     H49780   9.549   7.645   4.227 -2.0628 -1.4315  0.1067
  361MOL0     H49781   9.330   7.558   4.186 -1.5178 -0.6132 -0.1765
  361MOL0     H49782   9.104   7.550   3.801 -1.8734 -1.4551 -0.4363
  361MOL0     H49783   9.252   7.468   3.782 -1.9071  4.2608 -2.5157
  361MOL0     H49784   8.996   7.394   3.905 -0.3582 -0.5203  1.1604
  361MOL0     H49785   9.093   7.275   3.815  1.0259  0.0675 -0.2803
  361MOL0     H49786   9.055   7.208   4.057 -0.4903 -0.2609 -2.2865
  361MOL0     H49787   9.141   7.349   4.116 -1.5582  2.2968 -2.2984
  361MOL0     H49788   9.343   7.287   4.037  0.5669 -0.3211 -2.3492
  361MOL0     H49789   9.285   7.187   3.907 -0.5575 -2.3618  0.4485
  361MOL0     H49790   9.262   7.111   4.201  1.0668  0.9133 -0.1509
  361MOL0     H49791   9.209   7.018   4.052 -3.0535  1.7631  0.1554
  361MOL0     H49792   9.493   7.104   4.147  0.8956 -2.5604  2.5410
  361MOL0     H49793   9.464   7.057   3.973  0.8387 -0.7548 -0.1186
  361MOL0     H49794   9.410   6.837   4.035  3.4028 -0.1823 -1.1007
  361MOL0     H49795   9.380   6.876   4.212  1.0556  0.2877  0.8069
  361MOL0     H49796   9.650   6.875   4.078 -1.1924 -3.8850 -3.4619
  361MOL0     H49797   9.583   6.746   4.180 -0.8935  1.3360  2.3126
  361MOL0     H49798   9.336   7.707   3.791 -0.1485  0.2496 -0.2361
  361MOL0     H49799   9.565   7.775   3.805  0.5467 -1.5386 -0.2339
  361MOL0     H49800   9.898   7.890   3.922 -3.0321  1.9504  3.8665
  361MOL0     H49801  10.139   7.932   3.856  1.2033 -1.6012 -0.6592
  361MOL0     H49802  10.453   7.551   3.603 -0.7677 -0.6605 -0.3083
  361MOL0     H49803  10.276   7.502   3.468 -0.0622  0.9890  0.5245
  361MOL0     H49804  10.208   7.556   3.033 -1.3866  0.5230  5.2660
  361MOL0     H49805  10.148   7.494   2.797 -1.9414 -1.8559 -0.0927
  361MOL0     H49806   9.838   7.604   2.490 -1.2162  0.0162 -1.0052
  361MOL0     H49807   9.749   7.659   2.625 -0.1553  2.9372 -0.4631
  361MOL0     H49808   9.991   7.809   2.519  0.7457 -3.1591 -1.1423
  361MOL0     H49809   9.868   7.880   2.625  2.5758  1.1918 -0.0828
  361MOL0     H49810   9.834   7.961   2.391 -1.7868  0.1149 -2.6308
  361MOL0     H49811   9.847   7.797   2.326 -0.0718 -1.3439  2.0810
  361MOL0     H49812   9.618   7.743   2.460 -0.7179  0.8173 -0.3098
  361MOL0     H49813   9.626   7.851   2.322  2.5627  1.8583 -1.2972
  361MOL0     H49814   9.552   8.073   2.698 -2.1126  0.2846 -0.6798
  361MOL0     H49815   9.803   7.751   2.830 -1.5138 -1.0623  2.2536
  361MOL0     H49816   9.907   7.954   3.058 -0.5527  0.5099 -0.5571
  361MOL0     H49817   9.760   7.888   3.001  0.0941 -1.1903 -0.4034
  361MOL0     H49818   9.821   7.845   3.167 -1.4148 -1.1330 -0.1403
  362MOL0     O49819   5.382   2.516   8.607 -0.7167  0.3362 -0.0576
  362MOL0     C49820   5.388   2.427   8.685  0.9228  1.3120 -0.6194
  362MOL0     O49821   5.471   2.426   8.790 -0.2583 -0.4285 -0.0438
  362MOL0     C49822   5.552   2.529   8.833  1.3591  0.1475 -0.0915
  362MOL0     C49823   5.635   2.502   8.945 -0.7328 -0.1969  0.3563
  362MOL0     C49824   5.711   2.602   9.012 -0.3214 -1.5046  0.9756
  362MOL0     C49825   5.690   2.739   8.970  0.1379  0.0169  0.8294
  362MOL0     O49826   5.746   2.839   9.040  0.5264  0.5100 -0.3661
  362MOL0     C49827   5.803   2.824   9.174 -0.7523 -1.0507  0.0728
  362MOL0     C49828   5.793   2.947   9.258 -0.3217 -0.2807 -0.3515
  362MOL0     C49829   5.851   2.919   9.392  0.1611  0.0514  0.0641
  362MOL0     C49830   5.850   3.055   9.466  0.1674 -0.2733 -0.1839
  362MOL0     C49831   5.906   3.052   9.609 -0.8284 -0.6207  0.3740
  362MOL0     C49832   5.845   2.944   9.704 -0.5350  0.3925  0.0748
  362MOL0     C49833   5.921   2.924   9.836 -0.1036  0.3792 -0.3841
  362MOL0     C49834   6.059   2.858   9.831 -0.4417 -0.3613  1.1184
  362MOL0     N49835   6.076   2.720   9.790 -0.4427  0.3327  0.2070
  362MOL0     C49836   6.047   2.608   9.857  0.2123  0.0252  0.0779
  362MOL0     C49837   6.082   2.508   9.782 -0.3118  0.3408 -0.1746
  362MOL0     C49838   6.069   2.363   9.807 -0.0140  0.7277 -1.7053
  362MOL0     C49839   5.948   2.287   9.759  1.0687 -0.2108 -0.3359
  362MOL0     C49840   5.965   2.140   9.740 -0.7144 -0.4247  0.0092
  362MOL0     C49841   5.829   2.079   9.703  0.4200 -0.8003  0.0664
  362MOL0     O49842   5.829   1.941   9.654  1.0037 -1.0316 -0.2779
  362MOL0     C49843   5.856   1.904   9.526  1.0062 -0.9779 -0.1206
  362MOL0     C49844   5.862   1.990   9.423 -0.1778 -0.4018  0.7940
  362MOL0     C49845   5.871   1.954   9.287 -0.3374 -0.8524 -0.0852
  362MOL0     C49846   5.887   2.073   9.185  0.1033 -0.7218 -0.0949
  362MOL0     C49847   5.876   1.814   9.257  0.2774 -0.5626 -0.1667
  362MOL0     C49848   5.876   1.763   9.111 -0.2353  0.2294 -0.5558
  362MOL0     O49849   5.884   1.624   9.106 -0.5574  0.4956  0.3032
  362MOL0     C49850   5.895   1.562   8.984 -0.0692  0.9137 -0.3719
  362MOL0     C49851   6.022   1.523   8.932  0.2124  0.7128 -0.4665
  362MOL0     C49852   6.018   1.449   8.811 -0.1222 -0.3376 -0.2171
  362MOL0     C49853   5.899   1.421   8.743 -0.2111 -0.7209 -0.4374
  362MOL0     O49854   5.892   1.348   8.631  0.5461  0.1163 -0.3408
  362MOL0     C49855   5.950   1.219   8.661 -0.6079 -0.2956  0.3303
  362MOL0     C49856   5.844   1.113   8.622 -0.1332  0.4501 -0.3956
  362MOL0     C49857   5.890   0.970   8.649  0.3535 -0.0821  0.3438
  362MOL0     C49858   5.782   0.864   8.691 -0.0090 -0.5799 -0.3343
  362MOL0     C49859   5.850   0.745   8.748 -0.4787  0.2563  0.2735
  362MOL0     C49860   5.769   0.652   8.840 -0.9644 -0.2350 -0.7023
  362MOL0     C49861   5.661   0.581   8.765  0.0232 -1.0748  0.1591
  362MOL0     C49862   5.585   0.477   8.851 -0.5382 -0.5330  0.6521
  362MOL0    Cl49863   5.461   0.397   8.753  0.0698 -0.2185 -0.0372
  362MOL0     C49864   5.775   1.456   8.804 -0.3888  0.2148 -0.0079
  362MOL0     C49865   5.770   1.532   8.919 -0.0411  0.0979 -0.1688
  362MOL0     O49866   5.872   1.834   9.019  0.7826  0.1301  0.3760
  362MOL0     C49867   5.875   1.729   9.367 -0.7694  0.4395 -0.5557
  362MOL0     C49868   5.862   1.771   9.498 -0.5218 -0.1894 -0.6680
  362MOL0     N49869   6.137   2.559   9.667 -0.2737 -0.2586  0.6218
  362MOL0     N49870   6.143   2.683   9.681  0.1872 -0.1629 -0.0494
  362MOL0     C49871   5.607   2.767   8.865  0.3917  0.0365  1.1682
  362MOL0     C49872   5.536   2.669   8.792  0.0920 -0.1150  0.5410
  362MOL0     C49873   5.288   2.327   8.672 -1.1031 -0.7688  0.8396
  362MOL0     C49874   5.213   2.287   8.777 -0.6732 -0.7042 -0.3003
  362MOL0     C49875   5.091   2.222   8.751  0.6465 -0.1197  0.3738
  362MOL0     C49876   5.053   2.184   8.623 -0.0570  0.6179 -0.8271
  362MOL0     O49877   4.940   2.105   8.606 -0.2255  0.1582  0.1581
  362MOL0     C49878   4.954   1.985   8.534 -0.3684  0.4956 -0.1062
  362MOL0     C49879   4.849   1.882   8.585  0.7069  0.4514  0.1880
  362MOL0     C49880   4.867   1.745   8.517 -0.6193  0.2392  0.1548
  362MOL0     C49881   4.999   1.671   8.557 -0.3526 -0.2230  0.0178
  362MOL0     C49882   5.080   1.630   8.432 -0.7009 -0.3520 -0.1189
  362MOL0     C49883   5.149   1.578   8.347  0.2526 -0.2092  0.7081
  362MOL0     C49884   5.139   2.212   8.522  0.0653 -1.1033  0.1519
  362MOL0     C49885   5.262   2.274   8.542  0.8601 -0.0894 -0.2379
  362MOL0     C49886   5.348   2.294   8.424  0.7054 -0.2246 -0.1601
  362MOL0     H49887   5.645   2.404   8.990 -3.9991 -1.2101 -0.8084
  362MOL0     H49888   5.776   2.589   9.097 -0.2926  2.3155  1.7247
  362MOL0     H49889   5.910   2.800   9.168  0.3099  2.4926  2.1836
  362MOL0     H49890   5.752   2.749   9.236 -0.6082  0.1387  1.6882
  362MOL0     H49891   5.839   3.029   9.204 -0.6981 -0.3260 -0.7454
  362MOL0     H49892   5.688   2.973   9.272  0.7436  4.7469  0.0899
  362MOL0     H49893   5.797   2.838   9.442 -0.1230  2.0182  3.1885
  362MOL0     H49894   5.955   2.887   9.385  1.6003  3.5314  2.5961
  362MOL0     H49895   5.913   3.130   9.418 -0.7773  0.6426 -0.0417
  362MOL0     H49896   5.750   3.098   9.478  0.5512  1.1128 -1.6120
  362MOL0     H49897   5.900   3.146   9.664 -0.1117 -0.6650  0.5402
  362MOL0     H49898   6.011   3.034   9.586 -1.0443 -0.5379 -0.7271
  362MOL0     H49899   5.742   2.971   9.731 -0.6530  1.1469 -1.0585
  362MOL0     H49900   5.842   2.842   9.663  0.7291 -0.4403  1.9417
  362MOL0     H49901   5.873   2.856   9.907  2.7708 -1.1523  0.2770
  362MOL0     H49902   5.939   3.022   9.880  2.3127 -0.4589  0.6777
  362MOL0     H49903   6.117   2.913   9.756 -1.8278 -1.4319 -0.8450
  362MOL0     H49904   6.119   2.869   9.922  1.3708 -0.4927 -0.0163
  362MOL0     H49905   5.988   2.590   9.947 -2.2670  0.6328 -1.3451
  362MOL0     H49906   6.078   2.349   9.915  1.7261 -0.8321 -2.0072
  362MOL0     H49907   6.164   2.327   9.766  0.9990  0.1433  0.9892
  362MOL0     H49908   5.868   2.299   9.833  1.2394 -2.9998  0.3882
  362MOL0     H49909   5.910   2.326   9.663 -0.9885 -0.1278  0.4496
  362MOL0     H49910   6.044   2.120   9.666 -0.5276 -0.2939  0.1732
  362MOL0     H49911   5.989   2.090   9.834 -0.6298 -0.5558 -0.0822
  362MOL0     H49912   5.761   2.084   9.789 -2.2218  0.0671 -1.9436
  362MOL0     H49913   5.782   2.138   9.623  0.9741 -2.5212 -1.5882
  362MOL0     H49914   5.863   2.097   9.435 -0.0548 -0.2234 -0.6140
  362MOL0     H49915   5.796   2.101   9.130  1.8849  1.7483 -2.0200
  362MOL0     H49916   5.970   2.048   9.119  0.0200  0.6295 -0.7285
  362MOL0     H49917   5.921   2.156   9.247  2.2876 -2.9656  1.9121
  362MOL0     H49918   6.112   1.562   8.977  0.4036  0.8562 -0.9651
  362MOL0     H49919   6.113   1.409   8.780 -1.0162 -2.0565 -0.8389
  362MOL0     H49920   6.033   1.211   8.591 -0.7106  0.1081  0.1586
  362MOL0     H49921   5.995   1.215   8.760  2.0782 -0.1038 -0.8093
  362MOL0     H49922   5.765   1.125   8.697  0.0301 -2.8960  0.4604
  362MOL0     H49923   5.821   1.132   8.517  1.7601 -1.2153 -1.1800
  362MOL0     H49924   5.964   0.981   8.729  1.7884 -0.6102 -0.8539
  362MOL0     H49925   5.956   0.937   8.567  3.1940  0.3604  2.2813
  362MOL0     H49926   5.725   0.829   8.605  0.1596 -2.1127  0.1304
  362MOL0     H49927   5.702   0.899   8.757 -0.1627 -0.7152 -0.4467
  362MOL0     H49928   5.890   0.689   8.663 -2.4300  1.1168 -1.2966
  362MOL0     H49929   5.939   0.779   8.802 -0.0785 -1.6668  0.8966
  362MOL0     H49930   5.731   0.705   8.928  2.1777 -0.7785  1.1319
  362MOL0     H49931   5.838   0.573   8.870 -2.1346 -2.4210 -3.3534
  362MOL0     H49932   5.708   0.532   8.679  0.1312  0.1837 -0.5284
  362MOL0     H49933   5.584   0.639   8.713 -0.4628 -1.9659 -0.1336
  362MOL0     H49934   5.532   0.530   8.931 -3.0338  1.4732 -2.0882
  362MOL0     H49935   5.654   0.408   8.900  0.2354 -0.0424  0.2733
  362MOL0     H49936   5.691   1.397   8.768 -0.2221 -0.0508  0.0417
  362MOL0     H49937   5.668   1.535   8.957 -0.5855 -1.3138 -1.4012
  362MOL0     H49938   5.872   1.621   9.363  1.2892  0.3835 -2.1376
  362MOL0     H49939   5.881   1.697   9.576 -0.5050 -2.3460 -2.5950
  362MOL0     H49940   5.597   2.874   8.857  0.6693 -0.0738 -2.3826
  362MOL0     H49941   5.477   2.712   8.712 -0.0661 -0.8255  0.2788
  362MOL0     H49942   5.218   2.334   8.875 -1.5152  1.3654 -1.1894
  362MOL0     H49943   5.026   2.197   8.835 -1.9101  0.7455 -1.2386
  362MOL0     H49944   4.937   2.002   8.427  1.8767 -1.4366 -0.8507
  362MOL0     H49945   5.053   1.941   8.546 -0.8781 -0.6098  0.2117
  362MOL0     H49946   4.753   1.926   8.557 -0.1981 -0.3701  1.8549
  362MOL0     H49947   4.848   1.862   8.693 -0.8434  2.7125  0.6679
  362MOL0     H49948   4.783   1.679   8.540  1.0807 -1.8961  0.6580
  362MOL0     H49949   4.861   1.761   8.409  0.4611  1.7878  0.2974
  362MOL0     H49950   4.966   1.585   8.616 -2.5228 -0.8369 -1.9499
  362MOL0     H49951   5.064   1.744   8.607  3.2984 -4.0866  1.5116
  362MOL0     H49952   5.199   1.540   8.261 -2.0713  0.1751 -0.9277
  362MOL0     H49953   5.126   2.193   8.416 -0.8144  0.9799 -0.1729
  362MOL0     H49954   5.332   2.394   8.382  6.2917 -0.0587 -2.7984
  362MOL0     H49955   5.453   2.289   8.454  1.0655  1.5624 -0.9931
  362MOL0     H49956   5.352   2.212   8.351  1.1954 -0.0031 -0.3891
  363MOL0     O49957   4.841   7.342   1.867  0.3905 -0.7865  0.4312
  363MOL0     C49958   4.737   7.372   1.934 -0.3813  0.6150  0.4679
  363MOL0     O49959   4.625   7.292   1.941 -0.2354  0.0204  0.8793
  363MOL0     C49960   4.630   7.173   1.870 -0.3914 -0.5856 -1.5735
  363MOL0     C49961   4.630   7.048   1.937  0.4990 -0.7186 -0.2817
  363MOL0     C49962   4.659   6.926   1.867 -0.3901 -0.0689 -0.4378
  363MOL0     C49963   4.665   6.928   1.719 -0.6290  0.7049 -0.1939
  363MOL0     O49964   4.643   6.819   1.638  0.5230 -0.4583 -0.1026
  363MOL0     C49965   4.522   6.744   1.654 -0.9020 -0.1271  0.6453
  363MOL0     C49966   4.400   6.817   1.592 -0.4828  0.7838  0.7607
  363MOL0     C49967   4.275   6.730   1.577  0.1718 -1.0894 -0.4686
  363MOL0     C49968   4.305   6.618   1.478  0.1445 -0.0501  0.0303
  363MOL0     C49969   4.178   6.547   1.426 -0.2718  0.2839  0.0278
  363MOL0     C49970   4.103   6.481   1.533 -1.3952 -0.4069 -1.1359
  363MOL0     C49971   3.987   6.392   1.492  0.1763 -1.0914  0.7494
  363MOL0     C49972   3.882   6.457   1.408 -0.1094  0.4359 -0.9915
  363MOL0     N49973   3.768   6.368   1.364  0.8991  0.1730 -0.2336
  363MOL0     C49974   3.690   6.283   1.445  0.3333  0.3007 -0.7413
  363MOL0     C49975   3.620   6.206   1.354  1.0496  1.0183 -0.4824
  363MOL0     C49976   3.541   6.078   1.403 -0.2402 -0.5350 -0.0217
  363MOL0     C49977   3.627   5.985   1.495  0.5757 -0.1571  0.5326
  363MOL0     C49978   3.747   5.918   1.431  0.3296 -0.4972  0.3222
  363MOL0     C49979   3.834   5.831   1.519 -0.3276  0.8536  0.3541
  363MOL0     O49980   3.863   5.889   1.643  0.0474 -0.0844  0.0985
  363MOL0     C49981   3.983   5.954   1.668 -0.7212 -0.2048 -0.1952
  363MOL0     C49982   4.025   5.981   1.804  0.6074  0.3694  0.7410
  363MOL0     C49983   4.145   6.048   1.833 -0.5101  0.6410 -0.6262
  363MOL0     C49984   4.176   6.087   1.966 -0.0128  0.1936 -0.0599
  363MOL0     C49985   4.230   6.085   1.729 -0.3408  0.2031 -0.2723
  363MOL0     C49986   4.357   6.149   1.746  0.3411  0.3697 -0.7961
  363MOL0     O49987   4.359   6.282   1.773  0.0771 -0.3752  0.4886
  363MOL0     C49988   4.458   6.338   1.849 -0.6311 -0.3286 -0.3839
  363MOL0     C49989   4.591   6.296   1.855  0.5387 -0.9918 -0.6232
  363MOL0     C49990   4.682   6.376   1.931  0.0986  0.6021  0.0339
  363MOL0     C49991   4.640   6.491   1.991  0.3632  0.0062 -0.5136
  363MOL0     O49992   4.737   6.561   2.068  0.0683  0.2556 -0.1096
  363MOL0     C49993   4.703   6.662   2.156  0.3395 -0.4070  0.8755
  363MOL0     C49994   4.639   6.604   2.277  0.5570 -0.0710 -0.6207
  363MOL0     C49995   4.595   6.718   2.374  0.5457  0.2343  1.1188
  363MOL0     C49996   4.522   6.658   2.495  0.0360 -0.4951  0.7832
  363MOL0     C49997   4.527   6.768   2.608  0.0705 -0.7065 -0.4225
  363MOL0     C49998   4.421   6.886   2.599 -0.6059 -0.4584  0.1981
  363MOL0     C49999   4.418   6.966   2.726  0.6186  0.9741  0.5250
  363MOL0     C50000   4.357   7.102   2.721 -0.2309 -0.8732  0.7980
  363MOL0    Cl50001   4.186   7.118   2.655  0.2094  0.6327 -0.4318
  363MOL0     C50002   4.504   6.532   1.988 -0.2149  0.2442  0.6315
  363MOL0     C50003   4.417   6.453   1.922  0.7756 -0.2405  0.0921
  363MOL0     O50004   4.456   6.069   1.738 -0.0401 -0.1473 -0.6682
  363MOL0     C50005   4.193   6.069   1.601  0.1765 -0.2143 -0.1045
  363MOL0     C50006   4.070   5.994   1.567 -0.0204  0.1515 -0.1515
  363MOL0     N50007   3.623   6.275   1.233  0.3272 -0.2090 -0.4473
  363MOL0     N50008   3.713   6.366   1.241 -0.3536 -0.4305 -0.1387
  363MOL0     C50009   4.657   7.055   1.658 -0.0003  0.6623  0.1016
  363MOL0     C50010   4.645   7.169   1.732 -0.0987 -0.7046 -0.2968
  363MOL0     C50011   4.724   7.507   1.990 -0.2599  0.2999  0.8150
  363MOL0     C50012   4.626   7.581   1.921 -0.0851 -0.7752 -0.4195
  363MOL0     C50013   4.593   7.711   1.969 -1.7895 -0.2996  0.1875
  363MOL0     C50014   4.654   7.762   2.086 -0.6732  0.3201  0.2959
  363MOL0     O50015   4.616   7.885   2.136  0.6477  0.3251  0.0848
  363MOL0     C50016   4.477   7.921   2.118 -0.1047  0.6229 -0.8919
  363MOL0     C50017   4.461   8.056   2.185 -0.5610  0.1177 -0.8409
  363MOL0     C50018   4.449   8.055   2.337 -0.1696  0.3673 -0.0554
  363MOL0     C50019   4.405   8.200   2.374  0.3288  0.6673 -0.1730
  363MOL0     C50020   4.343   8.219   2.505 -0.8384 -0.3755 -0.7973
  363MOL0     C50021   4.298   8.225   2.618  0.0825  0.2622 -0.2079
  363MOL0     C50022   4.756   7.689   2.148  0.2743 -0.2421  0.4097
  363MOL0     C50023   4.785   7.560   2.106 -0.4781 -0.1150 -0.7489
  363MOL0     C50024   4.876   7.469   2.186  0.8537 -0.3269  0.8198
  363MOL0     H50025   4.631   7.048   2.045  5.4119  1.7726 -0.0705
  363MOL0     H50026   4.685   6.832   1.915  1.6463  0.7552  0.1704
  363MOL0     H50027   4.505   6.723   1.760 -0.0150 -1.1896  0.5889
  363MOL0     H50028   4.538   6.652   1.597 -0.9232  0.8806 -1.0488
  363MOL0     H50029   4.362   6.897   1.656 -2.8685  0.0879  0.3149
  363MOL0     H50030   4.429   6.856   1.494 -0.8499  0.8059  0.6619
  363MOL0     H50031   4.251   6.677   1.670 -1.2451 -1.9633 -1.2933
  363MOL0     H50032   4.187   6.791   1.552  0.3786 -1.1932 -1.5058
  363MOL0     H50033   4.352   6.656   1.386  2.6782 -2.6112  0.1415
  363MOL0     H50034   4.377   6.544   1.512 -1.2629 -0.5566  2.0843
  363MOL0     H50035   4.226   6.465   1.373  0.3016  0.3226  0.4754
  363MOL0     H50036   4.124   6.612   1.356 -1.6490  0.3049  1.0662
  363MOL0     H50037   4.184   6.419   1.575  0.0117  1.9807 -0.1311
  363MOL0     H50038   4.069   6.550   1.611  0.5023 -0.3458 -0.3044
  363MOL0     H50039   3.931   6.364   1.582 -3.4494 -0.7703 -1.2171
  363MOL0     H50040   4.014   6.302   1.436 -0.9079 -0.9467 -0.0434
  363MOL0     H50041   3.843   6.547   1.456 -2.7550 -2.0756  2.0441
  363MOL0     H50042   3.937   6.493   1.320  0.3440 -2.1591 -1.8678
  363MOL0     H50043   3.706   6.259   1.550  0.9706  0.3172 -0.8288
  363MOL0     H50044   3.488   6.032   1.319 -1.0497  0.2392  0.0619
  363MOL0     H50045   3.468   6.124   1.469  1.5863  1.8283  0.4924
  363MOL0     H50046   3.662   6.045   1.580  1.0325  1.4799 -0.7463
  363MOL0     H50047   3.565   5.909   1.543 -0.1524 -0.4848 -0.8856
  363MOL0     H50048   3.719   5.848   1.351  1.6079  1.2388 -1.7602
  363MOL0     H50049   3.809   6.001   1.397 -1.3742  0.2700 -1.0925
  363MOL0     H50050   3.781   5.737   1.536  0.5841  0.0717 -0.9241
  363MOL0     H50051   3.916   5.801   1.453 -1.9306 -0.7383 -1.0087
  363MOL0     H50052   3.966   5.949   1.889  0.3808  1.4181  0.9910
  363MOL0     H50053   4.281   6.094   1.995  0.4887 -3.3713 -0.5663
  363MOL0     H50054   4.135   6.002   2.023 -2.0592 -0.1077 -1.8209
  363MOL0     H50055   4.131   6.181   2.000  0.7325 -0.1729  2.1295
  363MOL0     H50056   4.641   6.210   1.813 -0.8416 -1.7770 -0.7018
  363MOL0     H50057   4.782   6.344   1.954  0.3011 -0.1008 -1.6358
  363MOL0     H50058   4.782   6.728   2.193  0.8016 -0.5840  0.2282
  363MOL0     H50059   4.638   6.719   2.089  1.4484 -0.9121 -0.6980
  363MOL0     H50060   4.553   6.543   2.251  0.9883 -0.1969 -1.8167
  363MOL0     H50061   4.707   6.553   2.347  0.3631 -0.1934 -0.5215
  363MOL0     H50062   4.529   6.789   2.322 -0.7146 -2.0287 -0.5530
  363MOL0     H50063   4.680   6.775   2.413  1.5270 -1.0542  0.9249
  363MOL0     H50064   4.567   6.563   2.523 -0.5504 -1.6075 -1.7964
  363MOL0     H50065   4.415   6.645   2.477 -0.0928  1.4250 -0.1087
  363MOL0     H50066   4.496   6.719   2.700 -0.2653 -1.5746 -0.9926
  363MOL0     H50067   4.623   6.814   2.632 -0.4932  0.2309  0.1088
  363MOL0     H50068   4.317   6.854   2.586 -0.4490  0.0503 -3.3580
  363MOL0     H50069   4.443   6.940   2.506 -2.1495 -2.2969 -1.3116
  363MOL0     H50070   4.518   6.964   2.769  0.5982 -2.9377  0.6933
  363MOL0     H50071   4.356   6.909   2.795 -0.4660  1.8286  0.2954
  363MOL0     H50072   4.417   7.172   2.663  2.0175 -2.6306  0.8737
  363MOL0     H50073   4.352   7.151   2.819  1.3647  2.5443 -0.6663
  363MOL0     H50074   4.472   6.621   2.042  1.7656 -0.0231  2.3572
  363MOL0     H50075   4.318   6.498   1.927 -1.6824 -4.4459 -3.2601
  363MOL0     H50076   4.245   6.119   1.520  1.8088 -1.0790  0.3716
  363MOL0     H50077   4.052   5.987   1.460  2.9740 -0.3184 -0.6988
  363MOL0     H50078   4.659   7.067   1.550 -2.1691 -2.4848 -0.4349
  363MOL0     H50079   4.643   7.263   1.677 -2.5637 -1.0720 -0.9758
  363MOL0     H50080   4.579   7.547   1.829 -0.9786 -1.5153  0.2811
  363MOL0     H50081   4.509   7.758   1.920  0.6283  0.4068 -3.7052
  363MOL0     H50082   4.452   7.934   2.012 -1.9667  3.0282 -0.2571
  363MOL0     H50083   4.408   7.848   2.162  1.5980 -0.6220 -0.1809
  363MOL0     H50084   4.363   8.087   2.149  1.0863  1.9064 -4.2118
  363MOL0     H50085   4.539   8.128   2.157 -1.7725  0.6004 -3.2134
  363MOL0     H50086   4.370   7.986   2.366  0.2685 -0.6447 -1.1679
  363MOL0     H50087   4.539   8.025   2.392 -1.7584  0.4501  2.7630
  363MOL0     H50088   4.346   8.250   2.297  0.9565  0.5442 -0.7392
  363MOL0     H50089   4.505   8.244   2.369  0.2677  0.6664 -1.5702
  363MOL0     H50090   4.257   8.250   2.714  1.0703  1.6120 -0.0974
  363MOL0     H50091   4.813   7.741   2.225  1.6771 -1.3734  0.1813
  363MOL0     H50092   4.900   7.510   2.285 -2.3505  2.2713  0.7071
  363MOL0     H50093   4.811   7.384   2.208 -0.8648  1.1683  1.8680
  363MOL0     H50094   4.966   7.436   2.134  0.0785 -1.8816  0.4211
  364MOL0     O50095   8.215   2.065  10.462  0.6253  0.0772  0.1560
  364MOL0     C50096   8.177   2.100  10.579 -0.8191  0.1529  0.2961
  364MOL0     O50097   8.050   2.147  10.597  0.0626  0.1182  0.0578
  364MOL0     C50098   7.954   2.144  10.504 -0.3131 -0.0703  0.0304
  364MOL0     C50099   7.891   2.268  10.485  0.2516  0.4164  0.6025
  364MOL0     C50100   7.777   2.286  10.402  0.6407 -0.7198 -0.1232
  364MOL0     C50101   7.721   2.168  10.353  1.1394  0.0349  0.7067
  364MOL0     O50102   7.606   2.155  10.275  0.5637  0.1869  0.0224
  364MOL0     C50103   7.532   2.271  10.234 -0.3128  0.3617  0.8423
  364MOL0     C50104   7.424   2.313  10.333 -0.6101  0.2947 -0.4008
  364MOL0     C50105   7.306   2.219  10.330 -0.7032 -0.1767  0.9065
  364MOL0     C50106   7.182   2.303  10.322 -0.4305 -0.0145 -0.3620
  364MOL0     C50107   7.062   2.215  10.301 -0.8774 -0.9016  0.3029
  364MOL0     C50108   6.945   2.306  10.273  0.7160 -0.2547  0.2986
  364MOL0     C50109   6.816   2.218  10.252  0.2792  0.1114  0.6058
  364MOL0     C50110   6.695   2.308  10.255 -0.1003  0.5649  0.1875
  364MOL0     N50111   6.573   2.227  10.267 -0.0741 -0.0174  0.1726
  364MOL0     C50112   6.507   2.179  10.156  0.2700  0.3622  0.3767
  364MOL0     C50113   6.421   2.088  10.210 -0.5425 -0.5888 -1.4449
  364MOL0     C50114   6.313   2.021  10.141 -0.2854  0.4433  0.7865
  364MOL0     C50115   6.253   1.895  10.207 -0.2777  1.6780  0.0217
  364MOL0     C50116   6.355   1.781  10.226  0.1285 -0.1508 -0.1891
  364MOL0     C50117   6.315   1.689  10.337  0.1090 -0.2732 -0.9361
  364MOL0     O50118   6.177   1.647  10.305  0.1068  0.2949 -0.8532
  364MOL0     C50119   6.175   1.510  10.284  0.9336 -0.6786  1.1311
  364MOL0     C50120   6.196   1.419  10.396 -0.8871 -0.0551  0.0127
  364MOL0     C50121   6.193   1.273  10.383 -0.0924 -0.3598 -0.8260
  364MOL0     C50122   6.232   1.191  10.498 -0.3022  0.1733  0.5036
  364MOL0     C50123   6.168   1.216  10.255 -0.3108  0.0658 -0.3157
  364MOL0     C50124   6.149   1.067  10.232 -0.4258 -0.0683 -0.2497
  364MOL0     O50125   6.226   1.013  10.129 -0.3771  0.3877  0.6220
  364MOL0     C50126   6.193   0.901  10.064 -0.6876 -0.9944  0.2486
  364MOL0     C50127   6.060   0.874  10.025 -0.4847 -0.4161  0.1465
  364MOL0     C50128   6.041   0.745   9.973  0.5271 -0.5672  0.4397
  364MOL0     C50129   6.138   0.642   9.977  0.1485  0.3826  0.2286
  364MOL0     O50130   6.116   0.513   9.933 -0.6605 -0.4374  0.3923
  364MOL0     C50131   5.987   0.460   9.920  1.1459  0.6605  0.2894
  364MOL0     C50132   5.986   0.307   9.961  0.3436 -0.2634  0.0211
  364MOL0     C50133   6.036   0.292  10.103 -0.4505 -0.2514  1.2467
  364MOL0     C50134   5.982   0.161  10.158  0.0778 -0.7505  0.5483
  364MOL0     C50135   6.058   0.125  10.285  0.0019  0.2940 -0.6162
  364MOL0     C50136   6.019   0.199  10.417  0.4452 -0.3828 -0.4796
  364MOL0     C50137   6.148   0.207  10.513  0.4224  0.2008  0.9808
  364MOL0     C50138   6.123   0.274  10.645  0.4773 -0.6707  0.1458
  364MOL0    Cl50139   5.995   0.186  10.730 -0.2869 -0.6949 -0.2390
  364MOL0     C50140   6.266   0.677  10.015 -0.4889  0.3183  1.2810
  364MOL0     C50141   6.294   0.808  10.051  1.0200  0.4021 -0.2354
  364MOL0     O50142   6.066   1.005  10.293  0.3064 -0.4462 -0.2535
  364MOL0     C50143   6.151   1.307  10.147 -0.3126  0.1118  1.1217
  364MOL0     C50144   6.160   1.449  10.157  0.0012 -0.2446 -0.1011
  364MOL0     N50145   6.437   2.085  10.349 -0.0482 -0.0597  0.9548
  364MOL0     N50146   6.527   2.169  10.380  0.1919  0.2073  0.3789
  364MOL0     C50147   7.778   2.044  10.381  0.1124  0.2051  0.5582
  364MOL0     C50148   7.895   2.024  10.458  0.8967 -0.4094 -0.2134
  364MOL0     C50149   8.265   2.075  10.697 -0.3698 -0.1347  0.3922
  364MOL0     C50150   8.402   2.038  10.669 -0.1172 -0.0511 -0.2985
  364MOL0     C50151   8.491   2.001  10.766 -0.5717  0.1072  0.1647
  364MOL0     C50152   8.455   2.001  10.898 -0.6001  0.7054  0.5911
  364MOL0     O50153   8.535   1.945  10.992 -0.7239 -0.6629  0.2388
  364MOL0     C50154   8.642   1.852  10.976  0.4794  0.3752  0.2292
  364MOL0     C50155   8.663   1.776  11.111 -0.5530 -0.5254  0.4924
  364MOL0     C50156   8.727   1.855  11.220 -0.7992 -1.2024 -0.6773
  364MOL0     C50157   8.742   1.779  11.357  0.4260  0.0841  0.0634
  364MOL0     C50158   8.614   1.728  11.414 -0.2832  0.9244  0.6606
  364MOL0     C50159   8.502   1.703  11.460 -0.6555  0.2195  0.0688
  364MOL0     C50160   8.333   2.045  10.931 -1.0693 -0.7709  1.0395
  364MOL0     C50161   8.229   2.077  10.838  0.5702  0.0445  0.5195
  364MOL0     C50162   8.100   2.088  10.900 -0.2352  0.0235  0.6496
  364MOL0     H50163   7.941   2.353  10.530  3.4241 -2.2302  2.4950
  364MOL0     H50164   7.735   2.386  10.397  0.0173 -1.0151 -1.1344
  364MOL0     H50165   7.484   2.250  10.138 -3.1314 -1.0208  2.4117
  364MOL0     H50166   7.597   2.355  10.209 -2.2626  1.1018 -2.3150
  364MOL0     H50167   7.470   2.304  10.432 -3.6230 -0.2392  1.0525
  364MOL0     H50168   7.386   2.413  10.314 -1.4589 -0.0253 -0.4484
  364MOL0     H50169   7.315   2.149  10.246  2.6038  1.6471 -0.4034
  364MOL0     H50170   7.302   2.145  10.410 -3.0214 -5.8730 -3.7235
  364MOL0     H50171   7.187   2.371  10.408  2.1752  1.7583 -1.7789
  364MOL0     H50172   7.185   2.369  10.235  0.2009 -2.2281 -2.1003
  364MOL0     H50173   7.049   2.158  10.393 -2.5023  3.4015  3.0016
  364MOL0     H50174   7.073   2.146  10.216  1.0973  1.7949 -1.8347
  364MOL0     H50175   6.922   2.362  10.364 -0.7912  0.3247 -0.3953
  364MOL0     H50176   6.959   2.389  10.204 -1.0443 -1.8520 -2.1607
  364MOL0     H50177   6.806   2.144  10.332 -2.1949  0.4458  0.6948
  364MOL0     H50178   6.820   2.161  10.159 -0.4676  1.1703 -0.0951
  364MOL0     H50179   6.716   2.377  10.337  2.8997  0.2822 -0.2122
  364MOL0     H50180   6.692   2.352  10.155  0.2061 -0.5700 -0.3479
  364MOL0     H50181   6.518   2.204  10.051  1.0503  1.8277  0.7831
  364MOL0     H50182   6.358   2.002  10.043  3.2171 -2.0013  2.6480
  364MOL0     H50183   6.239   2.101  10.137  0.6357  1.5130  3.4767
  364MOL0     H50184   6.210   1.931  10.302 -0.3093  1.3164  0.1440
  364MOL0     H50185   6.168   1.849  10.156  0.9401  2.0555 -2.4493
  364MOL0     H50186   6.392   1.729  10.137 -0.1230  3.2645 -2.4675
  364MOL0     H50187   6.447   1.832  10.254  1.0594 -2.8832  2.2989
  364MOL0     H50188   6.380   1.603  10.356  1.4750  0.7234 -0.9346
  364MOL0     H50189   6.306   1.741  10.433 -0.4731  1.6856 -2.0007
  364MOL0     H50190   6.227   1.451  10.495  0.3141 -1.1906  0.0330
  364MOL0     H50191   6.233   1.243  10.594  0.8098  0.4298  0.3688
  364MOL0     H50192   6.337   1.163  10.489 -0.3593  0.6688 -3.4998
  364MOL0     H50193   6.164   1.108  10.517 -1.7130  1.7114  2.6721
  364MOL0     H50194   5.983   0.949  10.035  0.2970  0.5310 -0.6924
  364MOL0     H50195   5.943   0.715   9.937  0.7815 -2.4282  1.1811
  364MOL0     H50196   5.924   0.517   9.989  2.9678  3.3560 -0.1449
  364MOL0     H50197   5.943   0.483   9.822 -0.4381  0.0351  0.8108
  364MOL0     H50198   5.889   0.258   9.948 -0.1053  0.5724  0.1083
  364MOL0     H50199   6.044   0.256   9.883 -2.7691 -0.5721 -2.3024
  364MOL0     H50200   5.991   0.369  10.167 -0.3752  0.7429  0.1466
  364MOL0     H50201   6.145   0.289  10.100 -0.4677 -0.2019  0.1667
  364MOL0     H50202   5.994   0.076  10.090  1.6868 -1.5974  1.8258
  364MOL0     H50203   5.875   0.170  10.182  0.0714 -4.3127  2.4065
  364MOL0     H50204   6.042   0.020  10.313  0.2827  0.9949  2.5331
  364MOL0     H50205   6.166   0.132  10.274 -0.1794  2.7204 -1.4997
  364MOL0     H50206   5.929   0.151  10.458  1.9049 -3.7978 -0.8889
  364MOL0     H50207   5.995   0.302  10.391  3.5679  0.1844 -1.5665
  364MOL0     H50208   6.230   0.261  10.465 -0.0971  2.8343  2.8397
  364MOL0     H50209   6.179   0.104  10.532  0.3558  0.2583  1.4248
  364MOL0     H50210   6.109   0.378  10.612  1.0914 -1.3129 -2.2804
  364MOL0     H50211   6.209   0.281  10.713  0.0805  4.2203  0.5091
  364MOL0     H50212   6.340   0.598  10.008 -1.6057 -0.6021 -1.0732
  364MOL0     H50213   6.390   0.834  10.096  1.9023 -3.5699  0.5679
  364MOL0     H50214   6.131   1.261  10.050  2.3640  1.3499 -0.1276
  364MOL0     H50215   6.150   1.513  10.070 -1.5634  2.8333  2.1343
  364MOL0     H50216   7.724   1.955  10.350 -1.3692  0.0842  3.2502
  364MOL0     H50217   7.930   1.922  10.472  1.0865 -0.3757 -0.4314
  364MOL0     H50218   8.422   2.027  10.563 -2.2363 -1.2250 -0.6378
  364MOL0     H50219   8.573   1.939  10.733 -0.8890 -0.5464  0.5831
  364MOL0     H50220   8.605   1.764  10.922 -1.9544  0.3156  1.8575
  364MOL0     H50221   8.730   1.898  10.930  0.7656  1.0440  1.4074
  364MOL0     H50222   8.726   1.688  11.095  3.2039  1.3282  3.5285
  364MOL0     H50223   8.563   1.747  11.145 -0.8253 -0.9449 -0.6081
  364MOL0     H50224   8.822   1.901  11.190 -0.8871  0.4754  1.4156
  364MOL0     H50225   8.658   1.939  11.236 -0.9993 -1.3604 -0.7156
  364MOL0     H50226   8.782   1.860  11.419  1.2196 -2.6332  3.3410
  364MOL0     H50227   8.799   1.688  11.338  0.4239  0.4133 -1.7549
  364MOL0     H50228   8.408   1.699  11.511 -0.5522  1.5204  0.3995
  364MOL0     H50229   8.303   2.046  11.035 -0.6362 -2.7006  1.2172
  364MOL0     H50230   8.015   2.070  10.833  0.2723 -1.4034  0.3581
  364MOL0     H50231   8.089   2.020  10.986  1.2089 -1.7425 -0.4893
  364MOL0     H50232   8.076   2.185  10.944  0.5228  1.0137 -1.0537
  365MOL0     O50233  11.182   7.953   1.213 -0.3462  0.5171  0.2177
  365MOL0     C50234  11.164   7.917   1.333  0.4337 -0.4540  0.2470
  365MOL0     O50235  11.237   7.827   1.402  0.2965  0.0529 -0.0347
  365MOL0     C50236  11.343   7.767   1.336 -0.2670 -0.4260  0.3227
  365MOL0     C50237  11.331   7.722   1.202  0.4518 -0.9019 -0.4158
  365MOL0     C50238  11.455   7.686   1.134  0.6724  0.1560  0.9551
  365MOL0     C50239  11.578   7.683   1.205  0.0222 -0.2486 -0.4594
  365MOL0     O50240  11.690   7.663   1.122  0.0268 -0.6838  0.2232
  365MOL0     C50241  11.816   7.690   1.181  0.4085  0.0791  0.3395
  365MOL0     C50242  11.863   7.832   1.190 -0.1961  0.1460  0.3997
  365MOL0     C50243  11.999   7.844   1.264  0.5445  0.5152  0.0332
  365MOL0     C50244  12.057   7.987   1.292  0.1795  0.0345 -0.1059
  365MOL0     C50245  12.003   8.028   1.423 -0.0948 -0.6677 -0.1357
  365MOL0     C50246  12.075   8.167   1.440 -0.5651  0.3527 -0.8338
  365MOL0     C50247  12.039   8.212   1.590 -0.6888  0.1769  0.8485
  365MOL0     C50248  12.130   8.329   1.647 -0.5994 -0.2201 -0.1813
  365MOL0     N50249  12.089   8.460   1.593 -0.6349 -0.7867 -0.3516
  365MOL0     C50250  12.110   8.579   1.656  0.5343 -0.3929 -0.6049
  365MOL0     C50251  12.057   8.679   1.584  0.5158  0.1080 -0.6210
  365MOL0     C50252  12.019   8.821   1.613  0.1765 -0.3767  1.0805
  365MOL0     C50253  12.112   8.929   1.554  0.0552 -0.1367 -0.1815
  365MOL0     C50254  12.229   8.947   1.647  0.4505  0.5729  0.6390
  365MOL0     C50255  12.304   9.088   1.611 -0.3033  1.0515  0.5056
  365MOL0     O50256  12.367   9.066   1.484 -0.1952  0.1217 -0.3584
  365MOL0     C50257  12.505   9.066   1.476  1.0859 -0.2195 -0.9625
  365MOL0     C50258  12.561   9.135   1.376 -0.8182 -0.4195  0.0071
  365MOL0     C50259  12.703   9.150   1.361  0.4502 -0.2419  0.7204
  365MOL0     C50260  12.752   9.229   1.247 -0.0784  0.0021  0.6459
  365MOL0     C50261  12.792   9.092   1.456  0.2040 -0.1248  0.1523
  365MOL0     C50262  12.934   9.116   1.462 -0.3387 -0.3580 -0.6802
  365MOL0     O50263  12.993   9.084   1.579  0.3394 -0.1392 -0.5082
  365MOL0     C50264  13.129   9.110   1.586  0.2033 -0.6502 -0.0896
  365MOL0     C50265  13.223   9.022   1.516  0.4664  0.2189 -0.4366
  365MOL0     C50266  13.357   9.046   1.522  0.5985 -0.1080 -0.0074
  365MOL0     C50267  13.405   9.154   1.601  0.5125 -0.2830 -0.3874
  365MOL0     O50268  13.538   9.166   1.621 -0.7974  0.7433  0.2789
  365MOL0     C50269  13.589   9.292   1.587  0.0791 -0.2550 -0.8794
  365MOL0     C50270  13.729   9.312   1.635 -0.1865 -0.3178  0.0903
  365MOL0     C50271  13.720   9.356   1.787 -0.3671 -0.1299 -0.2354
  365MOL0     C50272  13.700   9.246   1.884 -0.1888  0.4768 -0.4467
  365MOL0     C50273  13.810   9.150   1.919  0.5130  0.6997 -0.7071
  365MOL0     C50274  13.917   9.217   2.016  0.2973 -0.2753  0.6666
  365MOL0     C50275  14.021   9.114   2.058  0.3183 -0.2014 -0.3358
  365MOL0     C50276  14.134   9.187   2.113 -0.1893 -0.9750  0.5177
  365MOL0    Cl50277  14.238   9.067   2.190 -0.2211  0.1121  0.3355
  365MOL0     C50278  13.314   9.240   1.672  0.7796  0.4003 -1.0851
  365MOL0     C50279  13.178   9.209   1.675 -0.0841  0.2797 -0.1707
  365MOL0     O50280  12.997   9.134   1.360 -0.1661  0.4348 -0.2824
  365MOL0     C50281  12.726   9.016   1.555 -0.1638  0.1580 -0.3311
  365MOL0     C50282  12.582   8.996   1.558 -0.4191 -0.5801  0.3742
  365MOL0     N50283  11.996   8.617   1.480  0.4878 -0.4580  0.1120
  365MOL0     N50284  12.031   8.489   1.479  0.6943 -0.6201 -0.3542
  365MOL0     C50285  11.581   7.716   1.345 -0.1474  0.9964  0.1064
  365MOL0     C50286  11.462   7.757   1.408 -0.6319 -0.2943 -0.3143
  365MOL0     C50287  11.037   7.954   1.390 -0.8748 -0.2029 -0.5710
  365MOL0     C50288  10.954   7.849   1.439 -0.3287  0.5662  0.8296
  365MOL0     C50289  10.827   7.863   1.495  0.2500  0.4395  0.7209
  365MOL0     C50290  10.776   7.993   1.506 -0.0404 -0.5356  0.3953
  365MOL0     O50291  10.670   8.042   1.582 -0.1446  0.1287 -0.1768
  365MOL0     C50292  10.618   7.957   1.683  0.1137 -0.2127  0.0741
  365MOL0     C50293  10.506   8.025   1.767 -0.2612 -0.5554 -0.3275
  365MOL0     C50294  10.558   8.155   1.836 -0.5305  0.0830 -0.3615
  365MOL0     C50295  10.677   8.135   1.928  0.4672  0.3242 -0.2477
  365MOL0     C50296  10.652   8.022   2.028  0.3628  0.0864 -0.4119
  365MOL0     C50297  10.624   7.940   2.116 -0.4754 -0.4561  0.6077
  365MOL0     C50298  10.845   8.099   1.444  0.5709  0.2443  0.8922
  365MOL0     C50299  10.974   8.078   1.386  0.6518 -0.1017 -0.8435
  365MOL0     C50300  11.025   8.202   1.326  0.9604 -0.1655 -0.7663
  365MOL0     H50301  11.238   7.723   1.146 -1.3400 -0.7642  2.3346
  365MOL0     H50302  11.446   7.674   1.027  3.5232  4.7332 -0.1006
  365MOL0     H50303  11.882   7.638   1.112  1.4269 -1.5555  2.4307
  365MOL0     H50304  11.826   7.641   1.279 -3.3855 -0.1328  0.7666
  365MOL0     H50305  11.873   7.874   1.089 -2.1820  3.2126  1.3461
  365MOL0     H50306  11.786   7.887   1.244 -1.4492 -1.2438  0.0980
  365MOL0     H50307  11.989   7.793   1.360  0.8446  1.2809  0.4789
  365MOL0     H50308  12.079   7.793   1.209  0.8952 -0.6022  1.5339
  365MOL0     H50309  12.167   7.989   1.297  0.1997 -0.3706 -0.2955
  365MOL0     H50310  12.024   8.055   1.214  0.2551  1.9281  1.4393
  365MOL0     H50311  12.045   7.968   1.504 -0.5575  1.9056  2.1660
  365MOL0     H50312  11.894   8.033   1.425 -0.0475  1.0887 -0.3466
  365MOL0     H50313  12.182   8.152   1.424 -0.4874 -1.8520  1.2303
  365MOL0     H50314  12.038   8.232   1.360 -0.2521  2.4006  0.6018
  365MOL0     H50315  12.068   8.132   1.658 -0.0343  0.7880  1.2947
  365MOL0     H50316  11.934   8.242   1.600 -0.4137  2.3764 -1.6055
  365MOL0     H50317  12.131   8.335   1.756  0.3133  2.9726 -0.2695
  365MOL0     H50318  12.236   8.305   1.631 -0.6443 -1.5428  1.2769
  365MOL0     H50319  12.143   8.599   1.758 -4.2469  1.9719  0.7424
  365MOL0     H50320  11.999   8.837   1.719 -0.4285 -0.2557  0.9525
  365MOL0     H50321  11.925   8.846   1.562 -0.6170  1.3020  3.2062
  365MOL0     H50322  12.142   8.882   1.460 -0.8682  0.7267 -0.9237
  365MOL0     H50323  12.062   9.026   1.543  1.3856  0.7705  1.2730
  365MOL0     H50324  12.182   8.961   1.744  1.4213  2.5572  0.8982
  365MOL0     H50325  12.288   8.856   1.660 -1.1657 -0.5434  0.3297
  365MOL0     H50326  12.216   9.149   1.591 -4.5678 -5.4060 -4.6060
  365MOL0     H50327  12.374   9.127   1.686  2.4538 -0.9633 -0.8190
  365MOL0     H50328  12.497   9.184   1.303 -0.3814  1.1592  0.6349
  365MOL0     H50329  12.820   9.171   1.184  0.6293  2.4682 -1.0502
  365MOL0     H50330  12.799   9.326   1.270 -0.2452  0.2073  0.1446
  365MOL0     H50331  12.673   9.243   1.173  0.0073 -0.3825  0.4807
  365MOL0     H50332  13.175   8.946   1.456 -4.5447  2.7571 -0.2122
  365MOL0     H50333  13.428   8.977   1.476 -2.4735 -2.0888 -2.1147
  365MOL0     H50334  13.599   9.306   1.479  0.4170 -0.6709 -0.9031
  365MOL0     H50335  13.524   9.364   1.639  0.8250 -1.6359  2.2019
  365MOL0     H50336  13.771   9.212   1.618 -1.3002 -0.9659  0.9342
  365MOL0     H50337  13.777   9.391   1.576  0.1586 -1.0833 -0.6827
  365MOL0     H50338  13.640   9.429   1.803 -0.2991 -0.2402  0.6430
  365MOL0     H50339  13.816   9.400   1.815 -1.1556  2.1882 -0.9418
  365MOL0     H50340  13.614   9.192   1.843 -1.8947  3.6300 -1.3604
  365MOL0     H50341  13.676   9.288   1.982 -2.4705 -2.6578  0.4978
  365MOL0     H50342  13.779   9.059   1.972  0.1296  1.0398 -0.3392
  365MOL0     H50343  13.867   9.120   1.831  0.2368  2.0292 -1.3473
  365MOL0     H50344  13.860   9.255   2.101 -2.7874 -0.8912 -0.9871
  365MOL0     H50345  13.959   9.302   1.960  0.0743 -0.7866 -0.2885
  365MOL0     H50346  14.062   9.056   1.975  1.9821  1.8763 -1.0769
  365MOL0     H50347  13.980   9.047   2.134  0.8860 -0.0441  0.1205
  365MOL0     H50348  14.106   9.248   2.200  1.0790  0.9184 -0.3382
  365MOL0     H50349  14.184   9.257   2.046 -0.3325  0.4875  1.8655
  365MOL0     H50350  13.347   9.330   1.723  2.7031 -0.5045 -0.6592
  365MOL0     H50351  13.105   9.269   1.728 -0.8252  0.0377 -0.8911
  365MOL0     H50352  12.778   8.961   1.632 -1.6544 -0.4063  0.3162
  365MOL0     H50353  12.525   8.942   1.634 -4.3440 -0.9121 -2.4514
  365MOL0     H50354  11.672   7.710   1.405  1.8478 -0.1838 -2.8108
  365MOL0     H50355  11.460   7.803   1.507  0.4700  2.4346 -1.4583
  365MOL0     H50356  10.984   7.745   1.444 -4.2793 -0.7776  0.1969
  365MOL0     H50357  10.778   7.780   1.546 -2.5288  1.6952  0.2646
  365MOL0     H50358  10.581   7.863   1.642  2.1591 -0.5015 -1.2206
  365MOL0     H50359  10.691   7.936   1.762 -1.3591  0.6502  1.7684
  365MOL0     H50360  10.470   7.960   1.847  0.4982  0.0634  0.5361
  365MOL0     H50361  10.425   8.062   1.704 -0.0919  0.1037 -0.1667
  365MOL0     H50362  10.593   8.229   1.764 -0.1312 -2.2017 -2.6711
  365MOL0     H50363  10.469   8.182   1.894  0.4723  0.1767  1.1963
  365MOL0     H50364  10.699   8.222   1.990  1.0219  0.1774 -0.2238
  365MOL0     H50365  10.769   8.107   1.874  1.3227 -2.4773  2.3572
  365MOL0     H50366  10.616   7.850   2.173 -4.1557 -2.1929 -2.1517
  365MOL0     H50367  10.790   8.192   1.457 -1.2671 -0.7850  0.8377
  365MOL0     H50368  10.958   8.286   1.342 -1.3700 -1.4604 -2.9769
  365MOL0     H50369  11.120   8.235   1.369  0.9220 -1.1563  0.0979
  365MOL0     H50370  11.043   8.196   1.218  2.2282  1.8780 -0.7253
  366MOL0     O50371   1.269   4.026  10.514  0.6552  0.2033  0.0181
  366MOL0     C50372   1.148   3.987  10.489  0.1939 -0.3081 -0.4830
  366MOL0     O50373   1.099   3.984  10.359  1.4259  0.3854 -0.3032
  366MOL0     C50374   1.176   3.964  10.252 -0.7157  0.1587 -1.3333
  366MOL0     C50375   1.155   4.022  10.134 -0.4180  0.1626  0.7338
  366MOL0     C50376   1.236   3.983  10.021 -0.3968 -0.7318  1.0207
  366MOL0     C50377   1.339   3.889  10.028  0.2536  0.5319 -0.0944
  366MOL0     O50378   1.417   3.859   9.918  0.5973 -0.1754 -0.3641
  366MOL0     C50379   1.514   3.744   9.919 -0.3621 -0.3789  0.3765
  366MOL0     C50380   1.536   3.689   9.779 -1.2159  0.7254 -0.8375
  366MOL0     C50381   1.575   3.541   9.793  0.4938 -0.3509 -1.3831
  366MOL0     C50382   1.623   3.488   9.665  0.4659  0.5374  1.6404
  366MOL0     C50383   1.752   3.400   9.669  0.2940 -0.9544  0.9090
  366MOL0     C50384   1.804   3.337   9.528  0.2163 -0.5736 -0.3851
  366MOL0     C50385   1.909   3.229   9.555  0.3624 -0.0125  1.0297
  366MOL0     C50386   2.045   3.297   9.564  0.2333 -0.5254  0.1528
  366MOL0     N50387   2.099   3.335   9.435 -0.2557  0.1663 -0.1835
  366MOL0     C50388   2.185   3.256   9.373  0.2433 -0.2359  0.1629
  366MOL0     C50389   2.221   3.332   9.267 -0.3298  1.4649  0.8127
  366MOL0     C50390   2.328   3.294   9.167 -0.6828 -1.2629 -0.6217
  366MOL0     C50391   2.481   3.311   9.199 -0.9689 -0.8825  0.1885
  366MOL0     C50392   2.532   3.204   9.297 -0.7478 -0.1501  0.6865
  366MOL0     C50393   2.686   3.227   9.324 -0.0405  0.3216 -0.4072
  366MOL0     O50394   2.728   3.117   9.406  0.0270 -0.4970 -0.2734
  366MOL0     C50395   2.865   3.089   9.412  0.0248 -0.4372 -1.0431
  366MOL0     C50396   2.903   2.966   9.461  0.2764  0.5193 -1.0738
  366MOL0     C50397   3.037   2.929   9.451 -0.2541  0.4068  0.3280
  366MOL0     C50398   3.066   2.789   9.502  0.3240 -0.3525 -0.5942
  366MOL0     C50399   3.139   3.017   9.398 -0.4675  0.4984  1.0490
  366MOL0     C50400   3.282   2.982   9.384  0.2662 -1.4127 -0.8215
  366MOL0     O50401   3.374   3.079   9.353  1.0954 -0.5861  0.3225
  366MOL0     C50402   3.514   3.050   9.374  0.1473  0.4902 -0.2118
  366MOL0     C50403   3.588   3.114   9.473  0.7607 -0.4321  0.5217
  366MOL0     C50404   3.714   3.069   9.499  0.0954 -0.1110  0.8521
  366MOL0     C50405   3.773   2.970   9.429 -0.6411  0.0494 -0.1287
  366MOL0     O50406   3.893   2.911   9.463  0.3682 -0.2197  0.4221
  366MOL0     C50407   4.011   2.964   9.399 -0.1272 -0.7285 -0.0896
  366MOL0     C50408   4.118   3.006   9.504 -0.2657 -0.2021  0.4016
  366MOL0     C50409   4.191   2.889   9.568  0.2400 -0.2180 -0.4695
  366MOL0     C50410   4.304   2.922   9.670  0.4006  0.1644 -0.3105
  366MOL0     C50411   4.440   2.926   9.603  0.0100 -1.0898  0.2290
  366MOL0     C50412   4.540   2.960   9.714  0.0210  0.2390  0.4284
  366MOL0     C50413   4.675   2.967   9.652 -0.3679 -0.4418 -0.7715
  366MOL0     C50414   4.702   3.093   9.579  0.1267  0.7368  0.7171
  366MOL0    Cl50415   4.729   3.067   9.404  0.3115  0.2382  0.3164
  366MOL0     C50416   3.702   2.913   9.327 -0.2512 -0.6676 -0.5526
  366MOL0     C50417   3.573   2.957   9.296  0.0563  0.3315 -0.3310
  366MOL0     O50418   3.315   2.867   9.397 -0.3354 -0.4466  0.4461
  366MOL0     C50419   3.104   3.151   9.350  0.9050  0.1675 -0.2774
  366MOL0     C50420   2.968   3.169   9.353  0.0554 -1.0970 -0.8902
  366MOL0     N50421   2.155   3.458   9.272 -0.4731  0.4492  0.9084
  366MOL0     N50422   2.077   3.452   9.372  0.5101  0.0197 -0.4401
  366MOL0     C50423   1.365   3.841  10.160  0.1477  0.7040 -0.6133
  366MOL0     C50424   1.277   3.870  10.261 -0.7593 -0.5706  0.3656
  366MOL0     C50425   1.057   3.937  10.602 -0.5396  0.4082  0.4673
  366MOL0     C50426   1.113   3.919  10.728 -0.1195  0.0860 -0.2096
  366MOL0     C50427   1.035   3.872  10.836  0.1623  0.6009 -0.0928
  366MOL0     C50428   0.900   3.851  10.821 -0.3323  0.2020 -0.0495
  366MOL0     O50429   0.830   3.817  10.932  0.3205 -0.1469 -0.6910
  366MOL0     C50430   0.796   3.679  10.945 -0.1745  0.4300  0.5717
  366MOL0     C50431   0.702   3.654  11.061 -0.5144  0.0837 -0.5645
  366MOL0     C50432   0.566   3.724  11.057  0.7871 -1.0016 -0.1365
  366MOL0     C50433   0.511   3.737  10.913  0.5969  0.2297 -0.8426
  366MOL0     C50434   0.374   3.785  10.925 -0.6797  0.9160  0.4339
  366MOL0     C50435   0.259   3.816  10.937  0.6978 -0.1291  0.9553
  366MOL0     C50436   0.846   3.858  10.689  0.4652 -0.5252 -0.5730
  366MOL0     C50437   0.919   3.911  10.583 -0.5082 -0.5674 -0.3029
  366MOL0     C50438   0.849   3.945  10.457 -0.3390  0.0010 -0.0513
  366MOL0     H50439   1.067   4.083  10.115  1.4227  2.1893 -1.9697
  366MOL0     H50440   1.220   4.010   9.917 -1.1331 -1.6335  0.8792
  366MOL0     H50441   1.481   3.668   9.991 -0.2793  1.9042  2.9890
  366MOL0     H50442   1.608   3.788   9.951 -0.8500  1.2902 -0.3889
  366MOL0     H50443   1.459   3.696   9.703  0.2714 -1.9665 -2.7581
  366MOL0     H50444   1.630   3.740   9.753  0.8319 -0.7026  2.8973
  366MOL0     H50445   1.640   3.526   9.880 -2.4649  1.3173  1.3380
  366MOL0     H50446   1.481   3.495   9.824  0.1519 -0.9930 -3.2738
  366MOL0     H50447   1.539   3.427   9.630  1.6563 -0.1877 -0.0554
  366MOL0     H50448   1.618   3.563   9.586 -3.2127 -0.8229  0.3730
  366MOL0     H50449   1.735   3.314   9.734  2.6448 -1.0884  1.4351
  366MOL0     H50450   1.832   3.457   9.717  0.1562 -1.2139  1.4539
  366MOL0     H50451   1.720   3.287   9.479  1.8109 -1.2406 -2.5577
  366MOL0     H50452   1.832   3.413   9.455 -0.6718 -0.7522 -0.9262
  366MOL0     H50453   1.906   3.161   9.470  2.9857 -1.2618  1.8464
  366MOL0     H50454   1.890   3.164   9.641  1.7623 -1.0062  0.6291
  366MOL0     H50455   2.035   3.384   9.629  0.2280 -0.5662  0.2058
  366MOL0     H50456   2.111   3.224   9.613 -1.0480  2.3835  7.5311
  366MOL0     H50457   2.207   3.157   9.411 -2.1173 -1.0189 -0.3088
  366MOL0     H50458   2.308   3.342   9.071  0.8734 -1.5670 -1.1173
  366MOL0     H50459   2.312   3.194   9.127  0.4905 -1.6820 -0.0705
  366MOL0     H50460   2.545   3.308   9.111 -0.7097  1.1903  0.2533
  366MOL0     H50461   2.488   3.410   9.246 -1.4367 -1.9738  2.7379
  366MOL0     H50462   2.475   3.216   9.389 -2.6624 -1.3440 -0.2804
  366MOL0     H50463   2.512   3.109   9.245 -1.2872  0.3604 -0.0730
  366MOL0     H50464   2.731   3.224   9.224 -1.9815  2.9113 -1.4804
  366MOL0     H50465   2.704   3.324   9.371 -1.3056  0.1728  0.4204
  366MOL0     H50466   2.823   2.903   9.500 -0.1825  1.4189 -0.5148
  366MOL0     H50467   2.978   2.738   9.542  1.1692 -0.3910  1.3026
  366MOL0     H50468   3.140   2.794   9.582  1.8007 -0.5061 -1.9157
  366MOL0     H50469   3.120   2.731   9.427 -0.3428 -0.3535 -1.0797
  366MOL0     H50470   3.526   3.184   9.528 -2.0356 -1.2934 -1.3119
  366MOL0     H50471   3.769   3.122   9.576 -0.0811 -0.7286  1.4130
  366MOL0     H50472   4.056   2.885   9.338  0.6229 -1.5119  1.4238
  366MOL0     H50473   3.992   3.051   9.336 -2.7715  0.2913  1.9518
  366MOL0     H50474   4.189   3.061   9.441 -1.8224 -0.9670 -2.1817
  366MOL0     H50475   4.078   3.072   9.581  1.3069  1.0950  0.1680
  366MOL0     H50476   4.223   2.809   9.500  0.0918 -1.5262  0.9336
  366MOL0     H50477   4.113   2.843   9.630 -0.4367  1.2475 -0.2027
  366MOL0     H50478   4.297   2.841   9.743 -1.7422 -1.2584 -1.9438
  366MOL0     H50479   4.284   3.014   9.725 -2.1443 -0.4283 -0.0805
  366MOL0     H50480   4.465   2.825   9.567 -3.4003 -3.0932  2.8107
  366MOL0     H50481   4.430   3.001   9.525 -2.3261 -0.4968  1.0078
  366MOL0     H50482   4.549   2.876   9.784 -0.6781 -0.9454 -0.8547
  366MOL0     H50483   4.518   3.052   9.770 -0.8004  0.8011 -0.7798
  366MOL0     H50484   4.694   2.890   9.576  0.1445  0.4706 -1.5856
  366MOL0     H50485   4.747   2.960   9.735 -1.1662  2.8798  0.3291
  366MOL0     H50486   4.790   3.142   9.621  1.7417 -2.9937  2.1991
  366MOL0     H50487   4.627   3.169   9.599 -2.9104 -0.8911 -3.1349
  366MOL0     H50488   3.756   2.838   9.269  0.6528 -0.6825  0.2757
  366MOL0     H50489   3.513   2.915   9.217 -1.3170 -1.7212  1.6819
  366MOL0     H50490   3.178   3.215   9.304 -1.0683  2.3075 -0.6279
  366MOL0     H50491   2.935   3.263   9.311  0.8250  0.3784  1.6407
  366MOL0     H50492   1.438   3.765  10.184 -0.5089 -0.1628 -1.2711
  366MOL0     H50493   1.270   3.810  10.352 -4.2883 -1.5070 -0.3609
  366MOL0     H50494   1.211   3.946  10.766 -0.7249  0.3593  1.2529
  366MOL0     H50495   1.089   3.861  10.930  2.3197  0.5242 -1.2661
  366MOL0     H50496   0.763   3.641  10.848  4.2695  1.0828 -1.4351
  366MOL0     H50497   0.891   3.627  10.964  1.2755  1.9284 -2.0651
  366MOL0     H50498   0.754   3.699  11.146 -0.0708  0.0673 -0.8260
  366MOL0     H50499   0.699   3.546  11.077 -1.4707  0.2545  0.4901
  366MOL0     H50500   0.496   3.660  11.111  0.9710 -2.1720 -1.2362
  366MOL0     H50501   0.582   3.817  11.111  0.5765 -2.6074  2.9109
  366MOL0     H50502   0.520   3.651  10.846 -1.6450 -0.0449 -0.8691
  366MOL0     H50503   0.576   3.810  10.863  2.1950 -2.8399 -3.6957
  366MOL0     H50504   0.156   3.845  10.942  1.0498  2.3669 -2.4174
  366MOL0     H50505   0.741   3.841  10.671  0.5016 -1.6115  0.1316
  366MOL0     H50506   0.888   3.905  10.363 -2.6839  2.4286 -2.2620
  366MOL0     H50507   0.743   3.921  10.472 -1.1277  4.0641  2.7065
  366MOL0     H50508   0.838   4.054  10.460  0.3342  0.0530  1.3109
  367MOL0     O50509   1.571   5.537   9.562  0.0681  0.8446  0.5181
  367MOL0     C50510   1.608   5.426   9.507 -0.1760 -1.1896 -0.2230
  367MOL0     O50511   1.603   5.397   9.373 -0.0296  0.1740  0.1714
  367MOL0     C50512   1.541   5.475   9.275 -0.8217 -0.0177  0.2121
  367MOL0     C50513   1.471   5.411   9.183  0.2446  0.4678 -0.6542
  367MOL0     C50514   1.398   5.474   9.094 -0.6076  0.5208 -0.4847
  367MOL0     C50515   1.388   5.618   9.081 -0.6960 -0.4474 -0.4172
  367MOL0     O50516   1.309   5.662   8.979 -1.0855  0.3569 -0.4316
  367MOL0     C50517   1.356   5.791   8.919 -0.6505 -0.7117  0.0562
  367MOL0     C50518   1.419   5.756   8.783 -0.3661 -0.5512  0.4862
  367MOL0     C50519   1.554   5.681   8.793 -0.4122 -0.7628 -0.5521
  367MOL0     C50520   1.666   5.783   8.803 -0.2166 -0.4947  0.5930
  367MOL0     C50521   1.799   5.711   8.830 -0.3140 -0.7825 -0.1554
  367MOL0     C50522   1.914   5.815   8.840 -0.7074  1.0042 -0.3565
  367MOL0     C50523   2.020   5.790   8.949  0.4118 -0.7489  0.3672
  367MOL0     C50524   2.130   5.891   8.948  0.6472  0.2166 -0.3976
  367MOL0     N50525   2.096   6.017   9.020  0.0236  0.0510 -0.1833
  367MOL0     C50526   2.097   6.035   9.160 -1.2961 -0.3190 -0.2644
  367MOL0     C50527   2.067   6.167   9.166 -0.2809  0.5279  0.8402
  367MOL0     C50528   2.069   6.238   9.290  0.7059 -0.1161 -0.5062
  367MOL0     C50529   1.936   6.325   9.293 -0.3589 -0.3727  0.9017
  367MOL0     C50530   1.923   6.398   9.429 -0.1043 -0.2218 -0.1879
  367MOL0     C50531   1.993   6.532   9.417  0.2965  0.7030  0.1609
  367MOL0     O50532   1.908   6.628   9.351 -1.0055  0.4591  0.2693
  367MOL0     C50533   1.962   6.746   9.308 -0.2488 -0.0314  0.4374
  367MOL0     C50534   1.911   6.807   9.189  0.4494  1.0758 -0.5339
  367MOL0     C50535   1.960   6.927   9.140  0.8009 -0.8308  0.3082
  367MOL0     C50536   1.880   6.980   9.019 -0.1542  0.1711  0.8514
  367MOL0     C50537   2.063   6.998   9.207  0.1514 -0.7323 -0.0446
  367MOL0     C50538   2.137   7.123   9.158 -0.0415 -0.0237  0.0443
  367MOL0     O50539   2.263   7.141   9.202  0.8846 -0.4441  0.6057
  367MOL0     C50540   2.313   7.267   9.224  0.3075 -0.5927  0.1221
  367MOL0     C50541   2.334   7.344   9.113 -0.0733  0.0008  0.0990
  367MOL0     C50542   2.387   7.474   9.131 -0.2844 -0.4373  0.3799
  367MOL0     C50543   2.421   7.520   9.257  0.6339 -0.8335 -0.2310
  367MOL0     O50544   2.472   7.645   9.275 -0.6909 -0.4378  0.2068
  367MOL0     C50545   2.568   7.679   9.388  0.4840  0.4011  0.2016
  367MOL0     C50546   2.688   7.592   9.379  0.0494 -0.0325  0.3309
  367MOL0     C50547   2.774   7.633   9.498 -0.2733  0.5244  0.1701
  367MOL0     C50548   2.837   7.772   9.483  0.9681 -0.4163  0.1449
  367MOL0     C50549   2.980   7.775   9.537 -0.7041  0.6871 -0.6368
  367MOL0     C50550   3.020   7.925   9.535  0.1331 -1.1728 -0.1207
  367MOL0     C50551   3.136   7.952   9.630  0.3030 -0.5802 -0.4256
  367MOL0     C50552   3.119   8.086   9.708 -0.2236 -0.1566  0.3642
  367MOL0    Cl50553   3.237   8.093   9.841  0.1847 -0.1279  0.4294
  367MOL0     C50554   2.405   7.431   9.369 -0.1290  0.3760  0.4715
  367MOL0     C50555   2.352   7.306   9.356  0.6682 -0.0257 -0.5578
  367MOL0     O50556   2.076   7.209   9.094  0.3699 -0.4217  0.2060
  367MOL0     C50557   2.099   6.945   9.325 -0.3887 -0.5000 -0.8948
  367MOL0     C50558   2.053   6.818   9.373 -0.4093 -0.2373 -0.5691
  367MOL0     N50559   2.035   6.222   9.042  0.4145  0.0608 -0.1299
  367MOL0     N50560   2.048   6.129   8.957 -0.4018  0.6402  0.8189
  367MOL0     C50561   1.465   5.688   9.172  0.0123  1.2839  1.2431
  367MOL0     C50562   1.534   5.616   9.274  0.3599 -0.6380 -0.1371
  367MOL0     C50563   1.658   5.314   9.594 -0.3995 -0.7713 -0.4396
  367MOL0     C50564   1.643   5.183   9.547 -0.2113 -0.4622 -0.7306
  367MOL0     C50565   1.657   5.068   9.633  0.4097 -0.2432  0.8183
  367MOL0     C50566   1.711   5.093   9.760 -0.1436  0.7966 -0.3654
  367MOL0     O50567   1.749   4.998   9.835  0.3822  0.5068  0.3668
  367MOL0     C50568   1.822   4.885   9.785  0.1034  0.3311 -0.0258
  367MOL0     C50569   1.762   4.744   9.829  0.1100  0.2571  0.6668
  367MOL0     C50570   1.780   4.709   9.981 -0.6287  0.1881 -0.3927
  367MOL0     C50571   1.793   4.821  10.085  0.3615 -0.3306 -0.0596
  367MOL0     C50572   1.804   4.774  10.222  0.2880  0.8146  0.0474
  367MOL0     C50573   1.821   4.712  10.326  0.2179 -0.0466  0.7837
  367MOL0     C50574   1.734   5.227   9.801  0.6157  0.4911  0.0923
  367MOL0     C50575   1.711   5.336   9.726  0.6209  0.1179  0.5736
  367MOL0     C50576   1.750   5.466   9.778 -0.3440  0.1179  0.2661
  367MOL0     H50577   1.477   5.302   9.185 -1.8327  0.3061  1.5068
  367MOL0     H50578   1.336   5.405   9.038  0.3626 -1.5279  0.8557
  367MOL0     H50579   1.430   5.841   8.983 -0.5742 -1.9141  0.9435
  367MOL0     H50580   1.276   5.859   8.890 -0.5411 -0.8214 -0.5120
  367MOL0     H50581   1.336   5.711   8.729  0.6254 -1.6625 -0.1448
  367MOL0     H50582   1.439   5.846   8.724  0.8431 -1.8704 -1.1829
  367MOL0     H50583   1.548   5.613   8.878 -4.8006 -2.7889 -2.1384
  367MOL0     H50584   1.563   5.613   8.707  1.3605  0.6518 -1.5533
  367MOL0     H50585   1.656   5.844   8.712 -3.8374 -0.6455  0.7466
  367MOL0     H50586   1.638   5.857   8.879 -0.7642  1.7113 -1.6014
  367MOL0     H50587   1.809   5.640   8.747 -1.9513 -0.2490 -0.8559
  367MOL0     H50588   1.800   5.653   8.923 -0.4581  1.5986  1.4121
  367MOL0     H50589   1.968   5.831   8.746 -0.7263 -0.6701 -0.6695
  367MOL0     H50590   1.870   5.912   8.864  0.8408  1.1114  2.4969
  367MOL0     H50591   2.059   5.687   8.948  0.6042 -0.6723  0.0368
  367MOL0     H50592   1.969   5.787   9.046 -1.6536 -2.5507 -0.6780
  367MOL0     H50593   2.216   5.850   9.002 -0.2682 -1.0769  0.1375
  367MOL0     H50594   2.164   5.897   8.844  2.1295 -4.1954 -0.3942
  367MOL0     H50595   2.118   5.962   9.238 -0.9551  1.1656  1.0748
  367MOL0     H50596   2.157   6.303   9.285  1.7887 -1.3716  1.3214
  367MOL0     H50597   2.069   6.173   9.377  0.7390  0.9460  0.3103
  367MOL0     H50598   1.917   6.382   9.202 -2.1838 -1.0671  0.7976
  367MOL0     H50599   1.853   6.254   9.290 -0.8836  0.2371 -1.9832
  367MOL0     H50600   1.822   6.406   9.469  0.6558 -1.6781  2.2062
  367MOL0     H50601   1.973   6.335   9.503 -2.3534  0.1087  1.7332
  367MOL0     H50602   2.017   6.555   9.522 -3.7362  0.0485  1.4022
  367MOL0     H50603   2.083   6.520   9.357 -1.8753 -2.5919 -2.8464
  367MOL0     H50604   1.836   6.751   9.135 -0.0024  1.2003 -0.0454
  367MOL0     H50605   1.940   6.988   8.928 -2.8580 -0.5396 -1.1061
  367MOL0     H50606   1.850   7.084   9.035  1.0196  0.4510  1.4231
  367MOL0     H50607   1.791   6.924   8.990  0.5127  0.0549 -1.1425
  367MOL0     H50608   2.326   7.313   9.009  1.1194  1.6608 -0.5406
  367MOL0     H50609   2.395   7.539   9.045  0.9916 -1.7280 -0.5231
  367MOL0     H50610   2.597   7.785   9.387 -0.5510  0.6921 -0.3768
  367MOL0     H50611   2.509   7.669   9.480 -0.8355 -0.6333 -0.7209
  367MOL0     H50612   2.661   7.487   9.396 -0.4588 -0.0286 -0.4351
  367MOL0     H50613   2.748   7.608   9.290 -0.1659  3.7080  0.7241
  367MOL0     H50614   2.851   7.556   9.503  0.1465  0.3295 -4.6669
  367MOL0     H50615   2.707   7.620   9.584 -1.4856 -0.7875 -0.9315
  367MOL0     H50616   2.771   7.844   9.532 -0.7890  0.1195 -2.7733
  367MOL0     H50617   2.839   7.809   9.380 -0.3101  0.4895  0.4264
  367MOL0     H50618   2.990   7.721   9.632 -1.6780 -1.6462 -1.7730
  367MOL0     H50619   3.042   7.719   9.467 -1.5141  1.8212 -2.3247
  367MOL0     H50620   2.940   7.985   9.578  2.3671  1.4163  0.7099
  367MOL0     H50621   3.036   7.977   9.441 -1.9814  1.5778  0.9029
  367MOL0     H50622   3.234   7.950   9.582  0.1139  1.0537 -0.9605
  367MOL0     H50623   3.130   7.876   9.709  0.7251 -2.6078 -2.2667
  367MOL0     H50624   3.014   8.082   9.741 -0.3684 -4.1508 -0.1481
  367MOL0     H50625   3.126   8.173   9.643 -1.9115 -0.6039 -0.4795
  367MOL0     H50626   2.421   7.474   9.467 -3.5551  1.4962  0.6520
  367MOL0     H50627   2.339   7.220   9.421  4.1268  0.0676  0.4605
  367MOL0     H50628   2.172   6.993   9.390 -0.2893 -1.2603 -0.4360
  367MOL0     H50629   2.081   6.786   9.472 -1.9412 -4.7586 -1.3596
  367MOL0     H50630   1.469   5.796   9.173  0.7029  1.3159 -0.9359
  367MOL0     H50631   1.585   5.675   9.349 -1.5959 -0.4356  1.1054
  367MOL0     H50632   1.589   5.162   9.456 -0.7678  1.3414 -0.8488
  367MOL0     H50633   1.640   4.968   9.594  3.5466 -0.3041 -0.7346
  367MOL0     H50634   1.839   4.883   9.677 -0.9834 -1.3060 -0.1949
  367MOL0     H50635   1.925   4.895   9.822  0.2090  2.8605 -0.7852
  367MOL0     H50636   1.821   4.665   9.781 -0.0927 -1.2929  2.8303
  367MOL0     H50637   1.657   4.733   9.800  0.5746  0.2053 -1.1315
  367MOL0     H50638   1.712   4.634  10.022 -0.0130 -0.8720 -1.2502
  367MOL0     H50639   1.881   4.666   9.980 -0.5600  0.2528 -2.6480
  367MOL0     H50640   1.707   4.888  10.077  1.2382  1.1381  1.8032
  367MOL0     H50641   1.884   4.876  10.061  0.0411  0.3619  0.2752
  367MOL0     H50642   1.855   4.662  10.414  1.3148  2.6191  1.9885
  367MOL0     H50643   1.788   5.239   9.895 -1.0034  0.6360  1.0440
  367MOL0     H50644   1.656   5.508   9.817 -1.7164 -2.7153  0.2972
  367MOL0     H50645   1.805   5.459   9.872 -0.2135  3.6948  0.6049
  367MOL0     H50646   1.798   5.525   9.700 -1.7100  0.2055 -0.5456
  368MOL0     O50647  11.069   3.887  11.007  0.1887 -0.6172 -0.0272
  368MOL0     C50648  11.096   3.892  11.122  0.2698  0.1975  0.2705
  368MOL0     O50649  11.196   3.817  11.181 -0.0893 -0.4368  0.6086
  368MOL0     C50650  11.263   3.733  11.095 -0.2466 -0.1048 -0.5553
  368MOL0     C50651  11.261   3.594  11.120 -0.6666 -0.9263  0.9142
  368MOL0     C50652  11.331   3.505  11.030 -0.3268 -1.0442  0.1887
  368MOL0     C50653  11.412   3.557  10.925  0.4971 -0.2425 -0.4617
  368MOL0     O50654  11.485   3.478  10.849 -0.3327  0.1184  0.1094
  368MOL0     C50655  11.403   3.374  10.783 -0.6435 -0.1050 -0.2084
  368MOL0     C50656  11.484   3.335  10.665 -0.4519  0.3479  0.4008
  368MOL0     C50657  11.464   3.436  10.552  0.0826 -0.7740  0.1438
  368MOL0     C50658  11.451   3.350  10.421  0.5418  0.4148  0.6929
  368MOL0     C50659  11.464   3.425  10.286 -0.0014 -0.0039 -0.9448
  368MOL0     C50660  11.609   3.475  10.266 -0.8646 -0.4580  1.2515
  368MOL0     C50661  11.610   3.578  10.148  0.4113 -0.0782 -0.0859
  368MOL0     C50662  11.743   3.561  10.075  0.7043 -0.4608 -0.8738
  368MOL0     N50663  11.753   3.657   9.968 -0.3532 -0.6414  0.5253
  368MOL0     C50664  11.751   3.793   9.991 -0.3197  0.3762  0.1108
  368MOL0     C50665  11.738   3.852   9.875  0.1595 -0.0641  0.3572
  368MOL0     C50666  11.699   3.992   9.860  0.5770  0.6192 -0.1151
  368MOL0     C50667  11.654   4.017   9.716 -0.1725  0.6419  0.7903
  368MOL0     C50668  11.656   4.168   9.681 -0.3018 -0.6783  0.6573
  368MOL0     C50669  11.552   4.250   9.744  0.5705  0.0872  0.3782
  368MOL0     O50670  11.510   4.358   9.650 -0.2705  1.6770 -0.1359
  368MOL0     C50671  11.424   4.456   9.694 -0.2683 -0.0644 -0.2558
  368MOL0     C50672  11.358   4.457   9.822  0.1727 -0.4086  0.4153
  368MOL0     C50673  11.276   4.564   9.861  0.0894  0.2540  0.0879
  368MOL0     C50674  11.207   4.561   9.993 -0.2979  0.3012 -0.4072
  368MOL0     C50675  11.259   4.670   9.777  0.2526 -0.1652 -0.0897
  368MOL0     C50676  11.177   4.795   9.806  0.4106 -0.4544 -0.3324
  368MOL0     O50677  11.148   4.867   9.692 -0.2425 -0.3820 -0.3952
  368MOL0     C50678  11.074   4.973   9.683  0.0587  0.4525 -0.7180
  368MOL0     C50679  11.018   5.055   9.779  0.1786 -0.6531  0.1172
  368MOL0     C50680  10.936   5.167   9.755  1.0365  0.3444  0.0028
  368MOL0     C50681  10.909   5.201   9.621  0.0789 -0.2074 -0.5208
  368MOL0     O50682  10.836   5.320   9.586 -0.7185  0.7078  0.3274
  368MOL0     C50683  10.745   5.388   9.663  0.3952  0.2632  0.1285
  368MOL0     C50684  10.612   5.310   9.694  0.0821 -0.2473  0.0283
  368MOL0     C50685  10.532   5.294   9.567 -0.2811  0.8032  0.7348
  368MOL0     C50686  10.409   5.396   9.565  0.7857 -0.6131 -0.3534
  368MOL0     C50687  10.327   5.365   9.442 -0.2004 -0.1916 -0.5843
  368MOL0     C50688  10.252   5.233   9.451 -0.0530 -0.7638 -0.1146
  368MOL0     C50689  10.144   5.216   9.575 -0.8898  1.2654  0.1163
  368MOL0     C50690  10.038   5.324   9.579  0.2668  1.4260 -1.3988
  368MOL0    Cl50691   9.909   5.275   9.692 -0.0307  0.5385  0.8513
  368MOL0     C50692  10.966   5.134   9.518 -0.0191  1.4329  0.0467
  368MOL0     C50693  11.047   5.019   9.542 -0.4155  0.8817 -0.1476
  368MOL0     O50694  11.140   4.825   9.920  0.4033 -1.3583  0.2094
  368MOL0     C50695  11.326   4.671   9.658  0.1481  0.4294  1.1908
  368MOL0     C50696  11.398   4.560   9.609 -0.0146  0.1301  0.1729
  368MOL0     N50697  11.729   3.753   9.776 -0.5308 -0.3182 -0.0890
  368MOL0     N50698  11.739   3.640   9.836  0.1364 -0.0476  0.2041
  368MOL0     C50699  11.421   3.692  10.916 -0.4692 -0.0029  0.6288
  368MOL0     C50700  11.350   3.774  10.997  0.8076 -0.7214  0.0539
  368MOL0     C50701  11.038   4.004  11.203 -0.2064 -0.0663  1.3430
  368MOL0     C50702  10.949   4.100  11.146  0.4763  0.4377  0.4501
  368MOL0     C50703  10.889   4.210  11.206 -0.2012  0.0843 -0.1239
  368MOL0     C50704  10.938   4.240  11.332 -0.4341 -0.1287 -0.4234
  368MOL0     O50705  10.894   4.349  11.400  0.2118  0.1579  0.5368
  368MOL0     C50706  10.819   4.460  11.345  0.1444 -0.0374 -0.1014
  368MOL0     C50707  10.899   4.537  11.245  0.6997  0.5000 -0.3864
  368MOL0     C50708  11.021   4.605  11.299 -0.3494 -0.4248 -0.0434
  368MOL0     C50709  10.990   4.708  11.410 -0.1385 -0.2665 -0.6995
  368MOL0     C50710  10.912   4.815  11.346  0.0779  0.6934  0.7767
  368MOL0     C50711  10.842   4.907  11.313  0.7751  0.1484  0.1990
  368MOL0     C50712  11.026   4.154  11.397  0.7887  0.6786 -0.4318
  368MOL0     C50713  11.072   4.032  11.337 -0.5180  0.9175 -0.2622
  368MOL0     C50714  11.154   3.932  11.434 -0.1648  0.5474 -0.0321
  368MOL0     H50715  11.200   3.549  11.197 -1.2687 -2.7907 -0.5585
  368MOL0     H50716  11.315   3.402  11.060 -1.1061 -0.5330  1.6184
  368MOL0     H50717  11.300   3.402  10.760 -2.2128 -0.6377  4.8471
  368MOL0     H50718  11.402   3.287  10.849 -1.5626  0.2460  0.2560
  368MOL0     H50719  11.591   3.321  10.682 -0.5131 -1.7575 -0.5699
  368MOL0     H50720  11.435   3.244  10.628  0.3769  1.1576 -3.0827
  368MOL0     H50721  11.378   3.502  10.563  0.4040 -0.3399  0.0928
  368MOL0     H50722  11.545   3.509  10.554  0.1811 -0.8848  0.2698
  368MOL0     H50723  11.527   3.271  10.422  1.9631  1.6401 -2.0480
  368MOL0     H50724  11.355   3.298  10.432  1.5948 -1.8127  0.0349
  368MOL0     H50725  11.404   3.516  10.287  1.5788  1.0894 -0.7427
  368MOL0     H50726  11.440   3.361  10.200 -0.1346  0.7398 -1.4713
  368MOL0     H50727  11.654   3.533  10.348 -0.3257  1.5194 -0.3707
  368MOL0     H50728  11.670   3.385  10.252  1.6286  1.3677 -0.5002
  368MOL0     H50729  11.605   3.679  10.189  1.3222 -1.4735  3.9014
  368MOL0     H50730  11.530   3.561  10.076 -0.6169  0.1696  0.9772
  368MOL0     H50731  11.828   3.557  10.144 -0.5378 -1.3797  0.6622
  368MOL0     H50732  11.743   3.468  10.016  3.8961  0.2809 -2.2780
  368MOL0     H50733  11.745   3.846  10.086  2.1171 -0.7926  1.0040
  368MOL0     H50734  11.784   4.058   9.881  0.8130 -0.1651  1.5559
  368MOL0     H50735  11.620   4.006   9.933  1.7175 -2.7537  2.0076
  368MOL0     H50736  11.723   3.959   9.655  0.9967  1.9890  0.8028
  368MOL0     H50737  11.550   3.985   9.702 -0.4721  2.2242 -0.8537
  368MOL0     H50738  11.747   4.214   9.720  1.0560 -2.1803 -0.5976
  368MOL0     H50739  11.669   4.176   9.573  0.4777  0.0023  0.7939
  368MOL0     H50740  11.474   4.180   9.777  0.1094 -0.5456 -1.8757
  368MOL0     H50741  11.582   4.301   9.836  3.4168  0.7395 -0.8091
  368MOL0     H50742  11.371   4.378   9.895  1.2430 -0.0211  0.6616
  368MOL0     H50743  11.253   4.639  10.054  3.3746 -0.4884 -1.8764
  368MOL0     H50744  11.218   4.463  10.039  1.6170 -0.0459 -1.4655
  368MOL0     H50745  11.099   4.574   9.985 -0.6336 -2.5928 -1.6959
  368MOL0     H50746  11.004   5.031   9.884 -4.3061  2.4866  0.5165
  368MOL0     H50747  10.880   5.215   9.834  1.1855  1.1929 -0.3908
  368MOL0     H50748  10.791   5.423   9.756  0.8036  3.5145 -1.1686
  368MOL0     H50749  10.710   5.476   9.609  0.6615 -0.7981 -1.8771
  368MOL0     H50750  10.651   5.214   9.728  1.3764 -0.1028 -0.9638
  368MOL0     H50751  10.550   5.366   9.764 -4.1322  0.6210 -3.8798
  368MOL0     H50752  10.497   5.191   9.555 -0.2412  0.8673 -0.0042
  368MOL0     H50753  10.599   5.292   9.480 -0.0106  4.2540  0.7139
  368MOL0     H50754  10.455   5.495   9.561 -0.0159 -0.2618 -3.2932
  368MOL0     H50755  10.348   5.385   9.655  1.8927 -3.7922  0.1205
  368MOL0     H50756  10.258   5.449   9.431 -1.1454 -0.7933  0.5294
  368MOL0     H50757  10.385   5.368   9.349 -1.8958  2.8284 -1.6829
  368MOL0     H50758  10.324   5.151   9.448  0.5595 -0.2391  0.0363
  368MOL0     H50759  10.213   5.227   9.349 -2.0727  0.7980  0.4927
  368MOL0     H50760  10.192   5.205   9.673 -0.4469 -1.9082 -0.3514
  368MOL0     H50761  10.089   5.123   9.560 -1.8321  1.4950  1.8006
  368MOL0     H50762  10.000   5.332   9.477 -0.1222 -0.1803 -1.3972
  368MOL0     H50763  10.097   5.408   9.616  2.5408 -0.4762 -0.5130
  368MOL0     H50764  10.948   5.160   9.414  2.3220  4.6619  0.3216
  368MOL0     H50765  11.082   4.953   9.463 -1.9668  3.0528 -2.8227
  368MOL0     H50766  11.324   4.752   9.586 -0.1590  0.0168  0.7284
  368MOL0     H50767  11.423   4.561   9.503  2.2433  0.1105  0.6524
  368MOL0     H50768  11.486   3.743  10.845 -1.4444 -0.8348 -0.9379
  368MOL0     H50769  11.371   3.881  11.001  2.5149 -1.0090 -0.7396
  368MOL0     H50770  10.912   4.092  11.044 -0.6390  0.8174  0.8081
  368MOL0     H50771  10.821   4.273  11.149  1.3430  2.7275  0.7916
  368MOL0     H50772  10.724   4.425  11.304 -0.0719 -1.3855  1.4115
  368MOL0     H50773  10.788   4.513  11.436 -0.9685 -4.2452  2.3091
  368MOL0     H50774  10.817   4.602  11.213  0.5673 -0.9089 -3.1937
  368MOL0     H50775  10.916   4.480  11.154 -4.7113 -0.1351 -1.3254
  368MOL0     H50776  11.082   4.528  11.348 -0.0808  0.3060  0.7901
  368MOL0     H50777  11.078   4.639  11.212 -0.3975 -0.7142 -0.1914
  368MOL0     H50778  11.077   4.757  11.456 -1.5298  0.1384  1.6623
  368MOL0     H50779  10.941   4.659  11.494  0.5258  1.1065  0.5419
  368MOL0     H50780  10.768   4.984  11.303  0.5536 -0.0708  0.1514
  368MOL0     H50781  11.060   4.181  11.497 -0.4481  1.1941 -0.1394
  368MOL0     H50782  11.140   3.946  11.542  3.0926  1.4347  0.3874
  368MOL0     H50783  11.146   3.828  11.402  1.4928  0.1029  0.8431
  368MOL0     H50784  11.258   3.962  11.416  0.9477 -2.3656  0.8388
  369MOL0     O50785   5.483   4.057   4.035  0.7347  0.6642 -0.4679
  369MOL0     C50786   5.580   4.034   4.109 -0.2695  0.0633  0.5418
  369MOL0     O50787   5.666   3.926   4.101 -0.6023 -0.1480  0.0570
  369MOL0     C50788   5.654   3.839   3.997  0.1304 -0.8171 -0.8211
  369MOL0     C50789   5.553   3.735   4.006  0.3202  0.3923  0.5425
  369MOL0     C50790   5.529   3.649   3.895 -0.0485  0.4175  0.1777
  369MOL0     C50791   5.616   3.657   3.787  0.6243  0.0573  0.2576
  369MOL0     O50792   5.602   3.565   3.690  0.3156 -0.3701 -0.4421
  369MOL0     C50793   5.653   3.598   3.553 -0.1792  0.7032  0.2420
  369MOL0     C50794   5.774   3.505   3.523 -0.3535 -0.7107  0.3559
  369MOL0     C50795   5.797   3.506   3.369  0.6901 -0.7369  0.3477
  369MOL0     C50796   5.927   3.425   3.340  0.0420  0.0575  0.0118
  369MOL0     C50797   5.906   3.353   3.213  0.1443  0.4741  0.0222
  369MOL0     C50798   5.907   3.442   3.086  0.3476 -0.3662 -0.6558
  369MOL0     C50799   5.896   3.360   2.970 -0.0451 -0.2982  0.1159
  369MOL0     C50800   5.756   3.289   2.941  0.4083 -0.7634 -0.6460
  369MOL0     N50801   5.744   3.235   2.806  0.0396  0.5614 -0.2787
  369MOL0     C50802   5.777   3.101   2.782 -0.2277 -0.5379  0.3463
  369MOL0     C50803   5.785   3.097   2.643  0.5813 -0.7264 -0.5733
  369MOL0     C50804   5.812   2.977   2.543 -0.2838  0.2237 -0.1021
  369MOL0     C50805   5.712   2.973   2.429 -0.2006  0.0004 -0.2450
  369MOL0     C50806   5.741   2.854   2.334  0.0864  0.2718 -0.7599
  369MOL0     C50807   5.626   2.838   2.229 -0.4668 -1.0847  0.3363
  369MOL0     O50808   5.491   2.836   2.291 -0.7816  0.3023  1.0390
  369MOL0     C50809   5.389   2.819   2.197  0.6020 -0.6626 -0.3066
  369MOL0     C50810   5.361   2.691   2.158  0.7876  0.9708  0.2224
  369MOL0     C50811   5.252   2.661   2.077 -0.7096 -0.0348 -0.6735
  369MOL0     C50812   5.241   2.523   2.017 -0.2569  0.4191 -0.0965
  369MOL0     C50813   5.154   2.758   2.044 -0.6481  1.4889 -0.7697
  369MOL0     C50814   5.027   2.754   1.976  0.0476  0.3340 -0.2305
  369MOL0     O50815   5.035   2.696   1.852  0.5629  0.1316 -0.4195
  369MOL0     C50816   4.916   2.677   1.781 -0.9542 -0.4584 -1.1898
  369MOL0     C50817   4.898   2.713   1.645 -0.3873 -0.8671  0.2092
  369MOL0     C50818   4.792   2.658   1.563  0.0739  0.5483  0.2220
  369MOL0     C50819   4.687   2.583   1.621 -0.3303 -0.2471 -0.7946
  369MOL0     O50820   4.572   2.534   1.565  0.1347  0.0701  0.1943
  369MOL0     C50821   4.544   2.594   1.434 -0.5629  0.5920  0.0734
  369MOL0     C50822   4.390   2.567   1.409  0.2536  0.0876  0.0622
  369MOL0     C50823   4.382   2.522   1.258  0.5032  0.4981  0.1797
  369MOL0     C50824   4.237   2.537   1.218  0.2000 -0.4886 -0.7353
  369MOL0     C50825   4.215   2.504   1.066 -0.0563 -0.0372  0.7097
  369MOL0     C50826   4.070   2.465   1.038 -0.0313  0.2851  0.3275
  369MOL0     C50827   4.040   2.423   0.893  0.8670 -0.6514  0.1258
  369MOL0     C50828   4.056   2.534   0.792 -0.7301  0.4337  0.4119
  369MOL0    Cl50829   4.143   2.453   0.657 -0.4023 -0.3843  0.4391
  369MOL0     C50830   4.709   2.555   1.758 -0.3151  1.1451 -0.0874
  369MOL0     C50831   4.819   2.588   1.837  0.1679 -1.1402  0.0092
  369MOL0     O50832   4.927   2.789   2.034  0.0411  1.1634  0.6081
  369MOL0     C50833   5.182   2.889   2.088  1.3905 -0.9053  0.7514
  369MOL0     C50834   5.289   2.918   2.166 -0.6372  0.3791 -0.0684
  369MOL0     N50835   5.775   3.224   2.585  0.6194  0.6367 -1.1138
  369MOL0     N50836   5.737   3.303   2.688  0.0058 -0.1108 -0.3058
  369MOL0     C50837   5.717   3.756   3.789 -0.7166 -0.0438 -0.3876
  369MOL0     C50838   5.732   3.848   3.887  1.0250 -0.4338  0.1944
  369MOL0     C50839   5.615   4.122   4.222 -0.8252  0.6917 -1.5378
  369MOL0     C50840   5.732   4.091   4.296  0.0778 -0.5480 -0.1336
  369MOL0     C50841   5.758   4.165   4.412  0.3486 -0.0887  0.3411
  369MOL0     C50842   5.685   4.273   4.460 -0.9139  0.9220 -0.1922
  369MOL0     O50843   5.750   4.347   4.559 -0.6188  0.2168  0.0678
  369MOL0     C50844   5.687   4.449   4.634  0.6412  0.2248 -0.2388
  369MOL0     C50845   5.672   4.583   4.560  0.8616  0.7193 -0.0405
  369MOL0     C50846   5.813   4.648   4.532  0.3314 -0.1830 -0.6167
  369MOL0     C50847   5.889   4.739   4.629  0.5507 -0.5059  1.6397
  369MOL0     C50848   5.905   4.681   4.763 -0.0530  0.5890  0.0237
  369MOL0     C50849   5.940   4.668   4.880 -0.4046 -0.1866 -0.3217
  369MOL0     C50850   5.569   4.305   4.388  0.2562 -0.5532 -0.0660
  369MOL0     C50851   5.527   4.229   4.272 -0.7483  0.3817  0.2405
  369MOL0     C50852   5.400   4.255   4.212  0.2313 -0.0991  0.2003
  369MOL0     H50853   5.487   3.749   4.090  1.2928  7.2816  0.6635
  369MOL0     H50854   5.447   3.579   3.886  1.4183 -1.4255  0.4533
  369MOL0     H50855   5.684   3.702   3.542  1.6012  0.1106 -0.7684
  369MOL0     H50856   5.566   3.582   3.488 -0.0319 -3.2065  0.7731
  369MOL0     H50857   5.859   3.556   3.570  0.2993  1.3369 -2.7921
  369MOL0     H50858   5.743   3.408   3.565 -2.7339 -0.7794 -1.3949
  369MOL0     H50859   5.710   3.475   3.309  0.2630  2.8607 -1.1185
  369MOL0     H50860   5.814   3.606   3.329  2.0416  0.1539  2.9374
  369MOL0     H50861   6.015   3.489   3.335  0.2905 -0.3661 -1.7700
  369MOL0     H50862   5.949   3.349   3.416  1.6627  0.8518  0.3672
  369MOL0     H50863   5.811   3.300   3.213 -0.7361  1.8971  2.5408
  369MOL0     H50864   5.997   3.291   3.208  2.1039  3.0773  1.0720
  369MOL0     H50865   5.839   3.527   3.096  3.6487  2.5517 -0.6567
  369MOL0     H50866   6.008   3.483   3.099 -0.5320  1.0466  2.8552
  369MOL0     H50867   5.971   3.281   2.977 -0.6552 -0.9663 -0.6307
  369MOL0     H50868   5.927   3.414   2.880  2.2214  0.3672  1.2058
  369MOL0     H50869   5.731   3.212   3.014  1.8546 -0.4807  0.1651
  369MOL0     H50870   5.689   3.375   2.950  2.8691  1.2656 -0.5352
  369MOL0     H50871   5.782   3.019   2.853 -2.1319  0.5368  1.8219
  369MOL0     H50872   5.803   2.882   2.597  1.1326  1.6716  2.9471
  369MOL0     H50873   5.914   3.010   2.522 -0.9349  4.2343  1.9724
  369MOL0     H50874   5.607   2.970   2.460 -0.6553  0.8443 -1.6272
  369MOL0     H50875   5.719   3.072   2.383 -0.7992 -0.9891 -2.5779
  369MOL0     H50876   5.834   2.878   2.282  0.9849  0.1208  0.7355
  369MOL0     H50877   5.763   2.763   2.392  0.5625  0.9862  0.2049
  369MOL0     H50878   5.638   2.920   2.158 -1.2038 -0.4552  0.9219
  369MOL0     H50879   5.635   2.742   2.178  2.1394 -1.9308  2.1814
  369MOL0     H50880   5.441   2.617   2.158  0.4913  0.6238  1.7437
  369MOL0     H50881   5.306   2.450   2.066 -1.2184  0.3712  1.1734
  369MOL0     H50882   5.259   2.513   1.909 -4.0675 -2.4129 -0.6916
  369MOL0     H50883   5.138   2.494   2.040 -1.9366  4.1698 -2.1275
  369MOL0     H50884   4.968   2.788   1.611 -0.1839 -1.3172 -0.3775
  369MOL0     H50885   4.780   2.693   1.461 -2.3298  0.9584  0.5846
  369MOL0     H50886   4.559   2.701   1.415 -1.4819  0.6689 -0.2758
  369MOL0     H50887   4.613   2.538   1.371  1.1090  0.5007  1.8892
  369MOL0     H50888   4.359   2.483   1.472 -0.7257  0.2113 -0.2458
  369MOL0     H50889   4.330   2.653   1.440 -0.9693 -1.4048  2.1055
  369MOL0     H50890   4.410   2.416   1.257  0.2442  0.1702  5.2095
  369MOL0     H50891   4.445   2.578   1.188 -0.0474 -0.3590 -1.0398
  369MOL0     H50892   4.195   2.636   1.235 -1.5560 -0.9907 -1.8814
  369MOL0     H50893   4.186   2.469   1.287  0.5170 -0.3281 -0.3369
  369MOL0     H50894   4.236   2.597   1.012 -1.7259  0.1504  0.3521
  369MOL0     H50895   4.276   2.420   1.030  0.8956  0.3636  1.3292
  369MOL0     H50896   3.996   2.541   1.065  0.5091  1.6161 -1.6860
  369MOL0     H50897   4.060   2.372   1.095 -0.4188  0.9464  1.3416
  369MOL0     H50898   3.939   2.382   0.896 -0.6314  2.7804  1.9156
  369MOL0     H50899   4.109   2.340   0.873  1.9731  0.0257  1.0008
  369MOL0     H50900   4.128   2.608   0.829  2.6465 -1.0655 -2.5280
  369MOL0     H50901   3.954   2.571   0.776 -1.6555 -2.1543 -0.0853
  369MOL0     H50902   4.622   2.504   1.800 -0.3672  0.5544 -0.8733
  369MOL0     H50903   4.820   2.587   1.945 -1.3145  0.7502  0.0930
  369MOL0     H50904   5.104   2.959   2.058  0.1255 -0.9718  3.5464
  369MOL0     H50905   5.290   3.020   2.201 -1.8344  0.3954 -0.0573
  369MOL0     H50906   5.801   3.751   3.720 -1.6354  0.5613 -1.5855
  369MOL0     H50907   5.811   3.923   3.892  0.4851  0.3689 -2.0530
  369MOL0     H50908   5.810   4.021   4.265 -0.5921 -1.0762 -0.6376
  369MOL0     H50909   5.852   4.138   4.460  1.0722  1.1492 -0.3174
  369MOL0     H50910   5.581   4.429   4.653  1.0839 -1.2566  0.9239
  369MOL0     H50911   5.731   4.463   4.734  0.4485  0.7191 -0.2205
  369MOL0     H50912   5.616   4.640   4.635 -2.2630 -2.0319 -0.0587
  369MOL0     H50913   5.607   4.583   4.472  1.2812  1.2534 -0.3630
  369MOL0     H50914   5.886   4.569   4.512  2.1740  1.0612  0.8187
  369MOL0     H50915   5.792   4.691   4.433 -0.8004 -1.8439 -1.1303
  369MOL0     H50916   5.834   4.834   4.633 -1.9455 -1.7306 -0.7225
  369MOL0     H50917   5.988   4.745   4.583 -0.7217 -4.4094 -2.2915
  369MOL0     H50918   5.993   4.641   4.969  2.3995 -2.5582 -2.4915
  369MOL0     H50919   5.511   4.393   4.413 -1.1966 -0.8775 -2.0718
  369MOL0     H50920   5.341   4.163   4.220  2.5041 -1.7544 -0.9757
  369MOL0     H50921   5.340   4.335   4.257  0.2841  1.6409 -2.6412
  369MOL0     H50922   5.412   4.277   4.106 -1.9136 -0.2729 -0.1206
  370MOL0     O50923   1.575   5.887   4.473  0.4353  0.1705  1.3859
  370MOL0     C50924   1.631   5.811   4.392 -0.6226 -0.0654 -0.3767
  370MOL0     O50925   1.718   5.861   4.296 -0.0759 -0.4554  1.0128
  370MOL0     C50926   1.743   5.994   4.283  0.0736 -0.3178 -0.4928
  370MOL0     C50927   1.874   6.032   4.274 -0.4617 -0.2116  0.6615
  370MOL0     C50928   1.908   6.172   4.263 -1.5572 -0.0175 -0.1431
  370MOL0     C50929   1.805   6.267   4.253 -0.7223 -0.8987 -0.4570
  370MOL0     O50930   1.840   6.402   4.230 -0.1583  0.0999  0.0175
  370MOL0     C50931   1.947   6.435   4.147  0.9948 -0.0240  0.3243
  370MOL0     C50932   1.937   6.386   3.996 -0.0932 -0.5188  0.5682
  370MOL0     C50933   2.077   6.390   3.938 -0.2716  1.0520  0.0750
  370MOL0     C50934   2.101   6.283   3.835  0.6896 -0.2609 -0.3302
  370MOL0     C50935   2.241   6.220   3.846 -0.7296  1.2645  0.1132
  370MOL0     C50936   2.230   6.099   3.943  0.1066 -0.1126 -0.2386
  370MOL0     C50937   2.363   6.039   3.987  0.2388  0.2992 -0.2936
  370MOL0     C50938   2.462   6.135   4.046 -0.6959  0.2037 -0.8168
  370MOL0     N50939   2.578   6.066   4.113 -0.3000 -0.8754 -0.1430
  370MOL0     C50940   2.587   6.041   4.239 -0.5575  0.3530 -0.6390
  370MOL0     C50941   2.714   5.997   4.263 -0.5906  0.7879  0.7100
  370MOL0     C50942   2.780   5.971   4.400 -1.1527 -0.2163  0.1024
  370MOL0     C50943   2.829   6.100   4.462  0.7121 -0.3910  0.1784
  370MOL0     C50944   2.886   6.085   4.606 -0.1536  0.1607  0.8119
  370MOL0     C50945   3.013   5.983   4.608  0.2201  0.2366 -0.5463
  370MOL0     O50946   3.059   5.977   4.748  0.0892  0.7534 -0.2249
  370MOL0     C50947   3.188   6.023   4.759  0.8599 -0.0199 -0.2169
  370MOL0     C50948   3.216   6.109   4.860  0.0804 -0.2109 -0.6431
  370MOL0     C50949   3.342   6.162   4.893 -0.7666 -0.1308  0.1886
  370MOL0     C50950   3.347   6.273   5.011 -0.3110  0.1596  0.3088
  370MOL0     C50951   3.457   6.116   4.815  0.1563 -0.2467 -0.4897
  370MOL0     C50952   3.588   6.182   4.829  0.3066 -0.1304 -0.9106
  370MOL0     O50953   3.700   6.102   4.801 -0.1916  0.3160  0.5447
  370MOL0     C50954   3.825   6.149   4.777  0.2452 -0.4953 -0.1113
  370MOL0     C50955   3.862   6.284   4.755 -0.3473 -0.8675  0.1494
  370MOL0     C50956   3.993   6.325   4.731 -0.3488 -0.6300  0.9130
  370MOL0     C50957   4.097   6.232   4.748 -0.1902 -0.3190  0.2281
  370MOL0     O50958   4.219   6.281   4.735 -0.4967  0.1162 -0.0235
  370MOL0     C50959   4.310   6.190   4.664 -0.1377 -0.1791 -0.2235
  370MOL0     C50960   4.441   6.244   4.630 -0.8963  0.8867 -1.0188
  370MOL0     C50961   4.521   6.293   4.760 -0.9341  0.1824  0.6312
  370MOL0     C50962   4.672   6.266   4.745 -0.0890 -0.5148 -0.0667
  370MOL0     C50963   4.705   6.118   4.762  0.5715  0.1099  0.4262
  370MOL0     C50964   4.847   6.084   4.709  0.9721  0.0638  0.3626
  370MOL0     C50965   4.892   5.955   4.772 -0.6459  1.1480  0.2099
  370MOL0     C50966   5.019   5.904   4.701 -0.6137 -0.0443 -0.0972
  370MOL0    Cl50967   4.995   5.851   4.529 -0.2794 -0.0301 -0.1527
  370MOL0     C50968   4.061   6.100   4.746 -0.0103  0.3138  0.8352
  370MOL0     C50969   3.918   6.055   4.757  0.1371  0.3705 -0.1424
  370MOL0     O50970   3.597   6.299   4.871 -0.0391 -0.6587 -0.1186
  370MOL0     C50971   3.434   6.029   4.702  0.6858  0.9952 -0.0037
  370MOL0     C50972   3.299   5.979   4.681 -0.9362  0.1357 -0.0483
  370MOL0     N50973   2.775   5.979   4.143 -0.6119 -0.0467  0.4374
  370MOL0     N50974   2.699   6.028   4.053  0.5730  0.2891 -0.6688
  370MOL0     C50975   1.667   6.229   4.262 -0.2576 -0.0837  0.2496
  370MOL0     C50976   1.641   6.088   4.272 -0.3650  0.1472  0.3790
  370MOL0     C50977   1.608   5.668   4.407  0.6732  0.6932  0.2451
  370MOL0     C50978   1.705   5.584   4.346 -0.2128 -0.0191 -0.3664
  370MOL0     C50979   1.692   5.443   4.336  0.6472 -0.1614 -0.8299
  370MOL0     C50980   1.584   5.382   4.391  0.6657 -0.7674  0.1777
  370MOL0     O50981   1.586   5.249   4.384 -0.4203  0.4054 -0.4729
  370MOL0     C50982   1.493   5.170   4.450  0.5335  0.6830 -0.3769
  370MOL0     C50983   1.418   5.076   4.351  0.0508 -0.1248 -1.0357
  370MOL0     C50984   1.326   4.960   4.419 -0.3006  0.0162  0.6269
  370MOL0     C50985   1.256   4.870   4.307 -0.3427  0.9778  0.4932
  370MOL0     C50986   1.197   4.741   4.351 -0.0808  0.5138 -0.5882
  370MOL0     C50987   1.135   4.657   4.415 -0.4343 -1.7687  0.4463
  370MOL0     C50988   1.486   5.461   4.462 -0.3388 -0.5924 -1.4328
  370MOL0     C50989   1.497   5.605   4.474  0.1409  0.4189  0.3532
  370MOL0     C50990   1.391   5.670   4.550  0.0492 -0.1822  0.7213
  370MOL0     H50991   1.958   5.963   4.279 -0.9743 -0.7446  2.2329
  370MOL0     H50992   2.014   6.196   4.267 -1.0905 -1.4694 -2.1339
  370MOL0     H50993   2.038   6.403   4.199  1.3422  1.0446  0.3966
  370MOL0     H50994   1.974   6.541   4.140  1.5434 -0.2783 -2.5016
  370MOL0     H50995   1.881   6.292   3.991  0.8197 -1.1140  1.1898
  370MOL0     H50996   1.882   6.468   3.949 -1.3634 -0.1842  2.5066
  370MOL0     H50997   2.112   6.485   3.897  1.5260  1.7652  2.9951
  370MOL0     H50998   2.154   6.368   4.013 -1.8790  2.0790  2.1152
  370MOL0     H50999   2.023   6.208   3.848 -0.5628  0.4600 -2.9222
  370MOL0     H51000   2.089   6.338   3.741  0.8332  3.7398  1.7623
  370MOL0     H51001   2.311   6.292   3.889  0.2923 -0.7025  1.9803
  370MOL0     H51002   2.279   6.182   3.750 -0.0850 -1.4364  1.3237
  370MOL0     H51003   2.171   6.116   4.033 -1.0164  2.7759 -1.3881
  370MOL0     H51004   2.183   6.023   3.879 -1.9716  0.4610  0.5405
  370MOL0     H51005   2.408   5.994   3.899 -2.9653  1.8096 -2.9138
  370MOL0     H51006   2.341   5.967   4.067  2.9837 -1.3910 -0.9353
  370MOL0     H51007   2.503   6.205   3.972  2.0375 -1.1108 -0.6788
  370MOL0     H51008   2.394   6.175   4.121 -0.3138 -0.5523 -0.0552
  370MOL0     H51009   2.513   6.064   4.316  2.3066  1.1465  2.0742
  370MOL0     H51010   2.865   5.904   4.384 -1.1572 -0.2915  0.3727
  370MOL0     H51011   2.710   5.916   4.463 -0.5961 -2.1327 -0.8907
  370MOL0     H51012   2.906   6.131   4.391 -0.7763 -3.1216 -2.9289
  370MOL0     H51013   2.761   6.185   4.462  0.4606 -0.4148  4.3248
  370MOL0     H51014   2.917   6.184   4.640  1.1548  0.9369 -2.2740
  370MOL0     H51015   2.812   6.053   4.680 -0.7962  2.8121  1.4046
  370MOL0     H51016   2.991   5.879   4.583  4.3098 -0.8764 -0.2027
  370MOL0     H51017   3.089   6.014   4.537  1.2099 -0.5928  0.1198
  370MOL0     H51018   3.132   6.152   4.915  0.0201  0.9336 -1.5816
  370MOL0     H51019   3.440   6.250   5.064  0.8402  0.8222 -1.3344
  370MOL0     H51020   3.254   6.275   5.068  0.0601  1.6386  0.9219
  370MOL0     H51021   3.366   6.377   4.985 -0.2693 -0.2204 -1.3088
  370MOL0     H51022   3.793   6.365   4.776  0.3029 -1.2149  4.5278
  370MOL0     H51023   4.029   6.423   4.701  0.2378 -1.0847  0.1012
  370MOL0     H51024   4.324   6.095   4.717  1.2898  0.4236  0.5453
  370MOL0     H51025   4.263   6.174   4.567 -1.7262 -2.7906  0.8636
  370MOL0     H51026   4.490   6.166   4.570 -1.4789 -0.7201  0.5026
  370MOL0     H51027   4.435   6.331   4.564 -1.0981  1.2500 -0.5244
  370MOL0     H51028   4.487   6.234   4.845  1.4548 -2.8720 -0.3618
  370MOL0     H51029   4.508   6.401   4.773 -3.8791  0.4886 -3.0850
  370MOL0     H51030   4.727   6.339   4.805 -0.1033  0.7211 -1.5033
  370MOL0     H51031   4.713   6.289   4.647  0.4502  1.1361  0.5010
  370MOL0     H51032   4.693   6.102   4.869 -1.4466  0.5611  0.3061
  370MOL0     H51033   4.635   6.050   4.713  1.4637 -0.0698 -0.6582
  370MOL0     H51034   4.919   6.167   4.718 -0.0328  0.9194  0.7086
  370MOL0     H51035   4.837   6.067   4.601  0.1163  2.6850 -0.0395
  370MOL0     H51036   4.818   5.876   4.764 -0.3313  0.9384 -0.7677
  370MOL0     H51037   4.915   5.974   4.878  1.4712  0.4548 -0.0692
  370MOL0     H51038   5.069   5.828   4.761  2.3052  0.5945 -1.5599
  370MOL0     H51039   5.088   5.989   4.706 -3.1025  2.0674  1.3357
  370MOL0     H51040   4.139   6.029   4.721  0.9405  1.5653  0.1540
  370MOL0     H51041   3.894   5.950   4.762  1.3085  0.1191  0.4573
  370MOL0     H51042   3.511   6.003   4.630  0.0368  0.5731 -0.5662
  370MOL0     H51043   3.274   5.907   4.603  0.5137  1.6067 -1.9647
  370MOL0     H51044   1.592   6.308   4.258  0.1321  0.3182  0.6283
  370MOL0     H51045   1.540   6.051   4.284 -0.0960 -0.7380 -0.0595
  370MOL0     H51046   1.784   5.628   4.286  0.6500  0.6146  1.1883
  370MOL0     H51047   1.777   5.386   4.302  1.4605  2.2884 -3.3033
  370MOL0     H51048   1.549   5.113   4.525  1.3711 -1.6938 -2.6323
  370MOL0     H51049   1.417   5.227   4.505  1.2156  1.4412 -0.2064
  370MOL0     H51050   1.497   5.034   4.288  1.9131 -3.5099  3.0189
  370MOL0     H51051   1.345   5.130   4.291 -3.2463 -2.0086  1.0149
  370MOL0     H51052   1.374   4.893   4.490  0.6362 -1.9958 -1.7373
  370MOL0     H51053   1.255   5.006   4.488  0.1309  0.5508  0.7222
  370MOL0     H51054   1.333   4.857   4.230  0.6934  2.5375  1.2134
  370MOL0     H51055   1.176   4.929   4.262  2.4280  3.7158 -1.3073
  370MOL0     H51056   1.066   4.592   4.467  0.0212 -2.8791 -0.2902
  370MOL0     H51057   1.398   5.426   4.514  2.1979 -0.3872  3.5479
  370MOL0     H51058   1.429   5.725   4.636  0.4799 -0.1391  0.5101
  370MOL0     H51059   1.338   5.735   4.480  0.8127 -4.2977 -4.2998
  370MOL0     H51060   1.319   5.597   4.587 -2.9707 -0.1951 -4.2995
  371MOL0     O51061   7.518   6.743   3.806 -0.7075  0.9862 -0.4901
  371MOL0     C51062   7.447   6.839   3.831 -0.8255  0.7182  0.3137
  371MOL0     O51063   7.367   6.906   3.733  0.4543 -0.5548 -0.0684
  371MOL0     C51064   7.315   6.838   3.622 -0.1036 -0.2793 -0.2372
  371MOL0     C51065   7.396   6.766   3.539 -0.4768 -0.7503  0.0983
  371MOL0     C51066   7.346   6.685   3.436 -0.4095 -0.7833  0.6276
  371MOL0     C51067   7.207   6.666   3.419 -0.4470 -0.6977 -0.4183
  371MOL0     O51068   7.153   6.592   3.318 -0.2157 -0.5551  0.2531
  371MOL0     C51069   7.233   6.501   3.246  0.1652 -0.4600  0.1141
  371MOL0     C51070   7.261   6.553   3.101 -0.0573 -0.4342  0.1594
  371MOL0     C51071   7.130   6.547   3.013  0.1119  0.7055  1.0957
  371MOL0     C51072   7.174   6.574   2.861 -0.9863  0.9912 -0.9107
  371MOL0     C51073   7.057   6.571   2.766  0.3969 -0.0670  0.3295
  371MOL0     C51074   7.117   6.619   2.631  0.4763 -0.3933  1.1650
  371MOL0     C51075   7.017   6.596   2.524  0.5467  0.8871  0.7599
  371MOL0     C51076   7.015   6.443   2.473  0.0165 -0.3227  0.3122
  371MOL0     N51077   7.138   6.370   2.444  0.6886  0.8020  0.2985
  371MOL0     C51078   7.190   6.284   2.537  0.2285  0.0574 -0.1669
  371MOL0     C51079   7.312   6.252   2.486  0.4145 -0.8671 -0.0171
  371MOL0     C51080   7.436   6.190   2.549 -0.8778 -0.7353 -0.2560
  371MOL0     C51081   7.457   6.049   2.475  0.9333  0.3491 -0.2557
  371MOL0     C51082   7.591   5.978   2.499  0.3847 -1.1074 -0.3087
  371MOL0     C51083   7.629   5.970   2.642  0.4042  0.4801  0.7242
  371MOL0     O51084   7.536   5.892   2.715  1.1358  0.2356  0.2703
  371MOL0     C51085   7.554   5.888   2.853 -0.2280 -0.0279  0.3723
  371MOL0     C51086   7.464   5.814   2.912  0.0891 -0.8372 -0.4662
  371MOL0     C51087   7.460   5.794   3.048 -0.0564 -0.3332 -0.0668
  371MOL0     C51088   7.363   5.686   3.093  0.5812  0.1066 -0.4884
  371MOL0     C51089   7.564   5.842   3.129 -0.0052  0.9998  1.0774
  371MOL0     C51090   7.558   5.828   3.277 -0.3813  0.7797 -0.9541
  371MOL0     O51091   7.486   5.729   3.330  0.3070 -0.1222 -0.1529
  371MOL0     C51092   7.488   5.724   3.464  0.2005 -0.9860  0.1818
  371MOL0     C51093   7.383   5.794   3.524 -0.7494 -0.3726  0.9520
  371MOL0     C51094   7.383   5.809   3.662 -0.3423  0.3302 -0.0418
  371MOL0     C51095   7.492   5.772   3.741  0.1117 -0.4132  0.3896
  371MOL0     O51096   7.498   5.823   3.864  0.7258 -0.9928  0.4200
  371MOL0     C51097   7.615   5.824   3.943 -0.8076  0.3397  0.5716
  371MOL0     C51098   7.591   5.887   4.088  0.0548 -0.1068  0.4680
  371MOL0     C51099   7.492   5.790   4.165  0.1633  0.0268 -0.1627
  371MOL0     C51100   7.463   5.845   4.309 -0.1258  0.7792  0.0603
  371MOL0     C51101   7.576   5.804   4.407  0.2226 -0.2142 -0.8112
  371MOL0     C51102   7.541   5.791   4.553  0.2900 -0.0582  0.4810
  371MOL0     C51103   7.494   5.927   4.609  0.1420 -0.0549  0.2687
  371MOL0     C51104   7.515   5.944   4.756  0.5826 -0.3198  0.0608
  371MOL0    Cl51105   7.686   5.919   4.790  0.5175  0.0257  0.2353
  371MOL0     C51106   7.591   5.698   3.677 -0.3063  0.6118 -0.4761
  371MOL0     C51107   7.593   5.668   3.540  0.7365  0.1073  0.5396
  371MOL0     O51108   7.623   5.910   3.343  0.5464 -0.3488 -0.2043
  371MOL0     C51109   7.663   5.917   3.064 -0.1193  0.4399 -0.0401
  371MOL0     C51110   7.657   5.939   2.927 -0.1097  1.0735  0.4086
  371MOL0     N51111   7.324   6.312   2.357 -0.3404  0.4818  0.0901
  371MOL0     N51112   7.227   6.391   2.343 -0.1130  0.5679 -0.0356
  371MOL0     C51113   7.132   6.747   3.503  0.5793 -1.1217 -0.1727
  371MOL0     C51114   7.177   6.838   3.602 -0.7816  0.9777 -1.1624
  371MOL0     C51115   7.459   6.902   3.969  0.6578 -0.0447 -0.4963
  371MOL0     C51116   7.338   6.918   4.035  0.1062 -1.0801 -0.6660
  371MOL0     C51117   7.335   6.984   4.163 -0.0246  0.4121 -0.0080
  371MOL0     C51118   7.452   7.031   4.224 -0.2107  0.4037  0.0570
  371MOL0     O51119   7.448   7.110   4.332 -1.1267  0.1938 -0.3120
  371MOL0     C51120   7.332   7.183   4.365  0.1396  1.0957  0.2633
  371MOL0     C51121   7.380   7.290   4.458  0.4497 -0.2218  0.6966
  371MOL0     C51122   7.452   7.224   4.576  0.5509 -0.2689 -0.8389
  371MOL0     C51123   7.456   7.328   4.687 -0.3444  0.2933 -0.0081
  371MOL0     C51124   7.318   7.316   4.743 -0.6346  0.5540 -0.3493
  371MOL0     C51125   7.203   7.315   4.793  0.2306  0.8193 -0.7440
  371MOL0     C51126   7.574   6.994   4.162  0.2484  0.0777  0.2225
  371MOL0     C51127   7.580   6.934   4.035 -0.0315  0.0321  0.3335
  371MOL0     C51128   7.712   6.905   3.980 -0.4892  0.4809 -0.2883
  371MOL0     H51129   7.501   6.759   3.566 -1.0243 -2.4394  2.0172
  371MOL0     H51130   7.423   6.622   3.391 -0.5411 -1.8315  1.8128
  371MOL0     H51131   7.168   6.413   3.240 -0.5812  0.1456 -1.3212
  371MOL0     H51132   7.329   6.468   3.287 -0.5885 -2.8993  0.0621
  371MOL0     H51133   7.303   6.654   3.095  1.1397 -0.7695  2.0902
  371MOL0     H51134   7.333   6.490   3.048  1.5436 -0.9769  2.8240
  371MOL0     H51135   7.097   6.443   3.021 -1.1792  1.1342  1.4790
  371MOL0     H51136   7.046   6.611   3.041 -1.4750 -0.1876 -1.2618
  371MOL0     H51137   7.233   6.666   2.851  0.9951 -0.1962 -0.6182
  371MOL0     H51138   7.248   6.502   2.823 -0.2036  1.3339 -0.0573
  371MOL0     H51139   6.967   6.629   2.786 -1.1214 -0.4788 -4.1407
  371MOL0     H51140   7.018   6.469   2.763 -0.5415  0.2976 -0.3057
  371MOL0     H51141   7.123   6.727   2.646  0.1666 -0.6109  3.1159
  371MOL0     H51142   7.214   6.574   2.606  0.7528  1.0503 -0.5836
  371MOL0     H51143   7.047   6.647   2.432 -1.5814  2.2767  0.7677
  371MOL0     H51144   6.920   6.643   2.546 -0.7579  0.1285 -2.7032
  371MOL0     H51145   6.957   6.386   2.546 -1.0601 -0.6323 -0.7678
  371MOL0     H51146   6.950   6.438   2.385 -1.2703 -0.8049  1.2617
  371MOL0     H51147   7.145   6.250   2.630  0.2643 -0.3611 -0.2984
  371MOL0     H51148   7.414   6.176   2.656 -0.6485  0.3528 -0.0553
  371MOL0     H51149   7.527   6.250   2.549 -2.9907  2.7357 -0.4537
  371MOL0     H51150   7.373   5.985   2.503  1.9019 -0.8936 -0.1100
  371MOL0     H51151   7.448   6.060   2.367 -0.2348 -1.9375 -0.4692
  371MOL0     H51152   7.584   5.875   2.463 -2.9678 -0.6655 -1.2562
  371MOL0     H51153   7.671   6.030   2.446 -1.2360  0.5429 -1.2733
  371MOL0     H51154   7.729   5.926   2.654 -1.0128 -3.1673  0.3886
  371MOL0     H51155   7.631   6.070   2.685 -1.6332  1.3200 -0.9790
  371MOL0     H51156   7.393   5.762   2.848  1.5978 -1.0222 -2.0421
  371MOL0     H51157   7.417   5.595   3.118 -1.2725 -0.7657  0.5108
  371MOL0     H51158   7.289   5.657   3.018 -0.4366 -1.9590  1.2266
  371MOL0     H51159   7.315   5.710   3.188 -0.2743  0.7625 -1.0655
  371MOL0     H51160   7.307   5.836   3.460  0.1666 -0.4347 -0.2091
  371MOL0     H51161   7.290   5.854   3.695 -1.3541 -0.7846 -1.2361
  371MOL0     H51162   7.654   5.723   3.959 -1.3972  0.3825  2.5336
  371MOL0     H51163   7.691   5.875   3.882 -0.0429 -0.6491  0.6831
  371MOL0     H51164   7.692   5.899   4.130  1.2466 -0.4297 -2.0815
  371MOL0     H51165   7.558   5.990   4.074  0.3882 -0.3463 -2.7907
  371MOL0     H51166   7.537   5.690   4.167  0.0461 -0.3186 -4.6466
  371MOL0     H51167   7.396   5.780   4.114 -0.3127 -0.5026  0.8163
  371MOL0     H51168   7.374   5.797   4.350  0.8805 -0.0497  1.3816
  371MOL0     H51169   7.460   5.954   4.308 -2.9973  0.8246 -3.3701
  371MOL0     H51170   7.615   5.706   4.376  1.0973 -0.0870 -0.1445
  371MOL0     H51171   7.659   5.869   4.379 -0.4425 -0.2639 -3.1298
  371MOL0     H51172   7.634   5.755   4.598 -1.2452 -1.3529  2.8454
  371MOL0     H51173   7.467   5.714   4.573  0.3909 -0.7992 -1.7730
  371MOL0     H51174   7.388   5.942   4.589  0.5060  3.2755  0.3546
  371MOL0     H51175   7.558   6.002   4.562 -0.4578 -0.3857 -1.1259
  371MOL0     H51176   7.460   5.865   4.809 -0.5337  0.5991  0.3199
  371MOL0     H51177   7.469   6.033   4.801 -0.8047 -1.0381  0.1343
  371MOL0     H51178   7.681   5.675   3.732  0.9963  1.3701 -2.2086
  371MOL0     H51179   7.680   5.607   3.517  0.8149 -0.0868  1.3008
  371MOL0     H51180   7.743   5.964   3.121 -0.8352  1.7372 -0.0591
  371MOL0     H51181   7.739   5.991   2.877  1.6913 -0.1249  1.9699
  371MOL0     H51182   7.026   6.755   3.482  0.2110  0.6097  1.9316
  371MOL0     H51183   7.110   6.896   3.664 -0.8792 -0.2072 -0.1025
  371MOL0     H51184   7.241   6.900   3.989 -1.4915 -0.3955  2.2122
  371MOL0     H51185   7.236   7.003   4.201  0.5507  1.8243  0.8688
  371MOL0     H51186   7.288   7.232   4.278  0.6924 -3.5133 -2.9815
  371MOL0     H51187   7.257   7.119   4.413  0.8177  0.5187  0.5771
  371MOL0     H51188   7.281   7.331   4.478  0.9088  2.1283 -1.3164
  371MOL0     H51189   7.440   7.363   4.403 -0.0241 -1.0415 -0.9482
  371MOL0     H51190   7.402   7.132   4.609 -0.4871  0.3557 -0.6446
  371MOL0     H51191   7.556   7.196   4.557  1.4240  0.9428  1.6596
  371MOL0     H51192   7.479   7.423   4.638 -0.0235 -0.3836 -1.2139
  371MOL0     H51193   7.529   7.322   4.768 -0.9955  1.2228  0.6690
  371MOL0     H51194   7.112   7.330   4.847 -0.0878  0.3562 -1.1390
  371MOL0     H51195   7.663   7.026   4.217  0.2149  1.7544 -0.6427
  371MOL0     H51196   7.780   6.986   4.007  1.9062 -2.1881  2.3925
  371MOL0     H51197   7.752   6.815   4.028 -2.0011 -0.5234 -0.8423
  371MOL0     H51198   7.704   6.893   3.871 -2.4371 -1.2058 -0.0152
  372MOL0     O51199   8.635   1.562   2.156 -0.0378  0.3525 -0.2553
  372MOL0     C51200   8.753   1.589   2.141 -0.0719 -0.8547  0.7808
  372MOL0     O51201   8.817   1.594   2.022 -0.6620  0.3390  0.1908
  372MOL0     C51202   8.747   1.578   1.904 -0.9231  0.6240 -0.5773
  372MOL0     C51203   8.828   1.545   1.793  0.4097  0.6407 -0.3579
  372MOL0     C51204   8.773   1.535   1.667 -0.3712  0.8300  0.3249
  372MOL0     C51205   8.641   1.544   1.640  0.8459  0.0060  0.1631
  372MOL0     O51206   8.585   1.528   1.511  0.2718  0.2495 -0.0745
  372MOL0     C51207   8.655   1.461   1.404 -0.0425 -0.2612 -0.6302
  372MOL0     C51208   8.551   1.410   1.300 -0.2169 -0.1694 -0.1470
  372MOL0     C51209   8.492   1.277   1.346 -0.0076  0.3752  0.2315
  372MOL0     C51210   8.402   1.277   1.475  0.4618 -0.0371 -0.6535
  372MOL0     C51211   8.313   1.151   1.489 -0.1815  0.5163  0.6838
  372MOL0     C51212   8.232   1.131   1.617 -0.0031  0.6438  0.4955
  372MOL0     C51213   8.098   1.221   1.613 -0.5665  0.4794  1.3553
  372MOL0     C51214   8.049   1.254   1.756  0.3659 -1.0911  0.0504
  372MOL0     N51215   8.050   1.146   1.848 -0.6374  0.4474  0.4056
  372MOL0     C51216   7.986   1.029   1.845  0.4901  0.3795  0.4460
  372MOL0     C51217   8.007   0.970   1.962 -0.5407 -0.9185  0.0681
  372MOL0     C51218   7.960   0.841   2.015 -0.2414  0.5009  0.5824
  372MOL0     C51219   8.032   0.718   1.951  0.7160  0.0191 -0.0767
  372MOL0     C51220   7.979   0.672   1.815 -0.7105 -0.3519 -0.7339
  372MOL0     C51221   8.067   0.556   1.766 -0.4407 -0.0669  0.0175
  372MOL0     O51222   8.207   0.585   1.745 -0.1596 -0.1150  0.4538
  372MOL0     C51223   8.250   0.630   1.620  0.2339 -0.1894  0.6374
  372MOL0     C51224   8.367   0.698   1.620 -0.8572 -0.7951  0.3269
  372MOL0     C51225   8.421   0.755   1.505 -0.3099  0.0351  1.1044
  372MOL0     C51226   8.551   0.822   1.506 -0.0372 -0.7690  0.4912
  372MOL0     C51227   8.350   0.733   1.382  0.5805  0.1502 -0.6466
  372MOL0     C51228   8.407   0.764   1.258  0.2034 -1.4352  0.7839
  372MOL0     O51229   8.340   0.857   1.181 -0.7570  0.3968  0.2869
  372MOL0     C51230   8.402   0.885   1.056  0.2951  0.7583  0.0277
  372MOL0     C51231   8.518   0.968   1.042 -0.0805  0.9467  0.1378
  372MOL0     C51232   8.564   1.009   0.926 -1.7569 -0.9009 -0.8003
  372MOL0     C51233   8.500   0.971   0.806 -0.2054 -0.0890  0.5342
  372MOL0     O51234   8.539   0.992   0.678 -0.5090 -0.3056 -0.6161
  372MOL0     C51235   8.684   1.002   0.665  0.4217 -1.2042  1.2612
  372MOL0     C51236   8.732   0.909   0.546  0.6548 -0.1677 -0.0300
  372MOL0     C51237   8.675   0.967   0.417 -0.3520  1.0698 -0.2157
  372MOL0     C51238   8.695   0.856   0.309 -0.3714  0.7090  0.7566
  372MOL0     C51239   8.699   0.913   0.159 -0.3264  0.8167 -1.0530
  372MOL0     C51240   8.826   1.006   0.129 -0.6137  0.4161 -0.4893
  372MOL0     C51241   8.951   0.917   0.160  0.9940 -0.5057 -0.3202
  372MOL0     C51242   9.074   0.977   0.097  0.5906 -0.5293 -0.4573
  372MOL0    Cl51243   9.112   1.145   0.120  0.2232 -0.2131 -0.3988
  372MOL0     C51244   8.388   0.891   0.818  0.4438  0.8099  0.0708
  372MOL0     C51245   8.342   0.849   0.941 -0.0874  0.3698 -0.4838
  372MOL0     O51246   8.517   0.723   1.233  0.8674 -0.0002 -0.3914
  372MOL0     C51247   8.230   0.664   1.383 -0.0425 -0.3334  0.3454
  372MOL0     C51248   8.184   0.612   1.496  0.4745 -0.5425 -1.1915
  372MOL0     N51249   8.094   1.047   2.035 -0.3250  0.1322  0.8367
  372MOL0     N51250   8.130   1.150   1.960 -0.0248 -0.1439  0.9879
  372MOL0     C51251   8.558   1.593   1.749 -0.2035 -1.0118 -0.1815
  372MOL0     C51252   8.615   1.620   1.872 -0.0715  0.0252  0.0068
  372MOL0     C51253   8.825   1.641   2.264 -0.9473 -0.5701  0.1260
  372MOL0     C51254   8.961   1.679   2.255 -0.2343  0.4872  0.8067
  372MOL0     C51255   9.023   1.755   2.361  0.1556  0.0559  0.5135
  372MOL0     C51256   8.957   1.786   2.472  1.1627 -0.0771  0.0966
  372MOL0     O51257   9.023   1.850   2.578  0.2280  0.4198  0.3738
  372MOL0     C51258   9.070   1.755   2.679 -0.2230  0.1824  0.4867
  372MOL0     C51259   9.004   1.769   2.821 -0.1354  0.6208  1.5123
  372MOL0     C51260   9.011   1.634   2.885 -0.3440 -0.1070  1.1736
  372MOL0     C51261   8.939   1.643   3.026 -0.0407  0.3657  0.1994
  372MOL0     C51262   8.989   1.738   3.130 -0.5359  0.9863 -0.1331
  372MOL0     C51263   9.041   1.789   3.223 -0.1326 -0.1032  0.5376
  372MOL0     C51264   8.819   1.752   2.492 -0.7732  0.3604  0.4272
  372MOL0     C51265   8.758   1.677   2.388  1.3961 -0.2221  0.7425
  372MOL0     C51266   8.605   1.649   2.408 -0.2711  0.0188 -0.0927
  372MOL0     H51267   8.931   1.518   1.813  0.8887  1.3421 -1.8281
  372MOL0     H51268   8.840   1.510   1.585 -1.4826 -2.4386  0.2646
  372MOL0     H51269   8.715   1.376   1.441  0.2519 -0.4194 -1.4525
  372MOL0     H51270   8.720   1.528   1.348  2.6247 -0.5479  1.8843
  372MOL0     H51271   8.465   1.479   1.296 -0.2973 -0.2978 -0.8787
  372MOL0     H51272   8.594   1.398   1.200  1.5050 -0.3988  0.5865
  372MOL0     H51273   8.430   1.232   1.268  1.1120  2.5264 -2.0384
  372MOL0     H51274   8.576   1.208   1.357 -1.0331 -1.1689 -1.2053
  372MOL0     H51275   8.458   1.297   1.567 -1.8533 -0.2008  0.8818
  372MOL0     H51276   8.342   1.367   1.464  3.1353  2.0040  0.3941
  372MOL0     H51277   8.378   1.064   1.475  1.1627  1.4127  1.1700
  372MOL0     H51278   8.244   1.140   1.404 -0.2820 -1.4342  0.9681
  372MOL0     H51279   8.203   1.025   1.615 -0.1924  0.7033 -0.1485
  372MOL0     H51280   8.291   1.156   1.705 -0.1481  3.9187 -0.2104
  372MOL0     H51281   8.012   1.175   1.563  0.0806  0.3723  0.3011
  372MOL0     H51282   8.116   1.316   1.564  0.5197 -0.2560  0.2678
  372MOL0     H51283   8.119   1.331   1.788  1.5805 -1.0335 -2.5276
  372MOL0     H51284   7.949   1.297   1.746  0.4067 -1.0405 -0.1462
  372MOL0     H51285   7.932   0.980   1.765  1.0541 -4.5165  2.7384
  372MOL0     H51286   7.851   0.831   2.011 -0.4557  2.7073 -0.2751
  372MOL0     H51287   7.992   0.832   2.119 -0.3131 -0.4123  0.5342
  372MOL0     H51288   8.140   0.734   1.945  0.8003 -0.5533 -0.1703
  372MOL0     H51289   8.013   0.639   2.024  2.6417 -0.8806 -0.4933
  372MOL0     H51290   7.875   0.640   1.826 -0.5109 -1.2635 -1.4117
  372MOL0     H51291   7.976   0.755   1.742  1.0063  1.7761  1.4389
  372MOL0     H51292   8.059   0.487   1.850  0.9369 -1.1230 -0.6891
  372MOL0     H51293   8.012   0.498   1.691 -1.7068 -2.2926  2.5176
  372MOL0     H51294   8.410   0.720   1.717  2.0096  2.6195 -1.4878
  372MOL0     H51295   8.570   0.880   1.597  1.6758  3.9102 -2.4994
  372MOL0     H51296   8.572   0.884   1.419 -1.2825  0.6303  1.1238
  372MOL0     H51297   8.626   0.743   1.511  2.1118  1.2078  1.4600
  372MOL0     H51298   8.575   0.996   1.129  0.6571  0.9781 -0.3467
  372MOL0     H51299   8.653   1.071   0.921 -1.5658 -1.2789 -3.0610
  372MOL0     H51300   8.705   1.105   0.635 -1.8422 -0.6425  1.3695
  372MOL0     H51301   8.738   0.970   0.755  0.8425 -0.8258  1.1472
  372MOL0     H51302   8.840   0.906   0.530  1.1571 -0.1001  2.8172
  372MOL0     H51303   8.692   0.809   0.566 -0.5589  0.6349  1.9249
  372MOL0     H51304   8.733   1.053   0.382  1.9038 -0.3442 -0.2114
  372MOL0     H51305   8.570   0.989   0.432 -0.3091 -0.1435  2.2640
  372MOL0     H51306   8.613   0.783   0.312  1.3183 -1.4069 -1.0119
  372MOL0     H51307   8.786   0.803   0.338 -0.3465  1.5416  2.2777
  372MOL0     H51308   8.709   0.826   0.094  2.1530 -0.0406  0.3721
  372MOL0     H51309   8.604   0.968   0.148 -1.4914 -0.0205  3.2108
  372MOL0     H51310   8.820   1.091   0.197  0.2953 -0.1394  0.3092
  372MOL0     H51311   8.828   1.035   0.024  0.4506 -1.7522 -1.1375
  372MOL0     H51312   8.947   0.813   0.127  1.8986 -0.7770  0.3868
  372MOL0     H51313   8.964   0.912   0.268 -0.9271 -1.8219 -0.1025
  372MOL0     H51314   9.068   0.951  -0.009  3.3990  0.6816 -1.0213
  372MOL0     H51315   9.165   0.927   0.132 -0.9189 -0.4755  4.0698
  372MOL0     H51316   8.338   0.845   0.733  0.2811 -1.6666  1.4181
  372MOL0     H51317   8.261   0.776   0.943 -0.8211  1.1786  1.3875
  372MOL0     H51318   8.182   0.643   1.288  1.6081 -2.3034 -0.1247
  372MOL0     H51319   8.085   0.565   1.493 -0.1522  0.7997 -2.3644
  372MOL0     H51320   8.456   1.622   1.726 -0.1398  0.9589  1.6960
  372MOL0     H51321   8.547   1.671   1.940  1.2860  0.9723  0.6905
  372MOL0     H51322   9.010   1.667   2.159 -4.0309  0.5268 -1.3388
  372MOL0     H51323   9.127   1.783   2.347  0.1072 -0.6023 -1.5290
  372MOL0     H51324   9.057   1.652   2.644  0.9816 -0.5013  1.9332
  372MOL0     H51325   9.175   1.764   2.706 -0.2644 -0.4766  0.8951
  372MOL0     H51326   8.900   1.800   2.806 -0.6599 -1.3616  0.8217
  372MOL0     H51327   9.053   1.848   2.879 -0.6123  0.6441  1.8804
  372MOL0     H51328   8.969   1.548   2.831  0.8862  1.2144 -2.1559
  372MOL0     H51329   9.116   1.616   2.907 -0.5117 -1.1825  1.1272
  372MOL0     H51330   8.951   1.543   3.069 -1.6630  0.3268  0.6320
  372MOL0     H51331   8.831   1.658   3.016  0.1447  0.2791 -3.1663
  372MOL0     H51332   9.103   1.801   3.309 -0.8324  3.0083  0.7058
  372MOL0     H51333   8.778   1.770   2.591 -0.4154 -3.8627  1.5364
  372MOL0     H51334   8.589   1.541   2.417  3.3712 -0.6405 -0.0103
  372MOL0     H51335   8.570   1.695   2.501 -0.0679  1.6688 -0.8000
  372MOL0     H51336   8.547   1.691   2.326  2.9663  1.2980 -1.8861
  373MOL0     O51337   6.113   8.188   5.656 -0.1035  0.1709  0.7908
  373MOL0     C51338   6.209   8.261   5.669 -0.4550 -0.8964  0.9740
  373MOL0     O51339   6.201   8.397   5.661 -0.0455  0.0452  0.4897
  373MOL0     C51340   6.087   8.471   5.675 -0.0191  0.9476 -0.1995
  373MOL0     C51341   6.086   8.596   5.611 -0.1757  0.3065 -0.3823
  373MOL0     C51342   5.986   8.682   5.638  0.5244 -1.8420 -0.1690
  373MOL0     C51343   5.882   8.649   5.719 -0.2573  1.1521  0.5650
  373MOL0     O51344   5.773   8.722   5.743  0.9922 -0.7586  0.1456
  373MOL0     C51345   5.800   8.823   5.841 -0.5078  1.1536 -0.7973
  373MOL0     C51346   5.674   8.857   5.923  1.1884 -0.2116  0.0300
  373MOL0     C51347   5.615   8.744   6.014 -0.0846 -0.4491 -0.3926
  373MOL0     C51348   5.715   8.689   6.120  0.2830  0.0982 -0.0116
  373MOL0     C51349   5.671   8.706   6.269 -0.5244 -0.8480  0.7943
  373MOL0     C51350   5.624   8.840   6.307 -0.2434 -1.0644  0.3988
  373MOL0     C51351   5.635   8.866   6.456  0.4712 -0.0785 -0.2647
  373MOL0     C51352   5.564   8.761   6.541  0.4497  0.0295  0.3612
  373MOL0     N51353   5.415   8.786   6.547 -0.7133 -0.5248 -0.4991
  373MOL0     C51354   5.326   8.697   6.499  0.9634  0.3718  0.1453
  373MOL0     C51355   5.201   8.733   6.557 -1.7149 -0.0446 -0.0821
  373MOL0     C51356   5.064   8.692   6.529  0.1719 -0.0671 -1.1215
  373MOL0     C51357   4.961   8.804   6.522  0.7053 -0.7106 -0.5512
  373MOL0     C51358   4.823   8.737   6.519  0.2967  0.0395  0.4285
  373MOL0     C51359   4.719   8.840   6.512 -0.9463  0.1774 -0.6008
  373MOL0     O51360   4.605   8.767   6.544  0.2271  0.0396 -0.5096
  373MOL0     C51361   4.527   8.716   6.437  0.1734 -0.8412  1.0987
  373MOL0     C51362   4.447   8.608   6.469 -0.4693  1.1522  0.2613
  373MOL0     C51363   4.362   8.545   6.372 -0.9206  0.2100  0.3581
  373MOL0     C51364   4.281   8.421   6.413  0.5872  0.6985 -0.0256
  373MOL0     C51365   4.351   8.601   6.234 -0.5556 -0.1313  0.4070
  373MOL0     C51366   4.258   8.550   6.117 -0.4533 -0.3878 -0.0875
  373MOL0     O51367   4.275   8.616   5.991  0.2306  0.2499 -0.9352
  373MOL0     C51368   4.191   8.586   5.882  0.1838  0.3444  0.1786
  373MOL0     C51369   4.243   8.583   5.749  0.8514 -0.5096 -0.5105
  373MOL0     C51370   4.165   8.554   5.637 -0.1283  0.0714 -0.3367
  373MOL0     C51371   4.022   8.553   5.653 -0.8136 -0.2666  0.0184
  373MOL0     O51372   3.941   8.532   5.551  0.0470  0.5274  0.0216
  373MOL0     C51373   3.952   8.395   5.512 -0.2889 -1.0730  0.9532
  373MOL0     C51374   3.810   8.353   5.520  0.3770 -0.1451 -0.2143
  373MOL0     C51375   3.782   8.209   5.498 -0.6744 -0.6732  1.3512
  373MOL0     C51376   3.635   8.177   5.455  0.2255 -0.0277 -0.3603
  373MOL0     C51377   3.598   8.025   5.463 -0.5635 -0.3615 -0.6316
  373MOL0     C51378   3.441   8.003   5.466  0.1153 -0.4689  0.2801
  373MOL0     C51379   3.376   8.042   5.339  0.4695 -0.4907  1.0083
  373MOL0     C51380   3.231   8.007   5.344 -0.1454  0.1879 -0.5037
  373MOL0    Cl51381   3.152   8.078   5.202  0.0931  0.2337  0.2750
  373MOL0     C51382   3.961   8.555   5.783  0.1027 -0.6877  0.0114
  373MOL0     C51383   4.041   8.566   5.895  0.2014  0.2600  0.0235
  373MOL0     O51384   4.182   8.462   6.150 -0.0389 -0.5674  0.0642
  373MOL0     C51385   4.422   8.721   6.209  0.0485  0.6643 -0.1340
  373MOL0     C51386   4.515   8.765   6.308  0.4345  0.0684 -0.7104
  373MOL0     N51387   5.233   8.838   6.642 -0.6205  0.0908 -1.1023
  373MOL0     N51388   5.363   8.867   6.647  0.7845  1.3508 -0.7088
  373MOL0     C51389   5.879   8.524   5.777  0.5445 -0.2200 -0.4924
  373MOL0     C51390   5.990   8.444   5.761  0.7543  0.7071  0.0346
  373MOL0     C51391   6.345   8.205   5.677 -0.2212 -0.5075 -0.3620
  373MOL0     C51392   6.451   8.297   5.685  0.5099  0.9417 -0.0739
  373MOL0     C51393   6.576   8.249   5.690 -1.2007 -0.7295 -1.5127
  373MOL0     C51394   6.612   8.120   5.707  0.2895 -0.3057  0.3184
  373MOL0     O51395   6.739   8.073   5.717  0.5980  0.8665  0.5818
  373MOL0     C51396   6.846   8.160   5.734  0.5916  0.2293 -0.3870
  373MOL0     C51397   6.896   8.223   5.605 -0.8911 -0.0360  0.9325
  373MOL0     C51398   6.992   8.342   5.627  0.0764 -0.3431 -0.5324
  373MOL0     C51399   7.133   8.291   5.664 -1.4269  0.8434 -1.0478
  373MOL0     C51400   7.241   8.389   5.696  0.8099 -0.1611  0.0633
  373MOL0     C51401   7.326   8.474   5.723  0.5119  0.4959  0.0558
  373MOL0     C51402   6.513   8.027   5.690 -0.4696  0.3318  1.1351
  373MOL0     C51403   6.382   8.064   5.661  0.0955 -0.0288  0.0532
  373MOL0     C51404   6.282   7.953   5.646  0.6000 -0.3498 -0.2648
  373MOL0     H51405   6.161   8.610   5.534 -0.3949 -1.7900 -1.0373
  373MOL0     H51406   6.001   8.775   5.584  1.7677 -2.3468 -0.7443
  373MOL0     H51407   5.839   8.911   5.790  0.0711  0.6011 -1.3145
  373MOL0     H51408   5.880   8.793   5.909 -0.5463 -0.6895 -1.4918
  373MOL0     H51409   5.678   8.949   5.982  2.4850  0.4122 -0.9595
  373MOL0     H51410   5.594   8.883   5.854  1.0548  1.5577  0.7951
  373MOL0     H51411   5.520   8.774   6.061 -0.4972 -2.3634  0.0606
  373MOL0     H51412   5.605   8.659   5.947  1.0155 -1.1439  0.2932
  373MOL0     H51413   5.718   8.580   6.108  1.7224  0.1720 -0.4403
  373MOL0     H51414   5.818   8.724   6.118  0.5155 -0.6005 -1.3966
  373MOL0     H51415   5.769   8.693   6.315 -0.3731  1.1496  1.1193
  373MOL0     H51416   5.603   8.624   6.296 -1.3519 -0.6235 -0.5349
  373MOL0     H51417   5.689   8.906   6.249 -1.9981 -0.0713 -0.5166
  373MOL0     H51418   5.523   8.868   6.276  0.0842  0.2879  0.4869
  373MOL0     H51419   5.593   8.960   6.494 -0.8205 -1.7503  2.9136
  373MOL0     H51420   5.741   8.879   6.482  0.5155  2.9969 -1.5624
  373MOL0     H51421   5.576   8.665   6.489 -2.4425  0.8267 -2.0410
  373MOL0     H51422   5.599   8.754   6.645 -0.4477 -1.0241  0.6112
  373MOL0     H51423   5.339   8.610   6.436  2.1244 -0.1887  1.1351
  373MOL0     H51424   5.025   8.620   6.601 -3.4436  0.1258 -2.6582
  373MOL0     H51425   5.062   8.635   6.435  2.1692  0.1608 -1.3415
  373MOL0     H51426   4.976   8.877   6.603  0.1215 -0.1498 -0.9366
  373MOL0     H51427   4.993   8.847   6.427  0.4390  1.2173  0.1871
  373MOL0     H51428   4.816   8.688   6.421  2.0537  0.4332  0.0679
  373MOL0     H51429   4.829   8.674   6.608  6.3310  0.6375  0.8781
  373MOL0     H51430   4.735   8.913   6.592 -0.4648 -1.5164  0.9362
  373MOL0     H51431   4.718   8.904   6.424  2.6383  0.8864 -0.2647
  373MOL0     H51432   4.457   8.567   6.569 -1.1397 -1.3927 -0.6247
  373MOL0     H51433   4.179   8.456   6.431 -0.6591  1.5391 -6.4331
  373MOL0     H51434   4.327   8.379   6.503  1.1607  2.7999  0.7362
  373MOL0     H51435   4.283   8.341   6.339 -0.3785 -0.8871  1.6085
  373MOL0     H51436   4.346   8.617   5.743  0.0411  2.3308  0.2340
  373MOL0     H51437   4.208   8.539   5.539  0.8478  2.9292 -0.4454
  373MOL0     H51438   3.984   8.401   5.408 -0.0473 -1.8363  0.9808
  373MOL0     H51439   4.025   8.336   5.568  1.9995  0.6685 -0.0492
  373MOL0     H51440   3.757   8.388   5.609 -1.4251 -2.2263 -0.3599
  373MOL0     H51441   3.781   8.399   5.425 -0.0956 -1.0632 -0.5270
  373MOL0     H51442   3.793   8.164   5.597  1.3977  0.5244  1.7470
  373MOL0     H51443   3.854   8.174   5.424 -1.5272  0.2126  0.0723
  373MOL0     H51444   3.627   8.218   5.353 -1.2315  2.4745  0.6690
  373MOL0     H51445   3.561   8.240   5.505  0.5422  0.2776 -0.2699
  373MOL0     H51446   3.651   7.980   5.378 -1.4322 -0.5718 -1.0729
  373MOL0     H51447   3.631   7.982   5.558 -3.3950  0.0025  0.6226
  373MOL0     H51448   3.389   8.058   5.544 -0.6161  0.1317 -0.6056
  373MOL0     H51449   3.424   7.899   5.498 -2.6280 -0.1274  0.2322
  373MOL0     H51450   3.422   7.985   5.257 -1.6651  0.8058 -1.2176
  373MOL0     H51451   3.401   8.147   5.321 -0.0362 -0.4472  0.5150
  373MOL0     H51452   3.182   8.042   5.435  0.7602 -0.4592  0.2522
  373MOL0     H51453   3.229   7.897   5.342  1.6536  0.1138 -2.6212
  373MOL0     H51454   3.854   8.542   5.794  0.0505  0.6293  1.4373
  373MOL0     H51455   3.993   8.594   5.989 -1.9836  2.6387 -1.6618
  373MOL0     H51456   4.421   8.788   6.123  0.6098 -1.3415 -1.7871
  373MOL0     H51457   4.567   8.859   6.296  0.2711  0.5946  2.0304
  373MOL0     H51458   5.799   8.497   5.846 -2.0379 -1.2453 -3.6617
  373MOL0     H51459   5.983   8.364   5.835 -1.2849  3.5271  3.1632
  373MOL0     H51460   6.432   8.404   5.689 -1.2881  0.6097  2.3115
  373MOL0     H51461   6.646   8.330   5.672 -0.0245 -1.3394  0.0769
  373MOL0     H51462   6.817   8.242   5.800 -1.4409 -0.9404  0.2676
  373MOL0     H51463   6.928   8.099   5.773 -1.5942 -2.1392  0.8280
  373MOL0     H51464   6.807   8.260   5.553 -4.4527 -3.5900  3.8385
  373MOL0     H51465   6.920   8.150   5.527 -1.7036  1.6801 -1.0375
  373MOL0     H51466   6.992   8.396   5.532  0.5539 -0.1973 -0.4496
  373MOL0     H51467   6.955   8.424   5.689 -1.2196 -0.1933 -1.4452
  373MOL0     H51468   7.164   8.236   5.575 -0.7325  0.4510 -0.5648
  373MOL0     H51469   7.128   8.208   5.735  1.9191 -0.4267 -2.1054
  373MOL0     H51470   7.410   8.540   5.724  3.7407 -3.1388 -2.9488
  373MOL0     H51471   6.551   7.926   5.683  0.6181  0.5421  3.2184
  373MOL0     H51472   6.331   7.856   5.635  1.9038  0.3490 -0.8086
  373MOL0     H51473   6.209   7.948   5.727 -1.2083 -0.6132 -1.8175
  373MOL0     H51474   6.222   7.961   5.554 -2.3446 -0.8299  1.4862
  374MOL0     O51475   7.427  10.060  10.632 -0.3842 -0.3150  0.6601
  374MOL0     C51476   7.514  10.011  10.708 -1.0111 -0.3561  0.7031
  374MOL0     O51477   7.528   9.880  10.735  0.2938  0.5674 -0.6514
  374MOL0     C51478   7.414   9.806  10.723  0.0836  0.5350  0.0524
  374MOL0     C51479   7.394   9.695  10.639  0.3272  0.6316 -1.2399
  374MOL0     C51480   7.278   9.622  10.637  0.3893  0.2385  0.2363
  374MOL0     C51481   7.172   9.659  10.728 -0.2097  0.6109  0.1498
  374MOL0     O51482   7.052   9.588  10.734 -0.2579  0.0796  0.1422
  374MOL0     C51483   7.009   9.519  10.857  0.1007 -0.6859 -0.1239
  374MOL0     C51484   6.947   9.381  10.821 -0.5377 -0.0046  1.4719
  374MOL0     C51485   6.874   9.317  10.932  0.0884  0.1952  0.1511
  374MOL0     C51486   6.969   9.268  11.046  0.5236 -0.0666 -0.4174
  374MOL0     C51487   6.889   9.226  11.175 -1.0362  0.8036  0.1607
  374MOL0     C51488   6.984   9.167  11.275  0.3650 -0.0000 -0.9904
  374MOL0     C51489   6.946   9.126  11.418 -0.7641  0.3283 -0.1136
  374MOL0     C51490   6.903   9.234  11.512  0.2071  0.4320 -0.2429
  374MOL0     N51491   7.015   9.323  11.546  0.8280  0.1310  0.5065
  374MOL0     C51492   7.085   9.323  11.663 -0.6253  0.4479 -0.1509
  374MOL0     C51493   7.148   9.443  11.656 -0.1744 -1.2670  0.9833
  374MOL0     C51494   7.222   9.507  11.771  0.4232 -0.0989  0.9099
  374MOL0     C51495   7.372   9.505  11.757  0.1089 -0.8332 -0.0507
  374MOL0     C51496   7.435   9.367  11.741  0.2546  0.5977 -0.5447
  374MOL0     C51497   7.588   9.377  11.776 -0.5684 -0.7951  0.7018
  374MOL0     O51498   7.679   9.335  11.676  0.0261  0.4543  0.3641
  374MOL0     C51499   7.794   9.300  11.731 -1.0833 -0.5520 -0.3186
  374MOL0     C51500   7.890   9.394  11.744 -0.1664  0.8850  0.9773
  374MOL0     C51501   8.019   9.367  11.792 -0.6089  0.7510 -0.1967
  374MOL0     C51502   8.121   9.486  11.787 -0.1971  1.1240  0.0243
  374MOL0     C51503   8.041   9.244  11.861 -0.1080  1.3543  0.0936
  374MOL0     C51504   8.169   9.191  11.917  0.3628  0.0732 -1.0573
  374MOL0     O51505   8.152   9.095  12.017  0.4791  0.8600  0.6180
  374MOL0     C51506   8.245   9.029  12.087 -0.7176  0.4293 -1.1447
  374MOL0     C51507   8.384   9.016  12.051  1.1958 -0.4747  0.1002
  374MOL0     C51508   8.475   8.931  12.101 -0.2095 -0.7980 -0.4701
  374MOL0     C51509   8.447   8.859  12.215  0.5047 -0.1219  0.0335
  374MOL0     O51510   8.533   8.756  12.243  0.1610  0.6045 -0.4177
  374MOL0     C51511   8.479   8.652  12.334  0.2455 -0.8827  0.6787
  374MOL0     C51512   8.597   8.558  12.360 -0.0565 -0.0489  0.6792
  374MOL0     C51513   8.710   8.607  12.450  0.4950 -0.4945 -0.3027
  374MOL0     C51514   8.682   8.623  12.598  0.6333  0.3731  0.6141
  374MOL0     C51515   8.743   8.754  12.655  0.0552  1.0980  0.1484
  374MOL0     C51516   8.724   8.761  12.808 -0.0013 -0.5613  1.1637
  374MOL0     C51517   8.766   8.904  12.856  0.7137  0.5321 -0.5836
  374MOL0     C51518   8.705   8.945  12.995  0.6341 -0.2016 -0.1380
  374MOL0    Cl51519   8.793   8.862  13.121  0.2081 -0.1590 -0.0714
  374MOL0     C51520   8.303   8.868  12.252  0.7141 -0.2124  0.3396
  374MOL0     C51521   8.207   8.951  12.193 -0.4449  0.4479 -0.8452
  374MOL0     O51522   8.278   9.242  11.899 -0.0021 -0.6991  0.1012
  374MOL0     C51523   7.940   9.138  11.847  0.1884 -0.8925 -0.7660
  374MOL0     C51524   7.822   9.167  11.781 -0.8237  0.4106 -0.3870
  374MOL0     N51525   7.106   9.510  11.545 -0.0857 -0.5802  0.4504
  374MOL0     N51526   7.039   9.431  11.469  0.1236 -1.1498 -0.4963
  374MOL0     C51527   7.189   9.760  10.814 -1.3664  1.0418 -0.4911
  374MOL0     C51528   7.304   9.840  10.809  0.2927 -0.1908 -0.0361
  374MOL0     C51529   7.624  10.096  10.742 -0.3559  0.6482  0.5779
  374MOL0     C51530   7.678  10.184  10.646 -0.2153 -0.1207 -0.2108
  374MOL0     C51531   7.782  10.268  10.669  0.0981 -0.0243 -0.3490
  374MOL0     C51532   7.834  10.283  10.797 -0.4560  0.0586 -0.4125
  374MOL0     O51533   7.929  10.378  10.839  0.4540  0.4931  1.0593
  374MOL0     C51534   7.897  10.523  10.845  0.0128  0.4501  1.0941
  374MOL0     C51535   7.806  10.535  10.964  0.3049 -0.9418  1.0496
  374MOL0     C51536   7.895  10.542  11.094  0.0352 -0.7884 -0.6145
  374MOL0     C51537   7.803  10.580  11.215  0.9198 -0.1145  0.5566
  374MOL0     C51538   7.901  10.572  11.328 -0.6020 -0.2301 -0.1035
  374MOL0     C51539   7.979  10.565  11.425  0.3735  0.6285 -0.6395
  374MOL0     C51540   7.784  10.195  10.896  0.1604 -0.3645  0.2301
  374MOL0     C51541   7.687  10.098  10.872  0.2960 -0.4991 -0.1377
  374MOL0     C51542   7.645  10.010  10.989 -0.5351 -0.3661 -0.0624
  374MOL0     H51543   7.479   9.688  10.572  2.2296 -2.5258  1.2559
  374MOL0     H51544   7.270   9.533  10.577 -0.1835 -1.5559  2.8150
  374MOL0     H51545   6.935   9.579  10.912 -0.4072 -1.2274 -0.2032
  374MOL0     H51546   7.099   9.519  10.920 -1.0964  1.2817  1.7571
  374MOL0     H51547   6.871   9.400  10.744  1.9173 -2.2366 -1.8346
  374MOL0     H51548   7.022   9.316  10.775 -0.9375  0.3159  0.3178
  374MOL0     H51549   6.805   9.390  10.975  0.9340  0.2241  1.5368
  374MOL0     H51550   6.815   9.236  10.888 -1.4601  0.8256  0.9770
  374MOL0     H51551   7.025   9.184  11.002  3.5476  0.4495  2.0687
  374MOL0     H51552   7.041   9.347  11.070  0.7836  0.6773 -3.2798
  374MOL0     H51553   6.805   9.160  11.151 -1.0779  0.8187  0.2643
  374MOL0     H51554   6.863   9.317  11.229  2.1728  1.7721  0.3251
  374MOL0     H51555   7.031   9.090  11.214 -0.6019 -0.1494 -1.5740
  374MOL0     H51556   7.066   9.239  11.282 -1.5654  2.4747 -1.9768
  374MOL0     H51557   7.042   9.094  11.459 -0.9286 -1.6056 -1.0907
  374MOL0     H51558   6.882   9.037  11.417  3.5205 -3.1325 -2.1001
  374MOL0     H51559   6.814   9.284  11.474 -1.7568 -0.8544  2.3660
  374MOL0     H51560   6.870   9.189  11.606 -0.3038  5.0360  2.0209
  374MOL0     H51561   7.093   9.249  11.741  1.7260 -0.6389 -1.3175
  374MOL0     H51562   7.190   9.458  11.863 -0.3427  0.8315  1.1566
  374MOL0     H51563   7.183   9.609  11.771  2.1070  0.6304 -1.3386
  374MOL0     H51564   7.399   9.568  11.672 -2.2276  2.2049  1.2938
  374MOL0     H51565   7.408   9.531  11.857 -0.7077  0.7472 -0.1336
  374MOL0     H51566   7.389   9.293  11.808  0.0408  0.7271 -0.5474
  374MOL0     H51567   7.428   9.329  11.638  0.3013  2.3967 -1.2496
  374MOL0     H51568   7.624   9.471  11.820  1.8758  0.0518 -2.6796
  374MOL0     H51569   7.609   9.304  11.855  3.7630 -1.1157 -0.5018
  374MOL0     H51570   7.871   9.487  11.691 -1.5567  1.5184  2.5082
  374MOL0     H51571   8.121   9.529  11.686  2.5385  0.7046 -0.2287
  374MOL0     H51572   8.224   9.464  11.817 -1.2246 -2.1384  1.5949
  374MOL0     H51573   8.088   9.556  11.864 -0.3823  3.3176 -1.9328
  374MOL0     H51574   8.426   9.060  11.962  3.9993 -2.9809  0.0129
  374MOL0     H51575   8.571   8.927  12.051 -0.8352 -0.5667 -1.7312
  374MOL0     H51576   8.453   8.693  12.432  0.5396  0.8262  0.0815
  374MOL0     H51577   8.393   8.606  12.285 -0.9883  0.2613  1.7013
  374MOL0     H51578   8.545   8.474  12.408 -1.8295 -0.2505 -1.4552
  374MOL0     H51579   8.644   8.529  12.265  0.6766 -1.5670  1.4574
  374MOL0     H51580   8.738   8.706  12.413 -2.1575  0.9077  1.1704
  374MOL0     H51581   8.798   8.542  12.447 -0.1700 -1.4909  0.9723
  374MOL0     H51582   8.738   8.543  12.647  1.1061 -0.2705 -0.9331
  374MOL0     H51583   8.574   8.616  12.615  0.6597 -0.0831  0.6187
  374MOL0     H51584   8.847   8.734  12.629 -0.6279 -2.1352 -0.5334
  374MOL0     H51585   8.702   8.840  12.602  1.4809  1.5116 -0.3200
  374MOL0     H51586   8.779   8.683  12.861  2.4815  0.8948  0.8669
  374MOL0     H51587   8.617   8.748  12.829  0.1656 -0.0338  2.4604
  374MOL0     H51588   8.721   8.976  12.788 -0.5256  1.6800  1.3598
  374MOL0     H51589   8.876   8.908  12.853  0.6789  1.0251 -3.2300
  374MOL0     H51590   8.601   8.912  13.003  0.5373  0.1306  0.0185
  374MOL0     H51591   8.710   9.053  13.012 -1.1439  0.1339 -1.4804
  374MOL0     H51592   8.273   8.798  12.330  1.7219  0.9681  1.8512
  374MOL0     H51593   8.105   8.965  12.228 -1.0933 -0.1952 -2.3681
  374MOL0     H51594   7.957   9.035  11.878 -1.0527 -1.3423 -1.4865
  374MOL0     H51595   7.746   9.093  11.761 -0.1484  0.0559 -1.7740
  374MOL0     H51596   7.103   9.786  10.876 -1.2576  1.6956 -0.6066
  374MOL0     H51597   7.316   9.930  10.868  3.2598 -0.4003 -0.1727
  374MOL0     H51598   7.646  10.177  10.543 -0.0824 -3.4676 -0.1467
  374MOL0     H51599   7.822  10.324  10.585  1.2476 -1.9927 -1.1634
  374MOL0     H51600   7.979  10.593  10.862 -0.2063  0.6294  1.4086
  374MOL0     H51601   7.843  10.567  10.760  0.6166 -0.5822  0.1472
  374MOL0     H51602   7.738  10.449  10.964 -1.1492  0.1735  0.3893
  374MOL0     H51603   7.749  10.628  10.964  0.0752 -1.0812  0.8559
  374MOL0     H51604   7.947  10.448  11.116  2.9016  1.0031  1.0329
  374MOL0     H51605   7.968  10.622  11.076 -0.8129  0.1122 -0.1456
  374MOL0     H51606   7.725  10.503  11.219 -1.7449  2.0381 -3.3300
  374MOL0     H51607   7.752  10.676  11.204 -0.6270 -0.9173  0.5166
  374MOL0     H51608   8.046  10.553  11.507  1.6086  4.2040 -0.9693
  374MOL0     H51609   7.827  10.201  10.996 -0.4253 -6.1042  1.1645
  374MOL0     H51610   7.687  10.039  11.086  3.3819  1.5595 -2.1052
  374MOL0     H51611   7.537  10.004  11.009 -0.1986  1.3471  2.9830
  374MOL0     H51612   7.678   9.908  10.969 -0.9423 -0.6018  0.4390
  375MOL0     O51613  10.602   8.714   2.005  0.0452  0.4289  0.4766
  375MOL0     C51614  10.555   8.606   1.967  0.5708 -0.0382  0.2563
  375MOL0     O51615  10.630   8.492   1.954 -0.2127  0.4879 -0.0234
  375MOL0     C51616  10.765   8.510   1.979  0.8028  0.1010  0.5369
  375MOL0     C51617  10.810   8.500   2.110 -0.0792  0.3902 -0.4249
  375MOL0     C51618  10.951   8.518   2.139  0.4612 -0.1272  0.3774
  375MOL0     C51619  11.034   8.554   2.033 -0.0408 -0.1225 -0.8997
  375MOL0     O51620  11.161   8.570   2.073  0.4309  0.6955  0.4526
  375MOL0     C51621  11.248   8.668   2.006  0.7194  0.7387  0.2733
  375MOL0     C51622  11.380   8.683   2.084 -0.6379  1.4100  0.5155
  375MOL0     C51623  11.385   8.706   2.230  0.0261  0.8015 -1.1153
  375MOL0     C51624  11.513   8.765   2.278  0.1653  0.0020  0.2421
  375MOL0     C51625  11.607   8.658   2.315 -0.1264 -0.2450  0.2103
  375MOL0     C51626  11.737   8.727   2.377  0.1738  0.4382 -0.3018
  375MOL0     C51627  11.857   8.635   2.384 -0.9313 -0.3721 -0.5254
  375MOL0     C51628  11.862   8.580   2.520  0.1174 -0.3049  0.0722
  375MOL0     N51629  11.975   8.487   2.540  0.4199 -0.2993 -0.2798
  375MOL0     C51630  12.101   8.520   2.557  0.3860 -0.2860  0.3800
  375MOL0     C51631  12.159   8.397   2.582  0.0300  0.9031 -0.0763
  375MOL0     C51632  12.300   8.361   2.561 -0.6572 -0.1322  0.5426
  375MOL0     C51633  12.377   8.341   2.692 -0.1358 -0.0017 -0.6059
  375MOL0     C51634  12.519   8.379   2.652  0.0332  0.4837 -0.5645
  375MOL0     C51635  12.607   8.323   2.767 -0.1887 -0.5965  0.9272
  375MOL0     O51636  12.618   8.182   2.745  0.2236  0.2957 -0.0389
  375MOL0     C51637  12.681   8.109   2.845 -0.2394  1.0681  0.1520
  375MOL0     C51638  12.682   7.971   2.830  0.4421 -0.2155 -0.5437
  375MOL0     C51639  12.720   7.872   2.924 -0.0041  0.3756  0.4462
  375MOL0     C51640  12.708   7.726   2.878 -0.4186 -0.3989 -0.1062
  375MOL0     C51641  12.773   7.915   3.047  0.5516  0.0991  1.2141
  375MOL0     C51642  12.824   7.835   3.157  0.8923  0.5999 -0.1148
  375MOL0     O51643  12.907   7.888   3.248 -0.4499  0.0264 -0.3983
  375MOL0     C51644  12.967   7.799   3.337  0.0220 -0.3497  0.6858
  375MOL0     C51645  13.096   7.769   3.330 -0.0048  0.7719 -0.2728
  375MOL0     C51646  13.156   7.693   3.439 -0.0944 -0.1314 -0.8933
  375MOL0     C51647  13.081   7.636   3.541 -0.9068 -0.2213 -0.2803
  375MOL0     O51648  13.141   7.542   3.617 -0.0011 -0.0202  0.1126
  375MOL0     C51649  13.149   7.578   3.757 -0.3226 -0.5263  0.3224
  375MOL0     C51650  13.241   7.473   3.812 -0.5267  0.2355  0.8302
  375MOL0     C51651  13.266   7.483   3.958  0.1925  0.3596 -0.2222
  375MOL0     C51652  13.379   7.387   3.994  1.0505  0.3722 -0.3915
  375MOL0     C51653  13.393   7.353   4.143 -0.0267  0.1919 -0.4236
  375MOL0     C51654  13.446   7.207   4.164  1.3025 -0.1439  0.0630
  375MOL0     C51655  13.493   7.179   4.306 -0.3006 -0.1597  0.5044
  375MOL0     C51656  13.383   7.193   4.417 -0.1181  0.5715 -0.3259
  375MOL0    Cl51657  13.251   7.070   4.412 -0.1657  0.1446  0.1933
  375MOL0     C51658  12.939   7.657   3.534 -0.2194 -0.1822  0.2800
  375MOL0     C51659  12.881   7.739   3.437  0.3886  0.3386  0.1396
  375MOL0     O51660  12.779   7.721   3.167  0.4038  0.8117 -0.4365
  375MOL0     C51661  12.778   8.053   3.067  0.4934  0.1389  0.5029
  375MOL0     C51662  12.734   8.156   2.970  0.3787 -0.0822 -0.3383
  375MOL0     N51663  12.061   8.298   2.593 -0.0279 -0.2035 -0.0956
  375MOL0     N51664  11.946   8.358   2.567 -0.7648  0.1787 -0.2758
  375MOL0     C51665  10.984   8.570   1.905 -1.2217  0.8618  0.3628
  375MOL0     C51666  10.853   8.546   1.874  0.5086  1.2335  0.4766
  375MOL0     C51667  10.401   8.598   1.946  0.4959 -0.3747 -0.0181
  375MOL0     C51668  10.341   8.477   1.913  0.2047  1.2968  0.6010
  375MOL0     C51669  10.211   8.463   1.870  0.1451 -0.6247  0.1041
  375MOL0     C51670  10.121   8.575   1.868  0.5930  0.0202  0.0797
  375MOL0     O51671   9.994   8.563   1.805  0.1072 -0.7233  1.1529
  375MOL0     C51672   9.946   8.678   1.739  0.1397 -0.0911 -0.3861
  375MOL0     C51673   9.840   8.642   1.631 -0.8694 -0.1034 -0.5382
  375MOL0     C51674   9.849   8.507   1.544  0.7926  0.5577 -0.1195
  375MOL0     C51675   9.965   8.493   1.439  0.5609 -0.6781  0.1503
  375MOL0     C51676  10.091   8.464   1.499 -0.5908  0.8384 -0.4148
  375MOL0     C51677  10.200   8.446   1.547  0.2367  1.0719  0.2908
  375MOL0     C51678  10.172   8.694   1.924 -0.5117  0.6018 -0.7913
  375MOL0     C51679  10.305   8.707   1.961 -0.7138 -0.9244 -0.5841
  375MOL0     C51680  10.342   8.837   2.041  0.3222 -1.0642  0.7649
  375MOL0     H51681  10.741   8.479   2.191  2.2248 -0.7599  1.3714
  375MOL0     H51682  10.994   8.518   2.238 -1.4156  1.4727  1.2833
  375MOL0     H51683  11.196   8.764   2.001  0.0077  0.4251  1.2534
  375MOL0     H51684  11.262   8.642   1.901 -1.7831  3.0941 -0.7739
  375MOL0     H51685  11.452   8.602   2.069 -1.2273  0.2986  3.1357
  375MOL0     H51686  11.413   8.776   2.036  0.1538  1.5786  1.3445
  375MOL0     H51687  11.304   8.772   2.261 -1.5928 -1.0090 -1.3425
  375MOL0     H51688  11.371   8.608   2.276  2.5808 -0.3775 -2.6414
  375MOL0     H51689  11.552   8.829   2.198 -0.4540 -0.1878 -0.2190
  375MOL0     H51690  11.488   8.815   2.372  2.5665  2.9873 -0.5629
  375MOL0     H51691  11.640   8.609   2.223 -3.8453 -0.8073 -0.9823
  375MOL0     H51692  11.569   8.593   2.394 -1.7848 -0.0074 -0.3597
  375MOL0     H51693  11.772   8.802   2.306  0.1730  1.1562  0.4430
  375MOL0     H51694  11.714   8.786   2.466  1.5313  0.0956  0.3002
  375MOL0     H51695  11.946   8.698   2.375 -0.3882 -0.7401  1.5798
  375MOL0     H51696  11.859   8.554   2.311  3.9363 -1.3280  0.3138
  375MOL0     H51697  11.877   8.662   2.590 -1.4958  0.1701 -0.0965
  375MOL0     H51698  11.779   8.513   2.546  0.0884 -0.7451 -1.0735
  375MOL0     H51699  12.142   8.620   2.545 -3.7126  1.4029 -1.3848
  375MOL0     H51700  12.351   8.437   2.501 -0.6013  0.3660  1.2121
  375MOL0     H51701  12.302   8.263   2.511 -5.0828 -0.1845  0.1155
  375MOL0     H51702  12.339   8.409   2.769  2.8198 -0.0927  1.0560
  375MOL0     H51703  12.370   8.239   2.732  3.9665 -0.9765 -1.9239
  375MOL0     H51704  12.545   8.347   2.551 -0.5429 -1.5627 -0.1152
  375MOL0     H51705  12.528   8.488   2.644 -1.9498  0.6535 -0.9580
  375MOL0     H51706  12.703   8.372   2.790 -1.2928  3.1689 -1.5633
  375MOL0     H51707  12.545   8.332   2.856 -1.2890 -0.7225  0.1829
  375MOL0     H51708  12.623   7.930   2.749 -0.6377 -1.1533  0.6697
  375MOL0     H51709  12.622   7.678   2.925 -1.4843  0.3768 -1.2122
  375MOL0     H51710  12.796   7.671   2.913 -0.1882  0.1762  0.2320
  375MOL0     H51711  12.707   7.720   2.768 -1.6408  1.9425 -0.2820
  375MOL0     H51712  13.169   7.808   3.259  2.4328  1.5290  2.4820
  375MOL0     H51713  13.263   7.676   3.431 -0.0410 -1.0385  1.1706
  375MOL0     H51714  13.203   7.667   3.789 -1.8004 -0.7209  3.7612
  375MOL0     H51715  13.052   7.572   3.807 -0.6919  0.5567 -0.2414
  375MOL0     H51716  13.200   7.374   3.794  1.4525 -1.2129  3.4848
  375MOL0     H51717  13.340   7.473   3.765 -0.3241 -3.7451  0.9637
  375MOL0     H51718  13.178   7.452   4.014 -0.3277 -0.3903 -1.4056
  375MOL0     H51719  13.287   7.588   3.980  0.4189  0.2173  0.2580
  375MOL0     H51720  13.480   7.421   3.969  1.0567  2.0728  1.6593
  375MOL0     H51721  13.351   7.300   3.934 -1.3442 -1.3986  2.9643
  375MOL0     H51722  13.471   7.422   4.179  0.2657 -0.2734 -0.1570
  375MOL0     H51723  13.312   7.356   4.216  1.6081 -0.4121  1.5373
  375MOL0     H51724  13.537   7.178   4.111  0.5605 -3.1299  0.2695
  375MOL0     H51725  13.369   7.133   4.137  0.1642  0.9539  0.1875
  375MOL0     H51726  13.584   7.239   4.318  1.9659 -2.9762 -1.3372
  375MOL0     H51727  13.532   7.077   4.311  1.7754  0.5683  0.0770
  375MOL0     H51728  13.336   7.291   4.412  0.6321  0.8891 -1.9902
  375MOL0     H51729  13.434   7.186   4.513  2.3505 -0.9847 -1.6241
  375MOL0     H51730  12.880   7.595   3.601 -1.5792 -0.1854 -0.8849
  375MOL0     H51731  12.776   7.754   3.459  0.7312  0.3165  1.9413
  375MOL0     H51732  12.811   8.087   3.165  1.5531 -1.9394  0.9266
  375MOL0     H51733  12.731   8.262   2.991 -3.9255  0.1241 -1.2819
  375MOL0     H51734  11.056   8.600   1.829 -0.0404  1.6123  1.7262
  375MOL0     H51735  10.807   8.557   1.777  1.1226 -1.4212 -0.1927
  375MOL0     H51736  10.400   8.387   1.899 -0.7789  0.7242  0.0108
  375MOL0     H51737  10.168   8.368   1.841 -1.1547  0.4320 -1.6977
  375MOL0     H51738   9.906   8.740   1.819 -0.8280 -2.4443  1.0532
  375MOL0     H51739  10.030   8.730   1.692  1.0082 -0.1365  1.0751
  375MOL0     H51740   9.821   8.728   1.566  2.1723  0.0769 -1.3139
  375MOL0     H51741   9.749   8.631   1.691  0.2501 -0.7924  1.0980
  375MOL0     H51742   9.873   8.421   1.608 -0.9734 -0.6516 -0.9783
  375MOL0     H51743   9.748   8.487   1.505  0.5526  3.2893 -1.1080
  375MOL0     H51744   9.968   8.585   1.381 -1.3486 -0.0718  0.9411
  375MOL0     H51745   9.933   8.419   1.366 -6.7127  3.1993 -1.5571
  375MOL0     H51746  10.287   8.424   1.606  1.7716  0.2741 -2.1071
  375MOL0     H51747  10.108   8.782   1.928 -0.0073  0.9444  0.4535
  375MOL0     H51748  10.258   8.906   2.038  0.4685 -0.9107 -0.1635
  375MOL0     H51749  10.352   8.813   2.147  2.9672 -1.0722  0.6014
  375MOL0     H51750  10.433   8.892   2.013  0.5546  0.1932  3.6427
  376MOL0     O51751   0.794   2.171   6.593 -0.0787  0.1147 -0.3014
  376MOL0     C51752   0.819   2.267   6.666 -0.3445  0.5155 -0.2698
  376MOL0     O51753   0.832   2.389   6.620  0.1674 -0.0855  0.0222
  376MOL0     C51754   0.851   2.396   6.478 -0.5307 -0.5411  0.3127
  376MOL0     C51755   0.744   2.441   6.409  0.1503  0.0815 -0.0234
  376MOL0     C51756   0.741   2.447   6.266  1.1320  0.5365 -0.8676
  376MOL0     C51757   0.852   2.419   6.189 -0.8206 -0.7090  0.1794
  376MOL0     O51758   0.857   2.402   6.053  0.3162  0.0669 -0.0381
  376MOL0     C51759   0.731   2.426   5.983 -0.2334  0.3374  0.3421
  376MOL0     C51760   0.726   2.559   5.909 -0.1389 -0.8494 -0.6345
  376MOL0     C51761   0.612   2.554   5.817  0.6841 -0.9735  0.7697
  376MOL0     C51762   0.649   2.558   5.667  0.6341  0.4450 -0.0992
  376MOL0     C51763   0.517   2.569   5.592 -0.9306  0.3702  0.2648
  376MOL0     C51764   0.549   2.515   5.453  0.1026  0.4174  1.3779
  376MOL0     C51765   0.455   2.574   5.339  0.7830 -0.0419 -0.4948
  376MOL0     C51766   0.494   2.713   5.311  0.0737 -0.6388  0.6218
  376MOL0     N51767   0.637   2.761   5.324  1.2996 -0.0620 -0.3562
  376MOL0     C51768   0.740   2.726   5.236 -0.5024  0.1446 -0.6320
  376MOL0     C51769   0.852   2.798   5.273 -0.1590  0.0623 -0.0703
  376MOL0     C51770   0.980   2.797   5.201 -0.4640 -0.2411 -0.0146
  376MOL0     C51771   1.005   2.941   5.156  0.6621  0.6290  0.7363
  376MOL0     C51772   1.132   2.978   5.080  0.3436 -0.2659  0.3905
  376MOL0     C51773   1.134   3.125   5.042 -0.1068 -0.4228 -0.6350
  376MOL0     O51774   1.265   3.151   4.992 -0.6546 -0.2897  0.0139
  376MOL0     C51775   1.259   3.268   4.919  1.0472 -0.8883 -0.1625
  376MOL0     C51776   1.261   3.397   4.983 -0.8357  0.8832  0.4056
  376MOL0     C51777   1.262   3.512   4.907  0.5989 -0.0425 -0.2093
  376MOL0     C51778   1.278   3.646   4.984 -0.0066  0.3436 -1.0149
  376MOL0     C51779   1.240   3.502   4.760  0.2419  1.1729 -0.5151
  376MOL0     C51780   1.219   3.623   4.670  1.1207  0.6759  0.2932
  376MOL0     O51781   1.251   3.624   4.530 -0.1811  0.0632 -0.2121
  376MOL0     C51782   1.196   3.713   4.438 -0.3170 -0.0557 -0.0253
  376MOL0     C51783   1.077   3.771   4.451  0.4397 -0.0641 -0.0874
  376MOL0     C51784   1.011   3.841   4.355 -1.1268 -0.2871  0.4229
  376MOL0     C51785   1.076   3.866   4.231 -0.0491 -0.0599 -0.5388
  376MOL0     O51786   1.001   3.929   4.136 -0.2539  0.3315  0.4647
  376MOL0     C51787   1.068   3.954   4.013 -0.7546 -0.6516  0.2988
  376MOL0     C51788   0.982   4.050   3.925  0.2599 -0.0078  0.1260
  376MOL0     C51789   1.057   4.182   3.889 -0.0771 -0.0998 -0.5970
  376MOL0     C51790   1.178   4.156   3.810 -0.5729 -0.1665 -0.4077
  376MOL0     C51791   1.254   4.289   3.767  0.2929  0.2235  0.5428
  376MOL0     C51792   1.206   4.367   3.646 -0.2779 -0.2119 -0.0827
  376MOL0     C51793   1.303   4.478   3.620  0.6670  0.4594 -0.5682
  376MOL0     C51794   1.265   4.568   3.507  0.2098 -0.1282  0.3024
  376MOL0    Cl51795   1.385   4.694   3.505  0.3467  0.3767 -0.4566
  376MOL0     C51796   1.207   3.797   4.213  0.1400  0.4607  0.2494
  376MOL0     C51797   1.261   3.729   4.316  0.2498 -0.0190 -0.9260
  376MOL0     O51798   1.168   3.718   4.728  0.5516 -0.3390  0.3316
  376MOL0     C51799   1.241   3.379   4.694 -0.3892 -0.2145  0.1676
  376MOL0     C51800   1.252   3.263   4.779  0.3856 -0.2539  0.4906
  376MOL0     N51801   0.813   2.886   5.370  0.0070  0.1670 -0.9130
  376MOL0     N51802   0.683   2.862   5.402  0.9799 -0.7977 -0.4913
  376MOL0     C51803   0.965   2.390   6.263 -0.0311 -0.3855  0.2627
  376MOL0     C51804   0.968   2.371   6.402  0.0469  0.5399 -0.7230
  376MOL0     C51805   0.846   2.247   6.810  0.7350  0.0247  0.2640
  376MOL0     C51806   0.884   2.118   6.851 -0.3307  0.0661  0.1781
  376MOL0     C51807   0.935   2.085   6.980 -0.8870 -0.4204 -1.2054
  376MOL0     C51808   0.947   2.191   7.071  0.0679 -0.0865  0.6218
  376MOL0     O51809   1.000   2.149   7.190  0.0056 -0.2010 -0.1407
  376MOL0     C51810   1.022   2.238   7.300 -0.6789  0.8656  0.1208
  376MOL0     C51811   0.927   2.184   7.419  0.5375  0.4523  0.3601
  376MOL0     C51812   0.776   2.197   7.391 -0.8365  0.1817  0.8709
  376MOL0     C51813   0.700   2.083   7.462 -0.8060  0.8715  0.6227
  376MOL0     C51814   0.700   2.120   7.604 -0.4059  0.3235 -0.3882
  376MOL0     C51815   0.712   2.147   7.721  0.0629 -0.3278 -0.1273
  376MOL0     C51816   0.907   2.319   7.032 -0.0897  0.6324 -0.4665
  376MOL0     C51817   0.850   2.346   6.906  0.5415 -0.1300 -0.3526
  376MOL0     C51818   0.778   2.481   6.891  0.5123 -0.9038 -0.4631
  376MOL0     H51819   0.651   2.460   6.462 -1.3410  0.4989 -2.6006
  376MOL0     H51820   0.648   2.476   6.218  0.0996 -0.7555  0.2622
  376MOL0     H51821   0.642   2.405   6.043  0.7819 -2.4710  1.0578
  376MOL0     H51822   0.722   2.347   5.907  4.0997 -1.1223  1.0458
  376MOL0     H51823   0.715   2.632   5.990 -1.5376 -2.7566  0.9900
  376MOL0     H51824   0.821   2.587   5.861 -0.3744  3.0579  0.8725
  376MOL0     H51825   0.544   2.469   5.835  0.6130 -1.0577  0.1172
  376MOL0     H51826   0.555   2.646   5.826 -1.2678 -2.0891  0.4548
  376MOL0     H51827   0.713   2.641   5.637  0.7856 -0.2518 -1.8257
  376MOL0     H51828   0.706   2.467   5.641  2.8712  0.9870  2.3725
  376MOL0     H51829   0.478   2.670   5.580  0.8862  0.9204 -1.8433
  376MOL0     H51830   0.435   2.509   5.632 -1.0296  1.0486  1.1028
  376MOL0     H51831   0.650   2.542   5.423 -1.1239  3.4374 -0.5877
  376MOL0     H51832   0.541   2.406   5.445 -2.8310  0.5372  1.4346
  376MOL0     H51833   0.350   2.561   5.368  0.8854 -2.4630 -0.9813
  376MOL0     H51834   0.471   2.513   5.250  0.3628  0.6078 -1.0177
  376MOL0     H51835   0.451   2.738   5.214 -0.7769  2.3525  1.6466
  376MOL0     H51836   0.446   2.772   5.390  0.6467  1.4478 -0.5241
  376MOL0     H51837   0.729   2.649   5.160 -2.0892  0.0496 -0.3382
  376MOL0     H51838   0.988   2.724   5.120  0.2612 -0.0480 -0.1291
  376MOL0     H51839   1.055   2.772   5.277 -0.0295  0.1871 -0.2893
  376MOL0     H51840   0.926   2.972   5.087  2.2130  2.5037 -0.3052
  376MOL0     H51841   0.999   3.008   5.243 -2.7473  2.6929 -0.8997
  376MOL0     H51842   1.211   2.953   5.151  0.3428 -4.4050 -0.8421
  376MOL0     H51843   1.146   2.919   4.989  2.2823 -1.6528  1.5196
  376MOL0     H51844   1.053   3.137   4.969  0.4275  0.3881 -1.1098
  376MOL0     H51845   1.121   3.196   5.125  0.8764 -1.6622  0.6251
  376MOL0     H51846   1.275   3.398   5.091  3.1903  0.5917  0.0332
  376MOL0     H51847   1.368   3.698   4.949  0.4507 -0.1609 -0.5881
  376MOL0     H51848   1.285   3.630   5.092 -1.5716  5.0639  0.0155
  376MOL0     H51849   1.190   3.709   4.967 -0.1736  0.5996  0.6483
  376MOL0     H51850   1.019   3.760   4.542 -0.5624  1.9811 -0.4285
  376MOL0     H51851   0.913   3.886   4.371 -0.4201  1.5976 -0.2966
  376MOL0     H51852   1.170   3.987   4.037 -0.0709 -2.9096  0.7396
  376MOL0     H51853   1.073   3.860   3.957  2.8455  0.9625 -2.5070
  376MOL0     H51854   0.958   4.006   3.828  0.3019 -1.7298  0.8402
  376MOL0     H51855   0.888   4.068   3.979  0.9516  0.6593  1.1353
  376MOL0     H51856   1.092   4.215   3.988 -0.4923 -1.6577  0.1038
  376MOL0     H51857   1.005   4.266   3.841  3.4260  1.2739 -2.3153
  376MOL0     H51858   1.150   4.103   3.718 -1.8857 -1.7900  0.8630
  376MOL0     H51859   1.237   4.090   3.873 -1.3516 -0.1517  0.3452
  376MOL0     H51860   1.260   4.361   3.849  1.1134  2.1554 -1.1373
  376MOL0     H51861   1.358   4.259   3.752  0.1704 -0.5482  1.1782
  376MOL0     H51862   1.105   4.407   3.657  0.7777  2.6309  0.0454
  376MOL0     H51863   1.210   4.296   3.563  0.9251 -2.1643  1.5530
  376MOL0     H51864   1.411   4.459   3.628  0.5565  0.0437  0.0038
  376MOL0     H51865   1.276   4.547   3.700 -0.5209  0.8006 -1.2313
  376MOL0     H51866   1.169   4.617   3.526  0.7808  0.7364  1.0241
  376MOL0     H51867   1.257   4.525   3.407 -1.8092 -1.5481  1.0139
  376MOL0     H51868   1.269   3.806   4.124 -1.4035 -1.8310 -1.1663
  376MOL0     H51869   1.365   3.700   4.321  0.6239  1.5073  1.5754
  376MOL0     H51870   1.234   3.371   4.586 -1.2439 -3.4815  0.3660
  376MOL0     H51871   1.259   3.170   4.723 -5.1894  1.2074 -3.4782
  376MOL0     H51872   1.048   2.373   6.196  0.4657 -2.4473  1.3297
  376MOL0     H51873   1.059   2.333   6.447  0.3519 -0.7218 -2.3185
  376MOL0     H51874   0.872   2.030   6.789  2.5682 -1.1725  1.2010
  376MOL0     H51875   0.954   1.983   7.012  0.2827  0.1993  0.1736
  376MOL0     H51876   1.123   2.220   7.336 -0.6661 -0.8864 -0.6582
  376MOL0     H51877   1.014   2.344   7.276  2.8347  1.0966 -0.5187
  376MOL0     H51878   0.947   2.246   7.507  1.5671 -0.3606  0.7179
  376MOL0     H51879   0.959   2.080   7.434  0.4451  0.1161 -1.5436
  376MOL0     H51880   0.742   2.297   7.419  1.3661  1.9878 -2.2303
  376MOL0     H51881   0.755   2.199   7.283  0.2396  1.6246  0.6626
  376MOL0     H51882   0.733   1.982   7.435 -1.2051  1.0995 -0.8287
  376MOL0     H51883   0.593   2.092   7.440 -0.9982 -0.7584  0.7498
  376MOL0     H51884   0.721   2.173   7.824  1.7308  1.9155 -0.7605
  376MOL0     H51885   0.915   2.399   7.105 -3.3861  2.1534 -1.5506
  376MOL0     H51886   0.690   2.464   6.829  0.2666 -0.4972 -0.2260
  376MOL0     H51887   0.732   2.518   6.983  0.7267 -1.6775 -0.0355
  376MOL0     H51888   0.833   2.563   6.842  0.5059 -1.5034 -1.5176
  377MOL0     O51889   7.101  10.607   8.211  0.2107  0.4042 -1.2584
  377MOL0     C51890   7.176  10.697   8.252 -1.8888 -0.8523  0.8268
  377MOL0     O51891   7.129  10.806   8.329 -0.5434  0.1855 -0.3195
  377MOL0     C51892   6.994  10.832   8.334 -0.1950 -0.8061  0.5807
  377MOL0     C51893   6.941  10.856   8.463 -0.6357 -0.9506 -0.3410
  377MOL0     C51894   6.802  10.870   8.478 -0.3345  0.6630  0.4162
  377MOL0     C51895   6.715  10.860   8.364 -0.1148 -0.9219  0.3188
  377MOL0     O51896   6.584  10.885   8.358  0.0052 -1.1452 -0.0560
  377MOL0     C51897   6.503  10.861   8.473  0.3846  0.0325  0.0955
  377MOL0     C51898   6.355  10.925   8.466 -0.3037  0.7046 -0.1346
  377MOL0     C51899   6.255  10.864   8.557  0.1397 -0.9540 -0.5209
  377MOL0     C51900   6.254  10.894   8.705 -0.4551 -0.2117 -0.6277
  377MOL0     C51901   6.128  10.853   8.780  0.1254 -0.0514  0.1289
  377MOL0     C51902   6.003  10.926   8.731  0.0874 -0.0450 -0.2173
  377MOL0     C51903   5.880  10.948   8.840 -0.6405  0.7763 -0.4255
  377MOL0     C51904   5.889  11.073   8.934  0.0289  1.1389  0.2314
  377MOL0     N51905   5.847  11.202   8.872 -0.9170 -0.8782 -0.0940
  377MOL0     C51906   5.854  11.239   8.741  0.1195 -0.6536  0.0949
  377MOL0     C51907   5.857  11.375   8.742  0.2750 -0.8559 -0.8950
  377MOL0     C51908   5.885  11.468   8.633  0.4351  0.5596  0.4534
  377MOL0     C51909   5.761  11.492   8.542 -0.7493 -0.2179  0.0392
  377MOL0     C51910   5.659  11.597   8.578 -0.1901 -0.0496  0.8232
  377MOL0     C51911   5.715  11.725   8.649  0.5309  0.5310  0.4417
  377MOL0     O51912   5.796  11.799   8.551 -0.2533 -0.9899  0.2620
  377MOL0     C51913   5.895  11.879   8.593 -0.0167  0.1005  0.6817
  377MOL0     C51914   5.967  11.953   8.503 -0.5883 -1.0746 -1.1779
  377MOL0     C51915   6.083  12.032   8.546  0.2452  0.0965 -0.5306
  377MOL0     C51916   6.151  12.118   8.439 -0.2398 -0.1725 -0.9985
  377MOL0     C51917   6.121  12.025   8.687 -0.5680 -0.8187  0.4733
  377MOL0     C51918   6.233  12.103   8.749  0.0303 -0.7428  0.3197
  377MOL0     O51919   6.235  12.102   8.886 -0.3928  0.1077 -0.2260
  377MOL0     C51920   6.337  12.161   8.955 -0.4716  0.9056 -0.3272
  377MOL0     C51921   6.333  12.285   9.004  0.7963 -0.1250  0.0521
  377MOL0     C51922   6.438  12.342   9.076  0.0665  0.0479 -0.7806
  377MOL0     C51923   6.551  12.264   9.118 -0.0211 -0.4369  0.4134
  377MOL0     O51924   6.637  12.303   9.210  0.1326 -0.2596  0.1932
  377MOL0     C51925   6.654  12.441   9.239 -0.0143  0.7555  1.1304
  377MOL0     C51926   6.760  12.462   9.345  0.1920 -0.3171 -1.0988
  377MOL0     C51927   6.758  12.610   9.401 -0.4179  0.3581  0.0689
  377MOL0     C51928   6.840  12.616   9.532 -0.0079  0.1538  0.1541
  377MOL0     C51929   6.849  12.754   9.591 -0.3648 -0.2301 -0.1074
  377MOL0     C51930   6.885  12.750   9.748  0.2134 -0.0122 -1.4914
  377MOL0     C51931   6.876  12.894   9.796  0.1740 -0.0464 -0.2132
  377MOL0     C51932   6.929  12.905   9.937 -0.2322 -0.8025  0.8592
  377MOL0    Cl51933   7.117  12.896   9.934  0.3522 -0.4292  0.4038
  377MOL0     C51934   6.552  12.136   9.069  0.7782 -0.9676  0.2252
  377MOL0     C51935   6.451  12.088   8.979 -0.2550 -0.4546  0.3894
  377MOL0     O51936   6.319  12.148   8.674  0.5165 -0.2589 -0.1660
  377MOL0     C51937   6.050  11.945   8.775  0.8737  0.1147 -0.2017
  377MOL0     C51938   5.938  11.883   8.729 -0.1703  1.0222  0.8527
  377MOL0     N51939   5.855  11.420   8.876 -0.7577 -0.3246 -0.0248
  377MOL0     N51940   5.841  11.320   8.950 -0.4540  0.2523  0.1354
  377MOL0     C51941   6.766  10.832   8.243 -0.1577  0.8425  0.1252
  377MOL0     C51942   6.899  10.811   8.224 -0.4005 -0.6483  0.1764
  377MOL0     C51943   7.318  10.680   8.218 -0.6721 -0.1068 -0.1408
  377MOL0     C51944   7.395  10.798   8.246  0.0581  0.3641 -0.7202
  377MOL0     C51945   7.532  10.805   8.231 -0.7762 -1.0105 -0.1430
  377MOL0     C51946   7.601  10.702   8.168  0.2264  0.5530  0.0514
  377MOL0     O51947   7.737  10.719   8.162  0.3269  0.7083  0.5512
  377MOL0     C51948   7.820  10.601   8.171 -0.4728  0.1302 -0.4444
  377MOL0     C51949   7.969  10.630   8.206 -0.1936  0.3612 -0.2114
  377MOL0     C51950   7.990  10.666   8.354 -0.6537  0.5378 -0.2768
  377MOL0     C51951   8.135  10.669   8.390  0.4793  0.6746  0.0189
  377MOL0     C51952   8.154  10.630   8.526  0.2089 -0.7667  0.1693
  377MOL0     C51953   8.175  10.610   8.648 -0.1461 -0.6383 -0.0904
  377MOL0     C51954   7.524  10.589   8.129  0.6870 -0.2812 -0.2127
  377MOL0     C51955   7.384  10.564   8.152  0.0425 -0.3570 -0.2272
  377MOL0     C51956   7.329  10.426   8.133 -1.0731  0.2821 -0.2193
  377MOL0     H51957   7.016  10.867   8.541 -0.1015  0.4993 -1.0179
  377MOL0     H51958   6.765  10.879   8.580  3.9899 -0.2290  2.2818
  377MOL0     H51959   6.546  10.920   8.554 -1.7429 -0.5308  1.7445
  377MOL0     H51960   6.492  10.755   8.495 -0.6897  0.1593  0.2199
  377MOL0     H51961   6.364  11.034   8.473 -2.9847  1.2452 -3.0462
  377MOL0     H51962   6.321  10.900   8.365  0.3615  1.4810 -0.5606
  377MOL0     H51963   6.157  10.899   8.521  0.9339  1.3143 -0.6761
  377MOL0     H51964   6.247  10.757   8.540 -0.5930 -1.3018  1.6917
  377MOL0     H51965   6.333  10.826   8.738  1.5200  2.0344 -0.3989
  377MOL0     H51966   6.266  10.997   8.739  0.2476 -0.7768  0.9098
  377MOL0     H51967   6.129  10.886   8.885 -2.4483  3.0308 -0.6732
  377MOL0     H51968   6.121  10.744   8.780  0.1980 -0.0693  1.1511
  377MOL0     H51969   6.028  11.028   8.700 -0.0341 -0.7354 -2.8313
  377MOL0     H51970   5.972  10.868   8.643  1.6517 -0.3541 -0.5816
  377MOL0     H51971   5.860  10.858   8.898  0.1972  0.3970 -0.7151
  377MOL0     H51972   5.790  10.959   8.778 -0.3025 -1.5632 -1.3979
  377MOL0     H51973   5.824  11.073   9.022 -1.5932  4.8042 -0.7419
  377MOL0     H51974   5.992  11.086   8.969  0.3256 -0.6524  0.1039
  377MOL0     H51975   5.875  11.176   8.655  1.4606 -0.7296  0.4548
  377MOL0     H51976   5.966  11.418   8.579 -1.8905 -1.6264 -1.2616
  377MOL0     H51977   5.924  11.560   8.677 -0.3878  1.8740 -1.4562
  377MOL0     H51978   5.803  11.523   8.446  1.5449 -1.0549  0.7059
  377MOL0     H51979   5.716  11.396   8.515  0.1782 -0.3722 -1.0362
  377MOL0     H51980   5.600  11.624   8.490 -1.7251  2.0554  2.3600
  377MOL0     H51981   5.594  11.552   8.654 -1.9003  0.4973 -0.2514
  377MOL0     H51982   5.633  11.795   8.670 -0.2162 -0.3397  0.5063
  377MOL0     H51983   5.750  11.688   8.745  0.0943 -2.1355 -0.3385
  377MOL0     H51984   5.948  11.958   8.396 -0.6446  2.3307 -1.1009
  377MOL0     H51985   6.115  12.103   8.337  0.5540 -0.9168 -1.1816
  377MOL0     H51986   6.259  12.103   8.439 -0.3100 -0.6877 -0.6882
  377MOL0     H51987   6.130  12.221   8.471  0.2590 -0.3056 -0.2270
  377MOL0     H51988   6.253  12.349   8.969 -0.5882 -2.1015 -0.6256
  377MOL0     H51989   6.422  12.444   9.109  0.2120 -0.4494  0.9037
  377MOL0     H51990   6.692  12.491   9.149 -0.0615  0.2647  0.8341
  377MOL0     H51991   6.566  12.489   9.282  0.6861  4.6257 -1.2850
  377MOL0     H51992   6.745  12.390   9.426  2.0258 -0.6975 -1.0468
  377MOL0     H51993   6.862  12.445   9.309  1.0784 -0.5205  1.3749
  377MOL0     H51994   6.656  12.649   9.401 -1.6200 -2.4983 -1.2544
  377MOL0     H51995   6.818  12.665   9.327 -0.3270 -1.1203 -1.0044
  377MOL0     H51996   6.935  12.573   9.500 -0.7461  1.0149 -3.5786
  377MOL0     H51997   6.779  12.561   9.604 -1.2021 -1.1538 -1.7683
  377MOL0     H51998   6.917  12.823   9.541  1.1217  1.2164  3.5776
  377MOL0     H51999   6.748  12.789   9.567 -0.4004 -1.1767 -1.4351
  377MOL0     H52000   6.987  12.721   9.776  0.1494  1.2630  0.2083
  377MOL0     H52001   6.817  12.691   9.809 -1.6464  4.2044  0.8927
  377MOL0     H52002   6.768  12.912   9.792  0.3261  0.6484 -3.1332
  377MOL0     H52003   6.929  12.962   9.730 -1.1323 -1.2560 -2.6687
  377MOL0     H52004   6.903  12.824  10.006  0.4602 -0.8043  1.1271
  377MOL0     H52005   6.905  13.002   9.981  3.9458  0.9007 -0.0629
  377MOL0     H52006   6.638  12.073   9.085  1.0984 -1.9605 -4.0896
  377MOL0     H52007   6.457  11.992   8.929 -0.5414 -2.3280  3.6680
  377MOL0     H52008   6.077  11.927   8.878  0.0421 -3.4396 -0.4794
  377MOL0     H52009   5.883  11.821   8.799  2.4477 -0.1391  2.0360
  377MOL0     H52010   6.694  10.813   8.164 -0.3909 -0.4538  0.6223
  377MOL0     H52011   6.934  10.779   8.126  2.0144 -0.4784  0.9064
  377MOL0     H52012   7.350  10.886   8.292  1.6087  1.8530 -1.8937
  377MOL0     H52013   7.585  10.891   8.273 -0.1786 -1.4036 -0.0772
  377MOL0     H52014   7.780  10.530   8.244 -1.9669  0.8090 -0.5602
  377MOL0     H52015   7.817  10.555   8.072  0.7039 -1.6399  0.3009
  377MOL0     H52016   8.009  10.714   8.148  0.8368  0.6098  0.8200
  377MOL0     H52017   8.031  10.542   8.185  2.6524  2.3979 -1.0602
  377MOL0     H52018   7.945  10.761   8.384 -0.0013 -0.4052  4.4502
  377MOL0     H52019   7.942  10.586   8.411  1.8241 -0.7764  0.1445
  377MOL0     H52020   8.176  10.768   8.368 -0.6597  0.7374 -2.0702
  377MOL0     H52021   8.188  10.597   8.328  0.8606  1.2128 -0.2822
  377MOL0     H52022   8.191  10.626   8.752 -2.4294  1.1363  0.0873
  377MOL0     H52023   7.578  10.507   8.082  1.3129 -0.1386  0.2488
  377MOL0     H52024   7.222  10.418   8.153 -0.9049  1.3556  1.2489
  377MOL0     H52025   7.356  10.383   8.036  1.0440  0.0041  0.4352
  377MOL0     H52026   7.386  10.364   8.202 -1.5506 -0.1946 -0.2498
  378MOL0     O52027   8.997   9.353   1.336 -0.4351 -0.1387  0.0007
  378MOL0     C52028   8.940   9.300   1.432  1.0019  0.6865 -0.0123
  378MOL0     O52029   8.807   9.326   1.470 -0.6875 -0.0915  0.5145
  378MOL0     C52030   8.746   9.451   1.429  0.4454  0.4630  0.0251
  378MOL0     C52031   8.707   9.480   1.299  0.2051 -0.4629 -0.5464
  378MOL0     C52032   8.640   9.604   1.265 -0.2577  0.0520  0.7715
  378MOL0     C52033   8.619   9.700   1.367  0.4739  0.4333  0.0449
  378MOL0     O52034   8.560   9.819   1.349  0.1381 -0.2459 -0.4028
  378MOL0     C52035   8.486   9.856   1.239 -0.6477  0.0389  0.9400
  378MOL0     C52036   8.498  10.012   1.242  0.0094  0.0235 -0.2472
  378MOL0     C52037   8.400  10.065   1.343  0.0524  0.2315 -0.7974
  378MOL0     C52038   8.397  10.219   1.340 -0.7697  0.4046  0.3813
  378MOL0     C52039   8.330  10.299   1.452 -0.6585 -0.1620  0.5910
  378MOL0     C52040   8.349  10.451   1.432 -0.0629  1.0164  0.1133
  378MOL0     C52041   8.489  10.508   1.426 -0.1600 -0.6759  0.1062
  378MOL0     C52042   8.489  10.666   1.435 -0.1600 -0.5887  0.5171
  378MOL0     N52043   8.623  10.732   1.442 -0.2621 -1.2312  0.4941
  378MOL0     C52044   8.672  10.847   1.375  0.4380 -0.2471  0.8413
  378MOL0     C52045   8.807  10.853   1.396 -0.2838  0.1515 -0.9472
  378MOL0     C52046   8.904  10.963   1.358 -0.6177  0.2672 -0.5214
  378MOL0     C52047   8.880  11.098   1.433 -0.4684 -0.6435  1.0070
  378MOL0     C52048   8.896  11.096   1.584 -0.2588  0.7338  0.3914
  378MOL0     C52049   9.036  11.073   1.647  0.0206  0.4823 -0.3951
  378MOL0     O52050   9.021  11.038   1.785  0.5377 -0.2990 -0.1932
  378MOL0     C52051   9.134  11.015   1.862 -0.0826  0.3380  0.7333
  378MOL0     C52052   9.098  10.976   1.989  0.3431  0.3344  0.4203
  378MOL0     C52053   9.189  10.946   2.081  0.2586  0.0720  0.1043
  378MOL0     C52054   9.138  10.929   2.222 -0.8601  0.5752  0.2606
  378MOL0     C52055   9.329  10.948   2.041 -0.1497 -0.0371  0.1116
  378MOL0     C52056   9.446  10.918   2.131  0.2686 -0.8671 -0.3936
  378MOL0     O52057   9.416  10.881   2.259  0.2477 -0.8267  0.4655
  378MOL0     C52058   9.516  10.833   2.345  0.0766  0.4662  0.3963
  378MOL0     C52059   9.504  10.866   2.481 -0.6779  0.1173 -0.1199
  378MOL0     C52060   9.603  10.835   2.577  0.2580  0.0183 -0.2471
  378MOL0     C52061   9.713  10.755   2.546  0.1231  0.2900  0.2454
  378MOL0     O52062   9.804  10.746   2.654  0.4240 -0.4059  0.0743
  378MOL0     C52063   9.899  10.637   2.654  0.4332  0.1571 -0.1006
  378MOL0     C52064   9.965  10.623   2.782  0.7225  0.2911  0.2599
  378MOL0     C52065  10.023  10.757   2.824 -0.2230 -0.0653  0.3344
  378MOL0     C52066  10.102  10.760   2.958  0.1443  0.2782 -0.0993
  378MOL0     C52067  10.035  10.684   3.068  0.9913 -1.0555  0.2871
  378MOL0     C52068   9.915  10.759   3.115 -0.2323  0.0641 -0.4378
  378MOL0     C52069   9.864  10.692   3.250 -0.0139 -0.9878  0.2134
  378MOL0     C52070   9.782  10.783   3.337 -0.2558  0.7307  1.0924
  378MOL0    Cl52071   9.644  10.849   3.240  0.3689  0.1864  0.4868
  378MOL0     C52072   9.733  10.733   2.414  0.9312  0.3168  0.3858
  378MOL0     C52073   9.635  10.771   2.308 -0.3009  0.3825  0.1229
  378MOL0     O52074   9.554  10.921   2.078 -0.2708 -0.1306  0.9484
  378MOL0     C52075   9.362  10.992   1.909 -0.6219 -0.1121  0.3658
  378MOL0     C52076   9.263  11.024   1.823  0.9893 -0.7156 -0.3255
  378MOL0     N52077   8.832  10.747   1.483 -0.2118 -0.5883  0.1291
  378MOL0     N52078   8.727  10.681   1.505  0.8800 -0.4673  0.7975
  378MOL0     C52079   8.663   9.674   1.490  0.0271  0.4445 -0.7247
  378MOL0     C52080   8.732   9.552   1.527  0.2913 -0.4883 -0.6551
  378MOL0     C52081   9.006   9.186   1.503 -0.1099  0.0886  0.5833
  378MOL0     C52082   8.962   9.145   1.628  0.3863  0.4294  0.9257
  378MOL0     C52083   9.038   9.057   1.705  0.1484  0.2521  1.0258
  378MOL0     C52084   9.148   8.991   1.658  0.6583  0.1936 -0.8950
  378MOL0     O52085   9.194   8.893   1.736  0.2302 -0.0271  0.2320
  378MOL0     C52086   9.317   8.838   1.709 -0.0401 -0.0628  0.2833
  378MOL0     C52087   9.399   8.778   1.818  0.4223 -0.6418  0.6939
  378MOL0     C52088   9.323   8.671   1.891 -0.2988 -0.2661 -0.3660
  378MOL0     C52089   9.396   8.635   2.011  0.5691  0.8988 -0.9535
  378MOL0     C52090   9.550   8.607   1.999  0.1972 -1.4878 -0.5173
  378MOL0     C52091   9.674   8.598   1.995  0.0426 -0.6129  0.0970
  378MOL0     C52092   9.190   9.021   1.531 -0.6280  0.5607  0.4266
  378MOL0     C52093   9.123   9.119   1.459 -0.3378  0.5750 -0.1769
  378MOL0     C52094   9.169   9.141   1.322 -0.9868  0.0407 -0.3578
  378MOL0     H52095   8.719   9.394   1.233 -0.5713  0.2866 -1.7067
  378MOL0     H52096   8.593   9.604   1.167 -0.4359  0.8858  0.8458
  378MOL0     H52097   8.387   9.811   1.240  0.4636 -2.5546  1.7434
  378MOL0     H52098   8.536   9.823   1.148 -1.1968  0.5778  0.4295
  378MOL0     H52099   8.598  10.053   1.261 -0.2087  1.9160 -2.6800
  378MOL0     H52100   8.460  10.042   1.144  0.0032 -2.3627 -1.0605
  378MOL0     H52101   8.300  10.031   1.316 -0.7388  2.1119 -0.3847
  378MOL0     H52102   8.406  10.028   1.446 -0.8400  1.8266 -0.1547
  378MOL0     H52103   8.503  10.245   1.340 -0.7319  0.2487  0.6209
  378MOL0     H52104   8.361  10.249   1.241  1.3554 -2.1757 -1.3315
  378MOL0     H52105   8.375  10.271   1.548  4.7654 -2.4145 -2.1650
  378MOL0     H52106   8.221  10.299   1.455 -0.6863  0.4420  3.6361
  378MOL0     H52107   8.296  10.499   1.350 -0.3443 -0.0438 -0.3344
  378MOL0     H52108   8.311  10.489   1.527  2.2266  0.0252  1.5318
  378MOL0     H52109   8.533  10.475   1.332  1.2787  0.7229  0.2555
  378MOL0     H52110   8.537  10.462   1.513 -0.5328 -3.1532 -0.9146
  378MOL0     H52111   8.447  10.714   1.346  3.8657  1.9136 -0.3092
  378MOL0     H52112   8.416  10.697   1.510 -1.2614  1.5807 -1.3272
  378MOL0     H52113   8.626  10.934   1.330  5.2634  2.6394  0.7642
  378MOL0     H52114   8.898  10.973   1.249 -2.5347  1.4607 -0.3664
  378MOL0     H52115   9.007  10.939   1.383 -1.4826 -1.1971  2.0693
  378MOL0     H52116   8.951  11.171   1.392 -2.2798  0.7870  0.2892
  378MOL0     H52117   8.783  11.131   1.395 -0.7489  0.4818  2.5755
  378MOL0     H52118   8.859  11.195   1.610 -1.9500  0.1239  0.4227
  378MOL0     H52119   8.826  11.020   1.621 -0.6142  0.4618 -0.7776
  378MOL0     H52120   9.082  10.997   1.584  0.1340 -0.6038  0.9520
  378MOL0     H52121   9.095  11.165   1.654  0.6783 -0.0511  1.7720
  378MOL0     H52122   8.992  10.994   2.004  0.5008  0.4204  1.4654
  378MOL0     H52123   9.147  10.824   2.251  0.3632  0.0318 -1.8577
  378MOL0     H52124   9.042  10.976   2.241  0.0858  2.6789  0.1046
  378MOL0     H52125   9.211  10.982   2.283 -3.2256  3.5021  0.7559
  378MOL0     H52126   9.429  10.931   2.523  0.9289  1.5775  0.6394
  378MOL0     H52127   9.576  10.876   2.674  2.3050  0.9732 -0.0127
  378MOL0     H52128   9.838  10.546   2.652 -0.6295  0.7344  2.2668
  378MOL0     H52129   9.969  10.637   2.571 -0.3659 -0.4037 -0.7931
  378MOL0     H52130   9.887  10.590   2.851 -0.9769  2.6076 -0.4308
  378MOL0     H52131  10.041  10.549   2.754 -1.4282 -2.1154  0.4873
  378MOL0     H52132   9.943  10.830   2.841 -1.9835 -2.1117  1.4032
  378MOL0     H52133  10.090  10.790   2.744  1.2456 -0.5064  1.3417
  378MOL0     H52134  10.106  10.862   2.997  0.2457 -0.9833  3.5399
  378MOL0     H52135  10.201  10.716   2.942  0.6074  0.9143  0.9323
  378MOL0     H52136   9.995  10.590   3.029 -2.0292  0.6471 -1.0507
  378MOL0     H52137  10.105  10.664   3.151  1.3118 -0.8433  0.0685
  378MOL0     H52138   9.831  10.760   3.045  0.3058  1.1968 -1.0938
  378MOL0     H52139   9.952  10.860   3.133  3.4901 -1.0043 -1.1850
  378MOL0     H52140   9.946  10.652   3.312  0.2019  1.1321  1.4048
  378MOL0     H52141   9.794  10.612   3.222 -0.6635 -0.8568  1.3853
  378MOL0     H52142   9.832  10.873   3.374  0.2580 -0.3769  3.3018
  378MOL0     H52143   9.755  10.720   3.423  1.7868  1.4799  2.3622
  378MOL0     H52144   9.826  10.677   2.401  0.2573 -1.8472  3.5743
  378MOL0     H52145   9.662  10.752   2.204 -1.7342 -3.5720  0.2946
  378MOL0     H52146   9.468  11.004   1.891  0.1355 -3.0036  2.2084
  378MOL0     H52147   9.292  11.055   1.723  0.0891 -0.2011 -0.4391
  378MOL0     H52148   8.658   9.757   1.560 -2.1060  0.9500 -1.3977
  378MOL0     H52149   8.775   9.530   1.624 -0.0095 -3.0431 -1.0101
  378MOL0     H52150   8.885   9.204   1.676 -1.1051  1.3774 -2.3302
  378MOL0     H52151   9.019   9.038   1.811 -0.5233 -0.3519  0.8013
  378MOL0     H52152   9.305   8.771   1.624 -1.3387  3.9779 -3.0295
  378MOL0     H52153   9.374   8.927   1.680  0.7255 -0.1912  1.3130
  378MOL0     H52154   9.417   8.861   1.887 -1.9800 -0.0245  0.6775
  378MOL0     H52155   9.492   8.736   1.780  0.9184 -0.3476  1.5520
  378MOL0     H52156   9.221   8.703   1.914  0.1106  1.4473 -0.8208
  378MOL0     H52157   9.327   8.581   1.829 -2.3398  0.0128 -0.9886
  378MOL0     H52158   9.352   8.546   2.058  0.9379  0.0864 -2.0854
  378MOL0     H52159   9.388   8.716   2.084 -2.0312  0.6998 -0.9425
  378MOL0     H52160   9.779   8.581   2.001 -0.2425 -2.2014  1.0921
  378MOL0     H52161   9.279   8.978   1.486 -0.1810  1.2373  0.6496
  378MOL0     H52162   9.248   9.072   1.291  0.7935  1.1275  1.4936
  378MOL0     H52163   9.086   9.114   1.256 -1.9727  2.5967 -0.2644
  378MOL0     H52164   9.205   9.243   1.305 -2.9638  0.6246 -1.4208
  379MOL0     O52165   8.705   0.442   1.126  0.2157  0.2431  0.5939
  379MOL0     C52166   8.758   0.488   1.234 -0.5911 -0.6532 -0.1183
  379MOL0     O52167   8.859   0.590   1.230 -0.2048  0.5224  0.9106
  379MOL0     C52168   8.906   0.646   1.113  0.0588 -0.3582  0.0297
  379MOL0     C52169   9.039   0.636   1.092 -0.4415 -0.6335 -0.4951
  379MOL0     C52170   9.095   0.684   0.978 -0.3550  0.6214 -0.0606
  379MOL0     C52171   9.008   0.725   0.869 -0.7033  0.0782 -0.5927
  379MOL0     O52172   9.051   0.770   0.749  0.7132 -0.1357  0.1851
  379MOL0     C52173   9.192   0.796   0.732 -0.2876  0.4257 -0.1032
  379MOL0     C52174   9.213   0.855   0.597 -0.1504 -0.8038  0.5210
  379MOL0     C52175   9.353   0.893   0.563 -1.5032 -0.3962 -0.6437
  379MOL0     C52176   9.355   0.973   0.426  0.8273 -0.2769  0.5588
  379MOL0     C52177   9.494   1.037   0.392 -0.3751 -0.2053 -0.4350
  379MOL0     C52178   9.501   1.104   0.254  0.6087  0.4048 -0.4342
  379MOL0     C52179   9.636   1.101   0.175  0.9735  0.0191  0.1619
  379MOL0     C52180   9.622   1.206   0.064 -0.3060  0.8058 -0.7555
  379MOL0     N52181   9.730   1.197  -0.024 -0.2116 -0.4014 -0.2996
  379MOL0     C52182   9.726   1.121  -0.133 -0.1874  0.6267 -0.2398
  379MOL0     C52183   9.844   1.147  -0.199  0.2868 -0.2710  0.0398
  379MOL0     C52184   9.898   1.076  -0.320  0.8679 -0.5337 -1.1235
  379MOL0     C52185   9.991   0.961  -0.279  0.2931 -0.0877 -0.3884
  379MOL0     C52186   9.941   0.878  -0.149 -0.7204 -0.7358 -0.0395
  379MOL0     C52187  10.011   0.740  -0.144 -0.1249  0.7061 -0.0847
  379MOL0     O52188   9.958   0.664  -0.260  0.4137 -0.2306 -0.0644
  379MOL0     C52189  10.025   0.549  -0.284  0.7935  1.0035  0.8837
  379MOL0     C52190  10.150   0.505  -0.226 -1.3281 -0.4245  0.7509
  379MOL0     C52191  10.196   0.376  -0.256 -0.5595  0.0488  0.6116
  379MOL0     C52192  10.330   0.344  -0.192 -0.0820 -0.2083  0.3867
  379MOL0     C52193  10.119   0.277  -0.331  0.1114  0.6073 -0.4627
  379MOL0     C52194  10.152   0.142  -0.352 -1.0384 -0.6003  0.9211
  379MOL0     O52195  10.140   0.090  -0.479  0.7702 -0.5050 -0.3276
  379MOL0     C52196  10.109  -0.039  -0.510  0.4440 -0.8676  0.5979
  379MOL0     C52197  10.054  -0.135  -0.427  1.2689  0.4530  0.0726
  379MOL0     C52198  10.040  -0.274  -0.470  0.5730 -1.1546 -0.5773
  379MOL0     C52199  10.092  -0.301  -0.599  0.3408 -0.1026 -0.6705
  379MOL0     O52200  10.076  -0.421  -0.661  0.4946  0.7844 -0.2607
  379MOL0     C52201  10.035  -0.527  -0.574 -0.0706 -0.1982  0.0457
  379MOL0     C52202  10.037  -0.650  -0.678  0.3746  0.7328  0.0553
  379MOL0     C52203  10.094  -0.784  -0.621  0.2773  0.9051  0.6969
  379MOL0     C52204  10.012  -0.831  -0.502  0.6704  0.3917  0.5135
  379MOL0     C52205  10.074  -0.958  -0.432  0.9390 -0.7961  0.4937
  379MOL0     C52206   9.991  -1.007  -0.313 -0.3092 -0.1357  0.3815
  379MOL0     C52207  10.074  -1.106  -0.222  1.6788  0.6011  0.1421
  379MOL0     C52208  10.119  -1.218  -0.315  0.0263 -0.3645 -0.3060
  379MOL0    Cl52209  10.221  -1.330  -0.221  0.3777 -0.1086  0.0663
  379MOL0     C52210  10.155  -0.204  -0.675  0.0470  0.2146 -0.2084
  379MOL0     C52211  10.159  -0.070  -0.641  0.8612  0.5869 -1.2583
  379MOL0     O52212  10.206   0.079  -0.264  0.2521  0.8939 -0.3059
  379MOL0     C52213   9.996   0.323  -0.382 -0.5538 -0.9039  0.2860
  379MOL0     C52214   9.952   0.453  -0.365 -0.3975  0.2467  0.6002
  379MOL0     N52215   9.915   1.233  -0.114  0.2399 -1.1464  0.3420
  379MOL0     N52216   9.847   1.266  -0.018  0.4150 -0.1035 -0.1368
  379MOL0     C52217   8.877   0.744   0.899  0.3687 -0.0427  0.1601
  379MOL0     C52218   8.826   0.704   1.022  0.3439  0.2063 -0.5248
  379MOL0     C52219   8.702   0.448   1.366  0.0383  0.8184  0.1633
  379MOL0     C52220   8.787   0.466   1.478 -0.1645  0.1676 -0.7513
  379MOL0     C52221   8.743   0.429   1.604 -0.0529 -0.2245  0.4351
  379MOL0     C52222   8.623   0.378   1.625  0.1351  0.3788  0.2517
  379MOL0     O52223   8.595   0.351   1.754 -0.2500  0.0497 -1.2589
  379MOL0     C52224   8.487   0.425   1.818  0.9267 -0.9855 -0.0621
  379MOL0     C52225   8.444   0.374   1.956  0.0987  0.4199  0.9013
  379MOL0     C52226   8.561   0.372   2.056 -0.2898 -0.6462  0.1354
  379MOL0     C52227   8.545   0.272   2.168  0.3853  0.0144  0.4310
  379MOL0     C52228   8.678   0.245   2.229 -0.3439  0.4779  0.2708
  379MOL0     C52229   8.784   0.214   2.277 -0.1403  0.3744  0.4606
  379MOL0     C52230   8.541   0.336   1.511  0.2110 -0.8061 -0.7450
  379MOL0     C52231   8.574   0.382   1.382  0.5796 -0.5444  0.6291
  379MOL0     C52232   8.472   0.377   1.267  0.1300  0.2890 -0.0775
  379MOL0     H52233   9.109   0.601   1.167 -1.9690 -0.1879  1.2282
  379MOL0     H52234   9.203   0.689   0.969 -0.0465 -1.7225  1.4893
  379MOL0     H52235   9.254   0.706   0.725  1.0733  1.3167  0.0516
  379MOL0     H52236   9.237   0.865   0.804 -0.4825  1.0435 -0.5723
  379MOL0     H52237   9.177   0.794   0.514  1.8593 -0.7684 -0.4325
  379MOL0     H52238   9.155   0.947   0.599  0.1995 -0.2934 -3.5951
  379MOL0     H52239   9.386   0.960   0.643  3.2756 -0.6341 -2.0919
  379MOL0     H52240   9.420   0.806   0.568  1.9478  2.1359  1.1039
  379MOL0     H52241   9.321   0.900   0.352  2.6819 -1.0907  0.4529
  379MOL0     H52242   9.284   1.056   0.424  2.0484  0.8200  0.6610
  379MOL0     H52243   9.575   0.970   0.422  2.1619  2.6922 -0.2467
  379MOL0     H52244   9.512   1.125   0.455  1.6424  0.4004 -1.7333
  379MOL0     H52245   9.427   1.049   0.195 -3.5688  3.6921  1.2108
  379MOL0     H52246   9.463   1.207   0.256 -0.0701  0.1597 -0.3705
  379MOL0     H52247   9.653   1.006   0.124 -4.7457 -0.4091 -1.7679
  379MOL0     H52248   9.723   1.112   0.240 -0.2976  4.3395  1.5201
  379MOL0     H52249   9.524   1.193   0.018 -1.6345 -1.8530  2.4426
  379MOL0     H52250   9.626   1.304   0.112  0.4000  0.6534 -0.4908
  379MOL0     H52251   9.657   1.043  -0.167 -0.9816  2.0783 -2.1226
  379MOL0     H52252   9.952   1.148  -0.381 -2.4532  0.3315 -3.3501
  379MOL0     H52253   9.823   1.039  -0.391  1.1304 -2.5430 -0.4295
  379MOL0     H52254  10.013   0.889  -0.358  0.1164 -0.8483  0.2403
  379MOL0     H52255  10.089   1.008  -0.266  0.8860 -0.6527 -2.3911
  379MOL0     H52256   9.963   0.943  -0.064  1.1318  1.7663 -2.2732
  379MOL0     H52257   9.832   0.868  -0.159 -1.1100  3.1940 -1.6529
  379MOL0     H52258  10.119   0.752  -0.134  0.1846 -2.8797  2.8551
  379MOL0     H52259   9.993   0.700  -0.043  0.9768 -0.9587 -0.5126
  379MOL0     H52260  10.211   0.574  -0.169 -2.2123 -0.3127  1.5947
  379MOL0     H52261  10.387   0.437  -0.180  1.8997 -0.6490 -3.7443
  379MOL0     H52262  10.386   0.281  -0.262 -0.8451 -0.3683 -0.0907
  379MOL0     H52263  10.304   0.299  -0.096 -4.0210 -0.4606 -0.6643
  379MOL0     H52264  10.013  -0.112  -0.329  2.6251 -1.2722  1.1155
  379MOL0     H52265   9.993  -0.358  -0.421  1.0926 -1.3936 -0.4810
  379MOL0     H52266  10.101  -0.555  -0.491  3.9719 -0.7661 -3.0169
  379MOL0     H52267   9.930  -0.508  -0.550 -0.4824  0.3424 -1.9618
  379MOL0     H52268   9.936  -0.674  -0.714  0.0072 -0.1726  1.6007
  379MOL0     H52269  10.094  -0.626  -0.768  3.1982 -0.3824  1.4203
  379MOL0     H52270  10.201  -0.787  -0.599  0.0539 -0.5474  1.7749
  379MOL0     H52271  10.088  -0.861  -0.698  3.4683  1.8607 -0.6884
  379MOL0     H52272   9.909  -0.849  -0.533  1.4241 -0.6263 -1.5851
  379MOL0     H52273  10.016  -0.745  -0.435 -1.1028 -0.5124  1.8682
  379MOL0     H52274  10.096  -1.030  -0.510 -0.1622 -1.1854  0.5232
  379MOL0     H52275  10.176  -0.939  -0.398  2.5624 -3.1388 -2.6011
  379MOL0     H52276   9.894  -1.041  -0.352  0.1908 -0.9460 -0.1723
  379MOL0     H52277   9.971  -0.920  -0.249  0.8177 -0.1198  0.7336
  379MOL0     H52278  10.010  -1.151  -0.145  2.2181  0.0605  0.2848
  379MOL0     H52279  10.157  -1.054  -0.174  2.7422 -1.0185  0.1700
  379MOL0     H52280  10.168  -1.193  -0.409 -3.1888  0.9750 -1.7446
  379MOL0     H52281  10.030  -1.275  -0.344 -0.5522  0.7349 -0.7221
  379MOL0     H52282  10.202  -0.248  -0.763  1.0422 -1.6777  1.1907
  379MOL0     H52283  10.204   0.001  -0.709 -1.9533  0.5675 -3.2846
  379MOL0     H52284   9.939   0.269  -0.457 -1.4567  2.2882 -1.5079
  379MOL0     H52285   9.853   0.476  -0.403 -0.1711  3.2737  1.5455
  379MOL0     H52286   8.802   0.788   0.835  0.0102 -0.7734  0.0626
  379MOL0     H52287   8.728   0.734   1.058 -0.2550 -1.3903 -0.7674
  379MOL0     H52288   8.887   0.509   1.471 -1.4495  3.3987 -0.6724
  379MOL0     H52289   8.811   0.443   1.688 -1.0534 -1.9640  1.5894
  379MOL0     H52290   8.503   0.533   1.817  2.7031 -1.2070 -1.9094
  379MOL0     H52291   8.403   0.405   1.749  2.7502 -1.0637 -2.3833
  379MOL0     H52292   8.412   0.272   1.934 -0.6806  0.9842 -0.7411
  379MOL0     H52293   8.360   0.420   2.009 -1.2737 -1.4483  0.4246
  379MOL0     H52294   8.636   0.328   1.989  0.0629  0.1073  0.0168
  379MOL0     H52295   8.596   0.470   2.093 -0.0437 -0.4072 -0.7097
  379MOL0     H52296   8.508   0.175   2.134  2.3099 -1.0549  1.2950
  379MOL0     H52297   8.477   0.310   2.245 -0.7676 -1.3826  0.1319
  379MOL0     H52298   8.876   0.187   2.325  0.6749  0.6469 -0.8810
  379MOL0     H52299   8.456   0.273   1.535 -0.8991  1.7769  3.0106
  379MOL0     H52300   8.435   0.474   1.233  1.8109  0.3927 -1.7790
  379MOL0     H52301   8.514   0.318   1.185  0.0614  2.8548 -2.0832
  379MOL0     H52302   8.377   0.343   1.309 -0.9049 -1.3063 -3.3377
  380MOL0     O52303   7.561   6.328   3.390  0.3558  0.6880  0.7993
  380MOL0     C52304   7.467   6.247   3.384  0.0153 -1.4209  0.3169
  380MOL0     O52305   7.414   6.185   3.490  0.2110 -0.6193 -0.6771
  380MOL0     C52306   7.461   6.238   3.612 -0.6123 -0.8977  1.1408
  380MOL0     C52307   7.524   6.150   3.708  0.8045  0.3340  0.2159
  380MOL0     C52308   7.571   6.198   3.835  0.7082  1.2080  0.4598
  380MOL0     C52309   7.553   6.329   3.872  0.0872 -0.5229 -0.3841
  380MOL0     O52310   7.615   6.373   3.988  0.3199 -0.2413 -0.8481
  380MOL0     C52311   7.597   6.507   4.028  0.5928 -0.0939  0.4557
  380MOL0     C52312   7.656   6.537   4.172  0.1665 -0.3654 -0.3676
  380MOL0     C52313   7.602   6.451   4.289 -1.0887 -0.3269  0.8585
  380MOL0     C52314   7.673   6.471   4.420 -0.1797 -0.3670  0.1809
  380MOL0     C52315   7.647   6.356   4.519 -0.0675  0.1695 -0.0311
  380MOL0     C52316   7.740   6.338   4.636  0.1871 -0.1724  0.8192
  380MOL0     C52317   7.869   6.264   4.595 -0.2972 -0.2092  0.0254
  380MOL0     C52318   7.845   6.118   4.545 -1.0376  0.5396  0.3560
  380MOL0     N52319   7.983   6.067   4.495 -0.1518  0.4656  0.4711
  380MOL0     C52320   8.063   6.118   4.399  0.0301  0.4717  0.3171
  380MOL0     C52321   8.159   6.023   4.380 -1.1188 -0.9740 -0.8428
  380MOL0     C52322   8.278   6.042   4.282 -0.2059  0.1753 -0.4665
  380MOL0     C52323   8.398   5.942   4.310  0.5866 -0.0748 -0.3964
  380MOL0     C52324   8.443   5.873   4.178  0.4241 -0.1937  0.1645
  380MOL0     C52325   8.534   5.970   4.093 -0.8592  0.8201  0.2287
  380MOL0     O52326   8.604   5.923   3.978 -0.0805  0.0507 -0.0504
  380MOL0     C52327   8.535   5.886   3.867 -0.0998 -0.3626  0.8019
  380MOL0     C52328   8.593   5.804   3.772 -0.3093 -0.6494  0.6375
  380MOL0     C52329   8.529   5.775   3.650  0.1850  0.8034  0.4886
  380MOL0     C52330   8.591   5.662   3.567  0.5093 -0.8646 -0.4619
  380MOL0     C52331   8.401   5.831   3.622 -0.5607 -0.1870  0.4514
  380MOL0     C52332   8.336   5.811   3.490  0.1484 -0.0726 -0.8772
  380MOL0     O52333   8.421   5.824   3.384  0.4399 -0.2084 -0.2545
  380MOL0     C52334   8.372   5.823   3.255 -0.5025 -0.1550  0.3425
  380MOL0     C52335   8.346   5.946   3.192  0.0605 -0.5283  0.5736
  380MOL0     C52336   8.298   5.959   3.062 -0.2858  0.2528 -0.1121
  380MOL0     C52337   8.270   5.845   2.983 -0.1963  0.7183  0.5231
  380MOL0     O52338   8.236   5.845   2.849  0.0589 -0.4208 -0.2871
  380MOL0     C52339   8.269   5.961   2.775  0.1849 -0.7933  0.4106
  380MOL0     C52340   8.249   5.942   2.627 -0.4922 -0.7231  1.1027
  380MOL0     C52341   8.327   5.819   2.570 -0.1696 -0.5511  0.4613
  380MOL0     C52342   8.279   5.800   2.422  0.6041 -0.4419 -0.5746
  380MOL0     C52343   8.341   5.680   2.361 -0.4613  0.4442 -0.1207
  380MOL0     C52344   8.347   5.657   2.205 -0.3056 -0.3600  0.2054
  380MOL0     C52345   8.386   5.511   2.177 -0.4352 -0.7702  0.1998
  380MOL0     C52346   8.377   5.467   2.036  0.3856 -0.2362 -0.8772
  380MOL0    Cl52347   8.212   5.472   1.963 -0.0286 -0.1975 -0.3255
  380MOL0     C52348   8.283   5.722   3.051  0.7458 -1.1174  0.0705
  380MOL0     C52349   8.328   5.715   3.183 -0.4067 -0.3102  0.7392
  380MOL0     O52350   8.213   5.777   3.488  0.4380  0.1592  0.1208
  380MOL0     C52351   8.346   5.918   3.707  0.0045  0.7461 -0.3206
  380MOL0     C52352   8.411   5.952   3.831  0.9012  0.3392  0.7052
  380MOL0     N52353   8.161   5.942   4.489  0.0928  0.0996 -0.2365
  380MOL0     N52354   8.041   5.961   4.546 -0.4169 -0.4875  0.0141
  380MOL0     C52355   7.493   6.413   3.775  0.7342  0.7219 -0.0415
  380MOL0     C52356   7.439   6.367   3.655 -0.3582 -0.7266  0.2289
  380MOL0     C52357   7.389   6.229   3.257  0.7783  0.4457  0.5790
  380MOL0     C52358   7.255   6.188   3.262 -0.5380 -0.1715  0.9630
  380MOL0     C52359   7.181   6.167   3.146  0.2004  0.4996 -0.1246
  380MOL0     C52360   7.239   6.183   3.019 -1.4081  0.3023  0.6724
  380MOL0     O52361   7.155   6.179   2.905  0.1897  0.4377 -0.8950
  380MOL0     C52362   7.059   6.071   2.894 -0.9519  0.2754  0.1910
  380MOL0     C52363   7.109   5.928   2.870 -0.4324 -0.0169  0.1288
  380MOL0     C52364   6.996   5.816   2.858  0.2077  1.2071 -0.1554
  380MOL0     C52365   6.904   5.808   2.984 -0.2135 -0.1574  0.1747
  380MOL0     C52366   6.968   5.797   3.115 -0.2988 -0.7222 -0.2248
  380MOL0     C52367   7.024   5.804   3.227  0.4306 -0.1965 -0.4433
  380MOL0     C52368   7.371   6.231   3.007 -0.2470  0.0117  0.3075
  380MOL0     C52369   7.456   6.246   3.128  0.9413  0.0451 -0.2735
  380MOL0     C52370   7.603   6.278   3.109  0.8066 -0.7036 -0.2702
  380MOL0     H52371   7.532   6.043   3.692 -1.5255 -0.4893  3.4398
  380MOL0     H52372   7.622   6.127   3.899 -2.5071 -2.5873 -0.7764
  380MOL0     H52373   7.489   6.523   4.032  0.4400 -0.1379 -1.9219
  380MOL0     H52374   7.648   6.579   3.964 -0.3996  1.7050  1.5825
  380MOL0     H52375   7.764   6.527   4.162  0.3346 -1.5156  1.9659
  380MOL0     H52376   7.626   6.641   4.188  1.4861  0.2663 -1.7507
  380MOL0     H52377   7.494   6.467   4.302 -1.2844  0.1223 -1.0164
  380MOL0     H52378   7.626   6.346   4.270 -0.8631 -0.7127  3.0237
  380MOL0     H52379   7.781   6.485   4.407 -0.2207  1.4303  1.3918
  380MOL0     H52380   7.659   6.571   4.460  1.1959  0.6597 -1.7092
  380MOL0     H52381   7.647   6.266   4.458  1.6608  1.2538 -1.7492
  380MOL0     H52382   7.543   6.370   4.549 -0.7355 -2.7895 -0.6680
  380MOL0     H52383   7.758   6.442   4.666  0.1672  1.2513 -3.5011
  380MOL0     H52384   7.683   6.280   4.710 -4.0017  1.5362 -0.7470
  380MOL0     H52385   7.927   6.246   4.686 -1.0361 -0.3664  0.4741
  380MOL0     H52386   7.930   6.328   4.531  0.5669  1.2288  2.1664
  380MOL0     H52387   7.805   6.047   4.618  1.0993  1.4082  2.5391
  380MOL0     H52388   7.783   6.120   4.456  2.2412  1.2889 -2.1023
  380MOL0     H52389   8.053   6.215   4.351  0.4539 -0.3621 -1.5683
  380MOL0     H52390   8.312   6.146   4.284 -3.4032  1.3709 -1.8637
  380MOL0     H52391   8.259   6.030   4.175  0.6276 -0.6094 -0.5404
  380MOL0     H52392   8.474   5.991   4.371 -0.6426  1.5690 -0.1115
  380MOL0     H52393   8.362   5.858   4.371 -0.3738  0.1169 -0.6865
  380MOL0     H52394   8.483   5.772   4.193  1.7574  0.3076  0.1035
  380MOL0     H52395   8.359   5.856   4.110  1.3386  0.8034 -1.2675
  380MOL0     H52396   8.478   6.059   4.062 -5.5343 -1.4955  1.1157
  380MOL0     H52397   8.614   6.005   4.159  2.0658 -0.8950 -2.1730
  380MOL0     H52398   8.696   5.777   3.788  0.5818  3.3307  3.1392
  380MOL0     H52399   8.615   5.707   3.470  0.7495  0.2075  0.0758
  380MOL0     H52400   8.518   5.581   3.565  0.1843 -0.6026  0.3784
  380MOL0     H52401   8.682   5.624   3.613  0.2403 -1.9358 -0.8035
  380MOL0     H52402   8.358   6.034   3.254 -2.6088 -0.1860  0.6798
  380MOL0     H52403   8.268   6.057   3.027 -3.5804  0.2014  2.0735
  380MOL0     H52404   8.195   6.036   2.805 -1.7829 -0.7250 -3.8445
  380MOL0     H52405   8.374   5.989   2.786  0.3979 -1.1125 -0.6831
  380MOL0     H52406   8.146   5.928   2.593 -0.2177  1.4868 -0.8879
  380MOL0     H52407   8.272   6.036   2.576 -2.1868 -1.6684 -1.6140
  380MOL0     H52408   8.315   5.732   2.634 -2.9681 -1.4767 -1.1483
  380MOL0     H52409   8.429   5.857   2.561 -0.0026 -1.4171 -2.6952
  380MOL0     H52410   8.313   5.881   2.358  0.0200  0.3465  0.0978
  380MOL0     H52411   8.171   5.799   2.407  0.3097 -1.9552  1.2022
  380MOL0     H52412   8.439   5.670   2.408 -2.0936  3.1633  4.4923
  380MOL0     H52413   8.277   5.595   2.386  2.3798 -2.8691 -3.0980
  380MOL0     H52414   8.418   5.735   2.175 -1.8584  0.8244 -0.5468
  380MOL0     H52415   8.245   5.677   2.173 -1.0947 -1.7424  1.6904
  380MOL0     H52416   8.322   5.445   2.236 -1.2570 -0.9512 -0.8556
  380MOL0     H52417   8.492   5.510   2.202  0.2632 -3.7909 -2.2418
  380MOL0     H52418   8.418   5.366   2.028  1.3753  0.2056 -1.6471
  380MOL0     H52419   8.437   5.544   1.986  0.0894  0.3305 -0.3644
  380MOL0     H52420   8.261   5.633   2.992 -0.9238 -0.4628 -0.3737
  380MOL0     H52421   8.349   5.617   3.225 -0.1116 -0.5634  0.0146
  380MOL0     H52422   8.244   5.950   3.686  0.4667  0.8262 -2.7281
  380MOL0     H52423   8.360   6.019   3.900 -4.3176 -2.1884 -0.2251
  380MOL0     H52424   7.506   6.514   3.812  2.7889  0.0176  1.2889
  380MOL0     H52425   7.389   6.438   3.590 -0.6536  0.0655  1.2889
  380MOL0     H52426   7.212   6.186   3.361 -0.6852 -1.2690  0.8929
  380MOL0     H52427   7.076   6.146   3.166  0.0447  3.1310  2.5116
  380MOL0     H52428   7.005   6.072   2.989  0.5448 -1.9428  1.1209
  380MOL0     H52429   6.991   6.086   2.809  0.7024  1.5813 -0.9687
  380MOL0     H52430   7.182   5.907   2.949  0.1109  0.2144 -0.2996
  380MOL0     H52431   7.162   5.921   2.774 -1.6232 -2.5131 -0.4227
  380MOL0     H52432   6.926   5.835   2.776 -0.7079  0.5321  0.4455
  380MOL0     H52433   7.039   5.717   2.838 -1.1764  0.4400  0.5791
  380MOL0     H52434   6.846   5.715   2.984 -0.8597  0.1934 -1.9680
  380MOL0     H52435   6.839   5.896   2.989  2.0000  1.4588  3.4037
  380MOL0     H52436   7.057   5.809   3.328 -0.9060 -2.0002  0.1248
  380MOL0     H52437   7.418   6.250   2.911  3.7220 -1.8862  1.6650
  380MOL0     H52438   7.669   6.231   3.183 -0.6504 -1.0470  0.8565
  380MOL0     H52439   7.634   6.241   3.011 -1.8857 -1.3469 -0.9522
  380MOL0     H52440   7.618   6.386   3.119  2.9741 -0.8052 -1.6353
  381MOL0     O52441   6.115   3.045   2.324  0.3165 -0.8326 -0.4904
  381MOL0     C52442   6.090   3.166   2.339  0.2974 -0.2106  0.7662
  381MOL0     O52443   6.033   3.243   2.243 -0.7403 -0.1224  0.3289
  381MOL0     C52444   6.018   3.190   2.119  0.2844  0.4773 -0.3878
  381MOL0     C52445   5.898   3.110   2.108 -0.3930 -0.6208  0.7864
  381MOL0     C52446   5.857   3.066   1.978 -0.6006 -0.3346 -0.4322
  381MOL0     C52447   5.942   3.081   1.873  0.1660  0.2661 -0.3736
  381MOL0     O52448   5.905   3.056   1.742  0.4422  0.0373 -0.6305
  381MOL0     C52449   5.772   3.054   1.691  0.1294 -1.3722  0.4940
  381MOL0     C52450   5.790   3.086   1.547  0.9117 -0.0834  0.5477
  381MOL0     C52451   5.660   3.091   1.470  0.0973 -0.2976  0.2021
  381MOL0     C52452   5.606   2.967   1.403  0.5423  0.2132 -0.7343
  381MOL0     C52453   5.469   2.994   1.338  0.0089 -0.1187 -0.1870
  381MOL0     C52454   5.476   3.075   1.208  0.4708 -0.0669 -0.1428
  381MOL0     C52455   5.342   3.091   1.147  0.3808 -0.1842  0.6412
  381MOL0     C52456   5.345   3.123   0.994  0.2949 -0.5129 -0.4282
  381MOL0     N52457   5.214   3.168   0.951  0.2239  0.4834  0.0002
  381MOL0     C52458   5.141   3.124   0.842  0.5759  1.0167 -0.2868
  381MOL0     C52459   5.033   3.213   0.827 -0.4473  0.6621 -0.6006
  381MOL0     C52460   4.924   3.198   0.725  0.1868  0.4512 -0.6975
  381MOL0     C52461   4.871   3.059   0.686 -1.0256  0.2360 -0.0014
  381MOL0     C52462   4.755   3.078   0.587  0.6686 -0.0828  0.0942
  381MOL0     C52463   4.688   2.952   0.537 -0.1393 -0.3499  0.0820
  381MOL0     O52464   4.542   2.967   0.509 -0.9662  0.8698 -0.3844
  381MOL0     C52465   4.487   2.973   0.385  0.0780 -0.0882  0.8192
  381MOL0     C52466   4.536   2.888   0.285 -0.2087 -0.6059  0.4516
  381MOL0     C52467   4.481   2.893   0.157  0.6571 -0.2797 -0.7396
  381MOL0     C52468   4.561   2.812   0.053 -0.0102 -1.1435 -0.7640
  381MOL0     C52469   4.376   2.987   0.124  0.2283  0.3954 -0.3150
  381MOL0     C52470   4.301   2.991  -0.008  0.0112 -0.2677 -0.9955
  381MOL0     O52471   4.262   2.864  -0.058  0.1794 -0.1904  0.4082
  381MOL0     C52472   4.167   2.864  -0.159  0.2780 -0.9904  0.2767
  381MOL0     C52473   4.193   2.915  -0.283  0.3092  0.7706  0.2667
  381MOL0     C52474   4.094   2.919  -0.387 -0.4478 -0.2058  0.2466
  381MOL0     C52475   3.965   2.867  -0.359  0.3898  1.1414  1.0837
  381MOL0     O52476   3.881   2.866  -0.470  0.5167 -0.3244 -0.3455
  381MOL0     C52477   3.760   2.775  -0.452  0.6216 -0.8028  0.7442
  381MOL0     C52478   3.683   2.764  -0.591  0.0131 -0.2799 -1.0856
  381MOL0     C52479   3.611   2.630  -0.617 -1.0104  0.3089  0.3757
  381MOL0     C52480   3.713   2.514  -0.639 -0.2742  0.2662 -0.4652
  381MOL0     C52481   3.653   2.370  -0.628  0.3718 -0.8703  0.1245
  381MOL0     C52482   3.759   2.260  -0.653  0.2060 -0.1734 -0.9303
  381MOL0     C52483   3.682   2.127  -0.656  0.4641 -0.1779  0.5730
  381MOL0     C52484   3.785   2.016  -0.666  0.4427  0.7964  0.3148
  381MOL0    Cl52485   3.713   1.854  -0.725 -0.5084 -0.2844 -0.5984
  381MOL0     C52486   3.938   2.815  -0.229 -0.4927  0.1484 -0.1211
  381MOL0     C52487   4.032   2.814  -0.135 -0.9056 -0.8145  0.0482
  381MOL0     O52488   4.272   3.102  -0.063  1.0508  0.3473 -0.7766
  381MOL0     C52489   4.328   3.078   0.227 -0.2122 -0.5740 -0.5954
  381MOL0     C52490   4.388   3.074   0.353 -0.0532  0.2674  0.0583
  381MOL0     N52491   5.062   3.317   0.915  0.1227  0.3021  0.2723
  381MOL0     N52492   5.157   3.292   0.986  0.0947  0.0747  0.0691
  381MOL0     C52493   6.062   3.144   1.887 -0.2273  1.0279 -1.0414
  381MOL0     C52494   6.105   3.202   2.007  0.6045 -0.5210  0.2067
  381MOL0     C52495   6.112   3.225   2.477 -0.3842 -0.2894 -0.6377
  381MOL0     C52496   6.190   3.140   2.565 -0.1961  0.1256 -0.2101
  381MOL0     C52497   6.226   3.181   2.692 -0.6766 -0.7828  0.2874
  381MOL0     C52498   6.186   3.307   2.741 -0.3563  1.1223 -0.7219
  381MOL0     O52499   6.232   3.352   2.861 -0.3380 -0.5016 -0.3972
  381MOL0     C52500   6.309   3.474   2.850  0.8236  1.1771  0.5481
  381MOL0     C52501   6.345   3.502   2.987  0.2229 -1.1091  0.4068
  381MOL0     C52502   6.452   3.400   3.022  0.3588  0.3002 -1.1208
  381MOL0     C52503   6.465   3.383   3.176  0.3180  0.1884  0.5360
  381MOL0     C52504   6.562   3.269   3.198  0.6714  0.6891 -0.2377
  381MOL0     C52505   6.627   3.174   3.219  0.6151 -0.2580 -0.3275
  381MOL0     C52506   6.101   3.388   2.669  0.0078 -0.3596  1.4858
  381MOL0     C52507   6.059   3.347   2.532  0.0237  0.2245 -0.5254
  381MOL0     C52508   5.961   3.433   2.462  1.2856  0.0762  0.1522
  381MOL0     H52509   5.825   3.092   2.187 -1.2473  2.7824  0.9235
  381MOL0     H52510   5.758   3.025   1.965 -0.4907 -1.1933  1.1892
  381MOL0     H52511   5.714   3.134   1.738 -1.2518 -0.1274 -3.0240
  381MOL0     H52512   5.730   2.955   1.710 -0.2549 -1.2422  0.3305
  381MOL0     H52513   5.847   3.179   1.539  0.1008  0.4815  1.2942
  381MOL0     H52514   5.847   3.005   1.499  0.6684 -1.7048  2.8160
  381MOL0     H52515   5.589   3.137   1.539 -0.5177  2.7578 -2.2482
  381MOL0     H52516   5.660   3.171   1.395 -0.3007 -0.3110  0.1875
  381MOL0     H52517   5.686   2.931   1.338  0.6698  1.3753 -1.2495
  381MOL0     H52518   5.590   2.892   1.481  1.3989  1.1819  0.4053
  381MOL0     H52519   5.407   3.059   1.400  2.3360  0.4485  1.7001
  381MOL0     H52520   5.420   2.898   1.321 -1.3097  0.9295 -2.8977
  381MOL0     H52521   5.527   3.172   1.214 -1.8494  1.2191 -0.0295
  381MOL0     H52522   5.539   3.016   1.141  0.4197 -0.5782  0.2553
  381MOL0     H52523   5.286   3.165   1.205 -0.1340 -0.7674  0.9041
  381MOL0     H52524   5.283   2.999   1.143  1.5925 -0.9564 -2.3235
  381MOL0     H52525   5.431   3.190   0.984 -1.7463  2.5335  1.2027
  381MOL0     H52526   5.374   3.033   0.937  1.7597 -1.0382  1.0511
  381MOL0     H52527   5.161   3.035   0.783 -1.8607  0.2169  0.0145
  381MOL0     H52528   4.962   3.248   0.635 -0.1489  1.6287 -0.2113
  381MOL0     H52529   4.834   3.250   0.761  0.6497  0.5157  0.3790
  381MOL0     H52530   4.947   3.011   0.624 -2.1661  0.4567 -1.6295
  381MOL0     H52531   4.859   3.005   0.781  2.1830  2.7199  2.0150
  381MOL0     H52532   4.680   3.137   0.640  3.6623  4.6085 -0.2065
  381MOL0     H52533   4.801   3.131   0.503  2.1740  2.3320  2.2855
  381MOL0     H52534   4.733   2.921   0.443 -0.0551  2.2911 -0.8416
  381MOL0     H52535   4.707   2.884   0.621  1.4341 -0.3277 -0.2280
  381MOL0     H52536   4.607   2.814   0.318  0.5004  0.2866  0.9918
  381MOL0     H52537   4.665   2.799   0.083  0.8184  0.6922 -2.5901
  381MOL0     H52538   4.553   2.867  -0.041  0.5756 -0.7890 -0.6109
  381MOL0     H52539   4.507   2.717   0.045 -1.1491 -0.4929 -1.0292
  381MOL0     H52540   4.291   2.960  -0.295  0.1381  1.6205  1.8510
  381MOL0     H52541   4.116   2.965  -0.483  1.4779 -1.1766  0.1655
  381MOL0     H52542   3.787   2.675  -0.418 -0.5982 -0.8779  1.5787
  381MOL0     H52543   3.697   2.825  -0.377  0.0264  0.1502 -0.3641
  381MOL0     H52544   3.624   2.856  -0.595  0.0206 -0.2187  0.0141
  381MOL0     H52545   3.758   2.775  -0.671 -0.3283  1.2218 -1.2312
  381MOL0     H52546   3.544   2.639  -0.703 -3.5957 -1.7192  2.0323
  381MOL0     H52547   3.554   2.609  -0.526 -0.0484 -1.4761  0.6280
  381MOL0     H52548   3.802   2.520  -0.576 -1.2896  1.1582  0.9407
  381MOL0     H52549   3.737   2.531  -0.744  0.8428  1.6799 -0.0132
  381MOL0     H52550   3.619   2.370  -0.524 -0.1933  2.0545  0.0154
  381MOL0     H52551   3.577   2.381  -0.705  2.6666 -2.3826 -2.5115
  381MOL0     H52552   3.828   2.263  -0.568  0.4848  3.3954 -1.1624
  381MOL0     H52553   3.821   2.268  -0.742 -2.0028  0.5018 -2.5097
  381MOL0     H52554   3.606   2.114  -0.732  1.0194 -0.5919  0.0833
  381MOL0     H52555   3.639   2.117  -0.556 -2.0174  1.6177 -0.2105
  381MOL0     H52556   3.833   2.009  -0.568 -2.0878  0.7595  1.6556
  381MOL0     H52557   3.849   2.043  -0.750 -0.9495  3.4252  0.0032
  381MOL0     H52558   3.838   2.785  -0.200 -0.5721  0.2553 -0.2829
  381MOL0     H52559   4.017   2.766  -0.039  2.9425 -3.7616 -0.5680
  381MOL0     H52560   4.254   3.156   0.211  0.5419  0.8024  1.9140
  381MOL0     H52561   4.369   3.150   0.428  2.1892 -0.7435  1.7518
  381MOL0     H52562   6.134   3.161   1.808  0.0281  0.6825 -0.8883
  381MOL0     H52563   6.198   3.257   2.016 -0.6545  2.2949 -2.2712
  381MOL0     H52564   6.226   3.047   2.521  0.6459  0.3643 -0.0488
  381MOL0     H52565   6.292   3.119   2.753 -0.9539 -0.5945  0.7852
  381MOL0     H52566   6.394   3.471   2.782 -2.1646  2.7715 -3.6535
  381MOL0     H52567   6.243   3.550   2.808 -1.4047 -1.4184 -0.8765
  381MOL0     H52568   6.260   3.487   3.053 -0.3279 -4.1889 -0.8290
  381MOL0     H52569   6.385   3.604   2.996 -1.5686 -0.4546  1.4030
  381MOL0     H52570   6.427   3.303   2.978 -2.1066  0.6612 -0.6601
  381MOL0     H52571   6.549   3.436   2.988  0.7445  0.3166 -0.0448
  381MOL0     H52572   6.366   3.365   3.219  0.4961  0.9077  1.2685
  381MOL0     H52573   6.503   3.478   3.216  2.0255 -0.4773  0.5732
  381MOL0     H52574   6.669   3.078   3.243  2.4401  1.1984  2.9849
  381MOL0     H52575   6.075   3.480   2.721  3.1144  1.4183  0.1641
  381MOL0     H52576   5.886   3.377   2.405  0.3737 -0.7810  2.0953
  381MOL0     H52577   5.903   3.490   2.535  1.6912 -0.5613  0.9867
  381MOL0     H52578   6.017   3.504   2.400 -1.8231  4.4336  1.7681
  382MOL0     O52579   8.298   1.436   7.464  0.4951 -0.0847 -1.2434
  382MOL0     C52580   8.247   1.548   7.452 -0.1806 -0.1450  0.3009
  382MOL0     O52581   8.222   1.634   7.550  0.1439 -0.0257  0.0878
  382MOL0     C52582   8.264   1.607   7.676  0.1418  0.0782  0.8031
  382MOL0     C52583   8.187   1.523   7.750  0.3561  0.4497 -0.0366
  382MOL0     C52584   8.221   1.498   7.877  2.0378  0.2427  0.5212
  382MOL0     C52585   8.330   1.561   7.941  0.6858 -1.0208 -0.9489
  382MOL0     O52586   8.355   1.517   8.064 -0.5371  0.0393 -1.7027
  382MOL0     C52587   8.363   1.623   8.158  0.1042  0.4092  0.1494
  382MOL0     C52588   8.368   1.544   8.291  0.0670  0.5115 -0.4512
  382MOL0     C52589   8.343   1.652   8.404  0.2268  0.4485  1.1219
  382MOL0     C52590   8.471   1.728   8.447 -0.4965 -0.2954 -0.0883
  382MOL0     C52591   8.432   1.816   8.565 -0.0467 -0.4259 -0.6971
  382MOL0     C52592   8.562   1.898   8.613  0.9660 -1.0428  0.0512
  382MOL0     C52593   8.656   1.807   8.696  1.1606  0.4851  0.0838
  382MOL0     C52594   8.785   1.880   8.715 -0.7811  0.2946  0.0784
  382MOL0     N52595   8.872   1.833   8.820  0.8886  0.6874 -0.4122
  382MOL0     C52596   8.843   1.724   8.899 -0.1160 -0.1057 -0.1208
  382MOL0     C52597   8.912   1.741   9.013 -0.8018 -0.0529 -0.5043
  382MOL0     C52598   8.920   1.654   9.139  0.6755  0.3700 -0.1575
  382MOL0     C52599   8.942   1.514   9.089 -0.0660 -0.4125 -0.6581
  382MOL0     C52600   8.947   1.417   9.214  0.0453  0.7805  0.0624
  382MOL0     C52601   9.055   1.450   9.313  0.3710 -0.1350 -0.3698
  382MOL0     O52602   9.058   1.337   9.393  0.9595 -0.1114 -0.3246
  382MOL0     C52603   8.951   1.304   9.474  0.3140  0.1865  0.0969
  382MOL0     C52604   8.937   1.169   9.505 -0.1069 -0.0857  0.3938
  382MOL0     C52605   8.827   1.123   9.586 -0.1085  0.0996  0.1017
  382MOL0     C52606   8.816   0.977   9.637  0.0311  0.5912  0.0163
  382MOL0     C52607   8.728   1.223   9.618  0.0792  0.1603 -0.2256
  382MOL0     C52608   8.611   1.195   9.716 -0.6859  0.8984  0.2652
  382MOL0     O52609   8.573   1.297   9.783 -0.3301 -0.2312 -0.1233
  382MOL0     C52610   8.501   1.293   9.898  0.3846 -0.3517 -0.2017
  382MOL0     C52611   8.373   1.245   9.900  0.4734  0.5130  0.2904
  382MOL0     C52612   8.289   1.246  10.016 -0.7113  0.0205 -0.5917
  382MOL0     C52613   8.345   1.294  10.139 -0.3333 -0.0236  0.3149
  382MOL0     O52614   8.287   1.301  10.265  0.4558  0.3548 -0.3393
  382MOL0     C52615   8.202   1.189  10.305  0.7611  0.1161 -0.0763
  382MOL0     C52616   8.162   1.207  10.447  0.1130 -0.7169  0.8235
  382MOL0     C52617   8.090   1.344  10.474  0.0641 -0.5112 -0.1017
  382MOL0     C52618   7.965   1.372  10.384  0.6575  0.0477 -0.1877
  382MOL0     C52619   7.880   1.492  10.448  0.1183 -0.6797 -0.0041
  382MOL0     C52620   7.744   1.514  10.394 -0.6572  0.2297 -0.8014
  382MOL0     C52621   7.678   1.645  10.464 -0.5798 -0.2993 -0.2941
  382MOL0     C52622   7.541   1.683  10.406 -0.6465 -0.4614  0.7609
  382MOL0    Cl52623   7.424   1.560  10.466  0.0866  0.4730  0.1376
  382MOL0     C52624   8.471   1.353  10.135  0.6743  1.3759 -0.6513
  382MOL0     C52625   8.552   1.353  10.014  0.7248 -0.7125 -0.2045
  382MOL0     O52626   8.561   1.083   9.725 -0.0478 -0.0637  1.2690
  382MOL0     C52627   8.756   1.356   9.584  0.6816  0.5236 -0.2859
  382MOL0     C52628   8.861   1.403   9.516 -0.7691  0.3901  0.8468
  382MOL0     N52629   8.970   1.861   9.006 -0.7770  0.7074  0.0920
  382MOL0     N52630   8.955   1.903   8.886 -0.3807  0.3945  0.7722
  382MOL0     C52631   8.406   1.652   7.867 -0.0734  0.3238 -0.4751
  382MOL0     C52632   8.373   1.673   7.739 -0.7665  0.6663  0.3131
  382MOL0     C52633   8.229   1.594   7.312  0.2657  0.2247  0.3065
  382MOL0     C52634   8.309   1.692   7.253 -0.0932 -0.3774 -0.5651
  382MOL0     C52635   8.316   1.710   7.122 -1.2234  0.0252  0.9436
  382MOL0     C52636   8.255   1.621   7.031 -0.2617  0.3953  0.0642
  382MOL0     O52637   8.257   1.645   6.895  0.0688  0.2491 -0.2017
  382MOL0     C52638   8.319   1.761   6.847 -0.2002 -0.0198 -0.1045
  382MOL0     C52639   8.305   1.779   6.693  0.9804 -0.2944 -0.3086
  382MOL0     C52640   8.348   1.662   6.593  0.0223 -0.5588 -0.2565
  382MOL0     C52641   8.368   1.716   6.450 -0.9187  1.1013  0.7086
  382MOL0     C52642   8.261   1.800   6.399  0.2755  1.3944 -0.2572
  382MOL0     C52643   8.171   1.847   6.331  0.8470 -0.0220  0.7813
  382MOL0     C52644   8.187   1.517   7.080 -0.0955 -0.1555  0.5891
  382MOL0     C52645   8.174   1.502   7.213  0.9589 -0.3510  0.0492
  382MOL0     C52646   8.097   1.390   7.258 -1.1930  0.1955  0.6369
  382MOL0     H52647   8.114   1.453   7.708 -0.1496 -1.4920  3.6269
  382MOL0     H52648   8.184   1.414   7.935  3.3215  0.1074  1.1600
  382MOL0     H52649   8.271   1.681   8.140  0.9736  1.8654  0.2292
  382MOL0     H52650   8.449   1.688   8.139  0.7170 -0.0436  1.2863
  382MOL0     H52651   8.283   1.475   8.289 -2.9242  3.8917 -1.7323
  382MOL0     H52652   8.464   1.493   8.302 -1.0495 -2.1469 -2.1673
  382MOL0     H52653   8.277   1.727   8.361  1.8185  1.0754 -0.3648
  382MOL0     H52654   8.306   1.592   8.488  2.0578 -2.7652 -0.1625
  382MOL0     H52655   8.554   1.658   8.461 -1.4852 -1.8930 -1.7960
  382MOL0     H52656   8.502   1.803   8.374 -2.5466  0.0140 -0.7126
  382MOL0     H52657   8.400   1.754   8.648 -1.9637  1.5058  0.0920
  382MOL0     H52658   8.351   1.886   8.540 -0.0700  0.5266  1.8223
  382MOL0     H52659   8.612   1.937   8.524  0.6580  1.9225  1.0815
  382MOL0     H52660   8.524   1.980   8.675 -0.7007 -2.1290  0.5421
  382MOL0     H52661   8.665   1.713   8.641 -4.0036 -0.7104  0.7601
  382MOL0     H52662   8.601   1.787   8.788  1.3303  6.1761  1.8333
  382MOL0     H52663   8.844   1.878   8.623  0.3339  0.1738  0.7657
  382MOL0     H52664   8.762   1.983   8.741 -1.0501  1.3466 -3.7638
  382MOL0     H52665   8.770   1.644   8.894 -1.3991  0.6304  3.4001
  382MOL0     H52666   8.820   1.660   9.184  0.0463 -0.8294 -1.3076
  382MOL0     H52667   8.991   1.698   9.209  0.2191 -0.1868  0.6811
  382MOL0     H52668   8.857   1.491   9.024 -2.4048  1.5372  1.4996
  382MOL0     H52669   9.039   1.523   9.039  0.3801  2.6456  0.5512
  382MOL0     H52670   8.848   1.422   9.260  0.3385 -3.6382  1.6412
  382MOL0     H52671   8.963   1.316   9.177  0.4277 -0.3819  3.1664
  382MOL0     H52672   9.154   1.464   9.268  1.4981 -0.0176  2.0353
  382MOL0     H52673   9.026   1.534   9.376  0.1205  0.3403 -1.1115
  382MOL0     H52674   9.011   1.096   9.473 -0.2550 -1.8374  3.6623
  382MOL0     H52675   8.790   0.973   9.744  0.4494 -2.7115  0.1077
  382MOL0     H52676   8.903   0.923   9.601 -1.2213 -0.0964 -2.1448
  382MOL0     H52677   8.732   0.932   9.582  1.0314  1.4204 -2.2792
  382MOL0     H52678   8.338   1.205   9.806 -0.8571  0.8744  0.6116
  382MOL0     H52679   8.188   1.208  10.028 -0.1100 -0.9227  2.2651
  382MOL0     H52680   8.106   1.179  10.254  0.4639 -1.3035  0.7146
  382MOL0     H52681   8.250   1.091  10.300  0.6449 -0.0190  1.1558
  382MOL0     H52682   8.092   1.131  10.485 -2.2152  1.2815  0.8202
  382MOL0     H52683   8.257   1.212  10.501  1.7264 -3.7111 -1.4459
  382MOL0     H52684   8.158   1.428  10.457  1.3790 -1.2466  1.3228
  382MOL0     H52685   8.058   1.342  10.579  1.1055 -1.2083  0.2175
  382MOL0     H52686   7.913   1.276  10.388  2.1873 -0.7660  0.9670
  382MOL0     H52687   8.004   1.386  10.283  0.3773  0.3021 -0.2621
  382MOL0     H52688   7.888   1.484  10.557  4.8733 -1.5472 -0.1803
  382MOL0     H52689   7.934   1.582  10.418 -2.5964  0.1847 -2.7818
  382MOL0     H52690   7.686   1.423  10.412 -1.2180  0.5004 -1.2304
  382MOL0     H52691   7.750   1.530  10.286 -0.2506  0.8193 -0.6939
  382MOL0     H52692   7.750   1.723  10.438  1.3992 -1.5561  1.0925
  382MOL0     H52693   7.676   1.623  10.572  2.9989 -4.8053 -0.8370
  382MOL0     H52694   7.544   1.675  10.297  3.5270 -2.2288  0.8194
  382MOL0     H52695   7.527   1.789  10.431  2.1806  0.2692 -0.4579
  382MOL0     H52696   8.510   1.400  10.224 -2.4287 -0.5907  1.9661
  382MOL0     H52697   8.646   1.407  10.004  0.7747 -0.6253  0.6078
  382MOL0     H52698   8.698   1.429   9.640 -0.6711  1.2003 -2.4545
  382MOL0     H52699   8.858   1.510   9.499  3.4912  0.7015  0.9431
  382MOL0     H52700   8.493   1.704   7.906  2.9532 -2.5357 -2.8565
  382MOL0     H52701   8.438   1.729   7.671 -2.3780  2.3641  0.1036
  382MOL0     H52702   8.361   1.774   7.300 -2.6039  1.8245 -1.3996
  382MOL0     H52703   8.374   1.793   7.083 -0.9181 -0.3274  0.6390
  382MOL0     H52704   8.271   1.846   6.897 -3.1311 -1.7056  0.2109
  382MOL0     H52705   8.425   1.751   6.869  0.2382  0.0668 -2.0010
  382MOL0     H52706   8.365   1.869   6.676 -1.4669  1.2923 -1.0206
  382MOL0     H52707   8.203   1.810   6.670  1.6683  0.8266 -2.0670
  382MOL0     H52708   8.427   1.593   6.625  1.2781  0.5745 -0.8106
  382MOL0     H52709   8.266   1.591   6.587 -0.6821  0.3961 -3.0359
  382MOL0     H52710   8.386   1.627   6.389  0.4916  0.0495  2.5632
  382MOL0     H52711   8.455   1.782   6.455 -1.2804  1.4631  3.1535
  382MOL0     H52712   8.087   1.899   6.292  0.5675 -0.4814  0.7626
  382MOL0     H52713   8.156   1.445   7.006  0.2731  1.1839 -0.9230
  382MOL0     H52714   8.168   1.309   7.278  0.4450  1.5149  0.3471
  382MOL0     H52715   8.045   1.418   7.351  1.3272 -0.6035  2.4011
  382MOL0     H52716   8.043   1.358   7.169  0.6927  4.7087 -2.4703
  383MOL0     O52717   3.770   5.138   0.710 -0.1164  0.5143 -0.1560
  383MOL0     C52718   3.819   5.092   0.814 -0.4489  0.2281 -0.3321
  383MOL0     O52719   3.788   4.973   0.874  1.1609  0.3935  0.3205
  383MOL0     C52720   3.731   4.879   0.794  0.4400 -0.1124 -0.9555
  383MOL0     C52721   3.632   4.809   0.862  0.2303 -0.7856  0.3621
  383MOL0     C52722   3.571   4.704   0.795  0.8770 -0.1795 -0.3515
  383MOL0     C52723   3.592   4.674   0.664 -0.4001  0.2765  0.5517
  383MOL0     O52724   3.515   4.572   0.622  0.0986 -0.0644  0.2841
  383MOL0     C52725   3.569   4.459   0.557  0.6343  0.3943  0.8414
  383MOL0     C52726   3.475   4.403   0.454 -0.2570 -0.0306  0.1708
  383MOL0     C52727   3.525   4.282   0.363 -0.1022  0.2234  0.0300
  383MOL0     C52728   3.425   4.251   0.256 -0.4792 -0.4273 -0.1492
  383MOL0     C52729   3.482   4.164   0.142 -0.1323 -0.4955 -0.3787
  383MOL0     C52730   3.400   4.159   0.019 -0.3485  0.0018 -0.0650
  383MOL0     C52731   3.471   4.101  -0.107 -0.0267 -0.6188  0.0395
  383MOL0     C52732   3.371   4.104  -0.226 -0.6108  0.0222 -0.7836
  383MOL0     N52733   3.417   4.048  -0.352  0.1140 -0.2916  0.6413
  383MOL0     C52734   3.433   3.913  -0.377 -0.0213  0.2492 -0.7929
  383MOL0     C52735   3.444   3.902  -0.515 -0.8396  0.9737 -1.0981
  383MOL0     C52736   3.440   3.769  -0.589  0.4934 -0.2775 -0.2603
  383MOL0     C52737   3.558   3.672  -0.561 -0.2796  0.1921  0.0377
  383MOL0     C52738   3.695   3.738  -0.570  0.2374 -0.3667  0.2405
  383MOL0     C52739   3.795   3.631  -0.514 -0.0671 -0.7047 -0.5481
  383MOL0     O52740   3.761   3.490  -0.541  0.0759  0.4083 -0.4132
  383MOL0     C52741   3.813   3.420  -0.654  1.2648  0.8881  0.5887
  383MOL0     C52742   3.822   3.276  -0.652 -0.4156 -0.2320  0.2088
  383MOL0     C52743   3.851   3.202  -0.764  0.6156 -0.1968  0.0678
  383MOL0     C52744   3.889   3.058  -0.744 -0.3527  0.0985  0.1670
  383MOL0     C52745   3.866   3.274  -0.892  0.0325  0.4866 -0.4156
  383MOL0     C52746   3.891   3.204  -1.021  0.1676 -0.2216 -0.5262
  383MOL0     O52747   3.791   3.126  -1.074  0.1973 -0.1058 -0.2938
  383MOL0     C52748   3.775   3.101  -1.206 -0.1893 -0.2696 -1.0606
  383MOL0     C52749   3.659   3.023  -1.233 -0.5550 -0.1578 -0.1805
  383MOL0     C52750   3.628   2.981  -1.358 -0.5744  1.5382  0.4977
  383MOL0     C52751   3.703   3.015  -1.469  0.8102  0.5451  0.1172
  383MOL0     O52752   3.666   2.987  -1.604 -0.1983  0.4462 -0.5287
  383MOL0     C52753   3.600   2.861  -1.627 -0.3358  0.6320 -0.8165
  383MOL0     C52754   3.537   2.862  -1.766 -0.2496 -0.5568 -0.0302
  383MOL0     C52755   3.411   2.946  -1.767  1.2659  0.0136  0.0756
  383MOL0     C52756   3.426   3.096  -1.737 -0.1011 -0.3394 -0.5767
  383MOL0     C52757   3.298   3.174  -1.701 -0.8723  0.4417  0.6527
  383MOL0     C52758   3.211   3.176  -1.821  0.2350  0.1119 -0.4541
  383MOL0     C52759   3.072   3.244  -1.808  0.4137  0.6487 -0.1303
  383MOL0     C52760   2.973   3.177  -1.715 -0.1063 -0.3892  0.2925
  383MOL0    Cl52761   2.814   3.257  -1.721  0.3349 -0.1193 -0.0545
  383MOL0     C52762   3.826   3.080  -1.442  0.5747  0.3729  0.1977
  383MOL0     C52763   3.862   3.124  -1.311  0.0585 -0.4350  0.3624
  383MOL0     O52764   3.980   3.260  -1.077  0.0380  0.5961 -0.4553
  383MOL0     C52765   3.862   3.415  -0.896  0.4683 -0.9931  0.5806
  383MOL0     C52766   3.835   3.489  -0.776  0.6305 -0.6897  1.0337
  383MOL0     N52767   3.435   4.035  -0.568  0.6542 -0.2745  0.0588
  383MOL0     N52768   3.415   4.115  -0.474 -0.4962 -0.0276  0.1752
  383MOL0     C52769   3.692   4.741   0.597  0.2712  0.0871  0.6790
  383MOL0     C52770   3.765   4.844   0.665 -0.4313  0.2791 -0.2417
  383MOL0     C52771   3.922   5.172   0.889 -0.3353 -0.5292 -0.8577
  383MOL0     C52772   3.978   5.274   0.815 -0.6384  0.2570  0.3418
  383MOL0     C52773   4.086   5.362   0.862  0.1271 -0.3512  0.2670
  383MOL0     C52774   4.129   5.329   0.993  0.2581  0.9806  0.5737
  383MOL0     O52775   4.243   5.385   1.035 -0.5469  0.0076  0.7104
  383MOL0     C52776   4.355   5.426   0.957  0.7802 -0.3640 -0.4549
  383MOL0     C52777   4.449   5.518   1.038  0.3572 -0.1470 -0.1175
  383MOL0     C52778   4.588   5.521   0.961 -0.0434  0.1507 -0.0149
  383MOL0     C52779   4.698   5.575   1.053 -0.7587  0.9358  0.1859
  383MOL0     C52780   4.679   5.711   1.093 -0.6139 -0.9574  0.0540
  383MOL0     C52781   4.647   5.814   1.141 -0.4892 -0.0484 -0.1090
  383MOL0     C52782   4.073   5.236   1.076 -0.0625 -0.3897  0.0663
  383MOL0     C52783   3.967   5.157   1.029  0.2753 -0.2022  0.2361
  383MOL0     C52784   3.894   5.070   1.126  0.0336  0.0796  0.1367
  383MOL0     H52785   3.600   4.844   0.960  3.0871  4.0178 -0.1479
  383MOL0     H52786   3.508   4.649   0.864  1.3163 -0.4643 -0.1713
  383MOL0     H52787   3.596   4.388   0.636  2.0887 -1.5122 -1.2469
  383MOL0     H52788   3.664   4.491   0.514 -0.8669  3.9067 -0.2501
  383MOL0     H52789   3.386   4.372   0.510 -0.8899  1.3436 -0.0190
  383MOL0     H52790   3.437   4.486   0.393 -0.9392  1.0271  1.9538
  383MOL0     H52791   3.621   4.317   0.324 -0.2542  2.1462  1.2255
  383MOL0     H52792   3.529   4.189   0.421  0.8125 -1.1031 -2.0339
  383MOL0     H52793   3.335   4.200   0.292 -3.1632  2.6095 -1.9791
  383MOL0     H52794   3.394   4.348   0.216 -2.5065 -0.4209  1.2387
  383MOL0     H52795   3.506   4.064   0.180 -0.3684 -0.3430  0.1836
  383MOL0     H52796   3.578   4.207   0.111 -2.0284  3.8469 -0.7962
  383MOL0     H52797   3.305   4.114   0.050  0.5520 -1.4037  0.7657
  383MOL0     H52798   3.378   4.263  -0.009 -1.7581  0.1461  1.4135
  383MOL0     H52799   3.492   3.995  -0.091 -1.3339 -0.9868 -0.5290
  383MOL0     H52800   3.567   4.150  -0.125 -0.6937  0.6572 -0.1694
  383MOL0     H52801   3.283   4.053  -0.187  0.0265  0.3369  1.2038
  383MOL0     H52802   3.342   4.206  -0.254 -0.6978 -0.0113 -0.8155
  383MOL0     H52803   3.424   3.840  -0.297  1.5473  0.0136 -0.8161
  383MOL0     H52804   3.444   3.816  -0.688  0.4533  1.4207  0.5200
  383MOL0     H52805   3.344   3.717  -0.587 -0.0014  0.6546  1.3985
  383MOL0     H52806   3.536   3.617  -0.468 -1.1937 -0.2963 -0.4557
  383MOL0     H52807   3.557   3.593  -0.637  0.0707  0.8106 -0.6176
  383MOL0     H52808   3.729   3.752  -0.673  2.0842  0.9399  0.9723
  383MOL0     H52809   3.702   3.834  -0.518  4.6876 -0.5465  0.3281
  383MOL0     H52810   3.893   3.651  -0.557  1.1246 -0.8881  1.9584
  383MOL0     H52811   3.805   3.652  -0.407 -1.0672  0.3352 -0.6325
  383MOL0     H52812   3.804   3.223  -0.559  0.9967 -1.6717 -0.3051
  383MOL0     H52813   3.893   3.003  -0.838  2.1678 -1.2053  0.9250
  383MOL0     H52814   3.816   3.011  -0.677  1.4762  0.8713  2.8971
  383MOL0     H52815   3.988   3.054  -0.696  0.1018  3.0830 -0.3014
  383MOL0     H52816   3.603   2.987  -1.148 -2.2825  0.9553 -0.7972
  383MOL0     H52817   3.535   2.930  -1.381 -0.3174  2.6525 -3.7978
  383MOL0     H52818   3.680   2.787  -1.617 -0.9932 -0.8113 -4.6153
  383MOL0     H52819   3.520   2.834  -1.557  0.6876  0.3696  0.2715
  383MOL0     H52820   3.610   2.906  -1.835  0.5842 -1.3873  0.3015
  383MOL0     H52821   3.525   2.756  -1.788  2.0280 -1.2554  1.6764
  383MOL0     H52822   3.342   2.890  -1.704 -0.1494  1.0938 -0.4706
  383MOL0     H52823   3.376   2.931  -1.870 -2.8981 -0.7270  1.4119
  383MOL0     H52824   3.492   3.144  -1.810 -0.1223 -1.1194 -1.1144
  383MOL0     H52825   3.471   3.111  -1.638  1.3824 -2.7205 -0.8124
  383MOL0     H52826   3.244   3.132  -1.616 -2.2091  2.3269  0.7811
  383MOL0     H52827   3.317   3.275  -1.664  0.4795 -0.2849  2.0698
  383MOL0     H52828   3.182   3.076  -1.855 -4.0223  1.2715 -0.8401
  383MOL0     H52829   3.261   3.218  -1.908 -2.9276 -0.0638 -2.5081
  383MOL0     H52830   3.039   3.248  -1.912  0.3470  0.9019 -0.0997
  383MOL0     H52831   3.082   3.345  -1.765  0.1811  0.4397  0.4314
  383MOL0     H52832   3.026   3.180  -1.619  1.9997 -1.2271 -0.7682
  383MOL0     H52833   2.966   3.070  -1.737  0.3775 -0.9505  2.6303
  383MOL0     H52834   3.887   3.106  -1.527  1.7765 -0.3122  0.8253
  383MOL0     H52835   3.958   3.169  -1.289 -0.9832  1.7569  0.7282
  383MOL0     H52836   3.867   3.463  -0.993  0.8808 -4.0267 -1.0331
  383MOL0     H52837   3.825   3.597  -0.771  0.2792 -0.7655  2.4161
  383MOL0     H52838   3.710   4.723   0.492 -0.4644 -0.5802  0.6620
  383MOL0     H52839   3.835   4.916   0.623  1.6056 -0.2485  2.0467
  383MOL0     H52840   3.945   5.290   0.713 -1.8756 -1.4779  0.4216
  383MOL0     H52841   4.130   5.440   0.801  1.9405 -1.2139  0.4104
  383MOL0     H52842   4.399   5.331   0.925 -0.7113 -1.8039  1.4602
  383MOL0     H52843   4.338   5.474   0.860  0.1446 -2.6487 -1.5369
  383MOL0     H52844   4.455   5.474   1.138  1.7048  1.1543  0.4016
  383MOL0     H52845   4.421   5.623   1.028  4.0578  0.8662 -1.8969
  383MOL0     H52846   4.608   5.418   0.929 -2.9336 -0.2662 -0.7658
  383MOL0     H52847   4.585   5.583   0.872  2.9232 -0.0112 -0.3389
  383MOL0     H52848   4.799   5.570   1.010 -0.1779  3.4491  1.1005
  383MOL0     H52849   4.694   5.515   1.144 -0.2697 -0.1947 -0.5074
  383MOL0     H52850   4.617   5.893   1.207 -1.3826 -1.4472  1.1877
  383MOL0     H52851   4.118   5.215   1.173  1.4145 -4.3982 -1.2856
  383MOL0     H52852   3.799   5.123   1.115  0.1064  0.0457 -0.7197
  383MOL0     H52853   3.905   4.964   1.102  2.0780 -0.0789  1.5222
  383MOL0     H52854   3.922   5.079   1.232 -0.4341 -1.9286  0.4658
  384MOL0     O52855   7.014  11.063   5.169  0.0872  0.0557 -0.1066
  384MOL0     C52856   6.962  11.026   5.269 -0.0924 -0.5920  0.3038
  384MOL0     O52857   6.880  11.104   5.345 -0.3787  0.2277 -0.1306
  384MOL0     C52858   6.839  11.228   5.306 -0.0906  0.2324  0.1376
  384MOL0     C52859   6.724  11.245   5.221 -0.2855  0.1383  0.2570
  384MOL0     C52860   6.688  11.372   5.176 -0.1772 -0.2810 -0.4792
  384MOL0     C52861   6.764  11.489   5.219  0.5512 -0.3600  0.8314
  384MOL0     O52862   6.735  11.620   5.177  0.2725 -0.6022 -0.1363
  384MOL0     C52863   6.599  11.646   5.112  0.6699  0.1771 -0.0214
  384MOL0     C52864   6.565  11.788   5.150  0.2561 -0.9898  0.7238
  384MOL0     C52865   6.661  11.892   5.087 -0.1385  0.3387 -0.6294
  384MOL0     C52866   6.641  12.026   5.141 -0.1631 -0.8770 -0.6254
  384MOL0     C52867   6.730  12.127   5.080  0.1416 -0.5195  0.0594
  384MOL0     C52868   6.747  12.268   5.150  0.0481 -0.3091 -0.0004
  384MOL0     C52869   6.619  12.349   5.177  0.3663 -0.2494  0.7521
  384MOL0     C52870   6.634  12.494   5.207  0.7184  0.0170  0.4798
  384MOL0     N52871   6.711  12.577   5.109 -0.0812  0.2268 -0.1191
  384MOL0     C52872   6.676  12.596   4.978  0.9639  0.8466  0.2704
  384MOL0     C52873   6.787  12.658   4.930  0.4656  1.2592  0.3328
  384MOL0     C52874   6.802  12.717   4.794  0.2564 -0.9341 -0.0829
  384MOL0     C52875   6.806  12.608   4.678 -0.8455 -0.4273 -0.0040
  384MOL0     C52876   6.670  12.601   4.598 -0.2234 -0.2835  0.5339
  384MOL0     C52877   6.623  12.458   4.613 -0.5189 -0.3089 -1.1088
  384MOL0     O52878   6.704  12.368   4.530  0.2627 -0.6246  0.6100
  384MOL0     C52879   6.681  12.237   4.560 -0.7547  0.8714 -0.7464
  384MOL0     C52880   6.586  12.163   4.496 -0.2931  0.7037 -0.1450
  384MOL0     C52881   6.582  12.023   4.518  0.3313  0.9794  0.0343
  384MOL0     C52882   6.469  11.963   4.440  0.2711  0.0405 -0.0484
  384MOL0     C52883   6.665  11.957   4.608 -0.5031 -0.4613 -0.0559
  384MOL0     C52884   6.662  11.807   4.631  0.0198 -0.6258 -0.7585
  384MOL0     O52885   6.791  11.750   4.649  1.0920  0.2030 -0.0982
  384MOL0     C52886   6.798  11.615   4.668  0.1056  0.0212 -0.8060
  384MOL0     C52887   6.879  11.575   4.782 -0.5863  0.3034 -0.6535
  384MOL0     C52888   6.894  11.442   4.818  0.2330 -0.3942  0.6563
  384MOL0     C52889   6.835  11.347   4.736  0.1705 -0.3768  0.1916
  384MOL0     O52890   6.829  11.213   4.751 -0.3698 -0.7820 -0.0307
  384MOL0     C52891   6.822  11.171   4.889 -0.3793  0.3303  0.1337
  384MOL0     C52892   6.829  11.016   4.894 -0.3590  0.9500 -0.0216
  384MOL0     C52893   6.708  10.950   4.822  0.3335  0.4208  0.0675
  384MOL0     C52894   6.722  10.958   4.668 -0.2388 -0.3811  0.4791
  384MOL0     C52895   6.642  10.844   4.603  0.2345 -0.9478 -0.6243
  384MOL0     C52896   6.645  10.871   4.452  0.3344 -0.0686  0.2039
  384MOL0     C52897   6.543  10.781   4.363  0.4114  1.0170 -0.2635
  384MOL0     C52898   6.566  10.637   4.377 -0.0806  0.0150 -0.5883
  384MOL0    Cl52899   6.442  10.549   4.275  0.5072  0.2599 -0.1313
  384MOL0     C52900   6.758  11.382   4.625 -0.3998  0.2682  0.2263
  384MOL0     C52901   6.736  11.515   4.587 -0.4604  0.0127  0.2499
  384MOL0     O52902   6.549  11.749   4.632 -1.5046  0.2645 -0.4445
  384MOL0     C52903   6.769  12.037   4.665  0.7037 -0.2307 -0.1656
  384MOL0     C52904   6.774  12.172   4.646 -0.2659 -1.0849  0.3547
  384MOL0     N52905   6.886  12.655   5.019  0.4031 -0.6841 -0.3436
  384MOL0     N52906   6.838  12.614   5.128 -0.1414 -0.1905  0.5687
  384MOL0     C52907   6.872  11.476   5.300  0.4746  0.2759  0.5974
  384MOL0     C52908   6.910  11.342   5.341 -0.1514 -0.6041 -0.2871
  384MOL0     C52909   6.987  10.887   5.309 -0.3718 -0.0153 -0.2934
  384MOL0     C52910   7.110  10.828   5.273  0.1753  0.1122  0.3905
  384MOL0     C52911   7.127  10.689   5.298 -0.1261  1.2226 -0.4886
  384MOL0     C52912   7.033  10.618   5.376 -0.7342 -0.2098  0.0285
  384MOL0     O52913   7.035  10.492   5.410 -0.2120  0.0461 -0.1468
  384MOL0     C52914   7.158  10.419   5.425  1.2596 -0.7396  0.4675
  384MOL0     C52915   7.127  10.319   5.536 -0.7353 -0.9106  0.5664
  384MOL0     C52916   7.246  10.238   5.559 -0.6254  0.4096 -0.6256
  384MOL0     C52917   7.198  10.140   5.670 -0.7182  0.2686 -0.4469
  384MOL0     C52918   7.090  10.061   5.634 -0.8703  0.5302 -0.2224
  384MOL0     C52919   7.006   9.996   5.581  0.0401  0.1091 -0.6356
  384MOL0     C52920   6.912  10.683   5.402  0.2012  1.1978 -0.1930
  384MOL0     C52921   6.881  10.812   5.368 -0.6450  0.7408 -0.6147
  384MOL0     C52922   6.752  10.864   5.414  1.6933 -0.0672 -0.4946
  384MOL0     H52923   6.660  11.164   5.187 -0.1558  0.6343 -1.2180
  384MOL0     H52924   6.602  11.388   5.111 -0.5822  0.0955  0.1345
  384MOL0     H52925   6.516  11.583   5.147  1.6008 -0.4848  1.0601
  384MOL0     H52926   6.621  11.622   5.007  2.3944  0.4031  0.2567
  384MOL0     H52927   6.465  11.811   5.112  1.3716  0.0064 -1.8113
  384MOL0     H52928   6.560  11.801   5.259 -0.3253  2.2221  0.4148
  384MOL0     H52929   6.766  11.869   5.109 -0.0659  1.5618  0.4563
  384MOL0     H52930   6.656  11.890   4.978  4.0132 -0.5096 -0.9591
  384MOL0     H52931   6.536  12.058   5.133 -0.1264 -0.8375 -0.9693
  384MOL0     H52932   6.670  12.036   5.246  0.8166  3.7728 -1.1347
  384MOL0     H52933   6.707  12.138   4.974  2.9930 -0.5922 -0.6360
  384MOL0     H52934   6.831  12.085   5.081 -0.0137 -1.1567 -2.8667
  384MOL0     H52935   6.789  12.257   5.250 -2.0831  1.5441  1.2001
  384MOL0     H52936   6.818  12.323   5.088 -1.3284 -0.8729 -2.1768
  384MOL0     H52937   6.569  12.293   5.257  0.2478  0.8145  1.4422
  384MOL0     H52938   6.558  12.328   5.089  0.4941 -0.1151  0.6312
  384MOL0     H52939   6.537  12.541   5.227  1.0994  1.0587 -0.0136
  384MOL0     H52940   6.684  12.494   5.304  0.8099  0.6930  0.4413
  384MOL0     H52941   6.584  12.568   4.927  1.2444  0.3584  0.0334
  384MOL0     H52942   6.890  12.781   4.797 -1.8345  2.1746  0.4465
  384MOL0     H52943   6.718  12.783   4.770 -0.3689 -1.3087  1.0026
  384MOL0     H52944   6.880  12.637   4.603  1.5237 -3.0424  1.1383
  384MOL0     H52945   6.842  12.515   4.722  1.8136  0.3379 -0.3495
  384MOL0     H52946   6.600  12.669   4.648 -0.2113  0.7139 -0.7780
  384MOL0     H52947   6.682  12.628   4.493  2.5439 -2.8869  0.0550
  384MOL0     H52948   6.615  12.420   4.715 -4.4363 -0.4934 -1.3350
  384MOL0     H52949   6.521  12.447   4.576 -1.4528  0.9571  0.9471
  384MOL0     H52950   6.540  12.220   4.416  3.1731  1.1623 -2.0390
  384MOL0     H52951   6.439  12.024   4.354 -3.3320  1.7146  2.1866
  384MOL0     H52952   6.376  11.981   4.494  0.0633  1.5039 -0.8199
  384MOL0     H52953   6.489  11.860   4.409  2.1889  1.1357 -2.9627
  384MOL0     H52954   6.928  11.648   4.845 -0.4296 -0.8911  0.6668
  384MOL0     H52955   6.936  11.418   4.915  0.2874 -0.6158  0.5794
  384MOL0     H52956   6.892  11.209   4.965 -3.3071 -0.6915  3.6245
  384MOL0     H52957   6.720  11.191   4.923 -1.4043 -0.5282 -2.2424
  384MOL0     H52958   6.926  10.987   4.851  0.2126  1.9945  0.5151
  384MOL0     H52959   6.834  10.992   5.000  1.8367  0.2101 -0.2273
  384MOL0     H52960   6.606  10.984   4.844 -0.9102 -1.8602 -1.6757
  384MOL0     H52961   6.711  10.843   4.846 -0.7731  0.9284  2.8448
  384MOL0     H52962   6.830  10.962   4.650 -0.0987  1.3683  1.4431
  384MOL0     H52963   6.679  11.053   4.635 -2.1852 -0.5984  2.2010
  384MOL0     H52964   6.680  10.748   4.637  2.5940 -0.2352 -1.0588
  384MOL0     H52965   6.538  10.860   4.636  0.9847  1.4554  0.8045
  384MOL0     H52966   6.746  10.852   4.417  1.7636  3.9109  1.6010
  384MOL0     H52967   6.617  10.972   4.419  0.5988 -0.8711 -2.7502
  384MOL0     H52968   6.553  10.805   4.257 -0.1113  3.9583  0.2840
  384MOL0     H52969   6.442  10.806   4.397  1.5009  3.8772  1.2012
  384MOL0     H52970   6.569  10.593   4.477 -0.8969 -0.0248 -0.5713
  384MOL0     H52971   6.668  10.615   4.343 -0.6471 -1.4962 -1.4063
  384MOL0     H52972   6.722  11.320   4.543 -0.5573  1.7036 -0.8393
  384MOL0     H52973   6.685  11.526   4.491  0.8830 -2.8170 -0.9047
  384MOL0     H52974   6.840  11.982   4.727  0.3659 -1.3123 -0.7118
  384MOL0     H52975   6.850  12.226   4.701  0.3472 -0.4533 -1.0725
  384MOL0     H52976   6.930  11.559   5.338 -0.5660  1.9181 -1.2335
  384MOL0     H52977   7.006  11.345   5.393  0.2000 -1.4512 -0.8549
  384MOL0     H52978   7.182  10.885   5.214 -2.8301  0.1911 -3.6189
  384MOL0     H52979   7.213  10.637   5.259  3.0773  4.5610  1.4384
  384MOL0     H52980   7.188  10.365   5.335  2.9609 -0.3172  0.7523
  384MOL0     H52981   7.237  10.492   5.444 -1.2498  2.4260 -0.3525
  384MOL0     H52982   7.036  10.264   5.511 -1.0864 -0.8860  1.7117
  384MOL0     H52983   7.102  10.364   5.633 -0.5823 -0.9951  0.6442
  384MOL0     H52984   7.270  10.190   5.464  0.6113  1.0627 -0.6530
  384MOL0     H52985   7.333  10.289   5.602  0.7853 -2.5511  0.3393
  384MOL0     H52986   7.170  10.203   5.755 -0.5046 -0.7824  0.4326
  384MOL0     H52987   7.279  10.069   5.688  0.2449  1.8938  2.2397
  384MOL0     H52988   6.934   9.939   5.525 -1.3892  1.0655  0.1938
  384MOL0     H52989   6.843  10.607   5.437  1.4496 -1.5602 -3.1669
  384MOL0     H52990   6.760  10.947   5.485 -1.0828  1.4304 -1.7590
  384MOL0     H52991   6.704  10.885   5.318 -0.6330 -1.4474  0.2801
  384MOL0     H52992   6.697  10.780   5.459 -0.3678 -0.3202 -3.2605
  385MOL0     O52993   3.103   8.740   9.624 -0.5880 -0.3988 -0.0941
  385MOL0     C52994   3.077   8.710   9.507  1.3777 -0.5450  0.3712
  385MOL0     O52995   2.958   8.669   9.463  0.4023 -0.8637 -0.4202
  385MOL0     C52996   2.848   8.641   9.542  0.0696  0.1402  0.2365
  385MOL0     C52997   2.766   8.538   9.495  0.0390  0.4167  0.0346
  385MOL0     C52998   2.651   8.493   9.564 -0.5616 -0.5287 -0.3935
  385MOL0     C52999   2.611   8.549   9.686 -0.0626 -0.5002 -1.3108
  385MOL0     O53000   2.498   8.519   9.758 -0.1377  0.0493  0.2696
  385MOL0     C53001   2.381   8.475   9.689 -0.6807  0.2660 -0.4841
  385MOL0     C53002   2.259   8.491   9.785  0.2131  0.0325 -0.4044
  385MOL0     C53003   2.229   8.638   9.823  1.1506  0.5233  0.3773
  385MOL0     C53004   2.094   8.643   9.896 -0.2353  0.5124 -0.5700
  385MOL0     C53005   2.062   8.772   9.965  0.1586 -0.3426  0.4108
  385MOL0     C53006   2.079   8.886   9.870  0.2412 -0.3814 -0.1989
  385MOL0     C53007   2.051   9.023   9.934 -0.4610  0.9434  0.5546
  385MOL0     C53008   2.165   9.065  10.028  0.9509  0.3364  0.2492
  385MOL0     N53009   2.116   9.158  10.126  0.5292  0.3676  0.8612
  385MOL0     C53010   2.046   9.124  10.238  0.1804 -0.1247 -1.4087
  385MOL0     C53011   2.013   9.247  10.298  0.2593  0.5686  0.8163
  385MOL0     C53012   1.934   9.262  10.427 -0.3195  0.3843 -0.2512
  385MOL0     C53013   1.783   9.283  10.421 -0.4676  1.0138 -0.0938
  385MOL0     C53014   1.714   9.290  10.550  0.2258 -0.0286 -1.1646
  385MOL0     C53015   1.682   9.150  10.608 -0.5455 -0.2372 -0.9257
  385MOL0     O53016   1.780   9.104  10.703  0.7536  0.3254  0.0257
  385MOL0     C53017   1.791   8.966  10.700  0.8111  0.3924 -0.4753
  385MOL0     C53018   1.730   8.893  10.796 -0.2972  0.3895 -0.8274
  385MOL0     C53019   1.734   8.749  10.795  0.3303  0.8090 -0.2423
  385MOL0     C53020   1.653   8.693  10.904  0.6120  0.5430 -0.3545
  385MOL0     C53021   1.800   8.674  10.687  0.3102  0.1886 -0.0793
  385MOL0     C53022   1.800   8.524  10.674 -0.2579 -0.7275  0.0657
  385MOL0     O53023   1.895   8.463  10.588 -0.0868  0.2197 -0.8656
  385MOL0     C53024   1.834   8.354  10.519  0.0679  0.4978  0.1076
  385MOL0     C53025   1.725   8.384  10.434 -0.2874  0.7217  0.0984
  385MOL0     C53026   1.672   8.279  10.353 -0.3831  0.1703 -0.8328
  385MOL0     C53027   1.710   8.141  10.374 -0.2296 -0.4854 -0.1053
  385MOL0     O53028   1.644   8.044  10.305  0.5998 -0.8144 -0.4314
  385MOL0     C53029   1.590   7.932  10.374 -0.0530  1.1604 -0.2506
  385MOL0     C53030   1.470   7.954  10.468 -0.1649 -0.8817 -0.4446
  385MOL0     C53031   1.337   7.993  10.404  0.7459 -0.2469 -0.3281
  385MOL0     C53032   1.306   8.138  10.440 -0.0928 -0.4033 -0.0798
  385MOL0     C53033   1.184   8.195  10.362  0.8847  0.1617 -0.1565
  385MOL0     C53034   1.201   8.230  10.213  0.4379 -0.1976  0.3969
  385MOL0     C53035   1.311   8.331  10.183  0.6333  0.1745  0.3881
  385MOL0     C53036   1.292   8.399  10.048 -0.8340 -0.4138 -0.7267
  385MOL0    Cl53037   1.454   8.415   9.959  0.6013  0.0983 -0.3757
  385MOL0     C53038   1.823   8.113  10.453 -1.0438 -0.5340 -0.3081
  385MOL0     C53039   1.881   8.218  10.535  0.8954 -0.5501  0.2626
  385MOL0     O53040   1.712   8.463  10.730 -1.2445 -0.2388  0.1180
  385MOL0     C53041   1.860   8.752  10.590 -0.1584 -0.5898 -0.1892
  385MOL0     C53042   1.866   8.897  10.602  0.5022  0.1734  0.2206
  385MOL0     N53043   2.049   9.348  10.211 -0.8727  0.9075  0.1901
  385MOL0     N53044   2.119   9.290  10.115  0.4516 -0.3166  0.3601
  385MOL0     C53045   2.683   8.661   9.728 -0.0107  0.8033  0.1125
  385MOL0     C53046   2.810   8.694   9.676  0.2211 -0.4820  0.5113
  385MOL0     C53047   3.180   8.718   9.392 -0.3765 -0.2389 -0.4953
  385MOL0     C53048   3.319   8.697   9.434  0.2661  0.2336  0.6061
  385MOL0     C53049   3.410   8.666   9.333 -0.2557 -0.6536 -0.4057
  385MOL0     C53050   3.373   8.683   9.204 -0.6975 -0.4939 -0.1010
  385MOL0     O53051   3.462   8.642   9.108  0.2096 -0.6298  0.6487
  385MOL0     C53052   3.437   8.510   9.068 -0.1188 -0.0618  0.0567
  385MOL0     C53053   3.488   8.405   9.163  0.1709  0.1858  0.4006
  385MOL0     C53054   3.632   8.433   9.213 -0.0876 -0.2336 -0.4560
  385MOL0     C53055   3.739   8.411   9.105  0.3748  0.1597 -0.4177
  385MOL0     C53056   3.872   8.420   9.148 -0.7480  0.2633 -0.7274
  385MOL0     C53057   3.984   8.443   9.189  0.0673 -0.3366  0.0249
  385MOL0     C53058   3.240   8.715   9.162 -0.5252 -0.1950 -0.0258
  385MOL0     C53059   3.143   8.736   9.254  0.6900  0.1984 -0.1381
  385MOL0     C53060   3.006   8.770   9.204 -0.6142 -0.8006 -0.6764
  385MOL0     H53061   2.806   8.469   9.421 -2.4232 -3.0434  1.6556
  385MOL0     H53062   2.605   8.400   9.532  1.3333 -2.9847  3.3439
  385MOL0     H53063   2.386   8.371   9.655 -1.5137  0.4204 -1.1089
  385MOL0     H53064   2.347   8.533   9.603 -0.6312 -1.3354 -1.6336
  385MOL0     H53065   2.170   8.453   9.734  0.3756 -2.1283  0.7821
  385MOL0     H53066   2.268   8.441   9.882 -2.5948 -3.7403 -1.8605
  385MOL0     H53067   2.315   8.675   9.880  1.4956 -1.2853  1.1065
  385MOL0     H53068   2.226   8.695   9.730 -0.4768 -2.5816 -1.6407
  385MOL0     H53069   2.022   8.624   9.816 -2.0227  1.0964  0.8268
  385MOL0     H53070   2.087   8.569   9.976  1.2080  0.0173 -0.8631
  385MOL0     H53071   2.131   8.787  10.048  2.7028 -1.4212 -1.3837
  385MOL0     H53072   1.965   8.773  10.016  0.3621 -2.5241  0.9356
  385MOL0     H53073   2.177   8.896   9.822 -0.7046  0.2915 -2.1094
  385MOL0     H53074   2.015   8.873   9.782  2.3162 -4.1037 -1.3853
  385MOL0     H53075   1.960   9.011   9.992 -1.6557 -0.6325 -1.5094
  385MOL0     H53076   2.039   9.094   9.851  3.5037  2.1023  0.7195
  385MOL0     H53077   2.222   8.979  10.065  1.8672 -0.6379 -3.0811
  385MOL0     H53078   2.231   9.119   9.959  0.3139  1.2453  0.3392
  385MOL0     H53079   2.032   9.021  10.271  0.3186 -0.1427 -1.4061
  385MOL0     H53080   1.975   9.351  10.476  0.8214  0.6435 -1.6002
  385MOL0     H53081   1.963   9.171  10.481  1.3427  0.4318 -0.9791
  385MOL0     H53082   1.766   9.377  10.368 -0.5558  0.3622 -1.2575
  385MOL0     H53083   1.743   9.204  10.357  0.4782  0.4460  0.0022
  385MOL0     H53084   1.774   9.359  10.610 -1.3893  1.9526 -1.7068
  385MOL0     H53085   1.621   9.345  10.530 -0.2795 -0.8063 -0.9915
  385MOL0     H53086   1.584   9.166  10.654 -1.8579 -1.6770 -3.0211
  385MOL0     H53087   1.666   9.091  10.517  3.4987  3.6756 -4.7245
  385MOL0     H53088   1.664   8.944  10.866 -0.8528 -0.2769 -0.8554
  385MOL0     H53089   1.547   8.696  10.878  0.6065  3.5106 -0.3340
  385MOL0     H53090   1.660   8.760  10.990 -2.2620  0.7815 -0.2288
  385MOL0     H53091   1.689   8.597  10.944  1.1732  1.0439  0.3700
  385MOL0     H53092   1.692   8.484  10.407  0.7175  1.5840  1.9021
  385MOL0     H53093   1.603   8.291  10.269 -1.4062 -0.9671 -0.2009
  385MOL0     H53094   1.557   7.853  10.306  1.3486 -0.8632  1.2887
  385MOL0     H53095   1.661   7.877  10.437 -0.6640 -1.8017 -1.9562
  385MOL0     H53096   1.441   7.860  10.517 -0.9990 -1.4136 -1.9099
  385MOL0     H53097   1.499   8.031  10.540 -0.3995 -0.3253 -0.9412
  385MOL0     H53098   1.252   7.930  10.432  1.3584 -0.0361  2.2426
  385MOL0     H53099   1.369   7.974  10.301  0.8475 -1.5690 -0.0680
  385MOL0     H53100   1.391   8.206  10.435 -0.3967 -0.1040 -1.9196
  385MOL0     H53101   1.283   8.148  10.546  1.6803  2.7474  0.1053
  385MOL0     H53102   1.108   8.116  10.363 -0.2170  1.1471 -1.3447
  385MOL0     H53103   1.144   8.278  10.423 -0.2104  0.4183 -1.1855
  385MOL0     H53104   1.104   8.268  10.179  0.0737 -0.9809  0.5647
  385MOL0     H53105   1.218   8.140  10.154  5.1834  1.0256 -0.5549
  385MOL0     H53106   1.398   8.265  10.175  0.2909 -0.7097  2.8858
  385MOL0     H53107   1.352   8.404  10.254 -0.8262  3.7269 -2.1645
  385MOL0     H53108   1.250   8.500  10.056 -1.6197 -0.8228  0.6991
  385MOL0     H53109   1.226   8.338   9.986  0.2776 -0.7517 -1.6092
  385MOL0     H53110   1.871   8.016  10.455  2.9109  1.2311  0.7200
  385MOL0     H53111   1.964   8.206  10.604  3.1966  3.6009 -1.4397
  385MOL0     H53112   1.942   8.710  10.533  2.2749  0.1817  2.4785
  385MOL0     H53113   1.908   8.954  10.520 -0.2772 -1.0835 -1.0906
  385MOL0     H53114   2.641   8.703   9.819 -0.4618  0.2814  0.1539
  385MOL0     H53115   2.855   8.781   9.721 -0.4146  1.2001 -1.8914
  385MOL0     H53116   3.345   8.701   9.539 -1.5909  2.5201  1.0533
  385MOL0     H53117   3.514   8.648   9.361 -0.4990  0.4376  1.4031
  385MOL0     H53118   3.332   8.490   9.046  0.8091 -1.9576 -3.6179
  385MOL0     H53119   3.487   8.510   8.970 -0.4128  2.1221 -0.1257
  385MOL0     H53120   3.486   8.310   9.109  1.8330 -0.4231  1.3229
  385MOL0     H53121   3.425   8.395   9.252  1.0143  2.3606  1.3110
  385MOL0     H53122   3.650   8.535   9.249  0.9189  0.8435 -3.5952
  385MOL0     H53123   3.656   8.364   9.294 -0.2486  1.8980  1.4996
  385MOL0     H53124   3.733   8.490   9.030 -0.8150  2.5621  2.0316
  385MOL0     H53125   3.725   8.317   9.051  0.8456  1.0563 -2.1781
  385MOL0     H53126   4.086   8.456   9.219 -0.3990 -2.5375  2.9299
  385MOL0     H53127   3.230   8.716   9.054  0.0839 -1.7208 -0.1311
  385MOL0     H53128   3.023   8.795   9.099 -3.2510  1.0250 -0.7539
  385MOL0     H53129   2.930   8.694   9.221 -0.6244 -0.3164  1.8845
  385MOL0     H53130   2.979   8.856   9.267 -0.2451 -1.8030  0.9210
  386MOL0     O53131   1.271   7.179  10.008  0.5084 -0.8172 -0.9229
  386MOL0     C53132   1.274   7.296  10.020 -0.3241  0.1402 -0.5255
  386MOL0     O53133   1.321   7.383   9.921  0.1110 -0.3950  0.3752
  386MOL0     C53134   1.389   7.334   9.820  0.2096  0.3316  0.7767
  386MOL0     C53135   1.350   7.390   9.701 -0.3555  0.0747 -0.2246
  386MOL0     C53136   1.401   7.356   9.576 -1.8105 -0.6606  0.2592
  386MOL0     C53137   1.488   7.249   9.565 -0.8708 -0.2966  0.7767
  386MOL0     O53138   1.541   7.214   9.440  0.1476 -0.4336 -0.4805
  386MOL0     C53139   1.617   7.100   9.413 -0.4540  0.6258 -0.1965
  386MOL0     C53140   1.533   6.974   9.405  0.5660  1.0623  0.1528
  386MOL0     C53141   1.610   6.838   9.398  0.3096  0.3861  0.3212
  386MOL0     C53142   1.513   6.714   9.429  1.0262 -0.1582  0.1874
  386MOL0     C53143   1.589   6.582   9.456  0.7469  0.1384 -0.1427
  386MOL0     C53144   1.478   6.485   9.492 -0.0793  0.1864  0.2014
  386MOL0     C53145   1.532   6.344   9.530  0.2999 -1.1209  0.1601
  386MOL0     C53146   1.577   6.349   9.678 -0.9364  0.2327 -0.0006
  386MOL0     N53147   1.471   6.343   9.772 -0.2698 -0.2281 -0.3142
  386MOL0     C53148   1.387   6.242   9.795  0.0435  0.0554  0.2113
  386MOL0     C53149   1.312   6.270   9.898 -0.3893 -0.3465  0.7102
  386MOL0     C53150   1.183   6.199   9.952 -0.1329 -0.1351 -0.6739
  386MOL0     C53151   1.086   6.162   9.843  0.2113 -0.0715  0.6370
  386MOL0     C53152   0.992   6.286   9.800  0.5243  0.1024  0.4035
  386MOL0     C53153   1.068   6.372   9.698 -0.1073 -0.7155 -0.5683
  386MOL0     O53154   1.122   6.298   9.584  0.2743  0.8423  0.0381
  386MOL0     C53155   1.038   6.258   9.483 -0.1977 -0.4297 -0.6255
  386MOL0     C53156   1.096   6.200   9.366  0.0472 -0.5734 -0.0222
  386MOL0     C53157   1.032   6.157   9.248  0.3183 -0.5788  0.5599
  386MOL0     C53158   1.114   6.096   9.140  0.2542 -0.3311  0.4528
  386MOL0     C53159   0.884   6.163   9.250  0.0160  0.6772 -1.0328
  386MOL0     C53160   0.789   6.115   9.136 -1.2802 -0.5981 -0.3849
  386MOL0     O53161   0.652   6.127   9.140  0.3914 -0.3841 -0.5023
  386MOL0     C53162   0.572   6.059   9.050  1.4625  0.7795 -0.5063
  386MOL0     C53163   0.553   6.080   8.911 -0.7454 -0.1156  0.8436
  386MOL0     C53164   0.470   5.987   8.836  0.7780 -0.8125 -0.6647
  386MOL0     C53165   0.419   5.874   8.896 -0.4345  0.4489  0.0252
  386MOL0     O53166   0.342   5.782   8.827 -0.2050  0.3180  0.1042
  386MOL0     C53167   0.414   5.686   8.747  0.1812 -0.8302  0.9853
  386MOL0     C53168   0.451   5.556   8.826 -0.8685  0.1561 -0.6131
  386MOL0     C53169   0.319   5.484   8.846 -0.9098 -0.4144 -0.1529
  386MOL0     C53170   0.332   5.357   8.928  0.7268 -0.0458 -0.3678
  386MOL0     C53171   0.403   5.243   8.845  0.3762  1.3519 -0.5226
  386MOL0     C53172   0.429   5.115   8.932 -0.6304  0.5831 -0.1796
  386MOL0     C53173   0.552   5.143   9.024  0.0316 -0.0579 -1.3525
  386MOL0     C53174   0.557   5.026   9.132  0.3671  0.1361 -0.6803
  386MOL0    Cl53175   0.446   5.069   9.263  0.1118 -0.3315 -0.1535
  386MOL0     C53176   0.443   5.846   9.032 -0.1785  0.2473 -1.1731
  386MOL0     C53177   0.511   5.943   9.107  0.0768  0.3958  0.5919
  386MOL0     O53178   0.840   6.070   9.033  0.1344  0.0595 -0.2587
  386MOL0     C53179   0.820   6.213   9.367 -0.1073 -0.0216 -0.1824
  386MOL0     C53180   0.895   6.265   9.481  0.2024  0.6758 -0.5444
  386MOL0     N53181   1.355   6.396   9.942  0.8153  0.9114 -0.1966
  386MOL0     N53182   1.450   6.437   9.872 -0.7013 -0.6020  0.8368
  386MOL0     C53183   1.525   7.185   9.690 -0.1749 -0.0584 -0.4279
  386MOL0     C53184   1.486   7.233   9.818 -0.1186 -1.0603  0.4772
  386MOL0     C53185   1.224   7.360  10.152 -0.2303 -1.0247  0.0028
  386MOL0     C53186   1.249   7.492  10.175 -0.3193 -0.6435 -1.2152
  386MOL0     C53187   1.208   7.552  10.297  0.4136 -0.0616  0.0729
  386MOL0     C53188   1.152   7.483  10.404 -0.1007 -0.1429 -0.9673
  386MOL0     O53189   1.133   7.530  10.537  0.4884  0.5618  0.2295
  386MOL0     C53190   1.161   7.666  10.561 -1.0314  0.0697  0.1145
  386MOL0     C53191   1.131   7.690  10.714  0.0970  0.1946  0.8482
  386MOL0     C53192   1.090   7.836  10.738  0.0009 -0.5701 -0.4835
  386MOL0     C53193   1.196   7.939  10.758 -0.1242 -0.4524 -0.3971
  386MOL0     C53194   1.279   7.919  10.882  0.4152  0.2386  0.0648
  386MOL0     C53195   1.363   7.885  10.967  0.4960 -0.6868  1.4706
  386MOL0     C53196   1.117   7.347  10.367  0.0166 -0.0773 -0.8064
  386MOL0     C53197   1.150   7.291  10.244 -0.0299 -0.3323 -0.6824
  386MOL0     C53198   1.113   7.144  10.232  0.2234  0.7449  0.8995
  386MOL0     H53199   1.279   7.472   9.706  0.7945  1.1003 -0.5117
  386MOL0     H53200   1.359   7.402   9.487  0.7237 -0.2042 -0.8127
  386MOL0     H53201   1.700   7.085   9.484  1.6707  3.4338 -1.8659
  386MOL0     H53202   1.662   7.118   9.315  0.0483 -1.4974 -0.4196
  386MOL0     H53203   1.472   6.973   9.496 -0.1854 -1.4550 -0.3071
  386MOL0     H53204   1.456   6.979   9.327 -0.9419 -4.2712  0.9342
  386MOL0     H53205   1.655   6.815   9.301 -0.1395 -0.6390  0.3418
  386MOL0     H53206   1.683   6.839   9.480 -0.5692 -3.6180  1.3961
  386MOL0     H53207   1.456   6.747   9.516  1.2811  0.8848 -0.0198
  386MOL0     H53208   1.443   6.692   9.348  3.1242  0.7457 -2.0034
  386MOL0     H53209   1.658   6.584   9.541  0.8980  0.5666 -0.2738
  386MOL0     H53210   1.648   6.559   9.368  4.0762  1.8969  1.4507
  386MOL0     H53211   1.415   6.517   9.575  1.0732 -1.8906  1.9986
  386MOL0     H53212   1.423   6.468   9.399  1.9522  1.9920 -1.4269
  386MOL0     H53213   1.617   6.324   9.465 -1.2334 -0.7982 -2.0447
  386MOL0     H53214   1.453   6.271   9.512 -1.4459  0.8096 -0.5423
  386MOL0     H53215   1.646   6.265   9.695  0.9007  1.4820 -0.9809
  386MOL0     H53216   1.644   6.434   9.694  1.4938 -1.5571 -0.0310
  386MOL0     H53217   1.373   6.149   9.740  1.0526  0.0491 -0.0450
  386MOL0     H53218   1.141   6.263  10.030  3.8836 -1.1543  2.7115
  386MOL0     H53219   1.208   6.100   9.990 -2.1766 -1.9799 -3.7086
  386MOL0     H53220   1.144   6.127   9.757  5.5713  5.1258  1.4863
  386MOL0     H53221   1.018   6.089   9.886  1.2969 -1.5049 -0.0067
  386MOL0     H53222   0.903   6.248   9.750  1.5470  0.3460 -1.6989
  386MOL0     H53223   0.963   6.344   9.889 -0.4113  1.7888 -0.9308
  386MOL0     H53224   0.998   6.451   9.667 -1.5996 -1.6114  0.3955
  386MOL0     H53225   1.154   6.415   9.750  0.1329 -2.2637  0.3667
  386MOL0     H53226   1.204   6.190   9.375  0.1920 -0.3447 -1.3076
  386MOL0     H53227   1.122   6.168   9.058 -0.3995 -0.1663  0.5242
  386MOL0     H53228   1.081   5.997   9.107  1.9835 -0.5564 -0.7541
  386MOL0     H53229   1.215   6.083   9.180  0.5072  2.7650  1.1195
  386MOL0     H53230   0.599   6.167   8.867 -1.6305 -0.3214 -0.5284
  386MOL0     H53231   0.441   6.009   8.734 -1.2431 -1.4206 -0.2523
  386MOL0     H53232   0.350   5.671   8.660  2.2081  1.8704 -1.1844
  386MOL0     H53233   0.500   5.735   8.700 -2.0807  1.6979 -0.8646
  386MOL0     H53234   0.517   5.499   8.761  1.5087  0.7487  1.1792
  386MOL0     H53235   0.496   5.574   8.924 -2.5495 -0.6302  0.3609
  386MOL0     H53236   0.277   5.464   8.747 -1.7065 -1.8292  0.4411
  386MOL0     H53237   0.254   5.555   8.899  2.8212  2.4143  1.1074
  386MOL0     H53238   0.232   5.319   8.952  1.2812 -1.3602 -0.0834
  386MOL0     H53239   0.387   5.372   9.021 -0.7226  2.3904  0.1963
  386MOL0     H53240   0.330   5.211   8.770  1.3166 -0.6907 -0.6332
  386MOL0     H53241   0.498   5.273   8.800  1.9591  0.0716  1.7700
  386MOL0     H53242   0.447   5.034   8.862 -2.9048  0.4730 -0.7286
  386MOL0     H53243   0.338   5.098   8.990 -0.6568  1.1385 -0.0500
  386MOL0     H53244   0.552   5.240   9.075 -1.3295  0.0573 -1.5359
  386MOL0     H53245   0.645   5.133   8.967 -0.0215 -3.5173 -1.0302
  386MOL0     H53246   0.655   5.026   9.180 -1.3803  0.4345  3.2525
  386MOL0     H53247   0.536   4.928   9.087  0.5807  0.7697 -2.2216
  386MOL0     H53248   0.398   5.757   9.076  0.7835 -0.8545 -2.3665
  386MOL0     H53249   0.513   5.922   9.214 -1.7824  0.1099  0.6126
  386MOL0     H53250   0.712   6.209   9.372 -0.2271  2.2249  0.2235
  386MOL0     H53251   0.836   6.300   9.565  0.3145  3.2670 -1.4393
  386MOL0     H53252   1.585   7.094   9.694 -1.1410 -0.6727  0.8488
  386MOL0     H53253   1.518   7.192   9.913  1.2970  0.5347  0.7457
  386MOL0     H53254   1.301   7.544  10.095  0.9612  2.3399  1.3418
  386MOL0     H53255   1.211   7.660  10.312  0.7047 -0.1200  0.4424
  386MOL0     H53256   1.263   7.692  10.532 -1.7068 -1.1608 -3.8882
  386MOL0     H53257   1.091   7.717  10.494 -2.6278 -1.7907  0.2700
  386MOL0     H53258   1.219   7.655  10.769  0.4666 -0.9078 -0.3668
  386MOL0     H53259   1.045   7.632  10.749  1.3162 -3.0155 -1.0030
  386MOL0     H53260   1.031   7.878  10.656 -0.4663  1.0414  0.6435
  386MOL0     H53261   1.015   7.837  10.818  0.0103 -1.4641 -0.4442
  386MOL0     H53262   1.162   8.043  10.762  0.2761 -0.3381  0.1249
  386MOL0     H53263   1.272   7.940  10.679 -0.0311 -2.6136 -0.3943
  386MOL0     H53264   1.425   7.870  11.053 -0.6420  1.6945  2.8154
  386MOL0     H53265   1.060   7.297  10.445  2.8571  1.0127  2.2112
  386MOL0     H53266   1.055   7.115  10.143 -1.0007 -1.6467  2.3630
  386MOL0     H53267   1.204   7.084  10.233 -1.0338 -1.3237 -0.1304
  386MOL0     H53268   1.061   7.104  10.320  2.5590  0.0671  2.0331
  387MOL0     O53269   9.571   2.305   4.277 -0.5723 -0.6542  0.2907
  387MOL0     C53270   9.521   2.405   4.208 -0.0395  0.3516  0.8285
  387MOL0     O53271   9.396   2.407   4.147  0.1238  0.1571  0.0027
  387MOL0     C53272   9.317   2.306   4.186 -0.1280  0.0773  0.3780
  387MOL0     C53273   9.235   2.309   4.294  0.1552 -0.6804  0.0069
  387MOL0     C53274   9.139   2.199   4.314  0.6077  0.1198  0.4579
  387MOL0     C53275   9.135   2.091   4.217 -0.3851 -0.4674  0.2738
  387MOL0     O53276   9.060   1.977   4.248 -0.0437 -0.4442  0.6596
  387MOL0     C53277   9.104   1.856   4.175 -0.7299 -0.0826  0.6722
  387MOL0     C53278   9.043   1.718   4.228  0.1258  1.0448  0.5046
  387MOL0     C53279   8.969   1.706   4.360 -0.8143  0.9607  0.1664
  387MOL0     C53280   8.889   1.576   4.368 -0.6479  0.2429  0.7130
  387MOL0     C53281   8.753   1.592   4.294  0.7974  0.8365  0.1618
  387MOL0     C53282   8.659   1.476   4.324 -0.5400 -0.0400 -0.4882
  387MOL0     C53283   8.738   1.341   4.287  0.2207 -0.0201  0.5850
  387MOL0     C53284   8.640   1.229   4.307 -0.4043 -0.7083  0.8637
  387MOL0     N53285   8.552   1.207   4.192  0.5280  0.4469 -0.5159
  387MOL0     C53286   8.597   1.180   4.064 -0.4854 -0.3434  0.0546
  387MOL0     C53287   8.488   1.141   3.993 -0.1502 -0.1132  0.2407
  387MOL0     C53288   8.489   1.067   3.868 -0.7695  0.0987 -0.5478
  387MOL0     C53289   8.491   0.914   3.882  0.2552  0.3560 -0.0751
  387MOL0     C53290   8.630   0.853   3.880  0.7559  0.1473  0.1214
  387MOL0     C53291   8.610   0.697   3.877 -0.4719 -0.6790 -0.3394
  387MOL0     O53292   8.732   0.630   3.906  0.4278 -1.0829 -0.8134
  387MOL0     C53293   8.835   0.634   3.816  0.4684  0.2043 -0.0796
  387MOL0     C53294   8.831   0.665   3.677  0.6492 -0.3694  0.7876
  387MOL0     C53295   8.947   0.671   3.600  1.2225  0.4877 -0.2285
  387MOL0     C53296   8.929   0.706   3.456  0.6678  0.1549 -0.1255
  387MOL0     C53297   9.078   0.664   3.659  0.2422  0.7340  0.3691
  387MOL0     C53298   9.210   0.719   3.590  1.0143  0.7339 -0.4844
  387MOL0     O53299   9.318   0.717   3.673  0.1780 -0.8582  0.3901
  387MOL0     C53300   9.443   0.713   3.620  0.7830 -0.0252 -0.3276
  387MOL0     C53301   9.541   0.739   3.708 -0.9138 -0.4615  0.0705
  387MOL0     C53302   9.677   0.759   3.682  0.2294  0.6224  0.3602
  387MOL0     C53303   9.728   0.736   3.561 -0.6642 -0.4483 -0.2241
  387MOL0     O53304   9.865   0.739   3.553 -0.5942  0.3718 -0.0152
  387MOL0     C53305   9.919   0.787   3.433  0.3879  0.4044  0.1364
  387MOL0     C53306  10.071   0.801   3.416  0.3269  0.4587 -0.7766
  387MOL0     C53307  10.143   0.847   3.541  0.0991 -0.3892  0.3069
  387MOL0     C53308  10.235   0.740   3.602  0.0251 -0.4951 -0.5742
  387MOL0     C53309  10.358   0.712   3.522  0.2042 -0.0214 -0.9072
  387MOL0     C53310  10.431   0.604   3.598  0.5520 -0.4365 -0.5707
  387MOL0     C53311  10.546   0.548   3.511  0.1568 -0.3665  0.0131
  387MOL0     C53312  10.502   0.429   3.417 -0.0316  0.2685 -1.1719
  387MOL0    Cl53313  10.605   0.413   3.277  0.2399 -0.0646 -0.1012
  387MOL0     C53314   9.639   0.702   3.460  0.5141 -0.3226 -0.4823
  387MOL0     C53315   9.499   0.686   3.491  1.0874  0.5432 -1.5082
  387MOL0     O53316   9.213   0.753   3.473 -0.6242  0.1402  0.2193
  387MOL0     C53317   9.081   0.639   3.803  0.0129 -0.3939 -0.2322
  387MOL0     C53318   8.960   0.626   3.872  0.9077  0.6352 -0.1179
  387MOL0     N53319   8.380   1.157   4.076  1.4473  0.0086  0.1186
  387MOL0     N53320   8.414   1.194   4.202 -0.3400  0.7907  0.8942
  387MOL0     C53321   9.208   2.108   4.101 -0.0053  0.0977  0.2029
  387MOL0     C53322   9.307   2.203   4.090  0.4667 -0.5822  0.5180
  387MOL0     C53323   9.601   2.518   4.171  0.4273 -0.1394  0.5294
  387MOL0     C53324   9.538   2.631   4.133  0.3237 -0.1517 -1.1419
  387MOL0     C53325   9.599   2.758   4.138  0.2235  0.7087  1.0790
  387MOL0     C53326   9.733   2.773   4.162  0.4158 -0.0395  0.0974
  387MOL0     O53327   9.787   2.899   4.161 -0.2264  0.7518 -0.6100
  387MOL0     C53328   9.930   2.921   4.182 -0.4332  0.1585  0.0963
  387MOL0     C53329  10.003   2.913   4.043  0.3126 -0.3731 -0.4104
  387MOL0     C53330   9.958   3.040   3.971  0.3640 -0.6436 -0.3323
  387MOL0     C53331  10.004   3.024   3.834 -1.1117  0.0108  0.8085
  387MOL0     C53332  10.143   3.060   3.821  1.2420  0.4778  0.2742
  387MOL0     C53333  10.260   3.075   3.807 -0.8591  0.1762  1.0836
  387MOL0     C53334   9.800   2.652   4.185  0.0848  0.2716  0.0815
  387MOL0     C53335   9.738   2.527   4.202 -0.0767 -0.2479 -0.1495
  387MOL0     C53336   9.826   2.409   4.240 -0.1617  0.3034  0.3032
  387MOL0     H53337   9.228   2.396   4.358 -0.6239  0.2434 -1.3069
  387MOL0     H53338   9.067   2.197   4.395 -1.1311 -0.0581 -1.0236
  387MOL0     H53339   9.212   1.841   4.179 -0.4610  0.5778 -2.2606
  387MOL0     H53340   9.074   1.855   4.070  0.7388 -1.1155  0.2348
  387MOL0     H53341   8.981   1.682   4.145 -2.2312  0.6004  2.3739
  387MOL0     H53342   9.131   1.653   4.230  1.6821  2.9400 -1.4183
  387MOL0     H53343   9.042   1.703   4.441  0.4567  0.8603 -0.9316
  387MOL0     H53344   8.902   1.791   4.377 -1.9116 -0.2471  2.2455
  387MOL0     H53345   8.948   1.495   4.324 -1.7131 -0.9327  1.3786
  387MOL0     H53346   8.876   1.543   4.471  0.7404  0.6494  1.0445
  387MOL0     H53347   8.757   1.612   4.186  0.9574  3.7906  0.6175
  387MOL0     H53348   8.699   1.680   4.333 -3.1206 -1.3333  0.1474
  387MOL0     H53349   8.635   1.470   4.430  1.8447  0.4617  0.1426
  387MOL0     H53350   8.573   1.479   4.256 -2.8416  2.9128  2.2460
  387MOL0     H53351   8.812   1.318   4.363  1.4917  0.1590 -0.5556
  387MOL0     H53352   8.784   1.326   4.189 -0.3777 -0.5364  0.3734
  387MOL0     H53353   8.690   1.136   4.335  0.7835  0.5097  3.0336
  387MOL0     H53354   8.582   1.251   4.397 -0.2845 -3.7544  1.8051
  387MOL0     H53355   8.692   1.154   4.019  0.9247  3.2055  0.6379
  387MOL0     H53356   8.577   1.092   3.808 -2.0207  0.4138 -2.3235
  387MOL0     H53357   8.402   1.099   3.810 -1.4865  1.2656  1.0804
  387MOL0     H53358   8.440   0.882   3.973 -2.4724 -0.6010 -1.8286
  387MOL0     H53359   8.436   0.865   3.801 -1.3050  1.5376  0.2214
  387MOL0     H53360   8.673   0.883   3.784  0.8397 -1.6863 -0.4538
  387MOL0     H53361   8.693   0.884   3.964  3.6307 -0.5982 -1.6286
  387MOL0     H53362   8.534   0.660   3.946 -1.9623  1.8712 -0.4861
  387MOL0     H53363   8.568   0.663   3.782  0.0545  1.7145 -1.5004
  387MOL0     H53364   8.734   0.672   3.628 -0.5288 -0.8161  2.9520
  387MOL0     H53365   8.826   0.707   3.417  1.4112 -2.1041 -2.4491
  387MOL0     H53366   8.964   0.624   3.391 -2.3479 -1.4188  0.0428
  387MOL0     H53367   8.980   0.797   3.423 -0.5493 -0.1665 -3.3187
  387MOL0     H53368   9.506   0.757   3.809 -0.2391  1.1511  0.0450
  387MOL0     H53369   9.741   0.767   3.770 -2.3190  0.3418  2.3874
  387MOL0     H53370   9.890   0.724   3.348  1.6531  1.3935 -1.0824
  387MOL0     H53371   9.890   0.891   3.417  0.4209  0.0392 -2.8792
  387MOL0     H53372  10.104   0.704   3.380 -1.9205 -0.9156  0.6132
  387MOL0     H53373  10.065   0.880   3.341 -3.8054 -0.2501 -1.4558
  387MOL0     H53374  10.070   0.864   3.621 -1.8720  0.4097 -1.5934
  387MOL0     H53375  10.204   0.934   3.516 -0.0495 -0.0343  1.1267
  387MOL0     H53376  10.174   0.649   3.611 -0.0866 -0.4503 -0.8386
  387MOL0     H53377  10.258   0.769   3.705 -0.2664  0.3838 -0.7486
  387MOL0     H53378  10.345   0.674   3.420 -0.1837 -1.2909 -0.4064
  387MOL0     H53379  10.428   0.796   3.515  1.9918 -1.5311 -2.2562
  387MOL0     H53380  10.369   0.516   3.622 -0.7242 -0.1091 -2.4810
  387MOL0     H53381  10.483   0.654   3.680  2.5992 -1.5058 -1.1473
  387MOL0     H53382  10.617   0.503   3.581 -1.7318 -2.0139  0.9768
  387MOL0     H53383  10.594   0.625   3.451 -1.9052  2.8229  2.1151
  387MOL0     H53384  10.396   0.439   3.391 -0.7715 -3.9530 -0.5194
  387MOL0     H53385  10.516   0.345   3.487 -0.5563  0.2065 -1.1359
  387MOL0     H53386   9.685   0.668   3.368  0.5740  1.3580 -1.1031
  387MOL0     H53387   9.430   0.642   3.420 -2.5497  0.0377  1.9862
  387MOL0     H53388   9.176   0.633   3.854 -0.1895 -1.1978  0.0632
  387MOL0     H53389   8.946   0.594   3.975 -2.5331 -1.3006 -1.0115
  387MOL0     H53390   9.192   2.040   4.017 -2.5695 -1.6334  1.9700
  387MOL0     H53391   9.381   2.201   4.010 -2.7137 -1.9306 -2.6578
  387MOL0     H53392   9.435   2.629   4.099  0.3889 -0.0427 -1.3493
  387MOL0     H53393   9.552   2.853   4.114  4.1526  2.4779 -0.6081
  387MOL0     H53394   9.945   3.020   4.225  1.6597 -0.1586  0.1919
  387MOL0     H53395   9.971   2.852   4.256 -0.2493 -0.2265 -0.3594
  387MOL0     H53396   9.973   2.826   3.985  0.7541 -0.3405 -0.6859
  387MOL0     H53397  10.112   2.912   4.046  0.4764  3.3647  1.1826
  387MOL0     H53398   9.849   3.032   3.972  0.4502 -2.5171  1.1162
  387MOL0     H53399   9.996   3.132   4.015 -1.4888 -0.7284  1.6393
  387MOL0     H53400   9.942   3.072   3.757 -0.4499 -0.8502 -0.2931
  387MOL0     H53401  10.007   2.917   3.811  0.2407  0.6284 -2.3935
  387MOL0     H53402  10.366   3.087   3.808 -1.1222  3.3733  1.6976
  387MOL0     H53403   9.908   2.656   4.197 -0.0430  2.3542  1.0574
  387MOL0     H53404   9.812   2.392   4.347 -1.2919  0.5020  0.1965
  387MOL0     H53405   9.793   2.323   4.181  0.0588 -0.9608  1.9649
  387MOL0     H53406   9.932   2.434   4.229 -0.3741  2.6388  2.5874
  388MOL0     O53407   2.916   1.938   1.750 -0.2882 -0.5277  0.2397
  388MOL0     C53408   2.883   1.975   1.866  0.7089  1.2335  0.6547
  388MOL0     O53409   2.935   1.921   1.977  0.1307 -0.3565 -0.8673
  388MOL0     C53410   3.030   1.829   1.962 -1.1328 -0.3440 -0.4793
  388MOL0     C53411   3.027   1.693   1.935 -0.3150 -0.1902  0.5472
  388MOL0     C53412   3.146   1.610   1.931  0.0827 -0.7284  0.1856
  388MOL0     C53413   3.269   1.671   1.964  0.0522 -0.1738 -1.2387
  388MOL0     O53414   3.372   1.587   1.968  0.3132 -0.0746 -0.4502
  388MOL0     C53415   3.494   1.645   1.924 -0.4151 -0.1312 -0.9314
  388MOL0     C53416   3.514   1.669   1.776  0.6592 -0.1822  0.3555
  388MOL0     C53417   3.510   1.536   1.689 -0.5694 -0.8268 -0.5261
  388MOL0     C53418   3.612   1.543   1.573  0.1200 -0.0519  0.4693
  388MOL0     C53419   3.600   1.436   1.480  0.1447  1.1788 -0.2169
  388MOL0     C53420   3.636   1.479   1.335  0.3872  0.1418 -0.2767
  388MOL0     C53421   3.510   1.527   1.267  0.3224 -0.7225 -0.4096
  388MOL0     C53422   3.537   1.577   1.122  0.1785 -0.2675 -0.7689
  388MOL0     N53423   3.612   1.702   1.110  0.4002  0.5934 -0.7728
  388MOL0     C53424   3.752   1.703   1.123 -0.9304  0.2977  0.0045
  388MOL0     C53425   3.785   1.823   1.176 -0.0314  0.2971  0.5348
  388MOL0     C53426   3.920   1.848   1.224  1.2853 -0.2384  0.2466
  388MOL0     C53427   4.015   1.908   1.132 -0.7107 -0.2698 -0.1576
  388MOL0     C53428   4.153   1.922   1.191  0.7114 -0.4141  0.2529
  388MOL0     C53429   4.246   2.007   1.094  0.8521 -0.3145 -0.4318
  388MOL0     O53430   4.251   1.931   0.972 -0.8361 -0.5427  0.0103
  388MOL0     C53431   4.366   1.916   0.902 -0.1966  0.7046  0.1791
  388MOL0     C53432   4.362   1.801   0.817 -0.2200 -0.6577  0.2158
  388MOL0     C53433   4.464   1.778   0.727 -1.6173  0.3944 -0.0467
  388MOL0     C53434   4.459   1.645   0.660  0.5370 -0.3605 -0.0220
  388MOL0     C53435   4.582   1.862   0.730  0.6957  0.0652  0.4696
  388MOL0     C53436   4.688   1.853   0.629  0.6558  0.3817 -0.0253
  388MOL0     O53437   4.661   1.788   0.514 -0.5625 -0.3573  0.8467
  388MOL0     C53438   4.748   1.827   0.413 -0.4271  0.5747  0.4527
  388MOL0     C53439   4.745   1.962   0.361 -0.0076  0.9830  0.4026
  388MOL0     C53440   4.820   1.995   0.250 -0.3390 -1.0978  0.4702
  388MOL0     C53441   4.905   1.888   0.192  0.1703 -1.0813 -0.3579
  388MOL0     O53442   4.998   1.899   0.099  0.0222  0.8222 -0.2967
  388MOL0     C53443   5.080   2.005   0.105 -0.9292 -0.2896 -0.3709
  388MOL0     C53444   5.216   1.971   0.037 -0.4731  0.5935 -0.0297
  388MOL0     C53445   5.294   2.097  -0.009 -0.3829  0.6499  0.4018
  388MOL0     C53446   5.407   2.048  -0.114  0.3101 -0.5183 -0.6392
  388MOL0     C53447   5.503   2.157  -0.129  0.7709  0.7456  0.7744
  388MOL0     C53448   5.584   2.121  -0.255  0.0098 -0.1752 -0.4506
  388MOL0     C53449   5.663   2.243  -0.286 -0.2255 -0.1076  0.1090
  388MOL0     C53450   5.743   2.225  -0.414 -0.2919 -0.0884  0.4064
  388MOL0    Cl53451   5.643   2.240  -0.562 -0.5192 -0.5207  0.0164
  388MOL0     C53452   4.899   1.755   0.247 -0.2860 -1.2189  0.2375
  388MOL0     C53453   4.818   1.721   0.345  0.2309 -0.1525 -0.4228
  388MOL0     O53454   4.791   1.899   0.664  0.0071  0.1901  0.4963
  388MOL0     C53455   4.578   1.974   0.812 -0.4709  0.5804  0.5594
  388MOL0     C53456   4.471   2.005   0.896  1.1759  0.2883  0.4917
  388MOL0     N53457   3.667   1.891   1.199 -0.0819 -0.1800  0.0269
  388MOL0     N53458   3.569   1.819   1.157 -0.0265  0.5695 -1.1644
  388MOL0     C53459   3.269   1.808   1.997 -0.4257  0.4538 -0.0040
  388MOL0     C53460   3.153   1.888   2.000 -1.0122  0.4684 -0.0209
  388MOL0     C53461   2.751   2.052   1.860 -0.1115 -0.1352 -0.0216
  388MOL0     C53462   2.701   2.098   1.739 -0.0164  0.4109  0.0536
  388MOL0     C53463   2.581   2.158   1.727  0.2585 -0.1450  0.0875
  388MOL0     C53464   2.512   2.202   1.842 -0.6376  0.0709  0.3036
  388MOL0     O53465   2.394   2.267   1.836  0.2806  0.8153  0.3447
  388MOL0     C53466   2.368   2.340   1.717 -0.4991 -0.2238 -0.0364
  388MOL0     C53467   2.261   2.452   1.738  0.1116  0.0618 -0.3932
  388MOL0     C53468   2.204   2.494   1.596  0.5878  0.3186 -0.3032
  388MOL0     C53469   2.140   2.632   1.597 -0.0658  0.5139 -0.5961
  388MOL0     C53470   2.253   2.730   1.602  0.2125 -0.5136  0.0159
  388MOL0     C53471   2.330   2.810   1.598 -0.4762 -0.2027 -0.1085
  388MOL0     C53472   2.569   2.171   1.965  0.2382 -0.3088 -0.1210
  388MOL0     C53473   2.681   2.087   1.974 -0.1156  0.6832 -0.4704
  388MOL0     C53474   2.723   2.055   2.114 -0.5936  0.6146  0.4226
  388MOL0     H53475   2.935   1.642   1.910 -1.1056  0.2052  2.4827
  388MOL0     H53476   3.126   1.505   1.911 -0.5303 -0.6935  0.5765
  388MOL0     H53477   3.559   1.560   1.949 -1.2508 -1.2299 -2.3044
  388MOL0     H53478   3.529   1.723   1.991 -0.9274 -3.3992  3.6125
  388MOL0     H53479   3.437   1.735   1.734  2.5608  1.6835 -0.3596
  388MOL0     H53480   3.613   1.711   1.756  0.1679  0.2581 -1.3333
  388MOL0     H53481   3.535   1.448   1.749  0.9049  1.7540  2.9232
  388MOL0     H53482   3.406   1.521   1.657 -2.0399  2.4545  2.1557
  388MOL0     H53483   3.601   1.641   1.526 -0.5962 -0.2662  0.1740
  388MOL0     H53484   3.715   1.539   1.611 -0.7357 -2.2731  2.8636
  388MOL0     H53485   3.496   1.403   1.472 -0.1452  2.0360 -0.0916
  388MOL0     H53486   3.656   1.350   1.516 -0.0718  1.4136  0.7142
  388MOL0     H53487   3.700   1.566   1.348 -0.4424  0.5711  1.2472
  388MOL0     H53488   3.691   1.405   1.276  0.6785  1.3696 -1.5931
  388MOL0     H53489   3.462   1.605   1.326 -1.1475 -1.1201 -1.0321
  388MOL0     H53490   3.440   1.443   1.266 -0.9760  0.3067  0.7713
  388MOL0     H53491   3.592   1.502   1.065  0.8937 -1.3592  1.2344
  388MOL0     H53492   3.444   1.594   1.067  0.4274 -1.7426 -1.7079
  388MOL0     H53493   3.819   1.623   1.094 -1.9367  0.3519 -2.7756
  388MOL0     H53494   3.959   1.752   1.260  0.6867  0.2861  2.4535
  388MOL0     H53495   3.908   1.909   1.314 -2.7943  0.4329 -0.5452
  388MOL0     H53496   4.018   1.853   1.037 -3.2798  0.8047 -0.9448
  388MOL0     H53497   3.968   2.005   1.112 -4.2859 -1.5086  1.5035
  388MOL0     H53498   4.155   1.970   1.289 -1.8876 -1.8824  1.1307
  388MOL0     H53499   4.197   1.822   1.192  0.3752 -0.6262 -1.4157
  388MOL0     H53500   4.189   2.098   1.074 -0.6132 -0.9517  0.6061
  388MOL0     H53501   4.344   2.029   1.136  1.9846 -0.6805 -2.6867
  388MOL0     H53502   4.273   1.739   0.830 -0.0746 -1.0469 -0.5866
  388MOL0     H53503   4.459   1.662   0.552  1.8237 -2.3286 -0.3904
  388MOL0     H53504   4.371   1.582   0.674 -0.5560  1.2969  0.7584
  388MOL0     H53505   4.549   1.584   0.677  1.3533  0.8770  0.2605
  388MOL0     H53506   4.684   2.021   0.429 -1.2902  2.0195 -1.5723
  388MOL0     H53507   4.824   2.096   0.209  7.0312 -0.9315  0.2894
  388MOL0     H53508   5.038   2.092   0.054  3.2786  2.1393 -0.2063
  388MOL0     H53509   5.101   2.035   0.208 -1.2595  0.9990 -0.6566
  388MOL0     H53510   5.278   1.904   0.098 -0.7569  0.0312 -0.3509
  388MOL0     H53511   5.186   1.912  -0.050  0.0738  3.2252 -2.1154
  388MOL0     H53512   5.335   2.149   0.078  0.8073  0.0225  0.2227
  388MOL0     H53513   5.230   2.167  -0.064  0.0529  0.5283 -0.2760
  388MOL0     H53514   5.357   2.037  -0.211 -1.3367  1.9390 -0.1599
  388MOL0     H53515   5.449   1.951  -0.087  2.0445  0.5291  0.6296
  388MOL0     H53516   5.462   2.258  -0.136  1.3607  0.9219 -0.4550
  388MOL0     H53517   5.566   2.163  -0.040  3.1433  1.6389 -0.8649
  388MOL0     H53518   5.520   2.100  -0.341 -3.5510  2.3890  1.2925
  388MOL0     H53519   5.651   2.040  -0.228 -0.8226 -1.1433 -1.1962
  388MOL0     H53520   5.731   2.264  -0.203 -2.3330  0.0358  1.9033
  388MOL0     H53521   5.607   2.335  -0.302 -0.7406 -0.6547 -1.3685
  388MOL0     H53522   5.768   2.118  -0.419 -2.7599 -0.6954 -0.2966
  388MOL0     H53523   5.836   2.281  -0.400 -2.4910  3.0076  4.7582
  388MOL0     H53524   4.946   1.680   0.184 -0.7088 -2.1001  0.9395
  388MOL0     H53525   4.808   1.614   0.361  0.0594 -0.0678  0.0742
  388MOL0     H53526   4.659   2.046   0.809  0.7437 -0.5412  3.2107
  388MOL0     H53527   4.465   2.099   0.950  2.8483  0.1742  0.9404
  388MOL0     H53528   3.364   1.856   2.020 -0.1516  0.5851 -1.3393
  388MOL0     H53529   3.153   1.994   2.023 -3.0817  0.3882  0.5497
  388MOL0     H53530   2.763   2.088   1.650  0.3055  2.5061 -0.0013
  388MOL0     H53531   2.541   2.189   1.631 -0.5292 -4.8195 -1.3185
  388MOL0     H53532   2.460   2.393   1.694 -0.2228  0.1260  1.6907
  388MOL0     H53533   2.342   2.266   1.641 -0.7866  0.0996 -0.2504
  388MOL0     H53534   2.303   2.539   1.789  1.5585 -0.7077 -0.2347
  388MOL0     H53535   2.174   2.412   1.791 -0.1377  1.0326 -0.0555
  388MOL0     H53536   2.280   2.487   1.517  0.7727 -1.5894 -0.0144
  388MOL0     H53537   2.133   2.416   1.566  1.8861 -0.7840 -0.6394
  388MOL0     H53538   2.081   2.638   1.689 -0.4548  1.5244 -0.8958
  388MOL0     H53539   2.069   2.650   1.515  0.9105 -1.6277 -2.0084
  388MOL0     H53540   2.409   2.880   1.575  0.5863 -2.2355 -3.2786
  388MOL0     H53541   2.524   2.225   2.048 -1.2241 -0.7756 -0.5753
  388MOL0     H53542   2.646   2.064   2.191  0.8077 -0.4692  2.0394
  388MOL0     H53543   2.752   1.949   2.113  1.3345  1.0727 -2.6553
  388MOL0     H53544   2.810   2.116   2.139 -0.7956  3.1368 -3.9700
  389MOL0     O53545  10.886   0.910   3.449  0.0326 -0.3547  0.0974
  389MOL0     C53546  10.965   0.902   3.364 -0.1381 -0.3930  0.2147
  389MOL0     O53547  10.949   0.939   3.228  0.0948 -0.6412 -0.3454
  389MOL0     C53548  10.820   0.962   3.189 -0.2829 -0.1043  0.3374
  389MOL0     C53549  10.795   1.088   3.132  0.6215 -0.1772 -0.0690
  389MOL0     C53550  10.664   1.100   3.086 -1.2029 -0.0914  0.5148
  389MOL0     C53551  10.557   1.003   3.107  0.0265 -1.1621  0.8576
  389MOL0     O53552  10.429   1.040   3.066 -0.0355  0.0172  1.1809
  389MOL0     C53553  10.365   0.946   2.977  0.3329 -0.1726 -1.0105
  389MOL0     C53554  10.377   0.986   2.828 -0.2059 -0.1921 -0.2890
  389MOL0     C53555  10.364   0.860   2.724 -0.6268 -0.4931  0.1369
  389MOL0     C53556  10.324   0.905   2.581 -0.2562  0.3472 -0.0579
  389MOL0     C53557  10.318   0.785   2.481  0.7752 -0.3448  0.5060
  389MOL0     C53558  10.279   0.830   2.344  0.7674 -0.4773  1.4712
  389MOL0     C53559  10.277   0.705   2.248 -0.1416 -0.1778  0.5933
  389MOL0     C53560  10.255   0.742   2.110  0.8774 -0.3683  0.5048
  389MOL0     N53561  10.113   0.783   2.092 -0.9292  0.0981 -0.4647
  389MOL0     C53562  10.019   0.696   2.057 -0.1023 -0.1443 -0.3632
  389MOL0     C53563   9.917   0.775   2.025  0.6758 -0.1184  0.6024
  389MOL0     C53564   9.778   0.746   1.988 -0.1380  0.5953 -0.1391
  389MOL0     C53565   9.757   0.600   1.959  0.3746  0.3768  0.1734
  389MOL0     C53566   9.623   0.571   1.872 -0.5504 -0.0649 -0.3147
  389MOL0     C53567   9.629   0.608   1.724 -0.1120  0.3275 -0.5255
  389MOL0     O53568   9.543   0.532   1.635 -0.1319 -0.2532 -0.0456
  389MOL0     C53569   9.562   0.398   1.603 -0.6572 -0.7183  0.4420
  389MOL0     C53570   9.666   0.321   1.651 -0.7826 -0.1263  0.5522
  389MOL0     C53571   9.677   0.181   1.611  0.5631 -0.5050  1.2901
  389MOL0     C53572   9.802   0.113   1.652 -0.3062  0.2332 -0.3477
  389MOL0     C53573   9.565   0.120   1.536  0.4425 -0.6171 -0.1973
  389MOL0     C53574   9.554  -0.007   1.476  0.0037  0.4213  0.2777
  389MOL0     O53575   9.435  -0.059   1.417 -0.8853 -0.3508  0.0730
  389MOL0     C53576   9.403  -0.198   1.411  0.6018 -0.4431  0.5658
  389MOL0     C53577   9.322  -0.255   1.305 -1.2694  0.1097 -0.0187
  389MOL0     C53578   9.296  -0.385   1.295 -0.1646 -0.1160 -0.0119
  389MOL0     C53579   9.364  -0.483   1.371  0.0629  0.5902  0.6865
  389MOL0     O53580   9.350  -0.619   1.347 -0.4921  0.0071  0.6640
  389MOL0     C53581   9.387  -0.710   1.456  0.2178  1.4429  0.8557
  389MOL0     C53582   9.367  -0.851   1.395  0.0569 -0.4842 -0.2376
  389MOL0     C53583   9.218  -0.885   1.363 -0.1986 -0.7949 -0.4368
  389MOL0     C53584   9.219  -0.997   1.258  0.0280  0.3731 -0.4585
  389MOL0     C53585   9.079  -1.036   1.205 -0.1337 -1.2268 -0.2616
  389MOL0     C53586   9.009  -1.108   1.322 -0.0279 -0.2216  0.9908
  389MOL0     C53587   8.854  -1.112   1.296 -0.0079 -0.0739  0.9497
  389MOL0     C53588   8.813  -1.178   1.169  0.0787 -0.1466 -0.0264
  389MOL0    Cl53589   8.880  -1.344   1.140  0.5818 -0.1421 -0.3692
  389MOL0     C53590   9.450  -0.429   1.467  0.7681 -0.7062 -0.6375
  389MOL0     C53591   9.468  -0.294   1.495  0.0690  0.0988 -0.1734
  389MOL0     O53592   9.655  -0.075   1.490 -0.3790 -1.0842 -0.4067
  389MOL0     C53593   9.456   0.202   1.518 -1.3200 -0.3015  0.8347
  389MOL0     C53594   9.456   0.341   1.537  0.2937  0.0917  1.3924
  389MOL0     N53595   9.950   0.908   2.051  0.3349  0.1222 -0.0863
  389MOL0     N53596  10.072   0.907   2.092  0.1863 -0.7312  0.3836
  389MOL0     C53597  10.591   0.882   3.166 -0.4578 -0.5074 -1.2278
  389MOL0     C53598  10.722   0.863   3.215  0.1041 -0.0466  0.1608
  389MOL0     C53599  11.098   0.877   3.406 -0.0982 -0.1450  0.0398
  389MOL0     C53600  11.191   0.977   3.377 -0.6240  0.2991 -0.0656
  389MOL0     C53601  11.325   0.955   3.399  0.4510 -0.4286 -0.9218
  389MOL0     C53602  11.372   0.854   3.468 -0.2289 -0.0311 -0.2201
  389MOL0     O53603  11.502   0.844   3.501 -0.0335  0.7554 -0.5330
  389MOL0     C53604  11.605   0.906   3.416  0.0292 -0.0517  0.6707
  389MOL0     C53605  11.610   0.855   3.265  0.0209  0.7101 -0.1766
  389MOL0     C53606  11.603   0.709   3.246  0.2396  0.1801 -0.1803
  389MOL0     C53607  11.746   0.653   3.236  0.6760 -0.8533  0.0871
  389MOL0     C53608  11.745   0.509   3.212 -0.0309 -0.2732 -0.2576
  389MOL0     C53609  11.740   0.397   3.172  1.1516  0.1682  0.4926
  389MOL0     C53610  11.279   0.751   3.514 -0.2628  0.1426  0.6792
  389MOL0     C53611  11.135   0.770   3.487 -1.4527  0.0019 -0.0100
  389MOL0     C53612  11.036   0.666   3.538  0.2724 -0.6030  0.6853
  389MOL0     H53613  10.876   1.158   3.116  0.2778  0.4594  0.9496
  389MOL0     H53614  10.634   1.191   3.035  3.6107  1.4963  0.0180
  389MOL0     H53615  10.258   0.927   2.989 -0.6664  1.2884 -5.6156
  389MOL0     H53616  10.405   0.846   2.998 -0.6142 -0.6335 -1.3317
  389MOL0     H53617  10.295   1.055   2.807 -1.1922 -0.5975  1.8668
  389MOL0     H53618  10.463   1.048   2.803 -0.7701  0.4404 -0.6699
  389MOL0     H53619  10.444   0.785   2.730 -0.8023 -0.6941 -0.0188
  389MOL0     H53620  10.280   0.805   2.766 -0.1628 -1.0526  0.3587
  389MOL0     H53621  10.224   0.947   2.597  0.1448  0.1992  3.6815
  389MOL0     H53622  10.389   0.982   2.536  1.6360 -0.5425  1.0536
  389MOL0     H53623  10.244   0.710   2.510  2.7797 -2.5597  0.2862
  389MOL0     H53624  10.414   0.733   2.486 -0.0614 -1.8405  2.0452
  389MOL0     H53625  10.174   0.859   2.349 -0.6356 -4.5394  0.1658
  389MOL0     H53626  10.347   0.905   2.304 -3.1170  1.9200 -1.2578
  389MOL0     H53627  10.195   0.639   2.278 -0.5002  0.1677  0.3777
  389MOL0     H53628  10.370   0.648   2.254  0.6905  1.0104 -0.3665
  389MOL0     H53629  10.313   0.825   2.067  0.2040  0.1202  0.5205
  389MOL0     H53630  10.290   0.666   2.040  1.8979  1.2635 -0.8316
  389MOL0     H53631  10.019   0.588   2.043 -1.3408 -0.5698  2.3262
  389MOL0     H53632   9.756   0.801   1.896 -6.2736 -2.1972 -0.8664
  389MOL0     H53633   9.704   0.775   2.063 -0.9570 -0.1315 -0.6498
  389MOL0     H53634   9.838   0.549   1.907  0.2842  1.2980 -0.9024
  389MOL0     H53635   9.738   0.562   2.060  4.2125 -1.0879  0.5282
  389MOL0     H53636   9.602   0.464   1.878  0.5025 -0.1849  2.7724
  389MOL0     H53637   9.540   0.629   1.912  1.7823  1.8741  2.0984
  389MOL0     H53638   9.589   0.710   1.732  1.5497  0.8479  4.0098
  389MOL0     H53639   9.732   0.608   1.686  0.3525 -0.5738  0.6704
  389MOL0     H53640   9.756   0.362   1.697  0.0959 -1.7785  0.4010
  389MOL0     H53641   9.790   0.007   1.675 -2.9590  0.6290  0.3904
  389MOL0     H53642   9.833   0.153   1.750 -2.3706  3.5970 -0.9216
  389MOL0     H53643   9.880   0.130   1.577 -0.4240 -2.7630 -1.2903
  389MOL0     H53644   9.277  -0.187   1.234  0.8079  2.2355  0.5733
  389MOL0     H53645   9.239  -0.418   1.209  0.1792 -1.1511  0.1458
  389MOL0     H53646   9.491  -0.696   1.488  1.8114 -4.4693 -0.5826
  389MOL0     H53647   9.323  -0.699   1.544 -1.4740 -0.0174 -0.1184
  389MOL0     H53648   9.414  -0.854   1.297  2.8195 -1.0011  1.0203
  389MOL0     H53649   9.403  -0.934   1.457 -3.4173 -3.4017 -1.7229
  389MOL0     H53650   9.176  -0.794   1.319 -3.0333 -1.4412  0.7084
  389MOL0     H53651   9.158  -0.905   1.452 -0.8339  0.2070 -0.6208
  389MOL0     H53652   9.271  -1.082   1.303 -0.7978  0.3042  0.3872
  389MOL0     H53653   9.283  -0.974   1.172  1.4673 -2.0500 -0.1423
  389MOL0     H53654   9.025  -0.943   1.186  1.1751  0.2120  2.3188
  389MOL0     H53655   9.087  -1.095   1.114  1.6777  0.3519 -1.1988
  389MOL0     H53656   9.023  -1.056   1.417  0.1517 -0.8638  1.3179
  389MOL0     H53657   9.048  -1.209   1.333 -0.2940 -0.1946  2.2831
  389MOL0     H53658   8.817  -1.009   1.302  0.9045  0.2264  1.8029
  389MOL0     H53659   8.806  -1.180   1.367 -0.1915 -2.5836 -1.4253
  389MOL0     H53660   8.840  -1.110   1.088  2.4324 -2.6733 -1.5594
  389MOL0     H53661   8.704  -1.183   1.160  0.2368 -0.8276 -1.9229
  389MOL0     H53662   9.511  -0.485   1.536 -0.0870 -2.1174 -0.9937
  389MOL0     H53663   9.541  -0.262   1.569  0.9484  1.9850 -1.7329
  389MOL0     H53664   9.372   0.168   1.458  0.2431 -0.8423 -1.1553
  389MOL0     H53665   9.370   0.400   1.506  0.2581 -1.0417 -0.9145
  389MOL0     H53666  10.517   0.806   3.189 -0.4502 -0.3941 -0.8344
  389MOL0     H53667  10.746   0.774   3.272 -0.9742  0.5116  1.5606
  389MOL0     H53668  11.159   1.069   3.329 -0.3841 -1.1340 -3.2169
  389MOL0     H53669  11.389   1.031   3.356 -2.7565  1.5745 -2.5350
  389MOL0     H53670  11.593   1.013   3.434  0.1740 -0.3133  2.5827
  389MOL0     H53671  11.706   0.876   3.446  0.7950 -0.1005 -1.7051
  389MOL0     H53672  11.696   0.903   3.216 -0.3284  0.9321 -0.5722
  389MOL0     H53673  11.532   0.904   3.207 -1.2854 -0.7309  0.3123
  389MOL0     H53674  11.555   0.666   3.334 -0.4990 -1.7083 -1.4287
  389MOL0     H53675  11.549   0.682   3.154 -3.1228 -1.6490  2.0946
  389MOL0     H53676  11.805   0.680   3.324 -1.3018 -1.1449  1.5673
  389MOL0     H53677  11.787   0.710   3.152 -0.6035 -1.2977 -0.8717
  389MOL0     H53678  11.727   0.292   3.155 -3.3915  0.6123  0.1044
  389MOL0     H53679  11.318   0.655   3.546 -0.9964 -1.0003 -1.5981
  389MOL0     H53680  10.975   0.623   3.458 -1.2751  2.4628  0.0693
  389MOL0     H53681  11.083   0.580   3.588  1.2950  0.0666  0.9026
  389MOL0     H53682  10.969   0.724   3.602  0.7531  2.0984 -1.1309
  390MOL0     O53683  11.467   2.628   1.469  1.0438 -0.3607 -0.5614
  390MOL0     C53684  11.404   2.575   1.374 -0.6523 -0.1133 -0.6902
  390MOL0     O53685  11.418   2.632   1.251  0.6253 -0.7394  0.5585
  390MOL0     C53686  11.458   2.767   1.234  0.4882  0.5152  0.7138
  390MOL0     C53687  11.550   2.812   1.140  0.7242 -0.2735  0.6373
  390MOL0     C53688  11.581   2.942   1.121  0.2801 -0.1112 -0.1445
  390MOL0     C53689  11.534   3.037   1.201  1.2031 -0.4116 -0.1321
  390MOL0     O53690  11.573   3.165   1.181  0.1986 -0.3334 -0.3280
  390MOL0     C53691  11.621   3.205   1.049  0.1266 -0.0549  1.1148
  390MOL0     C53692  11.672   3.355   1.053 -0.1456  0.1197  0.1900
  390MOL0     C53693  11.664   3.443   0.931 -0.0229 -0.6525  0.1313
  390MOL0     C53694  11.756   3.395   0.811  0.8756 -0.0751  0.7886
  390MOL0     C53695  11.763   3.504   0.699  0.6048  0.1342 -0.0135
  390MOL0     C53696  11.869   3.454   0.602 -0.6679  0.0394  0.5650
  390MOL0     C53697  11.877   3.531   0.473 -0.3005 -0.1559 -0.4980
  390MOL0     C53698  11.751   3.533   0.386 -0.0475 -0.7383 -0.0844
  390MOL0     N53699  11.688   3.403   0.367 -0.0991 -1.0228 -0.3868
  390MOL0     C53700  11.549   3.381   0.380  0.1368 -0.9786  1.1348
  390MOL0     C53701  11.526   3.249   0.353  0.1113  0.5099 -0.9719
  390MOL0     C53702  11.385   3.186   0.367 -0.0370 -0.0383  0.2442
  390MOL0     C53703  11.350   3.132   0.505 -0.3155 -0.1092  0.7397
  390MOL0     C53704  11.453   3.023   0.544  0.6978  0.0624  0.6871
  390MOL0     C53705  11.394   2.926   0.655  0.3343 -0.6176  1.1942
  390MOL0     O53706  11.365   3.017   0.763  0.1621 -0.2025 -0.6840
  390MOL0     C53707  11.293   2.965   0.874 -0.5922  0.3569  1.3621
  390MOL0     C53708  11.270   3.070   0.967  0.1009  0.7241 -0.1275
  390MOL0     C53709  11.187   3.037   1.081 -0.7793 -0.4595  1.2171
  390MOL0     C53710  11.171   3.148   1.175  0.2112  0.3016  0.5144
  390MOL0     C53711  11.133   2.910   1.090 -1.1993  0.7137  1.2367
  390MOL0     C53712  11.037   2.868   1.194 -0.3227  0.0481 -0.6551
  390MOL0     O53713  11.043   2.903   1.323 -0.9303  0.6258  0.4177
  390MOL0     C53714  10.947   2.847   1.411 -0.0635 -0.2670  0.3018
  390MOL0     C53715  10.956   2.709   1.442 -0.0247 -0.0202  0.7820
  390MOL0     C53716  10.849   2.657   1.522  0.1815  0.8200 -0.4228
  390MOL0     C53717  10.755   2.735   1.582  1.1166 -0.0342  0.2993
  390MOL0     O53718  10.653   2.673   1.644  0.5450  0.1011 -0.3228
  390MOL0     C53719  10.576   2.734   1.748 -0.5453 -0.7599  0.1995
  390MOL0     C53720  10.519   2.610   1.822 -0.2955  0.7030  0.1114
  390MOL0     C53721  10.638   2.527   1.892  0.8190  0.0601  0.0909
  390MOL0     C53722  10.734   2.606   1.986 -0.9149 -0.2633 -0.2918
  390MOL0     C53723  10.779   2.503   2.087 -0.1954 -1.1343 -0.5953
  390MOL0     C53724  10.897   2.544   2.167 -0.2261  0.1782 -0.5807
  390MOL0     C53725  10.873   2.660   2.270 -0.5060  0.7141 -1.3930
  390MOL0     C53726  10.985   2.663   2.380 -0.0876  0.4683 -0.5193
  390MOL0    Cl53727  11.136   2.671   2.295  0.2279 -0.3769  0.0615
  390MOL0     C53728  10.761   2.878   1.561  0.3995  0.1570 -0.2525
  390MOL0     C53729  10.856   2.926   1.474 -0.2282 -0.3309 -0.0336
  390MOL0     O53730  10.949   2.791   1.152 -0.0738 -0.1733  0.5152
  390MOL0     C53731  11.176   2.804   0.998 -0.8719 -0.3332 -0.5550
  390MOL0     C53732  11.263   2.835   0.893  0.3936 -0.9623 -0.2350
  390MOL0     N53733  11.644   3.192   0.318 -0.4774  1.0200 -0.4303
  390MOL0     N53734  11.735   3.281   0.321 -1.3656  0.4974  0.6306
  390MOL0     C53735  11.448   3.000   1.315 -0.9181  0.2248 -0.2149
  390MOL0     C53736  11.414   2.866   1.323  0.4396  0.7587 -0.1290
  390MOL0     C53737  11.322   2.449   1.405 -0.2903 -0.3721  0.0960
  390MOL0     C53738  11.353   2.378   1.527 -0.9961 -0.0828 -0.0393
  390MOL0     C53739  11.284   2.262   1.558 -0.3741  0.2567 -0.1630
  390MOL0     C53740  11.187   2.217   1.486  0.3453  0.0753 -0.4928
  390MOL0     O53741  11.124   2.100   1.521 -0.3175 -0.0189 -0.1116
  390MOL0     C53742  11.054   2.017   1.430  0.2636  0.4202  0.4247
  390MOL0     C53743  10.968   1.912   1.513  0.1114 -0.3830  0.8018
  390MOL0     C53744  10.991   1.900   1.668 -0.4421  0.2781 -0.3799
  390MOL0     C53745  10.932   1.770   1.715 -0.2537 -0.6948  0.0921
  390MOL0     C53746  11.004   1.659   1.655 -0.1395  0.2882 -0.3573
  390MOL0     C53747  11.074   1.568   1.608  0.0754 -0.6372  0.5448
  390MOL0     C53748  11.154   2.286   1.368  0.0681 -0.3300  1.2975
  390MOL0     C53749  11.223   2.406   1.322  0.3468 -0.1380 -0.2284
  390MOL0     C53750  11.175   2.468   1.192  0.5289 -0.6064  0.5276
  390MOL0     H53751  11.597   2.733   1.082  3.2027  0.4653  1.5184
  390MOL0     H53752  11.629   2.950   1.024 -1.7974  1.0385 -1.1510
  390MOL0     H53753  11.551   3.192   0.966  1.4013 -1.4592  0.2261
  390MOL0     H53754  11.716   3.158   1.024  0.7523  0.9654  1.4939
  390MOL0     H53755  11.622   3.393   1.143 -0.2838  0.3340  0.0239
  390MOL0     H53756  11.779   3.349   1.073  0.3730 -0.2766 -2.3763
  390MOL0     H53757  11.562   3.474   0.907  1.3850  3.1799 -1.7604
  390MOL0     H53758  11.716   3.537   0.956 -1.2812 -0.0922  0.7158
  390MOL0     H53759  11.856   3.373   0.849  1.1545 -3.0623 -1.3033
  390MOL0     H53760  11.718   3.303   0.765  1.3968 -0.7889  1.7304
  390MOL0     H53761  11.772   3.610   0.724 -0.9769  0.2550  0.1070
  390MOL0     H53762  11.664   3.505   0.652  0.8778  0.2292 -0.5942
  390MOL0     H53763  11.967   3.453   0.651 -1.3298 -1.4910  1.9453
  390MOL0     H53764  11.844   3.349   0.587 -2.4982  0.1841  2.1702
  390MOL0     H53765  11.960   3.481   0.420 -1.3166 -2.6776  0.1336
  390MOL0     H53766  11.910   3.631   0.503 -2.1534  0.2578  0.2555
  390MOL0     H53767  11.680   3.596   0.441 -0.9334 -2.5254  0.8950
  390MOL0     H53768  11.774   3.576   0.288  0.4261  1.4847  0.9428
  390MOL0     H53769  11.470   3.453   0.401 -4.5178 -2.6187 -6.6475
  390MOL0     H53770  11.387   3.104   0.295  3.2864 -0.4955  0.7165
  390MOL0     H53771  11.305   3.258   0.349 -0.0769  0.7354  3.0408
  390MOL0     H53772  11.357   3.210   0.581 -0.3096 -0.1716  0.8024
  390MOL0     H53773  11.248   3.096   0.488 -0.9670  2.7529 -2.8549
  390MOL0     H53774  11.479   2.968   0.454  0.5378  1.1426 -0.0459
  390MOL0     H53775  11.545   3.064   0.586  1.9760 -0.7413 -1.1927
  390MOL0     H53776  11.306   2.875   0.615 -0.8031  0.2688  2.4743
  390MOL0     H53777  11.463   2.843   0.670  2.1759  0.5354 -0.3864
  390MOL0     H53778  11.313   3.168   0.955  2.4830 -0.2651 -0.0879
  390MOL0     H53779  11.095   3.211   1.127 -1.4841 -1.7230  0.4012
  390MOL0     H53780  11.266   3.200   1.187  1.7723 -2.3508  0.4660
  390MOL0     H53781  11.141   3.117   1.276  2.2634  2.2891  1.8369
  390MOL0     H53782  11.027   2.643   1.393 -1.4654 -2.1746  1.4791
  390MOL0     H53783  10.851   2.550   1.536  6.2420  0.7471  0.8259
  390MOL0     H53784  10.641   2.797   1.810 -1.4578  2.1228 -1.5655
  390MOL0     H53785  10.504   2.805   1.707  0.2090 -0.1041 -0.0138
  390MOL0     H53786  10.461   2.649   1.907  2.3885  0.0936  2.3865
  390MOL0     H53787  10.459   2.563   1.743 -1.0601 -0.8186  1.5348
  390MOL0     H53788  10.703   2.485   1.815 -0.5838  1.7807 -2.1549
  390MOL0     H53789  10.589   2.450   1.953  1.8285 -2.1457 -1.7216
  390MOL0     H53790  10.687   2.692   2.034  0.0696  0.9043 -1.3270
  390MOL0     H53791  10.816   2.643   1.923 -0.5560 -0.3947  0.0978
  390MOL0     H53792  10.693   2.499   2.155  0.5126  2.6099  0.7780
  390MOL0     H53793  10.798   2.404   2.045 -3.1305 -1.9457 -0.2854
  390MOL0     H53794  10.975   2.581   2.099 -3.0038  0.6740 -3.7574
  390MOL0     H53795  10.927   2.458   2.227 -0.8482  0.1665 -0.2808
  390MOL0     H53796  10.775   2.635   2.312  0.5572  2.2326  2.3817
  390MOL0     H53797  10.871   2.755   2.216  0.3562  1.7346  0.2952
  390MOL0     H53798  10.978   2.566   2.429 -1.5447  0.4567 -0.6988
  390MOL0     H53799  10.984   2.749   2.448 -1.1336  1.8622 -2.2258
  390MOL0     H53800  10.684   2.941   1.604  1.4513  1.7114 -0.5419
  390MOL0     H53801  10.862   3.031   1.450 -0.8172 -0.7920 -2.4651
  390MOL0     H53802  11.143   2.700   0.998  1.6534 -1.3033  2.7826
  390MOL0     H53803  11.307   2.752   0.839  0.6401  0.1557 -1.8281
  390MOL0     H53804  11.410   3.072   1.387  0.4382  2.7603 -1.8725
  390MOL0     H53805  11.339   2.848   1.399 -1.0240  1.1823 -1.4479
  390MOL0     H53806  11.441   2.408   1.583 -0.9001  1.0049 -0.7329
  390MOL0     H53807  11.307   2.193   1.639  4.2704 -0.6850 -1.9799
  390MOL0     H53808  10.995   2.063   1.349  0.0523 -1.1121 -0.3233
  390MOL0     H53809  11.121   1.958   1.366 -0.9420  1.1405 -1.6224
  390MOL0     H53810  10.987   1.825   1.451  1.4082  0.3509  0.1261
  390MOL0     H53811  10.865   1.941   1.490  0.7736  0.8999 -0.7599
  390MOL0     H53812  11.097   1.900   1.698 -0.4643  0.2299 -0.3001
  390MOL0     H53813  10.939   1.987   1.709  0.1111  0.4990 -0.1260
  390MOL0     H53814  10.829   1.759   1.680 -0.6462 -0.2581  1.0637
  390MOL0     H53815  10.917   1.771   1.824  1.5309  5.1238  0.6861
  390MOL0     H53816  11.158   1.505   1.587 -0.8367 -2.4142  1.9640
  390MOL0     H53817  11.062   2.265   1.315 -0.5916 -1.9470  2.9924
  390MOL0     H53818  11.071   2.447   1.169  0.0450 -0.0696  2.1424
  390MOL0     H53819  11.170   2.576   1.206 -0.8350 -0.4837 -0.6954
  390MOL0     H53820  11.237   2.445   1.104 -1.3725 -1.8470 -0.5527
  391MOL0     O53821   9.367   4.142   2.159 -0.0851  0.8940  0.5276
  391MOL0     C53822   9.343   4.210   2.059 -1.1884  0.5645 -0.3612
  391MOL0     O53823   9.225   4.250   2.015  0.0933  0.2749  0.0311
  391MOL0     C53824   9.114   4.211   2.072  0.3085  0.4754  0.4291
  391MOL0     C53825   9.000   4.291   2.065  0.2971 -0.3171 -0.0312
  391MOL0     C53826   8.866   4.250   2.092 -0.6647 -0.0495  0.1356
  391MOL0     C53827   8.844   4.117   2.129 -0.7243  0.3771  0.4022
  391MOL0     O53828   8.721   4.071   2.164  0.7570 -0.4446  0.1883
  391MOL0     C53829   8.608   4.129   2.095 -0.2642 -0.8289 -0.1978
  391MOL0     C53830   8.492   4.161   2.187  0.5945  0.4204  0.3373
  391MOL0     C53831   8.500   4.305   2.234  0.4547  0.7050  0.6577
  391MOL0     C53832   8.478   4.320   2.380 -0.2257 -0.1765 -1.7438
  391MOL0     C53833   8.341   4.359   2.432 -0.4082  0.0135 -1.0674
  391MOL0     C53834   8.335   4.391   2.583  0.1784 -0.5384  0.7264
  391MOL0     C53835   8.206   4.429   2.641  0.3877  0.2363  0.0777
  391MOL0     C53836   8.095   4.320   2.633 -0.3206 -0.3463  0.5677
  391MOL0     N53837   7.964   4.382   2.651  1.1945  0.6198  1.1544
  391MOL0     C53838   7.913   4.421   2.769  0.0785 -0.6048 -0.0522
  391MOL0     C53839   7.780   4.435   2.746  1.6973  0.7017 -0.3465
  391MOL0     C53840   7.683   4.481   2.858 -0.5040  0.9371  0.2169
  391MOL0     C53841   7.639   4.625   2.847 -0.2973  0.4321 -0.3967
  391MOL0     C53842   7.528   4.668   2.951 -1.3821  0.5575 -0.3945
  391MOL0     C53843   7.569   4.674   3.099  0.4920 -0.0785 -0.0146
  391MOL0     O53844   7.458   4.714   3.178 -0.1399  0.4783 -0.1414
  391MOL0     C53845   7.468   4.736   3.308 -0.3765  0.9283 -0.3263
  391MOL0     C53846   7.349   4.748   3.382  0.6544  0.0415  0.4595
  391MOL0     C53847   7.347   4.785   3.515  0.1543  0.2644 -0.2324
  391MOL0     C53848   7.210   4.814   3.566 -0.2078  0.1694 -0.4377
  391MOL0     C53849   7.470   4.815   3.577  0.1685  0.0477 -0.5899
  391MOL0     C53850   7.478   4.847   3.716  1.0210  0.6231  0.1492
  391MOL0     O53851   7.574   4.937   3.740  0.0040  0.1884 -1.1763
  391MOL0     C53852   7.597   4.961   3.870  0.4904  1.1914 -0.5345
  391MOL0     C53853   7.589   5.092   3.908  0.1974  0.6851 -0.4766
  391MOL0     C53854   7.590   5.122   4.052 -0.3173  1.3725  0.2293
  391MOL0     C53855   7.621   5.017   4.141  0.1200  0.5863  0.5825
  391MOL0     O53856   7.656   5.035   4.277  0.1614 -0.3112  0.0209
  391MOL0     C53857   7.645   5.161   4.332 -0.8101  0.2077  0.3135
  391MOL0     C53858   7.627   5.138   4.486 -0.0421  0.6064  0.4832
  391MOL0     C53859   7.604   5.270   4.561  0.2531  1.5126 -0.5362
  391MOL0     C53860   7.563   5.243   4.709 -0.4278 -1.2855  0.2370
  391MOL0     C53861   7.566   5.387   4.787 -0.2873 -0.1266  0.1018
  391MOL0     C53862   7.551   5.360   4.941 -0.2194 -0.2977  0.0643
  391MOL0     C53863   7.548   5.493   5.034  0.8148  0.3051 -0.4271
  391MOL0     C53864   7.656   5.594   4.994  0.2040  1.3001 -0.2458
  391MOL0    Cl53865   7.651   5.728   5.125  0.3551 -0.3496 -0.0038
  391MOL0     C53866   7.646   4.883   4.095  0.1616  0.8640  0.2440
  391MOL0     C53867   7.630   4.857   3.962  0.8794 -0.4144  0.0571
  391MOL0     O53868   7.407   4.784   3.801  0.4883  0.7186  0.8447
  391MOL0     C53869   7.590   4.792   3.509 -0.4009  0.7853  0.0250
  391MOL0     C53870   7.584   4.756   3.375 -0.4625  0.7987 -0.1513
  391MOL0     N53871   7.744   4.398   2.617  0.5332  0.2513 -0.0488
  391MOL0     N53872   7.850   4.368   2.562 -0.9890  0.5085 -0.5048
  391MOL0     C53873   8.959   4.037   2.149 -0.7457  0.3564  0.7317
  391MOL0     C53874   9.087   4.078   2.112 -0.3429 -0.5857  0.0296
  391MOL0     C53875   9.452   4.248   1.970 -0.1731 -0.7641  0.1715
  391MOL0     C53876   9.429   4.250   1.833  0.5120  0.0255  0.4595
  391MOL0     C53877   9.523   4.299   1.749 -0.6273  0.7834  1.3053
  391MOL0     C53878   9.642   4.351   1.793  0.3906 -0.4575  0.0420
  391MOL0     O53879   9.735   4.417   1.715  0.1690 -0.2572 -0.3253
  391MOL0     C53880   9.709   4.444   1.588  0.4114 -0.0458 -0.5048
  391MOL0     C53881   9.794   4.540   1.515  0.1663 -0.4476 -0.1671
  391MOL0     C53882   9.761   4.687   1.552  0.0888  0.1294 -0.1826
  391MOL0     C53883   9.839   4.771   1.452 -0.3084 -0.1711 -0.5140
  391MOL0     C53884   9.799   4.915   1.465  0.4748 -0.7384 -0.8534
  391MOL0     C53885   9.781   5.040   1.459 -0.6866  0.3714  1.0134
  391MOL0     C53886   9.666   4.344   1.928  0.0144  0.6346  0.8394
  391MOL0     C53887   9.575   4.291   2.014  0.3543 -0.7054 -0.9171
  391MOL0     C53888   9.606   4.308   2.162 -0.3725 -0.5258 -0.0359
  391MOL0     H53889   9.028   4.389   2.030  0.0253  0.1132  0.9269
  391MOL0     H53890   8.789   4.326   2.077 -1.1954 -0.3623  1.1580
  391MOL0     H53891   8.596   4.050   2.020  1.4641 -0.2285 -1.1678
  391MOL0     H53892   8.624   4.218   2.034 -2.3869 -0.4446 -0.2442
  391MOL0     H53893   8.393   4.138   2.144  0.0595 -1.6308  2.4313
  391MOL0     H53894   8.500   4.090   2.270  2.7747 -0.5525 -0.6321
  391MOL0     H53895   8.601   4.338   2.209  0.8002 -0.5971  0.2588
  391MOL0     H53896   8.432   4.369   2.176  0.2541 -0.4632 -0.4384
  391MOL0     H53897   8.492   4.221   2.425 -2.7118 -0.0691 -0.5588
  391MOL0     H53898   8.549   4.399   2.407 -1.5587  1.0960 -1.8812
  391MOL0     H53899   8.270   4.283   2.398 -0.3137 -0.5363 -0.0665
  391MOL0     H53900   8.320   4.453   2.380 -1.1431  1.7648  2.1176
  391MOL0     H53901   8.362   4.302   2.640  1.1741 -1.2060 -0.7297
  391MOL0     H53902   8.413   4.461   2.611 -0.6500  0.1926  1.2678
  391MOL0     H53903   8.161   4.516   2.592  4.0801  1.5353 -1.3964
  391MOL0     H53904   8.221   4.452   2.746 -1.6026 -1.1021  0.7070
  391MOL0     H53905   8.097   4.272   2.534  1.2115  2.2761 -0.7747
  391MOL0     H53906   8.090   4.248   2.715 -3.4508  1.0563  1.7890
  391MOL0     H53907   7.979   4.448   2.851  1.1039 -0.9378 -0.7504
  391MOL0     H53908   7.731   4.478   2.956  2.4062 -0.0885 -1.1405
  391MOL0     H53909   7.597   4.413   2.859  2.8840 -3.8461  2.0351
  391MOL0     H53910   7.727   4.689   2.862  2.1818 -3.2399  2.1722
  391MOL0     H53911   7.600   4.656   2.749 -1.0377  0.7406 -0.0115
  391MOL0     H53912   7.468   4.756   2.923 -3.5257 -0.4367  0.8304
  391MOL0     H53913   7.449   4.593   2.951 -2.4339  1.6052 -1.8046
  391MOL0     H53914   7.595   4.572   3.130 -2.9183 -0.9052  0.5556
  391MOL0     H53915   7.656   4.739   3.108  1.5811 -1.2897 -1.2844
  391MOL0     H53916   7.257   4.725   3.329 -0.0102  0.1080  1.5522
  391MOL0     H53917   7.158   4.858   3.480  0.3860 -0.6379 -1.2178
  391MOL0     H53918   7.205   4.894   3.641  0.8020  0.6955 -0.9195
  391MOL0     H53919   7.167   4.720   3.602 -0.4607 -0.8903 -3.2676
  391MOL0     H53920   7.568   5.174   3.840  0.8466  2.6714  1.5936
  391MOL0     H53921   7.568   5.224   4.084 -2.3954  1.2076 -0.5359
  391MOL0     H53922   7.737   5.219   4.323 -0.9724  1.3808  4.1223
  391MOL0     H53923   7.559   5.220   4.297  1.6187  3.5696 -0.4902
  391MOL0     H53924   7.536   5.078   4.495 -2.2328  3.0585 -2.8635
  391MOL0     H53925   7.717   5.088   4.522 -1.1472 -1.7153  0.2444
  391MOL0     H53926   7.524   5.321   4.508 -0.7562 -0.4361 -1.0028
  391MOL0     H53927   7.692   5.333   4.551  2.2778 -1.2166 -1.2220
  391MOL0     H53928   7.636   5.172   4.748 -0.0390 -1.4893 -0.8341
  391MOL0     H53929   7.461   5.206   4.716 -1.0908  0.6462  2.0088
  391MOL0     H53930   7.657   5.446   4.773 -0.4830  0.7258  2.1640
  391MOL0     H53931   7.475   5.442   4.762 -0.4191  0.0890  1.0360
  391MOL0     H53932   7.628   5.288   4.971 -1.2881 -1.5897 -0.2263
  391MOL0     H53933   7.449   5.324   4.952 -1.1595  1.7157 -1.3798
  391MOL0     H53934   7.569   5.454   5.134  0.6052  0.7126 -0.2205
  391MOL0     H53935   7.449   5.539   5.029 -0.0886 -1.2853  1.5257
  391MOL0     H53936   7.630   5.637   4.897  1.4220 -0.2286 -1.2947
  391MOL0     H53937   7.754   5.546   4.991  0.1121  1.1136 -0.2466
  391MOL0     H53938   7.656   4.799   4.162  0.2004  0.7788  0.1325
  391MOL0     H53939   7.607   4.760   3.920  0.9549  0.6553 -2.6207
  391MOL0     H53940   7.684   4.795   3.564 -0.5999 -0.8410  0.5085
  391MOL0     H53941   7.682   4.741   3.330  1.7946  0.5310  4.3403
  391MOL0     H53942   8.941   3.933   2.174 -2.5953  0.4239 -0.1136
  391MOL0     H53943   9.170   4.009   2.095  0.8091  1.1555 -1.8994
  391MOL0     H53944   9.328   4.221   1.807  0.8284 -2.1397  1.4368
  391MOL0     H53945   9.510   4.297   1.641  1.6043 -0.1627  0.9977
  391MOL0     H53946   9.725   4.349   1.535  1.6526 -0.8336  1.1780
  391MOL0     H53947   9.605   4.473   1.571 -0.3649 -2.5742 -0.4437
  391MOL0     H53948   9.764   4.527   1.411 -1.5999 -0.4062  0.2887
  391MOL0     H53949   9.898   4.510   1.526  0.5449 -0.1304 -2.5215
  391MOL0     H53950   9.652   4.702   1.551  0.3843  2.6751  0.1910
  391MOL0     H53951   9.797   4.712   1.652 -0.7896  1.6501 -0.2150
  391MOL0     H53952   9.819   4.751   1.347  2.0098  2.3232 -1.5259
  391MOL0     H53953   9.945   4.748   1.468  0.0705 -0.9357 -3.5144
  391MOL0     H53954   9.768   5.146   1.460  1.4843  0.6939  1.3403
  391MOL0     H53955   9.764   4.376   1.960  1.0295 -1.9518  0.5243
  391MOL0     H53956   9.605   4.220   2.227  1.5346 -0.1506  0.5714
  391MOL0     H53957   9.699   4.365   2.168 -1.4975  1.3258  0.5857
  391MOL0     H53958   9.537   4.382   2.205  1.4968 -0.0202  2.3020
  392MOL0     O53959   3.778   5.074   3.586  0.1631  0.4468  0.0470
  392MOL0     C53960   3.804   4.973   3.655  0.7666 -0.3198  0.5829
  392MOL0     O53961   3.908   4.973   3.753  0.0792  0.5553  0.1568
  392MOL0     C53962   3.993   5.082   3.773 -0.5287 -0.5275 -0.1111
  392MOL0     C53963   4.065   5.074   3.891 -0.2373  0.2294 -0.2824
  392MOL0     C53964   4.162   5.167   3.929 -0.1499 -0.2090  0.4164
  392MOL0     C53965   4.194   5.283   3.841  0.2000 -0.4077 -1.3898
  392MOL0     O53966   4.294   5.379   3.868  0.5465 -0.5468  0.0536
  392MOL0     C53967   4.378   5.377   3.990 -0.8693  0.4990  0.6824
  392MOL0     C53968   4.487   5.266   3.993 -1.6418 -1.1216 -0.0483
  392MOL0     C53969   4.600   5.292   3.889 -0.4249  0.1675  0.6594
  392MOL0     C53970   4.569   5.303   3.738 -0.1383  0.4263  0.3945
  392MOL0     C53971   4.699   5.294   3.664 -0.2841 -0.0487 -0.0936
  392MOL0     C53972   4.799   5.425   3.679 -0.4298  0.1450  0.1670
  392MOL0     C53973   4.733   5.548   3.634 -0.3681  0.3763 -0.1371
  392MOL0     C53974   4.656   5.537   3.503  0.2274 -0.0859  0.3247
  392MOL0     N53975   4.736   5.539   3.374  0.6128 -0.5757 -0.0777
  392MOL0     C53976   4.719   5.616   3.260  0.4670 -0.1387  0.6730
  392MOL0     C53977   4.772   5.536   3.158 -0.0266  0.0913  0.9915
  392MOL0     C53978   4.761   5.570   3.013 -0.6402  0.4203 -0.2590
  392MOL0     C53979   4.902   5.612   2.968 -0.2492  0.2505 -0.3512
  392MOL0     C53980   4.884   5.708   2.851  0.0681 -0.1127 -0.4881
  392MOL0     C53981   4.827   5.843   2.883 -0.0334 -1.1006 -0.9406
  392MOL0     O53982   4.870   5.900   3.008 -0.0340  0.4981 -0.5903
  392MOL0     C53983   4.995   5.963   3.015  0.6016 -0.1794 -1.7698
  392MOL0     C53984   5.113   5.909   2.971  0.6786  0.2829 -0.1686
  392MOL0     C53985   5.236   5.973   2.977 -0.6536  0.5181 -0.0994
  392MOL0     C53986   5.354   5.886   2.926  0.2718 -0.6884 -0.6006
  392MOL0     C53987   5.245   6.107   3.031  0.4298  1.0087  0.9015
  392MOL0     C53988   5.375   6.186   3.029 -0.6983  0.3974  0.1747
  392MOL0     O53989   5.383   6.292   3.117 -0.0791  0.3408  0.3104
  392MOL0     C53990   5.502   6.362   3.096 -0.3980 -0.8886 -0.2067
  392MOL0     C53991   5.589   6.377   3.206 -0.8108 -0.5142 -0.0355
  392MOL0     C53992   5.705   6.453   3.182  0.5217 -0.4362  0.6320
  392MOL0     C53993   5.736   6.526   3.063 -0.0621 -0.3386  0.0827
  392MOL0     O53994   5.830   6.619   3.050  0.0465 -0.2069  0.7679
  392MOL0     C53995   5.885   6.688   3.162 -0.8744  0.4282 -0.2927
  392MOL0     C53996   5.775   6.769   3.218 -0.3035  0.1630  0.2578
  392MOL0     C53997   5.725   6.868   3.116 -0.2750  0.1481  0.5328
  392MOL0     C53998   5.611   6.957   3.158  0.0723 -0.8501  0.3150
  392MOL0     C53999   5.612   7.085   3.080 -0.3890  0.2057 -0.6062
  392MOL0     C54000   5.489   7.172   3.125  0.3888  0.1719 -0.0906
  392MOL0     C54001   5.463   7.293   3.046 -0.7394 -1.3615 -0.2700
  392MOL0     C54002   5.541   7.414   3.111  1.0420 -0.0816  0.0701
  392MOL0    Cl54003   5.490   7.575   3.041 -0.2286  0.0395  0.4021
  392MOL0     C54004   5.649   6.504   2.965 -0.7814  0.3454  0.6213
  392MOL0     C54005   5.534   6.429   2.977  1.0023  0.9066 -0.9859
  392MOL0     O54006   5.468   6.146   2.957 -0.2305 -0.0152 -0.6847
  392MOL0     C54007   5.128   6.157   3.097  0.1981  0.4725  0.2101
  392MOL0     C54008   5.002   6.088   3.077 -0.3650  0.2525 -0.3896
  392MOL0     N54009   4.820   5.417   3.210  0.3949 -0.3108 -0.3673
  392MOL0     N54010   4.805   5.423   3.340  0.2812 -0.2130 -0.1377
  392MOL0     C54011   4.134   5.284   3.717  0.5012 -0.2022 -0.2396
  392MOL0     C54012   4.037   5.182   3.680  0.8895 -0.1877 -0.3915
  392MOL0     C54013   3.709   4.858   3.639 -0.8399  0.0216 -0.3508
  392MOL0     C54014   3.767   4.737   3.649 -0.4191  0.0151  0.3184
  392MOL0     C54015   3.696   4.616   3.675 -0.7113  0.1472  0.5088
  392MOL0     C54016   3.552   4.625   3.671 -0.5184  0.8318  0.3655
  392MOL0     O54017   3.462   4.529   3.682 -0.1357  0.8113  0.5695
  392MOL0     C54018   3.509   4.401   3.716  0.0581  0.5162 -0.1571
  392MOL0     C54019   3.403   4.330   3.796  0.3507 -0.4105 -0.6080
  392MOL0     C54020   3.434   4.183   3.826  0.4074  0.1636 -0.2596
  392MOL0     C54021   3.324   4.115   3.905 -0.4294 -0.2102 -0.1367
  392MOL0     C54022   3.380   4.001   3.984 -0.3587  0.0965 -0.0033
  392MOL0     C54023   3.440   3.925   4.062 -0.6377 -0.2403  0.8249
  392MOL0     C54024   3.492   4.742   3.633 -0.2753  0.3538 -1.7231
  392MOL0     C54025   3.568   4.865   3.617 -0.5985 -0.0448  0.2675
  392MOL0     C54026   3.485   4.991   3.593  0.1825  0.3093  0.8935
  392MOL0     H54027   4.029   4.996   3.957  2.6739 -0.5710  0.5480
  392MOL0     H54028   4.198   5.148   4.030 -1.5553  1.6550  1.3422
  392MOL0     H54029   4.318   5.374   4.081  0.1553 -0.0738  1.3504
  392MOL0     H54030   4.447   5.461   3.982  0.1400 -0.0674  2.8241
  392MOL0     H54031   4.546   5.274   4.085 -0.7053  1.4594 -0.7830
  392MOL0     H54032   4.442   5.167   3.988  0.4658 -2.1915  0.9256
  392MOL0     H54033   4.671   5.370   3.917 -1.2612  1.4624 -0.7117
  392MOL0     H54034   4.652   5.197   3.905 -0.9746 -0.2841 -0.1482
  392MOL0     H54035   4.499   5.228   3.700  1.3786 -0.2331 -1.2091
  392MOL0     H54036   4.517   5.397   3.715  0.7504  1.5673  2.7621
  392MOL0     H54037   4.671   5.290   3.558 -4.1343  2.5518  0.6306
  392MOL0     H54038   4.749   5.200   3.689 -0.2136 -0.1242 -0.5090
  392MOL0     H54039   4.843   5.428   3.779 -1.5582  0.3250  0.6774
  392MOL0     H54040   4.883   5.415   3.610  0.9057  2.1341  1.4197
  392MOL0     H54041   4.803   5.632   3.635 -0.3433  0.3698  1.6222
  392MOL0     H54042   4.658   5.575   3.710  0.6360 -1.1819  1.4753
  392MOL0     H54043   4.587   5.453   3.500  0.1045  0.0332 -0.4655
  392MOL0     H54044   4.588   5.623   3.503 -0.0978 -0.3226 -1.0037
  392MOL0     H54045   4.679   5.717   3.257 -0.3361 -0.3062  3.1558
  392MOL0     H54046   4.678   5.640   2.997 -0.8978  0.1305 -0.1857
  392MOL0     H54047   4.730   5.481   2.959  0.2083 -0.8794  1.3119
  392MOL0     H54048   4.960   5.650   3.053  0.2244 -2.0908  0.4447
  392MOL0     H54049   4.940   5.516   2.932 -3.4167 -0.2009 -2.9305
  392MOL0     H54050   4.968   5.709   2.782  0.0449 -0.3158 -0.5205
  392MOL0     H54051   4.806   5.664   2.788 -1.6085  0.2478  1.2254
  392MOL0     H54052   4.864   5.912   2.807  1.7460  0.6282  1.3599
  392MOL0     H54053   4.718   5.833   2.884 -0.1782  0.2801 -0.7443
  392MOL0     H54054   5.116   5.807   2.935 -0.0526  0.3645 -0.4631
  392MOL0     H54055   5.388   5.926   2.830 -2.7693  2.7560 -0.4632
  392MOL0     H54056   5.323   5.782   2.917 -0.7943 -0.2947 -1.7210
  392MOL0     H54057   5.422   5.890   3.012 -1.2329  2.6119  0.6306
  392MOL0     H54058   5.560   6.333   3.301 -0.0580 -0.4056  0.2563
  392MOL0     H54059   5.784   6.452   3.256  0.8081  0.2451  0.3467
  392MOL0     H54060   5.936   6.623   3.234 -1.5737  1.8467  1.5535
  392MOL0     H54061   5.972   6.743   3.125  1.5059 -1.8006  1.6650
  392MOL0     H54062   5.690   6.707   3.248 -0.2532  1.0170  2.3725
  392MOL0     H54063   5.804   6.816   3.312  1.0232  1.4775 -0.7535
  392MOL0     H54064   5.701   6.823   3.019  0.6945  2.0306 -0.6615
  392MOL0     H54065   5.806   6.941   3.102 -0.0732  0.3197  2.3134
  392MOL0     H54066   5.639   6.988   3.259  0.6274 -0.2964  0.0004
  392MOL0     H54067   5.512   6.911   3.166  1.7335 -5.0293 -0.5591
  392MOL0     H54068   5.695   7.154   3.099  0.1410 -0.9461  1.6832
  392MOL0     H54069   5.605   7.065   2.973 -2.5976  3.6269 -1.2806
  392MOL0     H54070   5.501   7.196   3.231 -2.5519 -1.0602  0.6132
  392MOL0     H54071   5.399   7.111   3.112 -0.3484  0.6067  2.4985
  392MOL0     H54072   5.357   7.305   3.022 -0.2930  0.0110 -1.7658
  392MOL0     H54073   5.490   7.287   2.940 -0.9983  3.0966 -0.7761
  392MOL0     H54074   5.645   7.403   3.077  0.0151 -1.1221 -3.0938
  392MOL0     H54075   5.532   7.419   3.219 -0.4924  1.6371 -0.0930
  392MOL0     H54076   5.671   6.565   2.879  1.1771 -0.4662  0.4836
  392MOL0     H54077   5.465   6.414   2.894 -0.5953  4.0531 -0.3922
  392MOL0     H54078   5.129   6.254   3.144  0.4363  1.6594 -2.1040
  392MOL0     H54079   4.911   6.127   3.121  3.9838  6.4932  5.0566
  392MOL0     H54080   4.170   5.359   3.647 -0.9325  0.0046 -0.7878
  392MOL0     H54081   3.999   5.181   3.578  0.3118  1.9611 -0.2486
  392MOL0     H54082   3.875   4.740   3.659 -0.4660  4.4839  1.5534
  392MOL0     H54083   3.755   4.527   3.694  1.2294  0.8169 -1.7638
  392MOL0     H54084   3.540   4.343   3.629 -0.1365 -0.2559  0.2800
  392MOL0     H54085   3.588   4.408   3.791  1.0907  0.7950 -1.2525
  392MOL0     H54086   3.308   4.338   3.742 -0.7141  0.5962  1.3101
  392MOL0     H54087   3.390   4.385   3.889 -1.3959 -1.1606 -0.3827
  392MOL0     H54088   3.459   4.133   3.732 -0.4743  1.5052 -1.2560
  392MOL0     H54089   3.525   4.191   3.886 -0.8475 -2.2620  2.1679
  392MOL0     H54090   3.254   4.079   3.830 -0.7268 -0.3964  0.2275
  392MOL0     H54091   3.272   4.177   3.978  0.9359 -2.0601  2.5934
  392MOL0     H54092   3.503   3.853   4.108 -1.9349 -2.2983 -0.4576
  392MOL0     H54093   3.385   4.759   3.621 -0.7620  0.8412  1.8945
  392MOL0     H54094   3.515   5.072   3.660  0.2590  1.7995 -0.8619
  392MOL0     H54095   3.519   5.022   3.494  0.5214 -2.8372 -0.0969
  392MOL0     H54096   3.379   4.983   3.619  0.3027 -2.2993  0.8522
  393MOL0     O54097   7.231   0.784  11.075  0.2379 -0.2737 -0.0877
  393MOL0     C54098   7.189   0.725  11.176 -0.0076  0.4574 -0.5883
  393MOL0     O54099   7.269   0.680  11.280  0.4236  0.2992  0.9370
  393MOL0     C54100   7.403   0.679  11.268 -0.9717  0.2080 -1.9766
  393MOL0     C54101   7.479   0.802  11.262 -0.0571  0.3151  0.4805
  393MOL0     C54102   7.612   0.803  11.232 -0.5893  0.0413 -0.0357
  393MOL0     C54103   7.684   0.671  11.214  0.6280 -0.1593  0.4992
  393MOL0     O54104   7.815   0.656  11.181 -0.0050  0.4263  0.1081
  393MOL0     C54105   7.902   0.767  11.208 -0.5511 -0.0434  0.0827
  393MOL0     C54106   8.041   0.749  11.135 -0.0899 -0.2320  1.8014
  393MOL0     C54107   8.114   0.608  11.166  0.1552 -0.5765  0.0406
  393MOL0     C54108   8.101   0.554  11.309 -0.0831  0.2118  0.0309
  393MOL0     C54109   8.194   0.438  11.350 -0.8770 -0.0985 -1.5121
  393MOL0     C54110   8.143   0.383  11.490  0.4098 -0.0961  1.3004
  393MOL0     C54111   8.250   0.303  11.561 -0.8860 -0.5254 -0.6478
  393MOL0     C54112   8.199   0.273  11.701  0.1886  0.0613  0.4775
  393MOL0     N54113   8.299   0.205  11.787  0.2390  0.9145  0.3990
  393MOL0     C54114   8.345   0.264  11.903 -0.2768 -1.1080 -0.0502
  393MOL0     C54115   8.425   0.162  11.949  0.0913  0.4555  0.9157
  393MOL0     C54116   8.475   0.135  12.096  0.1403  0.1937 -0.0237
  393MOL0     C54117   8.513  -0.010  12.124 -1.2107 -0.4274  0.0299
  393MOL0     C54118   8.566  -0.036  12.270 -0.0539  0.4448  0.1931
  393MOL0     C54119   8.681   0.060  12.313 -0.0591  0.0888 -0.1103
  393MOL0     O54120   8.781   0.013  12.408  0.0391  0.2522  0.2286
  393MOL0     C54121   8.899   0.080  12.410  0.1487  0.1589 -1.1829
  393MOL0     C54122   9.006   0.001  12.440 -0.0490  0.6593 -0.7682
  393MOL0     C54123   9.133   0.050  12.441 -0.1252  0.4771 -0.2180
  393MOL0     C54124   9.248  -0.048  12.474 -0.2090  0.5252 -0.3403
  393MOL0     C54125   9.153   0.189  12.416  0.5970  0.8872 -0.4370
  393MOL0     C54126   9.289   0.262  12.414  0.3043  0.3718  0.2706
  393MOL0     O54127   9.284   0.404  12.437 -0.5497  0.7758  0.3078
  393MOL0     C54128   9.403   0.464  12.412 -0.1383 -0.7016 -0.5306
  393MOL0     C54129   9.471   0.464  12.289 -0.7922 -0.1563 -0.3203
  393MOL0     C54130   9.585   0.540  12.270 -0.4942  0.1332 -0.1411
  393MOL0     C54131   9.623   0.635  12.367  0.2242  0.5406 -0.6461
  393MOL0     O54132   9.745   0.697  12.351 -0.8080  0.1251  0.5714
  393MOL0     C54133   9.777   0.832  12.375  0.1726 -0.7921  0.1022
  393MOL0     C54134   9.778   0.896  12.237  0.0353  0.4103  0.4282
  393MOL0     C54135   9.836   1.038  12.255 -0.0632 -0.1826 -0.2710
  393MOL0     C54136   9.788   1.116  12.136  0.5635 -0.6555  0.5492
  393MOL0     C54137   9.833   1.263  12.133 -0.5458  0.3218 -0.7226
  393MOL0     C54138   9.886   1.287  11.994 -0.2092  0.1051 -0.0635
  393MOL0     C54139   9.905   1.443  11.981 -0.0836  0.6059 -0.4767
  393MOL0     C54140   9.954   1.484  11.842 -1.2103  0.0766 -0.2496
  393MOL0    Cl54141   9.822   1.512  11.728  0.3517  0.2272 -0.2410
  393MOL0     C54142   9.549   0.645  12.482 -0.4151 -0.2315  0.0381
  393MOL0     C54143   9.448   0.556  12.515  0.0760  0.4446  0.3284
  393MOL0     O54144   9.395   0.198  12.418  0.0318  0.1197  0.0032
  393MOL0     C54145   9.041   0.268  12.396 -0.7304  0.2072 -0.4658
  393MOL0     C54146   8.910   0.218  12.396 -0.7556  0.0200  0.0374
  393MOL0     N54147   8.421   0.055  11.856 -0.1493  0.2971 -0.3460
  393MOL0     N54148   8.346   0.082  11.763 -0.2528  0.6257  0.3566
  393MOL0     C54149   7.611   0.549  11.218 -0.4541  1.0879  0.3425
  393MOL0     C54150   7.474   0.557  11.249  0.1175 -0.8042 -0.7025
  393MOL0     C54151   7.038   0.715  11.199  0.8079  0.1930 -0.4296
  393MOL0     C54152   6.989   0.673  11.325  0.5446 -0.2448  0.1731
  393MOL0     C54153   6.853   0.662  11.363 -0.2805 -0.4404 -0.0245
  393MOL0     C54154   6.751   0.720  11.286  0.7630 -0.5253  0.8497
  393MOL0     O54155   6.619   0.746  11.325 -0.6471  0.0751  0.4010
  393MOL0     C54156   6.562   0.704  11.448  0.0036 -1.1882 -0.1182
  393MOL0     C54157   6.538   0.548  11.458  0.5109 -0.6306  0.6367
  393MOL0     C54158   6.435   0.508  11.347 -0.2507  0.4119  0.0036
  393MOL0     C54159   6.408   0.359  11.330  0.4571  0.0925  0.8593
  393MOL0     C54160   6.307   0.325  11.222 -0.4458  0.0926 -0.9093
  393MOL0     C54161   6.240   0.302  11.124  0.0394 -0.1501 -0.1989
  393MOL0     C54162   6.787   0.750  11.148  0.1552 -0.7179 -0.7352
  393MOL0     C54163   6.925   0.756  11.115  0.7346  0.0527  0.1741
  393MOL0     C54164   6.957   0.810  10.974  0.1150  0.0082  0.6740
  393MOL0     H54165   7.426   0.897  11.263 -1.6738 -0.5528  1.1199
  393MOL0     H54166   7.660   0.898  11.213  2.9646 -2.0384 -2.7854
  393MOL0     H54167   7.914   0.772  11.316  0.1087  0.7357 -0.0195
  393MOL0     H54168   7.868   0.861  11.164 -0.2796 -0.9117 -2.1182
  393MOL0     H54169   8.042   0.766  11.027  3.3731 -3.5744  1.0806
  393MOL0     H54170   8.107   0.820  11.185  0.5577  0.4805 -0.0088
  393MOL0     H54171   8.068   0.535  11.098 -0.0954  0.1453 -0.5816
  393MOL0     H54172   8.222   0.600  11.151  0.6363 -0.6212  3.0588
  393MOL0     H54173   8.129   0.641  11.368  0.9630 -0.6385  0.8283
  393MOL0     H54174   7.994   0.532  11.323 -0.4712  0.9533 -1.5387
  393MOL0     H54175   8.296   0.477  11.359 -0.5006 -1.4949  2.3048
  393MOL0     H54176   8.200   0.355  11.279 -1.9506 -1.3453 -0.2186
  393MOL0     H54177   8.091   0.456  11.554  0.5728  1.7142 -0.5183
  393MOL0     H54178   8.068   0.311  11.456  1.1426  0.1845 -1.0944
  393MOL0     H54179   8.335   0.372  11.565 -0.9273 -0.2606 -2.8786
  393MOL0     H54180   8.284   0.211  11.513  1.1281 -0.4523  0.5225
  393MOL0     H54181   8.161   0.367  11.741 -1.2028  0.3768 -1.4163
  393MOL0     H54182   8.112   0.210  11.681 -0.5349  1.6054 -1.6081
  393MOL0     H54183   8.331   0.362  11.947 -0.9758 -1.6356  0.9483
  393MOL0     H54184   8.385   0.153  12.154  0.7140  2.3978  0.2595
  393MOL0     H54185   8.550   0.212  12.116  2.3894 -1.2076 -2.2902
  393MOL0     H54186   8.413  -0.050  12.108 -2.3621  1.1211  2.6209
  393MOL0     H54187   8.584  -0.050  12.052  1.5504 -0.3299  2.4996
  393MOL0     H54188   8.485  -0.000  12.334  0.8353  1.0908  0.9976
  393MOL0     H54189   8.582  -0.140  12.298  2.8074  1.1678  1.6043
  393MOL0     H54190   8.729   0.084  12.217 -3.0819  0.5138 -1.6283
  393MOL0     H54191   8.622   0.143  12.353 -2.6982 -1.8405  0.2905
  393MOL0     H54192   8.986  -0.105  12.451 -0.4971  0.8948  1.0176
  393MOL0     H54193   9.325  -0.003  12.538  0.7073 -0.8304 -0.4477
  393MOL0     H54194   9.295  -0.067  12.377 -1.0702 -1.8735 -0.3651
  393MOL0     H54195   9.198  -0.137  12.513 -1.1615  1.2561  0.1496
  393MOL0     H54196   9.445   0.398  12.207  0.0046 -0.0240 -0.6867
  393MOL0     H54197   9.632   0.537  12.172  2.9806  0.5653  1.3663
  393MOL0     H54198   9.708   0.880  12.445 -0.7091 -1.0926 -0.5525
  393MOL0     H54199   9.874   0.842  12.425 -0.3682 -0.7875  1.1552
  393MOL0     H54200   9.820   0.827  12.164 -0.8660 -0.8863  1.0854
  393MOL0     H54201   9.675   0.896  12.201 -1.1819 -0.9549  3.5651
  393MOL0     H54202   9.942   1.042  12.282 -0.9237  1.1858  3.5060
  393MOL0     H54203   9.784   1.082  12.341 -3.9304 -1.7070 -1.6299
  393MOL0     H54204   9.679   1.123  12.126  0.7653  0.3680 -1.3822
  393MOL0     H54205   9.826   1.077  12.040  5.6068  2.4062  0.9225
  393MOL0     H54206   9.752   1.333  12.156 -0.3001  0.0601  1.0713
  393MOL0     H54207   9.908   1.288  12.209 -1.3239 -1.8119  0.8791
  393MOL0     H54208   9.818   1.262  11.912  0.4981  0.5375 -0.7968
  393MOL0     H54209   9.980   1.233  11.981 -0.8338 -0.7174 -1.2848
  393MOL0     H54210   9.991   1.476  12.040  1.7734  2.2872 -3.8524
  393MOL0     H54211   9.820   1.502  12.016  2.5866  2.8191  3.0569
  393MOL0     H54212  10.026   1.411  11.806 -1.7415 -1.4808  1.6937
  393MOL0     H54213  10.006   1.581  11.843 -0.0171 -0.5339  1.4841
  393MOL0     H54214   9.582   0.711  12.561  1.1749  1.6358 -2.0831
  393MOL0     H54215   9.387   0.562  12.604 -1.5174 -0.1269 -0.6934
  393MOL0     H54216   9.065   0.373  12.402  3.3865 -0.6350  1.7299
  393MOL0     H54217   8.823   0.282  12.380 -2.4174 -1.8996  0.9198
  393MOL0     H54218   7.657   0.453  11.199  1.2465  2.2134 -1.6319
  393MOL0     H54219   7.408   0.472  11.247 -1.9179  0.6503  0.7658
  393MOL0     H54220   7.063   0.623  11.387  1.3397  0.8180  0.0933
  393MOL0     H54221   6.836   0.632  11.466 -0.5906  1.3265  0.4759
  393MOL0     H54222   6.621   0.737  11.534  0.5734  0.4230 -1.0929
  393MOL0     H54223   6.460   0.742  11.459 -0.3844 -1.5767 -2.1023
  393MOL0     H54224   6.514   0.512  11.559  3.0439  1.5971  2.1899
  393MOL0     H54225   6.633   0.497  11.438 -2.2018 -5.9207 -0.2533
  393MOL0     H54226   6.341   0.562  11.364 -0.0018  1.7745 -2.4947
  393MOL0     H54227   6.468   0.533  11.246 -3.0321  1.1794 -0.8140
  393MOL0     H54228   6.368   0.312  11.420  0.0492 -0.1660  0.5445
  393MOL0     H54229   6.496   0.301  11.303 -1.0065 -1.2349 -1.3536
  393MOL0     H54230   6.163   0.292  11.050  0.9092 -0.1340 -1.1243
  393MOL0     H54231   6.704   0.784  11.088 -0.8896  1.1236  1.5902
  393MOL0     H54232   6.862   0.842  10.931 -0.3544  0.0155  1.6871
  393MOL0     H54233   7.023   0.898  10.977  0.0680  0.0263  3.1600
  393MOL0     H54234   6.999   0.732  10.909 -0.7819  2.0327 -2.6044
  394MOL0     O54235   2.108  10.682   2.182 -0.1032 -0.2747  0.2215
  394MOL0     C54236   2.071  10.776   2.254  0.0023 -0.2039 -1.4579
  394MOL0     O54237   2.067  10.774   2.398  0.6185  0.0779 -0.0767
  394MOL0     C54238   2.126  10.664   2.454 -0.0703  0.7206  0.2697
  394MOL0     C54239   2.259  10.671   2.506  0.3645 -0.0166 -0.5762
  394MOL0     C54240   2.326  10.553   2.535  0.7065  0.6924  0.4075
  394MOL0     C54241   2.255  10.431   2.541 -0.1136 -0.2246 -0.5445
  394MOL0     O54242   2.328  10.322   2.591  0.0719  0.0886 -0.5761
  394MOL0     C54243   2.293  10.180   2.571  0.2821 -0.1491 -0.4332
  394MOL0     C54244   2.408  10.079   2.540 -0.6661 -0.8470 -0.3732
  394MOL0     C54245   2.492  10.101   2.406 -0.9576 -0.0848  1.1159
  394MOL0     C54246   2.550   9.968   2.354 -0.2273  0.0125  0.5793
  394MOL0     C54247   2.608   9.877   2.463 -0.1220 -0.0513 -0.9345
  394MOL0     C54248   2.723   9.793   2.418  0.2617 -0.5099 -0.0023
  394MOL0     C54249   2.762   9.698   2.533 -0.2483 -0.5928 -0.0528
  394MOL0     C54250   2.899   9.636   2.508  0.8471  0.5018  1.2128
  394MOL0     N54251   2.917   9.522   2.600 -0.0760  1.1905 -0.1356
  394MOL0     C54252   2.923   9.545   2.734 -0.1787 -0.0596 -0.7659
  394MOL0     C54253   2.876   9.433   2.797  1.0522 -0.1299  0.3363
  394MOL0     C54254   2.856   9.415   2.947  0.6780 -0.3009  0.4735
  394MOL0     C54255   2.972   9.333   3.004  0.7021  0.1406 -1.1054
  394MOL0     C54256   2.962   9.297   3.150  0.5475  0.0271  0.3552
  394MOL0     C54257   3.034   9.171   3.200 -0.0426 -0.5460 -0.0415
  394MOL0     O54258   3.168   9.212   3.233  0.0528  0.1198 -0.6878
  394MOL0     C54259   3.238   9.118   3.311  0.2993 -0.6299 -0.3610
  394MOL0     C54260   3.200   8.985   3.349  0.0550 -0.8600  1.0435
  394MOL0     C54261   3.272   8.904   3.434  1.2803  0.1391  0.1826
  394MOL0     C54262   3.239   8.757   3.453  0.0665  0.5109 -0.0293
  394MOL0     C54263   3.367   8.974   3.515  0.0217 -0.3405  0.8719
  394MOL0     C54264   3.425   8.915   3.628 -0.2908  1.2682 -0.1533
  394MOL0     O54265   3.553   8.943   3.659  0.2767 -0.1110 -0.4005
  394MOL0     C54266   3.625   8.870   3.754 -0.3639  0.5188  0.2029
  394MOL0     C54267   3.764   8.866   3.734 -0.0386  0.8878 -0.6077
  394MOL0     C54268   3.849   8.805   3.830  0.8952 -1.1625  0.6412
  394MOL0     C54269   3.798   8.751   3.944 -0.7447 -0.4253 -0.3790
  394MOL0     O54270   3.866   8.691   4.049  0.9031 -0.5288  0.0522
  394MOL0     C54271   4.002   8.713   4.070  0.5144 -0.5691  0.3979
  394MOL0     C54272   4.043   8.597   4.165 -0.2417 -0.3712  0.6311
  394MOL0     C54273   4.191   8.626   4.203 -0.7531  0.6385  0.2367
  394MOL0     C54274   4.259   8.499   4.265  0.0156 -0.8589 -0.3449
  394MOL0     C54275   4.405   8.524   4.270 -0.5495 -0.0665 -0.1539
  394MOL0     C54276   4.479   8.408   4.329  1.1209 -0.0225 -0.3893
  394MOL0     C54277   4.631   8.425   4.326  0.1599 -0.7360  0.0248
  394MOL0     C54278   4.687   8.345   4.437  0.6856  0.3257 -0.7012
  394MOL0    Cl54279   4.846   8.306   4.375 -0.2891  0.1049  0.1943
  394MOL0     C54280   3.658   8.760   3.961 -0.0705 -0.1945  0.2952
  394MOL0     C54281   3.575   8.813   3.872 -0.2197  0.5996  0.0463
  394MOL0     O54282   3.349   8.862   3.702  0.0519  0.3057 -0.4082
  394MOL0     C54283   3.413   9.106   3.481  0.5957  0.4276 -0.4170
  394MOL0     C54284   3.349   9.175   3.378 -1.1225  0.1896  1.0655
  394MOL0     N54285   2.849   9.342   2.696 -0.5131 -0.4648  0.2589
  394MOL0     N54286   2.876   9.394   2.582 -0.3847 -0.2230  0.1223
  394MOL0     C54287   2.125  10.424   2.491  0.2610 -0.4654  0.2282
  394MOL0     C54288   2.057  10.540   2.440  0.1778  0.1779 -1.3594
  394MOL0     C54289   2.037  10.895   2.181 -0.3955  0.3206 -0.0610
  394MOL0     C54290   2.055  11.018   2.256 -0.2473 -0.3634 -0.0926
  394MOL0     C54291   1.997  11.134   2.199  0.9551  0.7408 -0.6631
  394MOL0     C54292   1.938  11.137   2.073  0.1826  0.7670  1.6318
  394MOL0     O54293   1.896  11.264   2.028  0.0609 -0.1818  0.1807
  394MOL0     C54294   1.795  11.280   1.929 -0.3582  0.9567 -0.3938
  394MOL0     C54295   1.785  11.422   1.893  0.3659 -0.2503 -0.5147
  394MOL0     C54296   1.885  11.463   1.787 -0.0816 -0.2662  0.1762
  394MOL0     C54297   1.901  11.610   1.764  0.9376 -0.2150  0.4948
  394MOL0     C54298   1.994  11.678   1.849  0.3528  0.7344 -0.4202
  394MOL0     C54299   2.076  11.733   1.915  0.4721  1.0651 -0.9934
  394MOL0     C54300   1.926  11.015   2.002 -0.0789  0.8401 -0.2647
  394MOL0     C54301   1.973  10.893   2.055  0.0689 -0.0937 -0.0792
  394MOL0     C54302   1.935  10.768   1.976  0.1638 -0.6587  0.5571
  394MOL0     H54303   2.309  10.765   2.523 -0.3765  0.2942 -0.0719
  394MOL0     H54304   2.434  10.544   2.547  1.1510  1.8557 -2.2617
  394MOL0     H54305   2.230  10.180   2.482 -1.9288  1.6577  1.0182
  394MOL0     H54306   2.249  10.129   2.657  1.9194 -2.5790 -0.9140
  394MOL0     H54307   2.478  10.074   2.624  1.0689  3.1045 -1.3610
  394MOL0     H54308   2.358   9.985   2.518 -0.0903 -1.0374 -0.8816
  394MOL0     H54309   2.430  10.126   2.319  3.5117 -0.0886 -2.4627
  394MOL0     H54310   2.563  10.182   2.421 -2.0764  1.4128 -1.0733
  394MOL0     H54311   2.468   9.918   2.301 -0.5481  0.8047  0.3244
  394MOL0     H54312   2.629   9.991   2.282 -1.5527  2.1733 -0.2741
  394MOL0     H54313   2.530   9.806   2.490 -0.0874 -0.9637 -3.0015
  394MOL0     H54314   2.622   9.947   2.545 -2.2696  3.4624 -3.2757
  394MOL0     H54315   2.699   9.735   2.328  1.1001 -0.8740  0.0019
  394MOL0     H54316   2.813   9.852   2.399 -0.1570  0.5438  1.1626
  394MOL0     H54317   2.676   9.631   2.543  0.2368 -1.0534  1.0888
  394MOL0     H54318   2.787   9.750   2.626 -0.6330  1.5292 -1.0785
  394MOL0     H54319   2.899   9.586   2.411  0.2103  0.6046  1.1536
  394MOL0     H54320   2.982   9.706   2.517 -1.1677  2.8217  3.1207
  394MOL0     H54321   2.960   9.632   2.787 -0.0388  0.6838 -2.0392
  394MOL0     H54322   2.760   9.368   2.967  1.1213 -0.7789  1.6115
  394MOL0     H54323   2.850   9.516   2.988  1.3301 -0.2955  0.5792
  394MOL0     H54324   2.975   9.237   2.952  0.4068 -0.8631  0.6478
  394MOL0     H54325   3.061   9.392   2.979 -0.6298  0.9487 -4.5386
  394MOL0     H54326   3.002   9.377   3.212  1.5493 -0.9040  0.9468
  394MOL0     H54327   2.855   9.295   3.172  0.3422  1.0032 -0.4727
  394MOL0     H54328   2.972   9.154   3.288 -0.3002  5.5133  1.3488
  394MOL0     H54329   3.025   9.094   3.122  3.1657  1.4142 -2.5894
  394MOL0     H54330   3.117   8.945   3.292 -0.2806  3.5422 -2.0981
  394MOL0     H54331   3.221   8.691   3.368  0.8623 -0.5638  0.6095
  394MOL0     H54332   3.149   8.747   3.514  0.4486  2.2059  0.8819
  394MOL0     H54333   3.316   8.696   3.502 -0.7491  1.2888  2.3758
  394MOL0     H54334   3.809   8.919   3.651  1.4184 -3.3314 -2.8709
  394MOL0     H54335   3.954   8.804   3.804  0.9676  3.2238 -0.0463
  394MOL0     H54336   4.067   8.699   3.983  1.2306 -2.3810  1.1667
  394MOL0     H54337   4.019   8.810   4.117  2.2044  2.1542 -4.9609
  394MOL0     H54338   3.980   8.590   4.254 -1.0718  1.6302  0.2644
  394MOL0     H54339   4.042   8.508   4.102 -0.3022 -0.2911  0.5167
  394MOL0     H54340   4.198   8.699   4.284 -1.4835 -1.5470  2.3999
  394MOL0     H54341   4.257   8.653   4.120 -1.1916 -1.9622 -1.0840
  394MOL0     H54342   4.231   8.412   4.204 -2.6133 -0.9681  0.8430
  394MOL0     H54343   4.221   8.489   4.367  0.4926 -1.1537 -0.1914
  394MOL0     H54344   4.433   8.539   4.165  2.8308 -0.5864  0.5593
  394MOL0     H54345   4.424   8.618   4.321  3.6669 -1.2837  0.8663
  394MOL0     H54346   4.455   8.313   4.279  0.8435  0.0562 -0.4062
  394MOL0     H54347   4.453   8.394   4.434  0.8536 -0.8204 -0.5550
  394MOL0     H54348   4.658   8.531   4.329  0.1707 -0.6969 -1.1332
  394MOL0     H54349   4.655   8.396   4.224  0.1329 -0.3788 -0.0867
  394MOL0     H54350   4.625   8.255   4.445  1.1280  0.1148  0.6112
  394MOL0     H54351   4.699   8.395   4.534 -1.1650 -2.0972  0.8850
  394MOL0     H54352   3.614   8.739   4.059 -0.7152  2.8779  0.7614
  394MOL0     H54353   3.469   8.829   3.890 -0.7731  0.4151 -2.6701
  394MOL0     H54354   3.488   9.152   3.545  0.8623 -0.1140 -0.3369
  394MOL0     H54355   3.376   9.278   3.358  0.8902 -0.9898 -3.9821
  394MOL0     H54356   2.067  10.333   2.479 -2.1052  1.2542 -2.9626
  394MOL0     H54357   1.959  10.524   2.398  0.0840 -2.5625 -0.2900
  394MOL0     H54358   2.094  11.023   2.357 -2.7902 -1.1949  1.0081
  394MOL0     H54359   2.002  11.228   2.253 -2.1345  1.7057 -1.8212
  394MOL0     H54360   1.824  11.219   1.842  2.5421 -0.2905  1.2871
  394MOL0     H54361   1.699  11.242   1.962  0.0869  0.6733  0.6123
  394MOL0     H54362   1.800  11.469   1.991  1.6889  0.5847 -1.0925
  394MOL0     H54363   1.682  11.428   1.855 -0.3932 -1.0072  1.3002
  394MOL0     H54364   1.985  11.426   1.812  1.3529  1.1744 -2.8401
  394MOL0     H54365   1.859  11.409   1.695  0.3616 -0.6654  0.2814
  394MOL0     H54366   1.807  11.664   1.780  0.9534  0.3917 -1.3248
  394MOL0     H54367   1.919  11.624   1.657 -2.1334 -0.1031 -0.0899
  394MOL0     H54368   2.137  11.792   1.981 -0.5498  2.6496 -1.4164
  394MOL0     H54369   1.888  11.020   1.901 -2.8609 -0.0262  0.6528
  394MOL0     H54370   1.881  10.790   1.884 -2.6578  0.8191  2.4190
  394MOL0     H54371   2.022  10.709   1.945 -1.3007 -1.6675 -1.9391
  394MOL0     H54372   1.873  10.703   2.040 -1.8405 -0.1654 -0.7964
  395MOL0     O54373   6.993   6.907   7.517 -0.2945 -0.0612 -0.5699
  395MOL0     C54374   7.117   6.895   7.521  0.5130  0.6398  0.6368
  395MOL0     O54375   7.177   6.781   7.476 -0.7835 -0.3512 -0.6106
  395MOL0     C54376   7.103   6.689   7.422 -0.0529  0.3308 -0.5473
  395MOL0     C54377   7.119   6.562   7.468 -0.2390 -0.3127 -0.2689
  395MOL0     C54378   7.052   6.456   7.414  1.3456  0.0435 -0.1115
  395MOL0     C54379   6.976   6.473   7.297 -0.4835 -0.1861 -0.5544
  395MOL0     O54380   6.909   6.377   7.226  0.4272  0.7995 -0.4227
  395MOL0     C54381   6.942   6.229   7.237 -0.2354  0.8218 -0.4713
  395MOL0     C54382   7.090   6.209   7.192 -0.3092 -1.0384  0.1063
  395MOL0     C54383   7.117   6.069   7.163  0.2603 -0.0402 -0.1784
  395MOL0     C54384   7.037   6.016   7.034  0.0506  0.2718 -0.0348
  395MOL0     C54385   7.080   5.876   6.996 -0.4734  0.2111  0.8019
  395MOL0     C54386   7.025   5.779   7.098 -0.3844  1.0863  0.0012
  395MOL0     C54387   7.077   5.628   7.072 -0.2536 -0.8885 -0.2823
  395MOL0     C54388   7.228   5.615   7.069 -0.2871  0.8399  0.5181
  395MOL0     N54389   7.272   5.479   7.099  0.5437 -0.0571 -1.1434
  395MOL0     C54390   7.269   5.371   7.016  0.2525  0.3018 -0.9094
  395MOL0     C54391   7.344   5.275   7.074  0.2866  0.2111 -0.7393
  395MOL0     C54392   7.386   5.134   7.021  0.5066  0.5450  0.5569
  395MOL0     C54393   7.325   5.027   7.114  0.6003  0.3811 -0.5114
  395MOL0     C54394   7.172   5.035   7.135  0.0766  0.0762  0.0509
  395MOL0     C54395   7.084   5.017   7.012  0.1367  0.4221  0.0195
  395MOL0     O54396   6.953   5.049   7.055  0.2780 -0.0450  0.8650
  395MOL0     C54397   6.886   5.165   7.014  1.0423 -0.4962 -0.5155
  395MOL0     C54398   6.776   5.199   7.103  0.0673  0.2943  0.3596
  395MOL0     C54399   6.703   5.312   7.079  0.8272  0.1251 -0.1877
  395MOL0     C54400   6.585   5.343   7.176 -0.6311  0.3568 -0.0181
  395MOL0     C54401   6.739   5.399   6.971 -0.1560 -0.2137  0.1163
  395MOL0     C54402   6.666   5.529   6.948  0.1455 -0.4964 -0.1168
  395MOL0     O54403   6.707   5.583   6.825  0.1006  0.4116  0.3463
  395MOL0     C54404   6.649   5.705   6.793 -0.7041  0.4059 -0.3062
  395MOL0     C54405   6.577   5.692   6.682 -0.2555 -0.0778 -0.4083
  395MOL0     C54406   6.524   5.802   6.625 -0.4793  0.7089  0.5049
  395MOL0     C54407   6.527   5.923   6.687  0.1112 -0.0209  0.4508
  395MOL0     O54408   6.458   6.030   6.630 -0.9066 -0.5055 -0.5019
  395MOL0     C54409   6.323   6.023   6.586 -0.3323  0.2847 -0.2162
  395MOL0     C54410   6.221   6.079   6.692 -0.1472  0.3456  0.5252
  395MOL0     C54411   6.227   6.004   6.818 -0.0420 -0.3346  0.3148
  395MOL0     C54412   6.182   5.854   6.788  0.3190  0.0033  0.8868
  395MOL0     C54413   6.183   5.781   6.925 -0.7444  0.0272  0.3922
  395MOL0     C54414   6.323   5.755   6.980 -0.3792 -0.3390  0.3295
  395MOL0     C54415   6.334   5.729   7.128 -0.6375  1.2066  0.0206
  395MOL0     C54416   6.281   5.594   7.161 -0.3349  0.2044 -0.7235
  395MOL0    Cl54417   6.325   5.549   7.335  0.3406  0.0981 -0.6416
  395MOL0     C54418   6.604   5.945   6.798 -0.4333  0.6386  0.2366
  395MOL0     C54419   6.662   5.829   6.856  0.7663  0.0884  0.3183
  395MOL0     O54420   6.614   5.595   7.036 -1.1682  0.4108  0.0582
  395MOL0     C54421   6.841   5.353   6.888  0.1745 -0.6592  0.9569
  395MOL0     C54422   6.911   5.236   6.909  0.9175 -0.5425  0.4051
  395MOL0     N54423   7.395   5.323   7.197  0.4007 -0.1446  0.1770
  395MOL0     N54424   7.341   5.444   7.211  0.2562 -0.0931  0.1341
  395MOL0     C54425   6.959   6.599   7.237 -0.4094 -0.4175  1.0197
  395MOL0     C54426   7.030   6.714   7.297 -0.7299 -0.1713 -0.0539
  395MOL0     C54427   7.205   7.002   7.584 -0.2224  0.0504 -0.2605
  395MOL0     C54428   7.150   7.131   7.585  0.5869  0.5832 -0.8341
  395MOL0     C54429   7.226   7.244   7.614 -0.6093  0.0689  0.0297
  395MOL0     C54430   7.366   7.230   7.648 -0.2312  0.4564 -0.3814
  395MOL0     O54431   7.447   7.327   7.664  0.1370 -0.0138 -0.4796
  395MOL0     C54432   7.402   7.440   7.731  0.5966 -0.2058  0.4631
  395MOL0     C54433   7.387   7.418   7.884  0.2089  0.3385 -0.0696
  395MOL0     C54434   7.517   7.397   7.961 -0.5431  0.5352 -0.9639
  395MOL0     C54435   7.610   7.524   7.971  0.0412 -0.1361 -0.4151
  395MOL0     C54436   7.550   7.639   8.044  0.1335  0.1960 -0.2583
  395MOL0     C54437   7.509   7.727   8.110  0.7099 -0.0711  0.5526
  395MOL0     C54438   7.411   7.096   7.651  0.4178 -0.6144 -0.9715
  395MOL0     C54439   7.341   6.981   7.623  0.5400  0.9399 -0.5159
  395MOL0     C54440   7.407   6.846   7.605 -0.3002  0.0237  0.2706
  395MOL0     H54441   7.193   6.540   7.545 -1.5496 -0.4429  1.0028
  395MOL0     H54442   7.068   6.361   7.463  0.5285 -0.1922 -0.2822
  395MOL0     H54443   6.866   6.169   7.187  1.3628 -0.2709 -1.7297
  395MOL0     H54444   6.919   6.197   7.338 -2.8036  3.8693  0.0610
  395MOL0     H54445   7.099   6.269   7.100  1.5688  2.4152  2.3034
  395MOL0     H54446   7.160   6.252   7.264 -3.3736 -1.1787  3.4454
  395MOL0     H54447   7.221   6.062   7.130 -1.0515  0.4941 -5.2447
  395MOL0     H54448   7.084   6.020   7.255 -1.4699 -0.0917 -0.7894
  395MOL0     H54449   6.930   6.001   7.052 -0.0887  1.8831  0.7423
  395MOL0     H54450   7.064   6.081   6.950  0.2903  2.4735  1.6357
  395MOL0     H54451   7.190   5.874   6.998 -0.4660 -1.1118  0.2840
  395MOL0     H54452   7.056   5.847   6.893 -1.5993  1.3785  0.7155
  395MOL0     H54453   7.053   5.813   7.198 -0.1347  1.3104 -0.1447
  395MOL0     H54454   6.917   5.763   7.097 -0.9437  3.7377  3.0136
  395MOL0     H54455   7.031   5.595   6.979 -1.2333  2.4472 -1.0794
  395MOL0     H54456   7.032   5.575   7.157 -1.4831 -1.8647 -1.5124
  395MOL0     H54457   7.251   5.638   6.965  0.5337 -0.5199  0.3760
  395MOL0     H54458   7.286   5.680   7.135  0.3767 -0.0170  0.8098
  395MOL0     H54459   7.210   5.349   6.928 -0.1119 -1.7563 -0.2124
  395MOL0     H54460   7.493   5.113   7.028  0.5398  1.0602  2.0663
  395MOL0     H54461   7.356   5.128   6.916  0.6020 -2.8775  0.6176
  395MOL0     H54462   7.348   4.929   7.071 -0.0632  0.4585 -1.0583
  395MOL0     H54463   7.374   5.042   7.211  1.8624  4.7017 -1.6033
  395MOL0     H54464   7.157   4.951   7.204 -0.5562 -0.7042 -0.9969
  395MOL0     H54465   7.152   5.123   7.197 -2.6290 -0.2912 -0.2168
  395MOL0     H54466   7.116   5.080   6.929  1.7642  2.9186  2.3412
  395MOL0     H54467   7.101   4.916   6.974  2.6461  1.6188 -2.4480
  395MOL0     H54468   6.757   5.141   7.193 -3.6061 -0.0494 -0.5124
  395MOL0     H54469   6.494   5.351   7.116 -0.7498 -1.0247 -0.0511
  395MOL0     H54470   6.601   5.438   7.227 -1.9155  1.1863 -1.0988
  395MOL0     H54471   6.571   5.265   7.251  2.4953  1.1570  1.5742
  395MOL0     H54472   6.580   5.591   6.641  0.8394 -0.6376  0.9931
  395MOL0     H54473   6.481   5.795   6.525 -0.4584  2.1690  0.3734
  395MOL0     H54474   6.319   6.087   6.498 -0.2775  1.9982  0.9643
  395MOL0     H54475   6.301   5.919   6.561 -2.4986  0.4833  0.6333
  395MOL0     H54476   6.244   6.185   6.701 -1.0662  0.5381  0.6542
  395MOL0     H54477   6.120   6.070   6.652  0.2620  0.6518 -0.6107
  395MOL0     H54478   6.171   6.060   6.893  1.3239  0.3184  0.8680
  395MOL0     H54479   6.332   6.005   6.848  0.1752 -0.3993 -0.4299
  395MOL0     H54480   6.246   5.795   6.722  0.0602  0.1879  0.4643
  395MOL0     H54481   6.087   5.849   6.735  0.4938  1.3759  0.3834
  395MOL0     H54482   6.134   5.840   7.004 -0.0889  0.6158  0.3619
  395MOL0     H54483   6.140   5.682   6.910 -0.8674  0.3780 -2.0531
  395MOL0     H54484   6.384   5.847   6.977  2.2325 -1.8877 -4.0880
  395MOL0     H54485   6.375   5.686   6.913 -0.2544  1.6167 -1.7313
  395MOL0     H54486   6.278   5.798   7.191 -0.3970  1.0241  0.4335
  395MOL0     H54487   6.438   5.733   7.160 -0.6890 -3.3123  1.5296
  395MOL0     H54488   6.316   5.509   7.102  0.4319 -0.1457  0.2152
  395MOL0     H54489   6.171   5.598   7.165 -0.2830  1.3647  1.9499
  395MOL0     H54490   6.621   6.044   6.838  0.6995  0.6075 -0.1207
  395MOL0     H54491   6.731   5.845   6.938 -1.6181  1.4754  2.1814
  395MOL0     H54492   6.866   5.401   6.794  1.5367  1.7002  2.4528
  395MOL0     H54493   6.980   5.207   6.830 -0.0675 -1.0262 -0.2973
  395MOL0     H54494   6.908   6.611   7.142  2.3678 -0.4465 -0.5969
  395MOL0     H54495   6.998   6.816   7.278 -0.6957 -0.6792 -3.3412
  395MOL0     H54496   7.051   7.145   7.543 -0.4409 -0.7233  1.0171
  395MOL0     H54497   7.184   7.344   7.610  0.6728  0.6297 -0.1204
  395MOL0     H54498   7.467   7.524   7.706  2.9154 -2.1876 -0.6632
  395MOL0     H54499   7.302   7.466   7.696  1.5363 -1.7265 -4.0820
  395MOL0     H54500   7.322   7.332   7.903  2.0539 -0.8442  1.2555
  395MOL0     H54501   7.329   7.499   7.931 -0.2377  0.0018 -0.0317
  395MOL0     H54502   7.492   7.351   8.058 -1.9326 -2.5611 -2.6392
  395MOL0     H54503   7.576   7.314   7.920  0.1164  0.1009  0.7395
  395MOL0     H54504   7.652   7.552   7.874  5.2419 -2.8111  0.7041
  395MOL0     H54505   7.696   7.485   8.027 -1.5782 -1.8341  1.0460
  395MOL0     H54506   7.470   7.810   8.166  0.7531  0.1968  0.1835
  395MOL0     H54507   7.517   7.081   7.667 -0.1582 -1.6651  2.7168
  395MOL0     H54508   7.423   6.843   7.497 -0.7503  2.3320  0.0769
  395MOL0     H54509   7.506   6.837   7.650  1.0470 -0.3052 -2.5364
  395MOL0     H54510   7.347   6.762   7.639  1.6788 -0.8156  1.9222
  396MOL0     O54511   9.741   8.549   8.487  0.2493 -0.7546 -0.0471
  396MOL0     C54512   9.680   8.575   8.380 -0.7548  0.3049  1.1839
  396MOL0     O54513   9.575   8.500   8.322 -0.0799  0.8854 -0.3528
  396MOL0     C54514   9.561   8.368   8.361 -0.2985  0.4441 -0.6177
  396MOL0     C54515   9.477   8.328   8.472  0.9511 -0.5987  0.0303
  396MOL0     C54516   9.476   8.198   8.523  0.5365 -0.8730  1.0232
  396MOL0     C54517   9.556   8.100   8.466  0.3718 -0.7325  0.7822
  396MOL0     O54518   9.557   7.973   8.508  0.2273  0.3261  1.0779
  396MOL0     C54519   9.585   7.864   8.421  0.3787  1.7737 -0.2117
  396MOL0     C54520   9.520   7.734   8.465 -1.0129  0.3212 -0.3488
  396MOL0     C54521   9.595   7.685   8.592 -0.7846 -0.1245  0.2508
  396MOL0     C54522   9.567   7.541   8.641 -0.5405  0.1364 -0.5593
  396MOL0     C54523   9.682   7.489   8.730 -1.5132  0.8104  0.5151
  396MOL0     C54524   9.729   7.595   8.846 -1.1520  0.1545  0.4376
  396MOL0     C54525   9.615   7.601   8.957 -0.8217  0.5128 -0.1936
  396MOL0     C54526   9.584   7.471   9.029 -0.3324  0.3338 -0.1783
  396MOL0     N54527   9.697   7.433   9.123  0.1582 -0.8107 -0.1232
  396MOL0     C54528   9.729   7.500   9.240 -0.5199  0.4137 -0.1628
  396MOL0     C54529   9.860   7.460   9.270 -0.8579 -0.4530 -0.1904
  396MOL0     C54530   9.940   7.512   9.391  0.0478 -0.2545 -0.2039
  396MOL0     C54531  10.051   7.407   9.446  0.7146 -0.6213  0.2412
  396MOL0     C54532  10.183   7.456   9.396 -0.5444 -0.4272  0.6695
  396MOL0     C54533  10.286   7.368   9.444  0.7149 -0.3741  0.0454
  396MOL0     O54534  10.291   7.357   9.584  0.2980 -0.3427  0.5377
  396MOL0     C54535  10.264   7.238   9.646 -0.2166  0.5403  1.0772
  396MOL0     C54536  10.306   7.112   9.593  0.1124 -0.3306  0.5475
  396MOL0     C54537  10.268   6.992   9.645  0.1823  1.2264  0.0699
  396MOL0     C54538  10.322   6.867   9.589 -0.2245  0.2882  0.0164
  396MOL0     C54539  10.171   6.986   9.749  0.5821  0.8784  0.5104
  396MOL0     C54540  10.106   6.879   9.826  1.0414 -0.5593 -0.4470
  396MOL0     O54541   9.991   6.905   9.905  0.6950  0.0465 -0.1884
  396MOL0     C54542   9.929   6.793   9.949  0.3644  0.1309  0.8606
  396MOL0     C54543   9.988   6.707  10.048  0.3640  0.1220  1.1074
  396MOL0     C54544   9.910   6.613  10.111 -0.0366 -0.9853  1.8649
  396MOL0     C54545   9.778   6.588  10.073 -0.3233 -1.1519  0.9262
  396MOL0     O54546   9.687   6.513  10.148  0.7038 -0.5110  0.3243
  396MOL0     C54547   9.723   6.440  10.270  0.9925 -1.4832  0.2527
  396MOL0     C54548   9.754   6.534  10.391 -0.6433  0.2104  0.5764
  396MOL0     C54549   9.705   6.480  10.528  0.7165  0.6776 -0.5419
  396MOL0     C54550   9.731   6.588  10.632  0.7812 -0.7735 -1.5113
  396MOL0     C54551   9.685   6.541  10.777  0.4654 -0.4410  0.1240
  396MOL0     C54552   9.765   6.421  10.834 -0.0729 -0.1284 -0.3674
  396MOL0     C54553   9.733   6.401  10.984 -0.3233  0.7579 -1.2029
  396MOL0     C54554   9.792   6.266  11.047  0.4498  0.1282  1.1175
  396MOL0    Cl54555   9.848   6.301  11.210 -0.6537 -0.3140  0.4592
  396MOL0     C54556   9.720   6.668   9.968 -0.1595 -0.5788 -0.0126
  396MOL0     C54557   9.795   6.773   9.911  0.6220  0.7866  0.5233
  396MOL0     O54558  10.164   6.776   9.816 -0.3997 -0.6828 -0.9751
  396MOL0     C54559  10.130   7.112   9.803 -0.5876  0.4878  0.3906
  396MOL0     C54560  10.177   7.229   9.754 -0.6446 -0.6048 -0.3873
  396MOL0     N54561   9.894   7.360   9.177  0.1968 -0.7459  1.0674
  396MOL0     N54562   9.800   7.356   9.084 -0.2636 -1.3313  0.0463
  396MOL0     C54563   9.651   8.138   8.377 -0.1681 -0.0889  1.1437
  396MOL0     C54564   9.651   8.265   8.326  0.5447 -0.1199  0.9017
  396MOL0     C54565   9.715   8.696   8.309 -0.1522 -0.0670  1.1146
  396MOL0     C54566   9.761   8.803   8.380 -0.3148 -0.7838 -1.3812
  396MOL0     C54567   9.793   8.933   8.339  0.3498  1.0152  0.1994
  396MOL0     C54568   9.807   8.950   8.202 -0.3213  0.6748  0.1774
  396MOL0     O54569   9.834   9.070   8.144  0.0165 -0.0189  0.2539
  396MOL0     C54570   9.915   9.174   8.212  0.0119 -0.3952 -0.9973
  396MOL0     C54571   9.995   9.253   8.107 -0.4486 -0.4653  0.2152
  396MOL0     C54572  10.055   9.369   8.176 -0.6176 -0.3599  0.5261
  396MOL0     C54573  10.173   9.417   8.094 -0.4167  0.0962 -0.1778
  396MOL0     C54574  10.129   9.457   7.959 -0.1888  0.1391  0.0484
  396MOL0     C54575  10.104   9.497   7.849 -0.2391 -0.3834  0.6737
  396MOL0     C54576   9.765   8.842   8.123 -0.4578 -0.4968 -0.4272
  396MOL0     C54577   9.719   8.722   8.173 -1.2289  0.1982 -0.0025
  396MOL0     C54578   9.675   8.620   8.067 -0.5055  0.2988 -0.2481
  396MOL0     H54579   9.417   8.411   8.510 -0.7165 -0.9830 -1.6212
  396MOL0     H54580   9.397   8.177   8.594  0.0764 -3.0542 -0.0349
  396MOL0     H54581   9.692   7.845   8.412  0.3611 -2.3109  4.1781
  396MOL0     H54582   9.547   7.890   8.321 -3.2648  0.5587  0.6940
  396MOL0     H54583   9.413   7.753   8.477 -0.9111 -0.7628  4.0076
  396MOL0     H54584   9.543   7.657   8.390 -1.4474 -2.5511  2.2516
  396MOL0     H54585   9.698   7.691   8.555 -1.8930  1.4095 -2.9792
  396MOL0     H54586   9.576   7.745   8.682 -0.4507 -1.2005  1.0654
  396MOL0     H54587   9.473   7.539   8.697  0.1559 -0.5923  0.6072
  396MOL0     H54588   9.556   7.465   8.563  1.7767 -1.4135  0.5115
  396MOL0     H54589   9.769   7.475   8.664 -2.4049  1.2548 -0.7816
  396MOL0     H54590   9.654   7.390   8.768 -1.2510  0.1858 -0.8369
  396MOL0     H54591   9.821   7.557   8.892 -1.1398  2.7230  2.7858
  396MOL0     H54592   9.764   7.695   8.818 -0.5093  0.7684  3.0869
  396MOL0     H54593   9.524   7.642   8.912 -0.7756  0.9739  0.1235
  396MOL0     H54594   9.649   7.672   9.034 -0.0206  1.7838 -1.6719
  396MOL0     H54595   9.492   7.485   9.086  0.9760  3.1122  1.4299
  396MOL0     H54596   9.581   7.387   8.959 -1.7501  2.3047 -2.6268
  396MOL0     H54597   9.667   7.570   9.294 -1.3568  2.4352 -3.4374
  396MOL0     H54598   9.866   7.523   9.470 -0.6746 -1.5760 -0.6720
  396MOL0     H54599   9.984   7.611   9.375 -0.3425 -0.1160 -0.4287
  396MOL0     H54600  10.037   7.409   9.554 -2.9370 -0.7039 -0.1076
  396MOL0     H54601  10.017   7.311   9.407  0.8598 -0.0742 -1.3329
  396MOL0     H54602  10.191   7.434   9.289  2.5437 -2.0777  1.1211
  396MOL0     H54603  10.206   7.560   9.424 -2.1704 -0.0408  0.6628
  396MOL0     H54604  10.270   7.271   9.397 -1.3816 -0.9124  1.7124
  396MOL0     H54605  10.382   7.405   9.406 -0.7146  1.4367 -2.0135
  396MOL0     H54606  10.379   7.099   9.514 -2.7229 -1.0914 -2.1810
  396MOL0     H54607  10.241   6.817   9.535 -0.2550 -0.1841  0.4926
  396MOL0     H54608  10.349   6.799   9.670 -0.3190  2.4781  2.0091
  396MOL0     H54609  10.402   6.879   9.516  0.2396  2.8096  0.8472
  396MOL0     H54610  10.093   6.726  10.071  0.7726 -0.7016  0.0149
  396MOL0     H54611   9.961   6.546  10.179  0.8693 -3.8965 -1.3768
  396MOL0     H54612   9.639   6.373  10.289 -2.3293  1.9480 -1.1397
  396MOL0     H54613   9.809   6.374  10.251 -0.7738 -3.6884 -0.4797
  396MOL0     H54614   9.863   6.538  10.391 -0.6519  1.3205  2.1547
  396MOL0     H54615   9.708   6.632  10.374 -1.5306 -0.2289  0.3635
  396MOL0     H54616   9.763   6.394  10.563  0.4441  0.8286  0.3053
  396MOL0     H54617   9.598   6.459  10.531  0.8259  0.1345  2.2255
  396MOL0     H54618   9.687   6.682  10.598  2.8035  0.2874 -1.3571
  396MOL0     H54619   9.833   6.624  10.649 -0.8571  3.0997  1.7013
  396MOL0     H54620   9.693   6.625  10.847 -1.0545  0.5512 -0.7999
  396MOL0     H54621   9.582   6.504  10.768  0.4030 -0.4764  0.9374
  396MOL0     H54622   9.873   6.434  10.824 -0.2910  0.7644 -1.9229
  396MOL0     H54623   9.736   6.333  10.776 -0.3381 -0.4377  0.2268
  396MOL0     H54624   9.627   6.404  11.013  0.6555  0.7921  2.9736
  396MOL0     H54625   9.779   6.476  11.049  1.7731 -1.1283 -0.4053
  396MOL0     H54626   9.881   6.238  10.991 -0.5871  3.1379 -2.4722
  396MOL0     H54627   9.715   6.189  11.038 -0.6622  1.1848  1.2682
  396MOL0     H54628   9.615   6.655   9.944  0.2117 -1.9318 -1.0229
  396MOL0     H54629   9.754   6.816   9.820  0.6840  0.5029  0.3581
  396MOL0     H54630  10.066   7.120   9.890 -1.9468 -0.2643 -0.4875
  396MOL0     H54631  10.156   7.324   9.802  2.1138 -0.3323  0.4228
  396MOL0     H54632   9.719   8.067   8.330  0.5928  1.8856 -0.8920
  396MOL0     H54633   9.719   8.296   8.247 -0.6076  3.2289  1.0555
  396MOL0     H54634   9.760   8.784   8.487  1.0883  0.3345 -1.1358
  396MOL0     H54635   9.823   9.011   8.409  1.0877  1.0583 -0.1548
  396MOL0     H54636   9.842   9.242   8.257 -0.3297 -1.2021 -0.2969
  396MOL0     H54637   9.980   9.132   8.289 -1.1195 -2.5618 -1.1425
  396MOL0     H54638   9.920   9.295   8.040  2.0765  1.2954 -1.6998
  396MOL0     H54639  10.067   9.194   8.050 -0.5216  0.4230 -0.8414
  396MOL0     H54640   9.978   9.445   8.190  0.4949  0.9707 -0.3053
  396MOL0     H54641  10.096   9.331   8.270 -1.0358 -0.8530  0.5149
  396MOL0     H54642  10.238   9.330   8.084 -0.6215 -0.1353  0.4525
  396MOL0     H54643  10.233   9.493   8.145 -1.6263 -0.5704  2.4251
  396MOL0     H54644  10.098   9.531   7.747  0.4866 -1.9411  0.0894
  396MOL0     H54645   9.764   8.858   8.016 -1.0368  0.0967 -0.3368
  396MOL0     H54646   9.658   8.521   8.111  2.9247  0.7395  2.5681
  396MOL0     H54647   9.575   8.645   8.032 -0.7955 -0.5369 -0.0434
  396MOL0     H54648   9.754   8.615   7.991 -0.9308 -1.9253 -0.5998
  397MOL0     O54649   5.817   7.380  11.061  0.0981  0.0747 -0.0393
  397MOL0     C54650   5.721   7.320  11.095  0.1259  0.1827 -0.4266
  397MOL0     O54651   5.590   7.377  11.103 -1.0053 -0.0391 -0.0242
  397MOL0     C54652   5.563   7.509  11.063 -0.3559  0.0734  0.5301
  397MOL0     C54653   5.430   7.538  11.074  0.7774 -0.1977  0.5177
  397MOL0     C54654   5.377   7.656  11.032 -0.2297  0.6917 -0.4734
  397MOL0     C54655   5.462   7.763  10.992 -0.1171  0.8828 -1.0181
  397MOL0     O54656   5.422   7.883  10.950  0.2433  0.4646 -0.0646
  397MOL0     C54657   5.298   7.936  10.991  0.3562 -0.9804 -0.3806
  397MOL0     C54658   5.299   8.084  10.953 -0.0154 -0.4090 -0.1545
  397MOL0     C54659   5.163   8.135  10.906  0.4482 -0.4262  0.6129
  397MOL0     C54660   5.185   8.267  10.835  0.3919  0.5492  0.2707
  397MOL0     C54661   5.078   8.325  10.745 -1.4099  0.1866 -0.0670
  397MOL0     C54662   4.946   8.367  10.801  0.1979 -0.1509  0.8133
  397MOL0     C54663   4.944   8.463  10.913 -0.5953  0.2745 -0.7816
  397MOL0     C54664   5.013   8.598  10.858  0.0270 -0.8784  0.0087
  397MOL0     N54665   4.985   8.716  10.937 -0.6570  0.4926 -0.0413
  397MOL0     C54666   4.877   8.741  11.012  0.7479  0.4260  0.2385
  397MOL0     C54667   4.878   8.870  11.048  0.1508 -0.4683  0.0844
  397MOL0     C54668   4.797   8.928  11.155  0.4307  0.0596 -0.1219
  397MOL0     C54669   4.855   8.915  11.295  0.3048 -0.4065 -0.8723
  397MOL0     C54670   4.755   8.960  11.399  0.0083  0.4132  0.6990
  397MOL0     C54671   4.801   8.969  11.538 -0.7364 -0.1323 -0.1186
  397MOL0     O54672   4.879   8.859  11.568  0.3601  0.2217 -0.2988
  397MOL0     C54673   5.017   8.867  11.558 -0.3806  0.3850  0.0673
  397MOL0     C54674   5.091   8.746  11.583 -0.5912 -0.3519 -0.0800
  397MOL0     C54675   5.233   8.741  11.564  0.3345  0.4104  0.6562
  397MOL0     C54676   5.301   8.602  11.580  0.2929  0.3642  0.2381
  397MOL0     C54677   5.305   8.865  11.545 -0.2529  0.2508  0.4931
  397MOL0     C54678   5.449   8.872  11.523 -0.4705  0.6324  0.2789
  397MOL0     O54679   5.499   8.966  11.441 -0.4178 -0.0680 -0.2892
  397MOL0     C54680   5.637   8.999  11.440 -0.9471  0.0788 -0.3977
  397MOL0     C54681   5.703   9.083  11.532  0.2569 -0.4570 -0.8770
  397MOL0     C54682   5.837   9.110  11.518  0.5659  0.1896  0.9899
  397MOL0     C54683   5.910   9.042  11.426 -1.1175 -0.6002  0.7178
  397MOL0     O54684   6.051   9.050  11.418  0.3052  0.1273  0.0097
  397MOL0     C54685   6.107   9.178  11.445  0.4298 -0.6927 -0.0206
  397MOL0     C54686   6.234   9.188  11.365  0.6257 -0.8703 -0.7145
  397MOL0     C54687   6.219   9.256  11.228  0.1596 -0.3287  0.0557
  397MOL0     C54688   6.288   9.167  11.122 -1.0141  0.3461 -0.1466
  397MOL0     C54689   6.311   9.234  10.987 -0.7529  0.4013  0.5888
  397MOL0     C54690   6.433   9.177  10.915  0.5176  0.2364  0.1132
  397MOL0     C54691   6.439   9.234  10.769 -0.4036  0.2311  0.3937
  397MOL0     C54692   6.578   9.292  10.738 -0.1019 -0.3461  0.3506
  397MOL0    Cl54693   6.575   9.320  10.556  0.3676 -0.3880 -0.6919
  397MOL0     C54694   5.854   8.973  11.323  0.3443  0.6697  0.4019
  397MOL0     C54695   5.709   8.950  11.333 -0.7169 -0.2554  0.9666
  397MOL0     O54696   5.514   8.790  11.588 -0.0330 -0.2049  0.0157
  397MOL0     C54697   5.230   8.978  11.509 -0.2269  0.4320 -0.2475
  397MOL0     C54698   5.091   8.982  11.524  0.3455  1.0175 -0.1875
  397MOL0     N54699   4.990   8.926  10.994 -0.6312 -0.0658  0.1325
  397MOL0     N54700   5.056   8.829  10.925 -0.2763 -0.7080  0.8439
  397MOL0     C54701   5.593   7.734  10.976 -0.1953 -0.6138 -0.6087
  397MOL0     C54702   5.653   7.614  11.017 -0.5890  0.3551  0.3605
  397MOL0     C54703   5.728   7.181  11.155  0.5644  0.3379 -0.1530
  397MOL0     C54704   5.617   7.141  11.240  0.5069  0.3123 -0.6644
  397MOL0     C54705   5.609   7.011  11.292  0.0832 -0.2124  0.2721
  397MOL0     C54706   5.711   6.917  11.267 -0.2649 -0.8279  0.1661
  397MOL0     O54707   5.690   6.791  11.297 -0.1098  0.5741 -0.4927
  397MOL0     C54708   5.701   6.755  11.439  0.5151 -0.0725 -0.3686
  397MOL0     C54709   5.847   6.729  11.477  0.1742  1.1264 -0.5292
  397MOL0     C54710   5.908   6.610  11.415  0.3252 -0.1574  0.1338
  397MOL0     C54711   6.029   6.565  11.493 -0.0754 -0.4266  0.2948
  397MOL0     C54712   6.141   6.654  11.519 -0.6344 -0.2090 -0.7844
  397MOL0     C54713   6.255   6.709  11.519 -0.1688 -0.4640  0.5613
  397MOL0     C54714   5.824   6.956  11.184  1.1124 -0.1499 -0.0756
  397MOL0     C54715   5.828   7.085  11.130 -1.1817 -0.1998  0.6141
  397MOL0     C54716   5.952   7.112  11.048  0.1704 -0.0955  0.9158
  397MOL0     H54717   5.361   7.462  11.107  0.7206 -0.1367  0.5401
  397MOL0     H54718   5.272   7.680  11.049 -0.2098  1.1921 -1.0040
  397MOL0     H54719   5.283   7.927  11.099 -1.5593 -0.8172 -0.6093
  397MOL0     H54720   5.213   7.888  10.942  0.0702 -0.7288 -0.1368
  397MOL0     H54721   5.335   8.143  11.038  0.9398 -1.9165  0.5296
  397MOL0     H54722   5.366   8.096  10.867  2.0566 -0.0141  1.4238
  397MOL0     H54723   5.126   8.063  10.833 -1.3995  3.5158 -2.7362
  397MOL0     H54724   5.088   8.142  10.986 -0.4720  0.9389 -0.3283
  397MOL0     H54725   5.208   8.338  10.915  3.4123 -1.8062  1.7089
  397MOL0     H54726   5.278   8.261  10.778  1.0734 -1.0293  1.4549
  397MOL0     H54727   5.060   8.240  10.677 -3.9258  1.8476 -1.6709
  397MOL0     H54728   5.121   8.410  10.692 -2.3023 -0.7564 -2.4773
  397MOL0     H54729   4.884   8.406  10.719  0.9439 -1.7391 -0.5758
  397MOL0     H54730   4.897   8.274  10.830  1.5453 -1.3591 -0.5894
  397MOL0     H54731   4.998   8.427  11.002 -1.0060  2.5852  0.5085
  397MOL0     H54732   4.843   8.490  10.946 -0.3573  1.4087 -0.9176
  397MOL0     H54733   5.120   8.579  10.845  0.2119 -1.5250  2.2170
  397MOL0     H54734   4.978   8.629  10.759  0.4222  3.6724  1.0570
  397MOL0     H54735   4.812   8.669  11.061  0.9593 -0.8120 -1.2422
  397MOL0     H54736   4.702   8.875  11.152  0.5013 -0.0786 -3.4680
  397MOL0     H54737   4.769   9.030  11.126 -0.9189 -0.5305 -0.9618
  397MOL0     H54738   4.869   8.809  11.317 -2.8573 -0.6690  0.4888
  397MOL0     H54739   4.948   8.972  11.304 -0.7331  1.6297 -2.4004
  397MOL0     H54740   4.734   9.067  11.388  3.3719  1.2021  0.6782
  397MOL0     H54741   4.664   8.901  11.384  0.3918 -0.0328  0.0303
  397MOL0     H54742   4.845   9.069  11.553 -1.5110  0.3056 -0.6743
  397MOL0     H54743   4.712   8.966  11.601  0.7051 -1.3456  1.9916
  397MOL0     H54744   5.037   8.667  11.634 -0.2995 -0.8664 -0.5635
  397MOL0     H54745   5.230   8.522  11.556 -0.5242  1.0054  0.5168
  397MOL0     H54746   5.350   8.574  11.674  0.6244  0.1715  0.0100
  397MOL0     H54747   5.381   8.590  11.506 -1.0849 -1.1715 -1.0735
  397MOL0     H54748   5.656   9.118  11.624 -2.1212 -2.7778 -1.1015
  397MOL0     H54749   5.886   9.171  11.593 -0.6162  2.8507 -0.2568
  397MOL0     H54750   6.044   9.266  11.430  0.0433 -0.0927  3.8666
  397MOL0     H54751   6.119   9.178  11.554  2.4656 -1.9499 -0.1841
  397MOL0     H54752   6.310   9.244  11.420  0.9587 -1.9762 -0.0001
  397MOL0     H54753   6.269   9.086  11.344  0.9398 -0.6542 -1.2368
  397MOL0     H54754   6.270   9.352  11.227 -1.4577  0.5941  1.5859
  397MOL0     H54755   6.114   9.269  11.201 -0.8419 -1.7226  2.8780
  397MOL0     H54756   6.235   9.072  11.109  0.3959 -0.3152 -1.3332
  397MOL0     H54757   6.383   9.134  11.164 -1.7837  0.8108  2.1095
  397MOL0     H54758   6.225   9.206  10.926 -0.5557 -0.9640  0.9052
  397MOL0     H54759   6.323   9.342  11.004 -0.4350  0.3353  0.7829
  397MOL0     H54760   6.435   9.068  10.921  3.3105  0.1240 -1.4086
  397MOL0     H54761   6.523   9.204  10.970 -0.3583  0.9908  1.2322
  397MOL0     H54762   6.364   9.312  10.757  1.7564  2.4755  0.5943
  397MOL0     H54763   6.412   9.159  10.694  1.2126 -0.1304  0.1216
  397MOL0     H54764   6.643   9.208  10.763 -1.0964 -0.9265  1.0484
  397MOL0     H54765   6.609   9.373  10.805  1.5007 -3.4858  3.7541
  397MOL0     H54766   5.908   8.937  11.236  0.9151  3.2587 -0.4072
  397MOL0     H54767   5.660   8.881  11.266 -5.9229  3.4918  0.3420
  397MOL0     H54768   5.276   9.073  11.483  1.3117 -0.2114  0.0025
  397MOL0     H54769   5.043   9.077  11.506 -1.7848  0.0367 -0.0247
  397MOL0     H54770   5.656   7.809  10.928 -1.3905  1.0748  0.3607
  397MOL0     H54771   5.762   7.608  11.012 -0.5136 -1.7692  2.4968
  397MOL0     H54772   5.539   7.212  11.267 -0.1427 -1.1315  1.5004
  397MOL0     H54773   5.526   6.966  11.345  0.0091 -2.5388 -1.6721
  397MOL0     H54774   5.658   6.831  11.503 -0.6708 -0.2604 -0.9142
  397MOL0     H54775   5.637   6.667  11.450  0.3530  0.1201  0.2447
  397MOL0     H54776   5.846   6.706  11.584 -3.1049 -1.5122 -0.9491
  397MOL0     H54777   5.904   6.819  11.452 -0.2566  1.3162 -0.8465
  397MOL0     H54778   5.836   6.527  11.417 -1.5814  1.4316  0.4511
  397MOL0     H54779   5.928   6.622  11.309 -3.6405 -1.7203 -0.9595
  397MOL0     H54780   6.068   6.480  11.436 -0.2377 -1.5449  1.7761
  397MOL0     H54781   5.999   6.519  11.588  2.6770  0.0213  1.4677
  397MOL0     H54782   6.352   6.753  11.507  0.8381 -2.7803 -0.4580
  397MOL0     H54783   5.898   6.878  11.173  1.4220  0.3429 -1.6482
  397MOL0     H54784   6.036   7.126  11.117  0.2741  2.6053  0.3532
  397MOL0     H54785   5.965   7.025  10.983  1.3630 -0.0261  1.0506
  397MOL0     H54786   5.950   7.206  10.993  1.2199 -1.2528 -1.1921
  398MOL0     O54787   9.622   7.689   8.153  0.2398  0.1044 -0.2915
  398MOL0     C54788   9.703   7.683   8.059 -0.3414  0.4954 -0.1917
  398MOL0     O54789   9.676   7.690   7.926 -0.0891  0.1232 -0.2671
  398MOL0     C54790   9.537   7.697   7.898 -0.1078  0.9127  0.4849
  398MOL0     C54791   9.480   7.824   7.900  0.5889 -0.2748  0.3696
  398MOL0     C54792   9.340   7.838   7.899  0.6791 -0.3143  0.6126
  398MOL0     C54793   9.252   7.724   7.889 -0.7723  0.9003  0.3324
  398MOL0     O54794   9.109   7.721   7.880 -0.1962  0.4761 -0.1676
  398MOL0     C54795   9.030   7.842   7.897 -0.3792  0.3201  0.0669
  398MOL0     C54796   8.956   7.850   7.770  0.1268 -0.2483 -0.1863
  398MOL0     C54797   8.861   7.720   7.745 -0.1333  0.2706 -0.6489
  398MOL0     C54798   8.757   7.751   7.628 -0.2497  0.1929 -0.1958
  398MOL0     C54799   8.814   7.715   7.488  0.0547 -0.4209  0.3506
  398MOL0     C54800   8.712   7.699   7.383  0.0758 -0.5833  1.1048
  398MOL0     C54801   8.775   7.692   7.238  0.1854  0.3732  0.3374
  398MOL0     C54802   8.662   7.672   7.128 -0.3147  0.8736 -0.6658
  398MOL0     N54803   8.708   7.712   6.993  0.0619 -0.2852 -1.1271
  398MOL0     C54804   8.733   7.841   6.949  0.7667  1.1329 -0.4260
  398MOL0     C54805   8.692   7.846   6.827  0.5943 -0.2815 -0.5322
  398MOL0     C54806   8.703   7.955   6.732 -0.5552 -0.8704 -0.0515
  398MOL0     C54807   8.560   7.988   6.675  0.5940 -0.8212 -0.2735
  398MOL0     C54808   8.574   8.124   6.598 -0.1706 -0.1470  0.2078
  398MOL0     C54809   8.446   8.188   6.559  0.5192 -0.1991  0.1624
  398MOL0     O54810   8.472   8.307   6.469 -0.1848 -0.0078  0.1438
  398MOL0     C54811   8.490   8.282   6.332 -1.0608 -0.0846  0.0990
  398MOL0     C54812   8.497   8.163   6.266  0.9420  0.5502 -0.7933
  398MOL0     C54813   8.525   8.154   6.128  0.6767  0.8538  0.0453
  398MOL0     C54814   8.520   8.014   6.058 -0.3262 -0.0649 -0.1301
  398MOL0     C54815   8.535   8.271   6.052 -0.6302 -0.0315 -1.2814
  398MOL0     C54816   8.578   8.273   5.906 -0.4490  0.0288  0.6291
  398MOL0     O54817   8.556   8.396   5.841 -0.4481  0.6931  0.2708
  398MOL0     C54818   8.619   8.396   5.714  0.5999 -0.2324 -0.8772
  398MOL0     C54819   8.729   8.485   5.696  0.2559  0.1014 -0.5623
  398MOL0     C54820   8.796   8.483   5.568 -0.0613  0.0773 -0.0617
  398MOL0     C54821   8.754   8.406   5.458 -0.3441 -0.6211 -0.5525
  398MOL0     O54822   8.825   8.416   5.337  1.1958  0.8719 -0.2134
  398MOL0     C54823   8.745   8.414   5.213  0.1873  0.1535  0.7607
  398MOL0     C54824   8.839   8.416   5.098 -0.5318  0.0414 -0.1508
  398MOL0     C54825   8.778   8.349   4.971 -0.6038 -0.7014  0.3793
  398MOL0     C54826   8.878   8.323   4.851  0.0095 -0.2482  0.2076
  398MOL0     C54827   8.988   8.224   4.884  0.2184 -0.0754 -0.3653
  398MOL0     C54828   9.101   8.208   4.780 -0.6386 -0.7039  0.5543
  398MOL0     C54829   9.207   8.106   4.819  0.2924  0.4398 -0.0859
  398MOL0     C54830   9.305   8.149   4.936  0.6952  0.5175  0.1082
  398MOL0    Cl54831   9.421   8.024   4.971 -0.5643 -0.4377  0.0091
  398MOL0     C54832   8.641   8.330   5.477 -0.2512 -0.1800  0.4305
  398MOL0     C54833   8.576   8.319   5.607  0.6395  0.0899  0.3758
  398MOL0     O54834   8.649   8.182   5.864 -0.5127 -0.3969 -0.8032
  398MOL0     C54835   8.504   8.390   6.118  0.1665  0.0368 -0.1429
  398MOL0     C54836   8.508   8.399   6.252  0.2191 -0.1957 -0.4014
  398MOL0     N54837   8.673   7.707   6.784 -0.8517 -0.5563 -0.1846
  398MOL0     N54838   8.686   7.630   6.886 -0.0499  0.8817 -0.3566
  398MOL0     C54839   9.326   7.596   7.884  0.4378 -0.3823 -0.6970
  398MOL0     C54840   9.460   7.582   7.886  0.1123  0.4973  0.6264
  398MOL0     C54841   9.840   7.636   8.092 -0.4675 -0.3746  0.6648
  398MOL0     C54842   9.899   7.687   8.207  0.4168  0.5852  0.2526
  398MOL0     C54843  10.028   7.647   8.243 -0.4151  0.2715  0.5229
  398MOL0     C54844  10.107   7.570   8.156 -0.5109  0.5706  0.2262
  398MOL0     O54845  10.233   7.532   8.200  0.2116 -0.5981  0.4172
  398MOL0     C54846  10.340   7.593   8.130 -1.1790 -0.7757  0.3379
  398MOL0     C54847  10.378   7.734   8.185  0.1497 -0.3726 -0.1207
  398MOL0     C54848  10.421   7.732   8.333  0.4420  0.6840  0.2092
  398MOL0     C54849  10.506   7.840   8.387 -1.1303 -0.6111  0.2866
  398MOL0     C54850  10.439   7.968   8.373  0.4617  0.7072  1.1629
  398MOL0     C54851  10.368   8.070   8.373 -1.1078 -0.5906 -0.0252
  398MOL0     C54852  10.044   7.508   8.045 -0.5155 -0.6006  0.0542
  398MOL0     C54853   9.914   7.546   8.008 -0.3445  0.7534  0.1382
  398MOL0     C54854   9.856   7.480   7.891 -0.0919 -0.6566  0.2500
  398MOL0     H54855   9.541   7.913   7.907  1.1578 -0.4140 -2.0959
  398MOL0     H54856   9.288   7.932   7.885 -2.6707 -2.5229 -4.7903
  398MOL0     H54857   9.092   7.928   7.923 -4.3820  3.3931  0.4523
  398MOL0     H54858   8.957   7.822   7.977 -0.3808 -2.3634 -0.4995
  398MOL0     H54859   8.888   7.933   7.749 -0.0832 -0.8354 -2.0282
  398MOL0     H54860   9.023   7.862   7.684 -1.6203 -0.3331 -1.6189
  398MOL0     H54861   8.908   7.622   7.733 -2.2168 -0.5832 -2.5815
  398MOL0     H54862   8.795   7.712   7.833  2.4353 -0.8537  1.3015
  398MOL0     H54863   8.670   7.685   7.637 -0.9153  1.0558 -0.2241
  398MOL0     H54864   8.718   7.853   7.629  0.7607  0.6034 -1.2840
  398MOL0     H54865   8.875   7.624   7.490 -3.1112 -2.7589  0.0964
  398MOL0     H54866   8.882   7.791   7.450 -0.4640 -0.3757 -0.5082
  398MOL0     H54867   8.659   7.606   7.404 -0.0740 -0.2532  2.2605
  398MOL0     H54868   8.638   7.778   7.400 -3.1836 -3.5888  2.0346
  398MOL0     H54869   8.854   7.616   7.231 -0.7657 -0.7914  1.6470
  398MOL0     H54870   8.818   7.791   7.220 -1.3685  0.5696 -3.0567
  398MOL0     H54871   8.639   7.565   7.132  4.3864 -0.3405 -0.1642
  398MOL0     H54872   8.566   7.717   7.153 -0.3172 -0.9002  3.3080
  398MOL0     H54873   8.769   7.930   7.001  0.3016 -0.2332  2.3954
  398MOL0     H54874   8.771   7.924   6.653 -1.9957 -2.1933 -0.8360
  398MOL0     H54875   8.758   8.043   6.767 -0.0767 -0.6038 -1.4308
  398MOL0     H54876   8.517   7.915   6.605 -0.0642  1.5712 -2.5266
  398MOL0     H54877   8.489   7.997   6.757 -0.9840  0.9016 -1.7428
  398MOL0     H54878   8.630   8.193   6.662 -1.3608 -1.9160  3.4050
  398MOL0     H54879   8.629   8.105   6.505 -0.1984  0.5726  0.0433
  398MOL0     H54880   8.377   8.118   6.510 -0.0141 -0.7170  1.6057
  398MOL0     H54881   8.405   8.238   6.647  5.1717 -1.4153  3.4103
  398MOL0     H54882   8.482   8.068   6.316  1.7258  0.9490  0.2178
  398MOL0     H54883   8.625   7.988   6.046  0.8393  1.9655  3.9078
  398MOL0     H54884   8.462   8.007   5.965 -1.7213 -0.0124  0.7092
  398MOL0     H54885   8.464   7.951   6.127  1.1075  0.3087  1.4294
  398MOL0     H54886   8.760   8.555   5.772 -2.2988  1.5552 -0.7476
  398MOL0     H54887   8.890   8.537   5.564  0.8930 -1.5309 -0.1722
  398MOL0     H54888   8.694   8.317   5.213 -1.3484  0.8989  2.6971
  398MOL0     H54889   8.675   8.498   5.210 -2.9198 -2.2981 -1.7432
  398MOL0     H54890   8.864   8.518   5.067 -2.3707 -0.1455 -2.4818
  398MOL0     H54891   8.928   8.370   5.142 -0.5610  1.8476  1.9736
  398MOL0     H54892   8.703   8.420   4.936  1.1484  1.4054  0.7004
  398MOL0     H54893   8.728   8.255   4.997 -1.7654  0.8267  4.3240
  398MOL0     H54894   8.924   8.419   4.828 -1.3872 -0.3863 -4.0192
  398MOL0     H54895   8.831   8.285   4.760 -0.7487 -1.5385  1.0928
  398MOL0     H54896   9.025   8.248   4.985 -2.0556  3.2212 -0.1362
  398MOL0     H54897   8.943   8.125   4.889 -1.3123  0.5882 -0.2848
  398MOL0     H54898   9.145   8.306   4.759 -3.1052  0.9920  2.6112
  398MOL0     H54899   9.042   8.181   4.692 -0.5808  0.3396  0.1759
  398MOL0     H54900   9.267   8.084   4.730 -0.3469  1.9256 -0.9287
  398MOL0     H54901   9.166   8.008   4.845  0.1762 -0.0285 -1.8757
  398MOL0     H54902   9.249   8.172   5.027 -0.9478 -1.1515 -0.4173
  398MOL0     H54903   9.349   8.243   4.901 -1.7663  2.0054  0.7520
  398MOL0     H54904   8.603   8.259   5.405  2.1384 -1.5199  0.3789
  398MOL0     H54905   8.490   8.254   5.616  0.4490  0.4473  1.2864
  398MOL0     H54906   8.507   8.484   6.065  2.6103 -1.1909 -2.4282
  398MOL0     H54907   8.504   8.499   6.295  0.2099  0.2061 -1.3020
  398MOL0     H54908   9.271   7.508   7.853  1.8749 -1.1849 -1.0827
  398MOL0     H54909   9.502   7.485   7.910 -3.2253 -0.1971  4.8164
  398MOL0     H54910   9.838   7.748   8.274 -0.3025 -0.2949  0.4160
  398MOL0     H54911  10.092   7.670   8.328 -2.5164  0.2307  2.2050
  398MOL0     H54912  10.427   7.526   8.129 -0.2824  0.3351 -1.1115
  398MOL0     H54913  10.325   7.602   8.022  0.4847 -1.1206  0.0468
  398MOL0     H54914  10.296   7.806   8.176  1.7625  1.5270 -0.1711
  398MOL0     H54915  10.464   7.763   8.124  1.5101 -1.1586  1.3444
  398MOL0     H54916  10.332   7.723   8.397 -0.4428  0.6929 -0.9692
  398MOL0     H54917  10.474   7.638   8.346 -3.9226 -2.0684  0.3522
  398MOL0     H54918  10.600   7.835   8.332  0.6319 -4.7901  3.1591
  398MOL0     H54919  10.527   7.820   8.492  0.2455 -1.6806 -0.1622
  398MOL0     H54920  10.303   8.154   8.364  0.2201  0.3078 -1.8778
  398MOL0     H54921  10.112   7.442   7.991 -0.2656 -0.9378  0.7582
  398MOL0     H54922   9.914   7.390   7.870  1.1698 -0.5003  2.6731
  398MOL0     H54923   9.753   7.465   7.927 -0.1210  3.3403  2.4030
  398MOL0     H54924   9.860   7.546   7.804  3.5638 -1.3598 -0.2726
  399MOL0     O54925   2.176   8.078   7.773  0.3439  0.6600  0.2964
  399MOL0     C54926   2.093   8.027   7.693  0.1184 -0.7818  0.1716
  399MOL0     O54927   1.977   7.961   7.730 -0.7880 -0.4971  0.0055
  399MOL0     C54928   1.959   7.919   7.860  0.1252  0.2894  0.3613
  399MOL0     C54929   2.059   7.864   7.933 -0.2176 -0.9009  0.7453
  399MOL0     C54930   2.033   7.822   8.070  0.3221 -0.2824  0.3265
  399MOL0     C54931   1.905   7.839   8.123 -0.4153 -1.1813  0.5251
  399MOL0     O54932   1.866   7.809   8.253  0.3514  0.2508  0.2120
  399MOL0     C54933   1.967   7.747   8.333  0.4713 -0.1395 -0.0512
  399MOL0     C54934   1.912   7.679   8.449 -0.2799  0.7343 -1.4036
  399MOL0     C54935   1.835   7.549   8.427  0.2325  0.1357  0.2353
  399MOL0     C54936   1.922   7.439   8.370  0.4054 -0.2921 -0.6769
  399MOL0     C54937   1.842   7.321   8.359  0.0793  0.2418  0.4515
  399MOL0     C54938   1.784   7.242   8.486 -0.8921  0.1861 -0.4162
  399MOL0     C54939   1.696   7.142   8.416  0.9262  0.2003  0.6364
  399MOL0     C54940   1.669   7.004   8.491  0.2349 -0.2706 -0.6446
  399MOL0     N54941   1.618   7.028   8.624 -0.0014 -0.3107 -0.9064
  399MOL0     C54942   1.511   7.103   8.675  0.8718  0.1511  0.5739
  399MOL0     C54943   1.517   7.090   8.807 -0.0509 -0.4615 -0.2258
  399MOL0     C54944   1.430   7.169   8.909  0.0083  0.0387  0.4475
  399MOL0     C54945   1.440   7.118   9.051  0.1778  0.4508  0.1413
  399MOL0     C54946   1.336   7.182   9.135  1.0653 -0.4217 -0.0636
  399MOL0     C54947   1.198   7.120   9.113  0.4156 -0.3524  0.3458
  399MOL0     O54948   1.115   7.183   9.213  0.0414  0.6773  0.3941
  399MOL0     C54949   1.028   7.100   9.286 -0.0167 -0.9638  0.4339
  399MOL0     C54950   1.070   6.976   9.340  0.0740 -1.3796 -0.2939
  399MOL0     C54951   0.994   6.892   9.417 -0.0760 -0.3772  1.0527
  399MOL0     C54952   1.040   6.760   9.458  0.3438 -0.3033 -0.6498
  399MOL0     C54953   0.865   6.943   9.441 -0.0539 -0.0902  0.4499
  399MOL0     C54954   0.762   6.871   9.526  0.0308  0.5923  0.0397
  399MOL0     O54955   0.637   6.932   9.527 -0.0591 -0.1365 -0.5095
  399MOL0     C54956   0.543   6.857   9.587 -0.2291  0.8600 -0.1396
  399MOL0     C54957   0.503   6.889   9.714 -0.4294 -0.1571 -0.0728
  399MOL0     C54958   0.397   6.811   9.762 -0.0046  0.4529  0.2634
  399MOL0     C54959   0.353   6.692   9.703 -0.0723  0.7473 -0.6072
  399MOL0     O54960   0.266   6.611   9.771 -0.0958 -0.1808 -0.1984
  399MOL0     C54961   0.250   6.622   9.917 -0.9161 -1.1271 -0.4847
  399MOL0     C54962   0.158   6.500   9.957  1.0327  0.5074  0.4421
  399MOL0     C54963   0.226   6.363   9.954 -0.0379 -0.7091 -0.4101
  399MOL0     C54964   0.150   6.263  10.021 -0.0647  0.2853  0.3265
  399MOL0     C54965   0.181   6.115  10.000 -0.0268 -0.2209 -0.4369
  399MOL0     C54966   0.084   6.020  10.091  0.7316 -0.6711  0.4338
  399MOL0     C54967   0.138   5.884  10.112  0.2723 -0.2129 -0.6025
  399MOL0     C54968   0.094   5.817  10.249  1.0807 -0.5168 -0.0038
  399MOL0    Cl54969   0.161   5.914  10.390  0.4872  0.2209  0.1930
  399MOL0     C54970   0.397   6.655   9.570 -1.0502 -0.0542 -0.6065
  399MOL0     C54971   0.492   6.750   9.510 -0.1573 -0.7420  0.7201
  399MOL0     O54972   0.785   6.767   9.584 -0.6208 -0.4976  1.0487
  399MOL0     C54973   0.819   7.072   9.376  0.8385  0.3725 -1.7823
  399MOL0     C54974   0.902   7.151   9.313 -0.6272 -0.9815 -0.2747
  399MOL0     N54975   1.619   7.007   8.844  0.8078 -0.0866  0.5054
  399MOL0     N54976   1.677   6.965   8.733  0.6634  0.7071  0.9619
  399MOL0     C54977   1.811   7.899   8.041  0.2546 -0.2079 -0.0281
  399MOL0     C54978   1.829   7.918   7.904 -0.0913  1.1767  0.2819
  399MOL0     C54979   2.113   8.044   7.547  0.1070  0.2190  0.3057
  399MOL0     C54980   1.998   8.070   7.471  0.6941 -0.8267  0.4652
  399MOL0     C54981   2.007   8.119   7.338 -0.0271  0.8081 -0.7144
  399MOL0     C54982   2.131   8.150   7.285 -0.0380 -0.0273  0.3695
  399MOL0     O54983   2.127   8.205   7.158 -0.3626 -0.1689 -0.6247
  399MOL0     C54984   2.257   8.226   7.097 -0.3424  0.3780 -0.6065
  399MOL0     C54985   2.235   8.310   6.977 -0.8655  0.2455 -0.3709
  399MOL0     C54986   2.365   8.335   6.910  0.1328  0.1299 -0.5464
  399MOL0     C54987   2.350   8.411   6.778 -0.3002 -0.2813  0.3227
  399MOL0     C54988   2.319   8.553   6.801 -0.1741  0.3926  0.2605
  399MOL0     C54989   2.295   8.664   6.832  0.7519 -0.2671  0.4590
  399MOL0     C54990   2.245   8.114   7.353  0.0207  0.1825  0.3893
  399MOL0     C54991   2.242   8.055   7.479  0.1729  0.3524 -0.0770
  399MOL0     C54992   2.374   8.011   7.532  0.1768 -0.3900 -0.5346
  399MOL0     H54993   2.156   7.850   7.885 -0.8675 -4.8211  0.2857
  399MOL0     H54994   2.112   7.765   8.116 -1.9426 -1.0129  3.6971
  399MOL0     H54995   2.037   7.820   8.375  1.7321 -2.1070  1.4927
  399MOL0     H54996   2.028   7.671   8.284  0.9081  0.4249 -0.3955
  399MOL0     H54997   2.000   7.655   8.509 -0.3040  1.1763 -1.1890
  399MOL0     H54998   1.848   7.746   8.508  0.1056 -0.0297 -0.0837
  399MOL0     H54999   1.791   7.524   8.524  0.6651  0.2233  0.4547
  399MOL0     H55000   1.747   7.570   8.364  0.7157  1.2872 -0.0978
  399MOL0     H55001   1.960   7.457   8.269 -2.6812 -1.3352 -2.1224
  399MOL0     H55002   2.004   7.416   8.440 -0.5724  0.3121  0.7225
  399MOL0     H55003   1.899   7.248   8.301 -0.1457 -0.3875  1.0034
  399MOL0     H55004   1.759   7.339   8.290  0.3492 -2.6941 -0.7838
  399MOL0     H55005   1.870   7.192   8.532 -2.1496 -0.1642  1.6792
  399MOL0     H55006   1.739   7.305   8.564  1.3038 -0.9960  1.9727
  399MOL0     H55007   1.749   7.106   8.327  4.3969  0.5987  2.3729
  399MOL0     H55008   1.601   7.184   8.382  0.5595  0.3284  1.7557
  399MOL0     H55009   1.597   6.942   8.437 -1.7399 -1.2188  2.7741
  399MOL0     H55010   1.764   6.950   8.502  0.4697  0.5854  2.3374
  399MOL0     H55011   1.447   7.174   8.624  0.0078  0.4421  1.9992
  399MOL0     H55012   1.330   7.161   8.866  0.1737  2.1303 -0.4374
  399MOL0     H55013   1.463   7.272   8.926 -3.5656  0.7420  5.1352
  399MOL0     H55014   1.430   7.011   9.070  0.1042  0.4969  0.3719
  399MOL0     H55015   1.548   7.127   9.068  0.0958  1.9443 -0.0440
  399MOL0     H55016   1.359   7.163   9.240 -1.7772 -1.2812  0.4711
  399MOL0     H55017   1.327   7.290   9.122  1.5530  0.6117  5.7535
  399MOL0     H55018   1.168   7.165   9.018  2.5794  2.6479  0.9138
  399MOL0     H55019   1.197   7.011   9.103  0.6387 -0.1389 -3.5474
  399MOL0     H55020   1.176   6.951   9.337  0.5440  0.3490  0.7187
  399MOL0     H55021   1.140   6.746   9.417  0.9877  1.5645  0.1731
  399MOL0     H55022   0.973   6.678   9.430 -2.1555  2.5505 -3.7671
  399MOL0     H55023   1.064   6.754   9.565 -0.0649  0.6888 -0.4925
  399MOL0     H55024   0.537   6.972   9.775 -1.0832  0.3128 -0.3326
  399MOL0     H55025   0.356   6.844   9.857 -1.9388 -0.8535 -0.0472
  399MOL0     H55026   0.347   6.616   9.966 -0.7747 -1.2615 -0.7780
  399MOL0     H55027   0.211   6.720   9.946  1.1845 -0.1991 -0.6663
  399MOL0     H55028   0.128   6.530  10.058  1.8607 -0.2378  0.9166
  399MOL0     H55029   0.062   6.495   9.904  1.3539  2.9661 -0.4915
  399MOL0     H55030   0.326   6.366   9.997  0.1866  1.6848 -0.9413
  399MOL0     H55031   0.249   6.348   9.848 -2.5527  2.4475 -1.5606
  399MOL0     H55032   0.044   6.274  10.000  0.6306  1.5306 -3.1296
  399MOL0     H55033   0.163   6.289  10.127  1.1636  1.1234 -0.0015
  399MOL0     H55034   0.160   6.088   9.896 -0.3968 -2.0803  0.0831
  399MOL0     H55035   0.284   6.107  10.036 -0.8176  0.3632  2.1699
  399MOL0     H55036  -0.017   6.020  10.049  2.0837 -2.0924 -3.1872
  399MOL0     H55037   0.092   6.071  10.188  1.8121  0.6783 -0.3389
  399MOL0     H55038   0.247   5.890  10.116  0.2750  2.1779 -2.0935
  399MOL0     H55039   0.102   5.816  10.034 -0.9083  1.3364 -1.4603
  399MOL0     H55040   0.135   5.716  10.252 -0.3608 -1.2393 -1.8417
  399MOL0     H55041  -0.014   5.800  10.252  0.5342  2.4511  2.0795
  399MOL0     H55042   0.363   6.565   9.519 -0.1071  0.4365 -2.1308
  399MOL0     H55043   0.527   6.731   9.409 -0.8490 -0.5685  0.4434
  399MOL0     H55044   0.716   7.106   9.370  0.3556 -0.6389 -0.1626
  399MOL0     H55045   0.868   7.247   9.276  1.0796 -0.1889  0.1328
  399MOL0     H55046   1.712   7.917   8.083  1.2673  1.5210  1.8033
  399MOL0     H55047   1.740   7.948   7.851 -1.6030  1.4521  2.8108
  399MOL0     H55048   1.903   8.060   7.523  1.0030 -1.7905  0.8698
  399MOL0     H55049   1.914   8.141   7.287 -0.2198  1.5150 -0.0610
  399MOL0     H55050   2.334   8.273   7.159 -0.6458 -0.9792  0.8485
  399MOL0     H55051   2.290   8.124   7.078  0.6337 -0.1371  3.0729
  399MOL0     H55052   2.197   8.406   7.012 -1.1640 -0.2367  0.6665
  399MOL0     H55053   2.164   8.265   6.906 -1.6807  1.8765 -0.6170
  399MOL0     H55054   2.420   8.408   6.971 -2.6083  3.4021 -1.6305
  399MOL0     H55055   2.423   8.243   6.899  1.6763  0.8830  0.8524
  399MOL0     H55056   2.262   8.369   6.728 -0.6194 -1.5447  1.8819
  399MOL0     H55057   2.442   8.390   6.723  1.0224 -0.6316  2.5440
  399MOL0     H55058   2.254   8.760   6.857 -1.1769 -1.0765  0.5797
  399MOL0     H55059   2.344   8.129   7.311  0.0117  1.5883  0.8109
  399MOL0     H55060   2.412   8.096   7.589 -1.1583  2.1469 -3.1690
  399MOL0     H55061   2.375   7.920   7.593  0.9122 -1.4487 -2.0601
  399MOL0     H55062   2.441   7.987   7.450  1.8316 -1.7478  1.1288
  400MOL0     O55063   5.285   5.509   6.899  0.4404 -0.2640 -0.3207
  400MOL0     C55064   5.261   5.506   6.786 -0.2503 -0.2829  1.0228
  400MOL0     O55065   5.207   5.407   6.714 -0.4586  0.3753  0.2443
  400MOL0     C55066   5.152   5.307   6.780  1.6853 -0.5248 -0.7871
  400MOL0     C55067   5.144   5.173   6.736 -0.5770 -0.3940 -0.2952
  400MOL0     C55068   5.061   5.079   6.802 -0.4958 -0.8325  0.4344
  400MOL0     C55069   4.989   5.113   6.918  0.4888  0.4522 -0.1981
  400MOL0     O55070   4.917   5.024   7.001 -0.0121 -0.2757  0.1371
  400MOL0     C55071   4.994   4.904   7.033 -0.1641  0.4774 -0.8404
  400MOL0     C55072   4.941   4.842   7.163 -0.1163  0.8825 -0.6072
  400MOL0     C55073   5.001   4.691   7.179  0.9117 -1.0076 -0.6272
  400MOL0     C55074   4.913   4.604   7.271 -0.0838  0.3092  0.5832
  400MOL0     C55075   4.821   4.502   7.196 -0.1744 -1.1904  0.3299
  400MOL0     C55076   4.692   4.561   7.149 -0.3030  0.1962  0.2069
  400MOL0     C55077   4.609   4.443   7.097 -0.6877 -0.7167 -0.5217
  400MOL0     C55078   4.536   4.381   7.216  0.9780 -0.1926  1.0928
  400MOL0     N55079   4.469   4.254   7.187 -0.6589 -0.5213 -0.3634
  400MOL0     C55080   4.432   4.161   7.284 -0.3518  1.1450 -0.0693
  400MOL0     C55081   4.394   4.053   7.209  0.7991 -0.2435 -0.1360
  400MOL0     C55082   4.330   3.943   7.285 -1.4361  0.0315  0.1222
  400MOL0     C55083   4.274   3.840   7.202  0.0432 -0.0107  0.2850
  400MOL0     C55084   4.224   3.722   7.289 -0.6580  0.2681  0.3848
  400MOL0     C55085   4.241   3.579   7.226 -0.1787 -0.4606 -0.2672
  400MOL0     O55086   4.162   3.565   7.105  0.0773 -0.1350 -0.0928
  400MOL0     C55087   4.110   3.445   7.068  0.1685  0.6433 -1.1017
  400MOL0     C55088   3.990   3.432   7.008  0.5642 -0.3708  0.5500
  400MOL0     C55089   3.941   3.310   6.963  0.2225  1.0141 -0.2597
  400MOL0     C55090   3.802   3.314   6.888 -0.3872 -0.0161  0.6373
  400MOL0     C55091   4.007   3.187   6.996  0.1531 -0.6744  0.2517
  400MOL0     C55092   3.967   3.062   6.925 -0.3895 -0.4052 -0.3776
  400MOL0     O55093   4.076   2.977   6.918  0.2033 -0.6164 -0.5358
  400MOL0     C55094   4.054   2.857   6.865  0.7570  0.4724  0.2245
  400MOL0     C55095   3.978   2.762   6.926 -0.2230  1.0124 -1.0522
  400MOL0     C55096   3.952   2.636   6.862 -0.3509  0.6347 -0.4482
  400MOL0     C55097   4.003   2.597   6.747  0.3642 -0.2344  0.3434
  400MOL0     O55098   3.975   2.480   6.686  0.1652  0.4520  0.7784
  400MOL0     C55099   3.914   2.366   6.760 -1.3195  0.6017 -1.1040
  400MOL0     C55100   3.945   2.238   6.691  0.0191  0.0609 -0.4898
  400MOL0     C55101   3.833   2.137   6.700  0.4775  0.0442  0.3708
  400MOL0     C55102   3.849   2.019   6.607 -0.3975  0.3054  0.4182
  400MOL0     C55103   3.901   2.046   6.463  0.0866  0.6536 -0.0274
  400MOL0     C55104   3.880   1.919   6.385 -0.1519  0.0476 -0.9003
  400MOL0     C55105   3.865   1.956   6.234 -0.8546 -0.6797 -0.5857
  400MOL0     C55106   3.824   1.838   6.155 -0.4871 -0.5071  1.0075
  400MOL0    Cl55107   3.649   1.834   6.179 -0.2452  0.0708 -0.0582
  400MOL0     C55108   4.080   2.698   6.676  0.0737  0.4271  0.0522
  400MOL0     C55109   4.111   2.820   6.740  0.7177  0.0283 -0.2473
  400MOL0     O55110   3.851   3.034   6.903 -0.0546  0.5605 -0.0107
  400MOL0     C55111   4.116   3.191   7.081 -0.7075  0.2693  0.3807
  400MOL0     C55112   4.167   3.321   7.112  0.2946  0.3020  0.2241
  400MOL0     N55113   4.403   4.068   7.076 -0.3243 -0.6696  0.5491
  400MOL0     N55114   4.450   4.192   7.065  0.6973 -0.0341 -0.1645
  400MOL0     C55115   4.988   5.238   6.959 -0.6419 -0.1315  0.0477
  400MOL0     C55116   5.064   5.332   6.891  0.5516  0.2876 -1.0053
  400MOL0     C55117   5.273   5.645   6.724 -0.1314  0.8057  0.2345
  400MOL0     C55118   5.192   5.667   6.611  0.8369 -0.3639 -0.8775
  400MOL0     C55119   5.181   5.797   6.548 -0.0110 -0.4192 -0.8053
  400MOL0     C55120   5.259   5.905   6.600  0.6039 -0.1214 -1.3530
  400MOL0     O55121   5.243   6.026   6.540  0.1075 -0.1539 -0.5901
  400MOL0     C55122   5.360   6.099   6.500 -0.8559  0.2780 -0.6422
  400MOL0     C55123   5.450   6.012   6.426  0.0299  0.1878  0.7149
  400MOL0     C55124   5.397   5.950   6.296 -0.0177  0.5380 -0.3658
  400MOL0     C55125   5.336   6.053   6.202 -0.8048  0.6466 -0.3845
  400MOL0     C55126   5.350   6.014   6.062  0.2155  0.8041  0.0139
  400MOL0     C55127   5.360   5.995   5.948 -0.4980 -0.2381  0.4054
  400MOL0     C55128   5.331   5.884   6.716 -0.1078  0.0209  0.1328
  400MOL0     C55129   5.355   5.753   6.766 -0.2676  0.3521 -0.8234
  400MOL0     C55130   5.475   5.735   6.858 -0.1923 -0.7554 -0.7244
  400MOL0     H55131   5.206   5.140   6.654 -0.2329  1.8658 -0.9909
  400MOL0     H55132   5.072   4.974   6.776  2.9532 -0.2243 -1.1559
  400MOL0     H55133   5.101   4.919   7.022  0.1839 -1.3748 -0.3159
  400MOL0     H55134   4.959   4.838   6.952 -2.0270  2.2945 -1.6059
  400MOL0     H55135   4.969   4.902   7.250  1.6048  0.3050 -0.7227
  400MOL0     H55136   4.833   4.829   7.167 -0.0014 -0.2275 -0.7924
  400MOL0     H55137   5.002   4.642   7.082  0.6869  0.1027 -1.2110
  400MOL0     H55138   5.102   4.704   7.221  0.0962  2.7880  0.5988
  400MOL0     H55139   4.967   4.536   7.337 -1.6684  1.2289  3.0023
  400MOL0     H55140   4.843   4.662   7.333 -0.7354 -1.0478  1.1605
  400MOL0     H55141   4.808   4.420   7.267 -0.1367 -0.3621  1.3238
  400MOL0     H55142   4.869   4.463   7.106  1.8796 -0.7015  1.1478
  400MOL0     H55143   4.650   4.623   7.229  3.6764  0.3555  2.4291
  400MOL0     H55144   4.709   4.629   7.065  1.7106  0.2391  0.5955
  400MOL0     H55145   4.670   4.361   7.058  0.6354  1.1687 -2.7124
  400MOL0     H55146   4.547   4.481   7.015  1.1602  0.1736 -1.5824
  400MOL0     H55147   4.610   4.369   7.296 -1.1541 -1.3541  2.9865
  400MOL0     H55148   4.458   4.452   7.242  2.7435  2.0054  0.6977
  400MOL0     H55149   4.409   4.167   7.390 -2.9155  0.5431 -0.5262
  400MOL0     H55150   4.249   3.972   7.353 -3.1435 -4.4687  0.4116
  400MOL0     H55151   4.411   3.894   7.341  1.2002  3.3859 -0.4672
  400MOL0     H55152   4.189   3.875   7.143  1.1268  0.3364 -1.1139
  400MOL0     H55153   4.350   3.802   7.134 -1.6606 -0.8864 -1.2205
  400MOL0     H55154   4.268   3.715   7.389 -1.8184  1.4323  1.0142
  400MOL0     H55155   4.119   3.735   7.316  0.2992  1.1797  4.1971
  400MOL0     H55156   4.347   3.554   7.214  0.3667 -0.0415  2.6973
  400MOL0     H55157   4.195   3.521   7.306 -3.1112  1.4315 -0.4400
  400MOL0     H55158   3.931   3.516   6.975  1.0772 -0.3036 -0.2262
  400MOL0     H55159   3.717   3.274   6.944  0.2271  0.2605  1.7963
  400MOL0     H55160   3.827   3.247   6.805  2.4891 -1.1968  2.3168
  400MOL0     H55161   3.786   3.416   6.851 -0.4682 -0.6576 -1.2230
  400MOL0     H55162   3.940   2.788   7.024  1.1558  1.7957 -0.6998
  400MOL0     H55163   3.874   2.579   6.910 -3.4787  3.4283 -1.8125
  400MOL0     H55164   3.973   2.358   6.852 -3.3351  2.1910  0.4154
  400MOL0     H55165   3.808   2.388   6.779 -0.7382  0.2368  4.1782
  400MOL0     H55166   3.971   2.263   6.587  1.4739  0.1446 -0.1180
  400MOL0     H55167   4.040   2.196   6.725  0.1011  0.5004 -0.1632
  400MOL0     H55168   3.737   2.181   6.673  1.0507 -0.5886 -3.1476
  400MOL0     H55169   3.832   2.097   6.802  0.0967 -0.9089 -0.0023
  400MOL0     H55170   3.749   1.974   6.604 -0.6651  0.8690  0.7838
  400MOL0     H55171   3.919   1.945   6.648 -0.4704  0.8870  1.6456
  400MOL0     H55172   3.841   2.129   6.425 -0.4256  0.6406  0.7403
  400MOL0     H55173   4.007   2.070   6.454  1.3375 -3.2752  2.0340
  400MOL0     H55174   3.786   1.871   6.412 -0.5653  0.1361 -2.1295
  400MOL0     H55175   3.959   1.845   6.402  0.4920 -0.1830 -4.3027
  400MOL0     H55176   3.962   1.990   6.196 -1.7828  2.0844 -0.7022
  400MOL0     H55177   3.798   2.040   6.210  2.1696  2.0499 -0.2322
  400MOL0     H55178   3.867   1.743   6.189  2.0999 -0.0119 -0.5891
  400MOL0     H55179   3.853   1.862   6.053 -2.0039  0.0494  0.6866
  400MOL0     H55180   4.130   2.686   6.581  0.5871  2.4720  0.0308
  400MOL0     H55181   4.190   2.883   6.700  1.4535  1.0841  2.5469
  400MOL0     H55182   4.149   3.092   7.110  0.7028  0.4438 -0.5022
  400MOL0     H55183   4.253   3.315   7.178  1.5480  1.3883 -1.2492
  400MOL0     H55184   4.943   5.264   7.054 -0.5503 -0.3496  0.1503
  400MOL0     H55185   5.041   5.436   6.910 -2.3179 -0.5757  1.0063
  400MOL0     H55186   5.127   5.595   6.561 -0.6694 -0.0246  0.5150
  400MOL0     H55187   5.119   5.816   6.461  0.4057  0.5482 -0.9056
  400MOL0     H55188   5.343   6.189   6.440 -0.4426  0.9302  0.2109
  400MOL0     H55189   5.399   6.129   6.597  0.5373 -1.6756 -0.5336
  400MOL0     H55190   5.487   5.930   6.489 -0.0018  0.4396  1.0655
  400MOL0     H55191   5.534   6.071   6.388  0.8792 -1.4619 -0.0415
  400MOL0     H55192   5.480   5.905   6.242 -1.0305 -2.5998  0.5275
  400MOL0     H55193   5.332   5.868   6.327  1.0748  0.3883  1.6687
  400MOL0     H55194   5.386   6.149   6.221 -0.4259  0.4438 -0.3540
  400MOL0     H55195   5.231   6.075   6.225  0.1868  3.8880  1.7503
  400MOL0     H55196   5.369   5.980   5.843  0.2851  0.6212  0.3344
  400MOL0     H55197   5.397   5.960   6.755 -0.3924  0.7498 -0.7845
  400MOL0     H55198   5.563   5.787   6.819 -1.7646  2.1684 -0.6397
  400MOL0     H55199   5.459   5.788   6.952  0.0938  0.2930 -1.2577
  400MOL0     H55200   5.505   5.630   6.873 -1.0829 -1.3947 -2.9678
  401MOL0     O55201   2.084   1.573   8.696  0.2997  0.5665  0.3877
  401MOL0     C55202   2.086   1.680   8.765 -0.1532  0.4283  0.0615
  401MOL0     O55203   2.196   1.762   8.772 -0.0538 -0.4455  0.0841
  401MOL0     C55204   2.305   1.721   8.687  0.1977 -0.6442 -0.1851
  401MOL0     C55205   2.299   1.773   8.550  0.0822 -0.2201  0.0298
  401MOL0     C55206   2.416   1.742   8.469  0.3580  0.4461 -0.5432
  401MOL0     C55207   2.523   1.672   8.515 -0.4199 -0.1264 -0.3195
  401MOL0     O55208   2.635   1.642   8.443 -0.5974 -0.8308 -0.8207
  401MOL0     C55209   2.619   1.621   8.305 -0.8352  0.4952 -0.4186
  401MOL0     C55210   2.751   1.592   8.240  0.3446 -0.0288 -0.8145
  401MOL0     C55211   2.839   1.719   8.238 -0.0532  0.1702  0.1776
  401MOL0     C55212   2.979   1.699   8.173  0.5724 -0.2388  0.6285
  401MOL0     C55213   2.967   1.680   8.019  0.1482 -0.0567  0.0995
  401MOL0     C55214   3.105   1.685   7.954  0.7092  0.4853 -0.0679
  401MOL0     C55215   3.111   1.689   7.805 -0.4173  0.7618 -0.2775
  401MOL0     C55216   3.088   1.543   7.751  0.1053 -0.3868  0.6420
  401MOL0     N55217   3.145   1.540   7.621 -0.8116 -0.4100  0.2394
  401MOL0     C55218   3.276   1.538   7.593 -0.1159 -0.7565 -0.2301
  401MOL0     C55219   3.290   1.513   7.467 -0.0182  0.2349 -0.1234
  401MOL0     C55220   3.428   1.495   7.403  1.1188  0.0658 -0.0593
  401MOL0     C55221   3.413   1.525   7.255 -0.6156 -0.6314  1.0749
  401MOL0     C55222   3.549   1.522   7.173  0.8743 -0.4180 -0.6643
  401MOL0     C55223   3.623   1.382   7.178 -0.6604 -1.4241 -0.2524
  401MOL0     O55224   3.534   1.290   7.131  0.3129 -0.3709  0.1820
  401MOL0     C55225   3.586   1.168   7.094 -0.0089 -0.5883  0.4893
  401MOL0     C55226   3.503   1.064   7.120 -0.1818  0.3703 -0.2487
  401MOL0     C55227   3.544   0.935   7.078  1.8992 -0.8472 -0.9202
  401MOL0     C55228   3.438   0.824   7.103 -0.1448  0.3239 -0.2008
  401MOL0     C55229   3.665   0.911   7.017  0.6035 -0.3847  0.3314
  401MOL0     C55230   3.714   0.774   6.996  0.5346  0.1071  0.2053
  401MOL0     O55231   3.647   0.665   7.056 -0.0262 -0.8011 -0.0136
  401MOL0     C55232   3.721   0.547   7.051 -0.1465  0.3249 -0.0746
  401MOL0     C55233   3.855   0.527   7.098 -0.0725 -0.1510  0.3630
  401MOL0     C55234   3.918   0.398   7.088  0.2537 -0.4849  0.0947
  401MOL0     C55235   3.850   0.294   7.023 -0.1597 -0.8823  0.4729
  401MOL0     O55236   3.907   0.167   7.013  0.0176  0.3994  0.0986
  401MOL0     C55237   3.822   0.054   7.051 -0.6381 -0.5764 -0.5978
  401MOL0     C55238   3.894  -0.069   7.088  0.2265  0.8582 -0.1924
  401MOL0     C55239   3.985  -0.135   6.981 -0.2727 -0.0907 -0.2437
  401MOL0     C55240   4.071  -0.248   7.046 -0.9246 -0.8663  0.0652
  401MOL0     C55241   4.158  -0.322   6.935 -0.2008  0.0954  0.8799
  401MOL0     C55242   4.237  -0.217   6.865 -0.0527 -0.7575  0.4035
  401MOL0     C55243   4.371  -0.274   6.808  0.1757 -0.1206  0.0231
  401MOL0     C55244   4.429  -0.182   6.708  0.6378  0.4042  0.0508
  401MOL0    Cl55245   4.514  -0.048   6.773 -0.8503  0.3552 -0.2373
  401MOL0     C55246   3.727   0.316   6.960 -0.3458 -0.6019 -0.0644
  401MOL0     C55247   3.669   0.446   6.973 -0.4517  0.2817 -0.2643
  401MOL0     O55248   3.798   0.760   6.907  0.4329 -0.1761 -0.1118
  401MOL0     C55249   3.747   1.023   6.998 -0.3559 -0.3126  0.7722
  401MOL0     C55250   3.710   1.155   7.025 -0.0611 -0.3934 -0.3997
  401MOL0     N55251   3.157   1.503   7.420 -0.6066 -0.0234  0.0093
  401MOL0     N55252   3.074   1.526   7.511 -0.2667 -0.3204 -0.6692
  401MOL0     C55253   2.520   1.624   8.650 -0.3345 -0.4728 -0.6696
  401MOL0     C55254   2.412   1.647   8.737 -0.9550  0.7386  0.2576
  401MOL0     C55255   1.967   1.707   8.860  0.2475  0.0873  1.1561
  401MOL0     C55256   2.007   1.775   8.974  0.0518  0.1460 -0.5411
  401MOL0     C55257   1.905   1.806   9.063 -0.0418 -0.0594  0.8359
  401MOL0     C55258   1.769   1.757   9.043 -0.4360 -0.2963  0.2173
  401MOL0     O55259   1.662   1.758   9.128 -0.5148  0.5650 -0.4412
  401MOL0     C55260   1.699   1.678   9.239 -0.7477 -0.1302 -0.8443
  401MOL0     C55261   1.577   1.593   9.280  0.0064 -0.9001 -0.2061
  401MOL0     C55262   1.471   1.672   9.361  0.4184  0.9941  0.5475
  401MOL0     C55263   1.359   1.581   9.405 -0.8254 -0.5810  0.4243
  401MOL0     C55264   1.287   1.663   9.507  0.2584 -0.7907 -0.3806
  401MOL0     C55265   1.241   1.720   9.610 -0.1520  0.4777 -0.2999
  401MOL0     C55266   1.741   1.686   8.931 -0.3082  0.3661 -0.7918
  401MOL0     C55267   1.836   1.655   8.840  0.3709  0.6536 -0.8293
  401MOL0     C55268   1.795   1.575   8.718  0.5533  1.3316  1.1662
  401MOL0     H55269   2.213   1.816   8.499  0.1186 -4.1244 -3.8491
  401MOL0     H55270   2.418   1.774   8.365 -0.2385 -1.1389 -1.0722
  401MOL0     H55271   2.574   1.708   8.256 -1.2386  0.2276 -0.5274
  401MOL0     H55272   2.558   1.531   8.290  2.3462 -1.9023 -0.1489
  401MOL0     H55273   2.787   1.508   8.300 -0.6985 -0.4660 -0.7949
  401MOL0     H55274   2.743   1.567   8.134  0.8287  0.9020 -1.0852
  401MOL0     H55275   2.788   1.803   8.190  2.7545  1.2247 -1.1844
  401MOL0     H55276   2.864   1.737   8.343  1.7635 -0.0550 -0.1905
  401MOL0     H55277   3.033   1.793   8.186 -0.6679  0.5060  0.5879
  401MOL0     H55278   3.034   1.616   8.218  2.2865 -0.7782 -2.2384
  401MOL0     H55279   2.897   1.749   7.970  1.5367  1.3660  0.0376
  401MOL0     H55280   2.914   1.587   7.994  0.9632 -0.2971 -0.8167
  401MOL0     H55281   3.162   1.775   7.979  0.5394  1.4505 -2.8433
  401MOL0     H55282   3.155   1.592   7.981 -2.4208 -2.4895 -3.5048
  401MOL0     H55283   3.208   1.733   7.780 -0.9828  1.7485 -0.7936
  401MOL0     H55284   3.034   1.750   7.756 -0.8101  1.0494  0.6760
  401MOL0     H55285   3.132   1.462   7.810 -1.4181 -1.2697  0.6258
  401MOL0     H55286   2.979   1.529   7.751 -0.5902  3.7225  1.5841
  401MOL0     H55287   3.344   1.546   7.677  0.5693 -2.8323 -0.5203
  401MOL0     H55288   3.471   1.394   7.411  1.6742  0.0271 -2.5420
  401MOL0     H55289   3.506   1.561   7.443  0.6272 -0.1886  1.3631
  401MOL0     H55290   3.343   1.458   7.205 -1.2180  0.0959  0.9333
  401MOL0     H55291   3.368   1.625   7.246 -1.5186 -0.9947  1.3930
  401MOL0     H55292   3.527   1.549   7.069 -1.0489  0.8909  0.0282
  401MOL0     H55293   3.617   1.601   7.207  2.5390 -0.5607 -3.3937
  401MOL0     H55294   3.709   1.392   7.112  0.6676  0.5241  1.6073
  401MOL0     H55295   3.650   1.350   7.279 -2.4050 -1.0246  0.3699
  401MOL0     H55296   3.404   1.083   7.159 -0.8115 -1.2424 -0.9993
  401MOL0     H55297   3.417   0.768   7.011  0.2837  1.2410 -0.8758
  401MOL0     H55298   3.344   0.872   7.134  0.7905  0.7650  2.1158
  401MOL0     H55299   3.465   0.745   7.173  0.4743 -0.9114 -1.7670
  401MOL0     H55300   3.891   0.611   7.156  1.7135 -2.7558  3.4000
  401MOL0     H55301   4.007   0.358   7.135 -0.4386 -1.1301  0.8920
  401MOL0     H55302   3.767   0.085   7.140 -2.6373  1.1724 -2.3247
  401MOL0     H55303   3.746   0.039   6.974 -2.2919  2.1955  0.3017
  401MOL0     H55304   3.971  -0.041   7.161  0.3228 -0.0999  0.0854
  401MOL0     H55305   3.824  -0.146   7.122  1.3271 -0.4223 -0.7423
  401MOL0     H55306   4.038  -0.054   6.929 -0.6246 -2.6267 -5.1633
  401MOL0     H55307   3.920  -0.185   6.909  0.7504 -2.0277  0.1356
  401MOL0     H55308   4.020  -0.332   7.094  3.2476 -2.2957  2.5761
  401MOL0     H55309   4.125  -0.198   7.128 -1.6738  2.0004 -1.0565
  401MOL0     H55310   4.227  -0.394   6.980  1.0859  0.3373 -0.6197
  401MOL0     H55311   4.082  -0.367   6.871 -0.4147  0.2620  1.0169
  401MOL0     H55312   4.266  -0.134   6.929  3.1515 -1.2923 -0.1829
  401MOL0     H55313   4.162  -0.183   6.793 -0.0021 -1.8796 -0.2049
  401MOL0     H55314   4.352  -0.358   6.741 -0.2995  0.6968 -0.8991
  401MOL0     H55315   4.445  -0.288   6.887 -0.0962 -0.8478  0.1541
  401MOL0     H55316   4.343  -0.156   6.645 -1.0089 -1.5303  1.3779
  401MOL0     H55317   4.503  -0.237   6.649  0.4220 -0.9658  1.0224
  401MOL0     H55318   3.674   0.237   6.907 -3.9106  0.9418  0.9084
  401MOL0     H55319   3.564   0.453   6.944 -0.7835  1.7687  1.1719
  401MOL0     H55320   3.848   1.017   6.960 -0.8955 -1.4789 -0.6089
  401MOL0     H55321   3.778   1.236   7.006 -0.5131  0.1711  0.3220
  401MOL0     H55322   2.604   1.569   8.692 -1.1749 -0.3507  1.2272
  401MOL0     H55323   2.419   1.619   8.842  2.5362 -0.5891 -0.1922
  401MOL0     H55324   2.113   1.798   8.987  0.9795 -3.8059  0.0574
  401MOL0     H55325   1.920   1.866   9.152  1.8324 -0.0284  0.5321
  401MOL0     H55326   1.779   1.609   9.209 -0.2094  1.1423 -2.5153
  401MOL0     H55327   1.729   1.745   9.319  0.1183  0.2577 -1.4731
  401MOL0     H55328   1.613   1.516   9.348 -0.5970 -1.3154 -0.3484
  401MOL0     H55329   1.527   1.535   9.202  1.5796 -2.3919 -0.1569
  401MOL0     H55330   1.519   1.707   9.453 -1.3924 -0.9525  2.3589
  401MOL0     H55331   1.432   1.759   9.307  0.0261 -0.1102 -1.0167
  401MOL0     H55332   1.399   1.492   9.454 -2.4303 -2.1071 -0.8736
  401MOL0     H55333   1.301   1.535   9.324 -1.4381 -1.9656  1.6062
  401MOL0     H55334   1.202   1.766   9.699  1.7574  0.7324  0.4677
  401MOL0     H55335   1.641   1.644   8.929 -0.3763  0.5262 -0.7592
  401MOL0     H55336   1.800   1.466   8.728 -0.1279  1.1319 -0.4363
  401MOL0     H55337   1.690   1.595   8.695  0.6098 -1.2081 -1.9473
  401MOL0     H55338   1.844   1.598   8.623 -1.5160 -0.5330 -0.4483
  402MOL0     O55339   2.154   5.910   1.818 -0.2647 -0.1456 -0.0572
  402MOL0     C55340   2.142   5.865   1.703  0.0266 -0.1717  0.3053
  402MOL0     O55341   2.217   5.912   1.593  1.1342 -0.4061  0.2163
  402MOL0     C55342   2.271   6.037   1.622 -0.2699  0.2029  0.0066
  402MOL0     C55343   2.393   6.046   1.691  0.0465  0.4783  0.1548
  402MOL0     C55344   2.442   6.176   1.718  0.3777 -1.5298 -0.2850
  402MOL0     C55345   2.384   6.298   1.681 -1.4685  0.6510 -0.8538
  402MOL0     O55346   2.450   6.403   1.725  0.1050 -0.3955 -0.1223
  402MOL0     C55347   2.381   6.532   1.696  0.4515 -0.2655 -0.0692
  402MOL0     C55348   2.468   6.652   1.734  0.0461  0.2974  0.8094
  402MOL0     C55349   2.498   6.744   1.615  1.3494  0.9529 -0.1652
  402MOL0     C55350   2.610   6.833   1.643 -0.6651  0.2335  1.2495
  402MOL0     C55351   2.571   6.955   1.732 -0.0833  1.2331  0.2588
  402MOL0     C55352   2.671   7.070   1.706 -0.0731 -0.1885 -0.4194
  402MOL0     C55353   2.657   7.194   1.787  0.4503  0.3645 -0.3475
  402MOL0     C55354   2.555   7.306   1.738  1.0535 -0.6459  0.4325
  402MOL0     N55355   2.622   7.402   1.643 -0.6399  0.7271  0.3573
  402MOL0     C55356   2.656   7.376   1.509 -0.0940 -0.1877 -0.4936
  402MOL0     C55357   2.729   7.486   1.485 -1.3158  0.2175  0.8413
  402MOL0     C55358   2.796   7.498   1.345 -0.2694  0.1410  1.3954
  402MOL0     C55359   2.944   7.495   1.364 -0.7048  0.6717  0.9691
  402MOL0     C55360   3.001   7.388   1.468 -0.5704  0.0423 -0.4086
  402MOL0     C55361   3.156   7.366   1.471  0.7583 -0.7430 -0.4156
  402MOL0     O55362   3.191   7.265   1.367 -0.2731 -0.2281  0.0069
  402MOL0     C55363   3.121   7.151   1.354  0.2176  0.1262  1.1241
  402MOL0     C55364   3.074   7.109   1.227  0.1152 -0.4199 -0.2289
  402MOL0     C55365   2.994   6.995   1.217 -0.0301 -1.4005  0.5256
  402MOL0     C55366   2.952   6.953   1.082  0.4953 -0.6443  0.3373
  402MOL0     C55367   2.957   6.917   1.330 -0.6165 -1.0323 -0.3594
  402MOL0     C55368   2.874   6.801   1.319 -0.2253 -0.4970  0.5209
  402MOL0     O55369   2.941   6.684   1.302  0.6428  0.2357 -0.2838
  402MOL0     C55370   2.857   6.578   1.322  0.6401 -0.0703 -1.1605
  402MOL0     C55371   2.828   6.494   1.218  0.1845 -0.3630 -0.0112
  402MOL0     C55372   2.766   6.373   1.227  0.8292  0.3480 -0.6195
  402MOL0     C55373   2.722   6.325   1.351 -0.8137 -0.7735  1.2927
  402MOL0     O55374   2.674   6.197   1.348  0.1096 -0.1569 -0.2868
  402MOL0     C55375   2.605   6.161   1.463 -0.5031  0.4283  0.5254
  402MOL0     C55376   2.607   6.007   1.451 -0.3109  0.0943 -0.5779
  402MOL0     C55377   2.507   5.961   1.344  0.2989  0.0265  0.1544
  402MOL0     C55378   2.477   5.806   1.383  1.0680  0.6389 -0.7020
  402MOL0     C55379   2.372   5.730   1.284  0.1908 -0.9800  0.0890
  402MOL0     C55380   2.251   5.813   1.248  0.3147 -0.1709 -0.1553
  402MOL0     C55381   2.151   5.744   1.159  0.3363  0.2726 -0.2288
  402MOL0     C55382   2.024   5.829   1.121 -0.1132 -0.2937  0.2738
  402MOL0    Cl55383   1.900   5.806   1.245 -0.3708 -1.0185  0.0463
  402MOL0     C55384   2.741   6.410   1.461 -0.3798  0.9698  0.5326
  402MOL0     C55385   2.807   6.537   1.446  1.6044  0.0019  0.4918
  402MOL0     O55386   2.753   6.823   1.335 -0.0219 -0.0671 -0.5879
  402MOL0     C55387   3.012   6.955   1.446 -0.3975 -0.6181 -0.2609
  402MOL0     C55388   3.087   7.072   1.464 -0.0936  0.1992  0.1200
  402MOL0     N55389   2.762   7.562   1.591  0.0133  0.0363 -0.9127
  402MOL0     N55390   2.702   7.505   1.691 -0.1721 -0.0285  0.4750
  402MOL0     C55391   2.264   6.285   1.605  0.0856 -0.6554 -0.6819
  402MOL0     C55392   2.214   6.152   1.576  0.7995  0.7526 -0.1014
  402MOL0     C55393   2.057   5.739   1.683  0.3330 -0.1482  0.4530
  402MOL0     C55394   2.075   5.673   1.562 -1.0691  0.1227 -0.0762
  402MOL0     C55395   2.006   5.562   1.535  0.6790  0.6812  0.4542
  402MOL0     C55396   1.918   5.498   1.624 -0.7653  0.6403 -0.8499
  402MOL0     O55397   1.844   5.387   1.576  0.0443  0.2245 -0.8825
  402MOL0     C55398   1.759   5.316   1.670 -0.0266 -0.3633  0.1954
  402MOL0     C55399   1.726   5.180   1.607  0.2723 -0.3353 -0.0841
  402MOL0     C55400   1.681   5.073   1.715 -0.0360  0.1280 -0.1520
  402MOL0     C55401   1.715   4.932   1.670  0.3229 -1.7231  0.0168
  402MOL0     C55402   1.642   4.898   1.546 -1.1765  0.3100 -0.6239
  402MOL0     C55403   1.601   4.863   1.434 -0.0139  0.7469  0.3471
  402MOL0     C55404   1.896   5.570   1.741  0.2766  0.7833 -0.7471
  402MOL0     C55405   1.961   5.686   1.775 -0.4660  0.1395 -1.0713
  402MOL0     C55406   1.916   5.762   1.901 -0.2393  0.3559 -0.2738
  402MOL0     H55407   2.448   5.954   1.711 -3.2744 -1.5325  1.0326
  402MOL0     H55408   2.538   6.185   1.768  1.1117 -1.1374 -1.7023
  402MOL0     H55409   2.293   6.536   1.761  0.5707 -1.4679  0.1851
  402MOL0     H55410   2.355   6.535   1.590 -2.3138 -0.9041  0.5011
  402MOL0     H55411   2.416   6.714   1.808 -4.2594  1.5531 -2.8317
  402MOL0     H55412   2.566   6.624   1.773  0.5439  0.8676 -0.0208
  402MOL0     H55413   2.530   6.688   1.527  1.3174  1.4122 -0.4663
  402MOL0     H55414   2.405   6.799   1.599  0.7261  0.3745  1.2208
  402MOL0     H55415   2.686   6.777   1.697 -2.6255 -3.1772  0.8023
  402MOL0     H55416   2.665   6.861   1.553 -0.3253  1.2074  1.7421
  402MOL0     H55417   2.555   6.917   1.834  1.0327 -1.7724 -0.5933
  402MOL0     H55418   2.477   6.994   1.691 -0.5410  1.8112  1.7505
  402MOL0     H55419   2.768   7.030   1.735 -0.8178 -2.0479 -0.3920
  402MOL0     H55420   2.679   7.089   1.598 -1.2473 -0.8038 -0.6277
  402MOL0     H55421   2.753   7.247   1.794  0.6259  0.6531 -3.4704
  402MOL0     H55422   2.625   7.159   1.885 -0.3452  0.9504 -0.3837
  402MOL0     H55423   2.465   7.258   1.698  0.5075  1.8554 -1.6055
  402MOL0     H55424   2.527   7.369   1.823 -1.2991  0.8961 -1.3450
  402MOL0     H55425   2.611   7.293   1.454  0.3314 -2.3081  2.1041
  402MOL0     H55426   2.775   7.593   1.295 -0.3774  0.4793  2.0715
  402MOL0     H55427   2.761   7.411   1.289  1.1032  1.1960 -1.2487
  402MOL0     H55428   2.991   7.486   1.265  0.5118  2.2412  1.3634
  402MOL0     H55429   2.989   7.588   1.399 -0.4811  0.1325  2.1327
  402MOL0     H55430   2.958   7.407   1.567 -2.0932  2.0858 -1.3783
  402MOL0     H55431   2.952   7.294   1.441 -0.9162 -0.4501  1.7468
  402MOL0     H55432   3.221   7.448   1.442  2.6921 -0.8385  3.0892
  402MOL0     H55433   3.188   7.326   1.568 -1.3993  3.4049  2.3317
  402MOL0     H55434   3.108   7.150   1.133  0.4937  2.6419  1.0993
  402MOL0     H55435   2.867   7.001   1.032  0.5701 -0.9752 -0.1204
  402MOL0     H55436   2.929   6.847   1.092 -0.7541 -0.2848  1.4353
  402MOL0     H55437   3.033   6.976   1.011 -1.0746  2.4623 -0.6380
  402MOL0     H55438   2.869   6.528   1.123  0.8802  0.3809  0.5356
  402MOL0     H55439   2.749   6.312   1.139  0.1594 -1.4890  0.7290
  402MOL0     H55440   2.648   6.189   1.560  2.4667 -0.5894 -0.4019
  402MOL0     H55441   2.510   6.213   1.446 -0.8581 -1.0913 -2.8434
  402MOL0     H55442   2.708   5.974   1.424 -0.3113  0.5693 -1.1951
  402MOL0     H55443   2.582   5.958   1.545  1.7554  1.4904  0.8002
  402MOL0     H55444   2.557   5.980   1.249  0.7723  0.2911  0.4554
  402MOL0     H55445   2.409   6.010   1.343 -0.6222 -1.4668 -3.6782
  402MOL0     H55446   2.419   5.809   1.475  1.0721  0.6501 -0.7000
  402MOL0     H55447   2.576   5.762   1.398  0.5757  0.0707  1.1220
  402MOL0     H55448   2.428   5.700   1.195 -0.3077  2.3983 -1.5426
  402MOL0     H55449   2.340   5.635   1.326  0.6377 -1.3579 -0.4128
  402MOL0     H55450   2.294   5.897   1.192  1.4004 -0.9929 -0.5996
  402MOL0     H55451   2.198   5.847   1.338  0.5532  0.8641 -0.3933
  402MOL0     H55452   2.109   5.656   1.210 -0.8813 -0.3291 -2.1607
  402MOL0     H55453   2.191   5.711   1.063 -1.2528 -0.9544 -0.5267
  402MOL0     H55454   1.976   5.810   1.024  0.9344 -0.9321 -0.1287
  402MOL0     H55455   2.049   5.935   1.113  2.0993 -0.8646 -1.0596
  402MOL0     H55456   2.712   6.393   1.565  0.7104  0.2252  0.7271
  402MOL0     H55457   2.832   6.610   1.522 -0.1311 -1.5464  2.6710
  402MOL0     H55458   2.987   6.898   1.535 -2.4280  2.7399  1.5276
  402MOL0     H55459   3.117   7.086   1.567  2.6476 -1.8605 -0.2887
  402MOL0     H55460   2.210   6.370   1.566  0.3561  0.6266  1.5523
  402MOL0     H55461   2.120   6.140   1.522  1.8150 -2.2176 -1.4405
  402MOL0     H55462   2.149   5.712   1.492 -1.5053 -0.5449 -0.9425
  402MOL0     H55463   2.019   5.519   1.436 -1.2280  0.7358  0.1382
  402MOL0     H55464   1.823   5.292   1.755 -0.9774 -2.4799  0.3889
  402MOL0     H55465   1.663   5.364   1.691 -0.3734  0.6069 -3.0211
  402MOL0     H55466   1.819   5.159   1.553  0.6617  5.3422 -2.2102
  402MOL0     H55467   1.641   5.189   1.540 -2.2422  2.1551  3.1158
  402MOL0     H55468   1.710   5.109   1.815  0.8469 -0.9172 -0.0101
  402MOL0     H55469   1.571   5.072   1.713 -0.1274 -0.5345  2.0278
  402MOL0     H55470   1.699   4.861   1.752 -0.9012  0.1757  1.4995
  402MOL0     H55471   1.823   4.928   1.650  0.4300 -0.8362  0.3745
  402MOL0     H55472   1.549   4.841   1.343 -1.8662 -0.0080  1.5046
  402MOL0     H55473   1.817   5.531   1.805 -0.5120  1.4077 -1.3281
  402MOL0     H55474   1.917   5.871   1.887  1.3821  0.8158  2.6731
  402MOL0     H55475   1.823   5.727   1.945 -1.2298 -0.5413 -2.8602
  402MOL0     H55476   1.992   5.733   1.974 -1.8939 -0.0248  1.3434
  403MOL0     O55477  11.234  10.855   9.532  0.5172 -0.6287  0.3269
  403MOL0     C55478  11.346  10.809   9.554  0.2075  0.5564 -0.2860
  403MOL0     O55479  11.414  10.813   9.673 -0.0449 -0.0849 -0.1175
  403MOL0     C55480  11.373  10.873   9.787  0.3866 -0.0433  0.2514
  403MOL0     C55481  11.288  10.989   9.790  0.7982  0.4608 -1.0739
  403MOL0     C55482  11.219  11.047   9.902 -0.4697  0.8694  0.3486
  403MOL0     C55483  11.246  10.972  10.019  0.9395 -0.0924 -0.5408
  403MOL0     O55484  11.202  11.009  10.140 -0.5890  0.3123  0.0107
  403MOL0     C55485  11.065  11.051  10.133 -0.5383  0.4682  0.8307
  403MOL0     C55486  10.992  11.052  10.269  0.1313  0.1229 -0.6106
  403MOL0     C55487  11.018  11.164  10.363 -0.1906  0.8351 -0.2280
  403MOL0     C55488  11.156  11.225  10.367 -0.0022  0.9970  1.0402
  403MOL0     C55489  11.168  11.333  10.474  0.1472 -0.4308  1.4551
  403MOL0     C55490  11.307  11.380  10.500  0.1821  0.6824  0.0293
  403MOL0     C55491  11.313  11.521  10.568 -0.3417  0.4014 -0.2444
  403MOL0     C55492  11.262  11.640  10.485 -0.1380  0.0039 -0.0294
  403MOL0     N55493  11.260  11.771  10.556 -0.5825  0.6993 -0.2773
  403MOL0     C55494  11.152  11.857  10.583 -0.4971  0.3623  0.0920
  403MOL0     C55495  11.212  11.962  10.650  0.3238  0.1522  0.2995
  403MOL0     C55496  11.170  12.095  10.702 -0.4154  0.1172  0.2561
  403MOL0     C55497  11.022  12.116  10.696  0.5351  0.3604 -0.9195
  403MOL0     C55498  10.992  12.266  10.703 -0.1344 -0.2670  1.5216
  403MOL0     C55499  10.846  12.277  10.647  0.6653  0.0994 -0.8235
  403MOL0     O55500  10.797  12.403  10.708 -0.4406 -0.0207  0.4741
  403MOL0     C55501  10.792  12.518  10.635 -0.0451 -0.1968 -0.0624
  403MOL0     C55502  10.671  12.590  10.641 -0.1374  0.4014  0.0495
  403MOL0     C55503  10.651  12.711  10.575 -0.6973 -0.0224  0.2572
  403MOL0     C55504  10.524  12.766  10.602 -0.9961 -0.6656  0.4587
  403MOL0     C55505  10.756  12.767  10.497 -0.6676 -0.0594  0.2730
  403MOL0     C55506  10.758  12.888  10.422  0.2103  0.1558 -0.3419
  403MOL0     O55507  10.641  12.942  10.419  0.5479  0.2086  0.2017
  403MOL0     C55508  10.637  13.066  10.361 -0.2759 -0.4659 -1.2123
  403MOL0     C55509  10.604  13.167  10.449 -1.1285 -0.4464  0.2728
  403MOL0     C55510  10.591  13.296  10.400  0.1573 -0.5808  0.2009
  403MOL0     C55511  10.601  13.333  10.265  0.4991  0.8376 -0.4264
  403MOL0     O55512  10.604  13.469  10.249  0.0996  0.6665 -0.2867
  403MOL0     C55513  10.605  13.535  10.117 -0.1035 -0.4175 -0.3829
  403MOL0     C55514  10.655  13.675  10.108  0.4786  0.1208  0.1716
  403MOL0     C55515  10.647  13.739   9.961 -0.4997  0.1356  0.6161
  403MOL0     C55516  10.669  13.885   9.968  0.5553  0.1225  0.4459
  403MOL0     C55517  10.691  13.954   9.824  0.3296  0.4355 -1.0668
  403MOL0     C55518  10.723  14.102   9.832  0.5065 -0.0302 -0.5963
  403MOL0     C55519  10.790  14.157   9.704  0.4463  0.1552 -0.4783
  403MOL0     C55520  10.799  14.311   9.697 -0.2249  0.3634  0.5997
  403MOL0    Cl55521  10.916  14.371   9.812 -0.7399 -0.3343 -0.5221
  403MOL0     C55522  10.625  13.229  10.172  0.2998  0.0877 -0.6085
  403MOL0     C55523  10.641  13.099  10.223  0.5549  0.4374  0.2211
  403MOL0     O55524  10.865  12.930  10.377  0.0371  0.5190  1.2575
  403MOL0     C55525  10.872  12.686  10.485  0.1468 -1.1004  0.2588
  403MOL0     C55526  10.890  12.568  10.551  0.3124 -0.4110 -0.6020
  403MOL0     N55527  11.347  11.947  10.644 -0.8442  0.1638 -0.4948
  403MOL0     N55528  11.375  11.834  10.588  0.3267  0.5745 -0.0966
  403MOL0     C55529  11.320  10.852  10.017 -0.0644 -0.3958 -0.0579
  403MOL0     C55530  11.392  10.805   9.909  0.5279 -0.0679  0.4325
  403MOL0     C55531  11.420  10.753   9.435  0.4368 -0.3243 -0.1295
  403MOL0     C55532  11.381  10.788   9.302  0.0290  1.2530  0.0219
  403MOL0     C55533  11.443  10.721   9.194 -0.0238 -0.1795 -0.0225
  403MOL0     C55534  11.548  10.631   9.210 -0.8379  0.6489  0.7153
  403MOL0     O55535  11.626  10.568   9.106 -0.9629  0.8419  0.7352
  403MOL0     C55536  11.570  10.553   8.976  0.4960  0.0197 -0.5027
  403MOL0     C55537  11.591  10.407   8.930 -1.1880  0.4111  0.1633
  403MOL0     C55538  11.531  10.306   9.038 -0.0089 -0.7526  0.0261
  403MOL0     C55539  11.601  10.170   9.042 -0.0956 -0.8807  0.0625
  403MOL0     C55540  11.557  10.098   8.918  0.5289 -0.7222 -0.1327
  403MOL0     C55541  11.496  10.027   8.845  0.1224 -0.8515  0.2587
  403MOL0     C55542  11.581  10.600   9.337  0.3850 -0.1023 -0.1651
  403MOL0     C55543  11.515  10.651   9.446  0.3286  0.6229  0.2804
  403MOL0     C55544  11.562  10.603   9.582 -0.1466  0.7706 -0.0766
  403MOL0     H55545  11.267  11.042   9.698  0.1532 -0.9796 -1.7840
  403MOL0     H55546  11.156  11.135   9.896 -1.3455  0.1352 -2.5197
  403MOL0     H55547  11.005  10.982  10.075  0.7311  1.1463 -1.4235
  403MOL0     H55548  11.064  11.153  10.093 -2.0623  0.2356  0.2239
  403MOL0     H55549  10.884  11.059  10.254 -0.6249 -2.2978  2.4866
  403MOL0     H55550  11.003  10.959  10.327  0.3179 -0.0293 -0.8879
  403MOL0     H55551  10.942  11.241  10.344 -1.3419  0.3141  1.9259
  403MOL0     H55552  10.995  11.126  10.463 -1.0184  1.3469 -0.2136
  403MOL0     H55553  11.221  11.140  10.391 -1.0199 -0.7904 -1.9160
  403MOL0     H55554  11.184  11.260  10.267 -1.1038  3.2149  1.4629
  403MOL0     H55555  11.119  11.294  10.565  0.7884 -2.8985  0.8315
  403MOL0     H55556  11.113  11.414  10.425 -0.6326  0.2284  3.2939
  403MOL0     H55557  11.358  11.311  10.568  1.3676  2.1207  0.6603
  403MOL0     H55558  11.366  11.389  10.409 -0.5523  0.3144 -0.4865
  403MOL0     H55559  11.418  11.532  10.599 -0.8712 -0.3556  2.0102
  403MOL0     H55560  11.249  11.516  10.656  0.1790 -1.6465  0.0948
  403MOL0     H55561  11.326  11.645  10.396  1.5801  1.2213  1.1983
  403MOL0     H55562  11.161  11.627  10.445  0.2890  2.2658 -2.1354
  403MOL0     H55563  11.045  11.835  10.585 -0.8272  1.6493  3.8703
  403MOL0     H55564  11.226  12.167  10.641  0.4243  2.2029  3.2936
  403MOL0     H55565  11.199  12.112  10.805 -0.4623  1.3306  0.0773
  403MOL0     H55566  10.981  12.080  10.601  1.2460  1.4980 -1.6813
  403MOL0     H55567  10.978  12.068  10.784  0.1451  2.1484 -0.0790
  403MOL0     H55568  10.988  12.309  10.803 -0.3927  2.3525  0.4634
  403MOL0     H55569  11.062  12.320  10.639 -0.9602  0.4617  1.2142
  403MOL0     H55570  10.840  12.259  10.539  1.8789 -1.5043 -0.6596
  403MOL0     H55571  10.795  12.192  10.693  1.9993 -1.1026 -1.4877
  403MOL0     H55572  10.589  12.561  10.705 -2.0486  3.8017 -0.5941
  403MOL0     H55573  10.462  12.706  10.669 -0.9452 -0.6457  0.5247
  403MOL0     H55574  10.468  12.766  10.508 -0.2005 -2.3824 -0.0370
  403MOL0     H55575  10.532  12.869  10.638 -1.0254  0.8956 -3.5134
  403MOL0     H55576  10.585  13.168  10.556 -3.1341  0.1864 -0.0502
  403MOL0     H55577  10.560  13.382  10.459 -3.0833 -1.1329 -0.5161
  403MOL0     H55578  10.677  13.480  10.055 -0.6614 -1.1147 -0.4252
  403MOL0     H55579  10.504  13.526  10.076 -1.6858 -2.2031  3.4526
  403MOL0     H55580  10.590  13.734  10.173  1.7322  1.5924  0.1405
  403MOL0     H55581  10.759  13.677  10.140  0.1404 -0.5984  1.3809
  403MOL0     H55582  10.544  13.738   9.925 -0.2761  0.5848 -0.0422
  403MOL0     H55583  10.723  13.689   9.901  2.8678  0.2958  4.2900
  403MOL0     H55584  10.753  13.905  10.035  1.4781 -1.6406 -0.1240
  403MOL0     H55585  10.579  13.934  10.006 -0.0000 -1.5848  1.3996
  403MOL0     H55586  10.777  13.912   9.771 -1.2475 -0.2178 -3.2228
  403MOL0     H55587  10.601  13.922   9.770  0.6483 -4.3629  0.7522
  403MOL0     H55588  10.799  14.119   9.909  0.1978 -0.5672 -0.1624
  403MOL0     H55589  10.632  14.154   9.860 -0.1971 -1.2361 -0.5524
  403MOL0     H55590  10.734  14.121   9.617  1.0673 -1.0180 -0.4158
  403MOL0     H55591  10.888  14.113   9.686  0.9249  1.0425 -0.1105
  403MOL0     H55592  10.701  14.359   9.698 -1.2720 -1.6869  0.4859
  403MOL0     H55593  10.843  14.334   9.599 -0.9241  1.4617  0.5293
  403MOL0     H55594  10.644  13.259  10.070  1.6799  2.7421  0.3285
  403MOL0     H55595  10.654  13.025  10.145  0.4447 -2.0229  2.3980
  403MOL0     H55596  10.963  12.723  10.439 -0.6375  0.2134 -0.2947
  403MOL0     H55597  10.982  12.515  10.528  1.6871  1.9059 -0.7929
  403MOL0     H55598  11.344  10.819  10.118  0.9882  0.4288 -0.0232
  403MOL0     H55599  11.475  10.735   9.918  0.8976  0.4903  1.4700
  403MOL0     H55600  11.300  10.855   9.275  0.5506  0.9035 -2.6302
  403MOL0     H55601  11.407  10.751   9.096 -0.7150 -0.7925  0.0348
  403MOL0     H55602  11.464  10.580   8.981  0.8328  1.3068  0.0523
  403MOL0     H55603  11.614  10.622   8.903 -1.1927  1.6132 -0.0991
  403MOL0     H55604  11.697  10.389   8.908 -1.8401 -0.1016 -2.9591
  403MOL0     H55605  11.544  10.391   8.833  1.1730  2.5564 -1.4723
  403MOL0     H55606  11.529  10.345   9.140  2.5230  0.9530 -0.4583
  403MOL0     H55607  11.424  10.307   9.016 -1.2578 -1.0111  4.9317
  403MOL0     H55608  11.564  10.129   9.136  3.0471 -0.6117  1.5594
  403MOL0     H55609  11.708  10.196   9.046  0.1665 -1.8112 -0.5548
  403MOL0     H55610  11.444   9.952   8.790  2.6073 -1.5285 -1.3338
  403MOL0     H55611  11.662  10.529   9.354  1.6881  1.2359 -0.4907
  403MOL0     H55612  11.640  10.526   9.576 -1.5289 -0.6027 -1.2366
  403MOL0     H55613  11.605  10.689   9.634  1.4521  2.9637 -4.4716
  403MOL0     H55614  11.486  10.549   9.638  1.4000 -2.7703 -1.1054
  404MOL0     O55615   5.550   4.245   1.320 -0.1064  0.7457 -0.0251
  404MOL0     C55616   5.612   4.195   1.225  0.2037  0.3986 -0.4499
  404MOL0     O55617   5.552   4.139   1.124  0.0867 -0.4855 -0.3667
  404MOL0     C55618   5.413   4.165   1.118  0.2718  0.8419 -0.0672
  404MOL0     C55619   5.354   4.268   1.039 -0.0715  0.3364 -0.1863
  404MOL0     C55620   5.225   4.263   1.006  0.5039  0.1142  0.1939
  404MOL0     C55621   5.142   4.160   1.058 -0.6161  0.1691  0.0001
  404MOL0     O55622   5.009   4.161   1.009  0.2185  0.0263 -0.6420
  404MOL0     C55623   4.916   4.178   1.121  0.7721 -0.0771  0.5545
  404MOL0     C55624   4.764   4.198   1.084  0.0487  0.6438 -0.0766
  404MOL0     C55625   4.711   4.087   0.992  0.1345 -0.4421 -0.0308
  404MOL0     C55626   4.669   3.946   1.043 -0.0193  0.1766  0.1524
  404MOL0     C55627   4.787   3.864   1.089 -0.7836 -0.1248  0.3852
  404MOL0     C55628   4.762   3.716   1.087 -0.4482  0.0259  0.3396
  404MOL0     C55629   4.880   3.642   1.164  0.4970  0.1514 -0.0858
  404MOL0     C55630   4.852   3.489   1.196  0.3477 -0.1263 -0.2266
  404MOL0     N55631   4.948   3.447   1.305  0.3639 -0.0971 -0.2170
  404MOL0     C55632   5.083   3.435   1.300  0.2053 -0.3143 -0.4152
  404MOL0     C55633   5.132   3.403   1.424 -0.7169 -0.7457  0.2895
  404MOL0     C55634   5.278   3.375   1.459 -0.5072  0.2709  0.5973
  404MOL0     C55635   5.337   3.482   1.550 -0.0618  0.4340  0.0676
  404MOL0     C55636   5.468   3.429   1.613 -1.2020  0.2207 -0.4311
  404MOL0     C55637   5.582   3.528   1.603 -0.5632  0.3051 -0.7293
  404MOL0     O55638   5.693   3.495   1.689 -0.2464  0.0658 -0.0300
  404MOL0     C55639   5.720   3.562   1.806  0.2631 -0.2576 -0.7268
  404MOL0     C55640   5.837   3.534   1.877  0.5341  0.1140 -0.3783
  404MOL0     C55641   5.866   3.607   2.000 -0.9528  0.2159 -0.0174
  404MOL0     C55642   5.987   3.562   2.077 -0.0216 -0.1654  0.4101
  404MOL0     C55643   5.782   3.708   2.047 -0.3518 -0.3377  0.6231
  404MOL0     C55644   5.795   3.774   2.172 -0.3184  0.0719 -0.4822
  404MOL0     O55645   5.712   3.884   2.187 -0.2177  0.3335  0.1242
  404MOL0     C55646   5.722   3.967   2.302  0.7893  0.7067  1.0124
  404MOL0     C55647   5.825   4.061   2.311 -1.0256 -0.3386 -0.1963
  404MOL0     C55648   5.817   4.163   2.415 -0.1882  0.8857  0.8310
  404MOL0     C55649   5.729   4.150   2.513  0.3000 -0.7460 -0.6919
  404MOL0     O55650   5.729   4.224   2.631  0.5485 -0.3075  0.1801
  404MOL0     C55651   5.841   4.313   2.666 -0.2692 -0.7605  0.0380
  404MOL0     C55652   5.780   4.462   2.689 -1.1602 -0.0586 -0.8545
  404MOL0     C55653   5.740   4.527   2.556  0.6667 -0.2103 -0.9406
  404MOL0     C55654   5.848   4.556   2.464 -0.1829  0.9335 -0.6734
  404MOL0     C55655   5.791   4.562   2.325  0.5522  0.3539 -0.4277
  404MOL0     C55656   5.903   4.575   2.223 -0.6946 -0.3541  1.1551
  404MOL0     C55657   5.830   4.623   2.103 -0.3310  0.5174 -0.7293
  404MOL0     C55658   5.919   4.656   1.986 -0.1604  0.7028  0.0969
  404MOL0    Cl55659   5.817   4.657   1.838  0.1735 -0.0508  0.5406
  404MOL0     C55660   5.632   4.044   2.505 -0.4862 -0.4997  0.0362
  404MOL0     C55661   5.625   3.958   2.398 -0.2218 -0.6018 -0.2762
  404MOL0     O55662   5.879   3.736   2.258  0.5139 -0.0691  0.1135
  404MOL0     C55663   5.674   3.742   1.962 -0.5327 -0.1671  0.3755
  404MOL0     C55664   5.649   3.673   1.844 -0.4610 -0.7001  0.5413
  404MOL0     N55665   5.021   3.393   1.506 -0.1058  0.4461  0.5583
  404MOL0     N55666   4.915   3.434   1.438 -0.3093  1.1611  0.9350
  404MOL0     C55667   5.197   4.056   1.134 -0.1963  0.2461  0.0088
  404MOL0     C55668   5.337   4.067   1.177  0.1581  0.5768  0.1181
  404MOL0     C55669   5.761   4.182   1.232  0.0839  0.3391 -0.0758
  404MOL0     C55670   5.820   4.137   1.119 -0.7039  0.6019  0.4486
  404MOL0     C55671   5.956   4.110   1.121  0.8501 -0.2508  0.4933
  404MOL0     C55672   6.039   4.146   1.221 -0.5068  0.4419  0.6730
  404MOL0     O55673   6.170   4.109   1.208  0.4177  0.0106 -0.5459
  404MOL0     C55674   6.253   4.112   1.331 -0.5546  0.4983  0.5260
  404MOL0     C55675   6.214   3.998   1.433 -0.5397  0.3966 -0.3313
  404MOL0     C55676   6.206   3.862   1.361 -0.4226  0.9234  0.9802
  404MOL0     C55677   6.354   3.809   1.335  0.2718  0.2598 -0.4136
  404MOL0     C55678   6.370   3.666   1.325  0.7272 -0.9003  0.2830
  404MOL0     C55679   6.371   3.546   1.331 -0.2980  0.5490 -1.2499
  404MOL0     C55680   5.983   4.205   1.329  0.4559 -1.0285  0.0152
  404MOL0     C55681   5.848   4.219   1.339  0.0241 -0.2012  0.0978
  404MOL0     C55682   5.807   4.275   1.467  0.1858  0.2146  1.0919
  404MOL0     H55683   5.422   4.339   0.994 -0.7487  1.0234 -0.1628
  404MOL0     H55684   5.185   4.349   0.953 -1.8405  0.8008  2.7976
  404MOL0     H55685   4.955   4.265   1.174  1.0837  3.1578 -4.3692
  404MOL0     H55686   4.917   4.093   1.190 -1.8863 -1.4787 -0.9698
  404MOL0     H55687   4.698   4.197   1.171  1.2751 -0.5102  0.8883
  404MOL0     H55688   4.747   4.295   1.036  2.1614  1.3737  0.5432
  404MOL0     H55689   4.618   4.131   0.955  1.5639  0.6431 -2.5949
  404MOL0     H55690   4.783   4.083   0.909  2.5733 -5.2407  1.9572
  404MOL0     H55691   4.598   3.961   1.125  1.6570 -0.4161  1.7802
  404MOL0     H55692   4.615   3.903   0.957 -2.0137 -0.9890  1.8886
  404MOL0     H55693   4.812   3.884   1.194 -1.2838 -4.0826  1.4160
  404MOL0     H55694   4.880   3.872   1.032 -1.3257 -0.7812 -0.6088
  404MOL0     H55695   4.668   3.687   1.136 -0.9116  0.7541 -0.1096
  404MOL0     H55696   4.762   3.671   0.987  2.0510 -0.3878  0.4732
  404MOL0     H55697   4.885   3.683   1.265 -1.3753 -0.2466  0.2194
  404MOL0     H55698   4.964   3.658   1.097  1.6838  2.4546  1.8434
  404MOL0     H55699   4.753   3.490   1.242  1.0340  0.6199  1.3424
  404MOL0     H55700   4.844   3.425   1.108 -1.7224  0.0833 -0.2357
  404MOL0     H55701   5.141   3.455   1.211  0.6750 -0.4298 -0.1404
  404MOL0     H55702   5.332   3.367   1.364 -0.9157 -0.0342  0.3898
  404MOL0     H55703   5.302   3.279   1.505 -0.2583 -0.2721 -0.6284
  404MOL0     H55704   5.350   3.571   1.488  2.4489  0.7227  0.9111
  404MOL0     H55705   5.266   3.515   1.626  1.9625  1.9876  1.3750
  404MOL0     H55706   5.440   3.407   1.717  1.7602  2.2530  0.9091
  404MOL0     H55707   5.514   3.342   1.565  0.8765  0.6186  0.7388
  404MOL0     H55708   5.621   3.524   1.501  0.0775 -1.9266 -0.4467
  404MOL0     H55709   5.545   3.631   1.612  2.6515  1.3895  2.4448
  404MOL0     H55710   5.906   3.459   1.839  1.1222  1.2764 -1.6987
  404MOL0     H55711   6.039   3.654   2.105  1.2808  0.0090 -2.2972
  404MOL0     H55712   6.050   3.487   2.028 -1.5994 -1.9349  0.9713
  404MOL0     H55713   5.953   3.519   2.171  0.7687  1.3123  1.4191
  404MOL0     H55714   5.892   4.075   2.226 -2.4662  1.9742 -1.0439
  404MOL0     H55715   5.897   4.237   2.411  1.4818 -0.7700  1.7680
  404MOL0     H55716   5.873   4.278   2.765 -1.2146 -3.2609 -0.4763
  404MOL0     H55717   5.923   4.308   2.594 -0.5440  0.6338 -0.4051
  404MOL0     H55718   5.690   4.453   2.750 -0.8199 -0.2983 -0.3827
  404MOL0     H55719   5.862   4.506   2.747  1.0136 -3.0779 -1.3912
  404MOL0     H55720   5.679   4.618   2.558  0.8510 -0.0245 -2.6279
  404MOL0     H55721   5.678   4.453   2.504  0.4954 -2.1577  1.8126
  404MOL0     H55722   5.934   4.489   2.470 -0.4855  0.6949  2.1859
  404MOL0     H55723   5.888   4.652   2.495 -4.0664  1.7866  2.4427
  404MOL0     H55724   5.734   4.473   2.299  1.1161 -0.2114  0.2382
  404MOL0     H55725   5.721   4.646   2.325  1.7148  1.3796  0.9217
  404MOL0     H55726   5.962   4.485   2.209 -1.7875 -1.2529  2.0808
  404MOL0     H55727   5.980   4.644   2.260  0.5008 -1.6641  1.1756
  404MOL0     H55728   5.775   4.715   2.125  2.2114  2.4845 -2.0281
  404MOL0     H55729   5.765   4.542   2.068  0.2659 -1.9809  3.2671
  404MOL0     H55730   5.993   4.577   1.975 -1.7115 -0.8662  0.5202
  404MOL0     H55731   5.966   4.754   2.003 -0.8535  0.7387  2.0560
  404MOL0     H55732   5.549   4.034   2.574 -0.4842 -1.2503 -0.0597
  404MOL0     H55733   5.546   3.883   2.393  0.6294 -1.5351  0.0089
  404MOL0     H55734   5.606   3.824   1.983  0.7968  0.7437  1.2754
  404MOL0     H55735   5.558   3.703   1.793  0.9185  0.1450 -1.5444
  404MOL0     H55736   5.145   3.963   1.158 -1.2463  1.0092  0.7595
  404MOL0     H55737   5.391   3.999   1.243 -0.1393  2.1197  2.0340
  404MOL0     H55738   5.762   4.109   1.031 -0.1515 -0.1873  0.3177
  404MOL0     H55739   5.997   4.066   1.031 -2.9440 -0.6586 -1.2079
  404MOL0     H55740   6.358   4.099   1.303 -0.6117  1.5313 -0.2490
  404MOL0     H55741   6.255   4.211   1.377  0.4597  0.4966  0.5027
  404MOL0     H55742   6.123   4.038   1.479 -1.3354 -0.2164 -1.3336
  404MOL0     H55743   6.288   3.988   1.514  0.1579 -0.7694 -1.0852
  404MOL0     H55744   6.146   3.792   1.420 -0.8527  0.0534 -0.4334
  404MOL0     H55745   6.161   3.854   1.261  1.2535 -0.8831  0.3073
  404MOL0     H55746   6.420   3.853   1.410 -1.6204 -1.4537  2.4616
  404MOL0     H55747   6.379   3.857   1.240 -2.1914  2.0073 -0.2785
  404MOL0     H55748   6.385   3.445   1.362 -1.4819  0.8114  0.2229
  404MOL0     H55749   6.040   4.218   1.420 -0.2752 -1.9604  0.6260
  404MOL0     H55750   5.864   4.241   1.554 -1.3022 -2.3438  1.1607
  404MOL0     H55751   5.809   4.384   1.468 -2.2179  0.4145 -1.6993
  404MOL0     H55752   5.705   4.243   1.490 -0.1103  1.7693  2.0794
  405MOL0     O55753  10.397   9.603  11.452 -0.2557 -0.6678  0.3520
  405MOL0     C55754  10.281   9.604  11.503 -0.6508  0.3961  0.0554
  405MOL0     O55755  10.236   9.511  11.589  0.4789 -0.4947 -0.0861
  405MOL0     C55756  10.321   9.467  11.685  0.0003  0.2520 -0.3641
  405MOL0     C55757  10.432   9.379  11.665  0.2678 -0.2194  0.0979
  405MOL0     C55758  10.521   9.361  11.766 -0.1928 -0.0580 -0.8572
  405MOL0     C55759  10.498   9.401  11.898  0.3595 -0.8420  0.2791
  405MOL0     O55760  10.597   9.390  11.996 -0.3267  0.3021 -0.3355
  405MOL0     C55761  10.645   9.261  12.038 -0.2928 -0.9101  0.6490
  405MOL0     C55762  10.673   9.250  12.189  0.6667 -0.1786  1.0854
  405MOL0     C55763  10.800   9.339  12.210 -0.4540 -0.5274  0.1237
  405MOL0     C55764  10.871   9.309  12.348 -0.3110  0.0874  0.1888
  405MOL0     C55765  11.000   9.403  12.372 -0.2516 -0.1230 -0.4648
  405MOL0     C55766  11.099   9.347  12.480 -0.2378  0.3730  0.0459
  405MOL0     C55767  11.241   9.405  12.460  0.3838 -1.0943 -0.0955
  405MOL0     C55768  11.332   9.391  12.580 -0.6447 -0.5701  0.4540
  405MOL0     N55769  11.361   9.248  12.604 -0.3905 -0.4211  0.7524
  405MOL0     C55770  11.478   9.187  12.555  0.2187  0.1638  0.7241
  405MOL0     C55771  11.453   9.060  12.591 -0.7135  0.9975  0.1886
  405MOL0     C55772  11.542   8.939  12.556 -0.2120  0.1723 -0.0543
  405MOL0     C55773  11.628   8.914  12.681  0.9826 -0.3551  0.3790
  405MOL0     C55774  11.697   8.775  12.685  0.3164  0.0428 -0.7886
  405MOL0     C55775  11.807   8.745  12.596 -0.2435  0.4405  0.3930
  405MOL0     O55776  11.918   8.838  12.580  0.4299  0.9330 -0.1150
  405MOL0     C55777  12.037   8.793  12.608 -0.3051 -0.4745 -0.7358
  405MOL0     C55778  12.129   8.790  12.510 -0.0278 -0.2439  0.8115
  405MOL0     C55779  12.267   8.758  12.531  0.1004  0.7817 -0.0588
  405MOL0     C55780  12.361   8.791  12.407  0.2539 -0.8424 -0.1066
  405MOL0     C55781  12.309   8.728  12.663  0.5848 -0.3230  0.1363
  405MOL0     C55782  12.441   8.674  12.699  0.9624  0.1625  0.7932
  405MOL0     O55783  12.548   8.693  12.612  0.2020 -0.1091 -0.6065
  405MOL0     C55784  12.674   8.666  12.654  0.5232 -0.3500 -0.1683
  405MOL0     C55785  12.714   8.540  12.679 -1.2610 -0.0711  0.2886
  405MOL0     C55786  12.847   8.513  12.719  0.3385 -0.2912 -0.0146
  405MOL0     C55787  12.937   8.616  12.732 -0.9040 -0.7263 -0.7888
  405MOL0     O55788  13.075   8.585  12.750  0.0921 -0.1155  0.5422
  405MOL0     C55789  13.144   8.673  12.843  0.0412  0.1695  0.6231
  405MOL0     C55790  13.292   8.637  12.868  0.0020  0.0164 -1.1521
  405MOL0     C55791  13.294   8.516  12.962  0.1390  0.3750  0.2402
  405MOL0     C55792  13.427   8.444  12.974 -0.6080  0.0602 -0.1041
  405MOL0     C55793  13.422   8.338  13.093  0.2890 -0.3281  0.3373
  405MOL0     C55794  13.538   8.239  13.085  0.7805  0.6093 -0.1860
  405MOL0     C55795  13.676   8.310  13.077  0.1841 -0.3019  0.0928
  405MOL0     C55796  13.731   8.300  13.219 -0.1238  0.6041 -1.0762
  405MOL0    Cl55797  13.788   8.121  13.253  0.1492 -0.4295 -0.0107
  405MOL0     C55798  12.888   8.741  12.716  0.7086 -0.3647 -0.0917
  405MOL0     C55799  12.761   8.774  12.674  0.8440  0.2012 -0.4479
  405MOL0     O55800  12.447   8.628  12.810 -0.2292 -0.2192  0.6788
  405MOL0     C55801  12.207   8.736  12.767 -0.3220  1.3279 -0.0296
  405MOL0     C55802  12.077   8.766  12.740  0.1320  0.4858  0.3398
  405MOL0     N55803  11.346   9.049  12.674  0.3122  0.1624 -0.5094
  405MOL0     N55804  11.293   9.162  12.684 -0.4505 -0.7227 -0.0963
  405MOL0     C55805  10.394   9.496  11.921 -0.8380  0.1221  0.0159
  405MOL0     C55806  10.317   9.524  11.813 -0.0819 -0.1376 -0.4084
  405MOL0     C55807  10.184   9.692  11.436  0.7544  0.3992  0.1208
  405MOL0     C55808  10.047   9.643  11.441 -0.2797  0.0148 -0.3142
  405MOL0     C55809   9.946   9.713  11.372 -0.6630  0.2869  0.8473
  405MOL0     C55810   9.968   9.842  11.312  0.2271  0.4124  0.1817
  405MOL0     O55811   9.886   9.917  11.252 -0.2939 -0.0086  0.4626
  405MOL0     C55812   9.739   9.898  11.271 -0.3354 -0.6309 -0.2394
  405MOL0     C55813   9.663   9.981  11.172  0.7321  0.2064  0.0653
  405MOL0     C55814   9.707  10.133  11.161  0.3898  0.1797  0.0996
  405MOL0     C55815   9.740  10.196  11.301 -0.6963 -0.5542 -1.1905
  405MOL0     C55816   9.623  10.190  11.389  0.2102  0.0685 -0.6379
  405MOL0     C55817   9.527  10.174  11.462  0.9221 -0.0383  1.0144
  405MOL0     C55818  10.101   9.876  11.305 -0.3120 -0.6171 -0.3881
  405MOL0     C55819  10.212   9.806  11.358  0.1728  0.0719  1.1921
  405MOL0     C55820  10.347   9.864  11.324  0.0679  0.0339  0.9923
  405MOL0     H55821  10.439   9.333  11.567 -0.8886 -0.2014 -0.0001
  405MOL0     H55822  10.608   9.300  11.745  0.0071 -1.2830  2.7773
  405MOL0     H55823  10.743   9.254  11.990 -1.3341 -1.7324 -1.4624
  405MOL0     H55824  10.574   9.184  12.007  0.0585 -0.6444 -0.9180
  405MOL0     H55825  10.580   9.281  12.238 -0.4778  0.6931 -1.4522
  405MOL0     H55826  10.694   9.146  12.213  1.3172 -1.1568 -3.0019
  405MOL0     H55827  10.877   9.325  12.133  0.1677  1.5176  0.3315
  405MOL0     H55828  10.776   9.445  12.212 -0.7377 -0.5397  3.1916
  405MOL0     H55829  10.804   9.332  12.432  1.5583  0.9734  1.5134
  405MOL0     H55830  10.906   9.208  12.325  3.4572  1.7013 -1.9031
  405MOL0     H55831  10.971   9.506  12.394  0.8381 -0.0691  0.8313
  405MOL0     H55832  11.051   9.416  12.276 -3.3010  3.7028 -1.8098
  405MOL0     H55833  11.064   9.395  12.571 -1.0726  0.5971 -0.3770
  405MOL0     H55834  11.102   9.238  12.489 -0.3308  0.3350 -0.3704
  405MOL0     H55835  11.219   9.509  12.434 -0.8149 -1.7324 -1.8287
  405MOL0     H55836  11.286   9.341  12.382  0.8305 -0.8813 -0.0173
  405MOL0     H55837  11.422   9.454  12.584 -2.8390  2.8655  0.1785
  405MOL0     H55838  11.265   9.433  12.656 -3.1422  0.8746 -2.3402
  405MOL0     H55839  11.546   9.229  12.482 -1.3137 -1.5638 -1.8601
  405MOL0     H55840  11.612   8.962  12.476 -2.0455  1.3758 -1.3916
  405MOL0     H55841  11.481   8.849  12.545  1.8135 -1.5412  1.6842
  405MOL0     H55842  11.714   8.981  12.679  1.2591 -0.6649  1.3008
  405MOL0     H55843  11.577   8.934  12.775 -0.4324 -0.0450 -0.4320
  405MOL0     H55844  11.729   8.758  12.789 -1.7307 -0.8835 -0.2635
  405MOL0     H55845  11.613   8.706  12.671 -3.1162  3.9784 -1.6970
  405MOL0     H55846  11.837   8.644  12.627  0.3373  0.4851 -0.0030
  405MOL0     H55847  11.763   8.737  12.495 -1.3850  2.1717  0.7122
  405MOL0     H55848  12.101   8.820  12.410  3.7191 -1.4455 -0.7477
  405MOL0     H55849  12.462   8.812  12.444  0.7597 -3.1962 -0.0190
  405MOL0     H55850  12.324   8.875  12.347  2.8395  1.1214  0.8386
  405MOL0     H55851  12.353   8.710  12.335 -2.9582 -0.5611 -0.2190
  405MOL0     H55852  12.648   8.457  12.656  2.5522 -3.3728  0.1075
  405MOL0     H55853  12.866   8.407  12.732 -0.5636 -0.4417  0.1407
  405MOL0     H55854  13.124   8.772  12.798 -1.7422 -0.4986 -0.1498
  405MOL0     H55855  13.092   8.681  12.939  0.4475  4.4102  0.6963
  405MOL0     H55856  13.347   8.624  12.773  1.9370 -2.6008  0.1781
  405MOL0     H55857  13.343   8.717  12.923  0.1731 -1.7263  1.3972
  405MOL0     H55858  13.218   8.451  12.916  2.1841 -1.8768 -0.1363
  405MOL0     H55859  13.255   8.538  13.062 -3.6518 -0.0924 -0.9677
  405MOL0     H55860  13.507   8.518  12.981 -0.5600  0.0055 -0.0706
  405MOL0     H55861  13.454   8.395  12.880  1.8410 -2.6121  1.8161
  405MOL0     H55862  13.439   8.387  13.189  0.4020  1.2349 -0.4317
  405MOL0     H55863  13.324   8.291  13.101 -1.3830  2.9893  1.5515
  405MOL0     H55864  13.522   8.183  12.992  2.9411  0.1590 -0.3402
  405MOL0     H55865  13.524   8.168  13.167  1.1651 -2.9254 -2.9180
  405MOL0     H55866  13.675   8.419  13.062  0.4671 -0.0041  1.9083
  405MOL0     H55867  13.750   8.257  13.017  0.8020 -0.1251  0.6774
  405MOL0     H55868  13.663   8.322  13.302  0.5064 -0.1969 -0.3194
  405MOL0     H55869  13.818   8.365  13.231 -0.5666  0.8013  1.6350
  405MOL0     H55870  12.953   8.824  12.742  1.0107 -0.5228 -0.3349
  405MOL0     H55871  12.740   8.880  12.660  0.0706  0.4992  2.3106
  405MOL0     H55872  12.231   8.711  12.870 -4.5133  1.7685  1.2759
  405MOL0     H55873  11.998   8.766  12.814 -0.1307  1.4308  0.0676
  405MOL0     H55874  10.385   9.545  12.017 -0.3832 -0.2856  0.2679
  405MOL0     H55875  10.243   9.603  11.822  1.8989  2.0405 -1.8969
  405MOL0     H55876  10.029   9.545  11.484 -0.6337 -0.9094 -2.4194
  405MOL0     H55877   9.849   9.664  11.376  0.6982 -2.4927  2.0861
  405MOL0     H55878   9.727   9.791  11.252  3.8539 -1.6999  1.7385
  405MOL0     H55879   9.714   9.919  11.375  2.7455 -0.7796  0.6299
  405MOL0     H55880   9.557   9.975  11.198  0.2683 -2.9954 -2.0636
  405MOL0     H55881   9.673   9.928  11.077  0.5787  0.8787 -0.3354
  405MOL0     H55882   9.792  10.132  11.092  0.0603  4.2108 -0.5798
  405MOL0     H55883   9.620  10.184  11.119  0.4931  1.1327  0.9913
  405MOL0     H55884   9.759  10.301  11.276 -3.6364 -0.1421 -2.0985
  405MOL0     H55885   9.829  10.152  11.347  0.7164  3.1418  0.0104
  405MOL0     H55886   9.447  10.154  11.531  1.5513  0.9533  2.0586
  405MOL0     H55887  10.126   9.957  11.238  0.2698 -0.7411 -0.3285
  405MOL0     H55888  10.412   9.785  11.286 -1.5905 -0.9709  0.1465
  405MOL0     H55889  10.335   9.951  11.259 -1.4552 -1.5535 -0.9745
  405MOL0     H55890  10.387   9.909  11.416  0.1977  0.3415  0.7882
  406MOL0     O55891   5.130  10.294   0.619 -0.3467  0.4181 -0.2098
  406MOL0     C55892   5.188  10.340   0.717 -0.5879  0.1731  0.8649
  406MOL0     O55893   5.191  10.471   0.742  0.7087  0.4059 -0.3677
  406MOL0     C55894   5.102  10.541   0.661  0.8501  0.2684  0.5224
  406MOL0     C55895   5.146  10.629   0.556 -0.1195  0.1786  0.1296
  406MOL0     C55896   5.067  10.713   0.475 -0.2105 -0.1025 -0.4619
  406MOL0     C55897   4.929  10.710   0.503 -0.5626  0.1368  0.2959
  406MOL0     O55898   4.830  10.769   0.429  0.3530 -0.7850  0.0680
  406MOL0     C55899   4.869  10.866   0.342 -0.0120  0.4014  0.0251
  406MOL0     C55900   4.927  10.996   0.405  0.0698 -0.0634  0.3795
  406MOL0     C55901   4.950  11.103   0.290  0.6852  0.0818  0.1910
  406MOL0     C55902   5.080  11.067   0.228  0.6283  0.2993 -0.7692
  406MOL0     C55903   5.138  11.184   0.142  0.5390  0.3086 -0.1750
  406MOL0     C55904   5.284  11.153   0.090  0.0325 -1.1064  0.5236
  406MOL0     C55905   5.339  11.261  -0.006  0.5249  0.1347 -0.1800
  406MOL0     C55906   5.356  11.384   0.086  0.3735 -0.0232  0.3191
  406MOL0     N55907   5.431  11.492   0.027 -0.3096 -0.0401 -0.0473
  406MOL0     C55908   5.365  11.591  -0.041  0.5867  0.4955  0.3298
  406MOL0     C55909   5.469  11.661  -0.094 -0.4528  0.0164 -0.5085
  406MOL0     C55910   5.469  11.778  -0.180  0.2360 -0.8368  0.8394
  406MOL0     C55911   5.422  11.726  -0.323 -0.4827  0.1097 -0.0318
  406MOL0     C55912   5.377  11.845  -0.404 -0.0888  0.1507  0.2691
  406MOL0     C55913   5.341  11.804  -0.546  0.5845 -0.1387 -0.1358
  406MOL0     O55914   5.463  11.786  -0.605  0.4755  1.0218  0.1004
  406MOL0     C55915   5.468  11.768  -0.737 -0.1261 -0.4092 -0.0555
  406MOL0     C55916   5.357  11.725  -0.821  0.0629 -0.2873 -0.8354
  406MOL0     C55917   5.376  11.699  -0.956 -0.1357 -0.0698 -0.9704
  406MOL0     C55918   5.255  11.657  -1.032 -0.9765  0.2400  0.3834
  406MOL0     C55919   5.512  11.695  -1.006  0.6273 -0.2484 -0.1993
  406MOL0     C55920   5.543  11.659  -1.146  0.2167  0.3908  0.4133
  406MOL0     O55921   5.462  11.569  -1.212 -0.3464 -0.4614 -0.6336
  406MOL0     C55922   5.509  11.514  -1.328  0.6129  0.8607  0.1888
  406MOL0     C55923   5.641  11.456  -1.331 -0.4824  0.5908  0.1161
  406MOL0     C55924   5.694  11.412  -1.449 -0.1964  0.3788 -0.2121
  406MOL0     C55925   5.618  11.431  -1.559  0.1173 -0.2625  0.7227
  406MOL0     O55926   5.677  11.415  -1.678  1.6029  0.0518 -0.3565
  406MOL0     C55927   5.756  11.532  -1.711 -0.4126 -0.9116  0.9002
  406MOL0     C55928   5.787  11.521  -1.860 -0.9403 -0.0044 -0.4355
  406MOL0     C55929   5.897  11.617  -1.912 -0.5045  0.3954  0.3028
  406MOL0     C55930   5.842  11.756  -1.976  0.8684  0.6969 -0.6990
  406MOL0     C55931   5.949  11.844  -2.030  0.5612 -0.5669  0.1918
  406MOL0     C55932   6.007  11.800  -2.160  0.3237  0.6403 -0.8201
  406MOL0     C55933   5.941  11.864  -2.279 -0.6328  0.8751  0.4388
  406MOL0     C55934   5.968  12.012  -2.286 -1.3311 -0.1977  0.9140
  406MOL0    Cl55935   5.826  12.090  -2.365  0.0413 -0.2798  0.3284
  406MOL0     C55936   5.488  11.474  -1.559 -0.5813  0.6613 -0.4023
  406MOL0     C55937   5.432  11.516  -1.443 -0.6901  0.6854  0.1549
  406MOL0     O55938   5.629  11.729  -1.199  0.0612 -0.4023 -0.3932
  406MOL0     C55939   5.616  11.736  -0.922  0.8810  1.0164  0.2680
  406MOL0     C55940   5.595  11.773  -0.791  0.8208 -0.4556  0.6067
  406MOL0     N55941   5.592  11.611  -0.044  0.1409 -0.5457  0.2751
  406MOL0     N55942   5.564  11.503   0.022 -1.2067  0.2348  0.8913
  406MOL0     C55943   4.882  10.623   0.607  0.9302 -0.5928  0.3938
  406MOL0     C55944   4.965  10.534   0.674 -0.4069  0.0081 -0.4885
  406MOL0     C55945   5.256  10.242   0.808 -0.5173  0.1228 -0.7191
  406MOL0     C55946   5.273  10.104   0.769 -0.9380 -0.6028 -0.1425
  406MOL0     C55947   5.346  10.016   0.843 -0.3974 -0.3780  0.2099
  406MOL0     C55948   5.408  10.049   0.962 -0.0625  0.4879  1.2421
  406MOL0     O55949   5.488   9.952   1.019  0.5318  0.3818  0.2447
  406MOL0     C55950   5.498   9.963   1.158 -1.1737 -0.2582  0.3205
  406MOL0     C55951   5.542   9.830   1.227  0.5746  0.1268  0.1746
  406MOL0     C55952   5.432   9.715   1.224  0.9955  0.3123  0.0116
  406MOL0     C55953   5.433   9.606   1.338 -0.3925 -0.2884 -0.2367
  406MOL0     C55954   5.406   9.660   1.475 -0.2596 -0.3265 -0.1814
  406MOL0     C55955   5.388   9.690   1.590  0.3902 -0.0247  0.0153
  406MOL0     C55956   5.391  10.182   1.002  0.0805  0.1889  0.7182
  406MOL0     C55957   5.313  10.275   0.939  0.0154  0.0452  1.4180
  406MOL0     C55958   5.276  10.409   1.007  0.0612  0.1990  0.3234
  406MOL0     H55959   5.250  10.633   0.524 -0.1442  1.5378  0.1470
  406MOL0     H55960   5.112  10.770   0.394 -2.1543  0.9686 -0.8385
  406MOL0     H55961   4.777  10.886   0.286  1.7938  0.0121 -3.2841
  406MOL0     H55962   4.928  10.826   0.260 -1.2695  0.2778 -0.8476
  406MOL0     H55963   4.856  11.037   0.477 -0.7336  0.0772 -0.4684
  406MOL0     H55964   5.018  10.970   0.459  0.8658  0.5150 -0.6391
  406MOL0     H55965   4.865  11.120   0.223  0.9549 -0.1022 -0.2037
  406MOL0     H55966   4.961  11.203   0.334 -3.0007  0.3700  0.7817
  406MOL0     H55967   5.157  11.041   0.301 -1.5041 -2.0391  0.8353
  406MOL0     H55968   5.076  10.973   0.170  2.6656 -2.0376  2.5274
  406MOL0     H55969   5.137  11.279   0.196 -0.0158  0.8166 -1.0424
  406MOL0     H55970   5.078  11.203   0.052  0.9729 -1.0172 -0.7745
  406MOL0     H55971   5.359  11.137   0.168 -0.6646 -0.8904  1.2403
  406MOL0     H55972   5.263  11.058   0.039 -1.3820 -3.0725  4.3933
  406MOL0     H55973   5.262  11.279  -0.083 -0.0553  1.9511  0.7731
  406MOL0     H55974   5.433  11.226  -0.048  0.7257 -0.4513  0.7245
  406MOL0     H55975   5.258  11.424   0.114  0.5623  2.0425 -1.6169
  406MOL0     H55976   5.407  11.350   0.177  0.6625 -3.9604 -1.1307
  406MOL0     H55977   5.257  11.606  -0.038  0.3287 -1.3156  1.9098
  406MOL0     H55978   5.563  11.833  -0.182 -0.2083 -0.0739 -0.2632
  406MOL0     H55979   5.386  11.843  -0.151  0.2766  0.3963 -1.5696
  406MOL0     H55980   5.503  11.671  -0.371  0.3185  2.1940 -1.1979
  406MOL0     H55981   5.335  11.660  -0.311 -1.0247  1.1394  2.2971
  406MOL0     H55982   5.288  11.891  -0.360  0.1435  0.4050  0.4775
  406MOL0     H55983   5.457  11.919  -0.407 -1.4750  1.8587  2.5365
  406MOL0     H55984   5.281  11.713  -0.557  1.5005 -0.8486  0.5381
  406MOL0     H55985   5.286  11.890  -0.583  1.1212  1.6066  2.8312
  406MOL0     H55986   5.253  11.712  -0.793  0.6128  0.4871  1.9040
  406MOL0     H55987   5.259  11.547  -1.032  2.0784  0.2684  0.1715
  406MOL0     H55988   5.252  11.700  -1.133 -1.4607  0.4996  0.5060
  406MOL0     H55989   5.159  11.685  -0.989 -0.9751 -1.1259  1.3609
  406MOL0     H55990   5.698  11.450  -1.239  2.6928  0.3704 -1.7398
  406MOL0     H55991   5.790  11.363  -1.460  0.0645  1.4134 -3.4132
  406MOL0     H55992   5.701  11.626  -1.700  1.7351  1.0299 -2.8955
  406MOL0     H55993   5.842  11.536  -1.644  0.7462  0.2787 -0.5898
  406MOL0     H55994   5.819  11.420  -1.888 -3.3832 -0.5311 -1.5969
  406MOL0     H55995   5.696  11.548  -1.915 -1.1898  0.8072  0.3480
  406MOL0     H55996   5.961  11.557  -1.977  0.1464  2.0055 -0.6048
  406MOL0     H55997   5.972  11.642  -1.837  2.6668  0.2998 -2.5902
  406MOL0     H55998   5.790  11.811  -1.896 -1.4212 -0.2549 -1.4353
  406MOL0     H55999   5.766  11.734  -2.051  2.0934  0.3845 -1.8816
  406MOL0     H56000   5.906  11.944  -2.043  0.0500 -0.9272 -1.0828
  406MOL0     H56001   6.032  11.856  -1.959  0.4032 -0.1626  0.3111
  406MOL0     H56002   5.998  11.692  -2.171 -0.1021  0.7041 -1.1504
  406MOL0     H56003   6.111  11.833  -2.160 -0.6524  4.2268 -0.0196
  406MOL0     H56004   5.833  11.862  -2.261 -0.3570 -0.6617  2.1833
  406MOL0     H56005   5.966  11.803  -2.366 -1.4376 -3.1819  2.8108
  406MOL0     H56006   6.059  12.028  -2.343 -1.1003 -2.3821  0.5939
  406MOL0     H56007   5.969  12.072  -2.195  2.9185 -0.7154  1.3803
  406MOL0     H56008   5.421  11.458  -1.643 -0.5145  1.4930 -0.6180
  406MOL0     H56009   5.333  11.562  -1.446 -0.7278  0.5821 -2.6111
  406MOL0     H56010   5.718  11.743  -0.959  0.2441  0.1077 -1.8190
  406MOL0     H56011   5.672  11.817  -0.728  4.0918 -3.0009 -1.2763
  406MOL0     H56012   4.775  10.616   0.621  1.0384  0.0543  1.7255
  406MOL0     H56013   4.926  10.470   0.751  0.3499  1.1758  0.9182
  406MOL0     H56014   5.225  10.071   0.677 -1.2493  0.5995 -0.4173
  406MOL0     H56015   5.352   9.925   0.784 -0.8688  0.4234 -1.1192
  406MOL0     H56016   5.560  10.050   1.179 -2.9181  1.5429 -1.5182
  406MOL0     H56017   5.401   9.978   1.206 -2.2992 -2.6784 -1.0142
  406MOL0     H56018   5.572   9.865   1.326  1.1724 -1.9673  0.7807
  406MOL0     H56019   5.630   9.800   1.169  0.5947 -0.0792  0.3084
  406MOL0     H56020   5.331   9.754   1.232  0.6338 -0.8420  1.5250
  406MOL0     H56021   5.446   9.662   1.129  2.1167  1.4714 -0.5133
  406MOL0     H56022   5.534   9.567   1.343  0.5674  2.1035  0.3990
  406MOL0     H56023   5.357   9.532   1.311 -0.2331 -0.1246 -1.1621
  406MOL0     H56024   5.374   9.706   1.695 -0.4929  1.9024 -0.3570
  406MOL0     H56025   5.446  10.207   1.092  3.8172  1.0388 -1.6088
  406MOL0     H56026   5.309  10.423   1.111  0.4999 -0.8956  0.3419
  406MOL0     H56027   5.325  10.495   0.960 -2.6071  0.9762 -1.2353
  406MOL0     H56028   5.167  10.417   1.004  0.0365  1.4125  2.2588
  407MOL0     O56029   5.663   6.624   4.919 -0.8309  0.6199 -0.7432
  407MOL0     C56030   5.757   6.638   4.997  0.0134 -0.4855 -1.4194
  407MOL0     O56031   5.888   6.604   4.977  0.5562  0.1988 -0.1110
  407MOL0     C56032   5.919   6.480   4.927 -0.3061  0.3693 -0.0781
  407MOL0     C56033   6.061   6.452   4.925  0.3664  0.0918  0.4137
  407MOL0     C56034   6.099   6.322   4.907  0.0960  0.6304  0.6528
  407MOL0     C56035   6.003   6.217   4.877  0.5362 -0.3570  0.4188
  407MOL0     O56036   6.056   6.097   4.851 -0.1785  0.3519  0.2072
  407MOL0     C56037   5.970   5.983   4.869 -0.2410  0.0769 -1.7046
  407MOL0     C56038   6.059   5.872   4.917 -0.1833  1.1149  0.6923
  407MOL0     C56039   6.181   5.824   4.830 -1.1702  0.7111  0.2542
  407MOL0     C56040   6.270   5.753   4.927 -0.6573  0.5063  0.6482
  407MOL0     C56041   6.388   5.689   4.859 -0.1332 -0.3902  0.0662
  407MOL0     C56042   6.502   5.666   4.952  0.1976  0.1865 -0.6438
  407MOL0     C56043   6.619   5.606   4.871 -0.2696  0.8220  0.2812
  407MOL0     C56044   6.761   5.633   4.931  0.1249  0.6499  0.4042
  407MOL0     N56045   6.763   5.610   5.075 -0.6783  0.2411  0.3758
  407MOL0     C56046   6.717   5.497   5.135  0.6848 -0.6602 -0.5961
  407MOL0     C56047   6.723   5.520   5.269  0.4010 -0.2285 -0.8722
  407MOL0     C56048   6.673   5.428   5.376 -0.1992 -0.9416 -0.0465
  407MOL0     C56049   6.798   5.349   5.412 -0.2084  0.2343 -1.0920
  407MOL0     C56050   6.774   5.246   5.524  1.0051 -1.2618  0.4230
  407MOL0     C56051   6.902   5.164   5.559 -0.6140 -0.2468 -0.7748
  407MOL0     O56052   6.885   5.079   5.671 -0.4288  0.0678 -0.2610
  407MOL0     C56053   6.848   4.946   5.652  0.2085  0.7506  0.4121
  407MOL0     C56054   6.775   4.897   5.539  0.0135  0.4263 -0.1558
  407MOL0     C56055   6.746   4.760   5.521 -0.4052 -0.7379  0.1061
  407MOL0     C56056   6.684   4.723   5.380 -0.5148 -0.5900  0.5922
  407MOL0     C56057   6.753   4.675   5.633 -0.1207  0.5805 -0.8118
  407MOL0     C56058   6.716   4.532   5.623 -0.4314 -0.4399  0.6021
  407MOL0     O56059   6.772   4.461   5.725 -0.1022  0.3609 -0.2316
  407MOL0     C56060   6.742   4.328   5.739  0.1641 -0.4247  0.5864
  407MOL0     C56061   6.838   4.228   5.720  1.3590 -0.0395 -0.9355
  407MOL0     C56062   6.826   4.091   5.761 -0.4481 -0.0621 -0.3058
  407MOL0     C56063   6.703   4.051   5.819 -0.7657 -0.1682 -0.0576
  407MOL0     O56064   6.672   3.922   5.865 -0.0698  0.2360  0.2902
  407MOL0     C56065   6.784   3.831   5.875 -0.6368 -0.1071  0.0469
  407MOL0     C56066   6.741   3.695   5.929  0.3149 -1.6851  0.5407
  407MOL0     C56067   6.866   3.610   5.929 -0.2085  0.3787  0.3619
  407MOL0     C56068   6.829   3.461   5.922  0.0600 -1.5206  0.2475
  407MOL0     C56069   6.914   3.380   6.029  0.8114  0.0040  0.2256
  407MOL0     C56070   6.897   3.233   6.026 -0.5901  0.1094 -0.0630
  407MOL0     C56071   7.012   3.166   6.119  1.2828  0.1775  0.1748
  407MOL0     C56072   6.958   3.035   6.192  0.2428  0.1605 -0.5800
  407MOL0    Cl56073   6.837   3.068   6.330 -0.5114  0.1392 -0.3244
  407MOL0     C56074   6.603   4.146   5.817 -0.1303 -0.9275  0.0415
  407MOL0     C56075   6.618   4.289   5.783  0.2943 -0.1103 -0.5234
  407MOL0     O56076   6.650   4.486   5.534 -0.2929  0.3034 -0.4108
  407MOL0     C56077   6.797   4.730   5.761  0.0050  1.1764  0.1125
  407MOL0     C56078   6.854   4.856   5.762  0.5927  0.0819 -0.6060
  407MOL0     N56079   6.782   5.640   5.285  0.1938  0.3094  0.3287
  407MOL0     N56080   6.807   5.694   5.170  0.5159  1.1319  1.6980
  407MOL0     C56081   5.867   6.246   4.878  0.5502  0.1877 -0.9177
  407MOL0     C56082   5.823   6.373   4.905  0.7510  0.2832  0.6701
  407MOL0     C56083   5.714   6.664   5.140 -1.4289 -0.5879 -0.0654
  407MOL0     C56084   5.775   6.581   5.242  0.9650 -0.0273  0.2197
  407MOL0     C56085   5.733   6.593   5.374 -0.2465 -0.8553 -0.3592
  407MOL0     C56086   5.651   6.695   5.405  0.1585  0.2941 -1.0266
  407MOL0     O56087   5.625   6.699   5.539  0.0256 -0.4506  0.2541
  407MOL0     C56088   5.558   6.813   5.597  0.5646 -0.2081  0.3602
  407MOL0     C56089   5.528   6.775   5.736 -0.0954  0.0133  0.6973
  407MOL0     C56090   5.431   6.657   5.750 -0.6229  0.0699 -1.2483
  407MOL0     C56091   5.410   6.642   5.899 -0.8072  0.0264  0.2807
  407MOL0     C56092   5.377   6.501   5.933  0.2630 -0.7629  0.9896
  407MOL0     C56093   5.339   6.392   5.971  0.8281 -0.7984  0.7243
  407MOL0     C56094   5.604   6.784   5.305  1.1145 -0.2876  0.4378
  407MOL0     C56095   5.621   6.767   5.167 -0.3375  0.2462 -0.2896
  407MOL0     C56096   5.590   6.884   5.063  0.7937 -0.0504  0.2018
  407MOL0     H56097   6.129   6.526   4.966  0.9714 -1.1957  1.8073
  407MOL0     H56098   6.198   6.279   4.892  0.5096  1.6367  0.4047
  407MOL0     H56099   5.911   5.955   4.781 -0.6560  2.9434 -2.4406
  407MOL0     H56100   5.899   6.007   4.949 -0.4080  1.4417 -2.2210
  407MOL0     H56101   6.092   5.903   5.017  0.5921  1.4975  0.3279
  407MOL0     H56102   6.001   5.782   4.941  0.3470  0.7309  0.5547
  407MOL0     H56103   6.140   5.769   4.745 -0.8310 -0.7266  0.9819
  407MOL0     H56104   6.230   5.912   4.788  0.3926 -1.0200 -1.7311
  407MOL0     H56105   6.308   5.812   5.011 -2.3256 -2.5834  3.8405
  407MOL0     H56106   6.215   5.673   4.977 -0.7777  0.2741  0.1580
  407MOL0     H56107   6.419   5.768   4.790  2.0587 -0.4344  0.9130
  407MOL0     H56108   6.366   5.600   4.799 -0.3071 -0.3888  0.1286
  407MOL0     H56109   6.530   5.766   4.985 -2.7880  1.1773 -0.7759
  407MOL0     H56110   6.476   5.589   5.025  0.5870  0.6013 -0.0672
  407MOL0     H56111   6.622   5.643   4.768 -1.4427  1.7286  0.5553
  407MOL0     H56112   6.613   5.497   4.867  1.3274  0.7110  0.1614
  407MOL0     H56113   6.839   5.574   4.882  1.0965  1.5934  0.7939
  407MOL0     H56114   6.789   5.734   4.903  0.6896 -0.1714 -2.2659
  407MOL0     H56115   6.666   5.418   5.080 -1.1651 -0.1353  0.2814
  407MOL0     H56116   6.605   5.362   5.321  0.8529 -2.6847  0.6748
  407MOL0     H56117   6.623   5.466   5.466 -1.8080 -2.4408 -0.2611
  407MOL0     H56118   6.828   5.289   5.326  1.9179 -0.8190  0.2913
  407MOL0     H56119   6.875   5.419   5.446  0.2883 -1.2379  1.0435
  407MOL0     H56120   6.747   5.292   5.619  1.6414 -2.4418  1.2077
  407MOL0     H56121   6.697   5.178   5.485  0.2101  0.8385 -1.9100
  407MOL0     H56122   6.952   5.102   5.484  1.2397  0.4122 -0.1451
  407MOL0     H56123   6.980   5.234   5.592  0.1937 -2.5727  2.9432
  407MOL0     H56124   6.756   4.966   5.457 -0.3221  1.0201  0.4091
  407MOL0     H56125   6.575   4.717   5.388 -0.9557  0.8936 -2.7148
  407MOL0     H56126   6.719   4.627   5.340  0.7690 -0.5103  1.4738
  407MOL0     H56127   6.693   4.799   5.301 -1.1026 -3.8429 -2.8947
  407MOL0     H56128   6.930   4.252   5.667  2.7378 -0.9445  0.9139
  407MOL0     H56129   6.911   4.027   5.739  1.9859  3.1497 -1.1007
  407MOL0     H56130   6.827   3.813   5.776  3.5923 -1.1656  1.8362
  407MOL0     H56131   6.862   3.882   5.932 -2.2590  3.9864 -1.0978
  407MOL0     H56132   6.702   3.706   6.030  1.2214  0.9021  0.6746
  407MOL0     H56133   6.665   3.656   5.860 -1.5531  0.7033  1.1282
  407MOL0     H56134   6.923   3.625   6.021 -0.5774 -0.8258  0.8032
  407MOL0     H56135   6.936   3.629   5.847 -1.5965  0.7671 -0.7640
  407MOL0     H56136   6.837   3.413   5.823  0.5559 -1.4055  0.2269
  407MOL0     H56137   6.724   3.447   5.950  0.1065 -1.1564  0.5994
  407MOL0     H56138   7.018   3.409   6.008  0.3094  1.8324  0.0320
  407MOL0     H56139   6.901   3.422   6.129  0.5617  0.5338 -0.0256
  407MOL0     H56140   6.897   3.178   5.931 -1.1508  1.6417 -0.9865
  407MOL0     H56141   6.801   3.219   6.078  0.1417 -1.2210  1.0019
  407MOL0     H56142   7.053   3.239   6.189  2.5395  1.0904 -1.4623
  407MOL0     H56143   7.094   3.139   6.052  1.1445 -0.9345  0.4396
  407MOL0     H56144   7.046   2.988   6.236  0.1210 -1.3104 -1.8094
  407MOL0     H56145   6.903   2.956   6.140 -3.2832 -0.7672  3.8884
  407MOL0     H56146   6.504   4.119   5.851  0.0098 -1.9525 -0.3309
  407MOL0     H56147   6.538   4.361   5.786  0.7303  0.3558  0.5913
  407MOL0     H56148   6.803   4.686   5.860  0.5674  4.1675  1.5181
  407MOL0     H56149   6.904   4.879   5.856 -2.1406  0.3434  0.8947
  407MOL0     H56150   5.800   6.164   4.854  2.9780 -2.3779  0.4608
  407MOL0     H56151   5.715   6.382   4.903  0.6819 -0.5828  0.0128
  407MOL0     H56152   5.855   6.514   5.213  1.3153  1.2128 -1.8495
  407MOL0     H56153   5.772   6.535   5.458  1.3562  1.0794  0.3043
  407MOL0     H56154   5.599   6.911   5.569  0.3196 -0.7492 -2.1140
  407MOL0     H56155   5.465   6.831   5.543  0.9410 -2.7453 -1.2738
  407MOL0     H56156   5.487   6.861   5.788 -1.2642  0.7897 -1.3905
  407MOL0     H56157   5.622   6.739   5.780 -0.9623 -1.0944  1.6913
  407MOL0     H56158   5.339   6.665   5.692 -0.5020 -2.1021 -1.8290
  407MOL0     H56159   5.469   6.564   5.706 -1.1597  0.0881 -1.7537
  407MOL0     H56160   5.344   6.716   5.946 -3.4480 -1.5208 -0.8244
  407MOL0     H56161   5.506   6.665   5.946 -0.5718 -0.1403 -0.1148
  407MOL0     H56162   5.310   6.291   5.992  0.8399 -1.2667 -1.3006
  407MOL0     H56163   5.531   6.862   5.321 -1.8659 -2.3978 -1.6707
  407MOL0     H56164   5.685   6.921   5.025  0.5368 -1.8929 -2.5034
  407MOL0     H56165   5.523   6.844   4.986 -1.7988 -0.4383  2.4979
  407MOL0     H56166   5.540   6.971   5.106 -1.4985 -0.4554 -1.4785
  408MOL0     O56167   0.860   3.896   9.668 -0.4941 -0.1033 -0.9022
  408MOL0     C56168   0.924   3.838   9.757 -0.5560  1.4372  0.2090
  408MOL0     O56169   1.060   3.820   9.754 -0.1190 -0.4924  0.0904
  408MOL0     C56170   1.117   3.847   9.633 -0.5047  0.3584 -1.3179
  408MOL0     C56171   1.231   3.934   9.618  0.7552  0.6566 -0.3059
  408MOL0     C56172   1.286   3.953   9.484  0.1027  0.2915 -1.2101
  408MOL0     C56173   1.252   3.873   9.368  0.4018 -0.0061 -0.1931
  408MOL0     O56174   1.320   3.897   9.254  0.4207  0.4434  0.6111
  408MOL0     C56175   1.282   3.813   9.139  0.8518  0.3329 -0.2752
  408MOL0     C56176   1.346   3.875   9.006 -0.9597 -0.6690  0.0154
  408MOL0     C56177   1.501   3.886   9.025 -0.8558  0.0165  0.1672
  408MOL0     C56178   1.573   3.957   8.906  0.0818 -0.4301  0.4171
  408MOL0     C56179   1.682   4.061   8.950 -0.0699  0.5453 -0.1001
  408MOL0     C56180   1.784   3.996   9.036 -0.2818 -0.1957 -0.9792
  408MOL0     C56181   1.917   4.074   9.029 -0.3751 -0.4573 -0.4769
  408MOL0     C56182   1.894   4.186   9.129  0.0283 -1.2540  0.4219
  408MOL0     N56183   2.023   4.257   9.144 -0.8061 -0.4359 -0.2561
  408MOL0     C56184   2.118   4.233   9.242 -0.1355  0.0009 -0.4232
  408MOL0     C56185   2.213   4.333   9.233  0.6152  0.5872  0.8444
  408MOL0     C56186   2.348   4.328   9.295 -0.1030  0.7361  0.3098
  408MOL0     C56187   2.458   4.270   9.207 -0.4427  0.2687  0.5159
  408MOL0     C56188   2.435   4.133   9.144 -0.3059 -0.3482  0.3509
  408MOL0     C56189   2.427   4.016   9.251  0.4941 -0.4343 -0.7503
  408MOL0     O56190   2.453   3.889   9.192  0.9455 -0.2605 -0.1801
  408MOL0     C56191   2.363   3.856   9.097 -0.0363 -0.5611 -0.4168
  408MOL0     C56192   2.382   3.886   8.962 -0.6737  0.2695  0.3224
  408MOL0     C56193   2.279   3.849   8.875 -0.4724 -0.4914  0.6845
  408MOL0     C56194   2.318   3.882   8.732 -0.3966 -0.4577  0.3723
  408MOL0     C56195   2.167   3.783   8.914  0.2073  0.0492 -0.1717
  408MOL0     C56196   2.067   3.747   8.819  0.4318  1.3648 -0.4279
  408MOL0     O56197   2.008   3.631   8.846 -0.2146  0.4458 -0.1382
  408MOL0     C56198   1.921   3.568   8.758  0.2514  0.3835 -0.4365
  408MOL0     C56199   1.952   3.539   8.619  0.3818 -0.4164 -0.1340
  408MOL0     C56200   1.872   3.460   8.544  0.1801 -0.9517  1.1095
  408MOL0     C56201   1.761   3.403   8.596 -0.6115 -0.5582  0.5771
  408MOL0     O56202   1.683   3.336   8.501  0.0565  0.1144  0.1910
  408MOL0     C56203   1.580   3.253   8.551 -0.2104 -0.1545 -0.0615
  408MOL0     C56204   1.504   3.200   8.427  0.9899 -1.0250  0.0759
  408MOL0     C56205   1.576   3.088   8.341  0.6763 -0.2736 -0.3693
  408MOL0     C56206   1.654   3.160   8.229  0.7459 -0.5535 -0.6162
  408MOL0     C56207   1.736   3.059   8.146  0.2611 -0.2555 -1.7916
  408MOL0     C56208   1.833   3.131   8.056 -0.0039  0.0966 -0.4643
  408MOL0     C56209   1.961   3.171   8.129  0.4219 -0.8839 -0.6614
  408MOL0     C56210   2.075   3.065   8.117 -0.4681 -0.8913 -0.3771
  408MOL0    Cl56211   2.069   2.936   8.230 -0.3257 -0.0605  0.0204
  408MOL0     C56212   1.723   3.433   8.728  0.3533  0.6241  0.2555
  408MOL0     C56213   1.807   3.504   8.808 -0.7389  0.1858  0.1647
  408MOL0     O56214   2.040   3.817   8.727 -0.1255  0.0828  0.0699
  408MOL0     C56215   2.155   3.752   9.049 -0.1551 -0.0020  0.8038
  408MOL0     C56216   2.251   3.787   9.133  0.1381 -0.4453 -0.3541
  408MOL0     N56217   2.176   4.421   9.123  0.6564 -0.3169 -0.0557
  408MOL0     N56218   2.066   4.373   9.076 -0.6198  0.5654  0.5412
  408MOL0     C56219   1.138   3.791   9.392 -0.4320  0.0118  0.0840
  408MOL0     C56220   1.073   3.771   9.520  0.3130 -0.2083  0.3994
  408MOL0     C56221   0.863   3.786   9.874  0.4776  0.2197 -0.2177
  408MOL0     C56222   0.945   3.725   9.980 -0.1296 -0.2036  0.1565
  408MOL0     C56223   0.889   3.667  10.099 -0.3608 -0.2240 -0.3208
  408MOL0     C56224   0.752   3.662  10.113  0.0709  0.3743  0.3933
  408MOL0     O56225   0.685   3.593  10.215 -0.4843 -0.1156 -0.3040
  408MOL0     C56226   0.763   3.499  10.291 -0.2199 -0.7750 -1.0154
  408MOL0     C56227   0.838   3.583  10.398  0.7582  0.5961 -0.2282
  408MOL0     C56228   0.877   3.490  10.515  0.2156 -0.9170 -0.4078
  408MOL0     C56229   0.997   3.540  10.591 -0.1788 -0.0227  0.0176
  408MOL0     C56230   1.019   3.452  10.709 -0.8511 -0.8366 -0.5363
  408MOL0     C56231   1.032   3.379  10.803 -0.4647 -0.4828 -0.2428
  408MOL0     C56232   0.672   3.727  10.017 -0.8328  0.6616 -0.5086
  408MOL0     C56233   0.723   3.778   9.903 -0.0150  0.5529 -0.1147
  408MOL0     C56234   0.618   3.821   9.799 -0.0436 -0.3952  0.5498
  408MOL0     H56235   1.264   3.990   9.704  0.9865  1.4222 -0.8756
  408MOL0     H56236   1.370   4.020   9.470  1.1088 -0.4675  0.8245
  408MOL0     H56237   1.175   3.826   9.121  0.6893  2.9738  2.0113
  408MOL0     H56238   1.298   3.706   9.152  2.1907  0.7168  1.7596
  408MOL0     H56239   1.328   3.821   8.912  3.5236 -1.0565 -0.8615
  408MOL0     H56240   1.316   3.979   8.989 -0.3283 -0.6747 -1.2205
  408MOL0     H56241   1.534   3.946   9.110  1.9470 -0.2569 -0.6204
  408MOL0     H56242   1.538   3.784   9.045 -0.5298  0.3584  1.4311
  408MOL0     H56243   1.623   3.886   8.839  0.6765 -1.1725  1.6110
  408MOL0     H56244   1.501   4.008   8.842  1.8296  0.3264 -1.0088
  408MOL0     H56245   1.634   4.135   9.015 -0.0658  1.7030 -1.3569
  408MOL0     H56246   1.726   4.105   8.860 -1.6629  2.2457 -0.1149
  408MOL0     H56247   1.746   3.980   9.137  1.6066  4.0441  0.6716
  408MOL0     H56248   1.819   3.900   8.998  1.1018 -1.0746  2.2413
  408MOL0     H56249   1.931   4.110   8.927 -0.2395  0.8961  0.0064
  408MOL0     H56250   2.010   4.017   9.039  0.4824  0.7274 -1.4524
  408MOL0     H56251   1.824   4.258   9.085 -1.3526 -1.4629  2.1682
  408MOL0     H56252   1.852   4.152   9.224 -3.0040  3.8569  1.3028
  408MOL0     H56253   2.119   4.150   9.312  0.0214 -1.0809 -1.6777
  408MOL0     H56254   2.339   4.274   9.390  1.1191  1.0231  0.6054
  408MOL0     H56255   2.360   4.431   9.328 -3.3908  0.8392  1.6242
  408MOL0     H56256   2.467   4.341   9.123  0.5865  0.0074  0.3880
  408MOL0     H56257   2.557   4.276   9.255  0.0861 -1.1302 -0.3500
  408MOL0     H56258   2.346   4.156   9.085  1.3581  3.1145 -1.0590
  408MOL0     H56259   2.515   4.122   9.070 -1.5560  3.5533 -1.8781
  408MOL0     H56260   2.497   4.042   9.330 -1.0416  1.9320 -0.0624
  408MOL0     H56261   2.331   4.017   9.304  1.1580 -0.2672  0.4967
  408MOL0     H56262   2.478   3.927   8.932 -0.7326  1.1597  1.3025
  408MOL0     H56263   2.271   3.810   8.664 -1.0163  1.1413 -0.9681
  408MOL0     H56264   2.427   3.873   8.721 -0.1897  0.2635  1.6577
  408MOL0     H56265   2.287   3.983   8.704 -1.0014 -0.8744 -0.4956
  408MOL0     H56266   2.042   3.583   8.577  0.8426 -1.2940 -0.0794
  408MOL0     H56267   1.893   3.439   8.440 -1.9248  1.0104  0.2020
  408MOL0     H56268   1.619   3.167   8.606 -0.2721 -1.6431 -2.2314
  408MOL0     H56269   1.498   3.299   8.606  0.8443  1.4241  0.2672
  408MOL0     H56270   1.412   3.158   8.470  0.7735 -1.2471 -0.6009
  408MOL0     H56271   1.476   3.276   8.353 -3.9009 -4.4537 -2.1552
  408MOL0     H56272   1.503   3.018   8.299 -0.1424  0.5038 -0.2920
  408MOL0     H56273   1.653   3.035   8.397  1.4499  0.5247 -0.6547
  408MOL0     H56274   1.713   3.245   8.266 -0.7980  1.2741 -2.1112
  408MOL0     H56275   1.585   3.215   8.164  1.6938  0.3741 -0.8724
  408MOL0     H56276   1.789   2.985   8.206 -0.6000  0.9135  0.5048
  408MOL0     H56277   1.659   3.013   8.083 -1.9120  1.9472 -0.9486
  408MOL0     H56278   1.788   3.224   8.022 -0.2015  0.7919  1.5321
  408MOL0     H56279   1.862   3.064   7.974  1.3005 -0.6311  0.5375
  408MOL0     H56280   1.941   3.180   8.236 -0.8424 -0.2742 -0.9255
  408MOL0     H56281   1.995   3.268   8.090 -1.3239  2.0289  4.1457
  408MOL0     H56282   2.167   3.124   8.124 -2.0612  3.2081 -6.3753
  408MOL0     H56283   2.056   3.029   8.015 -1.6041  1.2678 -0.9751
  408MOL0     H56284   1.622   3.404   8.756  0.5665 -1.6256 -1.0453
  408MOL0     H56285   1.785   3.514   8.914  1.3536 -3.3419  1.0932
  408MOL0     H56286   2.074   3.692   9.090 -0.0423 -1.8813 -1.5257
  408MOL0     H56287   2.233   3.752   9.235 -4.0436  0.6360 -0.5302
  408MOL0     H56288   1.110   3.729   9.307 -2.1843 -0.3742  0.9020
  408MOL0     H56289   0.991   3.702   9.530 -0.8384  1.1167  0.4442
  408MOL0     H56290   1.051   3.708   9.963  0.0442  0.9099  0.0216
  408MOL0     H56291   0.964   3.622  10.163  1.1738  1.7662 -0.5884
  408MOL0     H56292   0.703   3.427  10.348  2.1767 -1.0482  1.3787
  408MOL0     H56293   0.832   3.451  10.221  0.3717 -0.3580 -0.7255
  408MOL0     H56294   0.793   3.680  10.419 -1.1873 -0.2506 -0.2549
  408MOL0     H56295   0.937   3.614  10.362  1.1443 -0.5871 -0.2426
  408MOL0     H56296   0.789   3.470  10.577 -0.0084  3.1627  0.8844
  408MOL0     H56297   0.896   3.388  10.479 -1.8755 -2.2259  1.8950
  408MOL0     H56298   0.980   3.640  10.632  0.0632  1.7234 -3.7422
  408MOL0     H56299   1.082   3.544  10.522 -0.6427 -1.2709 -0.6501
  408MOL0     H56300   1.050   3.320  10.890 -0.6313  0.8552  0.7255
  408MOL0     H56301   0.566   3.728  10.040 -0.5506  0.2809  0.9678
  408MOL0     H56302   0.617   3.757   9.710  4.2022 -3.1823  2.2095
  408MOL0     H56303   0.519   3.835   9.843  0.0708  0.0913  0.6608
  408MOL0     H56304   0.642   3.927   9.788 -0.3061 -0.1616  2.0176
  409MOL0     O56305   6.091  10.867   7.514 -0.2012  0.5798 -0.7056
  409MOL0     C56306   6.034  10.974   7.487 -0.1296 -0.7185  0.6088
  409MOL0     O56307   6.092  11.095   7.446 -0.7205  0.0799 -0.5499
  409MOL0     C56308   6.221  11.117   7.418 -0.5389  0.5335  0.1574
  409MOL0     C56309   6.328  11.057   7.483  0.3381  0.1688 -0.5547
  409MOL0     C56310   6.462  11.095   7.464 -0.2616 -0.5572  1.1302
  409MOL0     C56311   6.491  11.197   7.366 -0.3708 -0.0678 -0.0989
  409MOL0     O56312   6.616  11.251   7.331  0.4106  0.5145 -1.0569
  409MOL0     C56313   6.731  11.169   7.366 -0.0984 -0.0620 -0.3702
  409MOL0     C56314   6.840  11.206   7.269 -0.1193 -0.2504 -0.5242
  409MOL0     C56315   6.970  11.146   7.329  0.4142  0.3674 -0.1429
  409MOL0     C56316   7.095  11.235   7.309 -0.3602 -0.5802  0.1701
  409MOL0     C56317   7.096  11.366   7.398 -0.2492  0.2540  0.3389
  409MOL0     C56318   7.063  11.354   7.551 -0.2840  0.7985 -0.5563
  409MOL0     C56319   7.114  11.473   7.632  0.0350 -0.1617  0.2781
  409MOL0     C56320   7.066  11.606   7.572  0.8927  0.1083  0.2644
  409MOL0     N56321   7.138  11.712   7.636 -1.0743  0.9691 -0.3964
  409MOL0     C56322   7.149  11.734   7.774 -0.2408 -0.2002 -1.3170
  409MOL0     C56323   7.243  11.834   7.793 -0.1765  0.4991  0.3895
  409MOL0     C56324   7.299  11.888   7.922 -0.3905  0.0628 -0.8398
  409MOL0     C56325   7.391  11.786   7.998  0.0596 -0.2393 -0.0234
  409MOL0     C56326   7.466  11.855   8.108 -0.8351 -0.2763 -0.7869
  409MOL0     C56327   7.597  11.795   8.143 -0.2799  0.2695 -0.3579
  409MOL0     O56328   7.586  11.650   8.171  0.0742  0.3939  0.1411
  409MOL0     C56329   7.574  11.605   8.300  0.1656 -0.2241  0.5160
  409MOL0     C56330   7.570  11.468   8.317  0.1365 -0.7287  0.3974
  409MOL0     C56331   7.547  11.403   8.439 -0.2325 -0.6565 -0.5197
  409MOL0     C56332   7.561  11.257   8.442  0.1439 -0.4289 -0.1631
  409MOL0     C56333   7.526  11.480   8.558 -0.3098  0.0931 -0.0913
  409MOL0     C56334   7.493  11.426   8.693 -1.0537  0.0018  0.5497
  409MOL0     O56335   7.494  11.510   8.796 -0.5026  0.0568 -0.0287
  409MOL0     C56336   7.450  11.467   8.923  0.6029 -0.0165  1.3968
  409MOL0     C56337   7.322  11.472   8.956  0.3565  1.3670 -1.4750
  409MOL0     C56338   7.279  11.423   9.085  0.6001 -0.2504  0.2915
  409MOL0     C56339   7.377  11.363   9.164 -0.4215 -0.1858  0.4065
  409MOL0     O56340   7.332  11.317   9.286  0.2111  0.1344  0.0108
  409MOL0     C56341   7.427  11.251   9.378 -0.2368  0.0961 -0.2462
  409MOL0     C56342   7.457  11.104   9.333  0.4841 -0.2185 -0.5200
  409MOL0     C56343   7.407  11.001   9.435  0.5574  0.0851 -0.8218
  409MOL0     C56344   7.468  10.986   9.575 -0.2135 -1.1904 -0.0122
  409MOL0     C56345   7.420  10.861   9.658  0.5147  0.4490 -0.1860
  409MOL0     C56346   7.455  10.864   9.809 -0.8756 -0.0282  0.4799
  409MOL0     C56347   7.385  10.750   9.889  0.5193 -0.3613  0.6078
  409MOL0     C56348   7.231  10.762   9.911 -0.4161 -0.9554  1.1383
  409MOL0    Cl56349   7.176  10.930   9.957  0.0198 -0.2469 -0.0214
  409MOL0     C56350   7.506  11.343   9.110  0.1229  0.3863 -0.3568
  409MOL0     C56351   7.545  11.391   8.990 -0.1718 -0.3219 -0.5114
  409MOL0     O56352   7.449  11.310   8.695  0.5615  0.0483 -0.1338
  409MOL0     C56353   7.524  11.616   8.541  0.2093  0.2568 -0.1129
  409MOL0     C56354   7.554  11.678   8.414 -0.0196 -0.2598 -0.3309
  409MOL0     N56355   7.280  11.862   7.657  0.1351  0.1640  0.1373
  409MOL0     N56356   7.227  11.792   7.569  0.6338  0.2371 -0.2981
  409MOL0     C56357   6.380  11.253   7.296 -0.9766  0.0987  0.1229
  409MOL0     C56358   6.249  11.220   7.328 -0.2506  0.1036 -0.3002
  409MOL0     C56359   5.890  10.982   7.536 -0.1040  0.8810  0.5163
  409MOL0     C56360   5.824  11.107   7.531 -0.3307 -0.1410 -0.4892
  409MOL0     C56361   5.697  11.124   7.582  0.6197 -0.0519  0.9803
  409MOL0     C56362   5.635  11.014   7.645  0.4136 -0.6703  0.1198
  409MOL0     O56363   5.506  11.043   7.675  0.1441  0.6464  0.7509
  409MOL0     C56364   5.463  11.101   7.792  0.0396 -0.2959  0.1221
  409MOL0     C56365   5.429  10.988   7.888  0.5452 -0.9844 -0.5575
  409MOL0     C56366   5.401  11.048   8.030 -0.3691 -0.3948 -0.9959
  409MOL0     C56367   5.274  10.999   8.101  0.0442 -0.1996  0.2790
  409MOL0     C56368   5.243  10.856   8.089 -0.0064  0.2042  0.5816
  409MOL0     C56369   5.242  10.739   8.091  1.0093  0.1442  0.3847
  409MOL0     C56370   5.700  10.893   7.658 -0.5519 -0.4568 -0.4908
  409MOL0     C56371   5.824  10.865   7.598  0.0581 -0.8071 -0.0597
  409MOL0     C56372   5.865  10.724   7.625  0.2274  0.2777 -1.1142
  409MOL0     H56373   6.317  10.975   7.554  0.0854  0.1471 -0.6175
  409MOL0     H56374   6.545  11.053   7.519 -0.2422 -3.2414 -0.7746
  409MOL0     H56375   6.695  11.067   7.348 -0.2466 -0.6228  2.5948
  409MOL0     H56376   6.747  11.177   7.474  2.1470 -0.9443 -0.5865
  409MOL0     H56377   6.825  11.166   7.169 -1.6969  1.3218 -0.9820
  409MOL0     H56378   6.829  11.315   7.257 -2.1268 -0.4139 -0.5311
  409MOL0     H56379   6.960  11.135   7.438  1.3956  2.5249  0.2128
  409MOL0     H56380   6.990  11.056   7.270  1.2790  1.4978 -1.6481
  409MOL0     H56381   7.183  11.174   7.330  0.6746  0.8326  0.0662
  409MOL0     H56382   7.105  11.270   7.206  1.1511 -0.2590  0.4098
  409MOL0     H56383   7.027  11.433   7.346  1.1137 -0.0190 -1.9487
  409MOL0     H56384   7.195  11.411   7.393  0.2755 -0.8157  0.7123
  409MOL0     H56385   6.960  11.327   7.576  0.5754 -2.8547 -0.4857
  409MOL0     H56386   7.114  11.263   7.584 -2.7645 -0.7031 -0.6360
  409MOL0     H56387   7.222  11.465   7.646 -0.0484 -0.1034  1.0183
  409MOL0     H56388   7.074  11.459   7.733  1.1227  0.0990  0.7556
  409MOL0     H56389   7.100  11.609   7.469  1.2541 -4.0981  0.0920
  409MOL0     H56390   6.958  11.626   7.579  1.4871  3.6760  1.3651
  409MOL0     H56391   7.094  11.674   7.846  0.3647 -0.1099 -0.7731
  409MOL0     H56392   7.218  11.905   7.993  1.0331  0.8826  0.6666
  409MOL0     H56393   7.350  11.983   7.900  1.3672 -0.5120  0.5594
  409MOL0     H56394   7.333  11.702   8.038  0.0893  0.3167  1.2321
  409MOL0     H56395   7.458  11.762   7.916  1.4670  3.7397 -0.2440
  409MOL0     H56396   7.491  11.954   8.067 -0.5791  0.0682  0.1792
  409MOL0     H56397   7.389  11.866   8.185 -0.3196 -0.8849 -0.1713
  409MOL0     H56398   7.659  11.795   8.053  1.4551 -1.1262  0.7573
  409MOL0     H56399   7.638  11.847   8.230 -2.3719 -1.8055  2.0250
  409MOL0     H56400   7.585  11.416   8.223 -1.4714 -0.1531 -0.2062
  409MOL0     H56401   7.456  11.225   8.448  0.0727 -0.5353 -1.6843
  409MOL0     H56402   7.615  11.228   8.533  0.3912 -1.9360 -0.7669
  409MOL0     H56403   7.608  11.214   8.354 -1.0953 -0.3980 -0.8663
  409MOL0     H56404   7.248  11.503   8.883 -1.1485  1.5752  0.0607
  409MOL0     H56405   7.179  11.427   9.127  0.6340 -0.5484  0.4014
  409MOL0     H56406   7.517  11.313   9.394  0.0179 -0.1160 -0.8475
  409MOL0     H56407   7.379  11.239   9.476  1.4471 -1.0358  0.4807
  409MOL0     H56408   7.417  11.081   9.233 -0.3206  2.5984 -0.9531
  409MOL0     H56409   7.564  11.090   9.318  0.4632 -1.1887  0.1845
  409MOL0     H56410   7.407  10.899   9.394 -3.6281 -0.1749 -0.6309
  409MOL0     H56411   7.300  11.015   9.453  0.1796 -2.2643 -0.8045
  409MOL0     H56412   7.455  11.079   9.631 -0.8046 -1.7802  0.8552
  409MOL0     H56413   7.577  10.975   9.563 -0.3139 -0.4937 -1.9596
  409MOL0     H56414   7.311  10.869   9.656  0.6414  2.3911 -1.2288
  409MOL0     H56415   7.455  10.769   9.610 -1.9932 -1.5281  1.4878
  409MOL0     H56416   7.439  10.962   9.854 -0.7521 -0.1923  0.8884
  409MOL0     H56417   7.557  10.827   9.818 -2.3669 -4.6737  1.5965
  409MOL0     H56418   7.415  10.753   9.994 -1.4098  0.2407  1.1877
  409MOL0     H56419   7.412  10.657   9.837 -1.6089  0.4032 -2.1547
  409MOL0     H56420   7.208  10.685   9.986 -1.4922 -1.0481  0.7311
  409MOL0     H56421   7.179  10.732   9.820 -0.8821 -2.2730  1.8017
  409MOL0     H56422   7.585  11.288   9.161  2.3667  2.5473 -1.2668
  409MOL0     H56423   7.640  11.371   8.942  0.2118  1.3172 -0.4822
  409MOL0     H56424   7.516  11.682   8.626  1.2046  0.6397 -0.3012
  409MOL0     H56425   7.555  11.786   8.418 -0.7464 -0.2236 -0.9272
  409MOL0     H56426   6.400  11.341   7.235  0.7806 -0.7517 -0.5846
  409MOL0     H56427   6.166  11.274   7.285  0.7607  0.1377 -2.3496
  409MOL0     H56428   5.862  11.205   7.502 -1.1561  0.3908  0.1726
  409MOL0     H56429   5.643  11.216   7.570  0.7993  0.2493  2.3195
  409MOL0     H56430   5.545  11.162   7.831  1.3476 -2.6638  1.2343
  409MOL0     H56431   5.377  11.169   7.782 -1.8943 -2.3267  1.7696
  409MOL0     H56432   5.513  10.919   7.887  1.2617 -0.2530  1.7839
  409MOL0     H56433   5.334  10.949   7.851 -1.4259  0.5641  2.4653
  409MOL0     H56434   5.490  11.031   8.091  0.2734  2.3693 -1.0098
  409MOL0     H56435   5.389  11.157   8.030  2.1042 -0.0110  1.6911
  409MOL0     H56436   5.196  11.056   8.051  2.2518  0.7068 -2.4152
  409MOL0     H56437   5.279  11.035   8.204 -4.4510  2.0447 -0.0311
  409MOL0     H56438   5.250  10.633   8.077  0.7405  0.4840 -3.2537
  409MOL0     H56439   5.635  10.825   7.712 -0.3726  0.0487  0.3748
  409MOL0     H56440   5.931  10.718   7.712 -1.3753  0.2163  0.1489
  409MOL0     H56441   5.785  10.649   7.634  0.9458 -0.6211 -1.9315
  409MOL0     H56442   5.924  10.688   7.541  1.2990 -1.9369  0.4957
  410MOL0     O56443   6.054   3.122   9.173 -0.5240  0.1800  0.4156
  410MOL0     C56444   6.127   3.194   9.100  0.0037  0.3266  0.8913
  410MOL0     O56445   6.209   3.150   9.004 -0.2105  0.2173 -0.0537
  410MOL0     C56446   6.207   3.026   8.948  0.6363  1.1695  0.0654
  410MOL0     C56447   6.316   2.959   8.906 -0.2817  0.1876 -0.0564
  410MOL0     C56448   6.310   2.840   8.838 -0.0129 -0.7194 -0.6193
  410MOL0     C56449   6.185   2.781   8.813 -0.1866 -0.6085 -0.4331
  410MOL0     O56450   6.186   2.653   8.746 -0.0951  0.0871  0.2051
  410MOL0     C56451   6.078   2.567   8.770 -0.4742 -0.8611  0.7938
  410MOL0     C56452   5.966   2.584   8.667  0.1446 -0.4585 -0.4698
  410MOL0     C56453   5.989   2.548   8.526  0.3102 -0.3299 -0.7778
  410MOL0     C56454   5.971   2.669   8.425  0.7313  0.6603 -0.1808
  410MOL0     C56455   5.964   2.607   8.280 -0.0063 -0.3911 -0.1784
  410MOL0     C56456   5.944   2.715   8.163 -0.2149  0.4495 -0.2282
  410MOL0     C56457   6.064   2.808   8.147  0.2076  0.2093 -0.6093
  410MOL0     C56458   6.106   2.844   8.005 -0.5392 -0.1974  0.0254
  410MOL0     N56459   5.993   2.929   7.952  0.6773  0.3259  0.5432
  410MOL0     C56460   5.919   2.901   7.834 -0.2561  0.3951 -0.8614
  410MOL0     C56461   5.849   3.019   7.804  0.3771  0.1338  1.2157
  410MOL0     C56462   5.752   3.014   7.689 -1.4534 -1.0333  0.0026
  410MOL0     C56463   5.645   2.908   7.712 -0.9836 -0.0607  0.1464
  410MOL0     C56464   5.523   2.899   7.611 -0.1114  0.3822 -0.3918
  410MOL0     C56465   5.556   2.953   7.468  0.4149  0.2621  0.4203
  410MOL0     O56466   5.678   2.891   7.422  0.1494  0.2833 -0.2317
  410MOL0     C56467   5.655   2.767   7.374  0.0323 -0.1955  0.6941
  410MOL0     C56468   5.735   2.666   7.423  0.2830  0.2754  0.3143
  410MOL0     C56469   5.721   2.540   7.372  0.8805 -0.1274  0.1042
  410MOL0     C56470   5.793   2.432   7.447  0.0251  0.5071  0.0264
  410MOL0     C56471   5.627   2.510   7.277  0.3779 -0.1117  0.4703
  410MOL0     C56472   5.585   2.380   7.218 -0.0638  0.8291  0.0456
  410MOL0     O56473   5.478   2.387   7.131  0.5554  0.8359 -0.1257
  410MOL0     C56474   5.463   2.284   7.038  0.4417 -0.0796 -0.2225
  410MOL0     C56475   5.555   2.256   6.937  0.3399  1.5336 -0.1508
  410MOL0     C56476   5.531   2.142   6.852 -0.2936 -0.9496  1.0680
  410MOL0     C56477   5.405   2.071   6.860 -0.0613  0.0220 -0.7111
  410MOL0     O56478   5.369   1.951   6.794 -0.0918  0.1060  0.4268
  410MOL0     C56479   5.471   1.866   6.739 -0.3021 -0.6334 -0.1145
  410MOL0     C56480   5.421   1.780   6.634  0.7093  0.6672  0.2870
  410MOL0     C56481   5.502   1.650   6.625 -0.0218  0.2139 -0.2454
  410MOL0     C56482   5.447   1.550   6.517 -0.6706  0.2227 -0.6875
  410MOL0     C56483   5.460   1.603   6.376  0.3513  0.2076 -1.6480
  410MOL0     C56484   5.606   1.637   6.341 -0.6689  0.3351 -0.7450
  410MOL0     C56485   5.626   1.676   6.192 -0.9480 -0.2824 -0.0858
  410MOL0     C56486   5.774   1.691   6.178  0.0814  0.0933  0.0249
  410MOL0    Cl56487   5.830   1.815   6.294 -0.0282 -0.1818  0.1351
  410MOL0     C56488   5.320   2.110   6.959  0.3303 -0.4432  0.0466
  410MOL0     C56489   5.344   2.210   7.051 -0.1650 -0.3606 -0.3639
  410MOL0     O56490   5.667   2.286   7.229  0.6383  0.2828  0.2986
  410MOL0     C56491   5.562   2.615   7.214  0.0663  0.1876  0.1311
  410MOL0     C56492   5.575   2.747   7.258  0.1100 -0.6968 -0.1671
  410MOL0     N56493   5.886   3.119   7.887 -0.3340 -0.8393 -0.2665
  410MOL0     N56494   5.972   3.066   7.969 -0.0225 -0.1542  0.3710
  410MOL0     C56495   6.067   2.848   8.854 -0.2962  0.3616  1.3469
  410MOL0     C56496   6.088   2.971   8.922  0.4243  0.1563 -0.1541
  410MOL0     C56497   6.115   3.344   9.123 -0.6145  0.6218 -0.0988
  410MOL0     C56498   6.090   3.392   9.257  0.9070  0.4712 -0.5414
  410MOL0     C56499   6.108   3.522   9.287  0.7477 -0.1159 -0.3602
  410MOL0     C56500   6.158   3.615   9.197  0.3754 -0.9621 -0.4387
  410MOL0     O56501   6.183   3.742   9.244  0.0308  0.5318 -0.1935
  410MOL0     C56502   6.296   3.814   9.188  0.4645  0.2714 -0.3732
  410MOL0     C56503   6.425   3.746   9.232 -0.1048 -0.3172  0.1757
  410MOL0     C56504   6.467   3.788   9.378  0.1522 -0.7853  0.8644
  410MOL0     C56505   6.575   3.703   9.455  0.2813 -0.5615  0.1974
  410MOL0     C56506   6.712   3.739   9.407 -0.8598  0.6085  0.3431
  410MOL0     C56507   6.817   3.759   9.359 -0.2061 -0.2459 -0.5221
  410MOL0     C56508   6.172   3.576   9.069 -0.5747 -0.4643  0.5378
  410MOL0     C56509   6.141   3.446   9.028  0.1221  0.8348 -0.5808
  410MOL0     C56510   6.140   3.418   8.887  0.1852  0.0619  0.2319
  410MOL0     H56511   6.418   2.991   8.927 -0.4228  0.0038  0.9843
  410MOL0     H56512   6.395   2.778   8.810 -1.6401 -2.2683 -2.4071
  410MOL0     H56513   6.033   2.560   8.870 -3.8984 -1.9849 -0.6540
  410MOL0     H56514   6.114   2.465   8.756  0.1067 -0.4833 -0.6346
  410MOL0     H56515   5.898   2.503   8.693 -1.2775  1.0928  0.8879
  410MOL0     H56516   5.917   2.682   8.670 -1.2703 -1.1601  1.7988
  410MOL0     H56517   6.089   2.506   8.511  0.0724 -1.3736  0.4490
  410MOL0     H56518   5.920   2.467   8.503  1.1419 -1.7600  1.4140
  410MOL0     H56519   5.875   2.716   8.448  0.1780  0.7575 -2.3886
  410MOL0     H56520   6.055   2.739   8.426  1.1998  0.1848 -1.9235
  410MOL0     H56521   5.874   2.545   8.271 -0.4305  0.1348  0.3487
  410MOL0     H56522   6.059   2.560   8.254 -0.1029  0.4040 -2.1358
  410MOL0     H56523   5.920   2.650   8.078 -4.0588  0.4000  0.7010
  410MOL0     H56524   5.853   2.773   8.181 -1.6365 -0.2252 -4.2746
  410MOL0     H56525   6.156   2.763   8.185  0.5779  1.0986 -0.4311
  410MOL0     H56526   6.042   2.896   8.208  1.3648 -0.2567  0.5001
  410MOL0     H56527   6.199   2.901   8.008 -0.8304  0.2434  1.2614
  410MOL0     H56528   6.125   2.754   7.947  0.6226 -1.3276  2.0469
  410MOL0     H56529   5.915   2.805   7.784  1.5975 -2.0102  3.1817
  410MOL0     H56530   5.813   3.009   7.599 -1.9150  0.2198 -0.4034
  410MOL0     H56531   5.705   3.113   7.695 -0.7888 -0.7086 -0.0325
  410MOL0     H56532   5.694   2.810   7.719  0.2310  0.6497  4.0313
  410MOL0     H56533   5.600   2.925   7.810 -0.7318 -1.2098  0.4745
  410MOL0     H56534   5.482   2.799   7.624  1.0968  0.0817  1.5092
  410MOL0     H56535   5.443   2.967   7.642 -1.7899  0.1403 -3.7195
  410MOL0     H56536   5.474   2.930   7.400  0.1506 -1.7094  1.3156
  410MOL0     H56537   5.562   3.062   7.458 -0.0934  0.3766  1.2565
  410MOL0     H56538   5.796   2.686   7.511  2.1047  0.7014 -0.9784
  410MOL0     H56539   5.834   2.480   7.535 -0.4667  0.2118  0.4265
  410MOL0     H56540   5.873   2.385   7.389  0.0203  0.9524 -0.3466
  410MOL0     H56541   5.718   2.364   7.490 -1.5931  0.7342 -2.2371
  410MOL0     H56542   5.633   2.328   6.913  1.8481 -0.3672 -1.2751
  410MOL0     H56543   5.594   2.100   6.775 -0.9617 -0.7977  0.4347
  410MOL0     H56544   5.559   1.920   6.702 -1.1860  0.7971 -0.2266
  410MOL0     H56545   5.504   1.814   6.829  0.7972  4.6902  2.9839
  410MOL0     H56546   5.317   1.759   6.661  1.1862 -1.6403  0.5408
  410MOL0     H56547   5.420   1.835   6.540 -3.2058 -1.3992 -1.1188
  410MOL0     H56548   5.487   1.597   6.720  1.3826  0.8096  0.3443
  410MOL0     H56549   5.609   1.661   6.604  0.2849 -0.6173  0.7709
  410MOL0     H56550   5.345   1.513   6.532 -0.1413 -1.9714 -2.1048
  410MOL0     H56551   5.507   1.459   6.528 -2.2154 -0.7970 -0.2359
  410MOL0     H56552   5.419   1.524   6.312 -1.4912 -0.2652  0.0053
  410MOL0     H56553   5.398   1.692   6.364  0.6710  0.1797 -3.9614
  410MOL0     H56554   5.665   1.552   6.374 -0.3072  0.7364 -0.3549
  410MOL0     H56555   5.631   1.725   6.400 -1.1518 -0.0321  0.0144
  410MOL0     H56556   5.567   1.762   6.159 -1.5562 -1.3305 -1.8798
  410MOL0     H56557   5.584   1.595   6.131 -2.2796  0.6720 -0.4864
  410MOL0     H56558   5.793   1.713   6.072 -3.8894  2.7559 -0.3307
  410MOL0     H56559   5.816   1.591   6.195 -2.1735 -1.1482 -1.1649
  410MOL0     H56560   5.222   2.063   6.963  0.9348 -2.0654 -2.2793
  410MOL0     H56561   5.271   2.234   7.127  2.0936  0.2093  1.7425
  410MOL0     H56562   5.506   2.607   7.121 -0.4846 -2.1017  0.6243
  410MOL0     H56563   5.538   2.835   7.206  0.2173  0.0568  1.0001
  410MOL0     H56564   5.966   2.818   8.830  0.6355 -0.4417 -1.9803
  410MOL0     H56565   6.002   3.027   8.958  0.6214 -0.7938  1.8801
  410MOL0     H56566   6.065   3.311   9.325  1.0101 -0.0762 -1.1406
  410MOL0     H56567   6.096   3.546   9.392 -1.1323  2.2891 -1.0234
  410MOL0     H56568   6.290   3.820   9.079  0.6075 -0.3282 -0.4126
  410MOL0     H56569   6.292   3.917   9.226  2.2378 -0.1750  1.1754
  410MOL0     H56570   6.512   3.778   9.174  0.8559 -2.8912  0.0404
  410MOL0     H56571   6.420   3.639   9.207  0.4056  0.4202 -3.7863
  410MOL0     H56572   6.500   3.892   9.372  0.8090 -0.9458  1.5118
  410MOL0     H56573   6.377   3.799   9.439  2.3349  2.7045  3.8943
  410MOL0     H56574   6.559   3.595   9.439  0.9817 -0.4097 -1.9121
  410MOL0     H56575   6.572   3.723   9.562 -1.7258  2.7740 -0.3288
  410MOL0     H56576   6.908   3.784   9.308  0.2855 -2.5674 -0.8904
  410MOL0     H56577   6.189   3.659   9.002 -0.0558 -0.9705  0.0317
  410MOL0     H56578   6.075   3.331   8.872 -0.0187  0.2670 -0.0934
  410MOL0     H56579   6.117   3.508   8.830  0.5228  1.6219  2.4196
  410MOL0     H56580   6.238   3.383   8.854 -0.0305 -1.7372  1.3211
  411MOL0     O56581   0.124   8.042   3.559  0.3803 -0.3635 -0.2555
  411MOL0     C56582   0.084   7.988   3.458 -0.2862  0.3096  0.2039
  411MOL0     O56583   0.079   8.056   3.336  0.4393 -0.3457  0.2247
  411MOL0     C56584   0.130   8.188   3.333  0.8220 -0.0716  0.2359
  411MOL0     C56585   0.263   8.210   3.305 -0.1123  0.2720  0.3936
  411MOL0     C56586   0.303   8.348   3.297  0.4938  0.2060  0.0936
  411MOL0     C56587   0.213   8.454   3.320  0.1633 -0.5784 -0.5318
  411MOL0     O56588   0.263   8.581   3.325  0.2583  0.3643 -0.8058
  411MOL0     C56589   0.215   8.668   3.219 -0.2976 -0.3942  0.4560
  411MOL0     C56590   0.307   8.790   3.200 -0.5819  0.1142  0.0815
  411MOL0     C56591   0.422   8.776   3.093 -1.5376  0.7047  0.6626
  411MOL0     C56592   0.532   8.674   3.154 -0.1200 -0.8164 -0.0203
  411MOL0     C56593   0.645   8.661   3.052  0.4745 -0.1898  0.4189
  411MOL0     C56594   0.733   8.561   3.112  0.6068 -0.4974 -0.4804
  411MOL0     C56595   0.820   8.593   3.232 -0.9509 -0.8453 -0.3033
  411MOL0     C56596   0.968   8.535   3.222 -0.8596  0.4723  0.6254
  411MOL0     N56597   1.050   8.615   3.134  0.4713  1.0160 -0.0904
  411MOL0     C56598   1.095   8.741   3.166 -0.1443  0.3485  0.9075
  411MOL0     C56599   1.151   8.777   3.048 -0.2640 -0.2386  0.5238
  411MOL0     C56600   1.199   8.920   3.018  0.0212 -0.0259  1.0419
  411MOL0     C56601   1.094   9.021   2.989  0.6120  0.3832  0.6376
  411MOL0     C56602   1.158   9.160   2.943 -0.3317  0.2609  0.1690
  411MOL0     C56603   1.050   9.266   2.907 -0.7779  0.5939  0.2464
  411MOL0     O56604   1.059   9.356   3.013 -0.7178  0.5805  0.6094
  411MOL0     C56605   0.990   9.472   3.006 -0.5101  1.0120 -1.0412
  411MOL0     C56606   0.919   9.512   2.889 -0.3611  0.6476 -0.2757
  411MOL0     C56607   0.833   9.618   2.910  0.5140  0.4997 -0.5148
  411MOL0     C56608   0.751   9.649   2.788 -0.2260  0.9004  0.9904
  411MOL0     C56609   0.831   9.702   3.030  0.9520  0.7147  0.0097
  411MOL0     C56610   0.751   9.826   3.053 -1.0865 -0.1619  0.3596
  411MOL0     O56611   0.759   9.884   3.177  0.4134  0.2412 -0.1822
  411MOL0     C56612   0.720  10.009   3.190 -0.5033  0.3671 -0.4651
  411MOL0     C56613   0.816  10.109   3.192 -0.9424 -0.1743  0.4000
  411MOL0     C56614   0.784  10.240   3.203  0.2603  0.0902 -0.1106
  411MOL0     C56615   0.655  10.273   3.241  0.4424 -0.4193  0.0198
  411MOL0     O56616   0.608  10.402   3.249 -0.2954 -0.2961 -0.4497
  411MOL0     C56617   0.691  10.517   3.255 -0.4744 -0.4905 -0.1241
  411MOL0     C56618   0.761  10.549   3.392 -0.3317 -0.0972  0.5844
  411MOL0     C56619   0.662  10.575   3.507  0.3088 -0.3470  0.3120
  411MOL0     C56620   0.727  10.624   3.633 -0.1626  0.8471  0.6435
  411MOL0     C56621   0.613  10.632   3.736  0.0077 -0.1946  0.9033
  411MOL0     C56622   0.649  10.710   3.867 -0.1721  0.0991  0.2058
  411MOL0     C56623   0.706  10.627   3.984 -0.1996 -0.7516  0.9349
  411MOL0     C56624   0.855  10.607   3.963  0.6939 -0.4694  0.6071
  411MOL0    Cl56625   0.910  10.483   4.077 -0.4413  0.2221  0.0671
  411MOL0     C56626   0.556  10.174   3.264  0.0317  0.8741  0.2360
  411MOL0     C56627   0.593  10.044   3.236  0.5305  1.1543 -0.4916
  411MOL0     O56628   0.705   9.888   2.957 -0.1249 -0.5081  0.2882
  411MOL0     C56629   0.900   9.645   3.141 -0.4049 -0.0810 -0.2126
  411MOL0     C56630   0.977   9.536   3.130  0.3353  0.5283  0.0664
  411MOL0     N56631   1.138   8.686   2.951  0.0574  0.1092 -0.0855
  411MOL0     N56632   1.078   8.588   3.006 -0.6090  0.7913  0.5216
  411MOL0     C56633   0.081   8.426   3.358  0.0655 -0.3310 -1.3841
  411MOL0     C56634   0.034   8.295   3.348 -0.4138  0.4003  0.2486
  411MOL0     C56635   0.048   7.848   3.449  0.4851 -1.0552 -0.2742
  411MOL0     C56636   0.013   7.799   3.321  0.1563 -0.1128 -0.7121
  411MOL0     C56637  -0.025   7.663   3.310  0.3481 -0.0060 -0.1865
  411MOL0     C56638  -0.033   7.578   3.421  0.1788 -0.2312 -0.1352
  411MOL0     O56639  -0.069   7.450   3.425  0.7003 -0.1809  0.7958
  411MOL0     C56640  -0.138   7.376   3.318 -0.2494 -0.7068 -0.0928
  411MOL0     C56641  -0.021   7.326   3.214  0.2492 -0.7014  0.1059
  411MOL0     C56642   0.066   7.204   3.258 -0.4361 -0.0242  0.0936
  411MOL0     C56643   0.022   7.076   3.204 -0.1641  0.3548 -0.7375
  411MOL0     C56644   0.059   7.054   3.067  0.5855 -0.5437 -0.0834
  411MOL0     C56645   0.094   7.052   2.953  1.2284 -0.1222  0.1847
  411MOL0     C56646   0.003   7.631   3.546  0.2154  0.0527  1.0183
  411MOL0     C56647   0.047   7.763   3.557 -0.0560 -1.2275 -0.7758
  411MOL0     C56648   0.093   7.809   3.696 -0.4041  0.3494  0.8286
  411MOL0     H56649   0.334   8.130   3.288 -0.5368 -0.2347  0.9752
  411MOL0     H56650   0.406   8.369   3.269 -0.8576  3.3468 -3.2627
  411MOL0     H56651   0.112   8.699   3.240  0.0021  0.3247  0.8961
  411MOL0     H56652   0.230   8.625   3.119 -4.7706  0.5909 -0.8575
  411MOL0     H56653   0.253   8.872   3.154  4.6372  3.5425 -0.8567
  411MOL0     H56654   0.354   8.820   3.294  3.2878 -2.1273 -0.8825
  411MOL0     H56655   0.386   8.749   2.993  0.3664  0.6391 -0.0346
  411MOL0     H56656   0.476   8.870   3.081 -1.8812  1.0169  1.4601
  411MOL0     H56657   0.576   8.734   3.234 -1.9285  1.4813 -0.6281
  411MOL0     H56658   0.480   8.586   3.191 -1.9388  0.1311 -0.1812
  411MOL0     H56659   0.693   8.758   3.034 -2.2291  0.9070 -1.6259
  411MOL0     H56660   0.606   8.636   2.953 -2.0272  0.4397  1.1725
  411MOL0     H56661   0.672   8.474   3.137 -4.9932  3.6572  2.6768
  411MOL0     H56662   0.807   8.545   3.033  1.9941  2.2961  0.0992
  411MOL0     H56663   0.767   8.545   3.314  1.6781 -4.0730 -0.2700
  411MOL0     H56664   0.820   8.700   3.252 -1.0507 -0.9349  0.1838
  411MOL0     H56665   1.019   8.541   3.319 -1.1760 -1.9527  0.9952
  411MOL0     H56666   0.947   8.434   3.185 -0.5087  0.3328  0.8066
  411MOL0     H56667   1.085   8.809   3.250  0.5867  1.0301  0.4630
  411MOL0     H56668   1.270   8.926   2.935  1.7858  1.1503  2.5546
  411MOL0     H56669   1.262   8.940   3.105  0.6507 -0.5997  0.7301
  411MOL0     H56670   1.037   8.982   2.904  2.7662  0.2148 -0.8142
  411MOL0     H56671   1.041   9.026   3.084  1.3400 -1.2503  1.1664
  411MOL0     H56672   1.236   9.204   3.005  0.2759  0.3287 -0.6354
  411MOL0     H56673   1.208   9.133   2.850  0.2803 -3.8453  1.4766
  411MOL0     H56674   1.073   9.319   2.814 -1.4517 -0.6519 -0.6401
  411MOL0     H56675   0.954   9.218   2.892 -2.1860  1.9926  3.6250
  411MOL0     H56676   0.916   9.457   2.795 -3.0230 -0.3733  0.3135
  411MOL0     H56677   0.644   9.631   2.797 -0.7659  1.2642 -2.7730
  411MOL0     H56678   0.785   9.583   2.707 -0.3630  1.9939  0.0183
  411MOL0     H56679   0.769   9.749   2.747  0.6746  0.3045 -0.1195
  411MOL0     H56680   0.920  10.076   3.190 -1.1141 -1.1329  3.0377
  411MOL0     H56681   0.864  10.307   3.174 -0.3014  0.9860  0.3858
  411MOL0     H56682   0.767  10.504   3.177  0.8853  0.0381  1.0592
  411MOL0     H56683   0.639  10.603   3.212 -1.8171 -0.5678  1.2833
  411MOL0     H56684   0.836  10.474   3.417  0.9993  1.1150  0.3562
  411MOL0     H56685   0.828  10.634   3.378  0.4420 -0.6116  1.1084
  411MOL0     H56686   0.629  10.474   3.529 -0.8089  0.3386  1.9693
  411MOL0     H56687   0.569  10.626   3.479  0.1732 -1.1798 -0.7889
  411MOL0     H56688   0.780  10.718   3.617  1.4797 -0.5504 -3.6872
  411MOL0     H56689   0.807  10.558   3.669  0.9151  3.0228  2.4448
  411MOL0     H56690   0.536  10.691   3.686 -1.6836  0.1234  3.6631
  411MOL0     H56691   0.573  10.533   3.761  0.3376 -0.3956  0.6487
  411MOL0     H56692   0.556  10.753   3.907 -0.7985  0.7133 -1.7504
  411MOL0     H56693   0.716  10.790   3.832  0.9525 -1.2876 -0.9097
  411MOL0     H56694   0.654  10.531   3.983 -2.5334  0.4223  1.6135
  411MOL0     H56695   0.685  10.681   4.077 -2.2517 -0.0033  0.1221
  411MOL0     H56696   0.910  10.700   3.978  2.3292 -0.9954 -1.6364
  411MOL0     H56697   0.883  10.581   3.861  0.2229 -0.2209  0.4105
  411MOL0     H56698   0.458  10.207   3.297 -0.5405 -0.7541  0.2301
  411MOL0     H56699   0.522   9.964   3.251 -0.5653  1.9637 -1.2217
  411MOL0     H56700   0.903   9.700   3.234 -0.8171 -0.4974  0.0532
  411MOL0     H56701   1.025   9.499   3.220 -1.6641 -1.4947  0.4034
  411MOL0     H56702   0.023   8.513   3.388  3.6475  1.5141  0.9193
  411MOL0     H56703  -0.071   8.272   3.365 -0.5821  1.7337  1.0908
  411MOL0     H56704  -0.003   7.861   3.233  3.1165  1.7168 -0.0931
  411MOL0     H56705  -0.050   7.625   3.211  0.1580  0.8453 -0.4680
  411MOL0     H56706  -0.180   7.285   3.362  0.1863 -1.7850 -1.8164
  411MOL0     H56707  -0.221   7.436   3.281 -0.7618  0.8430  3.1496
  411MOL0     H56708   0.050   7.408   3.201  3.5367 -3.1622  1.0807
  411MOL0     H56709  -0.064   7.305   3.116  2.3197 -3.1467 -0.3826
  411MOL0     H56710   0.166   7.222   3.218  0.0324 -0.4032  1.0370
  411MOL0     H56711   0.082   7.196   3.366  1.1187 -0.8422 -0.1672
  411MOL0     H56712  -0.084   7.051   3.214  0.1168 -0.3196  0.9110
  411MOL0     H56713   0.083   7.000   3.254  0.3073  1.6491  0.7653
  411MOL0     H56714   0.118   7.041   2.849 -1.1585 -0.8010 -0.3770
  411MOL0     H56715   0.004   7.567   3.633  0.5977 -2.6435 -0.8717
  411MOL0     H56716   0.100   7.731   3.772  0.5716  0.3852  0.7798
  411MOL0     H56717   0.194   7.851   3.699 -0.0965 -0.2579  4.8380
  411MOL0     H56718   0.021   7.884   3.733  1.6903  1.4739  2.8778
  412MOL0     O56719   5.169   8.280   6.516  0.0259 -0.1061  0.9584
  412MOL0     C56720   5.207   8.333   6.411 -0.6045 -0.2350  0.0590
  412MOL0     O56721   5.340   8.349   6.378  0.0706  0.3031  0.7451
  412MOL0     C56722   5.446   8.369   6.449  0.8104  0.4724 -0.8637
  412MOL0     C56723   5.569   8.372   6.397 -0.9008 -0.7205  0.4460
  412MOL0     C56724   5.684   8.397   6.480 -0.0242  1.2405  0.3991
  412MOL0     C56725   5.666   8.415   6.621  0.3652  0.9905  0.4136
  412MOL0     O56726   5.768   8.419   6.716 -1.2059 -0.4114  0.7023
  412MOL0     C56727   5.905   8.422   6.666  0.6162  0.5508 -0.0853
  412MOL0     C56728   5.946   8.562   6.613 -0.9755  0.0783 -0.0581
  412MOL0     C56729   5.906   8.673   6.711 -0.4564 -0.5750  0.0061
  412MOL0     C56730   5.999   8.703   6.833  1.1082  0.3818  0.1828
  412MOL0     C56731   5.957   8.817   6.928 -0.7904 -0.0675 -0.4564
  412MOL0     C56732   6.063   8.851   7.030 -0.3463  0.7379  0.2658
  412MOL0     C56733   6.017   8.971   7.115  0.3716  1.1899 -0.2363
  412MOL0     C56734   6.117   9.063   7.183 -1.0840 -0.2177 -0.4801
  412MOL0     N56735   6.218   8.992   7.264 -0.1381  0.1858  0.3818
  412MOL0     C56736   6.211   8.878   7.343  0.2740 -0.0152  0.1285
  412MOL0     C56737   6.330   8.875   7.404 -0.4591  0.9293 -0.4541
  412MOL0     C56738   6.392   8.782   7.496  0.6377  0.0046 -1.0152
  412MOL0     C56739   6.324   8.776   7.640  0.0836 -0.4516  0.4072
  412MOL0     C56740   6.398   8.689   7.737  0.1932 -0.2046 -0.3420
  412MOL0     C56741   6.335   8.667   7.880 -0.6458 -0.6345  0.2500
  412MOL0     O56742   6.342   8.788   7.957 -0.8079 -0.0729  0.8315
  412MOL0     C56743   6.268   8.791   8.073  0.4735 -0.3961 -0.4286
  412MOL0     C56744   6.262   8.925   8.129  0.1849 -0.1753  0.1878
  412MOL0     C56745   6.208   8.947   8.261 -0.0873 -0.4308  0.0307
  412MOL0     C56746   6.205   9.088   8.316  0.0712 -1.3694 -0.1315
  412MOL0     C56747   6.149   8.835   8.335  0.4136 -0.3718  0.1987
  412MOL0     C56748   6.071   8.863   8.457  0.0945 -0.4403 -0.1018
  412MOL0     O56749   5.943   8.803   8.477  0.0860  0.4193 -0.6850
  412MOL0     C56750   5.917   8.782   8.614  0.4092  0.2581  0.1191
  412MOL0     C56751   5.841   8.880   8.682  1.0003 -0.2775  0.8821
  412MOL0     C56752   5.797   8.855   8.808 -1.2019  0.4771  0.0612
  412MOL0     C56753   5.820   8.729   8.859 -0.3579  0.2174  0.1125
  412MOL0     O56754   5.767   8.682   8.972  0.7915  0.1949  1.3360
  412MOL0     C56755   5.688   8.763   9.059 -0.3099  0.1320 -1.3504
  412MOL0     C56756   5.700   8.703   9.207  0.7018 -0.6413  0.3005
  412MOL0     C56757   5.844   8.686   9.245  0.1464  0.1102 -0.6576
  412MOL0     C56758   5.864   8.536   9.256 -0.1738  0.6398  0.4778
  412MOL0     C56759   6.010   8.503   9.289  0.3080 -0.5481  0.1658
  412MOL0     C56760   6.116   8.569   9.193 -0.4497  0.0597  0.0045
  412MOL0     C56761   6.096   8.553   9.040 -0.7307 -0.2112  0.3101
  412MOL0     C56762   6.235   8.523   8.974 -0.4389  0.6055 -0.4961
  412MOL0    Cl56763   6.218   8.492   8.804 -0.1662 -0.1927  0.1104
  412MOL0     C56764   5.885   8.630   8.794 -0.3649  0.4977 -0.0294
  412MOL0     C56765   5.942   8.660   8.679 -0.4418 -1.3874  0.4066
  412MOL0     O56766   6.127   8.924   8.545 -0.6920  0.4194  0.0998
  412MOL0     C56767   6.157   8.704   8.279 -0.0503  0.5280  0.5100
  412MOL0     C56768   6.208   8.691   8.146 -0.9456 -0.2452 -0.4819
  412MOL0     N56769   6.413   8.985   7.362 -0.0402 -0.9846  0.4194
  412MOL0     N56770   6.348   9.046   7.272 -0.4653 -1.1530  0.1414
  412MOL0     C56771   5.538   8.415   6.671  0.4678 -0.2542  0.4421
  412MOL0     C56772   5.428   8.410   6.583  0.1982  0.2725  0.3716
  412MOL0     C56773   5.101   8.385   6.323  0.1143 -0.5565 -0.8129
  412MOL0     C56774   4.966   8.376   6.365  0.3706 -0.3060  0.1432
  412MOL0     C56775   4.863   8.413   6.276 -0.5514 -0.1312 -0.6554
  412MOL0     C56776   4.893   8.482   6.157  0.3829 -0.6153 -0.5491
  412MOL0     O56777   4.782   8.523   6.083  0.2434  0.6732  0.8345
  412MOL0     C56778   4.784   8.536   5.941  0.4237 -0.0334  0.0063
  412MOL0     C56779   4.654   8.476   5.870 -0.6833  0.2663 -0.2561
  412MOL0     C56780   4.601   8.343   5.918  0.2788 -0.7146  0.9761
  412MOL0     C56781   4.702   8.230   5.881 -0.8173 -0.3911 -0.0381
  412MOL0     C56782   4.658   8.107   5.947  0.1901 -0.1475 -0.0977
  412MOL0     C56783   4.606   8.018   6.002 -1.5535  0.8626 -0.1701
  412MOL0     C56784   5.024   8.495   6.116  0.4398  0.3384  0.2313
  412MOL0     C56785   5.129   8.457   6.198  0.0989 -0.2596 -0.2138
  412MOL0     C56786   5.271   8.507   6.158 -0.6698  0.1613  0.7447
  412MOL0     H56787   5.578   8.355   6.290  0.5068 -0.5642  0.5280
  412MOL0     H56788   5.775   8.373   6.426 -0.4466 -0.6771  0.4717
  412MOL0     H56789   5.922   8.348   6.586 -0.6752 -1.7474  1.6233
  412MOL0     H56790   5.971   8.400   6.750 -0.2650 -2.8576 -0.1016
  412MOL0     H56791   6.054   8.560   6.592 -0.8318 -1.3130  0.7070
  412MOL0     H56792   5.886   8.587   6.525 -1.2628  0.5644  0.2691
  412MOL0     H56793   5.883   8.760   6.649 -1.7749  0.2196  1.5424
  412MOL0     H56794   5.809   8.651   6.757 -0.2070  2.9648  2.6396
  412MOL0     H56795   5.991   8.611   6.891 -3.9928  0.7270  0.4276
  412MOL0     H56796   6.101   8.725   6.798  1.7702  0.3667  1.9589
  412MOL0     H56797   5.866   8.783   6.978  1.3779 -0.1775  3.9041
  412MOL0     H56798   5.935   8.903   6.865 -2.7205  0.2904  0.6090
  412MOL0     H56799   6.090   8.762   7.087  3.0023  1.6785  0.3953
  412MOL0     H56800   6.157   8.869   6.977  0.0800  0.4494  0.9150
  412MOL0     H56801   5.952   8.927   7.191  0.5389 -0.4077 -0.9777
  412MOL0     H56802   5.963   9.043   7.053  0.0391 -0.2196 -1.6559
  412MOL0     H56803   6.177   9.111   7.105  0.0862 -1.1167 -0.1540
  412MOL0     H56804   6.068   9.142   7.241  2.3151  0.3190  1.9185
  412MOL0     H56805   6.128   8.808   7.341 -2.5143  3.0813 -2.2874
  412MOL0     H56806   6.500   8.791   7.509  0.7678 -2.8718  0.8957
  412MOL0     H56807   6.395   8.683   7.449  1.4269 -0.4419 -0.0436
  412MOL0     H56808   6.318   8.874   7.688 -2.6248 -0.1955 -0.2783
  412MOL0     H56809   6.221   8.743   7.625 -0.1578  0.3223  0.3199
  412MOL0     H56810   6.400   8.592   7.687  0.5961 -0.2227 -0.2989
  412MOL0     H56811   6.503   8.717   7.751  0.0070 -0.1436  1.0668
  412MOL0     H56812   6.231   8.637   7.868 -0.6593 -0.1164 -1.1583
  412MOL0     H56813   6.388   8.596   7.944 -0.7951 -0.2506  0.8119
  412MOL0     H56814   6.296   9.006   8.065 -1.4716 -0.1963 -0.7693
  412MOL0     H56815   6.239   9.159   8.240  1.9076 -3.0784 -1.0002
  412MOL0     H56816   6.265   9.105   8.406 -1.2375  4.0113  0.0924
  412MOL0     H56817   6.108   9.115   8.359  0.3528 -0.3916 -0.0767
  412MOL0     H56818   5.836   8.979   8.639  4.1310 -1.0274 -1.5739
  412MOL0     H56819   5.751   8.931   8.870 -0.0264  0.2852  1.2091
  412MOL0     H56820   5.720   8.867   9.063 -0.0347  0.0163  0.5830
  412MOL0     H56821   5.583   8.763   9.029 -0.0752 -1.0706 -2.2166
  412MOL0     H56822   5.640   8.766   9.274 -2.7098 -1.7523 -1.4684
  412MOL0     H56823   5.652   8.606   9.217  1.1650 -0.8238  0.7950
  412MOL0     H56824   5.855   8.720   9.349  0.6428  1.1291 -1.0321
  412MOL0     H56825   5.910   8.738   9.176  0.1741 -1.2883 -1.7208
  412MOL0     H56826   5.831   8.498   9.159  1.4037  1.2511 -0.3159
  412MOL0     H56827   5.786   8.496   9.323  1.5702  1.3555  3.0896
  412MOL0     H56828   6.039   8.524   9.392  3.1839 -0.9757 -0.4847
  412MOL0     H56829   6.024   8.396   9.271  6.0844  0.0691 -1.0203
  412MOL0     H56830   6.217   8.535   9.218 -1.0644 -2.6312 -0.8629
  412MOL0     H56831   6.130   8.676   9.215  1.6040 -0.7709  3.6407
  412MOL0     H56832   6.061   8.648   9.000 -2.7433 -0.2378  1.8421
  412MOL0     H56833   6.022   8.477   9.011 -1.6921  1.1492 -0.9572
  412MOL0     H56834   6.278   8.433   9.017 -2.9976 -0.7290 -0.5669
  412MOL0     H56835   6.302   8.610   8.981 -1.3826  1.3913 -0.8886
  412MOL0     H56836   5.883   8.530   8.835 -3.2284 -0.5289 -2.3765
  412MOL0     H56837   5.998   8.584   8.626  1.4639  0.2107  0.0167
  412MOL0     H56838   6.117   8.617   8.331  3.6642 -1.3810  0.4779
  412MOL0     H56839   6.190   8.589   8.113 -0.7222 -0.8242  1.0740
  412MOL0     H56840   5.547   8.423   6.779  1.1120 -1.4857  0.5007
  412MOL0     H56841   5.331   8.417   6.631  0.8297  1.1133  1.5969
  412MOL0     H56842   4.934   8.340   6.462  0.6261  0.1896  0.4154
  412MOL0     H56843   4.760   8.397   6.308  0.3174 -0.4729  2.2288
  412MOL0     H56844   4.801   8.639   5.907  2.6130  0.1271  1.3625
  412MOL0     H56845   4.868   8.485   5.894  0.5924 -4.9610  4.6561
  412MOL0     H56846   4.697   8.450   5.773 -0.8810  0.4534 -0.3923
  412MOL0     H56847   4.575   8.551   5.869 -1.0613 -0.0964  0.7675
  412MOL0     H56848   4.594   8.358   6.026 -1.4207 -0.9551  0.9167
  412MOL0     H56849   4.504   8.326   5.871  0.9163 -2.0183  0.0604
  412MOL0     H56850   4.800   8.254   5.923 -2.0101  2.1755  1.4943
  412MOL0     H56851   4.717   8.217   5.774  1.4750 -3.0893  0.4851
  412MOL0     H56852   4.598   7.925   6.055 -1.3407 -0.6896 -2.6861
  412MOL0     H56853   5.044   8.544   6.022  2.2657 -3.1706 -1.4372
  412MOL0     H56854   5.260   8.584   6.082 -0.9365 -1.4468 -0.9017
  412MOL0     H56855   5.326   8.540   6.247  1.4938  1.2886 -0.9343
  412MOL0     H56856   5.317   8.425   6.103  1.3549  2.2768 -0.8800
  413MOL0     O56857   6.328   1.343   9.678 -0.9310  0.0603  0.0554
  413MOL0     C56858   6.436   1.396   9.692 -0.2860 -1.1216  0.3826
  413MOL0     O56859   6.498   1.478   9.599  0.1589  0.6142 -0.8744
  413MOL0     C56860   6.442   1.465   9.474  0.3831  0.3615  1.7978
  413MOL0     C56861   6.377   1.574   9.419 -0.9841  0.7225 -0.5242
  413MOL0     C56862   6.331   1.573   9.289  0.2102 -0.7214 -0.1089
  413MOL0     C56863   6.347   1.463   9.209  0.1587 -0.0556 -0.3954
  413MOL0     O56864   6.347   1.460   9.069  0.7177 -0.1995  0.0389
  413MOL0     C56865   6.416   1.568   9.002 -0.4983  0.1987  0.1793
  413MOL0     C56866   6.426   1.540   8.856 -0.6301 -0.0649  0.3713
  413MOL0     C56867   6.545   1.445   8.810  1.1489  0.6962  0.4351
  413MOL0     C56868   6.569   1.456   8.655 -0.5177  0.4061 -0.1454
  413MOL0     C56869   6.714   1.427   8.627 -0.1353  0.2328  0.1426
  413MOL0     C56870   6.722   1.361   8.488 -0.0516  0.1137  0.7582
  413MOL0     C56871   6.703   1.467   8.379  0.3759 -0.1950 -0.5243
  413MOL0     C56872   6.722   1.426   8.238  0.8632 -0.1404 -0.4485
  413MOL0     N56873   6.670   1.521   8.134 -0.3968 -0.2835 -0.5045
  413MOL0     C56874   6.746   1.625   8.082  0.0320  0.6996  0.8591
  413MOL0     C56875   6.654   1.679   7.999  0.1107 -0.2784  0.1386
  413MOL0     C56876   6.695   1.783   7.895  0.1408 -0.0921  0.0250
  413MOL0     C56877   6.676   1.734   7.750 -0.1550  0.4731 -0.2412
  413MOL0     C56878   6.789   1.646   7.704  0.1355 -0.3196  0.3292
  413MOL0     C56879   6.760   1.591   7.562  0.0604 -0.2514 -0.0653
  413MOL0     O56880   6.869   1.501   7.526 -0.0068  0.7494 -0.0085
  413MOL0     C56881   6.848   1.425   7.420  0.3769  0.0632 -0.8185
  413MOL0     C56882   6.748   1.447   7.325  0.3321 -0.4414 -0.3143
  413MOL0     C56883   6.709   1.347   7.234 -0.0886  0.2530 -0.1697
  413MOL0     C56884   6.589   1.360   7.138 -0.1262  0.2253  0.5226
  413MOL0     C56885   6.790   1.228   7.227  0.8903  0.0651  0.0390
  413MOL0     C56886   6.755   1.105   7.143  0.1716  0.8558 -1.3754
  413MOL0     O56887   6.642   1.090   7.072  0.4268  0.0601 -0.8142
  413MOL0     C56888   6.623   0.972   6.995  0.4247 -0.9182 -0.0320
  413MOL0     C56889   6.619   0.844   7.053 -1.0662  0.5696 -0.4016
  413MOL0     C56890   6.592   0.728   6.969  0.0365 -0.5598  0.1215
  413MOL0     C56891   6.584   0.750   6.826  0.4702 -0.3941 -0.9091
  413MOL0     O56892   6.572   0.651   6.731 -0.0479 -0.0509  0.2277
  413MOL0     C56893   6.679   0.647   6.636  0.4530 -0.6729 -0.3907
  413MOL0     C56894   6.731   0.505   6.618  0.2531  0.2173 -0.0771
  413MOL0     C56895   6.848   0.491   6.515 -0.3459  0.2334  0.5873
  413MOL0     C56896   6.971   0.422   6.573 -0.6286  0.3254 -0.5792
  413MOL0     C56897   7.094   0.405   6.474  0.4159  0.1885  0.2981
  413MOL0     C56898   7.215   0.325   6.539 -0.0641 -0.3277 -0.0467
  413MOL0     C56899   7.305   0.277   6.423  1.1241  0.1047 -0.1532
  413MOL0     C56900   7.430   0.220   6.480 -0.4444  1.6705  0.1889
  413MOL0    Cl56901   7.389   0.091   6.587  0.3657 -0.0901 -0.0345
  413MOL0     C56902   6.586   0.881   6.775 -0.8647 -0.0429 -0.8164
  413MOL0     C56903   6.618   0.989   6.858  0.1751  0.9067  0.3599
  413MOL0     O56904   6.853   1.026   7.136  0.5502  0.2273  0.0924
  413MOL0     C56905   6.903   1.225   7.308 -0.1890  1.5185  0.2266
  413MOL0     C56906   6.927   1.320   7.403 -0.5584 -0.2916 -0.5293
  413MOL0     N56907   6.535   1.609   7.992 -0.0020 -0.0986  1.0268
  413MOL0     N56908   6.538   1.523   8.080  0.4528 -0.2736  0.4350
  413MOL0     C56909   6.405   1.350   9.261  0.0003  0.2512 -0.1010
  413MOL0     C56910   6.451   1.348   9.395  0.4474  0.4978 -0.5633
  413MOL0     C56911   6.495   1.393   9.827 -0.2690 -0.0759  0.3173
  413MOL0     C56912   6.550   1.507   9.882 -0.1672  0.5224 -0.3235
  413MOL0     C56913   6.608   1.504  10.014 -1.0551 -0.9324 -0.1063
  413MOL0     C56914   6.603   1.394  10.090 -0.4273 -0.4440  1.0643
  413MOL0     O56915   6.669   1.398  10.218 -0.2278  0.4079  0.0991
  413MOL0     C56916   6.629   1.296  10.310 -0.3549  1.2404  0.0966
  413MOL0     C56917   6.682   1.343  10.445  0.4416  0.1140 -0.5374
  413MOL0     C56918   6.836   1.360  10.450 -0.4454  0.1271  0.5690
  413MOL0     C56919   6.865   1.496  10.528 -0.4022 -0.3094 -0.1307
  413MOL0     C56920   6.823   1.601  10.433 -0.4403  0.1341  1.1913
  413MOL0     C56921   6.795   1.694  10.367  0.9680  1.4344 -0.1000
  413MOL0     C56922   6.518   1.287  10.047  0.6245 -0.9187 -0.3365
  413MOL0     C56923   6.480   1.279   9.916  0.7419 -0.0190  0.3303
  413MOL0     C56924   6.414   1.147   9.877  0.4219 -1.0760 -0.7847
  413MOL0     H56925   6.359   1.655   9.488  0.1229  1.7298 -1.3832
  413MOL0     H56926   6.286   1.664   9.250 -0.0969 -0.0359  1.7437
  413MOL0     H56927   6.516   1.573   9.046  0.3294 -1.1383 -1.4562
  413MOL0     H56928   6.370   1.667   9.008  0.8198  0.8509 -0.0935
  413MOL0     H56929   6.330   1.505   8.819  0.0744 -0.7696 -0.8192
  413MOL0     H56930   6.446   1.637   8.809 -2.8594  0.3292  0.1039
  413MOL0     H56931   6.633   1.475   8.866  0.8523  1.1652  0.6562
  413MOL0     H56932   6.510   1.342   8.828 -1.0351  0.6178 -3.0843
  413MOL0     H56933   6.508   1.380   8.606  0.3991 -0.4237 -0.0309
  413MOL0     H56934   6.548   1.556   8.615  0.7936  2.0050  2.8355
  413MOL0     H56935   6.752   1.351   8.696 -2.3505 -1.4973 -0.4587
  413MOL0     H56936   6.779   1.516   8.632 -1.3595  1.1476  0.3080
  413MOL0     H56937   6.816   1.305   8.476  0.7231  1.3700  0.7551
  413MOL0     H56938   6.646   1.283   8.477  0.7911 -0.8043  1.2093
  413MOL0     H56939   6.771   1.551   8.399  2.5355 -2.2586  1.5026
  413MOL0     H56940   6.599   1.500   8.373  0.3468  0.2371  1.5757
  413MOL0     H56941   6.830   1.411   8.232  1.3897  0.4243  4.1802
  413MOL0     H56942   6.662   1.340   8.208  2.2545 -1.5747  0.6949
  413MOL0     H56943   6.853   1.646   8.083  0.8120 -2.6273  0.9668
  413MOL0     H56944   6.799   1.813   7.905  0.0345  1.4347 -2.7504
  413MOL0     H56945   6.614   1.854   7.914  0.7722  0.8965 -0.8715
  413MOL0     H56946   6.589   1.668   7.750  0.6171 -0.5767  0.0287
  413MOL0     H56947   6.659   1.819   7.684  1.0223  0.6216 -0.3730
  413MOL0     H56948   6.881   1.703   7.693 -0.2609 -0.2167 -5.0057
  413MOL0     H56949   6.793   1.552   7.759 -0.9859 -0.3035  0.4650
  413MOL0     H56950   6.661   1.544   7.565  0.5234 -1.2336  2.1034
  413MOL0     H56951   6.746   1.679   7.499 -0.0059  0.5395  1.0222
  413MOL0     H56952   6.683   1.534   7.330  1.5019  0.4078  2.4784
  413MOL0     H56953   6.542   1.458   7.142  1.7105  1.2327 -0.8876
  413MOL0     H56954   6.510   1.287   7.160  0.1988 -0.3869 -0.3110
  413MOL0     H56955   6.611   1.332   7.035 -2.5940 -1.6149  0.3934
  413MOL0     H56956   6.640   0.816   7.156 -0.5478 -5.7116 -1.7765
  413MOL0     H56957   6.592   0.628   7.010  0.4005 -0.2019  1.0121
  413MOL0     H56958   6.631   0.689   6.546  0.2302  0.5216  0.2606
  413MOL0     H56959   6.761   0.714   6.662  1.8382 -2.4671  0.0154
  413MOL0     H56960   6.768   0.477   6.717 -1.9378  0.0558  0.7382
  413MOL0     H56961   6.649   0.438   6.591 -0.8123  0.8700  1.4130
  413MOL0     H56962   6.872   0.590   6.474 -1.3126  1.1442  2.1260
  413MOL0     H56963   6.802   0.426   6.439  0.6037 -0.1574  0.3314
  413MOL0     H56964   6.947   0.317   6.594  0.2324  0.2467  0.0668
  413MOL0     H56965   7.009   0.461   6.668  2.1582 -0.3497 -1.3459
  413MOL0     H56966   7.061   0.353   6.384  3.3059  0.0277 -0.7542
  413MOL0     H56967   7.123   0.503   6.434  1.8489 -0.8864 -1.4288
  413MOL0     H56968   7.170   0.245   6.598 -2.7940  1.3111  0.2265
  413MOL0     H56969   7.261   0.403   6.600  0.5149  0.0295 -0.9190
  413MOL0     H56970   7.331   0.366   6.365  2.5627 -1.3322 -1.8452
  413MOL0     H56971   7.263   0.202   6.355  5.0684 -2.0381 -0.5503
  413MOL0     H56972   7.481   0.302   6.532  0.5101  0.9081  0.4839
  413MOL0     H56973   7.513   0.183   6.419  0.7147  1.2054  1.9534
  413MOL0     H56974   6.572   0.892   6.668 -1.2546  1.5791 -0.6347
  413MOL0     H56975   6.623   1.091   6.819 -0.3979  0.7410 -0.1553
  413MOL0     H56976   6.955   1.131   7.321 -3.4135 -0.3281  0.7488
  413MOL0     H56977   6.999   1.303   7.482 -1.4907 -1.8422  0.0518
  413MOL0     H56978   6.422   1.271   9.189  0.6889 -0.5064  0.8572
  413MOL0     H56979   6.503   1.264   9.439 -3.6321 -3.4858 -2.4831
  413MOL0     H56980   6.551   1.603   9.832  0.4055 -0.6584 -2.7794
  413MOL0     H56981   6.665   1.582  10.064 -1.4615 -1.0361  0.5325
  413MOL0     H56982   6.521   1.278  10.312  0.2007 -3.4051 -0.8567
  413MOL0     H56983   6.666   1.196  10.288  0.2218  0.7813  2.7783
  413MOL0     H56984   6.645   1.277  10.524 -0.4133 -0.6103 -1.5082
  413MOL0     H56985   6.626   1.431  10.478 -1.7844 -2.0640  1.9282
  413MOL0     H56986   6.880   1.268  10.489 -1.7424 -0.6369  0.3106
  413MOL0     H56987   6.884   1.371  10.352  0.0450  0.1332  0.8084
  413MOL0     H56988   6.972   1.517  10.542 -0.7434  0.4682  1.5586
  413MOL0     H56989   6.826   1.497  10.630  1.2204  0.7716  0.5122
  413MOL0     H56990   6.750   1.769  10.304 -1.5537  2.8786  3.1097
  413MOL0     H56991   6.507   1.203  10.114 -0.0109 -0.2641  0.3885
  413MOL0     H56992   6.437   1.155   9.770  0.3018  2.6759 -0.6694
  413MOL0     H56993   6.476   1.067   9.918 -0.0765 -0.9017  0.3440
  413MOL0     H56994   6.309   1.136   9.906  0.7838 -2.1142  0.2158
  414MOL0     O56995   2.611   6.948   7.615  0.4692 -0.3768 -0.3933
  414MOL0     C56996   2.633   6.870   7.524  0.0143  0.1543  0.0516
  414MOL0     O56997   2.630   6.734   7.544 -0.3447  0.3695 -0.5219
  414MOL0     C56998   2.626   6.687   7.673  1.1299 -0.5364  0.0932
  414MOL0     C56999   2.738   6.685   7.759  0.4507  0.7567 -0.1241
  414MOL0     C57000   2.725   6.616   7.890 -0.3088 -0.2066  0.5240
  414MOL0     C57001   2.608   6.540   7.922 -0.6181 -0.3649  0.2426
  414MOL0     O57002   2.598   6.463   8.030 -0.5778  0.3062 -0.5148
  414MOL0     C57003   2.684   6.348   8.024  0.0165  0.0984 -0.0669
  414MOL0     C57004   2.697   6.268   8.152  0.5923 -0.6315  0.0247
  414MOL0     C57005   2.759   6.357   8.262 -0.6027 -0.4396 -0.2324
  414MOL0     C57006   2.908   6.390   8.238  0.4292  0.5596 -0.1265
  414MOL0     C57007   2.958   6.465   8.359  0.1035 -0.4763  0.4574
  414MOL0     C57008   3.114   6.467   8.353 -0.0742  0.2880  0.5803
  414MOL0     C57009   3.162   6.557   8.465  0.0762  0.5834 -0.7178
  414MOL0     C57010   3.299   6.597   8.453  0.4007  0.1975 -0.6786
  414MOL0     N57011   3.414   6.503   8.456  0.1251  0.3911  0.0106
  414MOL0     C57012   3.447   6.426   8.347 -0.2975 -0.0645  1.3005
  414MOL0     C57013   3.569   6.359   8.364  0.3706 -0.9283 -0.0515
  414MOL0     C57014   3.594   6.233   8.281  0.5883 -0.1336 -0.3081
  414MOL0     C57015   3.734   6.178   8.324  0.0336 -0.0479 -0.8807
  414MOL0     C57016   3.743   6.035   8.263 -0.0037 -1.0836  0.2558
  414MOL0     C57017   3.766   6.025   8.111 -1.1878  0.1835  0.8509
  414MOL0     O57018   3.641   6.002   8.037  0.4372  0.3766 -0.4398
  414MOL0     C57019   3.640   5.998   7.901 -0.1804 -0.0742 -1.2062
  414MOL0     C57020   3.532   5.946   7.841  0.1418  0.0775  0.5518
  414MOL0     C57021   3.519   5.930   7.705 -0.7229  0.0121  0.7664
  414MOL0     C57022   3.409   5.850   7.659  0.5729  0.1983  0.9859
  414MOL0     C57023   3.619   5.977   7.621 -0.0989 -0.7460 -0.6198
  414MOL0     C57024   3.610   5.979   7.470 -0.2670 -0.5585 -0.3226
  414MOL0     O57025   3.663   5.874   7.403 -0.3836  0.0697  0.1655
  414MOL0     C57026   3.627   5.838   7.275  0.4731 -0.3278 -0.2039
  414MOL0     C57027   3.487   5.851   7.241 -0.4960  0.0201  0.1860
  414MOL0     C57028   3.452   5.810   7.114  0.0138 -1.9357  0.3514
  414MOL0     C57029   3.544   5.767   7.021  0.2764 -0.6617  0.0256
  414MOL0     O57030   3.483   5.738   6.897  0.1867  0.4806  0.3602
  414MOL0     C57031   3.578   5.683   6.799 -0.0546  0.2193 -0.6169
  414MOL0     C57032   3.495   5.643   6.682 -0.3408  0.3951 -0.1171
  414MOL0     C57033   3.584   5.610   6.567 -0.5397 -0.3746  0.2824
  414MOL0     C57034   3.663   5.474   6.576  0.6189  0.1814  0.4603
  414MOL0     C57035   3.727   5.453   6.435 -0.1873  0.1959  0.2804
  414MOL0     C57036   3.769   5.306   6.419  0.4228 -0.8033 -0.6199
  414MOL0     C57037   3.865   5.282   6.311 -0.5970 -0.1088 -1.3808
  414MOL0     C57038   3.906   5.136   6.293  0.0323 -0.0421 -1.0646
  414MOL0    Cl57039   4.045   5.111   6.179  0.2828  0.0398  0.2553
  414MOL0     C57040   3.678   5.748   7.061  0.0264 -0.0988  0.0490
  414MOL0     C57041   3.722   5.786   7.186 -0.4316 -0.4455 -0.1615
  414MOL0     O57042   3.535   6.060   7.420 -0.0481 -0.1375 -0.1861
  414MOL0     C57043   3.735   6.030   7.690 -0.3501  0.2312 -0.6681
  414MOL0     C57044   3.753   6.043   7.828  0.4640  0.9488  0.6557
  414MOL0     N57045   3.598   6.397   8.498 -0.0356 -0.3623 -0.2403
  414MOL0     N57046   3.516   6.495   8.544 -0.2057  0.0983 -0.2310
  414MOL0     C57047   2.503   6.552   7.833 -0.0860  0.1626 -0.9145
  414MOL0     C57048   2.509   6.624   7.712  0.4498  0.1586 -0.4793
  414MOL0     C57049   2.660   6.928   7.391  0.1245 -0.5312  0.0883
  414MOL0     C57050   2.715   6.846   7.292 -0.8539 -0.1500 -1.5266
  414MOL0     C57051   2.732   6.889   7.162  0.0551  0.0575 -0.7327
  414MOL0     C57052   2.708   7.017   7.120  0.7487  0.1807 -0.0811
  414MOL0     O57053   2.745   7.060   6.997 -0.1753 -0.0896 -0.2297
  414MOL0     C57054   2.720   7.190   6.949  0.0693 -0.4281 -0.5933
  414MOL0     C57055   2.793   7.208   6.812 -0.7819 -0.1229  0.6239
  414MOL0     C57056   2.741   7.105   6.710 -0.1317 -0.0085  0.0080
  414MOL0     C57057   2.794   7.134   6.563 -0.3977 -0.0909 -0.2773
  414MOL0     C57058   2.780   7.034   6.460  0.2895  0.1939 -0.7027
  414MOL0     C57059   2.765   6.950   6.378  0.2647 -0.5125 -0.1018
  414MOL0     C57060   2.641   7.092   7.211  0.5457  1.1342  0.1680
  414MOL0     C57061   2.617   7.055   7.347 -0.5413 -0.8562 -0.1525
  414MOL0     C57062   2.556   7.165   7.426  0.7230 -0.4495  0.5394
  414MOL0     H57063   2.834   6.733   7.746  1.8532 -1.0545  2.5958
  414MOL0     H57064   2.803   6.613   7.966 -0.2161 -2.1280  0.3921
  414MOL0     H57065   2.787   6.377   8.005  0.9365 -2.4134  0.7610
  414MOL0     H57066   2.647   6.288   7.940  0.0062  1.7146 -1.2780
  414MOL0     H57067   2.602   6.226   8.188 -1.4293  1.2007 -2.8109
  414MOL0     H57068   2.766   6.188   8.125  1.8558 -0.2321  1.8349
  414MOL0     H57069   2.700   6.449   8.266  2.0388  1.4367 -1.5072
  414MOL0     H57070   2.750   6.309   8.360  0.5048 -0.6879 -0.2378
  414MOL0     H57071   2.965   6.298   8.224  2.3184  0.9165  3.9639
  414MOL0     H57072   2.921   6.448   8.146 -0.1411  1.0848  0.1135
  414MOL0     H57073   2.918   6.429   8.454 -1.8585 -0.6247 -0.3847
  414MOL0     H57074   2.918   6.567   8.359  0.1136 -0.4391 -1.0494
  414MOL0     H57075   3.149   6.364   8.361 -0.0416  0.0347 -1.9972
  414MOL0     H57076   3.152   6.504   8.257 -0.9735  1.2753  0.5851
  414MOL0     H57077   3.151   6.512   8.564  0.6994  3.2198  0.6311
  414MOL0     H57078   3.108   6.650   8.482  0.8398  0.7928  0.6795
  414MOL0     H57079   3.297   6.654   8.359  0.4408  0.9036 -0.2605
  414MOL0     H57080   3.304   6.660   8.542 -3.6650  2.7010 -1.9313
  414MOL0     H57081   3.370   6.408   8.272 -0.3267 -2.0070  1.7471
  414MOL0     H57082   3.584   6.258   8.175 -2.4899  0.8455  0.0915
  414MOL0     H57083   3.520   6.153   8.295 -0.6166  1.0136  0.1013
  414MOL0     H57084   3.808   6.241   8.274 -1.6430 -1.5032 -5.7338
  414MOL0     H57085   3.756   6.177   8.432 -0.9660  1.0976 -0.6504
  414MOL0     H57086   3.833   5.987   8.302 -0.0626 -1.2119  0.2341
  414MOL0     H57087   3.665   5.962   8.288 -1.1431 -0.6866 -1.9141
  414MOL0     H57088   3.817   6.117   8.081  0.9705 -0.4908  2.2250
  414MOL0     H57089   3.834   5.947   8.077 -1.9332  0.9146 -2.6729
  414MOL0     H57090   3.449   5.909   7.901  0.0123 -1.3210 -0.4283
  414MOL0     H57091   3.363   5.801   7.745 -0.4949  1.6412  1.2576
  414MOL0     H57092   3.434   5.777   7.581  2.3383  0.6330  1.0866
  414MOL0     H57093   3.335   5.918   7.617 -0.1275 -0.2368  1.4864
  414MOL0     H57094   3.414   5.899   7.305 -0.3110  0.4491  0.0777
  414MOL0     H57095   3.350   5.826   7.080  0.3334 -0.3334  0.0281
  414MOL0     H57096   3.646   5.763   6.771  0.9398 -1.1893 -2.4530
  414MOL0     H57097   3.634   5.598   6.840 -0.5909  1.7592  3.8112
  414MOL0     H57098   3.428   5.557   6.697 -4.2069  3.0542 -0.7112
  414MOL0     H57099   3.424   5.720   6.652 -3.9377 -1.9404  1.6805
  414MOL0     H57100   3.649   5.696   6.549  2.1140 -2.6605 -2.0301
  414MOL0     H57101   3.525   5.610   6.475 -1.7487 -0.2591  1.0348
  414MOL0     H57102   3.591   5.395   6.600 -1.2121  1.9273  1.0150
  414MOL0     H57103   3.740   5.478   6.654  0.2557 -2.2844  1.0377
  414MOL0     H57104   3.664   5.479   6.349  0.8796  0.5835 -0.4121
  414MOL0     H57105   3.810   5.523   6.434  0.4437 -0.5207 -1.4454
  414MOL0     H57106   3.673   5.254   6.414 -1.9124  2.9940  0.4176
  414MOL0     H57107   3.817   5.277   6.512  0.8883 -1.8445 -1.1669
  414MOL0     H57108   3.954   5.344   6.330 -1.4207  0.4893  0.6957
  414MOL0     H57109   3.819   5.323   6.220 -0.7572  3.9725  0.3135
  414MOL0     H57110   3.819   5.077   6.262  1.1686 -2.1618 -0.4839
  414MOL0     H57111   3.935   5.101   6.393  0.0637  0.2385 -0.9762
  414MOL0     H57112   3.750   5.709   6.991  0.1569 -2.8096  1.5875
  414MOL0     H57113   3.820   5.752   7.219  0.3318  1.5519 -0.2386
  414MOL0     H57114   3.805   6.064   7.614  1.8314  0.9149  1.5347
  414MOL0     H57115   3.851   6.077   7.858  0.6467  0.3828  0.7032
  414MOL0     H57116   2.412   6.499   7.860 -0.2576  1.7472  1.9865
  414MOL0     H57117   2.421   6.627   7.647 -0.3682  0.8220  0.6225
  414MOL0     H57118   2.733   6.742   7.317 -1.2264  0.0249 -0.5114
  414MOL0     H57119   2.772   6.829   7.081 -1.2723 -0.4813 -1.0030
  414MOL0     H57120   2.612   7.197   6.937 -0.2266 -0.8289  1.5444
  414MOL0     H57121   2.753   7.264   7.022 -1.6730 -0.7050  0.5353
  414MOL0     H57122   2.900   7.197   6.830 -1.1091 -1.1683  2.0968
  414MOL0     H57123   2.772   7.304   6.765 -0.6640 -0.3414  0.1171
  414MOL0     H57124   2.776   7.007   6.744 -1.1254 -0.7954 -1.1541
  414MOL0     H57125   2.632   7.096   6.715  0.0615 -2.9179  1.2756
  414MOL0     H57126   2.903   7.145   6.563  0.3149 -5.1177 -0.0526
  414MOL0     H57127   2.765   7.233   6.525  1.6016 -0.9890 -4.7134
  414MOL0     H57128   2.738   6.877   6.305 -1.4179  2.2509 -2.4336
  414MOL0     H57129   2.600   7.181   7.164  0.4218 -1.0581 -4.5084
  414MOL0     H57130   2.561   7.261   7.373 -2.1193 -1.0967 -1.1218
  414MOL0     H57131   2.450   7.138   7.425  0.6583 -0.5198 -2.7909
  414MOL0     H57132   2.591   7.172   7.529  0.1661  0.5426  0.6824
  415MOL0     O57133   7.010   4.330   5.454  0.8623  0.5341 -0.3398
  415MOL0     C57134   6.951   4.370   5.353 -0.0619  0.0144 -0.6623
  415MOL0     O57135   6.965   4.495   5.300 -0.2259  0.3924 -1.1312
  415MOL0     C57136   7.041   4.586   5.367  0.0054 -0.0289 -0.0730
  415MOL0     C57137   7.127   4.670   5.298  0.2612 -0.1128  0.2866
  415MOL0     C57138   7.223   4.748   5.357  0.2851  0.0760 -0.0026
  415MOL0     C57139   7.213   4.780   5.493  0.9401  0.8368 -0.1092
  415MOL0     O57140   7.319   4.848   5.547 -0.0051 -0.2896 -0.5317
  415MOL0     C57141   7.334   4.866   5.690 -0.4926 -0.6561 -0.2643
  415MOL0     C57142   7.475   4.891   5.714 -0.2043  0.2059  0.3703
  415MOL0     C57143   7.509   5.031   5.690  0.2157  0.6585 -0.2542
  415MOL0     C57144   7.663   5.032   5.695  0.1163 -0.1724 -0.7697
  415MOL0     C57145   7.717   5.179   5.652 -0.3709  0.1714 -0.1360
  415MOL0     C57146   7.868   5.187   5.642 -1.3084 -0.9303 -0.5517
  415MOL0     C57147   7.923   5.195   5.505  0.3364  0.1893  0.3861
  415MOL0     C57148   8.071   5.236   5.528  0.1191  0.6869 -0.2998
  415MOL0     N57149   8.167   5.255   5.414  0.2867  0.4613 -0.2215
  415MOL0     C57150   8.188   5.384   5.358 -0.6062 -1.0825 -0.0560
  415MOL0     C57151   8.289   5.357   5.272  0.2291  0.0258 -0.1532
  415MOL0     C57152   8.370   5.448   5.190 -0.7126  0.2390  0.5179
  415MOL0     C57153   8.438   5.565   5.277  0.0324  0.2411 -0.5305
  415MOL0     C57154   8.529   5.518   5.387 -0.0258  0.1191  0.8017
  415MOL0     C57155   8.604   5.631   5.458  0.0317 -0.0339  0.1010
  415MOL0     O57156   8.696   5.685   5.364  0.3504 -0.6578 -0.1070
  415MOL0     C57157   8.790   5.772   5.416 -0.4935 -0.2455 -0.6530
  415MOL0     C57158   8.775   5.840   5.536 -0.6504  0.1819 -0.1505
  415MOL0     C57159   8.871   5.942   5.576  0.0747 -1.2041  0.4470
  415MOL0     C57160   8.830   6.031   5.692 -0.2805 -0.0586  0.3069
  415MOL0     C57161   8.992   5.974   5.500 -0.5086  0.1308 -0.8734
  415MOL0     C57162   9.097   6.080   5.544 -0.4764  0.1995  0.6232
  415MOL0     O57163   9.184   6.119   5.436  0.0249 -0.0498 -0.2330
  415MOL0     C57164   9.297   6.188   5.470 -0.0544  0.3445 -0.6965
  415MOL0     C57165   9.306   6.314   5.441 -0.2964 -0.0738 -0.1362
  415MOL0     C57166   9.425   6.384   5.474 -0.7479  0.0413 -0.7268
  415MOL0     C57167   9.541   6.332   5.539  0.6320  0.1853  0.7167
  415MOL0     O57168   9.658   6.381   5.574  0.0411 -0.4716  0.7782
  415MOL0     C57169   9.684   6.521   5.559  0.6173 -0.9313 -0.6132
  415MOL0     C57170   9.817   6.555   5.628  1.4227  0.2240 -0.0726
  415MOL0     C57171   9.796   6.546   5.784  0.1743 -0.7328  1.0181
  415MOL0     C57172   9.910   6.605   5.868 -1.6287 -0.2152 -1.1522
  415MOL0     C57173   9.914   6.763   5.852  0.1692 -0.3163 -0.6740
  415MOL0     C57174   9.798   6.836   5.925 -0.5710 -0.6819  0.0860
  415MOL0     C57175   9.830   6.978   5.970 -0.7281 -0.9804  0.6907
  415MOL0     C57176   9.707   7.047   6.027 -0.2762  0.9628  0.2046
  415MOL0    Cl57177   9.647   6.962   6.168 -0.0195 -0.4421  0.2065
  415MOL0     C57178   9.521   6.194   5.574  0.4023 -0.5947  0.2253
  415MOL0     C57179   9.403   6.125   5.537 -0.3228 -0.4421 -0.5487
  415MOL0     O57180   9.114   6.113   5.663  0.1878  0.1814 -0.1566
  415MOL0     C57181   9.000   5.907   5.376  0.1480  0.0953  0.2729
  415MOL0     C57182   8.898   5.810   5.337  0.0406 -0.4105  0.5104
  415MOL0     N57183   8.305   5.219   5.270 -0.6248  0.1037  0.0476
  415MOL0     N57184   8.234   5.158   5.354  0.1650 -0.4479 -1.0692
  415MOL0     C57185   7.118   4.708   5.566  0.0823 -0.4823 -0.4524
  415MOL0     C57186   7.031   4.616   5.498 -0.5526 -0.1276  0.7483
  415MOL0     C57187   6.858   4.291   5.276  0.1830  0.3688 -0.2507
  415MOL0     C57188   6.756   4.360   5.204  0.0407 -0.1811 -0.4475
  415MOL0     C57189   6.649   4.295   5.145 -0.5263  0.4549  0.0584
  415MOL0     C57190   6.645   4.152   5.150 -0.5438 -0.4095 -0.0055
  415MOL0     O57191   6.539   4.104   5.083  0.2184  0.5930  0.7794
  415MOL0     C57192   6.510   3.960   5.071 -0.7537 -0.5881 -0.1891
  415MOL0     C57193   6.364   3.928   5.037  0.4913 -0.7590  0.8969
  415MOL0     C57194   6.278   3.964   5.159 -0.4350 -0.9991  1.1068
  415MOL0     C57195   6.127   3.979   5.114 -0.6533 -0.8149  0.4405
  415MOL0     C57196   6.077   3.843   5.101  0.4323 -0.0797  0.2363
  415MOL0     C57197   6.023   3.729   5.096  0.2969  0.1690 -0.8315
  415MOL0     C57198   6.746   4.081   5.211  0.4089 -0.2804  0.4016
  415MOL0     C57199   6.857   4.148   5.272  0.9989 -0.0306 -0.2063
  415MOL0     C57200   6.955   4.064   5.358  0.7212 -0.8912 -0.2838
  415MOL0     H57201   7.113   4.652   5.192  0.1657 -1.1509  0.4634
  415MOL0     H57202   7.292   4.803   5.293 -1.9545  3.5158  0.2986
  415MOL0     H57203   7.313   4.774   5.745 -2.6274  0.0373  0.1846
  415MOL0     H57204   7.269   4.950   5.716  0.6481 -0.1956  1.2541
  415MOL0     H57205   7.486   4.859   5.817 -0.4012  3.5780  1.5733
  415MOL0     H57206   7.535   4.834   5.643 -1.4505  0.1481 -0.6837
  415MOL0     H57207   7.480   5.055   5.587 -1.6328 -3.0438 -0.7445
  415MOL0     H57208   7.455   5.084   5.769 -0.2924 -0.3527  0.0931
  415MOL0     H57209   7.684   5.018   5.802  1.2466 -3.8167 -1.3390
  415MOL0     H57210   7.712   4.951   5.642  1.6964 -0.5411  1.1244
  415MOL0     H57211   7.681   5.255   5.722 -0.5242  0.4522 -0.5174
  415MOL0     H57212   7.674   5.200   5.553  1.2528 -1.5440 -1.2659
  415MOL0     H57213   7.895   5.274   5.703 -0.3740 -1.3802 -0.3027
  415MOL0     H57214   7.911   5.101   5.694  1.5264  1.2228  0.9094
  415MOL0     H57215   7.867   5.271   5.450 -2.8519  0.0266  3.1329
  415MOL0     H57216   7.920   5.106   5.441  1.0096  1.5935 -1.7252
  415MOL0     H57217   8.075   5.322   5.595  0.8256 -0.3183  1.0035
  415MOL0     H57218   8.121   5.164   5.594 -0.7268 -1.8860 -2.3121
  415MOL0     H57219   8.151   5.480   5.392 -0.1942 -0.9578  0.0529
  415MOL0     H57220   8.304   5.488   5.112 -1.8555  0.7383  1.6901
  415MOL0     H57221   8.444   5.393   5.133 -0.0608 -0.0378  1.5971
  415MOL0     H57222   8.491   5.629   5.206  3.2083 -1.7954 -0.2083
  415MOL0     H57223   8.356   5.619   5.326  1.8082  2.3308  0.2963
  415MOL0     H57224   8.473   5.461   5.462 -0.9482  0.3114  0.2707
  415MOL0     H57225   8.603   5.457   5.334 -1.9574  0.7892 -2.9991
  415MOL0     H57226   8.526   5.697   5.495 -3.6005 -3.4321 -0.7989
  415MOL0     H57227   8.660   5.593   5.543  2.4979  1.8621 -0.5676
  415MOL0     H57228   8.688   5.811   5.593 -0.9486  1.5578  0.1230
  415MOL0     H57229   8.910   6.040   5.767 -0.9529  1.3567  0.8927
  415MOL0     H57230   8.744   5.988   5.745 -0.2745 -1.4868 -0.7772
  415MOL0     H57231   8.805   6.131   5.656 -1.5811 -0.7602 -0.7963
  415MOL0     H57232   9.216   6.353   5.394  0.2871  1.7237  0.1608
  415MOL0     H57233   9.428   6.490   5.449 -0.2890  0.4407  0.8963
  415MOL0     H57234   9.686   6.533   5.451  1.3662 -0.0999 -0.5133
  415MOL0     H57235   9.594   6.574   5.590  1.0900  0.9878 -2.2977
  415MOL0     H57236   9.890   6.488   5.583  1.7717 -1.7091  3.1153
  415MOL0     H57237   9.841   6.658   5.599 -1.6132  1.0188 -0.1179
  415MOL0     H57238   9.783   6.441   5.811  1.5751 -0.1481  4.5990
  415MOL0     H57239   9.701   6.598   5.803  0.2014  0.0539 -0.7731
  415MOL0     H57240  10.000   6.562   5.822 -1.4853 -0.1188 -0.9629
  415MOL0     H57241   9.906   6.571   5.972 -0.0276 -0.4608 -1.1420
  415MOL0     H57242   9.999   6.799   5.911  0.6940 -2.8504  0.2571
  415MOL0     H57243   9.915   6.800   5.749  2.6212  0.2212 -0.5264
  415MOL0     H57244   9.777   6.774   6.013 -0.4932  1.8562  1.9922
  415MOL0     H57245   9.699   6.825   5.881 -0.8115  1.1947  0.0888
  415MOL0     H57246   9.875   7.036   5.889  0.0423 -3.1499 -0.5346
  415MOL0     H57247   9.903   6.960   6.049  3.6101 -0.5413 -2.8269
  415MOL0     H57248   9.623   7.036   5.958  0.8072 -1.0720 -0.8946
  415MOL0     H57249   9.731   7.146   6.066 -1.5168  0.0236  3.7342
  415MOL0     H57250   9.589   6.131   5.630 -1.6248 -3.7385 -0.6017
  415MOL0     H57251   9.398   6.024   5.575  0.9631 -1.3857 -2.7170
  415MOL0     H57252   9.081   5.917   5.304  0.6735 -1.2755  0.6426
  415MOL0     H57253   8.908   5.751   5.246 -2.5679  0.9187 -0.7434
  415MOL0     H57254   7.103   4.730   5.671  1.1763 -0.9491 -0.1802
  415MOL0     H57255   6.967   4.552   5.558 -0.7281 -2.8660 -2.1113
  415MOL0     H57256   6.762   4.468   5.193 -1.4849 -0.3003 -3.2851
  415MOL0     H57257   6.574   4.346   5.085  2.2706  2.9802 -1.6078
  415MOL0     H57258   6.581   3.910   5.004  0.4355 -1.5272  1.6833
  415MOL0     H57259   6.528   3.933   5.176 -0.3545  5.7023  1.7620
  415MOL0     H57260   6.357   3.823   5.006  0.6898 -0.9382  1.4373
  415MOL0     H57261   6.344   3.998   4.955 -1.6435 -2.3730 -0.0586
  415MOL0     H57262   6.291   3.889   5.237 -0.2978 -0.7189  1.3545
  415MOL0     H57263   6.313   4.056   5.205 -3.4276  2.1787 -2.3004
  415MOL0     H57264   6.137   4.015   5.010  1.3944 -1.1905  0.4565
  415MOL0     H57265   6.073   4.044   5.183  1.7787  1.9387 -0.0241
  415MOL0     H57266   5.978   3.632   5.104  0.9643  0.0208  2.2176
  415MOL0     H57267   6.750   3.973   5.206  1.2844 -0.2473  0.2513
  415MOL0     H57268   6.950   3.961   5.323 -1.1443  0.0961 -3.2920
  415MOL0     H57269   7.052   4.112   5.346  0.1476  0.9858  1.9210
  415MOL0     H57270   6.916   4.071   5.460 -1.2643  2.2918 -1.1073
  416MOL0     O57271   0.171   7.698   2.284 -0.1447  0.0242 -0.5157
  416MOL0     C57272   0.108   7.786   2.344 -0.5769  0.2140 -0.0926
  416MOL0     O57273  -0.018   7.829   2.321  0.7719 -0.8442  0.7754
  416MOL0     C57274  -0.083   7.798   2.204  0.3033  0.0344  0.1588
  416MOL0     C57275  -0.213   7.762   2.217  0.2902  0.3787 -0.6522
  416MOL0     C57276  -0.281   7.720   2.104 -0.5280  0.9310  0.0195
  416MOL0     C57277  -0.224   7.698   1.980  0.1215  0.5990  0.0708
  416MOL0     O57278  -0.297   7.651   1.877 -0.1564  0.0738 -1.0187
  416MOL0     C57279  -0.290   7.728   1.752  0.0480  0.1187  1.0831
  416MOL0     C57280  -0.406   7.821   1.743 -1.1348 -0.1573 -0.8341
  416MOL0     C57281  -0.380   7.951   1.821  1.0303 -0.1758 -0.5865
  416MOL0     C57282  -0.502   8.036   1.843  1.2546 -0.2904  0.5558
  416MOL0     C57283  -0.488   8.177   1.895  0.3991 -0.7570 -0.1410
  416MOL0     C57284  -0.380   8.271   1.842  0.4337 -0.2195  0.4103
  416MOL0     C57285  -0.416   8.328   1.697  0.2020 -0.1653 -0.4602
  416MOL0     C57286  -0.300   8.404   1.651 -0.7754 -0.5570  0.6727
  416MOL0     N57287  -0.323   8.442   1.507  0.7166  0.4028 -0.2827
  416MOL0     C57288  -0.228   8.425   1.412 -0.8915  0.5602 -0.2097
  416MOL0     C57289  -0.273   8.485   1.303 -0.0966 -0.0340  0.1444
  416MOL0     C57290  -0.206   8.484   1.171  0.0287  1.3992  0.2796
  416MOL0     C57291  -0.257   8.338   1.108  0.2442 -0.4301  0.0566
  416MOL0     C57292  -0.193   8.302   0.971  0.3870 -1.6022  0.0777
  416MOL0     C57293  -0.245   8.172   0.911 -1.0206  0.0414  0.2083
  416MOL0     O57294  -0.148   8.140   0.806 -0.2538 -0.7127 -0.4136
  416MOL0     C57295  -0.142   8.018   0.748  0.2485  0.6826  0.1548
  416MOL0     C57296  -0.051   7.988   0.651  0.1882  0.3396  1.0878
  416MOL0     C57297  -0.055   7.867   0.581  0.6013 -0.0964  0.3438
  416MOL0     C57298   0.062   7.862   0.484  0.3808  0.7606  0.0732
  416MOL0     C57299  -0.166   7.769   0.588 -0.3414 -0.5452 -0.3672
  416MOL0     C57300  -0.182   7.650   0.504 -0.5759 -0.3552 -1.1929
  416MOL0     O57301  -0.301   7.584   0.506 -0.0619  0.9565 -0.2528
  416MOL0     C57302  -0.328   7.476   0.427  0.1485 -0.5103 -0.6368
  416MOL0     C57303  -0.456   7.440   0.445  0.8304  0.0632 -0.1038
  416MOL0     C57304  -0.513   7.324   0.377 -0.1745 -0.6626 -0.4685
  416MOL0     C57305  -0.433   7.242   0.298  0.6599 -1.0017 -0.6590
  416MOL0     O57306  -0.478   7.136   0.234 -0.4771  0.2771  0.0433
  416MOL0     C57307  -0.558   7.042   0.308 -0.4438 -0.1751  1.0322
  416MOL0     C57308  -0.512   6.901   0.266 -0.6788  0.8576 -0.4026
  416MOL0     C57309  -0.627   6.803   0.281 -0.5573  1.0437  0.4042
  416MOL0     C57310  -0.578   6.661   0.248 -0.2523 -1.1834  0.8630
  416MOL0     C57311  -0.598   6.653   0.092  0.4570  0.4926  1.4309
  416MOL0     C57312  -0.495   6.571   0.033  0.1523 -1.6133  0.2014
  416MOL0     C57313  -0.379   6.650  -0.022  0.1533  0.3824 -0.0370
  416MOL0     C57314  -0.279   6.549  -0.073  0.3634  0.3919 -0.2771
  416MOL0    Cl57315  -0.197   6.466   0.055  0.3616  0.1151  0.1846
  416MOL0     C57316  -0.298   7.283   0.286 -0.3539  0.4530  0.1768
  416MOL0     C57317  -0.252   7.402   0.346 -0.2674 -0.3627 -0.7164
  416MOL0     O57318  -0.078   7.616   0.445  0.0036  0.2507  0.1944
  416MOL0     C57319  -0.256   7.807   0.698 -0.1798  0.8099 -0.3855
  416MOL0     C57320  -0.243   7.920   0.773  1.0006  0.4768 -0.4038
  416MOL0     N57321  -0.392   8.548   1.332 -0.7762 -0.0420  0.5476
  416MOL0     N57322  -0.420   8.518   1.454 -0.4464 -0.2865  0.6431
  416MOL0     C57323  -0.080   7.726   1.972 -0.4652 -0.9094  0.7026
  416MOL0     C57324  -0.013   7.772   2.085  0.4236  0.3981  0.4713
  416MOL0     C57325   0.166   7.845   2.467  0.4139 -1.1952  0.7647
  416MOL0     C57326   0.089   7.843   2.584  0.5283 -0.1955 -0.6282
  416MOL0     C57327   0.116   7.916   2.697  0.3802 -0.3041  0.7105
  416MOL0     C57328   0.240   7.983   2.707  0.1625 -0.2425  0.3665
  416MOL0     O57329   0.269   8.067   2.817  0.7739 -0.0491  0.2776
  416MOL0     C57330   0.191   8.077   2.933  0.0872  0.3616 -0.7346
  416MOL0     C57331   0.065   8.165   2.904  0.8671 -0.0869 -0.6838
  416MOL0     C57332   0.090   8.302   2.857 -0.5430 -0.0804 -0.4259
  416MOL0     C57333   0.112   8.404   2.977  0.8429  1.3972  0.6427
  416MOL0     C57334   0.115   8.536   2.906 -0.3223 -0.0091  0.4945
  416MOL0     C57335   0.111   8.631   2.832 -0.4809 -0.5210  0.5058
  416MOL0     C57336   0.321   7.994   2.595  0.3397 -0.1145  0.1069
  416MOL0     C57337   0.287   7.925   2.471 -0.5535 -0.9445 -0.8719
  416MOL0     C57338   0.368   7.937   2.348 -0.8303 -0.5573  0.0012
  416MOL0     H57339  -0.273   7.769   2.308 -0.7289  2.4304 -1.4037
  416MOL0     H57340  -0.387   7.700   2.108 -0.2681 -0.9299 -1.0982
  416MOL0     H57341  -0.291   7.658   1.668 -1.7451  0.4035  0.8289
  416MOL0     H57342  -0.200   7.785   1.728 -0.7806 -0.1435 -3.4743
  416MOL0     H57343  -0.448   7.847   1.645 -3.8203 -0.1930  0.2391
  416MOL0     H57344  -0.487   7.773   1.797 -1.3018 -0.0247 -0.9670
  416MOL0     H57345  -0.341   7.925   1.920 -0.4454 -2.4730 -0.5500
  416MOL0     H57346  -0.319   8.024   1.767 -1.1580  1.6551 -0.7242
  416MOL0     H57347  -0.570   8.034   1.757 -0.8825  0.1895  2.1475
  416MOL0     H57348  -0.547   7.983   1.927  3.0614  0.2787  1.9240
  416MOL0     H57349  -0.465   8.171   2.001  2.3757  1.7248 -0.3274
  416MOL0     H57350  -0.582   8.232   1.881  1.0186 -0.1539 -2.5363
  416MOL0     H57351  -0.355   8.352   1.911  2.4706  0.5174 -1.0695
  416MOL0     H57352  -0.289   8.211   1.830 -0.2681 -1.0877 -0.8128
  416MOL0     H57353  -0.502   8.395   1.708  1.4908  1.2572  1.8205
  416MOL0     H57354  -0.444   8.255   1.620  1.7556  0.3282 -1.5255
  416MOL0     H57355  -0.283   8.494   1.711 -1.7636 -0.8802  1.4769
  416MOL0     H57356  -0.203   8.354   1.653 -1.8456 -2.7724  0.3803
  416MOL0     H57357  -0.137   8.367   1.425 -0.6005  1.0825  0.0930
  416MOL0     H57358  -0.097   8.482   1.183  0.1986  1.0220 -1.1528
  416MOL0     H57359  -0.241   8.565   1.106  2.7417  1.9252 -0.6468
  416MOL0     H57360  -0.232   8.251   1.169  2.1283 -0.6719 -0.9834
  416MOL0     H57361  -0.364   8.345   1.089  0.2023  1.5875  0.8192
  416MOL0     H57362  -0.218   8.393   0.915 -1.1417 -1.7201  0.5268
  416MOL0     H57363  -0.085   8.311   0.987  0.3796 -0.2101 -0.4556
  416MOL0     H57364  -0.250   8.104   0.996 -1.9937  0.1178  0.2201
  416MOL0     H57365  -0.339   8.170   0.855 -1.6929  0.3485  1.3059
  416MOL0     H57366   0.026   8.062   0.633  0.2853 -0.1354 -0.5935
  416MOL0     H57367   0.048   7.793   0.400 -0.5201 -1.4586  1.9584
  416MOL0     H57368   0.157   7.839   0.533  0.7839 -1.3742 -1.5690
  416MOL0     H57369   0.085   7.962   0.443  3.9271 -0.0959 -0.3837
  416MOL0     H57370  -0.514   7.503   0.510 -0.8310 -1.0120 -0.4891
  416MOL0     H57371  -0.616   7.299   0.401  0.3993 -1.6645  1.1653
  416MOL0     H57372  -0.545   7.049   0.416 -2.1801 -3.3587  1.5976
  416MOL0     H57373  -0.663   7.045   0.278 -0.2236 -2.8135 -0.3182
  416MOL0     H57374  -0.467   6.898   0.166  0.6632 -0.7839  0.2223
  416MOL0     H57375  -0.429   6.878   0.333  1.3377  2.4036 -2.2338
  416MOL0     H57376  -0.703   6.839   0.211  1.6064  1.5376 -1.8493
  416MOL0     H57377  -0.662   6.806   0.385 -1.1846  0.0106  0.2287
  416MOL0     H57378  -0.644   6.605   0.315  1.4961 -1.3413  2.5407
  416MOL0     H57379  -0.477   6.650   0.289  1.2169  3.7908 -0.7168
  416MOL0     H57380  -0.700   6.616   0.080  0.8978 -0.5198  0.6801
  416MOL0     H57381  -0.597   6.750   0.041 -1.5563  0.0394  0.4266
  416MOL0     H57382  -0.544   6.534  -0.058 -0.7227  2.6750 -1.3188
  416MOL0     H57383  -0.472   6.498   0.111  0.5918  0.6740  2.3457
  416MOL0     H57384  -0.328   6.707   0.055 -1.0882 -2.3290  3.0284
  416MOL0     H57385  -0.402   6.719  -0.104  3.2630  0.6250 -0.8017
  416MOL0     H57386  -0.203   6.600  -0.133  0.2162  3.2135  1.7370
  416MOL0     H57387  -0.321   6.482  -0.148  3.1226 -1.3921 -0.3517
  416MOL0     H57388  -0.236   7.223   0.220  0.3541  0.7540  0.5658
  416MOL0     H57389  -0.151   7.428   0.316 -0.2165  1.9969  1.1338
  416MOL0     H57390  -0.337   7.741   0.727  0.3520  0.0421 -0.6191
  416MOL0     H57391  -0.308   7.941   0.857  0.5997 -0.7817 -0.3805
  416MOL0     H57392  -0.031   7.731   1.875 -1.0078  4.2407  0.4093
  416MOL0     H57393   0.087   7.812   2.072 -0.2050  1.9470  0.2328
  416MOL0     H57394   0.002   7.779   2.572  0.9272 -0.5572 -1.6541
  416MOL0     H57395   0.049   7.920   2.782 -3.0320  0.4615 -1.7881
  416MOL0     H57396   0.166   7.984   2.984 -1.7229 -0.3278 -2.7004
  416MOL0     H57397   0.241   8.142   3.005 -2.3369 -0.2808  1.7152
  416MOL0     H57398   0.014   8.171   3.001  2.2317 -1.5035  0.1688
  416MOL0     H57399   0.004   8.130   2.819  1.8502  0.9110 -1.8333
  416MOL0     H57400   0.177   8.309   2.792 -0.2778  2.6242  0.1204
  416MOL0     H57401   0.003   8.339   2.801 -0.5313 -0.1100 -0.4639
  416MOL0     H57402   0.208   8.388   3.027  1.8155  1.9037 -0.9812
  416MOL0     H57403   0.026   8.395   3.044 -0.8032  0.6734 -1.4363
  416MOL0     H57404   0.115   8.723   2.776  1.6835 -1.0137 -0.2373
  416MOL0     H57405   0.407   8.059   2.610  2.5327 -2.8582  0.2710
  416MOL0     H57406   0.373   7.846   2.287  2.2618 -1.2227  1.0561
  416MOL0     H57407   0.327   8.014   2.282  0.2610 -0.4981 -0.6449
  416MOL0     H57408   0.471   7.965   2.371 -1.3648 -0.2681  2.2545
  417MOL0     O57409   0.975   0.375   2.078 -0.6100  0.2218 -0.7490
  417MOL0     C57410   0.897   0.362   2.167  0.3633  0.2939 -0.3312
  417MOL0     O57411   0.918   0.300   2.285 -0.4774  0.6401 -0.8017
  417MOL0     C57412   1.049   0.294   2.338 -0.3781 -0.4366 -0.0031
  417MOL0     C57413   1.099   0.400   2.413 -0.5902 -0.6846 -0.2019
  417MOL0     C57414   1.226   0.390   2.464  0.4825  0.3828  0.0334
  417MOL0     C57415   1.307   0.277   2.436 -0.6075  0.1489  0.0088
  417MOL0     O57416   1.439   0.265   2.491  0.6419  0.4074  0.3979
  417MOL0     C57417   1.503   0.375   2.547 -0.6634  0.2153  1.1832
  417MOL0     C57418   1.512   0.383   2.698 -0.2497 -0.8538  0.4478
  417MOL0     C57419   1.383   0.434   2.765 -0.1935 -0.6459  1.5343
  417MOL0     C57420   1.405   0.444   2.913  0.2343  0.2952  0.1620
  417MOL0     C57421   1.272   0.462   2.989  0.2335  0.2955  0.7459
  417MOL0     C57422   1.262   0.385   3.116  0.0345  0.1470 -0.0146
  417MOL0     C57423   1.119   0.379   3.177  0.3730 -0.2104 -0.0759
  417MOL0     C57424   1.122   0.313   3.316 -0.2718  0.6892  0.4041
  417MOL0     N57425   1.191   0.389   3.421 -0.0960  0.5476  0.1735
  417MOL0     C57426   1.174   0.515   3.451 -0.5761 -0.9654 -0.6511
  417MOL0     C57427   1.242   0.541   3.565 -0.4536 -0.2764 -0.1719
  417MOL0     C57428   1.265   0.665   3.640 -0.4631  0.0906  0.0355
  417MOL0     C57429   1.247   0.644   3.793 -0.0896 -1.0373 -0.4695
  417MOL0     C57430   1.240   0.783   3.877 -0.3544 -0.0267 -0.7304
  417MOL0     C57431   1.380   0.848   3.871 -0.3041 -0.1609 -0.5569
  417MOL0     O57432   1.472   0.764   3.943  0.3191  0.0792 -0.4934
  417MOL0     C57433   1.601   0.795   3.922 -0.1462  0.2365 -0.1927
  417MOL0     C57434   1.658   0.918   3.960 -0.7373 -0.4303  0.7957
  417MOL0     C57435   1.779   0.966   3.923  0.7462 -0.0646 -0.0841
  417MOL0     C57436   1.803   1.107   3.978  0.2955  0.9548 -0.0270
  417MOL0     C57437   1.866   0.891   3.840 -0.8519  0.2251 -0.7435
  417MOL0     C57438   2.013   0.931   3.811 -0.2567  0.7059 -0.5594
  417MOL0     O57439   2.089   0.829   3.750  0.0894  0.2427 -0.7616
  417MOL0     C57440   2.215   0.866   3.704  0.6448  0.4508  0.5461
  417MOL0     C57441   2.326   0.841   3.784 -0.3703  0.2360  0.9383
  417MOL0     C57442   2.458   0.839   3.723 -0.4865 -0.0825 -0.8887
  417MOL0     C57443   2.469   0.897   3.603  0.3458 -1.0787 -0.2087
  417MOL0     O57444   2.591   0.895   3.544  0.1731 -0.1685 -0.3160
  417MOL0     C57445   2.597   0.853   3.404  0.1515  0.0657 -0.1997
  417MOL0     C57446   2.702   0.755   3.389 -0.2313  0.8906 -0.7222
  417MOL0     C57447   2.726   0.733   3.240  0.0161 -0.2216 -0.8640
  417MOL0     C57448   2.860   0.669   3.208 -0.6993 -0.5915  0.0729
  417MOL0     C57449   2.887   0.659   3.057  0.4112 -0.7432 -0.8408
  417MOL0     C57450   2.782   0.571   2.988 -0.3726 -0.1615  1.0210
  417MOL0     C57451   2.826   0.547   2.845 -0.4986  0.0682 -0.0232
  417MOL0     C57452   2.734   0.466   2.760 -0.3090 -0.0995  0.2743
  417MOL0    Cl57453   2.774   0.460   2.574  0.3012  0.5561 -0.0881
  417MOL0     C57454   2.354   0.938   3.526 -0.2149 -0.3546  0.1155
  417MOL0     C57455   2.226   0.918   3.577 -0.0637 -0.5374  0.9446
  417MOL0     O57456   2.045   1.044   3.813 -0.0500  0.1445 -0.5938
  417MOL0     C57457   1.809   0.761   3.799 -0.0513 -0.3768  1.1526
  417MOL0     C57458   1.679   0.714   3.840 -0.3494 -0.2393  0.0439
  417MOL0     N57459   1.307   0.424   3.596  0.5765 -0.1497 -0.0311
  417MOL0     N57460   1.266   0.330   3.524  0.0825  0.1000  0.3425
  417MOL0     C57461   1.254   0.170   2.357  0.7694  0.1307 -0.1342
  417MOL0     C57462   1.122   0.177   2.319 -0.6997 -0.0678 -0.7058
  417MOL0     C57463   0.759   0.408   2.145 -0.0757 -0.1056 -0.3101
  417MOL0     C57464   0.675   0.435   2.254  0.6536  0.5620  0.1135
  417MOL0     C57465   0.536   0.470   2.242 -1.2791  0.4922 -0.1483
  417MOL0     C57466   0.481   0.497   2.116 -0.4447 -0.0281  0.2944
  417MOL0     O57467   0.352   0.540   2.097  0.1378  0.0783 -0.6455
  417MOL0     C57468   0.260   0.545   2.210 -1.0492 -0.2823 -0.6821
  417MOL0     C57469   0.114   0.553   2.156  0.9850  0.3014  0.3400
  417MOL0     C57470   0.096   0.696   2.096  0.4655 -0.1174  0.4978
  417MOL0     C57471  -0.052   0.711   2.051  0.5954  0.5704  0.4277
  417MOL0     C57472  -0.068   0.850   2.004  0.3284 -0.2696 -0.3720
  417MOL0     C57473  -0.079   0.964   1.962 -0.9040 -0.6210 -0.3949
  417MOL0     C57474   0.577   0.485   2.011  0.7191 -1.3286  0.4656
  417MOL0     C57475   0.707   0.439   2.014  0.3738 -0.0417  0.6023
  417MOL0     C57476   0.778   0.427   1.876 -0.1465  0.9612  0.2045
  417MOL0     H57477   1.041   0.489   2.437 -0.2579 -1.1523  2.5803
  417MOL0     H57478   1.268   0.477   2.514 -0.3845 -0.1422  1.7577
  417MOL0     H57479   1.463   0.468   2.505 -2.3467 -1.2999 -0.8267
  417MOL0     H57480   1.602   0.364   2.500 -0.5142  0.4983  1.4299
  417MOL0     H57481   1.536   0.283   2.734 -0.7990 -0.8080  0.9663
  417MOL0     H57482   1.590   0.454   2.726  0.3455 -0.8202 -1.2071
  417MOL0     H57483   1.367   0.532   2.719 -2.8819 -1.4223  0.6013
  417MOL0     H57484   1.300   0.368   2.738  1.0561 -1.3794 -0.8491
  417MOL0     H57485   1.452   0.351   2.947  0.5417  1.0431  1.9052
  417MOL0     H57486   1.478   0.522   2.936  1.4730 -0.3296 -1.5021
  417MOL0     H57487   1.190   0.439   2.921 -1.5376  1.0169  2.5250
  417MOL0     H57488   1.266   0.568   3.016  2.4716  0.5739  0.3725
  417MOL0     H57489   1.287   0.284   3.081 -0.8829 -0.5046  1.1333
  417MOL0     H57490   1.340   0.419   3.185  1.5373 -2.4686 -0.2868
  417MOL0     H57491   1.037   0.334   3.119  0.3524  0.1211 -0.3077
  417MOL0     H57492   1.089   0.481   3.200  0.5335 -0.5144  1.5488
  417MOL0     H57493   1.015   0.314   3.336 -0.8587  2.8220 -2.3313
  417MOL0     H57494   1.153   0.208   3.312 -2.0285  0.1896 -1.7200
  417MOL0     H57495   1.140   0.594   3.385 -2.5946  2.0749  3.5837
  417MOL0     H57496   1.200   0.747   3.610 -1.5252 -0.2562  1.2915
  417MOL0     H57497   1.369   0.692   3.619 -0.7696  0.7330 -0.6961
  417MOL0     H57498   1.157   0.584   3.808 -0.5649 -0.6301 -1.5853
  417MOL0     H57499   1.328   0.582   3.831  0.7262  0.5815  0.5508
  417MOL0     H57500   1.170   0.856   3.835  0.3520 -0.2232 -2.3134
  417MOL0     H57501   1.219   0.751   3.980  1.2885 -1.9361 -0.9284
  417MOL0     H57502   1.406   0.862   3.766 -1.7521 -2.5222 -1.2996
  417MOL0     H57503   1.380   0.951   3.909  0.1525 -1.0446  2.0213
  417MOL0     H57504   1.595   0.979   4.025 -0.6195 -2.1601  2.6375
  417MOL0     H57505   1.897   1.111   4.035  1.1503  0.1892 -1.3121
  417MOL0     H57506   1.729   1.142   4.050  0.4326 -1.5267  1.4544
  417MOL0     H57507   1.801   1.176   3.893  2.2309  0.9563 -0.1262
  417MOL0     H57508   2.327   0.811   3.889 -4.1015 -1.5451  0.6095
  417MOL0     H57509   2.548   0.814   3.778  0.0955 -0.5250 -1.9912
  417MOL0     H57510   2.502   0.811   3.369  0.6821  1.2280 -3.4395
  417MOL0     H57511   2.619   0.949   3.355  1.0451  0.0943  0.2374
  417MOL0     H57512   2.790   0.799   3.437 -0.6399 -1.1604  2.1359
  417MOL0     H57513   2.686   0.656   3.431  2.6411 -0.2554 -2.0776
  417MOL0     H57514   2.731   0.827   3.184  1.9623 -1.4651 -2.9341
  417MOL0     H57515   2.642   0.664   3.226  0.0149 -1.4943  3.7547
  417MOL0     H57516   2.866   0.567   3.246 -1.4998 -1.1703 -1.2764
  417MOL0     H57517   2.930   0.730   3.266  0.0819 -1.1409 -0.2698
  417MOL0     H57518   2.882   0.756   3.007  0.3815  0.4344  1.3422
  417MOL0     H57519   2.989   0.621   3.048  1.2034  1.4229 -1.4711
  417MOL0     H57520   2.681   0.610   2.973 -0.7430 -1.7953 -1.2416
  417MOL0     H57521   2.777   0.472   3.033 -1.4919 -0.6458 -0.1101
  417MOL0     H57522   2.928   0.507   2.850 -0.4550  0.2316  0.4538
  417MOL0     H57523   2.851   0.639   2.791 -2.8916  1.9301  1.7986
  417MOL0     H57524   2.635   0.507   2.782 -0.7262 -1.5633  1.3194
  417MOL0     H57525   2.724   0.362   2.792  1.8373 -0.4987 -0.2461
  417MOL0     H57526   2.381   0.992   3.436  2.2527  3.0832  2.6313
  417MOL0     H57527   2.133   0.945   3.529  0.7251  1.5801  0.4828
  417MOL0     H57528   1.857   0.693   3.729  2.2465  1.5037  0.7850
  417MOL0     H57529   1.633   0.619   3.818 -0.9031 -0.6415  2.5721
  417MOL0     H57530   1.323   0.089   2.336  0.1016 -0.5165  0.1471
  417MOL0     H57531   1.073   0.088   2.280 -3.0831  0.7008  0.4102
  417MOL0     H57532   0.731   0.425   2.346  1.8860  0.5530 -0.6141
  417MOL0     H57533   0.482   0.480   2.336  2.7592 -0.5024  2.5626
  417MOL0     H57534   0.277   0.456   2.271  2.5165 -0.5835 -1.8568
  417MOL0     H57535   0.278   0.635   2.270 -0.4044 -2.9311  3.4471
  417MOL0     H57536   0.039   0.538   2.233  2.0830  0.6904  1.5162
  417MOL0     H57537   0.098   0.472   2.085  1.0870  2.5135 -2.4049
  417MOL0     H57538   0.118   0.767   2.177 -0.0887  0.4305  0.1797
  417MOL0     H57539   0.163   0.714   2.011  0.1166 -0.1473  0.2176
  417MOL0     H57540  -0.117   0.679   2.132 -0.2448  0.1283 -0.3918
  417MOL0     H57541  -0.078   0.644   1.968 -3.1203 -0.6841  2.3788
  417MOL0     H57542  -0.067   1.059   1.914 -0.4392  0.6945  2.1556
  417MOL0     H57543   0.538   0.514   1.914 -2.5389 -1.7679  1.5359
  417MOL0     H57544   0.849   0.507   1.855  4.7987 -2.6716  1.1733
  417MOL0     H57545   0.848   0.343   1.869  1.3120  2.1882 -0.6694
  417MOL0     H57546   0.712   0.415   1.790  0.9142 -1.1742 -0.3772
  418MOL0     O57547  10.009   5.191   1.295 -0.0164 -0.5589  0.6018
  418MOL0     C57548  10.101   5.267   1.294 -1.0504 -1.3159  0.0804
  418MOL0     O57549  10.131   5.353   1.396  0.1502 -1.1821 -0.4995
  418MOL0     C57550  10.028   5.391   1.481  0.4845 -0.6087  0.5918
  418MOL0     C57551   9.977   5.525   1.477 -0.3124 -0.4776  0.3239
  418MOL0     C57552   9.881   5.567   1.562  0.0701 -1.2844  1.1394
  418MOL0     C57553   9.825   5.484   1.655 -0.4094 -1.6259  0.1670
  418MOL0     O57554   9.737   5.538   1.741  0.3464  0.4802  0.0829
  418MOL0     C57555   9.714   5.484   1.870  0.4115 -0.3442  0.3458
  418MOL0     C57556   9.644   5.588   1.954  0.3905 -0.6987 -0.2491
  418MOL0     C57557   9.508   5.630   1.905 -0.1922 -0.9272 -0.3929
  418MOL0     C57558   9.413   5.685   2.018 -0.3479  0.4243  0.2198
  418MOL0     C57559   9.274   5.729   1.957  1.0566  0.0891  1.5347
  418MOL0     C57560   9.170   5.617   1.940  0.6319 -0.5069 -0.4611
  418MOL0     C57561   9.064   5.661   1.851 -0.6956 -0.2559  0.1422
  418MOL0     C57562   8.994   5.801   1.878  0.4196 -1.0948  0.2565
  418MOL0     N57563   8.910   5.804   2.008  0.2782 -0.5545  0.2272
  418MOL0     C57564   8.849   5.909   2.056 -0.3267 -0.6235 -0.4320
  418MOL0     C57565   8.780   5.859   2.158 -0.0713 -0.2791  0.9025
  418MOL0     C57566   8.678   5.946   2.221 -0.7241 -0.9645 -0.6458
  418MOL0     C57567   8.737   6.030   2.338  0.0560  0.0792  0.5932
  418MOL0     C57568   8.730   5.955   2.475 -0.5982 -0.2988  1.0285
  418MOL0     C57569   8.737   6.041   2.599 -0.2708  0.4012 -0.1623
  418MOL0     O57570   8.605   6.078   2.633 -0.9002 -0.2852 -1.2165
  418MOL0     C57571   8.588   6.139   2.753 -0.0475  0.0391  0.5747
  418MOL0     C57572   8.508   6.253   2.758  0.5573 -0.5707 -0.0787
  418MOL0     C57573   8.464   6.307   2.886 -0.2249  0.2267 -0.1503
  418MOL0     C57574   8.356   6.406   2.876 -0.3328 -0.7190 -0.7998
  418MOL0     C57575   8.509   6.248   3.012 -0.0587  1.0015  0.4995
  418MOL0     C57576   8.480   6.303   3.149 -0.9399 -0.1571  0.1376
  418MOL0     O57577   8.514   6.226   3.263 -0.1946  0.1487  0.2850
  418MOL0     C57578   8.518   6.285   3.389 -0.7121 -1.3340 -0.2100
  418MOL0     C57579   8.511   6.425   3.416  0.0200  0.1272  0.0434
  418MOL0     C57580   8.529   6.469   3.541  0.5865  0.2320  0.3638
  418MOL0     C57581   8.558   6.389   3.652 -0.5342 -0.3292 -0.1696
  418MOL0     O57582   8.577   6.430   3.783 -0.3119 -0.3661 -0.9062
  418MOL0     C57583   8.562   6.570   3.802 -0.1096 -0.2292  0.4483
  418MOL0     C57584   8.566   6.600   3.952  0.4715 -0.2898  0.4562
  418MOL0     C57585   8.593   6.758   3.979  0.5752 -0.4210  0.3837
  418MOL0     C57586   8.624   6.777   4.122 -0.3173  0.7399  0.3813
  418MOL0     C57587   8.540   6.720   4.238 -0.2250 -0.3111  0.3129
  418MOL0     C57588   8.606   6.721   4.379  0.2813 -0.4401 -0.4938
  418MOL0     C57589   8.725   6.624   4.386  0.6822  1.5346 -0.8142
  418MOL0     C57590   8.730   6.551   4.515  0.8900  0.3388 -0.2625
  418MOL0    Cl57591   8.759   6.654   4.664  0.0845 -0.0324  0.4130
  418MOL0     C57592   8.586   6.263   3.623  0.1515  0.3957 -0.2970
  418MOL0     C57593   8.560   6.203   3.495  0.4821  0.3817 -0.3476
  418MOL0     O57594   8.409   6.400   3.149  0.0744 -0.9276 -0.1201
  418MOL0     C57595   8.583   6.131   3.001 -0.1177  0.0254  0.3078
  418MOL0     C57596   8.613   6.079   2.880 -0.6032  0.0461 -0.0689
  418MOL0     N57597   8.803   5.721   2.182 -0.1501 -0.5379 -0.0822
  418MOL0     N57598   8.888   5.701   2.087  0.1068  0.2001 -0.6360
  418MOL0     C57599   9.886   5.357   1.671 -0.4690 -0.5524 -1.2759
  418MOL0     C57600   9.983   5.306   1.577  1.1111 -0.5007 -0.7761
  418MOL0     C57601  10.202   5.255   1.181 -0.3942  0.4799  0.1199
  418MOL0     C57602  10.171   5.179   1.061  0.2494 -0.1179  0.5518
  418MOL0     C57603  10.263   5.142   0.959 -0.0096 -0.2127  0.1040
  418MOL0     C57604  10.397   5.180   0.976  0.0343 -0.5377  0.0048
  418MOL0     O57605  10.486   5.147   0.884 -0.2274 -0.0802 -0.1180
  418MOL0     C57606  10.551   5.025   0.935 -0.7550  0.1666 -0.2378
  418MOL0     C57607  10.620   4.942   0.828 -1.0589 -0.1467 -0.3282
  418MOL0     C57608  10.712   5.017   0.734  0.2532 -0.8737 -1.0077
  418MOL0     C57609  10.858   5.010   0.786 -0.1785  0.0271  0.6992
  418MOL0     C57610  10.953   5.076   0.692  1.1862  0.6251  0.3815
  418MOL0     C57611  11.049   5.122   0.639  0.4547  0.9066  0.4429
  418MOL0     C57612  10.426   5.250   1.096  0.0959  0.1244 -0.6048
  418MOL0     C57613  10.335   5.280   1.201 -0.3573  0.0405 -0.1994
  418MOL0     C57614  10.393   5.337   1.331  0.4983 -0.7179  0.1867
  418MOL0     H57615  10.026   5.597   1.412  0.1127  0.9208  2.1069
  418MOL0     H57616   9.848   5.670   1.556  2.1792 -0.6278 -0.3863
  418MOL0     H57617   9.809   5.456   1.915  0.4350  0.2673  0.6907
  418MOL0     H57618   9.656   5.393   1.856  0.6096 -0.4093 -0.0860
  418MOL0     H57619   9.639   5.551   2.057 -4.5410 -2.8689 -0.9891
  418MOL0     H57620   9.710   5.675   1.945  0.4050 -0.8502 -2.1491
  418MOL0     H57621   9.530   5.699   1.823 -0.7299  0.2994  0.4636
  418MOL0     H57622   9.457   5.542   1.865 -1.1454  0.0001 -1.2945
  418MOL0     H57623   9.398   5.607   2.093  0.9652  0.6851  0.7891
  418MOL0     H57624   9.464   5.763   2.075 -1.1613  0.3529  1.0720
  418MOL0     H57625   9.297   5.754   1.853 -1.1991 -1.3080  0.6346
  418MOL0     H57626   9.228   5.819   1.999 -0.3303  1.6093 -2.7598
  418MOL0     H57627   9.216   5.520   1.920 -1.3942 -1.8521  1.0462
  418MOL0     H57628   9.117   5.599   2.034  1.6761 -1.0963  0.0256
  418MOL0     H57629   8.980   5.590   1.849 -0.8076 -0.1481  0.7637
  418MOL0     H57630   9.110   5.663   1.752  0.1154  1.4261  0.5251
  418MOL0     H57631   9.054   5.893   1.880  0.7018 -1.2798  0.9939
  418MOL0     H57632   8.926   5.811   1.794  2.2498 -0.8604 -1.2700
  418MOL0     H57633   8.851   6.008   2.011 -0.1806 -0.9779 -1.2220
  418MOL0     H57634   8.591   5.886   2.251 -2.2019  0.9896 -0.8079
  418MOL0     H57635   8.641   6.017   2.146  0.1394 -1.6336 -1.7360
  418MOL0     H57636   8.829   6.078   2.303 -1.1822  1.3793 -1.0058
  418MOL0     H57637   8.673   6.115   2.361 -1.0780 -1.2741  2.7497
  418MOL0     H57638   8.645   5.887   2.481  1.8895 -3.5398  4.3469
  418MOL0     H57639   8.801   5.872   2.486 -0.2072  0.3035  3.5730
  418MOL0     H57640   8.794   5.995   2.680  0.3013  3.2178  1.1945
  418MOL0     H57641   8.793   6.133   2.578 -1.2865  1.1425  0.2259
  418MOL0     H57642   8.469   6.301   2.668  0.2646 -1.4634 -0.4401
  418MOL0     H57643   8.395   6.496   2.925  0.2163  0.5692 -3.4623
  418MOL0     H57644   8.261   6.386   2.927  0.0354 -0.0989  0.1531
  418MOL0     H57645   8.333   6.437   2.774 -2.0175  3.6182  0.6524
  418MOL0     H57646   8.493   6.508   3.347 -0.1699 -0.1040 -0.1910
  418MOL0     H57647   8.544   6.577   3.545 -1.0805  0.4906  0.3498
  418MOL0     H57648   8.649   6.618   3.756 -2.6070  2.8150 -1.5714
  418MOL0     H57649   8.470   6.611   3.759 -0.4871  1.6140  2.7564
  418MOL0     H57650   8.465   6.577   3.985 -0.4590  0.9184 -1.3557
  418MOL0     H57651   8.640   6.535   4.000  3.7609  0.5437 -2.9505
  418MOL0     H57652   8.502   6.818   3.966 -0.7362 -2.6006 -1.3118
  418MOL0     H57653   8.674   6.801   3.918  0.2107 -0.3051 -0.0310
  418MOL0     H57654   8.633   6.885   4.134 -0.3534  0.4800  3.4378
  418MOL0     H57655   8.725   6.740   4.143 -1.5525 -2.1596  1.7099
  418MOL0     H57656   8.451   6.783   4.250  0.5599  0.4445  3.1159
  418MOL0     H57657   8.497   6.626   4.202 -0.7608 -0.3844  1.1075
  418MOL0     H57658   8.527   6.691   4.448 -0.8053 -0.0529 -1.5260
  418MOL0     H57659   8.640   6.818   4.416  3.2029 -1.0545 -1.2924
  418MOL0     H57660   8.818   6.681   4.373  0.6559  2.2139  1.5047
  418MOL0     H57661   8.710   6.559   4.299 -0.7061  1.8268 -0.8168
  418MOL0     H57662   8.796   6.466   4.496 -2.2926 -2.2119 -0.8569
  418MOL0     H57663   8.634   6.499   4.526  0.1557  1.7566  0.2560
  418MOL0     H57664   8.624   6.206   3.707 -0.2461  2.6925  1.5645
  418MOL0     H57665   8.591   6.101   3.478  1.5042  0.7009 -0.5339
  418MOL0     H57666   8.604   6.066   3.085 -0.3274  2.0194  1.9962
  418MOL0     H57667   8.665   5.983   2.874 -0.5055  0.0438  0.7935
  418MOL0     H57668   9.881   5.292   1.757 -1.6362  2.6093  1.2811
  418MOL0     H57669  10.022   5.204   1.575  3.6200  0.3771 -0.3979
  418MOL0     H57670  10.067   5.151   1.047  0.5964 -1.8451  1.1647
  418MOL0     H57671  10.225   5.097   0.868  2.0894 -0.6964 -0.6057
  418MOL0     H57672  10.642   5.057   0.989 -1.4747 -0.1214  1.2026
  418MOL0     H57673  10.481   4.968   0.997  1.3686  0.2962  2.5163
  418MOL0     H57674  10.549   4.883   0.769 -0.9439  0.0792 -0.6923
  418MOL0     H57675  10.669   4.851   0.866 -1.8310 -0.1477  0.7319
  418MOL0     H57676  10.722   4.967   0.637  2.1728  0.7743 -1.7349
  418MOL0     H57677  10.675   5.117   0.708 -0.3393 -0.6633  0.5262
  418MOL0     H57678  10.895   4.907   0.791  0.8608  0.0670 -3.1725
  418MOL0     H57679  10.861   5.065   0.880 -0.6011 -0.3743  0.9501
  418MOL0     H57680  11.132   5.144   0.574  1.4211  1.4083  1.8072
  418MOL0     H57681  10.528   5.284   1.111 -0.5719  1.4165  1.4072
  418MOL0     H57682  10.365   5.272   1.414 -1.6480  1.2636  1.0958
  418MOL0     H57683  10.501   5.356   1.320 -0.1690  2.7260 -2.0803
  418MOL0     H57684  10.363   5.442   1.341 -1.5887 -1.1887 -0.7859
  419MOL0     O57685   3.557   0.299   5.669 -0.4253 -0.1444 -0.6299
  419MOL0     C57686   3.626   0.343   5.592  0.4655 -0.5747  0.7405
  419MOL0     O57687   3.579   0.412   5.473 -0.4291 -0.2702  0.1840
  419MOL0     C57688   3.445   0.422   5.453  0.1423  0.4500 -0.1829
  419MOL0     C57689   3.387   0.349   5.354  0.1035 -0.3869 -0.0097
  419MOL0     C57690   3.250   0.362   5.322 -0.1656  0.0127 -0.7089
  419MOL0     C57691   3.176   0.445   5.402  0.8659  0.5714 -0.7758
  419MOL0     O57692   3.040   0.459   5.390  0.3430  0.2598  0.9904
  419MOL0     C57693   2.963   0.424   5.500  0.8241 -0.2282  1.1312
  419MOL0     C57694   2.834   0.361   5.444 -0.9332 -0.1771  0.7021
  419MOL0     C57695   2.723   0.351   5.557 -0.1282 -0.2822  0.1132
  419MOL0     C57696   2.623   0.465   5.557  0.0677 -0.7737 -0.3739
  419MOL0     C57697   2.537   0.454   5.684 -0.3700 -0.1683  0.8919
  419MOL0     C57698   2.416   0.542   5.694  0.6742 -0.9912  0.3808
  419MOL0     C57699   2.313   0.485   5.803 -0.8137  0.9849  0.0559
  419MOL0     C57700   2.384   0.491   5.933  0.0864 -0.3594 -0.8709
  419MOL0     N57701   2.290   0.465   6.050 -0.1016 -1.2508  0.2337
  419MOL0     C57702   2.336   0.465   6.180 -0.0735  0.2346 -0.2251
  419MOL0     C57703   2.225   0.446   6.256  0.8150  0.1248  0.1186
  419MOL0     C57704   2.216   0.444   6.409 -0.1122 -0.7772  0.1777
  419MOL0     C57705   2.210   0.583   6.466  0.1385  0.0059  0.1218
  419MOL0     C57706   2.084   0.660   6.418 -1.0070 -0.4969 -0.0457
  419MOL0     C57707   1.963   0.607   6.490  1.2508 -0.3687  0.5361
  419MOL0     O57708   1.868   0.716   6.496  0.2245  0.0212 -0.1279
  419MOL0     C57709   1.741   0.668   6.530 -0.6588 -0.7391  0.2252
  419MOL0     C57710   1.645   0.771   6.530 -1.0494  0.2098  0.1570
  419MOL0     C57711   1.516   0.748   6.581  0.9693 -0.0698  0.1646
  419MOL0     C57712   1.397   0.855   6.561 -0.3866 -0.0917 -0.1592
  419MOL0     C57713   1.486   0.625   6.639  0.2192 -0.5648  0.5304
  419MOL0     C57714   1.356   0.596   6.712  0.2812 -0.4406  0.2904
  419MOL0     O57715   1.269   0.706   6.765  0.2310  0.1057  0.7202
  419MOL0     C57716   1.156   0.682   6.848 -1.0563  0.6323 -0.0172
  419MOL0     C57717   1.100   0.790   6.911 -0.1632 -0.6472 -0.0471
  419MOL0     C57718   1.008   0.774   7.016  0.6534  0.3305  0.2737
  419MOL0     C57719   0.957   0.642   7.050  0.2323  0.1192 -0.1127
  419MOL0     O57720   0.871   0.637   7.160 -1.1986  0.5774  0.0401
  419MOL0     C57721   0.843   0.496   7.211 -1.2273 -0.2860 -0.6226
  419MOL0     C57722   0.745   0.486   7.331 -0.2659 -0.2711  0.3416
  419MOL0     C57723   0.802   0.545   7.457  0.4144 -1.0271  0.5845
  419MOL0     C57724   0.686   0.554   7.561  1.2482  0.4272  0.6396
  419MOL0     C57725   0.743   0.512   7.696  0.7262  0.7158  0.9718
  419MOL0     C57726   0.639   0.536   7.805  1.1587 -0.1957  0.3877
  419MOL0     C57727   0.668   0.454   7.930 -0.7436 -0.1553 -0.4025
  419MOL0     C57728   0.582   0.458   8.046  0.1100  0.1913 -0.4926
  419MOL0    Cl57729   0.620   0.337   8.172 -0.3575 -0.1335 -0.3932
  419MOL0     C57730   0.992   0.541   6.962 -0.1351  0.0486 -1.2958
  419MOL0     C57731   1.094   0.561   6.863 -0.0384 -0.1303 -0.5507
  419MOL0     O57732   1.329   0.478   6.720  0.1682  0.2820 -0.2219
  419MOL0     C57733   1.592   0.531   6.650  0.2657  0.5078 -0.1238
  419MOL0     C57734   1.717   0.547   6.589  0.3969  0.1708 -0.3795
  419MOL0     N57735   2.122   0.426   6.166  0.3604 -0.7939 -0.8566
  419MOL0     N57736   2.162   0.417   6.045  0.3494 -0.6866  0.0349
  419MOL0     C57737   3.226   0.525   5.503  0.2695 -0.3204  0.0053
  419MOL0     C57738   3.364   0.507   5.525 -0.6197  0.6738 -0.1549
  419MOL0     C57739   3.766   0.326   5.616 -0.6256 -0.5291 -0.1404
  419MOL0     C57740   3.856   0.358   5.510 -1.2070 -0.7274 -0.3466
  419MOL0     C57741   3.994   0.352   5.535  0.0409  0.3878  0.4472
  419MOL0     C57742   4.051   0.294   5.649  0.2252 -0.7026  0.1144
  419MOL0     O57743   4.183   0.273   5.678  0.0519  0.0624  0.1588
  419MOL0     C57744   4.271   0.326   5.582  0.0676  0.7535  0.1509
  419MOL0     C57745   4.287   0.474   5.580  0.4969 -0.5040 -0.2390
  419MOL0     C57746   4.330   0.536   5.719  0.6291  0.2135  0.4432
  419MOL0     C57747   4.446   0.625   5.705 -0.1255  0.4773  0.9555
  419MOL0     C57748   4.426   0.725   5.597 -0.4281  0.6384 -0.4076
  419MOL0     C57749   4.415   0.806   5.507 -0.5456 -0.2871 -0.1176
  419MOL0     C57750   3.964   0.269   5.751 -0.4513 -0.5861 -0.1248
  419MOL0     C57751   3.826   0.285   5.745  0.9302 -0.0541  0.1302
  419MOL0     C57752   3.748   0.254   5.875  0.1241  0.1141 -0.0666
  419MOL0     H57753   3.448   0.284   5.292 -0.1180  0.4863 -1.1773
  419MOL0     H57754   3.195   0.293   5.258  1.3359 -2.2703  0.3590
  419MOL0     H57755   2.934   0.518   5.548 -0.3198 -1.1756  2.3563
  419MOL0     H57756   3.011   0.362   5.576 -1.0788 -0.8903  1.8425
  419MOL0     H57757   2.798   0.409   5.352 -0.7826  1.4657  1.4742
  419MOL0     H57758   2.857   0.257   5.420 -1.5729 -0.3136  0.6690
  419MOL0     H57759   2.663   0.264   5.529 -0.3509 -0.0257 -0.2138
  419MOL0     H57760   2.764   0.330   5.656 -1.6725 -0.6241  0.6958
  419MOL0     H57761   2.677   0.560   5.563  2.9821 -2.3953  4.1653
  419MOL0     H57762   2.562   0.462   5.467  0.7469  3.7664 -1.2590
  419MOL0     H57763   2.603   0.488   5.765 -1.7540  3.4018  0.6834
  419MOL0     H57764   2.515   0.348   5.701  0.9454 -0.4331  1.0823
  419MOL0     H57765   2.445   0.647   5.708 -3.6931  0.9915 -2.8818
  419MOL0     H57766   2.371   0.527   5.595  3.9022  0.6768 -1.5127
  419MOL0     H57767   2.275   0.383   5.790  1.5831  0.0619 -0.0384
  419MOL0     H57768   2.225   0.551   5.807 -1.4092  0.2057  0.0017
  419MOL0     H57769   2.464   0.416   5.935  2.0434  1.6425 -0.7930
  419MOL0     H57770   2.445   0.581   5.945  0.9142 -0.9772 -0.3741
  419MOL0     H57771   2.439   0.478   6.212 -0.1008  1.0521 -0.4424
  419MOL0     H57772   2.306   0.389   6.437  0.9355 -0.9437 -3.1077
  419MOL0     H57773   2.134   0.379   6.443 -1.7367  0.7564 -0.6319
  419MOL0     H57774   2.221   0.586   6.574  0.7060 -1.3658  0.1232
  419MOL0     H57775   2.293   0.640   6.422 -2.1735  2.6172 -1.1099
  419MOL0     H57776   2.082   0.767   6.438 -3.9600 -0.5027  0.1826
  419MOL0     H57777   2.066   0.641   6.312 -2.3986  0.0072  0.0825
  419MOL0     H57778   1.921   0.531   6.424 -0.0569  0.0965  0.8138
  419MOL0     H57779   1.992   0.555   6.582  2.7937 -0.4223  0.0542
  419MOL0     H57780   1.670   0.867   6.486 -0.5801 -0.4367 -1.0521
  419MOL0     H57781   1.297   0.813   6.552 -0.4844  0.4059 -1.6480
  419MOL0     H57782   1.417   0.904   6.465  1.3275 -4.3687 -2.2482
  419MOL0     H57783   1.410   0.930   6.640  0.4109  0.0376 -0.4067
  419MOL0     H57784   1.129   0.892   6.886 -3.6749 -0.2829 -3.5852
  419MOL0     H57785   0.970   0.853   7.080  0.7754 -0.5366  1.4606
  419MOL0     H57786   0.793   0.439   7.132 -0.8457  0.4647 -1.4101
  419MOL0     H57787   0.939   0.446   7.225 -0.0040  1.9572 -0.5575
  419MOL0     H57788   0.658   0.543   7.296  1.8917  1.8962 -1.9063
  419MOL0     H57789   0.716   0.381   7.340  2.6959 -1.0171  2.7784
  419MOL0     H57790   0.847   0.643   7.437 -1.9278  0.3092  1.4126
  419MOL0     H57791   0.874   0.475   7.500 -1.7303 -2.5423  1.9371
  419MOL0     H57792   0.599   0.492   7.539  1.0789  1.2217 -1.1289
  419MOL0     H57793   0.634   0.650   7.554 -3.5954 -2.0193 -3.1883
  419MOL0     H57794   0.795   0.416   7.698  1.4176  0.9137 -2.2067
  419MOL0     H57795   0.816   0.591   7.717  2.1693 -0.5107  0.7868
  419MOL0     H57796   0.537   0.516   7.772  0.1443  0.3868  2.9128
  419MOL0     H57797   0.635   0.644   7.823  0.7046  0.0798 -1.1819
  419MOL0     H57798   0.768   0.482   7.965 -0.6271 -1.6022  0.4671
  419MOL0     H57799   0.665   0.353   7.890 -0.5317  0.7422 -2.9012
  419MOL0     H57800   0.482   0.437   8.006 -0.5692  3.3745 -0.7072
  419MOL0     H57801   0.589   0.555   8.095  1.7621  0.6262 -1.4764
  419MOL0     H57802   0.940   0.447   6.979  5.0502 -2.7305  1.7162
  419MOL0     H57803   1.124   0.478   6.799  1.1473 -0.0082 -0.1858
  419MOL0     H57804   1.579   0.455   6.726 -2.6346  3.6781  2.8955
  419MOL0     H57805   1.786   0.465   6.602 -0.7678 -0.6883  0.5116
  419MOL0     H57806   3.172   0.588   5.572 -0.1407 -0.4040 -0.2374
  419MOL0     H57807   3.414   0.565   5.602  1.7993 -1.1565 -0.2428
  419MOL0     H57808   3.823   0.386   5.411 -0.0397  1.1396 -0.2582
  419MOL0     H57809   4.052   0.376   5.447  0.0948 -0.0616  0.3599
  419MOL0     H57810   4.368   0.280   5.600 -1.2711 -1.6721  1.8443
  419MOL0     H57811   4.247   0.287   5.483  0.4069 -0.1384  0.4081
  419MOL0     H57812   4.191   0.524   5.563  0.1241 -0.6446  1.2694
  419MOL0     H57813   4.361   0.504   5.505 -2.6092  0.4011 -3.1674
  419MOL0     H57814   4.249   0.588   5.770 -0.0714  1.7840 -2.0958
  419MOL0     H57815   4.375   0.455   5.779 -0.4585 -0.3768  0.4881
  419MOL0     H57816   4.537   0.567   5.683 -1.0679 -0.9464  0.6958
  419MOL0     H57817   4.459   0.689   5.793  1.2524  2.9980 -0.9375
  419MOL0     H57818   4.386   0.879   5.434  3.0529  0.4576 -1.0505
  419MOL0     H57819   3.996   0.239   5.850  1.3414 -3.4894 -1.4779
  419MOL0     H57820   3.695   0.160   5.862 -0.9223  0.7872 -0.8529
  419MOL0     H57821   3.818   0.255   5.960 -0.9497 -1.3687  0.8796
  419MOL0     H57822   3.670   0.328   5.898 -0.7012 -0.5682 -0.6085
  420MOL0     O57823   3.599   2.450  10.439 -0.4231  0.8039  0.0455
  420MOL0     C57824   3.539   2.539  10.384  0.1203  0.3692 -0.1985
  420MOL0     O57825   3.503   2.549  10.257  0.1294 -0.6826 -0.0615
  420MOL0     C57826   3.535   2.449  10.165 -0.5930 -0.3033 -0.1277
  420MOL0     C57827   3.479   2.319  10.174  0.0209 -0.0975 -1.0801
  420MOL0     C57828   3.516   2.226  10.074  0.1595 -0.2352  1.0022
  420MOL0     C57829   3.617   2.252   9.977 -0.3423  0.2842  0.1568
  420MOL0     O57830   3.659   2.149   9.899 -0.4298 -0.2135 -0.0079
  420MOL0     C57831   3.796   2.108   9.899 -0.5587 -0.5409 -0.2010
  420MOL0     C57832   3.873   2.115   9.763  0.0984 -0.1755  0.3211
  420MOL0     C57833   3.790   2.070   9.643 -1.3374  1.1018 -0.6368
  420MOL0     C57834   3.696   2.175   9.600 -0.6105 -0.3674 -0.6238
  420MOL0     C57835   3.581   2.118   9.517  0.2476 -0.6007  0.1494
  420MOL0     C57836   3.622   2.057   9.375 -0.2313 -0.0059 -0.0951
  420MOL0     C57837   3.506   1.995   9.294  0.1100  0.3136  0.1475
  420MOL0     C57838   3.431   2.101   9.218  0.1487 -0.3135 -0.8724
  420MOL0     N57839   3.289   2.104   9.277  0.0121  0.2341 -0.3993
  420MOL0     C57840   3.183   2.020   9.240 -0.5000 -0.9855 -0.6151
  420MOL0     C57841   3.075   2.078   9.294  0.0699 -0.5819 -0.3902
  420MOL0     C57842   2.936   2.026   9.278  0.8796 -0.0015  0.5085
  420MOL0     C57843   2.845   2.132   9.346  0.3139 -0.6064  0.0769
  420MOL0     C57844   2.703   2.072   9.365 -0.7260 -0.2599 -0.1217
  420MOL0     C57845   2.612   2.130   9.249  0.2551 -0.1960 -0.4900
  420MOL0     O57846   2.483   2.145   9.288  0.4362  1.1314  0.7553
  420MOL0     C57847   2.386   2.044   9.305 -0.0681  0.3445  0.2165
  420MOL0     C57848   2.382   1.928   9.224 -0.0887 -0.1300 -0.0134
  420MOL0     C57849   2.287   1.824   9.250  0.4995  0.6780  0.2686
  420MOL0     C57850   2.287   1.693   9.175 -0.0662 -0.4978  0.3660
  420MOL0     C57851   2.185   1.846   9.353 -0.9369  0.3889 -0.7302
  420MOL0     C57852   2.098   1.735   9.400 -0.3598 -0.3400 -0.0294
  420MOL0     O57853   2.155   1.613   9.443 -0.6569  0.2032  0.5240
  420MOL0     C57854   2.070   1.513   9.473 -0.5517  0.0285  0.3349
  420MOL0     C57855   2.075   1.391   9.410  0.3069 -0.1751 -0.1101
  420MOL0     C57856   1.996   1.280   9.455 -0.2223 -0.1303 -0.9900
  420MOL0     C57857   1.915   1.292   9.576  0.2925 -0.8115  0.9511
  420MOL0     O57858   1.848   1.190   9.637  0.5845  0.0813 -0.2090
  420MOL0     C57859   1.791   1.085   9.559  0.2801 -0.2181  0.7684
  420MOL0     C57860   1.878   0.963   9.538  0.0553 -0.0770 -0.1822
  420MOL0     C57861   1.829   0.891   9.404  0.1296  0.0643  0.3682
  420MOL0     C57862   1.905   0.776   9.373 -0.4187  0.0532  0.6745
  420MOL0     C57863   1.967   0.772   9.230 -0.5485 -1.2024 -0.7428
  420MOL0     C57864   2.046   0.648   9.201 -0.3676 -0.3378  0.7155
  420MOL0     C57865   2.157   0.610   9.304 -1.1517 -0.4443  0.0490
  420MOL0     C57866   2.257   0.498   9.278  0.3743 -1.1339 -0.3149
  420MOL0    Cl57867   2.201   0.350   9.347  0.0908 -0.3131 -0.0803
  420MOL0     C57868   1.908   1.414   9.641 -0.2624 -0.7511  0.4388
  420MOL0     C57869   1.981   1.526   9.584 -0.3477 -0.3203  0.6244
  420MOL0     O57870   1.979   1.770   9.397  0.4881  0.8805  0.0508
  420MOL0     C57871   2.190   1.967   9.416  1.0783 -0.3194  0.0145
  420MOL0     C57872   2.294   2.067   9.401 -0.7002 -0.1087  0.7488
  420MOL0     N57873   3.117   2.192   9.366  0.3593 -0.1746 -0.3416
  420MOL0     N57874   3.242   2.200   9.352 -0.4393 -0.0812  0.1400
  420MOL0     C57875   3.670   2.382   9.971  0.7251  0.0301  0.3845
  420MOL0     C57876   3.626   2.475  10.063 -0.5356  0.9405 -0.7431
  420MOL0     C57877   3.515   2.658  10.473 -0.5945  0.2777 -0.1086
  420MOL0     C57878   3.611   2.705  10.564 -0.3127  0.5724  0.9452
  420MOL0     C57879   3.586   2.828  10.643 -0.0379  0.5851 -0.1700
  420MOL0     C57880   3.467   2.890  10.628  0.7856  0.1773 -0.6442
  420MOL0     O57881   3.418   2.996  10.701 -0.8650  0.4122  0.1804
  420MOL0     C57882   3.517   3.097  10.734 -0.0755 -0.2932  0.3011
  420MOL0     C57883   3.438   3.236  10.744  1.4301  0.4398 -0.5471
  420MOL0     C57884   3.394   3.285  10.604 -0.6982  0.2199 -0.4942
  420MOL0     C57885   3.331   3.429  10.611 -0.2465  0.4041 -0.1886
  420MOL0     C57886   3.442   3.531  10.628 -0.0691 -0.3043  0.2830
  420MOL0     C57887   3.545   3.595  10.624  0.5628 -0.2912  0.1123
  420MOL0     C57888   3.382   2.839  10.537 -0.2939 -0.0462 -0.9677
  420MOL0     C57889   3.396   2.730  10.459  0.7696  0.0142  0.8334
  420MOL0     C57890   3.279   2.671  10.378 -0.4695 -1.1052  0.5390
  420MOL0     H57891   3.409   2.289  10.251 -1.4449  2.1498 -1.4422
  420MOL0     H57892   3.452   2.139  10.071 -3.3214  2.1592 -0.1353
  420MOL0     H57893   3.813   2.008   9.939 -1.2309 -1.2772 -1.6769
  420MOL0     H57894   3.848   2.169   9.974  2.2508  0.0302 -2.4612
  420MOL0     H57895   3.913   2.215   9.746  0.0097 -0.3004 -0.7063
  420MOL0     H57896   3.957   2.045   9.753 -0.8628 -0.9803 -3.8628
  420MOL0     H57897   3.859   2.050   9.560 -0.9719  0.8777 -0.2825
  420MOL0     H57898   3.739   1.975   9.661 -1.7145  1.1993 -1.1499
  420MOL0     H57899   3.654   2.235   9.682  1.1877 -1.8196  1.4887
  420MOL0     H57900   3.752   2.242   9.534  1.2539 -0.1774  1.0375
  420MOL0     H57901   3.515   2.205   9.506 -1.0809 -1.8735 -3.3838
  420MOL0     H57902   3.534   2.036   9.572  0.6378 -0.9248  0.0089
  420MOL0     H57903   3.670   2.133   9.313  2.1272 -0.2094  1.3469
  420MOL0     H57904   3.696   1.978   9.392 -1.4918 -2.3979 -4.3816
  420MOL0     H57905   3.445   1.921   9.348 -2.8203 -1.5217 -5.0185
  420MOL0     H57906   3.560   1.934   9.221 -1.5506 -2.8428  1.3377
  420MOL0     H57907   3.475   2.199   9.239  1.0848 -0.7201 -0.9190
  420MOL0     H57908   3.427   2.080   9.111 -0.8113 -0.7218 -0.7686
  420MOL0     H57909   3.185   1.937   9.170  0.8684 -0.3053 -1.4285
  420MOL0     H57910   2.926   1.936   9.339 -0.2112  0.0499  0.4286
  420MOL0     H57911   2.908   2.017   9.173  1.2628  3.2880  0.0143
  420MOL0     H57912   2.886   2.152   9.446 -1.3987  2.2452  0.3075
  420MOL0     H57913   2.846   2.232   9.303  1.9344  1.4438  4.2759
  420MOL0     H57914   2.693   1.963   9.366  0.5938 -0.4734  3.4137
  420MOL0     H57915   2.674   2.120   9.459 -2.2959  1.2191 -1.2762
  420MOL0     H57916   2.650   2.231   9.230  0.0614  0.0519  0.3684
  420MOL0     H57917   2.618   2.079   9.153 -3.2559 -0.6536 -0.6015
  420MOL0     H57918   2.445   1.919   9.136  0.8016 -1.5615  0.7236
  420MOL0     H57919   2.210   1.622   9.204  0.6619 -1.4374  0.0549
  420MOL0     H57920   2.385   1.646   9.185  0.2292  0.2203  0.9885
  420MOL0     H57921   2.280   1.720   9.069 -1.2269 -0.7351  0.3679
  420MOL0     H57922   2.151   1.384   9.332 -1.0937 -2.6970 -1.3764
  420MOL0     H57923   1.999   1.186   9.400  0.7305  0.7050 -2.4608
  420MOL0     H57924   1.699   1.051   9.607  0.6887 -0.5740  1.3208
  420MOL0     H57925   1.756   1.124   9.464  1.3731 -1.1952 -0.0631
  420MOL0     H57926   1.982   0.991   9.518 -0.4608  0.1993 -3.0055
  420MOL0     H57927   1.874   0.888   9.617 -0.2551 -0.3750 -0.4795
  420MOL0     H57928   1.842   0.958   9.318  0.8628 -0.9983 -0.3798
  420MOL0     H57929   1.725   0.858   9.411  0.1483  0.0985  0.8559
  420MOL0     H57930   1.844   0.686   9.379  1.7017 -1.3829  2.3301
  420MOL0     H57931   1.978   0.753   9.451 -0.6226 -0.7261  0.6366
  420MOL0     H57932   1.899   0.777   9.144  1.8803  2.1616 -2.7208
  420MOL0     H57933   2.016   0.870   9.224 -1.4931 -0.7398 -1.1452
  420MOL0     H57934   2.081   0.660   9.098 -1.3590  3.4119  0.6800
  420MOL0     H57935   1.968   0.571   9.211 -0.1329 -0.6321  0.3079
  420MOL0     H57936   2.114   0.585   9.401  0.5110  1.1172  1.2518
  420MOL0     H57937   2.216   0.701   9.317 -0.8862 -0.8121  1.6054
  420MOL0     H57938   2.354   0.531   9.314 -0.3296 -0.2920  0.8674
  420MOL0     H57939   2.261   0.479   9.170  0.1752 -3.4947  0.0288
  420MOL0     H57940   1.848   1.424   9.731 -0.7224 -0.9680  0.1641
  420MOL0     H57941   1.971   1.625   9.628  2.3965  0.1430  0.3733
  420MOL0     H57942   2.133   1.973   9.508  0.7438  1.1425 -0.2781
  420MOL0     H57943   2.298   2.158   9.460  0.1560 -1.2571  2.5636
  420MOL0     H57944   3.744   2.403   9.895  0.2909 -2.1148 -0.7133
  420MOL0     H57945   3.662   2.577  10.077 -3.3804  1.7843  1.5920
  420MOL0     H57946   3.699   2.644  10.580 -0.6840 -0.9102 -2.1626
  420MOL0     H57947   3.664   2.866  10.708  0.1906  1.0336 -0.6953
  420MOL0     H57948   3.562   3.058  10.825 -2.6557 -1.3722  1.2159
  420MOL0     H57949   3.594   3.104  10.656 -0.1303  0.0408  0.2772
  420MOL0     H57950   3.497   3.315  10.790 -0.1284  1.3867 -0.0879
  420MOL0     H57951   3.340   3.236  10.792  2.1205  2.4661  1.0071
  420MOL0     H57952   3.485   3.286  10.545 -0.6370  1.7015 -0.4248
  420MOL0     H57953   3.315   3.229  10.553 -2.2283  1.0134  0.8904
  420MOL0     H57954   3.258   3.435  10.692  1.2183 -0.6800  1.2864
  420MOL0     H57955   3.275   3.447  10.518 -2.1136 -1.9110  0.3890
  420MOL0     H57956   3.627   3.660  10.603  0.2142  0.2322  0.3318
  420MOL0     H57957   3.283   2.880  10.520 -1.1239 -1.1159  0.9730
  420MOL0     H57958   3.299   2.724  10.285 -0.7131  0.2749  1.2437
  420MOL0     H57959   3.280   2.562  10.367 -3.8892 -1.0590 -1.8947
  420MOL0     H57960   3.182   2.704  10.416  0.6212  2.9617  0.2315
  421MOL0     O57961   7.006   2.240   9.852  0.6388  0.2588  0.8436
  421MOL0     C57962   6.951   2.346   9.884  0.4122 -0.3246  0.6640
  421MOL0     O57963   6.814   2.380   9.863 -0.3804  0.0033  0.2941
  421MOL0     C57964   6.718   2.294   9.818 -0.1201  0.2638 -0.3738
  421MOL0     C57965   6.597   2.346   9.773 -0.3632  0.0341 -0.2794
  421MOL0     C57966   6.494   2.266   9.731  0.5020  0.5753 -0.2886
  421MOL0     C57967   6.486   2.117   9.743 -0.0892 -0.1623  1.2810
  421MOL0     O57968   6.386   2.035   9.693 -0.2342 -0.6350  0.9242
  421MOL0     C57969   6.415   1.900   9.661 -0.2635 -0.6279 -0.2742
  421MOL0     C57970   6.350   1.794   9.748  0.4652 -0.4295  0.1430
  421MOL0     C57971   6.198   1.804   9.766  0.6252  0.3023  0.1639
  421MOL0     C57972   6.168   1.686   9.867  1.6199  0.3373 -0.0877
  421MOL0     C57973   6.016   1.656   9.867  0.7112 -0.8858 -0.0293
  421MOL0     C57974   5.951   1.727   9.984 -0.0527  0.6148 -0.5718
  421MOL0     C57975   5.793   1.727   9.976 -0.9958  1.1821  0.2120
  421MOL0     C57976   5.727   1.784  10.095 -0.0664 -0.7599  0.1535
  421MOL0     N57977   5.787   1.907  10.151  0.2639 -0.6769  0.0680
  421MOL0     C57978   5.772   2.036  10.097  0.2851  0.1652 -0.3850
  421MOL0     C57979   5.860   2.118  10.168 -0.4460 -0.8689  0.7253
  421MOL0     C57980   5.883   2.268  10.147 -0.7011  0.2108 -0.0420
  421MOL0     C57981   5.811   2.375  10.237  0.9917  1.1149 -0.0135
  421MOL0     C57982   5.804   2.510  10.166 -0.2660  0.0947  0.8420
  421MOL0     C57983   5.922   2.589  10.188 -1.0310  0.1081  0.0782
  421MOL0     O57984   5.895   2.720  10.146 -0.3359 -0.0846 -0.5862
  421MOL0     C57985   5.871   2.812  10.245  0.1267 -0.4527  0.0316
  421MOL0     C57986   5.849   2.787  10.377  0.7877 -0.3082 -0.3756
  421MOL0     C57987   5.830   2.889  10.466  0.1881  0.2657 -0.0255
  421MOL0     C57988   5.807   2.850  10.613  0.4469  0.5211 -0.3729
  421MOL0     C57989   5.830   3.026  10.418 -0.1965 -0.4191 -0.1779
  421MOL0     C57990   5.810   3.140  10.517 -0.8542  0.2023 -0.1286
  421MOL0     O57991   5.793   3.257  10.453 -0.1560 -0.8885  0.2753
  421MOL0     C57992   5.786   3.381  10.503  1.4966 -0.2582  0.0158
  421MOL0     C57993   5.786   3.422  10.641 -0.1489  0.0825  0.4506
  421MOL0     C57994   5.747   3.556  10.677 -0.1790 -0.0517  0.0499
  421MOL0     C57995   5.716   3.654  10.577  0.6035 -1.2674 -0.0452
  421MOL0     O57996   5.688   3.781  10.622 -0.1626 -0.2344 -0.7298
  421MOL0     C57997   5.720   3.897  10.541 -0.0642  0.0732  1.0383
  421MOL0     C57998   5.720   4.017  10.634 -0.1817  0.4275  0.0578
  421MOL0     C57999   5.590   4.038  10.715 -0.0426 -0.8928  0.3474
  421MOL0     C58000   5.598   4.177  10.775  1.2177  0.1473 -1.0006
  421MOL0     C58001   5.465   4.211  10.848  0.3415  0.1070  0.4331
  421MOL0     C58002   5.363   4.274  10.747 -0.1172 -0.2945  1.5810
  421MOL0     C58003   5.387   4.414  10.700 -0.2397 -0.2990 -0.9648
  421MOL0     C58004   5.262   4.477  10.640  0.1542  0.3615  1.0147
  421MOL0    Cl58005   5.303   4.647  10.597 -0.0388  0.4186 -0.4150
  421MOL0     C58006   5.732   3.611  10.439 -0.5557 -1.4018 -0.4196
  421MOL0     C58007   5.750   3.478  10.400 -0.2578 -0.1884  0.8336
  421MOL0     O58008   5.825   3.129  10.637 -0.4162  0.3935 -0.5865
  421MOL0     C58009   5.853   3.052  10.285  0.3973  0.1679 -0.8086
  421MOL0     C58010   5.878   2.949  10.200 -0.5912  0.6137  0.3302
  421MOL0     N58011   5.923   2.037  10.262 -0.4406 -0.2038 -0.0227
  421MOL0     N58012   5.880   1.915  10.252 -0.1290  0.0696 -0.7114
  421MOL0     C58013   6.611   2.073   9.791 -0.4361  0.3044 -1.1086
  421MOL0     C58014   6.730   2.148   9.827  1.1995 -0.0386  0.0434
  421MOL0     C58015   7.025   2.463   9.938  0.2771  0.7106  0.4267
  421MOL0     C58016   6.953   2.581   9.977 -0.2443 -0.3073  0.3217
  421MOL0     C58017   7.020   2.691  10.037  0.5793 -0.5860  0.6827
  421MOL0     C58018   7.161   2.686  10.052 -0.0211  0.6235  0.5464
  421MOL0     O58019   7.227   2.797  10.100 -1.1070  0.2360  0.6135
  421MOL0     C58020   7.338   2.779  10.180  0.9712 -0.2318 -0.2496
  421MOL0     C58021   7.361   2.908  10.251 -0.0745  0.0542  0.2513
  421MOL0     C58022   7.248   2.921  10.361  0.3627  0.4884 -0.2663
  421MOL0     C58023   7.246   3.057  10.427 -0.2357 -0.2687  0.6101
  421MOL0     C58024   7.146   3.052  10.525  0.3899  0.0057 -0.1590
  421MOL0     C58025   7.052   3.040  10.600 -0.8267 -0.0013  0.4821
  421MOL0     C58026   7.231   2.562  10.028  0.6242  0.3404  0.2474
  421MOL0     C58027   7.166   2.459   9.959  0.0713  0.2927  0.0893
  421MOL0     C58028   7.254   2.349   9.910  0.7841  0.0618  0.2911
  421MOL0     H58029   6.595   2.455   9.769 -0.1660  0.0601  0.3647
  421MOL0     H58030   6.413   2.315   9.678 -0.0512  1.1021  1.0154
  421MOL0     H58031   6.523   1.883   9.655  0.1245  1.9240 -2.2099
  421MOL0     H58032   6.369   1.878   9.565 -3.0793  0.6038  0.6630
  421MOL0     H58033   6.393   1.702   9.707  3.6678  2.0529 -2.5983
  421MOL0     H58034   6.399   1.806   9.846  1.0306  5.9925 -0.5074
  421MOL0     H58035   6.165   1.905   9.787 -2.0589 -0.1807 -1.2833
  421MOL0     H58036   6.148   1.772   9.674  1.4422  0.5729 -0.3926
  421MOL0     H58037   6.224   1.599   9.831  2.5856  1.3296 -1.1060
  421MOL0     H58038   6.204   1.712   9.967  2.6854  0.6565 -0.5416
  421MOL0     H58039   6.002   1.547   9.873 -0.8639 -0.7251 -0.3373
  421MOL0     H58040   5.971   1.690   9.773 -1.3745  2.0584  1.8732
  421MOL0     H58041   5.990   1.677  10.073  1.8955  2.3437 -0.3653
  421MOL0     H58042   5.996   1.827   9.987 -1.4930  1.2691  0.5282
  421MOL0     H58043   5.756   1.624   9.973  1.2185  0.3121  0.5719
  421MOL0     H58044   5.774   1.780   9.882  0.7977  2.2265  0.3808
  421MOL0     H58045   5.636   1.828  10.053 -0.4993 -0.1745  1.6451
  421MOL0     H58046   5.700   1.707  10.167  2.0799 -2.5575 -0.8617
  421MOL0     H58047   5.712   2.047  10.007 -2.6458 -0.8334  1.3261
  421MOL0     H58048   5.876   2.297  10.042 -1.0384  1.0278  0.2053
  421MOL0     H58049   5.985   2.282  10.184 -0.7308 -0.7109  0.4305
  421MOL0     H58050   5.711   2.336  10.255  1.9531 -1.9250 -0.5910
  421MOL0     H58051   5.873   2.395  10.325  1.0650  0.1596  0.1585
  421MOL0     H58052   5.780   2.500  10.060  0.6034 -3.8130  0.8535
  421MOL0     H58053   5.725   2.573  10.208  0.4414 -0.2285  2.7828
  421MOL0     H58054   5.950   2.584  10.294 -1.9567 -0.8099  0.3060
  421MOL0     H58055   6.006   2.542  10.136 -1.4532 -0.6217  0.0339
  421MOL0     H58056   5.852   2.691  10.427 -1.7689  1.0182  2.7733
  421MOL0     H58057   5.718   2.895  10.657 -0.9833 -0.8829 -1.6785
  421MOL0     H58058   5.895   2.873  10.673  0.5099 -0.8042  0.0807
  421MOL0     H58059   5.787   2.743  10.628  3.0206 -0.0246 -0.2884
  421MOL0     H58060   5.802   3.359  10.727 -1.5924  1.0231  1.4726
  421MOL0     H58061   5.765   3.593  10.777  7.4546 -0.4541 -0.5788
  421MOL0     H58062   5.814   3.880  10.489  1.2992  0.1947  3.3278
  421MOL0     H58063   5.643   3.925  10.469  0.4978  0.8299  0.7154
  421MOL0     H58064   5.803   3.990  10.700  1.6536 -2.8603 -3.2703
  421MOL0     H58065   5.748   4.110  10.583  3.3484 -0.9207 -0.7996
  421MOL0     H58066   5.590   3.966  10.798  0.4591  2.2012  3.2246
  421MOL0     H58067   5.498   4.032  10.656 -0.4679  2.1932  0.5415
  421MOL0     H58068   5.609   4.259  10.704  0.1552 -0.1033 -1.4879
  421MOL0     H58069   5.675   4.174  10.852  2.0947 -0.8834 -1.8679
  421MOL0     H58070   5.412   4.121  10.882  1.4893 -0.7594  0.0156
  421MOL0     H58071   5.486   4.281  10.928  1.5924 -1.2812  1.3778
  421MOL0     H58072   5.266   4.267  10.796 -1.3123  0.9378 -0.4699
  421MOL0     H58073   5.347   4.207  10.662 -0.9965  0.6079  1.0180
  421MOL0     H58074   5.475   4.417  10.634  0.1647 -0.2959 -0.4355
  421MOL0     H58075   5.396   4.470  10.793 -0.1061 -1.1829 -0.4355
  421MOL0     H58076   5.172   4.463  10.701  0.3017  0.3512  1.2332
  421MOL0     H58077   5.233   4.420  10.552 -4.3560  1.1388  1.7393
  421MOL0     H58078   5.718   3.680  10.357 -3.5538 -2.6064 -1.0269
  421MOL0     H58079   5.731   3.446  10.298 -0.8551  4.6781 -0.8538
  421MOL0     H58080   5.847   3.156  10.255 -1.5786  0.0875 -0.8599
  421MOL0     H58081   5.893   2.959  10.093  1.2116 -2.0646  0.2496
  421MOL0     H58082   6.608   1.968   9.818  0.7953  0.0981 -1.6954
  421MOL0     H58083   6.809   2.093   9.878  1.3929 -1.2166 -1.4728
  421MOL0     H58084   6.846   2.580   9.959 -0.0055 -4.7957 -2.5926
  421MOL0     H58085   6.947   2.764  10.070 -0.5906 -0.2210 -2.3753
  421MOL0     H58086   7.335   2.687  10.239 -0.5014 -0.5158 -0.7272
  421MOL0     H58087   7.426   2.764  10.116 -0.2385 -2.7383 -1.4571
  421MOL0     H58088   7.360   2.987  10.176 -1.8286 -0.5945 -0.4858
  421MOL0     H58089   7.458   2.916  10.301 -0.1161  1.7245  0.1214
  421MOL0     H58090   7.150   2.902  10.315 -0.2864 -0.6108  1.4662
  421MOL0     H58091   7.271   2.836  10.426  2.7907 -2.2178 -4.1932
  421MOL0     H58092   7.226   3.136  10.354  1.2839 -0.8925 -0.5439
  421MOL0     H58093   7.338   3.087  10.478 -0.2317  0.6474  0.0976
  421MOL0     H58094   6.981   3.011  10.675 -3.3445 -1.1865 -2.1975
  421MOL0     H58095   7.334   2.547  10.061  0.7928 -0.1046 -0.4490
  421MOL0     H58096   7.256   2.332   9.802  3.5416  0.3491  0.2332
  421MOL0     H58097   7.355   2.348   9.952  1.0930 -1.8500 -0.3811
  421MOL0     H58098   7.227   2.250   9.949  0.5842 -0.5250 -1.2575
  422MOL0     O58099   9.830   1.355   2.406  0.6831  0.4338  0.0947
  422MOL0     C58100   9.824   1.280   2.311  0.4950  0.1652 -0.4944
  422MOL0     O58101   9.834   1.145   2.320 -0.4379  0.3744 -0.5213
  422MOL0     C58102   9.871   1.072   2.426 -0.3346 -0.2933 -0.9564
  422MOL0     C58103   9.852   0.936   2.403 -0.5485 -0.1198 -0.0022
  422MOL0     C58104   9.900   0.850   2.500 -1.2038  1.0759 -0.5435
  422MOL0     C58105   9.954   0.880   2.628 -0.1350  0.8301 -0.4559
  422MOL0     O58106  10.005   0.796   2.713  0.3745  0.2173 -0.0742
  422MOL0     C58107   9.897   0.740   2.792 -0.1669 -0.2399  0.2043
  422MOL0     C58108   9.949   0.633   2.892 -1.1220  0.1467 -0.3454
  422MOL0     C58109   9.837   0.593   2.992  0.2147  0.3078 -0.2775
  422MOL0     C58110   9.902   0.515   3.112 -1.1445 -0.5376 -0.0474
  422MOL0     C58111   9.801   0.486   3.223  0.1680  0.1633 -0.9662
  422MOL0     C58112   9.733   0.354   3.205 -0.7513  0.2134 -0.4024
  422MOL0     C58113   9.602   0.345   3.280 -0.3489  0.0257  0.0370
  422MOL0     C58114   9.619   0.304   3.432 -0.0739 -0.2075  0.8975
  422MOL0     N58115   9.488   0.264   3.481  0.5582  0.4940 -0.7361
  422MOL0     C58116   9.391   0.352   3.546 -0.0561  0.4997 -0.1651
  422MOL0     C58117   9.320   0.259   3.613 -0.3174 -0.5395  0.1837
  422MOL0     C58118   9.220   0.313   3.711 -0.0203 -0.0699  0.2156
  422MOL0     C58119   9.222   0.248   3.852 -0.4214 -0.7239 -0.4041
  422MOL0     C58120   9.134   0.113   3.838 -0.1722  1.1728 -0.4340
  422MOL0     C58121   8.986   0.132   3.878 -0.9394 -0.1749  0.5702
  422MOL0     O58122   8.983   0.103   4.019 -0.4615  0.2964  0.2238
  422MOL0     C58123   8.863   0.115   4.085 -0.7605 -0.5944 -0.1896
  422MOL0     C58124   8.740   0.183   4.035 -0.7067  0.4342 -0.0579
  422MOL0     C58125   8.631   0.203   4.111 -0.4466  0.3001  0.5549
  422MOL0     C58126   8.519   0.287   4.060  1.1014  0.3042  0.1455
  422MOL0     C58127   8.636   0.149   4.244 -0.6591 -0.1693 -0.2412
  422MOL0     C58128   8.532   0.160   4.341 -0.7696  0.0788 -0.7145
  422MOL0     O58129   8.578   0.160   4.470 -0.0532  0.3705  0.5023
  422MOL0     C58130   8.481   0.184   4.570 -0.3010 -0.0698 -0.3527
  422MOL0     C58131   8.501   0.294   4.660  0.1612  0.7865  0.0534
  422MOL0     C58132   8.404   0.332   4.755 -0.5345  0.7231 -1.0086
  422MOL0     C58133   8.288   0.258   4.780  0.2181 -0.1268 -0.1203
  422MOL0     O58134   8.186   0.286   4.865  0.1720  1.4058  0.2878
  422MOL0     C58135   8.206   0.381   4.964  0.0747 -0.0647  0.0773
  422MOL0     C58136   8.095   0.396   5.070  0.0244  0.8609 -0.3464
  422MOL0     C58137   7.975   0.467   5.001  0.2032 -0.1261  1.0717
  422MOL0     C58138   7.860   0.474   5.100  0.4411  0.0636  1.4410
  422MOL0     C58139   7.725   0.524   5.033 -0.5968 -0.7990  0.4770
  422MOL0     C58140   7.626   0.554   5.139  0.4522 -0.2986 -0.8088
  422MOL0     C58141   7.643   0.690   5.195  0.1295 -0.4131  0.6997
  422MOL0     C58142   7.550   0.714   5.314 -0.2753 -0.2757 -0.1378
  422MOL0    Cl58143   7.576   0.891   5.338  0.4540 -0.2837  0.1868
  422MOL0     C58144   8.275   0.135   4.704 -0.6006 -0.5283 -1.3538
  422MOL0     C58145   8.372   0.104   4.613  0.4499  0.5114  0.6923
  422MOL0     O58146   8.417   0.182   4.308  0.0145 -0.6411 -0.3023
  422MOL0     C58147   8.743   0.074   4.285  0.4327 -0.4039  0.2848
  422MOL0     C58148   8.855   0.060   4.212 -0.0406 -0.2921  0.6100
  422MOL0     N58149   9.367   0.129   3.587 -1.1859 -0.4166 -0.7834
  422MOL0     N58150   9.470   0.135   3.506  0.9975 -0.8364 -1.1121
  422MOL0     C58151   9.953   1.017   2.655  0.8512  0.2754 -0.1984
  422MOL0     C58152   9.912   1.110   2.556  0.3025  0.8393 -0.5232
  422MOL0     C58153   9.777   1.337   2.185 -0.8378 -0.3183 -0.8636
  422MOL0     C58154   9.717   1.251   2.093  0.6120  0.4988 -0.2820
  422MOL0     C58155   9.681   1.297   1.965  0.0513  0.1158 -0.5194
  422MOL0     C58156   9.692   1.427   1.923  0.7316  0.4740  0.0133
  422MOL0     O58157   9.648   1.456   1.800 -0.4544  0.8160 -0.2437
  422MOL0     C58158   9.598   1.578   1.749  0.0261  0.1338 -0.6294
  422MOL0     C58159   9.481   1.641   1.844 -0.8864 -0.0020 -0.1053
  422MOL0     C58160   9.359   1.558   1.891 -0.1994  0.0845 -0.1908
  422MOL0     C58161   9.259   1.632   1.970  0.3738 -0.4298  0.4504
  422MOL0     C58162   9.298   1.639   2.111 -0.9686  0.9271  0.5830
  422MOL0     C58163   9.331   1.629   2.227 -0.5815  0.2749  0.5764
  422MOL0     C58164   9.746   1.519   2.016  0.1904 -0.1197  0.6549
  422MOL0     C58165   9.785   1.470   2.143  1.0094  0.1265  0.3950
  422MOL0     C58166   9.858   1.575   2.213 -0.0060  0.3643  0.8576
  422MOL0     H58167   9.825   0.900   2.304 -1.1525  0.3951 -0.0267
  422MOL0     H58168   9.888   0.745   2.476 -0.1285  1.2679 -2.1154
  422MOL0     H58169   9.838   0.683   2.719  3.2206 -0.3704 -2.6886
  422MOL0     H58170   9.841   0.825   2.833  0.5866  0.7683 -0.7974
  422MOL0     H58171   9.982   0.549   2.830 -1.3974  0.5188 -1.0081
  422MOL0     H58172  10.039   0.669   2.942  0.4876 -2.2904 -1.2739
  422MOL0     H58173   9.790   0.689   3.014  1.5742  1.1279 -0.7708
  422MOL0     H58174   9.767   0.527   2.940  0.5511  1.6174 -2.5685
  422MOL0     H58175   9.935   0.418   3.073  3.7091  0.3497  1.2457
  422MOL0     H58176   9.979   0.578   3.156 -1.3434  2.3955 -3.3712
  422MOL0     H58177   9.732   0.570   3.212 -0.6825 -0.2701  0.7716
  422MOL0     H58178   9.842   0.500   3.323  1.6113  0.7768 -1.6104
  422MOL0     H58179   9.711   0.360   3.098  2.8030  0.2490 -1.2381
  422MOL0     H58180   9.798   0.269   3.230 -1.0550 -0.5628 -2.0806
  422MOL0     H58181   9.546   0.270   3.224  1.9982  1.0502 -4.1279
  422MOL0     H58182   9.560   0.446   3.275  0.6584  0.4296 -0.5238
  422MOL0     H58183   9.687   0.219   3.427 -0.8190 -0.7534 -1.3223
  422MOL0     H58184   9.651   0.391   3.490  0.4452  0.0867  0.1908
  422MOL0     H58185   9.370   0.458   3.560 -1.4148  0.3043 -0.6034
  422MOL0     H58186   9.125   0.318   3.659 -1.6860  0.0833  3.0651
  422MOL0     H58187   9.242   0.418   3.736  2.0433 -0.0095 -1.5967
  422MOL0     H58188   9.321   0.224   3.891 -0.5096 -1.1685 -0.4427
  422MOL0     H58189   9.182   0.325   3.918  1.1851  0.5528 -0.8708
  422MOL0     H58190   9.142   0.077   3.736 -2.9298 -0.7470 -0.0759
  422MOL0     H58191   9.176   0.028   3.893 -3.2970 -0.2346 -0.0029
  422MOL0     H58192   8.955   0.235   3.859 -0.6212  0.6811  3.9996
  422MOL0     H58193   8.929   0.056   3.825 -1.4006 -0.7760  1.8672
  422MOL0     H58194   8.761   0.230   3.939 -1.0785 -2.5569 -1.6998
  422MOL0     H58195   8.432   0.230   4.026 -0.4981  2.9539 -0.4340
  422MOL0     H58196   8.556   0.348   3.976  1.1660  2.1887  1.4803
  422MOL0     H58197   8.490   0.358   4.137  1.7668  0.8804 -0.1224
  422MOL0     H58198   8.589   0.357   4.652 -0.3473  1.6225  0.8264
  422MOL0     H58199   8.432   0.412   4.823 -0.2978 -0.0089 -0.2369
  422MOL0     H58200   8.296   0.361   5.023  2.4290  0.5087 -3.0799
  422MOL0     H58201   8.224   0.468   4.902  3.4133 -0.1974  0.6952
  422MOL0     H58202   8.064   0.303   5.117 -1.1944  0.7043 -1.3940
  422MOL0     H58203   8.124   0.462   5.153  2.8896  0.9260 -1.2810
  422MOL0     H58204   7.954   0.405   4.914  2.3623 -1.4550  1.4089
  422MOL0     H58205   8.008   0.567   4.972  2.0537 -1.0583 -0.2742
  422MOL0     H58206   7.881   0.527   5.194  2.5288 -0.4296  1.2919
  422MOL0     H58207   7.845   0.371   5.135  1.6475 -0.3161  0.8891
  422MOL0     H58208   7.752   0.608   4.967 -2.2202 -1.1479 -0.7093
  422MOL0     H58209   7.690   0.442   4.970  0.0797  0.4459 -1.6273
  422MOL0     H58210   7.638   0.481   5.219 -0.8900  0.7270  0.3693
  422MOL0     H58211   7.520   0.543   5.113  0.1498  0.1584  0.1934
  422MOL0     H58212   7.620   0.763   5.117  0.5423 -0.8021  0.2071
  422MOL0     H58213   7.747   0.711   5.220  0.4637  0.7031 -1.4351
  422MOL0     H58214   7.584   0.667   5.407  0.3596  1.3225  0.4826
  422MOL0     H58215   7.447   0.686   5.293 -0.0233  0.0247 -2.0137
  422MOL0     H58216   8.191   0.069   4.725 -1.7972  0.2082 -3.5478
  422MOL0     H58217   8.358   0.020   4.545 -1.3607  1.3953 -0.0908
  422MOL0     H58218   8.732   0.011   4.373  1.0553  0.1253  0.7532
  422MOL0     H58219   8.937  -0.003   4.246 -2.2010 -1.8668  3.2945
  422MOL0     H58220   9.991   1.051   2.751 -0.9841 -0.5930  0.8955
  422MOL0     H58221   9.908   1.213   2.588  2.0562  0.3543  1.4380
  422MOL0     H58222   9.700   1.145   2.112  0.8927  0.5755  0.4238
  422MOL0     H58223   9.627   1.229   1.900 -0.9028  2.1681 -1.9832
  422MOL0     H58224   9.679   1.649   1.729 -0.9668  1.7195  0.7644
  422MOL0     H58225   9.559   1.539   1.654 -0.5089 -1.8029  0.3428
  422MOL0     H58226   9.440   1.725   1.788  1.5878 -0.0169 -2.1452
  422MOL0     H58227   9.537   1.685   1.928 -0.4438  0.8993 -0.8501
  422MOL0     H58228   9.317   1.520   1.797  1.6685 -0.4822 -0.8497
  422MOL0     H58229   9.394   1.473   1.950 -1.1442 -1.6629 -2.0294
  422MOL0     H58230   9.161   1.588   1.948 -0.5454  1.9939 -0.6028
  422MOL0     H58231   9.253   1.735   1.934  4.1427 -0.4388 -0.6142
  422MOL0     H58232   9.347   1.615   2.332 -0.6110 -0.6977  0.4688
  422MOL0     H58233   9.750   1.625   1.995 -1.7515 -0.3924 -1.4416
  422MOL0     H58234   9.882   1.657   2.143 -1.0662  0.3164  0.4120
  422MOL0     H58235   9.810   1.601   2.307 -0.8998  1.7653  0.0576
  422MOL0     H58236   9.955   1.537   2.246 -0.2460 -0.0100  1.1297
  423MOL0     O58237  10.462   2.513   4.032 -0.4646  0.2357  0.3974
  423MOL0     C58238  10.376   2.606   4.056 -1.0627  0.1862 -1.0337
  423MOL0     O58239  10.365   2.716   3.984  0.0549  0.8022  0.1910
  423MOL0     C58240  10.448   2.720   3.871  1.0178  0.2594 -0.0336
  423MOL0     C58241  10.587   2.729   3.877 -0.2107 -0.5637 -0.9192
  423MOL0     C58242  10.663   2.756   3.761 -0.3947  0.4285  1.2031
  423MOL0     C58243  10.592   2.794   3.639 -0.3775  0.9354 -0.3953
  423MOL0     O58244  10.642   2.825   3.519 -0.7001  0.1392 -0.0953
  423MOL0     C58245  10.785   2.831   3.497  0.7373  0.4813 -0.3403
  423MOL0     C58246  10.817   2.862   3.358 -1.1695 -0.5861  0.6575
  423MOL0     C58247  10.960   2.845   3.319 -0.2932  0.2503  0.5940
  423MOL0     C58248  11.037   2.973   3.353 -0.6097 -0.0870  0.7680
  423MOL0     C58249  11.190   2.975   3.306  0.0243  0.2937  0.7670
  423MOL0     C58250  11.251   3.116   3.328 -0.7157 -0.6501  0.5069
  423MOL0     C58251  11.260   3.153   3.480  0.5913 -0.2749 -0.5315
  423MOL0     C58252  11.330   3.289   3.511  0.4972 -0.5706  0.0238
  423MOL0     N58253  11.285   3.396   3.416  1.2693  0.3353 -0.0237
  423MOL0     C58254  11.189   3.491   3.449  0.1635 -0.4394 -0.1232
  423MOL0     C58255  11.184   3.579   3.345 -0.6258 -0.3414  0.2955
  423MOL0     C58256  11.094   3.702   3.331  0.4203  0.7260  0.4023
  423MOL0     C58257  11.094   3.775   3.456  0.0375  0.0898 -1.0357
  423MOL0     C58258  11.029   3.912   3.445 -0.0226  0.9923  0.1726
  423MOL0     C58259  11.059   4.003   3.557 -0.3581 -0.1758 -0.0524
  423MOL0     O58260  11.057   4.136   3.513  0.1488 -0.3601 -0.1364
  423MOL0     C58261  10.936   4.196   3.496 -0.3779 -0.7039  0.5448
  423MOL0     C58262  10.921   4.314   3.422 -0.9395  0.6165 -0.3361
  423MOL0     C58263  10.808   4.389   3.422  0.7878 -0.6712  0.2123
  423MOL0     C58264  10.817   4.528   3.356 -0.3474  0.5175  0.1188
  423MOL0     C58265  10.694   4.328   3.462  0.7213 -0.0038 -0.8466
  423MOL0     C58266  10.564   4.402   3.464 -1.1102 -0.1710 -0.4195
  423MOL0     O58267  10.477   4.367   3.363 -0.0736 -0.4082  0.7623
  423MOL0     C58268  10.363   4.447   3.357 -0.0912 -0.8153  0.5503
  423MOL0     C58269  10.349   4.533   3.254  0.2451 -1.2490 -0.4082
  423MOL0     C58270  10.230   4.608   3.253 -0.0739  1.0545 -0.0672
  423MOL0     C58271  10.126   4.602   3.349 -0.2626  0.2062  0.3867
  423MOL0     O58272  10.029   4.680   3.332  0.5893 -0.2412 -0.2202
  423MOL0     C58273   9.910   4.616   3.281  0.5855 -0.9753 -0.4736
  423MOL0     C58274   9.792   4.672   3.362  0.0111  0.5933 -0.1549
  423MOL0     C58275   9.659   4.610   3.339 -0.8017 -0.2134  0.1569
  423MOL0     C58276   9.564   4.678   3.433 -0.1738 -0.6255 -0.5111
  423MOL0     C58277   9.420   4.642   3.386 -0.8422  0.2627 -0.2281
  423MOL0     C58278   9.390   4.495   3.417  0.3275  0.1269 -0.7339
  423MOL0     C58279   9.266   4.447   3.340 -0.6289 -0.4391 -0.0079
  423MOL0     C58280   9.210   4.317   3.407  0.2621 -0.5904 -0.2058
  423MOL0    Cl58281   9.189   4.316   3.583  0.0259 -0.1981  0.1609
  423MOL0     C58282  10.138   4.503   3.445  0.4001 -0.0556 -0.1134
  423MOL0     C58283  10.263   4.430   3.453  0.6752 -0.4216  1.1982
  423MOL0     O58284  10.547   4.495   3.548  0.0649  0.0042  0.6987
  423MOL0     C58285  10.698   4.206   3.529 -0.1891  0.7408  0.3015
  423MOL0     C58286  10.819   4.139   3.540 -0.1276 -0.7595 -0.2799
  423MOL0     N58287  11.285   3.539   3.259  0.0911 -0.0885  0.3065
  423MOL0     N58288  11.338   3.427   3.296 -0.0572  0.0002 -0.2759
  423MOL0     C58289  10.455   2.786   3.642  0.1898 -0.1320  0.5487
  423MOL0     C58290  10.387   2.739   3.754 -0.2543  0.2083  0.2213
  423MOL0     C58291  10.287   2.588   4.179  0.6168  0.3464 -0.2203
  423MOL0     C58292  10.239   2.709   4.235  0.2657  0.0623 -0.1193
  423MOL0     C58293  10.183   2.715   4.370 -0.3954 -0.1223  0.3399
  423MOL0     C58294  10.157   2.590   4.431  0.9991  0.7496 -0.6780
  423MOL0     O58295  10.086   2.560   4.551  0.8164  0.1458  0.1191
  423MOL0     C58296   9.989   2.663   4.591  0.2060 -0.2158  0.3513
  423MOL0     C58297   9.893   2.597   4.685  0.7309 -0.7006  0.2057
  423MOL0     C58298   9.946   2.551   4.817 -0.0334 -0.6352 -0.1161
  423MOL0     C58299   9.861   2.437   4.882  0.7222 -0.2447  0.3142
  423MOL0     C58300   9.898   2.420   5.021 -0.8458 -0.1252 -0.9061
  423MOL0     C58301   9.924   2.415   5.140 -0.3277  0.5785  0.1183
  423MOL0     C58302  10.196   2.469   4.366 -1.0935  1.1191  1.4296
  423MOL0     C58303  10.262   2.465   4.238 -1.6479  0.4881 -1.2394
  423MOL0     C58304  10.293   2.330   4.164 -0.4742 -0.3096 -0.0536
  423MOL0     H58305  10.640   2.742   3.971  2.3532  4.6101 -2.6991
  423MOL0     H58306  10.771   2.753   3.768 -0.2283 -4.1106  0.2021
  423MOL0     H58307  10.821   2.732   3.524 -1.1196 -0.0203  0.4032
  423MOL0     H58308  10.830   2.895   3.574 -4.5296  1.2208  2.5755
  423MOL0     H58309  10.746   2.803   3.301 -0.3636  0.0072 -1.0109
  423MOL0     H58310  10.788   2.961   3.323  1.3411 -0.4365 -1.2930
  423MOL0     H58311  11.013   2.768   3.377  2.5144  0.5751 -1.3347
  423MOL0     H58312  10.972   2.817   3.214 -0.9094  0.9476  0.3264
  423MOL0     H58313  10.988   3.047   3.289  1.3556  0.2943 -0.3600
  423MOL0     H58314  11.020   2.996   3.458  1.1826 -0.5570  1.1854
  423MOL0     H58315  11.212   2.948   3.202  1.7719  0.8533  0.9630
  423MOL0     H58316  11.231   2.913   3.386  0.0342 -0.5644  0.1144
  423MOL0     H58317  11.348   3.117   3.278 -0.9632 -3.7583 -0.1995
  423MOL0     H58318  11.196   3.188   3.266  0.0388 -0.3716  0.1599
  423MOL0     H58319  11.307   3.064   3.523  0.1740  0.1186  0.7944
  423MOL0     H58320  11.155   3.163   3.509  0.1362  5.0376 -2.8075
  423MOL0     H58321  11.317   3.310   3.617 -0.0034 -1.9808  0.2653
  423MOL0     H58322  11.438   3.273   3.509  0.3728 -1.4323 -0.0440
  423MOL0     H58323  11.122   3.495   3.535 -1.8535  4.2849 -1.5985
  423MOL0     H58324  10.992   3.666   3.311  1.5054 -1.1474 -2.2943
  423MOL0     H58325  11.123   3.764   3.246  3.9049 -0.5090  0.5645
  423MOL0     H58326  11.046   3.722   3.539  1.2496 -1.7015 -1.4368
  423MOL0     H58327  11.200   3.800   3.473  0.6666 -2.6184 -0.4874
  423MOL0     H58328  11.079   3.960   3.361  0.1524 -1.6408 -1.3521
  423MOL0     H58329  10.921   3.915   3.425  0.2049  2.0063 -1.0111
  423MOL0     H58330  11.009   3.992   3.654  2.4285 -0.4008  1.4622
  423MOL0     H58331  11.161   3.975   3.583  0.4379  1.8765 -0.7619
  423MOL0     H58332  11.008   4.336   3.361 -0.7707 -2.1946 -1.2439
  423MOL0     H58333  10.863   4.520   3.257  1.7602 -2.8777  1.2030
  423MOL0     H58334  10.866   4.599   3.422  2.1082  0.8891 -1.9220
  423MOL0     H58335  10.715   4.563   3.337 -0.8132 -0.4842  0.7104
  423MOL0     H58336  10.424   4.531   3.175  0.0931 -0.0883 -0.5926
  423MOL0     H58337  10.208   4.678   3.173  0.6553  1.2421 -0.1163
  423MOL0     H58338   9.904   4.634   3.174  0.0335 -3.2812 -0.8757
  423MOL0     H58339   9.907   4.509   3.304 -2.4421 -1.2376 -1.5602
  423MOL0     H58340   9.817   4.657   3.467 -0.1706 -1.0147 -0.3284
  423MOL0     H58341   9.786   4.779   3.339 -0.5073  0.6868  0.3943
  423MOL0     H58342   9.669   4.502   3.352  0.2456  0.0204  1.5273
  423MOL0     H58343   9.627   4.628   3.236  2.1237 -0.4651 -0.8811
  423MOL0     H58344   9.577   4.787   3.436 -1.7369 -0.4377  1.1638
  423MOL0     H58345   9.577   4.637   3.534 -3.6483 -0.3602  0.1743
  423MOL0     H58346   9.358   4.712   3.442 -2.6171 -1.2786 -0.1745
  423MOL0     H58347   9.408   4.653   3.278  1.8810  2.1214 -0.4531
  423MOL0     H58348   9.381   4.484   3.526  2.4595 -0.0832 -0.5230
  423MOL0     H58349   9.465   4.417   3.401  1.5063  0.5578  2.0921
  423MOL0     H58350   9.279   4.441   3.231 -0.0114  3.0608 -0.2320
  423MOL0     H58351   9.185   4.519   3.354 -2.9022 -2.1162 -3.1415
  423MOL0     H58352   9.277   4.239   3.371 -1.4023 -0.9046 -2.8930
  423MOL0     H58353   9.107   4.307   3.371  0.2923 -1.5623 -0.0400
  423MOL0     H58354  10.066   4.487   3.524  0.7809  0.9454  0.4540
  423MOL0     H58355  10.283   4.349   3.523  0.3069 -2.9670 -1.4396
  423MOL0     H58356  10.602   4.165   3.558 -0.5982  1.7400  0.3968
  423MOL0     H58357  10.812   4.045   3.594  2.4282  0.3713  2.2219
  423MOL0     H58358  10.410   2.807   3.546 -0.7695 -1.2658  0.7347
  423MOL0     H58359  10.279   2.726   3.763  0.0903 -3.4663  0.8932
  423MOL0     H58360  10.266   2.805   4.193 -3.1091  0.9045 -0.6536
  423MOL0     H58361  10.144   2.808   4.412  2.1563  0.6249  1.2486
  423MOL0     H58362  10.034   2.750   4.639 -2.2010  0.8615  0.7689
  423MOL0     H58363   9.939   2.702   4.502 -2.5261  2.7468  2.9573
  423MOL0     H58364   9.849   2.509   4.636  4.8338 -1.9290 -1.6826
  423MOL0     H58365   9.804   2.658   4.704 -0.4998 -2.6416  1.0265
  423MOL0     H58366  10.047   2.509   4.819 -0.2032 -1.0875  2.5036
  423MOL0     H58367   9.951   2.631   4.891  0.3617 -2.2862  1.7028
  423MOL0     H58368   9.866   2.350   4.815  0.3870 -0.6878  0.8535
  423MOL0     H58369   9.756   2.469   4.881  0.0094 -2.4277 -0.8846
  423MOL0     H58370   9.961   2.423   5.240 -1.8277  1.7795  0.6082
  423MOL0     H58371  10.161   2.379   4.415  0.1437  0.6806  1.5311
  423MOL0     H58372  10.263   2.251   4.233  2.8330 -3.3137 -1.7455
  423MOL0     H58373  10.239   2.330   4.069  1.1637 -2.1720 -1.0415
  423MOL0     H58374  10.398   2.314   4.139 -0.2550  0.9962 -0.0636
  424MOL0     O58375   8.460   2.246   5.556  0.3964 -0.8878  0.0691
  424MOL0     C58376   8.433   2.129   5.527 -0.4748 -0.5499 -0.0635
  424MOL0     O58377   8.383   2.036   5.613 -0.6321 -0.1049 -0.7046
  424MOL0     C58378   8.327   2.065   5.735 -0.2914 -0.6504 -0.1981
  424MOL0     C58379   8.309   1.954   5.814  0.1027  0.7573 -0.4784
  424MOL0     C58380   8.239   1.965   5.932  0.3025  0.9824 -0.3659
  424MOL0     C58381   8.201   2.087   5.980 -0.5456  0.7260 -0.1985
  424MOL0     O58382   8.153   2.083   6.106 -0.4081  0.1022  0.3984
  424MOL0     C58383   8.087   2.196   6.163  0.0830 -0.6615 -0.7626
  424MOL0     C58384   8.076   2.202   6.312  0.1398 -0.3192  0.1335
  424MOL0     C58385   8.216   2.211   6.365  0.5660  0.3549  0.0160
  424MOL0     C58386   8.230   2.218   6.520 -0.2396 -0.7659  0.5901
  424MOL0     C58387   8.361   2.148   6.556 -0.3763  0.1919 -0.8428
  424MOL0     C58388   8.401   2.187   6.694  0.1264 -0.0845 -0.0316
  424MOL0     C58389   8.303   2.144   6.812  0.9016  0.3209 -0.0031
  424MOL0     C58390   8.359   2.190   6.947 -0.1642  0.2682 -0.4118
  424MOL0     N58391   8.489   2.118   6.979  0.4439 -0.1421 -0.6661
  424MOL0     C58392   8.615   2.179   6.982  0.1764  0.0245 -0.9569
  424MOL0     C58393   8.706   2.083   7.013 -0.2306  0.9614 -0.7537
  424MOL0     C58394   8.861   2.109   7.020  0.7703  1.0270 -0.5145
  424MOL0     C58395   8.916   2.225   6.931 -0.5462  0.7658  0.2339
  424MOL0     C58396   8.870   2.207   6.782  0.1539  0.1456  0.1474
  424MOL0     C58397   8.942   2.291   6.683 -0.1167  1.0291 -0.5128
  424MOL0     O58398   8.884   2.415   6.677 -0.0552 -0.2420  0.1387
  424MOL0     C58399   8.776   2.440   6.590 -0.3602 -0.0157  0.0158
  424MOL0     C58400   8.663   2.502   6.643  0.2983  0.2143  0.6093
  424MOL0     C58401   8.575   2.545   6.556  0.2804  0.0426 -0.9352
  424MOL0     C58402   8.441   2.596   6.615  0.7294 -1.2134 -0.2314
  424MOL0     C58403   8.583   2.527   6.414  0.5154  0.4356 -0.3052
  424MOL0     C58404   8.484   2.568   6.309 -0.1830 -0.0838  0.4265
  424MOL0     O58405   8.397   2.476   6.250  0.3844 -0.7541 -0.2593
  424MOL0     C58406   8.323   2.519   6.148  0.3895  0.3238 -0.2712
  424MOL0     C58407   8.184   2.527   6.175  0.1798 -0.2350  0.3164
  424MOL0     C58408   8.098   2.550   6.067 -0.6017  0.7575  0.1697
  424MOL0     C58409   8.148   2.578   5.931  0.5604  0.7530 -0.7009
  424MOL0     O58410   8.053   2.598   5.837  0.5558 -0.6852 -0.0560
  424MOL0     C58411   8.096   2.598   5.697 -0.3391 -0.4771  0.1150
  424MOL0     C58412   7.973   2.589   5.611 -0.3144  0.0196  0.1270
  424MOL0     C58413   7.902   2.448   5.618  0.8295  0.3454 -0.6698
  424MOL0     C58414   7.987   2.350   5.555  0.5880 -0.5651 -0.3854
  424MOL0     C58415   7.941   2.209   5.594  0.6264 -0.1529 -0.5281
  424MOL0     C58416   7.998   2.107   5.490 -0.2833  0.0014  0.1472
  424MOL0     C58417   7.961   1.964   5.546  0.2672  0.0954  0.0436
  424MOL0     C58418   8.064   1.869   5.511  0.2763  0.0911 -0.4616
  424MOL0    Cl58419   8.083   1.863   5.343 -0.4591  0.4379  0.4062
  424MOL0     C58420   8.291   2.572   5.913  0.9256  1.2249  0.7547
  424MOL0     C58421   8.374   2.548   6.021 -0.8116 -0.5423 -0.7493
  424MOL0     O58422   8.489   2.692   6.291  0.1368  0.9425 -0.1227
  424MOL0     C58423   8.689   2.452   6.366  0.7399  0.6152 -0.6150
  424MOL0     C58424   8.784   2.405   6.457 -0.9090 -0.4114  0.1945
  424MOL0     N58425   8.637   1.970   7.057 -1.0817 -0.1731  0.4996
  424MOL0     N58426   8.506   2.000   7.042  0.1177 -0.3568  0.1131
  424MOL0     C58427   8.217   2.200   5.898  0.4816 -0.3676 -0.0328
  424MOL0     C58428   8.275   2.195   5.776  0.4309  0.8494  1.2121
  424MOL0     C58429   8.455   2.081   5.384  0.4085  0.0132  0.6444
  424MOL0     C58430   8.388   1.968   5.340  0.3570 -1.1184 -0.0802
  424MOL0     C58431   8.388   1.930   5.207  0.0753  0.2589 -0.1142
  424MOL0     C58432   8.459   2.007   5.117 -0.2849 -0.1464 -1.0244
  424MOL0     O58433   8.452   1.964   4.993  0.4378 -0.3211  0.9763
  424MOL0     C58434   8.508   2.047   4.888 -0.2191  0.2592 -0.5661
  424MOL0     C58435   8.471   1.988   4.754 -0.9438  0.0848  0.3955
  424MOL0     C58436   8.512   1.841   4.741 -0.0319  0.3781 -0.2228
  424MOL0     C58437   8.505   1.791   4.598 -0.7265  1.2191  0.6301
  424MOL0     C58438   8.601   1.857   4.513 -0.5857 -0.2246  0.7044
  424MOL0     C58439   8.677   1.936   4.457  0.2835  0.1627 -0.1251
  424MOL0     C58440   8.531   2.123   5.159  0.0175  0.3747  0.0823
  424MOL0     C58441   8.529   2.159   5.293 -0.3291  0.7063  0.0007
  424MOL0     C58442   8.611   2.280   5.318  0.1875 -0.4904  0.9379
  424MOL0     H58443   8.343   1.857   5.781  2.0953  1.2158  0.1005
  424MOL0     H58444   8.232   1.872   5.987 -2.6931  0.6585 -1.1080
  424MOL0     H58445   7.986   2.208   6.123  1.2675 -0.7447 -4.0289
  424MOL0     H58446   8.127   2.291   6.127 -0.6574 -0.3672 -0.8318
  424MOL0     H58447   8.023   2.289   6.352  1.1443 -0.0996  1.0252
  424MOL0     H58448   8.026   2.110   6.346 -1.3836 -0.2612 -1.7937
  424MOL0     H58449   8.274   2.124   6.332 -0.1842 -0.0650 -0.2056
  424MOL0     H58450   8.280   2.291   6.327  1.9398 -0.4523  0.5242
  424MOL0     H58451   8.241   2.321   6.555  0.4867 -1.4626  2.5529
  424MOL0     H58452   8.138   2.179   6.563 -0.4689 -0.1885  0.6240
  424MOL0     H58453   8.444   2.169   6.488  4.9112 -0.6705  4.5038
  424MOL0     H58454   8.346   2.039   6.551 -0.4527  0.2468 -2.5486
  424MOL0     H58455   8.500   2.145   6.713 -0.0387 -0.2700  0.4259
  424MOL0     H58456   8.438   2.290   6.700  3.0347 -1.0020 -0.6304
  424MOL0     H58457   8.290   2.036   6.808  2.0752  0.1863 -1.2665
  424MOL0     H58458   8.204   2.185   6.788 -0.5615 -3.2178 -0.5885
  424MOL0     H58459   8.374   2.299   6.943  2.4675  0.0538  1.0998
  424MOL0     H58460   8.296   2.163   7.031  1.2111  2.3104  1.3979
  424MOL0     H58461   8.631   2.286   6.969  1.7980 -0.3089 -1.9053
  424MOL0     H58462   8.904   2.013   6.989 -2.6759 -2.0555  3.1956
  424MOL0     H58463   8.886   2.122   7.126  0.8543  1.3307 -0.5719
  424MOL0     H58464   8.879   2.318   6.975 -0.2122  1.3001 -0.5809
  424MOL0     H58465   9.025   2.219   6.934 -0.4444  0.4108 -2.2605
  424MOL0     H58466   8.912   2.109   6.756  0.2923  0.9976 -3.5015
  424MOL0     H58467   8.762   2.214   6.767  0.0358 -1.3150  0.2084
  424MOL0     H58468   9.047   2.309   6.709 -0.5148  1.1821  1.0673
  424MOL0     H58469   8.925   2.239   6.588  0.5171 -1.4358  0.6601
  424MOL0     H58470   8.657   2.507   6.752  1.3145  1.9091  0.6223
  424MOL0     H58471   8.417   2.697   6.578  1.1204 -1.1178 -0.2306
  424MOL0     H58472   8.454   2.610   6.723 -1.7126 -3.1250  0.3870
  424MOL0     H58473   8.358   2.526   6.605 -3.8645  3.8106 -2.6083
  424MOL0     H58474   8.143   2.500   6.271  3.2562 -1.4719  1.4108
  424MOL0     H58475   7.991   2.552   6.083 -0.8117  2.6820 -1.2646
  424MOL0     H58476   8.159   2.684   5.672  0.9180 -1.3753  0.1052
  424MOL0     H58477   8.164   2.514   5.679  0.4340 -0.4478  2.5892
  424MOL0     H58478   7.901   2.666   5.639  0.3934  0.6725  0.1773
  424MOL0     H58479   8.009   2.603   5.509 -2.4757  2.1778 -0.4321
  424MOL0     H58480   7.809   2.444   5.561  0.1174 -1.6160  0.5379
  424MOL0     H58481   7.864   2.425   5.718 -0.0196  2.0075 -0.5729
  424MOL0     H58482   8.088   2.360   5.596 -0.7094  2.2116  2.6372
  424MOL0     H58483   7.975   2.354   5.447  0.1044 -1.2891 -0.3643
  424MOL0     H58484   7.973   2.186   5.696 -0.6728 -0.3285 -0.1418
  424MOL0     H58485   7.831   2.205   5.598  0.6812 -0.8087  1.4771
  424MOL0     H58486   8.106   2.120   5.481 -0.5990  2.6443 -0.8811
  424MOL0     H58487   7.946   2.129   5.396  1.3196  0.8392 -0.5858
  424MOL0     H58488   7.867   1.929   5.501  1.4009 -3.0842 -0.1104
  424MOL0     H58489   7.942   1.961   5.653 -1.1929  0.7344 -0.1740
  424MOL0     H58490   8.032   1.773   5.553 -1.0832  0.2481 -1.0684
  424MOL0     H58491   8.163   1.884   5.555 -0.1330  0.8139  0.2485
  424MOL0     H58492   8.328   2.580   5.811  2.0825  0.4979  1.0912
  424MOL0     H58493   8.481   2.533   6.012 -0.8212 -0.0159 -1.9183
  424MOL0     H58494   8.701   2.436   6.259 -1.4203  0.5339 -0.8978
  424MOL0     H58495   8.872   2.352   6.423 -1.0453 -3.3826  3.8195
  424MOL0     H58496   8.173   2.294   5.931  3.7053  1.1693  0.3394
  424MOL0     H58497   8.291   2.282   5.712  0.5825 -1.1790 -1.7044
  424MOL0     H58498   8.326   1.914   5.412 -0.4931  0.7274  0.6547
  424MOL0     H58499   8.332   1.842   5.176  1.7499 -0.5208 -1.1039
  424MOL0     H58500   8.469   2.149   4.889 -2.0482 -0.3497  2.2716
  424MOL0     H58501   8.617   2.051   4.898 -0.3543 -0.2375  1.7379
  424MOL0     H58502   8.513   2.054   4.678 -0.8336  1.0110  1.2374
  424MOL0     H58503   8.362   1.989   4.746 -1.0709 -2.4632  0.9193
  424MOL0     H58504   8.616   1.833   4.772 -0.2064 -1.5631 -0.0415
  424MOL0     H58505   8.458   1.782   4.814  0.0184  1.0466  0.3656
  424MOL0     H58506   8.406   1.794   4.552 -0.8067  2.4527  0.8403
  424MOL0     H58507   8.527   1.684   4.598 -0.8915  0.9751 -4.0646
  424MOL0     H58508   8.751   1.984   4.398  1.3587 -2.0198 -0.6478
  424MOL0     H58509   8.590   2.173   5.082 -4.0413  2.5977 -1.8913
  424MOL0     H58510   8.689   2.305   5.246 -0.2891  1.6534  1.0963
  424MOL0     H58511   8.550   2.370   5.307  3.3810  2.0130  2.0887
  424MOL0     H58512   8.654   2.282   5.419 -0.9234  0.8939  1.4207
  425MOL0     O58513   0.215  10.491  10.734 -0.3059 -0.5072 -0.1599
  425MOL0     C58514   0.103  10.534  10.730 -1.0933 -1.0213  0.0355
  425MOL0     O58515   0.064  10.659  10.762 -0.6333  0.1704 -0.0135
  425MOL0     C58516   0.145  10.762  10.800  0.1475  0.4273 -0.4622
  425MOL0     C58517   0.227  10.821  10.703 -0.0213 -0.0360  0.1543
  425MOL0     C58518   0.299  10.930  10.738 -0.1896 -0.6562  1.0623
  425MOL0     C58519   0.285  10.998  10.862  0.3776  0.4642  1.4009
  425MOL0     O58520   0.364  11.105  10.886  0.1263 -0.2785 -0.2134
  425MOL0     C58521   0.354  11.164  11.018  0.1884  0.2416 -0.3842
  425MOL0     C58522   0.455  11.284  11.018  0.1253 -0.5690  0.4404
  425MOL0     C58523   0.455  11.405  11.093  0.0849 -0.2557 -0.4456
  425MOL0     C58524   0.566  11.492  11.027  0.5815 -0.2886  0.6242
  425MOL0     C58525   0.595  11.618  11.108  0.7843 -0.4715 -0.8278
  425MOL0     C58526   0.498  11.737  11.074  0.5384  0.2453 -0.4890
  425MOL0     C58527   0.515  11.852  11.168  1.1425 -0.6086  0.2608
  425MOL0     C58528   0.385  11.926  11.182 -0.2518 -0.0560  0.8620
  425MOL0     N58529   0.279  11.849  11.247 -0.1670  0.0412 -0.3874
  425MOL0     C58530   0.287  11.802  11.373 -0.3638  0.3278 -0.0247
  425MOL0     C58531   0.194  11.710  11.376 -0.8866  0.2244 -0.0237
  425MOL0     C58532   0.178  11.603  11.480 -0.0259  0.1141 -0.0137
  425MOL0     C58533   0.200  11.463  11.412 -0.6964 -0.0865 -0.4545
  425MOL0     C58534   0.206  11.354  11.516 -0.7862  0.0189  0.2917
  425MOL0     C58535   0.328  11.266  11.503 -0.1445 -0.0322  0.1948
  425MOL0     O58536   0.447  11.346  11.531 -1.1081 -0.0640  0.2468
  425MOL0     C58537   0.568  11.330  11.468  0.7381  0.1149  0.5151
  425MOL0     C58538   0.599  11.218  11.391  1.0792  0.1470 -0.0393
  425MOL0     C58539   0.718  11.191  11.320  0.3827  0.2969 -0.4458
  425MOL0     C58540   0.729  11.055  11.250 -0.1289 -0.7169 -0.7098
  425MOL0     C58541   0.818  11.284  11.335 -0.3811  0.7409  0.6292
  425MOL0     C58542   0.952  11.254  11.277  1.1030 -0.1475  0.3805
  425MOL0     O58543   0.994  11.132  11.271  0.1619 -0.5712  0.1154
  425MOL0     C58544   1.110  11.093  11.206 -0.5018 -0.1796  0.3305
  425MOL0     C58545   1.192  11.162  11.128  0.5308  0.5604  0.2853
  425MOL0     C58546   1.292  11.092  11.059  0.4020  0.8953 -0.0320
  425MOL0     C58547   1.322  10.959  11.069  0.0665  0.0806 -0.1949
  425MOL0     O58548   1.428  10.911  10.992 -0.0734  0.5427  0.0992
  425MOL0     C58549   1.481  10.772  11.009  0.4073 -0.8297 -0.1143
  425MOL0     C58550   1.606  10.763  10.914  0.0845 -0.4573 -1.4931
  425MOL0     C58551   1.712  10.852  10.967  0.0742  0.2193 -0.5909
  425MOL0     C58552   1.825  10.866  10.865 -0.4394  0.3867 -1.1475
  425MOL0     C58553   1.944  10.943  10.917 -0.1497  0.2688 -0.1791
  425MOL0     C58554   2.068  10.905  10.831 -0.1078  0.6384 -0.6525
  425MOL0     C58555   2.195  10.953  10.905  0.2585 -1.0243  0.2517
  425MOL0     C58556   2.298  11.013  10.806  0.3910  0.7991  0.3595
  425MOL0    Cl58557   2.440  11.054  10.892 -0.0137  0.0590  0.3229
  425MOL0     C58558   1.242  10.887  11.163  0.2382  0.3401 -0.2275
  425MOL0     C58559   1.139  10.950  11.228 -0.6210 -0.0451  0.1493
  425MOL0     O58560   1.021  11.356  11.261 -0.5923 -0.3710 -0.0605
  425MOL0     C58561   0.783  11.401  11.404  0.3809 -0.1911 -0.1660
  425MOL0     C58562   0.664  11.428  11.469  0.5193  0.4679 -0.3115
  425MOL0     N58563   0.113  11.720  11.263 -0.7702 -0.1638 -0.1868
  425MOL0     N58564   0.171  11.803  11.182  0.2079  0.0260 -0.5829
  425MOL0     C58565   0.198  10.940  10.951  0.6205  0.7783 -0.8081
  425MOL0     C58566   0.130  10.824  10.925  0.3065  0.6170  0.7150
  425MOL0     C58567   0.016  10.446  10.662 -0.0107  0.7171 -0.3764
  425MOL0     C58568   0.072  10.349  10.573 -0.5371 -0.2891 -0.3569
  425MOL0     C58569  -0.004  10.263  10.486 -0.6077 -0.7075  0.1723
  425MOL0     C58570  -0.145  10.275  10.502 -0.5538 -0.4070 -0.7914
  425MOL0     O58571  -0.225  10.205  10.417 -0.0243  0.6325  0.0934
  425MOL0     C58572  -0.183  10.087  10.348  0.7839  0.2281 -0.6331
  425MOL0     C58573  -0.160   9.971  10.445  0.5975 -0.3156  0.3989
  425MOL0     C58574  -0.209   9.842  10.371  0.3798  0.0773 -0.0263
  425MOL0     C58575  -0.191   9.711  10.455  1.1031 -0.3282  0.2372
  425MOL0     C58576  -0.047   9.677  10.454 -0.5992 -1.1117  0.1037
  425MOL0     C58577   0.068   9.647  10.446  0.1656  0.2194 -0.0288
  425MOL0     C58578  -0.203  10.345  10.606 -0.4045  0.0419 -0.8394
  425MOL0     C58579  -0.127  10.427  10.695  0.1483  0.5118 -0.7210
  425MOL0     C58580  -0.197  10.504  10.810 -0.5175  0.2022  0.3184
  425MOL0     H58581   0.243  10.784  10.602 -0.6791  1.3067 -0.4674
  425MOL0     H58582   0.370  10.961  10.662 -2.7076  1.2251 -0.7292
  425MOL0     H58583   0.388  11.091  11.092 -1.1147  0.6573  0.6560
  425MOL0     H58584   0.249  11.184  11.040 -0.0029  1.0614 -1.8742
  425MOL0     H58585   0.551  11.232  11.025  0.7994  0.2661 -1.8733
  425MOL0     H58586   0.442  11.318  10.915  1.5476 -0.5055  0.2661
  425MOL0     H58587   0.364  11.464  11.079 -0.9081 -0.8884  2.5552
  425MOL0     H58588   0.465  11.388  11.201  4.4345  0.1216 -0.6123
  425MOL0     H58589   0.661  11.437  11.023  1.4916  1.2474 -0.1450
  425MOL0     H58590   0.539  11.504  10.921  2.8315  0.2555  0.0482
  425MOL0     H58591   0.689  11.669  11.084  0.0136  0.9122 -1.0206
  425MOL0     H58592   0.598  11.586  11.213 -0.4530 -1.2905 -1.0281
  425MOL0     H58593   0.522  11.758  10.970 -1.7317  2.9434 -0.5793
  425MOL0     H58594   0.396  11.697  11.078  0.5356  0.3385  0.8096
  425MOL0     H58595   0.585  11.923  11.123 -1.3280  1.0750 -1.1748
  425MOL0     H58596   0.572  11.824  11.257  1.3454 -0.7385  0.0905
  425MOL0     H58597   0.408  12.013  11.244 -0.5171  1.8280 -1.5408
  425MOL0     H58598   0.349  11.967  11.087  0.0866 -2.2259 -0.2579
  425MOL0     H58599   0.358  11.828  11.450 -1.8202 -3.6772  3.0620
  425MOL0     H58600   0.083  11.594  11.533 -0.2110  1.9669  0.0298
  425MOL0     H58601   0.258  11.623  11.552  0.0380 -1.6269  0.4441
  425MOL0     H58602   0.120  11.445  11.339  0.2117 -1.4317 -1.1533
  425MOL0     H58603   0.290  11.465  11.350  0.2287 -2.4440  0.7126
  425MOL0     H58604   0.197  11.372  11.623 -0.2023 -1.2391  0.5719
  425MOL0     H58605   0.119  11.291  11.497  1.5582 -2.6933 -2.5581
  425MOL0     H58606   0.317  11.188  11.579 -2.4758 -0.0678 -0.1257
  425MOL0     H58607   0.321  11.223  11.403  0.3777  1.3901 -0.4879
  425MOL0     H58608   0.523  11.140  11.385 -2.7574  3.5716 -5.8788
  425MOL0     H58609   0.631  11.010  11.270 -2.5264  3.8036 -0.8227
  425MOL0     H58610   0.803  10.992  11.300 -1.2489 -1.1100  0.5008
  425MOL0     H58611   0.728  11.060  11.141 -2.2093 -1.3482 -0.7582
  425MOL0     H58612   1.173  11.268  11.116 -3.2097 -0.2653 -3.2585
  425MOL0     H58613   1.357  11.145  10.990  1.4871 -2.4099 -1.7456
  425MOL0     H58614   1.513  10.760  11.113  1.5134 -0.7045 -0.4269
  425MOL0     H58615   1.407  10.698  10.978 -1.9343  1.5422 -0.4578
  425MOL0     H58616   1.638  10.659  10.911  0.7199 -0.6271  3.1495
  425MOL0     H58617   1.571  10.808  10.821 -0.9711  5.8791  1.3641
  425MOL0     H58618   1.755  10.797  11.051  1.3808 -1.2172 -2.1311
  425MOL0     H58619   1.666  10.948  10.991 -0.5868  0.3080 -2.0994
  425MOL0     H58620   1.794  10.915  10.773  0.3802  1.3160 -0.9419
  425MOL0     H58621   1.858  10.764  10.843  1.2003 -0.0161  2.4001
  425MOL0     H58622   1.923  11.050  10.907  1.7433  0.6371 -0.6108
  425MOL0     H58623   1.968  10.940  11.024 -1.2984 -0.1547  0.0815
  425MOL0     H58624   2.050  10.951  10.734 -1.7306 -1.0749 -1.2285
  425MOL0     H58625   2.069  10.797  10.814  1.8655 -0.0495  2.8254
  425MOL0     H58626   2.214  10.870  10.973  0.1099 -0.9058  0.4393
  425MOL0     H58627   2.176  11.037  10.972 -0.7115 -2.7084  2.2234
  425MOL0     H58628   2.265  11.104  10.756  2.8446  1.4713 -0.1425
  425MOL0     H58629   2.321  10.938  10.729  2.9182  2.1924 -0.3390
  425MOL0     H58630   1.264  10.782  11.174 -2.2542 -0.3142 -0.8493
  425MOL0     H58631   1.085  10.893  11.303  2.5588 -2.9150  0.5243
  425MOL0     H58632   0.869  11.465  11.424  1.3550 -1.6672  0.5525
  425MOL0     H58633   0.641  11.514  11.531  1.4558  1.0456 -0.7389
  425MOL0     H58634   0.198  10.974  11.054  3.1262  2.5980 -1.3075
  425MOL0     H58635   0.068  10.771  10.997  0.5334  2.8547  2.6724
  425MOL0     H58636   0.178  10.330  10.559 -0.5413  0.2093 -1.1709
  425MOL0     H58637   0.033  10.202  10.404 -2.2445  1.2646 -2.2194
  425MOL0     H58638  -0.258  10.054  10.276 -0.0888 -2.3412  1.2829
  425MOL0     H58639  -0.097  10.099  10.282  0.3933 -1.6209 -1.5498
  425MOL0     H58640  -0.227   9.991  10.529  0.8616  5.3570 -0.3951
  425MOL0     H58641  -0.056   9.974  10.479  1.2388  2.6006 -1.5108
  425MOL0     H58642  -0.315   9.849  10.341  0.7177  1.0018 -1.0809
  425MOL0     H58643  -0.153   9.834  10.277  4.0317  1.7244  1.8198
  425MOL0     H58644  -0.257   9.634  10.415  0.6216 -0.1189  0.6134
  425MOL0     H58645  -0.222   9.738  10.557 -0.8213  2.7115 -1.0070
  425MOL0     H58646   0.172   9.625  10.460  0.0028 -1.7309 -1.3613
  425MOL0     H58647  -0.311  10.352  10.605 -0.5046 -1.0973  0.1062
  425MOL0     H58648  -0.214  10.612  10.801  2.9896  1.0094  1.8138
  425MOL0     H58649  -0.294  10.456  10.829 -0.0726 -0.3567  1.2123
  425MOL0     H58650  -0.142  10.493  10.903  1.6889  2.0931 -0.6524
  426MOL0     O58651   9.898   1.189   9.925  0.4012  0.9880  0.7900
  426MOL0     C58652   9.839   1.188   9.812 -0.1277  0.5559  0.0747
  426MOL0     O58653   9.734   1.107   9.772  0.0894 -0.3558  0.3321
  426MOL0     C58654   9.690   1.012   9.857  0.5871  0.7694 -0.7175
  426MOL0     C58655   9.693   0.879   9.806  0.2369 -0.5702 -0.1400
  426MOL0     C58656   9.658   0.773   9.885  0.0310  0.1453 -0.0514
  426MOL0     C58657   9.622   0.793  10.019 -0.1193  0.7325  0.3775
  426MOL0     O58658   9.588   0.689  10.105  0.0705 -0.4005  0.6941
  426MOL0     C58659   9.482   0.720  10.188 -0.2963  0.1539  0.4049
  426MOL0     C58660   9.383   0.598  10.200 -0.2068  0.0688 -0.2066
  426MOL0     C58661   9.264   0.624  10.306 -0.0533  0.6886  0.3628
  426MOL0     C58662   9.164   0.499  10.312  0.0946 -0.3492 -0.6905
  426MOL0     C58663   9.122   0.429  10.179 -0.3866 -0.0879  0.4677
  426MOL0     C58664   9.028   0.315  10.211  0.2193 -0.5648  0.4878
  426MOL0     C58665   9.016   0.225  10.084  0.1310 -0.4040  0.1383
  426MOL0     C58666   8.927   0.103  10.103  0.1851  0.5756 -0.4105
  426MOL0     N58667   8.958   0.035  10.229 -0.8432  0.1713  0.5028
  426MOL0     C58668   9.057  -0.064  10.229 -0.0104  0.2167  0.0709
  426MOL0     C58669   9.031  -0.133  10.351  0.3698 -0.0120  0.5610
  426MOL0     C58670   9.094  -0.249  10.426  0.0526 -1.5545  0.0112
  426MOL0     C58671   9.112  -0.237  10.574 -0.4446 -1.1396 -0.1124
  426MOL0     C58672   9.177  -0.366  10.623  0.6698 -1.1256 -0.1756
  426MOL0     C58673   9.189  -0.372  10.777 -0.6567  0.6637 -0.5965
  426MOL0     O58674   9.232  -0.259  10.856 -0.3819 -0.3210 -0.4301
  426MOL0     C58675   9.244  -0.285  10.994  0.4067 -0.3594  0.1281
  426MOL0     C58676   9.214  -0.407  11.057 -0.3792 -0.2192  0.1508
  426MOL0     C58677   9.249  -0.430  11.188 -1.2324 -0.5284 -0.7516
  426MOL0     C58678   9.205  -0.562  11.241  0.0242 -1.0511 -0.3106
  426MOL0     C58679   9.296  -0.324  11.273  0.6055 -0.5243 -0.0057
  426MOL0     C58680   9.350  -0.347  11.412  0.9193  0.1084  0.1194
  426MOL0     O58681   9.401  -0.233  11.469  0.2784 -0.2344 -0.5027
  426MOL0     C58682   9.459  -0.244  11.593  0.1842 -0.8778 -0.7572
  426MOL0     C58683   9.381  -0.204  11.707 -0.1521  0.0184  1.0448
  426MOL0     C58684   9.432  -0.206  11.834 -0.3643 -0.7538  0.3202
  426MOL0     C58685   9.574  -0.234  11.854 -0.0050  0.1448 -0.1867
  426MOL0     O58686   9.636  -0.235  11.979 -0.4400  0.2149 -0.8807
  426MOL0     C58687   9.562  -0.195  12.106 -0.4299  0.6314  0.1479
  426MOL0     C58688   9.538  -0.047  12.148 -0.1563  0.1052  0.0038
  426MOL0     C58689   9.647   0.043  12.091 -0.9930 -0.1727  0.2979
  426MOL0     C58690   9.744   0.109  12.193 -0.4536 -1.4527  0.4581
  426MOL0     C58691   9.841   0.008  12.245  0.4483 -0.0248  0.2355
  426MOL0     C58692   9.950  -0.031  12.140  0.2199  0.2319  0.1892
  426MOL0     C58693  10.007  -0.169  12.180 -0.8569 -0.0592  0.1322
  426MOL0     C58694  10.122  -0.208  12.086 -0.6092  1.3294  0.1756
  426MOL0    Cl58695  10.069  -0.309  11.954  0.4761  0.5633 -0.1769
  426MOL0     C58696   9.651  -0.270  11.743  1.2163  0.7253  0.1721
  426MOL0     C58697   9.601  -0.279  11.614 -0.4613  0.1423 -0.4230
  426MOL0     O58698   9.333  -0.454  11.470  0.6880  0.5017  0.2178
  426MOL0     C58699   9.299  -0.191  11.221 -1.2347  0.2349 -0.7489
  426MOL0     C58700   9.273  -0.174  11.082  0.2977  0.0913 -0.2513
  426MOL0     N58701   8.914  -0.079  10.405  0.1931  0.8307  0.1126
  426MOL0     N58702   8.873   0.020  10.329 -0.0197  0.4695 -0.6307
  426MOL0     C58703   9.634   0.920  10.070 -0.1348  0.6112 -0.1098
  426MOL0     C58704   9.653   1.032   9.993 -0.3407 -0.3323  0.2668
  426MOL0     C58705   9.898   1.286   9.716 -0.3201 -0.2617 -0.6524
  426MOL0     C58706  10.034   1.330   9.738  0.2980  0.3541  0.2379
  426MOL0     C58707  10.091   1.432   9.657  0.7071  0.5265 -0.5482
  426MOL0     C58708  10.027   1.487   9.548 -1.2292  0.9564 -0.2508
  426MOL0     O58709  10.086   1.582   9.470 -0.3188  0.2356  0.5608
  426MOL0     C58710  10.237   1.593   9.471 -0.3612  0.4367 -0.0665
  426MOL0     C58711  10.278   1.645   9.330  0.5899 -0.2079 -0.6908
  426MOL0     C58712  10.222   1.566   9.207 -0.3544  0.2575  0.8053
  426MOL0     C58713  10.231   1.413   9.211 -0.8632  0.2361  0.0467
  426MOL0     C58714  10.153   1.355   9.100 -0.3364 -0.2255 -0.4790
  426MOL0     C58715  10.077   1.290   9.041  0.0572 -0.5003 -0.0802
  426MOL0     C58716   9.898   1.451   9.530  0.0551 -0.0443  0.4828
  426MOL0     C58717   9.831   1.353   9.612  0.7685  0.1931  0.3699
  426MOL0     C58718   9.690   1.334   9.584 -0.6355 -0.1492 -0.8262
  426MOL0     H58719   9.728   0.860   9.706  1.4003  0.5717  0.0267
  426MOL0     H58720   9.659   0.674   9.840  0.4939  0.1848 -0.1366
  426MOL0     H58721   9.426   0.809  10.159 -1.0756 -0.7319 -0.8718
  426MOL0     H58722   9.519   0.745  10.288 -3.7733  0.8934  1.6532
  426MOL0     H58723   9.355   0.574  10.097  0.0475 -1.5870  0.0868
  426MOL0     H58724   9.431   0.509  10.240 -2.3297  0.6449  4.3048
  426MOL0     H58725   9.305   0.641  10.406 -2.2781  2.2741  1.0847
  426MOL0     H58726   9.205   0.712  10.279 -1.9611 -0.5357  0.3769
  426MOL0     H58727   9.206   0.418  10.373  1.0491  0.5905 -0.0501
  426MOL0     H58728   9.075   0.544  10.357 -0.6348 -0.2111 -2.2007
  426MOL0     H58729   9.218   0.387  10.148  1.2372  3.1118  0.7971
  426MOL0     H58730   9.079   0.504  10.112 -1.7961 -0.7609  0.5914
  426MOL0     H58731   9.065   0.249  10.290  2.0052 -2.9330 -2.1124
  426MOL0     H58732   8.930   0.358  10.231  0.0249  0.2737 -1.8664
  426MOL0     H58733   9.121   0.194  10.075  0.7404  1.5910 -0.2384
  426MOL0     H58734   8.974   0.281  10.000  1.4837  1.9577  0.9291
  426MOL0     H58735   8.820   0.125  10.110 -0.3495 -1.9547  0.2331
  426MOL0     H58736   8.948   0.035  10.020  4.3895 -1.7167  2.1834
  426MOL0     H58737   9.136  -0.081  10.156 -3.5332  0.2643 -4.2042
  426MOL0     H58738   9.193  -0.265  10.383  0.6338  1.5868 -0.0743
  426MOL0     H58739   9.036  -0.334  10.389  1.1672 -1.7384 -1.3709
  426MOL0     H58740   9.182  -0.157  10.599 -2.2097 -0.2244  2.2237
  426MOL0     H58741   9.016  -0.220  10.624 -1.5558 -1.6861 -1.9834
  426MOL0     H58742   9.122  -0.452  10.584 -1.6652 -0.3458  1.2241
  426MOL0     H58743   9.281  -0.361  10.587 -0.5510  1.2735 -3.9643
  426MOL0     H58744   9.082  -0.386  10.795 -0.1820  0.3200  2.5246
  426MOL0     H58745   9.254  -0.458  10.796  0.8472  0.5548 -5.1770
  426MOL0     H58746   9.168  -0.488  11.000  0.2716  0.4453 -1.3861
  426MOL0     H58747   9.162  -0.566  11.341 -0.9647 -1.9933 -0.7572
  426MOL0     H58748   9.285  -0.636  11.236  0.4746 -0.6201  0.3599
  426MOL0     H58749   9.131  -0.592  11.165  1.2240 -0.5811 -1.7124
  426MOL0     H58750   9.275  -0.184  11.700 -0.0061  0.5107  0.0925
  426MOL0     H58751   9.369  -0.178  11.918 -0.8768  4.0993 -1.3861
  426MOL0     H58752   9.464  -0.238  12.088  0.0366  0.5895 -2.7752
  426MOL0     H58753   9.607  -0.234  12.198 -2.4954 -0.3237  0.8193
  426MOL0     H58754   9.441  -0.017  12.108  0.0206  1.0113  0.2286
  426MOL0     H58755   9.543  -0.039  12.257 -2.0959 -1.6138  0.2634
  426MOL0     H58756   9.597   0.131  12.048 -0.5307  0.3809  0.8744
  426MOL0     H58757   9.697  -0.005  12.006  0.5471  1.8285  0.0074
  426MOL0     H58758   9.696   0.153  12.280  3.2795  2.0307  1.0380
  426MOL0     H58759   9.805   0.185  12.145 -2.3823  0.2547  0.6059
  426MOL0     H58760   9.887   0.051  12.335 -0.5461 -0.8302  1.1576
  426MOL0     H58761   9.798  -0.087  12.277  2.3658 -2.1276 -2.8321
  426MOL0     H58762  10.029   0.045  12.144  1.1947 -0.5208 -2.5292
  426MOL0     H58763   9.921  -0.026  12.035 -3.2478  1.5385  1.0704
  426MOL0     H58764   9.930  -0.246  12.173  0.8172 -1.6691 -1.5779
  426MOL0     H58765  10.042  -0.170  12.284 -1.5879  1.3600  0.4312
  426MOL0     H58766  10.187  -0.268  12.150 -0.3143  0.0198 -1.2826
  426MOL0     H58767  10.181  -0.119  12.061 -0.7384  1.0229 -1.3119
  426MOL0     H58768   9.757  -0.293  11.736  1.1218 -0.4555  1.9894
  426MOL0     H58769   9.662  -0.309  11.529 -0.9682  2.4112 -1.6683
  426MOL0     H58770   9.332  -0.102  11.275 -1.0510 -1.3804  1.9867
  426MOL0     H58771   9.274  -0.074  11.040 -1.4231  0.4949  0.5867
  426MOL0     H58772   9.616   0.943  10.175  0.2859  2.2751 -0.3748
  426MOL0     H58773   9.641   1.134  10.030  2.3608  0.0564  0.2881
  426MOL0     H58774  10.085   1.293   9.826 -1.1919 -3.6996 -0.4081
  426MOL0     H58775  10.194   1.453   9.686  0.8088 -0.7835  0.1066
  426MOL0     H58776  10.273   1.653   9.555 -0.5013  1.0223 -0.4183
  426MOL0     H58777  10.271   1.491   9.491 -1.7165 -0.0074  0.0519
  426MOL0     H58778  10.387   1.638   9.340  0.7504  0.3105 -1.9744
  426MOL0     H58779  10.259   1.752   9.320  0.8326  0.5325  4.1010
  426MOL0     H58780  10.123   1.603   9.177 -0.7182  1.4007  3.2225
  426MOL0     H58781  10.295   1.591   9.130  2.1850  3.7552  4.0535
  426MOL0     H58782  10.190   1.377   9.306 -1.7688  0.2700 -0.3243
  426MOL0     H58783  10.331   1.376   9.186 -1.3592 -0.4179 -1.0330
  426MOL0     H58784  10.020   1.244   8.963 -2.7208  1.2103  0.7927
  426MOL0     H58785   9.859   1.498   9.440 -0.1687  0.3369  0.7766
  426MOL0     H58786   9.628   1.335   9.674  2.0617 -1.7145  1.1913
  426MOL0     H58787   9.653   1.416   9.521 -1.5394  0.0673 -0.0533
  426MOL0     H58788   9.683   1.234   9.542  3.0614 -0.6895 -0.4492
  427MOL0     O58789   1.824   8.890   7.285  0.3438 -0.7614  0.0349
  427MOL0     C58790   1.853   8.784   7.330 -0.7291  0.8212  0.5158
  427MOL0     O58791   1.776   8.708   7.413  0.1037  0.2747  0.3000
  427MOL0     C58792   1.641   8.747   7.409 -1.5426 -0.2159  0.0394
  427MOL0     C58793   1.577   8.837   7.495 -0.0580  0.6311 -1.3022
  427MOL0     C58794   1.437   8.862   7.490 -1.7574  1.1996 -0.5253
  427MOL0     C58795   1.359   8.814   7.389  0.3131  0.3115 -0.3303
  427MOL0     O58796   1.225   8.840   7.352  0.0281  0.2141  0.8399
  427MOL0     C58797   1.149   8.919   7.441  0.8784 -0.5061  0.0862
  427MOL0     C58798   1.016   8.952   7.378  0.0789  0.5310 -0.4369
  427MOL0     C58799   1.032   9.088   7.314 -0.1372 -0.5268 -0.8296
  427MOL0     C58800   0.909   9.113   7.226 -0.6024  0.1159 -0.2204
  427MOL0     C58801   0.945   9.097   7.074 -0.1391  0.1274 -0.5365
  427MOL0     C58802   0.943   8.952   7.015  0.1500 -0.3565 -0.4873
  427MOL0     C58803   0.803   8.903   6.995  0.8465  1.3361  0.7408
  427MOL0     C58804   0.792   8.739   6.988 -0.3208  0.3054  0.2467
  427MOL0     N58805   0.707   8.691   6.884  0.4190 -0.4195  0.7072
  427MOL0     C58806   0.731   8.626   6.766 -0.0604  0.6319 -0.1536
  427MOL0     C58807   0.606   8.590   6.728  0.3331 -0.5560  0.4569
  427MOL0     C58808   0.584   8.533   6.591 -1.0383  0.2022  0.4996
  427MOL0     C58809   0.573   8.647   6.497  0.0909 -0.4887  1.2386
  427MOL0     C58810   0.581   8.601   6.352  0.3366  0.0976  0.5584
  427MOL0     C58811   0.568   8.716   6.258  0.2064 -0.1128  0.9298
  427MOL0     O58812   0.685   8.795   6.276 -0.3487  1.3361 -0.5644
  427MOL0     C58813   0.719   8.905   6.203  0.1424 -0.3718  0.0359
  427MOL0     C58814   0.856   8.939   6.217  0.4463 -0.8563  0.1410
  427MOL0     C58815   0.917   9.043   6.145  0.5271 -0.5235  0.6997
  427MOL0     C58816   1.061   9.075   6.179 -0.0665  0.7030 -1.0361
  427MOL0     C58817   0.840   9.110   6.051  0.5498  0.3614 -0.3628
  427MOL0     C58818   0.898   9.227   5.972 -0.3803 -0.1389  1.4861
  427MOL0     O58819   0.815   9.332   5.947  0.4272  0.2553 -0.6641
  427MOL0     C58820   0.855   9.460   5.907  0.1024  1.1469  0.7042
  427MOL0     C58821   0.766   9.524   5.822 -0.4188  0.0256  0.2734
  427MOL0     C58822   0.793   9.652   5.784  0.0892 -0.9850  0.3016
  427MOL0     C58823   0.913   9.709   5.809  0.2031 -0.0688 -0.2299
  427MOL0     O58824   0.925   9.836   5.758 -1.0461 -0.1439  0.4142
  427MOL0     C58825   0.979   9.941   5.838  0.2789  0.2106 -0.1942
  427MOL0     C58826   0.929  10.064   5.764 -1.0497  0.3382  0.8858
  427MOL0     C58827   0.975  10.198   5.827 -0.4354  0.9966 -0.7937
  427MOL0     C58828   1.041  10.293   5.729  0.2721  0.7487 -0.0712
  427MOL0     C58829   1.036  10.443   5.758  0.4621 -0.5466 -0.0937
  427MOL0     C58830   0.893  10.502   5.751 -0.8401  0.6311 -0.9148
  427MOL0     C58831   0.886  10.645   5.807  0.8280  0.2926  1.4694
  427MOL0     C58832   0.748  10.704   5.816  0.6555 -0.4901  1.0940
  427MOL0    Cl58833   0.671  10.719   5.654  0.1436 -0.2300  0.7869
  427MOL0     C58834   1.012   9.634   5.859 -0.0581 -0.2029 -0.4768
  427MOL0     C58835   0.990   9.507   5.911 -0.6488  0.2911  0.4437
  427MOL0     O58836   1.014   9.212   5.931  0.3296  0.6375 -0.1966
  427MOL0     C58837   0.700   9.092   6.048 -0.3747  0.5321  0.1416
  427MOL0     C58838   0.639   8.982   6.116 -0.2149 -0.1080 -0.0510
  427MOL0     N58839   0.507   8.650   6.811 -0.4574  0.2824  1.1060
  427MOL0     N58840   0.567   8.711   6.907 -0.3673 -0.1666 -0.4887
  427MOL0     C58841   1.416   8.723   7.300 -0.1428  0.3094  0.1672
  427MOL0     C58842   1.557   8.685   7.307 -0.2138  0.0509 -0.8532
  427MOL0     C58843   1.989   8.722   7.305  0.7407 -0.4366 -0.0441
  427MOL0     C58844   2.019   8.597   7.370  0.6554 -0.8054  0.3220
  427MOL0     C58845   2.133   8.531   7.333 -0.8749 -0.2484 -0.0230
  427MOL0     C58846   2.230   8.579   7.240  0.2199 -0.5833  0.3230
  427MOL0     O58847   2.332   8.499   7.209 -0.3542 -0.2701  0.1704
  427MOL0     C58848   2.465   8.552   7.200 -0.5251  0.2183  1.0900
  427MOL0     C58849   2.512   8.594   7.333  0.7791 -0.6019 -0.4606
  427MOL0     C58850   2.648   8.657   7.324 -1.2482  0.1651  0.3697
  427MOL0     C58851   2.751   8.563   7.376 -0.2870  0.5095  0.9572
  427MOL0     C58852   2.886   8.617   7.378  0.6314 -0.1863 -0.2218
  427MOL0     C58853   2.992   8.677   7.378 -0.3449  1.6544 -0.1252
  427MOL0     C58854   2.207   8.701   7.179 -0.1488 -0.2285 -1.1678
  427MOL0     C58855   2.088   8.775   7.207  0.5971  0.8938 -0.8291
  427MOL0     C58856   2.066   8.898   7.127  0.0840  0.3889  0.2770
  427MOL0     H58857   1.638   8.866   7.580 -0.4075  1.9706 -1.4916
  427MOL0     H58858   1.394   8.917   7.574  1.6008 -1.0206  3.0218
  427MOL0     H58859   1.207   9.011   7.453  0.7891  0.2830 -3.9838
  427MOL0     H58860   1.142   8.869   7.538 -2.1203  1.1006  0.8260
  427MOL0     H58861   0.989   8.880   7.301  1.6501  1.9545 -2.4095
  427MOL0     H58862   0.939   8.946   7.456  0.7790 -1.4532  0.1457
  427MOL0     H58863   1.039   9.175   7.380 -0.8510 -0.0344 -1.4002
  427MOL0     H58864   1.111   9.078   7.239 -1.8323 -2.7894 -2.4318
  427MOL0     H58865   0.819   9.062   7.262  0.5895 -1.2747  0.8893
  427MOL0     H58866   0.879   9.216   7.248 -0.7352 -0.4237  2.4143
  427MOL0     H58867   1.045   9.140   7.066  0.6531 -0.7859  2.9246
  427MOL0     H58868   0.883   9.164   7.013  0.1837  0.9491  0.0296
  427MOL0     H58869   1.006   8.951   6.926  1.1289 -0.2292  0.1907
  427MOL0     H58870   1.000   8.899   7.091  0.5622  3.2436  1.9784
  427MOL0     H58871   0.774   8.947   6.899  2.1295 -1.2718 -0.9628
  427MOL0     H58872   0.736   8.932   7.076  1.6596  0.8957  1.5838
  427MOL0     H58873   0.890   8.695   6.972 -0.6142 -0.1665 -0.2993
  427MOL0     H58874   0.754   8.704   7.084  0.4537  1.1105  0.8695
  427MOL0     H58875   0.822   8.603   6.711 -0.6842 -1.0973 -0.5501
  427MOL0     H58876   0.503   8.460   6.583 -0.7138 -0.2067  0.8576
  427MOL0     H58877   0.672   8.475   6.559 -2.1245  0.1390 -2.7354
  427MOL0     H58878   0.478   8.699   6.516  0.2566  0.8857 -1.3627
  427MOL0     H58879   0.658   8.715   6.502  1.2115 -1.8449  1.1693
  427MOL0     H58880   0.674   8.550   6.325 -1.0376 -1.5681 -1.3898
  427MOL0     H58881   0.495   8.538   6.327  0.1561  1.4492 -2.7539
  427MOL0     H58882   0.575   8.671   6.159  1.5386 -1.5873  1.6658
  427MOL0     H58883   0.474   8.772   6.265 -0.0470 -0.2243 -1.1391
  427MOL0     H58884   0.906   8.880   6.293 -0.9103  2.3973  3.8452
  427MOL0     H58885   1.100   9.177   6.172  4.2247 -0.6304  0.4998
  427MOL0     H58886   1.124   9.007   6.121  1.0119  0.1714  0.7120
  427MOL0     H58887   1.093   9.050   6.280  0.3186  2.9687 -0.5269
  427MOL0     H58888   0.666   9.494   5.795  0.3194 -0.6440 -1.8964
  427MOL0     H58889   0.726   9.721   5.732  1.7178  0.9932  0.6904
  427MOL0     H58890   0.956   9.938   5.945  1.4320  0.0556  0.0703
  427MOL0     H58891   1.087   9.926   5.829 -0.0502 -1.9555 -1.2490
  427MOL0     H58892   0.969  10.066   5.662  3.3011 -3.4783  2.2100
  427MOL0     H58893   0.820  10.064   5.755 -0.8848  0.2735 -1.9343
  427MOL0     H58894   1.056  10.180   5.899  0.7872  2.0848 -1.8348
  427MOL0     H58895   0.891  10.239   5.883  0.1832  2.1311 -0.6693
  427MOL0     H58896   0.979  10.281   5.640 -0.5810  1.7288  0.3639
  427MOL0     H58897   1.145  10.274   5.704  0.0499 -1.4340  0.5004
  427MOL0     H58898   1.079  10.462   5.856 -0.5645  1.4401  0.0278
  427MOL0     H58899   1.102  10.492   5.686 -0.7166  1.0351 -0.1571
  427MOL0     H58900   0.834  10.438   5.816 -1.8382  1.5392 -0.8917
  427MOL0     H58901   0.862  10.485   5.647 -0.1630 -1.1406 -0.8502
  427MOL0     H58902   0.956  10.712   5.757  1.7048 -1.1268  0.7353
  427MOL0     H58903   0.918  10.649   5.912 -0.9512  4.4666  2.0349
  427MOL0     H58904   0.741  10.806   5.856 -1.3533 -0.6946  1.3488
  427MOL0     H58905   0.687  10.629   5.868  1.0284 -2.0814 -0.6519
  427MOL0     H58906   1.108   9.681   5.877 -1.1904  1.8909  0.5188
  427MOL0     H58907   1.077   9.455   5.950 -0.2480  1.4309  1.1058
  427MOL0     H58908   0.635   9.150   5.983  0.6138 -0.5185 -1.8702
  427MOL0     H58909   0.535   8.961   6.097 -0.5110  0.3076  1.0421
  427MOL0     H58910   1.352   8.681   7.223 -1.0106  0.5695  0.7267
  427MOL0     H58911   1.589   8.600   7.248  1.4922 -0.1984  0.3773
  427MOL0     H58912   1.963   8.558   7.454  1.3054 -1.3689  0.5063
  427MOL0     H58913   2.150   8.450   7.403  0.0759  2.1342  2.6880
  427MOL0     H58914   2.528   8.468   7.168  1.7643  2.7415 -1.6596
  427MOL0     H58915   2.475   8.639   7.134  3.1638  0.5048  1.7886
  427MOL0     H58916   2.503   8.509   7.402 -2.4355  0.1664  0.2342
  427MOL0     H58917   2.430   8.659   7.365 -1.1662 -3.0369 -0.1783
  427MOL0     H58918   2.671   8.677   7.219  1.5024  0.1057  0.9097
  427MOL0     H58919   2.660   8.757   7.368  0.1914  1.7284 -3.1898
  427MOL0     H58920   2.770   8.480   7.307  4.0002  1.2757  0.9623
  427MOL0     H58921   2.718   8.518   7.470  2.1627 -3.4032  0.1747
  427MOL0     H58922   3.081   8.732   7.401  0.2299 -0.1454  2.3533
  427MOL0     H58923   2.276   8.734   7.101  0.5862  1.2826  0.0775
  427MOL0     H58924   1.985   8.881   7.056  0.3996  3.2003 -0.8922
  427MOL0     H58925   2.058   8.980   7.199  0.1351 -0.1369  0.8953
  427MOL0     H58926   2.158   8.926   7.076  1.4711 -0.4606  2.1789
  428MOL0     O58927   6.894   6.569  10.700 -0.5020  0.7660 -0.4285
  428MOL0     C58928   6.774   6.600  10.689 -0.3511 -0.0103  0.2965
  428MOL0     O58929   6.710   6.693  10.765  0.6126 -0.6737  0.2871
  428MOL0     C58930   6.762   6.737  10.886 -0.5059 -0.2152  0.4247
  428MOL0     C58931   6.719   6.856  10.940 -0.2863 -0.5350  0.2521
  428MOL0     C58932   6.753   6.881  11.075 -0.0470 -0.0764 -0.1769
  428MOL0     C58933   6.847   6.811  11.142  0.3995  0.5616 -0.7041
  428MOL0     O58934   6.897   6.846  11.266  0.4567  0.2375  0.3066
  428MOL0     C58935   6.876   6.973  11.330 -0.2057  0.8734  0.4676
  428MOL0     C58936   6.743   6.998  11.395 -0.4864  0.8151 -1.4455
  428MOL0     C58937   6.714   6.910  11.520 -0.3046 -0.7768  0.3654
  428MOL0     C58938   6.733   6.756  11.501  0.1733  0.1720 -0.3327
  428MOL0     C58939   6.746   6.689  11.636 -0.4653  0.0352  0.4326
  428MOL0     C58940   6.766   6.544  11.629 -1.0324  0.3777  0.9089
  428MOL0     C58941   6.775   6.481  11.768  1.1650 -0.6481  0.4259
  428MOL0     C58942   6.806   6.327  11.755 -0.4531 -0.5103 -0.3015
  428MOL0     N58943   6.835   6.275  11.886 -0.0067  0.5398  0.3653
  428MOL0     C58944   6.960   6.253  11.940  0.1298 -0.5510 -1.4580
  428MOL0     C58945   6.932   6.215  12.070  0.6585 -0.0204  1.1783
  428MOL0     C58946   7.017   6.164  12.177 -0.8090 -0.6485 -0.2059
  428MOL0     C58947   7.105   6.278  12.232  0.3955  0.1311  0.1100
  428MOL0     C58948   7.185   6.262  12.360  0.1275  0.2349 -0.2574
  428MOL0     C58949   7.100   6.262  12.488  0.6169  1.0713  0.0094
  428MOL0     O58950   7.010   6.143  12.503 -0.1759 -0.0138 -0.4271
  428MOL0     C58951   6.926   6.129  12.609  0.8525  0.8699  0.0161
  428MOL0     C58952   6.817   6.044  12.593  0.0550  0.0117 -0.5875
  428MOL0     C58953   6.734   6.010  12.699 -0.8667 -0.4854  2.0951
  428MOL0     C58954   6.630   5.898  12.683  0.2859  0.2914  0.4676
  428MOL0     C58955   6.742   6.077  12.827  0.2203 -0.1058  0.1210
  428MOL0     C58956   6.664   6.052  12.955 -0.0110 -0.3182  0.4473
  428MOL0     O58957   6.707   6.122  13.059 -0.2240 -0.0193 -0.6336
  428MOL0     C58958   6.631   6.100  13.173 -1.0306  0.3337 -0.9106
  428MOL0     C58959   6.583   6.210  13.245 -0.7960 -0.5070  0.6571
  428MOL0     C58960   6.517   6.197  13.360 -0.7176 -0.7403 -0.6550
  428MOL0     C58961   6.510   6.078  13.418 -0.9688  1.5144  0.5822
  428MOL0     O58962   6.447   6.052  13.529  0.5588 -0.4316 -0.6179
  428MOL0     C58963   6.313   6.116  13.537 -1.3183  0.0263  0.7204
  428MOL0     C58964   6.203   6.071  13.433 -0.2994 -0.1874  0.0128
  428MOL0     C58965   6.144   5.928  13.470  0.0765 -0.7941 -0.0385
  428MOL0     C58966   6.235   5.815  13.426  0.0293  0.6995 -0.3355
  428MOL0     C58967   6.176   5.677  13.429  0.4074  0.0805 -0.4402
  428MOL0     C58968   6.283   5.576  13.377 -0.3611 -0.8530  0.3974
  428MOL0     C58969   6.395   5.544  13.473 -0.7944 -0.4121 -0.6888
  428MOL0     C58970   6.343   5.488  13.606 -0.4171 -0.6430 -0.2276
  428MOL0    Cl58971   6.310   5.614  13.733 -0.0833 -0.0321 -0.3474
  428MOL0     C58972   6.563   5.963  13.355 -0.8865  0.1684  0.6463
  428MOL0     C58973   6.622   5.976  13.232  0.2962  0.0185  0.3701
  428MOL0     O58974   6.573   5.968  12.954 -0.7553 -0.4442  0.4375
  428MOL0     C58975   6.846   6.179  12.836  0.0412  0.6678 -0.5361
  428MOL0     C58976   6.936   6.203  12.732  0.2762  0.6305  0.1616
  428MOL0     N58977   6.794   6.205  12.077 -0.8447 -0.3636 -0.6984
  428MOL0     N58978   6.738   6.242  11.970 -0.4599 -0.5838  0.4452
  428MOL0     C58979   6.906   6.704  11.077  0.5324  0.8521 -0.3400
  428MOL0     C58980   6.857   6.663  10.956 -0.4081 -0.6792 -0.1430
  428MOL0     C58981   6.702   6.528  10.571 -0.4238  0.6826 -0.4340
  428MOL0     C58982   6.777   6.434  10.493  0.7004 -0.7998 -0.0361
  428MOL0     C58983   6.719   6.375  10.384 -0.4706 -0.1658  0.2399
  428MOL0     C58984   6.582   6.384  10.358  0.1004 -0.1080 -0.1928
  428MOL0     O58985   6.539   6.289  10.267  0.9679 -0.3557 -0.0881
  428MOL0     C58986   6.398   6.272  10.244 -0.2143  0.4927 -0.7452
  428MOL0     C58987   6.338   6.191  10.360  0.1826 -0.4988 -0.6901
  428MOL0     C58988   6.401   6.064  10.399 -1.0997  0.2300  0.5265
  428MOL0     C58989   6.399   5.950  10.296  0.1682  0.9499  0.3731
  428MOL0     C58990   6.252   5.919  10.251 -0.5824  0.0961 -0.7527
  428MOL0     C58991   6.136   5.896  10.230 -0.1012 -0.6148  0.3169
  428MOL0     C58992   6.514   6.473  10.434  0.2272  0.2266  0.0780
  428MOL0     C58993   6.563   6.544  10.535  0.0103 -0.3544 -0.1328
  428MOL0     C58994   6.481   6.635  10.623  0.6641 -0.4076  0.0492
  428MOL0     H58995   6.661   6.922  10.877 -2.1334 -3.4570 -1.3267
  428MOL0     H58996   6.713   6.977  11.106 -1.0436 -0.4095 -0.4061
  428MOL0     H58997   6.898   7.057  11.263  1.4974 -0.7761 -1.1702
  428MOL0     H58998   6.957   6.982  11.403  0.9199  1.0677 -0.7554
  428MOL0     H58999   6.747   7.100  11.434  0.6152 -0.4099  2.0766
  428MOL0     H59000   6.658   6.988  11.327 -1.0647  1.5292 -0.8529
  428MOL0     H59001   6.766   6.954  11.607  0.4939 -0.4673 -0.2469
  428MOL0     H59002   6.609   6.932  11.541 -0.8004 -0.8862 -1.7605
  428MOL0     H59003   6.647   6.716  11.446  2.3422 -3.2079 -1.5807
  428MOL0     H59004   6.824   6.724  11.450  2.6594  0.2447  3.5954
  428MOL0     H59005   6.664   6.715  11.703  1.1022  1.9671  1.7394
  428MOL0     H59006   6.823   6.736  11.698 -3.0549  2.5891  1.9254
  428MOL0     H59007   6.683   6.508  11.567  0.0978  0.7570 -0.8965
  428MOL0     H59008   6.861   6.515  11.583 -2.9403 -2.2638 -1.8236
  428MOL0     H59009   6.679   6.508  11.813  0.9189  1.8146 -1.3556
  428MOL0     H59010   6.857   6.532  11.821  0.8473  2.3040 -1.6619
  428MOL0     H59011   6.731   6.284  11.688 -0.3445  0.6321 -1.1882
  428MOL0     H59012   6.893   6.317  11.689 -0.3032  2.2001 -0.6335
  428MOL0     H59013   7.053   6.267  11.886  1.3174 -0.9567  0.4101
  428MOL0     H59014   7.075   6.087  12.124 -1.6897 -0.0639 -2.1181
  428MOL0     H59015   6.956   6.111  12.251 -2.2201  0.9453 -0.1744
  428MOL0     H59016   7.184   6.292  12.158  0.6320 -0.2040  0.2962
  428MOL0     H59017   7.037   6.364  12.229 -0.4962 -0.4353  2.3198
  428MOL0     H59018   7.249   6.173  12.361  1.6508  1.1110  4.6038
  428MOL0     H59019   7.245   6.353  12.353 -1.3259  1.1828 -0.8633
  428MOL0     H59020   7.169   6.269  12.572  1.7962  2.3480 -1.0036
  428MOL0     H59021   7.039   6.353  12.495 -1.4203 -0.3243  1.3756
  428MOL0     H59022   6.801   5.994  12.499  4.5457  0.9474 -2.0801
  428MOL0     H59023   6.661   5.833  12.601  0.5774  0.5839  0.3448
  428MOL0     H59024   6.532   5.936  12.652  0.5750 -0.9606 -2.2009
  428MOL0     H59025   6.624   5.828  12.767  0.9688 -2.4179 -1.5966
  428MOL0     H59026   6.596   6.310  13.204  0.8893  0.1323  2.5680
  428MOL0     H59027   6.483   6.289  13.406  1.3842  3.5965 -6.4514
  428MOL0     H59028   6.275   6.106  13.639  0.8499 -0.2366  1.5377
  428MOL0     H59029   6.312   6.223  13.515 -1.8961 -0.3742 -1.4780
  428MOL0     H59030   6.122   6.144  13.449  0.4106  0.9155 -1.1906
  428MOL0     H59031   6.244   6.074  13.332 -0.0623  0.5327  0.1232
  428MOL0     H59032   6.052   5.923  13.412  0.2108 -0.0692 -0.3293
  428MOL0     H59033   6.125   5.940  13.577 -2.5903 -1.2318 -0.4096
  428MOL0     H59034   6.319   5.804  13.495  1.3670 -1.2658 -2.1537
  428MOL0     H59035   6.275   5.838  13.327  4.1964 -0.5542  0.8459
  428MOL0     H59036   6.144   5.645  13.528 -2.3524  0.5920 -1.0784
  428MOL0     H59037   6.085   5.672  13.368 -0.9963  0.1537  1.5339
  428MOL0     H59038   6.333   5.618  13.289  2.1823 -0.3117  1.9765
  428MOL0     H59039   6.228   5.485  13.352 -1.4887 -0.1223  0.1571
  428MOL0     H59040   6.456   5.633  13.489 -2.2377  0.2028  1.8906
  428MOL0     H59041   6.449   5.461  13.426 -1.9988 -2.4699  1.3267
  428MOL0     H59042   6.425   5.433  13.652 -1.7231  0.5988  4.0444
  428MOL0     H59043   6.249   5.434  13.594 -2.5784  2.6638  0.5831
  428MOL0     H59044   6.546   5.875  13.416 -2.0677 -0.5670 -0.6528
  428MOL0     H59045   6.668   5.892  13.181  1.7435  0.3989  1.0252
  428MOL0     H59046   6.857   6.237  12.927  0.9065  0.5198 -0.5439
  428MOL0     H59047   7.018   6.271  12.756 -0.9706  1.7191  1.4724
  428MOL0     H59048   6.978   6.642  11.129  2.1878  3.3293  0.4629
  428MOL0     H59049   6.898   6.565  10.934 -1.7511 -1.5683  1.1340
  428MOL0     H59050   6.883   6.419  10.508  0.5950 -2.4822 -0.7178
  428MOL0     H59051   6.774   6.303  10.326  1.8404 -1.3112  3.5201
  428MOL0     H59052   6.343   6.366  10.235  1.5440  1.4302 -2.1483
  428MOL0     H59053   6.396   6.208  10.155 -0.4999 -0.9884  0.2672
  428MOL0     H59054   6.237   6.171  10.322  0.8467 -1.0872 -2.2285
  428MOL0     H59055   6.321   6.261  10.442  3.0096  0.7695 -1.0636
  428MOL0     H59056   6.505   6.081  10.427 -0.0786 -2.2991 -1.3806
  428MOL0     H59057   6.353   6.025  10.490  0.7292 -0.3162  1.3154
  428MOL0     H59058   6.443   5.860  10.340  1.2299  0.9873 -0.5822
  428MOL0     H59059   6.448   5.977  10.202 -1.8271 -0.4432 -1.1554
  428MOL0     H59060   6.031   5.876  10.233 -0.0239 -1.6631 -1.7365
  428MOL0     H59061   6.406   6.468  10.425  0.0124  0.7606  1.8950
  428MOL0     H59062   6.378   6.626  10.587  0.5188  1.2377 -0.0408
  428MOL0     H59063   6.482   6.602  10.728 -0.4051 -1.4223 -0.2372
  428MOL0     H59064   6.512   6.740  10.612  1.2803 -0.5727  0.1600
  429MOL0     O59065   2.059   5.383   0.474  0.9162  0.3757  1.2230
  429MOL0     C59066   1.956   5.349   0.412 -0.1697 -0.6049  0.1532
  429MOL0     O59067   1.838   5.415   0.399 -0.1004  0.1580 -0.4971
  429MOL0     C59068   1.827   5.531   0.467  0.4253 -0.3681  0.1620
  429MOL0     C59069   1.715   5.540   0.540  0.1768  0.3176 -0.7204
  429MOL0     C59070   1.687   5.652   0.613 -0.5615  0.6374 -0.8884
  429MOL0     C59071   1.777   5.756   0.611  0.0562 -0.1689 -0.2989
  429MOL0     O59072   1.751   5.865   0.681 -0.4110  0.8486 -0.3803
  429MOL0     C59073   1.867   5.943   0.725 -0.2515  0.0421  0.2306
  429MOL0     C59074   1.815   6.035   0.844  0.2690  0.2792  0.3459
  429MOL0     C59075   1.722   6.147   0.806  0.9817  0.3605 -0.3785
  429MOL0     C59076   1.804   6.256   0.724  0.0119 -1.0655  0.0279
  429MOL0     C59077   1.709   6.374   0.701 -1.1250 -0.0868  0.2483
  429MOL0     C59078   1.599   6.330   0.600 -0.1985 -0.3711 -0.0114
  429MOL0     C59079   1.522   6.451   0.544 -1.2314 -0.1720 -0.9086
  429MOL0     C59080   1.413   6.406   0.450  0.2221  0.1604  0.2093
  429MOL0     N59081   1.326   6.522   0.418  0.5117  0.4444 -0.3633
  429MOL0     C59082   1.258   6.594   0.517 -0.2465  0.4652  0.0192
  429MOL0     C59083   1.160   6.658   0.448  0.1661 -0.1735 -1.0101
  429MOL0     C59084   1.078   6.768   0.500 -0.2056  0.5702  0.2743
  429MOL0     C59085   0.967   6.733   0.608 -0.2498  0.0582 -0.5640
  429MOL0     C59086   0.868   6.630   0.548  0.0933 -0.6289  0.5557
  429MOL0     C59087   0.825   6.515   0.643 -0.2425  0.0248 -0.2918
  429MOL0     O59088   0.935   6.420   0.651  0.0075 -0.3939 -0.2691
  429MOL0     C59089   1.021   6.409   0.754 -0.6401  0.2243 -0.4469
  429MOL0     C59090   1.116   6.310   0.727  0.4448  1.1731  0.9400
  429MOL0     C59091   1.200   6.257   0.835  0.5602 -0.9772  0.2611
  429MOL0     C59092   1.275   6.136   0.814 -0.0978 -0.4267  0.1800
  429MOL0     C59093   1.192   6.317   0.964  0.4658 -0.4419 -0.1488
  429MOL0     C59094   1.272   6.261   1.072  0.0645 -0.2090 -0.0309
  429MOL0     O59095   1.207   6.176   1.148 -0.5514  0.7109  0.3988
  429MOL0     C59096   1.275   6.100   1.237  0.5315  1.2462 -0.6110
  429MOL0     C59097   1.386   6.016   1.206  2.0866 -0.7407 -0.5984
  429MOL0     C59098   1.444   5.934   1.291 -0.6072 -0.3177 -0.5660
  429MOL0     C59099   1.395   5.923   1.419  0.9340  1.0743  0.1526
  429MOL0     O59100   1.466   5.858   1.516 -0.8478 -0.7111  0.2965
  429MOL0     C59101   1.465   5.717   1.521  0.0922 -0.6855  1.0320
  429MOL0     C59102   1.543   5.659   1.632 -0.4837  0.8529  0.2807
  429MOL0     C59103   1.479   5.656   1.768  0.2533  0.6197 -0.1765
  429MOL0     C59104   1.410   5.795   1.815 -0.7445 -0.3281  0.2087
  429MOL0     C59105   1.279   5.779   1.895 -0.4469 -0.1834 -0.1869
  429MOL0     C59106   1.166   5.774   1.790  0.2254  0.0778 -0.3201
  429MOL0     C59107   1.039   5.779   1.872  0.2562  0.2510  0.3234
  429MOL0     C59108   0.912   5.739   1.793 -0.3771 -0.0899  0.9307
  429MOL0    Cl59109   0.875   5.570   1.781  0.0314 -0.1085  0.2763
  429MOL0     C59110   1.291   6.013   1.460  0.3834 -0.0402  0.5046
  429MOL0     C59111   1.232   6.098   1.370 -0.5495 -0.1372  0.1347
  429MOL0     O59112   1.379   6.320   1.101  0.3422  0.0857  0.5193
  429MOL0     C59113   1.107   6.439   0.976 -0.2940  0.2225 -1.5136
  429MOL0     C59114   1.019   6.476   0.875 -0.5535 -0.3023  0.4665
  429MOL0     N59115   1.174   6.630   0.305 -0.0639 -0.6140 -0.8821
  429MOL0     N59116   1.266   6.538   0.298  0.0408  0.5123  0.0339
  429MOL0     C59117   1.903   5.744   0.540 -0.4656 -0.4109 -0.6750
  429MOL0     C59118   1.926   5.626   0.463  0.1432  1.0281  0.8989
  429MOL0     C59119   1.959   5.222   0.335 -0.4759  0.3907  0.3440
  429MOL0     C59120   2.075   5.142   0.346  1.1152  0.8773 -0.2963
  429MOL0     C59121   2.090   5.022   0.279 -0.1023 -0.9107 -0.4972
  429MOL0     C59122   1.985   4.970   0.192 -0.2991 -0.5503 -0.7715
  429MOL0     O59123   2.013   4.853   0.123 -0.4035 -0.7283 -0.3393
  429MOL0     C59124   1.962   4.859  -0.007  0.0024  0.5409 -0.5014
  429MOL0     C59125   2.076   4.814  -0.090 -0.1062 -0.3622 -0.1675
  429MOL0     C59126   2.049   4.847  -0.240 -0.2259 -0.8971  0.1961
  429MOL0     C59127   2.076   4.997  -0.286 -0.2284  1.0573 -0.4891
  429MOL0     C59128   2.204   5.061  -0.263 -0.0843  0.8616 -0.7136
  429MOL0     C59129   2.317   5.109  -0.244 -0.2173 -0.1470  0.6979
  429MOL0     C59130   1.877   5.059   0.176  0.3918  0.2653 -0.4546
  429MOL0     C59131   1.857   5.179   0.246 -0.2182 -1.3959  0.5829
  429MOL0     C59132   1.731   5.257   0.208  0.1235 -0.1612 -0.6097
  429MOL0     H59133   1.640   5.461   0.543 -1.1197  1.5038 -0.6894
  429MOL0     H59134   1.600   5.660   0.678  1.0188  0.1942  1.4037
  429MOL0     H59135   1.921   5.990   0.642  0.7009 -1.3020  0.0597
  429MOL0     H59136   1.934   5.874   0.777 -2.3265 -0.6813  2.1189
  429MOL0     H59137   1.767   5.973   0.920  2.0086 -1.5456  0.0470
  429MOL0     H59138   1.903   6.072   0.897  2.2204 -1.6587 -1.3606
  429MOL0     H59139   1.631   6.115   0.754  1.4714 -0.3473 -0.8162
  429MOL0     H59140   1.686   6.183   0.903  2.2261  0.5702  0.0327
  429MOL0     H59141   1.896   6.281   0.777 -0.8224  3.9866 -0.4467
  429MOL0     H59142   1.827   6.212   0.627 -1.6070 -2.4332  0.2119
  429MOL0     H59143   1.751   6.465   0.657 -3.8855  1.8114  1.2363
  429MOL0     H59144   1.667   6.408   0.797 -0.2109  0.2471  0.5345
  429MOL0     H59145   1.662   6.277   0.528  1.8058 -0.7892  1.9344
  429MOL0     H59146   1.526   6.262   0.643  0.4130 -1.0591 -0.0403
  429MOL0     H59147   1.589   6.521   0.493 -1.2001  1.0690  0.7782
  429MOL0     H59148   1.470   6.508   0.621  0.6205  0.0275  0.2607
  429MOL0     H59149   1.460   6.364   0.361  3.8882 -0.7188  2.3621
  429MOL0     H59150   1.356   6.319   0.482 -1.1816 -1.0007 -4.5809
  429MOL0     H59151   1.283   6.607   0.622  1.4080 -1.7421 -0.0133
  429MOL0     H59152   1.035   6.799   0.405 -0.3776 -2.0365 -0.5637
  429MOL0     H59153   1.144   6.849   0.531 -0.1521  0.1288  1.3626
  429MOL0     H59154   1.016   6.686   0.693 -0.3859 -2.7644 -1.9168
  429MOL0     H59155   0.922   6.815   0.666  0.4160 -0.0021  0.0433
  429MOL0     H59156   0.781   6.689   0.519 -0.0542  0.3151  2.7502
  429MOL0     H59157   0.920   6.582   0.465 -0.7706  2.3111 -1.8858
  429MOL0     H59158   0.788   6.556   0.737 -0.8664 -1.1529 -0.0099
  429MOL0     H59159   0.745   6.466   0.587  1.0553 -2.5224 -0.0786
  429MOL0     H59160   1.122   6.271   0.626  1.1177  0.3308  1.2848
  429MOL0     H59161   1.362   6.120   0.878  1.2722 -0.9212 -1.7169
  429MOL0     H59162   1.310   6.136   0.710 -2.8252  2.2267 -0.8768
  429MOL0     H59163   1.218   6.044   0.829  1.7032 -1.7807 -0.8504
  429MOL0     H59164   1.431   6.022   1.108 -0.6580  2.7489 -1.8422
  429MOL0     H59165   1.529   5.876   1.258 -0.1199 -0.1720  0.4014
  429MOL0     H59166   1.361   5.684   1.532 -1.2724  3.1541  1.0082
  429MOL0     H59167   1.495   5.686   1.420 -0.1163 -1.1453  1.1070
  429MOL0     H59168   1.585   5.563   1.602  1.0466  0.9760  1.8293
  429MOL0     H59169   1.634   5.721   1.629  0.6165 -0.7502 -1.6223
  429MOL0     H59170   1.561   5.629   1.836  0.8422  0.0859 -1.0698
  429MOL0     H59171   1.402   5.578   1.772  3.1852 -2.5229 -0.3668
  429MOL0     H59172   1.385   5.864   1.733  1.4029 -0.5631 -0.7167
  429MOL0     H59173   1.493   5.843   1.868  0.1830  1.5656 -2.6632
  429MOL0     H59174   1.287   5.687   1.953  1.2600 -1.3708 -2.1604
  429MOL0     H59175   1.249   5.865   1.956  0.5212  0.0715 -0.0597
  429MOL0     H59176   1.177   5.692   1.719 -1.2227 -1.9085  1.5842
  429MOL0     H59177   1.168   5.860   1.723  2.6596 -0.0797 -0.5159
  429MOL0     H59178   1.023   5.877   1.918 -0.8103 -0.5006  1.6491
  429MOL0     H59179   1.051   5.708   1.955 -0.9974 -3.3256 -2.3137
  429MOL0     H59180   0.924   5.784   1.694  0.8226  1.2790  1.6633
  429MOL0     H59181   0.824   5.783   1.841  0.6891  1.4353  1.5777
  429MOL0     H59182   1.259   6.021   1.563 -1.7527 -1.7404  0.0467
  429MOL0     H59183   1.157   6.170   1.404  0.9601  1.6254 -0.0877
  429MOL0     H59184   1.105   6.500   1.066 -2.4346 -0.9208 -0.7171
  429MOL0     H59185   0.950   6.558   0.896 -0.2375 -0.2783  1.4740
  429MOL0     H59186   1.975   5.825   0.552  0.2979 -1.3769  1.7564
  429MOL0     H59187   2.012   5.621   0.398  0.1930  2.0922  0.8640
  429MOL0     H59188   2.167   5.172   0.396  2.0640  1.1220 -2.1111
  429MOL0     H59189   2.178   4.961   0.295  0.3203 -0.8775 -2.3976
  429MOL0     H59190   1.878   4.789  -0.015 -1.3615  1.5484  3.1831
  429MOL0     H59191   1.942   4.962  -0.037  1.6457  1.4859  1.4340
  429MOL0     H59192   2.097   4.712  -0.056 -1.5672 -0.0538  1.8681
  429MOL0     H59193   2.166   4.869  -0.062 -0.5524  1.3537 -1.8826
  429MOL0     H59194   2.105   4.786  -0.313  0.6813  1.7647 -1.5009
  429MOL0     H59195   1.940   4.837  -0.247 -0.0438 -2.8102 -0.3672
  429MOL0     H59196   2.003   5.063  -0.239  1.9237  0.8714  3.5195
  429MOL0     H59197   2.077   5.001  -0.395 -0.1324 -0.9386 -0.5879
  429MOL0     H59198   2.413   5.156  -0.241 -0.9111  1.3671  0.1780
  429MOL0     H59199   1.799   5.025   0.110 -1.4718  0.0915  1.7090
  429MOL0     H59200   1.753   5.353   0.159  3.5196 -1.5171 -1.9789
  429MOL0     H59201   1.675   5.195   0.137  0.3584 -0.3228 -0.6537
  429MOL0     H59202   1.663   5.267   0.293 -0.6671 -3.1390 -0.7819
  430MOL0     O59203   0.281   4.229   4.719  0.3949  0.7379 -0.2219
  430MOL0     C59204   0.308   4.342   4.751 -1.3994  0.1929  0.7690
  430MOL0     O59205   0.388   4.374   4.854 -0.4233 -0.5109 -0.5260
  430MOL0     C59206   0.426   4.278   4.945 -0.2598 -0.4566 -0.1383
  430MOL0     C59207   0.496   4.172   4.904 -0.0809  0.4584 -0.3672
  430MOL0     C59208   0.545   4.076   4.995 -0.1005 -0.4219  1.0540
  430MOL0     C59209   0.523   4.103   5.136  0.6716 -0.4359  0.2867
  430MOL0     O59210   0.567   4.014   5.225 -0.6100  0.1673 -0.3467
  430MOL0     C59211   0.639   4.063   5.338 -1.1246 -0.7341 -0.9050
  430MOL0     C59212   0.623   3.977   5.459  0.5177 -0.9268 -0.3716
  430MOL0     C59213   0.693   3.846   5.440  0.4587 -0.3310 -0.8920
  430MOL0     C59214   0.727   3.797   5.580  0.4740 -0.7753  0.4682
  430MOL0     C59215   0.772   3.656   5.573  0.5561 -0.3932  0.5292
  430MOL0     C59216   0.805   3.594   5.699 -0.0993  0.5039 -0.6194
  430MOL0     C59217   0.833   3.446   5.684 -0.4688 -0.1841 -0.5248
  430MOL0     C59218   0.839   3.376   5.822  0.4816 -0.7264 -0.6959
  430MOL0     N59219   0.955   3.409   5.910 -0.6216  0.0064  0.4362
  430MOL0     C59220   0.946   3.487   6.016 -1.2026  0.5309  0.5949
  430MOL0     C59221   1.073   3.480   6.064 -0.0707 -0.3932 -0.4140
  430MOL0     C59222   1.129   3.563   6.184  1.0808 -0.0784 -0.9862
  430MOL0     C59223   1.217   3.689   6.154  0.2708  0.2915  0.1209
  430MOL0     C59224   1.254   3.772   6.286  1.1592  0.3197 -0.6321
  430MOL0     C59225   1.390   3.726   6.332 -0.0270 -0.6878  0.4702
  430MOL0     O59226   1.407   3.757   6.471 -0.7685  0.2169  0.0494
  430MOL0     C59227   1.346   3.683   6.569  0.0574 -0.1022  0.1720
  430MOL0     C59228   1.357   3.732   6.697  0.9792  0.9768  0.3663
  430MOL0     C59229   1.306   3.662   6.807 -0.7830 -0.3141 -0.4487
  430MOL0     C59230   1.367   3.708   6.939 -0.0751 -0.3873 -0.5062
  430MOL0     C59231   1.209   3.566   6.788 -0.2031 -0.3871 -0.3234
  430MOL0     C59232   1.130   3.504   6.897 -0.3616 -0.2480 -0.0425
  430MOL0     O59233   1.030   3.420   6.850  0.3550 -0.3635 -0.2500
  430MOL0     C59234   0.985   3.320   6.933  0.3569  0.3996 -0.3196
  430MOL0     C59235   0.854   3.272   6.907  0.3205 -0.3276  0.8229
  430MOL0     C59236   0.794   3.168   6.976 -0.7414 -0.7371 -0.0793
  430MOL0     C59237   0.869   3.095   7.074 -0.9592 -0.4307  0.1758
  430MOL0     O59238   0.825   2.984   7.144 -0.1801  0.3043  0.2029
  430MOL0     C59239   0.710   2.918   7.101 -0.5988  0.6294  0.2520
  430MOL0     C59240   0.673   2.801   7.192 -1.0678  0.4524  0.7042
  430MOL0     C59241   0.688   2.830   7.343 -0.0111  0.2270 -0.0987
  430MOL0     C59242   0.682   2.710   7.429  0.0071  0.3207  0.2844
  430MOL0     C59243   0.754   2.718   7.563  0.2305 -0.3873 -0.3324
  430MOL0     C59244   0.907   2.708   7.565  0.4844  0.0840 -0.8140
  430MOL0     C59245   0.950   2.590   7.655  0.2881 -0.0644 -0.4844
  430MOL0     C59246   1.104   2.573   7.661 -0.3166 -0.4596 -0.5820
  430MOL0    Cl59247   1.166   2.718   7.739 -0.1335  0.0939 -0.0463
  430MOL0     C59248   1.004   3.142   7.084  0.1334  0.7639  0.3213
  430MOL0     C59249   1.064   3.239   7.014 -0.0281  0.0091  1.0610
  430MOL0     O59250   1.164   3.511   7.015  0.7110 -0.2081  0.2334
  430MOL0     C59251   1.187   3.521   6.659 -0.4229 -0.5235 -0.1591
  430MOL0     C59252   1.260   3.573   6.548  0.2618  0.1067  0.5433
  430MOL0     N59253   1.149   3.395   6.002 -0.7801  0.7445  0.4092
  430MOL0     N59254   1.079   3.343   5.908 -0.0528  0.6369  0.1042
  430MOL0     C59255   0.450   4.213   5.178 -0.2592  0.3438  0.5922
  430MOL0     C59256   0.406   4.302   5.084 -1.2369  0.6538  0.3266
  430MOL0     C59257   0.252   4.457   4.683 -0.4264  0.5495 -0.2069
  430MOL0     C59258   0.194   4.561   4.757  0.2211 -0.0330 -0.2581
  430MOL0     C59259   0.153   4.683   4.701 -0.2120  0.2526 -0.8389
  430MOL0     C59260   0.172   4.713   4.575 -0.3724  0.9596  0.9591
  430MOL0     O59261   0.144   4.838   4.528  0.0297 -0.1079  0.5225
  430MOL0     C59262   0.216   4.889   4.417  0.1235  0.2283  0.3245
  430MOL0     C59263   0.145   5.013   4.354  0.3544  0.4149  0.6977
  430MOL0     C59264   0.225   5.084   4.237  0.0212  0.0124 -0.0007
  430MOL0     C59265   0.241   5.011   4.107  0.5062 -0.2063  0.0301
  430MOL0     C59266   0.343   4.905   4.116  0.1551  0.9440  0.0019
  430MOL0     C59267   0.422   4.824   4.133 -0.3415  1.0500  0.4522
  430MOL0     C59268   0.249   4.608   4.494 -0.7596 -0.7444  0.3570
  430MOL0     C59269   0.277   4.482   4.546  1.1605 -0.0598  0.0444
  430MOL0     C59270   0.328   4.376   4.453  1.1044  0.0869  0.0794
  430MOL0     H59271   0.528   4.142   4.805  3.1297 -0.1800  0.7433
  430MOL0     H59272   0.598   3.988   4.961  0.8355  1.6851 -3.8239
  430MOL0     H59273   0.608   4.164   5.366 -4.4255 -2.3926  2.2314
  430MOL0     H59274   0.745   4.049   5.312 -0.4122  0.3128  1.2026
  430MOL0     H59275   0.682   4.034   5.530  2.9615  0.9932 -3.6535
  430MOL0     H59276   0.521   3.968   5.499  1.0875 -1.3093  1.0137
  430MOL0     H59277   0.625   3.773   5.395  0.6375 -0.6590 -0.6383
  430MOL0     H59278   0.794   3.851   5.399  1.4134  2.9771  1.4539
  430MOL0     H59279   0.802   3.862   5.625 -0.6551  1.5571 -0.8557
  430MOL0     H59280   0.643   3.819   5.646  0.4464  0.5851  0.0106
  430MOL0     H59281   0.861   3.664   5.510 -0.8873  4.1646 -1.2928
  430MOL0     H59282   0.690   3.602   5.523 -0.1441 -0.9005  2.1626
  430MOL0     H59283   0.897   3.641   5.734  0.8920 -0.6680 -1.5783
  430MOL0     H59284   0.715   3.603   5.760  0.2513  0.1741 -0.0509
  430MOL0     H59285   0.924   3.433   5.625  0.7690 -0.1538  1.2893
  430MOL0     H59286   0.749   3.396   5.633  0.7243 -2.3537 -0.5030
  430MOL0     H59287   0.741   3.391   5.869 -0.4501 -2.4189 -1.9794
  430MOL0     H59288   0.832   3.268   5.809 -0.3504 -1.0555  1.8723
  430MOL0     H59289   0.862   3.553   6.034 -1.9414 -0.1751 -0.1685
  430MOL0     H59290   1.184   3.496   6.250 -0.5692 -1.1731 -0.6727
  430MOL0     H59291   1.037   3.597   6.231  1.3948 -0.4327 -0.0940
  430MOL0     H59292   1.303   3.671   6.089 -1.1251 -2.3547 -1.1503
  430MOL0     H59293   1.164   3.757   6.087  1.8596  2.4457  0.9107
  430MOL0     H59294   1.241   3.878   6.261  0.8094  0.8862  1.7371
  430MOL0     H59295   1.178   3.738   6.357  0.8811  0.7809 -0.7011
  430MOL0     H59296   1.389   3.617   6.318 -3.6383 -0.6210 -0.8839
  430MOL0     H59297   1.461   3.773   6.262  0.3947 -2.6842 -0.5175
  430MOL0     H59298   1.418   3.821   6.704 -0.7370  2.3856 -1.4512
  430MOL0     H59299   1.290   3.756   7.001  0.7285  2.0635 -1.2671
  430MOL0     H59300   1.448   3.782   6.942 -1.3237  1.0087  1.1469
  430MOL0     H59301   1.402   3.615   6.985 -1.1953 -1.6820 -2.1565
  430MOL0     H59302   0.799   3.326   6.830 -0.6558 -0.3641  1.4740
  430MOL0     H59303   0.697   3.131   6.945 -0.0026 -2.2532 -0.6801
  430MOL0     H59304   0.625   2.986   7.093 -0.6855  0.4821 -0.0911
  430MOL0     H59305   0.716   2.876   7.001  0.0024 -2.5887  1.5045
  430MOL0     H59306   0.574   2.758   7.174 -0.2066 -1.9317  1.2159
  430MOL0     H59307   0.748   2.724   7.169 -2.2829 -0.9247  1.2168
  430MOL0     H59308   0.613   2.903   7.372 -0.6064 -0.1079 -0.7610
  430MOL0     H59309   0.790   2.871   7.352 -0.2218  0.2486  3.4592
  430MOL0     H59310   0.726   2.629   7.371 -0.3077  2.5171 -3.3638
  430MOL0     H59311   0.578   2.689   7.455 -0.9499  1.2062 -2.5065
  430MOL0     H59312   0.736   2.820   7.600 -1.6516  0.2703 -2.7814
  430MOL0     H59313   0.707   2.655   7.639 -0.4339  1.3935  0.8091
  430MOL0     H59314   0.945   2.802   7.606  1.2523 -0.7219  0.3678
  430MOL0     H59315   0.952   2.690   7.466 -0.1871 -1.0016 -0.9355
  430MOL0     H59316   0.906   2.496   7.620 -2.0435  0.7529  0.0840
  430MOL0     H59317   0.921   2.609   7.759  1.1330 -2.0914  0.1657
  430MOL0     H59318   1.141   2.565   7.558  1.2503 -1.0870  0.0001
  430MOL0     H59319   1.138   2.476   7.700  0.2453 -0.1861 -0.3907
  430MOL0     H59320   1.069   3.084   7.148 -0.9830 -1.4265 -0.3951
  430MOL0     H59321   1.166   3.270   7.034  0.7925 -1.2261 -0.9364
  430MOL0     H59322   1.117   3.440   6.638 -0.5374 -1.0804  2.1793
  430MOL0     H59323   1.253   3.522   6.452 -1.3713  1.3787 -0.0655
  430MOL0     H59324   0.446   4.241   5.283  2.5563  1.4659  0.4880
  430MOL0     H59325   0.358   4.395   5.114 -3.5373 -0.5309  0.5255
  430MOL0     H59326   0.177   4.532   4.861  1.0526  0.0298 -0.0980
  430MOL0     H59327   0.106   4.766   4.753  0.1048 -0.1169  0.0534
  430MOL0     H59328   0.315   4.923   4.447  1.1600 -1.3060 -1.1628
  430MOL0     H59329   0.223   4.808   4.344 -1.0853 -1.4735  2.0038
  430MOL0     H59330   0.129   5.085   4.434 -0.6571  0.9596  0.0180
  430MOL0     H59331   0.054   4.990   4.299  1.9486  0.0512 -1.9637
  430MOL0     H59332   0.164   5.169   4.206  1.6607  1.6232  0.9760
  430MOL0     H59333   0.317   5.127   4.278  0.0992  1.1235 -1.2789
  430MOL0     H59334   0.270   5.078   4.026  2.9708  0.5966  1.4315
  430MOL0     H59335   0.145   4.969   4.079 -0.0103  2.4582 -2.6390
  430MOL0     H59336   0.496   4.746   4.135 -1.1326  0.0500 -2.9731
  430MOL0     H59337   0.283   4.621   4.392 -0.8984  1.8925  0.5845
  430MOL0     H59338   0.254   4.296   4.446  0.7421  0.4535 -0.3654
  430MOL0     H59339   0.356   4.427   4.361  1.0113 -2.2846 -1.3215
  430MOL0     H59340   0.425   4.350   4.495  0.7748  1.0335  1.5362
  431MOL0     O59341  10.594   5.103   5.515 -0.0641 -0.3498 -0.1728
  431MOL0     C59342  10.598   5.225   5.488 -0.1826  0.2283  0.7263
  431MOL0     O59343  10.712   5.297   5.463  0.0714  0.6984 -0.1513
  431MOL0     C59344  10.839   5.246   5.496 -0.8692 -1.0979 -0.2297
  431MOL0     C59345  10.934   5.331   5.542  1.2854  0.0087  0.0632
  431MOL0     C59346  11.071   5.292   5.556 -0.4288 -0.1343 -0.5796
  431MOL0     C59347  11.113   5.163   5.517 -0.5396 -0.1827  1.2466
  431MOL0     O59348  11.247   5.128   5.539  0.7677  0.3598  0.3608
  431MOL0     C59349  11.294   5.004   5.491  0.5856  0.6686  0.0423
  431MOL0     C59350  11.431   4.994   5.556  1.4484 -0.3689 -0.6763
  431MOL0     C59351  11.541   5.046   5.460  0.1456 -1.0320  0.3114
  431MOL0     C59352  11.687   4.997   5.498 -0.2918  0.6228 -1.0274
  431MOL0     C59353  11.711   4.839   5.484 -0.4712 -0.1487 -0.3263
  431MOL0     C59354  11.865   4.810   5.473  0.6960 -0.9377  0.0809
  431MOL0     C59355  11.886   4.658   5.468 -0.4801 -0.0900  0.0302
  431MOL0     C59356  11.830   4.592   5.333  0.4317 -0.1745 -0.2390
  431MOL0     N59357  11.874   4.660   5.210 -0.2591 -0.2071  0.1796
  431MOL0     C59358  12.006   4.691   5.171  0.3076 -1.2940  0.1906
  431MOL0     C59359  12.014   4.760   5.054  0.0466 -0.3849 -1.4012
  431MOL0     C59360  12.137   4.820   4.998 -0.1515  0.5496  0.0232
  431MOL0     C59361  12.142   4.970   5.029 -0.3942 -0.6822  0.0724
  431MOL0     C59362  12.251   5.028   4.935  0.5504 -0.2061 -0.4375
  431MOL0     C59363  12.274   5.180   4.967  0.0046  0.0310  0.4612
  431MOL0     O59364  12.148   5.250   4.936  0.6809  0.0232  0.6534
  431MOL0     C59365  12.147   5.385   4.931 -1.3772 -0.7817 -0.0476
  431MOL0     C59366  12.036   5.450   4.881  0.0453 -0.3768  0.0684
  431MOL0     C59367  12.039   5.592   4.870  0.4734 -0.0942 -0.6564
  431MOL0     C59368  11.919   5.658   4.826 -0.0231 -0.7575 -0.1896
  431MOL0     C59369  12.155   5.670   4.920 -0.0430 -0.5592  0.7060
  431MOL0     C59370  12.162   5.821   4.925 -0.0157 -0.5312  0.0787
  431MOL0     O59371  12.277   5.885   4.971  0.2396 -0.3346  0.1405
  431MOL0     C59372  12.303   6.010   4.942 -0.3186  0.7486 -0.7673
  431MOL0     C59373  12.302   6.054   4.804  0.4746 -0.4149 -1.0965
  431MOL0     C59374  12.352   6.179   4.770 -0.1238  0.4588  0.8915
  431MOL0     C59375  12.401   6.270   4.864 -0.2715  0.9836 -0.2943
  431MOL0     O59376  12.453   6.387   4.816  0.5596 -0.1483  0.3258
  431MOL0     C59377  12.571   6.434   4.879 -0.5774  0.3730  0.6204
  431MOL0     C59378  12.642   6.517   4.776 -0.0168 -0.1110 -0.8050
  431MOL0     C59379  12.576   6.649   4.751 -0.6902 -0.0454 -0.0436
  431MOL0     C59380  12.566   6.690   4.605  0.0041 -0.2729  0.8889
  431MOL0     C59381  12.702   6.730   4.540 -0.6373  0.2693  0.9969
  431MOL0     C59382  12.691   6.763   4.391 -0.0708  0.1546 -0.3702
  431MOL0     C59383  12.671   6.627   4.314  0.3407 -0.2878  0.4775
  431MOL0     C59384  12.732   6.627   4.176 -0.4875  0.1198 -0.4212
  431MOL0    Cl59385  12.902   6.607   4.199 -0.2424 -0.3142 -0.1606
  431MOL0     C59386  12.408   6.226   4.999  0.0855  0.1626  0.8324
  431MOL0     C59387  12.355   6.098   5.037  0.5358 -0.7057  0.9323
  431MOL0     O59388  12.064   5.880   4.879 -0.1310  0.7664 -0.6226
  431MOL0     C59389  12.264   5.603   4.960 -0.2462 -0.7595 -0.6286
  431MOL0     C59390  12.257   5.467   4.978 -0.3775  0.6101 -0.1637
  431MOL0     N59391  11.884   4.756   5.021  0.4126  0.0669  1.5785
  431MOL0     N59392  11.799   4.699   5.106  0.5371 -0.2431 -0.7571
  431MOL0     C59393  11.015   5.080   5.456  1.0069  0.3439 -0.3758
  431MOL0     C59394  10.873   5.120   5.455  0.3647 -0.1228 -0.1913
  431MOL0     C59395  10.476   5.278   5.432  0.2773  0.0118 -0.1580
  431MOL0     C59396  10.480   5.403   5.378 -0.4924  0.0728 -0.5703
  431MOL0     C59397  10.373   5.474   5.338 -1.5368 -1.2492  0.5243
  431MOL0     C59398  10.246   5.418   5.337  0.5204 -0.0190  0.0954
  431MOL0     O59399  10.155   5.503   5.283  0.0195 -0.0403 -0.2496
  431MOL0     C59400  10.020   5.455   5.291  0.1567  1.0203  0.0410
  431MOL0     C59401   9.935   5.547   5.223 -0.4882  0.6262  0.4477
  431MOL0     C59402   9.789   5.495   5.207 -0.1899  0.3801 -0.0582
  431MOL0     C59403   9.755   5.381   5.105 -0.8206  0.6356 -0.4142
  431MOL0     C59404   9.624   5.329   5.143  0.3381 -0.3422  1.0664
  431MOL0     C59405   9.521   5.283   5.184  0.5028  0.1803  0.1019
  431MOL0     C59406  10.230   5.302   5.410  0.4639  0.9867  0.3864
  431MOL0     C59407  10.346   5.220   5.446  0.1378 -0.4320  0.1921
  431MOL0     C59408  10.316   5.081   5.508  0.7778 -0.1199  0.4125
  431MOL0     H59409  10.900   5.432   5.564  3.7632  0.9071  0.0118
  431MOL0     H59410  11.143   5.363   5.595 -0.9251  0.3921 -0.6009
  431MOL0     H59411  11.299   5.001   5.382  0.0626  0.7498  0.0138
  431MOL0     H59412  11.236   4.916   5.520 -1.5048  2.1609  0.6599
  431MOL0     H59413  11.424   5.058   5.644 -5.0092 -0.2438 -0.8423
  431MOL0     H59414  11.457   4.895   5.595 -0.9129  0.1793  2.7211
  431MOL0     H59415  11.533   5.006   5.359  2.0012 -0.4056 -0.1328
  431MOL0     H59416  11.538   5.155   5.449 -0.1020 -1.0615  0.0880
  431MOL0     H59417  11.760   5.055   5.440 -0.6604  1.5175 -0.6017
  431MOL0     H59418  11.713   5.022   5.601 -1.9605 -1.4865 -0.0116
  431MOL0     H59419  11.658   4.804   5.395 -0.6774  1.4832 -0.8808
  431MOL0     H59420  11.678   4.782   5.571  1.0798  0.3496  0.6151
  431MOL0     H59421  11.908   4.858   5.385 -1.1755 -1.9094 -1.4498
  431MOL0     H59422  11.902   4.845   5.569 -2.7088  0.3238  1.0740
  431MOL0     H59423  11.850   4.615   5.562  0.3012 -2.1624 -0.5624
  431MOL0     H59424  11.993   4.642   5.484 -1.0489 -3.4123  1.4010
  431MOL0     H59425  11.867   4.490   5.325  0.9727 -0.1016  1.0544
  431MOL0     H59426  11.724   4.574   5.350  0.0870  1.1099 -0.8970
  431MOL0     H59427  12.089   4.669   5.237  0.4495  0.7677  0.7726
  431MOL0     H59428  12.138   4.801   4.890  0.3441  0.6683  0.0025
  431MOL0     H59429  12.224   4.765   5.035 -0.0201  1.1741  0.6618
  431MOL0     H59430  12.045   5.010   4.999  0.1034  1.0221  0.6513
  431MOL0     H59431  12.160   5.003   5.132  0.8827  1.0538 -0.6556
  431MOL0     H59432  12.342   4.970   4.946 -0.1080 -1.2655 -0.4076
  431MOL0     H59433  12.217   5.003   4.834 -0.0957 -2.5708  0.3032
  431MOL0     H59434  12.300   5.182   5.073  1.0321 -0.0821  0.2206
  431MOL0     H59435  12.365   5.223   4.925  0.6508 -1.3662  0.3808
  431MOL0     H59436  11.952   5.386   4.856 -2.2805  1.8104  1.6824
  431MOL0     H59437  11.887   5.727   4.904  2.7485 -1.6129  1.8784
  431MOL0     H59438  11.847   5.576   4.816 -1.2569  0.5373 -2.8430
  431MOL0     H59439  11.935   5.709   4.730 -0.0423 -0.9937 -0.3194
  431MOL0     H59440  12.265   5.993   4.722 -0.5754  0.8924 -1.6285
  431MOL0     H59441  12.340   6.217   4.669  2.5077 -1.3176 -0.2125
  431MOL0     H59442  12.557   6.493   4.970 -0.4862  0.8418  0.3336
  431MOL0     H59443  12.646   6.356   4.889 -1.4041 -0.8299 -1.6995
  431MOL0     H59444  12.743   6.543   4.808 -0.5156  0.1243  0.6697
  431MOL0     H59445  12.638   6.458   4.684 -1.7241  0.8996 -1.4292
  431MOL0     H59446  12.620   6.724   4.817  0.1021 -1.7868  1.4949
  431MOL0     H59447  12.471   6.642   4.782 -0.7061 -0.4035 -0.1686
  431MOL0     H59448  12.496   6.772   4.590  1.4300  1.1332  1.5887
  431MOL0     H59449  12.520   6.609   4.548  0.7072 -0.1332  0.1054
  431MOL0     H59450  12.733   6.825   4.585 -2.0476 -0.2587  3.3099
  431MOL0     H59451  12.785   6.661   4.556  1.4061  2.1822 -0.7357
  431MOL0     H59452  12.781   6.806   4.345  0.8172 -0.1507  1.0034
  431MOL0     H59453  12.614   6.840   4.393 -1.3085 -1.0352 -0.2880
  431MOL0     H59454  12.565   6.617   4.289  0.1639 -0.7630  1.3762
  431MOL0     H59455  12.718   6.547   4.372  3.8844  1.4131  0.2516
  431MOL0     H59456  12.720   6.724   4.128  3.5909  0.3341 -1.3149
  431MOL0     H59457  12.704   6.538   4.118 -1.3577 -0.0078  0.1684
  431MOL0     H59458  12.444   6.292   5.077  0.4923 -1.2729  1.9033
  431MOL0     H59459  12.350   6.079   5.144 -4.0991 -2.8612  0.6068
  431MOL0     H59460  12.355   5.654   4.991 -1.3970  1.8983 -1.3555
  431MOL0     H59461  12.344   5.426   5.027 -0.2881  1.6887  0.6277
  431MOL0     H59462  11.054   4.994   5.403  0.7880 -0.8003  1.2414
  431MOL0     H59463  10.802   5.056   5.403 -0.8923  1.4119 -0.4564
  431MOL0     H59464  10.574   5.458   5.375 -0.8075  0.6740  0.1902
  431MOL0     H59465  10.391   5.572   5.294 -1.2980 -1.3820  0.3222
  431MOL0     H59466  10.003   5.350   5.266  0.5304  0.5773  1.5030
  431MOL0     H59467  10.003   5.464   5.399 -0.9951 -0.1619 -0.0133
  431MOL0     H59468   9.975   5.575   5.125 -1.4464 -0.0828 -0.1629
  431MOL0     H59469   9.931   5.646   5.270  1.2120  2.2361 -2.5110
  431MOL0     H59470   9.767   5.475   5.313  1.9920  0.6476  0.4845
  431MOL0     H59471   9.721   5.580   5.192 -1.3774 -0.3103  1.1031
  431MOL0     H59472   9.827   5.301   5.127  0.2862  0.9985 -2.4561
  431MOL0     H59473   9.772   5.410   5.001 -0.7881 -0.3007 -0.6842
  431MOL0     H59474   9.423   5.248   5.209 -0.3906  2.4177 -0.0072
  431MOL0     H59475  10.133   5.266   5.440  2.2431 -1.0711  4.4438
  431MOL0     H59476  10.208   5.066   5.514  0.7841 -1.3576 -1.6292
  431MOL0     H59477  10.371   5.010   5.446  1.2023 -0.3262  1.0198
  431MOL0     H59478  10.344   5.083   5.614  1.5836  3.3113  0.2636
  432MOL0     O59479  10.171   0.491   9.878  0.6442 -0.0534 -0.1099
  432MOL0     C59480  10.125   0.440   9.974  0.2334 -0.4215 -0.1280
  432MOL0     O59481  10.128   0.298  10.002  0.4150 -1.2616 -1.1677
  432MOL0     C59482  10.179   0.208   9.911 -0.4766  0.5240 -0.1216
  432MOL0     C59483  10.117   0.179   9.784 -0.5293 -0.7647 -0.0262
  432MOL0     C59484  10.174   0.078   9.700  0.4220  0.1683 -0.3851
  432MOL0     C59485  10.291   0.014   9.730 -0.3867  0.2576 -0.3847
  432MOL0     O59486  10.349  -0.085   9.659 -0.1174 -0.3909 -0.0386
  432MOL0     C59487  10.302  -0.098   9.527 -0.7491 -0.2131 -0.2807
  432MOL0     C59488  10.345  -0.219   9.446  1.2999  0.6738 -0.8999
  432MOL0     C59489  10.485  -0.261   9.500  0.2841 -0.1705 -0.6948
  432MOL0     C59490  10.566  -0.341   9.398  1.4918  0.1253 -0.2377
  432MOL0     C59491  10.708  -0.371   9.438 -0.2613  0.4651 -0.3020
  432MOL0     C59492  10.706  -0.444   9.580 -0.3979 -0.3228  0.2243
  432MOL0     C59493  10.841  -0.497   9.629 -0.4889 -0.1126 -1.1692
  432MOL0     C59494  10.847  -0.575   9.758 -0.1170  0.0710 -0.5261
  432MOL0     N59495  10.813  -0.491   9.876 -0.6524 -0.6738 -0.0807
  432MOL0     C59496  10.682  -0.486   9.903  0.2866 -0.5382 -0.0953
  432MOL0     C59497  10.650  -0.370   9.967 -0.2766  0.1902  0.0288
  432MOL0     C59498  10.509  -0.329   9.995 -0.6893  0.5722 -0.1652
  432MOL0     C59499  10.512  -0.218  10.106  0.0190 -0.6272 -0.5598
  432MOL0     C59500  10.370  -0.200  10.162  0.4729  0.6934 -1.3281
  432MOL0     C59501  10.365  -0.105  10.283  1.1021  0.6828 -0.1437
  432MOL0     O59502  10.337   0.031  10.260  0.8184  0.6602  0.1232
  432MOL0     C59503  10.351   0.109  10.375  0.2824 -0.3610  0.0151
  432MOL0     C59504  10.388   0.070  10.504  0.3276  0.3387 -0.3927
  432MOL0     C59505  10.419   0.157  10.616 -1.0233  0.0407 -0.3570
  432MOL0     C59506  10.485   0.092  10.733 -0.7706  0.4384 -0.4167
  432MOL0     C59507  10.406   0.301  10.598  0.0410  0.1412 -0.2513
  432MOL0     C59508  10.458   0.391  10.692 -0.1962  0.3450 -0.6554
  432MOL0     O59509  10.431   0.372  10.833  0.2404 -0.1447  0.3886
  432MOL0     C59510  10.450   0.477  10.916 -1.7816 -0.4296 -0.5270
  432MOL0     C59511  10.583   0.524  10.949 -0.2470 -0.7987 -0.5489
  432MOL0     C59512  10.592   0.645  11.025  0.1652 -0.4485  0.1100
  432MOL0     C59513  10.484   0.709  11.082  0.0511  0.9651  0.0433
  432MOL0     O59514  10.499   0.802  11.176 -0.5917 -0.0845 -0.2026
  432MOL0     C59515  10.551   0.917  11.122  0.9338 -1.2663  0.4811
  432MOL0     C59516  10.469   1.033  11.188  0.2537 -0.1877 -0.0941
  432MOL0     C59517  10.331   1.050  11.123 -0.0073  0.3380 -0.6892
  432MOL0     C59518  10.331   1.161  11.023  0.2561  0.2970  0.1855
  432MOL0     C59519  10.196   1.191  10.957 -0.4604  0.9036 -0.5463
  432MOL0     C59520  10.213   1.275  10.830 -0.0383 -0.0815  0.1660
  432MOL0     C59521  10.081   1.314  10.773  0.0663 -0.6090  0.8146
  432MOL0     C59522  10.095   1.427  10.665 -0.1691  0.3399 -0.0108
  432MOL0    Cl59523   9.945   1.522  10.674  0.5363 -0.2386 -0.1718
  432MOL0     C59524  10.361   0.650  11.066  1.0737 -0.4954 -0.4284
  432MOL0     C59525  10.339   0.530  10.988 -0.6876  0.1000 -0.3368
  432MOL0     O59526  10.521   0.490  10.642 -0.1118 -0.5970  0.5464
  432MOL0     C59527  10.374   0.336  10.467  0.2503 -0.1691 -0.1719
  432MOL0     C59528  10.357   0.248  10.362  1.3883  0.2512 -0.0452
  432MOL0     N59529  10.762  -0.298   9.960 -0.5239  0.1950 -0.7383
  432MOL0     N59530  10.862  -0.369   9.908  0.8475  0.1696 -0.3757
  432MOL0     C59531  10.344   0.038   9.860  0.1228  0.5691  0.0091
  432MOL0     C59532  10.289   0.131   9.950 -0.0963  0.2224 -0.4341
  432MOL0     C59533  10.067   0.534  10.079 -0.2247 -0.0099 -0.7117
  432MOL0     C59534  10.059   0.485  10.211  0.3472 -0.4135  0.3991
  432MOL0     C59535  10.005   0.567  10.316  0.0435  0.9859  0.1300
  432MOL0     C59536   9.958   0.699  10.288 -0.5991  0.6857 -0.6311
  432MOL0     O59537   9.912   0.763  10.401  0.0540 -0.9317 -0.4804
  432MOL0     C59538   9.831   0.873  10.398  0.6111  0.4947  0.0437
  432MOL0     C59539   9.895   1.004  10.468 -0.0090  1.0764 -0.3072
  432MOL0     C59540   9.810   1.119  10.483 -1.0842  0.3048 -0.4697
  432MOL0     C59541   9.725   1.116  10.603 -0.2783  0.4570  0.4755
  432MOL0     C59542   9.613   1.028  10.595  0.6844  1.0445 -0.4975
  432MOL0     C59543   9.520   0.943  10.594 -1.2543 -0.5398  0.6909
  432MOL0     C59544   9.967   0.747  10.155  0.8201  0.2529  0.0638
  432MOL0     C59545  10.025   0.670  10.053 -0.0511 -1.4717  0.3284
  432MOL0     C59546  10.018   0.734   9.916 -0.1118  0.4052 -0.6066
  432MOL0     H59547  10.037   0.245   9.751 -1.1099 -1.7710 -0.6803
  432MOL0     H59548  10.114   0.064   9.611  0.1765 -0.4642 -0.1252
  432MOL0     H59549  10.338  -0.020   9.459  0.1801 -2.3147 -2.3146
  432MOL0     H59550  10.193  -0.090   9.525 -0.6038  4.0835 -1.2697
  432MOL0     H59551  10.268  -0.296   9.458 -0.6376  2.7629  1.3445
  432MOL0     H59552  10.340  -0.198   9.339 -0.8253  0.7572 -0.8224
  432MOL0     H59553  10.540  -0.169   9.518 -1.3851  0.7928 -0.2713
  432MOL0     H59554  10.492  -0.319   9.592  0.4707 -0.3125 -0.7960
  432MOL0     H59555  10.517  -0.436   9.373  1.9494  0.3447 -2.1258
  432MOL0     H59556  10.562  -0.297   9.298 -1.3925 -5.4836 -3.1174
  432MOL0     H59557  10.770  -0.281   9.450  2.5732 -1.4760  0.5469
  432MOL0     H59558  10.767  -0.428   9.366  0.0442  0.3951 -0.0010
  432MOL0     H59559  10.676  -0.372   9.656 -0.2267  0.2689 -0.2600
  432MOL0     H59560  10.636  -0.527   9.570  0.7318 -1.1035 -2.0736
  432MOL0     H59561  10.919  -0.421   9.639 -0.1664 -0.3730 -1.6417
  432MOL0     H59562  10.875  -0.570   9.554  0.8352 -1.9859  1.1025
  432MOL0     H59563  10.777  -0.658   9.757 -1.2607  0.9377 -3.7408
  432MOL0     H59564  10.949  -0.601   9.788 -0.5017  0.6168  1.4834
  432MOL0     H59565  10.598  -0.545   9.868  0.3882  1.0085 -3.2449
  432MOL0     H59566  10.455  -0.416  10.034  0.5609 -2.0995 -3.8424
  432MOL0     H59567  10.463  -0.296   9.901  0.4091 -1.5309 -1.5139
  432MOL0     H59568  10.579  -0.252  10.185  0.6679  1.5781 -0.0796
  432MOL0     H59569  10.554  -0.129  10.057 -1.3959  1.6678  2.0856
  432MOL0     H59570  10.308  -0.166  10.078 -0.2673  0.4312 -0.8949
  432MOL0     H59571  10.338  -0.301  10.189  2.0491  0.8710  1.6628
  432MOL0     H59572  10.297  -0.153  10.354 -0.3093  1.4701 -0.9208
  432MOL0     H59573  10.464  -0.113  10.329  1.4861 -2.0556 -1.2455
  432MOL0     H59574  10.401  -0.035  10.527 -1.5219  0.2990  0.6615
  432MOL0     H59575  10.478  -0.016  10.745  0.6202  0.5073  1.3200
  432MOL0     H59576  10.438   0.136  10.821  0.0961  1.9372 -0.6572
  432MOL0     H59577  10.594   0.104  10.738 -0.3191 -0.4941 -4.5017
  432MOL0     H59578  10.668   0.473  10.905  0.9992  1.7845 -1.3060
  432MOL0     H59579  10.685   0.697  11.048 -0.4244 -0.6302  3.3146
  432MOL0     H59580  10.653   0.944  11.151  1.3855 -3.0920  0.6745
  432MOL0     H59581  10.535   0.931  11.014  0.8061  3.3119  0.9117
  432MOL0     H59582  10.436   0.994  11.284  0.3552  0.4822  0.2180
  432MOL0     H59583  10.522   1.127  11.206 -1.7992  1.8356 -3.3666
  432MOL0     H59584  10.257   1.082  11.197  1.0917 -0.0173  0.6288
  432MOL0     H59585  10.302   0.949  11.091  2.5184 -0.4045 -0.8809
  432MOL0     H59586  10.407   1.135  10.949  0.3234  0.8188  0.0648
  432MOL0     H59587  10.371   1.253  11.066 -2.5125  2.5708 -1.6833
  432MOL0     H59588  10.142   1.098  10.938 -0.1564 -0.1738  3.1099
  432MOL0     H59589  10.146   1.247  11.036  0.8776  0.7116  0.4724
  432MOL0     H59590  10.267   1.227  10.749  0.1537 -0.5020  0.5392
  432MOL0     H59591  10.271   1.363  10.860  0.9296 -0.4136 -0.6940
  432MOL0     H59592  10.030   1.357  10.861 -0.3561  1.2894 -0.3110
  432MOL0     H59593  10.036   1.221  10.737  0.6143  0.1395 -2.0016
  432MOL0     H59594  10.122   1.376  10.572 -1.1537 -1.5069  0.6715
  432MOL0     H59595  10.180   1.486  10.700  2.0952 -1.7644 -1.6290
  432MOL0     H59596  10.282   0.685  11.131  1.4362  0.8485 -0.6761
  432MOL0     H59597  10.248   0.472  10.977  0.2714 -1.5326 -0.0813
  432MOL0     H59598  10.376   0.442  10.447 -0.9984 -0.1066 -0.0481
  432MOL0     H59599  10.343   0.283  10.260 -0.2768 -0.6543 -0.1632
  432MOL0     H59600  10.416  -0.028   9.909  0.8888  2.2753  1.3127
  432MOL0     H59601  10.336   0.159  10.043 -1.0879 -1.7985  0.7389
  432MOL0     H59602  10.095   0.386  10.239 -0.0811 -0.2668  1.5094
  432MOL0     H59603  10.024   0.543  10.420  2.4122 -1.4585 -0.7497
  432MOL0     H59604   9.800   0.888  10.294  1.4638 -0.8282 -0.4301
  432MOL0     H59605   9.744   0.856  10.462  2.0348  1.6987  2.4210
  432MOL0     H59606   9.979   1.041  10.407 -2.5036  1.4493 -3.8436
  432MOL0     H59607   9.929   0.967  10.565  0.2243 -2.5833 -1.6196
  432MOL0     H59608   9.878   1.204  10.493  1.4846 -1.7484  0.6933
  432MOL0     H59609   9.743   1.133  10.397  1.1885 -2.0633 -2.7985
  432MOL0     H59610   9.700   1.220  10.624 -1.3459  0.4463 -0.6003
  432MOL0     H59611   9.795   1.099  10.685  1.4902 -1.3027 -1.2739
  432MOL0     H59612   9.455   0.858  10.603 -1.4476 -0.2792  1.8676
  432MOL0     H59613   9.948   0.851  10.134  4.2028  0.3210 -3.8259
  432MOL0     H59614   9.954   0.675   9.851  0.9706 -0.9391 -0.4949
  432MOL0     H59615   9.998   0.841   9.925  0.6750  0.5832 -0.8907
  432MOL0     H59616  10.116   0.730   9.867  0.5781  1.2383  0.6282
  433MOL0     O59617   4.557   3.724   7.477  0.1003 -0.2856 -0.5068
  433MOL0     C59618   4.478   3.645   7.540  0.1710 -0.3143 -0.1146
  433MOL0     O59619   4.397   3.685   7.635 -0.0274  0.2638 -0.2435
  433MOL0     C59620   4.433   3.814   7.680  0.0705  0.3393 -0.6261
  433MOL0     C59621   4.319   3.889   7.685  0.3973  0.0388 -0.1079
  433MOL0     C59622   4.325   4.016   7.731  0.4418 -0.0188 -0.0551
  433MOL0     C59623   4.437   4.060   7.796 -0.1463  0.4565 -0.8967
  433MOL0     O59624   4.432   4.182   7.856 -0.5264 -0.8406 -0.3585
  433MOL0     C59625   4.544   4.228   7.944  0.5393 -0.4589  1.1967
  433MOL0     C59626   4.507   4.193   8.088  0.6868 -0.4123  0.0622
  433MOL0     C59627   4.618   4.195   8.190 -0.9071 -0.0582  0.1593
  433MOL0     C59628   4.661   4.341   8.233  0.4217 -0.2954 -0.0904
  433MOL0     C59629   4.734   4.335   8.372  0.8018  1.0381 -0.4135
  433MOL0     C59630   4.806   4.468   8.406 -0.7462  0.9396  0.1027
  433MOL0     C59631   4.712   4.560   8.476  0.3347 -0.0373  1.1591
  433MOL0     C59632   4.815   4.655   8.547  0.6587  0.4635  0.2549
  433MOL0     N59633   4.744   4.745   8.650 -0.6111 -0.1882 -0.1420
  433MOL0     C59634   4.667   4.681   8.741 -0.4689 -0.6129 -0.6354
  433MOL0     C59635   4.600   4.790   8.798  0.0350  0.2556 -0.0806
  433MOL0     C59636   4.490   4.791   8.906  0.0467 -0.4529 -0.2504
  433MOL0     C59637   4.557   4.834   9.030  0.5037  0.1342  0.8439
  433MOL0     C59638   4.477   4.815   9.161  0.1240 -0.5196  0.7353
  433MOL0     C59639   4.514   4.930   9.266 -0.5543 -0.4609 -0.2781
  433MOL0     O59640   4.653   4.919   9.310  0.0782 -0.1137  0.0841
  433MOL0     C59641   4.701   5.019   9.395 -1.0257 -0.1371 -0.3261
  433MOL0     C59642   4.843   5.011   9.440  0.2253 -0.5995 -0.5766
  433MOL0     C59643   4.907   5.098   9.525  1.3719 -1.0029 -0.3621
  433MOL0     C59644   5.044   5.075   9.573  1.2811  0.4381  0.3584
  433MOL0     C59645   4.821   5.205   9.572 -0.0838 -0.1625  0.4564
  433MOL0     C59646   4.883   5.311   9.648  0.0746 -0.6963  0.1558
  433MOL0     O59647   4.921   5.423   9.581  0.0354 -0.9082  0.8314
  433MOL0     C59648   4.942   5.527   9.667  0.3405 -0.8321  0.3791
  433MOL0     C59649   5.068   5.559   9.714 -0.3378  0.1760 -0.1608
  433MOL0     C59650   5.087   5.674   9.789 -0.1028 -0.3427  1.1100
  433MOL0     C59651   4.980   5.741   9.848  0.9047 -0.8699  0.3832
  433MOL0     O59652   4.988   5.836   9.943  0.1481 -0.0540 -0.2663
  433MOL0     C59653   5.093   5.825  10.038  1.0243 -0.4774  0.4077
  433MOL0     C59654   5.079   5.934  10.147  1.0500 -0.6079  0.2548
  433MOL0     C59655   4.954   5.903  10.230 -0.6947 -0.0339 -1.4288
  433MOL0     C59656   4.918   6.023  10.328 -0.2995 -0.1367 -0.4124
  433MOL0     C59657   4.809   5.978  10.432 -1.5095 -1.1171 -0.0000
  433MOL0     C59658   4.674   5.969  10.370  1.3557  0.3415 -0.0726
  433MOL0     C59659   4.585   5.875  10.451 -0.5847  0.6215 -0.2781
  433MOL0     C59660   4.452   5.861  10.392  0.4069  0.4577  0.4836
  433MOL0    Cl59661   4.355   6.006  10.363  0.1129 -0.0327 -0.2552
  433MOL0     C59662   4.849   5.713   9.803 -0.5979  1.3326 -0.6845
  433MOL0     C59663   4.834   5.609   9.706  0.7911 -0.5778  0.0222
  433MOL0     O59664   4.890   5.293   9.772 -0.7798  0.2271  0.4402
  433MOL0     C59665   4.697   5.214   9.518 -0.5152 -0.0430 -0.1589
  433MOL0     C59666   4.631   5.128   9.431 -0.2415 -0.3706  0.2006
  433MOL0     N59667   4.645   4.909   8.743 -1.0425  1.0095 -0.2589
  433MOL0     N59668   4.738   4.882   8.654 -0.3042 -0.4351  0.5710
  433MOL0     C59669   4.555   3.982   7.792 -0.2489  0.4827 -0.0362
  433MOL0     C59670   4.555   3.857   7.732 -0.6028 -0.3117 -0.4724
  433MOL0     C59671   4.479   3.510   7.491  0.4644  0.7956 -0.0504
  433MOL0     C59672   4.568   3.478   7.385  0.2107 -0.7788 -1.1637
  433MOL0     C59673   4.568   3.355   7.312  0.2739  0.6741  0.0171
  433MOL0     C59674   4.471   3.255   7.345  1.2728  0.1186  0.2111
  433MOL0     O59675   4.442   3.139   7.264 -0.3886  0.4769  0.0625
  433MOL0     C59676   4.546   3.091   7.179 -0.4851  0.1476 -0.8020
  433MOL0     C59677   4.529   3.161   7.038  0.0779 -0.1826 -0.5291
  433MOL0     C59678   4.415   3.106   6.961  1.2231  0.2457 -0.3820
  433MOL0     C59679   4.458   3.042   6.823  0.7447  0.0753  0.1408
  433MOL0     C59680   4.507   2.907   6.846 -0.5987 -0.5048 -1.0250
  433MOL0     C59681   4.563   2.802   6.849  0.4595 -0.5821  0.4909
  433MOL0     C59682   4.385   3.278   7.454 -0.2305 -0.1455  0.1141
  433MOL0     C59683   4.391   3.406   7.528  0.0759  0.8083 -0.0341
  433MOL0     C59684   4.286   3.420   7.637 -0.1272 -0.2122  0.2275
  433MOL0     H59685   4.229   3.852   7.637  1.8104 -2.1997 -1.2073
  433MOL0     H59686   4.238   4.080   7.738 -0.4607 -1.2194  0.0660
  433MOL0     H59687   4.554   4.335   7.925 -2.3505 -0.6710 -2.6959
  433MOL0     H59688   4.642   4.188   7.918  1.0006  1.6776 -0.6964
  433MOL0     H59689   4.424   4.256   8.121  0.8067 -0.5487  0.6395
  433MOL0     H59690   4.460   4.096   8.106 -0.4804  0.4813  2.2056
  433MOL0     H59691   4.575   4.143   8.276 -1.7315  2.1839  1.1964
  433MOL0     H59692   4.704   4.135   8.157 -1.0645 -0.1750 -0.0417
  433MOL0     H59693   4.723   4.382   8.153 -3.8350  3.4124 -1.9187
  433MOL0     H59694   4.583   4.417   8.241 -0.2704 -0.5787 -2.9790
  433MOL0     H59695   4.812   4.258   8.369 -0.0482  0.1889 -1.3861
  433MOL0     H59696   4.665   4.301   8.450 -1.3648 -0.3080 -2.7818
  433MOL0     H59697   4.894   4.435   8.463  0.0161 -0.0960 -1.5645
  433MOL0     H59698   4.847   4.506   8.312 -1.2631  0.3151 -0.3826
  433MOL0     H59699   4.644   4.509   8.545 -0.8624  1.3331  1.0420
  433MOL0     H59700   4.649   4.611   8.402  0.0907  1.5621  2.4011
  433MOL0     H59701   4.889   4.599   8.605  2.3265  1.6448 -0.6465
  433MOL0     H59702   4.854   4.723   8.471  0.6823  3.6552  2.8778
  433MOL0     H59703   4.636   4.578   8.758 -1.5626 -0.5153 -1.8538
  433MOL0     H59704   4.445   4.695   8.932 -1.7122 -0.1624 -2.0219
  433MOL0     H59705   4.407   4.859   8.886 -0.1711 -1.6065 -4.0582
  433MOL0     H59706   4.650   4.778   9.039  0.0951 -0.6462  0.3721
  433MOL0     H59707   4.573   4.942   9.023  0.9897  0.0776  1.0806
  433MOL0     H59708   4.370   4.812   9.140  0.5002 -5.6796 -2.1279
  433MOL0     H59709   4.513   4.723   9.208 -1.7519 -2.0811 -0.7138
  433MOL0     H59710   4.488   5.030   9.232 -2.3873 -0.2810  1.4540
  433MOL0     H59711   4.458   4.913   9.359  1.4790 -3.1389  0.6039
  433MOL0     H59712   4.904   4.925   9.412 -0.3434 -2.1117  2.3810
  433MOL0     H59713   5.096   5.163   9.613 -1.9722  1.1921  3.3816
  433MOL0     H59714   5.108   5.039   9.491  1.7123 -0.8426  1.2381
  433MOL0     H59715   5.045   5.005   9.657 -1.1353 -0.2639 -0.1141
  433MOL0     H59716   5.151   5.503   9.673  1.8048  0.9247  2.7853
  433MOL0     H59717   5.192   5.700   9.794 -0.2081  0.2139  0.5723
  433MOL0     H59718   5.097   5.728  10.089  0.4556  0.4211  2.2806
  433MOL0     H59719   5.189   5.826   9.986  1.6460 -2.3903  1.3954
  433MOL0     H59720   5.165   5.931  10.215  1.0878 -0.3642  0.2189
  433MOL0     H59721   5.078   6.035  10.105  1.6898 -0.4724  0.5387
  433MOL0     H59722   4.972   5.824  10.302 -0.0595  0.7386 -0.7201
  433MOL0     H59723   4.875   5.873  10.159 -1.8941 -1.8678  0.5654
  433MOL0     H59724   4.887   6.115  10.278 -2.8925  0.3604  1.8447
  433MOL0     H59725   5.008   6.042  10.387  1.0961  0.8690 -2.7399
  433MOL0     H59726   4.847   5.883  10.473  2.5566  1.5282  3.3010
  433MOL0     H59727   4.803   6.043  10.520 -0.7036 -1.2769  0.1871
  433MOL0     H59728   4.670   5.935  10.267 -2.7403 -0.8017  0.2849
  433MOL0     H59729   4.627   6.068  10.371  0.4822 -0.0575  0.8762
  433MOL0     H59730   4.575   5.908  10.555 -1.3176 -1.9900  0.5571
  433MOL0     H59731   4.630   5.777  10.465 -2.7895 -0.6651 -1.5850
  433MOL0     H59732   4.384   5.806  10.458  0.0188  0.4753  0.1061
  433MOL0     H59733   4.453   5.813  10.294 -1.3151  0.5736  0.3835
  433MOL0     H59734   4.760   5.761   9.840 -0.4955  1.5689 -0.7448
  433MOL0     H59735   4.734   5.588   9.670 -0.4498  3.0894  0.8901
  433MOL0     H59736   4.627   5.282   9.566 -3.3214 -2.4632 -0.5354
  433MOL0     H59737   4.528   5.152   9.407 -0.9349 -2.2910  1.0544
  433MOL0     H59738   4.649   4.018   7.832  0.0841 -2.1806  1.8288
  433MOL0     H59739   4.637   3.787   7.745 -1.1020 -0.4356  2.8060
  433MOL0     H59740   4.649   3.548   7.371 -0.9816  1.0835  0.7257
  433MOL0     H59741   4.650   3.339   7.244  2.4375  1.5214  2.2786
  433MOL0     H59742   4.642   3.116   7.224 -2.6249  1.9884  3.2486
  433MOL0     H59743   4.543   2.982   7.171  1.2395  0.1252 -1.5304
  433MOL0     H59744   4.621   3.148   6.980  1.7492  0.5176  1.8462
  433MOL0     H59745   4.523   3.269   7.051  1.9541 -0.1609  0.5552
  433MOL0     H59746   4.360   3.031   7.020  0.9180  0.4469 -0.4073
  433MOL0     H59747   4.348   3.191   6.949 -0.9384 -1.1203  1.0666
  433MOL0     H59748   4.541   3.102   6.785  1.9051  0.3423  2.8190
  433MOL0     H59749   4.371   3.044   6.758  0.7268 -1.5534  0.0557
  433MOL0     H59750   4.618   2.710   6.852  0.8030 -0.3876  0.1667
  433MOL0     H59751   4.306   3.209   7.481 -1.3043  0.6636 -0.8913
  433MOL0     H59752   4.270   3.326   7.691  0.2123  0.6636  1.9073
  433MOL0     H59753   4.317   3.489   7.715  1.4962  1.4990 -1.8009
  433MOL0     H59754   4.189   3.446   7.593  0.4026  2.2705  0.4273
  434MOL0     O59755  10.628   0.286   9.252  0.3944 -0.1208 -0.2488
  434MOL0     C59756  10.537   0.273   9.338  0.1492 -1.0292  0.4720
  434MOL0     O59757  10.437   0.188   9.330  0.6636  0.4752  0.1855
  434MOL0     C59758  10.429   0.116   9.215 -0.1788  0.0626  0.6042
  434MOL0     C59759  10.349   0.171   9.109 -0.2126  1.0404  0.1766
  434MOL0     C59760  10.346   0.099   8.984 -0.7899  0.3480 -0.5884
  434MOL0     C59761  10.414  -0.018   8.966  0.1714  0.1548 -0.2030
  434MOL0     O59762  10.387  -0.079   8.846  0.3676  0.6624  0.7010
  434MOL0     C59763  10.508  -0.087   8.768 -0.8237 -0.3284 -0.2443
  434MOL0     C59764  10.545  -0.235   8.767 -0.6451  1.0346 -0.2030
  434MOL0     C59765  10.674  -0.275   8.689 -0.3392  0.8959  0.6535
  434MOL0     C59766  10.753  -0.162   8.633  0.4086 -0.9194  0.7798
  434MOL0     C59767  10.880  -0.205   8.550 -0.1754  0.0381  0.7461
  434MOL0     C59768  10.849  -0.254   8.408  0.0572 -0.5597 -0.3361
  434MOL0     C59769  10.969  -0.311   8.333  0.5306  0.3137 -0.6346
  434MOL0     C59770  11.033  -0.449   8.390 -0.2524 -0.2126 -0.8459
  434MOL0     N59771  11.171  -0.463   8.347 -0.0651 -0.0333 -1.0582
  434MOL0     C59772  11.208  -0.488   8.215  0.6413 -0.1856 -1.1559
  434MOL0     C59773  11.337  -0.468   8.210 -0.2900 -0.8933  0.1703
  434MOL0     C59774  11.422  -0.497   8.084 -0.3555 -0.1020  0.1565
  434MOL0     C59775  11.533  -0.603   8.120 -0.0187 -0.9184 -0.2329
  434MOL0     C59776  11.623  -0.634   7.998  0.4187  0.4816  0.5778
  434MOL0     C59777  11.720  -0.747   8.013 -0.7412  0.5440  0.0494
  434MOL0     O59778  11.820  -0.702   8.105 -0.2445  0.2365 -0.8072
  434MOL0     C59779  11.941  -0.775   8.094  0.1252  0.6306 -0.2896
  434MOL0     C59780  12.049  -0.731   8.167  0.7893  0.0490 -0.2247
  434MOL0     C59781  12.176  -0.794   8.186 -0.8945  0.5725  1.2626
  434MOL0     C59782  12.272  -0.737   8.281 -0.4265 -1.0211  1.0888
  434MOL0     C59783  12.195  -0.910   8.112 -0.1575  0.6357  0.3927
  434MOL0     C59784  12.319  -0.993   8.117  0.1624  0.7126 -0.5295
  434MOL0     O59785  12.389  -0.996   8.239  0.2549  0.4558  0.1177
  434MOL0     C59786  12.522  -1.027   8.251  0.1682 -0.1884 -0.0488
  434MOL0     C59787  12.615  -0.933   8.203 -1.3819  0.1102 -0.1048
  434MOL0     C59788  12.757  -0.963   8.237 -0.5280 -0.5009  0.2714
  434MOL0     C59789  12.809  -1.082   8.286  0.7792  1.4138 -0.6279
  434MOL0     O59790  12.935  -1.103   8.306 -0.3375  0.4769 -0.0951
  434MOL0     C59791  12.978  -1.175   8.427 -0.0843  0.1108  0.5234
  434MOL0     C59792  13.125  -1.130   8.457  0.2031 -0.6955 -1.0926
  434MOL0     C59793  13.202  -1.224   8.560 -0.5118  0.7677  0.1444
  434MOL0     C59794  13.201  -1.201   8.708  0.1732  0.1776 -0.2858
  434MOL0     C59795  13.328  -1.259   8.767 -0.6738 -0.3059 -1.6944
  434MOL0     C59796  13.337  -1.242   8.917  0.4163 -0.6517 -0.2192
  434MOL0     C59797  13.462  -1.310   8.975  0.0019 -0.1359 -0.1538
  434MOL0     C59798  13.496  -1.265   9.120 -0.4291  0.2774 -0.3511
  434MOL0    Cl59799  13.354  -1.300   9.227 -0.2632 -0.0262 -0.4069
  434MOL0     C59800  12.708  -1.178   8.321  0.0740  0.2350  0.1995
  434MOL0     C59801  12.568  -1.152   8.299  0.7469  0.1745 -0.1411
  434MOL0     O59802  12.344  -1.060   8.020 -0.7095  0.4337 -0.3367
  434MOL0     C59803  12.088  -0.963   8.037  0.0959  0.3633 -0.0843
  434MOL0     C59804  11.971  -0.888   8.022 -0.5194  0.5072 -0.1938
  434MOL0     N59805  11.377  -0.429   8.342 -1.0473  0.1849 -1.1478
  434MOL0     N59806  11.277  -0.420   8.416 -0.3685 -0.0306  0.2382
  434MOL0     C59807  10.487  -0.072   9.074 -1.4391  0.8364 -0.1968
  434MOL0     C59808  10.503   0.002   9.194  0.8298  1.5099  1.6712
  434MOL0     C59809  10.574   0.326   9.471 -0.6037 -0.6931 -0.1697
  434MOL0     C59810  10.541   0.249   9.584  0.0142  0.2717  0.8165
  434MOL0     C59811  10.563   0.304   9.707  0.6501 -0.3623 -0.0645
  434MOL0     C59812  10.613   0.429   9.728  0.8385 -0.7438  0.0487
  434MOL0     O59813  10.637   0.475   9.850  0.4109  0.1467  0.4340
  434MOL0     C59814  10.581   0.405   9.951  0.8212  0.1735 -1.0488
  434MOL0     C59815  10.599   0.461  10.103  0.5076  0.2234  0.4560
  434MOL0     C59816  10.489   0.560  10.155 -0.3270 -0.4145  0.3180
  434MOL0     C59817  10.474   0.672  10.049  0.2771  0.1646  0.4147
  434MOL0     C59818  10.401   0.789  10.105  0.6720  0.0070 -0.3314
  434MOL0     C59819  10.324   0.871  10.157  0.1766  0.8395 -0.6419
  434MOL0     C59820  10.672   0.494   9.622  0.1572 -0.5507 -0.0339
  434MOL0     C59821  10.649   0.452   9.489  0.7371  0.2612 -0.4769
  434MOL0     C59822  10.702   0.537   9.369  0.3050 -0.0651 -0.1613
  434MOL0     H59823  10.303   0.269   9.110  2.8525  2.7098 -2.5377
  434MOL0     H59824  10.281   0.144   8.909 -2.2280  0.2807  0.5822
  434MOL0     H59825  10.592  -0.023   8.798 -0.8122 -1.0985  1.4665
  434MOL0     H59826  10.495  -0.066   8.662  0.9565  1.1511 -0.2215
  434MOL0     H59827  10.567  -0.271   8.868 -2.9541 -0.5944 -0.2122
  434MOL0     H59828  10.459  -0.298   8.742 -1.8347  0.3278  4.7152
  434MOL0     H59829  10.741  -0.337   8.749  0.4071 -1.1644 -2.1138
  434MOL0     H59830  10.646  -0.339   8.605  2.0667  1.3641 -0.5661
  434MOL0     H59831  10.687  -0.113   8.560  3.0830  1.3314 -0.3192
  434MOL0     H59832  10.780  -0.086   8.707 -1.1514  1.8216 -1.2588
  434MOL0     H59833  10.933  -0.284   8.604 -0.2536 -0.4449  0.1388
  434MOL0     H59834  10.935  -0.114   8.524 -3.5665  1.7811 -1.0145
  434MOL0     H59835  10.784  -0.340   8.423 -1.8372  0.9369  0.4022
  434MOL0     H59836  10.799  -0.180   8.345 -0.9608 -1.1578 -0.2536
  434MOL0     H59837  11.042  -0.229   8.327  0.5714  0.2823 -0.5706
  434MOL0     H59838  10.937  -0.336   8.231 -0.4010 -1.1470 -0.0168
  434MOL0     H59839  11.033  -0.441   8.499 -0.3907 -1.0105 -0.7808
  434MOL0     H59840  10.974  -0.536   8.358 -0.7202 -0.3023  0.2000
  434MOL0     H59841  11.141  -0.522   8.137 -1.6745  0.2544  0.5709
  434MOL0     H59842  11.473  -0.408   8.049 -1.7558  0.0191 -1.7458
  434MOL0     H59843  11.356  -0.524   8.001  0.0444  1.0841 -0.5655
  434MOL0     H59844  11.600  -0.568   8.199  0.8447  0.5762 -1.5762
  434MOL0     H59845  11.474  -0.692   8.145  0.7327 -1.8586 -1.6316
  434MOL0     H59846  11.559  -0.659   7.913  0.0371 -3.1279  1.7236
  434MOL0     H59847  11.680  -0.544   7.972  0.1152 -0.2433 -3.1060
  434MOL0     H59848  11.672  -0.839   8.048 -1.3555  1.3101  1.2809
  434MOL0     H59849  11.773  -0.761   7.918 -1.8386  0.2817 -0.5469
  434MOL0     H59850  12.032  -0.641   8.225  1.0660 -0.4819  0.7032
  434MOL0     H59851  12.228  -0.650   8.332  2.2265  2.7250 -2.3939
  434MOL0     H59852  12.356  -0.705   8.219  0.1275 -0.5389  2.0627
  434MOL0     H59853  12.309  -0.809   8.355  2.4998  1.2699  2.0514
  434MOL0     H59854  12.581  -0.846   8.148 -2.8935 -1.4363 -1.7558
  434MOL0     H59855  12.818  -0.879   8.204 -2.6296  1.1333  0.3033
  434MOL0     H59856  12.915  -1.151   8.514 -0.1888  0.8247  0.2550
  434MOL0     H59857  12.975  -1.283   8.407  2.5470 -0.1835  1.2368
  434MOL0     H59858  13.166  -1.136   8.356 -3.1718  2.2404 -2.8945
  434MOL0     H59859  13.109  -1.027   8.491  0.9946 -0.6228 -0.9384
  434MOL0     H59860  13.299  -1.233   8.510 -2.0920  0.1882 -3.1383
  434MOL0     H59861  13.155  -1.322   8.550 -0.3443  0.8412 -1.9333
  434MOL0     H59862  13.113  -1.246   8.755  0.8764 -0.0485  0.8475
  434MOL0     H59863  13.200  -1.093   8.727 -0.1614  0.0522  0.4355
  434MOL0     H59864  13.332  -1.366   8.745  1.9007 -1.3963  2.8078
  434MOL0     H59865  13.412  -1.212   8.714 -0.8628 -2.9440 -4.6420
  434MOL0     H59866  13.248  -1.281   8.968 -0.4096 -0.3071 -1.3653
  434MOL0     H59867  13.331  -1.138   8.948 -1.5941 -0.1949 -1.8869
  434MOL0     H59868  13.550  -1.296   8.911 -1.5203  0.8694 -2.1090
  434MOL0     H59869  13.432  -1.415   8.982 -4.7953  0.5225 -4.6967
  434MOL0     H59870  13.534  -1.163   9.117  0.2149  0.1516  1.8970
  434MOL0     H59871  13.577  -1.326   9.161 -2.0754 -1.7864  0.0104
  434MOL0     H59872  12.729  -1.278   8.357 -0.1437  0.2737  0.4352
  434MOL0     H59873  12.489  -1.211   8.344 -1.2635  2.7075 -0.0836
  434MOL0     H59874  12.105  -1.050   7.975 -0.3969  0.0876  0.1651
  434MOL0     H59875  11.906  -0.930   7.945  1.7925  1.6256 -2.9335
  434MOL0     H59876  10.538  -0.167   9.088 -0.1074  1.6064  0.3914
  434MOL0     H59877  10.557  -0.039   9.279 -0.5193 -2.6973  0.7369
  434MOL0     H59878  10.494   0.152   9.578  1.6902 -0.7169  2.6419
  434MOL0     H59879  10.530   0.233   9.783  0.4005 -0.5240 -0.3200
  434MOL0     H59880  10.474   0.395   9.928  0.3367  0.8369  0.7588
  434MOL0     H59881  10.635   0.311   9.965 -2.8024 -1.6633  3.0422
  434MOL0     H59882  10.697   0.505  10.122  0.1310  0.6366  1.4934
  434MOL0     H59883  10.592   0.370  10.164 -1.6278 -1.1503 -1.6600
  434MOL0     H59884  10.391   0.516  10.175 -1.3800  1.9197  0.6246
  434MOL0     H59885  10.519   0.614  10.245 -1.4925  2.2317 -0.7611
  434MOL0     H59886  10.409   0.627   9.974  0.5285 -0.6852  0.7025
  434MOL0     H59887  10.568   0.701  10.003  0.2258  1.9388  1.2948
  434MOL0     H59888  10.258   0.936  10.211  0.6802 -0.3892  1.5702
  434MOL0     H59889  10.743   0.573   9.644 -1.1372  0.8575 -0.7673
  434MOL0     H59890  10.795   0.492   9.334 -0.1899  0.1950 -1.8997
  434MOL0     H59891  10.630   0.538   9.287  0.2375 -3.8805 -0.3235
  434MOL0     H59892  10.738   0.636   9.398 -0.6613  1.1816 -2.8675
  435MOL0     O59893   4.073   9.488   9.166  0.3104  0.0734  0.7754
  435MOL0     C59894   4.181   9.464   9.222  0.4799  0.6499 -0.2013
  435MOL0     O59895   4.230   9.513   9.339  0.1066 -0.2242 -0.5534
  435MOL0     C59896   4.156   9.623   9.376  0.8705  0.9459  1.1601
  435MOL0     C59897   4.212   9.749   9.341  0.1226  0.3856  1.0502
  435MOL0     C59898   4.132   9.867   9.373  0.0797  0.2781 -0.5477
  435MOL0     C59899   4.014   9.861   9.443  0.8388  0.0476 -0.4787
  435MOL0     O59900   3.930   9.963   9.478 -0.1289  0.1536 -0.4869
  435MOL0     C59901   3.994  10.088   9.511 -0.8486  0.5610  0.6000
  435MOL0     C59902   3.900  10.207   9.524 -0.8644  0.4550 -0.4114
  435MOL0     C59903   3.989  10.329   9.573  0.1749  0.4367 -0.0742
  435MOL0     C59904   3.907  10.466   9.554  0.6125  0.1869 -0.7423
  435MOL0     C59905   3.779  10.471   9.647  0.5144  0.4304 -0.2737
  435MOL0     C59906   3.713  10.613   9.659  0.0711 -0.1403  0.3247
  435MOL0     C59907   3.617  10.624   9.781 -0.1549  0.2849  0.3871
  435MOL0     C59908   3.544  10.764   9.778  0.7543 -0.0089 -0.0747
  435MOL0     N59909   3.634  10.878   9.778  0.4229 -0.3270 -1.3400
  435MOL0     C59910   3.744  10.908   9.861 -0.1111 -0.2877  0.0675
  435MOL0     C59911   3.774  11.039   9.831  0.9909 -0.6920 -0.0663
  435MOL0     C59912   3.874  11.129   9.896 -0.6490 -0.4296  0.0322
  435MOL0     C59913   3.806  11.218   9.999 -0.0040 -0.7730 -0.0594
  435MOL0     C59914   3.705  11.332   9.950  0.2648 -0.2244  0.2652
  435MOL0     C59915   3.713  11.457  10.043  0.1219  0.0156  0.5763
  435MOL0     O59916   3.720  11.423  10.178  0.3691 -0.1343 -0.6101
  435MOL0     C59917   3.619  11.361  10.245  0.8368 -0.2588 -0.8408
  435MOL0     C59918   3.493  11.333  10.185 -0.0420  0.2234 -0.1936
  435MOL0     C59919   3.389  11.265  10.245  0.9675 -0.5563 -0.6315
  435MOL0     C59920   3.257  11.266  10.173  0.4291 -0.0326  0.0491
  435MOL0     C59921   3.410  11.204  10.374 -0.5865 -0.0962 -0.0169
  435MOL0     C59922   3.313  11.131  10.451  0.3876  0.2560 -0.4458
  435MOL0     O59923   3.348  11.083  10.577  0.0309  0.3724 -0.1145
  435MOL0     C59924   3.249  11.023  10.644 -0.7528 -0.2462  0.4559
  435MOL0     C59925   3.127  11.089  10.673  0.2468 -0.4975 -0.4067
  435MOL0     C59926   3.025  11.022  10.733 -0.7667  0.1203 -1.2537
  435MOL0     C59927   3.049  10.895  10.782 -0.1416 -0.1559  0.8765
  435MOL0     O59928   2.964  10.827  10.871 -0.0049 -0.3747  0.3453
  435MOL0     C59929   2.829  10.854  10.867  0.5128  0.5522 -0.5264
  435MOL0     C59930   2.756  10.801  10.984  0.5132  0.4382  0.2110
  435MOL0     C59931   2.757  10.646  10.974 -0.7144  0.3627 -0.3287
  435MOL0     C59932   2.683  10.588  11.095  0.5651  0.7470 -0.6752
  435MOL0     C59933   2.711  10.431  11.122 -0.7680 -0.2372  1.0793
  435MOL0     C59934   2.667  10.346  11.003  0.4754 -0.0538  0.2688
  435MOL0     C59935   2.700  10.202  11.028 -0.4012 -0.4592 -0.0648
  435MOL0     C59936   2.664  10.114  10.914  0.1337 -0.4172  0.4717
  435MOL0    Cl59937   2.747  10.163  10.760 -0.5855 -0.0828 -0.2752
  435MOL0     C59938   3.175  10.832  10.758 -0.6290  0.1539  0.1856
  435MOL0     C59939   3.277  10.895  10.693 -0.0502  0.0883  0.8294
  435MOL0     O59940   3.209  11.105  10.389 -0.5722 -0.0954 -0.1451
  435MOL0     C59941   3.546  11.223  10.423 -0.3040 -0.0345  0.1218
  435MOL0     C59942   3.641  11.310  10.367 -0.4833  0.6676  0.0648
  435MOL0     N59943   3.684  11.082   9.735  0.1017  0.1526 -0.2271
  435MOL0     N59944   3.604  10.989   9.709  0.1221 -0.6512 -0.2988
  435MOL0     C59945   3.970   9.734   9.484  0.1993 -0.0913 -0.7038
  435MOL0     C59946   4.039   9.616   9.457 -0.4009 -0.1392  0.1852
  435MOL0     C59947   4.269   9.375   9.158  0.1365  0.0606 -0.5615
  435MOL0     C59948   4.281   9.248   9.217  0.2310  0.4047  0.3792
  435MOL0     C59949   4.366   9.159   9.162  1.0322 -0.3297 -0.3484
  435MOL0     C59950   4.429   9.188   9.040  0.3103 -0.9183 -0.3982
  435MOL0     O59951   4.490   9.085   8.981 -0.0971 -0.0936 -0.4797
  435MOL0     C59952   4.557   9.090   8.859 -0.0114 -0.1077 -0.0935
  435MOL0     C59953   4.618   8.966   8.810  0.8699 -0.0483 -0.9423
  435MOL0     C59954   4.511   8.892   8.736  1.2335 -0.8962  0.0594
  435MOL0     C59955   4.541   8.742   8.743  0.6055  0.1035  0.4513
  435MOL0     C59956   4.493   8.685   8.866 -0.4796 -0.2385  0.7035
  435MOL0     C59957   4.454   8.644   8.967  0.7406 -0.1567  0.0668
  435MOL0     C59958   4.414   9.304   8.974  1.3010 -0.4716 -0.4434
  435MOL0     C59959   4.340   9.406   9.039 -0.2278 -0.2167 -0.0486
  435MOL0     C59960   4.343   9.545   8.974  0.4310 -0.4777 -0.2949
  435MOL0     H59961   4.299   9.751   9.276 -1.3348 -1.0119 -1.0897
  435MOL0     H59962   4.162   9.963   9.332  2.2247 -0.4901 -0.9425
  435MOL0     H59963   4.065  10.112   9.430  0.0299 -2.0876  0.5085
  435MOL0     H59964   4.061  10.077   9.597  1.6848 -1.4838 -1.4416
  435MOL0     H59965   3.841  10.236   9.437 -1.6644  3.6999  1.0793
  435MOL0     H59966   3.835  10.173   9.605 -0.0298 -0.2266 -0.0132
  435MOL0     H59967   4.028  10.311   9.673 -0.5283 -1.1536 -0.0478
  435MOL0     H59968   4.071  10.343   9.503 -1.4451  3.0214 -1.6512
  435MOL0     H59969   3.973  10.551   9.574  2.1357 -0.6444 -2.0192
  435MOL0     H59970   3.890  10.470   9.446 -0.2873  2.0204 -0.5687
  435MOL0     H59971   3.815  10.444   9.746 -1.3643 -1.6597 -0.0938
  435MOL0     H59972   3.710  10.388   9.635  0.7626  0.2912 -0.7803
  435MOL0     H59973   3.795  10.684   9.655 -0.4416  0.4398 -0.0999
  435MOL0     H59974   3.657  10.628   9.566  2.2213  0.0076 -0.9970
  435MOL0     H59975   3.667  10.609   9.878 -1.8761 -1.9043  1.0146
  435MOL0     H59976   3.539  10.547   9.779  0.1191 -0.0235  1.0433
  435MOL0     H59977   3.485  10.770   9.686  0.7072 -0.7583 -0.1002
  435MOL0     H59978   3.471  10.780   9.858  0.1173 -2.1952 -0.1587
  435MOL0     H59979   3.789  10.848   9.941  3.0507 -0.5482 -1.7389
  435MOL0     H59980   3.928  11.184   9.818 -0.2235  0.9441  1.2618
  435MOL0     H59981   3.950  11.079   9.957  0.8909  2.7435  0.9614
  435MOL0     H59982   3.738  11.154  10.057 -2.0295 -0.4725 -1.9339
  435MOL0     H59983   3.873  11.262  10.073 -0.5503 -0.3787  0.2102
  435MOL0     H59984   3.739  11.355   9.848 -0.3198 -2.8422 -0.5831
  435MOL0     H59985   3.609  11.282   9.945 -0.1006  0.5912 -2.4685
  435MOL0     H59986   3.802  11.517  10.024  0.0332  0.4198  1.3641
  435MOL0     H59987   3.640  11.536  10.026  2.2841  2.0715  0.3171
  435MOL0     H59988   3.477  11.374  10.086 -1.6365  0.9040  0.3182
  435MOL0     H59989   3.171  11.285  10.238  0.8078 -1.7101  1.1197
  435MOL0     H59990   3.231  11.167  10.135 -0.7299  0.6672 -1.0488
  435MOL0     H59991   3.244  11.345  10.099  0.7431  1.0130  1.0846
  435MOL0     H59992   3.106  11.191  10.644 -1.5063 -0.0329  2.2327
  435MOL0     H59993   2.927  11.066  10.750 -0.5541  0.8821 -1.9046
  435MOL0     H59994   2.818  10.962  10.882  1.4925  1.0487 -2.9354
  435MOL0     H59995   2.794  10.820  10.769  2.9525  0.0675 -1.2949
  435MOL0     H59996   2.810  10.835  11.072 -0.3646  2.3901  0.0454
  435MOL0     H59997   2.655  10.842  10.992 -0.5217 -1.7295 -0.8390
  435MOL0     H59998   2.864  10.623  10.974 -1.0355 -1.2561  0.7429
  435MOL0     H59999   2.710  10.627  10.877  0.3086  2.1500 -1.2388
  435MOL0     H60000   2.580  10.612  11.068 -0.9224 -1.9550  1.9854
  435MOL0     H60001   2.698  10.641  11.190  0.8993 -0.5963  0.0650
  435MOL0     H60002   2.819  10.414  11.130 -1.0814 -3.0426  0.3694
  435MOL0     H60003   2.668  10.393  11.215 -1.4286  1.0569  1.3336
  435MOL0     H60004   2.723  10.379  10.915  0.9508  0.0583  0.6048
  435MOL0     H60005   2.562  10.373  10.991  0.0259 -1.5807  0.5590
  435MOL0     H60006   2.627  10.184  11.107 -0.8576  2.2621  0.2279
  435MOL0     H60007   2.803  10.194  11.063 -0.7930 -1.0226  1.0074
  435MOL0     H60008   2.555  10.125  10.910 -0.1283  0.5187  4.9610
  435MOL0     H60009   2.687  10.014  10.953  1.2210 -0.6146 -0.6108
  435MOL0     H60010   3.190  10.733  10.802 -0.4151 -0.4364 -1.1539
  435MOL0     H60011   3.374  10.849  10.679 -0.8600 -1.9531  1.5495
  435MOL0     H60012   3.576  11.168  10.512 -0.2241 -4.4457 -2.3394
  435MOL0     H60013   3.739  11.334  10.407  1.6254 -2.6233 -2.5629
  435MOL0     H60014   3.876   9.724   9.537  0.6309 -1.7665 -0.1911
  435MOL0     H60015   4.009   9.517   9.488  0.4756 -0.3983  0.2158
  435MOL0     H60016   4.231   9.233   9.312 -0.7003  0.6421 -0.0685
  435MOL0     H60017   4.388   9.063   9.207  1.0174  0.3196  1.1224
  435MOL0     H60018   4.490   9.130   8.782 -0.7788 -1.7112 -0.3194
  435MOL0     H60019   4.640   9.160   8.868  0.7743 -0.9637 -0.5567
  435MOL0     H60020   4.639   8.904   8.898 -2.0919  0.8421  0.5346
  435MOL0     H60021   4.698   8.995   8.742 -2.7253  1.5048 -5.0144
  435MOL0     H60022   4.410   8.924   8.761  1.2970 -1.0791  0.5619
  435MOL0     H60023   4.525   8.919   8.631  0.7663  2.3187  0.7218
  435MOL0     H60024   4.649   8.720   8.740  0.3161 -1.3833 -0.3008
  435MOL0     H60025   4.493   8.693   8.658  4.7709 -1.7267 -1.1456
  435MOL0     H60026   4.420   8.603   9.060  1.4174 -4.4849 -1.3366
  435MOL0     H60027   4.466   9.330   8.882 -2.1891  3.3467 -1.6533
  435MOL0     H60028   4.359   9.547   8.866 -2.1435 -0.9758 -0.7255
  435MOL0     H60029   4.239   9.576   8.986  1.3032  2.8483 -0.1864
  435MOL0     H60030   4.412   9.611   9.028  0.8289 -0.8717 -0.3166
  436MOL0     O60031   3.975   6.456   3.390 -0.4874 -0.2303  0.6525
  436MOL0     C60032   3.959   6.528   3.491  0.6399  0.1596  0.0265
  436MOL0     O60033   3.844   6.582   3.529  0.0340 -0.8259 -0.2488
  436MOL0     C60034   3.739   6.605   3.442 -0.3375  0.9154  1.1797
  436MOL0     C60035   3.752   6.680   3.326 -0.2322  0.2185 -0.6023
  436MOL0     C60036   3.650   6.706   3.232  0.4104 -0.1141 -0.2622
  436MOL0     C60037   3.520   6.645   3.245 -1.4191 -0.8102  0.5592
  436MOL0     O60038   3.416   6.656   3.155  0.3261 -0.1143  0.9261
  436MOL0     C60039   3.426   6.748   3.048  0.0050  0.7747 -0.3797
  436MOL0     C60040   3.407   6.891   3.099 -0.0151 -0.1307  0.1606
  436MOL0     C60041   3.407   7.005   2.999 -0.0021 -0.5249 -0.2514
  436MOL0     C60042   3.317   6.993   2.871 -0.0793  0.3198 -0.5855
  436MOL0     C60043   3.301   7.133   2.803  0.6315 -0.9435  0.1464
  436MOL0     C60044   3.189   7.132   2.702 -0.3761 -0.8660 -0.6005
  436MOL0     C60045   3.153   7.275   2.646  0.7390  0.1206 -0.0678
  436MOL0     C60046   3.048   7.264   2.538  0.2315 -0.1179 -0.1444
  436MOL0     N60047   3.099   7.197   2.420 -0.1497  0.5258 -0.1222
  436MOL0     C60048   3.065   7.069   2.394 -0.2757  0.5997 -0.2435
  436MOL0     C60049   3.122   7.041   2.279 -0.2156 -0.5391 -1.1738
  436MOL0     C60050   3.102   6.915   2.192  0.0511 -0.1293  0.6112
  436MOL0     C60051   2.948   6.881   2.186 -0.5799 -0.6443  0.7635
  436MOL0     C60052   2.926   6.770   2.080  0.0179 -0.0218 -0.2984
  436MOL0     C60053   2.770   6.755   2.053  0.3021  0.5709  0.6665
  436MOL0     O60054   2.742   6.673   1.933  0.2768 -0.8253 -0.0690
  436MOL0     C60055   2.767   6.532   1.935 -1.2107  0.2184  0.2016
  436MOL0     C60056   2.836   6.471   1.833  0.6510  0.3294  0.8791
  436MOL0     C60057   2.857   6.327   1.827 -0.1635 -0.9795 -0.4521
  436MOL0     C60058   2.951   6.279   1.725  0.1139  0.2825  0.9955
  436MOL0     C60059   2.810   6.248   1.931  0.1474  0.3850  0.1044
  436MOL0     C60060   2.823   6.104   1.918 -0.8946  0.3345  0.4287
  436MOL0     O60061   2.705   6.038   1.945  0.1953 -0.5561 -0.4696
  436MOL0     C60062   2.682   5.908   1.916 -0.0746  0.1299 -0.1918
  436MOL0     C60063   2.557   5.868   1.941 -0.7759  0.2644 -0.3069
  436MOL0     C60064   2.508   5.750   1.898  0.3109 -0.4634  0.2093
  436MOL0     C60065   2.580   5.659   1.820  0.4320 -0.4624  0.2318
  436MOL0     O60066   2.516   5.545   1.779  0.1945  0.3597  0.1089
  436MOL0     C60067   2.533   5.505   1.638 -0.1437  0.2390 -1.3056
  436MOL0     C60068   2.430   5.395   1.598  0.7481  0.3403 -1.0383
  436MOL0     C60069   2.428   5.352   1.452 -0.9764 -0.6574 -0.4066
  436MOL0     C60070   2.510   5.224   1.434  0.0344 -0.9094 -0.4194
  436MOL0     C60071   2.510   5.209   1.285  0.1732 -0.8213  0.0209
  436MOL0     C60072   2.580   5.316   1.198 -0.2607  0.3363  1.1151
  436MOL0     C60073   2.585   5.282   1.051  1.0195 -0.6988 -0.2388
  436MOL0     C60074   2.685   5.183   1.014 -0.0045  0.2192 -0.2445
  436MOL0    Cl60075   2.702   5.179   0.838 -0.3632  0.3067  0.2811
  436MOL0     C60076   2.714   5.693   1.795  0.0662  0.4327  0.3713
  436MOL0     C60077   2.764   5.810   1.844 -0.1130 -0.4275 -1.3310
  436MOL0     O60078   2.931   6.054   1.901 -0.0050 -0.1283 -0.1563
  436MOL0     C60079   2.734   6.304   2.037  0.0548 -0.0948  0.3084
  436MOL0     C60080   2.725   6.444   2.039  0.7876  0.6129  0.3475
  436MOL0     N60081   3.206   7.145   2.245  0.2312  0.0106 -0.8689
  436MOL0     N60082   3.186   7.242   2.331 -0.7564  0.7653  0.9424
  436MOL0     C60083   3.501   6.572   3.369 -0.2994 -0.7070  0.0935
  436MOL0     C60084   3.611   6.553   3.463  0.7860  0.0133  0.1486
  436MOL0     C60085   4.073   6.529   3.578 -0.3040  1.7839 -0.9491
  436MOL0     C60086   4.190   6.467   3.544 -0.3729  0.2110  0.6872
  436MOL0     C60087   4.305   6.464   3.612  0.0596  0.4567 -0.2847
  436MOL0     C60088   4.308   6.510   3.748  0.3847 -0.7987 -0.2633
  436MOL0     O60089   4.414   6.489   3.831  0.3619 -0.7778 -0.0689
  436MOL0     C60090   4.510   6.387   3.805 -0.7968 -0.2132  0.1041
  436MOL0     C60091   4.624   6.394   3.904 -0.8021 -0.1899  1.0917
  436MOL0     C60092   4.701   6.531   3.893 -0.1380  0.0234  0.9288
  436MOL0     C60093   4.850   6.511   3.866  0.2035  0.1810  0.7867
  436MOL0     C60094   4.924   6.458   3.971  0.1418  0.4213  0.3070
  436MOL0     C60095   4.996   6.410   4.053  0.4690 -0.5033 -0.3671
  436MOL0     C60096   4.191   6.568   3.791  1.1329  0.3577 -0.6937
  436MOL0     C60097   4.074   6.578   3.712  0.4181 -1.0903  0.1951
  436MOL0     C60098   3.957   6.653   3.780 -0.3068  0.2940  0.7729
  436MOL0     H60099   3.846   6.730   3.306  0.5389 -1.4654 -1.4243
  436MOL0     H60100   3.671   6.769   3.146  0.3383  0.0831 -0.1347
  436MOL0     H60101   3.338   6.720   2.989  1.2685 -3.8197 -0.5013
  436MOL0     H60102   3.520   6.734   2.992 -0.0794 -0.6144 -0.2017
  436MOL0     H60103   3.316   6.893   3.160 -0.0057  3.4693  0.2335
  436MOL0     H60104   3.480   6.915   3.177 -1.4140 -0.9020  1.7738
  436MOL0     H60105   3.365   7.094   3.048  3.0608  0.7667  0.2179
  436MOL0     H60106   3.505   7.038   2.964  0.7573 -0.2576  1.9772
  436MOL0     H60107   3.373   6.919   2.814 -1.5715 -1.2546 -0.0843
  436MOL0     H60108   3.219   6.953   2.897  0.1564  0.5368  0.7557
  436MOL0     H60109   3.398   7.150   2.753 -0.0605 -2.3282 -1.8220
  436MOL0     H60110   3.267   7.215   2.866 -2.7514 -3.8988  2.5487
  436MOL0     H60111   3.225   7.076   2.616  3.7160  1.2488 -0.5362
  436MOL0     H60112   3.097   7.094   2.748  0.3180  0.0081  1.6918
  436MOL0     H60113   3.233   7.333   2.600  0.8122 -1.2846 -1.8354
  436MOL0     H60114   3.106   7.341   2.720 -0.1711 -1.4987  0.8674
  436MOL0     H60115   2.966   7.207   2.582 -0.9737  1.1198 -0.7467
  436MOL0     H60116   3.009   7.364   2.521  0.8876 -0.0314 -1.2494
  436MOL0     H60117   2.990   7.008   2.444  1.8297 -3.0657 -1.2554
  436MOL0     H60118   3.159   6.833   2.239  1.1250 -0.3172 -0.9536
  436MOL0     H60119   3.152   6.936   2.097 -0.7644 -0.8887 -0.0084
  436MOL0     H60120   2.896   6.840   2.274 -1.5884 -0.3264  0.3286
  436MOL0     H60121   2.902   6.974   2.153  2.4069  2.4144  4.3095
  436MOL0     H60122   2.980   6.792   1.987 -2.0257  0.0699 -1.5246
  436MOL0     H60123   2.955   6.676   2.128  0.1278 -0.1141 -0.5454
  436MOL0     H60124   2.709   6.717   2.136  0.7654 -0.9409  0.3533
  436MOL0     H60125   2.736   6.859   2.045  1.0414  1.2685  4.5919
  436MOL0     H60126   2.867   6.544   1.759  1.0789 -0.5112  0.2035
  436MOL0     H60127   2.916   6.184   1.685 -0.8433  1.6231 -1.5615
  436MOL0     H60128   3.049   6.265   1.773 -0.4108 -1.7160  1.5569
  436MOL0     H60129   2.956   6.349   1.641  0.4326 -1.2767 -0.3336
  436MOL0     H60130   2.487   5.939   1.984 -0.5008  0.4192 -0.1107
  436MOL0     H60131   2.404   5.734   1.926 -1.7748  4.5599 -3.2790
  436MOL0     H60132   2.516   5.591   1.572  1.9411 -0.0110 -2.2712
  436MOL0     H60133   2.635   5.470   1.620 -0.7813 -2.3702 -0.2694
  436MOL0     H60134   2.454   5.312   1.664 -1.5730  1.7462  1.8248
  436MOL0     H60135   2.336   5.431   1.642 -1.0316 -6.2333  1.6755
  436MOL0     H60136   2.477   5.439   1.409  1.0079 -1.5428 -0.0184
  436MOL0     H60137   2.325   5.340   1.418 -0.6200 -1.1083 -1.3516
  436MOL0     H60138   2.463   5.143   1.490  1.1158 -1.1324  0.2078
  436MOL0     H60139   2.610   5.233   1.479  0.2677  1.1200 -1.2397
  436MOL0     H60140   2.560   5.112   1.272  0.9548 -0.4250 -0.0321
  436MOL0     H60141   2.407   5.185   1.259  0.3889 -1.6756 -0.1118
  436MOL0     H60142   2.680   5.346   1.231  0.0051  1.1135 -0.3097
  436MOL0     H60143   2.512   5.402   1.193 -4.8203 -2.8731  2.1034
  436MOL0     H60144   2.614   5.376   1.003  1.1214 -1.5043 -1.8124
  436MOL0     H60145   2.486   5.246   1.023  0.7614 -2.0025  2.0308
  436MOL0     H60146   2.663   5.089   1.065  0.3076 -0.6532 -1.6603
  436MOL0     H60147   2.787   5.207   1.048  0.7795 -1.7990 -1.0537
  436MOL0     H60148   2.768   5.623   1.732 -1.1317 -0.5879  0.4186
  436MOL0     H60149   2.860   5.846   1.808  1.2389 -0.7797  1.5885
  436MOL0     H60150   2.699   6.243   2.120  0.8480 -1.5521 -0.3884
  436MOL0     H60151   2.669   6.490   2.120 -2.5551  1.3373 -2.1261
  436MOL0     H60152   3.400   6.546   3.400 -1.5457  3.3939  0.0981
  436MOL0     H60153   3.599   6.496   3.555  0.1123  1.1307  0.7756
  436MOL0     H60154   4.188   6.416   3.448  1.9003 -2.3021  1.8573
  436MOL0     H60155   4.391   6.422   3.560 -0.4654 -1.0384  0.0206
  436MOL0     H60156   4.458   6.291   3.815  0.3831 -0.8116  0.7565
  436MOL0     H60157   4.543   6.397   3.701  0.4379  3.1152  0.6894
  436MOL0     H60158   4.689   6.309   3.883 -0.3860  0.5288 -0.7619
  436MOL0     H60159   4.591   6.367   4.004 -3.3347  2.8618  1.2540
  436MOL0     H60160   4.651   6.596   3.821  1.3031  2.5362  2.0751
  436MOL0     H60161   4.695   6.579   3.990  3.1546  0.6589  0.9422
  436MOL0     H60162   4.877   6.613   3.837 -2.6248  0.9919  0.7607
  436MOL0     H60163   4.884   6.460   3.775  0.9776  1.4356  0.3536
  436MOL0     H60164   5.058   6.367   4.129  0.7044 -2.9493 -1.8406
  436MOL0     H60165   4.176   6.608   3.892  1.8029  0.8538 -0.7841
  436MOL0     H60166   3.985   6.689   3.879  0.4730 -1.2890  1.1471
  436MOL0     H60167   3.917   6.735   3.719  2.4702 -0.0989 -1.8094
  436MOL0     H60168   3.876   6.580   3.790  1.2050 -1.5297  0.3481
  437MOL0     O60169  10.892   7.786   8.437 -0.0202 -0.0690  0.7627
  437MOL0     C60170  10.913   7.825   8.321 -0.7252 -0.2018  0.6141
  437MOL0     O60171  10.988   7.937   8.283 -0.2874  0.2311 -0.1968
  437MOL0     C60172  11.037   8.027   8.373 -0.0581  0.6752 -0.0737
  437MOL0     C60173  11.009   8.161   8.371  0.1294 -0.2653 -0.5008
  437MOL0     C60174  11.051   8.241   8.480 -0.3242  0.2755 -0.4512
  437MOL0     C60175  11.117   8.189   8.589  0.7664  0.1510 -0.1960
  437MOL0     O60176  11.154   8.273   8.682 -0.6847 -0.4255  1.0824
  437MOL0     C60177  11.134   8.265   8.822  0.7690  0.4376 -0.1963
  437MOL0     C60178  11.255   8.278   8.923  0.1222  0.3377  0.5458
  437MOL0     C60179  11.344   8.151   8.911  0.3605 -0.1437  0.0978
  437MOL0     C60180  11.463   8.171   8.814  0.2417  0.0661  0.3890
  437MOL0     C60181  11.550   8.048   8.782  0.7325  0.2036  1.2112
  437MOL0     C60182  11.630   8.000   8.897 -1.0033  0.4123  0.8937
  437MOL0     C60183  11.703   7.875   8.850  0.1586 -0.1586  0.2731
  437MOL0     C60184  11.855   7.894   8.800 -1.2810 -1.2613 -0.3112
  437MOL0     N60185  11.926   7.767   8.771 -0.4885  0.5367 -0.5210
  437MOL0     C60186  11.879   7.668   8.689  0.8508  0.5007  0.6780
  437MOL0     C60187  11.950   7.560   8.717  0.2918  0.8644 -0.4753
  437MOL0     C60188  11.931   7.415   8.688  0.1876  0.9625 -0.0080
  437MOL0     C60189  11.889   7.327   8.810  0.1950  0.1632  0.7025
  437MOL0     C60190  11.910   7.183   8.787 -0.7194 -0.5219  0.3066
  437MOL0     C60191  11.802   7.111   8.716 -0.3505  0.9765 -0.1934
  437MOL0     O60192  11.738   7.179   8.608  0.1387 -0.0698 -0.1620
  437MOL0     C60193  11.749   7.137   8.476 -0.9246 -0.9974  0.1991
  437MOL0     C60194  11.647   7.136   8.391  0.5253 -0.3953 -0.1394
  437MOL0     C60195  11.651   7.074   8.271  0.0375  0.3555  0.5457
  437MOL0     C60196  11.522   7.044   8.204 -0.2738  0.4337  0.4229
  437MOL0     C60197  11.780   7.030   8.222 -0.2512 -0.0657  0.0567
  437MOL0     C60198  11.791   6.969   8.087  0.9736  0.4204 -0.3180
  437MOL0     O60199  11.871   6.848   8.077  0.0411  0.2795  0.1577
  437MOL0     C60200  11.902   6.813   7.944  0.0482 -0.2293  0.2019
  437MOL0     C60201  11.878   6.684   7.899  0.1758 -0.6478  0.6490
  437MOL0     C60202  11.902   6.647   7.768  0.3401  0.7868  0.2267
  437MOL0     C60203  11.978   6.724   7.685  0.6818 -0.3156  0.9931
  437MOL0     O60204  12.023   6.668   7.566  0.1665  0.0117  0.7411
  437MOL0     C60205  12.078   6.757   7.469  1.0010 -0.3309  0.6989
  437MOL0     C60206  12.082   6.676   7.336  0.9439  0.6244  0.6875
  437MOL0     C60207  11.943   6.616   7.297 -0.6234 -0.0138 -0.1629
  437MOL0     C60208  11.828   6.723   7.282 -0.0008 -0.0504 -0.1650
  437MOL0     C60209  11.861   6.833   7.169  0.7096 -0.1917  0.0345
  437MOL0     C60210  11.896   6.779   7.029 -0.0528 -0.5206 -0.2694
  437MOL0     C60211  11.775   6.721   6.959 -1.1889 -0.3381 -0.7799
  437MOL0     C60212  11.809   6.650   6.830  0.9537  0.5031 -0.1810
  437MOL0    Cl60213  11.883   6.484   6.872  0.3645  0.4288 -0.2650
  437MOL0     C60214  12.007   6.847   7.733 -0.2054  0.1335  0.3032
  437MOL0     C60215  11.966   6.896   7.856  0.4436 -0.4072 -0.5619
  437MOL0     O60216  11.720   7.015   7.996 -0.2289 -1.1689  0.8444
  437MOL0     C60217  11.895   7.045   8.299  0.4365  0.4232 -0.2063
  437MOL0     C60218  11.876   7.104   8.419 -0.5014  0.1158 -0.1375
  437MOL0     N60219  12.059   7.605   8.795  0.8236 -0.3003  0.4635
  437MOL0     N60220  12.038   7.730   8.832  0.3635  0.9685  0.7339
  437MOL0     C60221  11.161   8.052   8.581  0.4933 -0.4890  0.7681
  437MOL0     C60222  11.127   7.973   8.467  0.7807 -0.2113  0.0401
  437MOL0     C60223  10.861   7.741   8.209  0.4190  0.1999 -0.1940
  437MOL0     C60224  10.779   7.635   8.245 -0.1975 -0.0455 -0.4987
  437MOL0     C60225  10.720   7.556   8.149 -1.0924  0.4438 -0.1028
  437MOL0     C60226  10.750   7.571   8.015 -0.2578 -0.4733  0.2300
  437MOL0     O60227  10.692   7.472   7.934 -0.5965 -0.0835 -0.0595
  437MOL0     C60228  10.722   7.470   7.792  0.6559  0.2397 -0.2243
  437MOL0     C60229  10.620   7.564   7.727 -0.0918  0.8679 -0.0485
  437MOL0     C60230  10.487   7.565   7.783  0.1785 -1.3072 -0.3402
  437MOL0     C60231  10.419   7.423   7.788  0.9044 -0.0773  0.7702
  437MOL0     C60232  10.273   7.412   7.762 -0.1184 -1.0087  0.1074
  437MOL0     C60233  10.164   7.418   7.710 -0.6084 -0.8241  1.0495
  437MOL0     C60234  10.835   7.671   7.967 -0.2394 -0.0260 -0.5786
  437MOL0     C60235  10.886   7.761   8.063 -0.3216 -0.9183 -0.0077
  437MOL0     C60236  10.984   7.867   8.014  0.1497  0.1141  1.1077
  437MOL0     H60237  10.949   8.202   8.290  0.4326  0.6746 -0.2712
  437MOL0     H60238  11.021   8.345   8.477 -1.0551  0.0717 -0.4603
  437MOL0     H60239  11.078   8.172   8.840  0.5973  0.1091 -2.2161
  437MOL0     H60240  11.061   8.342   8.848 -0.1870 -0.6511  0.4857
  437MOL0     H60241  11.320   8.366   8.914  2.0323 -0.9072  1.5160
  437MOL0     H60242  11.220   8.280   9.027 -1.8239  2.4421 -0.0739
  437MOL0     H60243  11.400   8.138   9.004 -3.0955 -0.4414  2.3614
  437MOL0     H60244  11.287   8.058   8.899  0.7197 -0.1321 -2.0470
  437MOL0     H60245  11.424   8.201   8.716  0.8161 -2.1812 -0.5785
  437MOL0     H60246  11.524   8.247   8.864  0.9821 -2.4926  3.7087
  437MOL0     H60247  11.615   8.085   8.703  1.1418 -4.8284 -1.1956
  437MOL0     H60248  11.480   7.973   8.744  1.9981 -1.4923  2.0819
  437MOL0     H60249  11.690   8.083   8.936 -2.6331  2.2834 -0.3978
  437MOL0     H60250  11.564   7.956   8.973 -0.6593 -1.1521  0.3227
  437MOL0     H60251  11.644   7.818   8.779  2.1442 -2.4011  0.3025
  437MOL0     H60252  11.704   7.800   8.930 -1.9352  0.4862  0.9636
  437MOL0     H60253  11.855   7.953   8.708  0.0322 -0.5126  0.1307
  437MOL0     H60254  11.918   7.948   8.872  2.1906 -2.1886 -2.4646
  437MOL0     H60255  11.797   7.671   8.618  1.4149  1.8655  0.0322
  437MOL0     H60256  12.026   7.373   8.652 -2.5996 -3.5242 -3.2257
  437MOL0     H60257  11.861   7.397   8.606 -1.1266 -0.1169  1.2928
  437MOL0     H60258  11.959   7.346   8.892  2.0371 -1.4386 -0.4142
  437MOL0     H60259  11.784   7.351   8.830 -0.8316 -0.8793 -2.7273
  437MOL0     H60260  12.003   7.166   8.731  1.0613 -2.2434  3.4924
  437MOL0     H60261  11.933   7.136   8.883 -0.2788 -0.3961  0.2701
  437MOL0     H60262  11.829   7.007   8.699 -1.5926  0.2792  1.8043
  437MOL0     H60263  11.718   7.097   8.784  0.4770  1.3391  0.9302
  437MOL0     H60264  11.553   7.174   8.428  1.1172  2.8164 -1.5420
  437MOL0     H60265  11.526   7.103   8.112 -1.7258 -1.7789 -1.1483
  437MOL0     H60266  11.435   7.075   8.262  0.3176  4.0400 -0.3659
  437MOL0     H60267  11.525   6.936   8.188  4.0160  0.4424  0.1123
  437MOL0     H60268  11.829   6.611   7.963  0.7422 -1.1511  0.5072
  437MOL0     H60269  11.875   6.547   7.735  5.5913 -1.4758  1.6292
  437MOL0     H60270  12.018   6.848   7.453 -0.2626 -1.6355 -2.9639
  437MOL0     H60271  12.179   6.780   7.503  0.4124 -0.0374  2.3190
  437MOL0     H60272  12.125   6.742   7.259 -1.3631  1.8360  0.3480
  437MOL0     H60273  12.136   6.583   7.352 -4.6274 -2.8298  1.9718
  437MOL0     H60274  11.910   6.537   7.366 -0.2668 -0.2363 -0.2470
  437MOL0     H60275  11.965   6.578   7.197  4.4343  1.2948  0.1895
  437MOL0     H60276  11.805   6.764   7.381  2.6538  0.1865  0.4233
  437MOL0     H60277  11.731   6.672   7.272  0.9314 -1.9869  0.2016
  437MOL0     H60278  11.783   6.910   7.172  1.6894  0.8028  0.6048
  437MOL0     H60279  11.956   6.882   7.194  0.9278 -1.4327  1.8609
  437MOL0     H60280  11.982   6.712   7.033 -0.7628 -1.7460 -3.2423
  437MOL0     H60281  11.922   6.871   6.976 -1.0257 -0.3255 -0.4355
  437MOL0     H60282  11.694   6.794   6.951 -0.9249  0.1675  0.7926
  437MOL0     H60283  11.728   6.654   7.032 -0.4359  1.5118  1.5185
  437MOL0     H60284  11.871   6.718   6.770 -1.1961  1.1880 -1.7797
  437MOL0     H60285  11.714   6.636   6.776 -0.5769 -0.6332  2.5686
  437MOL0     H60286  12.056   6.916   7.665  1.0301 -2.5430 -1.6561
  437MOL0     H60287  11.990   6.996   7.891 -2.1191  0.1241 -0.1361
  437MOL0     H60288  11.986   7.012   8.251 -0.1997  1.4979 -2.3114
  437MOL0     H60289  11.963   7.111   8.484  0.4710 -1.2462 -1.2376
  437MOL0     H60290  11.223   8.021   8.664  0.4124 -2.3581  0.1696
  437MOL0     H60291  11.139   7.866   8.458 -2.8173 -0.7438 -0.0041
  437MOL0     H60292  10.771   7.601   8.348 -1.5218  1.4218 -0.0884
  437MOL0     H60293  10.665   7.471   8.189 -0.6610  0.7955  1.3271
  437MOL0     H60294  10.825   7.498   7.769  0.7563 -2.0029 -3.0577
  437MOL0     H60295  10.711   7.364   7.765  1.5316 -0.3120  1.4564
  437MOL0     H60296  10.604   7.530   7.624  0.5320  2.1192 -0.5877
  437MOL0     H60297  10.662   7.665   7.725 -2.8967  2.1270  0.6578
  437MOL0     H60298  10.478   7.596   7.888 -4.0149  1.7415 -1.3106
  437MOL0     H60299  10.433   7.634   7.718  2.8717  2.7287  1.2690
  437MOL0     H60300  10.429   7.380   7.889 -2.7543 -1.5555  0.6814
  437MOL0     H60301  10.459   7.362   7.707 -1.1806 -1.5483  0.7798
  437MOL0     H60302  10.066   7.404   7.669 -0.7959 -1.9198  1.8237
  437MOL0     H60303  10.864   7.676   7.862  1.0233  0.3154 -0.2261
  437MOL0     H60304  11.080   7.868   8.066  2.8875  0.9375 -3.4278
  437MOL0     H60305  11.016   7.843   7.912  1.5103  0.0156  1.5369
  437MOL0     H60306  10.935   7.964   8.026  1.0294  0.8881 -1.1233
  438MOL0     O60307   2.283   2.284   2.465  0.0484 -0.4275  0.5496
  438MOL0     C60308   2.346   2.337   2.373  0.7453 -0.3960  0.3416
  438MOL0     O60309   2.446   2.277   2.305  0.2015  0.1702  0.0903
  438MOL0     C60310   2.497   2.163   2.375  0.3812  0.2628  0.9890
  438MOL0     C60311   2.607   2.171   2.466  0.5230 -0.2167 -0.0286
  438MOL0     C60312   2.657   2.061   2.541 -0.2309  0.0562 -1.2085
  438MOL0     C60313   2.603   1.937   2.518 -0.0591 -0.2864  0.2395
  438MOL0     O60314   2.645   1.832   2.596  1.4647  0.6061  0.4376
  438MOL0     C60315   2.566   1.713   2.612  0.2620  1.0549 -0.1873
  438MOL0     C60316   2.627   1.606   2.697 -0.7574 -1.1179  0.3581
  438MOL0     C60317   2.756   1.543   2.635  0.7906 -0.4358  0.3786
  438MOL0     C60318   2.809   1.432   2.728  0.4113  0.1383 -0.4223
  438MOL0     C60319   2.950   1.389   2.706  0.1333 -0.0726 -0.3968
  438MOL0     C60320   3.045   1.489   2.783 -0.8991  0.1380  0.8338
  438MOL0     C60321   3.146   1.560   2.686  0.0557  0.5402  0.3741
  438MOL0     C60322   3.280   1.595   2.761  0.0308  0.4453 -0.1751
  438MOL0     N60323   3.378   1.658   2.678  0.4677  0.4734  0.4156
  438MOL0     C60324   3.390   1.794   2.648  0.4028 -0.3346 -0.0714
  438MOL0     C60325   3.481   1.798   2.552 -0.6858 -0.1424  1.0111
  438MOL0     C60326   3.536   1.927   2.472  0.0375  0.4961 -0.0713
  438MOL0     C60327   3.626   1.885   2.361  0.1418  0.2066  0.0308
  438MOL0     C60328   3.664   2.016   2.293 -0.6922 -0.3910 -0.5849
  438MOL0     C60329   3.717   2.001   2.155  0.3547 -0.3234  0.0084
  438MOL0     O60330   3.811   1.893   2.146 -0.2906 -0.1797 -0.4350
  438MOL0     C60331   3.879   1.871   2.029 -0.0152 -0.1907 -0.1336
  438MOL0     C60332   3.829   1.904   1.897 -0.4652  0.1767 -0.9699
  438MOL0     C60333   3.896   1.875   1.777 -0.4711 -0.1975  0.6453
  438MOL0     C60334   3.821   1.891   1.648  1.3054 -0.1297  0.8174
  438MOL0     C60335   4.034   1.837   1.780 -0.1888  0.0867  0.3461
  438MOL0     C60336   4.132   1.816   1.660 -0.8391 -0.2418  0.1063
  438MOL0     O60337   4.267   1.816   1.674 -0.3012  0.2446  0.2321
  438MOL0     C60338   4.330   1.760   1.567  0.2906 -0.3083  0.2233
  438MOL0     C60339   4.338   1.625   1.558  0.2653 -0.4941  0.2629
  438MOL0     C60340   4.410   1.573   1.447 -0.4625 -0.5644  0.2715
  438MOL0     C60341   4.466   1.657   1.346 -0.7721 -0.6519  0.3038
  438MOL0     O60342   4.534   1.584   1.248  0.6937 -0.6507 -0.5029
  438MOL0     C60343   4.623   1.659   1.158  0.0719  0.1043 -0.5254
  438MOL0     C60344   4.681   1.559   1.051  0.5635  0.3399  0.6099
  438MOL0     C60345   4.785   1.624   0.961 -0.3624 -0.3431 -0.0928
  438MOL0     C60346   4.817   1.527   0.850  0.1487 -1.0161 -0.2804
  438MOL0     C60347   4.937   1.578   0.769  0.3972 -0.2833 -0.5216
  438MOL0     C60348   4.989   1.453   0.701  0.8419 -0.1592  0.0969
  438MOL0     C60349   4.886   1.372   0.631 -0.0970  0.0707  0.5941
  438MOL0     C60350   4.948   1.300   0.510  0.3407  0.9068  0.4972
  438MOL0    Cl60351   4.806   1.222   0.423 -0.0392  0.1697  0.5298
  438MOL0     C60352   4.457   1.794   1.359  0.1279 -0.0871  0.3860
  438MOL0     C60353   4.387   1.844   1.470  0.0702 -0.2140 -0.1450
  438MOL0     O60354   4.073   1.809   1.545 -0.2044 -0.3355 -0.0966
  438MOL0     C60355   4.091   1.800   1.909  0.8552  0.4874 -0.4313
  438MOL0     C60356   4.012   1.822   2.030 -0.6128  0.4604 -0.5805
  438MOL0     N60357   3.522   1.669   2.525 -0.1863 -1.2037  0.1153
  438MOL0     N60358   3.461   1.587   2.600  0.1580  0.1686  0.5910
  438MOL0     C60359   2.483   1.925   2.434 -1.3038  0.2497  0.5428
  438MOL0     C60360   2.432   2.040   2.371 -0.8411 -1.4029 -0.2428
  438MOL0     C60361   2.289   2.468   2.335  1.2654  0.3497  0.4156
  438MOL0     C60362   2.195   2.535   2.424  0.0906 -0.4709  0.4525
  438MOL0     C60363   2.127   2.654   2.384 -1.2974 -0.0414 -0.8512
  438MOL0     C60364   2.157   2.710   2.262  0.3238 -1.4245 -0.2879
  438MOL0     O60365   2.082   2.812   2.212 -0.5622 -0.1409  1.0957
  438MOL0     C60366   1.944   2.790   2.223 -0.4268 -0.3221 -0.1081
  438MOL0     C60367   1.861   2.845   2.116 -0.0916 -0.6113  0.8858
  438MOL0     C60368   1.908   2.808   1.980 -0.0643 -0.3197  1.4882
  438MOL0     C60369   1.875   2.666   1.924 -0.4690  0.6296 -0.7586
  438MOL0     C60370   1.960   2.562   1.984  0.6842 -0.3475 -0.5755
  438MOL0     C60371   2.018   2.462   2.008 -0.0767  0.9279  0.1657
  438MOL0     C60372   2.236   2.641   2.169  1.4615  1.3209 -0.1066
  438MOL0     C60373   2.297   2.525   2.206 -0.0583  0.0190  0.1644
  438MOL0     C60374   2.350   2.447   2.079  0.4237 -0.2336 -1.3423
  438MOL0     H60375   2.651   2.269   2.481 -1.5470  0.4933  2.2353
  438MOL0     H60376   2.735   2.054   2.616  1.0605 -0.6901 -2.5489
  438MOL0     H60377   2.555   1.678   2.509 -2.8026  1.3114 -0.0328
  438MOL0     H60378   2.472   1.744   2.659 -0.8490  0.8273 -2.1722
  438MOL0     H60379   2.648   1.659   2.791 -4.5934  4.2128 -1.3119
  438MOL0     H60380   2.548   1.534   2.721 -1.8812  0.6883  2.5135
  438MOL0     H60381   2.735   1.495   2.539  0.2325 -1.3755  0.9520
  438MOL0     H60382   2.830   1.622   2.619 -0.8059  1.2172  0.8156
  438MOL0     H60383   2.804   1.452   2.835  1.9253  0.7182 -0.4448
  438MOL0     H60384   2.752   1.339   2.719  0.7264 -0.4064  2.3241
  438MOL0     H60385   2.974   1.371   2.601  2.1849 -2.0063  0.3207
  438MOL0     H60386   2.946   1.290   2.752 -0.3470 -0.5164 -1.3869
  438MOL0     H60387   3.003   1.574   2.837 -1.7156  0.0527  0.3564
  438MOL0     H60388   3.095   1.426   2.857 -0.0774 -1.7693 -1.2136
  438MOL0     H60389   3.099   1.649   2.644  0.5469  0.6769  0.1070
  438MOL0     H60390   3.171   1.493   2.603 -1.9141 -0.4145  0.4858
  438MOL0     H60391   3.250   1.664   2.840 -0.3221 -0.3641  0.4126
  438MOL0     H60392   3.313   1.500   2.804  0.6519 -0.5443 -2.6576
  438MOL0     H60393   3.339   1.876   2.697 -0.9149 -2.5954  2.7214
  438MOL0     H60394   3.582   1.997   2.543  1.2165 -0.9788  0.6645
  438MOL0     H60395   3.442   1.964   2.429 -1.9204 -3.4102  0.3979
  438MOL0     H60396   3.715   1.834   2.398 -0.2805 -0.0368  0.7356
  438MOL0     H60397   3.574   1.815   2.296 -1.2916  0.9653  0.3075
  438MOL0     H60398   3.585   2.090   2.276  0.1912  0.3103 -1.7218
  438MOL0     H60399   3.736   2.062   2.362  0.5760  0.1481 -2.2284
  438MOL0     H60400   3.631   1.990   2.089  1.0723  0.4852 -1.1030
  438MOL0     H60401   3.777   2.090   2.133 -1.2372  0.7171 -0.2145
  438MOL0     H60402   3.728   1.945   1.890 -0.0705  1.7229  1.1230
  438MOL0     H60403   3.847   1.993   1.616  1.1496 -0.3656 -0.0932
  438MOL0     H60404   3.712   1.896   1.662  1.2749  3.4401  0.2763
  438MOL0     H60405   3.838   1.822   1.565  0.8820  4.3582 -3.4784
  438MOL0     H60406   4.279   1.570   1.631 -0.0226 -0.0971  0.3352
  438MOL0     H60407   4.390   1.470   1.422 -5.3304  0.6753 -2.1141
  438MOL0     H60408   4.573   1.746   1.114 -2.2770 -1.1240 -0.4584
  438MOL0     H60409   4.710   1.691   1.217  0.7263 -0.5099 -1.1399
  438MOL0     H60410   4.722   1.478   1.111 -2.0070 -0.8370  0.8799
  438MOL0     H60411   4.591   1.528   0.999 -1.4916  1.3251  3.3354
  438MOL0     H60412   4.873   1.660   1.015 -0.5471  2.7162 -1.6189
  438MOL0     H60413   4.739   1.718   0.929 -0.4508 -0.3556 -0.0048
  438MOL0     H60414   4.730   1.528   0.784 -1.1749 -0.1751  1.4126
  438MOL0     H60415   4.829   1.427   0.892 -2.1829 -1.8284 -1.4244
  438MOL0     H60416   4.905   1.649   0.692  0.7348 -2.0749 -2.4175
  438MOL0     H60417   5.017   1.613   0.834 -0.8285 -2.5108  2.4165
  438MOL0     H60418   5.026   1.375   0.768  0.7251 -0.0137  0.3325
  438MOL0     H60419   5.069   1.480   0.630  1.7603  0.2378  1.2584
  438MOL0     H60420   4.817   1.447   0.591 -0.4252  0.6253  2.1161
  438MOL0     H60421   4.837   1.299   0.696  1.9639 -2.1330 -0.1492
  438MOL0     H60422   5.013   1.218   0.541  1.1637  0.6818 -1.6329
  438MOL0     H60423   5.006   1.370   0.448  2.9875  0.4473  2.2720
  438MOL0     H60424   4.497   1.879   1.304 -0.1851 -0.1008  0.1344
  438MOL0     H60425   4.392   1.952   1.483 -0.0404 -0.4628  2.3261
  438MOL0     H60426   4.195   1.768   1.913 -0.1026 -3.0077 -0.5143
  438MOL0     H60427   4.056   1.808   2.128 -0.0590  0.6760 -0.7979
  438MOL0     H60428   2.413   1.842   2.430 -0.3026 -0.6589  1.1959
  438MOL0     H60429   2.349   2.025   2.303  1.4946  1.4211 -4.0797
  438MOL0     H60430   2.163   2.493   2.518 -1.6173  0.9787  0.5628
  438MOL0     H60431   2.056   2.691   2.457 -1.4709 -4.9868  1.9297
  438MOL0     H60432   1.920   2.684   2.237  0.6610 -0.5312  0.2688
  438MOL0     H60433   1.913   2.844   2.313 -1.4479 -1.8136  0.4759
  438MOL0     H60434   1.848   2.953   2.125 -0.2174 -0.3597 -1.5693
  438MOL0     H60435   1.763   2.798   2.114 -0.8756  0.9645 -0.3694
  438MOL0     H60436   1.861   2.889   1.923 -0.6700 -0.0851  2.2951
  438MOL0     H60437   2.015   2.823   1.963 -0.7706  2.9057 -1.3052
  438MOL0     H60438   1.884   2.671   1.815 -0.4213 -0.6930 -0.8315
  438MOL0     H60439   1.773   2.636   1.948 -0.1338 -1.4937 -1.7484
  438MOL0     H60440   2.075   2.373   2.026 -1.7713 -0.1831  0.2780
  438MOL0     H60441   2.231   2.672   2.065 -3.8933 -0.1576 -0.5884
  438MOL0     H60442   2.313   2.345   2.072 -0.7399 -0.3736  3.3942
  438MOL0     H60443   2.324   2.507   1.991  2.9911  2.7533 -0.2841
  438MOL0     H60444   2.459   2.435   2.075  0.5059  0.0336 -0.1220
  439MOL0     O60445   7.290   8.528   8.508 -0.2272 -0.7869 -1.1257
  439MOL0     C60446   7.180   8.562   8.539  0.8595  0.4524  0.2710
  439MOL0     O60447   7.150   8.675   8.607  0.2745  0.2268  0.7369
  439MOL0     C60448   7.264   8.742   8.662  1.1264 -1.0722  0.0258
  439MOL0     C60449   7.319   8.856   8.589  0.9215  0.2642  0.5918
  439MOL0     C60450   7.422   8.924   8.649 -0.0187  0.2692 -0.3772
  439MOL0     C60451   7.491   8.873   8.759  0.5478  0.0579 -0.7075
  439MOL0     O60452   7.594   8.941   8.815 -1.3758  0.8497 -0.2375
  439MOL0     C60453   7.718   8.888   8.860 -0.0933  0.2075 -0.2467
  439MOL0     C60454   7.771   8.950   8.993  0.3748  0.0000 -0.4052
  439MOL0     C60455   7.656   8.950   9.098 -0.7988  0.6026 -0.7929
  439MOL0     C60456   7.566   9.083   9.087 -0.6930  0.2398  0.3547
  439MOL0     C60457   7.434   9.086   9.169  0.9536  0.2996  0.6272
  439MOL0     C60458   7.333   8.977   9.127  0.2619  0.0766 -0.3856
  439MOL0     C60459   7.210   8.983   9.224  0.3113  0.8152  0.4713
  439MOL0     C60460   7.106   8.874   9.199  0.3055  0.1959  0.9383
  439MOL0     N60461   7.009   8.904   9.087 -0.4321  1.0584  0.6480
  439MOL0     C60462   7.052   8.933   8.955  0.0468 -0.1336 -0.7288
  439MOL0     C60463   6.941   8.970   8.898  1.1396  0.3701  0.4825
  439MOL0     C60464   6.917   8.999   8.757  0.2676 -1.3117  0.1541
  439MOL0     C60465   6.891   9.152   8.733  1.1238  0.8927  0.4106
  439MOL0     C60466   6.886   9.192   8.583  0.6410 -0.2364 -0.2580
  439MOL0     C60467   7.014   9.181   8.509  0.5501 -0.1409 -0.4539
  439MOL0     O60468   7.076   9.305   8.494  0.0609  0.0251  0.4218
  439MOL0     C60469   7.051   9.398   8.398 -0.1331 -0.3623 -0.6644
  439MOL0     C60470   7.145   9.500   8.407  0.1887  0.2013  0.0374
  439MOL0     C60471   7.134   9.622   8.339  1.0025 -0.3298 -0.0058
  439MOL0     C60472   7.241   9.716   8.371 -0.7602 -1.0981  0.2568
  439MOL0     C60473   7.020   9.627   8.242 -0.8757 -0.2825  1.1043
  439MOL0     C60474   7.000   9.738   8.141 -1.1266 -0.4897  0.3683
  439MOL0     O60475   7.064   9.853   8.164 -0.8592  0.1836  0.4905
  439MOL0     C60476   7.067   9.955   8.070 -0.7286  0.7524 -0.0119
  439MOL0     C60477   7.051  10.087   8.111  0.2349  0.8029  0.3804
  439MOL0     C60478   7.056  10.189   8.006  0.6371 -0.4171 -1.6194
  439MOL0     C60479   7.074  10.161   7.869  0.5459  0.1243 -0.0911
  439MOL0     O60480   7.065  10.256   7.772  0.6157  0.0150 -0.1851
  439MOL0     C60481   7.167  10.366   7.775  0.0398  0.0416 -0.2974
  439MOL0     C60482   7.124  10.498   7.840 -1.4193 -0.1475 -0.4421
  439MOL0     C60483   7.033  10.586   7.771 -0.3708 -0.6156 -0.5847
  439MOL0     C60484   6.890  10.531   7.780 -0.2669 -0.9831  0.0568
  439MOL0     C60485   6.776  10.629   7.753 -1.2840 -0.0419  0.8836
  439MOL0     C60486   6.636  10.585   7.743  0.6296 -0.1808  1.1106
  439MOL0     C60487   6.541  10.704   7.742  0.0868 -0.1343 -0.3536
  439MOL0     C60488   6.396  10.676   7.704  0.9422 -0.5741  0.6110
  439MOL0    Cl60489   6.392  10.673   7.530  0.3537 -0.2437  0.4127
  439MOL0     C60490   7.085  10.024   7.837  0.7505 -0.4913  0.0863
  439MOL0     C60491   7.077   9.927   7.932 -0.2893  0.6317 -0.6958
  439MOL0     O60492   6.929   9.717   8.046  0.6402 -0.2371  0.8989
  439MOL0     C60493   6.937   9.511   8.218 -0.3238  0.1971  0.4576
  439MOL0     C60494   6.959   9.399   8.298 -0.3108  0.1949  0.6676
  439MOL0     N60495   6.834   8.974   8.983 -0.3653 -0.4833 -0.3899
  439MOL0     N60496   6.879   8.932   9.091  0.4169  0.4704  0.2735
  439MOL0     C60497   7.436   8.768   8.829  0.6555  0.9349 -0.3577
  439MOL0     C60498   7.319   8.702   8.782 -0.3233 -0.6427 -1.1062
  439MOL0     C60499   7.064   8.467   8.525  0.3717  0.3995 -0.0493
  439MOL0     C60500   6.937   8.501   8.585 -0.6792  0.5831  0.3070
  439MOL0     C60501   6.817   8.428   8.569  0.5879 -0.6810  0.0440
  439MOL0     C60502   6.819   8.322   8.489 -1.8782  0.0577 -0.9249
  439MOL0     O60503   6.707   8.249   8.475 -0.0323 -0.4334 -0.2437
  439MOL0     C60504   6.693   8.143   8.389 -1.0280  0.8741  0.1448
  439MOL0     C60505   6.545   8.094   8.398 -0.9227 -0.3758  1.4337
  439MOL0     C60506   6.464   8.159   8.289  0.4947 -0.1538  0.6571
  439MOL0     C60507   6.457   8.315   8.290 -0.4611  1.0964 -0.0841
  439MOL0     C60508   6.377   8.347   8.177  0.4267 -0.5868  0.5763
  439MOL0     C60509   6.331   8.365   8.066  0.0493 -0.1155 -0.4195
  439MOL0     C60510   6.945   8.286   8.419  0.1071  0.2053  0.0945
  439MOL0     C60511   7.060   8.361   8.436  0.2456  0.4741 -0.2640
  439MOL0     C60512   7.172   8.331   8.342  0.4457 -0.1673 -1.3974
  439MOL0     H60513   7.291   8.885   8.489 -0.5363  0.4016  1.0264
  439MOL0     H60514   7.458   9.020   8.612  0.0821  0.9549  1.3872
  439MOL0     H60515   7.800   8.907   8.789  1.7404 -2.7390  0.8685
  439MOL0     H60516   7.708   8.779   8.856 -1.9747  0.3709 -2.3031
  439MOL0     H60517   7.859   8.888   9.016  0.4480 -0.5131 -1.9059
  439MOL0     H60518   7.796   9.056   8.984 -0.1280  0.3825  2.0034
  439MOL0     H60519   7.595   8.860   9.089  0.9420 -0.7698  0.5475
  439MOL0     H60520   7.699   8.949   9.199  0.5489  0.2436 -1.3502
  439MOL0     H60521   7.623   9.170   9.120 -1.0647  0.5254  0.2414
  439MOL0     H60522   7.533   9.093   8.984 -4.1018 -5.9931  0.3261
  439MOL0     H60523   7.384   9.183   9.167  0.6145  0.2426  3.0598
  439MOL0     H60524   7.456   9.065   9.274 -1.2932 -3.3726  0.5354
  439MOL0     H60525   7.309   8.994   9.021  0.2017  0.4007 -0.3201
  439MOL0     H60526   7.382   8.879   9.128 -0.0449 -0.1623 -2.6681
  439MOL0     H60527   7.174   9.087   9.221  0.1608  0.7458 -0.2301
  439MOL0     H60528   7.248   8.967   9.326 -0.4392 -2.4326  0.3283
  439MOL0     H60529   7.138   8.769   9.199 -3.5649 -1.1736  1.0412
  439MOL0     H60530   7.055   8.868   9.296 -0.2557  2.4835  0.8433
  439MOL0     H60531   7.144   8.894   8.911  1.4096  1.8721  0.1821
  439MOL0     H60532   6.834   8.941   8.717  0.0539 -0.3221 -0.8575
  439MOL0     H60533   7.000   8.984   8.687  2.4885 -0.7503  2.5008
  439MOL0     H60534   6.800   9.183   8.786  1.6799  0.6966  1.5101
  439MOL0     H60535   6.968   9.208   8.787  1.3503  1.2206 -0.2510
  439MOL0     H60536   6.819   9.128   8.525 -0.2409  2.1032 -1.9818
  439MOL0     H60537   6.849   9.295   8.574 -0.6647 -0.7052 -0.4567
  439MOL0     H60538   7.086   9.122   8.566  2.2070  1.5927 -0.6632
  439MOL0     H60539   6.996   9.136   8.411 -1.2125 -2.7676  0.9562
  439MOL0     H60540   7.234   9.487   8.467  0.6805  0.7772 -0.5586
  439MOL0     H60541   7.199   9.816   8.357  0.2628 -0.6600  0.3032
  439MOL0     H60542   7.315   9.709   8.292 -1.3518  0.9796 -0.5529
  439MOL0     H60543   7.291   9.717   8.468  2.4466 -1.8341 -1.2636
  439MOL0     H60544   7.003  10.115   8.204 -1.6297  0.2372 -0.3462
  439MOL0     H60545   7.020  10.291   8.021 -0.7980 -0.8879 -1.7386
  439MOL0     H60546   7.257  10.321   7.817 -0.3977 -0.5838 -0.0199
  439MOL0     H60547   7.195  10.393   7.673 -3.7400 -0.1771 -1.5708
  439MOL0     H60548   7.078  10.481   7.938 -2.0304 -2.1554 -1.0296
  439MOL0     H60549   7.220  10.546   7.859 -1.1926 -0.6013 -0.4062
  439MOL0     H60550   7.062  10.609   7.668  0.8753  2.0974  0.2855
  439MOL0     H60551   7.043  10.677   7.830  3.5997 -1.0794 -0.2621
  439MOL0     H60552   6.876  10.494   7.883  3.5757 -0.0201  1.0963
  439MOL0     H60553   6.882  10.449   7.708  0.1238 -0.9851  0.0160
  439MOL0     H60554   6.776  10.700   7.837  2.1167 -0.6140  1.4737
  439MOL0     H60555   6.788  10.688   7.661 -3.2977  0.4129  0.8664
  439MOL0     H60556   6.627  10.525   7.834  2.5504 -0.5723  1.1046
  439MOL0     H60557   6.611  10.530   7.652  1.0811  0.2615  0.7102
  439MOL0     H60558   6.583  10.770   7.665  1.2302 -0.7047 -0.2413
  439MOL0     H60559   6.536  10.750   7.841 -5.0060 -2.1972  0.6682
  439MOL0     H60560   6.326  10.758   7.723  0.4426 -1.0530  0.8541
  439MOL0     H60561   6.358  10.583   7.747  2.4945 -0.5726  2.1556
  439MOL0     H60562   7.082  10.014   7.729 -2.1163  1.2869 -0.0829
  439MOL0     H60563   7.084   9.825   7.897  0.3229  0.4677 -0.1286
  439MOL0     H60564   6.855   9.518   8.147  1.1693 -1.3431 -1.5387
  439MOL0     H60565   6.884   9.321   8.309  0.7862 -0.8012  1.4677
  439MOL0     H60566   7.479   8.744   8.926  0.9173 -1.1982 -0.9496
  439MOL0     H60567   7.278   8.612   8.827 -1.8238  0.0786 -0.9706
  439MOL0     H60568   6.931   8.582   8.657 -4.2113  0.4662  0.3192
  439MOL0     H60569   6.725   8.470   8.608  1.3426  2.5010 -1.2710
  439MOL0     H60570   6.736   8.178   8.295  3.8161 -4.9305 -0.4092
  439MOL0     H60571   6.763   8.063   8.414 -1.3737  0.1578 -1.0970
  439MOL0     H60572   6.516   8.106   8.503  1.0902  1.8464  1.8054
  439MOL0     H60573   6.552   7.986   8.379  0.2581  0.2617 -2.6683
  439MOL0     H60574   6.478   8.124   8.186 -0.6103  3.7638 -1.0135
  439MOL0     H60575   6.363   8.121   8.307 -0.3929  0.3070 -2.6066
  439MOL0     H60576   6.557   8.359   8.284  1.8624 -3.3249  1.9504
  439MOL0     H60577   6.416   8.343   8.387  1.6989 -1.3629  1.6409
  439MOL0     H60578   6.300   8.376   7.964 -0.8976  0.4999 -0.0846
  439MOL0     H60579   6.949   8.204   8.349  2.5283  3.5634 -4.1662
  439MOL0     H60580   7.136   8.264   8.263 -2.2850 -0.9912  0.4243
  439MOL0     H60581   7.215   8.421   8.295  0.6765  0.7713  0.5338
  439MOL0     H60582   7.244   8.301   8.419 -1.0756 -0.3192 -0.0012
  440MOL0     O60583   6.721   0.478   2.424  0.2272  0.6950  0.2311
  440MOL0     C60584   6.722   0.599   2.392  0.3282  0.0300 -0.4906
  440MOL0     O60585   6.617   0.658   2.316 -0.0304 -0.2930 -0.0519
  440MOL0     C60586   6.518   0.579   2.277  0.8021  0.8865  0.0312
  440MOL0     C60587   6.491   0.542   2.142  0.0325  0.2371 -0.3931
  440MOL0     C60588   6.369   0.473   2.105  0.3453 -0.0151 -0.0195
  440MOL0     C60589   6.288   0.422   2.204  0.1463 -0.0819  0.7538
  440MOL0     O60590   6.177   0.352   2.178  0.6446 -0.0390  0.2409
  440MOL0     C60591   6.100   0.344   2.060 -0.3530  0.8289  0.8058
  440MOL0     C60592   5.958   0.309   2.104 -0.1410 -0.0512 -0.5888
  440MOL0     C60593   5.947   0.168   2.160 -0.9163 -0.4918 -0.9382
  440MOL0     C60594   5.894   0.066   2.069 -0.5385 -0.1091  0.3642
  440MOL0     C60595   5.907  -0.073   2.126  0.8317 -0.6643 -0.1111
  440MOL0     C60596   5.868  -0.192   2.031 -0.3169  0.1280 -0.9733
  440MOL0     C60597   5.949  -0.310   2.075 -0.3185  0.1497  0.4336
  440MOL0     C60598   5.898  -0.441   2.002  0.5055 -0.3902 -0.5368
  440MOL0     N60599   5.974  -0.453   1.882  0.0076 -0.2918 -0.5072
  440MOL0     C60600   6.054  -0.561   1.859 -0.1987  0.4038 -0.1815
  440MOL0     C60601   6.119  -0.533   1.743  0.2058  0.7084  0.9622
  440MOL0     C60602   6.231  -0.625   1.693  0.4246  0.0441 -0.5267
  440MOL0     C60603   6.173  -0.753   1.648 -0.1335  0.1186 -0.5777
  440MOL0     C60604   6.108  -0.745   1.517  0.0456 -0.0413 -0.5079
  440MOL0     C60605   5.973  -0.814   1.509 -0.1924  0.5521 -0.0391
  440MOL0     O60606   5.981  -0.952   1.551 -0.0002 -0.2600 -0.5275
  440MOL0     C60607   5.873  -1.034   1.532  0.1350  0.8434  0.5631
  440MOL0     C60608   5.881  -1.159   1.469  0.0230  0.7569  0.0458
  440MOL0     C60609   5.771  -1.244   1.446  0.6026 -0.2033 -0.2949
  440MOL0     C60610   5.804  -1.383   1.408 -0.5584  0.4846 -0.6286
  440MOL0     C60611   5.644  -1.201   1.484  0.2732 -0.4075  0.1555
  440MOL0     C60612   5.516  -1.280   1.453  0.5264  0.6015 -0.7833
  440MOL0     O60613   5.402  -1.206   1.464  0.6442 -0.0855  0.1671
  440MOL0     C60614   5.274  -1.256   1.441 -0.2533  0.3581  0.8950
  440MOL0     C60615   5.234  -1.387   1.460  0.1853  0.3351  0.0539
  440MOL0     C60616   5.103  -1.419   1.424 -0.7522 -0.6212  0.5046
  440MOL0     C60617   5.020  -1.328   1.362  0.0095  0.5408 -0.5287
  440MOL0     O60618   4.898  -1.373   1.327  0.0847 -0.4430  0.4305
  440MOL0     C60619   4.910  -1.458   1.211  0.1932  0.3046 -0.0572
  440MOL0     C60620   4.910  -1.378   1.077 -0.1696 -0.4374  0.1880
  440MOL0     C60621   4.957  -1.452   0.953 -0.2215  0.9184  0.5872
  440MOL0     C60622   4.907  -1.599   0.947 -0.4791 -0.4324  1.3374
  440MOL0     C60623   4.967  -1.662   0.808  0.2537  0.7652 -0.4702
  440MOL0     C60624   4.890  -1.791   0.779 -0.1294  0.4350 -0.2644
  440MOL0     C60625   4.958  -1.870   0.658  0.6945 -0.3364  0.1610
  440MOL0     C60626   4.881  -1.990   0.617 -0.7754  0.1551 -0.1070
  440MOL0    Cl60627   4.718  -1.945   0.558  0.4829  0.3383 -0.0113
  440MOL0     C60628   5.053  -1.190   1.348  0.0247  0.3034  0.4975
  440MOL0     C60629   5.190  -1.156   1.387 -0.6634 -0.1078  0.6083
  440MOL0     O60630   5.524  -1.402   1.425  0.1709 -0.9424  0.5438
  440MOL0     C60631   5.630  -1.074   1.547 -0.7952 -0.7313  0.3621
  440MOL0     C60632   5.742  -0.995   1.569 -0.3702  0.4121  0.3689
  440MOL0     N60633   6.073  -0.409   1.693  0.7093 -0.2277 -0.4073
  440MOL0     N60634   5.986  -0.367   1.780 -0.1726  0.3020  0.8679
  440MOL0     C60635   6.322   0.453   2.339 -0.0461  0.7423  0.0966
  440MOL0     C60636   6.426   0.539   2.374 -0.4834 -0.3915 -0.5829
  440MOL0     C60637   6.820   0.694   2.453 -0.2878 -0.6649 -0.8678
  440MOL0     C60638   6.784   0.828   2.451 -0.1426 -0.5266 -0.1152
  440MOL0     C60639   6.867   0.930   2.498  0.0278  0.4276  0.2255
  440MOL0     C60640   6.994   0.905   2.547 -0.1161  0.1769 -0.1653
  440MOL0     O60641   7.061   1.005   2.608  0.1267  0.2227 -0.4770
  440MOL0     C60642   7.189   0.975   2.673  0.4092  0.5872  0.9251
  440MOL0     C60643   7.230   1.097   2.766  0.1953  0.8471  0.2100
  440MOL0     C60644   7.371   1.060   2.808 -0.0799  0.0933 -0.6803
  440MOL0     C60645   7.373   0.967   2.934  0.6716  0.1521  0.0512
  440MOL0     C60646   7.514   0.990   2.980 -0.0771 -0.1560 -0.3796
  440MOL0     C60647   7.625   1.006   3.021  0.0033 -0.5847 -1.2742
  440MOL0     C60648   7.029   0.769   2.549 -0.3930 -0.2218  0.4292
  440MOL0     C60649   6.946   0.662   2.495 -1.1238  0.0612 -0.5998
  440MOL0     C60650   7.006   0.522   2.508  0.1785 -0.0396  0.5762
  440MOL0     H60651   6.565   0.575   2.070  1.9812 -0.5869  1.1166
  440MOL0     H60652   6.348   0.435   2.006 -1.9060 -2.1960  1.1848
  440MOL0     H60653   6.137   0.276   1.983  3.2616  4.3182 -0.9317
  440MOL0     H60654   6.107   0.448   2.025  2.0121  0.0526 -1.3272
  440MOL0     H60655   5.923   0.384   2.175  0.1322  0.5059 -1.0317
  440MOL0     H60656   5.880   0.313   2.026 -2.1356 -1.3932  1.2107
  440MOL0     H60657   6.044   0.149   2.207 -0.0377  1.1546 -1.9945
  440MOL0     H60658   5.868   0.171   2.235 -1.3868  0.4746 -1.4604
  440MOL0     H60659   5.786   0.081   2.063 -0.6295 -0.3876  1.2183
  440MOL0     H60660   5.942   0.080   1.971  2.6178 -2.0041  1.5006
  440MOL0     H60661   5.835  -0.081   2.208 -0.7132 -0.5679 -1.4133
  440MOL0     H60662   6.006  -0.097   2.167  0.1779 -2.9172  0.3179
  440MOL0     H60663   5.759  -0.207   2.031 -0.3427  0.2157  0.0204
  440MOL0     H60664   5.890  -0.166   1.928  1.3139  0.6788 -0.5095
  440MOL0     H60665   5.953  -0.317   2.184 -1.3835  0.2435  0.4926
  440MOL0     H60666   6.048  -0.281   2.040 -0.8433  0.4212 -0.8582
  440MOL0     H60667   5.922  -0.522   2.072 -0.7936  0.2365  0.6820
  440MOL0     H60668   5.790  -0.441   1.982  0.5912 -0.6293 -1.0301
  440MOL0     H60669   6.074  -0.648   1.921  0.2020 -1.4589 -2.7235
  440MOL0     H60670   6.312  -0.631   1.766 -0.1915 -2.0065  0.0608
  440MOL0     H60671   6.274  -0.591   1.599 -0.2203 -2.6454 -1.8936
  440MOL0     H60672   6.256  -0.824   1.641 -0.2876 -0.2684  1.1548
  440MOL0     H60673   6.105  -0.781   1.729  0.2541  1.0658  0.0918
  440MOL0     H60674   6.095  -0.645   1.477  2.5164 -0.3441 -2.2909
  440MOL0     H60675   6.167  -0.796   1.440 -0.2117 -0.8685 -0.1672
  440MOL0     H60676   5.910  -0.768   1.586  1.0770 -2.6693  3.1823
  440MOL0     H60677   5.938  -0.810   1.405  3.3375 -1.6523 -1.4761
  440MOL0     H60678   5.980  -1.184   1.432  0.1316  1.4506 -0.1536
  440MOL0     H60679   5.742  -1.399   1.319 -1.4007 -0.3553  0.0826
  440MOL0     H60680   5.794  -1.457   1.488  2.6454  0.4258 -0.1745
  440MOL0     H60681   5.907  -1.391   1.372 -0.0840  0.4303  0.7024
  440MOL0     H60682   5.294  -1.460   1.514  0.0410  0.2470  0.0944
  440MOL0     H60683   5.067  -1.521   1.433 -0.7767 -0.6862 -0.2568
  440MOL0     H60684   5.001  -1.519   1.220 -0.1264  0.1324  3.8073
  440MOL0     H60685   4.819  -1.519   1.207  1.8882 -2.3480 -1.1452
  440MOL0     H60686   4.809  -1.344   1.052  0.1281 -1.9778 -3.9804
  440MOL0     H60687   4.977  -1.291   1.082 -1.5159  0.8670 -2.1134
  440MOL0     H60688   5.066  -1.455   0.959 -0.1573  0.7127 -0.5092
  440MOL0     H60689   4.929  -1.396   0.864 -2.5567 -1.5560 -0.3647
  440MOL0     H60690   4.798  -1.607   0.945 -0.4390 -0.9214  0.3857
  440MOL0     H60691   4.947  -1.660   1.029  0.5559  0.6783  1.6758
  440MOL0     H60692   4.965  -1.588   0.727  1.5832  0.2798 -0.9790
  440MOL0     H60693   5.072  -1.690   0.826 -0.3619 -1.1262  0.4172
  440MOL0     H60694   4.785  -1.771   0.756 -0.4828  1.6852  2.0924
  440MOL0     H60695   4.889  -1.857   0.867 -2.7336 -1.6227 -1.6892
  440MOL0     H60696   5.054  -1.908   0.693 -0.8101 -4.1496  0.6228
  440MOL0     H60697   4.965  -1.790   0.583  1.4326  0.6098  1.2079
  440MOL0     H60698   4.886  -2.076   0.685  0.5783  0.4294  0.1854
  440MOL0     H60699   4.943  -2.023   0.533  3.2110  2.0586  1.7799
  440MOL0     H60700   4.980  -1.123   1.305 -1.2842 -2.2903 -1.6594
  440MOL0     H60701   5.212  -1.050   1.378 -1.8418  0.3838  2.8961
  440MOL0     H60702   5.533  -1.040   1.579  0.1220 -0.0186  2.5920
  440MOL0     H60703   5.753  -0.903   1.626  2.8289  0.2190  0.2675
  440MOL0     H60704   6.265   0.411   2.421  1.9823  0.5204  1.4607
  440MOL0     H60705   6.440   0.586   2.471 -0.3972  5.2915 -2.9262
  440MOL0     H60706   6.692   0.867   2.410 -1.2835 -1.7075  1.1771
  440MOL0     H60707   6.841   1.034   2.513  1.0000  0.4877  1.8037
  440MOL0     H60708   7.168   0.893   2.743 -4.1424 -0.2790 -1.0670
  440MOL0     H60709   7.266   0.961   2.597  0.7138  1.1286  1.1316
  440MOL0     H60710   7.168   1.091   2.857  3.7806  0.3238  2.8211
  440MOL0     H60711   7.232   1.194   2.716  1.1141  0.3113 -0.8504
  440MOL0     H60712   7.425   1.002   2.733 -0.6579 -0.3631 -0.7476
  440MOL0     H60713   7.422   1.155   2.823 -0.2674 -0.0190  0.8389
  440MOL0     H60714   7.355   0.863   2.905 -1.0589 -0.0286  1.5638
  440MOL0     H60715   7.300   0.995   3.011  1.5213 -0.7173  1.1998
  440MOL0     H60716   7.723   1.008   3.063 -0.3328 -2.5124 -0.2475
  440MOL0     H60717   7.122   0.738   2.597  1.2925  1.8070 -1.3272
  440MOL0     H60718   7.114   0.532   2.525  0.5347  6.1879 -2.4699
  440MOL0     H60719   6.957   0.457   2.581 -3.4106 -3.1183 -3.9900
  440MOL0     H60720   7.003   0.473   2.410 -2.4492  0.8690  0.1391
  441MOL0     O60721   4.915   2.540  11.339  0.9671  0.0271  0.0820
  441MOL0     C60722   4.955   2.424  11.350  0.5685 -0.6576  0.4302
  441MOL0     O60723   5.083   2.383  11.341 -0.3859  0.4262  0.1600
  441MOL0     C60724   5.175   2.477  11.305 -0.6456 -0.4160 -0.6317
  441MOL0     C60725   5.217   2.563  11.406  0.8724 -0.4188 -0.7544
  441MOL0     C60726   5.323   2.657  11.385  0.8939  1.1000  0.0225
  441MOL0     C60727   5.394   2.656  11.266  1.1628 -0.3491  0.0346
  441MOL0     O60728   5.489   2.750  11.266  0.3775  0.0963  0.4706
  441MOL0     C60729   5.558   2.803  11.155  0.1444 -0.2283  1.0792
  441MOL0     C60730   5.698   2.732  11.141  0.0967  0.3095 -0.3834
  441MOL0     C60731   5.809   2.781  11.229 -0.2345  0.1876 -1.0297
  441MOL0     C60732   5.775   2.785  11.383  0.2742  0.1141  0.1890
  441MOL0     C60733   5.790   2.640  11.443 -0.5869 -0.0168 -0.3082
  441MOL0     C60734   5.757   2.635  11.597  0.6434 -0.5469 -0.0999
  441MOL0     C60735   5.603   2.599  11.620 -0.0496  0.2597  0.3643
  441MOL0     C60736   5.575   2.598  11.771  0.1171 -0.2546 -0.1971
  441MOL0     N60737   5.443   2.537  11.799 -0.0576  0.2028 -0.2662
  441MOL0     C60738   5.321   2.604  11.805  0.4617 -0.0650 -0.8283
  441MOL0     C60739   5.233   2.504  11.825 -0.9974 -0.3213  0.1600
  441MOL0     C60740   5.092   2.506  11.845  0.4519  0.3722  0.0177
  441MOL0     C60741   4.997   2.446  11.739 -0.1047  0.2733 -0.7895
  441MOL0     C60742   4.863   2.394  11.786  0.8478  0.1906  0.6992
  441MOL0     C60743   4.768   2.498  11.844 -0.7725  1.2375 -0.6834
  441MOL0     O60744   4.825   2.562  11.965 -0.2845 -0.1676 -0.4180
  441MOL0     C60745   4.786   2.510  12.085  1.4868 -0.2463 -0.7432
  441MOL0     C60746   4.656   2.538  12.132  0.2379 -0.2473 -0.5102
  441MOL0     C60747   4.613   2.474  12.255  0.2363  0.4134 -0.1904
  441MOL0     C60748   4.471   2.481  12.278  0.2332  0.2491 -0.4412
  441MOL0     C60749   4.706   2.400  12.329 -0.0631  0.1689  0.5325
  441MOL0     C60750   4.668   2.315  12.451 -0.1764 -0.4778 -0.3047
  441MOL0     O60751   4.765   2.228  12.496  0.3308  0.0651  0.2487
  441MOL0     C60752   4.753   2.190  12.625 -0.8070  0.3422  0.2789
  441MOL0     C60753   4.782   2.061  12.656 -0.6549  0.9720  0.0441
  441MOL0     C60754   4.784   2.017  12.793 -0.3635  0.3780 -0.2169
  441MOL0     C60755   4.769   2.106  12.898 -0.4650  0.2687  0.0585
  441MOL0     O60756   4.776   2.061  13.025  0.4427 -0.1248  1.3401
  441MOL0     C60757   4.723   2.142  13.129  1.2878 -0.5850  0.3414
  441MOL0     C60758   4.770   2.084  13.258  0.6489  0.5621  0.2184
  441MOL0     C60759   4.716   2.150  13.389 -0.2163 -0.4742 -0.0366
  441MOL0     C60760   4.825   2.161  13.491 -0.2239 -0.0281 -0.2005
  441MOL0     C60761   4.769   2.241  13.615  0.4761 -0.4572 -0.2388
  441MOL0     C60762   4.663   2.147  13.687 -0.5894 -0.2514  0.6183
  441MOL0     C60763   4.637   2.188  13.833 -0.5683  0.5133  0.5956
  441MOL0     C60764   4.555   2.075  13.911 -0.4025  0.1627 -0.5757
  441MOL0    Cl60765   4.519   2.116  14.075 -0.0536 -0.2009 -0.2766
  441MOL0     C60766   4.753   2.246  12.866  1.0129  0.4721  0.0633
  441MOL0     C60767   4.749   2.282  12.731 -0.0872 -0.3935 -0.1030
  441MOL0     O60768   4.561   2.339  12.512  0.0841 -0.5987 -0.6687
  441MOL0     C60769   4.838   2.374  12.276  0.5459 -0.7045 -1.0838
  441MOL0     C60770   4.873   2.429  12.153 -0.3108 -0.3780 -0.1524
  441MOL0     N60771   5.302   2.375  11.828 -0.6789 -0.5854 -0.1571
  441MOL0     N60772   5.426   2.401  11.810 -0.3162 -0.1118 -0.0582
  441MOL0     C60773   5.371   2.561  11.174 -0.0373  0.7644  0.2408
  441MOL0     C60774   5.256   2.472  11.190  0.2555  0.0280 -0.5076
  441MOL0     C60775   4.849   2.325  11.349  0.2289 -0.8886  0.0223
  441MOL0     C60776   4.879   2.192  11.390  0.4340 -0.1728 -1.0550
  441MOL0     C60777   4.787   2.088  11.403  1.3484 -0.1154 -0.3081
  441MOL0     C60778   4.660   2.118  11.350 -0.4814  0.8968  0.5625
  441MOL0     O60779   4.551   2.031  11.369  0.8211 -0.8105  0.0876
  441MOL0     C60780   4.558   1.914  11.457  0.1163 -0.9346 -0.2579
  441MOL0     C60781   4.605   1.791  11.383  0.0844 -1.1093 -0.2122
  441MOL0     C60782   4.513   1.751  11.258 -0.2699 -0.7516 -0.3327
  441MOL0     C60783   4.521   1.602  11.230  0.0682  0.4940 -0.1141
  441MOL0     C60784   4.657   1.552  11.197 -0.0286 -0.1389  0.7126
  441MOL0     C60785   4.756   1.500  11.163 -0.0503  1.0208 -0.1405
  441MOL0     C60786   4.636   2.231  11.275  0.5100 -0.0902  0.5387
  441MOL0     C60787   4.728   2.336  11.275  0.4591 -1.1268  0.5791
  441MOL0     C60788   4.696   2.456  11.193  0.6565 -0.6989 -0.0533
  441MOL0     H60789   5.165   2.556  11.501  2.1128 -0.1430 -0.0396
  441MOL0     H60790   5.355   2.726  11.462 -3.0721  1.3463  1.6923
  441MOL0     H60791   5.584   2.907  11.175  2.1201 -0.2795 -0.8069
  441MOL0     H60792   5.493   2.798  11.067 -1.6791 -0.4858  2.3843
  441MOL0     H60793   5.692   2.623  11.149 -0.9755  0.4099  0.5458
  441MOL0     H60794   5.730   2.759  11.040 -2.5551 -2.1124 -2.0353
  441MOL0     H60795   5.898   2.717  11.223 -0.2286 -0.4399  3.0910
  441MOL0     H60796   5.829   2.881  11.190 -0.1586 -0.4210 -2.6257
  441MOL0     H60797   5.844   2.853  11.434 -1.8104  0.9806  1.9681
  441MOL0     H60798   5.675   2.824  11.403  1.1014  2.1121  0.6655
  441MOL0     H60799   5.894   2.618  11.421 -0.6398  1.2449 -2.0946
  441MOL0     H60800   5.727   2.569  11.387  0.3690 -1.4913  0.4418
  441MOL0     H60801   5.821   2.555  11.634  0.8772 -0.9334 -1.2795
  441MOL0     H60802   5.778   2.731  11.645 -1.1492  0.0761 -0.4625
  441MOL0     H60803   5.584   2.505  11.566  1.8208  1.2071 -2.1490
  441MOL0     H60804   5.541   2.673  11.569  2.0846  1.2531 -0.9167
  441MOL0     H60805   5.652   2.544  11.826  0.1317  1.6153  1.7509
  441MOL0     H60806   5.571   2.702  11.805  1.9447 -0.1661 -0.1537
  441MOL0     H60807   5.286   2.704  11.783 -1.2286 -0.8785 -2.0836
  441MOL0     H60808   5.067   2.610  11.864 -0.6299 -0.1847  1.8477
  441MOL0     H60809   5.081   2.445  11.935  0.3333 -0.0655 -0.2846
  441MOL0     H60810   4.988   2.520  11.659  0.6572 -0.2811 -1.4058
  441MOL0     H60811   5.043   2.355  11.700  1.4777 -0.5079  2.5501
  441MOL0     H60812   4.810   2.348  11.702 -2.2794  0.5927  2.3221
  441MOL0     H60813   4.878   2.319  11.864  1.2389  0.0900  0.5319
  441MOL0     H60814   4.748   2.572  11.767 -0.8458 -0.2940 -2.1815
  441MOL0     H60815   4.672   2.448  11.862  2.1689 -5.1475  0.0556
  441MOL0     H60816   4.594   2.609  12.078 -1.5054 -2.3209 -1.3765
  441MOL0     H60817   4.439   2.513  12.378 -2.0804 -0.3625 -0.9448
  441MOL0     H60818   4.431   2.382  12.257  0.0322  0.6354 -1.9909
  441MOL0     H60819   4.427   2.556  12.211  2.7190 -0.0902 -2.6578
  441MOL0     H60820   4.789   1.998  12.568 -1.1485  4.0124 -2.3292
  441MOL0     H60821   4.806   1.915  12.821 -3.7453 -0.7217 -1.1345
  441MOL0     H60822   4.743   2.248  13.111 -2.3477  0.0702 -0.6997
  441MOL0     H60823   4.614   2.138  13.136  0.9980  1.6391 -1.7972
  441MOL0     H60824   4.753   1.978  13.279 -0.4293  0.7304  0.2679
  441MOL0     H60825   4.878   2.094  13.264  0.8330 -1.2991  0.5102
  441MOL0     H60826   4.638   2.089  13.436  1.3142 -1.8675  0.8209
  441MOL0     H60827   4.680   2.247  13.354  0.9198  0.2476  0.7258
  441MOL0     H60828   4.913   2.216  13.456  1.1772 -0.7070  2.0281
  441MOL0     H60829   4.866   2.064  13.520  4.7042  1.2530 -1.9080
  441MOL0     H60830   4.848   2.269  13.685 -0.0326 -2.1151  1.0742
  441MOL0     H60831   4.712   2.327  13.579 -2.5350 -1.6763  1.2521
  441MOL0     H60832   4.702   2.044  13.687  0.7328  0.2138  1.6044
  441MOL0     H60833   4.566   2.165  13.642 -1.1363 -0.4851  1.6643
  441MOL0     H60834   4.584   2.284  13.837 -1.1421  0.2087  0.4864
  441MOL0     H60835   4.732   2.195  13.886  0.2749 -1.7415 -0.5321
  441MOL0     H60836   4.614   1.983  13.905  1.7069  1.5112 -1.8865
  441MOL0     H60837   4.463   2.060  13.854 -0.3117  1.9721 -1.2892
  441MOL0     H60838   4.750   2.331  12.933  1.0243  0.7024 -0.2255
  441MOL0     H60839   4.732   2.388  12.715 -1.2906 -0.6686 -0.7337
  441MOL0     H60840   4.915   2.321  12.331  0.8545  2.3396  1.7590
  441MOL0     H60841   4.969   2.412  12.107 -0.7979 -0.3055 -1.2281
  441MOL0     H60842   5.438   2.551  11.089  1.5957 -3.2469  1.8032
  441MOL0     H60843   5.210   2.393  11.131 -1.9584 -0.6445  1.9456
  441MOL0     H60844   4.982   2.167  11.414 -0.0665 -0.2780  1.2023
  441MOL0     H60845   4.813   1.992  11.446  0.7248 -0.9997 -1.8228
  441MOL0     H60846   4.611   1.959  11.541  0.5567 -0.1032 -0.9515
  441MOL0     H60847   4.457   1.892  11.492  0.4347  2.5512  3.6283
  441MOL0     H60848   4.592   1.719  11.465 -0.2596 -1.9449 -0.9763
  441MOL0     H60849   4.708   1.789  11.345 -1.3563 -0.5871 -4.6149
  441MOL0     H60850   4.409   1.780  11.275  0.0349  0.0873  0.2268
  441MOL0     H60851   4.553   1.806  11.173 -2.4365  0.3443 -0.7197
  441MOL0     H60852   4.444   1.572  11.159  1.3570  2.3224 -2.4413
  441MOL0     H60853   4.494   1.547  11.320  1.4699 -1.9721 -1.1078
  441MOL0     H60854   4.847   1.463  11.121 -1.7297 -3.2009 -0.5902
  441MOL0     H60855   4.543   2.229  11.220  0.8605 -1.3259 -0.0408
  441MOL0     H60856   4.606   2.459  11.132  0.7898 -0.7448 -0.2544
  441MOL0     H60857   4.680   2.541  11.259  2.5861 -0.4789  0.1996
  441MOL0     H60858   4.782   2.466  11.127 -0.1691  0.7298 -0.9489
  442MOL0     O60859   2.240   4.318   3.176 -0.2200 -0.0682  1.0466
  442MOL0     C60860   2.230   4.390   3.271 -0.3610 -0.4109 -0.1852
  442MOL0     O60861   2.107   4.447   3.310 -0.5913  0.5896  0.6339
  442MOL0     C60862   1.983   4.410   3.263 -0.6707  0.2957 -0.2243
  442MOL0     C60863   1.878   4.419   3.362  0.7032 -0.4106 -0.6957
  442MOL0     C60864   1.744   4.381   3.344  0.1251  0.1515 -0.6593
  442MOL0     C60865   1.709   4.356   3.214  0.0916 -0.6300 -0.2465
  442MOL0     O60866   1.582   4.336   3.188  0.5716 -0.7322 -0.5458
  442MOL0     C60867   1.548   4.197   3.206 -0.5611 -0.0603  0.2715
  442MOL0     C60868   1.397   4.190   3.183 -0.0585 -0.3208 -0.0771
  442MOL0     C60869   1.309   4.290   3.257 -0.6899  0.4054  0.8309
  442MOL0     C60870   1.162   4.293   3.203 -0.0273 -0.7082  0.6916
  442MOL0     C60871   1.154   4.373   3.074  0.9031  0.4245 -0.4014
  442MOL0     C60872   1.049   4.325   2.979  0.9352  0.6099  0.0775
  442MOL0     C60873   1.035   4.406   2.847 -0.4879  0.7351 -0.8128
  442MOL0     C60874   0.965   4.539   2.876 -0.2600  0.2106  0.3053
  442MOL0     N60875   0.823   4.526   2.863 -0.5952  0.5239 -0.5107
  442MOL0     C60876   0.752   4.532   2.747  0.5766  1.0348 -0.2239
  442MOL0     C60877   0.620   4.524   2.786  0.3608  0.2766  0.0306
  442MOL0     C60878   0.498   4.507   2.693 -0.2833 -1.0789  0.1059
  442MOL0     C60879   0.392   4.625   2.704  0.1967  0.2738  0.3220
  442MOL0     C60880   0.440   4.762   2.660 -0.1103 -0.0799 -0.0959
  442MOL0     C60881   0.430   4.776   2.503  0.1936  0.6588  0.6119
  442MOL0     O60882   0.502   4.892   2.463  0.0996  0.3546  0.1753
  442MOL0     C60883   0.633   4.889   2.483  0.6647  0.0080 -0.8152
  442MOL0     C60884   0.707   4.770   2.438 -0.0050 -0.0677 -0.2874
  442MOL0     C60885   0.847   4.771   2.441  1.3470  0.2050 -0.3702
  442MOL0     C60886   0.919   4.655   2.382  0.2998 -0.4590  0.4888
  442MOL0     C60887   0.914   4.880   2.509 -0.1462 -0.3683  0.0519
  442MOL0     C60888   1.052   4.850   2.551 -0.5107  0.1381 -0.4347
  442MOL0     O60889   1.147   4.944   2.521  0.4297  0.4402  0.0890
  442MOL0     C60890   1.263   4.915   2.446  0.0012 -0.1467 -0.9980
  442MOL0     C60891   1.334   4.795   2.442 -0.5429  0.2560 -0.0111
  442MOL0     C60892   1.439   4.779   2.357 -0.5368 -0.8044  0.4552
  442MOL0     C60893   1.490   4.885   2.281  0.0027  0.1038 -0.6031
  442MOL0     O60894   1.605   4.856   2.211  0.1345  0.0263  1.1163
  442MOL0     C60895   1.653   4.950   2.115 -0.9681  0.4173 -0.1425
  442MOL0     C60896   1.796   4.918   2.070  0.6430  0.1018 -0.6873
  442MOL0     C60897   1.901   4.964   2.156  0.2414 -0.0031  0.7700
  442MOL0     C60898   2.034   4.896   2.129  0.1064  0.2030  0.4426
  442MOL0     C60899   2.145   4.968   2.208 -0.3707 -0.3522  0.7368
  442MOL0     C60900   2.281   4.888   2.202 -0.1310 -0.4317 -0.7549
  442MOL0     C60901   2.275   4.730   2.227  0.8340  0.7928 -0.0781
  442MOL0     C60902   2.409   4.691   2.293 -0.1416  0.8250  0.1523
  442MOL0    Cl60903   2.414   4.753   2.459  0.1292  1.0155  0.1326
  442MOL0     C60904   1.417   5.002   2.284 -0.5893  0.1186 -0.0154
  442MOL0     C60905   1.307   5.016   2.365 -0.7242 -0.1691  0.0488
  442MOL0     O60906   1.070   4.758   2.624 -0.0662  0.2814 -0.3134
  442MOL0     C60907   0.848   4.992   2.544  0.8942 -0.2896  0.4734
  442MOL0     C60908   0.706   4.999   2.537  0.3598 -0.5663  0.2360
  442MOL0     N60909   0.629   4.505   2.924  0.6881  0.3483 -0.0213
  442MOL0     N60910   0.746   4.521   2.973 -0.0343  0.3832  0.0352
  442MOL0     C60911   1.803   4.354   3.110 -0.4280 -0.9519  0.4151
  442MOL0     C60912   1.938   4.379   3.132 -0.7221  0.4610 -0.2592
  442MOL0     C60913   2.355   4.432   3.343 -0.3855 -0.1948 -0.0854
  442MOL0     C60914   2.479   4.403   3.288 -0.7807 -0.2285  0.0917
  442MOL0     C60915   2.597   4.451   3.352  0.3499  0.3214  0.9047
  442MOL0     C60916   2.588   4.510   3.470 -0.1769  0.4474 -1.0944
  442MOL0     O60917   2.707   4.564   3.514  0.7649  0.6959  0.5450
  442MOL0     C60918   2.773   4.491   3.613 -0.2085 -0.5575 -0.4802
  442MOL0     C60919   2.861   4.383   3.555  0.4287 -0.2799  0.4790
  442MOL0     C60920   2.990   4.441   3.498  0.8060 -1.2971  0.9312
  442MOL0     C60921   3.059   4.334   3.411  0.2632  1.2256 -0.3752
  442MOL0     C60922   3.199   4.344   3.389 -0.1843 -0.2428  0.9181
  442MOL0     C60923   3.313   4.354   3.344  1.2000  0.2586 -0.7209
  442MOL0     C60924   2.466   4.540   3.528 -0.7048  0.6545  0.5325
  442MOL0     C60925   2.350   4.500   3.466  0.2131 -0.0826  0.2555
  442MOL0     C60926   2.222   4.525   3.552 -0.2205 -0.2936 -0.1969
  442MOL0     H60927   1.912   4.466   3.454  1.5903 -0.8998 -0.7643
  442MOL0     H60928   1.664   4.391   3.417 -0.8576 -1.0810 -1.5295
  442MOL0     H60929   1.582   4.161   3.304  3.2848  2.3663  0.0323
  442MOL0     H60930   1.600   4.148   3.124 -0.3379  1.1713 -0.3428
  442MOL0     H60931   1.375   4.192   3.075  1.0468 -0.4976 -0.3153
  442MOL0     H60932   1.367   4.088   3.208  1.8965 -1.2419 -1.2565
  442MOL0     H60933   1.307   4.255   3.360 -3.3494 -0.4872  0.5564
  442MOL0     H60934   1.351   4.391   3.251  2.5602 -0.7466  2.3203
  442MOL0     H60935   1.131   4.189   3.191  1.2480 -1.2251  1.6620
  442MOL0     H60936   1.092   4.347   3.267 -0.9133 -0.8807 -0.1121
  442MOL0     H60937   1.248   4.368   3.019  1.0399  4.0190 -0.7565
  442MOL0     H60938   1.144   4.477   3.105 -1.6875 -0.1641  1.0160
  442MOL0     H60939   1.088   4.226   2.953  4.4406  0.9232  3.2979
  442MOL0     H60940   0.946   4.315   3.015  0.1283 -1.6117 -2.5212
  442MOL0     H60941   1.004   4.347   2.761 -1.0822 -0.6247  0.3143
  442MOL0     H60942   1.135   4.423   2.805  0.0708 -1.4060 -0.4565
  442MOL0     H60943   0.982   4.578   2.977  0.5584  0.7593 -0.0371
  442MOL0     H60944   1.016   4.621   2.825  0.2320  4.3901  6.4651
  442MOL0     H60945   0.780   4.526   2.642  1.1855 -0.1886 -0.0119
  442MOL0     H60946   0.444   4.418   2.724 -0.1554 -0.5374  2.0368
  442MOL0     H60947   0.522   4.496   2.587 -0.3656  0.0409 -0.0448
  442MOL0     H60948   0.305   4.602   2.641 -0.7422  0.1816  1.6062
  442MOL0     H60949   0.359   4.619   2.808  0.5405 -3.4098  0.3460
  442MOL0     H60950   0.379   4.845   2.699 -0.4187 -0.5090  0.3375
  442MOL0     H60951   0.542   4.763   2.698 -0.6772  0.2959  1.5139
  442MOL0     H60952   0.454   4.684   2.448  2.0625  2.1694 -1.2742
  442MOL0     H60953   0.325   4.799   2.481  0.9558  2.7065 -1.2990
  442MOL0     H60954   0.656   4.697   2.376 -1.5763 -0.1334  1.0202
  442MOL0     H60955   0.854   4.574   2.347 -0.6154  1.3562 -2.3010
  442MOL0     H60956   0.977   4.613   2.465 -1.5781 -1.0599  1.5705
  442MOL0     H60957   0.985   4.708   2.314 -1.9335  5.8710  2.5514
  442MOL0     H60958   1.289   4.710   2.493  1.5186  1.0770  3.5450
  442MOL0     H60959   1.476   4.677   2.354 -1.0405 -0.9700 -0.4844
  442MOL0     H60960   1.581   4.959   2.033 -4.4032  0.8610  2.6775
  442MOL0     H60961   1.664   5.043   2.173  1.1047  0.4810 -0.5491
  442MOL0     H60962   1.800   4.810   2.051 -1.2472 -0.0673 -0.3560
  442MOL0     H60963   1.803   4.963   1.971  1.6582  0.6555 -0.3747
  442MOL0     H60964   1.867   4.957   2.259 -1.0512 -1.2599  0.2951
  442MOL0     H60965   1.909   5.071   2.135 -0.5556  0.0752  0.8441
  442MOL0     H60966   2.053   4.902   2.022 -1.9425  0.4843  0.0624
  442MOL0     H60967   2.025   4.788   2.142  0.6229 -0.4993 -3.7222
  442MOL0     H60968   2.161   5.069   2.168  0.6749 -0.3214  1.1893
  442MOL0     H60969   2.111   4.991   2.309 -0.8022  1.2065  0.2663
  442MOL0     H60970   2.363   4.936   2.257  1.2424 -3.0038 -0.3741
  442MOL0     H60971   2.323   4.890   2.102  1.4497 -0.8766 -0.1280
  442MOL0     H60972   2.252   4.675   2.136  1.8528 -1.7148  1.0890
  442MOL0     H60973   2.192   4.704   2.293  3.1056  0.5634  2.8955
  442MOL0     H60974   2.502   4.724   2.245  1.0968  0.4429  2.1945
  442MOL0     H60975   2.408   4.581   2.300 -2.0886  0.8154  0.1532
  442MOL0     H60976   1.439   5.074   2.205 -0.1975 -3.1924 -3.1722
  442MOL0     H60977   1.253   5.110   2.363 -0.6320 -0.1090 -2.2349
  442MOL0     H60978   0.910   5.072   2.583  2.0969 -0.8134 -0.2639
  442MOL0     H60979   0.662   5.089   2.579  5.1371  0.7079  3.2812
  442MOL0     H60980   1.770   4.341   3.007  0.0764  0.6892  0.0220
  442MOL0     H60981   2.015   4.386   3.056 -1.5408 -0.7322 -1.2382
  442MOL0     H60982   2.490   4.358   3.189  2.5819 -1.7846  1.0082
  442MOL0     H60983   2.691   4.417   3.309 -0.3975 -0.7419  0.0531
  442MOL0     H60984   2.834   4.551   3.681 -2.0004 -0.5566  1.2238
  442MOL0     H60985   2.696   4.453   3.681  1.0360  0.9528  1.9441
  442MOL0     H60986   2.800   4.326   3.484  0.3882 -1.5707  1.5186
  442MOL0     H60987   2.892   4.319   3.638  3.8931 -0.4106 -0.7666
  442MOL0     H60988   2.972   4.521   3.425  1.7393 -1.0103  1.0029
  442MOL0     H60989   3.047   4.481   3.583  0.3924 -1.6768  1.3983
  442MOL0     H60990   3.015   4.343   3.312 -0.0686 -0.1221 -0.3707
  442MOL0     H60991   3.034   4.238   3.457 -1.2546  2.3605  1.2820
  442MOL0     H60992   3.413   4.364   3.307  1.3371  0.0229 -0.4174
  442MOL0     H60993   2.455   4.585   3.626  3.1289 -1.0059  1.9113
  442MOL0     H60994   2.173   4.429   3.574 -0.5775 -0.0552  0.0487
  442MOL0     H60995   2.237   4.582   3.644  3.2660 -0.3648 -0.5885
  442MOL0     H60996   2.162   4.597   3.496 -1.4606 -0.9002  0.3035
  443MOL0     O60997   5.655   2.993   8.363  0.0872  0.0472  0.1462
  443MOL0     C60998   5.644   2.882   8.416  1.0071  0.4833  0.3943
  443MOL0     O60999   5.650   2.865   8.553  0.2380 -0.4879 -0.0394
  443MOL0     C61000   5.665   2.977   8.625  0.3436  0.1140 -0.2398
  443MOL0     C61001   5.784   3.051   8.652  0.2108 -0.0290  1.1016
  443MOL0     C61002   5.781   3.166   8.727  0.7512 -0.4893  0.3260
  443MOL0     C61003   5.667   3.221   8.770 -0.7025 -0.1653  0.2444
  443MOL0     O61004   5.662   3.343   8.827  0.2726 -0.3397 -0.2945
  443MOL0     C61005   5.606   3.347   8.964 -0.1701  0.3665 -0.9519
  443MOL0     C61006   5.681   3.250   9.069 -0.1171  0.2639 -0.5002
  443MOL0     C61007   5.673   3.296   9.213 -0.3661 -0.5358  0.4299
  443MOL0     C61008   5.527   3.257   9.265  0.6849  1.5080 -0.1860
  443MOL0     C61009   5.486   3.370   9.370  0.0307  0.3005 -0.9506
  443MOL0     C61010   5.345   3.340   9.420 -0.2151 -0.5135  0.5437
  443MOL0     C61011   5.240   3.364   9.311 -0.2071  0.5752 -0.0778
  443MOL0     C61012   5.229   3.510   9.261  0.2594 -0.6899 -0.0041
  443MOL0     N61013   5.137   3.527   9.150 -0.1708 -0.5489  0.0491
  443MOL0     C61014   5.149   3.618   9.046  0.3946 -0.3795 -0.7065
  443MOL0     C61015   5.023   3.645   9.002 -0.2639  0.6012 -0.1492
  443MOL0     C61016   4.994   3.759   8.903  0.2190  0.0189 -0.0316
  443MOL0     C61017   4.988   3.888   8.990 -0.4654 -0.6781 -0.2470
  443MOL0     C61018   5.131   3.948   9.024 -0.5467 -1.2621 -0.8049
  443MOL0     C61019   5.108   4.058   9.133  0.0287 -0.8115  0.7627
  443MOL0     O61020   5.036   4.005   9.241 -0.0455  0.8724  0.2438
  443MOL0     C61021   5.100   3.939   9.350 -1.7546 -0.0009 -0.3284
  443MOL0     C61022   5.229   3.886   9.350 -0.0340  0.7156  0.6585
  443MOL0     C61023   5.282   3.809   9.460  0.2399  0.5322  0.1813
  443MOL0     C61024   5.423   3.766   9.462 -0.9413  0.7838  0.5315
  443MOL0     C61025   5.201   3.790   9.578  0.5219  0.5281 -0.4564
  443MOL0     C61026   5.236   3.712   9.707  0.2854  0.4320 -0.1229
  443MOL0     O61027   5.146   3.722   9.811  0.1384  0.4459 -0.5990
  443MOL0     C61028   5.174   3.663   9.935 -0.1222 -0.0561 -0.4115
  443MOL0     C61029   5.068   3.651  10.027 -0.3631 -0.0148 -0.1382
  443MOL0     C61030   5.085   3.590  10.151 -0.1326  0.8372 -0.3640
  443MOL0     C61031   5.218   3.547  10.180 -0.0034 -0.7631 -0.2002
  443MOL0     O61032   5.230   3.480  10.302 -0.1998  0.1618  0.0299
  443MOL0     C61033   5.335   3.515  10.391 -0.0782 -0.6328 -0.4713
  443MOL0     C61034   5.281   3.462  10.526 -0.3960 -0.4060 -0.1819
  443MOL0     C61035   5.146   3.528  10.571  1.0572  0.5517 -0.6927
  443MOL0     C61036   5.113   3.467  10.715  0.2906  0.0284 -0.3013
  443MOL0     C61037   5.003   3.551  10.790 -0.8880  0.4884  0.9477
  443MOL0     C61038   4.970   3.482  10.922  0.4827  0.1087  0.2649
  443MOL0     C61039   4.892   3.579  11.004  0.1459 -0.0136 -0.6936
  443MOL0     C61040   4.776   3.648  10.927  0.1586 -0.2291  0.1172
  443MOL0    Cl61041   4.663   3.521  10.870 -0.2155  0.4790 -0.5789
  443MOL0     C61042   5.326   3.586  10.108  0.1574  0.3907 -0.1629
  443MOL0     C61043   5.309   3.633   9.980  0.2847 -0.9265  0.5892
  443MOL0     O61044   5.320   3.626   9.689  0.1764  0.6050 -0.3784
  443MOL0     C61045   5.070   3.846   9.580  0.4777 -0.1407  0.3362
  443MOL0     C61046   5.027   3.909   9.463  0.8162 -0.0625 -0.1647
  443MOL0     N61047   4.938   3.557   9.071 -0.2133 -0.7974 -0.7104
  443MOL0     N61048   5.006   3.493   9.156 -0.2093 -1.5692 -0.0460
  443MOL0     C61049   5.545   3.151   8.741 -0.0885 -0.4011 -0.2586
  443MOL0     C61050   5.538   3.028   8.665  0.7117  0.0527  0.2131
  443MOL0     C61051   5.601   2.758   8.327 -0.4713  0.8124 -0.2046
  443MOL0     C61052   5.612   2.627   8.380 -0.9799  0.4344  0.6110
  443MOL0     C61053   5.574   2.508   8.314  0.3378 -0.0120 -0.0172
  443MOL0     C61054   5.533   2.525   8.182 -0.9766  0.6069  0.5601
  443MOL0     O61055   5.491   2.406   8.113  0.1923  0.2238 -0.7051
  443MOL0     C61056   5.468   2.398   7.974  0.0949  0.3639 -0.0725
  443MOL0     C61057   5.594   2.433   7.893 -0.0270  0.6464  0.8037
  443MOL0     C61058   5.728   2.356   7.938  0.8610  0.0385 -0.2770
  443MOL0     C61059   5.729   2.207   7.937 -0.9747 -0.2690  0.1201
  443MOL0     C61060   5.861   2.158   7.974  0.2478  0.2561 -0.0523
  443MOL0     C61061   5.980   2.116   7.998  0.5056 -0.7197  0.2963
  443MOL0     C61062   5.523   2.652   8.129 -0.2548  0.0505 -0.2040
  443MOL0     C61063   5.542   2.766   8.200  0.3048 -0.4065 -0.1595
  443MOL0     C61064   5.504   2.902   8.141 -0.3943 -0.9226 -0.2418
  443MOL0     H61065   5.871   3.019   8.595 -0.1928 -0.4009  0.6768
  443MOL0     H61066   5.879   3.207   8.751  0.0639  0.4748  1.5881
  443MOL0     H61067   5.501   3.333   8.988  0.5158 -1.2380  1.3855
  443MOL0     H61068   5.640   3.446   8.996  1.3888 -0.7570  1.1069
  443MOL0     H61069   5.649   3.147   9.056  4.6357 -1.6225  0.7506
  443MOL0     H61070   5.786   3.244   9.037 -0.2490 -4.4491 -0.6711
  443MOL0     H61071   5.766   3.272   9.265  2.2753  4.4268 -1.3526
  443MOL0     H61072   5.672   3.405   9.210 -4.3430 -0.4514 -1.3853
  443MOL0     H61073   5.452   3.268   9.186  0.2924  0.7593  0.0714
  443MOL0     H61074   5.531   3.153   9.298  0.8056  1.3867 -0.5708
  443MOL0     H61075   5.506   3.472   9.337 -2.0302  0.7765 -0.8482
  443MOL0     H61076   5.555   3.353   9.453 -1.8321  0.8592  0.7828
  443MOL0     H61077   5.350   3.238   9.458  1.2950 -0.5638  0.2747
  443MOL0     H61078   5.322   3.410   9.501  1.0125  2.6586 -1.6474
  443MOL0     H61079   5.149   3.320   9.354 -0.9983 -0.1913 -2.3874
  443MOL0     H61080   5.255   3.302   9.222 -1.1882 -3.0098  2.0300
  443MOL0     H61081   5.198   3.581   9.339 -1.8977  0.7303 -1.9930
  443MOL0     H61082   5.329   3.534   9.225  0.0837 -1.0402 -0.7627
  443MOL0     H61083   5.241   3.667   9.017  0.8161  0.3883  1.6993
  443MOL0     H61084   4.902   3.751   8.845  1.1375 -1.0417 -1.4045
  443MOL0     H61085   5.064   3.766   8.819  1.7963 -0.3153  1.2205
  443MOL0     H61086   4.931   3.962   8.933  1.5037  1.3381  0.2772
  443MOL0     H61087   4.939   3.873   9.087  0.7304  2.5694  0.9948
  443MOL0     H61088   5.190   3.869   9.073 -2.3181 -1.6795  0.7661
  443MOL0     H61089   5.179   3.986   8.933 -0.9850 -2.7557 -1.6871
  443MOL0     H61090   5.202   4.098   9.172 -1.2019  2.9594  0.2859
  443MOL0     H61091   5.064   4.151   9.095  0.8772  0.3584  2.5300
  443MOL0     H61092   5.290   3.896   9.260 -1.3738  2.9192 -0.0572
  443MOL0     H61093   5.425   3.657   9.452  0.2548  0.6549  1.8040
  443MOL0     H61094   5.472   3.789   9.558  0.0283 -2.3604  0.9030
  443MOL0     H61095   5.463   3.792   9.364 -3.9102 -1.9683 -1.6047
  443MOL0     H61096   4.970   3.658   9.981 -1.0689  1.0396  1.4635
  443MOL0     H61097   5.006   3.537  10.204 -1.0647 -1.2117 -3.4572
  443MOL0     H61098   5.427   3.460  10.372  0.9419  0.9515 -0.2803
  443MOL0     H61099   5.350   3.624  10.392  1.9180 -0.8726  1.9212
  443MOL0     H61100   5.266   3.354  10.531  0.7767 -0.5458  3.3087
  443MOL0     H61101   5.348   3.493  10.607  1.5361 -2.5832 -0.8498
  443MOL0     H61102   5.065   3.499  10.504 -0.8740  0.8276  1.4216
  443MOL0     H61103   5.154   3.637  10.570  2.4899  0.6071  2.8237
  443MOL0     H61104   5.203   3.473  10.778 -0.1862  1.6373  0.2700
  443MOL0     H61105   5.085   3.361  10.706  0.9236 -0.1593 -0.1516
  443MOL0     H61106   5.050   3.647  10.812  3.0825 -0.9054 -0.5531
  443MOL0     H61107   4.917   3.563  10.724 -0.0689  1.5273  0.0309
  443MOL0     H61108   5.055   3.440  10.977 -0.3789 -1.5220  0.4062
  443MOL0     H61109   4.921   3.387  10.901 -0.9338  1.8178 -6.1828
  443MOL0     H61110   4.957   3.657  11.044  0.9270  1.4109 -4.3296
  443MOL0     H61111   4.851   3.520  11.087 -1.0400 -1.0206 -1.9464
  443MOL0     H61112   4.820   3.706  10.845 -0.0199 -1.5224 -0.9295
  443MOL0     H61113   4.727   3.722  10.992  2.7260  1.6963  0.0101
  443MOL0     H61114   5.421   3.558  10.152 -0.1203  1.3445  1.0946
  443MOL0     H61115   5.398   3.633   9.917  0.8339  0.5856  1.3073
  443MOL0     H61116   5.005   3.846   9.666  1.5581 -0.4104  1.1716
  443MOL0     H61117   4.926   3.947   9.469  1.4810  1.5792  1.3346
  443MOL0     H61118   5.455   3.197   8.780  1.6201  1.2527  2.0708
  443MOL0     H61119   5.455   2.962   8.641  0.7306  0.3756 -0.7742
  443MOL0     H61120   5.645   2.612   8.482  1.5209 -2.4754 -0.4751
  443MOL0     H61121   5.587   2.412   8.362  4.1114 -0.4052 -1.4661
  443MOL0     H61122   5.434   2.300   7.939 -1.2812  0.5829  0.5865
  443MOL0     H61123   5.383   2.459   7.943  1.0538  0.7074 -2.2823
  443MOL0     H61124   5.620   2.538   7.881  3.3079 -0.1827 -0.2662
  443MOL0     H61125   5.581   2.382   7.797 -1.2421 -1.0445  1.8133
  443MOL0     H61126   5.802   2.396   7.868 -0.0009  2.0167 -0.1434
  443MOL0     H61127   5.747   2.396   8.038 -1.1492 -0.6083  0.4085
  443MOL0     H61128   5.715   2.187   7.830  4.9739  2.2360 -1.5256
  443MOL0     H61129   5.647   2.172   8.002  0.1089  0.2135  1.8157
  443MOL0     H61130   6.083   2.087   7.992  0.4603 -0.7707 -0.2729
  443MOL0     H61131   5.488   2.650   8.027 -1.2855 -2.8768  0.1209
  443MOL0     H61132   5.415   2.877   8.082 -1.5803 -0.0222  1.1096
  443MOL0     H61133   5.471   2.985   8.204 -3.4213 -0.7528 -1.8357
  443MOL0     H61134   5.577   2.939   8.068 -1.4456  1.6906 -0.0821
  444MOL0     O61135   9.549  11.483   7.956 -0.1426 -1.0780 -0.4781
  444MOL0     C61136   9.438  11.540   7.950 -0.3958  0.3323  0.2943
  444MOL0     O61137   9.330  11.495   8.012 -0.0409  0.8591 -0.2380
  444MOL0     C61138   9.342  11.366   8.064  0.4589 -1.0981  0.1263
  444MOL0     C61139   9.297  11.264   7.981  0.3512  0.4455  0.1131
  444MOL0     C61140   9.302  11.128   8.028 -1.0261 -0.4698  0.7407
  444MOL0     C61141   9.355  11.101   8.154 -0.2418  0.7426  0.0324
  444MOL0     O61142   9.365  10.974   8.200 -0.1991 -0.4881  0.4233
  444MOL0     C61143   9.369  10.859   8.117 -0.0919 -0.5613 -0.1107
  444MOL0     C61144   9.430  10.744   8.209  0.1971  0.1831 -0.7955
  444MOL0     C61145   9.347  10.678   8.316  0.1163 -0.6022  0.4086
  444MOL0     C61146   9.206  10.644   8.262  0.0513 -0.4665  0.2842
  444MOL0     C61147   9.159  10.517   8.349 -0.4921 -0.2125 -0.3056
  444MOL0     C61148   9.162  10.533   8.499  0.5042 -0.0153  0.5322
  444MOL0     C61149   9.076  10.421   8.574 -0.4880  0.0056 -0.5752
  444MOL0     C61150   8.937  10.396   8.522 -0.5844 -0.0444 -0.9021
  444MOL0     N61151   8.864  10.292   8.597  0.4002 -0.6847 -0.5336
  444MOL0     C61152   8.767  10.208   8.557  0.7180 -0.4580 -1.1042
  444MOL0     C61153   8.746  10.117   8.651 -1.4742  0.5453  0.5675
  444MOL0     C61154   8.669   9.990   8.632  0.1860  0.4468  0.2250
  444MOL0     C61155   8.608   9.927   8.762  0.0376  0.0392  0.1286
  444MOL0     C61156   8.642   9.783   8.791  0.1474 -0.4734 -1.0957
  444MOL0     C61157   8.565   9.735   8.910  0.4446 -0.0614 -0.1897
  444MOL0     O61158   8.577   9.592   8.895  0.0734  0.2158 -0.1356
  444MOL0     C61159   8.530   9.518   9.002 -0.6017  0.0529  1.1282
  444MOL0     C61160   8.565   9.385   9.013  0.5001  0.1136 -0.3810
  444MOL0     C61161   8.521   9.288   9.113  0.3000 -0.5032  0.2438
  444MOL0     C61162   8.570   9.151   9.103  0.0318  0.1635  0.1976
  444MOL0     C61163   8.442   9.337   9.213 -0.4521 -0.2567 -0.2667
  444MOL0     C61164   8.409   9.261   9.333  0.5261 -1.8534  0.7680
  444MOL0     O61165   8.316   9.324   9.419  0.3661 -0.1928 -0.7682
  444MOL0     C61166   8.322   9.273   9.549 -0.4370  0.0471  0.9878
  444MOL0     C61167   8.224   9.186   9.589 -0.8582  0.8816  0.8664
  444MOL0     C61168   8.229   9.127   9.716 -0.4690 -0.8558  0.6672
  444MOL0     C61169   8.331   9.162   9.805  0.0962 -0.3975 -0.0076
  444MOL0     O61170   8.339   9.111   9.934  0.3347 -0.1819 -0.0724
  444MOL0     C61171   8.405   9.185  10.041  0.1517  0.1666 -0.4500
  444MOL0     C61172   8.507   9.099  10.114  0.2743  0.2366  0.5061
  444MOL0     C61173   8.433   8.981  10.176  0.2765 -0.1475 -0.6922
  444MOL0     C61174   8.521   8.896  10.276 -1.2390  0.0431 -0.3588
  444MOL0     C61175   8.442   8.805  10.373  0.5334 -0.2559  0.8140
  444MOL0     C61176   8.523   8.689  10.442  0.6146  0.2113 -0.2672
  444MOL0     C61177   8.425   8.590  10.506  0.6609  0.1699 -0.6620
  444MOL0     C61178   8.474   8.498  10.615  0.3077  0.3986  1.0775
  444MOL0    Cl61179   8.581   8.377  10.548  0.4429  0.3303  0.1371
  444MOL0     C61180   8.436   9.237   9.761 -0.0691 -0.0243 -0.9089
  444MOL0     C61181   8.428   9.307   9.635 -0.1128 -0.4196  0.9989
  444MOL0     O61182   8.479   9.165   9.368  0.7430  0.1506 -0.3420
  444MOL0     C61183   8.403   9.474   9.205  0.2521 -0.4564  0.0048
  444MOL0     C61184   8.451   9.558   9.100  0.1522 -0.5100  0.3831
  444MOL0     N61185   8.833  10.140   8.754  0.5043  0.6057 -0.9636
  444MOL0     N61186   8.915  10.233   8.714  0.7185 -0.2699 -0.4452
  444MOL0     C61187   9.387  11.210   8.232  0.1322  0.2798  0.3748
  444MOL0     C61188   9.383  11.340   8.194 -0.3889  0.0680  0.3660
  444MOL0     C61189   9.419  11.667   7.874 -0.2466  0.2377  0.6053
  444MOL0     C61190   9.283  11.689   7.827 -1.3038 -0.0556  0.3997
  444MOL0     C61191   9.255  11.795   7.744  0.1978  0.1475  0.3784
  444MOL0     C61192   9.334  11.909   7.744  0.4223 -0.3278 -0.6598
  444MOL0     O61193   9.286  12.010   7.671 -1.0743  0.7911 -0.0338
  444MOL0     C61194   9.328  12.142   7.716 -0.0638 -0.1744  0.4621
  444MOL0     C61195   9.241  12.259   7.660 -1.0116 -0.3684 -0.0632
  444MOL0     C61196   9.231  12.246   7.499  0.0772 -0.6731  0.2527
  444MOL0     C61197   9.096  12.188   7.459 -0.8844  0.0637  1.0083
  444MOL0     C61198   8.984  12.270   7.511 -0.0850  0.2764  0.2191
  444MOL0     C61199   8.892  12.341   7.550  0.1737  0.4081  0.8347
  444MOL0     C61200   9.458  11.893   7.801  0.4387 -0.2761  0.7288
  444MOL0     C61201   9.510  11.779   7.861  0.0031  0.1526  0.9770
  444MOL0     C61202   9.653  11.771   7.916 -0.0696 -0.7437  0.0966
  444MOL0     H61203   9.259  11.288   7.883 -1.2839  1.7809  1.0203
  444MOL0     H61204   9.279  11.045   7.962 -1.4914  0.3934 -0.2044
  444MOL0     H61205   9.429  10.884   8.030 -3.2524  2.3050 -1.7019
  444MOL0     H61206   9.267  10.836   8.085 -0.1734  0.9231 -1.0010
  444MOL0     H61207   9.462  10.656   8.152  1.5638  0.0692  0.0942
  444MOL0     H61208   9.516  10.780   8.266 -0.8153 -1.6444  2.1355
  444MOL0     H61209   9.395  10.587   8.352  6.2702  1.2473 -1.9149
  444MOL0     H61210   9.328  10.752   8.395 -0.9033 -0.8472  0.4150
  444MOL0     H61211   9.145  10.734   8.277  1.9520  0.6014  2.2570
  444MOL0     H61212   9.210  10.630   8.154 -1.0549  0.2862  0.1219
  444MOL0     H61213   9.213  10.423   8.331 -0.8914 -0.1682 -1.9403
  444MOL0     H61214   9.061  10.500   8.304  0.0256 -0.5064 -1.3594
  444MOL0     H61215   9.267  10.528   8.527  0.3993  1.0156  1.1758
  444MOL0     H61216   9.123  10.634   8.516  1.8251  1.8213 -5.2059
  444MOL0     H61217   9.072  10.466   8.674  1.7455  3.1227 -1.6953
  444MOL0     H61218   9.124  10.323   8.581 -1.8748 -0.6554 -0.0726
  444MOL0     H61219   8.895  10.497   8.522  1.2283  0.7441 -1.7351
  444MOL0     H61220   8.940  10.360   8.419 -1.7834 -1.7043 -0.4089
  444MOL0     H61221   8.724  10.202   8.458 -1.4431  0.8762 -0.3190
  444MOL0     H61222   8.733   9.920   8.579  1.5383  2.7150 -1.3000
  444MOL0     H61223   8.590  10.009   8.558  0.6180  0.0706 -0.3372
  444MOL0     H61224   8.630   9.988   8.850 -0.6130 -3.2867  2.8244
  444MOL0     H61225   8.503   9.930   8.731 -0.0703  0.1011  0.4905
  444MOL0     H61226   8.607   9.719   8.710 -2.8656 -2.8250  1.7494
  444MOL0     H61227   8.747   9.775   8.822  0.1873  2.5035 -0.1722
  444MOL0     H61228   8.619   9.762   9.001 -0.6548 -0.2206  0.5215
  444MOL0     H61229   8.459   9.762   8.901  1.1594  2.5011 -2.0656
  444MOL0     H61230   8.624   9.349   8.930 -0.9689  2.4465 -2.5917
  444MOL0     H61231   8.649   9.130   9.176  0.9840 -0.8022 -1.0479
  444MOL0     H61232   8.614   9.144   9.003  1.0955 -0.3390  0.6893
  444MOL0     H61233   8.486   9.083   9.119  1.4140 -1.5415  0.5311
  444MOL0     H61234   8.154   9.159   9.511  1.0203  2.7612 -1.6322
  444MOL0     H61235   8.166   9.041   9.739 -1.1252 -0.2942  1.0163
  444MOL0     H61236   8.465   9.273  10.018  0.2205  0.3784  0.4889
  444MOL0     H61237   8.336   9.200  10.124  1.6406 -1.7636  1.2297
  444MOL0     H61238   8.584   9.060  10.047  0.2437 -2.1113  1.7377
  444MOL0     H61239   8.557   9.150  10.197  1.3975 -2.8921  1.9207
  444MOL0     H61240   8.391   8.921  10.095  0.1918  1.8624 -2.2134
  444MOL0     H61241   8.345   9.019  10.228 -1.2543 -1.1860 -2.3675
  444MOL0     H61242   8.571   8.977  10.329 -2.7961  1.5792 -1.1573
  444MOL0     H61243   8.595   8.840  10.218  0.3429  0.7962  0.8660
  444MOL0     H61244   8.404   8.867  10.454  0.8740 -1.2206  1.7297
  444MOL0     H61245   8.356   8.762  10.320  0.6972  0.9997 -0.5443
  444MOL0     H61246   8.582   8.717  10.530 -1.6914 -1.5767  2.0110
  444MOL0     H61247   8.587   8.651  10.363  0.6491 -1.2247  0.4284
  444MOL0     H61248   8.370   8.526  10.435 -1.5676  2.8712 -1.5464
  444MOL0     H61249   8.349   8.652  10.554  0.2918 -0.3706 -0.5434
  444MOL0     H61250   8.388   8.454  10.667  0.1105  0.3648  0.7211
  444MOL0     H61251   8.529   8.557  10.690 -0.3353  0.5469  1.4420
  444MOL0     H61252   8.529   9.262   9.812 -1.6504  2.8007  0.9026
  444MOL0     H61253   8.517   9.358   9.598 -0.1831 -1.8296 -1.3450
  444MOL0     H61254   8.326   9.516   9.270  0.9426  0.4735  0.2348
  444MOL0     H61255   8.414   9.659   9.114 -0.1517 -0.3371 -1.4482
  444MOL0     H61256   9.417  11.181   8.332 -0.9765  1.5620  1.1123
  444MOL0     H61257   9.409  11.417   8.266  0.6242  0.0534  0.0397
  444MOL0     H61258   9.205  11.614   7.826 -0.4607 -0.9799 -1.5904
  444MOL0     H61259   9.161  11.807   7.690  0.5304 -0.3142 -0.3180
  444MOL0     H61260   9.317  12.151   7.824  2.2614 -1.0268  0.8353
  444MOL0     H61261   9.433  12.152   7.685 -0.2224 -1.3700 -0.5134
  444MOL0     H61262   9.290  12.353   7.688  0.5069 -1.2185  0.2353
  444MOL0     H61263   9.143  12.247   7.708 -1.7279  1.0024 -1.1244
  444MOL0     H61264   9.250  12.347   7.460  1.0320 -0.4530  1.2327
  444MOL0     H61265   9.308  12.180   7.458  0.0444  0.8608 -2.4774
  444MOL0     H61266   9.103  12.081   7.479  4.0269  0.0265  0.3415
  444MOL0     H61267   9.097  12.189   7.350 -1.3491 -0.4162  0.9946
  444MOL0     H61268   8.818  12.409   7.588 -0.6193 -0.0473  0.1391
  444MOL0     H61269   9.528  11.973   7.778  2.0631 -1.8908 -0.1523
  444MOL0     H61270   9.668  11.765   8.024  5.0271  1.2486 -0.2248
  444MOL0     H61271   9.712  11.692   7.869  3.7078  1.4895  0.7126
  444MOL0     H61272   9.707  11.865   7.896 -2.5317  1.1206  1.5757
  445MOL0     O61273   4.708   0.637   4.106  0.2670 -0.4407  0.2472
  445MOL0     C61274   4.825   0.603   4.096  0.1452 -0.6055  0.2257
  445MOL0     O61275   4.865   0.479   4.075  0.2995  0.7774  0.5207
  445MOL0     C61276   4.772   0.381   4.089  0.2369 -0.5913  0.2007
  445MOL0     C61277   4.694   0.366   4.203 -0.7444 -0.2912 -0.0343
  445MOL0     C61278   4.606   0.262   4.210 -0.1738  0.0806  0.7243
  445MOL0     C61279   4.597   0.158   4.117 -0.3757 -0.3452 -0.3372
  445MOL0     O61280   4.505   0.052   4.153  0.3280  0.0621  0.5061
  445MOL0     C61281   4.567  -0.075   4.142 -0.3189 -0.3879  0.4722
  445MOL0     C61282   4.463  -0.179   4.178  0.3083  0.0354  0.0045
  445MOL0     C61283   4.339  -0.180   4.080 -0.3535 -0.4578 -0.1929
  445MOL0     C61284   4.239  -0.279   4.136  0.1548  0.2548 -0.7226
  445MOL0     C61285   4.134  -0.305   4.028  0.0496 -0.0703  0.3293
  445MOL0     C61286   4.022  -0.403   4.067 -0.1648  0.7289 -0.5704
  445MOL0     C61287   3.959  -0.458   3.943 -1.1646 -0.3463  0.8544
  445MOL0     C61288   3.853  -0.560   3.983  0.1188  1.3621  0.3915
  445MOL0     N61289   3.807  -0.614   3.859  0.2705  0.2626  0.0387
  445MOL0     C61290   3.717  -0.554   3.777  0.5005  0.3020  0.1406
  445MOL0     C61291   3.699  -0.655   3.679  0.2341  0.2638 -0.1939
  445MOL0     C61292   3.618  -0.640   3.548  0.2452 -0.2480 -0.7284
  445MOL0     C61293   3.471  -0.609   3.584  0.8158 -0.2650  0.3217
  445MOL0     C61294   3.398  -0.722   3.657  0.0899  0.6258  1.5447
  445MOL0     C61295   3.253  -0.681   3.662  0.2515  0.0654 -0.7987
  445MOL0     O61296   3.183  -0.687   3.535 -0.9211  0.4189  0.2569
  445MOL0     C61297   3.058  -0.726   3.549  0.0481 -0.9711 -0.6479
  445MOL0     C61298   3.026  -0.854   3.584  0.1965 -0.1371 -1.1548
  445MOL0     C61299   2.890  -0.895   3.596  0.1595  0.5010 -0.8465
  445MOL0     C61300   2.856  -1.026   3.660 -0.1030 -0.4861  0.4168
  445MOL0     C61301   2.783  -0.810   3.542  0.3118  0.4405 -0.8757
  445MOL0     C61302   2.643  -0.843   3.542 -0.8864  0.3716 -0.2492
  445MOL0     O61303   2.565  -0.814   3.434  0.4359 -0.6381  0.5208
  445MOL0     C61304   2.427  -0.790   3.434 -1.1884 -0.2638  1.2799
  445MOL0     C61305   2.347  -0.742   3.539 -0.6716 -0.4640  0.1968
  445MOL0     C61306   2.216  -0.742   3.529 -0.4027 -0.5085 -0.4206
  445MOL0     C61307   2.154  -0.777   3.407  1.1441 -0.2467 -2.0405
  445MOL0     O61308   2.021  -0.787   3.397 -0.4282  0.0753  0.3253
  445MOL0     C61309   1.984  -0.914   3.441 -0.3416  0.9062  0.1916
  445MOL0     C61310   1.839  -0.932   3.433 -0.0724  0.8200 -0.3155
  445MOL0     C61311   1.793  -0.973   3.292  0.4252  0.6141 -0.5926
  445MOL0     C61312   1.641  -0.992   3.278 -0.5750 -0.1249 -0.1112
  445MOL0     C61313   1.596  -1.025   3.132  0.7708  0.3100  0.0777
  445MOL0     C61314   1.438  -1.066   3.137 -1.3667 -0.2095 -0.2331
  445MOL0     C61315   1.394  -1.104   2.996  0.8847 -0.3000 -0.0487
  445MOL0     C61316   1.247  -1.149   2.985 -0.3812  0.1957 -0.2344
  445MOL0    Cl61317   1.213  -1.277   3.099 -0.0656  0.2042 -0.4517
  445MOL0     C61318   2.231  -0.825   3.307  0.3550 -0.7705  0.3310
  445MOL0     C61319   2.369  -0.836   3.318  0.2441 -0.3363  0.2950
  445MOL0     O61320   2.598  -0.876   3.648  0.0076  0.4883 -0.9868
  445MOL0     C61321   2.825  -0.693   3.484 -0.3279  0.2880 -1.2983
  445MOL0     C61322   2.962  -0.650   3.493 -0.2962  0.7634  0.5853
  445MOL0     N61323   3.767  -0.762   3.716 -0.3760  0.1813  0.5558
  445MOL0     N61324   3.831  -0.743   3.829 -0.7003 -0.0536  0.7055
  445MOL0     C61325   4.675   0.168   4.001  0.4029 -0.4836  0.3242
  445MOL0     C61326   4.758   0.280   3.982 -0.3020 -0.2442 -0.0967
  445MOL0     C61327   4.924   0.707   4.087 -0.3364  0.7567 -0.1488
  445MOL0     C61328   4.891   0.834   4.136  0.8881 -0.2098  0.8461
  445MOL0     C61329   4.979   0.946   4.148  0.1477 -0.2298 -0.6494
  445MOL0     C61330   5.115   0.925   4.108 -0.4936 -0.0916 -0.0204
  445MOL0     O61331   5.208   1.025   4.109  0.7154 -0.5988 -0.1724
  445MOL0     C61332   5.225   1.082   4.242  0.2016  0.3609  0.7286
  445MOL0     C61333   5.208   1.234   4.243 -0.3136  0.3519  0.3499
  445MOL0     C61334   5.281   1.284   4.363 -0.4530 -0.2343 -0.8028
  445MOL0     C61335   5.293   1.441   4.345  0.2793  0.2704 -1.4379
  445MOL0     C61336   5.400   1.480   4.263 -0.3421 -0.5078  0.0397
  445MOL0     C61337   5.478   1.522   4.175  0.6206  1.0105  0.5644
  445MOL0     C61338   5.145   0.805   4.040 -0.3195 -0.5416 -0.2791
  445MOL0     C61339   5.057   0.698   4.033  0.3704  0.3889  0.3434
  445MOL0     C61340   5.111   0.570   3.967 -0.6430  0.1707  1.2193
  445MOL0     H61341   4.702   0.446   4.276 -1.3146 -1.7943  1.7375
  445MOL0     H61342   4.563   0.256   4.310  1.8125 -2.4144  1.5487
  445MOL0     H61343   4.658  -0.074   4.204 -1.0379  2.2099  1.6155
  445MOL0     H61344   4.601  -0.082   4.038 -0.5200  2.4276  0.1397
  445MOL0     H61345   4.506  -0.276   4.202 -0.5465 -0.1048  1.0531
  445MOL0     H61346   4.425  -0.155   4.278 -3.7264 -2.0423 -0.8085
  445MOL0     H61347   4.291  -0.082   4.089 -1.5808 -1.1031  0.5857
  445MOL0     H61348   4.379  -0.205   3.982 -0.4874 -1.0787 -0.0922
  445MOL0     H61349   4.294  -0.371   4.155  3.9622  2.4981  0.2655
  445MOL0     H61350   4.187  -0.241   4.224 -1.0942  0.2472 -1.4348
  445MOL0     H61351   4.184  -0.345   3.939 -2.1178 -0.3427 -0.8350
  445MOL0     H61352   4.094  -0.218   3.974 -2.9228 -2.0928 -1.0202
  445MOL0     H61353   4.079  -0.483   4.116 -0.0373  1.9651  1.4184
  445MOL0     H61354   3.960  -0.348   4.138  0.4818 -2.6350  3.0090
  445MOL0     H61355   4.044  -0.508   3.895  0.6825  0.1195  3.4320
  445MOL0     H61356   3.924  -0.382   3.872  0.7632  0.2918  0.5260
  445MOL0     H61357   3.898  -0.644   4.036 -0.2849 -1.5587 -3.4548
  445MOL0     H61358   3.773  -0.513   4.041  0.5136  1.0594  1.1989
  445MOL0     H61359   3.678  -0.453   3.772 -0.3270  0.1342  2.2188
  445MOL0     H61360   3.625  -0.736   3.495 -0.9601 -0.1757 -1.0694
  445MOL0     H61361   3.676  -0.578   3.479  0.9680 -0.6103 -0.4537
  445MOL0     H61362   3.457  -0.518   3.642 -5.7184 -0.0072 -0.9284
  445MOL0     H61363   3.425  -0.605   3.485 -3.2205 -0.5836  2.0086
  445MOL0     H61364   3.412  -0.817   3.604  0.5876  1.0559  0.8811
  445MOL0     H61365   3.427  -0.738   3.761 -0.9571  3.8860  2.4711
  445MOL0     H61366   3.205  -0.748   3.733 -0.2873 -1.0992 -2.2142
  445MOL0     H61367   3.245  -0.580   3.704  0.2559 -0.9280  1.7510
  445MOL0     H61368   3.106  -0.918   3.621 -0.4270 -0.8145 -0.9526
  445MOL0     H61369   2.771  -1.080   3.616  0.9747 -1.9702  0.0700
  445MOL0     H61370   2.826  -1.010   3.764 -0.9569  1.9088 -0.1232
  445MOL0     H61371   2.937  -1.100   3.658  1.7837  1.4730  0.9486
  445MOL0     H61372   2.381  -0.707   3.636 -0.8831  1.3119 -0.3246
  445MOL0     H61373   2.152  -0.711   3.611 -1.6040  1.2488 -1.9198
  445MOL0     H61374   2.045  -0.985   3.384 -1.1134  1.1511 -0.9785
  445MOL0     H61375   2.012  -0.940   3.544  1.0954  1.9420  0.0833
  445MOL0     H61376   1.811  -1.018   3.495 -3.6395 -0.6708 -3.5538
  445MOL0     H61377   1.785  -0.848   3.475  1.5799  2.3453 -1.1123
  445MOL0     H61378   1.849  -1.057   3.251 -0.0672  1.1741 -2.5297
  445MOL0     H61379   1.806  -0.893   3.218 -5.8280  0.5346 -2.3452
  445MOL0     H61380   1.592  -0.899   3.308 -0.7942 -0.1321 -0.4437
  445MOL0     H61381   1.610  -1.075   3.342 -0.8593 -0.5541 -0.7880
  445MOL0     H61382   1.616  -0.946   3.059  3.0055  0.3379  0.6272
  445MOL0     H61383   1.651  -1.112   3.094  1.5596  1.1127 -0.6674
  445MOL0     H61384   1.378  -0.989   3.186  0.1073 -0.5761  2.3638
  445MOL0     H61385   1.429  -1.155   3.200  1.2702 -0.4481 -0.0552
  445MOL0     H61386   1.446  -1.186   2.947 -4.1898 -2.4458 -2.6036
  445MOL0     H61387   1.390  -1.011   2.939  1.5038  0.0953  0.5344
  445MOL0     H61388   1.220  -1.170   2.882  1.1831  2.4771 -1.1910
  445MOL0     H61389   1.183  -1.065   3.014 -1.2893 -0.6832  0.3666
  445MOL0     H61390   2.185  -0.842   3.210  1.1101 -1.2133  0.0361
  445MOL0     H61391   2.412  -0.884   3.231  3.4441 -0.7586  1.9654
  445MOL0     H61392   2.754  -0.632   3.431 -2.1483  1.0452  1.7333
  445MOL0     H61393   2.986  -0.561   3.435 -1.0553 -1.2412 -3.1379
  445MOL0     H61394   4.661   0.095   3.922 -0.7059  1.5045 -1.4279
  445MOL0     H61395   4.829   0.285   3.900 -0.5915  0.1347 -0.3256
  445MOL0     H61396   4.788   0.842   4.170  0.6070  1.5612 -0.2867
  445MOL0     H61397   4.946   1.040   4.190  2.2340  0.0792  0.4437
  445MOL0     H61398   5.165   1.039   4.322  1.0987 -1.1994  0.6111
  445MOL0     H61399   5.331   1.068   4.268  1.2652  3.1690 -1.4712
  445MOL0     H61400   5.104   1.267   4.243  0.4694  3.6535  3.7791
  445MOL0     H61401   5.244   1.285   4.153 -2.4355  2.6034  0.6542
  445MOL0     H61402   5.223   1.266   4.454 -1.5747  2.9000 -0.7802
  445MOL0     H61403   5.386   1.252   4.365 -0.4564 -0.2155  0.6045
  445MOL0     H61404   5.302   1.482   4.446 -0.4137 -2.6350 -0.0667
  445MOL0     H61405   5.195   1.472   4.307  0.9596  0.6434 -2.9695
  445MOL0     H61406   5.548   1.557   4.101 -1.6194 -0.4350 -2.4388
  445MOL0     H61407   5.243   0.796   3.994  0.7700 -1.1883  2.0211
  445MOL0     H61408   5.142   0.496   4.042 -1.7104 -2.9648 -1.1797
  445MOL0     H61409   5.056   0.509   3.896  2.8942  0.8218 -2.4403
  445MOL0     H61410   5.200   0.585   3.906  0.5088 -4.6643  1.2546
  446MOL0     O61411   4.587   2.833   7.484 -0.8039  0.0215 -0.8790
  446MOL0     C61412   4.704   2.874   7.503 -0.9178 -0.5262 -0.6404
  446MOL0     O61413   4.741   2.969   7.592  0.0138  1.0430 -0.4966
  446MOL0     C61414   4.659   2.998   7.696 -0.0697 -0.5759  0.0089
  446MOL0     C61415   4.713   2.982   7.824  0.6860  0.4078 -0.2636
  446MOL0     C61416   4.645   3.036   7.930 -0.1479 -0.4838  0.0321
  446MOL0     C61417   4.545   3.137   7.902 -0.3736  0.4665 -0.1053
  446MOL0     O61418   4.498   3.226   7.994 -0.2847 -0.6702 -0.5588
  446MOL0     C61419   4.506   3.195   8.139 -1.0099 -0.2978  1.3633
  446MOL0     C61420   4.629   3.283   8.186  0.3359  0.1643  0.3667
  446MOL0     C61421   4.601   3.338   8.330 -0.0726  0.7824  0.1390
  446MOL0     C61422   4.722   3.414   8.372  0.0217 -0.0005 -0.1746
  446MOL0     C61423   4.698   3.481   8.505  1.2219 -0.2517 -0.0072
  446MOL0     C61424   4.607   3.603   8.505  0.3443 -0.8895  0.2463
  446MOL0     C61425   4.559   3.667   8.634 -0.9042 -0.5627 -0.2713
  446MOL0     C61426   4.682   3.762   8.674  0.5409  0.2140  0.0654
  446MOL0     N61427   4.652   3.852   8.787  0.9501  1.0327 -0.0770
  446MOL0     C61428   4.598   3.800   8.905  0.7698  0.2830  0.2997
  446MOL0     C61429   4.515   3.888   8.958 -0.0512 -1.2719  0.0323
  446MOL0     C61430   4.453   3.875   9.102 -0.4422 -0.1395  0.4148
  446MOL0     C61431   4.525   3.962   9.206 -0.1935 -0.4953  0.2772
  446MOL0     C61432   4.680   3.941   9.209 -0.9959 -0.2013 -0.7998
  446MOL0     C61433   4.729   3.816   9.287  0.0164 -0.9895 -0.2459
  446MOL0     O61434   4.656   3.797   9.414 -0.1892 -0.1793  0.9122
  446MOL0     C61435   4.684   3.699   9.501  0.5251 -0.2242  0.3072
  446MOL0     C61436   4.800   3.620   9.499  0.8515 -0.4562  0.8451
  446MOL0     C61437   4.834   3.533   9.605 -0.7436 -0.0804 -0.3049
  446MOL0     C61438   4.964   3.445   9.572  0.4836  0.0940 -0.0449
  446MOL0     C61439   4.752   3.540   9.722 -0.6467  1.0603 -0.2564
  446MOL0     C61440   4.778   3.471   9.848  0.1063  0.7698  0.0878
  446MOL0     O61441   4.828   3.345   9.832 -0.2243 -0.4878  0.3742
  446MOL0     C61442   4.846   3.267   9.942 -0.3864  0.3088 -0.0989
  446MOL0     C61443   4.965   3.290  10.009 -0.2325  0.3650 -0.0991
  446MOL0     C61444   4.990   3.227  10.129  0.1696  0.6483  0.3677
  446MOL0     C61445   4.905   3.123  10.178  0.1152  0.2915  0.4801
  446MOL0     O61446   4.953   3.036  10.275  0.0138  0.2500  0.5692
  446MOL0     C61447   4.895   3.046  10.404  0.2074  0.2208 -0.1271
  446MOL0     C61448   4.992   3.000  10.510 -0.0050  0.9966 -0.8323
  446MOL0     C61449   4.941   3.006  10.651 -0.5934 -1.3103 -1.1420
  446MOL0     C61450   4.840   2.899  10.693  0.0428 -0.1746 -0.2470
  446MOL0     C61451   4.904   2.761  10.693 -0.6692  0.2307  0.6928
  446MOL0     C61452   4.999   2.711  10.795 -0.4928 -0.0370 -0.5924
  446MOL0     C61453   4.942   2.719  10.942  0.5626  0.2877  1.0105
  446MOL0     C61454   5.056   2.690  11.042  0.5747 -0.5712 -0.1780
  446MOL0    Cl61455   5.065   2.826  11.170 -0.2464  0.3786 -0.2011
  446MOL0     C61456   4.790   3.106  10.109  0.3804 -0.2520  0.3339
  446MOL0     C61457   4.755   3.175   9.992  1.0600 -0.2140  0.0919
  446MOL0     O61458   4.753   3.527   9.955 -0.5539 -0.6851  0.4939
  446MOL0     C61459   4.640   3.613   9.724 -0.5593 -0.6375 -0.4154
  446MOL0     C61460   4.605   3.692   9.615 -1.1129  1.3223  0.7625
  446MOL0     N61461   4.526   4.003   8.888 -0.3105 -0.0820 -0.7683
  446MOL0     N61462   4.593   3.983   8.780 -1.5401  0.3605 -0.0770
  446MOL0     C61463   4.476   3.124   7.782  0.0553 -0.5920 -0.4755
  446MOL0     C61464   4.536   3.060   7.674  0.6326  0.7810  0.6676
  446MOL0     C61465   4.803   2.806   7.426 -0.7202 -0.5120  0.4749
  446MOL0     C61466   4.762   2.752   7.300  0.4159 -0.5741  0.3546
  446MOL0     C61467   4.848   2.695   7.207  0.2909  0.5877  0.9840
  446MOL0     C61468   4.982   2.659   7.247  0.5247 -0.1523 -0.6609
  446MOL0     O61469   5.063   2.577   7.174  1.1001  0.6014  0.4214
  446MOL0     C61470   5.027   2.566   7.032 -0.9442 -0.2707  0.7119
  446MOL0     C61471   5.130   2.487   6.953 -1.0742 -0.4993  0.3129
  446MOL0     C61472   5.076   2.410   6.833 -0.3133  0.3973  0.2949
  446MOL0     C61473   4.997   2.503   6.739 -0.9125 -0.7638 -1.0257
  446MOL0     C61474   5.074   2.624   6.699  0.1512  0.0294  0.7518
  446MOL0     C61475   5.123   2.733   6.670 -0.9268  0.5770 -0.3165
  446MOL0     C61476   5.025   2.713   7.369  0.8869 -1.1148  0.2553
  446MOL0     C61477   4.938   2.775   7.456 -0.3228 -0.0277  0.2324
  446MOL0     C61478   5.013   2.805   7.586  0.3500  1.0670 -0.5501
  446MOL0     H61479   4.804   2.924   7.838 -0.0773 -0.5588  0.8684
  446MOL0     H61480   4.677   3.005   8.029  1.8933 -1.2352 -0.7984
  446MOL0     H61481   4.527   3.090   8.163 -1.8453 -0.8114  0.0092
  446MOL0     H61482   4.414   3.238   8.181 -1.3277 -0.5113  0.8986
  446MOL0     H61483   4.717   3.218   8.185 -1.0353 -1.7752 -0.5829
  446MOL0     H61484   4.665   3.359   8.115  3.4524 -0.5513  1.0154
  446MOL0     H61485   4.506   3.393   8.326 -0.8158 -0.5231 -1.4268
  446MOL0     H61486   4.595   3.252   8.397  1.5037 -1.2714 -2.1456
  446MOL0     H61487   4.799   3.339   8.389  0.4638  0.4851  0.0034
  446MOL0     H61488   4.756   3.490   8.301 -1.9232  0.9935 -0.1440
  446MOL0     H61489   4.791   3.515   8.550 -0.0564  1.9934  1.1627
  446MOL0     H61490   4.653   3.401   8.564 -1.5288  1.4570  0.3941
  446MOL0     H61491   4.678   3.665   8.450  2.7671 -2.5250  1.3467
  446MOL0     H61492   4.520   3.582   8.441  1.4272  0.7250 -1.8579
  446MOL0     H61493   4.544   3.594   8.713 -0.2665  1.8252  2.2295
  446MOL0     H61494   4.473   3.735   8.623 -0.1322  0.5126  0.1259
  446MOL0     H61495   4.774   3.707   8.692  1.5234  1.3653 -1.2274
  446MOL0     H61496   4.694   3.827   8.586 -3.6404 -0.8921 -1.5818
  446MOL0     H61497   4.620   3.703   8.948  1.2001 -0.8698 -2.3001
  446MOL0     H61498   4.465   3.769   9.123  1.1086 -0.2873 -1.0477
  446MOL0     H61499   4.349   3.908   9.093 -0.9501 -1.9801 -0.9925
  446MOL0     H61500   4.505   4.068   9.188 -0.4240 -0.5179  0.3998
  446MOL0     H61501   4.477   3.941   9.302 -1.3168 -1.0559 -0.3831
  446MOL0     H61502   4.721   3.940   9.107  1.2980  4.3956 -0.2035
  446MOL0     H61503   4.721   4.033   9.251 -2.5032  0.5952 -1.0281
  446MOL0     H61504   4.710   3.731   9.221  1.3139  0.1919 -2.2544
  446MOL0     H61505   4.837   3.831   9.290 -0.2496  1.6305 -1.3449
  446MOL0     H61506   4.863   3.621   9.411  0.3182 -3.6191  0.3149
  446MOL0     H61507   4.937   3.349   9.526  3.0960 -0.5468 -0.3809
  446MOL0     H61508   5.020   3.427   9.664 -1.8376  1.5043  1.7478
  446MOL0     H61509   5.024   3.503   9.501 -0.6418  0.4469 -0.7347
  446MOL0     H61510   5.043   3.353   9.967  0.6952 -1.3710 -1.0685
  446MOL0     H61511   5.080   3.257  10.181  0.4094  0.3060  0.1557
  446MOL0     H61512   4.854   3.144  10.432 -0.5367  0.0939 -0.7462
  446MOL0     H61513   4.815   2.973  10.397 -1.5225  2.0357 -0.0710
  446MOL0     H61514   5.029   2.899  10.492  1.2618  1.0495  1.0863
  446MOL0     H61515   5.080   3.065  10.502  0.3428  0.7290  0.5424
  446MOL0     H61516   4.904   3.108  10.665 -1.5818 -1.7631 -0.2855
  446MOL0     H61517   5.031   3.014  10.714 -1.0262  4.6567 -0.6970
  446MOL0     H61518   4.746   2.885  10.640 -0.4175 -1.7725  0.9146
  446MOL0     H61519   4.804   2.933  10.791 -0.3874  4.7620 -1.8491
  446MOL0     H61520   4.822   2.691  10.676  0.2522 -0.1367 -3.2626
  446MOL0     H61521   4.951   2.743  10.596  0.2317  0.7734  1.0046
  446MOL0     H61522   5.088   2.774  10.799  0.4664 -1.3893  0.6031
  446MOL0     H61523   5.030   2.608  10.772 -0.2180 -0.1930  0.4612
  446MOL0     H61524   4.856   2.653  10.952 -0.3754  1.2456 -0.3384
  446MOL0     H61525   4.914   2.824  10.957 -3.0374 -0.5490  0.8986
  446MOL0     H61526   5.149   2.685  10.985 -0.4360 -2.6706 -1.7622
  446MOL0     H61527   5.034   2.594  11.091 -0.9540 -0.1805 -0.0559
  446MOL0     H61528   4.726   3.024  10.139 -1.0381  1.6763  2.9411
  446MOL0     H61529   4.658   3.163   9.945  1.6510 -1.1212 -0.9312
  446MOL0     H61530   4.570   3.617   9.807 -0.2326  0.6392 -0.1790
  446MOL0     H61531   4.508   3.741   9.612 -1.0005  1.4874 -0.5404
  446MOL0     H61532   4.385   3.181   7.768  0.1756 -0.2634  0.0800
  446MOL0     H61533   4.505   3.088   7.574  1.1964  3.6258  1.1908
  446MOL0     H61534   4.662   2.775   7.267  1.7908  2.2843 -2.3575
  446MOL0     H61535   4.807   2.662   7.112  0.1511  1.1053  0.8629
  446MOL0     H61536   4.930   2.516   7.025 -1.3570  0.4725  1.0705
  446MOL0     H61537   5.019   2.661   6.978 -3.8501 -2.2514 -2.8087
  446MOL0     H61538   5.173   2.417   7.026 -2.1061 -0.7617  0.6802
  446MOL0     H61539   5.211   2.557   6.930  1.3074 -2.6918  1.4442
  446MOL0     H61540   5.158   2.360   6.779  1.8485  2.4068  1.5492
  446MOL0     H61541   5.008   2.334   6.873 -0.4612 -0.0151 -0.7008
  446MOL0     H61542   4.906   2.524   6.796 -0.5260 -0.4644 -0.5164
  446MOL0     H61543   4.966   2.438   6.656  0.7742 -0.4752 -1.9176
  446MOL0     H61544   5.181   2.822   6.656 -1.2045  0.9748  0.8857
  446MOL0     H61545   5.127   2.687   7.398  1.6961 -0.4288 -1.7770
  446MOL0     H61546   5.103   2.743   7.592  1.3249  2.5606  1.2157
  446MOL0     H61547   5.056   2.906   7.583  3.3981 -0.1188 -2.0263
  446MOL0     H61548   4.950   2.811   7.675  0.4576  2.0294 -0.5314
  447MOL0     O61549   7.831   9.016   3.224  0.6683 -0.0375 -0.4317
  447MOL0     C61550   7.877   8.929   3.149  0.3087  0.3094 -0.5149
  447MOL0     O61551   7.826   8.878   3.040  0.3297 -0.1790  0.0675
  447MOL0     C61552   7.707   8.914   2.982  0.0421  0.1442  0.1430
  447MOL0     C61553   7.600   8.828   2.987  0.2658 -0.6169 -0.8312
  447MOL0     C61554   7.489   8.865   2.915  0.9977  0.2204 -0.7543
  447MOL0     C61555   7.469   8.979   2.842  0.4507  0.7675  0.2714
  447MOL0     O61556   7.353   9.004   2.778 -0.2110 -0.7355 -0.0434
  447MOL0     C61557   7.377   9.025   2.642 -0.2908 -0.1260  1.1359
  447MOL0     C61558   7.289   9.149   2.592 -0.5021  2.1770 -0.2663
  447MOL0     C61559   7.341   9.284   2.652  0.3015  0.5220  0.4445
  447MOL0     C61560   7.339   9.404   2.554 -1.0430 -0.1037  0.7898
  447MOL0     C61561   7.399   9.530   2.625 -0.6501 -0.4304  0.6335
  447MOL0     C61562   7.409   9.668   2.550  0.5895 -0.6335  0.4133
  447MOL0     C61563   7.268   9.716   2.512  0.3494 -0.3030 -0.4250
  447MOL0     C61564   7.272   9.837   2.414  0.0375  0.5253 -0.0538
  447MOL0     N61565   7.288   9.976   2.469  0.4941  0.6407 -0.2455
  447MOL0     C61566   7.215  10.050   2.557  0.2695  0.2116  0.0881
  447MOL0     C61567   7.288  10.173   2.575 -0.0427  0.9908 -0.3420
  447MOL0     C61568   7.262  10.280   2.681 -0.3480 -0.1247  0.6471
  447MOL0     C61569   7.391  10.317   2.758  0.4599  0.2132  0.3327
  447MOL0     C61570   7.363  10.341   2.905 -0.4977  0.2929 -0.1227
  447MOL0     C61571   7.273  10.470   2.931 -0.1351 -0.0631 -0.8269
  447MOL0     O61572   7.354  10.589   2.917 -0.0872  0.1575 -0.4752
  447MOL0     C61573   7.309  10.697   2.983  0.5133  0.8263 -0.4427
  447MOL0     C61574   7.397  10.799   3.006  0.4296  0.2012 -0.2834
  447MOL0     C61575   7.365  10.906   3.088 -0.3430 -1.1360  0.1017
  447MOL0     C61576   7.484  10.998   3.109 -0.2559 -0.5328  0.0058
  447MOL0     C61577   7.228  10.941   3.128  0.2007 -0.2029  0.4987
  447MOL0     C61578   7.181  11.074   3.174  0.2809 -0.3065 -0.2395
  447MOL0     O61579   7.274  11.180   3.182 -0.8893  0.6491  0.3264
  447MOL0     C61580   7.230  11.312   3.195  0.2649  0.3154  1.4015
  447MOL0     C61581   7.271  11.399   3.305  0.4654 -0.7311  0.4600
  447MOL0     C61582   7.231  11.536   3.317 -0.3696  0.6114  0.4560
  447MOL0     C61583   7.165  11.593   3.208 -0.1977  0.1219 -0.3328
  447MOL0     O61584   7.151  11.735   3.194 -0.4800 -0.4812 -0.0591
  447MOL0     C61585   7.034  11.800   3.131  0.2582  0.2003  0.3178
  447MOL0     C61586   6.895  11.744   3.177 -0.1481  0.0193 -0.4585
  447MOL0     C61587   6.773  11.843   3.169  0.5871 -0.3800  1.0690
  447MOL0     C61588   6.636  11.794   3.232  0.7782  0.2464  0.3463
  447MOL0     C61589   6.513  11.885   3.219  0.2463  0.3249 -0.7888
  447MOL0     C61590   6.437  11.917   3.351  0.0017  0.6272  0.0117
  447MOL0     C61591   6.345  12.040   3.316  0.4636 -0.5439 -0.0208
  447MOL0     C61592   6.244  12.056   3.426  0.0667 -0.0254 -0.2382
  447MOL0    Cl61593   6.123  12.174   3.385  0.0344  0.1007 -0.4630
  447MOL0     C61594   7.144  11.514   3.095 -0.3636  0.5207 -0.2174
  447MOL0     C61595   7.182  11.377   3.081  0.2876  0.4498 -0.5953
  447MOL0     O61596   7.053  11.090   3.187 -0.1937  0.0383  0.3455
  447MOL0     C61597   7.144  10.827   3.106  0.1090  0.1484 -0.6449
  447MOL0     C61598   7.177  10.711   3.035  0.0276  1.1021  0.0748
  447MOL0     N61599   7.398  10.165   2.494  0.8046  0.1971  0.8210
  447MOL0     N61600   7.394  10.051   2.434  0.5526  0.1110 -0.7978
  447MOL0     C61601   7.583   9.061   2.835 -0.2667 -1.1352 -0.1011
  447MOL0     C61602   7.695   9.034   2.915 -0.2066  0.8835  0.6233
  447MOL0     C61603   8.006   8.875   3.196  0.4692 -0.6306 -0.0518
  447MOL0     C61604   8.047   8.755   3.137 -0.0532  0.2540  0.3021
  447MOL0     C61605   8.174   8.699   3.168 -0.1054  0.5193 -0.0990
  447MOL0     C61606   8.268   8.765   3.244 -0.0899  0.4643 -0.3544
  447MOL0     O61607   8.383   8.700   3.258  1.2552  0.2830 -0.0247
  447MOL0     C61608   8.445   8.695   3.388 -0.7244 -0.1012 -0.3735
  447MOL0     C61609   8.562   8.585   3.394  0.0737 -0.0987 -0.1413
  447MOL0     C61610   8.605   8.564   3.540 -0.3614  0.4866 -0.0477
  447MOL0     C61611   8.750   8.513   3.545 -0.1160  0.2713  0.1287
  447MOL0     C61612   8.781   8.480   3.681  0.6051 -0.2735  0.8938
  447MOL0     C61613   8.817   8.458   3.788 -0.5293  0.3602  0.4561
  447MOL0     C61614   8.226   8.881   3.316  0.2282  0.6940  0.0879
  447MOL0     C61615   8.095   8.939   3.295 -0.3619  0.2827  0.2705
  447MOL0     C61616   8.085   9.074   3.365 -0.9159  0.6239  0.2819
  447MOL0     H61617   7.597   8.736   3.045 -1.4220 -0.3096 -0.3604
  447MOL0     H61618   7.396   8.809   2.920  0.8698  0.4336 -0.7320
  447MOL0     H61619   7.343   8.934   2.591  1.8871 -0.0245 -0.6353
  447MOL0     H61620   7.479   9.043   2.608 -1.4658  1.1254 -2.1470
  447MOL0     H61621   7.307   9.138   2.485  1.4764 -0.3952  0.2356
  447MOL0     H61622   7.183   9.140   2.617 -0.7182  2.6317 -0.9746
  447MOL0     H61623   7.283   9.318   2.738  2.2410  2.6696  1.0170
  447MOL0     H61624   7.443   9.268   2.689 -0.5010 -4.4205  1.1320
  447MOL0     H61625   7.386   9.390   2.456 -3.2586  1.3814 -0.5885
  447MOL0     H61626   7.235   9.408   2.519  0.0383  3.4228 -2.7876
  447MOL0     H61627   7.503   9.512   2.653 -0.2582  2.0962  1.0426
  447MOL0     H61628   7.342   9.547   2.717 -0.7426  1.0656  0.3275
  447MOL0     H61629   7.466   9.748   2.599 -1.2702  0.0607  1.5481
  447MOL0     H61630   7.457   9.651   2.454 -0.3225  3.3936 -0.9745
  447MOL0     H61631   7.217   9.749   2.603  0.6361  1.9051 -1.0162
  447MOL0     H61632   7.214   9.635   2.462 -0.8963 -0.5870  1.3018
  447MOL0     H61633   7.353   9.824   2.341  1.2334  2.6284  0.7946
  447MOL0     H61634   7.175   9.843   2.364 -0.8242  3.4201  1.7036
  447MOL0     H61635   7.128  10.015   2.611  1.1683 -0.2820  1.2616
  447MOL0     H61636   7.188  10.241   2.751 -0.1679 -1.7799 -0.0399
  447MOL0     H61637   7.214  10.359   2.622 -2.2392 -1.4939  0.2730
  447MOL0     H61638   7.469  10.241   2.750  1.6783  1.6016 -3.1553
  447MOL0     H61639   7.437  10.409   2.719 -0.6098  0.9306  0.7153
  447MOL0     H61640   7.301  10.262   2.949  0.1563 -3.4401 -5.0122
  447MOL0     H61641   7.460  10.350   2.955 -0.3365  0.6800 -0.4986
  447MOL0     H61642   7.176  10.476   2.881 -0.3760  4.3963 -0.2102
  447MOL0     H61643   7.236  10.458   3.033  0.5371 -1.7472 -0.7461
  447MOL0     H61644   7.498  10.779   2.973  0.0467  0.4144 -1.6806
  447MOL0     H61645   7.581  10.948   3.103 -0.2129 -0.7097  1.7119
  447MOL0     H61646   7.488  11.037   3.211  1.0307 -3.1693  1.0620
  447MOL0     H61647   7.487  11.075   3.030  0.8236  1.0107  1.4801
  447MOL0     H61648   7.328  11.351   3.383  1.2435 -0.1932  0.2395
  447MOL0     H61649   7.246  11.587   3.412  1.0954  0.6750  0.2112
  447MOL0     H61650   7.034  11.908   3.149  0.2063  0.5936 -1.7891
  447MOL0     H61651   7.042  11.779   3.024  1.7742 -1.0874  0.6503
  447MOL0     H61652   6.876  11.647   3.131  4.2897 -1.5420  0.5109
  447MOL0     H61653   6.911  11.724   3.284  0.8655  0.9804 -0.4062
  447MOL0     H61654   6.755  11.861   3.063 -1.7598  0.1614  1.4899
  447MOL0     H61655   6.805  11.937   3.215  0.2410  2.2728 -3.5594
  447MOL0     H61656   6.653  11.778   3.339 -2.7862  1.6267  1.2641
  447MOL0     H61657   6.606  11.698   3.189  1.3477  0.3791 -0.3665
  447MOL0     H61658   6.533  11.975   3.160  3.7689 -0.2496 -0.6618
  447MOL0     H61659   6.440  11.825   3.163  0.7383 -0.8454 -0.2061
  447MOL0     H61660   6.519  11.949   3.416 -0.7876  1.9919  0.3775
  447MOL0     H61661   6.385  11.835   3.402 -3.3406  1.6035 -1.5941
  447MOL0     H61662   6.292  12.019   3.224 -0.7552 -0.8085  0.7196
  447MOL0     H61663   6.406  12.131   3.310 -0.6811  0.4642  2.2714
  447MOL0     H61664   6.300  12.101   3.508  2.8071 -2.3516 -0.6793
  447MOL0     H61665   6.195  11.963   3.455 -0.5597  0.2177 -0.4898
  447MOL0     H61666   7.096  11.567   3.013 -0.9019 -0.5097 -0.5824
  447MOL0     H61667   7.163  11.316   2.993  0.1748 -0.5506  0.1056
  447MOL0     H61668   7.043  10.833   3.146 -0.2850  2.3709 -1.8198
  447MOL0     H61669   7.102  10.632   3.039  1.2282 -0.0927 -0.3512
  447MOL0     H61670   7.578   9.156   2.782 -0.2855 -1.3775 -0.5358
  447MOL0     H61671   7.781   9.100   2.909  0.3561  0.0031 -3.0047
  447MOL0     H61672   7.994   8.705   3.057 -1.3717  0.3320  1.0969
  447MOL0     H61673   8.197   8.600   3.130  0.4076  0.5045  0.2515
  447MOL0     H61674   8.493   8.791   3.409  1.4521 -0.6443 -2.3980
  447MOL0     H61675   8.368   8.674   3.462 -1.3596 -1.4594 -1.3854
  447MOL0     H61676   8.641   8.609   3.322 -0.8784  1.6667 -0.6615
  447MOL0     H61677   8.518   8.488   3.368 -0.2993 -1.0042  3.3433
  447MOL0     H61678   8.598   8.646   3.612 -0.5312  0.8879 -0.5201
  447MOL0     H61679   8.539   8.489   3.584 -0.9845 -0.1442 -1.9683
  447MOL0     H61680   8.825   8.588   3.519 -0.1456 -0.1848 -1.4096
  447MOL0     H61681   8.758   8.427   3.478  0.3436  0.7270 -0.4082
  447MOL0     H61682   8.871   8.429   3.876  2.1143  0.0319 -1.1554
  447MOL0     H61683   8.302   8.924   3.381 -0.6749 -0.0514  1.7098
  447MOL0     H61684   8.080   9.158   3.296 -1.4303 -0.7632 -1.4422
  447MOL0     H61685   7.998   9.076   3.432 -1.7090 -0.3171 -0.6728
  447MOL0     H61686   8.176   9.095   3.421 -0.3183  1.8677 -1.0961
  448MOL0     O61687   5.048   5.885   2.617  0.2737  0.0444  0.7382
  448MOL0     C61688   5.143   5.874   2.536  0.3848  0.6308 -0.9434
  448MOL0     O61689   5.148   5.780   2.444  0.2491  0.1458 -0.0629
  448MOL0     C61690   5.080   5.665   2.459  0.0674  0.0108  1.4577
  448MOL0     C61691   5.001   5.650   2.338 -0.4757 -0.2745 -0.0167
  448MOL0     C61692   4.926   5.537   2.312 -0.5262 -0.7583  0.6245
  448MOL0     C61693   4.903   5.460   2.426  0.6483  0.1456 -1.2695
  448MOL0     O61694   4.811   5.363   2.431  0.0802  0.1911 -0.7124
  448MOL0     C61695   4.736   5.325   2.318 -0.6059  0.0383 -0.1847
  448MOL0     C61696   4.653   5.205   2.322 -0.2386 -0.7021  0.6875
  448MOL0     C61697   4.529   5.226   2.406 -0.3275  0.2255 -0.1455
  448MOL0     C61698   4.449   5.092   2.404 -0.6583 -0.6979 -0.1667
  448MOL0     C61699   4.310   5.097   2.461 -0.0756  0.3068 -0.8112
  448MOL0     C61700   4.209   4.975   2.421 -0.2280 -0.0063  0.0019
  448MOL0     C61701   4.222   4.844   2.489 -0.9170  0.2365 -0.4241
  448MOL0     C61702   4.132   4.840   2.614 -0.1310 -0.0426 -0.5233
  448MOL0     N61703   4.083   4.707   2.625 -0.1032  0.4531 -1.0057
  448MOL0     C61704   4.167   4.592   2.631  0.5804  0.3029 -0.0120
  448MOL0     C61705   4.074   4.494   2.634 -0.6192 -0.2509 -0.6454
  448MOL0     C61706   4.105   4.341   2.651 -0.4320 -0.3103  0.1215
  448MOL0     C61707   4.192   4.288   2.540 -0.1219  0.1891  0.6893
  448MOL0     C61708   4.204   4.133   2.558 -0.2189  0.5744 -0.0968
  448MOL0     C61709   4.104   4.054   2.489  0.4829 -0.6620  0.0764
  448MOL0     O61710   4.105   4.090   2.345 -0.2337  0.0619 -0.1028
  448MOL0     C61711   4.113   3.978   2.264  0.3733 -1.1585  0.1363
  448MOL0     C61712   4.043   3.853   2.267 -0.4437  0.7368 -0.0177
  448MOL0     C61713   4.061   3.764   2.162 -0.1873 -0.3956  0.2951
  448MOL0     C61714   4.003   3.632   2.173  1.0370  0.5677  0.7521
  448MOL0     C61715   4.137   3.793   2.051  0.4274  0.0027  0.2019
  448MOL0     C61716   4.165   3.689   1.932 -1.2631 -0.0976 -0.0624
  448MOL0     O61717   4.295   3.685   1.902 -0.1857  0.4437 -0.4993
  448MOL0     C61718   4.321   3.603   1.795  0.0666  0.1492 -0.3999
  448MOL0     C61719   4.357   3.475   1.809 -1.0381 -0.5735  0.3812
  448MOL0     C61720   4.380   3.397   1.691 -0.0707  0.0848 -0.4768
  448MOL0     C61721   4.333   3.444   1.567 -0.5023 -0.8111 -0.0852
  448MOL0     O61722   4.342   3.362   1.453 -0.3495 -0.1531 -1.4296
  448MOL0     C61723   4.374   3.428   1.326  0.2502  0.0857 -0.7916
  448MOL0     C61724   4.370   3.327   1.206  0.0978  0.2748 -0.3943
  448MOL0     C61725   4.376   3.392   1.058 -0.2829  0.1276  0.1172
  448MOL0     C61726   4.526   3.427   1.017 -0.1323  0.2789  0.7643
  448MOL0     C61727   4.540   3.474   0.865 -0.2177 -0.9639  0.0235
  448MOL0     C61728   4.447   3.590   0.834 -0.2134 -0.2869  0.3420
  448MOL0     C61729   4.481   3.660   0.702  0.7590 -0.1426 -0.3460
  448MOL0     C61730   4.388   3.782   0.671  0.2640  0.3410  0.4104
  448MOL0    Cl61731   4.219   3.720   0.649 -0.0454 -0.0603 -0.6986
  448MOL0     C61732   4.300   3.579   1.554  0.0362  0.1888  0.3224
  448MOL0     C61733   4.286   3.654   1.665 -0.4124  0.8665 -0.9240
  448MOL0     O61734   4.074   3.619   1.897  0.2119  0.3172 -0.5720
  448MOL0     C61735   4.209   3.910   2.053  0.1454  0.6056  0.0626
  448MOL0     C61736   4.196   3.999   2.156 -0.5841 -1.0548  0.0010
  448MOL0     N61737   3.945   4.541   2.638 -0.1817  0.7002 -0.2196
  448MOL0     N61738   3.953   4.663   2.620  0.4550 -0.0557 -0.4792
  448MOL0     C61739   4.978   5.470   2.554  0.4368 -0.5179 -0.0119
  448MOL0     C61740   5.072   5.567   2.564 -0.3703 -0.1507 -0.3826
  448MOL0     C61741   5.247   5.990   2.535  0.6436  0.5566 -0.3129
  448MOL0     C61742   5.202   6.106   2.592  0.3250  0.1623 -0.7375
  448MOL0     C61743   5.290   6.214   2.622  0.2896  0.7986  0.4012
  448MOL0     C61744   5.421   6.203   2.576 -0.1369  0.6023  0.3251
  448MOL0     O61745   5.493   6.318   2.561 -0.9943  0.2671 -0.8954
  448MOL0     C61746   5.620   6.327   2.492 -0.3600  0.5260  0.0108
  448MOL0     C61747   5.751   6.263   2.558 -0.1435 -0.0341 -0.5749
  448MOL0     C61748   5.777   6.324   2.690 -0.9610 -0.7050  0.5590
  448MOL0     C61749   5.907   6.269   2.753  1.0141  0.3177 -0.0409
  448MOL0     C61750   6.025   6.319   2.688  0.0548 -0.0317 -0.0238
  448MOL0     C61751   6.121   6.365   2.629  0.0231 -0.8479  0.2435
  448MOL0     C61752   5.464   6.075   2.524  0.4672  0.0281  0.0001
  448MOL0     C61753   5.381   5.972   2.494  0.5980 -0.1103 -0.3263
  448MOL0     C61754   5.435   5.847   2.416  0.3107 -0.0662 -0.0976
  448MOL0     H61755   5.005   5.731   2.267  1.7538  0.8357  1.2585
  448MOL0     H61756   4.864   5.549   2.224  1.0066 -1.3881 -0.5850
  448MOL0     H61757   4.814   5.323   2.241 -1.0702 -3.1691 -0.6967
  448MOL0     H61758   4.670   5.409   2.295 -0.7167 -0.2331 -0.8726
  448MOL0     H61759   4.618   5.173   2.223 -2.7511 -2.3758  2.0199
  448MOL0     H61760   4.709   5.117   2.354  1.2740 -0.7761 -1.8384
  448MOL0     H61761   4.563   5.232   2.510  1.6590  0.0829 -0.7394
  448MOL0     H61762   4.473   5.314   2.373  1.1485  0.1793 -3.0223
  448MOL0     H61763   4.446   5.056   2.301  0.2361 -0.6050 -0.2379
  448MOL0     H61764   4.508   5.009   2.444 -0.5197 -0.4839  0.0709
  448MOL0     H61765   4.267   5.194   2.435 -0.8544  1.0064  2.5945
  448MOL0     H61766   4.314   5.107   2.570  4.1316 -0.3357 -0.7169
  448MOL0     H61767   4.108   5.015   2.440  0.4113  0.8701  1.8543
  448MOL0     H61768   4.225   4.947   2.317  1.3299  2.0006 -0.3398
  448MOL0     H61769   4.328   4.828   2.512  0.0850  4.0100 -1.7225
  448MOL0     H61770   4.200   4.768   2.414 -1.8969  0.3285 -0.2383
  448MOL0     H61771   4.181   4.884   2.702 -1.0428 -2.2571  1.1824
  448MOL0     H61772   4.040   4.896   2.594  0.1040  0.4030 -0.3910
  448MOL0     H61773   4.275   4.586   2.622  1.2420  4.2791  2.4503
  448MOL0     H61774   4.015   4.281   2.667  0.1645 -0.7408  2.1109
  448MOL0     H61775   4.166   4.317   2.739 -1.8823  0.5587  1.4299
  448MOL0     H61776   4.147   4.314   2.444  1.2851  3.7017  0.8635
  448MOL0     H61777   4.285   4.345   2.552  0.2413  2.2110 -6.7021
  448MOL0     H61778   4.303   4.103   2.522 -0.1109 -0.3527  0.9153
  448MOL0     H61779   4.199   4.100   2.662 -2.2403  1.2313  0.0539
  448MOL0     H61780   4.120   3.950   2.518 -0.0182 -0.6920  0.2591
  448MOL0     H61781   4.005   4.075   2.529  0.3671 -1.7295  0.3892
  448MOL0     H61782   3.993   3.824   2.359  2.6767 -0.4556  1.4794
  448MOL0     H61783   4.064   3.547   2.138  0.8482  0.2175  1.2593
  448MOL0     H61784   3.910   3.629   2.117  1.0625  0.4581  0.7151
  448MOL0     H61785   3.977   3.607   2.277  0.3616  1.6655  0.8520
  448MOL0     H61786   4.386   3.446   1.909 -0.8702 -2.4328 -0.1591
  448MOL0     H61787   4.426   3.299   1.696 -1.2479 -0.4733 -0.2378
  448MOL0     H61788   4.299   3.501   1.296 -0.8043 -1.1600 -1.2465
  448MOL0     H61789   4.479   3.460   1.324  0.7480 -1.3276  0.2973
  448MOL0     H61790   4.436   3.240   1.209  1.6305  1.2253 -3.3149
  448MOL0     H61791   4.271   3.280   1.211  0.2527 -0.0393 -0.2712
  448MOL0     H61792   4.326   3.489   1.051  1.0630  0.7626 -1.3992
  448MOL0     H61793   4.343   3.321   0.982  0.9169 -1.5145  1.0518
  448MOL0     H61794   4.585   3.335   1.019  1.1828  0.8205 -3.3195
  448MOL0     H61795   4.568   3.502   1.085  0.5396 -2.4102  3.5001
  448MOL0     H61796   4.642   3.504   0.840 -0.3257 -1.1431 -0.6450
  448MOL0     H61797   4.515   3.395   0.794  0.2106 -0.5487 -0.5980
  448MOL0     H61798   4.458   3.653   0.923  1.5309  0.6795 -0.5101
  448MOL0     H61799   4.344   3.554   0.827 -1.0938  2.2090 -0.9198
  448MOL0     H61800   4.476   3.581   0.628 -1.2892 -0.4309  0.0637
  448MOL0     H61801   4.586   3.692   0.704  1.1358 -1.1839 -2.0539
  448MOL0     H61802   4.423   3.838   0.584  2.5688 -0.4684  0.7237
  448MOL0     H61803   4.409   3.859   0.747  0.2882  1.6599 -0.8982
  448MOL0     H61804   4.276   3.629   1.461  0.0775  1.5468  1.0120
  448MOL0     H61805   4.247   3.754   1.650 -4.3711 -0.3259  0.2695
  448MOL0     H61806   4.261   3.939   1.962  0.7962  3.3840  1.1967
  448MOL0     H61807   4.261   4.085   2.144 -0.5692 -1.1662 -0.7408
  448MOL0     H61808   4.962   5.408   2.643 -1.0771  1.9232  1.5320
  448MOL0     H61809   5.131   5.579   2.654 -1.5730  0.4233  0.3404
  448MOL0     H61810   5.101   6.105   2.632 -0.3464 -2.7837 -2.2292
  448MOL0     H61811   5.246   6.290   2.686 -0.7915 -1.4089  2.4442
  448MOL0     H61812   5.594   6.290   2.393 -1.0570  0.7818  0.0918
  448MOL0     H61813   5.633   6.434   2.477 -1.1718  0.5399 -0.6492
  448MOL0     H61814   5.841   6.277   2.497  0.2028 -0.0748 -0.0780
  448MOL0     H61815   5.734   6.157   2.576 -0.0890 -1.0783 -5.3598
  448MOL0     H61816   5.783   6.433   2.683 -0.0263 -0.8094 -0.5970
  448MOL0     H61817   5.696   6.287   2.753 -1.4545 -1.5222 -0.5214
  448MOL0     H61818   5.901   6.160   2.759 -0.9886  0.2281 -2.1449
  448MOL0     H61819   5.901   6.293   2.860  2.8359 -4.0714  1.2828
  448MOL0     H61820   6.207   6.398   2.574 -0.1163 -2.6703 -1.1350
  448MOL0     H61821   5.566   6.068   2.489  0.3523  0.6952 -0.4882
  448MOL0     H61822   5.540   5.854   2.387  0.9680  3.1841  2.5098
  448MOL0     H61823   5.421   5.759   2.480  0.9476 -0.7565 -0.8833
  448MOL0     H61824   5.371   5.830   2.329 -0.1453 -2.9204  0.6979
  449MOL0     O61825   2.573   1.975   4.826 -0.2667  0.1580  0.1743
  449MOL0     C61826   2.641   1.875   4.843  0.1791  0.6745  0.3340
  449MOL0     O61827   2.697   1.802   4.740  0.0784  0.4142 -0.2351
  449MOL0     C61828   2.637   1.780   4.624 -0.0550 -0.2061  0.2370
  449MOL0     C61829   2.571   1.658   4.601 -0.3053 -0.2818  1.6268
  449MOL0     C61830   2.518   1.628   4.473 -0.5627 -0.4359  0.0731
  449MOL0     C61831   2.518   1.726   4.379  0.3745 -0.5920  0.6590
  449MOL0     O61832   2.463   1.725   4.249  0.6832  1.0500 -0.6604
  449MOL0     C61833   2.416   1.591   4.211 -0.0584 -0.4902 -0.1174
  449MOL0     C61834   2.363   1.592   4.074 -0.7963 -0.4754 -0.2125
  449MOL0     C61835   2.482   1.603   3.968  0.5820  0.4497 -0.6258
  449MOL0     C61836   2.511   1.744   3.933  0.0118 -0.1577 -0.0286
  449MOL0     C61837   2.558   1.774   3.790  0.2273 -0.5984 -0.2840
  449MOL0     C61838   2.448   1.734   3.687  0.9895  0.4561 -0.0920
  449MOL0     C61839   2.499   1.771   3.551 -0.3904 -0.0631 -0.2665
  449MOL0     C61840   2.388   1.732   3.453  0.4137  0.3739  0.5991
  449MOL0     N61841   2.452   1.735   3.324  0.2112  0.4768 -0.1264
  449MOL0     C61842   2.477   1.848   3.255  0.5132 -0.1795 -0.3437
  449MOL0     C61843   2.491   1.812   3.129  0.8609  0.5342 -0.3089
  449MOL0     C61844   2.513   1.903   3.008  0.7008 -0.4344  0.3195
  449MOL0     C61845   2.382   1.902   2.930  0.5362 -0.7974  0.4776
  449MOL0     C61846   2.392   2.003   2.817 -0.0317 -1.0381  0.7115
  449MOL0     C61847   2.291   1.988   2.711  0.4219  0.1469  1.1774
  449MOL0     O61848   2.158   1.962   2.774  0.2276 -0.1867 -0.2155
  449MOL0     C61849   2.059   1.934   2.680  0.4656  0.5754 -0.2125
  449MOL0     C61850   2.052   2.018   2.560  0.5820  0.4690  0.0018
  449MOL0     C61851   1.971   1.962   2.464 -0.4213  0.1432 -1.3758
  449MOL0     C61852   1.970   2.040   2.334 -0.0657 -0.2223  0.7719
  449MOL0     C61853   1.886   1.848   2.493  0.1151 -0.8106 -0.5020
  449MOL0     C61854   1.803   1.787   2.388 -0.1152 -0.7222  0.0263
  449MOL0     O61855   1.841   1.780   2.261  0.1360 -0.5636  0.4787
  449MOL0     C61856   1.781   1.705   2.159 -0.7910 -0.4736 -0.9122
  449MOL0     C61857   1.672   1.620   2.166 -0.1835  0.2705 -0.4857
  449MOL0     C61858   1.620   1.546   2.057  0.6523 -0.1666  0.8100
  449MOL0     C61859   1.697   1.544   1.932 -0.9157 -0.4621  0.4375
  449MOL0     O61860   1.680   1.456   1.826 -0.6097 -0.5205 -0.0245
  449MOL0     C61861   1.594   1.340   1.861 -0.2883  0.2956 -1.1223
  449MOL0     C61862   1.553   1.267   1.735  0.1383 -0.5734 -0.2847
  449MOL0     C61863   1.396   1.285   1.697 -0.0884 -0.2590  0.4239
  449MOL0     C61864   1.349   1.183   1.596  0.0020 -0.2033 -0.6737
  449MOL0     C61865   1.218   1.214   1.534  0.4507  0.6757 -0.1630
  449MOL0     C61866   1.233   1.315   1.417  0.8600 -0.3553  0.8801
  449MOL0     C61867   1.084   1.321   1.356  0.0221 -0.1093 -0.7211
  449MOL0     C61868   1.088   1.424   1.250 -0.7191  0.1858  0.0484
  449MOL0    Cl61869   1.125   1.582   1.298  0.1428  0.4557 -0.4547
  449MOL0     C61870   1.813   1.623   1.935  0.5112  0.2751 -0.3117
  449MOL0     C61871   1.853   1.705   2.040  0.0865  0.1773 -0.1645
  449MOL0     O61872   1.698   1.734   2.426 -0.1478 -0.4678  0.1552
  449MOL0     C61873   1.887   1.780   2.611  0.1075 -0.3702  0.4695
  449MOL0     C61874   1.984   1.822   2.696  0.1935  0.5647  0.1190
  449MOL0     N61875   2.494   1.675   3.129  0.6618 -0.5194 -0.1277
  449MOL0     N61876   2.475   1.630   3.244  0.2364  0.7769  0.3337
  449MOL0     C61877   2.583   1.845   4.404  0.3991  0.2914  0.2975
  449MOL0     C61878   2.643   1.876   4.525  0.6568  0.2574 -0.5611
  449MOL0     C61879   2.690   1.835   4.984  0.4804  0.3773  1.1039
  449MOL0     C61880   2.742   1.710   5.004  0.7024 -0.3863  0.5987
  449MOL0     C61881   2.774   1.664   5.127  0.7853 -0.3071 -0.4242
  449MOL0     C61882   2.775   1.738   5.245 -0.4685  0.4479  0.9613
  449MOL0     O61883   2.819   1.712   5.378 -0.9655  0.1647  0.5136
  449MOL0     C61884   2.830   1.572   5.420  0.2852 -0.5475  0.6608
  449MOL0     C61885   2.886   1.552   5.560 -0.4710 -0.2099  0.3631
  449MOL0     C61886   2.803   1.644   5.663  0.3493  0.3467  0.4719
  449MOL0     C61887   2.835   1.605   5.810  0.7724 -0.6052 -0.4451
  449MOL0     C61888   2.964   1.652   5.852  0.3383 -0.3453  0.5504
  449MOL0     C61889   3.061   1.717   5.889 -0.2227  0.2814 -0.0678
  449MOL0     C61890   2.731   1.869   5.229  0.0078  1.1367 -0.1917
  449MOL0     C61891   2.691   1.920   5.100  0.4838 -0.7940  0.3579
  449MOL0     C61892   2.685   2.065   5.077  0.0300 -0.5466 -0.2201
  449MOL0     H61893   2.578   1.591   4.686  0.1214 -1.7814  0.4421
  449MOL0     H61894   2.476   1.528   4.460 -1.7676 -0.0944  1.1951
  449MOL0     H61895   2.332   1.574   4.278  1.3756 -4.9549  0.9126
  449MOL0     H61896   2.489   1.509   4.218 -0.7244 -1.2029 -1.2122
  449MOL0     H61897   2.323   1.490   4.063  4.5567 -2.8917 -0.1441
  449MOL0     H61898   2.288   1.670   4.060 -1.0160 -0.9418 -1.8143
  449MOL0     H61899   2.577   1.555   3.994  0.7726  1.5229  0.7528
  449MOL0     H61900   2.460   1.546   3.877 -3.0287  1.1775 -0.3518
  449MOL0     H61901   2.422   1.805   3.953 -1.7963 -2.7752  0.4151
  449MOL0     H61902   2.571   1.795   4.009 -2.7654  0.2992  2.0280
  449MOL0     H61903   2.643   1.709   3.768  1.5276  1.3266 -1.2381
  449MOL0     H61904   2.583   1.879   3.778 -2.8764  0.4253  1.1022
  449MOL0     H61905   2.423   1.628   3.684 -0.0842  0.7231 -1.5855
  449MOL0     H61906   2.357   1.787   3.715  0.5451 -0.2620 -0.1548
  449MOL0     H61907   2.590   1.720   3.522  1.6604  3.3828 -0.4778
  449MOL0     H61908   2.513   1.880   3.548  0.7028 -0.1525  1.0250
  449MOL0     H61909   2.358   1.632   3.485 -0.5429  0.4991  0.1369
  449MOL0     H61910   2.308   1.806   3.457 -0.7977 -0.8172 -0.5769
  449MOL0     H61911   2.476   1.947   3.300 -0.8179 -0.1632 -0.3652
  449MOL0     H61912   2.609   1.876   2.963  3.4777  1.0342  4.6686
  449MOL0     H61913   2.528   2.005   3.045 -0.1327 -1.3867  3.6333
  449MOL0     H61914   2.387   1.804   2.882  0.8327 -1.9751  2.7542
  449MOL0     H61915   2.289   1.922   2.983 -0.9173 -1.7486 -1.5735
  449MOL0     H61916   2.391   2.100   2.866 -1.2541 -0.2491 -0.7998
  449MOL0     H61917   2.488   2.002   2.765  0.2757  1.9354  1.0489
  449MOL0     H61918   2.294   2.075   2.643 -0.1835 -0.0904  0.8335
  449MOL0     H61919   2.314   1.908   2.640  1.9213  0.5658  1.1532
  449MOL0     H61920   2.121   2.096   2.530  1.1018 -0.2545 -0.7266
  449MOL0     H61921   2.049   1.990   2.276  0.4326 -1.4567  2.4119
  449MOL0     H61922   2.002   2.144   2.348  1.7391 -1.0934  5.0445
  449MOL0     H61923   1.873   2.036   2.284 -0.5534  1.6423  1.4851
  449MOL0     H61924   1.625   1.599   2.262 -0.0796  0.1122 -0.4691
  449MOL0     H61925   1.525   1.493   2.062  0.7917 -0.7176 -1.2274
  449MOL0     H61926   1.658   1.283   1.929 -2.5975  1.4675  2.2673
  449MOL0     H61927   1.503   1.358   1.918 -0.8461 -0.0170 -1.8948
  449MOL0     H61928   1.612   1.299   1.649  0.9050 -2.4102 -0.4663
  449MOL0     H61929   1.581   1.163   1.750  2.5368  0.3592  2.9569
  449MOL0     H61930   1.373   1.381   1.649 -1.0489 -1.0467 -0.7341
  449MOL0     H61931   1.329   1.283   1.784  1.3703  3.0395  1.7968
  449MOL0     H61932   1.338   1.092   1.657  0.7332  0.3095  0.2525
  449MOL0     H61933   1.433   1.165   1.527  0.1364  0.2877 -0.6406
  449MOL0     H61934   1.169   1.124   1.495 -0.1789  1.1528 -0.4953
  449MOL0     H61935   1.143   1.256   1.601  0.2313  1.3441 -0.8136
  449MOL0     H61936   1.302   1.295   1.335 -1.2393  1.3671 -1.4695
  449MOL0     H61937   1.259   1.411   1.463 -1.2829  1.1055 -0.7112
  449MOL0     H61938   1.011   1.347   1.433  2.6405  0.1820  1.8148
  449MOL0     H61939   1.059   1.223   1.316 -0.2069 -0.2917 -0.1380
  449MOL0     H61940   0.989   1.430   1.202 -0.2737 -1.1991 -1.1160
  449MOL0     H61941   1.163   1.387   1.181 -2.0509 -0.5128 -1.0797
  449MOL0     H61942   1.886   1.610   1.855 -1.7173  1.8527 -2.7967
  449MOL0     H61943   1.940   1.768   2.027  0.5913 -0.2072  1.1687
  449MOL0     H61944   1.829   1.691   2.632  1.9419 -1.3087  1.9419
  449MOL0     H61945   1.997   1.764   2.787 -2.9313 -0.9508 -0.2609
  449MOL0     H61946   2.586   1.918   4.324  0.8372 -0.4712 -0.3977
  449MOL0     H61947   2.704   1.965   4.515  2.3589 -1.0114 -2.3345
  449MOL0     H61948   2.740   1.632   4.929  0.4395 -1.2522  1.4862
  449MOL0     H61949   2.816   1.565   5.141 -0.9259 -0.8224  1.5741
  449MOL0     H61950   2.729   1.531   5.410  1.2047 -2.4018 -2.2173
  449MOL0     H61951   2.896   1.511   5.357  3.8387  1.9839  1.5954
  449MOL0     H61952   2.990   1.585   5.555 -0.8075  0.6469 -1.8281
  449MOL0     H61953   2.872   1.447   5.587 -1.3414 -0.2022 -0.0331
  449MOL0     H61954   2.829   1.748   5.642  1.7949 -0.3649 -1.5966
  449MOL0     H61955   2.696   1.629   5.644  0.3355 -0.2277  0.9658
  449MOL0     H61956   2.841   1.497   5.827  1.0556 -0.5090  0.0993
  449MOL0     H61957   2.754   1.644   5.872 -0.3467 -2.3920 -0.7054
  449MOL0     H61958   3.146   1.776   5.917  1.9031 -2.1230 -0.9935
  449MOL0     H61959   2.737   1.928   5.320  1.5817 -1.2465  1.3623
  449MOL0     H61960   2.752   2.101   4.998  1.1648  2.9764  2.1152
  449MOL0     H61961   2.580   2.094   5.063  0.3829  0.2360 -1.4200
  449MOL0     H61962   2.722   2.122   5.163 -1.8241  1.9382 -0.9648
  450MOL0     O61963   3.155   3.044  11.115  0.4738  0.0144  0.0285
  450MOL0     C61964   3.236   2.973  11.176 -0.0712 -0.2753 -0.7153
  450MOL0     O61965   3.213   2.842  11.203 -0.0724  0.9869  0.6965
  450MOL0     C61966   3.238   2.744  11.096  0.4169 -0.9076  0.2121
  450MOL0     C61967   3.216   2.609  11.116 -0.0118 -0.8375 -0.4178
  450MOL0     C61968   3.216   2.511  11.018 -0.4984 -1.1889 -0.5740
  450MOL0     C61969   3.259   2.554  10.887  0.7483 -0.5583 -0.1315
  450MOL0     O61970   3.284   2.464  10.783  0.0045  0.0508 -0.3754
  450MOL0     C61971   3.201   2.345  10.779  0.2004 -0.7219 -0.5939
  450MOL0     C61972   3.236   2.267  10.649  0.6758 -0.5200  0.1074
  450MOL0     C61973   3.382   2.275  10.618 -0.9016 -0.0046 -0.6828
  450MOL0     C61974   3.417   2.168  10.514  0.2058 -0.0674 -0.7451
  450MOL0     C61975   3.405   2.033  10.567 -0.7926 -0.3201 -1.1217
  450MOL0     C61976   3.469   1.923  10.479  0.0703  0.5087  0.4384
  450MOL0     C61977   3.409   1.880  10.347 -0.6431  0.4390  0.3160
  450MOL0     C61978   3.491   1.783  10.255  0.4340  0.5842 -0.4378
  450MOL0     N61979   3.402   1.752  10.140 -0.5903 -0.3709  0.0726
  450MOL0     C61980   3.398   1.826  10.023  0.4232  0.2918  0.6348
  450MOL0     C61981   3.300   1.772   9.947  0.5452 -0.7746 -0.9285
  450MOL0     C61982   3.255   1.810   9.806  0.8262  0.4007 -0.4817
  450MOL0     C61983   3.123   1.898   9.803  0.4163 -0.4980  0.0779
  450MOL0     C61984   3.160   2.038   9.866 -0.0849  0.1617  0.4682
  450MOL0     C61985   3.101   2.058  10.000  0.0890 -1.0603 -0.8518
  450MOL0     O61986   3.131   2.187  10.048 -0.4475  0.3242 -0.4986
  450MOL0     C61987   3.085   2.230  10.170  0.1672 -0.0830  0.6766
  450MOL0     C61988   3.031   2.148  10.276 -0.3165 -0.2112  0.2745
  450MOL0     C61989   2.975   2.208  10.394 -0.9383  1.0735 -0.6079
  450MOL0     C61990   2.949   2.109  10.508 -0.2332  0.2560  0.5067
  450MOL0     C61991   2.963   2.348  10.410 -0.1788 -0.0548  1.2779
  450MOL0     C61992   2.907   2.407  10.532  0.2650  0.2517  0.2888
  450MOL0     O61993   2.947   2.529  10.565 -0.1641 -0.1142 -0.4213
  450MOL0     C61994   2.899   2.604  10.680  0.1659  0.1653  1.0287
  450MOL0     C61995   2.967   2.729  10.708  0.1496  0.0881  0.6905
  450MOL0     C61996   2.929   2.799  10.823  0.1782 -0.4404  0.2152
  450MOL0     C61997   2.826   2.761  10.910  0.0137  0.6967 -0.1606
  450MOL0     O61998   2.778   2.823  11.022  0.1766  0.6710 -0.4471
  450MOL0     C61999   2.800   2.967  11.039 -0.1545  0.4373  0.9697
  450MOL0     C62000   2.703   3.028  11.140  1.0794  0.2827 -0.4621
  450MOL0     C62001   2.556   3.040  11.095 -1.2783  1.2641 -0.7545
  450MOL0     C62002   2.484   3.142  11.176  0.5661 -0.6738  0.3668
  450MOL0     C62003   2.339   3.155  11.120  0.1851 -0.5309 -0.6177
  450MOL0     C62004   2.243   3.039  11.159  0.9670 -0.0111  1.1148
  450MOL0     C62005   2.098   3.088  11.164 -0.1098  0.0793  0.6707
  450MOL0     C62006   2.001   2.985  11.210 -0.1882 -0.3202 -0.0967
  450MOL0    Cl62007   2.060   2.917  11.366 -0.3942  0.2843 -0.1068
  450MOL0     C62008   2.769   2.640  10.881  0.4920 -0.2640  0.2155
  450MOL0     C62009   2.790   2.557  10.772 -0.1037  0.3053  0.9416
  450MOL0     O62010   2.803   2.354  10.550 -0.1925  0.2212 -0.2733
  450MOL0     C62011   3.018   2.426  10.305 -0.6739  0.3035 -0.3304
  450MOL0     C62012   3.076   2.367  10.187 -0.1627  0.7615 -0.1815
  450MOL0     N62013   3.253   1.664  10.015 -0.3135  0.2928  0.1757
  450MOL0     N62014   3.307   1.659  10.131  0.2795 -0.0330  0.2666
  450MOL0     C62015   3.300   2.687  10.867  0.4469 -0.4043 -0.8323
  450MOL0     C62016   3.282   2.786  10.967  0.8956 -0.3290  0.1698
  450MOL0     C62017   3.358   3.038  11.222  0.2853 -0.4234  0.6886
  450MOL0     C62018   3.396   3.155  11.158  0.4813 -0.0022 -0.2165
  450MOL0     C62019   3.526   3.217  11.174 -1.0735 -0.2654  0.3517
  450MOL0     C62020   3.621   3.168  11.264 -0.7659 -0.3165 -0.6453
  450MOL0     O62021   3.741   3.228  11.279 -0.1130  0.1303  1.0717
  450MOL0     C62022   3.839   3.186  11.364  0.1641 -0.1266  0.1757
  450MOL0     C62023   3.972   3.249  11.320 -0.4045  0.0716  0.3839
  450MOL0     C62024   3.961   3.403  11.338 -0.3853  0.1651  0.9112
  450MOL0     C62025   4.083   3.469  11.270 -0.6980 -0.5773  0.6574
  450MOL0     C62026   4.067   3.613  11.260 -0.4342 -1.2469  0.4951
  450MOL0     C62027   4.030   3.724  11.236  0.2269  1.1405  0.5916
  450MOL0     C62028   3.574   3.056  11.330 -0.2788 -0.2288 -0.2220
  450MOL0     C62029   3.452   2.996  11.319 -0.0985  0.9455 -0.0773
  450MOL0     C62030   3.440   2.864  11.391 -0.0919  0.7255 -0.0521
  450MOL0     H62031   3.184   2.584  11.217  0.5737  3.1860  0.9365
  450MOL0     H62032   3.190   2.408  11.038 -1.4881 -0.8448  0.0325
  450MOL0     H62033   3.095   2.366  10.791  0.3277  1.0894 -2.0778
  450MOL0     H62034   3.241   2.293  10.866 -0.1578 -1.1085 -0.6580
  450MOL0     H62035   3.208   2.163  10.670  0.6020 -0.0977  2.3457
  450MOL0     H62036   3.184   2.305  10.561  1.4292 -1.3667 -0.7221
  450MOL0     H62037   3.398   2.372  10.571 -0.9997 -1.3988 -3.8795
  450MOL0     H62038   3.436   2.265  10.713 -1.2068  0.9965 -0.3981
  450MOL0     H62039   3.366   2.171  10.417  1.7228 -1.7939 -1.6675
  450MOL0     H62040   3.523   2.184  10.491 -0.0333  2.1695 -0.4921
  450MOL0     H62041   3.301   2.001  10.582 -0.5603 -2.7763 -3.7891
  450MOL0     H62042   3.450   2.023  10.666  1.1089 -2.1823 -2.0965
  450MOL0     H62043   3.578   1.931  10.475  0.4956 -2.2848  2.9667
  450MOL0     H62044   3.463   1.838  10.548  2.2438  1.0780  1.4227
  450MOL0     H62045   3.376   1.960  10.280 -2.9094 -1.3929 -0.9074
  450MOL0     H62046   3.314   1.832  10.373 -1.3252 -0.0646 -2.6904
  450MOL0     H62047   3.578   1.838  10.219  1.0317  2.5257  3.4118
  450MOL0     H62048   3.521   1.699  10.318 -1.0486  0.6709  0.4273
  450MOL0     H62049   3.465   1.904   9.989 -2.2081  1.8284 -1.4440
  450MOL0     H62050   3.240   1.720   9.746  0.5672  0.2429 -0.1843
  450MOL0     H62051   3.334   1.858   9.747  0.7896  1.2481  0.1383
  450MOL0     H62052   3.097   1.921   9.699 -1.0554 -1.9192  0.0973
  450MOL0     H62053   3.029   1.862   9.845 -3.1392  1.6879 -4.9671
  450MOL0     H62054   3.268   2.053   9.869  0.2465 -1.9058 -0.0209
  450MOL0     H62055   3.128   2.126   9.809  1.7420  0.1642 -0.6295
  450MOL0     H62056   2.997   2.027  10.013 -0.1314 -0.1188 -0.2855
  450MOL0     H62057   3.148   1.992  10.075  0.9273  1.2166  0.7425
  450MOL0     H62058   3.033   2.040  10.262  3.8655 -0.0253 -2.2934
  450MOL0     H62059   3.004   2.015  10.498  0.2311  0.4595  1.0691
  450MOL0     H62060   2.843   2.084  10.511  0.1869 -1.6766  0.4070
  450MOL0     H62061   2.987   2.160  10.597  2.3283 -2.4943  1.1556
  450MOL0     H62062   3.041   2.759  10.635 -1.8716  1.0324 -1.0690
  450MOL0     H62063   2.964   2.901  10.832  4.3527 -1.5050 -1.8106
  450MOL0     H62064   2.901   2.994  11.070  0.8510  0.2016 -1.8024
  450MOL0     H62065   2.787   3.015  10.942 -1.4487  2.0663  1.8915
  450MOL0     H62066   2.706   2.954  11.221 -0.1897 -0.9992 -1.5301
  450MOL0     H62067   2.744   3.127  11.164  2.7831 -0.6760  0.7833
  450MOL0     H62068   2.520   2.941  11.124 -0.4900  0.8558 -1.1675
  450MOL0     H62069   2.558   3.060  10.988  2.4396  0.1808 -1.0261
  450MOL0     H62070   2.541   3.235  11.165  2.7260 -1.8316  1.1592
  450MOL0     H62071   2.489   3.123  11.283 -1.4931  1.8998  1.0041
  450MOL0     H62072   2.297   3.239  11.176 -0.6627 -2.8240  2.4712
  450MOL0     H62073   2.328   3.163  11.012 -2.0469  1.4474 -0.3411
  450MOL0     H62074   2.271   3.004  11.259 -1.8458 -2.2951  1.2121
  450MOL0     H62075   2.234   2.952  11.094 -1.7110  1.4425 -0.6439
  450MOL0     H62076   2.072   3.124  11.064  3.3010 -3.9588 -2.0200
  450MOL0     H62077   2.097   3.170  11.237  0.0722 -1.6157  2.6892
  450MOL0     H62078   1.976   2.906  11.139  0.0544 -2.2880  1.8797
  450MOL0     H62079   1.902   3.030  11.221  0.1003  1.2992 -3.1392
  450MOL0     H62080   2.704   2.598  10.957  1.4496 -1.5055  0.3749
  450MOL0     H62081   2.729   2.470  10.749  0.6187  0.3551 -1.5364
  450MOL0     H62082   3.014   2.534  10.320 -0.7220  0.0312  1.9069
  450MOL0     H62083   3.106   2.433  10.106  0.3769 -1.7582 -2.1508
  450MOL0     H62084   3.325   2.714  10.765 -1.9579  1.3106 -1.0537
  450MOL0     H62085   3.308   2.887  10.937  1.7735 -0.7494 -0.5309
  450MOL0     H62086   3.337   3.180  11.070 -0.2816  1.2013  0.6065
  450MOL0     H62087   3.561   3.288  11.099 -4.9871  0.8608 -0.6248
  450MOL0     H62088   3.821   3.237  11.459  3.2193  0.6717  0.4088
  450MOL0     H62089   3.844   3.077  11.372  1.1539 -0.1569 -0.6613
  450MOL0     H62090   4.000   3.212  11.221 -2.4156 -2.5253  0.6848
  450MOL0     H62091   4.032   3.214  11.405  0.1609  0.2942  0.0784
  450MOL0     H62092   3.872   3.431  11.281  0.0436 -0.4141 -0.0852
  450MOL0     H62093   3.971   3.429  11.443  1.0166  1.2648  0.5359
  450MOL0     H62094   4.096   3.435  11.167  2.8742 -0.8498  1.0682
  450MOL0     H62095   4.172   3.448  11.329  0.0415 -0.9892 -0.5808
  450MOL0     H62096   3.992   3.823  11.222 -0.0401  0.7489 -1.8670
  450MOL0     H62097   3.648   3.017  11.399  0.7261  3.4759  0.9963
  450MOL0     H62098   3.339   2.858  11.432  0.7234  2.7054  2.5437
  450MOL0     H62099   3.472   2.790  11.317 -1.2422  1.3471 -1.1978
  450MOL0     H62100   3.506   2.861  11.479  0.5550 -1.4725 -0.5327
  451MOL0     O62101   8.055   1.184   5.831  0.2461 -0.4699  0.1934
  451MOL0     C62102   7.971   1.188   5.742  1.6804  0.9217  0.6004
  451MOL0     O62103   7.962   1.279   5.634 -0.1683 -0.1637 -0.4353
  451MOL0     C62104   8.066   1.363   5.615 -0.5701  0.4076 -0.1060
  451MOL0     C62105   8.058   1.488   5.676  0.6405  0.9527  0.3128
  451MOL0     C62106   8.170   1.573   5.664 -1.0071 -0.0669  0.5432
  451MOL0     C62107   8.285   1.550   5.589  0.0181 -0.2379  0.3316
  451MOL0     O62108   8.378   1.647   5.586 -0.1297  0.5730 -0.1017
  451MOL0     C62109   8.515   1.598   5.556 -0.8070 -0.8637 -0.2694
  451MOL0     C62110   8.611   1.717   5.576  1.0328 -0.3711  0.5497
  451MOL0     C62111   8.755   1.675   5.597 -0.6402  0.3301  0.2167
  451MOL0     C62112   8.815   1.621   5.466 -0.4141  0.0215  0.5127
  451MOL0     C62113   8.964   1.577   5.468 -0.0686 -0.6060  0.0014
  451MOL0     C62114   9.021   1.539   5.341  0.0934  0.1748 -0.5520
  451MOL0     C62115   8.952   1.417   5.279  0.4671  1.3830  0.4190
  451MOL0     C62116   8.940   1.286   5.356  0.2992  0.1516  0.6625
  451MOL0     N62117   9.069   1.218   5.370  0.5311 -0.4123 -1.0491
  451MOL0     C62118   9.104   1.110   5.301  0.0815 -0.3454 -0.6044
  451MOL0     C62119   9.220   1.061   5.349 -0.4389  0.2549  1.0344
  451MOL0     C62120   9.292   0.944   5.293 -0.3945  0.3139  1.1313
  451MOL0     C62121   9.408   0.993   5.204 -0.1038 -0.2904 -0.2244
  451MOL0     C62122   9.347   1.036   5.069  0.3149 -1.0583  0.3032
  451MOL0     C62123   9.287   0.924   4.980  0.4130 -0.4517 -0.1437
  451MOL0     O62124   9.147   0.916   5.010  0.8775  0.8962  0.1405
  451MOL0     C62125   9.049   0.981   4.934  0.2176  0.0173  1.0722
  451MOL0     C62126   9.076   1.059   4.819  0.0351 -0.4014 -0.0930
  451MOL0     C62127   8.986   1.145   4.746 -0.1347 -0.0306 -0.0606
  451MOL0     C62128   9.040   1.237   4.639 -0.1650 -0.2223 -0.8977
  451MOL0     C62129   8.846   1.143   4.787 -0.7301 -0.0656  0.2406
  451MOL0     C62130   8.740   1.222   4.718  0.4701  0.5070  0.1529
  451MOL0     O62131   8.613   1.186   4.747 -0.1033 -0.1061  0.3934
  451MOL0     C62132   8.504   1.242   4.675 -0.5787  0.3502 -0.2710
  451MOL0     C62133   8.420   1.161   4.608  0.4943  0.1649 -0.6037
  451MOL0     C62134   8.303   1.203   4.550 -0.7195 -0.5094 -1.0516
  451MOL0     C62135   8.264   1.338   4.562  0.9053 -0.2112 -0.2352
  451MOL0     O62136   8.141   1.386   4.533 -0.5640 -0.3812 -0.0332
  451MOL0     C62137   8.104   1.381   4.395 -0.4991 -0.1771  0.0386
  451MOL0     C62138   7.952   1.389   4.384  0.0997  0.6344  0.2082
  451MOL0     C62139   7.872   1.302   4.477  0.7026  0.6959 -0.1227
  451MOL0     C62140   7.721   1.329   4.448 -0.2268 -0.4228 -0.3833
  451MOL0     C62141   7.632   1.281   4.570  0.7169  0.5356  0.4191
  451MOL0     C62142   7.615   1.378   4.684  1.3079 -0.2007  0.5213
  451MOL0     C62143   7.514   1.495   4.641  0.5089 -0.8669  0.9818
  451MOL0     C62144   7.504   1.592   4.762 -0.0447  0.3045 -0.0974
  451MOL0    Cl62145   7.667   1.652   4.796  0.2118  0.4236 -0.2233
  451MOL0     C62146   8.355   1.428   4.627  0.2186 -0.7349 -0.1488
  451MOL0     C62147   8.469   1.379   4.684 -0.0382 -0.4593  0.5057
  451MOL0     O62148   8.774   1.315   4.653 -0.3292  0.2645 -0.0131
  451MOL0     C62149   8.819   1.066   4.902 -0.2613  0.6705  0.3988
  451MOL0     C62150   8.917   0.980   4.968 -0.7781 -0.0694 -0.4628
  451MOL0     N62151   9.256   1.136   5.457  0.5798 -0.1562 -0.2103
  451MOL0     N62152   9.166   1.234   5.465 -0.3406  0.0482  0.0330
  451MOL0     C62153   8.295   1.427   5.526  0.0253 -0.4170 -0.6378
  451MOL0     C62154   8.188   1.329   5.543 -0.0568  0.5117 -0.7169
  451MOL0     C62155   7.856   1.084   5.755 -0.9956  0.2592 -1.2938
  451MOL0     C62156   7.795   1.068   5.878  0.3746  0.1551  0.2159
  451MOL0     C62157   7.692   0.979   5.893 -0.0458  0.1328 -0.3016
  451MOL0     C62158   7.642   0.892   5.792 -0.7298 -0.5807 -0.3842
  451MOL0     O62159   7.540   0.811   5.822 -0.0273  0.1038  0.0046
  451MOL0     C62160   7.475   0.718   5.725 -0.6949  0.7095 -0.3522
  451MOL0     C62161   7.551   0.580   5.710  0.0586 -0.4089 -0.6542
  451MOL0     C62162   7.462   0.456   5.723  0.5924  0.4558  0.2164
  451MOL0     C62163   7.414   0.413   5.579 -0.3190  1.0280  0.1880
  451MOL0     C62164   7.535   0.350   5.513  0.4296 -0.5883  0.9842
  451MOL0     C62165   7.631   0.300   5.451 -0.0884 -0.0244  0.0665
  451MOL0     C62166   7.712   0.901   5.672 -1.2586 -0.1460 -0.0652
  451MOL0     C62167   7.813   1.002   5.652  0.4367 -0.1314  0.2396
  451MOL0     C62168   7.866   1.008   5.513  0.4873 -0.0822  0.6012
  451MOL0     H62169   7.976   1.528   5.735  1.6268  4.4645 -0.4517
  451MOL0     H62170   8.167   1.671   5.711  1.1836 -1.1249  3.1471
  451MOL0     H62171   8.519   1.579   5.448  1.1555  1.1472 -0.6340
  451MOL0     H62172   8.551   1.510   5.609 -0.6407 -0.6326  0.0039
  451MOL0     H62173   8.595   1.784   5.491  2.0450 -0.9552 -0.1301
  451MOL0     H62174   8.561   1.779   5.651  0.4540  1.2040 -1.0668
  451MOL0     H62175   8.806   1.762   5.639 -0.3290 -0.2374  1.0355
  451MOL0     H62176   8.757   1.604   5.680  1.0214  2.6256  2.2884
  451MOL0     H62177   8.742   1.546   5.434 -1.2949  1.0745 -0.0427
  451MOL0     H62178   8.799   1.700   5.392  0.6059  1.8126  2.1177
  451MOL0     H62179   8.973   1.505   5.550  2.3201 -1.2972 -0.7800
  451MOL0     H62180   9.025   1.663   5.497 -0.5443  0.1863 -1.2971
  451MOL0     H62181   9.015   1.615   5.262  0.8391  1.0572  0.2089
  451MOL0     H62182   9.126   1.524   5.365 -0.0912  2.1273  1.9508
  451MOL0     H62183   9.000   1.385   5.187 -0.6275  2.0017 -0.3948
  451MOL0     H62184   8.849   1.450   5.260  0.1961 -0.8360 -2.6948
  451MOL0     H62185   8.901   1.291   5.458 -1.8150 -1.8355  0.0339
  451MOL0     H62186   8.882   1.212   5.300  1.4875 -1.4058  1.4250
  451MOL0     H62187   9.044   1.059   5.226 -1.4820  0.8202 -0.2089
  451MOL0     H62188   9.226   0.877   5.237 -1.1591 -0.6398  3.0970
  451MOL0     H62189   9.324   0.885   5.379 -1.2969 -0.7483  0.7711
  451MOL0     H62190   9.446   1.088   5.242  0.3998 -0.7226  0.3680
  451MOL0     H62191   9.482   0.916   5.187  2.1355  1.6585  0.1899
  451MOL0     H62192   9.273   1.115   5.084 -0.3039 -1.3448 -1.0369
  451MOL0     H62193   9.425   1.084   5.010 -0.8717  1.2688  0.5355
  451MOL0     H62194   9.312   0.921   4.874  0.3254 -3.1679 -0.1584
  451MOL0     H62195   9.322   0.827   5.016  0.2062 -1.1908 -1.8611
  451MOL0     H62196   9.182   1.076   4.801  0.3391 -2.8043 -0.9209
  451MOL0     H62197   8.969   1.241   4.555 -2.5362 -1.1295  0.9362
  451MOL0     H62198   9.132   1.193   4.600  1.6089  2.0917  0.4517
  451MOL0     H62199   9.060   1.338   4.676  0.4111  0.9044 -3.9567
  451MOL0     H62200   8.438   1.054   4.603  0.2417  0.1674 -2.1683
  451MOL0     H62201   8.243   1.116   4.524  0.0078 -1.9107  1.6306
  451MOL0     H62202   8.163   1.452   4.338 -0.7377 -2.2632 -3.0484
  451MOL0     H62203   8.134   1.286   4.349 -0.8672  0.7298 -2.1721
  451MOL0     H62204   7.928   1.492   4.410 -1.4182  0.0844  1.0702
  451MOL0     H62205   7.929   1.351   4.284  4.3026 -1.1869 -0.2928
  451MOL0     H62206   7.899   1.318   4.582 -2.3362 -1.8567  1.2176
  451MOL0     H62207   7.889   1.196   4.458 -2.0036  0.3665 -1.1065
  451MOL0     H62208   7.697   1.282   4.353  0.1095  2.0475 -1.7877
  451MOL0     H62209   7.697   1.432   4.420 -1.1572 -0.8251 -1.0939
  451MOL0     H62210   7.531   1.277   4.529 -1.4647 -0.2065  5.2288
  451MOL0     H62211   7.652   1.179   4.604 -1.8789 -0.6231 -1.2558
  451MOL0     H62212   7.716   1.399   4.721  1.7693 -1.5178  0.0731
  451MOL0     H62213   7.556   1.326   4.761  1.6471  0.0100  0.9307
  451MOL0     H62214   7.413   1.454   4.633 -0.1080  0.7454  0.0093
  451MOL0     H62215   7.539   1.546   4.548 -2.6709 -1.2961 -0.2270
  451MOL0     H62216   7.471   1.529   4.846 -1.1879 -0.4986 -1.1257
  451MOL0     H62217   7.431   1.669   4.737 -0.2388 -0.1031 -0.8124
  451MOL0     H62218   8.329   1.532   4.643  3.2798  0.4329 -2.0412
  451MOL0     H62219   8.522   1.453   4.743 -0.7950  2.2063 -1.9101
  451MOL0     H62220   8.717   1.065   4.939 -0.0409  0.8474  1.0441
  451MOL0     H62221   8.879   0.919   5.049  0.1230 -0.6984 -0.5018
  451MOL0     H62222   8.387   1.395   5.479 -0.5589 -1.1956 -1.2987
  451MOL0     H62223   8.191   1.230   5.498 -3.8786  0.7411 -1.8434
  451MOL0     H62224   7.823   1.134   5.960  2.0426 -0.9020  0.5382
  451MOL0     H62225   7.650   0.962   5.992  0.0266  1.2733 -0.0678
  451MOL0     H62226   7.375   0.698   5.765 -0.2178  1.8118  1.5313
  451MOL0     H62227   7.471   0.760   5.624  0.9598 -1.5191 -1.4166
  451MOL0     H62228   7.629   0.575   5.786 -1.1074  0.3655  0.6669
  451MOL0     H62229   7.602   0.580   5.614 -0.8826  0.1925 -1.1717
  451MOL0     H62230   7.522   0.379   5.774  1.9615  0.2655 -1.5535
  451MOL0     H62231   7.377   0.485   5.785  1.6669 -2.8310  3.6313
  451MOL0     H62232   7.373   0.494   5.517 -0.2680  2.2072  1.6459
  451MOL0     H62233   7.345   0.331   5.596  2.5055 -0.8140  4.5167
  451MOL0     H62234   7.724   0.280   5.400  1.0371  3.5725  0.4105
  451MOL0     H62235   7.687   0.830   5.594  0.4360 -3.0065  1.7977
  451MOL0     H62236   7.971   1.041   5.512  0.3080  0.5031 -0.3512
  451MOL0     H62237   7.855   0.909   5.467  0.2918  0.0261  0.4104
  451MOL0     H62238   7.812   1.082   5.452 -1.3371 -0.6152  1.5238
  452MOL0     O62239   7.178   2.756   5.545 -0.1344 -0.0764 -0.4003
  452MOL0     C62240   7.189   2.841   5.464  0.5623 -0.1526  0.2449
  452MOL0     O62241   7.273   2.839   5.365 -0.0491 -0.4841  0.6101
  452MOL0     C62242   7.398   2.777   5.370 -0.5576  0.2280  1.3072
  452MOL0     C62243   7.438   2.731   5.242  0.0017  0.0583 -0.5058
  452MOL0     C62244   7.566   2.672   5.236 -0.5184 -0.7236  0.0122
  452MOL0     C62245   7.642   2.661   5.352  0.7812 -0.7199  1.8444
  452MOL0     O62246   7.769   2.607   5.351 -0.2451 -0.0992  0.2898
  452MOL0     C62247   7.810   2.508   5.245  0.5020  0.6293  0.8681
  452MOL0     C62248   7.719   2.384   5.254  0.0755 -0.9550  0.1373
  452MOL0     C62249   7.774   2.269   5.172 -1.0342 -0.3670 -0.3046
  452MOL0     C62250   7.681   2.156   5.181  0.1872 -0.4142  0.4219
  452MOL0     C62251   7.747   2.029   5.123  0.1998 -0.5776  0.1552
  452MOL0     C62252   7.660   1.910   5.129 -0.3218  0.0602 -0.2387
  452MOL0     C62253   7.680   1.837   5.258 -0.2394  0.0474  0.2534
  452MOL0     C62254   7.578   1.721   5.283  0.0600 -0.0922 -0.9034
  452MOL0     N62255   7.618   1.640   5.403  0.2636 -0.0911 -0.0210
  452MOL0     C62256   7.574   1.510   5.431  0.5090  0.1078 -0.8896
  452MOL0     C62257   7.638   1.466   5.548 -0.4078 -0.2920  0.5368
  452MOL0     C62258   7.611   1.327   5.614 -0.4792 -0.8405  0.0187
  452MOL0     C62259   7.466   1.328   5.670 -0.2520  0.2294 -0.4933
  452MOL0     C62260   7.451   1.208   5.760  1.0491 -0.6689 -1.0090
  452MOL0     C62261   7.312   1.184   5.827 -0.3567  0.3128 -0.3364
  452MOL0     O62262   7.216   1.205   5.721  0.4617  0.4190  0.2624
  452MOL0     C62263   7.096   1.131   5.723 -0.0674 -0.6687  0.3146
  452MOL0     C62264   7.001   1.167   5.634 -0.3630 -0.5651 -0.6560
  452MOL0     C62265   6.876   1.097   5.625 -0.3478 -0.5363  0.2370
  452MOL0     C62266   6.788   1.146   5.522 -0.0781  0.5855 -0.0500
  452MOL0     C62267   6.842   0.990   5.713 -0.4173 -0.2315  0.9972
  452MOL0     C62268   6.717   0.907   5.714 -0.1452 -0.1895 -0.8480
  452MOL0     O62269   6.649   0.896   5.598 -0.4873  0.2590  0.6109
  452MOL0     C62270   6.541   0.813   5.594  0.2868 -0.7195 -0.9858
  452MOL0     C62271   6.407   0.864   5.616  0.6624 -1.2071  0.4584
  452MOL0     C62272   6.298   0.783   5.604 -0.1780 -0.4573  0.0892
  452MOL0     C62273   6.310   0.646   5.585  0.6571 -1.3125 -0.0310
  452MOL0     O62274   6.199   0.564   5.588 -0.0481  0.0723 -0.1769
  452MOL0     C62275   6.088   0.602   5.504 -0.9238  0.3282  0.0584
  452MOL0     C62276   6.070   0.478   5.415 -0.1896 -0.5523 -0.7151
  452MOL0     C62277   6.054   0.519   5.269  0.2932 -0.0480  0.5414
  452MOL0     C62278   6.185   0.535   5.201  0.4747  0.0472  0.3984
  452MOL0     C62279   6.154   0.576   5.056 -0.1480 -0.8215  0.2745
  452MOL0     C62280   6.294   0.614   4.998  1.0711  0.0963  1.2889
  452MOL0     C62281   6.280   0.652   4.854  0.3243  0.7361  0.0099
  452MOL0     C62282   6.389   0.752   4.817 -0.2611 -0.3766 -0.0917
  452MOL0    Cl62283   6.357   0.905   4.904  0.1953 -0.1864 -0.1622
  452MOL0     C62284   6.439   0.590   5.594  0.4410  0.0672  0.6953
  452MOL0     C62285   6.548   0.670   5.588  0.2758 -0.8854 -1.5335
  452MOL0     O62286   6.689   0.847   5.821  0.0174 -0.4111 -0.2869
  452MOL0     C62287   6.942   0.966   5.806  0.6888  0.5641  0.5057
  452MOL0     C62288   7.065   1.026   5.810  0.5117  0.2526 -0.9532
  452MOL0     N62289   7.726   1.567   5.584  0.4480  0.0114 -0.1013
  452MOL0     N62290   7.707   1.669   5.507 -0.5360  0.2508 -0.5575
  452MOL0     C62291   7.598   2.700   5.473  0.2319 -0.2083 -0.1509
  452MOL0     C62292   7.469   2.749   5.484  0.5822  0.0955  0.5158
  452MOL0     C62293   7.086   2.953   5.471  0.4849  0.1745 -0.2493
  452MOL0     C62294   7.042   2.977   5.599  0.3909  1.4018  0.8600
  452MOL0     C62295   6.961   3.083   5.626 -0.1538 -0.6733 -0.0790
  452MOL0     C62296   6.913   3.164   5.522  0.7784 -0.2003 -0.5407
  452MOL0     O62297   6.835   3.274   5.562 -0.2783 -0.5886  0.1632
  452MOL0     C62298   6.745   3.331   5.472 -0.5551 -0.4245 -0.8502
  452MOL0     C62299   6.625   3.395   5.532 -0.2049  1.0640  0.4306
  452MOL0     C62300   6.538   3.299   5.611  0.2680 -0.1414  0.2272
  452MOL0     C62301   6.413   3.377   5.660 -0.2101  0.7221 -0.2040
  452MOL0     C62302   6.317   3.284   5.732  0.1828  0.6110 -0.0460
  452MOL0     C62303   6.251   3.210   5.795  0.2477  0.4626  0.5251
  452MOL0     C62304   6.930   3.120   5.387 -0.6373  0.9625 -0.1608
  452MOL0     C62305   7.022   3.022   5.360  0.3304  0.2650 -0.5748
  452MOL0     C62306   7.043   2.978   5.217 -0.4284 -0.6658 -0.4622
  452MOL0     H62307   7.371   2.730   5.156 -0.3370  0.6231 -0.2529
  452MOL0     H62308   7.598   2.630   5.141  0.8695 -2.1112  1.0516
  452MOL0     H62309   7.913   2.473   5.248  0.5378  0.8165  2.9116
  452MOL0     H62310   7.807   2.558   5.148  1.2548  2.1368  1.5894
  452MOL0     H62311   7.706   2.354   5.358  0.1543  3.2247  1.5528
  452MOL0     H62312   7.622   2.411   5.212  0.4295  0.0482 -0.0736
  452MOL0     H62313   7.782   2.309   5.070  2.6422 -3.9425 -1.6913
  452MOL0     H62314   7.875   2.240   5.204 -0.9361 -1.3975 -1.4769
  452MOL0     H62315   7.651   2.134   5.284 -0.3390  1.5878  0.7285
  452MOL0     H62316   7.592   2.180   5.122  1.6424  1.1546 -1.2490
  452MOL0     H62317   7.843   2.022   5.175  3.1403  1.3259 -4.3381
  452MOL0     H62318   7.763   2.050   5.017 -0.7734 -0.5340  0.0108
  452MOL0     H62319   7.562   1.959   5.133 -1.2809 -1.8046  0.8036
  452MOL0     H62320   7.674   1.838   5.047 -2.8983 -0.5048 -0.2837
  452MOL0     H62321   7.699   1.900   5.345  1.8381  1.8354 -1.3894
  452MOL0     H62322   7.775   1.784   5.241 -0.6088  0.1812 -2.6393
  452MOL0     H62323   7.479   1.761   5.307 -0.9950 -2.6462 -0.5745
  452MOL0     H62324   7.567   1.668   5.188 -2.2291  1.5670 -1.6492
  452MOL0     H62325   7.507   1.458   5.362  0.1325 -0.2080 -0.2883
  452MOL0     H62326   7.685   1.320   5.693  0.8351 -0.3001 -1.1293
  452MOL0     H62327   7.626   1.250   5.538  1.2837 -1.3432  0.8406
  452MOL0     H62328   7.442   1.419   5.725  1.9040  0.8424 -0.4805
  452MOL0     H62329   7.395   1.334   5.586  0.2385 -0.4246 -0.9681
  452MOL0     H62330   7.475   1.120   5.699 -1.7913 -1.0787 -1.7234
  452MOL0     H62331   7.529   1.216   5.835  0.3799  1.7817 -0.4983
  452MOL0     H62332   7.308   1.084   5.872 -0.7888  0.2297 -0.5483
  452MOL0     H62333   7.289   1.258   5.904 -2.7304  2.0074 -2.5050
  452MOL0     H62334   7.024   1.259   5.582 -3.4293 -0.1115 -1.3789
  452MOL0     H62335   6.840   1.227   5.470  1.1283 -0.1411 -0.0176
  452MOL0     H62336   6.695   1.193   5.555 -0.5760 -0.7358  0.4905
  452MOL0     H62337   6.771   1.066   5.450  0.5393 -1.7379  2.2471
  452MOL0     H62338   6.394   0.971   5.621 -0.7454 -1.1795 -2.2864
  452MOL0     H62339   6.201   0.825   5.626 -0.2595 -1.4680  1.7838
  452MOL0     H62340   6.009   0.611   5.579  1.1564 -0.6658  2.5417
  452MOL0     H62341   6.102   0.694   5.446  2.7040 -1.2308 -1.8840
  452MOL0     H62342   6.160   0.416   5.424  0.6425  0.9168  2.1438
  452MOL0     H62343   5.971   0.438   5.440 -0.9508  1.1472 -0.8704
  452MOL0     H62344   6.005   0.616   5.255  0.4503  0.3876  2.7352
  452MOL0     H62345   5.994   0.439   5.225  1.7043  0.3766 -2.3648
  452MOL0     H62346   6.256   0.452   5.198  2.8500  1.6859  4.3178
  452MOL0     H62347   6.237   0.614   5.255  2.5959  1.0481 -2.7899
  452MOL0     H62348   6.099   0.505   4.993 -1.0616  1.2031 -1.3028
  452MOL0     H62349   6.096   0.669   5.058 -1.4920 -1.5826 -1.3074
  452MOL0     H62350   6.360   0.528   5.016 -2.7888 -3.1713  1.2275
  452MOL0     H62351   6.322   0.693   5.068  0.3008 -0.8794  2.7416
  452MOL0     H62352   6.175   0.680   4.846 -0.4371 -1.3325  1.6923
  452MOL0     H62353   6.297   0.565   4.790 -0.6936  0.4260  0.1451
  452MOL0     H62354   6.390   0.768   4.708 -3.3587  2.1303  0.0814
  452MOL0     H62355   6.485   0.709   4.847 -1.2540  0.2782  4.9053
  452MOL0     H62356   6.449   0.483   5.582  0.4088  0.3370 -2.4876
  452MOL0     H62357   6.655   0.649   5.589  0.4557 -0.2911 -3.5252
  452MOL0     H62358   6.941   0.880   5.872  0.4867 -2.3221 -2.9637
  452MOL0     H62359   7.143   1.005   5.882  1.3990  4.7105 -0.3161
  452MOL0     H62360   7.642   2.695   5.573 -0.8523 -0.6687  0.3201
  452MOL0     H62361   7.438   2.781   5.583 -0.8474 -2.4021  0.9463
  452MOL0     H62362   7.082   2.924   5.685 -0.5976  2.3513  1.9444
  452MOL0     H62363   6.935   3.102   5.729  1.3632  1.3795 -0.0157
  452MOL0     H62364   6.802   3.408   5.421  1.0087 -0.3395  0.9320
  452MOL0     H62365   6.713   3.245   5.412 -0.6496 -3.2427  2.8626
  452MOL0     H62366   6.567   3.419   5.443  2.4009 -1.4001 -2.1479
  452MOL0     H62367   6.643   3.485   5.591 -0.7616  0.8718  0.9113
  452MOL0     H62368   6.513   3.211   5.551 -2.5269 -0.1549  1.2505
  452MOL0     H62369   6.591   3.257   5.697  0.5972  1.3589  0.7876
  452MOL0     H62370   6.364   3.414   5.569  0.6568 -2.1972 -2.0030
  452MOL0     H62371   6.448   3.463   5.717  0.3162  0.8052 -0.6399
  452MOL0     H62372   6.192   3.130   5.834  0.6288 -1.6720 -2.9138
  452MOL0     H62373   6.871   3.170   5.311 -0.4573  1.2604 -0.1036
  452MOL0     H62374   7.048   3.062   5.147  0.1007 -0.5900 -0.3383
  452MOL0     H62375   7.140   2.934   5.191 -0.8449  0.2068 -4.0002
  452MOL0     H62376   6.965   2.908   5.186 -3.1977  2.6771 -1.5334
  453MOL0     O62377   7.815   8.627   9.049 -0.4141 -0.1590 -0.4081
  453MOL0     C62378   7.759   8.570   9.142  0.0568  1.4613 -0.0951
  453MOL0     O62379   7.820   8.525   9.248  0.7106 -0.3561 -0.9300
  453MOL0     C62380   7.947   8.506   9.255  0.4169 -0.5059  0.6502
  453MOL0     C62381   8.009   8.530   9.377 -0.3009 -0.8246  0.3861
  453MOL0     C62382   8.152   8.534   9.387  0.8065 -0.2797 -0.7963
  453MOL0     C62383   8.233   8.529   9.279  0.4691  0.2203  0.4781
  453MOL0     O62384   8.374   8.542   9.290 -1.2144  0.0132 -0.4574
  453MOL0     C62385   8.440   8.628   9.198  0.0556 -0.1558 -0.1601
  453MOL0     C62386   8.586   8.606   9.203 -0.2866 -0.1142  0.1992
  453MOL0     C62387   8.665   8.696   9.113 -0.2006 -1.2092  0.1572
  453MOL0     C62388   8.685   8.633   8.980 -0.3695 -0.6431 -0.3371
  453MOL0     C62389   8.760   8.731   8.887 -0.6783  0.0322 -0.4493
  453MOL0     C62390   8.796   8.674   8.745 -1.1818  0.9237  0.3926
  453MOL0     C62391   8.672   8.604   8.669  0.1517 -0.3091 -0.6837
  453MOL0     C62392   8.566   8.707   8.636 -1.1533  0.2722  0.3597
  453MOL0     N62393   8.608   8.831   8.561  0.4826  0.4833 -0.4394
  453MOL0     C62394   8.687   8.841   8.454  0.0297 -0.1226  0.7280
  453MOL0     C62395   8.697   8.977   8.430  0.4844  0.3022  0.1642
  453MOL0     C62396   8.793   9.026   8.324 -0.5837 -0.5816  0.2510
  453MOL0     C62397   8.866   9.136   8.378 -0.6522 -0.1910 -0.0333
  453MOL0     C62398   8.960   9.198   8.278  0.7550  0.8402 -0.0360
  453MOL0     C62399   9.055   9.300   8.346 -0.2299  0.5259  0.8022
  453MOL0     O62400   9.150   9.344   8.246  0.1947 -0.4654  0.4148
  453MOL0     C62401   9.119   9.441   8.147 -0.3459 -0.4200  0.3266
  453MOL0     C62402   9.203   9.460   8.045  0.1364 -0.0454  0.2439
  453MOL0     C62403   9.204   9.576   7.963  1.0360 -0.6431  0.1604
  453MOL0     C62404   9.319   9.580   7.865 -0.4148 -0.2857 -0.7286
  453MOL0     C62405   9.089   9.666   7.980 -0.1730  0.2987 -0.1600
  453MOL0     C62406   9.074   9.790   7.896  1.1634 -0.4074  0.3130
  453MOL0     O62407   8.968   9.876   7.938 -0.2042 -0.1422  0.4693
  453MOL0     C62408   8.941   9.984   7.866  0.3218 -0.0670  0.3705
  453MOL0     C62409   8.807  10.021   7.872 -0.6332  1.0523  0.1856
  453MOL0     C62410   8.752  10.130   7.794  1.1112 -0.0445 -0.1103
  453MOL0     C62411   8.844  10.204   7.713  0.3868  1.0159  0.6025
  453MOL0     O62412   8.811  10.302   7.625 -0.1590 -0.4868  0.6185
  453MOL0     C62413   8.683  10.363   7.631  0.0889  1.0234  0.3889
  453MOL0     C62414   8.680  10.465   7.512 -0.2307  0.7823  0.0457
  453MOL0     C62415   8.558  10.566   7.519 -0.7942 -0.3803  0.1131
  453MOL0     C62416   8.566  10.655   7.394  1.5222  0.8481 -0.3633
  453MOL0     C62417   8.475  10.778   7.399  0.8417 -0.5269  0.2918
  453MOL0     C62418   8.475  10.880   7.512 -0.4437  1.3167 -0.4396
  453MOL0     C62419   8.609  10.952   7.526  0.3951  0.4712 -0.2759
  453MOL0     C62420   8.607  11.001   7.672  1.1826  1.1524  0.1736
  453MOL0    Cl62421   8.750  11.105   7.701 -0.4208 -0.0228  0.0943
  453MOL0     C62422   8.974  10.168   7.713 -0.0234  0.0802 -0.2079
  453MOL0     C62423   9.021  10.061   7.786 -0.4421  0.0653  0.7914
  453MOL0     O62424   9.151   9.805   7.804  0.4491  0.1869 -0.0678
  453MOL0     C62425   8.989   9.640   8.087 -0.5248 -0.1446  0.1860
  453MOL0     C62426   9.012   9.527   8.171 -0.2796 -0.8982  0.3471
  453MOL0     N62427   8.622   9.048   8.536 -0.4089 -0.0705  0.7068
  453MOL0     N62428   8.574   8.956   8.611 -0.7532 -0.7442  0.7854
  453MOL0     C62429   8.176   8.506   9.156  0.1673 -0.5966  0.1443
  453MOL0     C62430   8.035   8.483   9.139 -0.0678 -0.6713  0.7885
  453MOL0     C62431   7.613   8.540   9.146 -0.7564  0.5522  0.4947
  453MOL0     C62432   7.534   8.585   9.251  0.3809  0.3737 -0.0730
  453MOL0     C62433   7.394   8.556   9.250  0.0450  0.0725 -0.5621
  453MOL0     C62434   7.320   8.514   9.141 -0.6561  0.7935  0.4592
  453MOL0     O62435   7.182   8.516   9.148 -0.0415 -0.0450 -0.6184
  453MOL0     C62436   7.111   8.411   9.087  0.2488  0.5463 -0.5676
  453MOL0     C62437   6.965   8.422   9.140  0.2068 -0.0287 -0.5579
  453MOL0     C62438   6.896   8.559   9.105  0.1114  0.5437 -0.6616
  453MOL0     C62439   6.838   8.578   8.966  0.2409  0.9091  0.3945
  453MOL0     C62440   6.716   8.499   8.944  0.3720 -0.1423  0.2731
  453MOL0     C62441   6.609   8.450   8.927  0.3137 -0.1655 -0.3053
  453MOL0     C62442   7.400   8.467   9.034  0.5975  0.9880  0.2646
  453MOL0     C62443   7.545   8.486   9.026 -0.1128  0.4782  0.4241
  453MOL0     C62444   7.602   8.450   8.893  0.6446 -0.6646 -0.3221
  453MOL0     H62445   7.953   8.548   9.468 -2.6209 -0.8728 -0.9501
  453MOL0     H62446   8.196   8.545   9.486 -2.2160 -2.2922  0.9363
  453MOL0     H62447   8.417   8.730   9.232  0.8143 -0.4492  1.2934
  453MOL0     H62448   8.406   8.626   9.093 -1.0105  4.4338 -0.1320
  453MOL0     H62449   8.623   8.626   9.304  1.6614  1.2314 -0.7091
  453MOL0     H62450   8.594   8.504   9.165 -0.6204  0.1653 -0.6544
  453MOL0     H62451   8.609   8.788   9.097 -0.2777 -1.4215 -0.8606
  453MOL0     H62452   8.755   8.739   9.158 -1.1399  1.1773 -0.0996
  453MOL0     H62453   8.735   8.538   8.997 -0.7569 -0.3297  3.4473
  453MOL0     H62454   8.584   8.624   8.937 -0.6766 -0.3453  0.3008
  453MOL0     H62455   8.854   8.761   8.934 -1.7423  2.0709  0.5220
  453MOL0     H62456   8.698   8.820   8.871 -1.5034 -0.4526 -0.0456
  453MOL0     H62457   8.836   8.752   8.680  0.1618  0.3205  0.4549
  453MOL0     H62458   8.874   8.598   8.751 -2.1472 -0.2810 -1.3974
  453MOL0     H62459   8.628   8.518   8.721 -3.3110  3.7274  4.0328
  453MOL0     H62460   8.712   8.576   8.571 -1.7604 -0.4157 -1.4726
  453MOL0     H62461   8.501   8.655   8.565  2.5533 -1.4086 -2.1343
  453MOL0     H62462   8.505   8.734   8.723 -1.1578 -1.3233  0.8764
  453MOL0     H62463   8.735   8.756   8.405 -0.0136  0.3805 -0.2155
  453MOL0     H62464   8.738   9.074   8.243  2.4498  0.4706 -1.3564
  453MOL0     H62465   8.856   8.949   8.277 -1.6284  0.0804 -2.4456
  453MOL0     H62466   8.792   9.205   8.420 -1.1384 -1.0243  0.5036
  453MOL0     H62467   8.925   9.119   8.468 -1.2348  1.9826  0.8326
  453MOL0     H62468   9.015   9.123   8.221 -1.6778  0.5539 -2.1568
  453MOL0     H62469   8.908   9.257   8.202  0.7523  3.1149  1.6165
  453MOL0     H62470   9.010   9.381   8.404  4.2555  1.6008  3.2393
  453MOL0     H62471   9.116   9.257   8.427 -2.4689 -1.9476  1.2995
  453MOL0     H62472   9.285   9.391   8.032 -1.2727 -1.6865 -0.3314
  453MOL0     H62473   9.365   9.676   7.890  2.8036 -1.9314  0.2302
  453MOL0     H62474   9.293   9.587   7.758  0.4660  1.6373 -0.8631
  453MOL0     H62475   9.385   9.493   7.870 -1.4208 -1.2388 -2.7934
  453MOL0     H62476   8.739   9.969   7.939 -0.5714 -0.6909 -1.0343
  453MOL0     H62477   8.645  10.143   7.804  1.0689  0.1033 -0.7569
  453MOL0     H62478   8.597  10.297   7.617 -0.3333  1.8507 -1.1351
  453MOL0     H62479   8.677  10.416   7.727 -1.7844 -0.2600  1.0347
  453MOL0     H62480   8.778  10.513   7.527  0.3855 -0.2856 -0.4344
  453MOL0     H62481   8.680  10.416   7.414  3.6726  1.8147 -0.6555
  453MOL0     H62482   8.572  10.624   7.611  0.6602  0.0855 -0.3736
  453MOL0     H62483   8.469  10.503   7.519 -0.1390 -1.4987  3.2513
  453MOL0     H62484   8.550  10.592   7.307  3.7173  1.3727 -1.2245
  453MOL0     H62485   8.671  10.684   7.385  1.3737  1.2301 -0.8835
  453MOL0     H62486   8.479  10.827   7.301  3.2738 -1.0286  0.0684
  453MOL0     H62487   8.375  10.738   7.415  0.0233  1.6387  0.9862
  453MOL0     H62488   8.452  10.827   7.605  2.9509  1.4979  0.6424
  453MOL0     H62489   8.406  10.964   7.506  2.1362  3.7923  1.6889
  453MOL0     H62490   8.615  11.039   7.461  2.5588  3.2634  3.3074
  453MOL0     H62491   8.701  10.894   7.512  1.5835  1.6601  2.0538
  453MOL0     H62492   8.615  10.908   7.731  1.3174  0.8771 -0.2749
  453MOL0     H62493   8.516  11.046   7.711 -0.3873 -3.0363  1.9296
  453MOL0     H62494   9.042  10.231   7.658 -0.2190  1.3621  0.9647
  453MOL0     H62495   9.127  10.042   7.779 -0.7756 -1.2355 -2.4734
  453MOL0     H62496   8.889   9.682   8.101 -0.5071  0.5675 -1.6010
  453MOL0     H62497   8.932   9.495   8.236  0.6859 -4.6609 -0.0934
  453MOL0     H62498   8.236   8.498   9.066 -0.2239  3.1342 -0.6118
  453MOL0     H62499   7.983   8.454   9.048 -2.6327  2.0311  1.2597
  453MOL0     H62500   7.582   8.650   9.322 -1.1499  2.3940 -0.7866
  453MOL0     H62501   7.338   8.590   9.337 -0.1404  1.7004 -1.2725
  453MOL0     H62502   7.112   8.414   8.977  2.9301 -2.9190 -0.8540
  453MOL0     H62503   7.157   8.314   9.111 -2.2762 -1.2018 -2.2695
  453MOL0     H62504   6.952   8.401   9.247  1.2486  1.7500 -0.0410
  453MOL0     H62505   6.902   8.353   9.083  0.2847  1.3853 -2.4186
  453MOL0     H62506   6.819   8.578   9.179 -0.7818  3.4122 -2.2025
  453MOL0     H62507   6.976   8.633   9.109  1.9364 -1.3469  0.1365
  453MOL0     H62508   6.909   8.540   8.892 -2.1303 -1.4571 -0.8545
  453MOL0     H62509   6.806   8.678   8.938 -1.5257 -0.1787 -1.7398
  453MOL0     H62510   6.520   8.394   8.906  0.2271  0.9113 -3.3509
  453MOL0     H62511   7.335   8.422   8.960 -1.7788  3.0184  0.9726
  453MOL0     H62512   7.578   8.528   8.820 -1.9421  1.1174  2.1989
  453MOL0     H62513   7.709   8.430   8.901  0.4269 -1.1064  2.3931
  453MOL0     H62514   7.545   8.364   8.859 -0.9089  0.7173 -1.3958
  454MOL0     O62515   1.455   7.378   0.038 -0.7613  0.2955 -0.3439
  454MOL0     C62516   1.527   7.336   0.131 -0.1721  0.6857  0.5432
  454MOL0     O62517   1.660   7.307   0.117 -0.1623  0.0481  0.6881
  454MOL0     C62518   1.716   7.324  -0.006  0.1326 -1.3668  0.6476
  454MOL0     C62519   1.835   7.398  -0.014 -0.5942  0.2364  0.6694
  454MOL0     C62520   1.897   7.410  -0.139 -0.0311 -0.3034 -0.3616
  454MOL0     C62521   1.847   7.351  -0.255 -0.4852 -0.5058 -0.3913
  454MOL0     O62522   1.927   7.364  -0.369 -0.0919  0.6729  0.3398
  454MOL0     C62523   1.916   7.263  -0.479 -0.4172  0.7067 -0.7468
  454MOL0     C62524   1.983   7.121  -0.451  0.4679  0.2683 -0.9593
  454MOL0     C62525   1.962   7.037  -0.588  0.2015 -0.8604 -1.1645
  454MOL0     C62526   2.007   6.890  -0.555 -0.5637  0.2688  0.0010
  454MOL0     C62527   1.961   6.806  -0.679  0.1498  0.0553 -0.5398
  454MOL0     C62528   2.012   6.660  -0.682 -0.2106 -0.3100  0.2359
  454MOL0     C62529   2.163   6.666  -0.705  0.4835 -0.1340  0.2748
  454MOL0     C62530   2.194   6.516  -0.738 -0.2732 -0.2023 -0.4156
  454MOL0     N62531   2.344   6.497  -0.746 -0.1969  0.1270  0.7465
  454MOL0     C62532   2.431   6.541  -0.841 -0.3101  0.7368  0.1544
  454MOL0     C62533   2.553   6.474  -0.816  1.2492  0.4153  0.4453
  454MOL0     C62534   2.678   6.483  -0.891  0.5477 -0.8701  0.4020
  454MOL0     C62535   2.685   6.378  -0.998 -0.6313 -0.4518  0.2578
  454MOL0     C62536   2.574   6.424  -1.113 -1.7408  0.8218  0.7049
  454MOL0     C62537   2.596   6.335  -1.240  0.5831 -0.4118  0.0694
  454MOL0     O62538   2.695   6.397  -1.328  0.2145  0.1782  0.0630
  454MOL0     C62539   2.741   6.328  -1.437  0.1394 -0.0264  0.7480
  454MOL0     C62540   2.689   6.214  -1.483  0.1394 -0.0477  0.0548
  454MOL0     C62541   2.730   6.142  -1.598  0.3571 -0.6243  0.0984
  454MOL0     C62542   2.642   6.033  -1.645 -0.3389 -0.5106 -0.3821
  454MOL0     C62543   2.831   6.198  -1.674  0.4067  0.1757  0.3037
  454MOL0     C62544   2.885   6.138  -1.800 -0.0999 -0.1180  0.6573
  454MOL0     O62545   3.008   6.179  -1.830 -0.4633  0.3473 -0.2995
  454MOL0     C62546   3.069   6.119  -1.943 -0.2105  0.1055  0.3550
  454MOL0     C62547   3.133   6.001  -1.925 -0.4714  0.2129 -0.2969
  454MOL0     C62548   3.219   5.938  -2.021 -0.0624  0.3395  0.4370
  454MOL0     C62549   3.236   6.002  -2.140  0.3261 -0.7817  0.6678
  454MOL0     O62550   3.335   5.956  -2.235  0.6127 -0.5734  0.0480
  454MOL0     C62551   3.438   5.859  -2.196 -0.5203  0.1191  0.4720
  454MOL0     C62552   3.491   5.787  -2.328 -0.1328 -1.2487 -0.1227
  454MOL0     C62553   3.388   5.692  -2.391  0.0960  0.5917  0.8562
  454MOL0     C62554   3.429   5.611  -2.507  0.4922  0.3658  0.1878
  454MOL0     C62555   3.468   5.697  -2.629 -0.1566 -0.2102  0.1725
  454MOL0     C62556   3.512   5.602  -2.741 -0.2003  0.4615  0.7628
  454MOL0     C62557   3.535   5.689  -2.859 -0.5728  0.1885 -0.4976
  454MOL0     C62558   3.537   5.616  -2.994 -0.5648  0.1323  0.0657
  454MOL0    Cl62559   3.542   5.732  -3.138  0.6710  0.2336 -0.3178
  454MOL0     C62560   3.156   6.115  -2.165 -0.4908 -0.0324  0.1442
  454MOL0     C62561   3.073   6.178  -2.068 -0.0724  0.8482  0.4618
  454MOL0     O62562   2.820   6.064  -1.873  0.4817  0.3396  0.0398
  454MOL0     C62563   2.888   6.318  -1.621 -0.0154 -0.2963  0.3390
  454MOL0     C62564   2.850   6.376  -1.503 -0.8351 -0.2632 -0.5943
  454MOL0     N62565   2.523   6.371  -0.719 -0.4741 -0.3585  0.6232
  454MOL0     N62566   2.397   6.380  -0.685 -0.7142 -0.2101  0.8061
  454MOL0     C62567   1.726   7.287  -0.248  0.4483 -0.5532 -0.1152
  454MOL0     C62568   1.671   7.263  -0.127  0.3059 -0.5320  0.1820
  454MOL0     C62569   1.461   7.287   0.257  0.2206  0.8814 -0.8267
  454MOL0     C62570   1.521   7.186   0.340  0.2649 -0.6416  0.0586
  454MOL0     C62571   1.464   7.145   0.462 -0.3987  1.1212  0.9994
  454MOL0     C62572   1.347   7.198   0.515 -1.2893 -0.8337 -0.8997
  454MOL0     O62573   1.285   7.166   0.635 -0.0836 -0.2005  0.3666
  454MOL0     C62574   1.361   7.189   0.758 -0.5961  0.7111 -0.2589
  454MOL0     C62575   1.343   7.337   0.802 -0.3217 -0.2168  0.0131
  454MOL0     C62576   1.203   7.399   0.796 -0.0412  0.0155  0.6101
  454MOL0     C62577   1.086   7.319   0.853 -0.6052  0.3196 -0.0740
  454MOL0     C62578   0.969   7.394   0.832  0.6077 -0.6873 -0.1004
  454MOL0     C62579   0.871   7.460   0.797  0.2477 -0.0090 -0.2071
  454MOL0     C62580   1.288   7.283   0.432  0.5534 -0.0972  1.1375
  454MOL0     C62581   1.333   7.329   0.307 -0.2868 -0.2311  1.7888
  454MOL0     C62582   1.254   7.445   0.240 -0.0403  1.0544 -0.1664
  454MOL0     H62583   1.864   7.437   0.083  1.0071 -0.4783  0.5104
  454MOL0     H62584   1.991   7.461  -0.151 -1.1319  1.2805 -3.1301
  454MOL0     H62585   1.963   7.296  -0.573  1.5434 -1.5711 -0.6704
  454MOL0     H62586   1.809   7.246  -0.492 -0.3548 -2.6408  1.7819
  454MOL0     H62587   2.089   7.125  -0.423  0.6271 -1.7843 -1.1244
  454MOL0     H62588   1.922   7.090  -0.366 -0.4500  2.7080 -0.6394
  454MOL0     H62589   1.855   7.038  -0.612  0.4105 -0.8100 -2.1538
  454MOL0     H62590   2.016   7.086  -0.670  0.3591 -1.8442 -1.6520
  454MOL0     H62591   2.115   6.893  -0.538 -0.7742  1.0848  1.3341
  454MOL0     H62592   1.962   6.844  -0.467 -0.6516 -2.5198 -1.3646
  454MOL0     H62593   1.987   6.863  -0.768  2.6045 -2.1737 -1.3876
  454MOL0     H62594   1.852   6.809  -0.677  0.1308 -0.3603  1.3406
  454MOL0     H62595   1.988   6.614  -0.586  1.5563 -0.8834  0.4536
  454MOL0     H62596   1.961   6.605  -0.761 -0.6086 -3.1112  2.2803
  454MOL0     H62597   2.203   6.694  -0.607 -4.7913 -0.2852  2.7773
  454MOL0     H62598   2.188   6.730  -0.790  0.2793 -2.0695 -1.3347
  454MOL0     H62599   2.151   6.442  -0.669  2.8917 -0.5032  1.4158
  454MOL0     H62600   2.158   6.481  -0.835  0.4195 -1.5089 -0.2148
  454MOL0     H62601   2.406   6.609  -0.921 -0.0674  2.0237  1.1409
  454MOL0     H62602   2.757   6.471  -0.815  0.7621  3.3407  1.0968
  454MOL0     H62603   2.684   6.578  -0.944 -0.4284 -0.4637  0.9929
  454MOL0     H62604   2.784   6.379  -1.045  0.0277  0.4578  1.5999
  454MOL0     H62605   2.653   6.284  -0.954 -0.6092 -0.4270  0.3262
  454MOL0     H62606   2.481   6.392  -1.065 -2.3192  0.1579 -0.8192
  454MOL0     H62607   2.574   6.533  -1.125  2.6859  1.0292  0.8197
  454MOL0     H62608   2.630   6.233  -1.214 -1.2947 -1.5634 -1.7435
  454MOL0     H62609   2.501   6.324  -1.291  0.3882  0.4416  0.2361
  454MOL0     H62610   2.605   6.175  -1.426  0.1443  0.0923  0.1593
  454MOL0     H62611   2.601   6.059  -1.743 -1.1445 -1.1294 -0.2161
  454MOL0     H62612   2.554   6.029  -1.581 -1.3659 -1.1843 -1.7975
  454MOL0     H62613   2.700   5.942  -1.627  1.5711  0.9928  1.6981
  454MOL0     H62614   3.113   5.950  -1.831 -0.0719 -3.4396 -2.0172
  454MOL0     H62615   3.275   5.848  -1.997 -1.0023 -0.0823  1.1003
  454MOL0     H62616   3.533   5.898  -2.159  0.3476  1.2407 -2.6157
  454MOL0     H62617   3.398   5.781  -2.130  1.9287 -0.1689  1.7165
  454MOL0     H62618   3.503   5.869  -2.399  0.0779 -2.9114 -2.0873
  454MOL0     H62619   3.583   5.730  -2.321  0.0498 -1.4722 -3.0813
  454MOL0     H62620   3.311   5.749  -2.444  1.3184  0.0376 -1.6206
  454MOL0     H62621   3.338   5.635  -2.311  1.4976 -0.4437  1.0250
  454MOL0     H62622   3.358   5.532  -2.529 -1.2368  0.9659  3.0522
  454MOL0     H62623   3.507   5.543  -2.471  2.4754  0.0763 -4.0547
  454MOL0     H62624   3.382   5.757  -2.657  0.5468  0.6405 -0.2220
  454MOL0     H62625   3.553   5.762  -2.603  0.1666  0.6028 -2.5998
  454MOL0     H62626   3.448   5.517  -2.765  2.3881 -0.7116 -3.0813
  454MOL0     H62627   3.610   5.561  -2.713 -0.6385 -0.0577  1.5649
  454MOL0     H62628   3.622   5.750  -2.834 -1.8042  1.4813  0.8738
  454MOL0     H62629   3.455   5.763  -2.865  0.4167  1.4208  0.7647
  454MOL0     H62630   3.440   5.567  -3.006 -1.5435  2.1004 -0.5005
  454MOL0     H62631   3.612   5.537  -2.990 -0.3824  0.3398  1.9148
  454MOL0     H62632   3.166   6.165  -2.260 -1.1625 -2.3403 -1.2202
  454MOL0     H62633   3.029   6.274  -2.094 -1.1136  0.4904  0.8407
  454MOL0     H62634   2.975   6.360  -1.669 -0.1880 -2.0904 -1.7126
  454MOL0     H62635   2.904   6.461  -1.461  1.9572 -2.5790  0.8331
  454MOL0     H62636   1.686   7.246  -0.340  3.0564  1.6876 -2.4399
  454MOL0     H62637   1.586   7.195  -0.123 -1.2221  1.0588 -2.2943
  454MOL0     H62638   1.610   7.126   0.323 -1.1718 -2.4961 -1.4268
  454MOL0     H62639   1.524   7.070   0.513  2.1696  0.4361 -2.5853
  454MOL0     H62640   1.332   7.120   0.837  2.5894 -2.3900 -1.5207
  454MOL0     H62641   1.466   7.172   0.734 -0.8259 -1.5068  0.1333
  454MOL0     H62642   1.393   7.405   0.731  0.6882  0.0442  0.9569
  454MOL0     H62643   1.382   7.348   0.903 -0.7074  2.3076 -0.0367
  454MOL0     H62644   1.203   7.500   0.839 -1.1424  1.1833 -1.8699
  454MOL0     H62645   1.179   7.408   0.689 -1.8272  1.8387  1.0940
  454MOL0     H62646   1.098   7.316   0.962  2.2022  1.8291 -0.2704
  454MOL0     H62647   1.071   7.219   0.810  0.3584 -0.3515  1.0937
  454MOL0     H62648   0.797   7.523   0.750  0.1182 -0.9184 -1.2789
  454MOL0     H62649   1.192   7.322   0.466 -1.6382 -0.8606 -3.4131
  454MOL0     H62650   1.169   7.469   0.305  0.4434  0.4395  0.7208
  454MOL0     H62651   1.324   7.529   0.236  0.7990  0.4280  0.7700
  454MOL0     H62652   1.225   7.426   0.136 -1.6527  0.3177  0.3900
  455MOL0     O62653   9.666  10.644   6.240  0.7305 -0.3134  0.5213
  455MOL0     C62654   9.663  10.631   6.119  0.7341 -0.0185 -0.1633
  455MOL0     O62655   9.776  10.619   6.041 -0.6795  0.3038  0.6293
  455MOL0     C62656   9.899  10.664   6.072 -0.0601 -1.3810  0.0165
  455MOL0     C62657   9.917  10.772   6.167 -0.0013  0.6532 -0.2360
  455MOL0     C62658  10.049  10.809   6.205  0.3240  0.2291  0.1011
  455MOL0     C62659  10.166  10.739   6.161  0.5683 -0.3285  0.0714
  455MOL0     O62660  10.286  10.783   6.207  0.5239 -0.0375 -0.1826
  455MOL0     C62661  10.373  10.690   6.260 -0.8491  0.7599 -0.0557
  455MOL0     C62662  10.522  10.728   6.218  0.2884  0.0568  0.1058
  455MOL0     C62663  10.635  10.692   6.320  0.1198 -0.0501  0.4858
  455MOL0     C62664  10.767  10.730   6.261  0.2127 -0.0807 -0.3518
  455MOL0     C62665  10.887  10.704   6.361  0.6219  0.1515 -0.3514
  455MOL0     C62666  11.027  10.732   6.320  0.7782  1.0600 -0.1010
  455MOL0     C62667  11.084  10.592   6.275  0.8397 -0.4447  0.0798
  455MOL0     C62668  11.204  10.637   6.181 -0.1374  0.1809 -0.8307
  455MOL0     N62669  11.263  10.527   6.114 -0.0379 -0.5758 -0.8894
  455MOL0     C62670  11.211  10.468   6.002 -0.6402 -0.1200  0.3064
  455MOL0     C62671  11.317  10.390   5.956  0.2321  0.7762 -0.0441
  455MOL0     C62672  11.311  10.290   5.847 -0.0213 -0.1136 -0.1402
  455MOL0     C62673  11.317  10.353   5.706  0.6686  0.2338 -0.7174
  455MOL0     C62674  11.455  10.407   5.652  0.0201  0.3195 -0.3091
  455MOL0     C62675  11.432  10.453   5.506  0.3065  0.4727  0.4905
  455MOL0     O62676  11.382  10.582   5.512  0.2662  0.3348 -0.5940
  455MOL0     C62677  11.318  10.638   5.402 -0.1942  1.0643  0.6109
  455MOL0     C62678  11.346  10.590   5.271  0.6977 -0.4456 -0.3448
  455MOL0     C62679  11.284  10.645   5.162  0.8721  0.2930  0.4351
  455MOL0     C62680  11.295  10.559   5.043 -0.7223  0.0499 -0.2986
  455MOL0     C62681  11.213  10.768   5.169  0.5020  0.0405 -0.2918
  455MOL0     C62682  11.138  10.845   5.064 -0.6050  1.2693  0.0866
  455MOL0     O62683  11.049  10.943   5.100 -1.0398 -0.4384  0.0597
  455MOL0     C62684  10.969  10.991   5.005  0.1426 -0.1001  1.1789
  455MOL0     C62685  10.856  10.924   4.966 -0.1094  0.1315  0.2698
  455MOL0     C62686  10.757  10.978   4.882  0.7152 -0.4666 -0.4114
  455MOL0     C62687  10.771  11.108   4.842 -0.1459 -0.4503  0.6663
  455MOL0     O62688  10.677  11.188   4.780  0.7112  0.5069 -0.4116
  455MOL0     C62689  10.541  11.161   4.826 -0.6034  0.3807  0.3254
  455MOL0     C62690  10.507  11.167   4.977 -0.0703  0.3798 -0.2247
  455MOL0     C62691  10.378  11.097   4.999 -0.4952  0.5405  0.1080
  455MOL0     C62692  10.249  11.143   4.926  0.0803 -0.6455  0.4182
  455MOL0     C62693  10.123  11.063   4.968 -0.2873  0.3814  0.0478
  455MOL0     C62694  10.104  10.930   4.896 -0.2850  0.5180  0.5288
  455MOL0     C62695   9.991  10.839   4.950  0.8770  0.0135  0.0451
  455MOL0     C62696   9.858  10.903   4.937  0.1728  0.3901 -0.5037
  455MOL0    Cl62697   9.732  10.817   5.023  0.5586 -0.1809 -0.0326
  455MOL0     C62698  10.889  11.182   4.877  0.0600  0.0265 -1.1307
  455MOL0     C62699  10.985  11.120   4.961  0.2129 -0.3058  0.1320
  455MOL0     O62700  11.154  10.807   4.952 -0.0043  0.3286  1.1353
  455MOL0     C62701  11.191  10.812   5.302  0.3901 -0.7060  0.2167
  455MOL0     C62702  11.241  10.755   5.415  0.0798  0.8510  0.1821
  455MOL0     N62703  11.418  10.399   6.052 -0.4359 -0.7694  0.8439
  455MOL0     N62704  11.382  10.481   6.144 -0.7664  0.7332 -0.6454
  455MOL0     C62705  10.134  10.633   6.075  0.4125  0.7498  0.4465
  455MOL0     C62706  10.010  10.609   6.017  0.5186  0.5200  0.9842
  455MOL0     C62707   9.538  10.594   6.055  0.1131 -0.4088  0.3577
  455MOL0     C62708   9.538  10.541   5.930  1.1923  0.3845  0.2127
  455MOL0     C62709   9.424  10.536   5.851  0.2317 -0.9401  0.3078
  455MOL0     C62710   9.297  10.573   5.900 -0.0852 -0.2946  0.9591
  455MOL0     O62711   9.183  10.576   5.813 -0.3963 -0.0350 -0.7268
  455MOL0     C62712   9.193  10.487   5.700 -0.0691 -1.1168  0.3610
  455MOL0     C62713   9.053  10.445   5.652  0.2034  0.3820 -0.4941
  455MOL0     C62714   8.956  10.570   5.630 -0.3298 -0.0902  1.0485
  455MOL0     C62715   8.834  10.551   5.538 -0.5387  0.8473  0.5602
  455MOL0     C62716   8.877  10.491   5.406 -1.0905 -0.7617  0.2151
  455MOL0     C62717   8.918  10.458   5.296 -0.2618 -0.5040  0.3924
  455MOL0     C62718   9.293  10.626   6.027 -0.8252 -0.5184 -0.3897
  455MOL0     C62719   9.409  10.638   6.105  0.1845  0.0218 -0.2287
  455MOL0     C62720   9.380  10.684   6.252 -0.2530 -0.1957 -0.0747
  455MOL0     H62721   9.834  10.820   6.218  1.5950 -0.3764  3.6835
  455MOL0     H62722  10.075  10.885   6.277 -0.8477  0.7183  0.0333
  455MOL0     H62723  10.356  10.588   6.225 -0.9604  1.1986 -1.3037
  455MOL0     H62724  10.374  10.683   6.370  1.0339 -1.4156 -0.1196
  455MOL0     H62725  10.536  10.679   6.121 -1.4819 -3.3093  1.3455
  455MOL0     H62726  10.531  10.835   6.200 -2.8616  0.4484  0.2634
  455MOL0     H62727  10.619  10.746   6.415  2.2596  0.3407  0.6622
  455MOL0     H62728  10.634  10.584   6.338  0.4201 -0.3581 -1.2233
  455MOL0     H62729  10.788  10.681   6.165  2.4278  2.0030 -1.0273
  455MOL0     H62730  10.763  10.837   6.240 -1.6433 -0.2793 -1.2386
  455MOL0     H62731  10.888  10.602   6.399 -1.1838  0.7502  1.4745
  455MOL0     H62732  10.859  10.768   6.445 -3.1650 -0.8446 -0.6837
  455MOL0     H62733  11.026  10.810   6.243 -2.0060 -0.3396 -1.6714
  455MOL0     H62734  11.095  10.754   6.403 -0.0260  1.0042  0.5889
  455MOL0     H62735  11.020  10.529   6.211 -2.4043  3.1711 -0.6678
  455MOL0     H62736  11.111  10.532   6.362  1.2959 -1.3770 -0.6856
  455MOL0     H62737  11.166  10.704   6.103 -1.2133  1.2006  0.5145
  455MOL0     H62738  11.276  10.691   6.243 -0.0654 -2.3617  1.5178
  455MOL0     H62739  11.114  10.486   5.957  0.2799 -0.9605 -2.2035
  455MOL0     H62740  11.210  10.249   5.857 -1.1498  2.6718  0.6061
  455MOL0     H62741  11.393  10.219   5.863 -1.0998 -0.9998  1.9295
  455MOL0     H62742  11.280  10.276   5.638 -2.0928 -0.7936  1.7648
  455MOL0     H62743  11.241  10.430   5.691  2.2090  1.7814 -0.8952
  455MOL0     H62744  11.486  10.489   5.718 -0.5205  0.0024  0.3433
  455MOL0     H62745  11.529  10.326   5.649  0.4639  0.7239 -0.4021
  455MOL0     H62746  11.525  10.449   5.448  0.8489 -0.6957  1.4060
  455MOL0     H62747  11.366  10.386   5.450  0.6196  2.1546 -2.0626
  455MOL0     H62748  11.400  10.496   5.263 -2.1123 -2.0681 -2.2568
  455MOL0     H62749  11.363  10.475   5.062 -2.2548 -0.7256  2.1633
  455MOL0     H62750  11.332  10.624   4.964 -0.8676 -0.1305 -0.5192
  455MOL0     H62751  11.207  10.503   5.008 -0.6068  0.2936 -1.0072
  455MOL0     H62752  10.845  10.825   5.008 -1.3014  0.2497  0.2594
  455MOL0     H62753  10.669  10.925   4.846 -0.3100  1.1915 -0.4366
  455MOL0     H62754  10.493  11.242   4.770  0.1824  1.7485  1.5800
  455MOL0     H62755  10.509  11.062   4.790 -2.0285  0.9980 -0.2035
  455MOL0     H62756  10.581  11.107   5.031  1.2337  2.1431  0.0562
  455MOL0     H62757  10.494  11.270   5.013  1.0234  0.9309 -1.3200
  455MOL0     H62758  10.372  11.115   5.107 -2.0197  1.2225 -0.0691
  455MOL0     H62759  10.389  10.989   4.985 -2.7189  0.5872 -2.8897
  455MOL0     H62760  10.262  11.133   4.818  0.6572 -0.5012  0.4666
  455MOL0     H62761  10.235  11.249   4.951  0.2661 -0.3554 -0.6193
  455MOL0     H62762  10.119  11.042   5.076  0.4151 -1.7650 -0.2964
  455MOL0     H62763  10.035  11.124   4.944 -1.0320 -0.5684  0.2871
  455MOL0     H62764  10.192  10.865   4.903 -0.1851  0.3967 -1.3299
  455MOL0     H62765  10.087  10.951   4.790  0.6264  1.3483  0.5329
  455MOL0     H62766  10.002  10.817   5.056 -0.2839  1.0027  0.3978
  455MOL0     H62767   9.990  10.737   4.911  0.3105 -0.6075  1.6314
  455MOL0     H62768   9.827  10.921   4.833 -2.5042 -2.3269 -0.3370
  455MOL0     H62769   9.864  10.998   4.991  1.5690  0.5498 -0.9172
  455MOL0     H62770  10.890  11.283   4.839  0.4124  1.0256  1.3114
  455MOL0     H62771  11.077  11.172   4.988  1.1278  0.5473 -3.9442
  455MOL0     H62772  11.127  10.897   5.326 -0.9065 -0.9085 -2.2118
  455MOL0     H62773  11.232  10.781   5.520 -0.1359 -0.9248  0.6479
  455MOL0     H62774  10.218  10.574   6.041 -2.2158 -1.8083 -2.3085
  455MOL0     H62775   9.982  10.540   5.938 -1.9430  1.5426  0.8697
  455MOL0     H62776   9.626  10.496   5.886  1.1183  0.4440  0.0004
  455MOL0     H62777   9.449  10.504   5.750 -0.9758  0.0882 -0.3393
  455MOL0     H62778   9.237  10.555   5.626  1.7454  0.1471  2.4846
  455MOL0     H62779   9.245  10.392   5.715 -1.8614 -1.9653  1.6616
  455MOL0     H62780   9.020  10.371   5.726 -1.5195  1.4402 -0.1386
  455MOL0     H62781   9.059  10.381   5.564  4.4142 -2.1847  1.3950
  455MOL0     H62782   8.911  10.597   5.726 -1.2191  2.7961 -0.0751
  455MOL0     H62783   9.021  10.648   5.588 -1.0299  0.4365  0.9223
  455MOL0     H62784   8.776  10.644   5.531 -0.9272  0.5685 -0.1041
  455MOL0     H62785   8.758  10.490   5.588 -0.5592  0.7794  0.4481
  455MOL0     H62786   8.939  10.440   5.193 -4.4524 -1.7245 -0.4379
  455MOL0     H62787   9.198  10.670   6.056 -0.1819  0.7816 -0.1712
  455MOL0     H62788   9.434  10.625   6.327 -1.0261  1.3070  1.7490
  455MOL0     H62789   9.417  10.785   6.268  2.9918 -1.6313  2.7827
  455MOL0     H62790   9.272  10.676   6.268 -0.3440  0.6234 -0.2262
  456MOL0     O62791   2.231   6.092   4.392  0.5306 -0.2335  0.4700
  456MOL0     C62792   2.282   6.081   4.504  0.2012  0.0006  0.6041
  456MOL0     O62793   2.283   5.970   4.572  0.2133  0.1326  0.2125
  456MOL0     C62794   2.222   5.858   4.522 -0.1025 -1.1349 -0.4924
  456MOL0     C62795   2.288   5.764   4.443 -0.5318  0.3048  0.1941
  456MOL0     C62796   2.220   5.655   4.387  0.5454 -0.7045 -0.2459
  456MOL0     C62797   2.082   5.643   4.404 -0.1996  0.1021 -0.4731
  456MOL0     O62798   2.012   5.540   4.357  0.5213 -0.2106 -0.1364
  456MOL0     C62799   2.038   5.412   4.431  0.9157 -0.0222  0.4819
  456MOL0     C62800   1.957   5.395   4.558  1.1285  0.2268 -0.9573
  456MOL0     C62801   1.925   5.244   4.593 -0.1413  0.2748  0.1702
  456MOL0     C62802   2.051   5.177   4.637 -0.9460 -1.0543 -0.0246
  456MOL0     C62803   2.040   5.029   4.634  0.6782  0.3011 -0.5177
  456MOL0     C62804   2.153   4.970   4.725  0.4784 -0.3049  0.2178
  456MOL0     C62805   2.149   4.813   4.734 -0.2429 -0.2463 -0.3242
  456MOL0     C62806   2.281   4.774   4.796 -0.0680  0.6789  0.0518
  456MOL0     N62807   2.391   4.771   4.701  0.2428  0.6633 -0.6351
  456MOL0     C62808   2.425   4.672   4.608 -0.2513  0.3955  0.5400
  456MOL0     C62809   2.552   4.708   4.560  0.7677 -1.0325  0.4871
  456MOL0     C62810   2.626   4.651   4.445 -0.8171 -1.2447 -0.0665
  456MOL0     C62811   2.655   4.505   4.476 -0.2282  1.3343  0.3437
  456MOL0     C62812   2.783   4.454   4.394  0.5487  0.2274  0.1395
  456MOL0     C62813   2.812   4.306   4.399 -0.4465  0.0337  0.0105
  456MOL0     O62814   2.695   4.221   4.409  0.4607 -0.4072 -0.4146
  456MOL0     C62815   2.619   4.170   4.307 -0.5167  0.6406 -0.3743
  456MOL0     C62816   2.652   4.185   4.172 -0.4872 -0.3005 -0.3752
  456MOL0     C62817   2.574   4.124   4.070 -0.4257 -0.5127 -0.3332
  456MOL0     C62818   2.617   4.150   3.923 -0.0381  0.3238  0.0825
  456MOL0     C62819   2.462   4.038   4.100  0.1362 -0.1144  0.5012
  456MOL0     C62820   2.373   3.979   3.993  0.0359  0.3809  0.0007
  456MOL0     O62821   2.399   4.001   3.857 -0.3138  0.7681 -0.3942
  456MOL0     C62822   2.299   3.955   3.778 -0.6952 -0.5147 -0.6497
  456MOL0     C62823   2.308   3.824   3.730  1.0339  0.7258  1.3588
  456MOL0     C62824   2.197   3.782   3.652  0.0478  0.3097 -0.3393
  456MOL0     C62825   2.084   3.854   3.628 -0.4570  0.4029  0.0221
  456MOL0     O62826   1.981   3.803   3.550 -0.5527 -0.2179  0.4724
  456MOL0     C62827   1.913   3.903   3.468 -0.9526  0.1641 -0.5004
  456MOL0     C62828   1.821   3.832   3.378  1.0038 -0.1394  0.4882
  456MOL0     C62829   1.686   3.802   3.451  0.0423  0.4470  0.6159
  456MOL0     C62830   1.630   3.910   3.537 -0.1431  0.3951  0.3203
  456MOL0     C62831   1.476   3.924   3.551  0.6829  1.0648  0.5245
  456MOL0     C62832   1.421   3.793   3.602 -0.2451 -1.3251  0.2574
  456MOL0     C62833   1.269   3.790   3.610 -0.0782  0.4068  1.0580
  456MOL0     C62834   1.211   3.683   3.697  0.0290 -0.1653  0.3648
  456MOL0    Cl62835   1.262   3.705   3.861 -0.0830  0.2951 -0.3536
  456MOL0     C62836   2.073   3.981   3.689 -0.5498  0.0277 -0.1891
  456MOL0     C62837   2.179   4.035   3.758  0.0181 -0.3282  0.1098
  456MOL0     O62838   2.282   3.915   4.046  0.1923 -0.3937 -0.2656
  456MOL0     C62839   2.437   4.019   4.240  0.0466  0.1085 -0.0633
  456MOL0     C62840   2.514   4.085   4.341  1.2522 -0.5545 -0.6217
  456MOL0     N62841   2.590   4.830   4.617 -0.7704 -0.7214  0.2385
  456MOL0     N62842   2.495   4.861   4.697  0.2003  0.0175  0.2446
  456MOL0     C62843   2.019   5.731   4.496 -0.0903 -0.5254 -1.3043
  456MOL0     C62844   2.086   5.836   4.553  0.7506 -0.0690 -0.6709
  456MOL0     C62845   2.350   6.202   4.567  0.3325  0.3391  0.4459
  456MOL0     C62846   2.456   6.173   4.659  0.3097 -0.9648 -0.7370
  456MOL0     C62847   2.522   6.279   4.730  0.2615  0.6567  0.0546
  456MOL0     C62848   2.480   6.408   4.696  1.3324 -0.1026 -0.0986
  456MOL0     O62849   2.529   6.523   4.761  0.2124 -0.3524 -0.2994
  456MOL0     C62850   2.524   6.541   4.903  0.5556 -0.2181 -0.2794
  456MOL0     C62851   2.390   6.588   4.941  0.3127  0.3185  0.4923
  456MOL0     C62852   2.371   6.739   4.906  0.0713 -0.8735  0.6288
  456MOL0     C62853   2.224   6.777   4.939  0.5129  0.1813  0.8330
  456MOL0     C62854   2.184   6.803   5.077 -1.5421 -0.7175 -0.2040
  456MOL0     C62855   2.133   6.808   5.184  0.0166 -0.2194 -1.1961
  456MOL0     C62856   2.386   6.436   4.604  0.5652 -0.0889 -1.8930
  456MOL0     C62857   2.317   6.333   4.547 -0.4459  0.2949 -0.1529
  456MOL0     C62858   2.194   6.368   4.468  0.4655 -0.1502 -0.5920
  456MOL0     H62859   2.393   5.785   4.426 -0.2460 -1.2327 -0.0916
  456MOL0     H62860   2.280   5.593   4.321  2.1414  0.5401 -0.0403
  456MOL0     H62861   2.143   5.400   4.458  1.1071  3.2241  1.5470
  456MOL0     H62862   2.015   5.325   4.367  2.3567  1.8015 -2.7759
  456MOL0     H62863   2.001   5.434   4.650 -1.0768 -2.5879  1.5374
  456MOL0     H62864   1.862   5.449   4.555  0.2797 -1.1589 -0.2682
  456MOL0     H62865   1.860   5.235   4.681 -1.2753  0.0476 -0.6622
  456MOL0     H62866   1.878   5.194   4.508  1.3733  1.2700 -1.3311
  456MOL0     H62867   2.132   5.195   4.566 -1.4241  0.7452 -0.1588
  456MOL0     H62868   2.080   5.222   4.732  2.8407  0.6515 -1.7803
  456MOL0     H62869   2.059   4.985   4.536  1.7274 -0.4435 -0.0011
  456MOL0     H62870   1.945   4.992   4.675  1.0635 -1.4323 -1.0940
  456MOL0     H62871   2.251   5.012   4.704  0.3780 -0.0441  0.2753
  456MOL0     H62872   2.137   5.007   4.826 -0.6070 -0.3431  0.0747
  456MOL0     H62873   2.127   4.769   4.636  2.6057  0.4617 -1.3775
  456MOL0     H62874   2.066   4.780   4.797  2.4905 -2.3728  2.4815
  456MOL0     H62875   2.310   4.846   4.873  1.2130 -0.7007  0.8902
  456MOL0     H62876   2.273   4.670   4.828 -1.2459  0.4473 -0.8989
  456MOL0     H62877   2.373   4.580   4.586  2.8166 -0.8885 -2.2367
  456MOL0     H62878   2.713   4.713   4.422 -0.1839 -1.5904  1.3230
  456MOL0     H62879   2.556   4.654   4.360 -1.0440  4.3209 -0.0859
  456MOL0     H62880   2.684   4.483   4.580  6.6134 -0.5416 -1.4048
  456MOL0     H62881   2.564   4.450   4.454  1.7588 -1.9940 -0.2720
  456MOL0     H62882   2.764   4.476   4.289  1.4339  0.4450  0.0215
  456MOL0     H62883   2.873   4.504   4.431 -0.9840  1.9961  1.7191
  456MOL0     H62884   2.869   4.276   4.311  0.1772  1.4955 -0.1070
  456MOL0     H62885   2.877   4.288   4.485 -0.4058 -1.8937 -0.3719
  456MOL0     H62886   2.732   4.253   4.146  0.5492 -1.8742 -1.4682
  456MOL0     H62887   2.637   4.056   3.869  0.7450  0.6771 -0.2680
  456MOL0     H62888   2.714   4.200   3.914 -0.4683  0.8715 -2.0070
  456MOL0     H62889   2.545   4.216   3.874  1.0082  1.9915  0.7147
  456MOL0     H62890   2.402   3.770   3.742  1.4453  0.7303 -1.3378
  456MOL0     H62891   2.187   3.687   3.601  2.2689 -0.3732  0.3624
  456MOL0     H62892   1.863   3.985   3.521 -0.0008  0.5644 -0.1834
  456MOL0     H62893   1.993   3.960   3.419 -0.3995  2.0312  2.2972
  456MOL0     H62894   1.804   3.896   3.291 -0.3471 -1.7321 -0.4849
  456MOL0     H62895   1.861   3.736   3.344 -2.7635 -1.6382 -0.2789
  456MOL0     H62896   1.701   3.710   3.509  2.4214  0.0617 -0.4960
  456MOL0     H62897   1.619   3.764   3.372  1.1898  1.9904 -1.1697
  456MOL0     H62898   1.648   4.004   3.484 -1.6906 -0.6376 -2.2735
  456MOL0     H62899   1.677   3.915   3.635  0.3560 -1.4812  0.2107
  456MOL0     H62900   1.453   4.012   3.612  0.1741  1.0442  0.3612
  456MOL0     H62901   1.437   3.941   3.451 -0.0066  0.0709  0.6138
  456MOL0     H62902   1.462   3.777   3.702  2.5873  0.6917 -0.4549
  456MOL0     H62903   1.460   3.712   3.539  3.5545  1.2789 -1.1004
  456MOL0     H62904   1.228   3.777   3.509  1.8393  1.4719  0.0956
  456MOL0     H62905   1.243   3.887   3.654  0.9055 -0.1964  3.0528
  456MOL0     H62906   1.237   3.577   3.687  1.0019  0.0640  0.3472
  456MOL0     H62907   1.103   3.698   3.704  0.3951  2.2511  1.6665
  456MOL0     H62908   1.981   4.038   3.692 -0.8120 -0.2012 -2.3095
  456MOL0     H62909   2.162   4.135   3.799 -0.3482  0.1920 -1.2534
  456MOL0     H62910   2.369   3.938   4.266  1.3927 -0.4556  1.8883
  456MOL0     H62911   2.507   4.077   4.449  1.1771  0.8019 -0.5089
  456MOL0     H62912   1.911   5.717   4.501  0.2186 -3.1536 -0.3589
  456MOL0     H62913   2.027   5.901   4.616 -0.6246 -1.4700 -0.4394
  456MOL0     H62914   2.486   6.074   4.690  1.7001  0.1001  1.5384
  456MOL0     H62915   2.599   6.258   4.802  0.7131  0.6733 -0.4171
  456MOL0     H62916   2.570   6.454   4.950 -3.1635 -2.0125  0.4498
  456MOL0     H62917   2.590   6.621   4.937 -0.0826 -0.4025  1.5287
  456MOL0     H62918   2.366   6.567   5.046  0.9162 -0.1493  0.5462
  456MOL0     H62919   2.313   6.526   4.894 -1.2260  0.7590  2.3264
  456MOL0     H62920   2.438   6.806   4.961  1.2682  0.2974 -2.0787
  456MOL0     H62921   2.381   6.747   4.798 -2.3879 -1.2864  0.3216
  456MOL0     H62922   2.160   6.701   4.894  0.0501  1.6502 -1.1358
  456MOL0     H62923   2.199   6.858   4.869  0.2225 -1.8980 -1.6406
  456MOL0     H62924   2.082   6.819   5.278 -0.3239 -2.8940 -1.0055
  456MOL0     H62925   2.371   6.540   4.576 -0.9178  0.0555 -0.6885
  456MOL0     H62926   2.111   6.307   4.502  0.3104 -0.9741 -2.3435
  456MOL0     H62927   2.168   6.474   4.474 -1.4130 -0.3864 -3.1736
  456MOL0     H62928   2.209   6.337   4.364  1.3731 -2.5122  0.1865
  457MOL0     O62929   4.121   0.612   9.754 -0.3296  0.1251 -0.4349
  457MOL0     C62930   4.191   0.674   9.679 -0.5313  0.5809  1.6145
  457MOL0     O62931   4.289   0.757   9.710 -0.1369 -1.0396  0.3088
  457MOL0     C62932   4.349   0.764   9.832 -0.4881  0.2349 -0.1628
  457MOL0     C62933   4.387   0.650   9.904 -0.7174  0.6974  0.0874
  457MOL0     C62934   4.469   0.653  10.018 -0.1473 -0.4956 -0.1156
  457MOL0     C62935   4.502   0.774  10.079  0.9022 -0.5549  0.0447
  457MOL0     O62936   4.582   0.770  10.192 -0.3311  0.0711  0.3363
  457MOL0     C62937   4.654   0.884  10.235  0.4180 -0.6756  0.2205
  457MOL0     C62938   4.741   0.847  10.347  0.1658 -0.4155 -0.6754
  457MOL0     C62939   4.841   0.962  10.384  0.5893 -0.7718 -0.8723
  457MOL0     C62940   4.968   0.924  10.451  0.5852  0.1643 -0.8838
  457MOL0     C62941   5.026   1.056  10.520 -0.9539  0.6752  0.2314
  457MOL0     C62942   4.932   1.118  10.625  0.0630 -0.4950  0.6237
  457MOL0     C62943   5.000   1.181  10.738 -0.3603 -0.1850 -1.4488
  457MOL0     C62944   5.068   1.313  10.711  0.8417  0.4777 -1.0330
  457MOL0     N62945   5.121   1.357  10.844 -0.4648  0.2269  0.2070
  457MOL0     C62946   5.248   1.374  10.883 -1.1606  0.4429  0.8649
  457MOL0     C62947   5.248   1.365  11.014 -0.5078 -0.5254 -0.0500
  457MOL0     C62948   5.372   1.364  11.107  0.0045  1.1774 -0.0861
  457MOL0     C62949   5.385   1.463  11.230 -0.5253  0.2852  0.3072
  457MOL0     C62950   5.489   1.436  11.336 -0.7137 -1.2798  0.2051
  457MOL0     C62951   5.491   1.551  11.444 -0.9936 -0.0133  0.1279
  457MOL0     O62952   5.381   1.541  11.531 -0.6666 -0.5577 -0.0943
  457MOL0     C62953   5.380   1.438  11.624  0.5043  0.9136  0.5248
  457MOL0     C62954   5.485   1.353  11.651  1.7037  0.6274  0.5995
  457MOL0     C62955   5.473   1.252  11.747 -1.0627  0.0483 -0.2146
  457MOL0     C62956   5.583   1.146  11.755 -0.7558  0.4191  0.7581
  457MOL0     C62957   5.354   1.231  11.817 -0.6349 -0.2775  0.2635
  457MOL0     C62958   5.331   1.124  11.909  0.4197 -0.4923 -0.6064
  457MOL0     O62959   5.213   1.048  11.900  0.3330 -1.2594 -0.1858
  457MOL0     C62960   5.165   0.955  11.992 -0.1467  0.8458  0.2355
  457MOL0     C62961   5.237   0.903  12.102  0.1947 -0.3272 -0.6658
  457MOL0     C62962   5.193   0.789  12.169  1.4464 -0.4962 -0.5591
  457MOL0     C62963   5.077   0.722  12.137  0.6761 -0.2060 -0.6697
  457MOL0     O62964   5.027   0.618  12.216 -0.2497 -0.3262  0.5343
  457MOL0     C62965   4.962   0.520  12.137 -0.2790 -1.1498  0.5381
  457MOL0     C62966   4.969   0.386  12.200  0.5104 -0.1251 -0.1541
  457MOL0     C62967   5.108   0.356  12.260  0.2776  0.4485  0.7838
  457MOL0     C62968   5.106   0.204  12.268  0.6508  0.3027 -0.2052
  457MOL0     C62969   5.212   0.157  12.367 -0.2961  1.3300  0.2437
  457MOL0     C62970   5.357   0.168  12.307  0.5977  0.2879 -0.1407
  457MOL0     C62971   5.449   0.059  12.369 -0.1876 -0.7638 -0.0322
  457MOL0     C62972   5.590   0.043  12.319  0.1670  0.4926 -0.3931
  457MOL0    Cl62973   5.680   0.186  12.360  0.7302 -0.0673  0.3428
  457MOL0     C62974   5.009   0.779  12.037  0.3308  0.4403  0.3638
  457MOL0     C62975   5.044   0.893  11.960 -0.1090  0.5070 -1.0445
  457MOL0     O62976   5.414   1.117  11.999  0.2943  0.8336 -0.6517
  457MOL0     C62977   5.246   1.317  11.789  0.2974 -0.9989 -0.1206
  457MOL0     C62978   5.259   1.413  11.693 -0.4941  0.9893 -0.2236
  457MOL0     N62979   5.118   1.369  11.061  0.7456  0.0528 -0.2960
  457MOL0     N62980   5.040   1.357  10.960 -0.0499 -0.3320  0.2668
  457MOL0     C62981   4.447   0.894  10.015 -0.9621  1.2396 -0.0384
  457MOL0     C62982   4.383   0.884   9.890 -1.4182 -0.8491  0.7566
  457MOL0     C62983   4.161   0.657   9.534  0.4522 -0.6785  0.6449
  457MOL0     C62984   4.058   0.572   9.494 -0.2910  0.0930  0.7757
  457MOL0     C62985   4.036   0.536   9.363 -1.2038  0.4221  0.5205
  457MOL0     C62986   4.114   0.584   9.262 -0.2634  0.4684 -0.1689
  457MOL0     O62987   4.069   0.550   9.129 -0.3898 -0.5915 -0.2248
  457MOL0     C62988   4.151   0.599   9.026  0.3055 -0.1738  0.6005
  457MOL0     C62989   4.122   0.515   8.893 -0.1144  0.5720  0.5292
  457MOL0     C62990   4.235   0.525   8.792 -0.2077  0.7165  0.7228
  457MOL0     C62991   4.235   0.446   8.661  0.7537  0.1659  0.1371
  457MOL0     C62992   4.260   0.303   8.678  0.7424 -0.4850 -1.0429
  457MOL0     C62993   4.280   0.186   8.683  0.7817  0.8015 -0.1520
  457MOL0     C62994   4.213   0.676   9.300  1.2032  0.3149  0.0816
  457MOL0     C62995   4.238   0.715   9.434  0.0902 -0.0655  0.2946
  457MOL0     C62996   4.345   0.815   9.455 -0.4793 -0.0747  1.0160
  457MOL0     H62997   4.343   0.555   9.875  1.5072 -0.5256  0.4681
  457MOL0     H62998   4.506   0.565  10.071 -0.3779 -0.4751  0.0812
  457MOL0     H62999   4.584   0.962  10.267 -1.8531 -2.1809 -0.8787
  457MOL0     H63000   4.708   0.919  10.146 -0.7326  0.6983  0.0204
  457MOL0     H63001   4.685   0.837  10.441 -0.0797  1.4806 -0.5760
  457MOL0     H63002   4.791   0.751  10.332 -1.4628 -1.4517  0.2224
  457MOL0     H63003   4.858   1.007  10.286  1.1499 -0.0858 -0.4639
  457MOL0     H63004   4.788   1.042  10.436  0.4851 -0.9319 -0.7317
  457MOL0     H63005   4.941   0.860  10.535  2.2197  1.2379  0.5198
  457MOL0     H63006   5.024   0.875  10.371 -0.4814 -1.5476 -0.6432
  457MOL0     H63007   5.051   1.137  10.450 -2.6526  0.7484 -0.3521
  457MOL0     H63008   5.120   1.023  10.564 -0.8499  0.1495 -0.3734
  457MOL0     H63009   4.883   1.193  10.562  0.9099 -1.0699 -0.7577
  457MOL0     H63010   4.857   1.049  10.663  0.6994 -1.9592 -0.6889
  457MOL0     H63011   5.070   1.107  10.777  2.7587  3.2781  0.1993
  457MOL0     H63012   4.926   1.193  10.817  2.8911 -5.2609  3.0750
  457MOL0     H63013   5.149   1.288  10.641  2.5183  0.4250  0.8350
  457MOL0     H63014   4.995   1.389  10.683  1.7080  1.8818  0.3709
  457MOL0     H63015   5.336   1.366  10.821 -1.2223  1.3982  0.6328
  457MOL0     H63016   5.460   1.374  11.043 -0.4259 -0.7621 -1.0464
  457MOL0     H63017   5.382   1.261  11.142 -2.2334  0.5592 -1.0881
  457MOL0     H63018   5.412   1.560  11.186 -2.3311 -0.4644 -2.7669
  457MOL0     H63019   5.290   1.463  11.285 -0.1772 -0.9288  0.9303
  457MOL0     H63020   5.480   1.339  11.385 -0.9307 -0.3496  2.0676
  457MOL0     H63021   5.583   1.443  11.281 -0.4704  3.1756  0.8501
  457MOL0     H63022   5.592   1.549  11.487 -0.0165 -0.8178 -2.0509
  457MOL0     H63023   5.486   1.649  11.396  0.4746 -0.3807 -0.8440
  457MOL0     H63024   5.581   1.360  11.602  1.3516  0.8404 -0.0634
  457MOL0     H63025   5.668   1.177  11.694 -0.1335 -2.1726  0.1699
  457MOL0     H63026   5.551   1.053  11.708 -0.8873  1.3015 -0.9535
  457MOL0     H63027   5.617   1.131  11.858  1.6753  0.7167  0.0522
  457MOL0     H63028   5.324   0.958  12.136 -0.3957  1.8333 -2.4345
  457MOL0     H63029   5.263   0.764  12.249  1.5633  2.9572  0.5788
  457MOL0     H63030   4.861   0.552  12.113 -0.1329  1.1573  2.6210
  457MOL0     H63031   5.010   0.503  12.041 -0.2119 -1.7196  0.6707
  457MOL0     H63032   4.886   0.387  12.271  0.6584  0.7883  0.0145
  457MOL0     H63033   4.955   0.307  12.124 -0.7738  1.7943 -2.0382
  457MOL0     H63034   5.110   0.405  12.358  2.0533  0.0139  0.9992
  457MOL0     H63035   5.190   0.395  12.199 -0.5263  3.1772  1.2997
  457MOL0     H63036   5.119   0.151  12.173 -0.7794 -0.4223 -0.0151
  457MOL0     H63037   5.007   0.184  12.309  0.4917  0.6692 -0.4024
  457MOL0     H63038   5.199   0.210  12.461 -1.0152 -0.1382  1.0139
  457MOL0     H63039   5.185   0.051  12.373 -1.3876  1.3021 -3.0515
  457MOL0     H63040   5.404   0.266  12.318 -0.9874  1.0461  0.0422
  457MOL0     H63041   5.361   0.141  12.201 -1.7732 -1.6410  0.1661
  457MOL0     H63042   5.395  -0.036  12.373 -2.1578  0.3427  1.3407
  457MOL0     H63043   5.465   0.077  12.476 -0.5702  0.5425 -0.1724
  457MOL0     H63044   5.591   0.037  12.210 -2.2049  2.0226 -0.5789
  457MOL0     H63045   5.648  -0.034  12.370  2.3577  1.6383 -0.9908
  457MOL0     H63046   4.912   0.739  12.007 -1.3382  0.9109  4.5406
  457MOL0     H63047   4.989   0.930  11.874  0.1369 -0.1138 -1.4748
  457MOL0     H63048   5.162   1.319  11.857  1.4174  0.4558  1.2976
  457MOL0     H63049   5.177   1.479  11.664 -1.7729  0.9592  2.8680
  457MOL0     H63050   4.467   0.996  10.046  1.8649  1.5302 -2.4364
  457MOL0     H63051   4.347   0.971   9.835 -0.4028 -1.4443 -0.9112
  457MOL0     H63052   3.999   0.523   9.571 -1.3218  1.1484  0.6872
  457MOL0     H63053   3.963   0.473   9.312  2.9894 -1.2355 -4.2241
  457MOL0     H63054   4.130   0.706   9.012  1.1609 -0.3143 -2.3818
  457MOL0     H63055   4.256   0.583   9.050  0.2712  0.3559  1.1476
  457MOL0     H63056   4.025   0.539   8.850 -0.1829 -2.4191 -1.2967
  457MOL0     H63057   4.131   0.409   8.917 -0.5896  0.4533  0.1822
  457MOL0     H63058   4.240   0.631   8.766 -1.1918  0.7686  0.6990
  457MOL0     H63059   4.330   0.497   8.838  2.2385  1.0487 -3.5547
  457MOL0     H63060   4.313   0.492   8.599  2.1262  0.7855  2.2438
  457MOL0     H63061   4.136   0.466   8.618 -1.7337 -5.6875  2.0791
  457MOL0     H63062   4.290   0.079   8.690  2.6863  0.9699  0.4953
  457MOL0     H63063   4.272   0.717   9.220  0.4580 -3.0836 -2.4339
  457MOL0     H63064   4.302   0.900   9.508 -1.2177 -0.3687  0.9041
  457MOL0     H63065   4.424   0.774   9.518 -1.8838  1.6374  4.1347
  457MOL0     H63066   4.385   0.844   9.357  0.8283 -1.3655  1.1266
  458MOL0     O63067   9.501   3.323   1.330 -0.2778  0.4093  0.2760
  458MOL0     C63068   9.610   3.368   1.289  0.1006  0.2344  0.0133
  458MOL0     O63069   9.654   3.362   1.157 -0.2288  0.1622 -0.1049
  458MOL0     C63070   9.606   3.265   1.068 -0.4449  1.3819 -0.1952
  458MOL0     C63071   9.632   3.284   0.935 -0.7556  0.3112  0.1720
  458MOL0     C63072   9.610   3.187   0.834 -0.7368  0.0281 -0.0017
  458MOL0     C63073   9.567   3.055   0.864  0.7560 -0.5872  0.0074
  458MOL0     O63074   9.538   2.961   0.772 -0.8850 -0.4974  0.1535
  458MOL0     C63075   9.529   2.997   0.637  0.4175  0.2104 -0.1029
  458MOL0     C63076   9.537   2.878   0.548  0.0722  1.1020 -0.4994
  458MOL0     C63077   9.515   2.919   0.397 -0.7055  0.5626  0.7829
  458MOL0     C63078   9.374   2.929   0.379 -0.4005  0.7622  0.5393
  458MOL0     C63079   9.323   2.930   0.233  0.1220 -0.0576  0.6963
  458MOL0     C63080   9.333   3.067   0.176 -0.4133  0.0787  0.1123
  458MOL0     C63081   9.270   3.068   0.030 -0.8373 -0.5265 -0.9199
  458MOL0     C63082   9.342   2.986  -0.074 -1.3906 -0.2048  0.0513
  458MOL0     N63083   9.483   3.045  -0.098 -0.4522  0.5971 -0.3639
  458MOL0     C63084   9.599   2.996  -0.044  0.6480  0.8097 -0.2215
  458MOL0     C63085   9.700   3.079  -0.076 -0.3959  0.0526 -0.6451
  458MOL0     C63086   9.837   3.065  -0.029  0.1173 -0.5045 -0.4139
  458MOL0     C63087   9.942   3.094  -0.136  0.3415  0.0938 -0.0823
  458MOL0     C63088  10.081   3.088  -0.073 -0.3099 -0.2468 -0.4058
  458MOL0     C63089  10.183   3.184  -0.142 -0.7675 -1.0589 -0.2457
  458MOL0     O63090  10.163   3.201  -0.283  0.0022  0.3063  0.4660
  458MOL0     C63091  10.182   3.100  -0.374  0.3162 -0.7734 -0.5011
  458MOL0     C63092  10.249   2.975  -0.351 -0.5512  0.8260  0.1123
  458MOL0     C63093  10.257   2.882  -0.450 -0.5987  0.0509  0.7243
  458MOL0     C63094  10.330   2.764  -0.414  0.2065  0.3661  0.3050
  458MOL0     C63095  10.200   2.904  -0.577  0.4535 -0.0531  0.6602
  458MOL0     C63096  10.202   2.808  -0.695  0.2127 -0.6051 -1.0183
  458MOL0     O63097  10.161   2.857  -0.816 -0.6730  0.0292  0.4600
  458MOL0     C63098  10.181   2.785  -0.933  0.8319  0.0894  0.0191
  458MOL0     C63099  10.296   2.824  -1.001  0.0285 -0.0355  0.2874
  458MOL0     C63100  10.337   2.753  -1.108 -0.6014 -0.2584  0.0145
  458MOL0     C63101  10.280   2.634  -1.145  0.7451 -0.3242  0.5071
  458MOL0     O63102  10.332   2.567  -1.253  0.7775 -0.1825 -0.5427
  458MOL0     C63103  10.258   2.447  -1.285  0.3559  0.2388  0.6397
  458MOL0     C63104  10.330   2.377  -1.393  0.3128 -0.2553  0.1205
  458MOL0     C63105  10.249   2.265  -1.447 -0.5306 -0.1998 -0.2752
  458MOL0     C63106  10.254   2.139  -1.347  0.0007  0.3149  1.3255
  458MOL0     C63107  10.198   2.012  -1.418 -0.8352 -0.0365  0.4033
  458MOL0     C63108  10.150   1.899  -1.319  0.3086 -0.2122  0.0493
  458MOL0     C63109  10.273   1.835  -1.263  0.4479  0.3808  0.3025
  458MOL0     C63110  10.239   1.708  -1.186  0.3075  0.3296  0.0116
  458MOL0    Cl63111  10.164   1.733  -1.033 -0.3328  0.0330 -0.8900
  458MOL0     C63112  10.162   2.605  -1.076 -0.7022  1.2074  0.5452
  458MOL0     C63113  10.114   2.669  -0.971  0.1842  0.0187  0.0432
  458MOL0     O63114  10.247   2.700  -0.677  0.0700  0.3723 -0.4374
  458MOL0     C63115  10.138   3.030  -0.600 -0.4295  0.2789  0.0880
  458MOL0     C63116  10.131   3.120  -0.501  0.7841 -0.4819 -0.4401
  458MOL0     N63117   9.635   3.181  -0.144 -0.7277 -1.5131  0.3532
  458MOL0     N63118   9.507   3.159  -0.165  0.4704  0.3670 -0.5687
  458MOL0     C63119   9.536   3.032   1.003  0.1144  0.2578 -0.3513
  458MOL0     C63120   9.556   3.136   1.104  0.7156 -0.4693 -0.2199
  458MOL0     C63121   9.703   3.443   1.381  0.6319 -0.7443  0.0437
  458MOL0     C63122   9.802   3.527   1.330 -0.3270 -0.3216  0.0073
  458MOL0     C63123   9.881   3.622   1.403  1.3280 -0.3206 -0.0860
  458MOL0     C63124   9.862   3.623   1.542 -0.1533 -0.6456  0.7023
  458MOL0     O63125   9.934   3.708   1.627 -0.1941 -0.4822 -0.6637
  458MOL0     C63126  10.078   3.683   1.633  0.9282  0.1629 -0.7707
  458MOL0     C63127  10.145   3.761   1.742 -0.5860 -0.8354  0.5344
  458MOL0     C63128  10.085   3.730   1.885  1.1502  0.9657  0.2008
  458MOL0     C63129  10.103   3.858   1.967  0.5788 -0.9968  0.0489
  458MOL0     C63130  10.012   3.968   1.920 -0.3039 -0.6083  0.8314
  458MOL0     C63131   9.938   4.068   1.919  0.0760 -0.1684 -0.3835
  458MOL0     C63132   9.767   3.537   1.603 -0.3840 -0.2316 -0.8357
  458MOL0     C63133   9.682   3.454   1.524  0.8375  1.8715 -0.0451
  458MOL0     C63134   9.565   3.390   1.591  0.2811  0.0739 -0.4299
  458MOL0     H63135   9.670   3.373   0.884  2.5940 -0.6004  0.8093
  458MOL0     H63136   9.620   3.225   0.733  2.0676  3.0956  1.2251
  458MOL0     H63137   9.604   3.070   0.606  0.4535  0.1420 -0.1787
  458MOL0     H63138   9.428   3.039   0.640 -0.2145 -1.2400  2.5443
  458MOL0     H63139   9.639   2.839   0.551 -0.7024 -1.1451 -1.1251
  458MOL0     H63140   9.475   2.792   0.575  2.5058 -0.6290 -0.1449
  458MOL0     H63141   9.558   3.017   0.377 -0.1415  0.6526  2.2341
  458MOL0     H63142   9.566   2.847   0.331  0.4968  0.6452  1.5804
  458MOL0     H63143   9.327   2.836   0.412  0.8922 -0.3510 -0.6786
  458MOL0     H63144   9.331   3.008   0.441 -2.0360  0.3128  0.0437
  458MOL0     H63145   9.215   2.913   0.226 -0.3277  3.0130 -3.4206
  458MOL0     H63146   9.389   2.860   0.181  0.7697 -0.1413  1.5930
  458MOL0     H63147   9.285   3.134   0.248  0.2848  0.4564  0.2334
  458MOL0     H63148   9.433   3.109   0.186 -0.2029 -0.6062  1.0002
  458MOL0     H63149   9.274   3.171  -0.006 -2.3671 -0.1260 -0.0574
  458MOL0     H63150   9.167   3.032   0.042  0.0165 -4.1141 -2.9710
  458MOL0     H63151   9.353   2.881  -0.045  3.6215  0.4407  1.5506
  458MOL0     H63152   9.290   2.984  -0.170  0.1949  0.8310 -0.8969
  458MOL0     H63153   9.618   2.912   0.022  0.8633  2.1822  1.5312
  458MOL0     H63154   9.857   2.968   0.016 -0.7566 -1.0380 -1.1547
  458MOL0     H63155   9.855   3.140   0.049  1.8564 -2.0678  0.7450
  458MOL0     H63156   9.936   3.023  -0.219 -2.1496  0.7713 -0.5686
  458MOL0     H63157   9.919   3.191  -0.181  0.2058  0.1686  0.1504
  458MOL0     H63158  10.084   3.111   0.034  1.9927  0.1635 -0.5126
  458MOL0     H63159  10.114   2.985  -0.084 -5.3957 -2.2323  0.3351
  458MOL0     H63160  10.183   3.287  -0.104  0.4711 -1.2310  0.2899
  458MOL0     H63161  10.286   3.152  -0.123  0.7808  2.4422 -1.7150
  458MOL0     H63162  10.299   2.974  -0.255 -0.5124  1.4420  0.1035
  458MOL0     H63163  10.275   2.670  -0.426 -0.0678  0.3751  1.3578
  458MOL0     H63164  10.369   2.754  -0.312 -1.6859  0.5405  1.0928
  458MOL0     H63165  10.414   2.775  -0.484  2.0611 -0.2065  2.3260
  458MOL0     H63166  10.362   2.904  -0.968  4.2001 -2.5803 -1.1427
  458MOL0     H63167  10.424   2.779  -1.166 -1.3436  1.0021 -0.5841
  458MOL0     H63168  10.240   2.385  -1.197 -0.4144  0.7741  0.8631
  458MOL0     H63169  10.157   2.470  -1.319  0.6864 -3.5427 -3.9761
  458MOL0     H63170  10.343   2.446  -1.478  1.4676  0.5040  0.8909
  458MOL0     H63171  10.426   2.349  -1.350  0.3398  0.5651  0.6266
  458MOL0     H63172  10.309   2.232  -1.532  2.3316  2.7498  0.4258
  458MOL0     H63173  10.150   2.306  -1.471 -0.3299  1.3381  1.3233
  458MOL0     H63174  10.190   2.152  -1.260 -0.9278  1.0341  0.5533
  458MOL0     H63175  10.356   2.122  -1.310  0.6527  2.5433  0.7128
  458MOL0     H63176  10.108   2.044  -1.471 -1.8972 -2.0081  0.8935
  458MOL0     H63177  10.264   1.975  -1.497 -0.5944 -0.6503  0.8779
  458MOL0     H63178  10.095   1.833  -1.387 -0.2303  0.6677 -0.3961
  458MOL0     H63179  10.086   1.948  -1.244  1.1309  1.8856 -0.5300
  458MOL0     H63180  10.326   1.895  -1.187  2.8614 -0.9695 -0.2273
  458MOL0     H63181  10.347   1.815  -1.340  0.9693  2.1947  0.2759
  458MOL0     H63182  10.335   1.657  -1.175  1.0988  1.9165  0.9334
  458MOL0     H63183  10.168   1.648  -1.244 -1.9758  3.6683 -0.9935
  458MOL0     H63184  10.102   2.516  -1.094  0.8776 -0.3205  2.3157
  458MOL0     H63185  10.017   2.639  -0.934  0.4739  2.1978  2.8211
  458MOL0     H63186  10.091   3.044  -0.697  0.9869  1.2152 -0.4868
  458MOL0     H63187  10.063   3.203  -0.521 -0.3012 -2.0797 -4.1225
  458MOL0     H63188   9.513   2.926   1.014  0.5355 -0.0801 -2.2930
  458MOL0     H63189   9.537   3.103   1.205 -2.5571  2.0560  0.1618
  458MOL0     H63190   9.836   3.505   1.229 -1.5027 -0.4799 -0.3772
  458MOL0     H63191   9.951   3.676   1.339  0.8933 -0.6225 -0.8407
  458MOL0     H63192  10.095   3.577   1.655 -1.1699 -0.2946 -1.1809
  458MOL0     H63193  10.109   3.718   1.534 -2.3722  1.9219 -1.3366
  458MOL0     H63194  10.138   3.863   1.706  1.9848 -0.3837  1.1114
  458MOL0     H63195  10.253   3.748   1.751 -0.2982  0.0769 -1.3153
  458MOL0     H63196   9.985   3.686   1.883  1.7532 -0.4562 -1.7914
  458MOL0     H63197  10.141   3.645   1.925 -1.3420 -0.1927  1.4687
  458MOL0     H63198  10.210   3.878   1.980  1.0036 -3.1203  0.2787
  458MOL0     H63199  10.079   3.844   2.073 -1.5131  0.2635 -0.1992
  458MOL0     H63200   9.888   4.163   1.927  0.9836  0.4918 -2.0781
  458MOL0     H63201   9.751   3.536   1.711  0.9638  2.3345 -0.5363
  458MOL0     H63202   9.477   3.447   1.559 -0.7498  0.9041  3.2794
  458MOL0     H63203   9.566   3.286   1.559 -0.1020  0.2968 -1.1780
  458MOL0     H63204   9.570   3.389   1.701  0.4040  0.6145 -0.4257
  459MOL0     O63205   6.361   1.150   0.209 -0.7232 -0.3356 -0.8077
  459MOL0     C63206   6.260   1.182   0.159 -0.1401  0.2980  0.0269
  459MOL0     O63207   6.214   1.315   0.166  0.3023  0.5063 -0.4573
  459MOL0     C63208   6.307   1.417   0.188 -0.1375  0.1072 -0.6110
  459MOL0     C63209   6.409   1.442   0.094 -0.2852  0.4344 -0.1000
  459MOL0     C63210   6.501   1.538   0.102  0.4882  0.1840  0.5272
  459MOL0     C63211   6.486   1.636   0.195 -0.1482 -0.5801  0.0029
  459MOL0     O63212   6.573   1.743   0.182 -1.0941 -0.4560 -0.0577
  459MOL0     C63213   6.574   1.847   0.278  0.1285 -0.2971  0.5141
  459MOL0     C63214   6.684   1.943   0.235  0.1347  0.7893  0.2218
  459MOL0     C63215   6.712   2.052   0.344  0.0998  0.7294 -1.4407
  459MOL0     C63216   6.585   2.097   0.423 -0.6336 -0.4774  0.3806
  459MOL0     C63217   6.625   2.201   0.522 -0.3649 -0.4908  0.1389
  459MOL0     C63218   6.656   2.157   0.654 -0.3383  0.4498 -0.9932
  459MOL0     C63219   6.677   2.265   0.760 -0.8260 -0.3046 -0.0354
  459MOL0     C63220   6.770   2.388   0.723 -0.2259  0.3063  0.6156
  459MOL0     N63221   6.905   2.340   0.688 -0.0252 -0.0373 -0.1731
  459MOL0     C63222   6.981   2.234   0.733  0.4361  0.5954  0.4420
  459MOL0     C63223   7.083   2.223   0.642  0.1820 -0.3905 -0.6451
  459MOL0     C63224   7.209   2.133   0.648  0.7966  0.1356  0.1867
  459MOL0     C63225   7.177   1.990   0.669 -0.0224  1.0371 -0.7130
  459MOL0     C63226   7.300   1.914   0.737 -0.4345  0.0276  0.5816
  459MOL0     C63227   7.420   1.932   0.644 -0.1199 -0.4397 -0.3506
  459MOL0     O63228   7.537   1.914   0.728  1.0376 -0.2350  0.2057
  459MOL0     C63229   7.650   1.868   0.666  0.5899 -0.8831 -0.6718
  459MOL0     C63230   7.673   1.892   0.534 -0.9864 -0.8340 -0.3377
  459MOL0     C63231   7.779   1.833   0.472  0.4107 -0.6523 -0.0895
  459MOL0     C63232   7.804   1.857   0.324 -0.5694  0.1936 -0.2800
  459MOL0     C63233   7.870   1.747   0.543 -0.1148 -1.0357  0.1148
  459MOL0     C63234   7.979   1.675   0.479  0.2414 -0.1350 -0.0377
  459MOL0     O63235   8.104   1.717   0.501 -0.1180 -0.1057  0.0166
  459MOL0     C63236   8.212   1.644   0.458  0.2281  0.8681 -0.3368
  459MOL0     C63237   8.275   1.562   0.543  0.5360  0.8231  0.1718
  459MOL0     C63238   8.396   1.492   0.498  0.2708 -0.0654 -0.6742
  459MOL0     C63239   8.453   1.515   0.365 -0.0090 -0.2331 -0.2110
  459MOL0     O63240   8.554   1.433   0.331  0.0904 -0.1176  0.2995
  459MOL0     C63241   8.508   1.304   0.291 -0.0689  0.6226  0.0008
  459MOL0     C63242   8.473   1.302   0.142  0.5412  0.0324 -0.7364
  459MOL0     C63243   8.593   1.313   0.047  0.0755 -0.0420 -0.1275
  459MOL0     C63244   8.547   1.298  -0.096 -0.5964 -0.7269  0.1175
  459MOL0     C63245   8.656   1.290  -0.208  0.3979  0.2356 -0.1152
  459MOL0     C63246   8.746   1.410  -0.217 -0.2310 -0.6648  0.8516
  459MOL0     C63247   8.861   1.417  -0.318 -0.5030 -0.2080  1.2702
  459MOL0     C63248   8.977   1.315  -0.299 -0.2819  0.2848 -1.1773
  459MOL0    Cl63249   9.073   1.350  -0.143  0.0173  0.1596  0.6864
  459MOL0     C63250   8.389   1.613   0.285  1.2865 -0.0962 -0.8733
  459MOL0     C63251   8.265   1.669   0.333  0.1527 -0.3481  0.4708
  459MOL0     O63252   7.952   1.573   0.420 -1.1558 -0.4052 -0.6549
  459MOL0     C63253   7.850   1.730   0.683 -0.2392  0.0410  0.9968
  459MOL0     C63254   7.732   1.786   0.737  0.0483  0.5760  0.3917
  459MOL0     N63255   7.066   2.319   0.545  0.1438  0.4783 -0.0211
  459MOL0     N63256   6.958   2.387   0.574 -1.0169  0.4334  1.1172
  459MOL0     C63257   6.387   1.618   0.291  0.6914 -0.0583  0.3882
  459MOL0     C63258   6.304   1.503   0.290 -0.8068  0.4885 -0.6663
  459MOL0     C63259   6.185   1.070   0.082 -0.0745  0.2404  0.1869
  459MOL0     C63260   6.230   0.938   0.084  1.2781 -1.1531 -0.5255
  459MOL0     C63261   6.150   0.834   0.058 -1.1701 -1.0065 -0.2267
  459MOL0     C63262   6.023   0.848   0.008 -0.1892  0.5256 -0.3906
  459MOL0     O63263   5.934   0.756  -0.033 -0.5455 -0.0331  0.0942
  459MOL0     C63264   5.966   0.618  -0.018  0.5602  0.3742  0.6763
  459MOL0     C63265   5.824   0.538  -0.015 -0.2196  0.3582 -1.4485
  459MOL0     C63266   5.713   0.611   0.070 -0.3710  0.3271  0.0516
  459MOL0     C63267   5.755   0.638   0.218 -0.3675  0.7794  0.2429
  459MOL0     C63268   5.690   0.751   0.284 -0.3403 -0.6261  0.3434
  459MOL0     C63269   5.630   0.843   0.340  0.1505 -0.1432  0.0145
  459MOL0     C63270   5.981   0.981  -0.020  0.1657 -0.6361  0.2350
  459MOL0     C63271   6.058   1.094   0.017  0.0736 -0.3528 -0.4209
  459MOL0     C63272   5.983   1.233  -0.005 -1.3673 -0.2088  0.5131
  459MOL0     H63273   6.400   1.380   0.005 -1.9829 -1.6199  1.3715
  459MOL0     H63274   6.574   1.540   0.023  0.8708  1.6647  0.8943
  459MOL0     H63275   6.589   1.811   0.380  2.5313  0.2836  0.4196
  459MOL0     H63276   6.473   1.888   0.266  0.4928 -0.0260 -2.2639
  459MOL0     H63277   6.770   1.876   0.245 -1.5628 -1.6008 -0.3446
  459MOL0     H63278   6.672   1.977   0.132 -1.0501 -1.2488 -0.3805
  459MOL0     H63279   6.782   2.007   0.414 -0.3166 -2.3958 -2.8511
  459MOL0     H63280   6.772   2.133   0.301 -0.8045  2.6750  0.7499
  459MOL0     H63281   6.517   2.146   0.352 -0.7721 -0.0717  0.7907
  459MOL0     H63282   6.544   2.006   0.467  1.0607 -0.7463  1.5127
  459MOL0     H63283   6.556   2.285   0.534  2.5159  1.6830  5.7737
  459MOL0     H63284   6.711   2.249   0.474  0.8714 -4.5741 -2.1458
  459MOL0     H63285   6.572   2.092   0.678 -0.4385 -0.8893 -4.4469
  459MOL0     H63286   6.741   2.088   0.650 -0.6053 -0.0349  0.7900
  459MOL0     H63287   6.717   2.220   0.851  0.2807  1.7157  0.5461
  459MOL0     H63288   6.584   2.311   0.793  0.5088  2.4216  0.2378
  459MOL0     H63289   6.716   2.438   0.642  1.3573  1.9375  0.5100
  459MOL0     H63290   6.772   2.453   0.811 -0.3239  2.2098 -0.7282
  459MOL0     H63291   6.974   2.170   0.820  1.3380  1.2276  0.9898
  459MOL0     H63292   7.267   2.168   0.734  2.9753 -1.7509 -0.4073
  459MOL0     H63293   7.263   2.146   0.553  1.2485  2.2629  0.6832
  459MOL0     H63294   7.088   1.959   0.725  0.6496 -1.4275 -0.8828
  459MOL0     H63295   7.156   1.957   0.567 -1.1620 -0.6490  0.0176
  459MOL0     H63296   7.300   1.966   0.833 -1.3192  0.9285  0.1073
  459MOL0     H63297   7.288   1.805   0.743 -1.6589  0.0079 -1.2936
  459MOL0     H63298   7.411   1.870   0.555 -1.3580  2.1224 -2.1494
  459MOL0     H63299   7.434   2.030   0.597  2.3333 -0.4625  0.2064
  459MOL0     H63300   7.608   1.960   0.480 -3.6750 -3.7234 -1.0523
  459MOL0     H63301   7.735   1.934   0.286 -1.3803 -0.6676 -0.6057
  459MOL0     H63302   7.779   1.763   0.275 -1.3916 -2.4309  4.5479
  459MOL0     H63303   7.904   1.898   0.307 -1.5580  2.5235 -1.0124
  459MOL0     H63304   8.234   1.564   0.644 -2.2455  2.5918 -0.8888
  459MOL0     H63305   8.453   1.436   0.572 -0.1189  0.3020 -0.0915
  459MOL0     H63306   8.586   1.230   0.308 -0.7329 -0.6075 -1.9387
  459MOL0     H63307   8.416   1.262   0.332  1.3964 -2.3646  0.5054
  459MOL0     H63308   8.412   1.211   0.134 -2.4134  1.4555  2.9014
  459MOL0     H63309   8.398   1.377   0.117  1.4813  1.0780 -0.4818
  459MOL0     H63310   8.667   1.236   0.070  3.4026  1.4781 -4.3291
  459MOL0     H63311   8.650   1.405   0.061 -0.5996  0.1953  1.2929
  459MOL0     H63312   8.483   1.383  -0.125  2.1454  1.1680 -0.8313
  459MOL0     H63313   8.482   1.210  -0.092 -3.6805  1.3671 -0.1917
  459MOL0     H63314   8.721   1.210  -0.171 -1.2939 -1.2430 -0.1740
  459MOL0     H63315   8.613   1.255  -0.303  1.7416  0.4422 -0.8280
  459MOL0     H63316   8.792   1.417  -0.117  0.2757  1.3224  0.5233
  459MOL0     H63317   8.681   1.494  -0.243 -2.2249 -2.1129  0.9548
  459MOL0     H63318   8.900   1.519  -0.321 -0.1248 -0.3663  0.6837
  459MOL0     H63319   8.820   1.409  -0.418  1.4598  1.9006  0.2010
  459MOL0     H63320   9.039   1.308  -0.389  0.8149 -1.9311 -0.3073
  459MOL0     H63321   8.923   1.221  -0.283  0.7224 -0.1895 -0.5243
  459MOL0     H63322   8.403   1.635   0.179 -2.1870  2.1515 -1.0587
  459MOL0     H63323   8.221   1.748   0.273 -1.1673  0.3413  2.2542
  459MOL0     H63324   7.918   1.664   0.736  0.0546 -0.7168 -0.2709
  459MOL0     H63325   7.714   1.762   0.841  0.5559  1.3084  0.6582
  459MOL0     H63326   6.363   1.692   0.366 -0.2100  0.3745 -0.3127
  459MOL0     H63327   6.222   1.491   0.359 -1.5519  1.9013 -1.2880
  459MOL0     H63328   6.327   0.908   0.122  1.1048  1.4726  2.2737
  459MOL0     H63329   6.178   0.735   0.090 -0.3439 -1.0409 -1.0094
  459MOL0     H63330   6.013   0.574  -0.107  0.0045 -0.2028  0.6692
  459MOL0     H63331   6.028   0.599   0.070  1.4245 -0.5070 -0.0961
  459MOL0     H63332   5.830   0.435   0.020 -2.3455 -0.4036 -3.0980
  459MOL0     H63333   5.789   0.528  -0.118 -3.0198  2.0486 -0.7723
  459MOL0     H63334   5.689   0.707   0.023  2.2089  0.4411 -1.2037
  459MOL0     H63335   5.622   0.551   0.065 -1.0588  0.8425  3.4552
  459MOL0     H63336   5.863   0.657   0.220 -0.5586  1.9369  0.7498
  459MOL0     H63337   5.735   0.547   0.275 -1.9101 -0.2214 -1.7835
  459MOL0     H63338   5.599   0.932   0.391 -3.4374 -1.5510  0.4964
  459MOL0     H63339   5.886   0.992  -0.071 -0.6836 -2.0637  1.4265
  459MOL0     H63340   6.027   1.290  -0.087 -1.5745  0.6324  0.9800
  459MOL0     H63341   5.875   1.224  -0.013 -1.7863  1.5508  3.0447
  459MOL0     H63342   5.993   1.292   0.086 -0.6352  0.2321  0.1596
  460MOL0     O63343   8.636   8.269   2.872  0.4247  0.5871 -0.0328
  460MOL0     C63344   8.662   8.302   2.991  0.5311 -0.5763 -0.6901
  460MOL0     O63345   8.693   8.427   3.043 -0.0443  0.1520 -0.3388
  460MOL0     C63346   8.680   8.544   2.968 -0.3639  0.1326 -0.2643
  460MOL0     C63347   8.790   8.623   2.938  0.2054 -1.2245  0.5305
  460MOL0     C63348   8.776   8.737   2.863 -0.1608 -0.2907 -0.4714
  460MOL0     C63349   8.649   8.772   2.811 -0.6792  0.3018  0.2557
  460MOL0     O63350   8.636   8.888   2.735 -0.1460  0.9117 -0.6922
  460MOL0     C63351   8.576   8.863   2.609 -0.6502  0.0543  0.1469
  460MOL0     C63352   8.560   9.000   2.535  0.7928 -0.3137 -0.5565
  460MOL0     C63353   8.689   9.067   2.476  0.9934  0.0766 -0.2704
  460MOL0     C63354   8.674   9.221   2.465 -0.2659 -0.1734  0.3780
  460MOL0     C63355   8.801   9.279   2.420  0.4691 -0.3234 -0.0867
  460MOL0     C63356   8.806   9.425   2.456 -0.6533  0.5717  0.4823
  460MOL0     C63357   8.937   9.489   2.397  1.1522 -0.0395  0.4848
  460MOL0     C63358   8.917   9.638   2.378  0.0864  0.0673 -0.7152
  460MOL0     N63359   8.854   9.700   2.499  0.2547 -0.6695  0.0238
  460MOL0     C63360   8.883   9.676   2.635 -0.9084 -0.0670 -0.2498
  460MOL0     C63361   8.794   9.749   2.699 -0.4659  1.0485  0.6341
  460MOL0     C63362   8.790   9.744   2.849 -0.2118  0.5223  0.2269
  460MOL0     C63363   8.668   9.694   2.917  0.2333  0.0774 -0.0943
  460MOL0     C63364   8.598   9.581   2.840  0.2349  0.2416  0.2779
  460MOL0     C63365   8.521   9.506   2.943  0.7463  0.7120  0.1538
  460MOL0     O63366   8.604   9.442   3.049  0.4055  0.2552  0.0463
  460MOL0     C63367   8.686   9.339   3.013 -0.4380  0.1217  0.4000
  460MOL0     C63368   8.792   9.318   3.102  0.1915  0.2411 -1.1923
  460MOL0     C63369   8.884   9.214   3.088 -0.7626  0.8524  0.8565
  460MOL0     C63370   8.983   9.176   3.195  0.0585  0.2394  0.4138
  460MOL0     C63371   8.882   9.139   2.968 -0.3562 -0.3830 -0.1826
  460MOL0     C63372   8.988   9.035   2.930 -0.2687  0.9144  0.4720
  460MOL0     O63373   8.994   9.015   2.799 -0.6578 -0.4190 -0.1904
  460MOL0     C63374   9.079   8.918   2.748  0.0706  0.7045  0.3197
  460MOL0     C63375   9.044   8.842   2.639 -0.1315 -0.2920 -0.2583
  460MOL0     C63376   9.132   8.758   2.562 -1.1432 -0.2461 -0.4703
  460MOL0     C63377   9.267   8.746   2.610  0.6673 -0.8704  0.5974
  460MOL0     O63378   9.364   8.674   2.551  0.3068  0.2952  0.0910
  460MOL0     C63379   9.318   8.553   2.477 -0.7525  0.1365 -0.2628
  460MOL0     C63380   9.439   8.456   2.488  0.3554 -0.6367 -0.2028
  460MOL0     C63381   9.420   8.326   2.415 -0.6129  0.2566  0.1091
  460MOL0     C63382   9.340   8.349   2.287  0.1219  0.6028  0.7137
  460MOL0     C63383   9.351   8.230   2.184 -0.0732 -0.5668 -0.4461
  460MOL0     C63384   9.468   8.261   2.088  0.3930  0.2061 -0.0508
  460MOL0     C63385   9.517   8.154   1.990  0.8040 -0.3696  0.1354
  460MOL0     C63386   9.627   8.212   1.895 -0.4364  0.2161  0.1278
  460MOL0    Cl63387   9.561   8.348   1.798  0.0117  0.1784 -0.1001
  460MOL0     C63388   9.306   8.816   2.724 -0.3209  0.5791  0.5860
  460MOL0     C63389   9.218   8.905   2.792  0.7186  1.3115  0.0922
  460MOL0     O63390   9.022   8.954   3.009  0.2560  0.4093  0.2571
  460MOL0     C63391   8.777   9.171   2.875 -1.2213 -0.1380 -0.5276
  460MOL0     C63392   8.675   9.262   2.895 -0.5382  0.4515 -0.1023
  460MOL0     N63393   8.713   9.820   2.610 -0.4551  0.5280 -0.2866
  460MOL0     N63394   8.745   9.791   2.488  0.2544 -0.3540  0.1935
  460MOL0     C63395   8.534   8.697   2.853 -0.3503 -0.1910  0.8291
  460MOL0     C63396   8.555   8.584   2.935  1.4423 -0.5124  1.0292
  460MOL0     C63397   8.700   8.194   3.098  0.2969  0.5524  0.2549
  460MOL0     C63398   8.810   8.222   3.176  0.3416 -0.1223  0.9752
  460MOL0     C63399   8.848   8.118   3.265  0.4861  0.3722  0.6612
  460MOL0     C63400   8.772   8.004   3.291  1.0670  0.6165  0.1817
  460MOL0     O63401   8.823   7.906   3.368  0.1166  0.0351 -0.5150
  460MOL0     C63402   8.956   7.868   3.368 -1.1347 -0.7357 -0.4436
  460MOL0     C63403   9.002   7.814   3.236  0.6739  0.8091  0.1950
  460MOL0     C63404   9.130   7.876   3.189 -0.7664 -0.5464 -0.4368
  460MOL0     C63405   9.119   7.974   3.074 -0.5661 -0.8955 -0.4033
  460MOL0     C63406   9.249   8.045   3.049 -0.2087  0.6832  0.4136
  460MOL0     C63407   9.356   8.097   3.017 -0.0713 -0.1791 -0.5383
  460MOL0     C63408   8.647   7.983   3.225 -0.0049  0.3120  0.2658
  460MOL0     C63409   8.616   8.074   3.117  0.7573 -0.5121  0.3208
  460MOL0     C63410   8.487   8.050   3.041  0.5471  0.1768 -0.0872
  460MOL0     H63411   8.888   8.603   2.980  0.4221 -1.0533  0.1251
  460MOL0     H63412   8.860   8.799   2.834  0.9866 -1.1057  0.9390
  460MOL0     H63413   8.474   8.824   2.621 -2.2537  3.2101 -1.8091
  460MOL0     H63414   8.626   8.794   2.540 -1.9786 -0.1303 -0.6675
  460MOL0     H63415   8.485   8.998   2.456 -0.0036  1.1563  0.1151
  460MOL0     H63416   8.520   9.073   2.607  1.0032 -0.0646 -0.6934
  460MOL0     H63417   8.758   9.053   2.560 -2.4620  0.2658  2.8549
  460MOL0     H63418   8.711   9.014   2.383 -0.4992 -0.2109 -0.4915
  460MOL0     H63419   8.593   9.248   2.396 -1.1459 -2.5505  0.3611
  460MOL0     H63420   8.653   9.248   2.569  0.9454 -0.7567  0.7879
  460MOL0     H63421   8.818   9.271   2.312 -0.8515  1.9456 -0.5243
  460MOL0     H63422   8.887   9.243   2.477  1.1384  4.5547  2.5251
  460MOL0     H63423   8.719   9.480   2.417  0.7020  1.2387 -1.8307
  460MOL0     H63424   8.813   9.430   2.565 -3.5214 -2.5797  0.9770
  460MOL0     H63425   8.956   9.443   2.300  3.2230 -2.2010  1.8144
  460MOL0     H63426   9.021   9.474   2.464  1.5045 -1.2660 -0.1958
  460MOL0     H63427   9.018   9.678   2.363 -0.5224  2.9480  1.9092
  460MOL0     H63428   8.859   9.656   2.287  2.0495 -0.7471 -2.2007
  460MOL0     H63429   8.952   9.608   2.684 -0.2095  0.3928 -0.5898
  460MOL0     H63430   8.812   9.848   2.875 -2.4192  1.1203 -0.1295
  460MOL0     H63431   8.886   9.702   2.879 -0.4373  1.9809  3.3538
  460MOL0     H63432   8.706   9.656   3.012 -0.8647 -1.3131 -0.1718
  460MOL0     H63433   8.602   9.781   2.928  0.4602  0.2535 -0.1164
  460MOL0     H63434   8.531   9.622   2.764 -2.1988  0.8780  2.6239
  460MOL0     H63435   8.676   9.524   2.789 -1.4454 -1.4622 -0.5277
  460MOL0     H63436   8.460   9.579   2.996 -0.0436  0.1918 -0.0277
  460MOL0     H63437   8.454   9.435   2.895  0.9239 -0.0447  1.0023
  460MOL0     H63438   8.811   9.372   3.195  2.3900 -2.0166 -0.1919
  460MOL0     H63439   8.992   9.259   3.266  1.0868  1.0208 -0.5914
  460MOL0     H63440   9.082   9.164   3.150  1.7226 -0.0669  3.8385
  460MOL0     H63441   8.965   9.077   3.237  2.0879 -0.5902 -0.5222
  460MOL0     H63442   8.943   8.846   2.600 -1.9755 -1.5649  3.9147
  460MOL0     H63443   9.090   8.706   2.477 -2.8266 -0.6872  0.5919
  460MOL0     H63444   9.229   8.507   2.521 -0.3499  0.0012  0.4314
  460MOL0     H63445   9.293   8.583   2.375  2.0440  1.5129 -0.6408
  460MOL0     H63446   9.529   8.503   2.447  0.3222  0.1550  0.5930
  460MOL0     H63447   9.461   8.438   2.594 -2.0323 -1.0662  0.2611
  460MOL0     H63448   9.377   8.250   2.481 -0.8085  0.4094  0.1593
  460MOL0     H63449   9.516   8.282   2.386 -0.3719 -0.6696  2.1879
  460MOL0     H63450   9.367   8.442   2.238  0.7894 -0.0326 -0.1570
  460MOL0     H63451   9.234   8.360   2.313 -0.2006  0.4956 -0.5186
  460MOL0     H63452   9.359   8.142   2.249 -4.3232 -0.1860  0.8909
  460MOL0     H63453   9.261   8.203   2.127 -0.1044 -0.4014 -0.4749
  460MOL0     H63454   9.554   8.301   2.143 -1.3659 -2.0577  4.9141
  460MOL0     H63455   9.442   8.341   2.017  0.0167 -1.9078 -2.4293
  460MOL0     H63456   9.433   8.120   1.929 -1.1768 -0.4674  2.7216
  460MOL0     H63457   9.541   8.062   2.044  1.9262 -0.3909 -0.3684
  460MOL0     H63458   9.652   8.140   1.818  0.8295  0.0406  0.6795
  460MOL0     H63459   9.724   8.229   1.944 -0.2931 -0.4499  0.0746
  460MOL0     H63460   9.406   8.811   2.766 -0.7034 -0.8430  1.3866
  460MOL0     H63461   9.252   8.956   2.882  0.0497  3.7008 -0.9099
  460MOL0     H63462   8.772   9.109   2.786 -2.0957 -0.4244 -0.2886
  460MOL0     H63463   8.596   9.279   2.823  0.8042  0.8627 -1.5226
  460MOL0     H63464   8.439   8.734   2.815  1.3040  2.5032 -1.1100
  460MOL0     H63465   8.469   8.523   2.958  0.7603 -0.6224 -1.4383
  460MOL0     H63466   8.875   8.307   3.165  1.4571 -1.1596 -0.9217
  460MOL0     H63467   8.941   8.125   3.320  0.9639 -0.6421  0.0194
  460MOL0     H63468   9.017   7.955   3.393  0.7012 -2.1934  0.3809
  460MOL0     H63469   8.971   7.794   3.448 -2.4468 -2.2517 -1.5187
  460MOL0     H63470   8.927   7.832   3.158  1.1587 -1.3563 -0.8371
  460MOL0     H63471   9.015   7.707   3.251  0.1302  0.7098 -0.0189
  460MOL0     H63472   9.172   7.943   3.265 -2.3807 -0.0296  0.0359
  460MOL0     H63473   9.203   7.803   3.153 -0.1902 -0.6069  0.7922
  460MOL0     H63474   9.039   8.048   3.089 -0.6588 -1.3586  1.7576
  460MOL0     H63475   9.096   7.922   2.981 -0.3778 -2.7560  0.5482
  460MOL0     H63476   9.441   8.149   2.976  0.1408  0.5205  0.7039
  460MOL0     H63477   8.601   7.885   3.236  1.0938 -0.2630 -0.1174
  460MOL0     H63478   8.477   7.941   3.031  0.1581  0.1591  0.4440
  460MOL0     H63479   8.408   8.088   3.106 -1.5496  0.5351 -2.6547
  460MOL0     H63480   8.482   8.102   2.945  0.5659 -0.4234 -0.4225
  461MOL0     O63481   1.594  10.957   5.568  0.4758 -0.6332  0.5930
  461MOL0     C63482   1.485  10.990   5.507 -0.4012  0.0678  0.5824
  461MOL0     O63483   1.391  11.081   5.564 -0.7327  0.7617  0.4454
  461MOL0     C63484   1.386  11.108   5.696 -0.3840  0.1676 -0.5956
  461MOL0     C63485   1.343  11.237   5.725 -0.2114 -0.6449 -0.7308
  461MOL0     C63486   1.329  11.275   5.862 -0.8239  0.8489  0.5378
  461MOL0     C63487   1.359  11.187   5.969 -0.3215 -0.4124  0.5616
  461MOL0     O63488   1.327  11.234   6.094 -0.3294 -0.1227 -0.2413
  461MOL0     C63489   1.440  11.223   6.179 -0.2210  0.3247 -0.4601
  461MOL0     C63490   1.404  11.185   6.322  0.1485 -0.0598 -0.2876
  461MOL0     C63491   1.286  11.271   6.385  0.6166  0.4144  0.0334
  461MOL0     C63492   1.212  11.190   6.492  0.5799  0.1199  0.4538
  461MOL0     C63493   1.107  11.098   6.424 -0.6151 -0.5767  0.6832
  461MOL0     C63494   1.014  11.034   6.525 -0.1566 -0.3928 -0.7854
  461MOL0     C63495   0.918  10.938   6.455  0.1196 -0.3100 -0.2610
  461MOL0     C63496   0.813  10.874   6.538  0.9106 -0.0928  0.2780
  461MOL0     N63497   0.863  10.793   6.648 -0.8477 -0.3022 -0.3320
  461MOL0     C63498   0.868  10.659   6.651  0.0489 -0.0169 -0.7976
  461MOL0     C63499   0.935  10.625   6.762 -0.5915 -0.5108  0.1071
  461MOL0     C63500   0.968  10.487   6.810  0.2515 -0.6704  0.3089
  461MOL0     C63501   0.836  10.415   6.847  0.5560  1.1156 -0.4878
  461MOL0     C63502   0.882  10.281   6.917 -0.5176 -0.3097 -0.7978
  461MOL0     C63503   0.768  10.174   6.935  0.0255  0.3766 -0.3124
  461MOL0     O63504   0.658  10.232   7.019  0.5753 -0.2100  0.0619
  461MOL0     C63505   0.574  10.151   7.092 -0.8741  0.7143  0.3223
  461MOL0     C63506   0.468  10.218   7.158 -0.0436 -0.5786  0.2050
  461MOL0     C63507   0.369  10.165   7.247 -0.2743  0.3433  0.9325
  461MOL0     C63508   0.265  10.261   7.308  0.0242 -0.0042  0.2569
  461MOL0     C63509   0.378  10.020   7.269  0.4190  0.0140  0.5448
  461MOL0     C63510   0.277   9.948   7.349  0.3612  0.1929  0.3625
  461MOL0     O63511   0.161  10.004   7.375  0.7206 -0.1702  0.3512
  461MOL0     C63512   0.080   9.937   7.467  0.0693  0.1504 -0.0516
  461MOL0     C63513  -0.010   9.842   7.413 -0.4291 -1.1364 -0.3867
  461MOL0     C63514  -0.085   9.762   7.502  0.3132 -0.5366  0.8516
  461MOL0     C63515  -0.066   9.774   7.643  0.3565 -0.3452  0.3099
  461MOL0     O63516  -0.130   9.699   7.744  0.2385 -0.0967  0.0423
  461MOL0     C63517  -0.257   9.628   7.715 -0.2799  0.9680  0.0847
  461MOL0     C63518  -0.391   9.704   7.711 -0.0814  0.0549 -0.1815
  461MOL0     C63519  -0.503   9.599   7.732 -0.7194  0.1603 -0.5243
  461MOL0     C63520  -0.635   9.641   7.655  0.5774 -0.1313 -0.0297
  461MOL0     C63521  -0.745   9.554   7.709  1.0037 -0.2088  0.2538
  461MOL0     C63522  -0.874   9.575   7.641 -0.1525  0.7588 -0.0030
  461MOL0     C63523  -0.984   9.490   7.707  0.1680  0.3260  0.1867
  461MOL0     C63524  -1.070   9.576   7.805 -0.3273 -0.4796  0.3527
  461MOL0    Cl63525  -1.162   9.701   7.715 -0.3231  0.1461 -0.0359
  461MOL0     C63526   0.027   9.861   7.695  0.0915 -0.0911 -0.0156
  461MOL0     C63527   0.103   9.944   7.606  1.5443 -1.4744 -0.1514
  461MOL0     O63528   0.311   9.837   7.385 -0.2581  0.3410 -0.9164
  461MOL0     C63529   0.493   9.953   7.214 -0.5294 -0.3868 -0.1857
  461MOL0     C63530   0.588  10.013   7.128  0.1106  0.3691  0.9642
  461MOL0     N63531   0.974  10.738   6.835 -0.3145 -0.3893  0.1568
  461MOL0     N63532   0.929  10.835   6.764  0.3267  0.4938  0.2835
  461MOL0     C63533   1.411  11.063   5.935 -0.2539 -0.0312 -0.0505
  461MOL0     C63534   1.430  11.027   5.803 -0.0035  0.1870  0.5518
  461MOL0     C63535   1.469  10.977   5.358  0.7337  0.3602 -1.0480
  461MOL0     C63536   1.342  10.961   5.307 -0.4986 -0.5167 -0.1942
  461MOL0     C63537   1.324  10.950   5.163 -0.7560 -0.1386  0.1853
  461MOL0     C63538   1.429  10.960   5.077 -0.1247  0.3654  0.4445
  461MOL0     O63539   1.406  10.954   4.938 -0.5318  0.5175 -1.0444
  461MOL0     C63540   1.332  10.843   4.895  0.0768 -0.4772  0.6244
  461MOL0     C63541   1.433  10.736   4.860 -0.5313  0.4534  0.3571
  461MOL0     C63542   1.527  10.769   4.750  0.1127 -1.2170  0.3390
  461MOL0     C63543   1.465  10.741   4.610  0.7151  0.0582 -0.5843
  461MOL0     C63544   1.382  10.852   4.572  0.2663  0.8117  0.1447
  461MOL0     C63545   1.313  10.942   4.531 -0.9813  0.4673 -0.6168
  461MOL0     C63546   1.554  10.977   5.123  0.3102  0.8788  0.2270
  461MOL0     C63547   1.579  10.976   5.259  0.5945  1.2393 -0.4469
  461MOL0     C63548   1.721  10.964   5.300  0.1272 -0.3204 -0.6145
  461MOL0     H63549   1.312  11.308   5.648  0.6445  1.3819  0.6869
  461MOL0     H63550   1.295  11.376   5.878  0.1869  0.9005  2.6961
  461MOL0     H63551   1.492  11.319   6.185  1.6521 -0.6019 -1.1964
  461MOL0     H63552   1.523  11.156   6.155 -0.7300  0.1846 -1.9209
  461MOL0     H63553   1.371  11.081   6.318  1.7274 -0.6393  0.5948
  461MOL0     H63554   1.493  11.193   6.386  0.3468  1.2460 -0.6792
  461MOL0     H63555   1.336  11.355   6.434  1.0679  1.0766 -1.4967
  461MOL0     H63556   1.219  11.307   6.306  0.3254 -1.2683 -0.5168
  461MOL0     H63557   1.277  11.128   6.554 -0.6510 -0.5250  1.1475
  461MOL0     H63558   1.152  11.259   6.552 -3.0095 -1.6317 -0.7845
  461MOL0     H63559   1.159  11.016   6.374 -1.8836  0.4621 -2.5581
  461MOL0     H63560   1.054  11.158   6.350  0.2676 -0.7553 -0.1085
  461MOL0     H63561   1.079  10.975   6.591 -0.8887  0.0901  0.3875
  461MOL0     H63562   0.965  11.103   6.593  2.3417  2.1364 -1.3444
  461MOL0     H63563   0.987  10.866   6.410  1.0858  1.4907 -1.7586
  461MOL0     H63564   0.871  10.989   6.371  0.4797 -0.0050 -0.2811
  461MOL0     H63565   0.735  10.939   6.578 -0.2318 -0.8416 -0.6614
  461MOL0     H63566   0.760  10.812   6.465 -2.4156 -0.6949  2.9705
  461MOL0     H63567   0.832  10.580   6.586  0.0965 -1.1203  0.4686
  461MOL0     H63568   1.034  10.493   6.897  0.8371 -2.9256  0.0657
  461MOL0     H63569   1.017  10.448   6.720  0.3265  1.3700 -0.6113
  461MOL0     H63570   0.776  10.477   6.915  0.0290  0.1346 -0.0371
  461MOL0     H63571   0.782  10.392   6.755  2.0192 -1.3963 -0.7991
  461MOL0     H63572   0.965  10.228   6.869 -0.7546 -0.0352 -1.5236
  461MOL0     H63573   0.921  10.306   7.017  1.3741  2.5184 -2.1111
  461MOL0     H63574   0.737  10.136   6.838  1.1150 -0.0921 -0.5012
  461MOL0     H63575   0.809  10.099   7.004 -0.1752  2.5260  2.3286
  461MOL0     H63576   0.474  10.324   7.134  1.8946 -0.6760  0.1462
  461MOL0     H63577   0.252  10.235   7.413 -0.0515 -0.7408  0.0773
  461MOL0     H63578   0.170  10.259   7.254  0.9913 -1.7166 -1.5449
  461MOL0     H63579   0.298  10.365   7.307  0.3879 -0.1149  0.2384
  461MOL0     H63580  -0.041   9.846   7.309 -0.9662 -1.2707 -0.2338
  461MOL0     H63581  -0.154   9.689   7.462  0.4482 -0.3613  0.2988
  461MOL0     H63582  -0.238   9.582   7.617 -2.0665  2.0072 -0.8151
  461MOL0     H63583  -0.255   9.548   7.788  0.1282 -0.3440 -1.3111
  461MOL0     H63584  -0.394   9.764   7.802  2.8219  0.3618 -0.1878
  461MOL0     H63585  -0.410   9.770   7.626  1.2599 -1.6095 -1.8756
  461MOL0     H63586  -0.528   9.579   7.837  1.5774  0.2224  0.0852
  461MOL0     H63587  -0.460   9.509   7.687 -0.8634  0.2271 -0.7979
  461MOL0     H63588  -0.618   9.622   7.548 -1.4183 -3.9518  0.1691
  461MOL0     H63589  -0.650   9.748   7.674  2.1639  0.3666 -1.2809
  461MOL0     H63590  -0.721   9.449   7.691 -1.5222 -0.7492 -0.3877
  461MOL0     H63591  -0.754   9.581   7.815  2.4482 -0.6414  0.4985
  461MOL0     H63592  -0.878   9.539   7.538 -0.0546 -0.2759  0.3377
  461MOL0     H63593  -0.896   9.682   7.638 -1.5317  0.5825  1.8551
  461MOL0     H63594  -0.935   9.415   7.769  0.1926  0.5306  0.4166
  461MOL0     H63595  -1.049   9.439   7.635  0.6152  0.7954 -0.5633
  461MOL0     H63596  -0.998   9.618   7.876  0.2838 -0.6275 -0.1695
  461MOL0     H63597  -1.122   9.510   7.875  0.9398 -1.5506  0.3315
  461MOL0     H63598   0.039   9.864   7.803 -0.4936  1.7789  0.0465
  461MOL0     H63599   0.177  10.015   7.640 -0.0222  1.5775 -2.5598
  461MOL0     H63600   0.505   9.850   7.247 -0.8244 -0.2050  0.5249
  461MOL0     H63601   0.679   9.971   7.086  0.4638 -0.6811  2.6749
  461MOL0     H63602   1.431  10.998   6.019  1.2885 -1.1064 -1.1823
  461MOL0     H63603   1.460  10.927   5.774  2.1027  1.4135 -1.8318
  461MOL0     H63604   1.259  10.970   5.376 -1.2279 -0.5871 -1.0444
  461MOL0     H63605   1.225  10.960   5.119 -0.0599  1.8955 -1.0329
  461MOL0     H63606   1.272  10.804   4.978  0.9735  1.5298  2.3253
  461MOL0     H63607   1.267  10.880   4.815 -0.9452  0.7266  1.9584
  461MOL0     H63608   1.390  10.639   4.838  2.8676 -1.1147 -0.0867
  461MOL0     H63609   1.486  10.714   4.953 -2.0250 -1.8192  0.7266
  461MOL0     H63610   1.553  10.873   4.772  0.6195 -1.6170  1.7011
  461MOL0     H63611   1.618  10.711   4.762  1.1548 -0.2707 -2.2973
  461MOL0     H63612   1.407  10.649   4.606  1.0339 -0.2244  0.8034
  461MOL0     H63613   1.548  10.728   4.540  2.0080  0.3376  0.8327
  461MOL0     H63614   1.272  11.023   4.476 -1.0300  0.8935  0.0354
  461MOL0     H63615   1.642  10.983   5.059 -0.4730  3.6554 -0.7155
  461MOL0     H63616   1.739  10.858   5.319 -2.2580 -0.3981  1.7642
  461MOL0     H63617   1.790  11.013   5.230 -2.8793  1.3251 -2.6762
  461MOL0     H63618   1.742  11.011   5.396 -0.9246 -3.6372  1.4142
  462MOL0     O63619   1.019  10.208   5.328 -0.0658  0.3742 -0.2643
  462MOL0     C63620   1.016  10.088   5.344 -0.3566  0.3489 -1.0590
  462MOL0     O63621   0.909  10.010   5.309  0.1374  0.4802 -0.3325
  462MOL0     C63622   0.838  10.052   5.201 -0.1598  0.1753  0.2876
  462MOL0     C63623   0.887  10.088   5.076  0.1029 -0.3217  0.0082
  462MOL0     C63624   0.814  10.129   4.965  0.1230  0.0546  0.3775
  462MOL0     C63625   0.674  10.126   4.972 -1.0297 -0.1073  0.0806
  462MOL0     O63626   0.604  10.160   4.871 -0.2067  0.3051  0.0565
  462MOL0     C63627   0.611  10.292   4.821  0.4651  1.0353 -0.3428
  462MOL0     C63628   0.528  10.312   4.698  0.2295  0.1950 -0.7643
  462MOL0     C63629   0.542  10.453   4.647 -0.1157 -0.4350  0.4442
  462MOL0     C63630   0.473  10.550   4.738  0.0734  0.7975  0.1923
  462MOL0     C63631   0.475  10.691   4.676  0.9575  0.1549  0.4504
  462MOL0     C63632   0.455  10.811   4.779 -0.6108  0.6445 -0.0936
  462MOL0     C63633   0.451  10.952   4.706  0.3747  0.3707 -0.0797
  462MOL0     C63634   0.306  10.981   4.659  0.6949  0.2669 -0.1543
  462MOL0     N63635   0.278  11.114   4.624  0.3258 -0.2530 -0.1928
  462MOL0     C63636   0.250  11.223   4.704  0.1197  0.0657  0.5358
  462MOL0     C63637   0.246  11.325   4.607 -0.5584 -0.6869  0.1888
  462MOL0     C63638   0.195  11.462   4.647  1.2654 -0.2148  0.5242
  462MOL0     C63639   0.275  11.561   4.571  0.0257  0.2890  0.3084
  462MOL0     C63640   0.225  11.697   4.588  1.2137 -0.2412 -0.2146
  462MOL0     C63641   0.296  11.797   4.501 -0.6970  0.6412 -0.0295
  462MOL0     O63642   0.244  11.932   4.505 -0.6992 -0.1796  0.6037
  462MOL0     C63643   0.134  11.972   4.440 -1.2237  0.0324  0.2083
  462MOL0     C63644   0.064  11.913   4.326 -0.0112 -0.1964 -0.2288
  462MOL0     C63645  -0.051  11.965   4.274  0.8207  0.2550  0.0854
  462MOL0     C63646  -0.121  11.896   4.156  0.9709  0.3550  0.5791
  462MOL0     C63647  -0.105  12.087   4.337  1.3914 -0.0487 -0.5937
  462MOL0     C63648  -0.229  12.160   4.289  0.4518 -1.1477 -0.0228
  462MOL0     O63649  -0.269  12.140   4.164  0.4717 -0.7448  0.0469
  462MOL0     C63650  -0.355  12.228   4.096 -0.4369  0.2002  0.0488
  462MOL0     C63651  -0.344  12.268   3.965 -0.2240  0.4498  0.1068
  462MOL0     C63652  -0.432  12.350   3.903 -0.0731  0.4368 -0.1896
  462MOL0     C63653  -0.563  12.371   3.956  0.2151 -0.2731  0.1460
  462MOL0     O63654  -0.658  12.449   3.901  0.3231 -0.1435 -0.0548
  462MOL0     C63655  -0.793  12.409   3.918  0.0523 -0.3089  0.2651
  462MOL0     C63656  -0.897  12.484   3.838 -0.3268  0.3573 -0.0411
  462MOL0     C63657  -0.925  12.622   3.892  0.5128 -0.4749  0.2866
  462MOL0     C63658  -1.072  12.661   3.844  0.3581  1.7400 -0.0409
  462MOL0     C63659  -1.125  12.788   3.898  0.0749  0.3952 -0.9179
  462MOL0     C63660  -1.231  12.860   3.803  0.3783  0.8406 -0.3321
  462MOL0     C63661  -1.358  12.770   3.775  0.0580 -0.1695 -0.9242
  462MOL0     C63662  -1.444  12.831   3.658 -0.9701  0.7056 -0.7910
  462MOL0    Cl63663  -1.346  12.809   3.510  0.0828  0.1284  0.1245
  462MOL0     C63664  -0.583  12.309   4.081  0.1869 -0.6152  0.0037
  462MOL0     C63665  -0.481  12.240   4.147 -0.2901 -0.1317 -0.1403
  462MOL0     O63666  -0.279  12.237   4.375 -0.1268 -0.5452 -0.6461
  462MOL0     C63667  -0.034  12.151   4.441  0.1282 -0.5436  0.7155
  462MOL0     C63668   0.081  12.089   4.487 -0.2361  1.1409 -0.2061
  462MOL0     N63669   0.276  11.273   4.480  0.1005 -0.3119 -0.0679
  462MOL0     N63670   0.279  11.148   4.492 -0.3877 -0.0069  0.2952
  462MOL0     C63671   0.615  10.075   5.092  0.1863 -0.0841  0.1163
  462MOL0     C63672   0.694  10.036   5.202 -0.5304  0.2485 -0.9682
  462MOL0     C63673   1.126  10.029   5.421 -0.4446  0.1907 -0.8635
  462MOL0     C63674   1.107   9.901   5.482 -0.3606  0.3408 -0.6639
  462MOL0     C63675   1.215   9.833   5.539 -0.0130 -0.1861  0.7012
  462MOL0     C63676   1.333   9.895   5.566  0.4146  0.3317  0.6591
  462MOL0     O63677   1.432   9.811   5.618 -0.3663  0.3025  0.7066
  462MOL0     C63678   1.484   9.859   5.738  0.1575 -0.4143  0.0743
  462MOL0     C63679   1.447   9.802   5.873 -0.1872  0.6534  0.2712
  462MOL0     C63680   1.527   9.856   5.999  0.4597  0.4902  0.5812
  462MOL0     C63681   1.475   9.990   6.059 -0.3879  0.1970  0.3061
  462MOL0     C63682   1.356   9.956   6.143  0.8769  0.3378  0.9909
  462MOL0     C63683   1.261   9.924   6.213  0.4369  0.3284 -0.5341
  462MOL0     C63684   1.350  10.035   5.531  0.3122  0.7085 -0.4786
  462MOL0     C63685   1.255  10.098   5.450 -0.4190 -0.3759  0.0077
  462MOL0     C63686   1.287  10.239   5.401  0.4507  0.3252  0.1722
  462MOL0     H63687   0.992  10.070   5.055  0.6062  0.9689  1.2616
  462MOL0     H63688   0.857  10.155   4.868  1.0779 -1.2029  0.4394
  462MOL0     H63689   0.714  10.322   4.802  0.6236 -0.3062 -1.8095
  462MOL0     H63690   0.571  10.350   4.904 -2.7195  0.5948 -1.4065
  462MOL0     H63691   0.556  10.237   4.623  2.9426  0.3520 -0.0210
  462MOL0     H63692   0.421  10.290   4.709  0.7642 -2.5467 -0.3463
  462MOL0     H63693   0.647  10.477   4.628 -0.2889 -0.6775 -0.8763
  462MOL0     H63694   0.484  10.465   4.556 -0.4016  1.5080  0.8432
  462MOL0     H63695   0.375  10.509   4.761 -0.7210  2.7288  0.4567
  462MOL0     H63696   0.524  10.542   4.834 -0.3866 -1.5281  0.3036
  462MOL0     H63697   0.397  10.700   4.600  0.8159  0.5012  0.6342
  462MOL0     H63698   0.570  10.707   4.624  2.7634 -0.3853  3.3524
  462MOL0     H63699   0.371  10.791   4.845  0.4828  2.3488  1.9495
  462MOL0     H63700   0.538  10.801   4.850 -2.4303 -4.8705  1.7902
  462MOL0     H63701   0.524  10.963   4.626  0.5629  0.5089  0.1077
  462MOL0     H63702   0.470  11.031   4.779 -2.4713  2.6086 -1.5830
  462MOL0     H63703   0.295  10.935   4.561  0.8593  3.9678 -2.0748
  462MOL0     H63704   0.236  10.940   4.733 -1.4665  2.6293 -0.7448
  462MOL0     H63705   0.223  11.238   4.808 -0.5455  0.8924  0.2547
  462MOL0     H63706   0.199  11.483   4.754 -1.5105 -1.6080  0.9871
  462MOL0     H63707   0.095  11.453   4.603  2.4126 -1.5438 -2.0640
  462MOL0     H63708   0.376  11.563   4.614  0.7207  4.3421 -1.0880
  462MOL0     H63709   0.275  11.538   4.464  1.5288  1.5075 -0.0002
  462MOL0     H63710   0.116  11.697   4.578  1.2078  0.6905 -0.2770
  462MOL0     H63711   0.239  11.722   4.693 -0.9648 -0.4728  0.1801
  462MOL0     H63712   0.398  11.798   4.542 -2.1477  0.0750  4.0470
  462MOL0     H63713   0.302  11.758   4.399  0.1018 -2.5571  1.1143
  462MOL0     H63714   0.111  11.839   4.263  4.4757  1.4261  0.7981
  462MOL0     H63715  -0.115  11.965   4.072  3.3029 -0.2614  0.1736
  462MOL0     H63716  -0.225  11.864   4.167  0.9414 -1.0208 -2.5339
  462MOL0     H63717  -0.076  11.802   4.121 -3.3626 -1.9881  0.6086
  462MOL0     H63718  -0.246  12.238   3.928 -0.0693  1.4706 -0.3488
  462MOL0     H63719  -0.391  12.392   3.812  2.5938  1.8415  1.5333
  462MOL0     H63720  -0.803  12.304   3.889  0.0550 -1.0439  2.7304
  462MOL0     H63721  -0.819  12.421   4.023  1.1985  1.7563  0.3712
  462MOL0     H63722  -0.861  12.476   3.735 -0.7031  1.3275 -0.2530
  462MOL0     H63723  -0.990  12.427   3.845  1.0183 -1.8034  2.6022
  462MOL0     H63724  -0.848  12.685   3.847  1.6473 -1.7917  0.3007
  462MOL0     H63725  -0.914  12.612   4.000 -1.6661 -2.0600  0.4381
  462MOL0     H63726  -1.136  12.581   3.882 -0.2032  1.9374 -0.5697
  462MOL0     H63727  -1.090  12.660   3.736 -2.8370  0.0872  0.3869
  462MOL0     H63728  -1.172  12.763   3.994  0.2602 -0.3431 -1.0174
  462MOL0     H63729  -1.033  12.847   3.908  0.3976 -0.3016  0.5208
  462MOL0     H63730  -1.182  12.886   3.708  2.1451 -0.1504  0.2625
  462MOL0     H63731  -1.246  12.958   3.848 -1.6995  0.7475 -0.6974
  462MOL0     H63732  -1.421  12.752   3.863  0.4529 -2.4653 -1.0562
  462MOL0     H63733  -1.319  12.676   3.735  1.3937 -0.0053 -0.0789
  462MOL0     H63734  -1.448  12.939   3.674  4.4941  1.2949 -1.4292
  462MOL0     H63735  -1.536  12.772   3.656  0.2498 -1.3160 -2.7383
  462MOL0     H63736  -0.677  12.312   4.137  0.0745 -0.1675 -0.1999
  462MOL0     H63737  -0.505  12.205   4.247 -1.8015  0.1703 -0.3703
  462MOL0     H63738  -0.054  12.250   4.481  5.6458  0.3963  1.9742
  462MOL0     H63739   0.141  12.136   4.564 -1.0588  1.4893  0.2396
  462MOL0     H63740   0.511  10.061   5.118  0.3135  0.1757  0.7905
  462MOL0     H63741   0.643  10.006   5.293 -3.2851  2.2246 -1.7489
  462MOL0     H63742   1.014   9.846   5.475  0.0991 -0.3534 -1.6219
  462MOL0     H63743   1.214   9.725   5.544 -1.5546 -0.3244 -1.3614
  462MOL0     H63744   1.591   9.847   5.721 -0.6223 -2.4399 -5.4255
  462MOL0     H63745   1.455   9.964   5.748  1.0782  0.1405 -2.4290
  462MOL0     H63746   1.467   9.695   5.858 -0.0035  0.5907  0.9343
  462MOL0     H63747   1.340   9.810   5.895 -1.1468 -1.3454 -3.0145
  462MOL0     H63748   1.538   9.776   6.073  0.1670 -0.5153 -0.4238
  462MOL0     H63749   1.628   9.879   5.963  0.6531  0.0200  0.8148
  462MOL0     H63750   1.448  10.063   5.981 -3.7939 -0.4899  0.6791
  462MOL0     H63751   1.542  10.037   6.131  0.8201 -1.9705  0.6788
  462MOL0     H63752   1.175   9.884   6.263 -0.0329  0.0067 -1.5635
  462MOL0     H63753   1.439  10.082   5.571 -1.0348  0.4643  3.1794
  462MOL0     H63754   1.259  10.260   5.298  1.2219  4.1381  0.6141
  462MOL0     H63755   1.224  10.303   5.463  1.2291  1.0339  0.2461
  462MOL0     H63756   1.395  10.259   5.409  0.4324  0.0458  1.2525
  463MOL0     O63757   6.469   6.852   0.493  0.8868 -0.2470 -0.3308
  463MOL0     C63758   6.363   6.847   0.544 -0.0815 -0.3177  0.1651
  463MOL0     O63759   6.274   6.738   0.543 -0.9151  0.2337  0.3858
  463MOL0     C63760   6.317   6.630   0.473 -0.5308  0.1105  1.1513
  463MOL0     C63761   6.338   6.627   0.337  0.2176 -0.1926 -0.9756
  463MOL0     C63762   6.370   6.507   0.268  0.3835 -0.3790 -0.5754
  463MOL0     C63763   6.393   6.388   0.340 -0.3092  0.6502  0.1534
  463MOL0     O63764   6.437   6.273   0.271 -0.3843  0.1600 -0.4233
  463MOL0     C63765   6.434   6.142   0.319  1.3218 -0.0121 -0.2841
  463MOL0     C63766   6.478   6.050   0.216  0.6906  0.1183 -0.5286
  463MOL0     C63767   6.402   6.070   0.079 -0.6719 -0.1376  0.4734
  463MOL0     C63768   6.424   5.945  -0.007 -0.6075  0.8056 -0.3859
  463MOL0     C63769   6.347   5.952  -0.134  0.6668  0.0767  0.0582
  463MOL0     C63770   6.386   6.074  -0.217 -0.5772 -0.4577  1.1054
  463MOL0     C63771   6.267   6.073  -0.328  0.1583 -1.0519  0.1281
  463MOL0     C63772   6.286   6.177  -0.439  0.6140 -0.1352  0.6617
  463MOL0     N63773   6.317   6.314  -0.401 -0.0326  0.2264 -0.3347
  463MOL0     C63774   6.394   6.406  -0.471 -0.5573 -0.2252  0.0424
  463MOL0     C63775   6.399   6.518  -0.401 -0.7702 -0.2865  0.5308
  463MOL0     C63776   6.463   6.637  -0.449  0.3967 -0.4380  0.2411
  463MOL0     C63777   6.377   6.753  -0.409  0.0109 -0.1713 -0.5602
  463MOL0     C63778   6.244   6.768  -0.489 -0.1918  0.7136  0.3653
  463MOL0     C63779   6.270   6.796  -0.643 -0.0779  0.3874 -0.4086
  463MOL0     O63780   6.221   6.922  -0.668  0.2333  0.1872 -0.2798
  463MOL0     C63781   6.216   6.978  -0.792 -0.5528 -0.5097 -0.8805
  463MOL0     C63782   6.159   7.099  -0.808 -0.2736 -0.9256  0.8112
  463MOL0     C63783   6.148   7.159  -0.934  0.5012  0.3009 -0.8439
  463MOL0     C63784   6.089   7.294  -0.943  0.0863  0.1563 -0.1561
  463MOL0     C63785   6.196   7.087  -1.052 -0.2950 -0.4290 -0.0984
  463MOL0     C63786   6.210   7.142  -1.195 -0.4617  0.1504 -0.3858
  463MOL0     O63787   6.177   7.277  -1.225 -0.3811 -0.7541  0.2645
  463MOL0     C63788   6.134   7.293  -1.357 -0.6277 -0.4521  0.2443
  463MOL0     C63789   6.030   7.224  -1.420  0.5151  0.3493 -0.0424
  463MOL0     C63790   6.016   7.240  -1.554  0.4815 -0.3230  0.1514
  463MOL0     C63791   6.085   7.338  -1.627  0.4641 -1.0236  0.8931
  463MOL0     O63792   6.073   7.353  -1.765 -0.1748 -0.0232 -0.3895
  463MOL0     C63793   5.948   7.374  -1.815  0.2207  0.1985  0.1994
  463MOL0     C63794   5.921   7.270  -1.918  0.6672 -0.1249  0.2927
  463MOL0     C63795   5.776   7.289  -1.960  0.2423 -0.0813  0.0514
  463MOL0     C63796   5.746   7.194  -2.078 -0.1191  1.1692  0.9680
  463MOL0     C63797   5.608   7.227  -2.135  0.3741 -0.7194 -0.7291
  463MOL0     C63798   5.556   7.115  -2.228  0.3045 -0.1133 -0.9275
  463MOL0     C63799   5.405   7.149  -2.237  0.8442 -0.2681  0.7999
  463MOL0     C63800   5.341   7.056  -2.344  0.3096 -0.7148 -0.4823
  463MOL0    Cl63801   5.168   7.098  -2.376  0.1579  0.3940  0.1367
  463MOL0     C63802   6.189   7.407  -1.559 -0.3937 -0.4716 -0.1679
  463MOL0     C63803   6.214   7.375  -1.426 -0.7871  0.4092  0.0018
  463MOL0     O63804   6.250   7.064  -1.279  0.0718 -0.3933  0.4011
  463MOL0     C63805   6.252   6.961  -1.027 -0.5398 -0.1997  0.4416
  463MOL0     C63806   6.268   6.908  -0.899  0.0525  0.4891  0.4253
  463MOL0     N63807   6.317   6.502  -0.291 -0.5622 -0.5986  0.3383
  463MOL0     N63808   6.268   6.382  -0.292  0.2840  0.1592 -0.8450
  463MOL0     C63809   6.398   6.400   0.480 -0.0303 -0.1291  1.1446
  463MOL0     C63810   6.352   6.515   0.541 -0.5190  0.1974  0.7004
  463MOL0     C63811   6.330   6.973   0.623 -0.0249  0.1331 -0.9877
  463MOL0     C63812   6.434   7.060   0.659  0.5137 -0.0385  0.4767
  463MOL0     C63813   6.409   7.184   0.717  0.6533  0.3330 -0.2927
  463MOL0     C63814   6.279   7.224   0.754 -0.1909  0.3650  0.2700
  463MOL0     O63815   6.270   7.348   0.823 -0.6753  0.3757  2.2477
  463MOL0     C63816   6.139   7.399   0.859  0.7360  0.3286 -0.1690
  463MOL0     C63817   6.119   7.387   1.008 -0.7445 -0.6721  0.4797
  463MOL0     C63818   5.967   7.408   1.038  0.0077  1.0617 -0.6152
  463MOL0     C63819   5.961   7.430   1.194  0.1089 -0.8596  0.2540
  463MOL0     C63820   5.947   7.575   1.218  0.0193 -0.0011  0.2977
  463MOL0     C63821   5.944   7.693   1.236 -0.2331  1.1643  0.7404
  463MOL0     C63822   6.174   7.135   0.729  0.2085  0.4858 -0.4281
  463MOL0     C63823   6.197   7.013   0.656  0.7734 -0.7276 -0.1341
  463MOL0     C63824   6.084   6.928   0.620  0.4808 -0.5738  0.8810
  463MOL0     H63825   6.328   6.709   0.266  0.8424  0.1096 -0.7228
  463MOL0     H63826   6.368   6.500   0.160  3.0440  0.3570 -0.7329
  463MOL0     H63827   6.329   6.122   0.342  0.2772  0.6091 -3.8381
  463MOL0     H63828   6.502   6.118   0.401  0.2075 -0.3097  0.5788
  463MOL0     H63829   6.587   6.055   0.222  0.7462  2.5095 -2.0696
  463MOL0     H63830   6.464   5.950   0.259 -1.1304  0.6509  0.2270
  463MOL0     H63831   6.297   6.092   0.101 -1.1853 -0.3870 -1.5131
  463MOL0     H63832   6.448   6.158   0.033 -2.5170  0.0132 -1.2365
  463MOL0     H63833   6.531   5.937  -0.029 -0.3298  2.6238  0.1271
  463MOL0     H63834   6.404   5.852   0.047 -1.6167  0.5215 -1.2292
  463MOL0     H63835   6.239   5.959  -0.117  0.6277  0.6225 -0.3728
  463MOL0     H63836   6.360   5.855  -0.184  2.7091 -0.4788  1.5613
  463MOL0     H63837   6.372   6.165  -0.158 -0.0762 -2.5135  4.6771
  463MOL0     H63838   6.478   6.071  -0.276 -3.7553 -3.8811 -4.6532
  463MOL0     H63839   6.173   6.082  -0.275  0.5626 -0.4761  0.7580
  463MOL0     H63840   6.252   5.977  -0.378 -2.0696  0.8899 -3.3375
  463MOL0     H63841   6.357   6.147  -0.516  0.0351  0.7617 -0.2333
  463MOL0     H63842   6.188   6.190  -0.486 -0.4585 -2.3591  2.1187
  463MOL0     H63843   6.441   6.395  -0.568  2.1334  0.5506  1.1665
  463MOL0     H63844   6.481   6.625  -0.557  1.5013 -1.2176  0.4944
  463MOL0     H63845   6.560   6.649  -0.400 -0.5710  0.0706  2.1184
  463MOL0     H63846   6.361   6.748  -0.301  1.4780 -0.3062 -0.3269
  463MOL0     H63847   6.438   6.840  -0.432 -0.2371 -0.3919 -2.1575
  463MOL0     H63848   6.184   6.677  -0.491 -2.3293  1.9596  2.4644
  463MOL0     H63849   6.189   6.855  -0.452 -1.1320 -0.5912  2.1546
  463MOL0     H63850   6.376   6.792  -0.671 -0.0762 -0.3357 -0.3079
  463MOL0     H63851   6.217   6.719  -0.700 -1.0372 -0.5548  1.6780
  463MOL0     H63852   6.125   7.148  -0.718  0.1691 -1.8103  1.4696
  463MOL0     H63853   6.145   7.351  -0.869 -2.0332  2.1813  0.0063
  463MOL0     H63854   5.980   7.292  -0.932  0.0607  1.4775 -0.1059
  463MOL0     H63855   6.088   7.354  -1.034 -4.0393  1.6508  0.6784
  463MOL0     H63856   5.969   7.151  -1.366  0.6870 -2.2588 -3.0619
  463MOL0     H63857   5.945   7.179  -1.609  0.7416  0.8601 -1.5690
  463MOL0     H63858   5.866   7.393  -1.745  0.4484  2.3925 -0.0406
  463MOL0     H63859   5.944   7.469  -1.870  2.7141  0.4883  0.4058
  463MOL0     H63860   5.982   7.287  -2.006 -0.6961 -0.5508 -0.7767
  463MOL0     H63861   5.944   7.172  -1.876  1.7987  1.3516  3.4910
  463MOL0     H63862   5.769   7.391  -1.999  1.4682  0.0546  0.1433
  463MOL0     H63863   5.710   7.276  -1.873 -2.2202  1.8191 -1.3949
  463MOL0     H63864   5.756   7.094  -2.036 -0.3707  1.1454  0.9666
  463MOL0     H63865   5.822   7.216  -2.154  0.0492  3.6158  1.7337
  463MOL0     H63866   5.531   7.246  -2.059  0.1818  2.6888 -1.6125
  463MOL0     H63867   5.610   7.323  -2.187 -3.6105  1.0540  1.8301
  463MOL0     H63868   5.564   7.018  -2.179 -2.1492  0.5963  1.0518
  463MOL0     H63869   5.605   7.118  -2.326 -0.2546 -0.9871 -1.2434
  463MOL0     H63870   5.392   7.254  -2.262  1.9731 -0.1398  0.6869
  463MOL0     H63871   5.355   7.128  -2.142 -1.2185 -1.2348 -0.4380
  463MOL0     H63872   5.353   6.952  -2.310 -0.4897 -1.8963 -3.5058
  463MOL0     H63873   5.391   7.065  -2.441 -0.6516  3.7071 -0.7379
  463MOL0     H63874   6.257   7.468  -1.618 -2.4525  2.4785  0.2641
  463MOL0     H63875   6.299   7.423  -1.380 -0.1202  1.4886 -2.1962
  463MOL0     H63876   6.284   6.899  -1.110 -1.5959 -0.5140  0.2475
  463MOL0     H63877   6.320   6.814  -0.886 -1.5436 -0.8248 -1.9478
  463MOL0     H63878   6.421   6.307   0.531 -0.2844  0.5131  2.4790
  463MOL0     H63879   6.332   6.507   0.647 -3.8636 -1.0866  0.0895
  463MOL0     H63880   6.538   7.033   0.643  0.0356 -1.0216 -1.2157
  463MOL0     H63881   6.490   7.256   0.717  0.5206  0.4851 -0.7613
  463MOL0     H63882   6.122   7.504   0.831  0.4159  0.1559 -0.6448
  463MOL0     H63883   6.046   7.356   0.820  1.1231 -0.2244 -0.4902
  463MOL0     H63884   6.173   7.474   1.047 -0.5841 -0.4521 -0.2196
  463MOL0     H63885   6.154   7.288   1.040 -0.0321 -1.1237 -1.5714
  463MOL0     H63886   5.922   7.491   0.982 -2.2462  1.8264  2.0760
  463MOL0     H63887   5.912   7.315   1.023  2.0173 -0.3226  0.2257
  463MOL0     H63888   6.050   7.399   1.249  1.1569  1.1159 -0.2152
  463MOL0     H63889   5.874   7.375   1.231 -1.6053  2.1190  0.9290
  463MOL0     H63890   5.933   7.796   1.264 -1.3155  0.6690  2.2839
  463MOL0     H63891   6.070   7.150   0.756  0.2126  4.4129 -2.0073
  463MOL0     H63892   6.081   6.903   0.514 -3.5473  1.0315  0.4544
  463MOL0     H63893   6.082   6.836   0.680  3.3273 -0.5185  1.1971
  463MOL0     H63894   5.990   6.980   0.640 -1.4896 -2.9865 -1.2846
  464MOL0     O63895   2.654   4.884   1.485  0.0995 -0.0026 -0.1149
  464MOL0     C63896   2.766   4.889   1.442  0.6594 -0.0960 -1.1868
  464MOL0     O63897   2.865   4.952   1.512 -0.1738  0.3235  0.4614
  464MOL0     C63898   2.839   5.037   1.613  0.4180 -0.5239 -0.0769
  464MOL0     C63899   2.916   5.153   1.616  0.5533  0.9396 -0.2053
  464MOL0     C63900   2.913   5.236   1.719  0.4725  0.0206 -0.5022
  464MOL0     C63901   2.828   5.227   1.827 -0.4487  0.9274 -0.1526
  464MOL0     O63902   2.826   5.318   1.931  0.2115  0.3335 -0.1892
  464MOL0     C63903   2.840   5.275   2.068 -0.2607  0.5397  0.3953
  464MOL0     C63904   2.746   5.345   2.156 -0.0726 -0.0142 -0.0477
  464MOL0     C63905   2.602   5.278   2.162 -0.0838 -0.8555 -0.6400
  464MOL0     C63906   2.513   5.396   2.195  0.7267 -0.3125  0.5114
  464MOL0     C63907   2.363   5.356   2.222 -1.6727 -0.0376  0.2132
  464MOL0     C63908   2.278   5.304   2.108 -0.5133  1.3110  0.0213
  464MOL0     C63909   2.280   5.407   1.989 -0.0851 -0.7845 -0.3689
  464MOL0     C63910   2.147   5.401   1.924 -0.8968 -0.1398 -0.5321
  464MOL0     N63911   2.121   5.272   1.870 -0.2249 -0.7019  0.0954
  464MOL0     C63912   2.166   5.228   1.752 -0.5152  0.2971  0.2317
  464MOL0     C63913   2.090   5.116   1.718 -0.0418  0.1792 -0.7515
  464MOL0     C63914   2.114   5.025   1.603  0.0131 -0.3256  0.3842
  464MOL0     C63915   2.139   4.878   1.639 -0.5050 -0.2258  0.6066
  464MOL0     C63916   2.228   4.851   1.763 -0.7706  0.4968  0.1942
  464MOL0     C63917   2.377   4.823   1.726 -0.6466 -0.1631  0.6566
  464MOL0     O63918   2.465   4.814   1.841  0.2366  0.1856 -0.1506
  464MOL0     C63919   2.495   4.691   1.904 -0.3426  0.0573  0.2498
  464MOL0     C63920   2.624   4.681   1.971  0.8849 -1.1956  0.0813
  464MOL0     C63921   2.652   4.575   2.048  0.3409 -0.4727  0.8865
  464MOL0     C63922   2.778   4.598   2.115 -0.1941  0.3426 -0.0596
  464MOL0     C63923   2.556   4.475   2.072 -0.3285 -1.1267  0.1109
  464MOL0     C63924   2.582   4.365   2.163  0.3113  0.6226 -0.5126
  464MOL0     O63925   2.618   4.404   2.289  0.8037  0.0094 -0.5518
  464MOL0     C63926   2.618   4.297   2.385  0.6740 -0.6584  0.6450
  464MOL0     C63927   2.720   4.199   2.395 -0.2988  0.3855 -0.0331
  464MOL0     C63928   2.693   4.079   2.461  0.7006 -0.7384 -0.2814
  464MOL0     C63929   2.571   4.060   2.527  0.3529 -0.6244 -0.2148
  464MOL0     O63930   2.559   3.943   2.595  0.6087 -0.1582 -0.1415
  464MOL0     C63931   2.434   3.908   2.661 -0.5896 -0.4952  0.6331
  464MOL0     C63932   2.448   3.770   2.737  0.4941 -0.1208  1.0483
  464MOL0     C63933   2.498   3.662   2.647  0.0124 -0.2258 -0.1438
  464MOL0     C63934   2.515   3.535   2.726 -0.3828 -0.2364 -1.1958
  464MOL0     C63935   2.590   3.425   2.650  0.1002  0.9609  0.1395
  464MOL0     C63936   2.610   3.304   2.746 -0.4056  1.3929 -0.2760
  464MOL0     C63937   2.678   3.190   2.676 -1.0199  0.9335  0.6085
  464MOL0     C63938   2.825   3.215   2.647  0.3253  0.3364  0.1177
  464MOL0    Cl63939   2.907   3.076   2.568  0.5098  0.4283 -0.1651
  464MOL0     C63940   2.470   4.160   2.529 -0.4925 -0.1455  0.3192
  464MOL0     C63941   2.503   4.276   2.452  0.0899  0.3160  0.2214
  464MOL0     O63942   2.548   4.251   2.131 -0.5349  0.9852 -0.4542
  464MOL0     C63943   2.436   4.477   1.997  1.2557  0.0189  0.7401
  464MOL0     C63944   2.404   4.584   1.913  0.4470 -0.6618  0.0832
  464MOL0     N63945   2.007   5.097   1.821 -0.1422 -0.6952  0.1269
  464MOL0     N63946   2.020   5.193   1.907  0.5269  0.9577 -1.2170
  464MOL0     C63947   2.739   5.119   1.825 -0.1518  0.0373  0.1919
  464MOL0     C63948   2.737   5.032   1.715 -0.0207 -0.5640  0.4946
  464MOL0     C63949   2.793   4.833   1.303  0.2443 -0.2625  0.1349
  464MOL0     C63950   2.889   4.895   1.223  0.5413  0.3499 -0.8728
  464MOL0     C63951   2.898   4.863   1.091  0.0338  0.5080  0.2255
  464MOL0     C63952   2.808   4.777   1.029  1.1863  0.0360  0.2266
  464MOL0     O63953   2.821   4.744   0.892  0.1335  0.4512  0.2876
  464MOL0     C63954   2.718   4.793   0.808 -0.2615  0.3652 -0.1325
  464MOL0     C63955   2.721   4.751   0.664  0.9570  0.0257  0.0423
  464MOL0     C63956   2.700   4.601   0.627 -0.4581  0.4061 -0.2581
  464MOL0     C63957   2.667   4.586   0.481  0.1495 -0.0095 -0.4599
  464MOL0     C63958   2.665   4.441   0.441  0.1106 -0.2689 -0.0795
  464MOL0     C63959   2.657   4.324   0.405  0.6266 -0.0311 -0.0014
  464MOL0     C63960   2.704   4.718   1.103  0.1767  0.4137 -0.2249
  464MOL0     C63961   2.707   4.735   1.244  0.0445 -0.1142  0.0016
  464MOL0     C63962   2.628   4.643   1.328  0.6311 -0.0697 -0.0707
  464MOL0     H63963   2.990   5.179   1.541  1.4159  0.4421  0.4652
  464MOL0     H63964   2.969   5.329   1.714  1.3567 -0.4159  0.9358
  464MOL0     H63965   2.942   5.288   2.106  1.5964 -0.0854 -3.8724
  464MOL0     H63966   2.813   5.170   2.084  1.5914  0.1465  1.1683
  464MOL0     H63967   2.789   5.345   2.257 -3.3156  0.0011  1.4532
  464MOL0     H63968   2.746   5.454   2.149  2.1035  0.3410  3.1282
  464MOL0     H63969   2.579   5.226   2.069 -1.0380 -3.0607  0.7640
  464MOL0     H63970   2.589   5.204   2.241 -2.3054  0.2978  0.1662
  464MOL0     H63971   2.558   5.449   2.280  3.2744  1.4182 -1.7719
  464MOL0     H63972   2.515   5.471   2.116 -0.6835  0.8479  1.5287
  464MOL0     H63973   2.320   5.444   2.272  0.4550  0.4153  1.3755
  464MOL0     H63974   2.357   5.278   2.298  2.2810  1.9449  2.9107
  464MOL0     H63975   2.313   5.213   2.059 -0.9246  1.8417 -1.3251
  464MOL0     H63976   2.175   5.285   2.139 -1.6431  1.4605 -3.2020
  464MOL0     H63977   2.367   5.395   1.923  0.8263  0.6573  0.5109
  464MOL0     H63978   2.285   5.506   2.034 -0.1976 -0.7286 -0.4812
  464MOL0     H63979   2.067   5.434   1.991  0.8994 -1.9155  2.7047
  464MOL0     H63980   2.150   5.457   1.830  1.4421 -1.3824 -1.2629
  464MOL0     H63981   2.251   5.248   1.688 -0.6301 -0.9593 -0.3312
  464MOL0     H63982   2.193   5.059   1.536 -1.8582 -0.1259 -1.8128
  464MOL0     H63983   2.024   5.025   1.541  1.1030  0.4624 -1.2466
  464MOL0     H63984   2.043   4.848   1.682 -1.1819 -0.9369 -1.3040
  464MOL0     H63985   2.146   4.815   1.550  0.0802 -0.0451  0.5217
  464MOL0     H63986   2.235   4.924   1.844  0.8463  0.8069 -0.1969
  464MOL0     H63987   2.192   4.768   1.825  2.7110  1.5889  4.1723
  464MOL0     H63988   2.382   4.732   1.666 -0.4510 -1.8347  3.0879
  464MOL0     H63989   2.405   4.909   1.664 -5.2898  1.6226  0.5730
  464MOL0     H63990   2.693   4.762   1.950 -3.1961  2.6606  0.0944
  464MOL0     H63991   2.830   4.691   2.091 -0.6008 -0.0121 -2.6461
  464MOL0     H63992   2.842   4.513   2.090  0.8708  1.6127 -1.9951
  464MOL0     H63993   2.762   4.592   2.223  1.9880 -2.0882  0.2039
  464MOL0     H63994   2.806   4.201   2.329 -0.6616  0.9637 -0.5032
  464MOL0     H63995   2.763   3.996   2.450 -0.9258 -2.5709  2.1582
  464MOL0     H63996   2.409   3.982   2.737  3.6683 -0.7923  2.6047
  464MOL0     H63997   2.363   3.911   2.579  1.2166 -0.1967 -0.9867
  464MOL0     H63998   2.523   3.793   2.813  0.2221  1.6684  0.8111
  464MOL0     H63999   2.355   3.745   2.788 -1.0228  2.3532 -0.3165
  464MOL0     H64000   2.599   3.690   2.617 -0.3949  0.1907 -1.1698
  464MOL0     H64001   2.433   3.644   2.561 -1.7179  0.7608  0.8908
  464MOL0     H64002   2.417   3.506   2.765  0.6333 -0.6630  1.2346
  464MOL0     H64003   2.573   3.556   2.816 -1.4428  0.1808 -0.6028
  464MOL0     H64004   2.530   3.390   2.565  0.6494  2.5686 -0.9604
  464MOL0     H64005   2.688   3.453   2.612 -0.9071  2.3074 -1.6076
  464MOL0     H64006   2.517   3.269   2.792 -1.1485  2.0073 -1.2759
  464MOL0     H64007   2.668   3.349   2.828 -1.8623  0.8464  1.1138
  464MOL0     H64008   2.627   3.170   2.581  0.7674 -2.0391  0.1498
  464MOL0     H64009   2.664   3.102   2.740 -1.1131 -1.7580 -2.8358
  464MOL0     H64010   2.875   3.222   2.744 -4.0340  1.8333  2.5198
  464MOL0     H64011   2.839   3.303   2.584  1.5577  0.7967  0.9981
  464MOL0     H64012   2.378   4.156   2.588 -0.8055  1.1827 -0.0346
  464MOL0     H64013   2.449   4.369   2.465  2.9282  1.8753  1.8598
  464MOL0     H64014   2.363   4.398   2.013  1.7193 -0.1872  1.9627
  464MOL0     H64015   2.296   4.589   1.898  0.4880 -1.1649 -0.4155
  464MOL0     H64016   2.666   5.106   1.905 -0.5423  2.5814  0.3269
  464MOL0     H64017   2.667   4.950   1.730  1.0032 -1.5317  0.1589
  464MOL0     H64018   2.963   4.968   1.254  1.8359 -0.6185 -1.5449
  464MOL0     H64019   2.983   4.898   1.034  0.6087 -0.2254  0.6111
  464MOL0     H64020   2.622   4.772   0.855 -1.5719  2.3223 -1.7368
  464MOL0     H64021   2.719   4.903   0.815  2.2022  0.3163  1.6131
  464MOL0     H64022   2.817   4.777   0.618  1.9125 -0.9304  1.4245
  464MOL0     H64023   2.649   4.807   0.603 -2.4347 -4.7640 -0.9547
  464MOL0     H64024   2.798   4.563   0.658 -0.0529  1.4460 -0.2282
  464MOL0     H64025   2.620   4.542   0.672 -0.4894 -1.0159 -2.1037
  464MOL0     H64026   2.758   4.626   0.437 -0.0489 -0.2417 -1.0913
  464MOL0     H64027   2.584   4.651   0.451  2.9743  2.8157 -2.8001
  464MOL0     H64028   2.651   4.223   0.371  4.2107  0.0967 -1.4553
  464MOL0     H64029   2.634   4.646   1.064  3.0274 -1.8113 -1.6200
  464MOL0     H64030   2.540   4.699   1.363  1.2401 -0.1648  1.7016
  464MOL0     H64031   2.595   4.560   1.265  1.8775  0.7347 -1.8517
  464MOL0     H64032   2.678   4.612   1.421  0.6172  0.4363  0.1120
  465MOL0     O64033   9.714   8.305   5.869  0.8252 -0.9449  0.1869
  465MOL0     C64034   9.597   8.272   5.849  1.1020 -0.3236  0.1105
  465MOL0     O64035   9.500   8.340   5.776  0.4788  0.1951  0.1544
  465MOL0     C64036   9.535   8.430   5.680 -0.6036 -0.2146  0.7358
  465MOL0     C64037   9.436   8.512   5.634 -0.7770  0.6580  0.4711
  465MOL0     C64038   9.446   8.603   5.523 -1.0840  0.3746 -0.7950
  465MOL0     C64039   9.566   8.609   5.457  0.3750 -0.9934  0.1515
  465MOL0     O64040   9.585   8.688   5.350  0.0655 -1.6444  0.4365
  465MOL0     C64041   9.507   8.801   5.334  0.1748 -0.8673 -0.0331
  465MOL0     C64042   9.399   8.785   5.232 -0.3357  0.1195 -0.2747
  465MOL0     C64043   9.283   8.884   5.239 -0.4475 -0.6849  0.0669
  465MOL0     C64044   9.171   8.843   5.153 -0.0769 -0.1528  0.2131
  465MOL0     C64045   9.046   8.930   5.155  0.3066 -0.6156  0.2383
  465MOL0     C64046   8.926   8.879   5.071  0.6607  0.2771  0.4234
  465MOL0     C64047   8.814   8.979   5.073  0.9132 -1.0746 -0.1760
  465MOL0     C64048   8.702   8.974   4.965  0.1951 -0.2160  0.2856
  465MOL0     N64049   8.614   8.861   5.000 -0.1989 -0.2262 -0.5378
  465MOL0     C64050   8.488   8.885   5.044 -0.0807 -0.1129  0.1641
  465MOL0     C64051   8.437   8.765   5.083  0.9939 -0.6889 -0.1628
  465MOL0     C64052   8.307   8.752   5.160 -0.6505 -0.2743  0.9957
  465MOL0     C64053   8.324   8.778   5.315  0.0038 -0.0169 -0.2238
  465MOL0     C64054   8.392   8.667   5.398 -1.0262  0.0983 -0.4323
  465MOL0     C64055   8.403   8.708   5.549  0.4084 -0.5807  0.8165
  465MOL0     O64056   8.281   8.748   5.608  0.5387 -0.1953  0.3170
  465MOL0     C64057   8.279   8.781   5.743 -0.1939 -0.2532  0.2194
  465MOL0     C64058   8.367   8.746   5.852  0.8644  0.9888  0.3031
  465MOL0     C64059   8.341   8.790   5.980 -0.4183 -1.2082  0.5645
  465MOL0     C64060   8.459   8.771   6.077 -0.2924 -0.0933  0.5766
  465MOL0     C64061   8.227   8.874   6.006  0.6606 -0.0631  0.2576
  465MOL0     C64062   8.192   8.919   6.143  0.0017 -0.2772 -0.7929
  465MOL0     O64063   8.256   8.874   6.260  0.2492 -0.4862  0.1488
  465MOL0     C64064   8.232   8.927   6.385 -0.6846 -0.3255  1.1648
  465MOL0     C64065   8.323   9.020   6.439  0.2439  0.5566  0.3128
  465MOL0     C64066   8.311   9.074   6.569  0.3311 -0.0384 -0.1856
  465MOL0     C64067   8.191   9.041   6.641 -0.7706  0.1195  0.6146
  465MOL0     O64068   8.181   9.098   6.761 -0.1777  0.9282 -0.2985
  465MOL0     C64069   8.058   9.169   6.795  0.0228  0.6295  0.0390
  465MOL0     C64070   8.067   9.223   6.948  0.6136 -0.4055  0.2862
  465MOL0     C64071   7.959   9.323   6.986  0.7201  0.0478 -0.3412
  465MOL0     C64072   7.989   9.398   7.105  1.5183  0.6897  0.3713
  465MOL0     C64073   7.871   9.416   7.203 -0.4306 -1.1293  0.2371
  465MOL0     C64074   7.904   9.488   7.333 -0.3658  0.5497  0.5488
  465MOL0     C64075   7.887   9.638   7.332  0.0605  0.6760  0.4364
  465MOL0     C64076   7.895   9.690   7.479  0.6246  0.7978 -0.3048
  465MOL0    Cl64077   7.741   9.658   7.561  0.4331  0.0506  0.1275
  465MOL0     C64078   8.107   8.952   6.584  0.2693  1.2966  0.7443
  465MOL0     C64079   8.123   8.896   6.454 -0.2954  0.2523 -0.3760
  465MOL0     O64080   8.103   9.003   6.146  0.6371  0.4017 -0.3426
  465MOL0     C64081   8.138   8.906   5.901 -0.3273  0.8653  0.1853
  465MOL0     C64082   8.171   8.861   5.769  0.7305 -1.2933  0.5859
  465MOL0     N64083   8.531   8.666   5.050 -0.3048 -0.1863 -0.4754
  465MOL0     N64084   8.631   8.726   4.989  0.3183  0.2903 -0.3578
  465MOL0     C64085   9.673   8.524   5.498  0.4816 -0.3206 -0.7250
  465MOL0     C64086   9.658   8.441   5.614  0.3855  0.6791 -0.2462
  465MOL0     C64087   9.540   8.163   5.943  0.1856 -0.3174 -1.0357
  465MOL0     C64088   9.396   8.170   5.977 -0.5165 -0.3603  0.4694
  465MOL0     C64089   9.346   8.086   6.076 -0.0942  0.4267  0.7097
  465MOL0     C64090   9.431   7.987   6.134  0.8510 -0.3606 -0.4706
  465MOL0     O64091   9.378   7.884   6.213  0.1975  0.9168 -0.3590
  465MOL0     C64092   9.378   7.753   6.153 -0.0087  0.4430  0.0231
  465MOL0     C64093   9.242   7.691   6.179 -0.1550  0.3533 -0.3366
  465MOL0     C64094   9.221   7.563   6.099  0.0791  0.9467 -0.6639
  465MOL0     C64095   9.283   7.436   6.156 -0.0390 -0.9071 -0.2502
  465MOL0     C64096   9.195   7.373   6.250 -0.3630 -0.3158 -0.6037
  465MOL0     C64097   9.137   7.329   6.352  0.2657  0.9529 -0.3901
  465MOL0     C64098   9.561   7.975   6.089  0.0054 -0.9461 -0.0948
  465MOL0     C64099   9.623   8.072   6.012 -0.2663 -1.0373  0.2075
  465MOL0     C64100   9.772   8.063   6.004 -1.3135 -0.2019 -0.7059
  465MOL0     H64101   9.336   8.509   5.678 -2.1430  0.0866 -2.4532
  465MOL0     H64102   9.354   8.654   5.494 -1.6888 -1.6216 -2.6918
  465MOL0     H64103   9.568   8.885   5.301 -0.4972  0.0893  1.1000
  465MOL0     H64104   9.472   8.841   5.429  0.5942  0.5703 -0.4641
  465MOL0     H64105   9.437   8.771   5.131  2.7541 -4.2970  1.2086
  465MOL0     H64106   9.348   8.691   5.255 -1.7401  0.7101 -0.8519
  465MOL0     H64107   9.242   8.879   5.340 -2.1774 -2.4042 -0.6723
  465MOL0     H64108   9.322   8.984   5.216 -2.5214 -0.2169 -1.7863
  465MOL0     H64109   9.202   8.825   5.050  3.3722  2.7443  0.5581
  465MOL0     H64110   9.138   8.745   5.188  1.0966 -1.8888 -3.2162
  465MOL0     H64111   9.074   9.032   5.127 -1.2573 -0.2892 -0.2548
  465MOL0     H64112   9.017   8.928   5.261 -0.9365 -1.8717 -0.0917
  465MOL0     H64113   8.952   8.849   4.969 -0.7279 -3.4138  0.9998
  465MOL0     H64114   8.890   8.785   5.115 -1.2861 -0.2802 -2.1327
  465MOL0     H64115   8.858   9.079   5.068  2.5570 -1.7753 -0.5094
  465MOL0     H64116   8.755   8.960   5.163 -1.5077 -0.7405 -1.6145
  465MOL0     H64117   8.645   9.068   4.965 -1.3572 -1.1062 -0.9507
  465MOL0     H64118   8.747   8.944   4.869  0.2405 -1.1801  0.6061
  465MOL0     H64119   8.442   8.981   5.067  1.4715  1.2142 -2.0004
  465MOL0     H64120   8.266   8.652   5.139  3.6623 -2.1419  0.4652
  465MOL0     H64121   8.249   8.830   5.110  0.9523  1.0274  1.0764
  465MOL0     H64122   8.371   8.876   5.327  3.2070 -1.1222 -2.3151
  465MOL0     H64123   8.222   8.780   5.354 -0.2758  1.7298 -0.9658
  465MOL0     H64124   8.325   8.581   5.407  0.3532 -0.7924  2.3057
  465MOL0     H64125   8.487   8.628   5.361 -2.5801 -1.1839 -3.3990
  465MOL0     H64126   8.440   8.617   5.597 -3.0531 -3.4170 -1.3981
  465MOL0     H64127   8.477   8.785   5.572  0.9449 -0.5161 -0.9438
  465MOL0     H64128   8.450   8.682   5.826 -1.9466 -3.7312  1.7509
  465MOL0     H64129   8.425   8.705   6.157 -0.0629 -0.1320  0.6432
  465MOL0     H64130   8.492   8.868   6.114  4.2764 -0.5272 -1.5808
  465MOL0     H64131   8.545   8.719   6.032  2.1457  2.8259  1.5163
  465MOL0     H64132   8.414   9.043   6.384  1.3679 -1.5557  1.1793
  465MOL0     H64133   8.372   9.145   6.625  1.9653 -0.2933 -1.5522
  465MOL0     H64134   8.036   9.251   6.726 -2.3969 -0.8338 -1.0703
  465MOL0     H64135   7.969   9.107   6.783 -1.2470  1.9748  1.8165
  465MOL0     H64136   8.062   9.130   7.005 -1.6623  0.0943  0.9841
  465MOL0     H64137   8.169   9.264   6.948 -0.5432  3.1751 -4.0704
  465MOL0     H64138   7.867   9.264   6.998 -0.9301  2.5742  0.1467
  465MOL0     H64139   7.939   9.387   6.900  0.6470  1.3944  0.6523
  465MOL0     H64140   8.024   9.500   7.089  1.7255  0.3209 -1.8439
  465MOL0     H64141   8.055   9.342   7.171  0.1712  1.3097  2.3314
  465MOL0     H64142   7.791   9.467   7.148  0.4202  0.3939  0.3515
  465MOL0     H64143   7.837   9.316   7.232 -1.9697 -1.1697 -1.5477
  465MOL0     H64144   8.009   9.466   7.350 -0.0627  2.0891  0.7857
  465MOL0     H64145   7.834   9.453   7.410 -0.5839  0.5249  0.3428
  465MOL0     H64146   7.788   9.667   7.296 -0.0846  0.6917  0.8334
  465MOL0     H64147   7.966   9.690   7.278  1.6793 -1.4071  0.6626
  465MOL0     H64148   7.900   9.799   7.483 -4.6400  1.2840 -0.0634
  465MOL0     H64149   7.978   9.634   7.523 -0.3819 -2.5556 -2.2726
  465MOL0     H64150   8.014   8.926   6.635 -0.0633  2.6815  0.8813
  465MOL0     H64151   8.046   8.834   6.408 -1.0076  1.3470 -0.7057
  465MOL0     H64152   8.046   8.964   5.901 -0.7515  0.2908 -2.2139
  465MOL0     H64153   8.110   8.896   5.686 -0.7485 -0.6944  1.8665
  465MOL0     H64154   9.764   8.536   5.440  1.8123 -2.9629  0.6252
  465MOL0     H64155   9.739   8.374   5.642 -1.9814 -1.9762  0.7286
  465MOL0     H64156   9.331   8.250   5.943 -1.9238 -2.1729 -1.3427
  465MOL0     H64157   9.243   8.086   6.110  0.5975 -1.8922  3.1477
  465MOL0     H64158   9.391   7.763   6.045 -2.8633  2.4589 -0.2276
  465MOL0     H64159   9.458   7.694   6.199  1.2675  2.5881  0.6551
  465MOL0     H64160   9.172   7.770   6.149 -1.7224 -1.0458 -0.4942
  465MOL0     H64161   9.240   7.663   6.284 -0.6713 -1.2660 -0.7415
  465MOL0     H64162   9.114   7.553   6.078 -0.2598  0.3399  1.2167
  465MOL0     H64163   9.266   7.572   5.999 -0.6009 -1.8243 -1.3017
  465MOL0     H64164   9.367   7.463   6.221 -0.1845 -0.9588 -0.0368
  465MOL0     H64165   9.327   7.373   6.079 -0.3743 -2.5817  0.8702
  465MOL0     H64166   9.089   7.273   6.430  0.7593  0.5864 -0.3371
  465MOL0     H64167   9.631   7.913   6.144  1.4341  1.5832  1.1579
  465MOL0     H64168   9.818   8.107   5.915  0.5482  0.0286  0.3155
  465MOL0     H64169   9.831   8.110   6.084  0.2641 -2.2758 -0.5621
  465MOL0     H64170   9.794   7.956   6.001 -1.4648 -0.2304 -0.7975
  466MOL0     O64171   6.751   9.384   0.982 -1.1879  0.2305  0.1781
  466MOL0     C64172   6.838   9.460   1.023 -0.3296 -0.5597  0.3325
  466MOL0     O64173   6.834   9.601   1.016 -0.2710  0.1692  0.3335
  466MOL0     C64174   6.763   9.654   0.928 -0.5090  0.2539 -0.0496
  466MOL0     C64175   6.700   9.771   0.969  0.8115 -0.2227 -0.7068
  466MOL0     C64176   6.616   9.839   0.892 -0.2339 -1.4715 -0.5677
  466MOL0     C64177   6.595   9.797   0.759 -0.7198  0.7972  0.4646
  466MOL0     O64178   6.503   9.856   0.678 -0.6043  0.2960 -0.0883
  466MOL0     C64179   6.534   9.856   0.537 -0.5600  1.0271  0.5285
  466MOL0     C64180   6.639   9.966   0.499  0.0594  0.0276 -0.5675
  466MOL0     C64181   6.570  10.103   0.513  1.0239  0.0754 -0.1933
  466MOL0     C64182   6.650  10.212   0.446 -0.1728 -0.3150 -0.0864
  466MOL0     C64183   6.566  10.345   0.441 -0.1650 -0.8038 -0.4563
  466MOL0     C64184   6.574  10.416   0.577 -0.4614 -0.0998  0.2382
  466MOL0     C64185   6.707  10.483   0.628 -0.2829  0.2116 -0.6824
  466MOL0     C64186   6.732  10.613   0.551  0.6688  0.6408 -0.0994
  466MOL0     N64187   6.859  10.674   0.598  0.0770  0.7621 -0.9246
  466MOL0     C64188   6.951  10.715   0.513 -0.3318 -0.2735  1.7266
  466MOL0     C64189   7.042  10.779   0.592  0.2603  0.1611 -0.6525
  466MOL0     C64190   7.160  10.853   0.541 -0.4639 -0.1911 -0.5002
  466MOL0     C64191   7.135  11.000   0.510 -0.5620  0.1587 -0.7409
  466MOL0     C64192   7.028  11.037   0.400  0.7439  0.6629 -0.8177
  466MOL0     C64193   7.059  10.974   0.261  0.7529 -0.2383 -0.5019
  466MOL0     O64194   7.189  11.024   0.233  0.1088  0.0683  0.1195
  466MOL0     C64195   7.212  11.126   0.142  0.2673  0.2296 -0.2898
  466MOL0     C64196   7.123  11.232   0.117  0.2423  0.7571  0.0150
  466MOL0     C64197   7.149  11.328   0.019  0.5223 -1.0758  0.9376
  466MOL0     C64198   7.066  11.453   0.033  0.5239  0.5715  0.8807
  466MOL0     C64199   7.261  11.333  -0.066  1.0104 -0.0170  0.1210
  466MOL0     C64200   7.275  11.433  -0.184  0.0835 -0.3138 -1.2281
  466MOL0     O64201   7.161  11.491  -0.237 -0.0919 -0.0736 -0.6250
  466MOL0     C64202   7.186  11.580  -0.345 -0.0830 -0.8525 -0.9620
  466MOL0     C64203   7.215  11.719  -0.328 -0.2060  0.1773 -0.2011
  466MOL0     C64204   7.240  11.805  -0.440 -0.4201 -0.3121 -0.3384
  466MOL0     C64205   7.226  11.761  -0.576  0.7001 -0.1515 -0.5282
  466MOL0     O64206   7.251  11.836  -0.694 -0.0908  0.9505  0.4856
  466MOL0     C64207   7.296  11.973  -0.684  0.0255 -0.5800  0.4424
  466MOL0     C64208   7.337  12.035  -0.818 -0.5818 -1.4868  0.7494
  466MOL0     C64209   7.247  12.037  -0.940 -0.4394  1.5491 -0.5525
  466MOL0     C64210   7.099  12.050  -0.908 -0.1427 -0.7913 -0.3830
  466MOL0     C64211   7.006  12.038  -1.028  0.1534  0.4578 -0.1083
  466MOL0     C64212   7.027  12.150  -1.130  0.2855 -0.1820  0.1282
  466MOL0     C64213   7.097  12.095  -1.253 -0.4705 -0.8211  0.2339
  466MOL0     C64214   7.023  11.992  -1.349  0.5382  0.1928 -0.4354
  466MOL0    Cl64215   6.870  12.067  -1.401  0.1357  0.1134  0.1195
  466MOL0     C64216   7.202  11.619  -0.582 -0.2720 -1.1109 -0.1630
  466MOL0     C64217   7.189  11.531  -0.476  0.3889  0.3128  0.6276
  466MOL0     O64218   7.391  11.431  -0.230  0.4654  0.0557  0.4797
  466MOL0     C64219   7.345  11.225  -0.035 -0.3587  0.0789 -1.2439
  466MOL0     C64220   7.326  11.136   0.068 -0.1378 -0.1691  0.6592
  466MOL0     N64221   7.006  10.760   0.725  0.3783  0.0623  0.0828
  466MOL0     N64222   6.890  10.700   0.728  0.7417 -0.3911 -0.2915
  466MOL0     C64223   6.659   9.678   0.723 -0.4297  0.7818 -0.8767
  466MOL0     C64224   6.755   9.607   0.805  0.6660 -0.3809  0.5175
  466MOL0     C64225   6.950   9.412   1.098  0.4130  0.6091  0.4438
  466MOL0     C64226   6.987   9.481   1.214 -0.2129  0.0572  0.5158
  466MOL0     C64227   7.090   9.435   1.293  0.0583 -0.4954 -0.9254
  466MOL0     C64228   7.189   9.338   1.248 -0.8112 -0.0664 -0.5050
  466MOL0     O64229   7.314   9.304   1.304 -0.5253 -0.8172 -0.6719
  466MOL0     C64230   7.348   9.347   1.436 -0.1414  0.8675  1.1453
  466MOL0     C64231   7.482   9.419   1.429 -0.2347  0.4353  0.0021
  466MOL0     C64232   7.592   9.336   1.365 -0.6133 -0.5767 -0.0333
  466MOL0     C64233   7.731   9.409   1.371 -0.9864 -0.2370  0.4496
  466MOL0     C64234   7.847   9.330   1.404  0.2454 -0.5160 -0.4700
  466MOL0     C64235   7.935   9.258   1.442  0.7338  1.0154  0.2068
  466MOL0     C64236   7.150   9.275   1.133 -0.9243 -0.2045 -0.2035
  466MOL0     C64237   7.039   9.308   1.055  0.1796  1.1272 -0.0823
  466MOL0     C64238   7.006   9.220   0.943  0.6751 -0.0494  0.4680
  466MOL0     H64239   6.719   9.806   1.070  1.4998  0.7969 -1.1640
  466MOL0     H64240   6.589   9.942   0.915 -1.8043 -1.6164 -1.5862
  466MOL0     H64241   6.454   9.887   0.469  1.2736  4.1857 -0.4050
  466MOL0     H64242   6.556   9.759   0.491  1.6711 -0.6515  4.5952
  466MOL0     H64243   6.723   9.967   0.569 -0.2959 -3.1429  0.0654
  466MOL0     H64244   6.674   9.942   0.398 -0.8610 -1.5662 -0.5552
  466MOL0     H64245   6.468  10.124   0.479  0.5269  2.8250  2.6296
  466MOL0     H64246   6.565  10.128   0.619  0.5306  0.4932 -0.3127
  466MOL0     H64247   6.754  10.222   0.478 -0.0450 -1.0855 -0.2450
  466MOL0     H64248   6.659  10.181   0.341  3.3720  2.4433 -0.8019
  466MOL0     H64249   6.463  10.321   0.412 -0.3435 -3.7896  2.1673
  466MOL0     H64250   6.624  10.404   0.369 -0.0197  0.7438  0.8875
  466MOL0     H64251   6.500  10.497   0.580 -0.7923 -0.2570 -2.0212
  466MOL0     H64252   6.536  10.344   0.649 -1.3616 -1.0638 -1.1456
  466MOL0     H64253   6.794  10.418   0.618  0.0464  0.3800  0.9366
  466MOL0     H64254   6.698  10.521   0.730  2.7611  3.6893 -1.5042
  466MOL0     H64255   6.729  10.595   0.443 -1.3998  2.0442 -0.3432
  466MOL0     H64256   6.647  10.680   0.569  0.7307  1.1375 -1.5390
  466MOL0     H64257   6.954  10.720   0.404  1.9724  1.0233  1.7930
  466MOL0     H64258   7.190  10.800   0.450 -2.1066 -0.0938 -1.1335
  466MOL0     H64259   7.243  10.847   0.612  1.6657 -0.2820 -2.8642
  466MOL0     H64260   7.092  11.044   0.600 -0.2663  2.4688 -1.6665
  466MOL0     H64261   7.221  11.057   0.475 -0.8275  1.2034  0.2607
  466MOL0     H64262   6.929  11.008   0.435  0.6215  1.7632 -0.2297
  466MOL0     H64263   7.025  11.146   0.391 -0.1851  1.0191  2.5290
  466MOL0     H64264   7.057  10.865   0.260  2.3576 -0.2952 -1.4376
  466MOL0     H64265   6.977  10.999   0.193 -0.4504 -4.4630 -0.8591
  466MOL0     H64266   7.025  11.222   0.163  0.0739 -0.5839 -0.5751
  466MOL0     H64267   7.043  11.482   0.136  0.0857  3.5367  0.0261
  466MOL0     H64268   6.976  11.435  -0.026  1.5388  1.1427 -0.9507
  466MOL0     H64269   7.102  11.540  -0.024  2.1271 -0.7057 -0.1749
  466MOL0     H64270   7.202  11.763  -0.230 -1.3886  1.6353 -0.9731
  466MOL0     H64271   7.267  11.910  -0.427 -1.3143 -0.3796  2.9591
  466MOL0     H64272   7.211  12.036  -0.656 -0.5093 -1.4863  0.9273
  466MOL0     H64273   7.381  11.987  -0.616  2.0289  2.9092 -2.4538
  466MOL0     H64274   7.370  12.139  -0.814  0.8557 -1.7543 -1.8411
  466MOL0     H64275   7.427  11.978  -0.840  0.1673  0.4245 -1.5785
  466MOL0     H64276   7.258  11.940  -0.990  0.3205 -0.1044  2.5678
  466MOL0     H64277   7.291  12.114  -1.004  2.6585 -2.0279 -3.1963
  466MOL0     H64278   7.081  12.150  -0.865  1.6352 -1.4120  2.0358
  466MOL0     H64279   7.056  11.982  -0.834 -1.1451  0.3985  0.1684
  466MOL0     H64280   7.020  11.936  -1.064 -1.4370  0.3433 -0.4670
  466MOL0     H64281   6.904  12.044  -0.988  1.2134  1.3968  2.7492
  466MOL0     H64282   7.085  12.225  -1.076  0.7645 -1.6325  1.7369
  466MOL0     H64283   6.930  12.198  -1.145  0.4836  0.7000  1.4253
  466MOL0     H64284   7.195  12.056  -1.222 -1.9214 -2.3522  3.3994
  466MOL0     H64285   7.119  12.182  -1.315  0.0220 -1.4035 -0.4367
  466MOL0     H64286   6.998  11.898  -1.298  0.0565 -0.6323 -2.0883
  466MOL0     H64287   7.087  11.956  -1.430  0.1771 -2.2608  0.2571
  466MOL0     H64288   7.205  11.570  -0.679  2.6593 -2.4520  0.5094
  466MOL0     H64289   7.170  11.424  -0.485 -3.7260  0.6894  2.3446
  466MOL0     H64290   7.437  11.208  -0.091 -1.0994 -2.0466 -1.9145
  466MOL0     H64291   7.391  11.054   0.096 -0.2078 -0.5284 -0.2039
  466MOL0     H64292   6.619   9.623   0.638 -0.7787  1.1721 -0.9716
  466MOL0     H64293   6.807   9.518   0.770  2.3104 -0.5737  3.2069
  466MOL0     H64294   6.923   9.561   1.252 -2.2857 -1.0314 -0.5011
  466MOL0     H64295   7.107   9.484   1.388 -3.3287 -1.6695  0.4309
  466MOL0     H64296   7.284   9.426   1.477  0.5346  1.4722  1.0513
  466MOL0     H64297   7.351   9.266   1.510  0.3450  0.1113  0.3146
  466MOL0     H64298   7.501   9.447   1.533 -0.3866  1.2006 -0.1682
  466MOL0     H64299   7.470   9.511   1.370  1.3083  0.5250 -0.2145
  466MOL0     H64300   7.599   9.249   1.431  0.7972 -1.2970 -1.0859
  466MOL0     H64301   7.574   9.303   1.263  2.1331 -0.7562 -0.5325
  466MOL0     H64302   7.724   9.482   1.453 -2.8437  0.4932 -0.2897
  466MOL0     H64303   7.748   9.462   1.277 -3.6421 -0.7651 -0.4116
  466MOL0     H64304   8.006   9.192   1.488 -0.5104 -0.4262  0.1610
  466MOL0     H64305   7.214   9.194   1.099  0.5262  1.0569 -0.5650
  466MOL0     H64306   7.095   9.186   0.890 -0.7192 -2.4237 -0.5184
  466MOL0     H64307   6.947   9.133   0.974  2.0602 -0.9148  0.7568
  466MOL0     H64308   6.955   9.279   0.866 -1.1550  2.4336  3.3536
  467MOL0     O64309   0.885  11.539   9.366  1.2467  0.4312  0.1921
  467MOL0     C64310   0.922  11.625   9.287 -0.5585  0.6712 -0.0245
  467MOL0     O64311   0.901  11.616   9.155 -0.8777 -0.0453  0.2815
  467MOL0     C64312   0.804  11.532   9.107  0.1444  1.3817  0.3302
  467MOL0     C64313   0.672  11.516   9.155 -0.6387 -0.7887  0.1288
  467MOL0     C64314   0.579  11.445   9.076  0.0616 -0.8353  0.1825
  467MOL0     C64315   0.629  11.352   8.976 -0.8917  0.7247  0.0007
  467MOL0     O64316   0.551  11.263   8.905 -0.4985  1.0315 -0.7847
  467MOL0     C64317   0.411  11.263   8.925  0.7913  0.3276 -0.3305
  467MOL0     C64318   0.362  11.368   8.823 -0.5006 -0.3659 -0.0724
  467MOL0     C64319   0.217  11.345   8.781 -0.3362  0.2416  0.7843
  467MOL0     C64320   0.111  11.351   8.886 -0.3625 -0.1158  0.2893
  467MOL0     C64321  -0.032  11.347   8.816 -0.5509 -1.5314  0.0790
  467MOL0     C64322  -0.143  11.359   8.916  0.0415 -0.1546 -0.2397
  467MOL0     C64323  -0.291  11.333   8.863 -0.0877 -0.1162 -0.3189
  467MOL0     C64324  -0.362  11.470   8.830  0.9418 -0.2317 -0.5657
  467MOL0     N64325  -0.300  11.539   8.715  0.3739  0.2495 -0.3363
  467MOL0     C64326  -0.272  11.467   8.595  0.5982  0.2296  0.0884
  467MOL0     C64327  -0.186  11.544   8.523 -0.2941 -0.0951 -0.3005
  467MOL0     C64328  -0.130  11.496   8.388 -0.5621  0.8577  0.1406
  467MOL0     C64329  -0.008  11.398   8.404 -0.3724  0.6248 -0.5666
  467MOL0     C64330   0.029  11.359   8.260 -0.2654  0.3267 -0.5381
  467MOL0     C64331   0.142  11.256   8.258 -0.0883  0.1797 -0.1261
  467MOL0     O64332   0.271  11.312   8.299 -0.7536  0.2582  0.2135
  467MOL0     C64333   0.396  11.275   8.245  1.3163  0.9320  0.0189
  467MOL0     C64334   0.507  11.354   8.282 -0.5428  0.0747  0.4143
  467MOL0     C64335   0.641  11.317   8.257 -0.0431  0.7130 -0.2189
  467MOL0     C64336   0.750  11.402   8.334 -0.6515 -0.1624 -0.4467
  467MOL0     C64337   0.662  11.214   8.167 -0.4128  0.3781 -0.4528
  467MOL0     C64338   0.790  11.151   8.117 -0.3139 -0.8575  0.0094
  467MOL0     O64339   0.785  11.044   8.033  0.1116 -0.2290  0.4912
  467MOL0     C64340   0.881  11.027   7.944  0.0809 -0.4318  0.8072
  467MOL0     C64341   0.937  11.133   7.870  0.0379  0.1112  0.0354
  467MOL0     C64342   1.009  11.125   7.758 -0.1301 -0.4778 -0.2330
  467MOL0     C64343   1.053  10.998   7.716  0.0593 -0.0188 -0.1769
  467MOL0     O64344   1.134  10.982   7.614 -0.3510 -0.4463  0.0721
  467MOL0     C64345   1.248  11.076   7.611 -0.5290  0.0757 -0.1749
  467MOL0     C64346   1.340  11.011   7.511  0.8656 -1.0982 -0.5752
  467MOL0     C64347   1.465  11.091   7.484  0.6580  0.5253 -0.3924
  467MOL0     C64348   1.561  11.027   7.389  0.3233  0.2897  0.6191
  467MOL0     C64349   1.647  10.912   7.454  0.4209  0.4418 -0.3011
  467MOL0     C64350   1.772  10.888   7.382 -0.3137  0.8901  0.5866
  467MOL0     C64351   1.869  10.796   7.457 -0.4558 -0.9904  0.3717
  467MOL0     C64352   1.996  10.777   7.387  0.0076  0.0127 -0.0762
  467MOL0    Cl64353   2.063  10.625   7.443 -0.4025 -0.2460  0.5265
  467MOL0     C64354   1.003  10.881   7.783 -0.3341 -0.4872 -0.2348
  467MOL0     C64355   0.922  10.902   7.898  0.5065  0.0844 -0.1546
  467MOL0     O64356   0.900  11.197   8.163  0.0962  0.6243  1.1065
  467MOL0     C64357   0.554  11.144   8.110  0.8303 -0.3159  0.1595
  467MOL0     C64358   0.425  11.165   8.165  0.0018 -0.0442 -0.3380
  467MOL0     N64359  -0.179  11.666   8.588 -1.0537 -0.1449 -0.4034
  467MOL0     N64360  -0.238  11.661   8.706 -0.4487  0.2806  0.1182
  467MOL0     C64361   0.768  11.357   8.945  0.0234 -0.0924  1.2535
  467MOL0     C64362   0.850  11.453   8.999 -0.3267 -0.0614  0.1553
  467MOL0     C64363   0.998  11.748   9.333  0.1497  0.7074 -1.0798
  467MOL0     C64364   1.008  11.861   9.253 -0.0231  0.1478 -0.3459
  467MOL0     C64365   1.068  11.982   9.287 -0.2363 -0.1759 -0.2049
  467MOL0     C64366   1.122  11.989   9.419  0.4424 -0.5336 -0.1534
  467MOL0     O64367   1.191  12.096   9.472 -0.3450  0.6044 -0.1447
  467MOL0     C64368   1.227  12.205   9.390 -0.0507  0.8503  0.1859
  467MOL0     C64369   1.296  12.306   9.486 -0.3330  0.1182 -0.2182
  467MOL0     C64370   1.337  12.416   9.401 -0.8181 -0.5370  0.2134
  467MOL0     C64371   1.387  12.535   9.490 -0.3505 -0.3640 -0.6436
  467MOL0     C64372   1.430  12.645   9.405 -0.0435 -0.1836 -0.3301
  467MOL0     C64373   1.455  12.744   9.345 -1.0486  0.9644  0.7015
  467MOL0     C64374   1.111  11.883   9.506  0.4641  0.2849 -0.2514
  467MOL0     C64375   1.062  11.757   9.462  0.0371 -1.2678  1.3585
  467MOL0     C64376   1.097  11.640   9.548 -0.3652  0.5135 -0.4355
  467MOL0     H64377   0.628  11.567   9.241  0.8478 -1.0574  1.0910
  467MOL0     H64378   0.473  11.449   9.098 -0.4511 -5.5202 -0.4120
  467MOL0     H64379   0.370  11.287   9.024 -0.3005  1.2071 -0.9712
  467MOL0     H64380   0.380  11.167   8.883  1.8596  0.6073 -1.8425
  467MOL0     H64381   0.355  11.468   8.865  0.9086  0.4740 -1.7236
  467MOL0     H64382   0.432  11.364   8.739 -0.5670  1.1746 -0.2129
  467MOL0     H64383   0.197  11.422   8.705 -1.6631 -0.8419 -0.0068
  467MOL0     H64384   0.198  11.255   8.722  0.4557  0.9052 -0.5440
  467MOL0     H64385   0.123  11.266   8.955  5.6827 -1.3324 -1.6916
  467MOL0     H64386   0.131  11.446   8.936  1.8962 -0.0591 -0.6325
  467MOL0     H64387  -0.043  11.263   8.747  1.6474 -0.2960 -1.9355
  467MOL0     H64388  -0.045  11.437   8.754  1.7420  0.9439  2.8590
  467MOL0     H64389  -0.129  11.280   8.990  0.2168 -1.6097 -1.7707
  467MOL0     H64390  -0.131  11.456   8.965 -1.2706 -0.3473  0.5116
  467MOL0     H64391  -0.355  11.287   8.939 -0.5224 -1.3812 -1.4121
  467MOL0     H64392  -0.292  11.261   8.781 -1.9673 -2.1922  1.3762
  467MOL0     H64393  -0.466  11.442   8.815 -0.2574  2.5345  1.6348
  467MOL0     H64394  -0.357  11.535   8.918  0.5988 -3.5771  2.1418
  467MOL0     H64395  -0.310  11.371   8.564  0.0541 -0.2007  1.9550
  467MOL0     H64396  -0.092  11.577   8.325 -1.0574  0.6496 -0.4384
  467MOL0     H64397  -0.204  11.440   8.330 -0.7649  1.4924 -0.2230
  467MOL0     H64398   0.080  11.449   8.442 -0.7687  1.9532 -1.3712
  467MOL0     H64399  -0.029  11.312   8.469  1.8881 -1.2451 -2.1183
  467MOL0     H64400  -0.056  11.331   8.197 -1.2150  2.1740 -0.1437
  467MOL0     H64401   0.071  11.452   8.222 -1.2848  1.0240  0.0036
  467MOL0     H64402   0.123  11.173   8.326  0.6646  1.1261  1.2874
  467MOL0     H64403   0.150  11.220   8.155  1.4887 -2.0141  0.6880
  467MOL0     H64404   0.490  11.445   8.338  2.5232  0.1507  1.4403
  467MOL0     H64405   0.850  11.402   8.288 -0.1001  3.7953  0.3461
  467MOL0     H64406   0.771  11.381   8.440 -4.3092  3.5465  1.3213
  467MOL0     H64407   0.706  11.502   8.344 -0.3676 -0.1877  1.4054
  467MOL0     H64408   0.933  11.240   7.886  0.8201  0.0696  0.5633
  467MOL0     H64409   1.035  11.221   7.712  2.2792 -1.0727 -0.2145
  467MOL0     H64410   1.209  11.172   7.577  0.2661  0.7717  0.8079
  467MOL0     H64411   1.314  11.080   7.698  0.4195  2.8315 -0.9400
  467MOL0     H64412   1.369  10.910   7.540  3.5786 -0.1754  0.2307
  467MOL0     H64413   1.281  11.010   7.419 -0.3358  2.7411 -0.0078
  467MOL0     H64414   1.512  11.118   7.579  1.6644 -0.3122 -0.6313
  467MOL0     H64415   1.439  11.182   7.429 -0.5220  1.4131  1.5233
  467MOL0     H64416   1.634  11.101   7.354 -0.1778  0.7218  0.4699
  467MOL0     H64417   1.507  10.992   7.301  3.7511  0.4525 -1.7628
  467MOL0     H64418   1.662  10.912   7.562  0.6975 -0.1652 -0.3382
  467MOL0     H64419   1.585  10.823   7.443 -1.0694  1.1033  1.9347
  467MOL0     H64420   1.833  10.974   7.355  1.8057 -0.5456  0.5733
  467MOL0     H64421   1.748  10.835   7.290  3.2592  0.9339 -0.5293
  467MOL0     H64422   1.808  10.705   7.467  1.2942 -2.1132  1.4279
  467MOL0     H64423   1.888  10.829   7.559 -2.0900 -0.7692  0.6258
  467MOL0     H64424   2.061  10.865   7.384  2.0270 -1.4381 -3.0701
  467MOL0     H64425   1.988  10.755   7.280  3.5305 -1.2914 -0.1876
  467MOL0     H64426   1.028  10.781   7.748  1.6510 -0.9428  2.1625
  467MOL0     H64427   0.876  10.817   7.949 -0.5416  0.9638  0.3934
  467MOL0     H64428   0.549  11.082   8.021 -0.1580  5.0278 -4.0430
  467MOL0     H64429   0.345  11.099   8.133  0.1349  0.4391 -1.7378
  467MOL0     H64430   0.799  11.294   8.863 -0.9128  1.7647 -0.6244
  467MOL0     H64431   0.953  11.462   8.966 -0.0907 -1.5490  0.3943
  467MOL0     H64432   0.960  11.855   9.156 -0.3442  1.0555 -0.2458
  467MOL0     H64433   1.073  12.064   9.217 -1.4567 -1.7095 -2.1850
  467MOL0     H64434   1.292  12.170   9.308 -2.4677 -0.2063 -1.4007
  467MOL0     H64435   1.136  12.243   9.343 -0.4524  0.6178  0.7648
  467MOL0     H64436   1.378  12.265   9.545 -0.2770 -0.9382 -0.9989
  467MOL0     H64437   1.216  12.345   9.550 -1.4503 -2.4128  0.0451
  467MOL0     H64438   1.415  12.377   9.336 -0.2954  0.8038 -0.0000
  467MOL0     H64439   1.255  12.448   9.336  1.0804 -0.5882 -2.3736
  467MOL0     H64440   1.471  12.502   9.552 -0.3850 -2.2527 -1.5380
  467MOL0     H64441   1.300  12.562   9.551 -1.4586 -1.9735 -1.4398
  467MOL0     H64442   1.468  12.828   9.280 -0.0424 -0.8555 -1.5810
  467MOL0     H64443   1.154  11.894   9.605  1.5676 -0.2943 -0.6567
  467MOL0     H64444   1.018  11.635   9.623 -1.4527  1.7728 -1.4427
  467MOL0     H64445   1.109  11.542   9.501 -0.3015  0.6804 -0.7692
  467MOL0     H64446   1.178  11.648   9.622 -2.5322 -0.8349  2.2856
  468MOL0     O64447   8.269   4.880   3.968  0.0239  0.2227 -0.0431
  468MOL0     C64448   8.182   4.937   4.042  0.6477  0.7404  0.5658
  468MOL0     O64449   8.052   4.951   4.012 -0.4347 -0.7429 -0.0399
  468MOL0     C64450   8.012   4.932   3.887  0.0481  0.7084  0.1231
  468MOL0     C64451   8.013   4.805   3.816  0.7728  0.0801 -0.9697
  468MOL0     C64452   7.972   4.800   3.683  0.1418  0.5956 -0.3570
  468MOL0     C64453   7.910   4.909   3.625 -0.7138  0.5384  0.1318
  468MOL0     O64454   7.896   4.907   3.486 -0.0101  0.1383  0.2496
  468MOL0     C64455   8.014   4.976   3.423  0.3928 -0.1153 -0.2243
  468MOL0     C64456   7.998   4.953   3.270  0.2735  0.1404 -1.1033
  468MOL0     C64457   8.007   4.804   3.227 -0.1390 -0.2544 -0.0153
  468MOL0     C64458   8.040   4.791   3.077  0.3146 -0.3268 -0.0148
  468MOL0     C64459   7.952   4.876   2.996  0.6430 -0.1484  0.2543
  468MOL0     C64460   7.967   4.857   2.843 -0.1382 -0.5019 -0.7031
  468MOL0     C64461   7.875   4.952   2.767  0.6085  0.1148 -0.8679
  468MOL0     C64462   7.924   4.990   2.641  0.7204 -0.6739  0.8006
  468MOL0     N64463   7.946   4.879   2.545  0.4470  0.0564 -0.0710
  468MOL0     C64464   7.850   4.828   2.463  0.3522 -0.2829 -0.2979
  468MOL0     C64465   7.927   4.735   2.396  0.5386 -0.6574  0.2378
  468MOL0     C64466   7.874   4.632   2.300 -0.2222  0.5941  0.2511
  468MOL0     C64467   7.981   4.546   2.241  0.2574 -0.4977  0.2608
  468MOL0     C64468   7.940   4.479   2.106 -0.2162  0.4193 -0.5978
  468MOL0     C64469   8.066   4.414   2.053  0.4884 -0.3587  0.1456
  468MOL0     O64470   8.037   4.330   1.939 -0.9886 -0.7158  0.0477
  468MOL0     C64471   8.010   4.204   1.985 -0.1107 -0.8354 -0.1556
  468MOL0     C64472   7.885   4.156   1.947  0.5134 -0.1471  0.7061
  468MOL0     C64473   7.868   4.019   1.968 -0.2474  0.6335  0.3274
  468MOL0     C64474   7.719   3.985   1.950 -0.1887 -0.9928 -0.1375
  468MOL0     C64475   7.975   3.930   2.014 -0.3385  0.3097  0.3429
  468MOL0     C64476   7.953   3.786   2.051  0.7904 -1.6376 -0.3350
  468MOL0     O64477   8.073   3.725   2.085  0.3953  0.2106 -0.1264
  468MOL0     C64478   8.061   3.590   2.117 -0.6108  0.1225 -0.5534
  468MOL0     C64479   8.041   3.476   2.035  0.6163 -0.8096 -0.6367
  468MOL0     C64480   8.044   3.355   2.097  0.1539  0.1440  0.2491
  468MOL0     C64481   8.068   3.342   2.239  0.0288  0.6956  0.2365
  468MOL0     O64482   8.085   3.217   2.297  0.3101 -0.3276  0.2226
  468MOL0     C64483   8.110   3.098   2.207  0.8027 -0.2947  0.2448
  468MOL0     C64484   8.140   2.974   2.295  0.5058 -0.2998 -0.0340
  468MOL0     C64485   8.156   2.847   2.222 -0.3745  0.2429 -0.2275
  468MOL0     C64486   8.187   2.736   2.322  0.2197  0.9083  0.3582
  468MOL0     C64487   8.247   2.611   2.254  0.7409  0.3052  0.3711
  468MOL0     C64488   8.388   2.636   2.188 -0.0991 -0.1823  0.3465
  468MOL0     C64489   8.430   2.500   2.141 -1.6532  0.8409  0.9711
  468MOL0     C64490   8.561   2.506   2.067  0.1297 -0.1373  0.1644
  468MOL0    Cl64491   8.689   2.543   2.183  0.2565 -0.0336 -0.4166
  468MOL0     C64492   8.095   3.453   2.319  0.7671 -0.1580 -0.1195
  468MOL0     C64493   8.088   3.577   2.257  0.4910  0.6112  0.4126
  468MOL0     O64494   7.843   3.730   2.047  0.0847  0.6951  0.2001
  468MOL0     C64495   8.094   3.985   2.045 -0.4038 -0.2755 -0.4719
  468MOL0     C64496   8.114   4.117   2.028 -0.7392 -0.3469 -1.0239
  468MOL0     N64497   8.063   4.749   2.426  0.0456  0.2818  0.1827
  468MOL0     N64498   8.067   4.823   2.526  0.0207  0.1650 -0.0926
  468MOL0     C64499   7.907   5.030   3.693 -0.0902  1.0754  0.5362
  468MOL0     C64500   7.962   5.042   3.820  0.4210  0.3591  0.1811
  468MOL0     C64501   8.223   4.991   4.173 -0.3264  0.4331 -0.8592
  468MOL0     C64502   8.362   5.015   4.198 -0.2994  0.5036 -0.2985
  468MOL0     C64503   8.397   5.053   4.328  0.5734  0.0520 -0.4446
  468MOL0     C64504   8.299   5.072   4.431 -0.4339  0.2395  1.2130
  468MOL0     O64505   8.323   5.117   4.551 -0.5462  0.4756 -0.4386
  468MOL0     C64506   8.446   5.074   4.618 -0.2700  0.2933  0.1690
  468MOL0     C64507   8.411   5.011   4.750 -0.5318  0.0038  0.6322
  468MOL0     C64508   8.343   4.882   4.716  0.3932  0.0259 -0.0661
  468MOL0     C64509   8.350   4.811   4.853 -0.5351 -0.2070 -0.1783
  468MOL0     C64510   8.268   4.689   4.863  0.3755 -0.0252 -0.4566
  468MOL0     C64511   8.200   4.585   4.876 -0.2052  0.3114  0.1396
  468MOL0     C64512   8.170   5.051   4.405  0.5905 -0.1190  0.9285
  468MOL0     C64513   8.126   5.019   4.278 -0.0972  0.5334 -0.4963
  468MOL0     C64514   7.977   4.997   4.266 -0.1504 -0.3088  0.5057
  468MOL0     H64515   8.075   4.725   3.854 -0.0733  0.1681  0.6652
  468MOL0     H64516   8.003   4.707   3.637 -0.5324 -1.0124  2.2219
  468MOL0     H64517   8.111   4.936   3.455  0.7938  0.6856 -0.4250
  468MOL0     H64518   8.015   5.084   3.436 -0.7174  0.9056 -6.0608
  468MOL0     H64519   7.898   4.987   3.241  1.2447  1.9821 -2.4586
  468MOL0     H64520   8.058   5.020   3.209  1.6203 -0.7754 -0.8169
  468MOL0     H64521   8.089   4.760   3.283  1.7271  2.9304  0.0197
  468MOL0     H64522   7.911   4.755   3.246 -0.6482  1.5618  2.7301
  468MOL0     H64523   8.142   4.818   3.051 -0.3473  2.5812  0.0501
  468MOL0     H64524   8.028   4.688   3.042 -3.9497  0.4814 -1.5498
  468MOL0     H64525   7.981   4.980   3.012 -0.0792  0.8625 -3.8508
  468MOL0     H64526   7.848   4.865   3.026  0.7088  1.6579  1.3230
  468MOL0     H64527   8.072   4.882   2.827 -0.3632  3.4262  2.5514
  468MOL0     H64528   7.953   4.750   2.823  3.0481 -1.1968  0.1276
  468MOL0     H64529   7.864   5.046   2.822  2.0081  1.9444 -3.4908
  468MOL0     H64530   7.774   4.912   2.754  0.3566  0.8750 -1.3100
  468MOL0     H64531   7.861   5.068   2.597  1.9537 -0.8370 -1.4133
  468MOL0     H64532   8.023   5.031   2.666  1.5036  1.1414 -4.0583
  468MOL0     H64533   7.744   4.853   2.460  0.1212 -0.8289  1.9209
  468MOL0     H64534   7.820   4.689   2.224  0.3345  1.5462  0.5527
  468MOL0     H64535   7.797   4.582   2.359 -0.5668  2.1642  1.1776
  468MOL0     H64536   8.068   4.611   2.227 -0.2487  0.1565  0.0445
  468MOL0     H64537   8.005   4.468   2.313  0.0552  0.1677  1.0623
  468MOL0     H64538   7.860   4.411   2.137 -0.9892  2.1368  1.4905
  468MOL0     H64539   7.907   4.550   2.029 -0.8277  0.4036 -0.3527
  468MOL0     H64540   8.120   4.490   1.996 -0.9631 -0.2425 -1.1206
  468MOL0     H64541   8.133   4.368   2.127 -0.3431  1.9054  2.4587
  468MOL0     H64542   7.815   4.233   1.916  1.2840  0.0130 -0.7528
  468MOL0     H64543   7.685   3.959   2.051  0.6403  2.1393  1.0779
  468MOL0     H64544   7.709   3.906   1.875  1.6687 -0.6327 -0.8216
  468MOL0     H64545   7.661   4.072   1.920  0.6482  0.1645  1.4310
  468MOL0     H64546   8.027   3.497   1.929  1.0118 -1.1480 -0.7586
  468MOL0     H64547   8.024   3.269   2.034 -3.3323  0.2291  1.0245
  468MOL0     H64548   8.020   3.069   2.152  1.3874 -0.3709 -0.7005
  468MOL0     H64549   8.189   3.127   2.137  2.0334  0.1961  1.7944
  468MOL0     H64550   8.223   2.989   2.365  1.5729  3.9235 -1.9111
  468MOL0     H64551   8.056   2.949   2.360  0.2948  1.4997  0.4405
  468MOL0     H64552   8.223   2.867   2.138 -1.5836 -0.0131 -1.3001
  468MOL0     H64553   8.068   2.810   2.168  0.3331 -0.0568 -1.2055
  468MOL0     H64554   8.089   2.712   2.364 -0.4971  2.7084 -0.1987
  468MOL0     H64555   8.257   2.769   2.399  2.4149  1.0861 -1.6068
  468MOL0     H64556   8.254   2.537   2.335 -1.6721 -0.0362  0.3460
  468MOL0     H64557   8.169   2.568   2.190  1.4724 -2.0506  0.9848
  468MOL0     H64558   8.450   2.678   2.267 -1.7718  0.4282  1.3766
  468MOL0     H64559   8.386   2.709   2.106 -0.0933 -1.1958 -0.5821
  468MOL0     H64560   8.351   2.463   2.075 -1.0256  3.3853 -1.4419
  468MOL0     H64561   8.447   2.430   2.223  1.1450 -2.2106 -1.9291
  468MOL0     H64562   8.541   2.568   1.979  0.7311 -0.8516 -0.4880
  468MOL0     H64563   8.591   2.410   2.025  0.7013 -0.0192  0.2904
  468MOL0     H64564   8.110   3.447   2.426 -0.8105  1.3833  0.2383
  468MOL0     H64565   8.113   3.670   2.307  0.1301  1.3203 -0.6949
  468MOL0     H64566   8.173   3.925   2.089 -1.8527 -2.0656 -0.1721
  468MOL0     H64567   8.206   4.164   2.062 -0.7761 -0.8897 -0.1301
  468MOL0     H64568   7.874   5.123   3.648 -1.0175 -0.0115 -1.1495
  468MOL0     H64569   7.965   5.145   3.856  3.8303  0.5316 -0.2955
  468MOL0     H64570   8.443   5.000   4.128 -0.0381  1.7711 -0.2895
  468MOL0     H64571   8.498   5.080   4.356  0.3773 -1.1403  1.6548
  468MOL0     H64572   8.505   4.998   4.566  0.5348 -0.1075  1.6316
  468MOL0     H64573   8.493   5.172   4.625  0.4794 -0.1515  1.8074
  468MOL0     H64574   8.346   5.077   4.807 -1.3981 -1.4322  1.3761
  468MOL0     H64575   8.503   4.991   4.806  0.0947  0.3254 -0.2777
  468MOL0     H64576   8.242   4.901   4.676 -0.7478 -1.4568  1.9159
  468MOL0     H64577   8.397   4.817   4.646 -0.8886 -2.5883  1.2435
  468MOL0     H64578   8.342   4.874   4.942  4.2616 -2.1546  1.9920
  468MOL0     H64579   8.451   4.772   4.866 -0.8717 -0.8611  0.5407
  468MOL0     H64580   8.134   4.502   4.861  1.8150 -1.5468  0.9513
  468MOL0     H64581   8.106   5.063   4.491  1.0574 -0.9223  1.4005
  468MOL0     H64582   7.975   4.897   4.222  0.8147 -1.2295  2.4228
  468MOL0     H64583   7.923   4.990   4.361  1.3626 -0.1984  1.4074
  468MOL0     H64584   7.930   5.065   4.195 -0.0645 -1.2058 -0.4272
  469MOL0     O64585   1.911  11.319   7.018 -0.5627 -0.3416 -0.4687
  469MOL0     C64586   1.844  11.220   7.034 -0.8829  0.2480  0.1472
  469MOL0     O64587   1.721  11.217   7.091  0.5054  1.2243 -0.4240
  469MOL0     C64588   1.659  11.332   7.140  1.1063 -0.1351 -0.3294
  469MOL0     C64589   1.518  11.358   7.127 -0.7244  0.8946  0.2833
  469MOL0     C64590   1.466  11.488   7.154  0.1473 -0.4095 -0.7684
  469MOL0     C64591   1.535  11.573   7.245 -0.6078  1.0665 -0.0540
  469MOL0     O64592   1.485  11.691   7.307  0.2986 -0.1095  0.0325
  469MOL0     C64593   1.341  11.709   7.288 -0.3740 -0.4956  0.0571
  469MOL0     C64594   1.296  11.822   7.379  0.1232  0.6378  0.5811
  469MOL0     C64595   1.341  11.960   7.330 -0.5260  0.0515  0.1091
  469MOL0     C64596   1.496  11.985   7.331  0.7305 -0.0776  0.3069
  469MOL0     C64597   1.529  12.136   7.285  0.3010 -0.0668 -1.0938
  469MOL0     C64598   1.505  12.179   7.138 -0.6893 -0.1041 -0.7764
  469MOL0     C64599   1.545  12.328   7.117 -1.2624  0.4972  0.1078
  469MOL0     C64600   1.479  12.368   6.979  0.6106  1.1078  0.2358
  469MOL0     N64601   1.528  12.500   6.938 -0.4076  0.1857  0.0043
  469MOL0     C64602   1.649  12.518   6.884 -0.8810  1.0071 -0.7811
  469MOL0     C64603   1.637  12.638   6.812  0.9692  0.2624  0.0626
  469MOL0     C64604   1.744  12.691   6.727  0.0832 -0.3282  0.2372
  469MOL0     C64605   1.709  12.832   6.679  0.1201 -0.4439 -0.0825
  469MOL0     C64606   1.790  12.870   6.558 -0.1125  0.6127 -0.2186
  469MOL0     C64607   1.941  12.849   6.577 -0.0379 -0.6408 -0.3571
  469MOL0     O64608   1.997  12.878   6.707  0.3190  0.2813 -0.2094
  469MOL0     C64609   2.010  13.004   6.754  0.0939 -0.7819  0.2018
  469MOL0     C64610   2.040  13.009   6.887 -0.1666  0.4214 -0.3562
  469MOL0     C64611   2.044  13.130   6.953  0.0149  0.3227 -1.2684
  469MOL0     C64612   2.046  13.126   7.106  0.3604 -0.0679  0.4202
  469MOL0     C64613   2.040  13.254   6.879 -0.3188  0.1028 -0.4401
  469MOL0     C64614   2.048  13.385   6.941  0.0500 -0.3217 -0.5715
  469MOL0     O64615   2.110  13.401   7.060  0.3438 -0.4396  0.1308
  469MOL0     C64616   2.100  13.523   7.116 -0.4362  0.1542 -0.1614
  469MOL0     C64617   1.997  13.575   7.192  1.1757 -0.1069 -1.5982
  469MOL0     C64618   2.007  13.697   7.263 -0.2726 -0.5274 -0.5106
  469MOL0     C64619   2.121  13.769   7.256 -0.1886 -0.6504 -0.0682
  469MOL0     O64620   2.126  13.892   7.310 -0.6517  0.2362 -0.2594
  469MOL0     C64621   2.070  13.995   7.223 -0.1348  0.0909 -0.2907
  469MOL0     C64622   2.135  14.127   7.249 -0.2911 -0.4884 -0.2960
  469MOL0     C64623   2.069  14.192   7.371 -0.3784 -0.0429 -0.7519
  469MOL0     C64624   2.147  14.160   7.501 -0.8895  0.0009 -0.3106
  469MOL0     C64625   2.073  14.208   7.634 -0.7255 -0.2103  0.8999
  469MOL0     C64626   2.118  14.137   7.759  0.1355 -0.0123  0.1730
  469MOL0     C64627   2.262  14.186   7.787 -0.5977 -1.3453 -0.7277
  469MOL0     C64628   2.251  14.301   7.886  0.3272  0.3354  0.3796
  469MOL0    Cl64629   2.195  14.242   8.051 -0.3849  0.1203 -0.2535
  469MOL0     C64630   2.231  13.719   7.183 -0.1873 -0.3336  1.2066
  469MOL0     C64631   2.216  13.600   7.110 -0.8786 -0.5174 -0.2636
  469MOL0     O64632   1.996  13.475   6.880  0.2246  0.0546 -0.4194
  469MOL0     C64633   2.024  13.246   6.738 -0.1895 -0.6224 -0.6287
  469MOL0     C64634   2.005  13.126   6.681 -0.6449  0.7690 -0.1153
  469MOL0     N64635   1.519  12.691   6.851  0.0127 -0.0040 -0.9786
  469MOL0     N64636   1.447  12.609   6.926  0.2099  0.1708 -0.4980
  469MOL0     C64637   1.664  11.528   7.288  0.0310  0.8517 -0.3421
  469MOL0     C64638   1.721  11.423   7.223 -1.0879 -0.3293 -0.1653
  469MOL0     C64639   1.898  11.091   6.996 -0.6954  0.8358 -0.6075
  469MOL0     C64640   1.824  10.970   7.019  0.0327 -0.6346 -0.7572
  469MOL0     C64641   1.855  10.843   6.977 -0.0404  0.5158 -0.2934
  469MOL0     C64642   1.969  10.823   6.904  0.3788 -0.2279 -0.1761
  469MOL0     O64643   2.014  10.703   6.852  0.0196  0.5123 -0.4232
  469MOL0     C64644   1.964  10.580   6.914 -0.0774 -0.3306 -0.2044
  469MOL0     C64645   1.828  10.532   6.853  0.3790 -0.1616  0.2516
  469MOL0     C64646   1.854  10.473   6.710 -0.3724  0.1735  0.5352
  469MOL0     C64647   1.902  10.330   6.706  0.5961  0.0401  0.5051
  469MOL0     C64648   1.825  10.233   6.782  0.2593  0.4560 -0.7278
  469MOL0     C64649   1.751  10.162   6.851 -0.6427 -0.6203 -0.4615
  469MOL0     C64650   2.051  10.936   6.876 -0.4712  0.3204 -0.1170
  469MOL0     C64651   2.019  11.067   6.923 -0.1982  0.6917  0.0757
  469MOL0     C64652   2.121  11.174   6.884 -0.3171  0.6682  0.1057
  469MOL0     H64653   1.457  11.295   7.062 -2.6099  3.4073 -0.5537
  469MOL0     H64654   1.372  11.523   7.113  0.3945  0.6129 -0.4944
  469MOL0     H64655   1.287  11.619   7.319  0.2155 -0.6357  0.6835
  469MOL0     H64656   1.307  11.732   7.186  0.4734 -0.0279 -0.1286
  469MOL0     H64657   1.188  11.824   7.393 -0.1924 -2.3033 -0.7242
  469MOL0     H64658   1.341  11.800   7.477  0.4265  0.0641  0.3152
  469MOL0     H64659   1.317  11.984   7.226  2.3311  0.0476 -0.6123
  469MOL0     H64660   1.293  12.030   7.399  0.0486 -1.2710  1.9197
  469MOL0     H64661   1.542  11.963   7.427  2.1246 -0.6755 -0.4727
  469MOL0     H64662   1.552  11.924   7.260  4.2420  2.5495  0.5471
  469MOL0     H64663   1.634  12.148   7.313  0.5750 -0.5531 -1.8622
  469MOL0     H64664   1.465  12.203   7.343  2.4859  1.9374 -0.8189
  469MOL0     H64665   1.574  12.116   7.082 -1.2297 -1.3400 -0.0987
  469MOL0     H64666   1.401  12.161   7.108 -0.6387  1.1375 -1.7911
  469MOL0     H64667   1.654  12.334   7.120 -1.1971  2.0059 -2.6569
  469MOL0     H64668   1.488  12.385   7.192 -0.0001  1.0111  0.6973
  469MOL0     H64669   1.506  12.295   6.902  1.4080 -0.4836  1.9444
  469MOL0     H64670   1.370  12.365   6.984  0.4385  1.8046 -2.0090
  469MOL0     H64671   1.724  12.442   6.869 -1.7486  0.5169 -3.1538
  469MOL0     H64672   1.740  12.625   6.640 -0.9126 -0.3318  0.2716
  469MOL0     H64673   1.833  12.669   6.786 -0.5811  0.9269  1.7818
  469MOL0     H64674   1.601  12.844   6.664  0.5037  2.6318 -1.0908
  469MOL0     H64675   1.722  12.893   6.769 -1.5353  0.1854 -0.2248
  469MOL0     H64676   1.762  12.816   6.467 -1.5914  2.9634 -1.2668
  469MOL0     H64677   1.775  12.977   6.543 -2.1602  0.4760  0.5209
  469MOL0     H64678   1.950  12.743   6.554 -0.3853 -1.4154  2.6560
  469MOL0     H64679   1.990  12.902   6.495  0.3480  1.4779  1.1349
  469MOL0     H64680   2.047  12.914   6.940  0.3275  0.6548  0.0094
  469MOL0     H64681   1.991  13.036   7.131 -1.7627  1.1576  0.4381
  469MOL0     H64682   2.006  13.216   7.154 -1.2032 -0.2993 -0.3862
  469MOL0     H64683   2.153  13.116   7.122  0.8150 -1.9558 -2.8598
  469MOL0     H64684   1.908  13.513   7.199  1.3854 -0.3841 -1.3280
  469MOL0     H64685   1.925  13.739   7.321 -0.1952  0.7758 -1.3234
  469MOL0     H64686   2.084  13.969   7.118 -4.0123  1.6031 -1.3214
  469MOL0     H64687   1.962  14.000   7.236  0.0721  1.5762  1.1996
  469MOL0     H64688   2.243  14.116   7.261 -0.4418 -0.5716  1.1768
  469MOL0     H64689   2.102  14.179   7.159 -0.1523 -1.6981 -1.0703
  469MOL0     H64690   1.965  14.160   7.371 -0.3550 -0.1228 -0.2215
  469MOL0     H64691   2.063  14.299   7.352 -0.5161 -0.4757 -3.6756
  469MOL0     H64692   2.244  14.207   7.486  0.8420 -3.7435 -2.2936
  469MOL0     H64693   2.157  14.052   7.517 -0.7725  0.3673  2.6439
  469MOL0     H64694   2.098  14.315   7.637  1.7461 -0.6077 -1.1319
  469MOL0     H64695   1.967  14.194   7.614  0.0358 -2.2341 -2.5475
  469MOL0     H64696   2.118  14.029   7.743  1.7965  0.0610 -0.5306
  469MOL0     H64697   2.058  14.146   7.850 -2.9446 -1.6788 -1.5445
  469MOL0     H64698   2.316  14.222   7.699  0.3131 -1.7021 -0.3298
  469MOL0     H64699   2.335  14.118   7.831 -1.1297 -1.3780  0.1178
  469MOL0     H64700   2.191  14.385   7.849 -0.3791 -0.8606 -1.3479
  469MOL0     H64701   2.346  14.354   7.889  0.5642 -0.1090  0.8600
  469MOL0     H64702   2.322  13.778   7.176 -1.0201  0.9232  0.4933
  469MOL0     H64703   2.291  13.558   7.044  0.9883  1.3274  0.5764
  469MOL0     H64704   2.046  13.334   6.678  0.7743  0.0195  0.6093
  469MOL0     H64705   2.003  13.112   6.573 -0.2350  0.6440 -0.1086
  469MOL0     H64706   1.720  11.592   7.355 -3.2105  1.1205  2.3904
  469MOL0     H64707   1.825  11.397   7.241 -0.8539  1.2517  0.9268
  469MOL0     H64708   1.721  10.980   7.054  0.3658  2.9036 -0.4465
  469MOL0     H64709   1.798  10.768   7.031  2.0948  0.0752  1.5253
  469MOL0     H64710   2.046  10.507   6.906  1.4237  1.2714  0.0375
  469MOL0     H64711   1.937  10.585   7.020 -0.6752 -0.0254 -0.3655
  469MOL0     H64712   1.760  10.617   6.845 -1.4505 -1.7516 -2.7423
  469MOL0     H64713   1.786  10.462   6.925  0.1424 -0.8566 -0.5481
  469MOL0     H64714   1.757  10.483   6.660 -1.7255 -0.7131  2.8227
  469MOL0     H64715   1.921  10.540   6.656  0.9453 -2.1151 -0.7863
  469MOL0     H64716   1.999  10.338   6.755  0.4439  0.1483  0.7905
  469MOL0     H64717   1.914  10.290   6.605 -0.7429 -1.9179  1.0509
  469MOL0     H64718   1.672  10.108   6.900  0.9736 -2.1742  0.5342
  469MOL0     H64719   2.141  10.920   6.817 -2.1568 -2.6971 -2.1576
  469MOL0     H64720   2.082  11.276   6.896 -0.3869  0.5413  1.0312
  469MOL0     H64721   2.213  11.173   6.944  0.5164  2.5882 -1.0458
  469MOL0     H64722   2.170  11.170   6.786 -0.4675  0.7422  0.0271
  470MOL0     O64723   4.496   3.823   5.011  0.7932  0.7233  0.9863
  470MOL0     C64724   4.523   3.704   4.995 -1.3084  0.1543 -0.9565
  470MOL0     O64725   4.603   3.628   5.084  0.0857  0.3714 -0.3537
  470MOL0     C64726   4.671   3.701   5.181 -0.2435  0.5256 -0.5756
  470MOL0     C64727   4.761   3.811   5.153  1.1981  1.1386  0.3572
  470MOL0     C64728   4.796   3.904   5.252 -1.4093 -0.2291 -0.4080
  470MOL0     C64729   4.760   3.897   5.386  0.1570 -0.2629  0.0133
  470MOL0     O64730   4.785   3.989   5.490 -0.2321  0.2782 -0.0474
  470MOL0     C64731   4.703   3.992   5.610 -0.0922  0.5818  0.0747
  470MOL0     C64732   4.736   4.110   5.699  1.0262 -0.7182  0.4671
  470MOL0     C64733   4.892   4.103   5.738  0.1407  0.6695  1.0622
  470MOL0     C64734   4.931   4.190   5.853  0.1663  0.0973  0.0738
  470MOL0     C64735   5.066   4.147   5.916 -0.1590 -0.0545 -0.4784
  470MOL0     C64736   5.184   4.118   5.827 -0.1776 -0.4303  0.3157
  470MOL0     C64737   5.311   4.064   5.906 -0.2453 -0.3914 -0.9526
  470MOL0     C64738   5.380   4.177   5.997  0.6490 -0.3347 -0.3523
  470MOL0     N64739   5.492   4.111   6.050  0.6202  0.6357 -0.6179
  470MOL0     C64740   5.607   4.088   5.978  0.6555 -0.0825 -0.0032
  470MOL0     C64741   5.692   4.019   6.060  0.3105  1.0631  0.3647
  470MOL0     C64742   5.836   4.002   6.033  0.9769 -0.3897 -1.1603
  470MOL0     C64743   5.865   3.874   5.948  0.2684  0.3614 -0.4566
  470MOL0     C64744   6.010   3.839   5.935  0.2302 -0.2789 -0.0015
  470MOL0     C64745   6.030   3.688   5.895  0.2334 -0.4531  0.0242
  470MOL0     O64746   6.163   3.649   5.882 -0.8221  0.2358  0.2950
  470MOL0     C64747   6.238   3.618   5.996  0.4036  1.1223 -0.3322
  470MOL0     C64748   6.197   3.625   6.131  0.5547 -0.3517  0.4340
  470MOL0     C64749   6.284   3.607   6.237  0.0434  0.1564 -0.9925
  470MOL0     C64750   6.230   3.629   6.368 -0.3871 -1.2180 -0.1814
  470MOL0     C64751   6.420   3.578   6.209 -0.7063 -0.2995  0.0869
  470MOL0     C64752   6.535   3.570   6.299 -1.2163 -0.1925 -0.5942
  470MOL0     O64753   6.654   3.509   6.247  0.5109  0.0987  0.2461
  470MOL0     C64754   6.763   3.517   6.321  0.5039 -0.8807 -0.7841
  470MOL0     C64755   6.827   3.408   6.373  0.5662  0.0734 -0.3496
  470MOL0     C64756   6.960   3.431   6.420  0.2153  0.4940 -0.8549
  470MOL0     C64757   7.019   3.561   6.417 -0.4354 -0.0387 -0.7791
  470MOL0     O64758   7.152   3.580   6.464 -0.3965  0.5256  0.1818
  470MOL0     C64759   7.254   3.602   6.364  0.4507  0.9965 -0.7919
  470MOL0     C64760   7.341   3.472   6.334 -0.3031 -0.0126 -0.3117
  470MOL0     C64761   7.433   3.458   6.456 -0.2953 -0.0145 -0.0132
  470MOL0     C64762   7.572   3.392   6.425 -0.3692  0.2923  0.9288
  470MOL0     C64763   7.646   3.322   6.543  0.6279 -0.1148 -0.3740
  470MOL0     C64764   7.710   3.425   6.639 -0.2973  0.4227 -0.2156
  470MOL0     C64765   7.751   3.357   6.781 -0.5730 -0.7965  0.8736
  470MOL0     C64766   7.831   3.461   6.871  0.1498 -0.5748 -0.5293
  470MOL0    Cl64767   7.981   3.518   6.785  0.5407 -0.0777 -0.5177
  470MOL0     C64768   6.947   3.663   6.355 -0.1646  0.2008 -0.2176
  470MOL0     C64769   6.819   3.644   6.302 -0.4499  0.4426  0.3142
  470MOL0     O64770   6.523   3.610   6.412  0.2327  0.3448 -0.2135
  470MOL0     C64771   6.457   3.574   6.069  1.0816 -0.0472 -0.4180
  470MOL0     C64772   6.368   3.596   5.970 -0.2121  0.6515  0.9139
  470MOL0     N64773   5.625   3.996   6.180  0.3225  0.0737  0.3033
  470MOL0     N64774   5.513   4.048   6.168  0.3083  0.7537 -0.0673
  470MOL0     C64775   4.682   3.785   5.414  0.4048 -0.7547  0.0923
  470MOL0     C64776   4.640   3.685   5.319  1.3462  0.2211  0.1052
  470MOL0     C64777   4.464   3.627   4.885 -0.1602  0.1297 -0.6056
  470MOL0     C64778   4.548   3.521   4.838  0.4044 -0.4024  0.2977
  470MOL0     C64779   4.506   3.428   4.740  1.3510  0.7303  0.4035
  470MOL0     C64780   4.370   3.432   4.689 -0.3342  0.4010 -0.3301
  470MOL0     O64781   4.324   3.341   4.592  0.4461  0.0126  0.7048
  470MOL0     C64782   4.201   3.274   4.609  0.3033  0.4130  0.2412
  470MOL0     C64783   4.178   3.217   4.757 -0.4139  0.4453  0.5353
  470MOL0     C64784   4.061   3.112   4.755 -0.2285 -0.0789 -0.4205
  470MOL0     C64785   4.092   2.981   4.681  0.0308  0.2776 -1.0992
  470MOL0     C64786   3.965   2.908   4.695 -0.0959  0.3086 -0.6773
  470MOL0     C64787   3.865   2.833   4.706 -0.1879  0.5741  0.0896
  470MOL0     C64788   4.290   3.533   4.739 -0.4699 -0.2320 -0.0760
  470MOL0     C64789   4.335   3.633   4.825 -0.8894  0.0093 -0.4991
  470MOL0     C64790   4.241   3.740   4.873 -0.1382 -1.1097 -0.1481
  470MOL0     H64791   4.791   3.815   5.048 -4.9178 -1.2404 -1.9300
  470MOL0     H64792   4.865   3.985   5.232  1.0611 -2.3343 -0.9836
  470MOL0     H64793   4.716   3.902   5.671  1.4092 -0.3473 -1.5325
  470MOL0     H64794   4.597   4.015   5.593  0.1735  1.8769  0.0758
  470MOL0     H64795   4.719   4.207   5.652  1.4492 -0.8302  0.0731
  470MOL0     H64796   4.681   4.098   5.793  1.8391 -4.1874  0.6262
  470MOL0     H64797   4.922   4.000   5.759  1.0271  0.6753 -0.1336
  470MOL0     H64798   4.949   4.133   5.650 -2.4600  2.6033 -0.0995
  470MOL0     H64799   4.946   4.290   5.810  1.5458 -0.4970 -0.8838
  470MOL0     H64800   4.858   4.186   5.934 -0.0929 -2.6348 -0.2189
  470MOL0     H64801   5.046   4.061   5.981 -1.9623  1.1673  0.6734
  470MOL0     H64802   5.096   4.219   5.993  0.0240 -0.5036 -0.1230
  470MOL0     H64803   5.157   4.040   5.755 -4.7443  1.0372  0.1152
  470MOL0     H64804   5.202   4.209   5.770 -3.6699 -0.9645 -1.9346
  470MOL0     H64805   5.386   4.027   5.836  0.8088  0.3743 -0.2657
  470MOL0     H64806   5.272   3.989   5.975 -1.3623  2.2506  1.4846
  470MOL0     H64807   5.413   4.253   5.926 -1.1978 -1.1979 -2.2982
  470MOL0     H64808   5.314   4.220   6.073  0.8640 -0.0106 -0.3508
  470MOL0     H64809   5.638   4.120   5.879 -0.6637 -0.9085 -0.7110
  470MOL0     H64810   5.891   4.010   6.127 -0.6161 -0.9653 -0.1359
  470MOL0     H64811   5.869   4.088   5.973 -0.2651 -0.6874 -2.3308
  470MOL0     H64812   5.797   3.793   5.974  0.6110  0.3478  0.4407
  470MOL0     H64813   5.827   3.895   5.848 -3.1666  1.8264  0.9867
  470MOL0     H64814   6.049   3.900   5.852 -2.7342 -0.6767 -1.8535
  470MOL0     H64815   6.059   3.878   6.024 -1.7925  2.2527  0.1184
  470MOL0     H64816   5.964   3.637   5.967 -2.7086  2.9970  0.0811
  470MOL0     H64817   5.992   3.671   5.794  1.8308  1.9136 -1.0463
  470MOL0     H64818   6.093   3.652   6.137  0.8632  0.5937  1.9341
  470MOL0     H64819   6.219   3.542   6.433  3.9936 -0.2500  2.2906
  470MOL0     H64820   6.144   3.697   6.370  2.5334  2.8479 -0.2240
  470MOL0     H64821   6.294   3.693   6.430 -0.5931  0.6937 -1.8203
  470MOL0     H64822   6.779   3.313   6.352  0.9996  0.4072 -3.3193
  470MOL0     H64823   7.021   3.346   6.447 -1.3980 -1.6060 -3.3294
  470MOL0     H64824   7.205   3.638   6.273 -3.4890 -0.6959  0.4651
  470MOL0     H64825   7.317   3.685   6.399  0.5020  0.2035  1.1398
  470MOL0     H64826   7.267   3.391   6.331  1.4169 -1.6544 -0.5320
  470MOL0     H64827   7.402   3.463   6.244 -0.9735 -3.9108 -0.5501
  470MOL0     H64828   7.387   3.401   6.538  0.4960  0.1891  0.5855
  470MOL0     H64829   7.461   3.555   6.499  3.7547 -1.0321  0.0151
  470MOL0     H64830   7.638   3.473   6.391  0.8260 -0.0544  2.3254
  470MOL0     H64831   7.558   3.328   6.338 -0.0670  3.3542 -1.5384
  470MOL0     H64832   7.580   3.259   6.603 -0.9094  0.4461 -1.3927
  470MOL0     H64833   7.718   3.251   6.500  1.0372  0.6515 -0.9765
  470MOL0     H64834   7.652   3.517   6.652  2.3740  2.5805 -2.3342
  470MOL0     H64835   7.803   3.448   6.586  1.0348  0.2559  1.9506
  470MOL0     H64836   7.817   3.271   6.765 -2.4921 -1.8092 -2.5979
  470MOL0     H64837   7.669   3.328   6.846 -1.4187  0.8408  0.5803
  470MOL0     H64838   7.844   3.424   6.974  2.8096  1.9878  0.1818
  470MOL0     H64839   7.766   3.548   6.885 -1.8814 -1.4670 -3.4730
  470MOL0     H64840   6.977   3.766   6.376 -1.5828  0.7633 -0.8355
  470MOL0     H64841   6.766   3.725   6.253 -1.8962 -0.1197  0.8849
  470MOL0     H64842   6.557   3.554   6.031  1.1317  1.1334 -0.9550
  470MOL0     H64843   6.391   3.589   5.864 -1.5020  2.4134  0.4562
  470MOL0     H64844   4.638   3.764   5.511 -1.6922  0.2559 -0.5808
  470MOL0     H64845   4.587   3.597   5.353  0.1804  1.2627  1.0635
  470MOL0     H64846   4.653   3.525   4.865  0.4440  1.2282  0.0114
  470MOL0     H64847   4.570   3.353   4.696 -2.1229 -0.8821 -2.3841
  470MOL0     H64848   4.120   3.346   4.593 -0.6279 -0.5787  0.3433
  470MOL0     H64849   4.197   3.194   4.534 -0.2002 -0.9466  1.6597
  470MOL0     H64850   4.149   3.296   4.827  1.2713  3.3875 -1.8662
  470MOL0     H64851   4.272   3.173   4.790 -1.6620 -3.7081 -0.7398
  470MOL0     H64852   4.031   3.091   4.858 -1.0288 -2.2427 -1.0326
  470MOL0     H64853   3.975   3.162   4.710 -0.4580  1.4730  1.6320
  470MOL0     H64854   4.173   2.925   4.729  1.5661  0.7877 -2.9915
  470MOL0     H64855   4.112   3.009   4.577  3.4568 -0.0662 -0.6369
  470MOL0     H64856   3.770   2.785   4.711 -0.8873  1.9906  0.6795
  470MOL0     H64857   4.188   3.539   4.703 -0.3595 -0.9959 -0.5373
  470MOL0     H64858   4.284   3.840   4.861 -0.0635 -1.0640  0.5017
  470MOL0     H64859   4.148   3.747   4.816 -0.7637  0.1331  0.9724
  470MOL0     H64860   4.220   3.738   4.980  1.1994  1.0224  0.2212
  471MOL0     O64861   3.813   1.266   3.796  0.5858  0.4677  0.3474
  471MOL0     C64862   3.922   1.278   3.744  0.4999  0.0207  0.2876
  471MOL0     O64863   3.958   1.207   3.634  0.4258 -0.1812 -0.7637
  471MOL0     C64864   3.869   1.144   3.558 -0.1097  0.0670  0.9923
  471MOL0     C64865   3.901   1.027   3.505 -0.3242  0.6952 -0.1673
  471MOL0     C64866   3.824   0.951   3.425  0.9739 -0.0814  0.6598
  471MOL0     C64867   3.694   1.004   3.388  0.0828 -1.7318 -0.2922
  471MOL0     O64868   3.615   0.944   3.292  0.2071 -0.2399  0.3372
  471MOL0     C64869   3.619   0.807   3.292 -0.6003  0.8414  0.3103
  471MOL0     C64870   3.502   0.745   3.232 -0.8560 -0.2813 -0.0533
  471MOL0     C64871   3.503   0.754   3.081  0.0905  0.2543  0.3172
  471MOL0     C64872   3.367   0.702   3.035 -0.4719  0.6187 -0.0944
  471MOL0     C64873   3.367   0.684   2.886  0.1495  0.3615  0.2659
  471MOL0     C64874   3.242   0.612   2.835 -0.0039  0.1924 -0.2261
  471MOL0     C64875   3.246   0.554   2.690 -0.7509 -0.1932  0.3351
  471MOL0     C64876   3.279   0.655   2.586 -0.8649 -0.7779  0.0222
  471MOL0     N64877   3.249   0.616   2.444  0.2893  0.7824  0.2247
  471MOL0     C64878   3.224   0.487   2.399 -0.6294  0.3428 -0.3226
  471MOL0     C64879   3.216   0.489   2.265  0.2518  0.4101  0.1553
  471MOL0     C64880   3.181   0.376   2.173 -0.5238  0.7917 -0.3623
  471MOL0     C64881   3.037   0.366   2.139  1.1359  0.7723  0.1417
  471MOL0     C64882   2.949   0.340   2.261 -0.3463 -0.2336  0.2647
  471MOL0     C64883   2.809   0.344   2.207 -0.2952 -0.1214 -0.6690
  471MOL0     O64884   2.789   0.224   2.125  0.0074 -0.4512 -0.2013
  471MOL0     C64885   2.781   0.102   2.194  0.6797 -0.6353  0.3326
  471MOL0     C64886   2.752   0.087   2.330  0.2300  0.0485 -0.2608
  471MOL0     C64887   2.733  -0.038   2.385 -0.5788 -0.9325 -1.2191
  471MOL0     C64888   2.689  -0.026   2.536 -0.4879  0.1369  0.2860
  471MOL0     C64889   2.746  -0.153   2.314  0.2211 -0.2011  0.5036
  471MOL0     C64890   2.710  -0.285   2.376 -0.1813 -0.2605  0.0655
  471MOL0     O64891   2.644  -0.370   2.296  0.0455 -0.1841 -0.3469
  471MOL0     C64892   2.666  -0.503   2.322  0.3761  0.1227  0.4662
  471MOL0     C64893   2.595  -0.566   2.427 -0.0454  1.1512 -0.4806
  471MOL0     C64894   2.623  -0.704   2.462 -0.3714  0.2704  0.1376
  471MOL0     C64895   2.717  -0.771   2.375  0.0684 -1.2868  0.0545
  471MOL0     O64896   2.728  -0.907   2.387 -0.3123  0.2902 -0.3346
  471MOL0     C64897   2.756  -0.994   2.283 -0.1944 -0.6589  1.0523
  471MOL0     C64898   2.744  -1.141   2.336 -0.5348  0.9734  0.7961
  471MOL0     C64899   2.751  -1.251   2.227 -0.4982  0.7471 -0.0523
  471MOL0     C64900   2.894  -1.266   2.158 -0.7889 -0.2266 -0.3243
  471MOL0     C64901   2.907  -1.374   2.045  0.5908  0.3707 -0.7643
  471MOL0     C64902   2.885  -1.516   2.088  0.0100  0.3903 -0.6001
  471MOL0     C64903   2.943  -1.611   1.989 -1.5378  0.0771  0.2409
  471MOL0     C64904   2.891  -1.751   2.027 -0.7635  0.6874 -0.5539
  471MOL0    Cl64905   2.990  -1.807   2.170 -0.6755  0.0682 -0.0439
  471MOL0     C64906   2.781  -0.710   2.272  0.2206  0.4065  0.9363
  471MOL0     C64907   2.761  -0.576   2.246  0.2145 -0.5080 -0.2114
  471MOL0     O64908   2.757  -0.308   2.489  1.0584 -0.4383 -0.0095
  471MOL0     C64909   2.772  -0.145   2.170 -0.3632 -0.9125 -0.7227
  471MOL0     C64910   2.788  -0.012   2.113 -0.3198 -0.4441  0.1153
  471MOL0     N64911   3.233   0.622   2.235  0.5888 -0.0071  0.3004
  471MOL0     N64912   3.248   0.701   2.339  0.1512  0.6053  0.0431
  471MOL0     C64913   3.662   1.134   3.438 -0.4784  0.2944  0.0642
  471MOL0     C64914   3.738   1.196   3.527  0.4404 -0.0627 -0.1850
  471MOL0     C64915   4.027   1.366   3.808 -0.6544  0.0352 -0.0606
  471MOL0     C64916   4.156   1.379   3.750 -0.5696  0.3566  0.0712
  471MOL0     C64917   4.256   1.449   3.809  0.0776 -0.3158  0.9382
  471MOL0     C64918   4.237   1.528   3.923  0.3209  0.5162 -0.2093
  471MOL0     O64919   4.342   1.605   3.975  0.1310  0.0208  0.2453
  471MOL0     C64920   4.303   1.731   4.038  0.0174  0.1290 -0.1522
  471MOL0     C64921   4.431   1.820   4.062  0.9033  0.2629  0.3335
  471MOL0     C64922   4.498   1.850   3.927 -0.4437 -0.3794  0.3232
  471MOL0     C64923   4.579   1.973   3.917 -0.5178 -0.0628 -0.2779
  471MOL0     C64924   4.642   1.971   3.787  0.7611 -1.1938  0.1713
  471MOL0     C64925   4.698   1.974   3.678 -0.1397 -0.3864 -0.4101
  471MOL0     C64926   4.108   1.516   3.985  0.5925  0.1998  0.1710
  471MOL0     C64927   3.998   1.443   3.928  0.1309  0.7584  0.6596
  471MOL0     C64928   3.864   1.445   4.010  0.4039  0.2703 -0.0577
  471MOL0     H64929   4.003   0.999   3.531 -0.7403 -1.5464 -0.7311
  471MOL0     H64930   3.856   0.859   3.378 -1.1802  0.7965 -2.9040
  471MOL0     H64931   3.622   0.785   3.399  0.6056  0.3012  0.1815
  471MOL0     H64932   3.712   0.778   3.241  1.4935  5.3748  1.0042
  471MOL0     H64933   3.511   0.641   3.264  1.1837 -0.8541 -2.1751
  471MOL0     H64934   3.411   0.795   3.267 -0.7164  1.0302 -1.4551
  471MOL0     H64935   3.505   0.858   3.046 -2.7482 -0.1647 -1.3721
  471MOL0     H64936   3.584   0.697   3.034  1.2621  3.3947 -1.8258
  471MOL0     H64937   3.337   0.609   3.084 -2.6178 -1.2062 -4.3591
  471MOL0     H64938   3.286   0.769   3.067  1.3393  3.1533 -0.5377
  471MOL0     H64939   3.452   0.619   2.859  0.1700 -0.9426  3.0674
  471MOL0     H64940   3.368   0.785   2.846  2.1676  1.6950  3.2710
  471MOL0     H64941   3.212   0.524   2.892 -2.0562  1.7365  1.2943
  471MOL0     H64942   3.156   0.680   2.846 -0.4936 -0.5334  0.5713
  471MOL0     H64943   3.147   0.516   2.666 -1.3975  0.4955  1.8041
  471MOL0     H64944   3.319   0.472   2.686  3.1741  3.0013 -0.9907
  471MOL0     H64945   3.223   0.748   2.601  0.9558  1.0554 -3.2012
  471MOL0     H64946   3.387   0.672   2.589 -0.9982 -0.1239  1.7176
  471MOL0     H64947   3.213   0.399   2.461 -3.1301  0.7718 -0.0869
  471MOL0     H64948   3.221   0.289   2.227  1.4101  1.8069 -0.0608
  471MOL0     H64949   3.239   0.396   2.082 -1.0111  1.0781 -0.6140
  471MOL0     H64950   2.988   0.457   2.106 -2.2216 -1.1131 -0.4582
  471MOL0     H64951   3.023   0.290   2.061 -0.0948  1.5677 -0.4316
  471MOL0     H64952   2.987   0.251   2.311  0.8385  0.7818  1.2522
  471MOL0     H64953   2.950   0.421   2.336 -0.2282  0.3191 -0.3231
  471MOL0     H64954   2.738   0.351   2.290 -1.6526 -0.6185 -1.7662
  471MOL0     H64955   2.791   0.435   2.150  1.4145 -0.2429 -1.4625
  471MOL0     H64956   2.752   0.177   2.390 -1.0511  0.0354 -0.2101
  471MOL0     H64957   2.783  -0.047   2.588 -0.4458  0.8430  0.5046
  471MOL0     H64958   2.607  -0.094   2.560 -0.3918 -0.4080 -0.8476
  471MOL0     H64959   2.650   0.075   2.552 -0.5140  0.1159  0.3531
  471MOL0     H64960   2.531  -0.505   2.490 -0.3365 -0.1616  0.5478
  471MOL0     H64961   2.584  -0.744   2.555 -0.2071  0.5612  0.3320
  471MOL0     H64962   2.680  -0.979   2.205 -0.2791  0.1524  1.2818
  471MOL0     H64963   2.857  -0.971   2.248 -0.5109 -2.7688 -1.5433
  471MOL0     H64964   2.822  -1.155   2.411  1.2637 -0.3786 -1.2077
  471MOL0     H64965   2.647  -1.144   2.386 -0.4650  1.9490  1.0016
  471MOL0     H64966   2.679  -1.223   2.150  2.5779  1.5162 -2.8773
  471MOL0     H64967   2.709  -1.342   2.270 -0.2506  0.1766 -1.0016
  471MOL0     H64968   2.965  -1.280   2.240 -1.2378 -0.7794 -0.0251
  471MOL0     H64969   2.907  -1.174   2.100  0.3678 -0.4905 -0.5114
  471MOL0     H64970   2.828  -1.360   1.971 -3.1783 -2.5507  2.2354
  471MOL0     H64971   3.002  -1.353   1.996  0.0731  1.8409 -1.2013
  471MOL0     H64972   2.780  -1.537   2.112 -0.1996  2.6141  0.7259
  471MOL0     H64973   2.934  -1.531   2.184  0.4298  2.1055 -0.5259
  471MOL0     H64974   3.052  -1.614   1.995 -1.5229 -1.0308 -0.3965
  471MOL0     H64975   2.918  -1.572   1.890  2.8922 -1.9250 -1.9324
  471MOL0     H64976   2.906  -1.815   1.939  0.1663 -0.8973  0.6970
  471MOL0     H64977   2.784  -1.762   2.044 -0.5740  0.5942  0.6424
  471MOL0     H64978   2.847  -0.759   2.200 -1.3096  1.5200 -1.3505
  471MOL0     H64979   2.821  -0.513   2.182  1.4514  0.5416  1.8809
  471MOL0     H64980   2.769  -0.232   2.105 -3.8874  0.1724 -2.2797
  471MOL0     H64981   2.801   0.002   2.007 -2.0191 -1.6922 -0.3073
  471MOL0     H64982   3.574   1.182   3.399 -2.7035 -1.8094  2.1476
  471MOL0     H64983   3.704   1.294   3.561 -0.5634 -0.2978 -0.4744
  471MOL0     H64984   4.182   1.305   3.675 -0.8384  0.1085  0.2203
  471MOL0     H64985   4.355   1.463   3.768 -0.5526  0.5364 -0.3660
  471MOL0     H64986   4.233   1.783   3.971 -1.7586 -2.6788 -0.6289
  471MOL0     H64987   4.250   1.707   4.130 -0.4439 -1.7002 -0.8629
  471MOL0     H64988   4.495   1.752   4.119 -0.1065 -0.7737  0.2645
  471MOL0     H64989   4.396   1.908   4.117 -2.2064 -1.3327  1.1831
  471MOL0     H64990   4.566   1.770   3.896  1.6572  2.2740 -2.6033
  471MOL0     H64991   4.425   1.863   3.847 -0.7501  3.7080  1.0465
  471MOL0     H64992   4.655   1.962   3.994 -1.1490  0.7669  0.4919
  471MOL0     H64993   4.521   2.063   3.941 -2.0956 -0.3136 -2.7868
  471MOL0     H64994   4.763   1.977   3.593  2.1242  0.4093  1.2288
  471MOL0     H64995   4.093   1.574   4.075  1.2434  0.9310 -0.1782
  471MOL0     H64996   3.848   1.344   4.049  1.3401 -0.9021 -2.4902
  471MOL0     H64997   3.884   1.517   4.090  0.3934 -1.1750  1.2888
  471MOL0     H64998   3.781   1.477   3.947  0.7577 -0.1787 -0.7686
  472MOL0     O64999   9.750   7.589   6.265 -1.3259  0.2736 -0.1120
  472MOL0     C65000   9.704   7.613   6.380 -1.5523 -0.6820  0.3948
  472MOL0     O65001   9.728   7.732   6.456 -0.0049 -0.4007  0.4262
  472MOL0     C65002   9.789   7.847   6.410  1.3283 -0.9058 -0.1398
  472MOL0     C65003   9.920   7.852   6.371  0.3833  0.4334  0.5108
  472MOL0     C65004   9.984   7.962   6.326  0.9481  0.3785 -0.0843
  472MOL0     C65005   9.919   8.080   6.327 -0.1549 -0.7554  0.6440
  472MOL0     O65006   9.995   8.178   6.278  0.1311 -0.4858 -0.7863
  472MOL0     C65007   9.944   8.311   6.271  0.4955  0.3879  0.2275
  472MOL0     C65008  10.063   8.408   6.273  0.1156 -0.1143 -0.5151
  472MOL0     C65009  10.026   8.538   6.332  0.4369 -1.0023 -0.9988
  472MOL0     C65010   9.908   8.607   6.265 -0.3033 -0.1586  0.5720
  472MOL0     C65011   9.915   8.613   6.112  1.1207  0.2117  0.1273
  472MOL0     C65012   9.795   8.692   6.055  0.1288  1.2556 -0.1046
  472MOL0     C65013   9.770   8.662   5.905  0.4667 -0.4853 -0.6326
  472MOL0     C65014   9.650   8.738   5.842 -0.5360  0.1208  0.6693
  472MOL0     N65015   9.527   8.708   5.913  0.4160  0.4173 -0.4563
  472MOL0     C65016   9.467   8.591   5.965 -0.5129 -0.6329  0.5150
  472MOL0     C65017   9.348   8.630   6.014  0.5593  0.1766 -0.2000
  472MOL0     C65018   9.251   8.550   6.089  0.4118 -0.2660 -0.1452
  472MOL0     C65019   9.115   8.538   6.020 -0.2377  0.7624 -0.9360
  472MOL0     C65020   9.023   8.651   6.089 -0.1630  1.1836  0.0974
  472MOL0     C65021   8.870   8.608   6.067 -0.9256 -0.6277  0.2192
  472MOL0     O65022   8.768   8.638   6.162  0.3791  0.2169 -0.0730
  472MOL0     C65023   8.771   8.591   6.293 -0.3319 -0.0712  0.8961
  472MOL0     C65024   8.684   8.653   6.385  0.2473 -0.3588 -0.4963
  472MOL0     C65025   8.670   8.606   6.520  0.9079  0.4249  0.6800
  472MOL0     C65026   8.559   8.679   6.611 -0.0421 -1.0627  0.4217
  472MOL0     C65027   8.753   8.500   6.559  0.1281 -0.1269  0.7734
  472MOL0     C65028   8.764   8.467   6.707 -0.5880  0.6623 -0.4241
  472MOL0     O65029   8.808   8.340   6.740 -0.9452  0.3731 -0.4906
  472MOL0     C65030   8.787   8.311   6.868  1.3088  0.8219  0.3857
  472MOL0     C65031   8.660   8.303   6.923 -0.6597  0.8624  0.5677
  472MOL0     C65032   8.629   8.261   7.058  0.1820  0.2003 -0.1011
  472MOL0     C65033   8.726   8.218   7.138 -0.1930 -0.0944 -0.7312
  472MOL0     O65034   8.704   8.181   7.270  0.6152  0.1011 -0.2862
  472MOL0     C65035   8.567   8.150   7.304 -0.0974  0.5490 -1.0175
  472MOL0     C65036   8.570   8.065   7.434  0.3119  0.7795 -0.7541
  472MOL0     C65037   8.424   8.014   7.468  0.0226 -0.6520  0.0295
  472MOL0     C65038   8.413   7.913   7.582 -0.0931 -0.6236  0.1274
  472MOL0     C65039   8.303   7.803   7.575  0.0910  0.6985  0.3843
  472MOL0     C65040   8.342   7.673   7.497 -0.9776 -0.7858 -0.3618
  472MOL0     C65041   8.238   7.560   7.509 -0.2323 -0.6112 -0.8172
  472MOL0     C65042   8.322   7.433   7.509 -0.2242  0.2557  0.0078
  472MOL0    Cl65043   8.188   7.313   7.511 -0.0491  0.0701 -0.0494
  472MOL0     C65044   8.856   8.223   7.093  0.0973 -0.5125  0.7241
  472MOL0     C65045   8.889   8.281   6.961 -0.4881  0.1076  0.3276
  472MOL0     O65046   8.746   8.560   6.785  0.6897  0.0899  0.5638
  472MOL0     C65047   8.835   8.430   6.469 -1.0192 -0.4831 -0.3927
  472MOL0     C65048   8.846   8.476   6.334  0.0069 -0.2062  0.0147
  472MOL0     N65049   9.323   8.749   5.974  0.1409  0.4017  0.7285
  472MOL0     N65050   9.419   8.801   5.909  0.1087  0.6183  0.0688
  472MOL0     C65051   9.779   8.084   6.359  0.6315 -0.3804  0.5575
  472MOL0     C65052   9.713   7.969   6.418 -0.6013  0.4813  0.6668
  472MOL0     C65053   9.603   7.511   6.424  0.1887 -0.0579 -1.5548
  472MOL0     C65054   9.618   7.380   6.366  0.1604  0.0098 -0.2493
  472MOL0     C65055   9.531   7.276   6.410  0.1340  0.3088 -0.5221
  472MOL0     C65056   9.446   7.300   6.522  0.1068  0.9714  0.4244
  472MOL0     O65057   9.352   7.202   6.550  0.4682 -0.1186  0.4363
  472MOL0     C65058   9.333   7.170   6.686  0.0189 -0.0251  0.6775
  472MOL0     C65059   9.291   7.022   6.697 -0.1298  0.2762 -0.2103
  472MOL0     C65060   9.234   7.004   6.831  0.0276  1.0220 -0.2050
  472MOL0     C65061   9.199   6.852   6.845 -0.1275 -0.4006 -1.1442
  472MOL0     C65062   9.054   6.828   6.829 -0.0660  0.3197 -0.5999
  472MOL0     C65063   8.938   6.836   6.791 -0.2213  0.4838  0.2672
  472MOL0     C65064   9.448   7.423   6.584  0.3055  0.0614  0.6726
  472MOL0     C65065   9.526   7.534   6.544 -0.5129  0.7420 -0.1725
  472MOL0     C65066   9.513   7.662   6.616  0.2748  1.0634 -0.5559
  472MOL0     H65067   9.981   7.763   6.357 -0.7553 -0.3296  0.2932
  472MOL0     H65068  10.084   7.944   6.286  0.8372 -0.3162 -0.0628
  472MOL0     H65069   9.878   8.333   6.355 -3.5172  0.8398 -2.7367
  472MOL0     H65070   9.886   8.316   6.179 -0.7818  2.1370  1.0735
  472MOL0     H65071  10.132   8.365   6.346 -1.9314 -3.4286 -0.3126
  472MOL0     H65072  10.100   8.422   6.171  2.8765 -0.1307  0.4158
  472MOL0     H65073  10.001   8.527   6.437  0.2058 -2.5490 -1.1929
  472MOL0     H65074  10.118   8.598   6.329 -1.4107  2.3721  2.1524
  472MOL0     H65075   9.815   8.555   6.287 -0.4757 -0.0118  0.2113
  472MOL0     H65076   9.911   8.704   6.316  0.9815 -1.9374  4.2267
  472MOL0     H65077   9.915   8.516   6.062 -0.6247 -0.8545  2.0495
  472MOL0     H65078  10.011   8.657   6.082  1.3525  1.0779  2.0183
  472MOL0     H65079   9.703   8.673   6.112  0.0769 -0.7756 -0.7907
  472MOL0     H65080   9.829   8.794   6.072 -0.9653  2.0807 -2.4457
  472MOL0     H65081   9.756   8.553   5.903  0.4243 -0.4764 -0.8700
  472MOL0     H65082   9.857   8.675   5.840  2.0203 -1.0040  1.2361
  472MOL0     H65083   9.665   8.844   5.824  3.3009 -0.4956 -0.7454
  472MOL0     H65084   9.636   8.704   5.739 -0.5405  2.7482 -0.2514
  472MOL0     H65085   9.510   8.493   5.952  2.1219  0.7810 -3.7912
  472MOL0     H65086   9.257   8.582   6.194  1.2371 -0.3657 -0.1581
  472MOL0     H65087   9.289   8.448   6.097  3.0696  0.6830  0.1850
  472MOL0     H65088   9.125   8.540   5.911  0.4862 -1.6835 -0.9541
  472MOL0     H65089   9.082   8.439   6.054  1.3031  1.0775  1.8117
  472MOL0     H65090   9.047   8.667   6.194  0.4018 -2.0324  0.5540
  472MOL0     H65091   9.032   8.747   6.037  1.4026  0.6800 -0.6100
  472MOL0     H65092   8.828   8.658   5.980  1.5810  1.7239  0.2119
  472MOL0     H65093   8.872   8.500   6.047 -3.4599 -0.8348  0.8031
  472MOL0     H65094   8.616   8.736   6.365 -1.9491 -2.0282 -0.3373
  472MOL0     H65095   8.488   8.727   6.543  0.7139  0.0935  0.4333
  472MOL0     H65096   8.589   8.764   6.673 -1.0756 -0.9591  0.8095
  472MOL0     H65097   8.511   8.608   6.680 -0.4772 -1.0017  0.1826
  472MOL0     H65098   8.567   8.332   6.876 -1.4529  1.0787  2.2107
  472MOL0     H65099   8.524   8.277   7.083  0.4077  0.9670  0.3735
  472MOL0     H65100   8.502   8.238   7.311  0.3795  0.8356  0.0208
  472MOL0     H65101   8.529   8.081   7.229  0.5353  0.8117 -1.5966
  472MOL0     H65102   8.636   7.981   7.410  0.6715  0.7002  0.4400
  472MOL0     H65103   8.621   8.121   7.513  1.5280  1.9005 -2.2566
  472MOL0     H65104   8.387   7.967   7.376 -2.4835 -0.0952  0.6859
  472MOL0     H65105   8.358   8.095   7.500  1.2743 -0.1671  1.5423
  472MOL0     H65106   8.383   7.972   7.669  2.5375 -0.9992  1.3972
  472MOL0     H65107   8.515   7.877   7.603  0.0108 -0.1616  0.4346
  472MOL0     H65108   8.284   7.767   7.677 -0.4966  1.1144  0.4285
  472MOL0     H65109   8.207   7.837   7.534  0.7815  0.1404 -1.7918
  472MOL0     H65110   8.439   7.647   7.538 -0.1793  1.8797 -0.4016
  472MOL0     H65111   8.362   7.708   7.395  0.4119  1.2673  0.5670
  472MOL0     H65112   8.172   7.556   7.422 -1.5066  4.3279 -0.3549
  472MOL0     H65113   8.185   7.569   7.604  1.9619  3.0102  0.2406
  472MOL0     H65114   8.392   7.439   7.593  3.1605  1.0008 -2.6543
  472MOL0     H65115   8.393   7.419   7.427  0.4771 -0.2124  0.6721
  472MOL0     H65116   8.931   8.190   7.164 -0.1450 -3.1357 -0.1271
  472MOL0     H65117   8.995   8.291   6.938  0.1347 -2.5129  1.6528
  472MOL0     H65118   8.894   8.344   6.497  0.4521  0.9293  1.0147
  472MOL0     H65119   8.903   8.411   6.268 -0.7699 -0.5523 -0.3220
  472MOL0     H65120   9.725   8.178   6.364  0.5889 -0.4685  2.1451
  472MOL0     H65121   9.609   7.959   6.447 -1.0602  0.3836 -0.9239
  472MOL0     H65122   9.683   7.360   6.282  1.5464 -1.1950  1.0363
  472MOL0     H65123   9.537   7.181   6.359 -1.6602 -0.7217  1.0794
  472MOL0     H65124   9.426   7.181   6.743 -1.1918  0.1491  2.7286
  472MOL0     H65125   9.260   7.243   6.721 -1.1585 -0.5632 -0.5279
  472MOL0     H65126   9.373   6.954   6.676 -0.9403 -1.0196  0.6769
  472MOL0     H65127   9.218   7.005   6.617 -0.7377 -1.4860  0.6648
  472MOL0     H65128   9.294   7.046   6.912 -1.3757  2.1347  0.3034
  472MOL0     H65129   9.144   7.065   6.847  1.2301  3.3599 -1.7666
  472MOL0     H65130   9.231   6.817   6.944  0.9043  1.6491 -0.7057
  472MOL0     H65131   9.251   6.782   6.777  1.7987 -0.7661  0.5978
  472MOL0     H65132   8.835   6.855   6.765  0.1695 -0.2471 -2.0888
  472MOL0     H65133   9.376   7.425   6.665 -0.1441  0.4542  0.2647
  472MOL0     H65134   9.476   7.738   6.546  0.2476 -0.2468 -2.0157
  472MOL0     H65135   9.440   7.655   6.697 -1.3946  5.8035 -1.2890
  472MOL0     H65136   9.602   7.691   6.671  0.0218  0.2591  0.2909
  473MOL0     O65137   6.954   7.643  10.978 -0.3848 -0.0174  0.3489
  473MOL0     C65138   6.930   7.634  11.100 -0.9011  0.0524 -0.6558
  473MOL0     O65139   6.965   7.729  11.202 -0.1572  0.4590 -0.0745
  473MOL0     C65140   7.030   7.850  11.167 -0.4265 -0.3387  0.6056
  473MOL0     C65141   6.953   7.964  11.145 -0.3160 -0.4250  0.0077
  473MOL0     C65142   7.021   8.085  11.121 -0.4004 -0.5431 -0.0131
  473MOL0     C65143   7.162   8.093  11.133  0.6089 -0.3233 -0.1042
  473MOL0     O65144   7.225   8.211  11.124 -0.2172  0.3693  0.2791
  473MOL0     C65145   7.188   8.301  11.012 -0.0739  1.2618  0.4825
  473MOL0     C65146   7.302   8.375  10.949  0.2371  1.1728  0.3091
  473MOL0     C65147   7.446   8.310  10.960  0.5238  0.7745 -0.8304
  473MOL0     C65148   7.563   8.385  10.899  0.6973 -0.2307  0.8540
  473MOL0     C65149   7.514   8.454  10.763 -1.5319  0.2898  0.6054
  473MOL0     C65150   7.622   8.498  10.664  0.3597 -0.7154 -0.6626
  473MOL0     C65151   7.721   8.600  10.716  0.8083  0.2194  0.7591
  473MOL0     C65152   7.661   8.739  10.747 -0.2144 -0.0481  0.3834
  473MOL0     N65153   7.647   8.820  10.627 -0.3410 -0.0896  0.3412
  473MOL0     C65154   7.749   8.883  10.559  0.0445  0.2555  1.4483
  473MOL0     C65155   7.680   8.965  10.465  0.1170 -0.6331 -0.6943
  473MOL0     C65156   7.729   9.049  10.355 -0.2031  0.3416 -0.3558
  473MOL0     C65157   7.760   9.198  10.408 -0.1989 -0.0657  0.6278
  473MOL0     C65158   7.638   9.278  10.434 -0.5785  0.8372  1.0701
  473MOL0     C65159   7.589   9.343  10.302 -0.6969  0.3893 -0.6356
  473MOL0     O65160   7.462   9.396  10.330  0.1838  0.3185  0.7996
  473MOL0     C65161   7.393   9.447  10.220 -0.0747 -0.1215  0.1259
  473MOL0     C65162   7.444   9.537  10.127 -0.1466  0.6879 -0.8933
  473MOL0     C65163   7.366   9.598  10.027 -0.6495 -0.0617  0.0805
  473MOL0     C65164   7.423   9.702   9.947 -0.5188 -0.1704  0.2859
  473MOL0     C65165   7.228   9.566  10.011 -0.3499  1.3493  0.5400
  473MOL0     C65166   7.137   9.616   9.904  0.4983 -0.1632 -0.2247
  473MOL0     O65167   7.161   9.729   9.838 -0.6568 -0.3604  0.5001
  473MOL0     C65168   7.098   9.748   9.719 -0.0473  0.5705 -0.1620
  473MOL0     C65169   7.135   9.679   9.600  0.3400 -0.1456 -0.0355
  473MOL0     C65170   7.069   9.693   9.475 -0.6026  0.0335  0.0492
  473MOL0     C65171   6.946   9.764   9.480  0.0859 -1.2084 -0.0798
  473MOL0     O65172   6.852   9.778   9.374 -0.2291 -0.0866 -0.0727
  473MOL0     C65173   6.896   9.710   9.253  0.6582 -0.2285  0.1551
  473MOL0     C65174   6.796   9.740   9.134  0.2374 -0.0542 -0.3844
  473MOL0     C65175   6.823   9.645   9.015 -0.4191 -0.4247  0.0775
  473MOL0     C65176   6.792   9.708   8.870  0.2187 -0.2927 -0.1433
  473MOL0     C65177   6.768   9.593   8.767 -0.5573  0.1692  1.1003
  473MOL0     C65178   6.785   9.643   8.620 -0.2432  0.3450 -0.4405
  473MOL0     C65179   6.666   9.735   8.575 -0.3445  0.1427  0.4412
  473MOL0     C65180   6.691   9.808   8.437 -0.2542 -0.0316  0.0878
  473MOL0    Cl65181   6.860   9.883   8.429 -0.0776  0.1420  0.1601
  473MOL0     C65182   6.905   9.829   9.601  0.0161 -0.5725  0.1091
  473MOL0     C65183   6.978   9.814   9.719 -0.4118  0.3152  0.3110
  473MOL0     O65184   7.037   9.549   9.887  0.4849  0.0052  0.4029
  473MOL0     C65185   7.173   9.480  10.111 -1.5891  0.2504  0.4348
  473MOL0     C65186   7.255   9.422  10.218 -1.2095 -0.6615 -0.3916
  473MOL0     N65187   7.544   8.947  10.481 -0.4724  0.5472 -0.1320
  473MOL0     N65188   7.524   8.864  10.576  0.3988 -0.8476  0.6184
  473MOL0     C65189   7.235   7.978  11.152 -0.2353  0.8490  0.2772
  473MOL0     C65190   7.165   7.860  11.174  0.3572  0.4054  0.7041
  473MOL0     C65191   6.843   7.526  11.158 -0.5988 -0.5337  0.6053
  473MOL0     C65192   6.737   7.578  11.234  0.0219 -0.7968 -0.2670
  473MOL0     C65193   6.637   7.490  11.276  0.2903 -0.4069  0.0506
  473MOL0     C65194   6.634   7.356  11.235 -0.9373 -0.0478  0.2967
  473MOL0     O65195   6.548   7.255  11.278 -0.5382 -0.4225 -0.3758
  473MOL0     C65196   6.469   7.291  11.401 -0.8322 -0.4822 -0.2733
  473MOL0     C65197   6.385   7.171  11.439 -0.1338 -0.4511  0.0215
  473MOL0     C65198   6.258   7.168  11.355  0.2289 -0.2029  0.7455
  473MOL0     C65199   6.169   7.036  11.386  1.2221  0.2785  0.8261
  473MOL0     C65200   6.118   7.028  11.525 -0.0363 -0.1693 -0.0654
  473MOL0     C65201   6.085   7.023  11.641  0.5536  0.2727  0.4173
  473MOL0     C65202   6.740   7.305  11.156 -0.6359 -0.1673 -0.0275
  473MOL0     C65203   6.841   7.395  11.112  1.2319  0.2961  0.2249
  473MOL0     C65204   6.957   7.339  11.029  0.6512 -0.3993  0.5810
  473MOL0     H65205   6.845   7.948  11.145  0.1036 -4.1938  0.3883
  473MOL0     H65206   6.967   8.179  11.108 -1.8895 -1.2890  0.4895
  473MOL0     H65207   7.120   8.370  11.064 -2.5304 -1.4799  1.1603
  473MOL0     H65208   7.137   8.241  10.935 -1.7206 -2.6495  4.2391
  473MOL0     H65209   7.286   8.375  10.840  3.3420 -3.0682 -0.3606
  473MOL0     H65210   7.312   8.474  10.995  1.8469  0.3220  1.9129
  473MOL0     H65211   7.487   8.292  11.059  4.9791 -0.6082 -2.6556
  473MOL0     H65212   7.439   8.209  10.918  1.4396  0.5093 -0.3604
  473MOL0     H65213   7.611   8.456  10.967 -0.0368 -0.9565  2.1817
  473MOL0     H65214   7.637   8.311  10.869  2.2030  2.8480 -4.1283
  473MOL0     H65215   7.461   8.543  10.799 -2.2635 -0.4439  1.3696
  473MOL0     H65216   7.451   8.390  10.702  3.5345 -3.0725 -1.7957
  473MOL0     H65217   7.685   8.414  10.632 -0.6749 -1.9410  0.4242
  473MOL0     H65218   7.569   8.547  10.581 -2.9980 -1.4257  0.9096
  473MOL0     H65219   7.798   8.612  10.639  1.7902 -2.4866  1.1764
  473MOL0     H65220   7.764   8.536  10.794 -0.5265  0.8025  2.0243
  473MOL0     H65221   7.572   8.736  10.810 -0.8819 -4.2994 -0.4401
  473MOL0     H65222   7.738   8.782  10.812 -1.5369 -0.6630  2.4592
  473MOL0     H65223   7.855   8.873  10.576  0.4995 -0.1948 -1.1761
  473MOL0     H65224   7.650   9.050  10.280  0.0521 -1.0877 -0.6678
  473MOL0     H65225   7.822   9.009  10.316  0.2421  0.9348  0.0761
  473MOL0     H65226   7.818   9.195  10.500 -0.7133 -0.7889  0.9395
  473MOL0     H65227   7.815   9.258  10.335  0.9105 -0.2297  1.3006
  473MOL0     H65228   7.557   9.222  10.483 -1.2036 -0.5250 -1.3655
  473MOL0     H65229   7.678   9.358  10.496  2.8274 -0.8702  1.3291
  473MOL0     H65230   7.660   9.416  10.263 -0.2646  0.2816 -0.0682
  473MOL0     H65231   7.573   9.259  10.235 -0.4224 -0.3152  0.1588
  473MOL0     H65232   7.548   9.560  10.149  0.5048 -2.4574 -0.2456
  473MOL0     H65233   7.527   9.730   9.964  0.1451  0.5438 -3.8095
  473MOL0     H65234   7.371   9.795   9.972  0.5236  0.3185  0.7028
  473MOL0     H65235   7.412   9.679   9.840  0.5919 -1.9571  0.5277
  473MOL0     H65236   7.231   9.628   9.596  0.9768  0.7689  2.2338
  473MOL0     H65237   7.107   9.634   9.391 -2.0712 -0.2088 -0.4710
  473MOL0     H65238   6.987   9.749   9.208  0.3603 -0.3331 -0.5497
  473MOL0     H65239   6.906   9.603   9.273  0.9514  0.1669  2.4068
  473MOL0     H65240   6.692   9.728   9.168  0.4371 -0.8350 -0.0372
  473MOL0     H65241   6.809   9.845   9.105  0.6669  0.3032  1.0346
  473MOL0     H65242   6.759   9.556   9.023 -0.6155 -0.6419 -2.9799
  473MOL0     H65243   6.924   9.601   9.019 -0.1132  0.2719  0.1099
  473MOL0     H65244   6.879   9.771   8.846  1.3513 -1.2365  1.2573
  473MOL0     H65245   6.704   9.770   8.885 -1.1141 -2.5312  1.9695
  473MOL0     H65246   6.837   9.511   8.787  2.1947  1.7044 -1.3237
  473MOL0     H65247   6.660   9.577   8.774 -0.7775  1.4499  0.8569
  473MOL0     H65248   6.797   9.561   8.548 -1.9932 -0.5187  0.1904
  473MOL0     H65249   6.875   9.705   8.621  1.3012 -1.8097  0.9144
  473MOL0     H65250   6.653   9.819   8.644  0.3335 -1.5841  2.7952
  473MOL0     H65251   6.577   9.672   8.564 -0.0197 -0.0767 -1.1012
  473MOL0     H65252   6.621   9.887   8.409 -0.3522  0.3402  1.2850
  473MOL0     H65253   6.680   9.737   8.355 -2.0042  0.2794  0.0206
  473MOL0     H65254   6.812   9.885   9.606  0.5101  0.4371 -1.4312
  473MOL0     H65255   6.940   9.854   9.813  1.4872 -0.3555  1.4139
  473MOL0     H65256   7.066   9.462  10.115 -1.2994 -1.6455  0.6661
  473MOL0     H65257   7.212   9.356  10.292  3.0849 -2.9925  0.3474
  473MOL0     H65258   7.343   7.969  11.155 -0.3927 -5.4923  0.5087
  473MOL0     H65259   7.216   7.769  11.203 -2.8143 -2.1125 -0.9933
  473MOL0     H65260   6.742   7.670  11.291  2.4935 -1.5953  0.9106
  473MOL0     H65261   6.558   7.532  11.338  3.5233  3.9023  1.7125
  473MOL0     H65262   6.544   7.308  11.478 -0.9879  1.1971 -0.4612
  473MOL0     H65263   6.412   7.384  11.398  0.4247  0.3540  0.6046
  473MOL0     H65264   6.366   7.177  11.547 -1.0279  1.0007 -0.2017
  473MOL0     H65265   6.435   7.076  11.419 -0.9393 -0.5532 -1.6795
  473MOL0     H65266   6.203   7.260  11.377  0.6996  0.6401 -1.4079
  473MOL0     H65267   6.289   7.166  11.250 -0.7206  0.2893  0.4502
  473MOL0     H65268   6.236   6.955  11.357  5.4774  3.5691  0.4461
  473MOL0     H65269   6.075   7.036  11.330  0.0940 -1.2469  2.6046
  473MOL0     H65270   6.061   7.026  11.746 -1.2775  0.7443  0.0144
  473MOL0     H65271   6.736   7.202  11.124 -2.1692  0.0432 -0.6076
  473MOL0     H65272   6.913   7.256  10.974  1.1969 -1.2992  1.4773
  473MOL0     H65273   6.980   7.419  10.957  1.2211 -1.5389 -0.5360
  473MOL0     H65274   7.045   7.294  11.076  1.8072  0.6927 -0.4526
  474MOL0     O65275   0.581   4.051   1.028 -0.1417 -0.0554  0.0794
  474MOL0     C65276   0.549   4.085   0.916  0.0733  0.0385 -0.2293
  474MOL0     O65277   0.560   3.996   0.806  0.5243  0.1928 -0.1043
  474MOL0     C65278   0.603   3.865   0.826 -0.2735 -0.0756 -0.2119
  474MOL0     C65279   0.548   3.778   0.928 -0.4662 -0.1147 -0.0569
  474MOL0     C65280   0.574   3.647   0.917 -0.4701  0.1104 -0.1798
  474MOL0     C65281   0.668   3.594   0.828  0.5313 -1.0038 -0.1535
  474MOL0     O65282   0.668   3.451   0.836  0.0938  0.3230  0.3856
  474MOL0     C65283   0.699   3.390   0.713 -0.9365  0.8063  0.3385
  474MOL0     C65284   0.695   3.238   0.717  0.5449 -0.4745  0.4898
  474MOL0     C65285   0.724   3.159   0.587 -0.4773 -0.3762 -0.4558
  474MOL0     C65286   0.602   3.156   0.495 -0.4007  0.2050 -0.8627
  474MOL0     C65287   0.637   3.114   0.357  0.0200 -0.3215 -0.6602
  474MOL0     C65288   0.521   3.079   0.267  0.4327 -0.3033 -0.4037
  474MOL0     C65289   0.439   2.966   0.314  0.1267 -0.0207 -0.6809
  474MOL0     C65290   0.358   2.891   0.205 -0.2488  0.4101  0.4940
  474MOL0     N65291   0.326   2.754   0.246  0.5099 -0.0172  0.4023
  474MOL0     C65292   0.376   2.640   0.195  0.1172  0.3723 -0.7160
  474MOL0     C65293   0.345   2.552   0.279  0.7079  0.9482  0.6641
  474MOL0     C65294   0.368   2.395   0.275  0.5148  0.2803 -0.2653
  474MOL0     C65295   0.476   2.356   0.179 -1.4270 -0.1665 -0.3041
  474MOL0     C65296   0.618   2.327   0.247 -0.8125 -0.1428 -0.3772
  474MOL0     C65297   0.669   2.439   0.342 -0.0986 -0.8994  0.4295
  474MOL0     O65298   0.750   2.537   0.268 -0.3578  0.2596 -0.7891
  474MOL0     C65299   0.830   2.617   0.346  0.2878 -0.1089 -0.1443
  474MOL0     C65300   0.936   2.555   0.420 -0.7938  0.6934  0.3593
  474MOL0     C65301   1.028   2.626   0.490  0.0423 -0.0678 -0.1384
  474MOL0     C65302   1.127   2.545   0.579  1.2577 -0.2087  0.8737
  474MOL0     C65303   1.002   2.769   0.504 -0.5766 -0.5529  0.0724
  474MOL0     C65304   1.091   2.859   0.577 -0.1813  0.5942 -0.1788
  474MOL0     O65305   1.126   2.972   0.507  0.3357 -0.4154  0.4816
  474MOL0     C65306   1.174   3.081   0.586 -0.0769  1.1304  0.6782
  474MOL0     C65307   1.288   3.156   0.554 -0.2419  0.6830  0.4956
  474MOL0     C65308   1.329   3.265   0.631  0.2542 -0.3582  0.3387
  474MOL0     C65309   1.246   3.320   0.731  1.2301 -0.5010  0.9318
  474MOL0     O65310   1.286   3.440   0.779 -0.1662 -0.1707  0.4648
  474MOL0     C65311   1.237   3.489   0.906 -0.0633 -0.2824  0.3654
  474MOL0     C65312   1.271   3.629   0.957 -0.5019  1.0279  0.6944
  474MOL0     C65313   1.425   3.651   0.983  0.6847 -0.3399  0.4887
  474MOL0     C65314   1.465   3.613   1.129 -0.2374  0.0516  0.1666
  474MOL0     C65315   1.594   3.679   1.184 -0.7626 -0.2685  0.1486
  474MOL0     C65316   1.725   3.589   1.159  0.5618  0.2450 -1.4000
  474MOL0     C65317   1.844   3.660   1.223 -0.9466 -0.1003 -0.3500
  474MOL0     C65318   1.973   3.591   1.169  0.9172 -0.2397 -0.6307
  474MOL0    Cl65319   2.117   3.665   1.242 -0.1080  0.6860  0.3286
  474MOL0     C65320   1.125   3.248   0.766 -0.2817 -0.0347 -0.5042
  474MOL0     C65321   1.093   3.134   0.689 -0.1283 -0.4618 -0.3278
  474MOL0     O65322   1.140   2.816   0.683 -0.1651 -0.0318 -0.2313
  474MOL0     C65323   0.895   2.828   0.432 -0.5631 -0.7278 -0.3110
  474MOL0     C65324   0.811   2.753   0.353  0.9059 -0.5709  0.7995
  474MOL0     N65325   0.254   2.603   0.375  1.1375 -0.1325  0.6885
  474MOL0     N65326   0.237   2.732   0.341  0.4123  0.1479  0.4333
  474MOL0     C65327   0.738   3.675   0.737  0.4758 -0.3146  0.4552
  474MOL0     C65328   0.691   3.808   0.732  0.7362 -1.3800 -1.0074
  474MOL0     C65329   0.501   4.222   0.893 -0.2189  0.5896 -0.1088
  474MOL0     C65330   0.415   4.248   0.784 -0.9379  1.2039 -0.2391
  474MOL0     C65331   0.375   4.373   0.741  0.8056  1.0993 -0.0688
  474MOL0     C65332   0.444   4.481   0.800 -0.2957  0.1465 -0.8287
  474MOL0     O65333   0.443   4.609   0.759  0.4831 -0.3797  0.1690
  474MOL0     C65334   0.344   4.663   0.668 -0.3985  0.4548  0.3597
  474MOL0     C65335   0.355   4.815   0.638  1.3180  0.6641  0.5794
  474MOL0     C65336   0.474   4.839   0.544  0.3989  0.2221  0.6449
  474MOL0     C65337   0.506   4.976   0.511  0.0575 -1.4160 -0.0207
  474MOL0     C65338   0.524   5.067   0.621  0.1242  0.2429 -0.5674
  474MOL0     C65339   0.522   5.164   0.701 -0.3767 -0.3548  0.7572
  474MOL0     C65340   0.529   4.461   0.911 -0.0172  0.0413 -0.2190
  474MOL0     C65341   0.552   4.332   0.960 -0.3652 -0.4325 -0.6584
  474MOL0     C65342   0.624   4.335   1.095  0.2023 -0.1262 -0.0515
  474MOL0     H65343   0.494   3.817   1.014 -1.4437  0.4503 -0.8973
  474MOL0     H65344   0.537   3.567   0.979  2.6527 -0.5767  0.9733
  474MOL0     H65345   0.800   3.420   0.688 -0.4918 -0.5106  0.4548
  474MOL0     H65346   0.630   3.419   0.634  1.8111 -0.0511 -2.5600
  474MOL0     H65347   0.754   3.214   0.806 -1.4865  1.6411  2.5324
  474MOL0     H65348   0.595   3.206   0.747  0.9248 -2.8538 -0.5316
  474MOL0     H65349   0.802   3.208   0.528  2.1200 -2.2278  1.2127
  474MOL0     H65350   0.756   3.057   0.611  1.0897  0.1639 -0.1112
  474MOL0     H65351   0.517   3.104   0.540 -0.9882  0.6419 -1.4566
  474MOL0     H65352   0.558   3.256   0.492 -0.2888  0.3214  0.6494
  474MOL0     H65353   0.703   3.027   0.369 -1.2392 -1.3844 -1.2436
  474MOL0     H65354   0.695   3.198   0.319 -0.8963 -0.0001 -1.3830
  474MOL0     H65355   0.456   3.165   0.250  0.6314 -0.1228 -0.2653
  474MOL0     H65356   0.557   3.054   0.167  1.4689 -1.2008  0.1742
  474MOL0     H65357   0.371   3.003   0.391  0.1062  2.2095 -1.6991
  474MOL0     H65358   0.502   2.898   0.372  1.8362  2.7921  0.9733
  474MOL0     H65359   0.270   2.949   0.177  0.0636  0.0739 -1.3892
  474MOL0     H65360   0.415   2.891   0.111 -0.5436  0.8097  0.3127
  474MOL0     H65361   0.438   2.627   0.107  1.5168 -0.9440  0.4071
  474MOL0     H65362   0.272   2.345   0.258  0.1858 -0.8859  3.7749
  474MOL0     H65363   0.387   2.354   0.375 -0.5726 -0.0464 -0.1746
  474MOL0     H65364   0.447   2.259   0.139 -0.9006  0.1291 -1.4242
  474MOL0     H65365   0.477   2.421   0.092  2.7725 -1.3877 -1.4025
  474MOL0     H65366   0.609   2.232   0.299 -0.4504 -1.2675 -2.2618
  474MOL0     H65367   0.694   2.311   0.169 -0.8927 -2.0301 -0.1169
  474MOL0     H65368   0.584   2.494   0.384  2.4225  1.0309  3.4221
  474MOL0     H65369   0.720   2.392   0.427 -0.5199  2.4637  2.7413
  474MOL0     H65370   0.938   2.447   0.406 -0.2849  0.8691 -1.1404
  474MOL0     H65371   1.065   2.529   0.667 -2.4144  2.2540 -1.0050
  474MOL0     H65372   1.231   2.575   0.599  1.7423 -0.7234 -0.7355
  474MOL0     H65373   1.137   2.447   0.533  2.0357  0.7255 -1.0779
  474MOL0     H65374   1.333   3.127   0.459  2.3117  1.2925  1.4252
  474MOL0     H65375   1.421   3.319   0.613 -1.2206  1.9972 -0.6138
  474MOL0     H65376   1.130   3.481   0.889 -0.1560 -2.4414  1.6952
  474MOL0     H65377   1.267   3.419   0.984  0.7643  0.6392  0.8989
  474MOL0     H65378   1.233   3.695   0.877  0.2000  2.2271  1.3188
  474MOL0     H65379   1.211   3.650   1.046 -0.1478  3.5668  0.4173
  474MOL0     H65380   1.455   3.755   0.968  2.6799 -1.1328 -1.5830
  474MOL0     H65381   1.483   3.596   0.909 -0.4660 -0.3598 -0.4287
  474MOL0     H65382   1.469   3.504   1.140  0.4036  0.1541  1.1217
  474MOL0     H65383   1.373   3.638   1.183 -1.1040 -1.7222 -0.4278
  474MOL0     H65384   1.616   3.780   1.148  0.7974 -1.1129 -1.3987
  474MOL0     H65385   1.583   3.697   1.291 -0.8126  4.5743 -0.4564
  474MOL0     H65386   1.745   3.568   1.054  1.8130  1.6589 -1.4768
  474MOL0     H65387   1.701   3.496   1.211  0.7555  1.3549  0.8126
  474MOL0     H65388   1.836   3.657   1.332 -1.4936 -1.3581 -0.4174
  474MOL0     H65389   1.824   3.765   1.199 -1.9810  0.2976  2.0003
  474MOL0     H65390   1.981   3.600   1.060  0.6017 -2.3526 -0.8672
  474MOL0     H65391   1.970   3.482   1.179 -0.8481 -0.5636 -3.4597
  474MOL0     H65392   1.052   3.272   0.843 -0.4413 -1.3189 -0.2246
  474MOL0     H65393   1.005   3.079   0.722  0.0413  0.1006  1.1417
  474MOL0     H65394   0.875   2.934   0.447  2.6856 -0.3540  2.7317
  474MOL0     H65395   0.730   2.787   0.289  1.2230 -0.0807  0.6565
  474MOL0     H65396   0.796   3.644   0.651  0.8950 -1.3438  1.0933
  474MOL0     H65397   0.724   3.880   0.657  2.5004 -0.0728  0.9016
  474MOL0     H65398   0.373   4.160   0.736  2.5351 -0.9333  0.3334
  474MOL0     H65399   0.303   4.384   0.661  2.5306  0.0932 -1.8366
  474MOL0     H65400   0.343   4.601   0.578  1.4240 -1.4324  1.5452
  474MOL0     H65401   0.250   4.638   0.718  0.2227  0.0339  1.3630
  474MOL0     H65402   0.354   4.872   0.732 -1.9161  3.4630 -0.9426
  474MOL0     H65403   0.265   4.837   0.581  1.0617 -4.2711 -1.3568
  474MOL0     H65404   0.562   4.790   0.588  0.1226 -0.3444  0.5771
  474MOL0     H65405   0.441   4.784   0.455 -1.7982 -0.1875  1.6436
  474MOL0     H65406   0.423   5.013   0.449  0.6415 -3.3777 -2.1422
  474MOL0     H65407   0.588   4.973   0.438 -1.5706  1.9267 -2.2459
  474MOL0     H65408   0.511   5.244   0.771 -0.3696  1.2959 -1.0392
  474MOL0     H65409   0.560   4.558   0.950 -0.7501  0.4595 -0.6497
  474MOL0     H65410   0.663   4.435   1.116 -2.3098  0.9138 -0.0787
  474MOL0     H65411   0.557   4.305   1.176 -0.9210  0.4379 -0.7535
  474MOL0     H65412   0.709   4.267   1.078  0.0794  0.3918 -3.2413
  475MOL0     O65413   1.305   1.623   8.306 -0.1798  0.0388 -0.2534
  475MOL0     C65414   1.358   1.642   8.418 -0.1638 -0.7423 -0.9414
  475MOL0     O65415   1.459   1.567   8.472  0.4907 -0.2623 -0.1075
  475MOL0     C65416   1.478   1.450   8.405  0.3087  0.1643 -0.0010
  475MOL0     C65417   1.567   1.439   8.293 -0.2769  0.1476  0.1561
  475MOL0     C65418   1.595   1.311   8.234 -0.3069  0.1367 -0.2424
  475MOL0     C65419   1.522   1.205   8.273 -0.2958  0.4986 -1.0588
  475MOL0     O65420   1.556   1.087   8.208  0.4195 -0.1060  0.6870
  475MOL0     C65421   1.585   0.979   8.296  0.2841 -0.2806 -0.0536
  475MOL0     C65422   1.598   0.844   8.235  0.7378 -0.2638 -1.1201
  475MOL0     C65423   1.670   0.868   8.103  0.8663 -0.8006  0.0655
  475MOL0     C65424   1.747   0.740   8.085 -0.0280  0.2429  0.1162
  475MOL0     C65425   1.827   0.748   7.954  0.2485 -0.8803 -0.4515
  475MOL0     C65426   1.737   0.705   7.840 -0.8184  0.7513 -0.4783
  475MOL0     C65427   1.807   0.683   7.706 -0.0222 -1.1594  0.0202
  475MOL0     C65428   1.872   0.812   7.664  0.2675  0.2836  1.2268
  475MOL0     N65429   1.839   0.839   7.523 -0.1816 -0.5777  0.0047
  475MOL0     C65430   1.926   0.893   7.436 -0.0792  0.1397  0.1807
  475MOL0     C65431   1.844   0.935   7.336 -0.8355 -0.1701  0.6507
  475MOL0     C65432   1.893   1.008   7.213 -0.1668 -0.0214 -1.2108
  475MOL0     C65433   1.905   1.159   7.234 -0.2209 -0.1648  0.0860
  475MOL0     C65434   1.805   1.235   7.140  0.2023 -1.0690 -0.3845
  475MOL0     C65435   1.657   1.214   7.171 -0.0347 -0.2841 -0.7167
  475MOL0     O65436   1.621   1.281   7.297  0.2507  0.3501  0.5964
  475MOL0     C65437   1.484   1.285   7.313  0.2958 -1.7034 -0.5023
  475MOL0     C65438   1.386   1.180   7.294  0.3519  0.0761  0.0911
  475MOL0     C65439   1.243   1.201   7.308 -0.6446 -0.3611  0.5475
  475MOL0     C65440   1.161   1.080   7.317 -0.7713  0.5465 -0.5456
  475MOL0     C65441   1.195   1.328   7.343 -0.5980 -0.8739 -0.5976
  475MOL0     C65442   1.054   1.378   7.361  0.7071  0.8140  0.1664
  475MOL0     O65443   1.049   1.512   7.394 -0.2504 -0.3306  0.1621
  475MOL0     C65444   0.930   1.577   7.401 -0.3797 -0.0597 -0.6270
  475MOL0     C65445   0.858   1.550   7.516 -0.1754 -0.8515 -0.4588
  475MOL0     C65446   0.717   1.590   7.520  0.5888  0.3902  0.5173
  475MOL0     C65447   0.665   1.664   7.414 -0.2139  0.5824  0.7457
  475MOL0     O65448   0.534   1.695   7.393  0.2724  0.0513 -0.1030
  475MOL0     C65449   0.438   1.637   7.481  0.2230 -0.0631 -0.2374
  475MOL0     C65450   0.398   1.719   7.608  0.7103 -0.0852 -0.2563
  475MOL0     C65451   0.395   1.865   7.581  0.1542 -0.5067  0.1882
  475MOL0     C65452   0.324   1.938   7.690  0.1185  0.0346  0.0909
  475MOL0     C65453   0.307   2.084   7.653  0.2578 -0.1776  0.3682
  475MOL0     C65454   0.191   2.101   7.552  0.1086  0.3026 -0.0699
  475MOL0     C65455   0.235   2.159   7.415  0.3887 -0.4008  0.6069
  475MOL0     C65456   0.277   2.305   7.412 -0.4830  0.0061  0.2480
  475MOL0    Cl65457   0.452   2.334   7.450 -0.6375 -0.1303 -0.0502
  475MOL0     C65458   0.760   1.701   7.311  0.3464  0.8417 -0.3242
  475MOL0     C65459   0.888   1.652   7.296  0.5139  1.5539 -0.0133
  475MOL0     O65460   0.961   1.308   7.338 -0.4153  0.2175 -0.4178
  475MOL0     C65461   1.295   1.433   7.347  0.1332 -1.2221  0.1506
  475MOL0     C65462   1.432   1.420   7.324 -0.2774  0.0856 -1.2134
  475MOL0     N65463   1.716   0.907   7.362  0.2437 -0.5146  0.4131
  475MOL0     N65464   1.710   0.844   7.473  0.0694  0.9505  0.7414
  475MOL0     C65465   1.432   1.217   8.371 -0.3241  0.3551 -0.3278
  475MOL0     C65466   1.406   1.336   8.437 -1.0148  0.4063 -0.4778
  475MOL0     C65467   1.300   1.751   8.496 -0.5987  0.1032  0.3704
  475MOL0     C65468   1.165   1.774   8.478  0.2696 -0.3905 -0.4092
  475MOL0     C65469   1.088   1.859   8.553 -0.1643 -0.1396 -0.8565
  475MOL0     C65470   1.154   1.925   8.663 -0.3777  0.0117  0.0112
  475MOL0     O65471   1.093   2.018   8.742  0.4508  0.5758  0.4589
  475MOL0     C65472   0.957   2.046   8.700  0.7734  0.5594  0.3703
  475MOL0     C65473   0.930   2.165   8.786  0.6259 -0.1646  0.0515
  475MOL0     C65474   0.914   2.136   8.938 -0.0489 -0.2761  0.5657
  475MOL0     C65475   0.780   2.064   8.964  0.4964 -0.0601 -0.7444
  475MOL0     C65476   0.675   2.156   8.968 -1.0114  0.2202  0.2276
  475MOL0     C65477   0.592   2.239   8.969 -0.8610 -0.8667 -0.4101
  475MOL0     C65478   1.290   1.909   8.696 -0.7352 -0.3196  1.1307
  475MOL0     C65479   1.356   1.822   8.606  0.2243 -0.6504 -0.3616
  475MOL0     C65480   1.493   1.792   8.653 -0.5364 -0.9892 -0.5036
  475MOL0     H65481   1.630   1.524   8.268 -0.6478  0.9201  1.7320
  475MOL0     H65482   1.671   1.286   8.162 -1.7668 -2.6836 -0.9503
  475MOL0     H65483   1.504   0.959   8.366  1.6855 -1.4261  1.2919
  475MOL0     H65484   1.680   0.995   8.348  0.9413 -0.3215 -1.1984
  475MOL0     H65485   1.663   0.789   8.304  0.6342 -0.0857 -0.8776
  475MOL0     H65486   1.505   0.786   8.228 -0.8193  1.6718  1.4102
  475MOL0     H65487   1.593   0.888   8.028 -1.4660 -1.1046  2.2698
  475MOL0     H65488   1.747   0.945   8.111 -0.4175  0.4579  0.7575
  475MOL0     H65489   1.828   0.741   8.159  0.5512 -0.8231 -0.4735
  475MOL0     H65490   1.690   0.649   8.108  1.2372  0.0869  3.0779
  475MOL0     H65491   1.907   0.673   7.952  0.4768 -0.6780  0.4793
  475MOL0     H65492   1.861   0.850   7.936 -3.4460  0.4113 -0.9531
  475MOL0     H65493   1.708   0.601   7.859 -0.4671  0.7591  0.1243
  475MOL0     H65494   1.639   0.753   7.840 -3.1616 -3.4369  1.8361
  475MOL0     H65495   1.739   0.662   7.623  2.6211 -0.6670 -2.4403
  475MOL0     H65496   1.873   0.597   7.711 -0.4669 -1.4756  0.5333
  475MOL0     H65497   1.832   0.889   7.729 -0.6492  0.1378  0.8486
  475MOL0     H65498   1.980   0.794   7.665  0.2592 -0.1945 -0.9668
  475MOL0     H65499   2.031   0.916   7.448 -0.0044 -0.1407  0.0709
  475MOL0     H65500   1.851   0.969   7.120 -0.3424 -1.6953 -0.4678
  475MOL0     H65501   1.995   0.968   7.212 -1.3934 -3.7551  1.2066
  475MOL0     H65502   1.888   1.187   7.338 -1.9528 -0.6763 -0.0266
  475MOL0     H65503   2.007   1.187   7.205  0.0537  0.0083  1.1867
  475MOL0     H65504   1.831   1.339   7.165 -2.4344 -0.6902  1.2433
  475MOL0     H65505   1.819   1.203   7.036 -3.1112 -0.3676 -1.1587
  475MOL0     H65506   1.600   1.255   7.087  2.0844  2.9133 -0.7804
  475MOL0     H65507   1.638   1.107   7.181  0.1874 -0.1581  1.5789
  475MOL0     H65508   1.425   1.080   7.279  2.0341  0.9242 -1.6424
  475MOL0     H65509   1.115   1.059   7.414 -0.2080  2.4407  0.1938
  475MOL0     H65510   1.219   0.991   7.292 -0.1339  0.4659  1.0868
  475MOL0     H65511   1.072   1.083   7.254 -0.8800  1.6186 -0.3653
  475MOL0     H65512   0.900   1.507   7.606 -0.9390  1.5677  1.1289
  475MOL0     H65513   0.658   1.557   7.605  0.5720 -1.6206 -0.2155
  475MOL0     H65514   0.350   1.629   7.417  1.6768  0.5186 -2.4048
  475MOL0     H65515   0.461   1.535   7.513 -0.1835  0.6047  2.3932
  475MOL0     H65516   0.297   1.693   7.642  1.3737  1.2793  3.0915
  475MOL0     H65517   0.468   1.698   7.689  1.0789  0.8064 -0.3370
  475MOL0     H65518   0.341   1.881   7.487 -0.7145 -0.4536  0.6771
  475MOL0     H65519   0.501   1.885   7.568  0.1039 -1.0523 -1.1828
  475MOL0     H65520   0.383   1.927   7.782 -0.1090  0.3545  0.2769
  475MOL0     H65521   0.234   1.892   7.732 -1.5714  3.7265  0.8587
  475MOL0     H65522   0.299   2.126   7.754  2.3995 -2.5535  1.6580
  475MOL0     H65523   0.404   2.113   7.612 -0.5724  0.3278 -1.3088
  475MOL0     H65524   0.110   2.164   7.590  2.0849  2.4257  0.8828
  475MOL0     H65525   0.157   1.997   7.541  1.9529 -0.4129  0.5536
  475MOL0     H65526   0.149   2.141   7.350 -0.8996 -0.6352  2.3030
  475MOL0     H65527   0.307   2.100   7.359 -1.0121 -0.9054 -0.7164
  475MOL0     H65528   0.219   2.360   7.487  1.0179  0.5198  1.0762
  475MOL0     H65529   0.257   2.331   7.308  0.0200  2.6065  0.7148
  475MOL0     H65530   0.711   1.757   7.232 -0.4278 -0.4334 -0.7842
  475MOL0     H65531   0.954   1.683   7.215  1.4613 -1.0463 -0.3480
  475MOL0     H65532   1.263   1.537   7.354 -3.0250 -1.7880 -3.1212
  475MOL0     H65533   1.479   1.517   7.319 -0.5335  0.2319 -0.8010
  475MOL0     H65534   1.389   1.121   8.399  2.6865 -1.3626 -1.0820
  475MOL0     H65535   1.336   1.337   8.520 -2.0643 -2.0189 -1.2184
  475MOL0     H65536   1.127   1.717   8.393  2.7834 -0.7966 -1.3459
  475MOL0     H65537   0.982   1.865   8.530  0.5801 -1.9143 -6.1817
  475MOL0     H65538   0.946   2.068   8.593 -1.4355 -0.5060  0.3232
  475MOL0     H65539   0.889   1.962   8.717  0.4304  0.9209  0.7955
  475MOL0     H65540   0.843   2.215   8.743 -0.9266 -1.7926  1.1275
  475MOL0     H65541   1.013   2.236   8.792 -1.4501  2.4231  0.1983
  475MOL0     H65542   0.993   2.069   8.972 -0.5595 -2.0906 -1.5663
  475MOL0     H65543   0.932   2.229   8.994  0.7682  0.2101 -0.4649
  475MOL0     H65544   0.777   2.014   9.061 -3.3241 -4.7098 -2.8333
  475MOL0     H65545   0.772   1.977   8.898 -0.7484 -0.8707  0.4240
  475MOL0     H65546   0.508   2.305   8.964 -1.2513 -1.4732 -3.5808
  475MOL0     H65547   1.347   1.962   8.772 -0.4225  0.2763  0.4851
  475MOL0     H65548   1.548   1.848   8.729  1.1345 -1.2279 -1.4828
  475MOL0     H65549   1.495   1.684   8.672 -1.5313 -1.1328 -1.1763
  475MOL0     H65550   1.558   1.803   8.566  1.4440  2.5251  1.1981
  476MOL0     O65551   1.036   5.634  10.974  0.0327 -0.4791 -0.2941
  476MOL0     C65552   1.063   5.532  11.033  0.4366  0.9318 -0.2147
  476MOL0     O65553   0.986   5.425  11.058  0.7598  0.1019  0.4543
  476MOL0     C65554   0.863   5.423  10.997  0.9938 -1.6027 -0.0911
  476MOL0     C65555   0.846   5.318  10.912 -0.8254  0.2882  0.6739
  476MOL0     C65556   0.717   5.319  10.842 -0.1451  0.2780  0.5276
  476MOL0     C65557   0.612   5.397  10.883  0.5238 -0.4058  0.5197
  476MOL0     O65558   0.486   5.384  10.834  0.2438  0.9789  0.9927
  476MOL0     C65559   0.439   5.500  10.772 -0.1253 -0.7100  0.5056
  476MOL0     C65560   0.287   5.511  10.770 -0.3142 -0.3655 -0.1417
  476MOL0     C65561   0.229   5.512  10.914 -1.0825 -0.7649 -0.4094
  476MOL0     C65562   0.074   5.530  10.903 -0.6796  0.0991 -0.6972
  476MOL0     C65563   0.014   5.515  11.040  0.9183 -0.3751  0.0125
  476MOL0     C65564  -0.127   5.548  11.033  0.7447 -0.0800  0.4367
  476MOL0     C65565  -0.198   5.555  11.177 -0.6614  0.0337 -0.0917
  476MOL0     C65566  -0.197   5.421  11.250 -0.2815 -0.2047 -0.0485
  476MOL0     N65567  -0.313   5.336  11.206  0.5726 -0.7930 -0.8041
  476MOL0     C65568  -0.289   5.236  11.121 -0.3003 -0.0834  0.3374
  476MOL0     C65569  -0.386   5.144  11.147 -0.2828  0.1286  0.3017
  476MOL0     C65570  -0.410   5.022  11.060 -1.1547  0.2528  0.2605
  476MOL0     C65571  -0.354   4.902  11.131  0.5924  0.4046 -0.0458
  476MOL0     C65572  -0.211   4.899  11.096  0.1156 -0.2079  0.4369
  476MOL0     C65573  -0.139   4.792  11.175 -0.1810 -1.0816 -0.1822
  476MOL0     O65574  -0.198   4.666  11.182 -0.2098 -0.1531 -0.2327
  476MOL0     C65575  -0.175   4.582  11.076  0.2775 -0.3949  0.5659
  476MOL0     C65576  -0.246   4.463  11.074  0.6568 -0.6908 -0.1016
  476MOL0     C65577  -0.231   4.355  10.984  0.9264 -0.2356 -0.4608
  476MOL0     C65578  -0.319   4.232  11.004 -0.8484  1.0769 -1.0482
  476MOL0     C65579  -0.139   4.376  10.878  0.2022 -0.6742  0.0557
  476MOL0     C65580  -0.130   4.280  10.762  0.4427  0.2717 -0.1386
  476MOL0     O65581  -0.225   4.179  10.745  0.7337 -0.0474 -0.0830
  476MOL0     C65582  -0.202   4.071  10.662  0.6582  1.1311  0.1314
  476MOL0     C65583  -0.256   3.941  10.701 -0.6431  0.9906  0.1668
  476MOL0     C65584  -0.242   3.835  10.623  0.0280 -0.0142  1.2082
  476MOL0     C65585  -0.197   3.846  10.492 -0.4339  0.7070 -0.6616
  476MOL0     O65586  -0.209   3.742  10.410  0.0973  0.2526  0.9376
  476MOL0     C65587  -0.346   3.715  10.362  0.2069 -0.5249 -0.3297
  476MOL0     C65588  -0.333   3.707  10.207 -0.1599  1.0227  0.2126
  476MOL0     C65589  -0.445   3.626  10.164 -0.2504 -0.7779  0.1307
  476MOL0     C65590  -0.427   3.613  10.008 -0.1395 -0.4604 -0.0369
  476MOL0     C65591  -0.545   3.560   9.924  0.0552 -0.1284  0.6731
  476MOL0     C65592  -0.664   3.658   9.911  0.1036  0.5421 -0.1341
  476MOL0     C65593  -0.731   3.641   9.776  0.9211  0.6737  0.1347
  476MOL0     C65594  -0.839   3.748   9.741 -0.4853  0.1625  0.5520
  476MOL0    Cl65595  -0.784   3.843   9.591  0.1929  0.3766 -0.3367
  476MOL0     C65596  -0.147   3.969  10.449 -0.0949 -0.4857  0.2786
  476MOL0     C65597  -0.152   4.079  10.527 -0.3495 -0.5196  0.8855
  476MOL0     O65598  -0.036   4.303  10.678 -0.6241 -0.4959 -0.1819
  476MOL0     C65599  -0.072   4.506  10.869 -0.2517  1.0533  1.3587
  476MOL0     C65600  -0.084   4.603  10.970 -0.6399  0.8748 -0.0340
  476MOL0     N65601  -0.469   5.191  11.246 -0.2039  0.1318 -0.0711
  476MOL0     N65602  -0.428   5.307  11.282 -0.2590 -0.7013 -0.2748
  476MOL0     C65603   0.636   5.494  10.981  0.5035  1.3067 -0.2792
  476MOL0     C65604   0.758   5.509  11.034  0.0215  0.0243 -0.0922
  476MOL0     C65605   1.197   5.521  11.071  0.5231  0.6150 -0.0899
  476MOL0     C65606   1.275   5.635  11.107 -0.0197  0.3550  0.4147
  476MOL0     C65607   1.413   5.625  11.145  0.0774  0.1783  0.2383
  476MOL0     C65608   1.473   5.497  11.160  0.5511  0.2289  0.4217
  476MOL0     O65609   1.597   5.471  11.196  0.2813 -0.0580  0.1426
  476MOL0     C65610   1.695   5.569  11.246  0.2254 -0.1058 -0.6329
  476MOL0     C65611   1.839   5.528  11.240  0.9171 -1.6661  0.0197
  476MOL0     C65612   1.858   5.390  11.290  0.2850  0.6454 -0.7151
  476MOL0     C65613   1.857   5.383  11.449  0.1735  0.1992  0.1375
  476MOL0     C65614   1.981   5.437  11.510  0.1447 -0.4679  0.1709
  476MOL0     C65615   2.070   5.497  11.566  0.0264 -0.1945  0.1759
  476MOL0     C65616   1.398   5.384  11.123 -0.1697 -0.3044  0.3258
  476MOL0     C65617   1.263   5.392  11.086  0.1122  0.6912  0.6876
  476MOL0     C65618   1.194   5.257  11.069 -0.4585 -0.2247 -0.5171
  476MOL0     H65619   0.922   5.250  10.874 -2.4302 -0.9609 -0.4357
  476MOL0     H65620   0.696   5.237  10.774 -1.6259  0.5363  0.6313
  476MOL0     H65621   0.475   5.491  10.669 -2.2519 -2.1822 -0.1853
  476MOL0     H65622   0.475   5.592  10.817 -0.4553 -0.1367 -0.3637
  476MOL0     H65623   0.251   5.597  10.712  1.7274  0.0331 -0.8953
  476MOL0     H65624   0.243   5.428  10.713 -0.4025 -0.5779  0.2342
  476MOL0     H65625   0.255   5.426  10.975  1.6712  1.7335  2.2382
  476MOL0     H65626   0.271   5.592  10.975 -1.3660 -0.9264  0.0062
  476MOL0     H65627   0.053   5.630  10.863  0.9447  1.7753  2.2894
  476MOL0     H65628   0.040   5.445  10.843 -1.5504  0.5393 -0.8469
  476MOL0     H65629   0.051   5.585  11.116  0.1996  1.0086 -0.8771
  476MOL0     H65630   0.034   5.415  11.080 -0.8533  0.1553  2.4749
  476MOL0     H65631  -0.133   5.641  10.977  1.8887 -1.7550 -2.7699
  476MOL0     H65632  -0.176   5.478  10.964  3.0932 -0.3637 -1.0432
  476MOL0     H65633  -0.301   5.588  11.161 -0.7321  0.0513  0.3690
  476MOL0     H65634  -0.152   5.636  11.235 -0.9303 -0.4424  0.8167
  476MOL0     H65635  -0.097   5.378  11.237 -0.0084  0.1502  0.8152
  476MOL0     H65636  -0.211   5.437  11.357 -0.1244 -0.6114  0.0356
  476MOL0     H65637  -0.211   5.229  11.045  2.3164 -3.4082  2.9876
  476MOL0     H65638  -0.357   5.044  10.967  1.6187 -0.1263  1.6371
  476MOL0     H65639  -0.517   5.009  11.043 -0.6361 -1.6063 -2.1681
  476MOL0     H65640  -0.358   4.896  11.240  0.7985 -3.4672 -0.1334
  476MOL0     H65641  -0.400   4.810  11.094  1.0525 -1.3864  3.3915
  476MOL0     H65642  -0.220   4.879  10.989 -0.3173  0.5596  0.3217
  476MOL0     H65643  -0.161   4.996  11.108 -3.5649  1.7693  1.5782
  476MOL0     H65644  -0.035   4.797  11.141 -0.8406  1.1776 -2.1873
  476MOL0     H65645  -0.139   4.825  11.279 -1.0782 -3.3652  0.6110
  476MOL0     H65646  -0.324   4.458  11.150  1.0794 -2.2615  0.2769
  476MOL0     H65647  -0.402   4.210  10.937 -0.2645 -3.2546 -0.6539
  476MOL0     H65648  -0.356   4.212  11.105 -2.6298 -0.6070 -1.9646
  476MOL0     H65649  -0.244   4.154  10.991 -2.6062 -0.8866 -0.0834
  476MOL0     H65650  -0.304   3.922  10.797 -1.6889  2.1909 -0.0928
  476MOL0     H65651  -0.284   3.742  10.662  3.4006 -0.9803  2.9780
  476MOL0     H65652  -0.390   3.624  10.406  0.4927 -0.8028 -0.6081
  476MOL0     H65653  -0.411   3.797  10.393  1.6651  1.0355 -1.2897
  476MOL0     H65654  -0.339   3.810  10.171 -3.4326  1.6224  2.0143
  476MOL0     H65655  -0.241   3.661  10.171 -0.2803  1.1724 -0.2907
  476MOL0     H65656  -0.538   3.681  10.183  0.2022  1.3187 -2.8897
  476MOL0     H65657  -0.446   3.526  10.208 -0.7748 -1.3901 -1.1927
  476MOL0     H65658  -0.332   3.562   9.990  0.8303  0.3318  2.3970
  476MOL0     H65659  -0.419   3.714   9.966  1.0027 -2.2374 -4.5893
  476MOL0     H65660  -0.511   3.536   9.823 -0.3134 -1.5290  0.8641
  476MOL0     H65661  -0.568   3.463   9.968  1.5125 -0.6728  0.3032
  476MOL0     H65662  -0.624   3.760   9.925 -0.5915  1.2276 -2.7031
  476MOL0     H65663  -0.740   3.637   9.986 -0.3468  1.2302 -0.3908
  476MOL0     H65664  -0.767   3.538   9.765  2.0068  0.1616  1.0974
  476MOL0     H65665  -0.659   3.643   9.694 -2.2590 -2.2723 -3.0719
  476MOL0     H65666  -0.849   3.811   9.830  2.7874 -2.1424  2.8174
  476MOL0     H65667  -0.929   3.693   9.713  1.8685 -3.0234 -1.3563
  476MOL0     H65668  -0.100   3.968  10.351  0.4528  1.3214  0.4903
  476MOL0     H65669  -0.107   4.172  10.496  0.6824 -0.8781  1.2838
  476MOL0     H65670  -0.010   4.522  10.781 -2.5403 -1.5813 -0.9217
  476MOL0     H65671  -0.019   4.688  10.955 -0.6254  0.5238 -2.5496
  476MOL0     H65672   0.562   5.560  11.025  0.0962  1.0534 -0.5793
  476MOL0     H65673   0.760   5.584  11.113 -3.2695  0.2388 -0.0548
  476MOL0     H65674   1.233   5.735  11.101  1.3621  0.8574 -3.3264
  476MOL0     H65675   1.465   5.715  11.177 -2.0468  0.6171  2.7706
  476MOL0     H65676   1.676   5.657  11.183 -0.6371  0.4309  0.3539
  476MOL0     H65677   1.673   5.589  11.351  4.4426  0.3626  0.3300
  476MOL0     H65678   1.913   5.595  11.284 -0.0682  2.3341 -3.7065
  476MOL0     H65679   1.862   5.523  11.133 -0.1529 -3.6824 -0.1812
  476MOL0     H65680   1.775   5.327  11.256 -1.0347  0.4901  2.4803
  476MOL0     H65681   1.955   5.354  11.253  1.1498  3.4339 -1.3963
  476MOL0     H65682   1.841   5.279  11.480 -0.7460  1.1573  3.2785
  476MOL0     H65683   1.765   5.432  11.481  0.3069 -0.2773  1.2892
  476MOL0     H65684   2.151   5.541  11.621 -1.3950  2.3275  0.4246
  476MOL0     H65685   1.447   5.287  11.121 -0.0840 -0.2608 -1.0109
  476MOL0     H65686   1.270   5.179  11.055  0.0783 -0.2830  2.1782
  476MOL0     H65687   1.116   5.228  11.139 -2.5443 -0.5785 -2.8381
  476MOL0     H65688   1.141   5.262  10.973 -0.0467  0.6164 -0.7116
  477MOL0     O65689   7.236   3.083   4.121 -0.4346  0.8399  0.3366
  477MOL0     C65690   7.303   3.130   4.210  1.0848 -0.1448  0.3095
  477MOL0     O65691   7.437   3.146   4.213  0.8227 -0.0895  0.6341
  477MOL0     C65692   7.519   3.136   4.097  0.1005  0.4001 -1.2534
  477MOL0     C65693   7.648   3.093   4.112 -0.5278  0.8982  0.1989
  477MOL0     C65694   7.742   3.087   4.011 -0.0200 -0.5132 -0.0458
  477MOL0     C65695   7.702   3.127   3.881 -0.9176 -0.7507 -0.4373
  477MOL0     O65696   7.798   3.126   3.782 -0.0118  0.6101  0.1369
  477MOL0     C65697   7.790   3.222   3.679  0.3939  0.4985 -0.3409
  477MOL0     C65698   7.877   3.172   3.564  0.7020 -0.4521 -0.1860
  477MOL0     C65699   7.825   3.234   3.438  0.7825  0.5029 -0.0069
  477MOL0     C65700   7.912   3.174   3.323 -0.0502 -0.2919 -1.0372
  477MOL0     C65701   7.890   3.247   3.188 -0.0231 -0.0274 -0.7187
  477MOL0     C65702   7.755   3.245   3.122 -0.0503  0.9957 -0.7600
  477MOL0     C65703   7.743   3.107   3.055 -0.2035  0.1532  0.5649
  477MOL0     C65704   7.647   3.120   2.935 -0.4982 -1.0535 -0.7567
  477MOL0     N65705   7.597   2.987   2.891 -0.2747  0.2423 -0.7236
  477MOL0     C65706   7.571   2.877   2.973  0.1038  0.2403 -0.1003
  477MOL0     C65707   7.533   2.769   2.894 -0.0075  0.1713 -0.1523
  477MOL0     C65708   7.493   2.630   2.928  0.6667  0.2908  0.5191
  477MOL0     C65709   7.356   2.586   2.884  1.2618 -0.3572 -1.0177
  477MOL0     C65710   7.333   2.439   2.936  0.7158 -0.8342 -0.5006
  477MOL0     C65711   7.192   2.376   2.903  0.1420 -0.0093  0.0534
  477MOL0     O65712   7.216   2.237   2.911 -0.5071 -0.3318  0.4887
  477MOL0     C65713   7.113   2.161   2.874  0.0888  0.4043  0.2846
  477MOL0     C65714   6.989   2.203   2.844 -0.0833 -0.5036 -0.8727
  477MOL0     C65715   6.887   2.128   2.791 -0.1905  0.4649 -0.8604
  477MOL0     C65716   6.769   2.202   2.730  0.6177  0.2503 -0.3415
  477MOL0     C65717   6.904   1.987   2.788  0.2658 -1.0959 -0.8380
  477MOL0     C65718   6.802   1.896   2.737  0.4157  1.0443  0.9384
  477MOL0     O65719   6.790   1.786   2.815  1.2249  0.8006 -0.0529
  477MOL0     C65720   6.745   1.665   2.766  0.3136 -0.0161 -0.6984
  477MOL0     C65721   6.611   1.650   2.723 -0.4925 -0.0819  0.0517
  477MOL0     C65722   6.563   1.529   2.685  0.6242 -0.6612  0.2273
  477MOL0     C65723   6.643   1.412   2.678 -0.4787 -0.4647 -0.2806
  477MOL0     O65724   6.592   1.288   2.653 -0.1590  0.0460  1.1437
  477MOL0     C65725   6.457   1.257   2.710 -0.2046  1.3655 -0.1005
  477MOL0     C65726   6.445   1.114   2.699 -0.6500  0.2814 -0.6026
  477MOL0     C65727   6.399   1.064   2.558 -0.3282 -0.0749 -0.1956
  477MOL0     C65728   6.342   0.923   2.548 -0.3277  0.4873 -0.0878
  477MOL0     C65729   6.253   0.881   2.434 -0.1847 -0.0309  0.6682
  477MOL0     C65730   6.324   0.894   2.292  0.0656 -0.9403 -0.2450
  477MOL0     C65731   6.232   0.845   2.190  0.9930 -1.0405  0.1427
  477MOL0     C65732   6.296   0.844   2.050 -0.1339 -1.1929  0.6773
  477MOL0    Cl65733   6.301   1.012   1.979 -0.0218 -0.2081 -0.1001
  477MOL0     C65734   6.778   1.433   2.721  0.2021  0.0096  1.1076
  477MOL0     C65735   6.832   1.553   2.764 -0.4337  0.4816 -0.8380
  477MOL0     O65736   6.730   1.929   2.641 -0.7417  0.3371  0.0018
  477MOL0     C65737   7.024   1.938   2.847 -0.0283  0.0093  0.0456
  477MOL0     C65738   7.133   2.022   2.876  0.6233 -0.3440 -0.7305
  477MOL0     N65739   7.538   2.827   2.765 -1.0555 -0.4171  0.5289
  477MOL0     N65740   7.566   2.951   2.767  0.4491  0.7132 -0.8609
  477MOL0     C65741   7.572   3.166   3.860  0.3719 -0.2045  0.1841
  477MOL0     C65742   7.478   3.167   3.967 -0.2016 -0.4683 -0.5304
  477MOL0     C65743   7.224   3.182   4.328  0.5703  0.1091  0.2039
  477MOL0     C65744   7.105   3.115   4.378 -0.8051  0.7963 -0.0249
  477MOL0     C65745   7.029   3.162   4.483  0.3150  0.4558 -0.5973
  477MOL0     C65746   7.060   3.279   4.550 -1.0121  0.1116 -0.7608
  477MOL0     O65747   6.981   3.326   4.645  0.5857  0.5282  0.2855
  477MOL0     C65748   6.978   3.229   4.759  0.4167 -0.7226 -1.1163
  477MOL0     C65749   6.995   3.321   4.888 -0.1824  0.0672  0.0566
  477MOL0     C65750   7.126   3.397   4.904 -0.1696  1.2607 -0.6061
  477MOL0     C65751   7.138   3.479   5.034 -0.1723 -0.3571 -0.1532
  477MOL0     C65752   7.263   3.557   5.013 -0.2159  0.5691 -0.7565
  477MOL0     C65753   7.351   3.633   4.991 -0.2292  0.3473  0.0819
  477MOL0     C65754   7.183   3.345   4.508  0.3036  0.5787 -0.6922
  477MOL0     C65755   7.261   3.297   4.403 -0.3688 -0.3656 -0.1344
  477MOL0     C65756   7.374   3.393   4.363  0.8331 -0.0245  0.8040
  477MOL0     H65757   7.684   3.050   4.206  4.5248  1.5476 -1.1269
  477MOL0     H65758   7.844   3.056   4.026  0.7921  1.8529 -0.2401
  477MOL0     H65759   7.834   3.311   3.725  1.6406 -0.7256  0.9481
  477MOL0     H65760   7.689   3.239   3.639 -0.1769 -2.3053 -0.2945
  477MOL0     H65761   7.974   3.209   3.601 -0.4182  1.2020  1.2821
  477MOL0     H65762   7.872   3.063   3.565  1.3540 -0.5361  2.5925
  477MOL0     H65763   7.720   3.208   3.423  0.5087  1.9117 -0.7980
  477MOL0     H65764   7.816   3.343   3.448 -3.3834  0.4169 -1.0351
  477MOL0     H65765   8.016   3.180   3.357 -0.2193 -0.0026 -0.5552
  477MOL0     H65766   7.882   3.069   3.312 -1.8278  0.2090 -1.2553
  477MOL0     H65767   7.970   3.216   3.120 -0.5985  2.8992 -2.9335
  477MOL0     H65768   7.903   3.352   3.215 -0.3689 -0.4318  1.1365
  477MOL0     H65769   7.673   3.269   3.190  2.0329 -1.6183  3.0841
  477MOL0     H65770   7.754   3.320   3.043 -1.7634  3.8995  1.8000
  477MOL0     H65771   7.712   3.036   3.132 -0.8196  1.7592  1.8654
  477MOL0     H65772   7.843   3.078   3.021 -0.8499 -1.5878  0.0303
  477MOL0     H65773   7.560   3.179   2.963 -1.7849 -3.1186 -0.1837
  477MOL0     H65774   7.699   3.179   2.858  0.4548 -0.1321  0.5394
  477MOL0     H65775   7.599   2.870   3.077  2.2186  1.4815 -0.5243
  477MOL0     H65776   7.503   2.617   3.036 -0.9498 -1.4060  0.5301
  477MOL0     H65777   7.563   2.561   2.879 -1.0308  0.5799 -2.5841
  477MOL0     H65778   7.281   2.644   2.939 -0.0138 -2.3829 -0.5001
  477MOL0     H65779   7.355   2.596   2.775 -1.0764  2.0869 -0.8744
  477MOL0     H65780   7.416   2.372   2.912  1.2194 -0.8040  1.0244
  477MOL0     H65781   7.328   2.430   3.045  0.8679 -1.1785 -0.5206
  477MOL0     H65782   7.118   2.425   2.968  2.0106  4.3762 -0.7202
  477MOL0     H65783   7.160   2.400   2.801  2.3397 -0.3191 -0.7680
  477MOL0     H65784   6.955   2.305   2.861 -2.2493 -0.9907 -1.9560
  477MOL0     H65785   6.771   2.197   2.620  1.2012  1.5905 -0.4140
  477MOL0     H65786   6.766   2.307   2.763 -2.1472  0.3178 -0.6199
  477MOL0     H65787   6.676   2.159   2.766  0.2260  1.6660  0.4412
  477MOL0     H65788   6.539   1.730   2.737  2.2500  2.5155  0.2967
  477MOL0     H65789   6.457   1.521   2.663  1.1456 -2.7814 -1.9532
  477MOL0     H65790   6.469   1.282   2.816  2.7588  0.6784 -0.1805
  477MOL0     H65791   6.371   1.312   2.670 -0.4476  0.7271 -0.4713
  477MOL0     H65792   6.527   1.051   2.733 -0.4447  2.0543  2.5413
  477MOL0     H65793   6.363   1.079   2.763 -0.7309 -2.3764 -2.0186
  477MOL0     H65794   6.476   1.059   2.480 -1.2199 -1.5401 -1.0356
  477MOL0     H65795   6.325   1.129   2.511 -0.6716 -1.6667 -1.9763
  477MOL0     H65796   6.280   0.906   2.637  1.5300 -0.4889  1.0646
  477MOL0     H65797   6.419   0.846   2.547 -2.5629 -1.9032 -0.1319
  477MOL0     H65798   6.214   0.781   2.457  0.7744  0.1218  3.2364
  477MOL0     H65799   6.167   0.948   2.428  0.5119  0.7327 -3.0004
  477MOL0     H65800   6.415   0.834   2.298  0.7218  0.2142  3.2499
  477MOL0     H65801   6.353   0.997   2.270 -0.9372 -1.1113 -2.7786
  477MOL0     H65802   6.139   0.901   2.190  1.1682 -0.3980  4.2775
  477MOL0     H65803   6.199   0.743   2.212 -2.2674  0.2127  1.7296
  477MOL0     H65804   6.230   0.792   1.980  1.6186  2.4046 -4.1729
  477MOL0     H65805   6.392   0.792   2.053  0.3903 -0.4640 -1.6785
  477MOL0     H65806   6.834   1.339   2.724  1.2702  0.6183  0.7995
  477MOL0     H65807   6.936   1.556   2.794 -0.6769 -1.5808  0.3820
  477MOL0     H65808   7.028   1.830   2.857  1.1312  0.0839  0.5971
  477MOL0     H65809   7.230   1.993   2.916 -0.2754  2.4228  4.2951
  477MOL0     H65810   7.533   3.207   3.768 -1.9615  2.4771  2.1694
  477MOL0     H65811   7.381   3.215   3.957 -0.1156  0.2937  1.8298
  477MOL0     H65812   7.074   3.026   4.324  0.6353  1.4465 -2.0529
  477MOL0     H65813   6.939   3.115   4.523 -0.7291  4.2792  2.1308
  477MOL0     H65814   6.879   3.183   4.759 -0.3305  0.6430  2.0223
  477MOL0     H65815   7.048   3.145   4.755 -1.9490 -3.2876  3.2116
  477MOL0     H65816   6.995   3.256   4.976  2.3378  1.1841  0.9607
  477MOL0     H65817   6.908   3.388   4.888 -0.0444  0.2701 -1.0589
  477MOL0     H65818   7.209   3.326   4.893  0.6724  2.2549 -0.7813
  477MOL0     H65819   7.135   3.469   4.822 -0.5193  1.4945 -0.4444
  477MOL0     H65820   7.146   3.410   5.118  0.5750  0.8275  0.7796
  477MOL0     H65821   7.056   3.548   5.054  0.6626  0.9067 -0.8756
  477MOL0     H65822   7.432   3.699   4.968  0.2545 -0.1646  0.2984
  477MOL0     H65823   7.196   3.439   4.560  0.9804 -0.4970  1.1692
  477MOL0     H65824   7.467   3.336   4.364  0.2211 -1.1001  2.9078
  477MOL0     H65825   7.351   3.433   4.264  2.2405 -1.3975 -0.1135
  477MOL0     H65826   7.386   3.473   4.436 -0.1791 -1.5952  2.7964
  478MOL0     O65827   5.260   1.839   5.271  0.2112 -0.5028  0.6960
  478MOL0     C65828   5.256   1.725   5.305  0.9374 -0.0269  0.9210
  478MOL0     O65829   5.189   1.678   5.423  0.4065 -0.9664 -0.0945
  478MOL0     C65830   5.122   1.771   5.499 -0.4767  0.7573 -0.7333
  478MOL0     C65831   5.206   1.859   5.570 -1.3080 -0.6776 -0.1441
  478MOL0     C65832   5.152   1.945   5.668 -0.6602  0.2720  0.2566
  478MOL0     C65833   5.015   1.952   5.679 -0.5052 -0.0513 -0.0072
  478MOL0     O65834   4.954   2.034   5.770  0.6052  0.4622  0.1488
  478MOL0     C65835   5.000   2.014   5.902 -0.0964  0.2711  1.1297
  478MOL0     C65836   4.890   2.028   5.998 -0.0648  0.1129  0.0563
  478MOL0     C65837   4.788   1.914   5.970  0.2471  0.0347  0.4928
  478MOL0     C65838   4.669   1.928   6.058 -0.0543 -0.3158  0.1124
  478MOL0     C65839   4.567   1.807   6.037  0.0023 -0.4429  0.9243
  478MOL0     C65840   4.631   1.672   6.024 -0.8022  0.1775 -0.2227
  478MOL0     C65841   4.535   1.550   6.033  0.3019 -0.0726  0.0416
  478MOL0     C65842   4.602   1.429   6.075  0.2329  0.9695 -0.0675
  478MOL0     N65843   4.512   1.318   6.084  0.8137 -0.9168 -0.0830
  478MOL0     C65844   4.489   1.228   5.992 -0.3005  0.1588 -0.1893
  478MOL0     C65845   4.421   1.137   6.059  0.3090 -0.4408 -0.5670
  478MOL0     C65846   4.363   0.999   6.015  0.0814  0.5077 -0.4776
  478MOL0     C65847   4.328   0.911   6.139 -0.6003  0.1108 -0.0612
  478MOL0     C65848   4.321   0.762   6.098 -1.0867  0.8708 -0.7413
  478MOL0     C65849   4.188   0.727   6.030  0.0748  0.0111  0.5835
  478MOL0     O65850   4.072   0.759   6.116 -0.9675  0.1027  0.9075
  478MOL0     C65851   4.025   0.665   6.198  0.4776 -0.5551 -0.2062
  478MOL0     C65852   4.002   0.694   6.332 -0.1027 -0.2706 -0.9020
  478MOL0     C65853   3.934   0.608   6.425 -0.1789 -0.3076  0.4057
  478MOL0     C65854   3.909   0.661   6.565  0.0049  0.5259  0.5913
  478MOL0     C65855   3.880   0.491   6.376  0.3999  0.1735 -0.1159
  478MOL0     C65856   3.773   0.414   6.447  0.1525  0.7519  0.2320
  478MOL0     O65857   3.731   0.444   6.571  0.7359 -0.3393  0.2532
  478MOL0     C65858   3.601   0.413   6.602  0.0817 -0.2402 -0.6237
  478MOL0     C65859   3.508   0.502   6.536 -0.0358 -0.4643 -0.1668
  478MOL0     C65860   3.372   0.480   6.555  0.5303 -0.0852  0.5418
  478MOL0     C65861   3.331   0.377   6.645 -0.5255  0.9107  0.6953
  478MOL0     O65862   3.201   0.348   6.676 -0.6524  0.0909 -0.4729
  478MOL0     C65863   3.152   0.390   6.806 -0.2894  0.8012  0.5368
  478MOL0     C65864   3.166   0.539   6.831  0.4635 -0.0207  0.2786
  478MOL0     C65865   3.056   0.620   6.776 -0.1240  0.3020 -0.2209
  478MOL0     C65866   3.073   0.775   6.778 -1.0251  0.1847 -0.5983
  478MOL0     C65867   2.951   0.847   6.734 -1.5202 -0.1568  0.0020
  478MOL0     C65868   2.986   0.997   6.717  0.7270  0.5843  0.2452
  478MOL0     C65869   2.861   1.081   6.680  0.3826  1.0704  0.0996
  478MOL0     C65870   2.757   1.127   6.778 -0.5639  0.1434 -0.0239
  478MOL0    Cl65871   2.626   0.999   6.802 -0.0621  0.4678 -0.0858
  478MOL0     C65872   3.427   0.281   6.691  0.0768 -0.5983  0.2507
  478MOL0     C65873   3.559   0.297   6.664 -0.0415  0.2912  0.5640
  478MOL0     O65874   3.735   0.311   6.388 -0.0053 -0.6041 -0.4233
  478MOL0     C65875   3.916   0.453   6.251  0.2215  0.0383  1.0736
  478MOL0     C65876   3.983   0.533   6.158 -0.4244  0.3544 -0.7394
  478MOL0     N65877   4.405   1.181   6.190 -0.2372 -0.3137  0.3342
  478MOL0     N65878   4.461   1.295   6.203  0.2195  0.2975  0.1710
  478MOL0     C65879   4.934   1.876   5.592 -0.1440  0.2239  0.1875
  478MOL0     C65880   4.982   1.790   5.495  0.7373  0.3686  0.2087
  478MOL0     C65881   5.327   1.610   5.225 -1.0506 -0.4119 -0.6227
  478MOL0     C65882   5.349   1.487   5.285  0.4578 -0.1338 -1.0700
  478MOL0     C65883   5.421   1.387   5.211  0.1644  0.2230 -0.4806
  478MOL0     C65884   5.469   1.416   5.078 -0.3580  0.1117 -0.4552
  478MOL0     O65885   5.532   1.312   5.036 -0.4976 -0.3855  1.2522
  478MOL0     C65886   5.607   1.326   4.913 -0.4691  0.3442  0.2169
  478MOL0     C65887   5.641   1.182   4.863 -0.2736 -0.2659 -0.2316
  478MOL0     C65888   5.524   1.081   4.814  0.0541 -0.4474 -0.7182
  478MOL0     C65889   5.432   1.146   4.716 -0.1188  0.5649 -0.7038
  478MOL0     C65890   5.341   1.053   4.649  0.0073  0.8409 -0.1235
  478MOL0     C65891   5.251   0.981   4.603  0.2473 -0.0486  0.1392
  478MOL0     C65892   5.451   1.544   5.030  0.2994 -0.9100 -0.9446
  478MOL0     C65893   5.376   1.640   5.088 -0.1411 -0.3875  0.1767
  478MOL0     C65894   5.346   1.761   5.021  0.0766  0.2452 -0.2691
  478MOL0     H65895   5.315   1.855   5.563 -1.1966 -1.1329  1.5095
  478MOL0     H65896   5.215   2.016   5.720 -0.8998  1.5098 -1.1093
  478MOL0     H65897   5.079   2.086   5.924  1.8342 -0.7250 -1.8971
  478MOL0     H65898   5.042   1.914   5.914 -0.5531  0.0690  1.0721
  478MOL0     H65899   4.938   2.021   6.097  1.5379 -2.0853 -0.7831
  478MOL0     H65900   4.848   2.127   5.982  1.0770  0.6655  0.3207
  478MOL0     H65901   4.749   1.928   5.869  1.5668  0.7243  0.0442
  478MOL0     H65902   4.837   1.820   5.997 -1.5586 -0.5495  1.8416
  478MOL0     H65903   4.705   1.926   6.161  1.0084  1.4963 -0.1837
  478MOL0     H65904   4.619   2.024   6.047 -0.4800 -0.6831 -1.4858
  478MOL0     H65905   4.502   1.829   5.951 -1.2858  1.6666  2.3444
  478MOL0     H65906   4.504   1.806   6.126 -2.1225 -0.6579 -0.4926
  478MOL0     H65907   4.679   1.661   5.926 -1.2268 -0.2909 -0.3828
  478MOL0     H65908   4.702   1.663   6.106 -0.4609 -1.5747 -0.6610
  478MOL0     H65909   4.476   1.540   5.941  0.5446  1.6975 -0.3513
  478MOL0     H65910   4.464   1.573   6.113  0.5362  0.4162  0.1119
  478MOL0     H65911   4.688   1.400   6.014  2.5260 -0.1025  3.4331
  478MOL0     H65912   4.659   1.454   6.164  1.7331 -1.0770 -0.3851
  478MOL0     H65913   4.524   1.221   5.890  0.5162  1.3974 -0.0172
  478MOL0     H65914   4.442   0.948   5.960  0.8726 -0.2854  1.3491
  478MOL0     H65915   4.277   1.014   5.948 -0.5658  0.2561  0.2914
  478MOL0     H65916   4.391   0.922   6.227  0.2508  0.8659 -0.7410
  478MOL0     H65917   4.228   0.940   6.175 -1.6271 -1.9831 -1.0102
  478MOL0     H65918   4.412   0.740   6.041  0.8737  3.7855  1.0122
  478MOL0     H65919   4.350   0.699   6.183  0.8963 -2.2152 -3.4682
  478MOL0     H65920   4.192   0.796   5.945 -0.8121  0.4753  0.9126
  478MOL0     H65921   4.183   0.627   5.986  0.8032  0.7306 -1.2273
  478MOL0     H65922   4.042   0.785   6.376 -0.4798 -0.3981 -0.2835
  478MOL0     H65923   3.938   0.586   6.639 -2.0379  2.8549  4.0711
  478MOL0     H65924   3.806   0.693   6.584  0.0293  0.9989 -0.0333
  478MOL0     H65925   3.964   0.755   6.573  1.4628  0.1654 -3.0624
  478MOL0     H65926   3.540   0.594   6.487 -0.3604 -0.7156 -0.8662
  478MOL0     H65927   3.295   0.545   6.513 -0.0374 -1.0614  0.0358
  478MOL0     H65928   3.048   0.359   6.805  0.2499 -1.1539 -0.3646
  478MOL0     H65929   3.215   0.334   6.876  1.8541 -0.8026 -2.4237
  478MOL0     H65930   3.161   0.547   6.940 -0.3459 -0.2281  0.2643
  478MOL0     H65931   3.270   0.569   6.812  0.3334  0.4699  0.3296
  478MOL0     H65932   2.959   0.598   6.821 -0.5858 -1.3233 -1.8832
  478MOL0     H65933   3.056   0.595   6.669 -1.6139  0.5168 -0.2892
  478MOL0     H65934   3.154   0.801   6.709 -2.3209  0.4791 -2.0812
  478MOL0     H65935   3.108   0.814   6.873 -0.1954  2.3323 -1.7179
  478MOL0     H65936   2.923   0.795   6.642  1.0837 -2.0479  0.1685
  478MOL0     H65937   2.877   0.829   6.812 -1.6797 -0.5543 -0.2375
  478MOL0     H65938   3.059   0.988   6.636  0.0355 -1.5053 -0.2290
  478MOL0     H65939   3.026   1.032   6.813 -0.6093 -0.4599  1.2265
  478MOL0     H65940   2.795   1.027   6.612 -2.4436  1.2783  2.4811
  478MOL0     H65941   2.897   1.171   6.628  0.6879  0.1511 -1.3275
  478MOL0     H65942   2.719   1.221   6.737 -0.5850  0.5278  0.8457
  478MOL0     H65943   2.797   1.153   6.876 -1.3504  2.0154 -0.1670
  478MOL0     H65944   3.405   0.192   6.751 -0.0650 -1.7824 -1.4973
  478MOL0     H65945   3.630   0.220   6.693  1.9302  0.4627 -3.1197
  478MOL0     H65946   3.883   0.354   6.221  0.6135  0.0110  0.7149
  478MOL0     H65947   3.999   0.493   6.059 -1.4261 -0.3141 -0.6469
  478MOL0     H65948   4.827   1.894   5.590 -0.2080 -0.1818 -0.8504
  478MOL0     H65949   4.925   1.730   5.425  1.5450  0.7931 -0.8310
  478MOL0     H65950   5.310   1.448   5.379  1.5624 -0.2187 -0.6416
  478MOL0     H65951   5.444   1.289   5.252  1.2868  1.3690  1.8048
  478MOL0     H65952   5.539   1.379   4.846  0.2407  2.9895  1.4515
  478MOL0     H65953   5.695   1.390   4.930 -0.1206 -0.8249  3.5983
  478MOL0     H65954   5.690   1.139   4.951  0.5840  1.3627  0.1156
  478MOL0     H65955   5.718   1.170   4.787  0.3390 -3.4989  0.7261
  478MOL0     H65956   5.569   0.988   4.778 -0.3962 -0.7057 -0.6155
  478MOL0     H65957   5.461   1.043   4.894  0.9664  1.9467  1.2822
  478MOL0     H65958   5.495   1.189   4.637  0.1661 -0.1774 -0.8903
  478MOL0     H65959   5.378   1.232   4.756 -1.1409  0.4044 -1.6920
  478MOL0     H65960   5.175   0.922   4.557  0.4039 -2.5212  2.7929
  478MOL0     H65961   5.501   1.565   4.936 -0.2192  0.9333 -0.8442
  478MOL0     H65962   5.241   1.793   5.022  0.6341  2.2132  0.6229
  478MOL0     H65963   5.392   1.850   5.065 -0.5719  0.0530  0.8492
  478MOL0     H65964   5.391   1.752   4.922  2.0556 -0.5192  0.6539
  479MOL0     O65965   5.767   4.665   8.643 -0.2565 -0.9661  0.4794
  479MOL0     C65966   5.776   4.773   8.585  0.0885 -0.1651  0.6219
  479MOL0     O65967   5.809   4.890   8.641  0.0564  0.0064  0.2545
  479MOL0     C65968   5.834   4.899   8.776 -0.3399  0.3933  0.4838
  479MOL0     C65969   5.752   4.974   8.860 -0.5689 -0.9345 -0.2401
  479MOL0     C65970   5.791   4.997   8.995 -0.3181  0.0479  0.5152
  479MOL0     C65971   5.913   4.951   9.049 -0.4302  0.1457 -0.3377
  479MOL0     O65972   5.957   4.998   9.171  0.2599 -0.1257  1.4061
  479MOL0     C65973   6.097   5.022   9.170 -0.6647 -0.7562 -0.0802
  479MOL0     C65974   6.119   5.122   9.282  0.7432  0.0472 -0.3339
  479MOL0     C65975   6.260   5.147   9.299  0.7469  1.0349 -0.6534
  479MOL0     C65976   6.286   5.220   9.419 -0.2855  0.2204 -0.5604
  479MOL0     C65977   6.433   5.221   9.454  0.1399  0.5465 -0.2053
  479MOL0     C65978   6.457   5.285   9.590  0.2332 -0.1609 -0.0006
  479MOL0     C65979   6.601   5.291   9.654 -0.4874 -0.5724 -0.1520
  479MOL0     C65980   6.672   5.159   9.680 -0.1092 -0.1375 -0.7064
  479MOL0     N65981   6.610   5.092   9.797  0.0482  0.1597  0.5936
  479MOL0     C65982   6.511   5.006   9.790  0.5874 -0.9779  0.7168
  479MOL0     C65983   6.503   4.948   9.911 -0.5958  0.0752 -0.3612
  479MOL0     C65984   6.414   4.839   9.960  0.2691 -0.0965  0.2750
  479MOL0     C65985   6.478   4.776  10.085 -0.2361  0.6416 -0.0047
  479MOL0     C65986   6.419   4.636  10.110 -0.0462 -0.1071  1.3856
  479MOL0     C65987   6.271   4.633  10.105  0.1399 -0.3956  0.5913
  479MOL0     O65988   6.216   4.500  10.115  1.3557  0.4158  0.9488
  479MOL0     C65989   6.080   4.489  10.154 -0.3488 -0.2924  0.3735
  479MOL0     C65990   6.034   4.379  10.230 -0.7001 -0.0372  0.1346
  479MOL0     C65991   5.902   4.355  10.262  0.3316 -0.2649 -1.0004
  479MOL0     C65992   5.865   4.240  10.358  0.3256 -0.3523 -0.1916
  479MOL0     C65993   5.807   4.454  10.224  0.0549 -0.3897 -1.5859
  479MOL0     C65994   5.662   4.455  10.256 -0.0626  0.3757  0.1227
  479MOL0     O65995   5.579   4.480  10.149  0.1170 -0.3802  0.2622
  479MOL0     C65996   5.442   4.503  10.170 -0.0140  0.9970 -0.4242
  479MOL0     C65997   5.403   4.631  10.220 -0.0802 -0.9150  0.6173
  479MOL0     C65998   5.268   4.665  10.227 -0.2978 -0.1830 -0.6760
  479MOL0     C65999   5.174   4.566  10.193 -0.0338  0.3642 -0.0544
  479MOL0     O66000   5.042   4.594  10.198  0.2254 -0.4042 -1.3806
  479MOL0     C66001   4.987   4.675  10.310  0.0242  1.0937  0.7944
  479MOL0     C66002   4.852   4.607  10.372  1.0045 -0.2932  0.5116
  479MOL0     C66003   4.888   4.503  10.478 -0.4752  0.0825  0.2155
  479MOL0     C66004   4.768   4.476  10.559  1.2151  0.8691  0.5371
  479MOL0     C66005   4.790   4.389  10.684  0.3746 -0.4610  0.7842
  479MOL0     C66006   4.658   4.340  10.745 -0.5679  0.1856 -0.2103
  479MOL0     C66007   4.582   4.250  10.653  0.0930 -0.6867 -0.0471
  479MOL0     C66008   4.455   4.199  10.720 -0.5654  0.6502  0.5491
  479MOL0    Cl66009   4.312   4.152  10.619 -0.3385  0.5914  0.0399
  479MOL0     C66010   5.205   4.440  10.132  0.5606  0.0740 -0.1354
  479MOL0     C66011   5.345   4.412  10.126 -0.2445 -0.5570 -0.1526
  479MOL0     O66012   5.613   4.444  10.372 -0.3421  0.2949  0.3428
  479MOL0     C66013   5.851   4.565  10.150  1.2219  0.9473 -0.1295
  479MOL0     C66014   5.983   4.580  10.117  0.4402 -0.8925  0.0146
  479MOL0     N66015   6.591   5.017   9.992  0.3661 -0.5141  0.1542
  479MOL0     N66016   6.662   5.100   9.921 -0.2011 -0.3736  0.3497
  479MOL0     C66017   5.998   4.871   8.965  0.3177  0.2950 -0.6693
  479MOL0     C66018   5.953   4.851   8.832 -0.5523 -0.4331 -0.1241
  479MOL0     C66019   5.742   4.782   8.441  0.2332  0.7636 -0.8340
  479MOL0     C66020   5.807   4.885   8.367 -0.1292  0.5714 -0.4964
  479MOL0     C66021   5.801   4.889   8.230 -0.5636 -0.2733  0.3069
  479MOL0     C66022   5.725   4.790   8.162  0.0877 -0.1222 -0.3454
  479MOL0     O66023   5.719   4.799   8.021  0.1510  1.0668  0.4294
  479MOL0     C66024   5.589   4.766   7.951  0.1565 -1.3324 -0.3427
  479MOL0     C66025   5.481   4.881   7.973 -0.5705  0.1382  0.0899
  479MOL0     C66026   5.517   4.999   7.878 -0.2838  0.0881  0.0288
  479MOL0     C66027   5.418   5.112   7.891 -0.7836  0.1210 -0.1893
  479MOL0     C66028   5.404   5.181   7.770  0.3519  0.3107  0.2446
  479MOL0     C66029   5.388   5.238   7.664 -0.4888 -0.2606 -0.2236
  479MOL0     C66030   5.650   4.692   8.235  0.5060 -0.1779 -0.2465
  479MOL0     C66031   5.661   4.689   8.372 -0.1366  0.4872 -0.7852
  479MOL0     C66032   5.591   4.569   8.435  0.4995 -0.2124 -0.9291
  479MOL0     H66033   5.662   5.025   8.828  0.6213  1.4929  0.0433
  479MOL0     H66034   5.728   5.052   9.064  2.3454  1.4864  1.9485
  479MOL0     H66035   6.147   5.077   9.089 -0.6212  1.7528  1.5328
  479MOL0     H66036   6.146   4.927   9.192 -3.7987 -1.9679  2.2558
  479MOL0     H66037   6.063   5.216   9.270  3.4778  1.4301 -4.4917
  479MOL0     H66038   6.076   5.076   9.371 -1.9465  1.1200 -0.9796
  479MOL0     H66039   6.311   5.052   9.317 -1.7942  0.0275  2.0278
  479MOL0     H66040   6.282   5.211   9.213 -1.8928  2.0848 -0.6385
  479MOL0     H66041   6.240   5.318   9.433  0.6719  0.7038 -0.7309
  479MOL0     H66042   6.248   5.152   9.496 -0.8349 -1.6130 -2.3580
  479MOL0     H66043   6.484   5.262   9.367  0.7576  0.4040  0.0782
  479MOL0     H66044   6.469   5.118   9.461 -1.1473 -0.0025 -1.2378
  479MOL0     H66045   6.431   5.390   9.574 -1.1214 -0.4554  0.1349
  479MOL0     H66046   6.393   5.229   9.658 -0.4522 -1.0287 -1.3010
  479MOL0     H66047   6.585   5.335   9.753  1.0844  1.5422 -0.7657
  479MOL0     H66048   6.669   5.354   9.597  0.9957 -0.1522  1.9660
  479MOL0     H66049   6.679   5.105   9.585 -1.1997  2.7415 -2.5853
  479MOL0     H66050   6.776   5.178   9.710 -0.6229  3.4317 -0.7164
  479MOL0     H66051   6.445   4.995   9.704 -1.5255  0.6614  2.0432
  479MOL0     H66052   6.416   4.765   9.879  1.9617 -3.8514  3.4232
  479MOL0     H66053   6.313   4.881   9.970  0.5941  1.0579 -1.0000
  479MOL0     H66054   6.585   4.758  10.069 -0.1778 -0.4434  1.4850
  479MOL0     H66055   6.463   4.827  10.180  0.3828 -2.3547  1.8109
  479MOL0     H66056   6.451   4.559  10.038 -2.0504  0.0557  0.2474
  479MOL0     H66057   6.456   4.612  10.210  0.3269  0.6928  1.4501
  479MOL0     H66058   6.233   4.706  10.176  0.6253  1.0738 -0.5856
  479MOL0     H66059   6.229   4.675  10.013  0.2129 -1.4185  0.0763
  479MOL0     H66060   6.112   4.312  10.267 -2.0908 -2.5052 -1.1446
  479MOL0     H66061   5.950   4.233  10.426 -0.6394  1.4151  1.2788
  479MOL0     H66062   5.846   4.151  10.298 -1.0560 -0.7736  0.8352
  479MOL0     H66063   5.773   4.265  10.411 -0.1748 -0.8285 -0.8096
  479MOL0     H66064   5.469   4.709  10.255 -0.7352  1.4843 -2.9638
  479MOL0     H66065   5.230   4.758  10.269 -0.5105 -1.3010  1.7286
  479MOL0     H66066   5.059   4.687  10.393  1.3720 -3.3019  0.5092
  479MOL0     H66067   4.958   4.773  10.272 -0.3887  0.4667 -0.5311
  479MOL0     H66068   4.785   4.684  10.411  1.7637  1.1882 -0.9611
  479MOL0     H66069   4.781   4.571  10.297  1.9684  1.8929 -1.6342
  479MOL0     H66070   4.973   4.532  10.540  0.1104 -2.4934  0.7323
  479MOL0     H66071   4.928   4.415  10.425  1.4851  2.3959 -2.4591
  479MOL0     H66072   4.698   4.416  10.500  2.3616 -0.2229  0.2148
  479MOL0     H66073   4.718   4.567  10.592  0.9737 -0.1091  3.1388
  479MOL0     H66074   4.851   4.302  10.657 -1.0086 -1.2189  0.0096
  479MOL0     H66075   4.842   4.453  10.756  0.9708 -0.2599  0.1889
  479MOL0     H66076   4.586   4.421  10.764 -1.7062 -1.2735  2.3480
  479MOL0     H66077   4.690   4.284  10.833 -3.8286 -2.2347 -0.3573
  479MOL0     H66078   4.641   4.163  10.621  1.9017  1.4016 -2.8419
  479MOL0     H66079   4.541   4.296  10.563 -1.3322  1.2103  1.4844
  479MOL0     H66080   4.417   4.282  10.780 -0.6921  1.9986 -1.3207
  479MOL0     H66081   4.484   4.111  10.779 -0.7308 -0.5799 -1.1538
  479MOL0     H66082   5.120   4.379  10.103 -0.8854  0.5034  2.8448
  479MOL0     H66083   5.362   4.314  10.084  0.3401 -0.6589  0.2979
  479MOL0     H66084   5.787   4.651  10.131  1.6646  0.9135 -1.9476
  479MOL0     H66085   5.985   4.672  10.059 -1.5106 -1.3084 -0.7837
  479MOL0     H66086   6.099   4.835   8.982  0.9669  2.3788  0.2675
  479MOL0     H66087   6.019   4.813   8.754 -0.3414  0.3180 -0.3150
  479MOL0     H66088   5.886   4.943   8.413  1.7412 -1.8204 -0.4640
  479MOL0     H66089   5.866   4.954   8.172  0.2091 -0.8888  0.4734
  479MOL0     H66090   5.625   4.754   7.849  1.7695  0.3563 -0.0254
  479MOL0     H66091   5.555   4.669   7.990  0.7348 -0.7127  1.8446
  479MOL0     H66092   5.491   4.922   8.074  2.3521  1.3800 -0.5996
  479MOL0     H66093   5.381   4.837   7.965 -0.2876 -0.6161  0.6165
  479MOL0     H66094   5.611   5.037   7.918  1.2066 -1.6236 -1.6279
  479MOL0     H66095   5.527   4.963   7.775  1.6852 -0.3199  0.3273
  479MOL0     H66096   5.471   5.182   7.955  0.4909  0.2621 -1.3562
  479MOL0     H66097   5.318   5.096   7.932 -2.1133  1.9521 -2.4753
  479MOL0     H66098   5.384   5.280   7.566 -3.4444 -1.1113 -0.5396
  479MOL0     H66099   5.592   4.617   8.182 -1.7637  1.4203 -0.1908
  479MOL0     H66100   5.515   4.523   8.372 -0.6012 -2.0332  1.5787
  479MOL0     H66101   5.681   4.508   8.451  1.3471  0.8918 -1.3639
  479MOL0     H66102   5.540   4.606   8.524 -2.8457  2.5355 -3.6903
  480MOL0     O66103   4.775   8.268   1.717  0.1478  0.1677  0.1569
  480MOL0     C66104   4.766   8.145   1.706 -0.0362 -0.0620  0.3519
  480MOL0     O66105   4.652   8.072   1.689 -0.1322  0.0050  0.2970
  480MOL0     C66106   4.531   8.134   1.674 -0.6337 -0.1678  0.1765
  480MOL0     C66107   4.468   8.133   1.553  0.3858 -0.6782 -0.1880
  480MOL0     C66108   4.351   8.205   1.526 -0.3340  0.5090 -0.5567
  480MOL0     C66109   4.301   8.290   1.629  0.0380 -0.0476  1.0925
  480MOL0     O66110   4.197   8.373   1.608  0.5118  0.0150  0.0522
  480MOL0     C66111   4.067   8.333   1.547 -0.1317  0.0233 -0.3605
  480MOL0     C66112   3.960   8.447   1.555 -0.2313  0.2074 -0.4824
  480MOL0     C66113   3.828   8.385   1.517  0.2191 -0.0615  0.2271
  480MOL0     C66114   3.705   8.459   1.582 -0.6821  0.2034  0.2760
  480MOL0     C66115   3.581   8.383   1.536  0.3812  0.5528 -0.3967
  480MOL0     C66116   3.516   8.305   1.656  0.9806  0.2693 -0.1794
  480MOL0     C66117   3.597   8.186   1.683  0.2023 -0.0781  0.9535
  480MOL0     C66118   3.557   8.098   1.806  0.2548  0.0909 -0.2640
  480MOL0     N66119   3.512   8.177   1.927  0.0078  0.4739 -0.1137
  480MOL0     C66120   3.414   8.133   2.016  0.2750 -0.0869 -0.6683
  480MOL0     C66121   3.407   8.237   2.107 -0.2838  0.3534  0.3862
  480MOL0     C66122   3.299   8.245   2.211 -0.3437 -0.3852  0.4165
  480MOL0     C66123   3.357   8.184   2.347 -0.4914 -0.7469 -0.7654
  480MOL0     C66124   3.471   8.261   2.422  0.0041  0.7153 -0.3637
  480MOL0     C66125   3.553   8.162   2.519  0.2621  0.3558  0.4038
  480MOL0     O66126   3.691   8.202   2.520  0.0053 -0.3610 -0.4168
  480MOL0     C66127   3.789   8.137   2.456  0.0360  0.7583 -0.1091
  480MOL0     C66128   3.875   8.054   2.523  0.5160 -0.4118 -0.8266
  480MOL0     C66129   3.954   7.954   2.453 -0.1475  0.9780 -0.1402
  480MOL0     C66130   4.046   7.860   2.532  0.5369  0.1949  0.6733
  480MOL0     C66131   3.963   7.962   2.309 -0.4700  0.7622 -0.5891
  480MOL0     C66132   4.040   7.870   2.219 -0.4121  0.9620  0.7267
  480MOL0     O66133   4.008   7.884   2.085  0.6170  0.4499  0.0699
  480MOL0     C66134   4.097   7.829   1.997  0.0768  0.7152  0.3579
  480MOL0     C66135   4.150   7.702   1.998  0.5459  0.4258  0.1537
  480MOL0     C66136   4.234   7.658   1.896 -0.4357 -0.0562 -0.3257
  480MOL0     C66137   4.281   7.755   1.805  0.2240 -0.2588  0.2526
  480MOL0     O66138   4.370   7.705   1.713  0.1188 -0.1810 -0.9902
  480MOL0     C66139   4.392   7.776   1.595 -0.1718 -0.5812  0.1608
  480MOL0     C66140   4.469   7.681   1.498  0.2385  0.0615 -0.6449
  480MOL0     C66141   4.395   7.552   1.474  0.3457 -0.1297  0.8080
  480MOL0     C66142   4.472   7.461   1.378  0.0925 -0.5513  0.8788
  480MOL0     C66143   4.412   7.323   1.387  0.3526  0.2283  0.2643
  480MOL0     C66144   4.427   7.253   1.252 -0.8467  0.4565  0.7413
  480MOL0     C66145   4.420   7.099   1.259  0.4629  0.3822  0.2617
  480MOL0     C66146   4.424   7.037   1.116 -0.2435 -0.4694  0.1896
  480MOL0    Cl66147   4.413   6.856   1.141 -0.1882  0.4834 -0.1474
  480MOL0     C66148   4.239   7.890   1.814  0.6591  1.1748  0.3406
  480MOL0     C66149   4.141   7.923   1.899 -0.0094 -0.3433  0.0195
  480MOL0     O66150   4.101   7.770   2.261  0.3971  0.1383 -0.7081
  480MOL0     C66151   3.876   8.058   2.246 -0.8083  0.8133 -0.0515
  480MOL0     C66152   3.801   8.147   2.318  0.7923  0.1720  0.2385
  480MOL0     N66153   3.516   8.331   2.078 -0.5131  0.8331 -0.7267
  480MOL0     N66154   3.566   8.289   1.972  0.2905 -0.6431 -1.6238
  480MOL0     C66155   4.357   8.284   1.757  0.5814  0.1778  0.5155
  480MOL0     C66156   4.475   8.204   1.779 -0.2859 -0.5315  0.4800
  480MOL0     C66157   4.897   8.062   1.715 -1.1529 -0.4415  0.9242
  480MOL0     C66158   4.902   7.935   1.792 -0.3403  0.5139  0.2939
  480MOL0     C66159   5.014   7.850   1.782  0.2708 -0.5043  0.2640
  480MOL0     C66160   5.123   7.882   1.701 -0.6904 -0.1953 -0.1018
  480MOL0     O66161   5.237   7.804   1.688 -0.3736  0.4699 -0.1466
  480MOL0     C66162   5.235   7.674   1.743  0.9402 -1.4009 -1.1421
  480MOL0     C66163   5.344   7.593   1.692 -1.1591 -0.5700  0.0216
  480MOL0     C66164   5.335   7.453   1.736  0.2236 -0.4748 -0.0035
  480MOL0     C66165   5.383   7.374   1.617 -1.1112  0.6509  0.1714
  480MOL0     C66166   5.385   7.237   1.647 -0.4592 -1.0485  0.1253
  480MOL0     C66167   5.378   7.131   1.699 -0.2361  0.0433 -0.7849
  480MOL0     C66168   5.121   8.007   1.637  0.0817  0.5168  0.1574
  480MOL0     C66169   5.007   8.089   1.642 -0.0559  0.8141  0.0871
  480MOL0     C66170   5.020   8.215   1.563  0.2649 -0.0893 -0.0744
  480MOL0     H66171   4.516   8.096   1.462 -0.4360 -0.4638 -0.7134
  480MOL0     H66172   4.320   8.211   1.422 -1.0314  1.8584 -0.3003
  480MOL0     H66173   4.036   8.244   1.602  1.0875  0.5281  1.2140
  480MOL0     H66174   4.088   8.308   1.443  0.0057 -1.0852 -0.0727
  480MOL0     H66175   3.959   8.471   1.662  0.5003 -1.4357 -0.0723
  480MOL0     H66176   3.980   8.538   1.497 -0.1815  0.4963 -0.0169
  480MOL0     H66177   3.823   8.385   1.407 -2.2145  1.3961  0.2570
  480MOL0     H66178   3.817   8.280   1.544  2.4997 -0.2851  0.4312
  480MOL0     H66179   3.714   8.455   1.691  2.0968 -5.4370  0.1870
  480MOL0     H66180   3.719   8.560   1.542 -0.8873  0.8120  1.6631
  480MOL0     H66181   3.597   8.305   1.461 -0.4482 -1.0232  0.9969
  480MOL0     H66182   3.522   8.465   1.494  1.7224  1.3694 -0.7461
  480MOL0     H66183   3.510   8.360   1.750 -1.8264 -2.4174  1.3774
  480MOL0     H66184   3.412   8.274   1.642  0.7261  0.4065  1.3146
  480MOL0     H66185   3.698   8.224   1.700 -0.7154  3.7366 -1.1547
  480MOL0     H66186   3.588   8.125   1.593 -2.1584 -0.4196  1.3596
  480MOL0     H66187   3.473   8.033   1.778 -0.4958  0.8885  0.0864
  480MOL0     H66188   3.649   8.044   1.831  0.0773 -0.9740 -1.7183
  480MOL0     H66189   3.359   8.040   2.002 -2.1146  1.3354 -1.2291
  480MOL0     H66190   3.219   8.180   2.174  2.3928 -2.4993 -2.2440
  480MOL0     H66191   3.258   8.347   2.210 -1.5159 -0.8224 -1.1183
  480MOL0     H66192   3.278   8.177   2.422  0.2790  1.3388  0.2959
  480MOL0     H66193   3.406   8.089   2.323 -2.1859 -1.5279 -1.3248
  480MOL0     H66194   3.543   8.306   2.352 -1.9298  1.6400 -1.8647
  480MOL0     H66195   3.426   8.338   2.485 -0.9960 -0.3410  0.2563
  480MOL0     H66196   3.502   8.184   2.613 -4.0144 -0.6417 -1.4242
  480MOL0     H66197   3.541   8.058   2.488 -6.1072  1.1310 -1.2628
  480MOL0     H66198   3.879   8.043   2.631 -0.2716 -0.6445 -0.8138
  480MOL0     H66199   4.147   7.885   2.498  0.9251 -1.3577  0.6062
  480MOL0     H66200   4.023   7.756   2.505 -2.6753  1.3541 -1.7350
  480MOL0     H66201   4.026   7.884   2.637 -0.9892 -1.4939  0.8244
  480MOL0     H66202   4.126   7.617   2.060  3.3224 -1.0949 -0.6852
  480MOL0     H66203   4.257   7.552   1.889  1.9852  0.4021 -0.2554
  480MOL0     H66204   4.308   7.824   1.543 -0.1306  0.7509  1.2553
  480MOL0     H66205   4.467   7.849   1.625  1.2875 -2.0845  0.3152
  480MOL0     H66206   4.485   7.738   1.405 -0.8658  4.8255  1.7500
  480MOL0     H66207   4.568   7.653   1.536  0.0040 -2.4245 -1.6835
  480MOL0     H66208   4.294   7.585   1.446  0.8301  2.3571  1.7558
  480MOL0     H66209   4.382   7.509   1.574 -0.3253  3.0316  2.1846
  480MOL0     H66210   4.578   7.461   1.403  0.4246  0.5215 -0.4387
  480MOL0     H66211   4.464   7.503   1.277 -0.9882 -1.3649  0.5947
  480MOL0     H66212   4.466   7.262   1.460 -2.2654 -1.2807  1.1001
  480MOL0     H66213   4.310   7.321   1.427 -0.8737  0.7860 -2.5810
  480MOL0     H66214   4.512   7.287   1.192  0.6106 -0.8531  1.9509
  480MOL0     H66215   4.342   7.292   1.196 -0.8220 -0.9361 -0.3383
  480MOL0     H66216   4.334   7.072   1.320  1.7173 -0.6265  1.6700
  480MOL0     H66217   4.515   7.068   1.305  1.8932  1.9804 -1.4354
  480MOL0     H66218   4.515   7.069   1.064 -2.5502  3.5592 -1.9313
  480MOL0     H66219   4.340   7.086   1.066  0.1003  0.9810  0.9734
  480MOL0     H66220   4.282   7.964   1.748  1.6930  0.7358  0.5010
  480MOL0     H66221   4.094   8.021   1.895 -0.4507 -0.5721 -0.5859
  480MOL0     H66222   3.884   8.068   2.138  0.6460  1.1485  0.0766
  480MOL0     H66223   3.739   8.220   2.266 -0.1198 -1.2414 -0.7281
  480MOL0     H66224   4.323   8.353   1.833 -0.2008  0.9888 -0.5412
  480MOL0     H66225   4.537   8.220   1.866 -1.0176 -0.8803  1.0727
  480MOL0     H66226   4.820   7.904   1.856 -1.8969  1.7250 -1.0056
  480MOL0     H66227   5.004   7.757   1.836 -0.9581 -1.5066 -1.6032
  480MOL0     H66228   5.250   7.682   1.851 -1.7519  0.5371 -0.8131
  480MOL0     H66229   5.143   7.625   1.710 -0.1560  1.0759 -1.9468
  480MOL0     H66230   5.442   7.627   1.726 -0.7601 -2.5493  0.9627
  480MOL0     H66231   5.324   7.600   1.585  3.2350 -0.4056 -0.9632
  480MOL0     H66232   5.407   7.439   1.817  1.0715 -0.7125 -0.7732
  480MOL0     H66233   5.232   7.437   1.767  1.1910 -1.8612  2.8384
  480MOL0     H66234   5.487   7.396   1.590 -1.8834  0.8510 -3.0538
  480MOL0     H66235   5.339   7.398   1.520  0.1246  0.5445 -0.4374
  480MOL0     H66236   5.369   7.033   1.741  0.5676  0.1596 -0.3083
  480MOL0     H66237   5.212   8.039   1.587  0.0791  0.3636  0.0513
  480MOL0     H66238   5.040   8.301   1.627 -0.0132  0.6337 -0.9452
  480MOL0     H66239   5.107   8.206   1.497  0.4854  1.9190 -0.1280
  480MOL0     H66240   4.936   8.250   1.503 -1.0031 -0.1433  1.5838
  481MOL0     O66241   4.758   5.633   6.056  0.1649 -0.3536  0.3155
  481MOL0     C66242   4.760   5.599   6.178 -0.6635  0.5648  0.2255
  481MOL0     O66243   4.834   5.662   6.271  0.1492  0.4821 -0.3755
  481MOL0     C66244   4.868   5.789   6.251  1.1994 -0.1808 -0.3377
  481MOL0     C66245   4.938   5.836   6.145  0.2700 -0.1299  1.2237
  481MOL0     C66246   4.982   5.973   6.138 -0.3674  0.5610 -0.3285
  481MOL0     C66247   4.942   6.063   6.230 -0.1445  0.6964  0.7150
  481MOL0     O66248   5.003   6.188   6.223 -0.6476  0.5984  0.5885
  481MOL0     C66249   4.961   6.279   6.316  0.1556 -0.3351  0.4088
  481MOL0     C66250   5.035   6.416   6.298  1.0100 -0.2031  0.7333
  481MOL0     C66251   5.165   6.433   6.377 -0.9172 -1.2273 -0.9251
  481MOL0     C66252   5.215   6.576   6.337  1.4105  0.0699  0.2162
  481MOL0     C66253   5.360   6.592   6.397  0.9909  0.3032 -0.2834
  481MOL0     C66254   5.469   6.572   6.285  0.5699 -0.4683 -0.0049
  481MOL0     C66255   5.598   6.562   6.356 -1.1165  0.7131 -0.2138
  481MOL0     C66256   5.725   6.558   6.260  0.1957 -0.1217  0.7104
  481MOL0     N66257   5.763   6.419   6.211 -0.1274 -0.5323 -0.6265
  481MOL0     C66258   5.720   6.359   6.096 -0.4313 -0.4054  0.1312
  481MOL0     C66259   5.771   6.235   6.103  0.2677  0.2824 -0.7948
  481MOL0     C66260   5.736   6.110   6.025 -0.3392 -0.9653  0.1153
  481MOL0     C66261   5.707   5.996   6.114  0.5688 -0.1155  0.1474
  481MOL0     C66262   5.831   5.923   6.143  0.3316 -0.2755 -0.9830
  481MOL0     C66263   5.802   5.794   6.224 -0.0621 -0.6041  0.0205
  481MOL0     O66264   5.758   5.684   6.140  0.2024  0.2247  0.1741
  481MOL0     C66265   5.690   5.581   6.202  0.2592 -0.4321 -1.0822
  481MOL0     C66266   5.644   5.579   6.340  0.2320  0.9916 -0.0872
  481MOL0     C66267   5.598   5.460   6.405 -0.3059 -0.5107  0.2074
  481MOL0     C66268   5.549   5.474   6.550 -0.4445 -1.6060  0.7067
  481MOL0     C66269   5.575   5.342   6.323 -0.5758 -0.7174  1.3458
  481MOL0     C66270   5.507   5.218   6.372  0.3327  0.3202  0.7932
  481MOL0     O66271   5.554   5.100   6.319 -0.6059 -0.0289 -0.1530
  481MOL0     C66272   5.480   4.988   6.354  0.0800 -0.2828  0.5698
  481MOL0     C66273   5.538   4.876   6.402  0.1319  0.3631  0.3666
  481MOL0     C66274   5.462   4.759   6.433  0.1033  0.0706 -0.6567
  481MOL0     C66275   5.325   4.761   6.407  0.8358 -0.4069 -0.4031
  481MOL0     O66276   5.242   4.651   6.425 -0.6317 -0.5451  0.4867
  481MOL0     C66277   5.263   4.556   6.533 -0.3080  0.4184 -0.3876
  481MOL0     C66278   5.121   4.519   6.585 -0.7407 -0.1385 -0.4101
  481MOL0     C66279   5.046   4.640   6.640  0.6863 -0.2120  0.2021
  481MOL0     C66280   4.896   4.649   6.588 -0.1496  0.2479 -0.6261
  481MOL0     C66281   4.827   4.754   6.668 -0.1437  0.0895  0.3964
  481MOL0     C66282   4.673   4.744   6.644  0.1109  0.5494 -0.2232
  481MOL0     C66283   4.611   4.854   6.719  0.4004  0.2643  0.3057
  481MOL0     C66284   4.461   4.865   6.696 -0.2305  0.2604  0.8729
  481MOL0    Cl66285   4.357   4.718   6.731 -0.4711  0.1166 -0.3549
  481MOL0     C66286   5.270   4.865   6.340 -0.1613  0.5105  0.2454
  481MOL0     C66287   5.345   4.976   6.310  0.5546 -0.0793  0.4054
  481MOL0     O66288   5.421   5.236   6.456 -0.7391 -0.2861  0.4397
  481MOL0     C66289   5.626   5.341   6.195  0.3286 -0.1016  0.6160
  481MOL0     C66290   5.677   5.460   6.128 -1.2442 -0.8060 -0.1814
  481MOL0     N66291   5.845   6.218   6.216  0.0545 -0.4130 -0.2507
  481MOL0     N66292   5.825   6.327   6.292  0.4001  0.1176  0.0191
  481MOL0     C66293   4.861   6.019   6.337  0.3202  0.1811 -1.4055
  481MOL0     C66294   4.821   5.885   6.342  1.0237  0.3653 -0.4724
  481MOL0     C66295   4.686   5.474   6.236 -0.0059  0.1003  0.7201
  481MOL0     C66296   4.666   5.475   6.370  0.0871  0.5706  0.0488
  481MOL0     C66297   4.586   5.374   6.424 -0.0079 -0.2618  0.5069
  481MOL0     C66298   4.530   5.272   6.347 -0.4639  0.3483 -0.2864
  481MOL0     O66299   4.441   5.180   6.391 -0.6678  0.2414 -0.1388
  481MOL0     C66300   4.360   5.207   6.508  0.0026  0.7903  1.6967
  481MOL0     C66301   4.219   5.135   6.519 -0.5429  0.1786 -0.0635
  481MOL0     C66302   4.172   5.159   6.666 -0.0908  0.0630  0.2742
  481MOL0     C66303   4.034   5.102   6.707  0.2100  0.0736 -0.0169
  481MOL0     C66304   4.031   4.955   6.713 -0.0418 -0.7761 -0.1491
  481MOL0     C66305   4.039   4.837   6.720  0.7582  0.2274  0.3588
  481MOL0     C66306   4.566   5.262   6.217  1.0909 -0.2811  0.0458
  481MOL0     C66307   4.640   5.362   6.149  0.3572 -0.4737  0.2698
  481MOL0     C66308   4.663   5.338   6.007 -0.2203  0.3639 -0.3485
  481MOL0     H66309   4.960   5.781   6.054  1.2169  0.6007  0.9906
  481MOL0     H66310   5.050   6.020   6.068  1.3348 -1.2432  0.0430
  481MOL0     H66311   4.972   6.242   6.419  2.5903 -0.2240  0.2450
  481MOL0     H66312   4.853   6.293   6.321 -0.4111 -1.5410 -3.9492
  481MOL0     H66313   5.044   6.428   6.190 -2.1414  0.0138  0.4163
  481MOL0     H66314   4.959   6.489   6.328  0.5517  0.1377 -1.1172
  481MOL0     H66315   5.137   6.425   6.482 -1.6022  3.6626 -0.5367
  481MOL0     H66316   5.244   6.361   6.350  0.4861 -0.8658  1.9127
  481MOL0     H66317   5.218   6.583   6.228  0.5883 -1.5670  0.0403
  481MOL0     H66318   5.144   6.643   6.387 -0.5277 -1.5258 -0.2640
  481MOL0     H66319   5.374   6.522   6.479 -2.5550  1.6275  1.6646
  481MOL0     H66320   5.371   6.694   6.435  1.5864 -0.0363  0.4811
  481MOL0     H66321   5.444   6.487   6.221 -2.3529 -0.7389  1.2970
  481MOL0     H66322   5.465   6.656   6.214  1.4738  1.6536  2.3068
  481MOL0     H66323   5.603   6.469   6.413  0.8168  1.2199  0.5028
  481MOL0     H66324   5.605   6.643   6.430  0.7342  0.3851  0.0067
  481MOL0     H66325   5.719   6.633   6.180 -0.7889 -0.7264  0.1913
  481MOL0     H66326   5.809   6.585   6.325  2.7705 -1.4563 -1.8348
  481MOL0     H66327   5.632   6.382   6.036 -2.7431 -1.8377  2.7425
  481MOL0     H66328   5.815   6.071   5.961  0.8232  0.1028  0.8531
  481MOL0     H66329   5.660   6.122   5.947  0.3732 -3.2972 -1.0336
  481MOL0     H66330   5.659   6.032   6.206 -2.3514 -0.9075 -0.9387
  481MOL0     H66331   5.637   5.927   6.067 -1.8942  1.9283  0.5592
  481MOL0     H66332   5.899   5.914   6.057  1.9260 -0.4626  0.2540
  481MOL0     H66333   5.878   5.975   6.227  0.2986  1.0170 -1.7293
  481MOL0     H66334   5.891   5.768   6.281  0.5172  0.9783 -0.1230
  481MOL0     H66335   5.731   5.813   6.305 -1.7211 -2.4345 -0.9111
  481MOL0     H66336   5.642   5.670   6.399  2.5464 -0.9385  3.2885
  481MOL0     H66337   5.605   5.551   6.603 -1.9238 -1.2624  1.8236
  481MOL0     H66338   5.561   5.379   6.603 -0.5080 -1.3562  1.1701
  481MOL0     H66339   5.446   5.508   6.539  0.0535 -0.6882 -2.2199
  481MOL0     H66340   5.647   4.874   6.396  0.0797 -1.9702 -1.1742
  481MOL0     H66341   5.516   4.676   6.477  0.2149  0.5147  0.0473
  481MOL0     H66342   5.317   4.466   6.502  0.7098  0.2929  1.5884
  481MOL0     H66343   5.331   4.597   6.609  2.7161 -0.4077 -2.4994
  481MOL0     H66344   5.064   4.478   6.502 -0.6313  2.6132 -1.9752
  481MOL0     H66345   5.137   4.445   6.663 -1.4131 -0.0449 -0.1763
  481MOL0     H66346   5.095   4.734   6.611  2.5500 -1.2659 -0.2505
  481MOL0     H66347   5.057   4.630   6.748  0.9421  0.0324  0.1993
  481MOL0     H66348   4.847   4.552   6.584 -0.3624  0.2885  0.5234
  481MOL0     H66349   4.895   4.681   6.484 -0.7144 -3.2446 -1.8272
  481MOL0     H66350   4.844   4.749   6.776  3.7279  3.5256  0.1843
  481MOL0     H66351   4.856   4.852   6.629  2.4470 -0.8671 -0.3320
  481MOL0     H66352   4.637   4.648   6.683 -2.4708  1.4651 -0.1812
  481MOL0     H66353   4.653   4.758   6.537 -0.3498  1.7625  0.0105
  481MOL0     H66354   4.646   4.954   6.690  0.5172  0.2755  0.4848
  481MOL0     H66355   4.631   4.847   6.827  1.8435 -2.1344 -0.0543
  481MOL0     H66356   4.456   4.878   6.588  2.0382 -1.0119  0.5691
  481MOL0     H66357   4.423   4.956   6.744  1.5453  0.4414  2.0238
  481MOL0     H66358   5.168   4.851   6.306 -0.8856 -0.4076  2.5911
  481MOL0     H66359   5.300   5.055   6.250 -3.1184 -0.7163  2.0540
  481MOL0     H66360   5.596   5.255   6.136  0.1952 -1.0310  1.9934
  481MOL0     H66361   5.722   5.461   6.030 -0.9214  0.1515 -0.0307
  481MOL0     H66362   4.828   6.086   6.416  0.9001  1.6327 -2.3392
  481MOL0     H66363   4.750   5.852   6.417 -0.8019 -0.7572 -2.5828
  481MOL0     H66364   4.702   5.554   6.434 -1.5811  2.2670 -1.0009
  481MOL0     H66365   4.566   5.378   6.530 -0.5717 -0.5072  0.4131
  481MOL0     H66366   4.412   5.175   6.599 -1.0094  0.0332  2.0320
  481MOL0     H66367   4.345   5.315   6.516  2.6428  1.7738 -2.9011
  481MOL0     H66368   4.225   5.026   6.513 -1.1400 -0.3213  4.4424
  481MOL0     H66369   4.142   5.169   6.449 -0.1452 -1.1580 -1.1940
  481MOL0     H66370   4.247   5.101   6.720 -1.7829 -1.5343  1.0441
  481MOL0     H66371   4.174   5.267   6.686  0.1402 -0.1010  1.2070
  481MOL0     H66372   3.954   5.132   6.638  0.9930 -0.5579 -1.2447
  481MOL0     H66373   4.010   5.147   6.804 -1.8291 -2.4869  0.7736
  481MOL0     H66374   4.033   4.733   6.745 -2.3481  0.6773  2.0182
  481MOL0     H66375   4.525   5.177   6.162  0.2807  1.6536 -2.5468
  481MOL0     H66376   4.641   5.422   5.940 -0.3924  1.0943  0.6016
  481MOL0     H66377   4.764   5.300   5.988  0.7905  1.7595  1.8419
  481MOL0     H66378   4.601   5.256   5.968 -1.1262  0.7693  0.1998
  482MOL0     O66379   6.760   0.251  11.246 -0.2876  0.0470  0.1522
  482MOL0     C66380   6.696   0.199  11.160  0.2005 -0.0678 -0.4332
  482MOL0     O66381   6.611   0.086  11.174  0.5580 -0.3117 -0.2185
  482MOL0     C66382   6.579   0.045  11.304 -0.5520 -0.1522 -0.2019
  482MOL0     C66383   6.671   0.023  11.410  0.1902 -0.2320 -0.5985
  482MOL0     C66384   6.617  -0.039  11.524  0.7336  0.4380 -1.3137
  482MOL0     C66385   6.490  -0.090  11.537 -0.1059 -0.2666  0.4002
  482MOL0     O66386   6.455  -0.149  11.662  0.0178  0.6400 -0.0433
  482MOL0     C66387   6.316  -0.185  11.672  0.0994  0.4896  0.5515
  482MOL0     C66388   6.223  -0.069  11.721  1.0482  0.6618  0.4023
  482MOL0     C66389   6.150  -0.011  11.603  0.3655  0.1006 -0.5316
  482MOL0     C66390   6.041   0.094  11.640 -0.6849 -0.0803  0.9542
  482MOL0     C66391   5.964   0.144  11.513  0.6515  0.4647 -0.7814
  482MOL0     C66392   6.046   0.201  11.400 -0.4512  0.3866 -1.1479
  482MOL0     C66393   5.954   0.252  11.284  0.4300 -1.5181 -0.6411
  482MOL0     C66394   5.923   0.146  11.181  0.7533 -0.1486 -0.4771
  482MOL0     N66395   6.012   0.032  11.155 -0.0903 -0.9325 -0.0412
  482MOL0     C66396   6.061   0.010  11.030  1.2057  0.4962 -0.2632
  482MOL0     C66397   6.121  -0.110  11.038  0.2610 -0.4735  0.4569
  482MOL0     C66398   6.195  -0.182  10.923  0.3566 -0.4237 -0.2568
  482MOL0     C66399   6.310  -0.098  10.869 -0.0965  0.6006 -0.1993
  482MOL0     C66400   6.407  -0.165  10.758  0.2637  0.2955 -1.0206
  482MOL0     C66401   6.507  -0.063  10.701  1.0595  0.1152 -0.5900
  482MOL0     O66402   6.429   0.029  10.623 -0.2698 -0.0319  1.1307
  482MOL0     C66403   6.476   0.043  10.491  0.6995 -0.0112 -0.2636
  482MOL0     C66404   6.602   0.095  10.461  0.6081 -0.3509  0.0705
  482MOL0     C66405   6.637   0.132  10.330 -0.1238  0.3314 -0.1618
  482MOL0     C66406   6.770   0.188  10.292  0.7695 -0.0794  0.5631
  482MOL0     C66407   6.554   0.097  10.225  0.5489  0.0181  0.6528
  482MOL0     C66408   6.564   0.146  10.092 -1.0216  0.0552  0.2932
  482MOL0     O66409   6.536   0.281  10.083 -0.0035  0.7356 -0.4234
  482MOL0     C66410   6.520   0.327   9.958  0.1941  0.2674  0.4229
  482MOL0     C66411   6.625   0.362   9.877 -0.1383 -0.1357  0.0206
  482MOL0     C66412   6.608   0.422   9.750 -0.2492 -0.1544 -1.1598
  482MOL0     C66413   6.484   0.437   9.693 -0.1669 -0.0853 -0.0068
  482MOL0     O66414   6.472   0.482   9.569  0.4237 -0.6079  0.2977
  482MOL0     C66415   6.490   0.626   9.562 -0.5645  0.0121  0.1207
  482MOL0     C66416   6.418   0.682   9.431 -0.5730 -1.1240 -0.4354
  482MOL0     C66417   6.263   0.695   9.458 -0.0800  0.0089  0.4478
  482MOL0     C66418   6.219   0.820   9.538 -0.0439 -0.7275  0.2104
  482MOL0     C66419   6.096   0.804   9.624  0.7682 -0.5450 -1.2402
  482MOL0     C66420   5.971   0.770   9.549  1.4015  0.0250  0.2556
  482MOL0     C66421   5.852   0.800   9.641 -0.0260 -0.6930 -0.5460
  482MOL0     C66422   5.765   0.674   9.687  0.6053 -0.2135 -0.2983
  482MOL0    Cl66423   5.616   0.738   9.750  0.2772  0.3038 -0.2645
  482MOL0     C66424   6.374   0.391   9.767 -0.1944 -0.4757 -0.5076
  482MOL0     C66425   6.389   0.342   9.894 -0.7548 -0.0146  0.1333
  482MOL0     O66426   6.570   0.068   9.999  0.0193  0.4573  0.3724
  482MOL0     C66427   6.425   0.036  10.253  0.1556 -0.8523 -0.4447
  482MOL0     C66428   6.390   0.009  10.384 -0.0976  0.0510 -0.5562
  482MOL0     N66429   6.108  -0.161  11.166  0.5722 -0.4765  0.6155
  482MOL0     N66430   6.033  -0.080  11.231  0.3348 -0.1226 -0.9719
  482MOL0     C66431   6.408  -0.088  11.428  0.3043 -0.9789  1.2073
  482MOL0     C66432   6.453  -0.022  11.305  0.4940 -0.4733  0.3184
  482MOL0     C66433   6.683   0.271  11.033 -0.3756 -0.9179  0.9004
  482MOL0     C66434   6.569   0.228  10.954 -0.0453  1.0299 -0.1379
  482MOL0     C66435   6.554   0.282  10.823 -0.6560  0.6268  0.7373
  482MOL0     C66436   6.645   0.375  10.777  0.1250  0.6032  0.1332
  482MOL0     O66437   6.646   0.426  10.650  0.3183 -0.0624 -0.5699
  482MOL0     C66438   6.524   0.436  10.573 -0.7649 -0.1831  0.0913
  482MOL0     C66439   6.530   0.543  10.452  0.7108  0.5915 -0.2953
  482MOL0     C66440   6.407   0.528  10.353  0.6900 -0.4755 -0.0432
  482MOL0     C66441   6.290   0.562  10.437  0.1260  0.5141  0.6473
  482MOL0     C66442   6.170   0.576  10.354 -0.2601 -0.4904 -0.6245
  482MOL0     C66443   6.074   0.602  10.281  0.5500 -0.3249 -1.1659
  482MOL0     C66444   6.759   0.406  10.848  0.4007 -0.4369  0.2718
  482MOL0     C66445   6.778   0.363  10.984 -0.7883  0.0676  0.1168
  482MOL0     C66446   6.912   0.385  11.054 -0.3882  0.3988 -0.2152
  482MOL0     H66447   6.769   0.067  11.426  0.9024 -2.2079  0.8655
  482MOL0     H66448   6.672  -0.047  11.617  0.9438 -3.5341 -1.6154
  482MOL0     H66449   6.321  -0.251  11.759  1.7956  2.5685  2.1548
  482MOL0     H66450   6.270  -0.233  11.585 -0.5137 -2.2292  2.2716
  482MOL0     H66451   6.155  -0.123  11.788  0.1111  0.6206 -0.5513
  482MOL0     H66452   6.277   0.014  11.768  3.3306 -0.4131 -0.2026
  482MOL0     H66453   6.218   0.040  11.535  1.2695  0.8446  0.8983
  482MOL0     H66454   6.090  -0.088  11.552 -1.6615  1.7364 -0.7503
  482MOL0     H66455   5.973   0.058  11.717 -0.6126 -0.4067  0.8701
  482MOL0     H66456   6.098   0.175  11.687  3.8902  0.4824 -4.4034
  482MOL0     H66457   5.896   0.225  11.544 -0.4423 -0.0413 -1.7974
  482MOL0     H66458   5.907   0.061  11.470 -0.5923  0.4235  0.8394
  482MOL0     H66459   6.111   0.282  11.435  3.1862 -3.2143  1.4611
  482MOL0     H66460   6.118   0.123  11.372 -0.3104 -2.0880  4.6876
  482MOL0     H66461   6.001   0.335  11.230  1.3488  0.9804  3.5723
  482MOL0     H66462   5.863   0.301  11.320  1.1874  1.2707 -2.1914
  482MOL0     H66463   5.827   0.101  11.209  0.1472  0.6033 -1.3060
  482MOL0     H66464   5.909   0.212  11.095  1.7030  3.0108  1.6030
  482MOL0     H66465   6.049   0.072  10.942  3.6056  0.5263 -0.6287
  482MOL0     H66466   6.116  -0.202  10.849 -1.7754  2.5636  1.0368
  482MOL0     H66467   6.232  -0.274  10.969 -0.7524  0.2162  2.0423
  482MOL0     H66468   6.265  -0.009  10.825  1.6051  2.1115  0.9438
  482MOL0     H66469   6.369  -0.075  10.958 -3.2616 -1.5125  2.6794
  482MOL0     H66470   6.457  -0.248  10.807  0.6672  0.6827 -0.7679
  482MOL0     H66471   6.343  -0.193  10.674  0.8009  0.3589 -1.4586
  482MOL0     H66472   6.566  -0.025  10.785 -0.2032  0.2508  0.2708
  482MOL0     H66473   6.578  -0.117  10.639  0.4223 -2.0741  0.4782
  482MOL0     H66474   6.674   0.112  10.540  1.4063  0.0111 -0.7142
  482MOL0     H66475   6.811   0.140  10.203 -1.8836 -1.0674 -0.2510
  482MOL0     H66476   6.845   0.176  10.370  1.0651 -1.6032  0.0845
  482MOL0     H66477   6.753   0.290  10.257  1.6039 -0.4881 -1.1564
  482MOL0     H66478   6.718   0.350   9.932  0.9475  2.2750 -1.1292
  482MOL0     H66479   6.690   0.472   9.700  0.2033  0.7889  0.4420
  482MOL0     H66480   6.438   0.677   9.643 -0.3108 -0.6774  0.7268
  482MOL0     H66481   6.598   0.643   9.558 -0.2910 -1.7563 -1.4204
  482MOL0     H66482   6.451   0.785   9.412 -0.4095 -1.4262 -1.9744
  482MOL0     H66483   6.437   0.612   9.348  0.9381 -1.9256  0.5442
  482MOL0     H66484   6.242   0.602   9.511  1.3976  1.8399  4.7492
  482MOL0     H66485   6.219   0.695   9.358 -0.2527 -1.0391  0.5221
  482MOL0     H66486   6.195   0.895   9.461  0.7881 -0.7854 -0.1202
  482MOL0     H66487   6.302   0.866   9.592  1.0860  1.4688 -3.0906
  482MOL0     H66488   6.112   0.732   9.705 -0.3143  1.6600  1.0850
  482MOL0     H66489   6.096   0.897   9.681  2.4511 -1.3010  0.0961
  482MOL0     H66490   5.960   0.665   9.521 -0.0628  0.0776  0.5333
  482MOL0     H66491   5.971   0.821   9.452 -1.6028 -0.5669 -0.1426
  482MOL0     H66492   5.785   0.872   9.594 -0.4974 -0.9046 -0.2072
  482MOL0     H66493   5.874   0.865   9.726  0.1184 -0.2007 -0.9585
  482MOL0     H66494   5.811   0.630   9.776 -2.2703 -0.9621  0.9179
  482MOL0     H66495   5.755   0.593   9.614  0.4963 -0.0596 -0.4548
  482MOL0     H66496   6.274   0.372   9.729  0.3917 -0.6997 -2.0173
  482MOL0     H66497   6.301   0.294   9.935 -1.7442  1.7767  0.1898
  482MOL0     H66498   6.353   0.016  10.174 -1.3280 -0.7482  0.8265
  482MOL0     H66499   6.299  -0.043  10.412 -0.4829 -0.1464 -2.0986
  482MOL0     H66500   6.309  -0.133  11.425 -0.6225  1.0218 -0.8774
  482MOL0     H66501   6.382  -0.023  11.224  0.6502 -1.1584  0.1838
  482MOL0     H66502   6.499   0.153  10.991 -0.4946  1.1356 -0.7579
  482MOL0     H66503   6.478   0.240  10.759 -0.9154  1.3047  0.5847
  482MOL0     H66504   6.490   0.347  10.521  0.0810 -1.4585  1.6382
  482MOL0     H66505   6.434   0.446  10.635 -3.6099  0.6996 -3.7728
  482MOL0     H66506   6.614   0.499  10.396  0.0751 -0.9951 -0.0444
  482MOL0     H66507   6.548   0.646  10.484 -1.3655  1.1624 -0.8427
  482MOL0     H66508   6.425   0.609  10.282 -2.9613  1.6735  1.2022
  482MOL0     H66509   6.411   0.434  10.299  0.9481  1.1661 -3.0961
  482MOL0     H66510   6.303   0.661  10.482 -0.1979 -0.0841  2.1329
  482MOL0     H66511   6.280   0.486  10.515  0.4452  0.9825  1.1457
  482MOL0     H66512   5.988   0.615  10.219  0.1464 -2.2386 -1.0442
  482MOL0     H66513   6.832   0.460  10.788  1.9467 -0.3849  2.0990
  482MOL0     H66514   6.964   0.291  11.070 -2.7896 -0.7405  1.4673
  482MOL0     H66515   6.976   0.450  10.993 -0.1339  0.5757  0.2348
  482MOL0     H66516   6.906   0.435  11.151  1.7974  2.1330 -0.8727
  483MOL0     O66517   6.225   5.617   0.029 -0.2917  0.1584  0.1224
  483MOL0     C66518   6.135   5.582  -0.048  0.6409 -0.1863  0.4972
  483MOL0     O66519   6.125   5.464  -0.115  0.2235  0.5122  0.5016
  483MOL0     C66520   6.208   5.355  -0.109 -0.3578 -0.4473  0.1160
  483MOL0     C66521   6.171   5.255  -0.203 -0.4421 -0.0316  1.2814
  483MOL0     C66522   6.220   5.126  -0.193  0.0329  0.8546 -0.9306
  483MOL0     C66523   6.308   5.088  -0.091 -0.3551 -0.2601 -0.3737
  483MOL0     O66524   6.375   4.968  -0.073  0.0428 -0.3170 -1.0310
  483MOL0     C66525   6.323   4.860  -0.146  0.0439 -0.6960  0.9520
  483MOL0     C66526   6.418   4.742  -0.144  0.7935 -0.3350 -0.0319
  483MOL0     C66527   6.347   4.631  -0.217  0.3358  0.0468 -0.1813
  483MOL0     C66528   6.237   4.570  -0.139 -0.6326  0.2992 -0.7410
  483MOL0     C66529   6.166   4.458  -0.221  0.2198 -0.2861 -0.5902
  483MOL0     C66530   6.249   4.328  -0.224 -0.1914 -0.3219  0.6936
  483MOL0     C66531   6.178   4.237  -0.328  0.3823 -0.2029  0.2868
  483MOL0     C66532   6.273   4.118  -0.359 -0.3324 -0.2605 -0.2297
  483MOL0     N66533   6.385   4.165  -0.433  0.6877 -0.8408  0.9529
  483MOL0     C66534   6.379   4.241  -0.550  0.4597  0.9794  0.9999
  483MOL0     C66535   6.501   4.292  -0.572 -0.5745 -0.7883 -0.0728
  483MOL0     C66536   6.567   4.379  -0.679 -0.6968  0.4122  0.0135
  483MOL0     C66537   6.561   4.531  -0.644  0.3612 -1.0659  0.0777
  483MOL0     C66538   6.640   4.574  -0.517  0.1746  0.3993  0.2216
  483MOL0     C66539   6.620   4.722  -0.493  0.1130 -0.7270  0.2914
  483MOL0     O66540   6.482   4.761  -0.462 -0.1456 -0.1633  0.3936
  483MOL0     C66541   6.432   4.870  -0.528 -0.6939 -0.0854  0.5005
  483MOL0     C66542   6.332   4.869  -0.630 -0.1510 -0.6569  0.5552
  483MOL0     C66543   6.273   4.990  -0.672 -0.3058  0.5905  0.2578
  483MOL0     C66544   6.173   4.984  -0.784 -0.5002  0.7172  0.7450
  483MOL0     C66545   6.321   5.114  -0.626 -0.3828 -0.1681  0.0148
  483MOL0     C66546   6.299   5.245  -0.694 -0.0438 -0.3568 -0.6787
  483MOL0     O66547   6.326   5.353  -0.606 -0.0605 -0.5666  0.3425
  483MOL0     C66548   6.342   5.486  -0.648  0.9001 -0.2941 -0.1375
  483MOL0     C66549   6.385   5.510  -0.780  0.5096 -0.7159  0.6377
  483MOL0     C66550   6.386   5.643  -0.838 -0.0346  0.4222  0.1320
  483MOL0     C66551   6.363   5.744  -0.735  0.3807 -0.3611  0.9605
  483MOL0     O66552   6.359   5.870  -0.789  0.1860  0.0432 -0.5371
  483MOL0     C66553   6.447   5.972  -0.727  0.8641 -0.4039  0.4110
  483MOL0     C66554   6.574   5.985  -0.797  0.2661 -0.1783 -0.1131
  483MOL0     C66555   6.646   6.113  -0.762 -0.4314 -0.1977  1.3800
  483MOL0     C66556   6.683   6.127  -0.616 -0.9132 -0.0623 -0.0400
  483MOL0     C66557   6.789   6.234  -0.594 -0.2607  0.5190  0.2460
  483MOL0     C66558   6.863   6.239  -0.459 -0.1032 -0.0297 -0.3961
  483MOL0     C66559   6.772   6.276  -0.345 -0.8631 -0.9738 -0.4581
  483MOL0     C66560   6.795   6.418  -0.296  1.0600  0.5587  0.4470
  483MOL0    Cl66561   6.960   6.447  -0.247  0.3870  0.2418  0.1694
  483MOL0     C66562   6.337   5.715  -0.598 -0.3265 -0.9413 -0.0373
  483MOL0     C66563   6.325   5.588  -0.560 -0.3588 -0.8024 -0.1009
  483MOL0     O66564   6.263   5.253  -0.803 -0.4404 -0.0856  0.4959
  483MOL0     C66565   6.425   5.108  -0.526 -0.6874 -0.8437  0.5882
  483MOL0     C66566   6.481   4.997  -0.481  0.5495 -0.2997  0.4489
  483MOL0     N66567   6.576   4.242  -0.478 -0.8346 -0.1168 -0.3370
  483MOL0     N66568   6.507   4.182  -0.384  0.1715 -0.8329 -0.2610
  483MOL0     C66569   6.338   5.185   0.005 -0.1366 -1.0159 -0.2842
  483MOL0     C66570   6.299   5.317  -0.003  0.1635 -0.3041 -0.7431
  483MOL0     C66571   6.049   5.695  -0.089  0.1658 -0.5434  0.7380
  483MOL0     C66572   6.001   5.694  -0.212 -0.0513  0.4823  0.0597
  483MOL0     C66573   5.929   5.797  -0.263 -0.4940 -0.6179 -0.2087
  483MOL0     C66574   5.903   5.910  -0.177  0.1433 -0.6655 -0.1280
  483MOL0     O66575   5.838   6.019  -0.227  0.3411  0.7941  0.5736
  483MOL0     C66576   5.858   6.151  -0.167 -0.1810 -0.2244 -0.0300
  483MOL0     C66577   5.735   6.208  -0.095  0.0194  0.4730 -1.6093
  483MOL0     C66578   5.703   6.128   0.034  0.1319 -0.9084 -0.2456
  483MOL0     C66579   5.591   6.182   0.115 -0.2279  0.4101 -0.6236
  483MOL0     C66580   5.599   6.328   0.147 -0.9605 -0.0140 -0.4446
  483MOL0     C66581   5.605   6.450   0.157 -0.1232 -0.4330  0.3455
  483MOL0     C66582   5.945   5.904  -0.050 -0.0086  0.0926 -0.4565
  483MOL0     C66583   6.015   5.798   0.000  0.6406 -0.5160 -0.3330
  483MOL0     C66584   6.074   5.820   0.133 -1.0320  0.7565 -0.0749
  483MOL0     H66585   6.098   5.271  -0.282  0.0071 -0.2947  0.8110
  483MOL0     H66586   6.180   5.056  -0.265  2.5641 -0.7307 -0.9072
  483MOL0     H66587   6.304   4.883  -0.251  1.7589 -0.0363  0.7598
  483MOL0     H66588   6.229   4.833  -0.096 -0.4869  0.0990  0.4059
  483MOL0     H66589   6.505   4.771  -0.204 -0.5719 -1.0780 -2.5329
  483MOL0     H66590   6.436   4.700  -0.045  0.3858  3.3068  1.7565
  483MOL0     H66591   6.310   4.674  -0.311 -2.0409  0.2280  0.7556
  483MOL0     H66592   6.416   4.554  -0.252 -0.5214 -0.8394  0.0501
  483MOL0     H66593   6.290   4.519  -0.058  2.3141 -0.1688 -2.8067
  483MOL0     H66594   6.165   4.644  -0.102  0.5702  0.4042  1.5230
  483MOL0     H66595   6.150   4.486  -0.326  0.4469 -0.0955 -0.5753
  483MOL0     H66596   6.068   4.439  -0.178  1.6430 -0.1590  3.0664
  483MOL0     H66597   6.350   4.357  -0.253 -0.1013  0.2244  1.4916
  483MOL0     H66598   6.253   4.280  -0.126  0.5041  2.0450  1.9005
  483MOL0     H66599   6.154   4.291  -0.420  1.6699 -2.3185 -1.3633
  483MOL0     H66600   6.081   4.209  -0.287  0.2275  2.1475  1.7425
  483MOL0     H66601   6.296   4.069  -0.264  0.7098  0.8351  0.1055
  483MOL0     H66602   6.227   4.039  -0.420 -0.1830 -1.0562  0.6680
  483MOL0     H66603   6.300   4.238  -0.625  3.0216  0.1919 -1.9154
  483MOL0     H66604   6.514   4.373  -0.775 -0.9785  1.0907  0.1240
  483MOL0     H66605   6.669   4.348  -0.703 -0.7866 -0.6719  0.9481
  483MOL0     H66606   6.577   4.593  -0.733 -7.0749 -2.3221 -2.8120
  483MOL0     H66607   6.459   4.549  -0.611  0.1870 -1.3295 -0.3135
  483MOL0     H66608   6.605   4.521  -0.428  1.5037  1.6715  1.5635
  483MOL0     H66609   6.746   4.546  -0.521  0.2565  0.8949 -2.0740
  483MOL0     H66610   6.689   4.755  -0.414 -0.1936  2.8988 -0.7686
  483MOL0     H66611   6.640   4.779  -0.584  2.1175  1.8367  2.1838
  483MOL0     H66612   6.309   4.783  -0.693  0.2846  0.2841 -0.9367
  483MOL0     H66613   6.133   4.882  -0.785 -0.9419  0.8795  1.2462
  483MOL0     H66614   6.214   5.008  -0.882 -0.5955  0.9301  0.7585
  483MOL0     H66615   6.082   5.043  -0.766 -2.4506 -0.6075 -3.4244
  483MOL0     H66616   6.422   5.431  -0.845  0.2428 -0.3893  0.0802
  483MOL0     H66617   6.413   5.662  -0.941  4.3419 -1.9176  0.5836
  483MOL0     H66618   6.404   6.072  -0.741  2.1400 -0.0237 -1.1857
  483MOL0     H66619   6.457   5.969  -0.618 -2.0051  3.7831  1.0392
  483MOL0     H66620   6.639   5.902  -0.768  0.1024  0.2267  1.5103
  483MOL0     H66621   6.556   5.988  -0.905 -1.8758  1.4162  0.2091
  483MOL0     H66622   6.589   6.201  -0.792 -1.0570 -1.2162 -0.6551
  483MOL0     H66623   6.736   6.107  -0.824 -2.1710 -4.8973 -1.2404
  483MOL0     H66624   6.710   6.030  -0.573 -1.8923  0.0331  0.8312
  483MOL0     H66625   6.592   6.167  -0.569 -0.1954  1.4010  0.1764
  483MOL0     H66626   6.865   6.191  -0.660 -0.1687 -1.5882  1.6452
  483MOL0     H66627   6.759   6.333  -0.630 -2.0760  0.6934  2.0605
  483MOL0     H66628   6.953   6.301  -0.462 -0.6566  0.7581 -1.0706
  483MOL0     H66629   6.896   6.135  -0.450  0.4625  0.0444 -1.4258
  483MOL0     H66630   6.800   6.200  -0.271  0.9419 -0.3865 -0.5004
  483MOL0     H66631   6.666   6.270  -0.373 -1.2519  2.0081  0.1100
  483MOL0     H66632   6.730   6.432  -0.209  0.1293 -0.0147 -0.1415
  483MOL0     H66633   6.761   6.475  -0.383 -4.1541 -1.1321  1.0037
  483MOL0     H66634   6.325   5.795  -0.525  1.8334 -0.0760 -0.5555
  483MOL0     H66635   6.300   5.559  -0.458 -3.0233 -0.3205 -0.5355
  483MOL0     H66636   6.465   5.196  -0.477 -1.7837 -1.1595  2.1378
  483MOL0     H66637   6.545   5.006  -0.394 -0.4954 -1.8775  1.4246
  483MOL0     H66638   6.391   5.164   0.097 -0.7394  0.7553  0.5172
  483MOL0     H66639   6.319   5.391   0.073  1.4393  0.5217 -1.8335
  483MOL0     H66640   6.010   5.606  -0.275 -0.9558 -1.3668  2.3408
  483MOL0     H66641   5.894   5.805  -0.366  4.0255 -1.9540 -2.1001
  483MOL0     H66642   5.951   6.161  -0.110 -0.7613 -0.9679  1.0809
  483MOL0     H66643   5.880   6.201  -0.261  1.9775 -1.9255 -0.5257
  483MOL0     H66644   5.637   6.201  -0.144 -0.5084 -3.2367 -0.3704
  483MOL0     H66645   5.757   6.313  -0.074 -0.8116  0.7730 -2.1871
  483MOL0     H66646   5.691   6.022   0.007  0.9609 -0.5203 -2.3528
  483MOL0     H66647   5.791   6.142   0.098 -1.1906  1.5495  1.1814
  483MOL0     H66648   5.603   6.134   0.213 -1.2458 -1.0675 -1.2008
  483MOL0     H66649   5.497   6.153   0.068 -0.8301  0.6619  0.3895
  483MOL0     H66650   5.633   6.553   0.162  1.8807 -0.9908  1.5397
  483MOL0     H66651   5.956   5.992   0.012 -1.3504  0.4584 -0.7145
  483MOL0     H66652   6.004   5.864   0.204 -0.5713 -0.1592  0.9786
  483MOL0     H66653   6.125   5.731   0.171 -0.4010  0.8731 -0.6259
  483MOL0     H66654   6.158   5.887   0.113  2.4014 -3.2058 -0.2197
  484MOL0     O66655   1.357   3.057   9.855 -0.3511 -0.4542  0.5560
  484MOL0     C66656   1.476   3.096   9.836  0.4730  1.2079 -0.0487
  484MOL0     O66657   1.545   3.183   9.913 -0.4016  0.2994  0.1809
  484MOL0     C66658   1.504   3.199  10.039  1.1893  0.5858 -0.0591
  484MOL0     C66659   1.477   3.328  10.088  0.4069  0.6566  0.4850
  484MOL0     C66660   1.463   3.341  10.224 -0.9783 -0.0513  0.2573
  484MOL0     C66661   1.457   3.231  10.306  0.3158  0.2458  0.5050
  484MOL0     O66662   1.439   3.241  10.441 -0.5516 -1.0135  0.6139
  484MOL0     C66663   1.333   3.311  10.496  1.1917 -0.4878  0.0615
  484MOL0     C66664   1.345   3.305  10.651  0.7675  0.1029 -0.1222
  484MOL0     C66665   1.278   3.177  10.703 -0.2142  0.5268  0.3099
  484MOL0     C66666   1.284   3.169  10.850  0.2094  0.2866  0.6925
  484MOL0     C66667   1.194   3.051  10.895  1.4301 -0.6927  0.3314
  484MOL0     C66668   1.176   3.040  11.035 -0.5038 -0.1614 -0.1822
  484MOL0     C66669   1.312   3.047  11.116  0.1299  0.6452  0.2495
  484MOL0     C66670   1.400   2.925  11.066 -0.2248 -0.3834  0.7339
  484MOL0     N66671   1.508   2.896  11.156  0.2647 -0.1255 -0.2059
  484MOL0     C66672   1.489   2.799  11.258 -0.0680 -0.4112  1.6784
  484MOL0     C66673   1.608   2.787  11.315 -0.0148  0.2183 -0.0343
  484MOL0     C66674   1.626   2.702  11.438  0.0112  0.5473  0.4630
  484MOL0     C66675   1.732   2.753  11.533  0.6468 -0.4829  0.2610
  484MOL0     C66676   1.750   2.666  11.649  1.5624 -0.5531 -0.0927
  484MOL0     C66677   1.867   2.705  11.737  0.1198  0.8577 -0.4962
  484MOL0     O66678   1.851   2.635  11.863 -0.6440 -0.8941  0.3392
  484MOL0     C66679   1.888   2.506  11.875  0.5886 -0.2121  0.2068
  484MOL0     C66680   1.821   2.422  11.959 -0.4298 -0.2370  0.0894
  484MOL0     C66681   1.847   2.289  11.971 -0.7286 -0.1510 -0.0752
  484MOL0     C66682   1.761   2.209  12.059 -0.7364  0.9613 -0.3278
  484MOL0     C66683   1.946   2.230  11.883  0.5217 -0.0407  0.1323
  484MOL0     C66684   1.978   2.083  11.873  1.0297 -0.8987 -0.3750
  484MOL0     O66685   2.002   2.033  11.760 -0.1725  0.1652 -0.2456
  484MOL0     C66686   2.005   1.895  11.730 -0.2371 -0.3842 -0.4523
  484MOL0     C66687   1.958   1.852  11.605 -0.3451  0.1904  0.6029
  484MOL0     C66688   1.981   1.722  11.565  0.7516 -0.2428 -0.1944
  484MOL0     C66689   2.040   1.629  11.647 -0.0779  0.1459  0.1714
  484MOL0     O66690   2.063   1.496  11.615 -0.4357 -0.4445  0.0186
  484MOL0     C66691   2.098   1.470  11.478 -0.3536  0.6650 -0.0545
  484MOL0     C66692   2.146   1.327  11.459 -0.2736 -0.8021 -0.0112
  484MOL0     C66693   2.034   1.229  11.506 -0.2510 -0.3568 -0.2650
  484MOL0     C66694   2.059   1.076  11.491  0.3070 -0.1782 -0.0639
  484MOL0     C66695   1.929   1.009  11.544  0.0991  0.2476 -0.2458
  484MOL0     C66696   1.947   0.864  11.581 -0.0033  0.8858 -0.3319
  484MOL0     C66697   1.812   0.791  11.611  0.0710  0.2131 -0.0546
  484MOL0     C66698   1.819   0.655  11.672  0.2537 -0.1249  0.1098
  484MOL0    Cl66699   1.665   0.584  11.704  0.0218 -0.0837 -0.2897
  484MOL0     C66700   2.072   1.663  11.771 -0.6776  0.5483  0.7296
  484MOL0     C66701   2.063   1.797  11.812  0.2320 -0.5460 -0.6713
  484MOL0     O66702   1.985   2.020  11.984  0.0703 -0.2315 -0.1662
  484MOL0     C66703   2.008   2.308  11.789  0.2277 -1.6121 -0.0412
  484MOL0     C66704   1.987   2.447  11.794 -0.8064  0.6206  0.0889
  484MOL0     N66705   1.697   2.863  11.240 -0.9869  0.1394 -0.3388
  484MOL0     N66706   1.635   2.930  11.153 -0.5343  0.6039 -0.2449
  484MOL0     C66707   1.485   3.100  10.259  1.8009  0.1973 -0.2295
  484MOL0     C66708   1.500   3.089  10.126  0.0534  0.5744  0.0043
  484MOL0     C66709   1.554   3.033   9.731 -0.1696  0.1226  0.0337
  484MOL0     C66710   1.674   2.980   9.765  0.4982 -0.2009  0.2682
  484MOL0     C66711   1.750   2.933   9.659 -0.4433 -0.2269  0.0960
  484MOL0     C66712   1.710   2.919   9.532  0.2949  0.0537  0.2818
  484MOL0     O66713   1.780   2.865   9.432  0.4179  0.1602  0.2499
  484MOL0     C66714   1.774   2.912   9.298 -0.1923  0.1353 -1.1219
  484MOL0     C66715   1.870   2.830   9.211  0.8923  0.2016 -0.4762
  484MOL0     C66716   2.019   2.850   9.251  0.2740  0.7773  0.1020
  484MOL0     C66717   2.107   2.889   9.121  0.0957  0.7065 -0.0156
  484MOL0     C66718   2.069   3.016   9.062  0.3867  1.3189 -0.4637
  484MOL0     C66719   2.045   3.125   9.016  0.3938 -0.3866 -0.0684
  484MOL0     C66720   1.584   2.958   9.509  0.1197 -0.2244 -0.2086
  484MOL0     C66721   1.498   3.025   9.596 -1.1001  0.4613  0.8040
  484MOL0     C66722   1.362   3.061   9.566  0.3345  0.6102 -0.6559
  484MOL0     H66723   1.479   3.424  10.039  1.2895  2.2773  3.4249
  484MOL0     H66724   1.463   3.436  10.276 -1.4274  0.4923 -0.7139
  484MOL0     H66725   1.235   3.271  10.470  0.9329 -1.6512  2.5029
  484MOL0     H66726   1.332   3.416  10.467 -0.0062 -0.1389  1.2701
  484MOL0     H66727   1.442   3.322  10.699  0.3894  1.0343  0.3525
  484MOL0     H66728   1.269   3.379  10.675  0.0546 -0.8718  0.6962
  484MOL0     H66729   1.172   3.182  10.677 -0.6494  0.2495  1.8918
  484MOL0     H66730   1.327   3.086  10.667  0.4268 -0.8858  4.2121
  484MOL0     H66731   1.387   3.147  10.880 -0.4380 -3.8686  0.5113
  484MOL0     H66732   1.240   3.265  10.879  2.3110  1.4105  0.3398
  484MOL0     H66733   1.221   2.959  10.842 -0.3176 -0.6519 -0.7188
  484MOL0     H66734   1.094   3.080  10.860  2.0341 -0.4848 -1.3249
  484MOL0     H66735   1.105   3.114  11.074  1.5063  0.8717  1.7286
  484MOL0     H66736   1.134   2.942  11.060 -2.0898  1.1334  2.8100
  484MOL0     H66737   1.285   3.051  11.222 -1.6662  1.5870 -0.2096
  484MOL0     H66738   1.365   3.140  11.096 -1.6437  1.5567 -0.3847
  484MOL0     H66739   1.328   2.842  11.073 -0.2918 -0.2878  1.2197
  484MOL0     H66740   1.426   2.931  10.960 -0.2854  1.3161  0.7841
  484MOL0     H66741   1.402   2.735  11.253 -0.2092 -0.1542 -2.1563
  484MOL0     H66742   1.651   2.602  11.399 -1.8657  0.6631 -1.2576
  484MOL0     H66743   1.533   2.689  11.493  0.9298  0.2013  1.9841
  484MOL0     H66744   1.826   2.769  11.479  2.0609  3.1112  3.3335
  484MOL0     H66745   1.721   2.857  11.563  1.4171 -0.1978 -0.4183
  484MOL0     H66746   1.656   2.676  11.705  0.2696  1.1278 -2.3959
  484MOL0     H66747   1.769   2.564  11.615 -0.1967 -1.5091  1.5926
  484MOL0     H66748   1.958   2.694  11.678  2.0456  1.9507  2.0878
  484MOL0     H66749   1.862   2.810  11.767 -0.9464  0.8614 -0.6262
  484MOL0     H66750   1.747   2.465  12.026  0.5875 -1.0421  1.8073
  484MOL0     H66751   1.722   2.116  12.015 -1.7357  0.2637  1.8805
  484MOL0     H66752   1.675   2.264  12.097 -0.5123 -0.5946  2.7521
  484MOL0     H66753   1.819   2.178  12.147 -0.6334  0.8145 -0.4462
  484MOL0     H66754   1.918   1.927  11.538 -0.2569  0.6459  1.0539
  484MOL0     H66755   1.954   1.706  11.461 -2.9831  1.7043  0.2941
  484MOL0     H66756   2.013   1.490  11.412 -0.6556  3.2488  0.9883
  484MOL0     H66757   2.182   1.533  11.449  0.0064  0.7850  1.1852
  484MOL0     H66758   2.157   1.322  11.350  0.1581  0.7777 -0.0634
  484MOL0     H66759   2.235   1.295  11.514 -0.7010 -1.1103  0.5107
  484MOL0     H66760   1.949   1.261  11.444  0.1448  1.3269  0.0226
  484MOL0     H66761   2.014   1.245  11.612  2.1869 -2.2291  0.5652
  484MOL0     H66762   2.159   1.061  11.533  0.8243  2.1893 -0.2753
  484MOL0     H66763   2.073   1.037  11.390  0.8333 -3.5669  1.1963
  484MOL0     H66764   1.891   1.063  11.631  0.4902 -2.4979  1.7410
  484MOL0     H66765   1.856   1.015  11.463  0.2809  1.2519 -0.3545
  484MOL0     H66766   1.998   0.858  11.677 -1.3420 -2.4120  0.2863
  484MOL0     H66767   1.997   0.800  11.508 -0.4613 -0.0814  0.1909
  484MOL0     H66768   1.752   0.777  11.520  2.3485  0.3028 -1.6595
  484MOL0     H66769   1.759   0.857  11.680 -0.4608 -0.5052  0.2320
  484MOL0     H66770   1.892   0.645  11.753 -0.2805 -1.2055  0.4858
  484MOL0     H66771   1.871   0.594  11.599 -0.0464  2.4779 -2.4405
  484MOL0     H66772   2.119   1.586  11.832 -0.3344 -0.0624 -0.2816
  484MOL0     H66773   2.102   1.817  11.911 -0.5021  2.2975 -0.8776
  484MOL0     H66774   2.098   2.269  11.742  1.0359 -0.2410  0.2775
  484MOL0     H66775   2.053   2.499  11.725  0.6741 -0.3465  0.7178
  484MOL0     H66776   1.477   3.015  10.326  2.5366  0.6165  0.4191
  484MOL0     H66777   1.505   2.984  10.098 -0.4832 -0.9013  4.5948
  484MOL0     H66778   1.719   2.991   9.863  2.3514 -0.6965 -0.4753
  484MOL0     H66779   1.848   2.908   9.699  0.0732  0.2032 -0.8907
  484MOL0     H66780   1.675   2.908   9.252  0.3563 -2.8115 -2.2577
  484MOL0     H66781   1.802   3.018   9.292  1.1012  0.1384  2.3632
  484MOL0     H66782   1.848   2.841   9.104  0.8481  1.4139 -0.3567
  484MOL0     H66783   1.856   2.723   9.229  0.1615  0.3108 -0.3407
  484MOL0     H66784   2.011   2.930   9.325 -0.9022 -0.9750  1.9859
  484MOL0     H66785   2.063   2.759   9.291  1.7529  1.6750  0.6010
  484MOL0     H66786   2.091   2.806   9.051 -1.7414  0.0378  1.1433
  484MOL0     H66787   2.213   2.886   9.149  0.7317 -1.2545 -2.2782
  484MOL0     H66788   2.026   3.223   8.977  0.1438  0.3894  1.8503
  484MOL0     H66789   1.532   2.925   9.420  1.9753 -3.1094 -0.3592
  484MOL0     H66790   1.357   3.168   9.588  0.9285  0.2058  1.7621
  484MOL0     H66791   1.333   3.040   9.462  0.0606 -0.4775 -0.3811
  484MOL0     H66792   1.294   3.002   9.628  0.4239  0.1169 -1.0160
  485MOL0     O66793   4.583   4.944  11.406  0.3538 -0.1253  0.8252
  485MOL0     C66794   4.523   4.934  11.301  0.9274 -0.0182 -0.5047
  485MOL0     O66795   4.422   4.853  11.282 -0.4525  0.1161  0.0689
  485MOL0     C66796   4.387   4.748  11.365  0.6203 -0.0362 -0.4798
  485MOL0     C66797   4.255   4.744  11.413  0.0896  0.2201  0.0813
  485MOL0     C66798   4.211   4.630  11.484 -0.5907  0.3187  0.5742
  485MOL0     C66799   4.301   4.528  11.517  0.1520  0.1037 -0.4494
  485MOL0     O66800   4.251   4.432  11.607  0.2123 -0.0955 -0.7737
  485MOL0     C66801   4.338   4.409  11.722 -0.6641  0.6292 -0.0748
  485MOL0     C66802   4.372   4.520  11.821 -0.8518  0.0043 -0.5088
  485MOL0     C66803   4.257   4.563  11.906  0.2917 -0.5160  0.5492
  485MOL0     C66804   4.315   4.666  12.014  0.3989  0.3943 -0.2621
  485MOL0     C66805   4.202   4.741  12.089 -0.1849 -0.0703  0.1524
  485MOL0     C66806   4.272   4.811  12.206  0.4261  0.0706  0.2794
  485MOL0     C66807   4.167   4.905  12.252 -0.6807 -0.2294 -0.8282
  485MOL0     C66808   4.214   4.993  12.366  0.5632  1.0212 -0.8508
  485MOL0     N66809   4.327   5.071  12.330  1.0055  0.8309  0.3922
  485MOL0     C66810   4.332   5.158  12.222  0.6597 -0.1601  0.0253
  485MOL0     C66811   4.458   5.211  12.222 -0.0759 -0.3149 -0.6083
  485MOL0     C66812   4.517   5.310  12.134  0.5490 -0.0667  0.8738
  485MOL0     C66813   4.670   5.301  12.092  0.4077 -0.4326 -0.0959
  485MOL0     C66814   4.766   5.291  12.213 -0.3702  0.2814 -0.1581
  485MOL0     C66815   4.916   5.306  12.164 -0.8901  0.5116 -0.0744
  485MOL0     O66816   4.980   5.369  12.278  0.6164  0.5256  0.4178
  485MOL0     C66817   5.119   5.379  12.276 -0.3333  0.6272  0.0173
  485MOL0     C66818   5.214   5.332  12.185  0.7201  0.3540 -0.4895
  485MOL0     C66819   5.356   5.353  12.195  0.0726 -0.2232  0.1436
  485MOL0     C66820   5.441   5.277  12.101 -0.3035  0.2074 -0.1095
  485MOL0     C66821   5.401   5.440  12.303 -1.1630  1.5069  0.8913
  485MOL0     C66822   5.529   5.499  12.315 -0.1537 -0.1559  0.1244
  485MOL0     O66823   5.560   5.581  12.421 -0.1537 -0.3221 -0.5384
  485MOL0     C66824   5.692   5.629  12.439 -0.5244 -0.4173  0.2081
  485MOL0     C66825   5.703   5.753  12.520 -0.7535 -0.2642 -0.6788
  485MOL0     C66826   5.827   5.820  12.535  0.5379  0.5199 -0.1476
  485MOL0     C66827   5.951   5.750  12.491 -0.4897  0.4049  0.9720
  485MOL0     O66828   6.082   5.791  12.493 -1.2818  0.2217 -0.7932
  485MOL0     C66829   6.131   5.853  12.611 -0.5935  0.4986  0.9851
  485MOL0     C66830   6.131   5.758  12.737 -0.1180 -0.9206  0.2632
  485MOL0     C66831   6.189   5.620  12.709  0.3144 -0.6829  0.3147
  485MOL0     C66832   6.336   5.630  12.683 -0.0424 -0.1522  0.6422
  485MOL0     C66833   6.405   5.508  12.635  0.2499  0.9461  0.6619
  485MOL0     C66834   6.360   5.468  12.482 -0.4732 -0.0303 -0.1178
  485MOL0     C66835   6.452   5.367  12.420 -1.5178  0.2831 -0.5042
  485MOL0     C66836   6.401   5.305  12.295  0.5597 -0.8397  1.0540
  485MOL0    Cl66837   6.407   5.457  12.181  0.3716  0.0120  0.2982
  485MOL0     C66838   5.935   5.626  12.423 -1.0286 -0.3051 -0.0376
  485MOL0     C66839   5.809   5.569  12.407 -0.6939  0.1155 -0.1882
  485MOL0     O66840   5.612   5.470  12.229  1.0831  0.4976  0.6915
  485MOL0     C66841   5.310   5.469  12.397  0.9367  0.5120 -0.4594
  485MOL0     C66842   5.174   5.439  12.387  0.2219  0.8437  0.5777
  485MOL0     N66843   4.527   5.135  12.319  0.4430  0.2765 -0.2409
  485MOL0     N66844   4.448   5.058  12.384  0.7193 -0.6520 -0.3351
  485MOL0     C66845   4.433   4.537  11.475 -0.2500  0.9864  0.2625
  485MOL0     C66846   4.477   4.653  11.404 -0.3423 -0.6757 -0.2018
  485MOL0     C66847   4.568   5.018  11.199  0.3868 -0.1108  0.3073
  485MOL0     C66848   4.708   5.025  11.171  0.4032 -0.1884  0.2773
  485MOL0     C66849   4.749   5.102  11.073 -0.4109 -0.3721  0.7101
  485MOL0     C66850   4.665   5.183  10.989 -0.2532 -0.1472  0.5266
  485MOL0     O66851   4.720   5.262  10.898 -0.5618 -0.7922  0.0889
  485MOL0     C66852   4.641   5.290  10.779 -0.2945  0.2750 -0.6826
  485MOL0     C66853   4.737   5.367  10.696 -1.0054  0.6834  0.3082
  485MOL0     C66854   4.708   5.378  10.543 -0.3694 -0.3295 -0.0658
  485MOL0     C66855   4.818   5.480  10.488 -0.0592  0.1725 -0.5077
  485MOL0     C66856   4.809   5.503  10.347  0.4555 -0.1338  0.5651
  485MOL0     C66857   4.815   5.528  10.231  0.4407  0.1861 -0.3400
  485MOL0     C66858   4.531   5.168  11.010 -0.1636 -0.6255 -0.2914
  485MOL0     C66859   4.483   5.095  11.114  0.0117  0.3148 -0.7128
  485MOL0     C66860   4.332   5.079  11.128  0.2552  0.3504  0.2751
  485MOL0     H66861   4.185   4.823  11.389 -1.1507 -0.5070  1.1821
  485MOL0     H66862   4.108   4.639  11.517 -1.4021 -0.0081 -1.6755
  485MOL0     H66863   4.435   4.373  11.684  0.8207  3.1178  1.0766
  485MOL0     H66864   4.298   4.315  11.759 -1.0845  0.4004 -1.0689
  485MOL0     H66865   4.452   4.483  11.886 -3.5122 -0.3962  2.7768
  485MOL0     H66866   4.405   4.615  11.778 -0.3583  0.3664  0.6195
  485MOL0     H66867   4.177   4.607  11.846 -0.3369 -2.9428 -0.4982
  485MOL0     H66868   4.220   4.475  11.958  0.0149  0.2616  1.7149
  485MOL0     H66869   4.383   4.609  12.079  0.2311 -0.6696 -0.9926
  485MOL0     H66870   4.382   4.739  11.967 -0.7842 -0.1528 -2.9909
  485MOL0     H66871   4.125   4.672  12.127  0.3262  0.6808  2.7882
  485MOL0     H66872   4.154   4.814  12.024 -1.5936 -0.0350  1.1631
  485MOL0     H66873   4.292   4.734  12.282  0.4895 -0.6682 -0.4661
  485MOL0     H66874   4.364   4.853  12.164  0.4791 -0.4391 -0.1369
  485MOL0     H66875   4.076   4.854  12.284 -1.4920 -0.0320 -2.6986
  485MOL0     H66876   4.141   4.976  12.173  1.2691  0.6540 -0.7525
  485MOL0     H66877   4.131   5.055  12.400  1.2440  1.1357  0.6768
  485MOL0     H66878   4.229   4.926  12.452  1.4726  0.4508 -1.4355
  485MOL0     H66879   4.257   5.185  12.148 -0.7130 -1.8413  0.7262
  485MOL0     H66880   4.492   5.406  12.181  0.8280 -0.1003  1.0933
  485MOL0     H66881   4.468   5.301  12.036  0.4257 -0.0791  0.9368
  485MOL0     H66882   4.688   5.218  12.023  0.4135 -0.5759  0.0760
  485MOL0     H66883   4.681   5.395  12.037 -0.3853 -0.6347 -0.6202
  485MOL0     H66884   4.739   5.355  12.297 -0.7474  0.1873 -0.2058
  485MOL0     H66885   4.755   5.190  12.254  3.6866  0.7680  2.6722
  485MOL0     H66886   4.950   5.204  12.141  0.2050  0.0177  3.2300
  485MOL0     H66887   4.923   5.372  12.077 -3.2948  2.4452  1.0825
  485MOL0     H66888   5.181   5.271  12.101 -0.6596  0.1597  0.1796
  485MOL0     H66889   5.387   5.200  12.044 -0.8718  0.0044  0.6810
  485MOL0     H66890   5.525   5.227  12.151 -0.9815  0.0896  0.9428
  485MOL0     H66891   5.471   5.353  12.028 -0.5126 -1.6135 -2.2103
  485MOL0     H66892   5.607   5.794  12.550 -1.0586 -2.0447  0.9431
  485MOL0     H66893   5.846   5.920  12.573  0.5472  1.0679 -1.5616
  485MOL0     H66894   6.235   5.880  12.591 -1.2793  2.3002 -0.5256
  485MOL0     H66895   6.068   5.940  12.635 -3.5644 -1.5570  1.2803
  485MOL0     H66896   6.165   5.804  12.830  0.0793 -3.2667  1.4298
  485MOL0     H66897   6.023   5.742  12.751 -0.3680  0.2147 -0.2767
  485MOL0     H66898   6.145   5.573  12.621 -0.3714  1.0508 -0.3162
  485MOL0     H66899   6.173   5.558  12.797  0.0375  1.1008  1.5951
  485MOL0     H66900   6.395   5.670  12.766  0.6904  1.4952 -0.6343
  485MOL0     H66901   6.346   5.692  12.594  1.8952 -0.0684  0.8768
  485MOL0     H66902   6.513   5.520  12.641  0.5019 -0.9454  0.4262
  485MOL0     H66903   6.383   5.423  12.700 -1.3518 -1.0306 -2.2496
  485MOL0     H66904   6.355   5.554  12.415  2.0895  1.5392  1.5182
  485MOL0     H66905   6.259   5.427  12.474 -0.6190  0.2903  0.0770
  485MOL0     H66906   6.473   5.280  12.483 -0.4965 -2.5737 -4.3713
  485MOL0     H66907   6.547   5.415  12.397  0.5919 -2.4116  1.8757
  485MOL0     H66908   6.299   5.263  12.298 -1.6531  3.6982 -0.8472
  485MOL0     H66909   6.462   5.221  12.262 -1.5423 -1.4727 -1.6205
  485MOL0     H66910   6.028   5.579  12.392  0.9771  3.5668 -0.5074
  485MOL0     H66911   5.807   5.477  12.349 -2.0651  0.0504 -0.0545
  485MOL0     H66912   5.339   5.534  12.479  0.8830 -0.3680  0.2708
  485MOL0     H66913   5.121   5.485  12.470 -0.5259  2.9566 -0.9783
  485MOL0     H66914   4.495   4.459  11.518 -1.8950  0.8310  2.5639
  485MOL0     H66915   4.579   4.668  11.372  0.0272 -3.2836 -0.4200
  485MOL0     H66916   4.780   4.953  11.209 -0.2017 -1.4970 -0.9467
  485MOL0     H66917   4.855   5.119  11.058  0.0051 -2.0896  1.4501
  485MOL0     H66918   4.608   5.196  10.735 -1.7457  0.1916  0.4888
  485MOL0     H66919   4.554   5.356  10.788 -0.8952  0.0211 -3.5381
  485MOL0     H66920   4.835   5.320  10.710 -2.1504 -1.3577  2.1335
  485MOL0     H66921   4.746   5.463  10.748  1.0695  1.6316 -1.6266
  485MOL0     H66922   4.706   5.279  10.497 -2.7666 -1.3862  2.0540
  485MOL0     H66923   4.608   5.423  10.533  0.2437  1.2019  0.3552
  485MOL0     H66924   4.921   5.444  10.491  0.9900  2.5429 -3.2524
  485MOL0     H66925   4.804   5.577  10.537  0.0898  0.0465 -0.2151
  485MOL0     H66926   4.833   5.579  10.138  1.3520  3.5566  1.5258
  485MOL0     H66927   4.467   5.228  10.947  1.3778  1.4723  0.0207
  485MOL0     H66928   4.290   5.113  11.223 -0.9492 -2.8781  1.0054
  485MOL0     H66929   4.270   5.118  11.047 -1.0179  0.3472  1.2354
  485MOL0     H66930   4.301   4.975  11.118  0.5689  0.3776 -1.4683
  486MOL0     O66931   5.040   7.961   9.248 -0.2497  0.1289 -0.1819
  486MOL0     C66932   5.145   7.954   9.188  0.9944 -0.2874  1.0129
  486MOL0     O66933   5.248   7.877   9.226  0.1150 -0.2074 -0.2691
  486MOL0     C66934   5.227   7.793   9.336  0.1039 -0.5024  0.7522
  486MOL0     C66935   5.271   7.825   9.469 -0.0961  0.1498 -0.1233
  486MOL0     C66936   5.258   7.724   9.568 -0.5298 -0.7092 -0.7996
  486MOL0     C66937   5.193   7.604   9.538  0.0095 -0.4901  0.2057
  486MOL0     O66938   5.171   7.497   9.618  0.5458  0.3974 -0.3806
  486MOL0     C66939   5.182   7.509   9.762  0.4916 -0.4602  0.0516
  486MOL0     C66940   5.187   7.366   9.823  0.5587 -1.0117  0.0975
  486MOL0     C66941   5.303   7.282   9.762 -0.5954 -1.1055  0.3478
  486MOL0     C66942   5.325   7.150   9.847  0.7796  1.0659  0.4119
  486MOL0     C66943   5.449   7.082   9.786  0.1299  0.4817 -0.2327
  486MOL0     C66944   5.486   6.960   9.865 -0.3452  0.0046  0.1959
  486MOL0     C66945   5.610   6.892   9.797  0.0874  1.1538  0.0080
  486MOL0     C66946   5.732   6.983   9.789  0.0061 -0.2422 -0.2975
  486MOL0     N66947   5.857   6.922   9.845 -0.5320 -0.2665 -0.0585
  486MOL0     C66948   5.886   6.909   9.978 -0.6246 -1.0132 -0.9200
  486MOL0     C66949   5.996   6.836   9.977 -0.2275 -0.4815 -0.1317
  486MOL0     C66950   6.087   6.814  10.098 -0.0101  0.2542 -0.6484
  486MOL0     C66951   6.228   6.789  10.055 -0.8593 -0.0771  0.4211
  486MOL0     C66952   6.263   6.642  10.020  0.7544 -0.0224  0.3568
  486MOL0     C66953   6.411   6.630   9.997 -0.4216  0.1231 -1.0649
  486MOL0     O66954   6.465   6.725   9.901  0.5681  0.1954 -0.3744
  486MOL0     C66955   6.447   6.703   9.764  0.0620  0.3884 -1.3048
  486MOL0     C66956   6.533   6.774   9.681  0.3054 -0.7717  0.2522
  486MOL0     C66957   6.529   6.770   9.536 -0.5895  0.2114 -0.6987
  486MOL0     C66958   6.622   6.866   9.464 -0.1627  0.4853  0.7262
  486MOL0     C66959   6.440   6.677   9.482  0.3218  0.1686  0.3746
  486MOL0     C66960   6.420   6.657   9.336 -0.1380 -1.0823  0.0884
  486MOL0     O66961   6.361   6.547   9.289 -0.2815  0.8689 -0.2885
  486MOL0     C66962   6.378   6.516   9.154 -1.5804  0.4510 -0.4944
  486MOL0     C66963   6.498   6.518   9.076  0.2584  0.3650  0.0015
  486MOL0     C66964   6.508   6.479   8.942  0.5006 -0.1364 -0.2585
  486MOL0     C66965   6.392   6.446   8.884 -0.8887 -0.3419  0.2253
  486MOL0     O66966   6.398   6.419   8.750  0.4527  0.0516  0.3045
  486MOL0     C66967   6.325   6.507   8.668 -0.4494 -0.8219 -0.0080
  486MOL0     C66968   6.352   6.455   8.524  0.6923 -0.0899  0.0479
  486MOL0     C66969   6.479   6.495   8.471 -0.4355  0.0521  0.4351
  486MOL0     C66970   6.493   6.442   8.327  0.7189 -0.3398 -0.4903
  486MOL0     C66971   6.639   6.472   8.266 -0.1316  0.9785 -0.6053
  486MOL0     C66972   6.678   6.396   8.141 -1.1501 -0.3699  0.3719
  486MOL0     C66973   6.592   6.425   8.019  0.2064 -0.5553  0.1298
  486MOL0     C66974   6.634   6.352   7.896  0.2383  0.6805  0.7679
  486MOL0    Cl66975   6.662   6.181   7.922 -0.0584  0.4805 -0.5291
  486MOL0     C66976   6.266   6.457   8.946  1.0591  1.0587  0.3045
  486MOL0     C66977   6.262   6.480   9.079 -0.4135  0.0622 -0.5738
  486MOL0     O66978   6.453   6.753   9.264 -0.3321  0.6577 -0.0683
  486MOL0     C66979   6.355   6.603   9.555 -0.5010  1.1462  0.8004
  486MOL0     C66980   6.359   6.615   9.693  0.3960  1.0534 -0.3068
  486MOL0     N66981   6.004   6.770   9.859 -0.0973 -0.9079  1.1350
  486MOL0     N66982   5.927   6.836   9.782  0.1703 -0.0510 -0.6108
  486MOL0     C66983   5.152   7.579   9.406  0.2669 -0.2979 -0.2359
  486MOL0     C66984   5.169   7.672   9.305 -1.0929  0.2236  0.2199
  486MOL0     C66985   5.175   8.054   9.085 -0.2033 -0.0618  0.5023
  486MOL0     C66986   5.067   8.141   9.049 -0.8175  0.8797 -0.9647
  486MOL0     C66987   5.074   8.238   8.941 -0.3166  0.6334 -0.2063
  486MOL0     C66988   5.196   8.259   8.870 -0.6972  0.2165 -0.6512
  486MOL0     O66989   5.204   8.353   8.778 -0.1148  0.1113  0.2549
  486MOL0     C66990   5.321   8.407   8.720  0.9308 -0.5198  0.3987
  486MOL0     C66991   5.382   8.512   8.812  0.1413 -0.0623 -0.5761
  486MOL0     C66992   5.526   8.551   8.768 -0.4856  0.4085  0.0963
  486MOL0     C66993   5.548   8.626   8.647  0.0417  0.8724  0.1025
  486MOL0     C66994   5.533   8.534   8.520  0.8621 -0.4977  0.4037
  486MOL0     C66995   5.528   8.468   8.416 -0.5110 -0.6390 -0.2590
  486MOL0     C66996   5.310   8.172   8.908 -0.1318  0.9528 -0.4615
  486MOL0     C66997   5.301   8.070   9.008  0.3259 -0.4847 -0.4802
  486MOL0     C66998   5.413   7.960   9.008  0.3016  0.0650 -1.1229
  486MOL0     H66999   5.328   7.917   9.481  0.5528  0.0406 -2.1110
  486MOL0     H67000   5.305   7.739   9.664  0.4642 -2.4783 -0.9624
  486MOL0     H67001   5.102   7.575   9.797  0.4700 -0.6782  0.4122
  486MOL0     H67002   5.277   7.553   9.795  0.1994 -0.7100  1.2714
  486MOL0     H67003   5.201   7.389   9.929  6.1028 -0.5158 -0.4249
  486MOL0     H67004   5.096   7.309   9.804 -1.3888  1.7042  0.6561
  486MOL0     H67005   5.309   7.265   9.654  2.2671  1.0248  0.0503
  486MOL0     H67006   5.392   7.344   9.774  0.2691 -2.6127  2.3179
  486MOL0     H67007   5.354   7.148   9.952  1.1998 -1.2571  0.3032
  486MOL0     H67008   5.242   7.079   9.838  2.0793 -0.6631  1.6188
  486MOL0     H67009   5.525   7.159   9.770 -0.3178  0.6309 -1.8000
  486MOL0     H67010   5.426   7.050   9.684 -0.3315  1.1809 -0.3567
  486MOL0     H67011   5.503   6.972   9.973 -2.0661 -1.3326  0.6560
  486MOL0     H67012   5.403   6.891   9.852  1.7570 -2.5375 -0.6487
  486MOL0     H67013   5.590   6.842   9.702 -2.0008 -1.2705  1.5826
  486MOL0     H67014   5.637   6.818   9.873 -1.8576  2.4094  2.0579
  486MOL0     H67015   5.747   7.016   9.686  2.8949  2.5271  0.8348
  486MOL0     H67016   5.705   7.075   9.842 -0.9350  0.2923 -1.6558
  486MOL0     H67017   5.853   6.967  10.064 -0.5010 -2.6266  0.2666
  486MOL0     H67018   6.050   6.726  10.152  0.8602  0.4156  0.2296
  486MOL0     H67019   6.083   6.906  10.158  2.2707 -1.1543  1.9132
  486MOL0     H67020   6.255   6.858   9.974 -0.9279 -0.8349 -0.2534
  486MOL0     H67021   6.290   6.802  10.144  0.4485 -2.0488 -0.1559
  486MOL0     H67022   6.242   6.578  10.106  0.4029 -2.9884 -1.7754
  486MOL0     H67023   6.210   6.611   9.929 -0.2912 -1.4941  1.4150
  486MOL0     H67024   6.455   6.656  10.094 -1.5253 -0.9706 -0.2382
  486MOL0     H67025   6.452   6.531   9.979 -0.6590 -1.1780  4.0084
  486MOL0     H67026   6.590   6.861   9.712  3.2445 -1.7450 -2.0029
  486MOL0     H67027   6.557   6.941   9.418 -2.8273 -0.1799  3.1136
  486MOL0     H67028   6.672   6.804   9.389  1.1606  2.7800 -0.4076
  486MOL0     H67029   6.694   6.899   9.539  0.6704 -2.1895  1.1970
  486MOL0     H67030   6.590   6.534   9.132 -0.8667 -4.2814  3.8753
  486MOL0     H67031   6.604   6.482   8.892 -0.6673  1.3831 -2.5639
  486MOL0     H67032   6.217   6.518   8.677 -0.3003  0.4218  0.4932
  486MOL0     H67033   6.360   6.610   8.680  1.8173 -1.2230 -2.1680
  486MOL0     H67034   6.342   6.346   8.534 -2.9453  0.2075  1.1694
  486MOL0     H67035   6.271   6.485   8.457  2.3927 -0.4450 -2.2854
  486MOL0     H67036   6.562   6.447   8.523  0.9769 -0.8326 -2.4100
  486MOL0     H67037   6.478   6.605   8.476 -2.3284  0.0277  1.7400
  486MOL0     H67038   6.419   6.492   8.264  1.3149 -0.6121 -1.4140
  486MOL0     H67039   6.471   6.335   8.324 -3.1312  0.3184 -1.1628
  486MOL0     H67040   6.679   6.573   8.250  0.5259  1.4108  2.8064
  486MOL0     H67041   6.701   6.425   8.344 -1.6122 -1.8083 -0.9798
  486MOL0     H67042   6.687   6.289   8.159  0.8078 -0.6015 -1.5300
  486MOL0     H67043   6.780   6.427   8.118 -1.5206  0.2034 -0.5561
  486MOL0     H67044   6.596   6.529   7.986  1.6270 -0.8075 -0.6023
  486MOL0     H67045   6.489   6.393   8.038 -0.1342  0.6468  0.3645
  486MOL0     H67046   6.726   6.397   7.856  0.3635 -1.8038 -2.1344
  486MOL0     H67047   6.557   6.368   7.820  1.9314  0.8157 -1.0032
  486MOL0     H67048   6.173   6.447   8.889  0.9643  0.7478  0.5127
  486MOL0     H67049   6.167   6.480   9.130  1.3270  2.2361  3.0672
  486MOL0     H67050   6.282   6.538   9.510 -1.6454  2.7764  0.1892
  486MOL0     H67051   6.283   6.552   9.739 -0.7911  3.2543  0.8830
  486MOL0     H67052   5.109   7.484   9.378 -3.1322  0.5416  1.6350
  486MOL0     H67053   5.131   7.656   9.205 -2.0674  1.9412  0.2664
  486MOL0     H67054   4.972   8.131   9.101 -0.6793 -0.4443 -0.9241
  486MOL0     H67055   4.999   8.310   8.911  0.2253  2.1706  1.8512
  486MOL0     H67056   5.395   8.332   8.692  2.4218  0.3358  1.8576
  486MOL0     H67057   5.298   8.453   8.624  1.9698 -1.0328 -0.1160
  486MOL0     H67058   5.385   8.462   8.909  0.0571  2.4727  0.8132
  486MOL0     H67059   5.324   8.603   8.832 -0.2191 -0.0658 -1.5314
  486MOL0     H67060   5.561   8.620   8.845 -0.6359 -0.9501  1.4141
  486MOL0     H67061   5.590   8.463   8.779 -0.7025  0.3977  1.4143
  486MOL0     H67062   5.651   8.665   8.647  1.4468 -2.4212 -1.0933
  486MOL0     H67063   5.470   8.701   8.634 -0.1577  0.3382 -2.3255
  486MOL0     H67064   5.523   8.424   8.318 -1.2307 -0.8841 -0.1181
  486MOL0     H67065   5.397   8.167   8.843  0.5766  1.5651  0.4152
  486MOL0     H67066   5.448   7.940   9.110  0.0468  1.2992 -0.7788
  486MOL0     H67067   5.369   7.869   8.966  0.6473  0.4731 -2.3914
  486MOL0     H67068   5.500   7.996   8.952 -0.9246  1.1862 -2.3626
  487MOL0     O67069   4.165   9.492   9.991  0.8861 -0.6624  0.8481
  487MOL0     C67070   4.175   9.543   9.877  0.7005 -0.3137 -1.2226
  487MOL0     O67071   4.157   9.478   9.763 -0.8666  0.2146  0.1230
  487MOL0     C67072   4.124   9.339   9.770  0.0959 -0.2144 -0.3464
  487MOL0     C67073   4.226   9.244   9.753  0.5342 -0.9235  0.6046
  487MOL0     C67074   4.193   9.106   9.760  0.1358 -0.1620 -0.0537
  487MOL0     C67075   4.062   9.071   9.787 -0.1423 -0.1119 -0.0443
  487MOL0     O67076   4.028   8.936   9.807 -0.1836  0.9413  0.2268
  487MOL0     C67077   4.096   8.873   9.910 -0.0385 -0.4205 -0.4223
  487MOL0     C67078   4.042   8.735   9.912 -0.3269  0.4492  0.0068
  487MOL0     C67079   3.902   8.736   9.968 -0.2164  0.2256 -0.2414
  487MOL0     C67080   3.852   8.591   9.998 -0.0185  0.4426  0.4031
  487MOL0     C67081   3.725   8.609  10.084 -0.3167 -0.3395 -0.2596
  487MOL0     C67082   3.640   8.483  10.071 -0.0344 -0.3239 -0.5994
  487MOL0     C67083   3.701   8.371  10.157 -0.1745  0.8873  0.9089
  487MOL0     C67084   3.645   8.236  10.099 -0.2847  0.9875  0.0254
  487MOL0     N67085   3.702   8.193   9.971 -0.1476  0.1993 -0.4154
  487MOL0     C67086   3.644   8.214   9.853  0.5688  0.5166 -0.7722
  487MOL0     C67087   3.710   8.146   9.762  0.2851  0.8295 -0.1209
  487MOL0     C67088   3.688   8.151   9.614  0.3652  0.0391 -0.3077
  487MOL0     C67089   3.570   8.063   9.570 -0.2143 -0.6215  0.3329
  487MOL0     C67090   3.561   8.058   9.415 -0.4110 -0.5485 -0.1797
  487MOL0     C67091   3.423   8.026   9.364 -0.3899  0.1727  0.0743
  487MOL0     O67092   3.329   8.128   9.405 -0.4529 -0.0044 -0.4380
  487MOL0     C67093   3.239   8.176   9.314 -0.3466  0.6977  0.1226
  487MOL0     C67094   3.221   8.126   9.184  0.4928 -0.0899 -0.0461
  487MOL0     C67095   3.133   8.190   9.097 -0.2094  0.5972  0.7588
  487MOL0     C67096   3.125   8.137   8.954 -0.1404 -0.2440 -0.3087
  487MOL0     C67097   3.078   8.314   9.134  0.0388  0.0421 -0.1272
  487MOL0     C67098   2.993   8.392   9.042  1.1645  0.2981  0.5710
  487MOL0     O67099   2.996   8.363   8.915 -0.8195  0.7412 -0.1840
  487MOL0     C67100   2.977   8.453   8.817 -1.6686  0.0739  0.2958
  487MOL0     C67101   2.969   8.411   8.687 -0.1126  0.2281  0.1830
  487MOL0     C67102   2.977   8.502   8.583 -0.3359 -0.0366  0.3979
  487MOL0     C67103   2.974   8.640   8.599 -0.9106 -0.4295 -0.3419
  487MOL0     O67104   2.966   8.723   8.490  0.0674  0.4514 -0.0655
  487MOL0     C67105   3.051   8.672   8.378  0.4527 -0.8688  0.1262
  487MOL0     C67106   3.106   8.792   8.294 -0.7414 -0.2439 -0.2713
  487MOL0     C67107   3.000   8.905   8.273 -0.0898 -0.3108  0.2087
  487MOL0     C67108   3.050   9.023   8.199 -0.3822  0.8060 -0.2797
  487MOL0     C67109   2.942   9.131   8.179 -0.1273  0.5348  0.5174
  487MOL0     C67110   3.002   9.236   8.077  0.5541 -1.1381 -0.4861
  487MOL0     C67111   2.885   9.337   8.046  0.3887  0.3492 -0.5104
  487MOL0     C67112   2.910   9.426   7.922  0.4787 -0.7812  0.0143
  487MOL0    Cl67113   3.053   9.539   7.973 -0.0290  0.2551  0.1773
  487MOL0     C67114   2.993   8.685   8.734 -0.3303  0.1149 -0.1222
  487MOL0     C67115   3.006   8.587   8.834  0.2166 -0.2484 -0.1478
  487MOL0     O67116   2.915   8.465   9.092 -0.3089 -0.5287  0.0930
  487MOL0     C67117   3.104   8.365   9.257 -0.3191  0.2673 -0.8725
  487MOL0     C67118   3.187   8.298   9.346 -0.1924  0.4137  0.5690
  487MOL0     N67119   3.820   8.078   9.825  0.5122  0.4802  0.4519
  487MOL0     N67120   3.803   8.101   9.955 -0.2230  0.8076  0.1108
  487MOL0     C67121   3.960   9.165   9.806  0.0694  0.4133  0.6481
  487MOL0     C67122   3.997   9.295   9.801  0.9443 -0.6256 -0.1166
  487MOL0     C67123   4.214   9.691   9.876  0.1838 -0.5559  0.1657
  487MOL0     C67124   4.245   9.746   9.752  0.4454 -0.5265 -0.2168
  487MOL0     C67125   4.261   9.876   9.731  0.1141  0.3605 -1.1380
  487MOL0     C67126   4.243   9.961   9.838  0.4172  0.5832  0.3604
  487MOL0     O67127   4.255  10.097   9.812  0.5325  0.6095 -0.2540
  487MOL0     C67128   4.264  10.192   9.922  0.2908  0.4994  0.1067
  487MOL0     C67129   4.334  10.314   9.877 -0.8183  0.6812  0.1385
  487MOL0     C67130   4.489  10.291   9.859 -0.5257 -0.5609 -0.8692
  487MOL0     C67131   4.571  10.293   9.993  0.4445  0.1400 -0.0029
  487MOL0     C67132   4.653  10.414  10.005 -0.9853 -1.3357 -0.8448
  487MOL0     C67133   4.740  10.501  10.004  0.1836  0.7420 -0.0212
  487MOL0     C67134   4.224   9.909   9.965 -0.6279 -0.1930  0.0128
  487MOL0     C67135   4.214   9.771   9.989  0.0913  1.1087 -0.3360
  487MOL0     C67136   4.184   9.735  10.128 -0.7553  0.9245 -0.5485
  487MOL0     H67137   4.324   9.287   9.733  0.4275 -2.0329 -2.9104
  487MOL0     H67138   4.273   9.037   9.736 -0.8521 -1.1134 -0.7354
  487MOL0     H67139   4.074   8.926  10.003  0.4951  0.9894 -1.0685
  487MOL0     H67140   4.204   8.876   9.895  0.5052 -0.5913  2.8915
  487MOL0     H67141   4.057   8.696   9.810  0.9307 -1.2064  0.7640
  487MOL0     H67142   4.104   8.671   9.976  1.3375  2.5184  0.5777
  487MOL0     H67143   3.910   8.793  10.061  4.1479  0.4992 -0.5500
  487MOL0     H67144   3.839   8.783   9.893  1.6540 -0.1880 -2.1797
  487MOL0     H67145   3.831   8.535   9.907  2.9114 -0.4332  0.1703
  487MOL0     H67146   3.931   8.542  10.056 -1.0256 -1.2138  0.4519
  487MOL0     H67147   3.656   8.688  10.052 -1.7496 -0.8918  1.3207
  487MOL0     H67148   3.748   8.639  10.187 -2.1936  2.7843 -0.6064
  487MOL0     H67149   3.538   8.506  10.102  0.1167 -0.0914 -0.2605
  487MOL0     H67150   3.649   8.461   9.964 -0.6736  1.5533 -1.0865
  487MOL0     H67151   3.662   8.376  10.260  0.3127 -1.1237  1.2468
  487MOL0     H67152   3.809   8.377  10.167  0.0761 -0.0150 -0.9519
  487MOL0     H67153   3.657   8.156  10.172 -0.3052 -1.2052 -2.2250
  487MOL0     H67154   3.539   8.254  10.083 -0.4621 -1.6273 -2.6840
  487MOL0     H67155   3.563   8.284   9.836  1.4044  1.1871 -2.2706
  487MOL0     H67156   3.781   8.113   9.570  1.1210  1.2321  0.2110
  487MOL0     H67157   3.671   8.258   9.598 -1.0747 -0.2763 -0.9963
  487MOL0     H67158   3.579   7.964   9.618 -1.2883 -2.0936 -2.2904
  487MOL0     H67159   3.483   8.112   9.616  1.4045  2.6611  0.1120
  487MOL0     H67160   3.588   8.146   9.356  1.7584  0.0333  1.5490
  487MOL0     H67161   3.633   7.978   9.392  0.5554  0.0633  0.6670
  487MOL0     H67162   3.428   8.024   9.255  0.7407  4.7955 -0.1753
  487MOL0     H67163   3.393   7.931   9.409 -2.6382  0.7643 -0.0719
  487MOL0     H67164   3.269   8.040   9.140 -0.3903 -0.5369 -0.1647
  487MOL0     H67165   3.201   8.182   8.890  0.7177 -0.0499  0.8107
  487MOL0     H67166   3.021   8.141   8.919 -0.7169  3.0311  1.3576
  487MOL0     H67167   3.152   8.032   8.970  1.8253  0.3894  0.7741
  487MOL0     H67168   2.958   8.304   8.670  1.7662  0.1968 -1.2253
  487MOL0     H67169   2.956   8.463   8.484  1.9665 -0.3601 -0.0288
  487MOL0     H67170   3.135   8.614   8.418  2.7055  1.4798 -0.8896
  487MOL0     H67171   2.986   8.612   8.313  1.5119  0.2108 -2.0609
  487MOL0     H67172   3.199   8.827   8.340  0.5102 -1.8526 -1.4756
  487MOL0     H67173   3.127   8.750   8.195  3.3920 -2.5918  1.3491
  487MOL0     H67174   2.953   8.929   8.369 -0.0798 -1.3761  0.4948
  487MOL0     H67175   2.927   8.853   8.210  2.2428  1.4190 -4.3898
  487MOL0     H67176   3.094   8.996   8.102  0.4110  1.2588 -0.0561
  487MOL0     H67177   3.130   9.057   8.265 -2.7676  0.3096  3.1377
  487MOL0     H67178   2.855   9.085   8.130 -0.9548  1.6248  0.9277
  487MOL0     H67179   2.913   9.170   8.277 -0.9690 -4.2032  2.4198
  487MOL0     H67180   3.047   9.183   7.993  1.4378 -0.8480 -0.2090
  487MOL0     H67181   3.088   9.283   8.125  0.6570 -0.8807 -0.9260
  487MOL0     H67182   2.870   9.408   8.128  0.2859  1.1266 -1.1932
  487MOL0     H67183   2.793   9.278   8.047  0.4065  0.1738 -3.0071
  487MOL0     H67184   2.818   9.480   7.900  1.0927 -0.0145 -0.7305
  487MOL0     H67185   2.944   9.379   7.830  1.1219  3.3098 -2.0540
  487MOL0     H67186   3.004   8.791   8.754  0.3131  0.2106 -0.9310
  487MOL0     H67187   3.030   8.621   8.935 -2.7212  1.1131  0.1809
  487MOL0     H67188   3.059   8.457   9.293 -0.1808  0.1884 -0.4814
  487MOL0     H67189   3.198   8.348   9.442  1.0688  1.5220 -0.1225
  487MOL0     H67190   3.856   9.136   9.815  0.9347 -3.3065  0.3430
  487MOL0     H67191   3.920   9.369   9.821  1.9551  0.5436 -0.3784
  487MOL0     H67192   4.236   9.679   9.666 -3.6769 -1.6804  0.8907
  487MOL0     H67193   4.290   9.925   9.638 -1.3108  2.6706 -0.4711
  487MOL0     H67194   4.161  10.217   9.948 -0.8198  0.1782 -3.4675
  487MOL0     H67195   4.320  10.158  10.009  0.6257 -0.5766 -0.5066
  487MOL0     H67196   4.323  10.408   9.932  2.7085  1.7456 -0.7044
  487MOL0     H67197   4.290  10.337   9.779  0.3085  2.6413  0.0336
  487MOL0     H67198   4.501  10.200   9.800 -0.1481 -1.3810  0.4495
  487MOL0     H67199   4.526  10.384   9.814  0.1445  0.2359  1.2037
  487MOL0     H67200   4.643  10.210   9.997  0.8230  0.4947  0.7671
  487MOL0     H67201   4.510  10.301  10.084  1.5169 -2.2545  1.0199
  487MOL0     H67202   4.808  10.584  10.006 -1.1295  1.8428  0.1056
  487MOL0     H67203   4.206   9.975  10.050 -0.7091  1.7408 -1.4389
  487MOL0     H67204   4.078   9.713  10.138 -0.7567  1.8516  2.1807
  487MOL0     H67205   4.240   9.647  10.162 -0.7619  0.0611 -2.6319
  487MOL0     H67206   4.207   9.809  10.205 -1.2400  0.6125 -0.0972
  488MOL0     O67207   1.525   0.928   9.920  0.2192  0.2220  0.2030
  488MOL0     C67208   1.487   0.949  10.038 -0.7326  0.5096 -0.0792
  488MOL0     O67209   1.425   0.855  10.121  1.0613  0.3362 -0.7518
  488MOL0     C67210   1.376   0.730  10.075  0.2386  0.8245  0.3226
  488MOL0     C67211   1.429   0.652   9.974 -0.1940 -0.1115  0.8985
  488MOL0     C67212   1.376   0.523   9.956 -0.1634  0.3519  0.2185
  488MOL0     C67213   1.265   0.471  10.033 -0.2925  0.4149  0.1598
  488MOL0     O67214   1.224   0.343   9.999  0.4715  0.2650  0.1115
  488MOL0     C67215   1.113   0.282  10.059 -0.0365 -0.6333 -0.3010
  488MOL0     C67216   1.077   0.153   9.969 -0.8400 -0.0741 -0.6936
  488MOL0     C67217   1.145   0.025  10.025  0.2753  0.8769  0.0760
  488MOL0     C67218   1.141  -0.102   9.924  0.8121 -0.5102  0.2062
  488MOL0     C67219   1.210  -0.225   9.989  0.7763  0.6066 -0.2102
  488MOL0     C67220   1.188  -0.353   9.904 -0.0346  0.7542 -0.1546
  488MOL0     C67221   1.235  -0.478   9.984 -0.4493 -0.2854  0.7102
  488MOL0     C67222   1.226  -0.606   9.892  0.1598 -0.7096  0.1766
  488MOL0     N67223   1.346  -0.697   9.895  0.3076  0.6191 -0.2387
  488MOL0     C67224   1.412  -0.754  10.003  1.2958  0.1144  0.7540
  488MOL0     C67225   1.525  -0.812   9.955 -0.0157  0.1290  0.4458
  488MOL0     C67226   1.638  -0.860  10.048  0.2848  0.1170 -1.1456
  488MOL0     C67227   1.692  -0.745  10.132 -0.3001  0.7303 -0.0001
  488MOL0     C67228   1.718  -0.612  10.056 -1.3918 -0.7417  0.2652
  488MOL0     C67229   1.861  -0.622  10.003  0.5101 -0.4447 -0.0016
  488MOL0     O67230   1.887  -0.731   9.907 -0.5636 -0.7121 -1.1371
  488MOL0     C67231   1.863  -0.724   9.779 -0.0051 -0.1960  0.6663
  488MOL0     C67232   1.774  -0.631   9.721  1.2316 -0.4578  0.7226
  488MOL0     C67233   1.733  -0.643   9.582  0.1006  0.7612 -0.5232
  488MOL0     C67234   1.629  -0.545   9.534  0.1597 -0.7358  0.4000
  488MOL0     C67235   1.787  -0.742   9.507 -0.1521 -0.4050 -0.2478
  488MOL0     C67236   1.764  -0.759   9.360 -0.2433 -0.1259  0.1307
  488MOL0     O67237   1.650  -0.810   9.314 -0.0507  0.6326 -0.1564
  488MOL0     C67238   1.615  -0.794   9.180 -0.2207 -0.2271 -0.4604
  488MOL0     C67239   1.494  -0.731   9.148  0.1902  0.6338  0.9230
  488MOL0     C67240   1.463  -0.696   9.011  0.4223  0.4545 -0.0026
  488MOL0     C67241   1.527  -0.769   8.907 -0.7287 -0.9715 -0.7607
  488MOL0     O67242   1.483  -0.776   8.773 -0.2401 -0.8430 -1.0007
  488MOL0     C67243   1.357  -0.748   8.737 -0.9316 -0.6027 -0.0209
  488MOL0     C67244   1.243  -0.820   8.818  0.1931  0.3633 -0.1858
  488MOL0     C67245   1.225  -0.959   8.770  0.5944  0.6266 -1.0059
  488MOL0     C67246   1.304  -1.055   8.871  0.0557  0.6958 -0.0268
  488MOL0     C67247   1.292  -1.204   8.841 -0.1584 -0.7649 -0.2286
  488MOL0     C67248   1.357  -1.296   8.943 -0.8502  0.1815  0.1578
  488MOL0     C67249   1.292  -1.287   9.086  0.4994  0.7797  0.5540
  488MOL0     C67250   1.387  -1.324   9.201 -0.0077  0.3382  0.6382
  488MOL0    Cl67251   1.413  -1.501   9.193  0.1688 -0.4104 -0.0112
  488MOL0     C67252   1.643  -0.850   8.939  0.1742 -0.1073  0.4945
  488MOL0     C67253   1.684  -0.851   9.076  0.4302  0.3927  0.3151
  488MOL0     O67254   1.853  -0.711   9.289  0.6132  0.2808  0.2209
  488MOL0     C67255   1.889  -0.823   9.569 -0.0706 -0.5524 -0.7922
  488MOL0     C67256   1.926  -0.810   9.699  0.7549 -0.3295 -0.1061
  488MOL0     N67257   1.523  -0.797   9.820 -0.1170  0.3139  0.6257
  488MOL0     N67258   1.422  -0.726   9.789 -0.4246  1.0542  0.3512
  488MOL0     C67259   1.201   0.558  10.130  0.0757  0.6427  0.6357
  488MOL0     C67260   1.262   0.682  10.146 -0.0903  0.6230 -0.3666
  488MOL0     C67261   1.523   1.078  10.102 -0.5613  0.6732 -0.9838
  488MOL0     C67262   1.454   1.115  10.222  0.2756  0.6984 -0.4880
  488MOL0     C67263   1.476   1.229  10.287 -0.6546 -0.0188 -0.1370
  488MOL0     C67264   1.559   1.329  10.233 -0.1823  1.4303 -0.2290
  488MOL0     O67265   1.603   1.442  10.293 -0.0639 -0.3231  0.0683
  488MOL0     C67266   1.571   1.471  10.428  0.3381  0.4966  0.2926
  488MOL0     C67267   1.590   1.619  10.457 -0.8266  0.4210 -0.1032
  488MOL0     C67268   1.484   1.701  10.393  0.2381 -0.0674  0.3431
  488MOL0     C67269   1.523   1.845  10.434  0.2060 -0.4247 -0.1619
  488MOL0     C67270   1.642   1.891  10.367  0.1309 -0.6318 -0.3734
  488MOL0     C67271   1.756   1.931  10.328  0.1301 -0.5781 -0.0146
  488MOL0     C67272   1.625   1.301  10.114 -1.4891 -0.5286  0.4587
  488MOL0     C67273   1.613   1.175  10.044 -0.8273  0.1734 -0.0673
  488MOL0     C67274   1.692   1.150   9.915  0.3396 -0.0199 -0.0425
  488MOL0     H67275   1.525   0.682   9.933 -0.2858 -0.8932  0.1043
  488MOL0     H67276   1.433   0.452   9.896 -1.4446 -0.2165 -0.3624
  488MOL0     H67277   1.021   0.341  10.048  0.1042 -0.4087 -0.2665
  488MOL0     H67278   1.120   0.239  10.159 -3.2519 -0.7086 -0.0093
  488MOL0     H67279   0.968   0.153   9.979 -1.0768  2.9316 -2.2494
  488MOL0     H67280   1.122   0.173   9.871 -0.2600  0.7535 -0.2656
  488MOL0     H67281   1.251   0.044  10.044  0.9533  1.0831 -3.1960
  488MOL0     H67282   1.100  -0.018  10.115  2.3598 -1.9588 -0.1175
  488MOL0     H67283   1.034  -0.120   9.907  0.8623 -2.7610  1.7830
  488MOL0     H67284   1.196  -0.077   9.833  1.2721 -1.8315  0.1004
  488MOL0     H67285   1.177  -0.247  10.091 -1.5241 -1.7222 -1.3437
  488MOL0     H67286   1.310  -0.180   9.991 -0.2978  3.1305  0.4513
  488MOL0     H67287   1.083  -0.359   9.874  0.5187  0.4030 -2.1847
  488MOL0     H67288   1.246  -0.345   9.811 -1.2740 -0.2089 -1.0242
  488MOL0     H67289   1.167  -0.488  10.069 -0.5504 -0.4871  0.6061
  488MOL0     H67290   1.339  -0.470  10.017  0.7241 -1.8989 -2.2355
  488MOL0     H67291   1.140  -0.664   9.924 -0.6956  0.4521  0.0654
  488MOL0     H67292   1.207  -0.581   9.788 -5.4376 -2.4993  0.4428
  488MOL0     H67293   1.381  -0.745  10.106  1.9237  0.4557  0.9196
  488MOL0     H67294   1.718  -0.912   9.995  0.9736 -0.1207  0.0957
  488MOL0     H67295   1.593  -0.939  10.109 -1.7659  2.0525  0.0113
  488MOL0     H67296   1.618  -0.723  10.210 -0.0821 -2.1602  1.1562
  488MOL0     H67297   1.785  -0.776  10.181 -0.7742  2.2909  2.0315
  488MOL0     H67298   1.649  -0.587   9.975 -0.0084  2.0680 -0.1444
  488MOL0     H67299   1.708  -0.520  10.114  1.6356  0.6216 -1.1478
  488MOL0     H67300   1.888  -0.520   9.974  0.7101 -0.1048  1.3266
  488MOL0     H67301   1.931  -0.643  10.084 -1.0414 -1.4975  1.1142
  488MOL0     H67302   1.705  -0.567   9.776 -1.1653 -1.2562 -1.1798
  488MOL0     H67303   1.562  -0.505   9.611 -0.3284 -2.1070  0.7236
  488MOL0     H67304   1.565  -0.607   9.470  1.8889  0.6185 -2.8353
  488MOL0     H67305   1.678  -0.464   9.480  1.2045 -0.9627  0.9920
  488MOL0     H67306   1.431  -0.689   9.226 -1.3381  1.2036 -0.5550
  488MOL0     H67307   1.377  -0.639   8.977 -1.5272 -3.2749 -1.9013
  488MOL0     H67308   1.345  -0.643   8.766  2.8546 -0.2438  0.8097
  488MOL0     H67309   1.344  -0.749   8.628 -1.0603 -1.1019 -0.0018
  488MOL0     H67310   1.267  -0.812   8.925 -0.3944 -0.8063  0.0567
  488MOL0     H67311   1.144  -0.773   8.816 -0.2500 -0.5697 -0.8998
  488MOL0     H67312   1.267  -0.970   8.670  0.5830  0.2054 -0.9655
  488MOL0     H67313   1.119  -0.985   8.762  0.4121  1.0165  0.0242
  488MOL0     H67314   1.269  -1.031   8.972  1.4616 -3.3098  1.6092
  488MOL0     H67315   1.408  -1.023   8.864  0.7950 -1.6725 -0.6782
  488MOL0     H67316   1.184  -1.219   8.832 -0.3795 -0.3812  1.4981
  488MOL0     H67317   1.345  -1.224   8.747 -2.1459  0.4947 -1.6992
  488MOL0     H67318   1.464  -1.278   8.962 -1.2139  0.3798  2.2493
  488MOL0     H67319   1.355  -1.403   8.917 -0.0062 -0.2538  1.7407
  488MOL0     H67320   1.214  -1.363   9.088  0.9743  0.2423 -0.4779
  488MOL0     H67321   1.253  -1.188   9.112  0.9917  1.3366 -0.7072
  488MOL0     H67322   1.354  -1.282   9.297  1.0181  1.0366  0.7068
  488MOL0     H67323   1.482  -1.269   9.197  1.1895 -1.6364  0.7161
  488MOL0     H67324   1.692  -0.918   8.870  1.2780 -1.2705  2.3448
  488MOL0     H67325   1.774  -0.902   9.109 -0.0715  0.5793  2.0301
  488MOL0     H67326   1.937  -0.898   9.507  0.9893 -1.3315  0.9030
  488MOL0     H67327   2.003  -0.876   9.741  1.0045 -0.5828 -0.9454
  488MOL0     H67328   1.112   0.539  10.188  1.7569 -1.4792  2.7186
  488MOL0     H67329   1.231   0.755  10.220  4.0676  3.1333 -0.7553
  488MOL0     H67330   1.381   1.047  10.263 -0.0851  0.5419 -1.3724
  488MOL0     H67331   1.420   1.243  10.379  0.6206 -0.0809  0.6731
  488MOL0     H67332   1.469   1.445  10.457 -0.8916  2.6087 -1.7358
  488MOL0     H67333   1.622   1.407  10.500  0.1793 -1.9077 -1.6316
  488MOL0     H67334   1.695   1.638  10.431 -1.2259  2.1092 -0.5850
  488MOL0     H67335   1.586   1.629  10.566  2.4623 -0.4993  0.2093
  488MOL0     H67336   1.488   1.692  10.284  0.2372  3.4959 -0.0558
  488MOL0     H67337   1.380   1.681  10.421 -0.0089  0.2146 -0.3755
  488MOL0     H67338   1.545   1.863  10.540  0.5472  2.1845 -0.6135
  488MOL0     H67339   1.439   1.910  10.410  1.1812 -0.2059 -3.5629
  488MOL0     H67340   1.848   1.980  10.305 -0.0740 -0.0678  0.2286
  488MOL0     H67341   1.694   1.375  10.075 -2.2284 -1.5343 -3.1225
  488MOL0     H67342   1.627   1.154   9.828  1.6572  1.6943 -1.0265
  488MOL0     H67343   1.768   1.228   9.903 -1.6081  2.1199  0.7367
  488MOL0     H67344   1.740   1.052   9.909 -0.4571 -0.3290 -2.2999
  489MOL0     O67345   8.519   3.500   5.201  1.0211  0.4217 -0.0719
  489MOL0     C67346   8.442   3.525   5.288  0.0437 -0.5070 -0.0573
  489MOL0     O67347   8.340   3.448   5.328 -0.1611  0.6623 -0.3852
  489MOL0     C67348   8.283   3.367   5.229  0.6256  1.0817  0.0594
  489MOL0     C67349   8.243   3.237   5.266 -0.7048  0.4934  0.0629
  489MOL0     C67350   8.211   3.150   5.167  0.0135  0.2793 -0.1742
  489MOL0     C67351   8.207   3.190   5.030 -0.2764  0.8065  1.1266
  489MOL0     O67352   8.197   3.102   4.924  0.2254 -0.1555 -0.6441
  489MOL0     C67353   8.198   2.961   4.951 -0.3647  0.1836  0.1568
  489MOL0     C67354   8.156   2.874   4.821 -0.0202  0.4084 -0.8858
  489MOL0     C67355   8.255   2.915   4.707 -0.0198 -0.4619 -0.7189
  489MOL0     C67356   8.293   2.802   4.613  0.1321  0.0186  0.2908
  489MOL0     C67357   8.415   2.832   4.526  0.2513  0.2702  0.6988
  489MOL0     C67358   8.380   2.917   4.393  0.1517 -0.2189 -0.4698
  489MOL0     C67359   8.487   2.893   4.284  0.1511 -0.5411 -0.0295
  489MOL0     C67360   8.476   2.990   4.172  0.8058 -0.4551 -0.3258
  489MOL0     N67361   8.596   3.019   4.101  0.3556 -0.2329  0.6648
  489MOL0     C67362   8.708   3.075   4.148 -0.1032 -0.4365 -0.2771
  489MOL0     C67363   8.813   3.037   4.074 -1.0247 -0.1155  0.4515
  489MOL0     C67364   8.960   3.076   4.098  0.5733  0.5580  0.0353
  489MOL0     C67365   8.993   3.091   4.249 -0.4589 -0.9250  0.2807
  489MOL0     C67366   8.980   3.233   4.311  0.6461 -0.9837 -0.2505
  489MOL0     C67367   9.052   3.248   4.447  1.0087  0.0340  0.9112
  489MOL0     O67368   9.193   3.254   4.421  0.8157  0.7035  0.0143
  489MOL0     C67369   9.284   3.196   4.501 -0.0717 -0.0474  0.5534
  489MOL0     C67370   9.414   3.157   4.450  0.0614 -0.1029 -0.4911
  489MOL0     C67371   9.520   3.116   4.526 -0.1876  0.1973 -0.2432
  489MOL0     C67372   9.643   3.084   4.448  0.8965 -0.4685  0.2120
  489MOL0     C67373   9.497   3.084   4.667  0.7674 -0.1974  0.1221
  489MOL0     C67374   9.599   3.024   4.755  0.8354  0.8236 -0.5565
  489MOL0     O67375   9.551   2.938   4.850 -0.0587  0.3578  0.4119
  489MOL0     C67376   9.640   2.915   4.956 -0.1927  0.9025  0.3507
  489MOL0     C67377   9.712   3.015   5.024  0.3630 -0.0875  0.0922
  489MOL0     C67378   9.802   2.980   5.127 -0.8407 -0.1519 -0.5768
  489MOL0     C67379   9.831   2.847   5.151  0.8013 -0.1067 -0.9755
  489MOL0     O67380   9.922   2.808   5.237 -0.7139 -0.6351  0.6279
  489MOL0     C67381  10.053   2.791   5.199 -0.4948 -0.3605  0.0421
  489MOL0     C67382  10.140   2.761   5.319 -0.5488 -0.2105  0.0114
  489MOL0     C67383  10.149   2.889   5.419 -0.5197 -0.7907  0.1911
  489MOL0     C67384  10.230   2.998   5.359 -0.1021 -0.1983  0.1263
  489MOL0     C67385  10.373   3.002   5.418  1.5497  0.3148  1.2308
  489MOL0     C67386  10.451   3.122   5.350  0.3900 -0.0306  0.5377
  489MOL0     C67387  10.404   3.257   5.394 -0.4490 -0.1680 -0.0809
  489MOL0     C67388  10.513   3.363   5.400  0.0830 -0.4701  0.0458
  489MOL0    Cl67389  10.429   3.517   5.366  0.2967  0.0398 -0.6452
  489MOL0     C67390   9.753   2.748   5.091 -0.1565 -0.5985  0.0043
  489MOL0     C67391   9.651   2.782   4.996  0.0057 -1.0844  0.2090
  489MOL0     O67392   9.713   3.044   4.722 -0.3585  0.5158 -0.0499
  489MOL0     C67393   9.376   3.121   4.716  0.1787  0.1894 -0.3354
  489MOL0     C67394   9.280   3.183   4.638  0.2394 -0.4596 -0.2475
  489MOL0     N67395   8.763   2.963   3.973 -0.0104 -0.4850 -0.0837
  489MOL0     N67396   8.631   2.952   3.986 -0.3149 -0.5006 -0.8676
  489MOL0     C67397   8.235   3.323   4.994  0.1379 -0.7954  0.5319
  489MOL0     C67398   8.268   3.408   5.094 -0.7385 -0.5266  0.8449
  489MOL0     C67399   8.465   3.656   5.362  0.1304  0.1136 -0.1189
  489MOL0     C67400   8.544   3.751   5.305 -0.0828  0.7282 -0.0250
  489MOL0     C67401   8.560   3.877   5.351  0.9623  0.3251 -0.0636
  489MOL0     C67402   8.484   3.926   5.459 -0.6978  0.3416  0.2266
  489MOL0     O67403   8.495   4.055   5.503 -0.3465 -0.1379 -0.6442
  489MOL0     C67404   8.402   4.148   5.443  0.4786  0.2746  0.1602
  489MOL0     C67405   8.369   4.263   5.543 -0.0486 -0.8117 -0.9546
  489MOL0     C67406   8.298   4.199   5.667 -0.4618 -0.3184  0.3836
  489MOL0     C67407   8.231   4.313   5.759 -0.0337  1.3673 -0.1922
  489MOL0     C67408   8.094   4.346   5.737  1.0314 -0.1439 -0.3172
  489MOL0     C67409   7.981   4.375   5.699 -0.2848  0.7814  0.5304
  489MOL0     C67410   8.405   3.832   5.517  0.3251 -0.0085  0.6343
  489MOL0     C67411   8.387   3.700   5.474 -0.0967  0.7438  0.1615
  489MOL0     C67412   8.297   3.605   5.555 -0.6602  0.3684 -0.8913
  489MOL0     H67413   8.266   3.208   5.368  1.4677 -1.3525 -0.8410
  489MOL0     H67414   8.198   3.047   5.196  1.6214  0.9369  3.3641
  489MOL0     H67415   8.122   2.938   5.027 -2.3440  1.2575 -1.3801
  489MOL0     H67416   8.300   2.933   4.978  2.5093  5.8948 -3.0204
  489MOL0     H67417   8.170   2.772   4.861  1.8975  1.7522  2.2879
  489MOL0     H67418   8.052   2.897   4.797 -0.5791 -2.9925 -2.3659
  489MOL0     H67419   8.202   2.988   4.645 -5.0995 -2.8708  0.2478
  489MOL0     H67420   8.350   2.953   4.745 -0.3816  0.5764 -0.8136
  489MOL0     H67421   8.322   2.719   4.678  4.5339  2.8480  2.4640
  489MOL0     H67422   8.205   2.761   4.563  1.4303 -1.0160 -1.2364
  489MOL0     H67423   8.455   2.737   4.490 -2.2931  0.2392 -2.5191
  489MOL0     H67424   8.492   2.890   4.577  2.6648 -0.8046 -1.4912
  489MOL0     H67425   8.281   2.879   4.366 -1.1649 -1.1842  4.6270
  489MOL0     H67426   8.363   3.019   4.428 -2.2718 -1.5045  2.5809
  489MOL0     H67427   8.487   2.786   4.265 -5.0265 -0.8603  0.3143
  489MOL0     H67428   8.587   2.906   4.326 -0.4306  0.7862  1.0505
  489MOL0     H67429   8.396   2.959   4.105 -1.4180  1.9140  1.0709
  489MOL0     H67430   8.433   3.079   4.217 -0.6244 -0.9128 -0.7459
  489MOL0     H67431   8.711   3.141   4.234  0.7672 -0.2656 -0.4264
  489MOL0     H67432   8.981   3.163   4.034 -1.4761  0.1039 -1.3618
  489MOL0     H67433   9.016   2.994   4.052 -0.0652 -1.0481  1.9996
  489MOL0     H67434   8.932   3.026   4.312 -0.5031  0.3951  1.6580
  489MOL0     H67435   9.098   3.061   4.260 -0.3819 -1.6445 -1.9204
  489MOL0     H67436   9.004   3.312   4.239 -1.5212  0.2102  0.2695
  489MOL0     H67437   8.873   3.251   4.325  0.8524  0.7018 -0.5954
  489MOL0     H67438   9.036   3.340   4.504 -1.7388  0.3085 -0.1448
  489MOL0     H67439   9.026   3.158   4.504 -0.3141  0.0162  0.3125
  489MOL0     H67440   9.426   3.147   4.343  2.2719 -0.9448 -0.2102
  489MOL0     H67441   9.689   2.994   4.488  0.9729 -0.8519 -0.7233
  489MOL0     H67442   9.722   3.160   4.457  1.2541 -0.2332 -3.3954
  489MOL0     H67443   9.622   3.047   4.347  1.6240  0.1352 -0.1695
  489MOL0     H67444   9.690   3.114   4.986  0.8794 -1.3643 -3.9694
  489MOL0     H67445   9.855   3.062   5.174 -1.4510 -0.1341  0.0919
  489MOL0     H67446  10.060   2.706   5.130 -0.8217 -1.9221  1.8276
  489MOL0     H67447  10.089   2.879   5.145  0.9835  0.3980  2.1047
  489MOL0     H67448  10.102   2.677   5.377  0.7183 -1.1596 -0.4920
  489MOL0     H67449  10.242   2.727   5.297 -1.1262 -0.5338 -2.6006
  489MOL0     H67450  10.176   2.857   5.521 -2.3513 -2.2600  0.2787
  489MOL0     H67451  10.050   2.927   5.446  1.0694  5.2201 -1.0373
  489MOL0     H67452  10.188   3.098   5.372 -1.3850 -0.7802  0.5784
  489MOL0     H67453  10.238   2.979   5.252 -1.0924 -0.9857  0.1807
  489MOL0     H67454  10.362   3.024   5.525  0.1824 -2.0773  1.6624
  489MOL0     H67455  10.425   2.909   5.392 -0.1705 -0.1645 -0.7412
  489MOL0     H67456  10.428   3.109   5.244 -0.5789  0.0438  0.7287
  489MOL0     H67457  10.558   3.103   5.367  1.3434 -2.0667 -5.3789
  489MOL0     H67458  10.379   3.241   5.499  0.6577 -0.4444  0.1577
  489MOL0     H67459  10.315   3.287   5.338 -0.1678  2.6309  0.8552
  489MOL0     H67460  10.602   3.341   5.340  2.3718 -0.9139  3.3728
  489MOL0     H67461  10.550   3.360   5.502  0.8991 -2.5689 -0.2618
  489MOL0     H67462   9.771   2.643   5.112 -1.2315 -0.6228  0.8908
  489MOL0     H67463   9.584   2.713   4.947 -0.2892  1.8026 -3.9794
  489MOL0     H67464   9.358   3.129   4.823 -1.3611  3.0127 -0.6955
  489MOL0     H67465   9.189   3.228   4.679  1.8166  1.6011  1.2402
  489MOL0     H67466   8.232   3.350   4.889  1.6391 -0.9229  0.4400
  489MOL0     H67467   8.287   3.510   5.061  0.4899 -0.0693  2.7805
  489MOL0     H67468   8.610   3.737   5.220  1.0948  4.2848  0.1595
  489MOL0     H67469   8.622   3.938   5.287 -2.2651  2.3091 -1.5630
  489MOL0     H67470   8.451   4.184   5.352  0.6238 -2.4893 -0.9346
  489MOL0     H67471   8.308   4.096   5.423  1.3986 -2.5247  2.4592
  489MOL0     H67472   8.296   4.327   5.493  0.0314 -1.9665 -2.6388
  489MOL0     H67473   8.460   4.316   5.571 -0.4197 -0.9646  0.5890
  489MOL0     H67474   8.225   4.127   5.628  2.4713 -2.3733 -1.6934
  489MOL0     H67475   8.367   4.140   5.727 -0.9736 -1.9778 -0.5692
  489MOL0     H67476   8.292   4.403   5.744 -0.5353  1.4279 -2.2621
  489MOL0     H67477   8.236   4.286   5.864 -2.3711 -3.4496 -1.0495
  489MOL0     H67478   7.882   4.376   5.659  0.0317  0.0861 -0.3080
  489MOL0     H67479   8.343   3.869   5.599 -0.2202  0.4896  0.0043
  489MOL0     H67480   8.281   3.646   5.655  1.4290  1.6229 -1.0251
  489MOL0     H67481   8.205   3.588   5.498 -0.3380  2.2502 -2.0511
  489MOL0     H67482   8.347   3.511   5.581 -3.2582 -0.7585  0.5032
  490MOL0     O67483   5.068   6.219   1.079  0.0743 -0.8585  0.1913
  490MOL0     C67484   5.092   6.103   1.084 -0.3238  0.5195  0.5976
  490MOL0     O67485   5.107   6.036   1.196  0.0625  0.1617 -0.1047
  490MOL0     C67486   5.082   6.108   1.313  0.4482 -0.0212 -0.1445
  490MOL0     C67487   4.948   6.126   1.354  0.4994 -0.7579  0.4080
  490MOL0     C67488   4.920   6.185   1.477  0.3753  0.2601  0.4380
  490MOL0     C67489   5.026   6.230   1.554 -0.4663 -0.4666  0.3637
  490MOL0     O67490   5.000   6.305   1.672  0.0060  0.7562  0.9437
  490MOL0     C67491   4.952   6.439   1.638 -1.5265  0.3069  0.2108
  490MOL0     C67492   5.012   6.541   1.738  0.6117 -0.0880 -1.3164
  490MOL0     C67493   4.936   6.669   1.727  0.0820 -0.1077  0.1013
  490MOL0     C67494   5.008   6.793   1.760 -0.5319  0.0582  0.6842
  490MOL0     C67495   5.000   6.829   1.910  0.1011 -0.3602 -0.7866
  490MOL0     C67496   5.110   6.934   1.947  0.1080  0.1230 -0.0880
  490MOL0     C67497   5.085   6.995   2.081  0.2342 -0.2837 -0.4359
  490MOL0     C67498   5.201   7.090   2.102 -0.3738  0.2952  0.4531
  490MOL0     N67499   5.222   7.123   2.241 -0.7764  1.1434  0.5002
  490MOL0     C67500   5.196   7.238   2.304 -0.6806 -0.7799 -0.3815
  490MOL0     C67501   5.207   7.210   2.433  0.3506 -0.4839  0.3329
  490MOL0     C67502   5.182   7.311   2.544 -0.5883  0.1079 -0.1066
  490MOL0     C67503   5.298   7.328   2.652 -0.0166  0.2885  0.1875
  490MOL0     C67504   5.285   7.455   2.733  0.2489  0.7936  0.2759
  490MOL0     C67505   5.151   7.491   2.803  0.8863 -0.0083 -0.1733
  490MOL0     O67506   5.052   7.523   2.703 -0.6737  0.0617 -0.4874
  490MOL0     C67507   5.031   7.649   2.656 -1.1559  0.2047  0.0338
  490MOL0     C67508   4.911   7.674   2.574  0.0412 -0.6175 -1.1268
  490MOL0     C67509   4.869   7.804   2.529 -0.1611  0.0664  0.6941
  490MOL0     C67510   4.734   7.801   2.462  0.6822  0.4753 -0.8632
  490MOL0     C67511   4.957   7.913   2.537 -0.3700 -0.6630 -1.0402
  490MOL0     C67512   4.937   8.058   2.482 -0.1491  1.0385 -0.4527
  490MOL0     O67513   4.820   8.085   2.427 -0.5244 -0.6139  0.0506
  490MOL0     C67514   4.807   8.213   2.381 -0.1745  0.3925  0.2627
  490MOL0     C67515   4.806   8.327   2.461  0.5521 -0.8011  0.0813
  490MOL0     C67516   4.786   8.457   2.399  0.9266 -0.4189 -0.4230
  490MOL0     C67517   4.759   8.468   2.257 -0.6122 -0.0255  0.3785
  490MOL0     O67518   4.741   8.589   2.187 -0.2117  0.5407 -1.0653
  490MOL0     C67519   4.608   8.646   2.216  0.2631 -0.4381 -0.1944
  490MOL0     C67520   4.496   8.564   2.149 -0.1332 -0.4324  0.9007
  490MOL0     C67521   4.361   8.637   2.135 -0.4366  0.7049  0.1474
  490MOL0     C67522   4.261   8.533   2.102  0.9386  0.4843 -0.1227
  490MOL0     C67523   4.125   8.603   2.072  0.7476  0.0036  0.1247
  490MOL0     C67524   4.004   8.512   2.088  0.4130  0.1099 -0.7103
  490MOL0     C67525   4.021   8.399   1.980  0.2854  0.2262 -0.4587
  490MOL0     C67526   3.884   8.321   1.960 -0.1214 -0.8770 -0.5640
  490MOL0    Cl67527   3.899   8.170   1.870 -0.1296 -0.0159 -0.2109
  490MOL0     C67528   4.766   8.353   2.185 -0.7177 -0.1018 -0.1081
  490MOL0     C67529   4.783   8.227   2.245 -0.8039 -0.3818  0.9246
  490MOL0     O67530   5.032   8.144   2.501  0.2242 -0.2691 -0.0289
  490MOL0     C67531   5.081   7.879   2.604 -0.6534  0.0163 -0.3053
  490MOL0     C67532   5.119   7.758   2.668  0.2035 -0.4871  0.0835
  490MOL0     N67533   5.230   7.076   2.441  0.5530 -0.2239  0.0315
  490MOL0     N67534   5.250   7.024   2.329 -0.1309  0.2143 -0.4816
  490MOL0     C67535   5.155   6.209   1.521 -0.7473  0.0115  0.5912
  490MOL0     C67536   5.180   6.154   1.394  0.7672 -0.5504 -0.7831
  490MOL0     C67537   5.117   6.033   0.955 -0.1189 -0.4248 -0.8414
  490MOL0     C67538   5.115   6.104   0.837 -0.6474 -0.7078 -0.1784
  490MOL0     C67539   5.114   6.053   0.706 -0.2474  0.8903 -0.6076
  490MOL0     C67540   5.139   5.916   0.692 -1.2650  0.4990  1.2025
  490MOL0     O67541   5.130   5.853   0.560  0.3102  0.6263 -0.1474
  490MOL0     C67542   5.088   5.718   0.554 -1.1153  0.3925  0.7797
  490MOL0     C67543   4.941   5.700   0.605 -1.5877  0.4451  0.4916
  490MOL0     C67544   4.825   5.774   0.543 -0.0661  0.2391  0.9142
  490MOL0     C67545   4.816   5.915   0.589  0.2454  0.2407  0.6839
  490MOL0     C67546   4.766   5.931   0.720 -0.1459 -1.2312  0.5936
  490MOL0     C67547   4.709   5.955   0.825  0.1401  0.6774 -0.1005
  490MOL0     C67548   5.156   5.838   0.808 -0.4696 -0.0045  0.4511
  490MOL0     C67549   5.136   5.889   0.933 -0.3584 -0.1438 -0.0302
  490MOL0     C67550   5.149   5.792   1.053  0.1836 -0.7525 -0.5564
  490MOL0     H67551   4.868   6.105   1.284  1.8608  0.4174 -1.6181
  490MOL0     H67552   4.819   6.193   1.516 -0.4778  1.8121 -1.8537
  490MOL0     H67553   4.843   6.450   1.643 -1.9331 -1.7581 -1.9663
  490MOL0     H67554   4.994   6.455   1.538  1.5260 -5.8626  0.0011
  490MOL0     H67555   5.000   6.509   1.842 -5.1994 -2.4501 -2.3263
  490MOL0     H67556   5.119   6.555   1.723  0.7052  3.4553  1.3533
  490MOL0     H67557   4.917   6.687   1.620  5.2834 -0.6896 -1.1965
  490MOL0     H67558   4.847   6.665   1.790 -0.9135 -0.8973 -1.2990
  490MOL0     H67559   5.114   6.788   1.734  0.0296  1.9350  2.3432
  490MOL0     H67560   4.976   6.882   1.705  1.6428  1.1253  1.0492
  490MOL0     H67561   5.007   6.751   1.986 -0.3354 -0.1721 -0.5485
  490MOL0     H67562   4.898   6.866   1.925  0.4877  0.6539 -0.5249
  490MOL0     H67563   5.198   6.869   1.946  1.4587  1.8498  1.5886
  490MOL0     H67564   5.115   7.013   1.871 -0.8862  1.4625  1.1899
  490MOL0     H67565   5.075   6.912   2.151 -0.6804 -1.6246 -2.0850
  490MOL0     H67566   4.992   7.052   2.091  0.1820 -0.7805  5.0174
  490MOL0     H67567   5.288   7.045   2.053 -0.9499 -1.2981  0.8329
  490MOL0     H67568   5.173   7.185   2.056 -1.3683  0.3751  1.1930
  490MOL0     H67569   5.158   7.328   2.255  1.0444 -0.1328 -0.5762
  490MOL0     H67570   5.087   7.285   2.593 -1.2151 -2.4125 -2.4257
  490MOL0     H67571   5.176   7.409   2.497 -0.3627 -0.0514 -0.4697
  490MOL0     H67572   5.289   7.240   2.717 -2.1848  0.1967 -0.1570
  490MOL0     H67573   5.395   7.327   2.603 -0.0377 -1.4035  0.1445
  490MOL0     H67574   5.349   7.427   2.817 -1.7538 -4.5609  0.3979
  490MOL0     H67575   5.324   7.541   2.678  1.0917  0.3300  0.1253
  490MOL0     H67576   5.118   7.409   2.867  1.6713 -1.8203 -1.9682
  490MOL0     H67577   5.171   7.584   2.858  1.2169 -0.3153  0.2234
  490MOL0     H67578   4.847   7.590   2.549 -2.5919  0.5100  1.2591
  490MOL0     H67579   4.657   7.832   2.533 -2.0269  0.6873 -3.6682
  490MOL0     H67580   4.712   7.696   2.439 -1.1655  0.3307  1.2832
  490MOL0     H67581   4.733   7.862   2.372  1.6075  2.9950  0.7408
  490MOL0     H67582   4.843   8.327   2.563  2.5505 -0.9864 -0.5914
  490MOL0     H67583   4.784   8.543   2.465  1.5992  0.0185 -0.9598
  490MOL0     H67584   4.591   8.649   2.324  0.2987 -0.8081 -0.1755
  490MOL0     H67585   4.617   8.749   2.182  0.3689 -0.3834 -0.0036
  490MOL0     H67586   4.512   8.533   2.046 -2.6702  0.0318  0.3098
  490MOL0     H67587   4.484   8.472   2.209 -1.9486 -0.7878  0.0746
  490MOL0     H67588   4.370   8.713   2.058 -1.9817  0.0726 -0.7042
  490MOL0     H67589   4.342   8.683   2.233  1.1642 -1.2110  1.4260
  490MOL0     H67590   4.240   8.458   2.179  2.4435 -2.1859 -2.1372
  490MOL0     H67591   4.292   8.479   2.012 -1.3150  1.0571 -1.3363
  490MOL0     H67592   4.106   8.697   2.125  3.7712  0.0794  1.3117
  490MOL0     H67593   4.118   8.633   1.967 -0.0537  1.2244  0.5020
  490MOL0     H67594   3.908   8.555   2.060  0.7617 -0.3967 -2.8836
  490MOL0     H67595   3.999   8.462   2.185 -3.1176 -0.4820 -1.0665
  490MOL0     H67596   4.093   8.321   2.005 -0.5629 -0.6295 -0.6513
  490MOL0     H67597   4.047   8.444   1.884 -0.6487 -0.3273 -0.9801
  490MOL0     H67598   3.818   8.378   1.894 -0.9779 -1.9273 -0.6440
  490MOL0     H67599   3.841   8.318   2.060  1.7252  0.9855  0.3740
  490MOL0     H67600   4.767   8.362   2.077  3.4133 -1.0673 -0.3253
  490MOL0     H67601   4.789   8.138   2.184  1.8172  0.4015 -0.1137
  490MOL0     H67602   5.154   7.960   2.608 -0.1463 -0.4832  1.0494
  490MOL0     H67603   5.212   7.756   2.725 -2.2838 -0.9833  4.6679
  490MOL0     H67604   5.229   6.220   1.599 -0.8137 -3.2650  1.2472
  490MOL0     H67605   5.284   6.138   1.368  1.3818  2.0519 -0.3007
  490MOL0     H67606   5.113   6.213   0.836  1.1452 -0.6444  0.1263
  490MOL0     H67607   5.106   6.124   0.624 -0.3051  0.9002 -0.5929
  490MOL0     H67608   5.088   5.680   0.451  0.9556  1.6530  0.2622
  490MOL0     H67609   5.165   5.655   0.600 -0.4036 -0.8683 -1.9141
  490MOL0     H67610   4.959   5.717   0.711  1.0597  2.1686 -0.1380
  490MOL0     H67611   4.905   5.597   0.593  0.5144 -0.4623  1.4981
  490MOL0     H67612   4.836   5.765   0.434  0.5545  2.2594  0.7682
  490MOL0     H67613   4.732   5.729   0.578  0.6689 -1.6118  0.6401
  490MOL0     H67614   4.748   5.963   0.518  0.9203 -3.0899 -2.5281
  490MOL0     H67615   4.916   5.957   0.577  0.2865  0.8879  2.9629
  490MOL0     H67616   4.647   5.971   0.911  0.2237 -1.3385  0.4054
  490MOL0     H67617   5.173   5.731   0.811 -0.3415  0.0327  2.3760
  490MOL0     H67618   5.218   5.838   1.124 -1.3479 -1.3253  1.3641
  490MOL0     H67619   5.056   5.770   1.105 -1.3372 -0.0270 -2.8442
  490MOL0     H67620   5.191   5.696   1.021  3.0678 -0.0303  0.6720
  491MOL0     O67621   1.601   4.358   4.380  0.0182 -0.0344  0.1277
  491MOL0     C67622   1.507   4.303   4.328 -1.7797  0.1948 -0.2348
  491MOL0     O67623   1.474   4.178   4.357  0.5851  0.0307  0.2701
  491MOL0     C67624   1.557   4.092   4.429 -0.9348  0.8192  0.7105
  491MOL0     C67625   1.684   4.125   4.494 -0.3106  0.2944  0.1628
  491MOL0     C67626   1.756   4.019   4.560  0.2033 -0.8360 -0.3946
  491MOL0     C67627   1.692   3.887   4.565  0.2280  0.4891  0.7391
  491MOL0     O67628   1.743   3.787   4.645  0.5473  0.4056 -0.4788
  491MOL0     C67629   1.672   3.737   4.757 -0.6999 -0.0704 -0.0745
  491MOL0     C67630   1.741   3.611   4.819  0.0743 -0.3924 -0.2517
  491MOL0     C67631   1.660   3.485   4.829 -1.0150 -0.0241  0.1987
  491MOL0     C67632   1.726   3.383   4.925 -0.0177  0.0684  0.3363
  491MOL0     C67633   1.652   3.253   4.928 -1.0421 -1.1436 -0.0130
  491MOL0     C67634   1.710   3.157   5.024  0.0007 -0.0081 -0.4087
  491MOL0     C67635   1.620   3.043   5.071  0.1137  0.1656  0.3095
  491MOL0     C67636   1.546   2.966   4.956  0.1601  0.1026 -0.9971
  491MOL0     N67637   1.610   2.880   4.859  1.3985 -0.3029  0.2561
  491MOL0     C67638   1.691   2.912   4.747 -0.4465 -0.3567 -0.3554
  491MOL0     C67639   1.740   2.799   4.702 -0.4967 -0.6310 -0.0987
  491MOL0     C67640   1.829   2.780   4.587  0.4523  0.1767 -0.0191
  491MOL0     C67641   1.957   2.701   4.625 -0.2516  0.3340 -1.3166
  491MOL0     C67642   2.031   2.667   4.496 -0.0873 -0.4100 -0.0458
  491MOL0     C67643   2.132   2.571   4.524 -0.5904  0.5834 -0.1367
  491MOL0     O67644   2.213   2.599   4.641 -0.7395 -1.1304  0.1152
  491MOL0     C67645   2.273   2.725   4.638  0.4349  0.2718  0.6749
  491MOL0     C67646   2.276   2.795   4.760 -0.2213  0.1868 -0.2673
  491MOL0     C67647   2.344   2.920   4.774 -0.1321  1.1260 -0.3499
  491MOL0     C67648   2.350   2.981   4.917  0.4425  0.1372 -0.5995
  491MOL0     C67649   2.410   2.969   4.656 -0.6039  0.4625 -1.1928
  491MOL0     C67650   2.478   3.105   4.646 -0.6880 -0.9134 -1.0065
  491MOL0     O67651   2.443   3.206   4.733 -0.5222 -0.6957 -0.0190
  491MOL0     C67652   2.513   3.321   4.746 -0.6284  0.6629 -0.2791
  491MOL0     C67653   2.492   3.425   4.661  0.4553  0.6280 -0.3558
  491MOL0     C67654   2.558   3.546   4.688 -0.0550  0.6398  0.9869
  491MOL0     C67655   2.657   3.560   4.784 -0.0051  0.2688  0.8867
  491MOL0     O67656   2.731   3.676   4.794 -0.7286 -0.2836 -0.6979
  491MOL0     C67657   2.673   3.800   4.748 -0.0194  0.6797  0.5880
  491MOL0     C67658   2.734   3.848   4.611 -0.7158  0.1840  0.0520
  491MOL0     C67659   2.884   3.862   4.612 -0.0851  0.3729  0.4798
  491MOL0     C67660   2.927   3.887   4.469  0.6916 -0.1212 -0.4891
  491MOL0     C67661   3.078   3.884   4.453  1.2479 -0.5159  0.0510
  491MOL0     C67662   3.136   3.741   4.425  0.8104  0.8387  0.9018
  491MOL0     C67663   3.283   3.737   4.458 -0.4087  0.5222  0.4971
  491MOL0     C67664   3.340   3.591   4.455  0.6553 -0.1821 -0.6984
  491MOL0    Cl67665   3.506   3.585   4.379 -0.9435 -0.0553 -0.1704
  491MOL0     C67666   2.680   3.445   4.863 -0.7979  0.0100 -0.1736
  491MOL0     C67667   2.609   3.334   4.844  0.6138  0.6471  0.0987
  491MOL0     O67668   2.559   3.109   4.548  0.5239 -0.4538 -0.9506
  491MOL0     C67669   2.421   2.891   4.542 -0.1375  0.4492  0.0037
  491MOL0     C67670   2.346   2.771   4.526  0.6536  0.2558 -0.3654
  491MOL0     N67671   1.698   2.706   4.794 -0.3695 -1.3527  0.3371
  491MOL0     N67672   1.621   2.750   4.878  0.0128 -0.3422 -0.1245
  491MOL0     C67673   1.579   3.860   4.487  0.5430 -0.6970  0.3958
  491MOL0     C67674   1.515   3.963   4.422 -0.1883  0.5910  0.7568
  491MOL0     C67675   1.442   4.382   4.229  0.5515 -0.1370 -0.7590
  491MOL0     C67676   1.511   4.480   4.166  0.3505  0.9914 -0.3382
  491MOL0     C67677   1.445   4.585   4.099 -0.0177  0.3806  0.0255
  491MOL0     C67678   1.311   4.582   4.074 -0.7119 -0.5539 -0.7111
  491MOL0     O67679   1.255   4.690   4.004  0.4183  0.3459  0.2199
  491MOL0     C67680   1.112   4.696   3.996  0.2716 -0.1908 -1.1141
  491MOL0     C67681   1.053   4.645   3.863  0.0999 -0.2743  0.1109
  491MOL0     C67682   0.899   4.667   3.841  0.1593  0.1061  0.0796
  491MOL0     C67683   0.826   4.570   3.926  0.2631 -0.2394  0.2789
  491MOL0     C67684   0.802   4.615   4.064 -0.2284  0.3334  0.4686
  491MOL0     C67685   0.764   4.627   4.179 -0.0220 -0.2183 -0.0476
  491MOL0     C67686   1.241   4.473   4.123 -0.1080  0.2524  0.8790
  491MOL0     C67687   1.304   4.375   4.198 -0.0684  0.2921 -0.3512
  491MOL0     C67688   1.193   4.276   4.261 -0.5177 -0.1056 -0.2586
  491MOL0     H67689   1.708   4.226   4.526 -2.7509  0.1667  2.8212
  491MOL0     H67690   1.837   4.038   4.629  2.1842  1.2592 -3.1007
  491MOL0     H67691   1.582   3.690   4.718  0.9203 -3.1114 -0.4602
  491MOL0     H67692   1.657   3.814   4.833  1.9817  2.3021 -1.7125
  491MOL0     H67693   1.830   3.585   4.761  1.1339  0.8666  0.7310
  491MOL0     H67694   1.777   3.630   4.921  3.3780  0.6136 -1.4765
  491MOL0     H67695   1.564   3.515   4.871 -0.3602  2.5949  0.0253
  491MOL0     H67696   1.647   3.434   4.733 -1.9277 -2.4086  1.5041
  491MOL0     H67697   1.826   3.362   4.887 -0.0137 -1.0011  0.8774
  491MOL0     H67698   1.746   3.417   5.027  2.1841 -1.4424  0.4731
  491MOL0     H67699   1.661   3.219   4.824  3.0573  0.6330 -0.4447
  491MOL0     H67700   1.545   3.265   4.945 -0.9735 -1.3086  0.5387
  491MOL0     H67701   1.802   3.112   4.984  0.4217 -0.8631  1.4238
  491MOL0     H67702   1.730   3.209   5.118  0.6294 -2.7932  1.1065
  491MOL0     H67703   1.546   3.094   5.134 -0.2900  1.1182 -0.8792
  491MOL0     H67704   1.661   2.974   5.145 -2.0408 -1.0274  0.4641
  491MOL0     H67705   1.474   2.910   5.017  1.3915 -0.1014  0.3248
  491MOL0     H67706   1.489   3.038   4.897  1.3631  1.1216 -0.9560
  491MOL0     H67707   1.726   3.008   4.710 -5.3010  1.0830 -2.0077
  491MOL0     H67708   1.861   2.876   4.545 -0.2094 -0.5561 -2.3363
  491MOL0     H67709   1.767   2.721   4.519 -0.4329 -0.5000  1.3194
  491MOL0     H67710   2.021   2.760   4.690  3.4793 -3.1992 -1.3958
  491MOL0     H67711   1.928   2.613   4.683  0.2888 -0.3134 -2.0090
  491MOL0     H67712   1.973   2.617   4.418  0.1918 -1.6579  0.5206
  491MOL0     H67713   2.066   2.764   4.459  1.7767 -1.5856 -1.5338
  491MOL0     H67714   2.080   2.475   4.532 -2.7103  1.5570 -1.5089
  491MOL0     H67715   2.186   2.560   4.429  1.9859  0.9019  1.1878
  491MOL0     H67716   2.212   2.751   4.836  0.7909 -0.1833  0.3846
  491MOL0     H67717   2.455   2.989   4.948 -0.0243  2.0614  0.6661
  491MOL0     H67718   2.306   2.914   4.990  1.6572  1.7696  1.7818
  491MOL0     H67719   2.303   3.080   4.921 -0.1245 -0.1585  0.2084
  491MOL0     H67720   2.431   3.414   4.571 -0.9784  1.0759  0.5212
  491MOL0     H67721   2.540   3.624   4.614 -1.4648 -2.4005 -2.1661
  491MOL0     H67722   2.565   3.795   4.734  0.2557 -1.7614 -1.6292
  491MOL0     H67723   2.704   3.876   4.820 -1.1225  3.6301 -1.8573
  491MOL0     H67724   2.703   3.784   4.527 -0.8576  0.4424 -0.0956
  491MOL0     H67725   2.691   3.948   4.596 -1.0439  0.3830  2.1266
  491MOL0     H67726   2.923   3.763   4.640 -0.5901 -0.5458 -1.8832
  491MOL0     H67727   2.918   3.942   4.679 -0.8022  0.3137  0.9254
  491MOL0     H67728   2.878   3.979   4.436  0.3767  0.9908  2.7358
  491MOL0     H67729   2.884   3.806   4.410 -0.4672 -0.0937  0.3006
  491MOL0     H67730   3.096   3.952   4.368  0.1589  1.5254  1.3644
  491MOL0     H67731   3.119   3.935   4.541 -1.5742  2.2629 -0.0342
  491MOL0     H67732   3.130   3.709   4.320 -1.6409 -1.4903  1.6265
  491MOL0     H67733   3.086   3.669   4.491  0.8874  0.4530  0.5475
  491MOL0     H67734   3.296   3.785   4.555 -2.8150  1.6387  0.3273
  491MOL0     H67735   3.345   3.785   4.383  3.7306 -2.8597  1.3482
  491MOL0     H67736   3.277   3.520   4.401  4.6868 -2.2592 -3.2438
  491MOL0     H67737   3.349   3.565   4.561  0.7326  0.5798 -0.5124
  491MOL0     H67738   2.753   3.454   4.942 -3.4425  0.8184  2.3518
  491MOL0     H67739   2.627   3.244   4.901  0.8400  0.4680 -0.2575
  491MOL0     H67740   2.480   2.932   4.460 -0.1195 -1.9974 -1.3002
  491MOL0     H67741   2.342   2.723   4.429 -0.8928  4.3070 -2.5501
  491MOL0     H67742   1.533   3.761   4.490  1.1732 -0.9721  1.9674
  491MOL0     H67743   1.424   3.942   4.366 -1.0676  2.2000  1.5188
  491MOL0     H67744   1.617   4.494   4.182  0.2284  4.7780 -1.6959
  491MOL0     H67745   1.510   4.661   4.059 -1.3682  0.9232 -1.2321
  491MOL0     H67746   1.061   4.642   4.076  2.4794  0.7102  0.9900
  491MOL0     H67747   1.089   4.802   4.012 -0.9212 -0.9379  3.2974
  491MOL0     H67748   1.091   4.543   3.852 -0.2254 -0.5319  1.3174
  491MOL0     H67749   1.091   4.708   3.781  0.6508  0.5563  0.9922
  491MOL0     H67750   0.873   4.773   3.841 -1.5183 -0.2633  1.2044
  491MOL0     H67751   0.879   4.641   3.736 -2.6566 -1.3301  0.8773
  491MOL0     H67752   0.873   4.472   3.941 -1.2421 -1.2775 -1.2998
  491MOL0     H67753   0.734   4.548   3.871  1.6677 -0.9025 -1.9634
  491MOL0     H67754   0.732   4.642   4.280  0.5028  3.2127 -0.2702
  491MOL0     H67755   1.137   4.452   4.098  0.7504 -1.8652 -1.2389
  491MOL0     H67756   1.230   4.174   4.257  0.7508  0.3098  0.2539
  491MOL0     H67757   1.176   4.297   4.367 -4.0600  0.6171 -0.8450
  491MOL0     H67758   1.099   4.279   4.205 -2.7811  4.0167  3.0905
  492MOL0     O67759   4.813   9.093   8.106  0.5597 -0.0488 -0.3760
  492MOL0     C67760   4.923   9.065   8.163  0.4691  0.3137 -0.6512
  492MOL0     O67761   4.945   8.948   8.225  0.0935  0.0006  0.5406
  492MOL0     C67762   4.848   8.854   8.234  0.5509  0.0117  0.4900
  492MOL0     C67763   4.771   8.844   8.351  0.7589 -0.5728 -0.3651
  492MOL0     C67764   4.648   8.769   8.350 -0.4583 -0.6693 -0.7099
  492MOL0     C67765   4.620   8.681   8.241 -0.8022  0.2588  0.1782
  492MOL0     O67766   4.505   8.612   8.234  0.0979  0.2705  0.3950
  492MOL0     C67767   4.494   8.492   8.320 -1.5131 -0.0382 -0.1965
  492MOL0     C67768   4.358   8.495   8.393 -0.5920  0.0075  0.9831
  492MOL0     C67769   4.326   8.366   8.464  0.3829  0.6872 -0.2497
  492MOL0     C67770   4.316   8.387   8.614  0.6537  0.0283  0.1058
  492MOL0     C67771   4.292   8.260   8.694  0.2532  0.1085 -0.3486
  492MOL0     C67772   4.332   8.295   8.842 -0.4002  0.1293  0.1130
  492MOL0     C67773   4.361   8.172   8.925  0.2302 -0.4265 -0.1937
  492MOL0     C67774   4.363   8.206   9.078 -0.1294  0.0227 -0.2310
  492MOL0     N67775   4.398   8.083   9.149  0.1252 -0.3370 -0.1526
  492MOL0     C67776   4.519   8.026   9.146  0.3259  0.3623  0.0453
  492MOL0     C67777   4.519   7.893   9.173  0.5509  0.5388  1.0469
  492MOL0     C67778   4.629   7.798   9.174 -0.3416 -0.0135 -0.5392
  492MOL0     C67779   4.709   7.789   9.045  0.3086  0.1036 -0.0962
  492MOL0     C67780   4.834   7.699   9.055  0.2032  0.0276  0.3453
  492MOL0     C67781   4.940   7.725   8.944  0.1746  0.0297 -0.5022
  492MOL0     O67782   5.020   7.612   8.906  0.2994  0.2922  0.2968
  492MOL0     C67783   5.155   7.630   8.885  0.2084  1.1113 -0.9896
  492MOL0     C67784   5.233   7.554   8.973 -0.0823  0.2105  0.2259
  492MOL0     C67785   5.372   7.548   8.958  0.6142 -0.3113 -0.1164
  492MOL0     C67786   5.445   7.466   9.053  0.3349 -0.1093  0.2749
  492MOL0     C67787   5.430   7.628   8.857  0.3983 -0.1163  0.7474
  492MOL0     C67788   5.580   7.654   8.837  0.1483 -0.0249 -1.2008
  492MOL0     O67789   5.675   7.570   8.905  1.0031  0.1553 -0.3111
  492MOL0     C67790   5.803   7.621   8.880  0.7302  0.4355 -0.1296
  492MOL0     C67791   5.843   7.736   8.954  0.4960  0.1053 -0.1064
  492MOL0     C67792   5.982   7.758   8.966  0.1412 -0.8783  0.4492
  492MOL0     C67793   6.073   7.668   8.906 -0.0572  0.8972 -0.5863
  492MOL0     O67794   6.205   7.694   8.924 -0.6234 -0.5832  0.0201
  492MOL0     C67795   6.294   7.585   8.919 -0.3631 -0.4152  0.2695
  492MOL0     C67796   6.415   7.633   9.014 -0.2155  0.1675  0.1135
  492MOL0     C67797   6.549   7.551   9.019  0.7936 -0.1166  0.0285
  492MOL0     C67798   6.660   7.607   8.931 -0.3085 -0.0184  0.0627
  492MOL0     C67799   6.796   7.556   8.988 -0.4554  0.5081  0.8958
  492MOL0     C67800   6.842   7.609   9.123  0.5301  0.3620 -0.2405
  492MOL0     C67801   6.915   7.515   9.218  0.3316  0.3267 -0.2191
  492MOL0     C67802   6.838   7.424   9.315 -0.0793  0.7615  0.3991
  492MOL0    Cl67803   6.725   7.521   9.429 -0.0536 -0.2384 -0.0166
  492MOL0     C67804   6.031   7.561   8.829 -0.0613 -0.4874  0.2001
  492MOL0     C67805   5.896   7.534   8.823 -0.1598 -1.1284  0.3299
  492MOL0     O67806   5.608   7.736   8.751 -0.6042 -0.1906  0.2540
  492MOL0     C67807   5.344   7.699   8.767 -0.3315  1.1969 -0.1351
  492MOL0     C67808   5.209   7.704   8.786 -0.6977  0.0822  0.0135
  492MOL0     N67809   4.382   7.874   9.196 -0.8145 -0.0580  0.2028
  492MOL0     N67810   4.313   7.982   9.174 -0.5956  0.8147  0.2245
  492MOL0     C67811   4.696   8.689   8.128  0.1975  0.5547  0.2184
  492MOL0     C67812   4.810   8.775   8.124  0.4280 -1.0211 -0.6826
  492MOL0     C67813   5.017   9.169   8.165 -0.4684 -0.0337  0.6586
  492MOL0     C67814   5.092   9.177   8.279 -0.0562 -0.0833  0.2490
  492MOL0     C67815   5.185   9.280   8.298  0.1909 -0.5843 -1.0789
  492MOL0     C67816   5.214   9.365   8.194 -1.2028  0.7882 -0.0699
  492MOL0     O67817   5.315   9.456   8.185 -0.5069  0.0799  0.3138
  492MOL0     C67818   5.416   9.462   8.286  1.3559 -0.0055  0.9146
  492MOL0     C67819   5.525   9.560   8.234 -0.3352 -0.0702  0.3192
  492MOL0     C67820   5.595   9.522   8.103  0.1884  0.3141 -0.5084
  492MOL0     C67821   5.698   9.422   8.118 -0.0131 -0.1094  0.9443
  492MOL0     C67822   5.774   9.394   7.999  0.0951  0.7395 -0.0064
  492MOL0     C67823   5.848   9.360   7.915  0.5066 -0.3688  0.0688
  492MOL0     C67824   5.135   9.362   8.077  0.5293  0.9451 -0.1361
  492MOL0     C67825   5.032   9.263   8.058  0.5664 -0.6743  0.1320
  492MOL0     C67826   4.954   9.269   7.934 -0.0126  0.4396  0.3880
  492MOL0     H67827   4.775   8.906   8.440 -2.2782  1.3297 -1.3903
  492MOL0     H67828   4.589   8.785   8.440 -0.8139 -0.2458 -1.0081
  492MOL0     H67829   4.570   8.495   8.399 -0.6686 -0.7003 -0.9644
  492MOL0     H67830   4.506   8.399   8.265 -0.6431 -0.1588  0.1848
  492MOL0     H67831   4.368   8.579   8.463  2.8616  0.6934 -0.1423
  492MOL0     H67832   4.276   8.518   8.324  0.9363 -0.9918 -1.2955
  492MOL0     H67833   4.236   8.319   8.423  0.7779  0.4554 -0.8601
  492MOL0     H67834   4.407   8.298   8.436 -0.5115 -0.7525  0.5223
  492MOL0     H67835   4.414   8.424   8.646  0.7900  0.5693 -0.9147
  492MOL0     H67836   4.238   8.460   8.636 -0.2230 -0.1855 -2.0413
  492MOL0     H67837   4.369   8.193   8.655  0.7682 -0.1485  1.0291
  492MOL0     H67838   4.192   8.218   8.679 -0.5546  1.3667  1.1804
  492MOL0     H67839   4.421   8.358   8.843  0.8942 -1.6238  0.3471
  492MOL0     H67840   4.254   8.351   8.894  0.1712  0.9981  0.0489
  492MOL0     H67841   4.451   8.120   8.892 -0.6494 -1.2337 -1.4008
  492MOL0     H67842   4.274   8.108   8.906  0.9823 -1.8311  0.8666
  492MOL0     H67843   4.439   8.282   9.097 -0.0037  0.5448 -2.5568
  492MOL0     H67844   4.273   8.247   9.126 -1.6306 -1.3020 -1.7577
  492MOL0     H67845   4.612   8.075   9.117  0.7664 -2.1363 -3.3680
  492MOL0     H67846   4.597   7.698   9.203 -0.9106  0.1997 -0.4116
  492MOL0     H67847   4.705   7.825   9.248  1.9969  0.0177 -2.8294
  492MOL0     H67848   4.651   7.750   8.960  2.8936 -0.2348 -1.8395
  492MOL0     H67849   4.737   7.893   9.023 -0.1470  0.2790  0.1495
  492MOL0     H67850   4.884   7.720   9.149  1.4308  0.2301 -0.3303
  492MOL0     H67851   4.798   7.595   9.056 -0.9899  0.4191 -0.1397
  492MOL0     H67852   4.885   7.754   8.855 -2.3523 -1.5666  0.4401
  492MOL0     H67853   5.001   7.815   8.961 -0.9956  1.1694 -2.0401
  492MOL0     H67854   5.180   7.504   9.053 -2.2492 -1.8152 -2.2751
  492MOL0     H67855   5.532   7.519   9.092 -0.0731  0.6581  0.1692
  492MOL0     H67856   5.473   7.374   9.000 -0.7571 -0.0209 -0.4858
  492MOL0     H67857   5.396   7.437   9.147  0.7231 -2.9593 -0.3028
  492MOL0     H67858   5.763   7.805   8.980  0.9173  0.8268 -0.6893
  492MOL0     H67859   6.020   7.845   9.018 -3.0290  1.3887 -0.7042
  492MOL0     H67860   6.256   7.488   8.951 -2.5545 -0.8737 -3.1937
  492MOL0     H67861   6.342   7.568   8.822 -4.1330 -3.8958 -1.2510
  492MOL0     H67862   6.452   7.731   8.983  2.0388 -0.0701  1.7624
  492MOL0     H67863   6.373   7.648   9.114  0.4415  2.8744  0.0798
  492MOL0     H67864   6.524   7.449   8.987 -1.7920  0.5714 -0.3799
  492MOL0     H67865   6.577   7.557   9.125 -4.8833  2.3990  1.7598
  492MOL0     H67866   6.669   7.716   8.928  3.2808 -0.1826 -2.2182
  492MOL0     H67867   6.647   7.579   8.826  0.6481  1.1190 -0.3899
  492MOL0     H67868   6.806   7.447   8.986 -0.4719  0.5156  0.3678
  492MOL0     H67869   6.871   7.596   8.920 -0.4811  0.7084  0.9840
  492MOL0     H67870   6.754   7.643   9.179 -1.8161 -3.5342 -1.2001
  492MOL0     H67871   6.903   7.700   9.117  1.0338  0.1669  1.5053
  492MOL0     H67872   6.985   7.575   9.277  2.0979 -0.1749 -1.7276
  492MOL0     H67873   6.981   7.450   9.159  0.4052  0.5808 -0.4144
  492MOL0     H67874   6.906   7.372   9.383 -3.4132 -0.4064  3.1271
  492MOL0     H67875   6.790   7.343   9.260  0.7657  0.0245  0.7267
  492MOL0     H67876   6.103   7.494   8.783  1.6474  0.9843  0.6020
  492MOL0     H67877   5.889   7.432   8.785  0.5621 -1.4238  0.9509
  492MOL0     H67878   5.389   7.746   8.680  5.4715 -1.3179  1.0889
  492MOL0     H67879   5.135   7.739   8.715 -0.8955  0.2273  0.2907
  492MOL0     H67880   4.677   8.640   8.033 -0.3652  2.2343 -0.5709
  492MOL0     H67881   4.875   8.775   8.037  0.4182  2.4864 -0.8010
  492MOL0     H67882   5.076   9.128   8.375 -1.7196  4.9192  2.9053
  492MOL0     H67883   5.245   9.288   8.388  0.6482 -0.3623 -1.3943
  492MOL0     H67884   5.369   9.485   8.382  1.3028 -3.1011  1.7358
  492MOL0     H67885   5.463   9.363   8.292 -0.9206 -1.2618 -0.4674
  492MOL0     H67886   5.605   9.573   8.308 -0.8577 -0.1024  0.8982
  492MOL0     H67887   5.475   9.657   8.222 -0.8527 -0.2901  0.6957
  492MOL0     H67888   5.514   9.486   8.039  0.3612 -1.0947  0.0203
  492MOL0     H67889   5.636   9.618   8.070  1.9872  0.8634  2.8873
  492MOL0     H67890   5.643   9.333   8.150 -0.4782  0.5538  2.0584
  492MOL0     H67891   5.776   9.455   8.187  0.3964 -0.2124  0.5292
  492MOL0     H67892   5.912   9.326   7.836  0.7693  1.4874 -0.5662
  492MOL0     H67893   5.154   9.427   7.993 -3.6025 -1.0723 -2.9466
  492MOL0     H67894   4.993   9.345   7.866 -2.3257  1.9679  0.6166
  492MOL0     H67895   4.959   9.170   7.888 -0.5701  0.5367  0.1094
  492MOL0     H67896   4.849   9.295   7.954  0.8621  4.3441  0.6945
  493MOL0     O67897   1.017   9.428   0.507 -0.5643  0.1386  0.2622
  493MOL0     C67898   1.135   9.446   0.532 -0.2266  0.1712 -0.7649
  493MOL0     O67899   1.214   9.543   0.473 -0.6691  0.8786 -0.0797
  493MOL0     C67900   1.181   9.571   0.341  0.4112 -0.1931  0.4007
  493MOL0     C67901   1.161   9.706   0.304 -0.0656  0.2624  0.1844
  493MOL0     C67902   1.137   9.728   0.168  0.0651  0.7214  0.2979
  493MOL0     C67903   1.123   9.635   0.067  0.7975  0.1994 -0.4594
  493MOL0     O67904   1.095   9.671  -0.058  0.1916 -1.3167  0.6059
  493MOL0     C67905   1.150   9.597  -0.163  0.2887 -0.6066  0.2652
  493MOL0     C67906   1.171   9.685  -0.279 -0.0633  0.6635  0.4032
  493MOL0     C67907   1.286   9.768  -0.235  0.2402  0.1004  0.3032
  493MOL0     C67908   1.353   9.864  -0.335 -0.0117  0.2893 -0.9210
  493MOL0     C67909   1.505   9.890  -0.300 -1.2576  0.3613 -0.0031
  493MOL0     C67910   1.558   9.994  -0.395  0.6297  0.3386 -0.6456
  493MOL0     C67911   1.717   9.993  -0.406  0.4445  0.1197  0.1960
  493MOL0     C67912   1.784  10.129  -0.438 -0.1082 -0.5322 -0.3939
  493MOL0     N67913   1.707  10.222  -0.519  0.0387  0.2546  0.2107
  493MOL0     C67914   1.656  10.196  -0.642 -0.7079 -0.3994 -0.2047
  493MOL0     C67915   1.592  10.309  -0.675  0.3983  0.2971  0.0238
  493MOL0     C67916   1.525  10.334  -0.812  0.5836  0.0334 -0.5624
  493MOL0     C67917   1.593  10.456  -0.874  0.1979 -0.0142  0.3814
  493MOL0     C67918   1.593  10.464  -1.032  0.2037  0.1192 -0.8556
  493MOL0     C67919   1.655  10.587  -1.075 -0.3944 -0.7474  0.4459
  493MOL0     O67920   1.796  10.562  -1.075 -0.1451 -0.0024 -0.1915
  493MOL0     C67921   1.884  10.659  -1.097  0.3442  0.0051  0.7451
  493MOL0     C67922   1.863  10.792  -1.104 -0.4306  0.2892 -1.2738
  493MOL0     C67923   1.964  10.887  -1.120  0.4285  0.0104  0.5227
  493MOL0     C67924   1.928  11.031  -1.111 -0.7256 -0.1466 -0.7459
  493MOL0     C67925   2.092  10.845  -1.149 -0.0906 -0.4357 -0.1615
  493MOL0     C67926   2.198  10.942  -1.177  0.9078 -0.1035  0.3440
  493MOL0     O67927   2.303  10.920  -1.096 -0.2002 -0.3468 -0.4313
  493MOL0     C67928   2.406  11.000  -1.090 -0.6749  0.6623  0.4912
  493MOL0     C67929   2.396  11.144  -1.063 -0.2083  0.8225 -0.5813
  493MOL0     C67930   2.517  11.211  -1.038 -0.0263  0.1547  0.2538
  493MOL0     C67931   2.641  11.142  -1.050 -0.2502  0.8794  0.2008
  493MOL0     O67932   2.757  11.207  -1.047 -1.1068 -0.0293 -0.5720
  493MOL0     C67933   2.776  11.345  -1.017  0.0597 -0.6213 -0.5643
  493MOL0     C67934   2.899  11.395  -1.093 -0.3175 -0.2967 -0.9056
  493MOL0     C67935   2.992  11.505  -1.024  0.8720 -0.2562  0.5669
  493MOL0     C67936   3.145  11.487  -1.056  0.4425  0.6993  0.5656
  493MOL0     C67937   3.234  11.614  -1.055  0.4381  0.8032 -0.1957
  493MOL0     C67938   3.380  11.569  -1.091  0.2424  0.2737 -0.2485
  493MOL0     C67939   3.485  11.679  -1.086 -0.6123 -0.0590  0.4206
  493MOL0     C67940   3.461  11.779  -1.198 -0.1904  0.6391  0.4346
  493MOL0    Cl67941   3.451  11.709  -1.363 -0.2125 -0.3510  0.1635
  493MOL0     C67942   2.644  11.007  -1.070 -0.1842  0.0977  0.3928
  493MOL0     C67943   2.526  10.933  -1.079 -0.2807 -0.7369 -0.0912
  493MOL0     O67944   2.186  11.033  -1.255  0.6064 -0.3613 -0.2402
  493MOL0     C67945   2.123  10.713  -1.141 -0.4954  0.7068 -1.0544
  493MOL0     C67946   2.019  10.616  -1.113 -1.3275 -0.1015 -0.1896
  493MOL0     N67947   1.587  10.403  -0.571  0.1740  0.1738  0.3752
  493MOL0     N67948   1.666  10.347  -0.479 -0.3893 -1.2377 -0.0759
  493MOL0     C67949   1.130   9.501   0.109 -0.7489  0.7633  0.2233
  493MOL0     C67950   1.166   9.469   0.244  0.7073  0.0008 -0.0291
  493MOL0     C67951   1.190   9.353   0.635  0.1927 -0.9650 -0.4603
  493MOL0     C67952   1.102   9.280   0.724 -0.1459 -1.4593  0.2170
  493MOL0     C67953   1.146   9.194   0.826  0.1971  0.5961 -0.4689
  493MOL0     C67954   1.281   9.164   0.839 -0.5838  0.5966 -0.2544
  493MOL0     O67955   1.327   9.074   0.933 -0.1232  0.2424 -0.1685
  493MOL0     C67956   1.464   9.045   0.968 -0.6799  0.4801 -0.0195
  493MOL0     C67957   1.531   9.179   1.035  0.5106  0.3662  0.4336
  493MOL0     C67958   1.681   9.182   1.015  0.5244 -0.6052 -0.1939
  493MOL0     C67959   1.760   9.099   1.116  0.5753  0.7495 -0.7025
  493MOL0     C67960   1.743   8.950   1.092 -0.3506 -0.4596  0.7814
  493MOL0     C67961   1.729   8.837   1.057 -0.7352 -0.9036  0.3950
  493MOL0     C67962   1.363   9.226   0.744 -0.5963 -0.2714 -0.8940
  493MOL0     C67963   1.327   9.319   0.639  0.8661 -0.8018 -0.6957
  493MOL0     C67964   1.426   9.393   0.555  0.3593  0.6497  0.0287
  493MOL0     H67965   1.177   9.788   0.373 -0.4670  0.3937  0.1283
  493MOL0     H67966   1.122   9.830   0.134 -2.8520 -0.1119 -1.2679
  493MOL0     H67967   1.076   9.520  -0.188  0.4289 -0.5066 -0.4871
  493MOL0     H67968   1.241   9.544  -0.135  0.8315  1.4803  2.8119
  493MOL0     H67969   1.190   9.614  -0.361 -0.0543 -0.0780  1.0356
  493MOL0     H67970   1.083   9.743  -0.310 -0.0113  0.4022 -0.2604
  493MOL0     H67971   1.263   9.817  -0.140  3.1326  0.4259  0.9173
  493MOL0     H67972   1.364   9.692  -0.224  0.8549  0.1721 -2.7268
  493MOL0     H67973   1.346   9.825  -0.437 -2.9046 -2.2559  0.1334
  493MOL0     H67974   1.302   9.961  -0.339 -1.9232 -0.6979 -2.5021
  493MOL0     H67975   1.563   9.798  -0.314  1.8650  2.0197  1.2010
  493MOL0     H67976   1.512   9.925  -0.197  2.5695 -1.0685  0.3954
  493MOL0     H67977   1.531   9.961  -0.496  3.8548 -0.6586 -1.2961
  493MOL0     H67978   1.514  10.092  -0.375 -1.2730 -0.6863  0.4700
  493MOL0     H67979   1.730   9.913  -0.480 -4.2129 -1.0130  0.3068
  493MOL0     H67980   1.754   9.947  -0.314  3.4260 -1.1278 -1.4948
  493MOL0     H67981   1.811  10.182  -0.346 -1.6636 -0.2994 -0.0406
  493MOL0     H67982   1.876  10.102  -0.491 -0.9040 -0.4860 -1.8240
  493MOL0     H67983   1.675  10.115  -0.712 -0.6535 -0.8056  0.2757
  493MOL0     H67984   1.422  10.365  -0.789  1.0559  0.4074  1.1553
  493MOL0     H67985   1.524  10.247  -0.879 -1.9673  0.7697 -1.6308
  493MOL0     H67986   1.526  10.535  -0.838 -2.6732 -0.9822 -2.3569
  493MOL0     H67987   1.690  10.470  -0.826 -0.9577  0.9191  2.5661
  493MOL0     H67988   1.625  10.373  -1.083 -3.1064 -1.2368 -0.7705
  493MOL0     H67989   1.488  10.473  -1.063 -0.0050  0.0445 -0.1733
  493MOL0     H67990   1.613  10.623  -1.170 -1.1115 -1.6678  0.3943
  493MOL0     H67991   1.645  10.661  -0.995 -4.6640 -1.3513  0.7179
  493MOL0     H67992   1.760  10.818  -1.078  1.1044  4.3003  1.9328
  493MOL0     H67993   1.921  11.071  -1.213  3.0185 -0.5302 -1.2864
  493MOL0     H67994   2.000  11.087  -1.051 -0.8581 -1.9660  1.2308
  493MOL0     H67995   1.827  11.037  -1.068  0.2211 -0.8635  1.7251
  493MOL0     H67996   2.299  11.192  -1.074 -1.1769 -0.9098  0.1397
  493MOL0     H67997   2.520  11.317  -1.014  0.6138  0.3331 -0.5862
  493MOL0     H67998   2.694  11.399  -1.064  1.1141  1.3828 -0.1804
  493MOL0     H67999   2.778  11.375  -0.912 -2.2354  0.0662 -0.6640
  493MOL0     H68000   2.967  11.313  -1.118  2.7913  0.9696  2.3875
  493MOL0     H68001   2.865  11.432  -1.190 -0.7544 -2.8136 -1.7940
  493MOL0     H68002   2.993  11.507  -0.915  2.3508  1.8231  0.5750
  493MOL0     H68003   2.968  11.608  -1.051  3.0093  0.1118 -0.1025
  493MOL0     H68004   3.141  11.422  -1.143 -3.1624 -2.2239  2.5939
  493MOL0     H68005   3.175  11.422  -0.973 -3.0176 -1.4909  0.3009
  493MOL0     H68006   3.196  11.698  -1.114 -1.2747 -0.4865 -1.0528
  493MOL0     H68007   3.240  11.642  -0.950 -1.3281  0.2347  0.0827
  493MOL0     H68008   3.377  11.516  -1.187 -1.0585 -1.9096  0.9091
  493MOL0     H68009   3.403  11.494  -1.015 -0.4968  1.0236  0.7298
  493MOL0     H68010   3.583  11.631  -1.094 -1.2643 -1.0799 -3.5005
  493MOL0     H68011   3.490  11.734  -0.992 -1.0518  0.9774 -0.1423
  493MOL0     H68012   3.556  11.834  -1.195  0.7267 -0.7557 -1.3329
  493MOL0     H68013   3.367  11.833  -1.185 -0.3957 -0.2139  3.2349
  493MOL0     H68014   2.738  10.954  -1.072  0.7515  1.5360 -3.4189
  493MOL0     H68015   2.538  10.825  -1.079  0.7273 -0.6416 -0.9413
  493MOL0     H68016   2.224  10.677  -1.157 -1.6513 -2.0940 -2.8820
  493MOL0     H68017   2.040  10.510  -1.107 -1.8637 -0.1790  0.3466
  493MOL0     H68018   1.115   9.418   0.041 -0.0264 -0.1082  1.0984
  493MOL0     H68019   1.193   9.372   0.284  2.3399  0.6044  0.4245
  493MOL0     H68020   0.998   9.307   0.709  0.0995 -1.2438 -1.2164
  493MOL0     H68021   1.068   9.134   0.871  1.1026 -0.1368  0.1519
  493MOL0     H68022   1.476   8.959   1.035  4.3117  1.0131  0.1499
  493MOL0     H68023   1.513   9.017   0.875  2.3861 -2.9444  2.3293
  493MOL0     H68024   1.514   9.183   1.143 -1.4349  1.9248  0.1214
  493MOL0     H68025   1.489   9.268   0.988  0.1322 -0.0375 -0.0026
  493MOL0     H68026   1.705   9.149   0.914 -0.7509 -2.3892  0.0372
  493MOL0     H68027   1.718   9.284   1.028  0.5551 -0.7784  1.2600
  493MOL0     H68028   1.743   9.134   1.218  1.6670 -3.8825  1.3039
  493MOL0     H68029   1.867   9.116   1.099  0.6378  0.3724 -0.6852
  493MOL0     H68030   1.715   8.741   1.011  0.9616 -1.3780  0.7942
  493MOL0     H68031   1.469   9.201   0.746  0.5803  4.0304 -0.7374
  493MOL0     H68032   1.418   9.360   0.451 -0.8448  0.0975  0.2769
  493MOL0     H68033   1.422   9.501   0.571 -2.2861  1.0794 -2.7002
  493MOL0     H68034   1.525   9.365   0.591  1.7799  4.6028 -0.3394
  494MOL0     O68035   8.099  11.107   7.045  0.5041 -0.0864  0.6469
  494MOL0     C68036   8.202  11.087   7.107  0.0353 -0.1767 -0.5995
  494MOL0     O68037   8.306  11.008   7.063 -0.3612 -0.2140 -0.3533
  494MOL0     C68038   8.334  11.009   6.926 -0.0757 -0.8443 -0.5728
  494MOL0     C68039   8.389  10.888   6.880 -0.5930 -0.7106  0.3573
  494MOL0     C68040   8.426  10.873   6.745  0.3441 -0.2479 -0.1906
  494MOL0     C68041   8.410  10.976   6.650 -0.6233  0.7173  0.2737
  494MOL0     O68042   8.434  10.960   6.514  0.5288  0.7249  0.2347
  494MOL0     C68043   8.499  10.836   6.455  0.4408  0.8146  0.0878
  494MOL0     C68044   8.506  10.844   6.303  0.9762 -0.3572  0.0859
  494MOL0     C68045   8.480  10.984   6.243  1.1986  0.3874  0.2596
  494MOL0     C68046   8.595  11.085   6.259  0.4621  0.2262 -0.0198
  494MOL0     C68047   8.547  11.230   6.255 -0.0719 -0.9118 -0.6969
  494MOL0     C68048   8.662  11.331   6.277 -0.1626 -0.3507  0.2616
  494MOL0     C68049   8.616  11.468   6.237 -0.5321  0.4333  0.5226
  494MOL0     C68050   8.729  11.582   6.232  0.7671 -0.0612 -0.0057
  494MOL0     N68051   8.810  11.561   6.112  0.0274  0.4575 -0.3140
  494MOL0     C68052   8.926  11.485   6.114 -0.8009  0.4661  0.2781
  494MOL0     C68053   8.941  11.446   5.986 -0.5949 -0.6948 -0.0605
  494MOL0     C68054   9.071  11.377   5.942  0.1879 -0.2505 -0.2483
  494MOL0     C68055   9.155  11.463   5.846  0.4262 -0.3125 -0.1787
  494MOL0     C68056   9.266  11.378   5.791 -0.0583 -0.5958  0.7800
  494MOL0     C68057   9.240  11.329   5.643  0.0720  0.1140  0.5226
  494MOL0     O68058   9.132  11.234   5.646 -0.3383  0.6740  0.6878
  494MOL0     C68059   9.095  11.161   5.537 -0.0953 -1.0517 -0.0405
  494MOL0     C68060   9.164  11.162   5.422  0.0074  0.8602  0.2714
  494MOL0     C68061   9.147  11.070   5.314 -0.1322  0.4708  0.0019
  494MOL0     C68062   9.239  11.075   5.192 -0.8716 -0.9900 -0.1354
  494MOL0     C68063   9.046  10.972   5.336  0.0968 -0.2577  0.5219
  494MOL0     C68064   9.003  10.873   5.231  0.0810  0.7760 -0.3378
  494MOL0     O68065   8.863  10.845   5.240 -1.3032  0.1541  0.8399
  494MOL0     C68066   8.806  10.784   5.139  0.4603  0.4023 -0.1054
  494MOL0     C68067   8.704  10.691   5.170 -0.0252 -0.1414 -0.4246
  494MOL0     C68068   8.630  10.632   5.060  0.4627 -0.9525 -0.4845
  494MOL0     C68069   8.661  10.659   4.923 -0.6030  0.4450  0.4294
  494MOL0     O68070   8.599  10.611   4.805  0.0250  0.7303  0.2332
  494MOL0     C68071   8.515  10.498   4.829 -0.5432  0.3500 -0.1663
  494MOL0     C68072   8.498  10.415   4.702  0.7326 -0.3386  0.2938
  494MOL0     C68073   8.445  10.495   4.586 -0.4764  0.3067  0.3492
  494MOL0     C68074   8.292  10.484   4.585  0.7821 -0.0773 -1.1796
  494MOL0     C68075   8.238  10.538   4.449 -0.7478 -0.3049 -0.6882
  494MOL0     C68076   8.079  10.550   4.456  0.8342  1.2801  0.6569
  494MOL0     C68077   8.036  10.589   4.309  0.2761  0.9527 -0.4838
  494MOL0     C68078   7.949  10.478   4.254 -0.8509 -0.5512 -1.1622
  494MOL0    Cl68079   7.892  10.535   4.092  0.3832 -0.2107  0.5264
  494MOL0     C68080   8.762  10.751   4.898  0.1698  0.0882  0.4232
  494MOL0     C68081   8.837  10.806   5.008  0.4047 -0.6033 -0.9324
  494MOL0     O68082   9.077  10.849   5.138  0.0210 -0.1012 -0.8724
  494MOL0     C68083   8.971  10.976   5.458 -0.2159 -0.3556  0.5247
  494MOL0     C68084   9.001  11.068   5.550 -0.5949  0.7477 -1.0150
  494MOL0     N68085   8.841  11.488   5.908 -0.0837  0.0611 -0.0487
  494MOL0     N68086   8.762  11.564   5.986  0.3232  0.2415 -0.1735
  494MOL0     C68087   8.362  11.097   6.702  0.7214  0.0050 -0.5071
  494MOL0     C68088   8.323  11.117   6.833  1.2743 -0.1942  0.1128
  494MOL0     C68089   8.214  11.139   7.248  0.7465 -1.1082 -0.1410
  494MOL0     C68090   8.347  11.151   7.295  0.0009  0.4080 -0.4744
  494MOL0     C68091   8.372  11.206   7.412 -0.3155 -0.6471 -0.0323
  494MOL0     C68092   8.264  11.246   7.496 -0.8045 -0.0943  1.0801
  494MOL0     O68093   8.271  11.317   7.612 -0.4628  0.1723 -0.2999
  494MOL0     C68094   8.392  11.378   7.660 -0.5935 -0.9768  1.3453
  494MOL0     C68095   8.349  11.494   7.746  0.8810 -0.0403  0.1487
  494MOL0     C68096   8.258  11.595   7.666  0.0393 -0.4067 -0.3751
  494MOL0     C68097   8.217  11.717   7.747 -0.0278  0.0785 -0.0606
  494MOL0     C68098   8.129  11.680   7.855 -0.5551  0.5852  0.9511
  494MOL0     C68099   8.045  11.644   7.931  0.0677  0.1425 -0.4141
  494MOL0     C68100   8.131  11.224   7.460  0.0066 -0.2728  0.4606
  494MOL0     C68101   8.101  11.171   7.332 -0.3665  0.2791 -0.4034
  494MOL0     C68102   7.963  11.137   7.294 -0.7414 -0.0140 -0.3714
  494MOL0     H68103   8.390  10.799   6.942 -0.5344 -0.1558  1.1653
  494MOL0     H68104   8.462  10.774   6.719  1.2695  0.7497 -3.1704
  494MOL0     H68105   8.441  10.749   6.489  1.4032  0.6909  1.5220
  494MOL0     H68106   8.601  10.846   6.494  0.9226  1.1090 -1.2112
  494MOL0     H68107   8.597  10.792   6.272  0.2967 -1.0906 -0.7358
  494MOL0     H68108   8.423  10.779   6.273 -1.2949  2.0802  0.6378
  494MOL0     H68109   8.482  10.967   6.135 -1.3863  6.1997 -1.0827
  494MOL0     H68110   8.378  11.017   6.263  1.7473  2.4188 -0.1474
  494MOL0     H68111   8.642  11.067   6.357  0.0921 -1.6252 -0.1582
  494MOL0     H68112   8.671  11.069   6.182  1.1383 -4.4654  1.3292
  494MOL0     H68113   8.475  11.247   6.335 -0.6945 -1.9915 -1.0044
  494MOL0     H68114   8.497  11.250   6.159 -0.1994 -1.5616 -0.7735
  494MOL0     H68115   8.701  11.331   6.379 -0.9190  0.8105  0.5639
  494MOL0     H68116   8.749  11.296   6.220  1.2925  1.9148  0.9653
  494MOL0     H68117   8.536  11.508   6.299 -0.6460 -1.4595  1.6825
  494MOL0     H68118   8.584  11.471   6.132  0.8621  1.0162  0.0809
  494MOL0     H68119   8.680  11.679   6.230 -1.3262 -1.0778 -1.4096
  494MOL0     H68120   8.797  11.572   6.317  0.0139 -2.2633  0.3948
  494MOL0     H68121   8.991  11.469   6.199 -1.4157  0.1303  0.6890
  494MOL0     H68122   9.031  11.286   5.897 -0.1820 -0.2554  0.0844
  494MOL0     H68123   9.135  11.354   6.027 -2.9492 -0.8888  2.1280
  494MOL0     H68124   9.091  11.498   5.765  1.1515  3.1662  0.5903
  494MOL0     H68125   9.185  11.556   5.896  1.3609 -0.0427 -1.2095
  494MOL0     H68126   9.358  11.436   5.800  0.0612 -0.5915 -0.3091
  494MOL0     H68127   9.280  11.290   5.854 -2.8472 -1.4285  0.3596
  494MOL0     H68128   9.222  11.413   5.576  1.8161  2.6561  2.9974
  494MOL0     H68129   9.326  11.274   5.602  1.6063  1.6045  1.6116
  494MOL0     H68130   9.235  11.240   5.396  3.9833 -2.0137  1.5392
  494MOL0     H68131   9.298  10.984   5.199  0.3018 -0.1215  2.8800
  494MOL0     H68132   9.298  11.166   5.180 -2.3715 -0.2110 -2.1820
  494MOL0     H68133   9.189  11.070   5.095 -1.1216  0.4054 -0.1017
  494MOL0     H68134   8.662  10.677   5.269  2.6822  2.0926  1.1991
  494MOL0     H68135   8.542  10.570   5.068  0.6247 -1.2224 -0.8023
  494MOL0     H68136   8.576  10.439   4.898  1.0347 -2.3333 -3.5060
  494MOL0     H68137   8.419  10.532   4.868 -0.2596 -0.9184  1.7605
  494MOL0     H68138   8.588  10.362   4.671  1.0977  1.4063 -1.7928
  494MOL0     H68139   8.418  10.340   4.712 -0.6910  0.8764 -1.4577
  494MOL0     H68140   8.480  10.449   4.493 -1.5335 -3.1552  1.4804
  494MOL0     H68141   8.476  10.599   4.596 -1.2483  0.5635  0.1085
  494MOL0     H68142   8.251  10.548   4.664 -1.0714 -0.8078 -1.4897
  494MOL0     H68143   8.256  10.384   4.611  0.3663 -0.1710 -2.0867
  494MOL0     H68144   8.270  10.642   4.435 -3.3380  0.1336 -5.3561
  494MOL0     H68145   8.261  10.473   4.365 -2.9352 -0.7472 -1.0241
  494MOL0     H68146   8.044  10.630   4.521  0.7366  0.9236  1.0416
  494MOL0     H68147   8.025  10.463   4.493  1.5371  0.1208 -0.9205
  494MOL0     H68148   8.119  10.616   4.243  0.0820  3.4221  0.1571
  494MOL0     H68149   7.977  10.681   4.315 -1.8793 -0.4373  3.7347
  494MOL0     H68150   7.869  10.472   4.329 -0.9001 -1.5121 -1.2762
  494MOL0     H68151   8.002  10.383   4.241  1.0413  0.0199  1.4180
  494MOL0     H68152   8.782  10.780   4.795 -2.9749  1.6399  0.1117
  494MOL0     H68153   8.901  10.890   4.983  1.8384  0.0687  4.0764
  494MOL0     H68154   8.894  10.900   5.468  1.4600 -2.3557 -0.9797
  494MOL0     H68155   8.948  11.074   5.644 -0.0289 -0.3122 -0.6054
  494MOL0     H68156   8.338  11.176   6.631 -0.3211  0.9626  0.8416
  494MOL0     H68157   8.289  11.214   6.868 -0.7875 -1.2744  1.2423
  494MOL0     H68158   8.435  11.126   7.237 -0.7867 -0.6748 -1.2470
  494MOL0     H68159   8.474  11.234   7.438 -0.9625  2.0877 -0.1250
  494MOL0     H68160   8.450  11.312   7.725 -2.1432 -3.7350  0.1341
  494MOL0     H68161   8.453  11.416   7.578 -1.1997  2.9144  2.5249
  494MOL0     H68162   8.441  11.541   7.781  0.2616 -0.8052  3.0127
  494MOL0     H68163   8.293  11.452   7.830 -1.6418  1.7817 -0.5280
  494MOL0     H68164   8.321  11.626   7.581  0.0311 -4.6175 -2.1873
  494MOL0     H68165   8.166  11.545   7.635 -0.9116  1.5699 -0.8802
  494MOL0     H68166   8.169  11.793   7.684  0.3497  0.5956  0.2698
  494MOL0     H68167   8.300  11.764   7.800  0.0350  0.8482 -0.8176
  494MOL0     H68168   7.980  11.589   7.997  0.6978  1.0909  1.0695
  494MOL0     H68169   8.051  11.262   7.522  1.4515  0.3622  1.9994
  494MOL0     H68170   7.950  11.033   7.262 -0.4812 -0.6058  1.3146
  494MOL0     H68171   7.881  11.153   7.365 -1.8902  2.7151 -2.1367
  494MOL0     H68172   7.946  11.210   7.214  0.0776  0.0114 -0.5298
  495MOL0     O68173  11.445   3.026   5.923 -0.8232  0.5056  0.0441
  495MOL0     C68174  11.357   3.018   5.846  0.6593 -0.3085 -0.1701
  495MOL0     O68175  11.328   3.105   5.741 -0.1337  0.6487  0.9421
  495MOL0     C68176  11.417   3.205   5.713  0.2760  0.4481  0.1823
  495MOL0     C68177  11.432   3.316   5.791  0.1772  1.4367  0.1764
  495MOL0     C68178  11.499   3.424   5.750 -0.1127  0.2672  0.5828
  495MOL0     C68179  11.567   3.438   5.624  1.2076  0.4363  0.5835
  495MOL0     O68180  11.638   3.544   5.580  0.3235 -0.5257 -0.2185
  495MOL0     C68181  11.724   3.614   5.683  0.2532 -0.2161  0.4276
  495MOL0     C68182  11.779   3.741   5.623  0.5315  0.1543 -0.5861
  495MOL0     C68183  11.870   3.830   5.705  0.1871  1.1931 -0.3825
  495MOL0     C68184  11.801   3.918   5.802  0.6086  0.0937 -0.2557
  495MOL0     C68185  11.893   4.007   5.881 -0.0904  0.3966 -0.2206
  495MOL0     C68186  11.975   4.099   5.801 -0.4243  0.4437  1.0142
  495MOL0     C68187  12.004   4.233   5.870 -0.3699 -0.4791  0.0569
  495MOL0     C68188  12.142   4.292   5.825 -0.4165 -0.1151  1.4953
  495MOL0     N68189  12.143   4.343   5.681  0.1992 -0.1619  0.1320
  495MOL0     C68190  12.251   4.380   5.598 -1.1126  0.5795 -0.1186
  495MOL0     C68191  12.195   4.420   5.486 -0.5828  0.5012  0.4337
  495MOL0     C68192  12.265   4.465   5.354  0.1630  0.0770 -0.3760
  495MOL0     C68193  12.390   4.384   5.312  0.9224  0.4300 -0.3136
  495MOL0     C68194  12.453   4.462   5.200 -0.2036 -0.8869  0.9702
  495MOL0     C68195  12.360   4.439   5.075  0.5962  0.2687 -0.4350
  495MOL0     O68196  12.443   4.429   4.964 -0.0896 -0.6313 -0.2759
  495MOL0     C68197  12.423   4.531   4.876 -0.7851  0.7845 -0.8609
  495MOL0     C68198  12.307   4.526   4.801  0.2256 -0.2092  0.4065
  495MOL0     C68199  12.281   4.633   4.716 -1.0930  0.6083  0.3980
  495MOL0     C68200  12.151   4.637   4.630  0.2277  0.4719  0.1123
  495MOL0     C68201  12.366   4.742   4.707 -0.8359 -0.0116  0.7935
  495MOL0     C68202  12.354   4.859   4.615  0.8449  0.6762 -0.2670
  495MOL0     O68203  12.306   4.836   4.490  0.7456  0.0269  0.1854
  495MOL0     C68204  12.284   4.945   4.404 -0.2924  0.5169 -0.2130
  495MOL0     C68205  12.391   4.971   4.317 -0.4071 -0.1429 -0.0986
  495MOL0     C68206  12.386   5.082   4.231  0.4844  0.2959 -0.0507
  495MOL0     C68207  12.272   5.173   4.226  0.5891  0.3044 -0.0686
  495MOL0     O68208  12.273   5.278   4.140  1.1104 -0.1234  0.2173
  495MOL0     C68209  12.155   5.364   4.120 -0.1011  0.6534 -0.5281
  495MOL0     C68210  12.169   5.421   3.982  0.1862  0.5497 -0.0982
  495MOL0     C68211  12.289   5.521   3.972 -0.7686 -0.2387  0.3317
  495MOL0     C68212  12.319   5.543   3.829 -1.2465 -0.8931  0.0068
  495MOL0     C68213  12.450   5.624   3.811  0.7051  0.2840  0.3565
  495MOL0     C68214  12.453   5.672   3.663 -0.3593 -0.4756  0.0211
  495MOL0     C68215  12.550   5.797   3.635  0.3384 -0.3670 -1.1900
  495MOL0     C68216  12.541   5.853   3.496  0.8323  0.0032 -0.1239
  495MOL0    Cl68217  12.564   5.720   3.379  0.0389  0.5801 -0.1088
  495MOL0     C68218  12.173   5.144   4.314 -0.0647  0.2413  0.2492
  495MOL0     C68219  12.181   5.033   4.401 -0.7315 -0.3869 -0.2129
  495MOL0     O68220  12.397   4.968   4.649 -0.7082 -0.8224 -0.3504
  495MOL0     C68221  12.483   4.737   4.783  0.1522 -0.0135  0.2368
  495MOL0     C68222  12.514   4.641   4.872  0.0302  1.2661 -0.9798
  495MOL0     N68223  12.062   4.397   5.497 -0.1358  0.1932  0.3639
  495MOL0     N68224  12.031   4.346   5.609  0.6680 -0.8069 -0.7328
  495MOL0     C68225  11.552   3.326   5.541  0.3597  0.9471 -0.3777
  495MOL0     C68226  11.470   3.212   5.584 -0.3829  0.4780 -0.7473
  495MOL0     C68227  11.280   2.888   5.859  0.7506 -0.8981 -0.2541
  495MOL0     C68228  11.227   2.865   5.987 -0.3788 -0.9555  0.3990
  495MOL0     C68229  11.121   2.773   6.010  0.3236  0.4181 -0.7192
  495MOL0     C68230  11.059   2.695   5.908 -0.5575 -0.2335 -0.9677
  495MOL0     O68231  10.964   2.600   5.929 -0.2918  0.2750 -0.0031
  495MOL0     C68232  10.882   2.591   6.043 -0.1388  0.7901 -0.4017
  495MOL0     C68233  10.813   2.718   6.090  0.8855  0.2951 -0.0717
  495MOL0     C68234  10.688   2.759   6.019  0.1762  0.3022 -0.0872
  495MOL0     C68235  10.713   2.785   5.860  0.7345  0.0786  0.1792
  495MOL0     C68236  10.584   2.802   5.780  0.1608 -0.7210 -0.6351
  495MOL0     C68237  10.472   2.802   5.733  1.0085  0.5373 -0.3286
  495MOL0     C68238  11.113   2.726   5.777 -0.3046  0.3403  0.0375
  495MOL0     C68239  11.212   2.830   5.750  0.9578  0.5726 -0.3557
  495MOL0     C68240  11.259   2.845   5.610  0.4821 -0.9175 -0.7825
  495MOL0     H68241  11.384   3.303   5.887  3.5322  0.0816  1.8302
  495MOL0     H68242  11.507   3.507   5.819 -0.4038  1.5718 -0.8771
  495MOL0     H68243  11.799   3.540   5.713 -0.4173 -1.8027 -1.5484
  495MOL0     H68244  11.662   3.645   5.767 -1.2814 -0.9434 -0.3987
  495MOL0     H68245  11.833   3.721   5.529  1.5607 -1.6340  0.3290
  495MOL0     H68246  11.692   3.804   5.600  0.1960  0.6988  1.9367
  495MOL0     H68247  11.936   3.763   5.761 -0.5045 -0.8556 -1.8952
  495MOL0     H68248  11.936   3.886   5.638  0.8888  1.1252  0.2386
  495MOL0     H68249  11.730   3.985   5.752 -1.2954 -0.3076  1.7547
  495MOL0     H68250  11.732   3.860   5.864 -2.6845  3.2936 -0.5595
  495MOL0     H68251  11.969   3.947   5.930  0.7473  0.3439 -1.5305
  495MOL0     H68252  11.834   4.058   5.957 -4.0844 -2.7822 -0.8217
  495MOL0     H68253  12.075   4.055   5.789 -0.6444 -0.1884  1.4251
  495MOL0     H68254  11.932   4.102   5.701  2.2213 -0.0677 -0.2336
  495MOL0     H68255  12.020   4.192   5.971  2.5223 -2.7177 -1.1687
  495MOL0     H68256  11.926   4.304   5.842  0.9087 -0.6557 -4.7946
  495MOL0     H68257  12.165   4.383   5.881  1.2701 -0.9085  2.1770
  495MOL0     H68258  12.224   4.221   5.844  0.1306 -0.2593 -1.0469
  495MOL0     H68259  12.355   4.381   5.628 -1.5994  6.4888  2.7038
  495MOL0     H68260  12.293   4.570   5.367  1.6789  0.1910 -3.6160
  495MOL0     H68261  12.182   4.445   5.285 -3.0273 -0.7284  3.3609
  495MOL0     H68262  12.450   4.380   5.403  0.5028  0.8151 -0.0162
  495MOL0     H68263  12.385   4.276   5.296  3.0238  0.0006  1.3477
  495MOL0     H68264  12.465   4.570   5.213 -0.1613 -0.9822  1.7470
  495MOL0     H68265  12.553   4.419   5.190  0.1726 -0.6904  3.2640
  495MOL0     H68266  12.303   4.346   5.083 -1.2886  1.0792 -3.0939
  495MOL0     H68267  12.301   4.530   5.081 -1.2185 -0.9532  1.4157
  495MOL0     H68268  12.236   4.445   4.802 -0.9170  0.7408  2.3360
  495MOL0     H68269  12.113   4.739   4.625  0.2679  0.5050  0.4284
  495MOL0     H68270  12.071   4.586   4.684  0.2941 -2.2136 -2.1298
  495MOL0     H68271  12.157   4.592   4.531 -2.7717 -0.7392  0.3817
  495MOL0     H68272  12.480   4.910   4.319 -0.0017  0.4394 -0.0763
  495MOL0     H68273  12.462   5.095   4.154 -1.1620 -2.8626 -2.4316
  495MOL0     H68274  12.058   5.313   4.126  0.7271 -1.8105 -4.5720
  495MOL0     H68275  12.168   5.443   4.195  1.2409 -1.7856  1.9682
  495MOL0     H68276  12.170   5.336   3.913  0.8072 -1.7301  2.5424
  495MOL0     H68277  12.075   5.470   3.952 -0.5062 -0.9304 -0.4411
  495MOL0     H68278  12.374   5.475   4.022 -1.2418  0.5591  1.9338
  495MOL0     H68279  12.259   5.616   4.018  0.0968 -0.2809  1.0113
  495MOL0     H68280  12.243   5.593   3.769  2.0911  1.7398 -2.4530
  495MOL0     H68281  12.336   5.446   3.781  0.7267  0.5281 -2.4199
  495MOL0     H68282  12.466   5.710   3.876 -0.0757  2.3882 -2.1016
  495MOL0     H68283  12.531   5.555   3.836 -0.2982 -0.1592  2.6428
  495MOL0     H68284  12.357   5.715   3.634  0.5304  1.0659 -0.7342
  495MOL0     H68285  12.478   5.592   3.593  1.9806  2.1208 -2.3733
  495MOL0     H68286  12.655   5.768   3.648 -0.0413 -0.7188  1.7451
  495MOL0     H68287  12.520   5.871   3.709  2.2002 -0.9089  0.1837
  495MOL0     H68288  12.627   5.919   3.489  0.7599  0.0764 -0.3372
  495MOL0     H68289  12.447   5.908   3.487  2.2792  2.5444 -0.5583
  495MOL0     H68290  12.097   5.219   4.332  0.3966  0.6156  0.6803
  495MOL0     H68291  12.115   5.012   4.485  0.8737 -1.2415  0.8869
  495MOL0     H68292  12.553   4.820   4.788  1.2136 -0.8545 -0.0928
  495MOL0     H68293  12.603   4.637   4.934 -2.1936 -0.7565  2.4420
  495MOL0     H68294  11.613   3.311   5.452 -3.7370  0.9513 -3.4762
  495MOL0     H68295  11.485   3.118   5.533  0.8059  0.7014 -0.8331
  495MOL0     H68296  11.273   2.912   6.073  2.2072  0.0927 -1.4139
  495MOL0     H68297  11.077   2.753   6.107  0.1131  0.9693 -0.7015
  495MOL0     H68298  10.813   2.508   6.029 -1.6527  1.9036  0.1157
  495MOL0     H68299  10.946   2.566   6.128 -3.2479 -0.9957  1.6119
  495MOL0     H68300  10.884   2.801   6.078  1.1390 -0.0949 -1.3663
  495MOL0     H68301  10.797   2.714   6.199 -0.0851 -0.3039 -0.2235
  495MOL0     H68302  10.612   2.683   6.037 -1.6275  2.8445  4.7202
  495MOL0     H68303  10.645   2.849   6.063 -1.6223 -1.2375  1.4167
  495MOL0     H68304  10.745   2.690   5.815 -2.1573 -2.1048  2.3407
  495MOL0     H68305  10.782   2.866   5.834  0.1024  0.5207 -0.1360
  495MOL0     H68306  10.387   2.804   5.668 -0.7108 -2.5403  1.5690
  495MOL0     H68307  11.069   2.661   5.703 -1.0134  0.6655  0.1666
  495MOL0     H68308  11.361   2.804   5.606  1.0541  0.1536  1.1512
  495MOL0     H68309  11.205   2.786   5.535 -1.7208 -3.0068  2.2048
  495MOL0     H68310  11.266   2.951   5.587  0.8282  0.2821  3.7953
  496MOL0     O68311   9.812  11.147   6.987  0.5431  0.1336 -0.2908
  496MOL0     C68312   9.830  11.101   7.101  0.1568 -0.6729 -0.0044
  496MOL0     O68313   9.832  11.167   7.214 -0.2903 -0.0975 -0.3991
  496MOL0     C68314   9.765  11.289   7.229  0.2482  0.3372  0.0645
  496MOL0     C68315   9.630  11.301   7.190  0.5475 -0.1983  0.1171
  496MOL0     C68316   9.564  11.420   7.227 -0.1525  0.1829 -1.4494
  496MOL0     C68317   9.632  11.523   7.289 -0.2785 -0.0542  0.4696
  496MOL0     O68318   9.550  11.624   7.327  0.2842  0.4277  0.0957
  496MOL0     C68319   9.596  11.733   7.396 -0.1286 -0.3486  0.0232
  496MOL0     C68320   9.492  11.851   7.384  0.2864 -1.1592  0.5190
  496MOL0     C68321   9.476  11.905   7.236 -0.0706  1.0657 -0.5286
  496MOL0     C68322   9.369  12.020   7.234  0.7426 -0.1321  0.1844
  496MOL0     C68323   9.325  12.057   7.091  0.7242 -0.1270 -0.6750
  496MOL0     C68324   9.198  12.136   7.088  0.4156 -0.4982  0.1855
  496MOL0     C68325   9.135  12.150   6.947  0.1325 -0.3050  0.2997
  496MOL0     C68326   9.221  12.217   6.836 -0.0919  0.0455  0.2584
  496MOL0     N68327   9.258  12.347   6.869 -0.7070  0.1790  0.2341
  496MOL0     C68328   9.188  12.459   6.842  0.1870  0.4633 -0.2038
  496MOL0     C68329   9.251  12.570   6.894  0.5520  1.1836  0.7300
  496MOL0     C68330   9.178  12.702   6.927  1.5326 -0.6852  0.0944
  496MOL0     C68331   9.180  12.787   6.795  0.1624  1.0151 -0.2506
  496MOL0     C68332   9.132  12.932   6.808  0.4067 -1.1357  0.2407
  496MOL0     C68333   9.205  13.019   6.901  0.2013  0.0192  0.0675
  496MOL0     O68334   9.126  13.032   7.019  0.0950  0.2628 -0.0830
  496MOL0     C68335   9.181  13.110   7.114  0.3480 -0.3244  0.4535
  496MOL0     C68336   9.319  13.135   7.123 -0.2149  0.9170  0.3599
  496MOL0     C68337   9.369  13.201   7.233 -0.0885  0.1212  0.5996
  496MOL0     C68338   9.510  13.242   7.210  0.5710 -0.2280  0.2542
  496MOL0     C68339   9.286  13.236   7.342 -0.7907 -0.7057  0.2281
  496MOL0     C68340   9.337  13.306   7.463  0.4887 -0.6883  0.2075
  496MOL0     O68341   9.240  13.352   7.551  0.0209 -0.3852 -0.6879
  496MOL0     C68342   9.280  13.380   7.674 -0.0208  0.7113  0.4837
  496MOL0     C68343   9.378  13.473   7.698  0.3473  0.5421 -0.0867
  496MOL0     C68344   9.436  13.487   7.831  0.9891 -0.1243  1.3560
  496MOL0     C68345   9.367  13.422   7.938 -0.2440 -0.1332  1.3624
  496MOL0     O68346   9.415  13.438   8.063 -0.2060 -0.4355  0.2296
  496MOL0     C68347   9.427  13.316   8.141 -0.4688  0.0114  0.2873
  496MOL0     C68348   9.559  13.306   8.213 -0.1378 -0.5243  0.0722
  496MOL0     C68349   9.564  13.384   8.349 -0.9636 -0.2198 -0.3792
  496MOL0     C68350   9.555  13.538   8.327 -0.3517  0.2840 -1.0039
  496MOL0     C68351   9.681  13.601   8.276 -0.3784 -0.9123  0.7022
  496MOL0     C68352   9.680  13.750   8.253  0.8491  0.4574  0.5600
  496MOL0     C68353   9.813  13.790   8.182  0.1090  1.3573 -0.5542
  496MOL0     C68354   9.828  13.935   8.168 -0.7468 -0.3396  0.9864
  496MOL0    Cl68355   9.975  13.963   8.060  0.1614 -0.6360  0.2265
  496MOL0     C68356   9.258  13.334   7.913 -0.4671 -0.7491 -0.8250
  496MOL0     C68357   9.222  13.309   7.779  0.6869 -0.2621  0.0861
  496MOL0     O68358   9.457  13.310   7.484  0.2585  0.0378 -0.0749
  496MOL0     C68359   9.156  13.201   7.341 -0.4290 -0.1804  0.1528
  496MOL0     C68360   9.103  13.147   7.225  0.6403 -0.3548  0.1656
  496MOL0     N68361   9.367  12.517   6.948  0.1172 -0.4215 -0.8198
  496MOL0     N68362   9.372  12.386   6.930 -0.2454  0.2021 -0.5064
  496MOL0     C68363   9.771  11.517   7.306 -0.1621  0.0132 -0.2369
  496MOL0     C68364   9.842  11.394   7.276 -0.3880  0.2157  0.4201
  496MOL0     C68365   9.851  10.957   7.106 -1.1408  0.3192  0.0075
  496MOL0     C68366   9.794  10.890   7.223 -0.3034 -0.6884 -0.3581
  496MOL0     C68367   9.806  10.761   7.230  0.3666 -0.5110  0.3920
  496MOL0     C68368   9.892  10.681   7.139  0.7767  0.1611  0.8072
  496MOL0     O68369   9.901  10.545   7.159 -0.0835  0.6043  0.4703
  496MOL0     C68370  10.032  10.491   7.172 -0.2583 -0.9583  0.0443
  496MOL0     C68371  10.027  10.358   7.246 -0.9769  0.0506  0.0807
  496MOL0     C68372   9.970  10.370   7.388  0.4852  0.1805 -0.0774
  496MOL0     C68373   9.930  10.236   7.461  0.1296 -0.3117  1.0617
  496MOL0     C68374   9.823  10.159   7.391  0.7752 -0.1057 -0.6365
  496MOL0     C68375   9.729  10.108   7.330  0.4300  0.5410  0.0616
  496MOL0     C68376   9.968  10.745   7.044  1.1299 -0.5113 -0.8147
  496MOL0     C68377   9.942  10.887   7.019  0.0865  0.0885 -0.0570
  496MOL0     C68378   9.998  10.946   6.892 -0.4857  1.1118  0.4527
  496MOL0     H68379   9.582  11.225   7.129  1.6374 -1.1873  0.4539
  496MOL0     H68380   9.455  11.417   7.222 -0.0728 -2.4803 -3.7553
  496MOL0     H68381   9.691  11.781   7.372 -0.7295  1.4508  1.0371
  496MOL0     H68382   9.595  11.715   7.504 -1.2863 -0.2800  0.0371
  496MOL0     H68383   9.395  11.825   7.428 -0.5305  0.6419 -0.1019
  496MOL0     H68384   9.539  11.931   7.441 -0.9085  1.2701 -1.6818
  496MOL0     H68385   9.562  11.948   7.183 -1.3522  0.3970 -3.3939
  496MOL0     H68386   9.453  11.817   7.175 -0.0527  1.4855 -1.1599
  496MOL0     H68387   9.287  11.992   7.301 -0.8430  1.9880 -0.7667
  496MOL0     H68388   9.424  12.100   7.286 -1.8991  1.3003  0.9259
  496MOL0     H68389   9.318  11.970   7.025 -1.5369 -0.9032  0.5094
  496MOL0     H68390   9.409  12.119   7.057  0.8654  1.5175  2.3183
  496MOL0     H68391   9.121  12.080   7.142 -2.9798  1.6285 -2.0901
  496MOL0     H68392   9.201  12.235   7.133  0.8078 -1.5090  2.5638
  496MOL0     H68393   9.038  12.201   6.948  0.0879  0.1833 -4.4432
  496MOL0     H68394   9.112  12.052   6.904 -3.7196  0.9138 -0.8025
  496MOL0     H68395   9.309  12.156   6.814 -0.4163 -0.2581 -0.2449
  496MOL0     H68396   9.160  12.226   6.745 -1.1706  2.8940  1.1807
  496MOL0     H68397   9.090  12.441   6.799  0.5506 -2.2324 -0.0652
  496MOL0     H68398   9.235  12.752   7.005 -1.5154  2.0382  0.8172
  496MOL0     H68399   9.075  12.685   6.961  2.4786 -5.7558  1.1065
  496MOL0     H68400   9.281  12.794   6.754  1.5691 -1.8511  2.2770
  496MOL0     H68401   9.120  12.728   6.725  1.4693 -0.6419 -0.0308
  496MOL0     H68402   9.144  12.974   6.708  1.5827 -1.5245  0.2067
  496MOL0     H68403   9.025  12.933   6.828  0.1339  3.6034 -0.1604
  496MOL0     H68404   9.300  12.969   6.918  1.1778  1.4915 -0.8245
  496MOL0     H68405   9.226  13.118   6.860 -0.1342  0.5806  1.1973
  496MOL0     H68406   9.394  13.111   7.048 -0.9237  3.0502 -1.1272
  496MOL0     H68407   9.517  13.351   7.210 -1.2228 -0.0656  1.0896
  496MOL0     H68408   9.557  13.201   7.121 -1.0856  0.6911 -1.1104
  496MOL0     H68409   9.565  13.204   7.296 -1.4775 -0.5233  1.5274
  496MOL0     H68410   9.436  13.524   7.622  3.0496 -2.3456 -0.1811
  496MOL0     H68411   9.512  13.564   7.830 -1.3065  2.5054 -3.3370
  496MOL0     H68412   9.344  13.314   8.212  0.4994  0.4511  1.4640
  496MOL0     H68413   9.420  13.227   8.077 -1.2435 -0.5369  1.1167
  496MOL0     H68414   9.570  13.199   8.231 -0.6586 -0.7482 -0.8892
  496MOL0     H68415   9.633  13.349   8.145 -0.1899  2.3645  1.6462
  496MOL0     H68416   9.655  13.361   8.405  0.2896 -2.1610 -2.9563
  496MOL0     H68417   9.478  13.349   8.407 -0.3166 -3.8251 -1.3351
  496MOL0     H68418   9.526  13.582   8.422 -0.5455 -1.9408  0.0338
  496MOL0     H68419   9.482  13.555   8.247  1.0054  1.1230 -2.1091
  496MOL0     H68420   9.758  13.581   8.351 -0.9966 -0.5656  1.4459
  496MOL0     H68421   9.709  13.552   8.182 -1.8889  0.4614 -0.5391
  496MOL0     H68422   9.676  13.808   8.346 -1.1987  2.7265 -0.8185
  496MOL0     H68423   9.591  13.778   8.196  1.0985 -2.5049 -1.5131
  496MOL0     H68424   9.812  13.739   8.085  3.4827  0.1781 -0.0850
  496MOL0     H68425   9.892  13.741   8.239  0.2164 -0.8713 -2.4763
  496MOL0     H68426   9.858  13.977   8.265  1.2670 -2.1939  1.2396
  496MOL0     H68427   9.742  13.981   8.119 -0.3972 -0.7079  0.0152
  496MOL0     H68428   9.214  13.289   8.001 -0.2878  0.5007 -0.0700
  496MOL0     H68429   9.142  13.236   7.767 -0.3695  0.1867  3.4290
  496MOL0     H68430   9.103  13.203   7.436  3.6798 -1.2061  2.6929
  496MOL0     H68431   8.999  13.117   7.236  1.3118 -2.0531  2.8019
  496MOL0     H68432   9.825  11.597   7.357 -0.4291 -0.6087  1.0814
  496MOL0     H68433   9.944  11.372   7.305  0.0560  2.2032  0.5224
  496MOL0     H68434   9.742  10.947   7.299  0.8315  1.0971 -0.8602
  496MOL0     H68435   9.752  10.713   7.310 -2.5110  3.1651  0.9439
  496MOL0     H68436  10.079  10.480   7.074 -1.7602  0.5079 -0.9088
  496MOL0     H68437  10.100  10.561   7.221  1.0072 -1.7160 -0.5753
  496MOL0     H68438  10.131  10.328   7.256 -1.1932 -0.4969  0.7769
  496MOL0     H68439   9.975  10.281   7.187 -0.7428 -0.5965  0.6977
  496MOL0     H68440  10.056  10.398   7.448  0.3301 -0.0479  0.2515
  496MOL0     H68441   9.883  10.433   7.407  1.1190  0.0176  4.4048
  496MOL0     H68442   9.890  10.248   7.562  1.1815 -0.8921  1.5661
  496MOL0     H68443  10.024  10.181   7.452 -0.0348 -0.4209 -0.1751
  496MOL0     H68444   9.654  10.050   7.280  0.1708 -0.0910  1.1374
  496MOL0     H68445  10.020  10.686   6.970 -0.1440 -1.5664 -0.9127
  496MOL0     H68446  10.008  11.055   6.902  1.3333  1.3188 -2.3625
  496MOL0     H68447  10.102  10.917   6.875 -0.7047  2.0565 -3.8614
  496MOL0     H68448   9.929  10.931   6.808 -0.9240  2.0376  0.6423
  497MOL0     O68449   8.776   0.926  10.046  1.6506 -0.1690 -0.2151
  497MOL0     C68450   8.900   0.920  10.034 -0.4486  0.2496  0.2013
  497MOL0     O68451   8.970   0.807  10.024  0.0451  0.0514  0.2476
  497MOL0     C68452   8.902   0.695  10.017  0.5110  0.1799 -0.5049
  497MOL0     C68453   8.919   0.614   9.906  0.0753  0.5664  0.0898
  497MOL0     C68454   8.844   0.494   9.893  0.2410  0.1320  0.7048
  497MOL0     C68455   8.769   0.446   9.995  0.3010  0.1877 -0.1988
  497MOL0     O68456   8.714   0.327   9.969 -0.4282  0.1960 -0.4175
  497MOL0     C68457   8.607   0.273  10.050 -0.6846 -0.4669  0.1924
  497MOL0     C68458   8.562   0.138  10.008  0.3090  0.4877  1.0436
  497MOL0     C68459   8.633   0.066   9.903  0.1962 -0.0937 -0.4980
  497MOL0     C68460   8.604  -0.088   9.914  0.2236 -0.4893  0.9100
  497MOL0     C68461   8.669  -0.184   9.799  0.1026 -0.1267  0.2296
  497MOL0     C68462   8.663  -0.333   9.829 -0.7328 -0.0881 -0.8066
  497MOL0     C68463   8.692  -0.407   9.711 -0.3611  0.7279  0.2798
  497MOL0     C68464   8.842  -0.389   9.657  0.5799  0.5757 -0.0158
  497MOL0     N68465   8.892  -0.468   9.547 -0.6828  0.3348  0.6604
  497MOL0     C68466   8.976  -0.572   9.570  0.0534 -0.8588 -0.9322
  497MOL0     C68467   9.006  -0.617   9.444 -0.7040  0.1842  0.4976
  497MOL0     C68468   9.095  -0.729   9.396  0.9257 -0.3137  0.0310
  497MOL0     C68469   9.245  -0.697   9.406 -1.5182 -0.6037  1.0775
  497MOL0     C68470   9.348  -0.810   9.419 -0.0627  0.2002 -0.3180
  497MOL0     C68471   9.487  -0.756   9.449  0.1848  0.2260  0.0028
  497MOL0     O68472   9.524  -0.706   9.321  0.0589 -0.4634  0.5635
  497MOL0     C68473   9.582  -0.578   9.302 -0.2973  0.8140 -0.2989
  497MOL0     C68474   9.567  -0.526   9.179 -0.5908  0.4337  0.9534
  497MOL0     C68475   9.601  -0.390   9.152 -0.0359  0.0766 -0.9404
  497MOL0     C68476   9.577  -0.339   9.010 -0.2619  1.2100 -0.1151
  497MOL0     C68477   9.674  -0.315   9.249 -0.3500  0.7414 -0.8847
  497MOL0     C68478   9.731  -0.183   9.227  0.0392 -0.1685 -0.3792
  497MOL0     O68479   9.860  -0.169   9.273  0.1162  0.3864  0.2854
  497MOL0     C68480   9.922  -0.038   9.267 -0.2238  0.4684 -0.4784
  497MOL0     C68481   9.937   0.028   9.146  0.4880  0.6210 -0.0754
  497MOL0     C68482   9.999   0.156   9.159  0.9526  0.3449 -0.3945
  497MOL0     C68483  10.027   0.220   9.277  0.1638 -0.4851  0.1298
  497MOL0     O68484  10.107   0.332   9.264 -0.1064 -0.9276  0.5593
  497MOL0     C68485  10.116   0.429   9.366 -0.2237  0.2569  0.5076
  497MOL0     C68486  10.245   0.510   9.339  0.3191 -0.1228  0.0765
  497MOL0     C68487  10.245   0.631   9.434 -0.0485 -0.8248  0.2135
  497MOL0     C68488  10.360   0.728   9.410  0.1117 -0.1944  1.0305
  497MOL0     C68489  10.350   0.858   9.494 -0.4438  0.1642 -0.0205
  497MOL0     C68490  10.355   0.814   9.640  0.2079 -0.0242  0.2915
  497MOL0     C68491  10.332   0.931   9.739  0.4638 -0.1532  0.7358
  497MOL0     C68492  10.211   1.011   9.701 -0.2488  0.8477 -0.6174
  497MOL0    Cl68493  10.259   1.166   9.618  0.3627 -0.0976 -0.4991
  497MOL0     C68494  10.001   0.157   9.391  0.5852  0.2628  0.3895
  497MOL0     C68495   9.947   0.024   9.392 -0.1335  0.2685 -0.4003
  497MOL0     O68496   9.667  -0.091   9.179 -0.0980 -0.0957 -0.0057
  497MOL0     C68497   9.695  -0.370   9.376  0.6298  0.7352  0.9079
  497MOL0     C68498   9.659  -0.507   9.397 -0.3738  0.5587 -0.3918
  497MOL0     N68499   8.946  -0.532   9.350 -0.2188  0.7083 -0.0826
  497MOL0     N68500   8.877  -0.439   9.415 -0.1115 -0.0445 -0.2536
  497MOL0     C68501   8.753   0.521  10.117 -0.0125 -0.4431 -1.0863
  497MOL0     C68502   8.814   0.649  10.117  0.6195 -0.0115 -0.1813
  497MOL0     C68503   8.971   1.048   9.984 -0.2129  0.8161 -0.2880
  497MOL0     C68504   8.897   1.167   9.976 -0.0034 -0.0427  1.4580
  497MOL0     C68505   8.957   1.277   9.907  1.1125  1.0975  0.2156
  497MOL0     C68506   9.088   1.277   9.865 -0.4353  0.1000  0.9783
  497MOL0     O68507   9.142   1.394   9.811  0.2766  0.3028 -0.2482
  497MOL0     C68508   9.232   1.377   9.697 -0.7204  0.8153 -0.7239
  497MOL0     C68509   9.248   1.517   9.630  0.0308  0.5798 -0.2224
  497MOL0     C68510   9.337   1.516   9.506 -0.1929 -0.5544  0.7362
  497MOL0     C68511   9.392   1.651   9.472 -1.1594  1.1176  0.0080
  497MOL0     C68512   9.298   1.730   9.396 -0.9655 -0.0995 -0.0512
  497MOL0     C68513   9.221   1.806   9.335 -0.0567  0.3112  0.2785
  497MOL0     C68514   9.162   1.158   9.886  0.0208 -0.1785  0.5235
  497MOL0     C68515   9.099   1.041   9.933 -0.1099 -0.6848  0.0960
  497MOL0     C68516   9.199   0.919   9.921 -0.9242  0.1644 -0.2425
  497MOL0     H68517   8.972   0.655   9.820 -2.4600  0.8860 -1.4159
  497MOL0     H68518   8.837   0.439   9.800 -1.3406 -0.4612  1.1433
  497MOL0     H68519   8.523   0.343  10.055  1.8994  2.9122  0.2829
  497MOL0     H68520   8.655   0.272  10.148 -0.1263  1.0858 -0.0235
  497MOL0     H68521   8.555   0.086  10.104  1.9943  2.0482  2.0770
  497MOL0     H68522   8.458   0.142   9.975 -0.1052 -3.2043  1.4465
  497MOL0     H68523   8.592   0.115   9.814 -0.6000  0.5127  0.1864
  497MOL0     H68524   8.738   0.095   9.910 -0.1223  1.0938 -0.2963
  497MOL0     H68525   8.643  -0.113  10.013  2.5472  0.8078  0.3930
  497MOL0     H68526   8.496  -0.103   9.928 -0.7498  2.4716 -2.0095
  497MOL0     H68527   8.775  -0.159   9.795 -0.2536  1.4144 -0.2186
  497MOL0     H68528   8.614  -0.152   9.710  1.7779 -2.6262 -1.8279
  497MOL0     H68529   8.746  -0.345   9.900  0.9261  2.9332 -2.0870
  497MOL0     H68530   8.562  -0.354   9.867 -1.0200  0.2724 -1.3684
  497MOL0     H68531   8.619  -0.392   9.631  1.7509 -1.4669 -2.2839
  497MOL0     H68532   8.682  -0.514   9.732 -0.5862  0.5486 -0.6825
  497MOL0     H68533   8.845  -0.284   9.627  1.0706  0.6584  0.2975
  497MOL0     H68534   8.903  -0.407   9.746  1.2237 -1.6562 -0.8266
  497MOL0     H68535   9.018  -0.587   9.669  4.1257  2.8177 -1.8116
  497MOL0     H68536   9.064  -0.757   9.294  0.1158  1.9559 -0.3922
  497MOL0     H68537   9.074  -0.817   9.458 -1.2587 -0.1247 -0.3529
  497MOL0     H68538   9.260  -0.650   9.308 -2.8306 -2.2877 -0.0019
  497MOL0     H68539   9.262  -0.619   9.480  0.2116  0.6688 -0.5666
  497MOL0     H68540   9.321  -0.877   9.501 -2.0510  1.9385  0.5143
  497MOL0     H68541   9.348  -0.873   9.330 -1.8839  0.5754 -0.6129
  497MOL0     H68542   9.481  -0.684   9.531  0.5111  1.0397 -0.6727
  497MOL0     H68543   9.563  -0.829   9.477  1.9192  1.9688  0.0598
  497MOL0     H68544   9.528  -0.581   9.094 -1.6702  2.3554  0.1442
  497MOL0     H68545   9.511  -0.401   8.950 -1.1706  0.0792  1.9461
  497MOL0     H68546   9.673  -0.329   8.960  1.4659 -2.4067  2.0986
  497MOL0     H68547   9.523  -0.244   9.018 -3.0174 -0.1807 -1.0014
  497MOL0     H68548   9.917  -0.016   9.049  1.6075  0.3021 -0.1839
  497MOL0     H68549  10.046   0.196   9.069  2.8115 -2.4245 -0.7941
  497MOL0     H68550  10.024   0.487   9.364 -2.3998 -2.9323  0.6489
  497MOL0     H68551  10.118   0.383   9.465 -1.7342 -0.1614  0.3673
  497MOL0     H68552  10.337   0.455   9.358  3.0602  3.8552 -0.4949
  497MOL0     H68553  10.248   0.542   9.234 -2.8943 -0.8592 -0.3364
  497MOL0     H68554  10.235   0.589   9.535 -3.4440 -0.0383  0.3284
  497MOL0     H68555  10.152   0.686   9.414 -1.0836 -2.3361  0.7008
  497MOL0     H68556  10.334   0.760   9.309 -2.3079 -0.9231  1.3527
  497MOL0     H68557  10.454   0.674   9.427  0.8764  0.7526 -0.0339
  497MOL0     H68558  10.430   0.932   9.478 -2.0678  2.5071  1.9745
  497MOL0     H68559  10.254   0.908   9.478  1.4089  4.4405  0.9250
  497MOL0     H68560  10.444   0.759   9.673  1.3962  1.4629 -0.2811
  497MOL0     H68561  10.276   0.744   9.666 -0.2966  0.4559  0.0647
  497MOL0     H68562  10.423   0.992   9.737 -0.4434  1.5067 -4.1785
  497MOL0     H68563  10.311   0.899   9.841  2.5884 -1.3910  0.8311
  497MOL0     H68564  10.147   1.030   9.788 -0.9278 -0.7437 -0.7282
  497MOL0     H68565  10.150   0.943   9.642  0.4279 -0.7708  0.4668
  497MOL0     H68566  10.007   0.209   9.486  0.4755  1.2342 -0.1301
  497MOL0     H68567   9.917  -0.020   9.486  0.9276 -2.1615 -1.1446
  497MOL0     H68568   9.733  -0.313   9.460 -1.4709  0.1638  2.3279
  497MOL0     H68569   9.678  -0.549   9.495 -0.4966 -1.5645 -1.2171
  497MOL0     H68570   8.702   0.483  10.205  1.7351  1.5729  0.9111
  497MOL0     H68571   8.794   0.706  10.207 -1.6418 -1.3165  0.2386
  497MOL0     H68572   8.794   1.182  10.004  0.4209  3.8349  1.5256
  497MOL0     H68573   8.892   1.363   9.899 -2.2414 -1.1339  1.2506
  497MOL0     H68574   9.330   1.360   9.742 -1.1636  0.9178  0.3134
  497MOL0     H68575   9.200   1.302   9.625  1.0330 -0.0655 -0.6394
  497MOL0     H68576   9.292   1.585   9.704 -0.8795  0.8677  0.0677
  497MOL0     H68577   9.146   1.550   9.606 -0.5599 -1.1816 -0.2849
  497MOL0     H68578   9.419   1.443   9.505  0.3769 -0.0268 -2.4894
  497MOL0     H68579   9.275   1.471   9.428 -3.0013 -1.9247  3.5699
  497MOL0     H68580   9.471   1.632   9.399 -1.3722 -0.6056  0.1735
  497MOL0     H68581   9.439   1.709   9.552  0.2041  2.0864 -1.4249
  497MOL0     H68582   9.150   1.874   9.293  0.3699  2.1403  2.3374
  497MOL0     H68583   9.269   1.153   9.871 -0.0030 -0.1538  0.3395
  497MOL0     H68584   9.303   0.936   9.890 -0.7148 -3.0633 -1.7793
  497MOL0     H68585   9.215   0.862  10.013 -1.4674 -0.4543 -0.5237
  497MOL0     H68586   9.149   0.848   9.854 -2.6846 -2.3009  3.3615
  498MOL0     O68587  11.041  11.193   6.462  0.3202 -0.5646 -0.8229
  498MOL0     C68588  11.103  11.094   6.498  0.4798  0.4262  0.5051
  498MOL0     O68589  11.222  11.055   6.449  0.0429  0.3623 -0.1978
  498MOL0     C68590  11.300  11.163   6.408  0.6905  0.6747 -0.1174
  498MOL0     C68591  11.340  11.270   6.489 -0.2438 -0.6104 -0.4072
  498MOL0     C68592  11.395  11.381   6.432  0.5458  0.2484 -0.5476
  498MOL0     C68593  11.431  11.380   6.292 -0.7744  0.2103  0.7698
  498MOL0     O68594  11.497  11.485   6.218  0.5923  0.0100  0.9194
  498MOL0     C68595  11.531  11.607   6.291 -0.4245  0.1912 -0.6220
  498MOL0     C68596  11.627  11.693   6.198  0.1299  0.0892 -0.3691
  498MOL0     C68597  11.596  11.841   6.227  0.7944 -0.3613  0.6929
  498MOL0     C68598  11.623  11.878   6.381  1.2651  0.5099 -0.1604
  498MOL0     C68599  11.763  11.845   6.446  0.6473 -1.4221 -0.4535
  498MOL0     C68600  11.870  11.910   6.367 -0.8099  0.2411  0.1777
  498MOL0     C68601  11.893  12.053   6.415  0.2706  0.0041 -0.9248
  498MOL0     C68602  12.009  12.115   6.346  0.1594 -1.1346 -0.0246
  498MOL0     N68603  12.138  12.108   6.419  0.4761  0.4613  0.5684
  498MOL0     C68604  12.246  12.177   6.386  0.6239 -1.1416  1.4093
  498MOL0     C68605  12.330  12.172   6.485 -0.0850  0.6406 -0.0408
  498MOL0     C68606  12.447  12.270   6.495 -0.8688  0.5532 -0.1365
  498MOL0     C68607  12.577  12.189   6.497 -0.2052  0.6001  0.8727
  498MOL0     C68608  12.609  12.129   6.363  0.8452  1.0303  0.5259
  498MOL0     C68609  12.760  12.110   6.350  1.4870 -0.3350 -0.7000
  498MOL0     O68610  12.827  12.231   6.315  0.3532 -0.2060  0.6337
  498MOL0     C68611  12.904  12.233   6.203 -0.6122  0.0704  0.3393
  498MOL0     C68612  13.036  12.198   6.197 -0.1498  0.9004  0.6463
  498MOL0     C68613  13.123  12.191   6.081 -0.3535  0.4047 -0.0032
  498MOL0     C68614  13.262  12.137   6.103 -0.7225 -0.2325 -0.1213
  498MOL0     C68615  13.071  12.220   5.959  0.2313 -0.0000  0.0609
  498MOL0     C68616  13.147  12.224   5.832  0.3455  0.3335 -0.2027
  498MOL0     O68617  13.286  12.234   5.844 -0.1812 -0.0783  0.1086
  498MOL0     C68618  13.364  12.207   5.729  0.2456  1.0846  0.4601
  498MOL0     C68619  13.479  12.121   5.748  0.9801  0.0730  0.6939
  498MOL0     C68620  13.553  12.079   5.634 -0.3115  0.0686  0.1659
  498MOL0     C68621  13.528  12.130   5.504  0.2711 -0.0151  0.2821
  498MOL0     O68622  13.621  12.089   5.409 -0.0648 -0.1445  0.3419
  498MOL0     C68623  13.612  12.145   5.274 -0.2265 -0.6528  0.6097
  498MOL0     C68624  13.746  12.132   5.189 -0.0163 -0.6167 -0.9364
  498MOL0     C68625  13.871  12.161   5.261 -0.1817 -0.4287 -0.0735
  498MOL0     C68626  13.987  12.196   5.159 -0.7906  0.3202 -0.4966
  498MOL0     C68627  14.122  12.180   5.232 -0.1756  0.1293  0.5550
  498MOL0     C68628  14.246  12.232   5.146  0.9123 -0.7421 -0.9305
  498MOL0     C68629  14.380  12.232   5.227  1.0503 -0.7734 -0.6790
  498MOL0     C68630  14.511  12.249   5.153  0.1883 -1.3924 -0.8685
  498MOL0    Cl68631  14.539  12.419   5.111 -0.6251 -0.1799 -0.3848
  498MOL0     C68632  13.430  12.224   5.484  0.1142 -1.1666 -0.5161
  498MOL0     C68633  13.354  12.259   5.597 -0.5196  0.0034  0.1149
  498MOL0     O68634  13.081  12.234   5.728  0.5384  0.4199  0.2001
  498MOL0     C68635  12.934  12.270   5.965 -0.1626  0.6326  0.4362
  498MOL0     C68636  12.850  12.269   6.082 -0.5369  0.1776 -0.2723
  498MOL0     N68637  12.279  12.090   6.587  0.2897  0.6247  0.6441
  498MOL0     N68638  12.166  12.052   6.539  0.7270  0.4973 -0.8535
  498MOL0     C68639  11.390  11.280   6.216 -0.3502  1.1775 -0.4557
  498MOL0     C68640  11.321  11.174   6.271  0.0573  0.1414  0.0725
  498MOL0     C68641  11.044  11.007   6.602 -0.9279  0.5028  0.5388
  498MOL0     C68642  11.131  10.937   6.684 -0.3739 -0.9323  0.7240
  498MOL0     C68643  11.102  10.855   6.789  0.1178  0.4148 -0.7828
  498MOL0     C68644  10.963  10.837   6.818  0.7276  0.3220 -0.2518
  498MOL0     O68645  10.912  10.749   6.914  0.0684  0.4936 -0.4556
  498MOL0     C68646  10.955  10.614   6.897  0.4079 -0.1955  0.2246
  498MOL0     C68647  10.892  10.522   6.993  0.3979  0.6747  0.6170
  498MOL0     C68648  10.892  10.379   6.938 -0.4824 -0.3645  0.2116
  498MOL0     C68649  10.831  10.280   7.038  0.6669 -0.9687  0.2021
  498MOL0     C68650  10.863  10.140   7.012  0.4938 -0.0532  0.2819
  498MOL0     C68651  10.862  10.020   6.969 -0.0286 -0.2649 -0.5278
  498MOL0     C68652  10.866  10.910   6.749 -2.1396 -0.1428  0.2611
  498MOL0     C68653  10.907  10.987   6.635 -0.6863 -0.1637  0.0638
  498MOL0     C68654  10.799  11.050   6.555  1.9051 -0.3111 -0.2284
  498MOL0     H68655  11.309  11.261   6.592  0.8233 -0.3791 -0.0538
  498MOL0     H68656  11.418  11.461   6.502 -1.8907  0.4583  0.1261
  498MOL0     H68657  11.571  11.591   6.392 -0.0721  1.0957 -0.6146
  498MOL0     H68658  11.444  11.669   6.313  0.5102  0.6258  2.3992
  498MOL0     H68659  11.736  11.683   6.204  0.1694  0.1321 -0.9388
  498MOL0     H68660  11.607  11.667   6.094 -3.5798  2.4889 -0.4268
  498MOL0     H68661  11.651  11.905   6.158 -3.9939  2.0875 -1.3120
  498MOL0     H68662  11.490  11.864   6.213  1.6044  2.0710 -2.6071
  498MOL0     H68663  11.609  11.987   6.380 -2.8954  0.2131 -3.7563
  498MOL0     H68664  11.535  11.838   6.432  0.2307 -0.6491 -2.7013
  498MOL0     H68665  11.767  11.736   6.441 -0.9321 -1.4880 -0.7308
  498MOL0     H68666  11.770  11.870   6.553  1.3893 -3.6376  0.0741
  498MOL0     H68667  11.956  11.855   6.407  1.4938  2.4312 -1.3936
  498MOL0     H68668  11.879  11.894   6.259 -1.1178 -1.9730  0.4368
  498MOL0     H68669  11.898  12.063   6.524  2.3475  1.9517 -1.1175
  498MOL0     H68670  11.802  12.109   6.389 -1.0674 -0.3968  2.4461
  498MOL0     H68671  12.038  12.073   6.250  1.1604  3.1674 -1.8274
  498MOL0     H68672  11.981  12.216   6.315  3.8637  1.2313  3.2645
  498MOL0     H68673  12.268  12.239   6.300  1.0064 -0.5602  1.9112
  498MOL0     H68674  12.429  12.325   6.588  0.1301  1.2280 -0.3320
  498MOL0     H68675  12.444  12.341   6.413 -1.2083  0.9984  0.2531
  498MOL0     H68676  12.652  12.263   6.527  2.2034  1.6594 -6.0692
  498MOL0     H68677  12.551  12.112   6.571 -0.5766  0.1235  0.2596
  498MOL0     H68678  12.552  12.035   6.356  1.7029  0.5074  0.4210
  498MOL0     H68679  12.582  12.183   6.271 -2.2690  0.4881  1.0150
  498MOL0     H68680  12.798  12.053   6.435 -1.2878  0.1023  0.9237
  498MOL0     H68681  12.761  12.049   6.259 -4.0415 -1.3928 -0.4029
  498MOL0     H68682  13.080  12.161   6.289  5.6456  1.8903 -1.2722
  498MOL0     H68683  13.279  12.051   6.038 -2.5197  0.6996 -1.9400
  498MOL0     H68684  13.270  12.120   6.211 -1.6977 -3.1372 -0.4170
  498MOL0     H68685  13.341  12.212   6.091 -0.5689 -0.3024  0.4152
  498MOL0     H68686  13.502  12.082   5.847 -1.3534 -3.4982  0.0264
  498MOL0     H68687  13.622  11.999   5.655 -1.3764 -1.5337 -2.0877
  498MOL0     H68688  13.533  12.101   5.213  0.4020 -0.5636 -0.2820
  498MOL0     H68689  13.586  12.251   5.276 -1.9334 -0.9773 -1.1297
  498MOL0     H68690  13.739  12.034   5.141 -2.9696 -1.6348  1.2946
  498MOL0     H68691  13.743  12.205   5.107 -0.7293 -0.0197 -0.3892
  498MOL0     H68692  13.897  12.069   5.314 -1.5568 -1.9150 -1.8273
  498MOL0     H68693  13.848  12.236   5.337 -0.0923 -0.3200 -0.1536
  498MOL0     H68694  13.981  12.298   5.121  3.6024  0.7597 -0.5827
  498MOL0     H68695  13.996  12.122   5.078  1.2931 -1.2272  1.0329
  498MOL0     H68696  14.121  12.243   5.322  0.0034  2.9186 -1.2522
  498MOL0     H68697  14.136  12.076   5.262 -1.9647 -0.1335  0.5675
  498MOL0     H68698  14.224  12.334   5.114  1.6166  0.1755  1.3518
  498MOL0     H68699  14.271  12.172   5.058  1.6817  1.6347 -2.4189
  498MOL0     H68700  14.394  12.132   5.269  0.8359 -0.3080  0.5382
  498MOL0     H68701  14.364  12.310   5.302  0.9960  1.0883 -2.5394
  498MOL0     H68702  14.509  12.192   5.060  1.9318  0.9246 -2.4486
  498MOL0     H68703  14.588  12.211   5.221 -1.7885  0.6984  2.8523
  498MOL0     H68704  13.407  12.271   5.389 -1.5554  1.4493  1.0701
  498MOL0     H68705  13.277  12.334   5.580  1.1959  1.5689 -1.1775
  498MOL0     H68706  12.899  12.300   5.867  0.8506  0.1310 -0.0998
  498MOL0     H68707  12.744  12.291   6.076 -0.7086 -0.6638 -0.4331
  498MOL0     H68708  11.406  11.277   6.109 -1.3341  1.3791 -0.6126
  498MOL0     H68709  11.284  11.091   6.211  0.3260 -0.0969  0.2347
  498MOL0     H68710  11.238  10.946   6.667 -0.7548 -0.4821 -1.7633
  498MOL0     H68711  11.180  10.801   6.841 -2.0107 -0.2626  1.9538
  498MOL0     H68712  10.913  10.589   6.799  0.6830  0.9193 -0.2043
  498MOL0     H68713  11.064  10.601   6.890  0.4735  0.9778 -1.8225
  498MOL0     H68714  10.789  10.558   7.000  0.2116  0.8556 -2.0810
  498MOL0     H68715  10.946  10.528   7.089 -0.8705 -0.7197  1.4526
  498MOL0     H68716  10.835  10.367   6.845 -0.0893  0.4667 -0.1451
  498MOL0     H68717  10.994  10.342   6.927  1.2672  3.0226  2.9903
  498MOL0     H68718  10.725  10.302   7.029  0.6293  1.2090  3.9335
  498MOL0     H68719  10.847  10.309   7.142 -1.5700 -0.0395  0.3479
  498MOL0     H68720  10.841   9.918   6.945  0.7695 -0.7242  0.6290
  498MOL0     H68721  10.763  10.884   6.768 -1.7838 -1.1944  0.8417
  498MOL0     H68722  10.770  10.995   6.465  0.9827  0.8048 -0.6428
  498MOL0     H68723  10.705  11.071   6.608  0.3634 -2.6528 -1.8384
  498MOL0     H68724  10.824  11.150   6.518  0.2869  1.5370  3.2224
  499MOL0     O68725   5.197  10.129   6.558 -0.0646 -0.4772 -0.4328
  499MOL0     C68726   5.254  10.171   6.658 -0.7558  0.2832 -0.4883
  499MOL0     O68727   5.230  10.129   6.781  0.2217 -0.0754 -0.0461
  499MOL0     C68728   5.176  10.000   6.793 -0.2067  0.4395 -0.0723
  499MOL0     C68729   5.221   9.890   6.722 -0.1796 -0.4702  0.9362
  499MOL0     C68730   5.154   9.768   6.707 -0.2370  0.1257  0.3536
  499MOL0     C68731   5.035   9.747   6.777  0.1141  0.0476  0.0889
  499MOL0     O68732   4.986   9.616   6.770  0.1223  0.5314 -0.1570
  499MOL0     C68733   4.847   9.588   6.794 -0.9541  0.0662  0.6245
  499MOL0     C68734   4.812   9.549   6.939 -0.3518  0.6885  0.2912
  499MOL0     C68735   4.828   9.404   6.973 -0.0044  0.4189  0.2572
  499MOL0     C68736   4.734   9.366   7.091 -0.0850  0.1336 -0.2261
  499MOL0     C68737   4.737   9.213   7.104  0.2315  0.8727  0.1386
  499MOL0     C68738   4.613   9.161   7.182  0.4773 -0.1664 -0.6769
  499MOL0     C68739   4.621   9.013   7.208  0.2697  0.4633  0.4094
  499MOL0     C68740   4.495   8.960   7.275  0.5484 -0.1165  0.5187
  499MOL0     N68741   4.502   8.808   7.282  0.7494 -0.3863 -0.5855
  499MOL0     C68742   4.534   8.708   7.189 -0.5172 -0.4273 -0.3664
  499MOL0     C68743   4.502   8.590   7.253 -0.5324 -0.9104 -0.3619
  499MOL0     C68744   4.537   8.454   7.197  0.4212  0.1991  0.5268
  499MOL0     C68745   4.529   8.449   7.042  0.2064  0.0552  0.0427
  499MOL0     C68746   4.538   8.304   6.989 -0.1656 -0.5264  0.8655
  499MOL0     C68747   4.411   8.223   7.008  0.6554 -0.9155 -0.5772
  499MOL0     O68748   4.300   8.294   6.942  0.0861 -0.8013  0.6264
  499MOL0     C68749   4.179   8.240   6.932  1.5504 -0.6569  0.4363
  499MOL0     C68750   4.114   8.250   6.810 -0.5513 -0.3617  0.3380
  499MOL0     C68751   3.980   8.213   6.796 -0.5199  0.5004  1.1621
  499MOL0     C68752   3.911   8.252   6.663  0.4689 -0.5171  0.1555
  499MOL0     C68753   3.911   8.142   6.892 -0.5410 -0.2676  0.6248
  499MOL0     C68754   3.773   8.101   6.879  0.5859  0.1139 -1.2476
  499MOL0     O68755   3.739   8.044   6.761 -0.4691 -0.3887  0.0597
  499MOL0     C68756   3.610   8.036   6.706 -0.2982 -0.1463 -0.0219
  499MOL0     C68757   3.524   7.947   6.762 -0.4873 -0.0224 -0.6153
  499MOL0     C68758   3.394   7.938   6.718  0.6943  0.3463  0.0506
  499MOL0     C68759   3.359   8.005   6.596  0.3903 -0.0458 -1.2933
  499MOL0     O68760   3.225   7.995   6.549  0.1655 -0.3675 -0.2575
  499MOL0     C68761   3.193   7.909   6.433 -0.1229 -0.2853  0.5745
  499MOL0     C68762   3.040   7.896   6.403 -0.2041  0.4962 -0.4643
  499MOL0     C68763   3.005   7.814   6.276  0.1067  1.4679 -0.5385
  499MOL0     C68764   3.012   7.902   6.156 -0.0150  0.5600 -0.5730
  499MOL0     C68765   2.932   7.845   6.031  0.4022  0.2369  0.8783
  499MOL0     C68766   2.981   7.916   5.905  0.4117 -1.0355 -0.0581
  499MOL0     C68767   3.013   8.066   5.914  0.8623 -0.7019 -0.6443
  499MOL0     C68768   3.063   8.105   5.771 -1.6956 -0.1492  0.0045
  499MOL0    Cl68769   2.949   8.087   5.636 -0.0587 -1.0994  0.3400
  499MOL0     C68770   3.454   8.086   6.539 -0.0179 -0.4017  0.0627
  499MOL0     C68771   3.584   8.094   6.586  1.0570 -0.2151  0.4307
  499MOL0     O68772   3.695   8.103   6.978 -0.5715  0.4862  0.1120
  499MOL0     C68773   3.991   8.112   7.005 -0.1808  1.0539 -0.1380
  499MOL0     C68774   4.111   8.166   7.027  0.3411 -0.6118 -0.0329
  499MOL0     N68775   4.449   8.614   7.377 -0.2356  0.9360 -0.2345
  499MOL0     N68776   4.454   8.744   7.394  0.1802 -0.4913  0.1670
  499MOL0     C68777   4.986   9.864   6.842 -0.5419 -0.3144  0.7306
  499MOL0     C68778   5.053   9.986   6.853  0.1240  0.2630  0.0183
  499MOL0     C68779   5.355  10.288   6.660  1.0591 -0.1620  0.7459
  499MOL0     C68780   5.430  10.309   6.776  0.7637 -0.3206  0.2203
  499MOL0     C68781   5.509  10.423   6.784  0.6803 -0.6164 -0.7202
  499MOL0     C68782   5.510  10.520   6.683  0.6015  1.0353  0.3722
  499MOL0     O68783   5.595  10.622   6.682 -0.2410 -0.1069  0.4672
  499MOL0     C68784   5.536  10.744   6.740  0.3687 -0.1236  0.0171
  499MOL0     C68785   5.634  10.856   6.698 -0.3932 -0.2584 -0.5787
  499MOL0     C68786   5.790  10.825   6.686 -0.6856  0.6852 -0.7117
  499MOL0     C68787   5.875  10.951   6.663 -0.3121 -1.0125  1.0502
  499MOL0     C68788   6.012  10.923   6.690 -0.2531 -0.1508 -0.0268
  499MOL0     C68789   6.130  10.897   6.722  0.3764  0.5186 -0.2839
  499MOL0     C68790   5.438  10.489   6.566 -0.1339 -0.3336 -0.1901
  499MOL0     C68791   5.358  10.370   6.552  0.0202 -0.8836  0.7529
  499MOL0     C68792   5.302  10.356   6.414 -0.4197  0.6254 -0.1475
  499MOL0     H68793   5.316   9.888   6.670  0.5098 -0.0716  2.1621
  499MOL0     H68794   5.196   9.681   6.656 -0.5020 -0.0271  0.3933
  499MOL0     H68795   4.818   9.501   6.733 -1.9569  0.1579  0.9531
  499MOL0     H68796   4.787   9.671   6.755 -0.3720 -0.0030 -0.4751
  499MOL0     H68797   4.877   9.614   6.997 -2.2874  2.2009  0.8868
  499MOL0     H68798   4.707   9.576   6.953 -1.2765 -0.8288 -2.7523
  499MOL0     H68799   4.792   9.355   6.883  0.5002 -0.6776  0.6320
  499MOL0     H68800   4.935   9.383   6.978  0.4668  2.0302 -1.7784
  499MOL0     H68801   4.779   9.415   7.178 -0.1068  0.5955 -0.4718
  499MOL0     H68802   4.631   9.402   7.078 -0.1540  0.3223  0.7319
  499MOL0     H68803   4.827   9.176   7.154 -0.6166  0.8571  1.6929
  499MOL0     H68804   4.707   9.168   7.008 -2.7183  1.5525  0.6461
  499MOL0     H68805   4.614   9.220   7.274  4.0189 -1.3933  0.2462
  499MOL0     H68806   4.523   9.184   7.125  1.1183  0.6411 -1.3866
  499MOL0     H68807   4.708   8.984   7.268 -0.0459 -0.9031  0.2531
  499MOL0     H68808   4.621   8.973   7.106 -1.4732  1.7914 -0.1699
  499MOL0     H68809   4.488   9.009   7.373 -3.0109  0.1040  0.2754
  499MOL0     H68810   4.402   8.993   7.229 -1.2204 -0.4261  3.6019
  499MOL0     H68811   4.552   8.734   7.085 -2.0573  3.1258  0.0960
  499MOL0     H68812   4.454   8.397   7.242 -0.6720  1.3963  0.0868
  499MOL0     H68813   4.637   8.424   7.229  1.2788  0.5361 -1.6713
  499MOL0     H68814   4.434   8.491   7.009  0.6931  1.0269 -0.1505
  499MOL0     H68815   4.612   8.501   6.993 -1.0119 -0.0408 -2.2409
  499MOL0     H68816   4.555   8.314   6.881 -0.3799  1.0832  0.9484
  499MOL0     H68817   4.620   8.240   7.023 -1.1220 -2.6464 -0.6132
  499MOL0     H68818   4.410   8.124   6.963 -3.3713 -1.7019  0.7829
  499MOL0     H68819   4.411   8.216   7.118  1.3071 -0.2454 -0.5302
  499MOL0     H68820   4.160   8.302   6.727 -2.8142  0.0846 -0.7323
  499MOL0     H68821   3.913   8.170   6.591  0.3770  2.0795 -3.0478
  499MOL0     H68822   3.964   8.337   6.618  0.3097  0.0448  1.0025
  499MOL0     H68823   3.810   8.294   6.668  1.8491  3.0331  1.5785
  499MOL0     H68824   3.544   7.895   6.855  1.7400 -2.3545 -2.2612
  499MOL0     H68825   3.316   7.881   6.767 -1.9083  0.6184 -3.3955
  499MOL0     H68826   3.252   7.939   6.346 -0.9691  1.7889  0.6720
  499MOL0     H68827   3.230   7.807   6.448 -1.1345 -0.9079 -0.8665
  499MOL0     H68828   3.000   7.863   6.499  2.0063 -0.5302  0.1576
  499MOL0     H68829   3.003   7.999   6.393  2.2616  1.6455  1.1585
  499MOL0     H68830   2.902   7.776   6.277  0.2334  1.1253 -0.3785
  499MOL0     H68831   3.065   7.723   6.281  0.4907  1.7857  2.0826
  499MOL0     H68832   3.115   7.907   6.120  0.3154  0.6224  0.3689
  499MOL0     H68833   2.988   8.004   6.186 -1.3093  0.1084  0.0051
  499MOL0     H68834   2.937   7.735   6.035 -0.0830  0.0971 -1.2042
  499MOL0     H68835   2.827   7.872   6.050  0.4524  1.6155 -0.6619
  499MOL0     H68836   2.910   7.903   5.823 -0.3787  0.6100  0.3317
  499MOL0     H68837   3.072   7.861   5.880 -0.0266 -2.2102  0.8568
  499MOL0     H68838   3.102   8.067   5.977  1.5358 -0.2835 -1.5833
  499MOL0     H68839   2.939   8.128   5.967 -0.2433 -2.6235  0.1496
  499MOL0     H68840   3.148   8.046   5.734 -0.1592  2.5601 -1.0149
  499MOL0     H68841   3.102   8.207   5.780  4.9023 -2.2718  1.2858
  499MOL0     H68842   3.433   8.128   6.441  0.0499 -0.9540 -0.1963
  499MOL0     H68843   3.661   8.152   6.536 -0.6471  2.1515  0.3662
  499MOL0     H68844   3.952   8.034   7.070 -1.0568  1.3204 -0.3181
  499MOL0     H68845   4.170   8.159   7.118  0.7199 -2.6894 -0.3868
  499MOL0     H68846   4.896   9.833   6.894 -0.0337 -1.2364  1.0847
  499MOL0     H68847   5.012  10.074   6.902 -0.5592  0.9460 -1.7173
  499MOL0     H68848   5.428  10.247   6.864  1.8965  0.9235  1.1683
  499MOL0     H68849   5.558  10.444   6.878 -2.1567  1.9828  0.3447
  499MOL0     H68850   5.441  10.763   6.689  0.8976 -1.3266 -1.4881
  499MOL0     H68851   5.531  10.745   6.849 -0.8929 -0.6779 -0.0311
  499MOL0     H68852   5.620  10.943   6.762  3.4400  2.7337 -3.2986
  499MOL0     H68853   5.614  10.888   6.595 -0.2961  3.3960  0.4191
  499MOL0     H68854   5.807  10.768   6.778 -0.2814  0.4952 -0.8993
  499MOL0     H68855   5.796  10.751   6.605 -0.7388 -0.2258  0.0945
  499MOL0     H68856   5.845  11.032   6.729 -1.0654  0.9978 -1.5982
  499MOL0     H68857   5.871  10.990   6.561 -0.2584  2.0585  2.1296
  499MOL0     H68858   6.223  10.861   6.759 -0.8926 -1.1505  1.4869
  499MOL0     H68859   5.443  10.564   6.487  2.6328 -2.5290 -2.3256
  499MOL0     H68860   5.194  10.371   6.419 -0.1693  2.3732  4.6000
  499MOL0     H68861   5.342  10.426   6.339  0.5953 -0.4007 -0.5937
  499MOL0     H68862   5.326  10.258   6.373  2.9851  0.5430  1.6687
  500MOL0     O68863   1.056  10.731   3.555 -0.7022 -0.0008 -0.3968
  500MOL0     C68864   1.125  10.692   3.458  0.0139  0.1902  0.6110
  500MOL0     O68865   1.140  10.566   3.412  0.1364  0.5286  0.5832
  500MOL0     C68866   1.110  10.456   3.491  0.4503 -0.4493  0.5052
  500MOL0     C68867   1.110  10.339   3.415 -0.4410  0.0971  0.1042
  500MOL0     C68868   1.069  10.216   3.473 -0.4225  0.0146  0.9425
  500MOL0     C68869   1.033  10.222   3.610  0.7491  0.1140  0.1355
  500MOL0     O68870   1.001  10.098   3.673  0.0858 -0.0041  0.0067
  500MOL0     C68871   1.096   9.993   3.647 -0.1133  0.0756 -0.4819
  500MOL0     C68872   1.217  10.012   3.737 -0.3042  0.0539 -0.3118
  500MOL0     C68873   1.189   9.950   3.875 -0.0660  0.1817 -0.5521
  500MOL0     C68874   1.287   9.972   3.989 -0.5848  0.2854 -0.2738
  500MOL0     C68875   1.330  10.115   4.026 -0.2996  0.4204 -0.0322
  500MOL0     C68876   1.389  10.129   4.160  0.6612 -1.0972 -0.0254
  500MOL0     C68877   1.427  10.269   4.203  0.1605  0.3112  0.4272
  500MOL0     C68878   1.526  10.360   4.125  0.0463 -0.5735 -0.3539
  500MOL0     N68879   1.658  10.293   4.098  0.2444 -0.5326  0.2644
  500MOL0     C68880   1.765  10.287   4.198  0.6278 -1.5014  0.4063
  500MOL0     C68881   1.858  10.211   4.143  0.4599 -0.2941  0.3892
  500MOL0     C68882   1.964  10.165   4.225 -0.2232 -0.3463 -0.2473
  500MOL0     C68883   2.075  10.272   4.245 -0.1671 -0.1220  0.6173
  500MOL0     C68884   2.132  10.323   4.106 -0.3116 -0.6669 -0.1431
  500MOL0     C68885   2.239  10.438   4.139 -0.3973 -0.1740  0.2932
  500MOL0     O68886   2.169  10.558   4.192 -1.1148  0.3302 -0.6952
  500MOL0     C68887   2.251  10.647   4.266 -0.8550  0.2436  0.1543
  500MOL0     C68888   2.388  10.656   4.281  0.1844 -0.5458  0.4566
  500MOL0     C68889   2.436  10.752   4.372 -1.1571  0.3352 -0.6292
  500MOL0     C68890   2.590  10.754   4.384  0.6615  1.1597  0.0740
  500MOL0     C68891   2.354  10.850   4.446 -0.1801  1.4336  0.2032
  500MOL0     C68892   2.400  10.951   4.539 -0.5466  0.5699 -0.2634
  500MOL0     O68893   2.323  11.059   4.548 -0.2630 -0.6129 -0.2822
  500MOL0     C68894   2.386  11.170   4.597 -0.1741 -0.8712 -0.2478
  500MOL0     C68895   2.376  11.201   4.734 -0.2416 -0.8531 -0.5750
  500MOL0     C68896   2.429  11.308   4.802 -0.6253 -0.1100  0.7485
  500MOL0     C68897   2.509  11.396   4.727  0.0150  0.0704  0.5781
  500MOL0     O68898   2.565  11.501   4.783 -0.0701 -0.6851  0.2842
  500MOL0     C68899   2.519  11.622   4.727 -0.3945  0.4371  1.3580
  500MOL0     C68900   2.552  11.738   4.820  0.0492 -0.8261 -1.0018
  500MOL0     C68901   2.468  11.741   4.950 -0.8115  0.2094  0.7725
  500MOL0     C68902   2.507  11.630   5.049  0.7640 -0.5503  0.2174
  500MOL0     C68903   2.425  11.639   5.172 -0.2496 -0.7000  0.5494
  500MOL0     C68904   2.448  11.765   5.249  0.9447 -1.2161 -0.5135
  500MOL0     C68905   2.372  11.756   5.381  0.4490 -0.1743 -0.0451
  500MOL0     C68906   2.225  11.786   5.358 -0.1004 -0.3267 -0.6205
  500MOL0    Cl68907   2.152  11.744   5.503  0.3766  0.2255 -0.3110
  500MOL0     C68908   2.535  11.367   4.592  0.0878  0.5744 -0.0067
  500MOL0     C68909   2.472  11.260   4.528  0.7750 -0.1396 -0.0289
  500MOL0     O68910   2.498  10.932   4.600 -0.6772 -0.7823  0.5274
  500MOL0     C68911   2.215  10.849   4.405  0.1836  0.4241  0.0009
  500MOL0     C68912   2.172  10.745   4.323  0.8117 -0.7412  0.2802
  500MOL0     N68913   1.821  10.159   4.019  0.2607  0.0332 -0.0716
  500MOL0     N68914   1.699  10.201   3.995  0.4059  0.1672  0.5896
  500MOL0     C68915   1.044  10.329   3.694  0.5604 -0.0870  0.0893
  500MOL0     C68916   1.067  10.449   3.628  0.0093  0.0231  0.5283
  500MOL0     C68917   1.206  10.785   3.395  0.0570 -0.2096 -1.3859
  500MOL0     C68918   1.311  10.855   3.460 -0.7442 -1.0159 -0.3638
  500MOL0     C68919   1.412  10.920   3.382  0.5097 -0.4867  0.4241
  500MOL0     C68920   1.388  10.944   3.242 -0.0316 -0.6302 -0.7256
  500MOL0     O68921   1.468  11.044   3.180  0.3085  0.8663  0.7625
  500MOL0     C68922   1.416  11.102   3.064 -1.3255  0.0232  0.1308
  500MOL0     C68923   1.288  11.176   3.086  0.1903  0.5009 -0.0568
  500MOL0     C68924   1.312  11.318   3.141 -0.0874 -0.1723 -0.1853
  500MOL0     C68925   1.393  11.319   3.276  0.1353  0.7275 -0.0183
  500MOL0     C68926   1.428  11.454   3.296 -0.3449 -0.5137 -0.1291
  500MOL0     C68927   1.455  11.569   3.321 -0.5723  0.2379 -0.8136
  500MOL0     C68928   1.286  10.872   3.182 -1.0205 -0.7559  0.5125
  500MOL0     C68929   1.196  10.796   3.259  0.7187 -0.5367 -0.1048
  500MOL0     C68930   1.088  10.728   3.175  0.3538 -0.0859  0.5871
  500MOL0     H68931   1.135  10.346   3.310 -0.9319  0.9074  0.0368
  500MOL0     H68932   1.068  10.124   3.416  2.0740 -1.0536  2.4310
  500MOL0     H68933   1.116   9.991   3.540  1.0512  0.8365 -0.2945
  500MOL0     H68934   1.044   9.904   3.683  0.8948  0.4446  2.1118
  500MOL0     H68935   1.300   9.954   3.698  0.0352 -1.7667  2.7557
  500MOL0     H68936   1.246  10.118   3.742  1.1928 -0.1757 -2.6215
  500MOL0     H68937   1.095  10.000   3.901  0.6412  1.1320  0.2550
  500MOL0     H68938   1.164   9.845   3.865 -3.4599  0.5568  2.3101
  500MOL0     H68939   1.264   9.908   4.075  1.5523 -0.2680 -0.0389
  500MOL0     H68940   1.378   9.921   3.956 -2.0572 -1.9221 -1.1849
  500MOL0     H68941   1.245  10.184   4.015  0.4671  1.2839 -0.7786
  500MOL0     H68942   1.399  10.154   3.950 -0.2209  0.8259  0.2461
  500MOL0     H68943   1.315  10.097   4.234 -3.2877  3.4952 -1.4589
  500MOL0     H68944   1.476  10.062   4.162  2.1530  0.7756 -0.1953
  500MOL0     H68945   1.462  10.258   4.306 -2.1896  3.2380  1.7057
  500MOL0     H68946   1.334  10.327   4.200  0.9714  1.6148 -2.7447
  500MOL0     H68947   1.480  10.379   4.028 -0.9138 -0.8776  0.0351
  500MOL0     H68948   1.548  10.451   4.182 -0.9883 -0.5045 -0.0485
  500MOL0     H68949   1.765  10.341   4.292  3.5047  0.4902 -0.6168
  500MOL0     H68950   2.018  10.083   4.177 -0.9089 -0.7337 -0.3707
  500MOL0     H68951   1.918  10.126   4.316 -2.4633 -0.5482 -1.3889
  500MOL0     H68952   2.032  10.355   4.302 -2.0547 -0.1846 -0.6178
  500MOL0     H68953   2.164  10.233   4.294  0.3476  0.0831 -0.1317
  500MOL0     H68954   2.178  10.237   4.056  2.8741  0.9873 -0.3409
  500MOL0     H68955   2.060  10.361   4.033  1.3764 -0.3302 -1.7021
  500MOL0     H68956   2.305  10.405   4.220 -0.2255  3.8041  2.0408
  500MOL0     H68957   2.293  10.470   4.049 -1.9016 -0.3053 -0.6802
  500MOL0     H68958   2.453  10.585   4.231 -2.1744 -2.0658 -0.6100
  500MOL0     H68959   2.625  10.857   4.371 -1.6973  2.1251  0.8121
  500MOL0     H68960   2.632  10.688   4.307  1.8491 -1.2111  2.5609
  500MOL0     H68961   2.614  10.713   4.483  0.6097  0.1157 -0.3353
  500MOL0     H68962   2.321  11.139   4.803 -1.3442 -0.0157 -0.6786
  500MOL0     H68963   2.409  11.307   4.909  0.0199 -1.9041  0.8827
  500MOL0     H68964   2.552  11.639   4.624  0.8615 -2.0139  1.2761
  500MOL0     H68965   2.410  11.622   4.719 -0.2824 -0.9467 -2.2038
  500MOL0     H68966   2.657  11.731   4.849  0.3005 -0.0696 -1.6959
  500MOL0     H68967   2.538  11.828   4.760 -0.1138 -0.2529 -0.1080
  500MOL0     H68968   2.359  11.739   4.939 -1.0671  2.1429  2.3421
  500MOL0     H68969   2.500  11.829   5.007  2.4690 -0.1659 -0.3060
  500MOL0     H68970   2.612  11.646   5.073  1.2897 -1.0364 -1.6043
  500MOL0     H68971   2.500  11.530   5.005 -0.5985  0.5292 -2.2148
  500MOL0     H68972   2.318  11.623   5.156 -0.4435  0.5934  0.4392
  500MOL0     H68973   2.454  11.557   5.237  1.9803  0.9874  1.8365
  500MOL0     H68974   2.424  11.858   5.197 -1.6214 -1.7985 -0.5404
  500MOL0     H68975   2.552  11.784   5.278 -0.3686  1.8384  2.9978
  500MOL0     H68976   2.404  11.837   5.447  2.5730  1.6203 -2.9921
  500MOL0     H68977   2.400  11.667   5.436 -0.7104  0.8844  2.3959
  500MOL0     H68978   2.183  11.720   5.282 -0.8724 -1.0557  0.4129
  500MOL0     H68979   2.203  11.892   5.339 -2.5605 -0.4951  0.8897
  500MOL0     H68980   2.604  11.425   4.532 -0.9019  4.3248  2.1902
  500MOL0     H68981   2.499  11.247   4.424  0.0502  0.4135 -0.2947
  500MOL0     H68982   2.149  10.913   4.464 -0.5059 -1.0138  0.8240
  500MOL0     H68983   2.067  10.748   4.295  0.5083  0.6468  1.4066
  500MOL0     H68984   1.026  10.328   3.801  2.1680 -1.5668  0.3776
  500MOL0     H68985   1.070  10.540   3.688 -2.2651 -0.8914  2.2081
  500MOL0     H68986   1.333  10.853   3.566 -1.5160 -0.0945 -0.1678
  500MOL0     H68987   1.497  10.970   3.426  1.3191 -2.2878  0.9895
  500MOL0     H68988   1.489  11.170   3.021 -1.9407  2.2586  2.4148
  500MOL0     H68989   1.397  11.016   2.999  2.5740 -2.0552  1.4489
  500MOL0     H68990   1.225  11.127   3.160 -0.2565 -1.0216 -1.3820
  500MOL0     H68991   1.229  11.189   2.994 -0.2406 -0.2926  0.0960
  500MOL0     H68992   1.368  11.366   3.060 -0.2778  1.5279  0.6553
  500MOL0     H68993   1.216  11.369   3.155 -0.6163 -1.4470  1.0702
  500MOL0     H68994   1.484  11.259   3.261  1.1060  2.2932 -0.7288
  500MOL0     H68995   1.327  11.284   3.356  0.0747 -0.2693 -0.4807
  500MOL0     H68996   1.476  11.673   3.335  0.2281  0.0647 -0.6884
  500MOL0     H68997   1.252  10.897   3.082  1.1474  1.9470  0.3359
  500MOL0     H68998   1.043  10.639   3.220 -0.9531  0.7907  1.0739
  500MOL0     H68999   1.004  10.785   3.135 -0.8050 -0.3548  2.4870
  500MOL0     H69000   1.151  10.694   3.092  0.8010 -0.1575  0.9508
  501MOL0     O69001   2.290   2.275   6.185 -0.3525 -1.1271 -0.5252
  501MOL0     C69002   2.255   2.195   6.276 -0.1878  0.2281  0.6617
  501MOL0     O69003   2.317   2.077   6.297 -0.3071  0.3613  1.0441
  501MOL0     C69004   2.418   2.037   6.207 -0.3081 -0.5451 -0.8510
  501MOL0     C69005   2.555   2.039   6.259  0.4225  0.6345  0.5579
  501MOL0     C69006   2.666   2.010   6.182 -0.8564  0.5244  0.5355
  501MOL0     C69007   2.648   1.975   6.050 -0.6988 -0.1445  0.0361
  501MOL0     O69008   2.746   1.921   5.972 -0.7034 -0.8316  0.1970
  501MOL0     C69009   2.847   2.018   5.940  0.2577  0.2175  0.2475
  501MOL0     C69010   2.852   2.049   5.794  0.4066 -0.6422 -0.1765
  501MOL0     C69011   2.732   2.125   5.726 -0.3309  0.3239 -0.6836
  501MOL0     C69012   2.751   2.137   5.571  0.2747 -0.1431 -0.7337
  501MOL0     C69013   2.896   2.163   5.520  0.0717  0.6648 -0.7574
  501MOL0     C69014   2.938   2.308   5.520 -0.5227  0.0838 -0.9600
  501MOL0     C69015   3.092   2.323   5.495 -0.6506  1.3303  0.1684
  501MOL0     C69016   3.133   2.467   5.466  0.1300 -0.2012 -0.2282
  501MOL0     N69017   3.265   2.509   5.527  0.3771 -0.7249 -0.5431
  501MOL0     C69018   3.279   2.639   5.570 -1.0186  0.9663 -0.1543
  501MOL0     C69019   3.384   2.640   5.657 -0.6005  0.0434  1.0416
  501MOL0     C69020   3.444   2.757   5.727 -0.0110  1.0673 -0.4504
  501MOL0     C69021   3.512   2.844   5.626 -0.0870  0.3399  0.6021
  501MOL0     C69022   3.565   2.964   5.712 -0.3784 -0.3019  0.1304
  501MOL0     C69023   3.666   3.042   5.631  0.2288 -0.7463 -0.2774
  501MOL0     O69024   3.591   3.149   5.571 -0.4509  0.1492  0.1963
  501MOL0     C69025   3.663   3.260   5.523 -0.6047  0.4498  0.1725
  501MOL0     C69026   3.587   3.331   5.429  0.5436  0.0379 -0.4925
  501MOL0     C69027   3.638   3.441   5.357  0.2456 -0.7810 -0.8198
  501MOL0     C69028   3.550   3.521   5.264  0.7741  0.6209  1.0057
  501MOL0     C69029   3.773   3.469   5.385 -0.9393 -0.3221  0.3248
  501MOL0     C69030   3.837   3.585   5.315 -0.8425  0.0589 -0.8242
  501MOL0     O69031   3.801   3.719   5.342 -0.7057 -0.4752  0.2799
  501MOL0     C69032   3.861   3.818   5.272  0.2179 -0.7316 -0.9021
  501MOL0     C69033   3.995   3.855   5.282  0.3678 -0.2560  0.0209
  501MOL0     C69034   4.056   3.959   5.206  0.2624 -0.3064 -0.4580
  501MOL0     C69035   3.978   4.039   5.123  0.4825 -0.6277  0.4352
  501MOL0     O69036   4.011   4.149   5.045  0.3767  0.3245 -0.3126
  501MOL0     C69037   4.146   4.182   5.042  0.0160 -0.5500  0.3947
  501MOL0     C69038   4.193   4.289   4.934 -0.1518 -0.2630  0.2298
  501MOL0     C69039   4.156   4.431   4.986  0.0256 -0.4005  0.8727
  501MOL0     C69040   4.137   4.538   4.884  0.0867 -0.1149  0.5272
  501MOL0     C69041   4.265   4.566   4.795  0.9550  0.5356 -0.6537
  501MOL0     C69042   4.389   4.600   4.870 -0.0886  0.4630  0.2796
  501MOL0     C69043   4.475   4.686   4.786 -0.6754  0.0274 -0.0445
  501MOL0     C69044   4.489   4.652   4.650  0.3021 -0.1880  0.4473
  501MOL0    Cl69045   4.581   4.786   4.568 -0.4214 -0.3455  0.1129
  501MOL0     C69046   3.845   4.000   5.118  0.3363  0.3919  0.1206
  501MOL0     C69047   3.790   3.884   5.174 -0.7529  0.2546  0.3666
  501MOL0     O69048   3.922   3.547   5.241  0.0253 -0.0671  0.3696
  501MOL0     C69049   3.850   3.397   5.476 -0.2264 -0.0970  0.6086
  501MOL0     C69050   3.797   3.290   5.547  0.2653  0.3476  0.6196
  501MOL0     N69051   3.457   2.516   5.644 -0.8231  0.8235 -0.7275
  501MOL0     N69052   3.370   2.434   5.577 -0.2138  0.0502  0.0558
  501MOL0     C69053   2.519   1.979   5.991 -0.1779 -0.2103 -0.0937
  501MOL0     C69054   2.407   2.009   6.072  0.5033  0.4840  0.2247
  501MOL0     C69055   2.151   2.227   6.381  0.2632  0.5511  0.1341
  501MOL0     C69056   2.104   2.115   6.461 -0.1395 -1.6466  0.7537
  501MOL0     C69057   2.003   2.140   6.559  0.2469  0.6457  0.3125
  501MOL0     C69058   1.942   2.264   6.567  0.5076  0.4433 -0.7771
  501MOL0     O69059   1.862   2.301   6.679 -0.3904  0.2579  0.1497
  501MOL0     C69060   1.848   2.208   6.785  0.2239 -0.5586 -0.1877
  501MOL0     C69061   1.757   2.256   6.903 -0.9288 -0.1080  0.4066
  501MOL0     C69062   1.776   2.403   6.948 -0.4584  0.4051 -0.6815
  501MOL0     C69063   1.683   2.408   7.080  0.0024 -0.2434 -0.4183
  501MOL0     C69064   1.671   2.544   7.139 -0.0268 -0.2301 -0.7805
  501MOL0     C69065   1.664   2.650   7.199 -0.2074 -0.7398  0.1389
  501MOL0     C69066   1.999   2.371   6.501  0.2285  0.3390  0.2363
  501MOL0     C69067   2.092   2.358   6.395 -0.5535 -0.0468  0.1772
  501MOL0     C69068   2.140   2.477   6.311 -0.4174  0.5086 -0.0903
  501MOL0     H69069   2.578   2.080   6.357 -1.8907  0.4541  1.2388
  501MOL0     H69070   2.770   2.019   6.211 -0.3804  0.7871 -1.1381
  501MOL0     H69071   2.941   1.972   5.971  1.7821  2.1691 -1.1675
  501MOL0     H69072   2.835   2.117   5.986  0.6853 -0.5038  1.9824
  501MOL0     H69073   2.936   2.119   5.787 -0.7947  0.6868 -3.0224
  501MOL0     H69074   2.877   1.958   5.738 -0.1606 -1.4400  0.8262
  501MOL0     H69075   2.634   2.078   5.744 -0.1844 -0.3861 -1.6787
  501MOL0     H69076   2.734   2.226   5.767 -0.2377  1.2081 -2.7501
  501MOL0     H69077   2.718   2.048   5.517 -0.2249  0.4780 -1.4651
  501MOL0     H69078   2.695   2.226   5.541 -2.3653 -0.4729  2.5635
  501MOL0     H69079   2.900   2.139   5.413  2.4993  0.6287 -0.7007
  501MOL0     H69080   2.969   2.101   5.572 -1.4806  0.7900  1.7288
  501MOL0     H69081   2.878   2.376   5.458  1.4250  0.6924 -2.2655
  501MOL0     H69082   2.925   2.345   5.622  0.0883 -0.2667 -0.7540
  501MOL0     H69083   3.126   2.255   5.417 -0.5285 -0.5460  1.7734
  501MOL0     H69084   3.131   2.303   5.595  0.9834 -0.6883 -0.8216
  501MOL0     H69085   3.125   2.467   5.357 -0.5207 -1.6641 -0.2137
  501MOL0     H69086   3.057   2.532   5.510  0.4672 -0.9509  1.5699
  501MOL0     H69087   3.229   2.728   5.534 -1.4284 -0.6379 -3.9171
  501MOL0     H69088   3.519   2.730   5.802  1.5551  1.4102 -1.8232
  501MOL0     H69089   3.370   2.822   5.775 -0.1034  0.9754 -0.4681
  501MOL0     H69090   3.604   2.801   5.584  0.6093  2.9971 -0.7763
  501MOL0     H69091   3.444   2.872   5.546  1.9697  0.4541 -1.2056
  501MOL0     H69092   3.477   3.028   5.724 -1.3468 -1.9720  3.1237
  501MOL0     H69093   3.612   2.935   5.806  1.4747  0.1200 -0.6343
  501MOL0     H69094   3.737   3.083   5.703  2.1760 -3.5274 -0.4659
  501MOL0     H69095   3.726   2.986   5.559 -0.0613 -2.0014  0.4395
  501MOL0     H69096   3.488   3.296   5.403 -0.8163  2.4760  1.0369
  501MOL0     H69097   3.521   3.617   5.307  0.8878  0.5770  1.1825
  501MOL0     H69098   3.455   3.468   5.250  0.9145  0.0249  2.1686
  501MOL0     H69099   3.596   3.533   5.165  1.8858 -1.1068  1.2535
  501MOL0     H69100   4.054   3.800   5.354  1.1275 -2.3319 -2.0474
  501MOL0     H69101   4.161   3.982   5.224  0.8841 -4.1420  1.8909
  501MOL0     H69102   4.187   4.211   5.140  1.6897 -1.8875  0.1512
  501MOL0     H69103   4.190   4.087   5.009 -0.1743 -0.8430  0.9652
  501MOL0     H69104   4.299   4.283   4.911 -0.0758 -2.4920  0.9146
  501MOL0     H69105   4.131   4.267   4.846 -0.8928 -2.8931  1.3040
  501MOL0     H69106   4.232   4.472   5.053 -2.4040  2.1378  2.3001
  501MOL0     H69107   4.059   4.420   5.035 -0.8813 -2.8692 -1.2401
  501MOL0     H69108   4.102   4.634   4.924 -0.8991  0.9299 -2.5725
  501MOL0     H69109   4.064   4.492   4.817  1.0935  2.1442 -2.3282
  501MOL0     H69110   4.291   4.483   4.729  1.6582  0.1292  0.1177
  501MOL0     H69111   4.224   4.656   4.749 -1.1065  1.2726  2.3745
  501MOL0     H69112   4.447   4.513   4.901 -1.1696 -1.1592 -1.9492
  501MOL0     H69113   4.358   4.658   4.958 -3.5956 -2.0334  0.9231
  501MOL0     H69114   4.575   4.696   4.831 -0.4681 -2.9549  0.3226
  501MOL0     H69115   4.416   4.778   4.778 -0.7817 -0.1838 -1.9931
  501MOL0     H69116   4.402   4.636   4.586 -0.6505 -1.5388  2.0155
  501MOL0     H69117   4.551   4.563   4.642 -1.0961 -1.0182 -2.3684
  501MOL0     H69118   3.787   4.058   5.047  0.0908 -0.7480 -0.6267
  501MOL0     H69119   3.696   3.836   5.150 -0.3737  0.0886 -0.8641
  501MOL0     H69120   3.954   3.429   5.480  0.3643 -1.1351 -3.0099
  501MOL0     H69121   3.859   3.251   5.626  1.5157  1.3303  0.1552
  501MOL0     H69122   2.518   1.957   5.884  1.5059 -0.3697 -0.1115
  501MOL0     H69123   2.305   2.017   6.036  0.9602 -1.3247 -1.7232
  501MOL0     H69124   2.159   2.022   6.463 -0.0365 -1.5850  0.7697
  501MOL0     H69125   1.977   2.050   6.614 -0.2217  0.6734  0.1454
  501MOL0     H69126   1.803   2.117   6.743  1.7226 -1.3168 -0.2316
  501MOL0     H69127   1.947   2.182   6.824  0.0236  0.0530  0.7638
  501MOL0     H69128   1.765   2.192   6.991 -0.6945 -2.5377 -1.2895
  501MOL0     H69129   1.655   2.249   6.863 -2.0793  7.9316  0.2549
  501MOL0     H69130   1.880   2.402   6.982 -0.8131 -2.2827  0.6265
  501MOL0     H69131   1.754   2.480   6.874 -0.3139 -1.7908 -3.1418
  501MOL0     H69132   1.721   2.346   7.162 -2.9416 -1.5014  0.1309
  501MOL0     H69133   1.581   2.374   7.063  0.9767 -2.1504 -3.2047
  501MOL0     H69134   1.645   2.748   7.237 -2.1249  0.3399 -3.1651
  501MOL0     H69135   1.968   2.474   6.516  1.4136  1.0662 -1.9673
  501MOL0     H69136   2.248   2.484   6.318  0.0606 -3.2933 -1.2321
  501MOL0     H69137   2.104   2.459   6.209 -0.1015 -0.5373 -0.0284
  501MOL0     H69138   2.098   2.574   6.341 -0.9133 -0.3598  2.3097
  502MOL0     O69139   5.910   6.820  10.389  0.4595 -0.6561  0.7874
  502MOL0     C69140   5.895   6.832  10.508  0.0213 -0.3057 -0.5082
  502MOL0     O69141   5.832   6.932  10.572 -0.0782  0.2934  0.7354
  502MOL0     C69142   5.756   7.016  10.493 -0.3829 -0.2036 -0.4063
  502MOL0     C69143   5.617   6.997  10.491 -0.4125  0.0491 -0.1249
  502MOL0     C69144   5.543   7.092  10.431 -0.4136  0.2784  0.0698
  502MOL0     C69145   5.606   7.210  10.375  0.1818  0.2482 -1.2842
  502MOL0     O69146   5.528   7.316  10.336  0.5880 -0.7617 -0.1354
  502MOL0     C69147   5.409   7.277  10.263 -0.4173 -0.6285  0.4864
  502MOL0     C69148   5.342   7.413  10.217  0.0062  0.2905  1.0857
  502MOL0     C69149   5.418   7.494  10.106 -0.0055  0.1065 -0.9354
  502MOL0     C69150   5.334   7.617  10.093 -0.0453  0.4101 -0.4152
  502MOL0     C69151   5.414   7.718  10.007 -0.0928  0.2065  1.0362
  502MOL0     C69152   5.343   7.855   9.961 -0.8563  0.8770 -0.9205
  502MOL0     C69153   5.432   7.932   9.870  0.5269  0.6156 -0.0143
  502MOL0     C69154   5.420   8.081   9.861 -0.4364  0.0170  0.0664
  502MOL0     N69155   5.301   8.122   9.784  0.0380 -0.8721 -0.4633
  502MOL0     C69156   5.312   8.205   9.678 -0.3321 -0.0390  0.1873
  502MOL0     C69157   5.187   8.218   9.627  0.8617 -0.5473  0.5787
  502MOL0     C69158   5.155   8.283   9.484  1.3966  0.0310 -1.1682
  502MOL0     C69159   5.035   8.376   9.496 -0.4144 -0.3917 -0.1149
  502MOL0     C69160   5.069   8.504   9.579 -0.9181  0.7849  0.2936
  502MOL0     C69161   4.950   8.600   9.590  0.2331  0.5393  0.1610
  502MOL0     O69162   4.903   8.645   9.459 -0.9552 -0.1386  0.2113
  502MOL0     C69163   4.774   8.659   9.452  0.0563 -0.2233 -1.0238
  502MOL0     C69164   4.693   8.551   9.430  0.6496  0.4971  1.1008
  502MOL0     C69165   4.559   8.571   9.415  0.7937 -0.8076  0.4272
  502MOL0     C69166   4.478   8.443   9.411  0.4342 -0.6210  0.1003
  502MOL0     C69167   4.504   8.696   9.411 -0.1910  0.0080  0.9417
  502MOL0     C69168   4.355   8.731   9.397  0.4075 -0.1446 -0.0008
  502MOL0     O69169   4.337   8.858   9.358 -0.8839  0.1208 -0.6152
  502MOL0     C69170   4.204   8.901   9.338  0.4316  0.2220 -0.5236
  502MOL0     C69171   4.136   8.930   9.454 -0.3933  0.3342 -0.0658
  502MOL0     C69172   4.009   8.982   9.455 -0.4299 -0.1550 -0.0402
  502MOL0     C69173   3.932   8.997   9.335  0.3115  0.2904 -0.2715
  502MOL0     O69174   3.801   9.032   9.329 -0.9834  0.9307  0.2914
  502MOL0     C69175   3.704   8.954   9.405 -0.2554  0.5601  0.1611
  502MOL0     C69176   3.652   9.034   9.529  0.2445  0.2700  0.0881
  502MOL0     C69177   3.550   8.950   9.620  0.2615  0.0305  0.2943
  502MOL0     C69178   3.536   9.025   9.744  0.7382 -0.3158  0.3075
  502MOL0     C69179   3.410   8.975   9.822 -0.6788  0.8009  0.9989
  502MOL0     C69180   3.360   9.083   9.918  0.3841 -0.1369  0.3114
  502MOL0     C69181   3.249   9.036  10.007  0.2492 -0.1970 -0.0463
  502MOL0     C69182   3.122   8.979   9.935 -0.1732  0.1030  0.2031
  502MOL0    Cl69183   3.025   9.120   9.865  0.3213  0.0113 -0.5716
  502MOL0     C69184   4.003   8.986   9.212  0.8379 -0.9008 -0.5653
  502MOL0     C69185   4.146   8.941   9.216  0.4896 -0.3986 -0.0447
  502MOL0     O69186   4.259   8.652   9.417  0.6365  0.6367 -0.2701
  502MOL0     C69187   4.589   8.804   9.421 -0.4549  0.5280 -0.3272
  502MOL0     C69188   4.722   8.786   9.444 -0.3892 -0.2252 -0.6380
  502MOL0     N69189   5.101   8.143   9.701  0.3749  0.6869 -0.0839
  502MOL0     N69190   5.170   8.092   9.792  0.6623  0.4835  0.7498
  502MOL0     C69191   5.741   7.223  10.375  0.3142 -0.7823 -0.9442
  502MOL0     C69192   5.821   7.132  10.446 -0.3545 -0.2949  0.5273
  502MOL0     C69193   5.953   6.731  10.605 -0.2576 -0.2353  0.0945
  502MOL0     C69194   5.898   6.730  10.739  0.3652  0.0198  0.6974
  502MOL0     C69195   5.926   6.637  10.836  0.1715 -0.3776  0.1283
  502MOL0     C69196   6.007   6.534  10.818 -0.1319  0.2214  0.4885
  502MOL0     O69197   6.041   6.442  10.913  0.5022 -0.3192 -0.4822
  502MOL0     C69198   5.968   6.428  11.046  0.2807 -0.3087 -0.1626
  502MOL0     C69199   5.827   6.353  11.042  0.4542  0.0884  0.0153
  502MOL0     C69200   5.851   6.232  10.954  1.0391 -0.1239  0.6458
  502MOL0     C69201   5.726   6.152  10.934  1.2727 -0.1265  0.6515
  502MOL0     C69202   5.610   6.222  10.877  0.5046 -0.8400 -0.4643
  502MOL0     C69203   5.498   6.260  10.839  0.4346 -0.0080  0.4572
  502MOL0     C69204   6.055   6.518  10.677  0.5820 -0.2122 -0.3923
  502MOL0     C69205   6.027   6.618  10.578  0.5813 -0.0151 -0.8903
  502MOL0     C69206   6.074   6.570  10.448  0.1951  0.1883  0.5473
  502MOL0     H69207   5.566   6.916  10.542 -2.0322  1.6534  0.9156
  502MOL0     H69208   5.435   7.088  10.419 -0.2828 -0.3054 -1.1325
  502MOL0     H69209   5.342   7.228  10.334  0.1162 -0.6375  0.9962
  502MOL0     H69210   5.424   7.220  10.171 -0.0193  2.2127 -1.3278
  502MOL0     H69211   5.234   7.404  10.199  0.1228  0.6425  0.1225
  502MOL0     H69212   5.340   7.475  10.307  1.1356 -0.0932  1.3834
  502MOL0     H69213   5.524   7.519  10.120 -0.1525 -0.3247  1.1777
  502MOL0     H69214   5.413   7.446  10.008 -1.7721  1.5495 -1.6143
  502MOL0     H69215   5.233   7.596  10.058 -0.8458  2.3558  0.6029
  502MOL0     H69216   5.313   7.674  10.184  0.8010  1.2069 -0.7064
  502MOL0     H69217   5.447   7.678   9.910 -0.8688 -1.4533  1.4196
  502MOL0     H69218   5.501   7.747  10.066  0.1809  1.9823 -0.1394
  502MOL0     H69219   5.240   7.832   9.934 -1.0466 -0.6123  0.9400
  502MOL0     H69220   5.327   7.931  10.038 -1.7814  3.4919 -3.4923
  502MOL0     H69221   5.444   7.883   9.773 -2.1492 -0.5023  0.1147
  502MOL0     H69222   5.533   7.920   9.909  0.4063 -1.0613 -0.1199
  502MOL0     H69223   5.414   8.125   9.961 -1.6305  0.9055 -0.3689
  502MOL0     H69224   5.508   8.123   9.813 -0.8157  1.9168  0.9740
  502MOL0     H69225   5.398   8.251   9.630 -1.4523  1.4709 -0.4940
  502MOL0     H69226   5.110   8.200   9.429 -3.4766 -0.0511  2.2957
  502MOL0     H69227   5.240   8.332   9.435  3.3427  0.2783  2.1314
  502MOL0     H69228   4.994   8.399   9.398  1.0447  2.1802 -0.2381
  502MOL0     H69229   4.952   8.328   9.547 -1.1877 -1.3191 -2.1544
  502MOL0     H69230   5.096   8.480   9.683 -0.0537 -0.3809 -0.1750
  502MOL0     H69231   5.152   8.560   9.535  0.0179 -1.6036 -1.2071
  502MOL0     H69232   4.866   8.553   9.642 -3.3845  1.1739 -4.4484
  502MOL0     H69233   4.986   8.678   9.658  3.2523 -0.1468 -0.4772
  502MOL0     H69234   4.743   8.455   9.436 -0.3843 -0.1042  0.2647
  502MOL0     H69235   4.388   8.451   9.351  0.4617 -0.7072  0.0471
  502MOL0     H69236   4.451   8.411   9.512 -3.4197 -1.3080 -0.9946
  502MOL0     H69237   4.535   8.359   9.370 -1.3485 -0.6956 -2.4648
  502MOL0     H69238   4.182   8.910   9.551 -5.9327  0.3628  2.9632
  502MOL0     H69239   3.954   9.001   9.546 -1.6961 -1.0169 -0.6030
  502MOL0     H69240   3.621   8.938   9.336 -3.1520 -4.0743  4.0326
  502MOL0     H69241   3.736   8.854   9.433 -2.3942 -1.1083 -2.8437
  502MOL0     H69242   3.731   9.057   9.601 -1.0429  1.0454  1.3020
  502MOL0     H69243   3.601   9.126   9.499 -2.4624 -1.6095 -1.5711
  502MOL0     H69244   3.580   8.846   9.634 -0.1337 -0.3923 -1.7455
  502MOL0     H69245   3.452   8.945   9.572  0.4092 -2.7828  0.0914
  502MOL0     H69246   3.528   9.128   9.710 -0.9320 -0.7578 -0.7710
  502MOL0     H69247   3.616   9.021   9.818  3.3357  2.2030 -2.1135
  502MOL0     H69248   3.336   8.960   9.742  2.1587 -2.2833 -1.3425
  502MOL0     H69249   3.421   8.883   9.880 -2.7188  0.4162  0.8629
  502MOL0     H69250   3.323   9.167   9.859 -1.6860 -1.0825  0.2097
  502MOL0     H69251   3.442   9.111   9.985  0.9117  2.9868 -1.4805
  502MOL0     H69252   3.212   9.116  10.072  2.1803 -0.7970  1.9381
  502MOL0     H69253   3.281   8.945  10.059  1.6667 -1.9416 -3.6278
  502MOL0     H69254   3.063   8.918  10.003  0.1065  1.6980  1.9478
  502MOL0     H69255   3.157   8.912   9.856 -0.9392 -2.1529  1.6919
  502MOL0     H69256   3.959   9.009   9.115 -2.3032  1.7344  1.3031
  502MOL0     H69257   4.206   8.935   9.126  1.1893  3.0294  0.0655
  502MOL0     H69258   4.550   8.905   9.434  0.1247  0.5949  1.1004
  502MOL0     H69259   4.795   8.865   9.456  1.0489 -1.8336  2.5012
  502MOL0     H69260   5.789   7.311  10.333 -0.4972 -0.5285 -1.3571
  502MOL0     H69261   5.929   7.141  10.446 -0.2592 -1.3594  0.3501
  502MOL0     H69262   5.833   6.807  10.779 -2.2186 -2.3698  1.3335
  502MOL0     H69263   5.872   6.644  10.930 -2.1230  2.7574 -1.2347
  502MOL0     H69264   6.033   6.384  11.123 -0.5792  0.4773  1.0443
  502MOL0     H69265   5.951   6.532  11.077  2.0687 -0.0811  0.1446
  502MOL0     H69266   5.756   6.420  10.994 -1.2335 -0.3148  1.8091
  502MOL0     H69267   5.791   6.333  11.144 -0.1131  0.3441 -0.1317
  502MOL0     H69268   5.891   6.266  10.858  2.5107 -0.8786  0.9637
  502MOL0     H69269   5.932   6.169  10.992  1.9204 -0.5253 -1.7094
  502MOL0     H69270   5.691   6.110  11.029 -1.0300 -0.3754 -0.2668
  502MOL0     H69271   5.749   6.071  10.865 -1.3093  0.8120 -1.4814
  502MOL0     H69272   5.400   6.276  10.801 -0.2631 -1.4307  1.5669
  502MOL0     H69273   6.109   6.426  10.655 -0.3804 -1.6267  2.6705
  502MOL0     H69274   5.990   6.581  10.378  0.0027 -1.5445  0.4716
  502MOL0     H69275   6.155   6.626  10.400  0.0931  0.9777  1.2705
  502MOL0     H69276   6.104   6.465  10.439 -1.4805 -0.2127 -1.0725
  503MOL0     O69277   2.981   8.962   1.180  0.4756 -0.0981  0.2347
  503MOL0     C69278   3.100   8.919   1.188 -0.1217  0.3022  0.0443
  503MOL0     O69279   3.141   8.851   1.297 -0.5578 -0.3668  0.3584
  503MOL0     C69280   3.059   8.843   1.406  0.4822 -0.0187  1.3522
  503MOL0     C69281   3.067   8.931   1.503 -0.6001  0.6255  0.1991
  503MOL0     C69282   3.018   8.907   1.628  0.9139  0.3055  0.7197
  503MOL0     C69283   2.934   8.803   1.653 -0.0927  0.3139  0.6632
  503MOL0     O69284   2.871   8.800   1.777 -0.4688  0.5358  0.4247
  503MOL0     C69285   2.758   8.724   1.801  0.3040 -0.7193 -0.7721
  503MOL0     C69286   2.738   8.675   1.943 -0.0443 -0.2389  0.4080
  503MOL0     C69287   2.613   8.587   1.978 -0.9388 -0.5665  0.1701
  503MOL0     C69288   2.473   8.634   1.934  0.0817 -0.4066  0.1714
  503MOL0     C69289   2.366   8.524   1.921 -0.3553 -0.1646  0.4562
  503MOL0     C69290   2.324   8.480   2.055  1.1766  0.1896 -0.2472
  503MOL0     C69291   2.201   8.382   2.054 -0.0259  0.3470  0.6983
  503MOL0     C69292   2.238   8.241   2.016 -0.2152  0.4094 -0.3495
  503MOL0     N69293   2.290   8.179   2.131 -0.0327  0.4231  0.0160
  503MOL0     C69294   2.423   8.174   2.172  0.7015  0.3335 -0.3172
  503MOL0     C69295   2.420   8.098   2.289  0.3841  0.0334  0.8991
  503MOL0     C69296   2.525   8.051   2.382  0.1881  0.6605  0.5160
  503MOL0     C69297   2.478   8.067   2.522 -0.4080 -0.3565  0.9968
  503MOL0     C69298   2.566   8.010   2.618 -0.6019  0.6930  0.0077
  503MOL0     C69299   2.505   7.993   2.764 -0.1733  0.4736  0.0483
  503MOL0     O69300   2.461   8.117   2.829 -0.5737 -0.4878  0.7672
  503MOL0     C69301   2.429   8.110   2.962 -0.0035 -0.3792 -0.0316
  503MOL0     C69302   2.401   8.000   3.034 -1.2332  0.9985  0.4200
  503MOL0     C69303   2.391   8.006   3.174  0.4408 -0.7790  0.1331
  503MOL0     C69304   2.379   7.866   3.233  0.0303  0.3481 -0.2718
  503MOL0     C69305   2.376   8.128   3.251 -0.1868  0.5921  0.9125
  503MOL0     C69306   2.353   8.143   3.397 -0.4177 -0.7932 -0.1158
  503MOL0     O69307   2.347   8.270   3.449  0.1966  0.1142  0.0359
  503MOL0     C69308   2.273   8.293   3.559  0.5721  0.3388 -1.0899
  503MOL0     C69309   2.317   8.286   3.693 -0.0015  0.3214  0.3823
  503MOL0     C69310   2.223   8.290   3.797  0.1750  0.0436  0.1731
  503MOL0     C69311   2.087   8.298   3.782 -0.4089  0.5190  0.1736
  503MOL0     O69312   2.012   8.309   3.898  0.2699  1.2590 -0.0523
  503MOL0     C69313   1.904   8.412   3.910 -0.5055 -0.0303  0.5467
  503MOL0     C69314   1.871   8.434   4.058  0.9088 -0.8588  0.6389
  503MOL0     C69315   1.752   8.535   4.069  0.0646 -0.5282 -1.3486
  503MOL0     C69316   1.689   8.536   4.213  0.2413  0.2552  1.0537
  503MOL0     C69317   1.788   8.548   4.334  0.1754  0.0184 -0.1076
  503MOL0     C69318   1.836   8.682   4.382 -0.0840 -0.8691 -0.4704
  503MOL0     C69319   1.943   8.677   4.502  0.1592 -0.5052  0.6636
  503MOL0     C69320   2.068   8.588   4.472  0.1770 -0.0700  0.2148
  503MOL0    Cl69321   2.132   8.605   4.308  0.0284 -0.0924  0.3751
  503MOL0     C69322   2.049   8.301   3.642 -0.2688  0.4905  0.5640
  503MOL0     C69323   2.137   8.292   3.532  0.0901  0.4370  0.1200
  503MOL0     O69324   2.325   8.042   3.461  0.0730  0.0244  0.2365
  503MOL0     C69325   2.408   8.239   3.172 -0.7500 -0.5487 -0.3214
  503MOL0     C69326   2.429   8.233   3.032  0.3170  0.2743  0.0285
  503MOL0     N69327   2.292   8.050   2.306  0.0397 -0.6078  0.7399
  503MOL0     N69328   2.214   8.102   2.218 -0.1809  0.2936 -0.1288
  503MOL0     C69329   2.922   8.711   1.548  0.2615  0.4802 -0.5060
  503MOL0     C69330   2.983   8.727   1.423 -0.1417 -0.4741 -0.6352
  503MOL0     C69331   3.194   8.964   1.079 -0.8740  0.2346  1.0089
  503MOL0     C69332   3.148   8.963   0.947 -0.2178 -0.2723 -0.3901
  503MOL0     C69333   3.244   8.994   0.845  1.1532 -0.6414  0.0798
  503MOL0     C69334   3.371   9.051   0.862  0.1811 -0.0843 -0.8807
  503MOL0     O69335   3.465   9.092   0.775 -0.6844  0.9204 -0.4965
  503MOL0     C69336   3.420   9.169   0.668 -1.3381  0.0200 -0.2958
  503MOL0     C69337   3.452   9.322   0.694  0.4536  0.4698  0.0543
  503MOL0     C69338   3.427   9.415   0.571 -0.7382  0.0506 -0.0080
  503MOL0     C69339   3.325   9.372   0.473  0.0036 -0.1406  0.4054
  503MOL0     C69340   3.186   9.357   0.520  0.0162  0.7966 -0.7700
  503MOL0     C69341   3.076   9.337   0.569 -0.0691 -0.0117  0.4522
  503MOL0     C69342   3.409   9.049   0.999 -0.4489  0.1702 -0.1861
  503MOL0     C69343   3.332   8.997   1.105  0.6943 -0.4338 -0.6687
  503MOL0     C69344   3.390   9.004   1.244  0.7178 -0.8512 -1.4081
  503MOL0     H69345   3.129   9.017   1.480 -3.7277  2.1324 -4.1939
  503MOL0     H69346   3.035   8.979   1.707  1.2707  1.9186 -0.7764
  503MOL0     H69347   2.757   8.633   1.741 -0.8865 -2.1518  1.2920
  503MOL0     H69348   2.667   8.783   1.790 -0.6779 -0.8585  4.2250
  503MOL0     H69349   2.824   8.611   1.967 -0.5040 -1.2283 -0.4786
  503MOL0     H69350   2.743   8.761   2.010  2.5454 -0.7583  0.9773
  503MOL0     H69351   2.622   8.489   1.931 -1.8926  0.2438 -1.8524
  503MOL0     H69352   2.608   8.569   2.086  0.7626 -0.7811  0.2401
  503MOL0     H69353   2.451   8.718   2.001  0.8645 -0.7848  0.9247
  503MOL0     H69354   2.487   8.668   1.830  1.9013  2.2148  1.1549
  503MOL0     H69355   2.406   8.431   1.879 -0.8354 -2.0093  3.7186
  503MOL0     H69356   2.291   8.562   1.852  2.5788  2.2991 -1.6269
  503MOL0     H69357   2.403   8.416   2.095  0.3666 -2.3439 -2.3782
  503MOL0     H69358   2.311   8.561   2.127  2.7511 -0.6460  1.0490
  503MOL0     H69359   2.131   8.424   1.981  1.5642 -0.6673 -1.5373
  503MOL0     H69360   2.159   8.395   2.154  0.1570  2.0984  0.5852
  503MOL0     H69361   2.146   8.201   1.973  0.3446  0.6158 -1.8179
  503MOL0     H69362   2.303   8.237   1.928  0.5876  1.7913  0.1552
  503MOL0     H69363   2.500   8.238   2.130  0.8712  1.4785  1.6017
  503MOL0     H69364   2.615   8.113   2.375  0.9049 -0.1604  1.9079
  503MOL0     H69365   2.547   7.946   2.366  0.1329  0.2285  2.8501
  503MOL0     H69366   2.465   8.174   2.537 -2.4675 -0.4273 -0.0392
  503MOL0     H69367   2.381   8.022   2.546  0.1771 -0.8820  2.5389
  503MOL0     H69368   2.588   7.909   2.582  0.4745  0.7321  0.5118
  503MOL0     H69369   2.665   8.055   2.623  0.0194 -0.6876  0.9514
  503MOL0     H69370   2.432   7.911   2.770 -2.6803  2.6021  0.3144
  503MOL0     H69371   2.592   7.954   2.818  0.9768  3.5699  0.6003
  503MOL0     H69372   2.420   7.903   2.989  0.5969  0.4610  2.2040
  503MOL0     H69373   2.347   7.787   3.165  1.8326  0.3860 -1.2263
  503MOL0     H69374   2.299   7.862   3.307 -1.5625 -0.3890 -1.9590
  503MOL0     H69375   2.479   7.841   3.268  1.0654 -0.7864 -3.6483
  503MOL0     H69376   2.424   8.278   3.710  0.0356  1.3315  0.6890
  503MOL0     H69377   2.261   8.275   3.897 -1.3950 -2.8925  0.4624
  503MOL0     H69378   1.934   8.511   3.874  2.2224 -1.0301 -0.1823
  503MOL0     H69379   1.816   8.383   3.852 -1.4540  1.4688  1.1669
  503MOL0     H69380   1.832   8.339   4.097 -0.1494 -0.6325  0.1614
  503MOL0     H69381   1.958   8.476   4.109 -0.5335  2.2317  0.7400
  503MOL0     H69382   1.675   8.509   3.996 -2.1175 -1.2333  1.0483
  503MOL0     H69383   1.786   8.635   4.042  1.7049 -0.5878  0.2665
  503MOL0     H69384   1.640   8.438   4.218 -3.0024  1.6699  0.0759
  503MOL0     H69385   1.612   8.614   4.219  0.8264  1.2001 -2.0424
  503MOL0     H69386   1.739   8.517   4.426 -1.6371  1.6893 -0.4477
  503MOL0     H69387   1.874   8.481   4.321  0.4766 -0.6154  4.0355
  503MOL0     H69388   1.757   8.745   4.423  1.1868 -1.1394  2.7335
  503MOL0     H69389   1.878   8.738   4.298  0.2739 -0.0918  0.2056
  503MOL0     H69390   1.899   8.620   4.584  2.9196 -2.9945  0.5548
  503MOL0     H69391   1.959   8.784   4.523  0.3579 -0.5371  0.6779
  503MOL0     H69392   2.038   8.483   4.478  0.3804 -0.4261 -2.9763
  503MOL0     H69393   2.143   8.615   4.547 -0.4638 -0.9240  1.1800
  503MOL0     H69394   1.943   8.314   3.625 -0.5092 -0.7781  0.9918
  503MOL0     H69395   2.106   8.303   3.429  0.7054 -2.0826 -0.4056
  503MOL0     H69396   2.423   8.335   3.220  2.9744 -1.0093 -0.2794
  503MOL0     H69397   2.468   8.325   2.991 -1.8569  1.1105 -0.2695
  503MOL0     H69398   2.859   8.623   1.560 -0.1785  0.9350  0.6320
  503MOL0     H69399   2.984   8.646   1.351  1.5091  0.1372 -1.3397
  503MOL0     H69400   3.050   8.920   0.928 -0.8060 -1.0291  3.5129
  503MOL0     H69401   3.208   8.979   0.743 -3.0497 -2.3525  1.5934
  503MOL0     H69402   3.463   9.132   0.574 -1.1046  2.9414 -1.4567
  503MOL0     H69403   3.313   9.165   0.647 -1.1676  0.8259 -1.4495
  503MOL0     H69404   3.558   9.333   0.718  0.5873  3.0852 -1.3743
  503MOL0     H69405   3.397   9.366   0.778 -1.9607  0.9124 -1.6527
  503MOL0     H69406   3.402   9.516   0.605  1.2620  0.7093 -0.3560
  503MOL0     H69407   3.529   9.418   0.532 -0.1019 -2.5446  1.1788
  503MOL0     H69408   3.346   9.270   0.439 -2.6618 -0.9327  0.8919
  503MOL0     H69409   3.339   9.443   0.391  4.4436  1.6106  2.3602
  503MOL0     H69410   2.972   9.334   0.596  0.6117  1.5443  3.8387
  503MOL0     H69411   3.512   9.070   1.024 -1.1888  2.5120  1.1020
  503MOL0     H69412   3.494   9.037   1.243  0.7436 -0.3375  2.4237
  503MOL0     H69413   3.338   9.072   1.313  1.1688 -2.4979  0.6719
  503MOL0     H69414   3.376   8.908   1.296 -1.9599 -0.7985 -1.8770
  504MOL0     O69415   4.622   6.354   4.338  0.2666  0.6361 -0.6473
  504MOL0     C69416   4.620   6.467   4.287 -0.3519  0.0156 -0.0169
  504MOL0     O69417   4.516   6.513   4.217  0.2755  0.0912  0.1653
  504MOL0     C69418   4.391   6.463   4.206 -0.0627 -0.7410  0.2295
  504MOL0     C69419   4.360   6.330   4.197  0.3779  0.0940 -0.3553
  504MOL0     C69420   4.225   6.279   4.183 -0.6725  0.2541  0.7061
  504MOL0     C69421   4.122   6.372   4.183 -0.4486 -0.4643  0.3748
  504MOL0     O69422   3.990   6.344   4.204 -0.4968 -0.3743  0.4735
  504MOL0     C69423   3.948   6.206   4.219  0.4345  0.3119 -0.1830
  504MOL0     C69424   3.949   6.143   4.370  0.1931  1.4262  0.1035
  504MOL0     C69425   3.861   6.018   4.377  0.0670 -0.4885 -0.1481
  504MOL0     C69426   3.921   5.907   4.285 -0.0767  0.5088  0.5276
  504MOL0     C69427   3.882   5.760   4.312  0.4185  0.3205 -0.3234
  504MOL0     C69428   3.931   5.665   4.209 -0.7806  0.0795 -0.2110
  504MOL0     C69429   3.859   5.524   4.210 -0.0231  0.2974  0.5975
  504MOL0     C69430   3.908   5.432   4.096 -0.3404 -0.5748  0.6577
  504MOL0     N69431   3.853   5.301   4.104 -0.6222 -0.1063 -0.6325
  504MOL0     C69432   3.752   5.252   4.030  0.7111 -0.2726 -0.4158
  504MOL0     C69433   3.737   5.124   4.067  0.2688  0.8389 -0.5864
  504MOL0     C69434   3.651   5.016   4.003  0.8586  1.0382  0.3216
  504MOL0     C69435   3.684   4.882   4.055 -0.6261  0.0813  0.0456
  504MOL0     C69436   3.590   4.761   4.020 -0.8787  0.4697  0.5278
  504MOL0     C69437   3.655   4.632   4.070 -0.6386 -0.1904 -0.1284
  504MOL0     O69438   3.576   4.510   4.050  0.0810 -0.2173 -0.2806
  504MOL0     C69439   3.504   4.477   4.159 -0.1519  0.0103 -0.0277
  504MOL0     C69440   3.462   4.557   4.263 -0.4086 -0.2658 -0.5464
  504MOL0     C69441   3.387   4.503   4.375  0.4439  0.3143 -0.0284
  504MOL0     C69442   3.342   4.598   4.483  0.1681 -0.0339  0.1822
  504MOL0     C69443   3.336   4.370   4.369  0.1705 -0.3015  0.0920
  504MOL0     C69444   3.249   4.323   4.471  0.0589  0.1350  0.2652
  504MOL0     O69445   3.314   4.278   4.578  1.0419  0.1301 -0.2967
  504MOL0     C69446   3.229   4.234   4.675 -0.1723  0.3987 -0.5771
  504MOL0     C69447   3.263   4.106   4.728 -0.0458 -0.1155  0.4220
  504MOL0     C69448   3.207   4.056   4.839 -0.4453 -0.3898  0.0374
  504MOL0     C69449   3.098   4.127   4.890  0.3508 -0.5514 -0.3521
  504MOL0     O69450   3.036   4.064   4.993  0.1875  0.2563  0.4560
  504MOL0     C69451   3.004   4.150   5.099 -0.2446 -0.0887 -0.1108
  504MOL0     C69452   2.973   4.054   5.216 -0.4596  0.3080  0.4394
  504MOL0     C69453   2.855   3.961   5.186  0.0861 -0.6949  0.0804
  504MOL0     C69454   2.848   3.844   5.298 -0.5178 -0.2150  0.8567
  504MOL0     C69455   2.722   3.756   5.273  0.0150 -0.5555  0.6547
  504MOL0     C69456   2.742   3.611   5.318  0.5507 -0.8661  0.7163
  504MOL0     C69457   2.832   3.515   5.230 -0.5120  0.0676 -0.6238
  504MOL0     C69458   2.777   3.376   5.205  0.2368 -0.4030  0.6516
  504MOL0    Cl69459   2.885   3.251   5.145  0.1423  0.1805 -0.2236
  504MOL0     C69460   3.058   4.256   4.848  1.0423  0.1462  0.1384
  504MOL0     C69461   3.125   4.304   4.737  0.8498  0.5295 -1.3276
  504MOL0     O69462   3.132   4.298   4.449 -0.3222  0.0206  0.3309
  504MOL0     C69463   3.368   4.296   4.254  0.5782 -0.0412 -1.2545
  504MOL0     C69464   3.463   4.340   4.162 -0.3553 -0.0054  0.1494
  504MOL0     N69465   3.830   5.104   4.167 -0.2399 -0.6095 -0.6406
  504MOL0     N69466   3.895   5.206   4.194 -0.5623  0.2001  0.3270
  504MOL0     C69467   4.150   6.503   4.171 -0.2840 -0.2967  0.7462
  504MOL0     C69468   4.279   6.550   4.182  0.5185  0.7143  0.1664
  504MOL0     C69469   4.731   6.558   4.321 -0.1133  1.2288  0.6916
  504MOL0     C69470   4.698   6.698   4.296  0.6238  0.1664 -0.0594
  504MOL0     C69471   4.794   6.797   4.323 -0.3517  0.0522 -0.2497
  504MOL0     C69472   4.920   6.769   4.362 -0.3985 -0.5013  0.2300
  504MOL0     O69473   5.031   6.856   4.387 -0.1354 -0.3278 -0.3671
  504MOL0     C69474   5.000   6.991   4.374 -0.8812 -1.5608 -0.4387
  504MOL0     C69475   5.102   7.077   4.452  0.5882 -0.4459 -0.1704
  504MOL0     C69476   5.237   7.066   4.379  0.7179  0.1514  0.3321
  504MOL0     C69477   5.341   7.158   4.436 -0.3061  0.4211 -0.5979
  504MOL0     C69478   5.298   7.292   4.402  0.6295 -0.2081  1.4421
  504MOL0     C69479   5.258   7.404   4.372 -0.2492  0.5484  0.0959
  504MOL0     C69480   4.949   6.640   4.390  0.4247 -0.5675 -0.6898
  504MOL0     C69481   4.858   6.529   4.370 -0.1716 -0.0340 -0.4880
  504MOL0     C69482   4.904   6.389   4.402  0.1178 -0.1284  0.0101
  504MOL0     H69483   4.445   6.262   4.199  0.9469  0.8054  0.0133
  504MOL0     H69484   4.195   6.174   4.186  3.3653 -1.1279 -0.9884
  504MOL0     H69485   4.000   6.145   4.145 -0.5289  0.1424 -0.7348
  504MOL0     H69486   3.844   6.204   4.185 -0.3523  0.6887  2.0189
  504MOL0     H69487   4.050   6.124   4.407 -1.5128 -2.2001  3.5411
  504MOL0     H69488   3.907   6.220   4.435 -0.3267  1.1283  0.1256
  504MOL0     H69489   3.840   5.970   4.473  0.0503 -2.9804 -1.3175
  504MOL0     H69490   3.759   6.048   4.350  0.9785  0.8921 -2.2498
  504MOL0     H69491   3.874   5.928   4.189 -0.1220  1.6163  0.7692
  504MOL0     H69492   4.030   5.914   4.279  0.0020 -1.0090 -0.2276
  504MOL0     H69493   3.773   5.769   4.310  0.5019  1.4643 -2.6675
  504MOL0     H69494   3.905   5.720   4.411 -5.3070 -2.5414  0.2558
  504MOL0     H69495   3.924   5.698   4.105  2.6456 -2.7016 -1.5281
  504MOL0     H69496   4.035   5.640   4.233 -1.2228  0.8966  2.9735
  504MOL0     H69497   3.751   5.543   4.214 -0.2214 -0.3721 -1.0282
  504MOL0     H69498   3.882   5.481   4.308  1.4370 -1.3637 -0.4130
  504MOL0     H69499   3.874   5.482   4.005 -0.4850  0.2912  1.1676
  504MOL0     H69500   4.017   5.439   4.087 -0.3818  1.2487  1.0981
  504MOL0     H69501   3.702   5.298   3.945  2.3047  1.2356 -0.5958
  504MOL0     H69502   3.648   5.016   3.894 -2.7634  0.9496  0.2951
  504MOL0     H69503   3.549   5.036   4.036  0.9744  3.1601 -0.4273
  504MOL0     H69504   3.781   4.868   4.007  0.0557  4.3068 -0.1586
  504MOL0     H69505   3.696   4.884   4.163  1.9187 -1.3486 -0.1356
  504MOL0     H69506   3.493   4.774   4.069 -2.0994 -0.4079 -1.5154
  504MOL0     H69507   3.581   4.753   3.911 -2.2316  1.3542  0.5598
  504MOL0     H69508   3.749   4.608   4.019 -1.0247 -1.5243 -0.2488
  504MOL0     H69509   3.696   4.635   4.172  2.3603  0.2787 -1.2462
  504MOL0     H69510   3.477   4.665   4.267 -0.7771 -0.2432  0.5300
  504MOL0     H69511   3.235   4.578   4.497  0.4249 -0.5393  1.6615
  504MOL0     H69512   3.360   4.703   4.460 -1.1076 -0.0576 -1.0517
  504MOL0     H69513   3.403   4.585   4.573  0.8027  2.6876  0.2325
  504MOL0     H69514   3.341   4.041   4.692  1.9847  1.5285  1.5918
  504MOL0     H69515   3.247   3.966   4.883  3.4882  1.1296  0.0012
  504MOL0     H69516   3.089   4.211   5.131  0.4419 -0.1319 -1.7239
  504MOL0     H69517   2.914   4.212   5.087 -0.7041 -0.1003  2.7490
  504MOL0     H69518   3.064   3.996   5.235 -1.1496 -0.7005  0.6939
  504MOL0     H69519   2.955   4.114   5.306  2.1150  0.0342  1.2231
  504MOL0     H69520   2.866   3.908   5.091 -1.4269 -3.5479  1.3638
  504MOL0     H69521   2.763   4.021   5.191  1.5407  1.6414  0.4202
  504MOL0     H69522   2.843   3.892   5.397  2.0302  1.5341  0.2320
  504MOL0     H69523   2.935   3.778   5.302  0.0682  0.6041  3.5597
  504MOL0     H69524   2.637   3.797   5.329  1.4306  2.0073  1.0907
  504MOL0     H69525   2.695   3.768   5.168 -1.1527  2.7304  1.2033
  504MOL0     H69526   2.643   3.568   5.337 -0.5189  1.7900  1.7258
  504MOL0     H69527   2.792   3.614   5.415 -0.4892 -0.3645  1.2541
  504MOL0     H69528   2.920   3.506   5.294 -1.6111  2.8318  1.4921
  504MOL0     H69529   2.865   3.558   5.134 -0.5593 -0.6517 -0.9745
  504MOL0     H69530   2.699   3.386   5.129  1.2928 -2.0666 -0.7217
  504MOL0     H69531   2.733   3.324   5.290 -0.9752 -3.8722 -1.8820
  504MOL0     H69532   2.980   4.318   4.892  1.6044  1.9011 -1.2411
  504MOL0     H69533   3.109   4.405   4.702 -0.6124  0.9151  0.3598
  504MOL0     H69534   3.342   4.190   4.256  0.4780 -0.0129 -0.6681
  504MOL0     H69535   3.491   4.274   4.080 -1.5066  0.4594 -0.6481
  504MOL0     H69536   4.076   6.583   4.177  0.3102  0.1679  3.6434
  504MOL0     H69537   4.285   6.658   4.184 -2.8693  1.0170 -0.8069
  504MOL0     H69538   4.606   6.731   4.250  1.3290 -1.3688 -2.7536
  504MOL0     H69539   4.767   6.900   4.302 -2.3058 -0.8508 -2.6554
  504MOL0     H69540   5.012   7.019   4.269 -0.1234  1.3031  0.3265
  504MOL0     H69541   4.900   7.020   4.408  0.0888 -1.2663  2.4078
  504MOL0     H69542   5.109   7.044   4.556 -2.3127 -0.3222  0.1561
  504MOL0     H69543   5.063   7.179   4.453  1.1634 -0.1781 -2.0077
  504MOL0     H69544   5.262   6.962   4.403 -1.8428 -0.2314  1.6635
  504MOL0     H69545   5.224   7.090   4.273 -1.2866 -2.1315 -0.0307
  504MOL0     H69546   5.438   7.139   4.388 -0.7341  1.9339 -2.1653
  504MOL0     H69547   5.366   7.154   4.542  1.6956  0.9337 -1.0044
  504MOL0     H69548   5.230   7.505   4.348 -1.9067 -0.3876 -2.2352
  504MOL0     H69549   5.048   6.626   4.432  1.0243  2.5012 -0.8527
  504MOL0     H69550   4.852   6.336   4.482  1.4761 -0.2941  0.8216
  504MOL0     H69551   4.914   6.333   4.309  0.2596  1.9096 -1.2594
  504MOL0     H69552   5.006   6.397   4.441  0.6954 -1.8142 -1.0434
  505MOL0     O69553   0.529   3.855   6.244 -0.4784 -0.3342  0.2476
  505MOL0     C69554   0.527   3.761   6.167 -0.7846  0.0599 -0.0676
  505MOL0     O69555   0.623   3.726   6.077 -0.2444 -0.1562 -1.0343
  505MOL0     C69556   0.731   3.819   6.070 -0.0028  0.0404  0.1232
  505MOL0     C69557   0.829   3.826   6.167 -0.3535  0.2938 -0.3643
  505MOL0     C69558   0.936   3.924   6.137  0.3070 -0.4809 -0.6113
  505MOL0     C69559   0.931   4.005   6.018  0.6083  0.0350  0.2298
  505MOL0     O69560   1.014   4.104   5.986 -0.3634  0.1474 -0.2334
  505MOL0     C69561   1.098   4.161   6.088 -0.1504 -0.2269 -0.2601
  505MOL0     C69562   1.190   4.267   6.029  0.3773 -0.5488 -0.1798
  505MOL0     C69563   1.296   4.318   6.127 -0.5496 -0.1396 -0.2951
  505MOL0     C69564   1.381   4.434   6.063 -0.0711  0.5257  0.2445
  505MOL0     C69565   1.490   4.493   6.156  0.8383  0.4375 -0.3354
  505MOL0     C69566   1.516   4.633   6.107  0.0156 -0.4558 -0.0663
  505MOL0     C69567   1.644   4.688   6.163 -0.5136 -1.2660 -0.1950
  505MOL0     C69568   1.687   4.824   6.099 -0.0110 -0.1026 -1.1853
  505MOL0     N69569   1.797   4.896   6.178  0.1170  0.2269 -0.0165
  505MOL0     C69570   1.925   4.850   6.174  0.5752 -0.2753 -0.9653
  505MOL0     C69571   1.995   4.962   6.211  0.8852 -0.4399 -0.1641
  505MOL0     C69572   2.150   4.954   6.217  0.4312 -1.2353 -0.6629
  505MOL0     C69573   2.226   4.980   6.082  0.5513  0.2175  0.3428
  505MOL0     C69574   2.379   4.961   6.104  0.6716  0.1702  0.2953
  505MOL0     C69575   2.458   5.001   5.980  0.3464  0.1389 -0.4181
  505MOL0     O69576   2.423   4.928   5.854 -0.0090  0.2198 -0.7971
  505MOL0     C69577   2.474   4.969   5.737 -0.0890 -0.5917 -0.4189
  505MOL0     C69578   2.440   4.913   5.615 -0.2294 -0.1809 -0.1903
  505MOL0     C69579   2.489   4.956   5.490 -0.1437  0.6691 -0.5521
  505MOL0     C69580   2.427   4.883   5.375  0.1998  0.9934  0.7212
  505MOL0     C69581   2.589   5.054   5.480 -0.7851 -0.9762  0.5166
  505MOL0     C69582   2.656   5.101   5.350 -0.5165  0.7311  0.9879
  505MOL0     O69583   2.609   5.034   5.235  0.3368 -0.3434 -0.1747
  505MOL0     C69584   2.658   5.080   5.111 -0.1609 -0.3567 -0.1567
  505MOL0     C69585   2.665   5.220   5.083  0.3037  0.8727 -0.1026
  505MOL0     C69586   2.740   5.259   4.980 -0.0269  0.3208  0.1538
  505MOL0     C69587   2.797   5.165   4.900 -0.3182 -0.1031  1.0153
  505MOL0     O69588   2.867   5.216   4.797 -0.1921 -0.1480  0.3887
  505MOL0     C69589   2.801   5.200   4.672 -0.6863 -0.6330 -0.2862
  505MOL0     C69590   2.867   5.233   4.547  0.3085  0.1948 -0.0421
  505MOL0     C69591   2.906   5.389   4.531  0.6764  0.3248 -1.1062
  505MOL0     C69592   3.005   5.407   4.420 -0.4379 -0.4702  0.1887
  505MOL0     C69593   3.040   5.560   4.419 -0.3332  0.2079  1.0729
  505MOL0     C69594   3.152   5.574   4.312  0.6483 -0.8905  0.1211
  505MOL0     C69595   3.173   5.717   4.291 -0.0051  0.2113  0.5686
  505MOL0     C69596   3.272   5.737   4.175  0.6073 -0.1372 -0.4660
  505MOL0    Cl69597   3.436   5.678   4.217  0.2203 -0.0772 -0.3880
  505MOL0     C69598   2.790   5.028   4.915  0.0322 -0.5491  0.4310
  505MOL0     C69599   2.718   4.985   5.023 -0.7016 -0.2129 -0.1951
  505MOL0     O69600   2.750   5.178   5.348 -0.1276  0.1180  0.2407
  505MOL0     C69601   2.630   5.115   5.606 -0.3416 -1.7079 -0.1900
  505MOL0     C69602   2.567   5.082   5.731  0.5501  0.0918 -0.0713
  505MOL0     N69603   1.909   5.077   6.232  0.7882  0.4475 -0.7199
  505MOL0     N69604   1.792   5.020   6.227  0.4955 -0.7653  0.4386
  505MOL0     C69605   0.824   3.993   5.927 -0.5226  0.5632 -0.6041
  505MOL0     C69606   0.723   3.897   5.958 -0.6260  0.4021 -0.7407
  505MOL0     C69607   0.404   3.678   6.157  0.4452  0.6328  0.0627
  505MOL0     C69608   0.387   3.601   6.036 -0.1353  0.2618  1.7443
  505MOL0     C69609   0.271   3.513   6.021 -0.3605  0.3996  0.0745
  505MOL0     C69610   0.180   3.506   6.124 -0.5285 -0.5308 -0.3394
  505MOL0     O69611   0.083   3.418   6.104 -0.9010 -0.4347 -0.2373
  505MOL0     C69612   0.098   3.300   6.180 -1.0814  0.2480 -0.4980
  505MOL0     C69613  -0.030   3.217   6.190  0.3495  0.2814 -1.0605
  505MOL0     C69614  -0.014   3.083   6.259 -0.4821 -0.1068 -0.4583
  505MOL0     C69615   0.070   3.081   6.385 -0.0571 -0.0153  0.2094
  505MOL0     C69616   0.027   3.181   6.475 -0.6342  0.5501 -0.0513
  505MOL0     C69617  -0.010   3.265   6.555  0.1290 -0.3330 -0.7669
  505MOL0     C69618   0.192   3.588   6.235 -0.2294 -0.6882  0.9450
  505MOL0     C69619   0.304   3.670   6.255  0.1870  0.7932 -0.6855
  505MOL0     C69620   0.312   3.728   6.397 -0.0893 -0.4169 -0.3591
  505MOL0     H69621   0.838   3.774   6.262 -0.1051 -0.2586 -0.6898
  505MOL0     H69622   1.023   3.940   6.201 -0.4279 -2.7237  1.1090
  505MOL0     H69623   1.167   4.081   6.117 -0.1386 -0.3850 -0.7164
  505MOL0     H69624   1.038   4.207   6.167 -1.8700 -3.6616  0.6328
  505MOL0     H69625   1.235   4.234   5.935  2.2349  2.0472 -0.3228
  505MOL0     H69626   1.127   4.354   6.005  4.4189  1.8114 -3.6752
  505MOL0     H69627   1.251   4.349   6.222  0.6533  2.5029 -0.4908
  505MOL0     H69628   1.373   4.247   6.156  1.0986  2.6454  2.7319
  505MOL0     H69629   1.438   4.386   5.983 -0.7481  1.5037 -0.8700
  505MOL0     H69630   1.309   4.507   6.025  0.2428  2.0879  2.4551
  505MOL0     H69631   1.579   4.432   6.176 -0.0305 -0.3267  1.4278
  505MOL0     H69632   1.450   4.513   6.255  1.9551  4.8315 -0.5738
  505MOL0     H69633   1.532   4.630   5.998  0.8877  1.5891 -0.0423
  505MOL0     H69634   1.429   4.697   6.120  0.2967 -0.1238  0.2091
  505MOL0     H69635   1.734   4.626   6.158  1.4763  1.1620  2.0372
  505MOL0     H69636   1.626   4.710   6.268 -0.6362 -1.1370 -0.2424
  505MOL0     H69637   1.726   4.798   6.000  1.1129 -2.1856 -0.2546
  505MOL0     H69638   1.602   4.892   6.098  1.0029  1.2341 -0.4474
  505MOL0     H69639   1.965   4.752   6.153  3.8915  0.0891  2.6264
  505MOL0     H69640   2.177   4.861   6.267 -0.7454 -1.5700 -0.6193
  505MOL0     H69641   2.176   5.041   6.279 -0.5503 -0.9210 -0.6733
  505MOL0     H69642   2.187   4.913   6.005 -0.1097  0.4135  0.4987
  505MOL0     H69643   2.209   5.085   6.057 -0.7631  0.3425  1.6272
  505MOL0     H69644   2.403   5.016   6.195 -2.5558 -1.4558  2.3496
  505MOL0     H69645   2.399   4.854   6.121  3.2774  0.2980 -1.4499
  505MOL0     H69646   2.439   5.108   5.965  2.0157  0.4479 -0.5104
  505MOL0     H69647   2.565   4.994   6.000  0.2508 -0.1336 -0.0118
  505MOL0     H69648   2.353   4.849   5.623 -2.1149  2.1895 -0.9706
  505MOL0     H69649   2.354   4.947   5.325 -2.9519 -2.7405  0.0280
  505MOL0     H69650   2.379   4.790   5.407 -1.4297  2.8002  4.1404
  505MOL0     H69651   2.500   4.849   5.302 -0.8153  1.8067 -0.7154
  505MOL0     H69652   2.624   5.297   5.148  1.5881  1.3189  0.2095
  505MOL0     H69653   2.766   5.363   4.967  0.8681  0.1734  0.6743
  505MOL0     H69654   2.782   5.094   4.657  0.3711 -1.1474  1.6928
  505MOL0     H69655   2.709   5.260   4.668 -0.3774  0.1504  2.4109
  505MOL0     H69656   2.953   5.167   4.532 -1.4830 -1.9959 -1.2517
  505MOL0     H69657   2.796   5.206   4.468  2.4120  0.6245 -2.2079
  505MOL0     H69658   2.960   5.423   4.620 -1.5328  0.5013  0.2567
  505MOL0     H69659   2.821   5.455   4.554  1.4699  0.2141  2.8605
  505MOL0     H69660   2.963   5.363   4.329 -1.5511  0.6718  0.1245
  505MOL0     H69661   3.097   5.349   4.434  0.8269  1.0020 -1.5737
  505MOL0     H69662   2.956   5.625   4.390  0.9127  1.4694  0.1742
  505MOL0     H69663   3.078   5.597   4.514  0.5198  0.1949  0.7436
  505MOL0     H69664   3.127   5.532   4.214  1.8706  0.4556 -0.8115
  505MOL0     H69665   3.240   5.524   4.353  0.6498  0.3366  1.6938
  505MOL0     H69666   3.198   5.765   4.385 -0.9658 -0.2372  1.0715
  505MOL0     H69667   3.077   5.761   4.260 -0.3721 -1.7426 -1.3568
  505MOL0     H69668   3.286   5.843   4.149 -1.5111  0.3145  0.0387
  505MOL0     H69669   3.241   5.670   4.095  0.8094  0.3908 -0.9903
  505MOL0     H69670   2.837   4.957   4.849 -4.3194 -4.2713  0.8703
  505MOL0     H69671   2.712   4.878   5.037 -0.6534 -0.4569 -1.8014
  505MOL0     H69672   2.706   5.192   5.602 -0.5620 -1.5117 -0.7281
  505MOL0     H69673   2.598   5.136   5.819  3.1623 -0.7802 -0.3804
  505MOL0     H69674   0.821   4.039   5.828 -2.4637 -1.1805 -1.4333
  505MOL0     H69675   0.641   3.875   5.889 -0.9614 -0.3635 -0.1167
  505MOL0     H69676   0.449   3.614   5.948 -3.5834  1.7393 -0.6962
  505MOL0     H69677   0.245   3.449   5.938  0.0310 -0.3071  0.4910
  505MOL0     H69678   0.171   3.245   6.119 -1.2834  0.9631 -1.4064
  505MOL0     H69679   0.128   3.332   6.280 -0.2785  1.6012 -1.1428
  505MOL0     H69680  -0.076   3.207   6.091  1.4488  1.8217 -1.7635
  505MOL0     H69681  -0.097   3.275   6.254  1.6249 -0.9607  1.5900
  505MOL0     H69682  -0.103   3.022   6.277 -0.1059 -0.1550  1.4366
  505MOL0     H69683   0.029   3.019   6.181 -3.6998 -3.0050 -0.0721
  505MOL0     H69684   0.176   3.096   6.365 -0.0049  0.0828  0.5677
  505MOL0     H69685   0.072   2.982   6.430  3.1590 -0.6890 -1.1595
  505MOL0     H69686  -0.040   3.341   6.625  0.0061 -0.4736 -0.6642
  505MOL0     H69687   0.127   3.554   6.315 -0.1781 -0.4167  1.1015
  505MOL0     H69688   0.227   3.696   6.458 -0.7090  1.0320 -0.4158
  505MOL0     H69689   0.409   3.700   6.439  2.1376  2.1180 -3.3639
  505MOL0     H69690   0.323   3.837   6.399  3.3747 -0.6515 -0.1584
  506MOL0     O69691  11.352   9.036   9.649 -0.4245  0.3595 -0.3817
  506MOL0     C69692  11.238   9.042   9.596 -0.2394  0.3517 -0.4281
  506MOL0     O69693  11.175   8.937   9.534  0.1593  0.2372 -0.1259
  506MOL0     C69694  11.236   8.812   9.511 -0.1862 -0.3296 -0.1115
  506MOL0     C69695  11.312   8.752   9.611 -0.8437 -0.9025 -0.0898
  506MOL0     C69696  11.383   8.632   9.601  0.2906  0.1741 -0.1995
  506MOL0     C69697  11.362   8.563   9.489  0.2281  1.0740  0.5216
  506MOL0     O69698  11.408   8.434   9.479 -0.4685  0.0236 -0.3408
  506MOL0     C69699  11.453   8.346   9.581 -0.0338 -0.1732 -0.0712
  506MOL0     C69700  11.355   8.301   9.698  0.1070 -0.2641 -0.3131
  506MOL0     C69701  11.406   8.177   9.766 -0.2369  1.0413  0.3682
  506MOL0     C69702  11.375   8.045   9.682 -1.1827  0.6236 -0.1608
  506MOL0     C69703  11.465   7.932   9.731  0.8023 -1.4291  1.5200
  506MOL0     C69704  11.481   7.810   9.639  0.6060  0.4100 -0.9594
  506MOL0     C69705  11.356   7.725   9.648 -0.7629 -0.6091  0.1081
  506MOL0     C69706  11.393   7.591   9.599 -0.2785  1.0078 -0.1730
  506MOL0     N69707  11.435   7.580   9.461 -0.4433  1.2010  0.1238
  506MOL0     C69708  11.344   7.571   9.354 -0.0664 -0.6608  0.6532
  506MOL0     C69709  11.422   7.575   9.237  0.0574  0.2262  0.2438
  506MOL0     C69710  11.372   7.593   9.093  0.1076 -0.1786 -1.1384
  506MOL0     C69711  11.478   7.556   8.984 -0.4261  0.1819  0.2626
  506MOL0     C69712  11.399   7.483   8.875  0.3447  0.0235 -0.1656
  506MOL0     C69713  11.458   7.477   8.742 -0.2024  0.3784  0.5804
  506MOL0     O69714  11.492   7.610   8.696  1.1876 -0.0555  0.8117
  506MOL0     C69715  11.562   7.630   8.577  0.4768 -0.1491  0.4674
  506MOL0     C69716  11.610   7.520   8.488  0.5372  0.2603  0.2775
  506MOL0     C69717  11.682   7.551   8.372 -0.2937  0.4649  0.4145
  506MOL0     C69718  11.725   7.441   8.270 -0.3477 -0.1657  0.5153
  506MOL0     C69719  11.701   7.693   8.337  0.5304 -0.8888 -1.0616
  506MOL0     C69720  11.776   7.742   8.227 -0.1206  0.2626  0.5972
  506MOL0     O69721  11.745   7.866   8.172  0.4563 -0.7231 -0.2763
  506MOL0     C69722  11.824   7.920   8.072  0.6823  0.0262  0.4694
  506MOL0     C69723  11.844   7.850   7.957  0.6615  0.5999 -1.3134
  506MOL0     C69724  11.901   7.900   7.845  0.3860  0.6741  1.1607
  506MOL0     C69725  11.929   8.035   7.845 -0.1024  0.6003 -0.0816
  506MOL0     O69726  11.944   8.082   7.718 -0.6076 -1.1225  0.3893
  506MOL0     C69727  12.069   8.133   7.704  0.7029 -0.2166 -0.3128
  506MOL0     C69728  12.111   8.140   7.556  0.4950 -0.5699 -0.7820
  506MOL0     C69729  12.072   8.030   7.458  0.5556 -0.2213 -0.7718
  506MOL0     C69730  12.115   8.057   7.318  1.0473  0.1196 -0.2619
  506MOL0     C69731  12.004   8.126   7.237  0.3216 -0.6973 -0.1197
  506MOL0     C69732  12.054   8.233   7.139  0.4635  0.2041 -0.2969
  506MOL0     C69733  12.082   8.368   7.204 -0.1610 -0.3122 -0.2239
  506MOL0     C69734  12.159   8.453   7.106 -0.3639  0.1814  0.5905
  506MOL0    Cl69735  12.325   8.394   7.077  0.0224 -0.2899 -0.3460
  506MOL0     C69736  11.925   8.105   7.965 -0.2547  0.2259 -0.1706
  506MOL0     C69737  11.869   8.044   8.077 -0.5819 -0.6314  0.4926
  506MOL0     O69738  11.869   7.668   8.193  1.3873  0.0142 -0.0894
  506MOL0     C69739  11.636   7.792   8.420  0.1287  0.0856  0.3570
  506MOL0     C69740  11.569   7.757   8.537  0.6024 -0.6507  0.1607
  506MOL0     N69741  11.549   7.580   9.280 -0.2034 -0.6288  0.5364
  506MOL0     N69742  11.564   7.576   9.412 -0.3642  0.5732  0.6714
  506MOL0     C69743  11.285   8.614   9.380 -0.9317  0.2570  0.8263
  506MOL0     C69744  11.221   8.738   9.396 -0.2182  0.6454  0.8624
  506MOL0     C69745  11.152   9.170   9.605  0.5475 -0.0272 -0.0165
  506MOL0     C69746  11.015   9.163   9.574 -0.7001  0.0255 -0.2097
  506MOL0     C69747  10.929   9.270   9.586  0.3719 -0.1485  0.6965
  506MOL0     C69748  10.973   9.386   9.650 -0.0948  0.0314 -0.5507
  506MOL0     O69749  10.882   9.490   9.661  0.1882  0.1736 -0.4716
  506MOL0     C69750  10.908   9.605   9.753 -0.6800 -0.0091  0.0498
  506MOL0     C69751  10.869   9.573   9.897 -0.2604 -0.6269  0.5234
  506MOL0     C69752  10.872   9.695   9.993  0.8139  0.4418  0.7879
  506MOL0     C69753  11.008   9.728  10.043  0.1694  0.6456  0.1347
  506MOL0     C69754  11.059   9.619  10.127  0.0281 -0.4900  0.5977
  506MOL0     C69755  11.102   9.533  10.195 -0.6267 -0.4760 -0.6870
  506MOL0     C69756  11.111   9.393   9.685 -0.3300  0.5335  0.0752
  506MOL0     C69757  11.198   9.292   9.648 -0.1469  0.1064  0.0621
  506MOL0     C69758  11.340   9.332   9.680 -0.6422  0.0182 -0.4913
  506MOL0     H69759  11.313   8.804   9.706  1.8726  2.9797 -1.9596
  506MOL0     H69760  11.444   8.599   9.685  1.1557 -2.5283 -1.7696
  506MOL0     H69761  11.530   8.394   9.642  1.3461 -0.8395 -1.2469
  506MOL0     H69762  11.503   8.259   9.538  4.1282  1.1537  1.5460
  506MOL0     H69763  11.352   8.385   9.768 -1.5502  1.2666 -2.0973
  506MOL0     H69764  11.258   8.272   9.656 -0.0967  2.3688 -1.8887
  506MOL0     H69765  11.512   8.184   9.791  0.2674  0.3227 -1.3522
  506MOL0     H69766  11.344   8.155   9.853 -1.1510  1.4004 -0.1699
  506MOL0     H69767  11.270   8.018   9.686 -1.1994  0.6612 -0.3188
  506MOL0     H69768  11.396   8.065   9.576  0.8244 -0.7245 -0.0839
  506MOL0     H69769  11.419   7.917   9.829 -4.2866 -0.9362 -0.4941
  506MOL0     H69770  11.563   7.979   9.735 -0.3053  1.3759 -0.7152
  506MOL0     H69771  11.510   7.845   9.539  0.9948  1.6158 -0.4468
  506MOL0     H69772  11.566   7.748   9.668  1.3402  1.3879 -0.9691
  506MOL0     H69773  11.269   7.770   9.600  0.5532  1.2960 -0.5972
  506MOL0     H69774  11.316   7.709   9.749 -2.8476 -4.1660 -1.1200
  506MOL0     H69775  11.467   7.551   9.669 -2.6690 -2.3997  0.6988
  506MOL0     H69776  11.307   7.523   9.610  0.8341 -0.6728 -1.4083
  506MOL0     H69777  11.236   7.577   9.354 -0.0301  0.3927  1.7663
  506MOL0     H69778  11.343   7.698   9.083  4.6529  1.3926 -0.2813
  506MOL0     H69779  11.286   7.527   9.082  1.4764 -2.3785  0.6409
  506MOL0     H69780  11.515   7.649   8.939 -4.2819  0.2947 -3.2827
  506MOL0     H69781  11.558   7.493   9.024  1.0546  3.1991  2.4496
  506MOL0     H69782  11.378   7.380   8.906 -1.7578  0.7512  0.9895
  506MOL0     H69783  11.301   7.529   8.868 -0.1279 -0.6896  1.2574
  506MOL0     H69784  11.544   7.410   8.749  0.2380  0.3679 -3.1921
  506MOL0     H69785  11.392   7.434   8.666 -1.1781  0.9081  1.1010
  506MOL0     H69786  11.592   7.414   8.498 -2.7148  0.9721  4.2067
  506MOL0     H69787  11.715   7.483   8.169  0.7777 -2.7654 -0.7616
  506MOL0     H69788  11.654   7.359   8.263 -1.6720  0.9940 -0.1429
  506MOL0     H69789  11.828   7.406   8.281 -0.9332 -2.8801 -1.5263
  506MOL0     H69790  11.794   7.754   7.947  0.2145  0.8679 -1.6971
  506MOL0     H69791  11.900   7.843   7.752 -1.1541 -2.8810  3.1592
  506MOL0     H69792  12.068   8.230   7.755 -1.8015 -1.0863  1.4577
  506MOL0     H69793  12.145   8.078   7.760 -0.2436 -2.4847 -1.1313
  506MOL0     H69794  12.075   8.235   7.516  3.4865  1.9434  1.9119
  506MOL0     H69795  12.219   8.161   7.552  0.3856  1.0177  2.0211
  506MOL0     H69796  11.965   8.007   7.455  0.5259 -0.0490 -2.3509
  506MOL0     H69797  12.125   7.941   7.490 -1.2568 -1.0938 -0.0831
  506MOL0     H69798  12.136   7.963   7.266 -0.5345 -0.2523 -0.2762
  506MOL0     H69799  12.209   8.111   7.301  0.6335  0.0908 -3.1955
  506MOL0     H69800  11.943   8.053   7.183 -0.4058  0.8336 -1.4420
  506MOL0     H69801  11.924   8.173   7.296  0.2782  1.0013 -1.4485
  506MOL0     H69802  11.978   8.250   7.063 -0.1812 -0.7886  0.0993
  506MOL0     H69803  12.141   8.199   7.083  0.3117  2.5215 -2.0313
  506MOL0     H69804  12.128   8.354   7.302  3.0069 -0.3509 -1.5668
  506MOL0     H69805  11.981   8.407   7.213 -0.4067  0.0496 -3.4446
  506MOL0     H69806  12.165   8.550   7.156 -0.2251  0.0340  0.8611
  506MOL0     H69807  12.113   8.457   7.007 -0.6572 -0.7323  0.6841
  506MOL0     H69808  11.941   8.213   7.967  2.1238 -0.0901  1.2168
  506MOL0     H69809  11.851   8.108   8.163 -0.3282  2.0880 -1.3530
  506MOL0     H69810  11.649   7.897   8.395 -1.6140  1.3568  4.0988
  506MOL0     H69811  11.515   7.837   8.587  1.5963  1.0988 -1.4155
  506MOL0     H69812  11.286   8.561   9.286 -0.2196  2.6017 -0.5784
  506MOL0     H69813  11.175   8.798   9.319 -0.4394  0.7154  1.0473
  506MOL0     H69814  10.959   9.077   9.539 -0.3496 -0.8961  1.3921
  506MOL0     H69815  10.821   9.256   9.580  0.2114  0.9388  0.9159
  506MOL0     H69816  11.010   9.643   9.745 -0.4633 -0.5342  0.2341
  506MOL0     H69817  10.841   9.687   9.727 -0.4884  0.5412  1.2576
  506MOL0     H69818  10.948   9.508   9.935 -0.5358  0.0438  2.3588
  506MOL0     H69819  10.774   9.518   9.908 -0.2566 -0.5635  0.9162
  506MOL0     H69820  10.842   9.786   9.939 -1.7201 -1.0411 -0.4948
  506MOL0     H69821  10.799   9.680  10.072 -2.6240  1.0486 -2.0270
  506MOL0     H69822  11.006   9.821  10.100 -0.3015  0.6598  0.1025
  506MOL0     H69823  11.084   9.727   9.964  1.1586 -1.5662  1.0163
  506MOL0     H69824  11.134   9.460  10.268  2.4007 -2.4236 -3.6483
  506MOL0     H69825  11.143   9.488   9.726 -3.5859  1.6422  0.3274
  506MOL0     H69826  11.366   9.423   9.625 -0.7326  0.0514 -0.4793
  506MOL0     H69827  11.352   9.350   9.787 -1.8400 -0.3993 -0.2700
  506MOL0     H69828  11.415   9.257   9.655 -1.6876 -0.8651 -1.1109
  507MOL0     O69829   2.085   1.037   7.821  0.5573  0.0420  0.1125
  507MOL0     C69830   2.112   1.150   7.859 -0.5324  0.0383 -0.3536
  507MOL0     O69831   2.024   1.252   7.864 -0.5491  0.1532 -1.4940
  507MOL0     C69832   1.899   1.219   7.828  0.4695 -0.3653 -0.6222
  507MOL0     C69833   1.864   1.182   7.696  0.1936 -0.5014 -1.1788
  507MOL0     C69834   1.737   1.158   7.663 -0.5398 -0.6929  0.0369
  507MOL0     C69835   1.635   1.151   7.759  0.1422 -0.2536 -0.2973
  507MOL0     O69836   1.500   1.131   7.717 -0.0567 -0.6872 -0.7281
  507MOL0     C69837   1.475   1.005   7.652  0.1769 -0.9423 -0.5543
  507MOL0     C69838   1.316   0.999   7.623  0.4294 -0.4200  0.6010
  507MOL0     C69839   1.276   0.871   7.540 -0.1863  0.3988  0.2800
  507MOL0     C69840   1.322   0.736   7.607 -1.6724 -0.7539 -0.2110
  507MOL0     C69841   1.232   0.711   7.733  0.5287 -0.0293  0.1253
  507MOL0     C69842   1.318   0.620   7.822  0.0984 -0.3784  0.2167
  507MOL0     C69843   1.252   0.559   7.949  1.2419 -0.4050 -0.4499
  507MOL0     C69844   1.113   0.505   7.935  0.5775  0.1420  0.2474
  507MOL0     N69845   1.103   0.378   7.868 -0.0217 -1.0070 -0.1148
  507MOL0     C69846   1.154   0.258   7.922 -0.0043  0.0395 -0.5518
  507MOL0     C69847   1.115   0.164   7.838 -0.1748 -0.6405  0.7081
  507MOL0     C69848   1.148   0.022   7.845  0.6711  0.1948  0.2381
  507MOL0     C69849   1.272  -0.016   7.760  0.2732  0.5163  1.0026
  507MOL0     C69850   1.335  -0.151   7.805 -0.6099 -0.4090 -0.0250
  507MOL0     C69851   1.406  -0.154   7.944  0.8958 -0.8545 -0.3359
  507MOL0     O69852   1.314  -0.146   8.066 -0.6276  0.8895  0.3819
  507MOL0     C69853   1.380  -0.128   8.186 -0.5688  0.2557  0.9255
  507MOL0     C69854   1.501  -0.184   8.226  0.1243  1.4786  0.0903
  507MOL0     C69855   1.569  -0.148   8.355 -0.0144  1.2322  0.0086
  507MOL0     C69856   1.706  -0.201   8.381  0.1992  0.4728  0.0957
  507MOL0     C69857   1.497  -0.060   8.435 -0.2126 -0.3352  0.3560
  507MOL0     C69858   1.555  -0.000   8.566 -0.0233 -0.3785 -0.9005
  507MOL0     O69859   1.494   0.114   8.609  1.1354  0.1537  0.2077
  507MOL0     C69860   1.567   0.220   8.659  0.8620  0.1138 -0.5351
  507MOL0     C69861   1.478   0.324   8.712 -0.3506 -0.0611 -0.0486
  507MOL0     C69862   1.545   0.443   8.755  0.5515 -0.4089 -0.3581
  507MOL0     C69863   1.686   0.453   8.760  0.7030  0.5451  0.1568
  507MOL0     O69864   1.742   0.558   8.824 -0.0129  1.1165  1.0335
  507MOL0     C69865   1.876   0.597   8.783 -0.7548 -0.3229  0.2039
  507MOL0     C69866   1.894   0.740   8.735  0.4853 -0.8846 -0.3357
  507MOL0     C69867   2.040   0.773   8.720  0.1127 -0.8619  0.6891
  507MOL0     C69868   2.064   0.913   8.686 -0.5470  0.2777  0.4857
  507MOL0     C69869   2.206   0.955   8.645  0.3423  0.1468 -0.4193
  507MOL0     C69870   2.318   0.940   8.736  0.3684  0.4395 -0.3996
  507MOL0     C69871   2.379   0.797   8.728  0.4022 -0.0398  0.9988
  507MOL0     C69872   2.446   0.759   8.855 -0.0107  1.5418 -0.4405
  507MOL0    Cl69873   2.321   0.687   8.966  0.3015  0.1695 -0.2812
  507MOL0     C69874   1.768   0.342   8.737  0.2962 -0.3492  0.4499
  507MOL0     C69875   1.702   0.232   8.685  0.4583 -0.1063 -0.5047
  507MOL0     O69876   1.654  -0.054   8.618  0.0365  0.0136 -0.0875
  507MOL0     C69877   1.371  -0.020   8.396 -0.1550 -0.0697 -0.6925
  507MOL0     C69878   1.306  -0.054   8.285 -0.4136  0.8051  0.1030
  507MOL0     N69879   1.045   0.218   7.732  0.0927 -0.1518  0.1962
  507MOL0     N69880   1.031   0.344   7.752 -0.0149 -0.1755 -1.1470
  507MOL0     C69881   1.669   1.173   7.888  0.1289 -0.5242 -0.3361
  507MOL0     C69882   1.799   1.212   7.927  0.8749  0.3873  0.1731
  507MOL0     C69883   2.255   1.167   7.915 -0.6894  0.2405 -0.6033
  507MOL0     C69884   2.287   1.287   7.977 -0.0059 -0.2688  0.7060
  507MOL0     C69885   2.417   1.314   8.029  0.3771 -0.0890 -0.1033
  507MOL0     C69886   2.517   1.217   8.016  0.3657  0.2473  0.4374
  507MOL0     O69887   2.637   1.263   8.044  0.1668  1.0079  0.0051
  507MOL0     C69888   2.752   1.200   7.994 -1.1326 -0.4744 -0.3282
  507MOL0     C69889   2.866   1.303   7.981  0.1919  0.1075  0.4766
  507MOL0     C69890   3.005   1.232   7.978  0.2640  0.2323 -0.1527
  507MOL0     C69891   3.043   1.143   7.860 -0.0699 -0.5568  0.6441
  507MOL0     C69892   2.992   1.006   7.842 -0.2410 -0.2238  0.4370
  507MOL0     C69893   2.956   0.892   7.818 -0.0068  0.8532  0.0951
  507MOL0     C69894   2.480   1.090   7.955 -0.6324 -0.6478 -0.7737
  507MOL0     C69895   2.352   1.066   7.900 -0.1010 -0.2677  0.1637
  507MOL0     C69896   2.343   0.928   7.828  0.1746 -0.1448 -0.1804
  507MOL0     H69897   1.944   1.207   7.627  0.5763  1.8061 -0.0032
  507MOL0     H69898   1.734   1.140   7.556  2.8076 -1.8183  0.0233
  507MOL0     H69899   1.511   0.920   7.710  4.2241 -0.0213 -1.4266
  507MOL0     H69900   1.519   0.997   7.552 -0.4023 -0.8774 -0.8168
  507MOL0     H69901   1.269   0.980   7.720  0.0183 -1.1969  0.2583
  507MOL0     H69902   1.270   1.086   7.575  0.3055  0.0085  1.4684
  507MOL0     H69903   1.167   0.860   7.538 -0.1591 -0.2054  1.4178
  507MOL0     H69904   1.312   0.864   7.437  2.3010  1.4011  1.0004
  507MOL0     H69905   1.318   0.649   7.541  0.0120 -2.3893  1.6968
  507MOL0     H69906   1.428   0.744   7.630 -2.1450  0.1427  1.8304
  507MOL0     H69907   1.140   0.657   7.708 -0.6280  0.9820  1.8955
  507MOL0     H69908   1.203   0.802   7.786  0.4160 -0.3502  0.6257
  507MOL0     H69909   1.349   0.535   7.761 -3.0756 -1.0683 -0.6145
  507MOL0     H69910   1.399   0.685   7.857  0.4768 -0.7939  0.1064
  507MOL0     H69911   1.251   0.640   8.023 -1.3716  1.6584 -2.5237
  507MOL0     H69912   1.321   0.484   7.988  2.9892  1.2532 -0.1962
  507MOL0     H69913   1.072   0.503   8.036  1.0319  2.0459  0.4947
  507MOL0     H69914   1.044   0.574   7.886  0.2204  0.2055  0.8418
  507MOL0     H69915   1.209   0.246   8.015 -2.5602 -3.4117  0.7079
  507MOL0     H69916   1.073  -0.036   7.790  1.8670 -0.0223 -1.2345
  507MOL0     H69917   1.161  -0.006   7.950  0.4028 -2.0518 -0.2805
  507MOL0     H69918   1.236  -0.017   7.657  2.1552  1.5450  0.2831
  507MOL0     H69919   1.347   0.063   7.747  2.1183 -1.3245 -0.0674
  507MOL0     H69920   1.255  -0.226   7.807 -3.6025  2.3632 -3.1863
  507MOL0     H69921   1.410  -0.182   7.733  0.0095 -1.0278  0.8640
  507MOL0     H69922   1.477  -0.238   7.942  1.1673 -0.6500 -3.7231
  507MOL0     H69923   1.464  -0.062   7.937 -0.4396 -0.1314 -3.0369
  507MOL0     H69924   1.540  -0.256   8.155 -0.9681  0.7021  0.2530
  507MOL0     H69925   1.710  -0.258   8.474 -0.9976 -1.5665 -1.0383
  507MOL0     H69926   1.768  -0.111   8.394 -1.7243  1.7958  0.6058
  507MOL0     H69927   1.741  -0.262   8.297 -1.9914 -1.8828  0.7644
  507MOL0     H69928   1.371   0.314   8.699 -0.1124 -2.6487 -0.4930
  507MOL0     H69929   1.491   0.528   8.793 -1.1038 -2.1802  1.4977
  507MOL0     H69930   1.943   0.577   8.867 -1.7091 -1.7886  0.6570
  507MOL0     H69931   1.921   0.538   8.702 -1.3527  1.3459 -1.4327
  507MOL0     H69932   1.839   0.758   8.642 -0.2042 -0.6119  0.1115
  507MOL0     H69933   1.857   0.810   8.811  1.5026  1.6733 -2.0685
  507MOL0     H69934   2.081   0.711   8.640 -0.3634 -0.1805 -0.0904
  507MOL0     H69935   2.097   0.743   8.809  0.9921 -0.0830  0.4153
  507MOL0     H69936   2.041   0.971   8.776 -2.3727  1.0708 -0.4433
  507MOL0     H69937   2.005   0.934   8.596  3.5796 -0.4266 -2.6898
  507MOL0     H69938   2.227   0.901   8.552 -0.6518  0.1462 -0.6643
  507MOL0     H69939   2.197   1.060   8.617  0.6502  0.3526  0.2381
  507MOL0     H69940   2.292   0.964   8.840 -0.1617 -4.4538  0.8648
  507MOL0     H69941   2.388   1.016   8.702 -0.7058  0.2555 -3.2757
  507MOL0     H69942   2.444   0.807   8.640 -0.1401  1.6315  0.7531
  507MOL0     H69943   2.307   0.718   8.703  0.6607 -0.5586  1.8562
  507MOL0     H69944   2.489   0.848   8.902 -0.9169  0.4340  2.7469
  507MOL0     H69945   2.526   0.688   8.832 -3.6668 -2.4624 -2.3358
  507MOL0     H69946   1.860   0.326   8.792 -0.2368 -3.1650  0.6405
  507MOL0     H69947   1.761   0.141   8.678  0.4199 -0.2226  0.5814
  507MOL0     H69948   1.305   0.037   8.461 -0.9238 -1.3141 -0.3368
  507MOL0     H69949   1.204  -0.020   8.265 -0.2449  2.0144  1.1420
  507MOL0     H69950   1.605   1.172   7.976 -0.1546 -0.6765 -0.5453
  507MOL0     H69951   1.826   1.236   8.029 -2.9282 -3.0202  2.2837
  507MOL0     H69952   2.217   1.370   7.977  0.3034  0.1590 -2.6904
  507MOL0     H69953   2.425   1.413   8.073 -1.2187 -0.2232  0.5490
  507MOL0     H69954   2.774   1.112   8.054 -1.8392 -1.4258 -1.4322
  507MOL0     H69955   2.731   1.161   7.894 -0.4796 -0.5026 -0.4620
  507MOL0     H69956   2.854   1.371   8.066 -1.6124 -0.7549  0.9660
  507MOL0     H69957   2.845   1.369   7.897  0.8261  1.2459  1.1870
  507MOL0     H69958   3.075   1.316   7.980  1.8171 -0.9901 -1.1743
  507MOL0     H69959   3.021   1.174   8.070 -1.4855  0.6184  0.4364
  507MOL0     H69960   3.152   1.144   7.861 -0.0508 -0.7515 -0.2330
  507MOL0     H69961   3.021   1.199   7.768 -2.2979 -0.9944  0.8499
  507MOL0     H69962   2.932   0.794   7.782 -0.6108  1.3755 -0.9717
  507MOL0     H69963   2.560   1.018   7.936 -0.1734 -0.2270 -0.4599
  507MOL0     H69964   2.303   0.947   7.728 -4.2047  0.4860  1.4630
  507MOL0     H69965   2.443   0.884   7.824  0.1928 -0.1890  0.5762
  507MOL0     H69966   2.272   0.865   7.883 -1.0130  1.5306  0.2675
  508MOL0     O69967   4.517   6.479   8.048 -0.4605 -0.3001  0.5124
  508MOL0     C69968   4.595   6.382   8.051  0.1849  0.4263  0.0713
  508MOL0     O69969   4.678   6.342   7.949  0.0980  0.0467 -0.5408
  508MOL0     C69970   4.693   6.422   7.841  0.2861 -0.0193 -0.9780
  508MOL0     C69971   4.794   6.520   7.848  0.5372 -0.6962  0.0096
  508MOL0     C69972   4.798   6.620   7.749 -0.3062 -0.8105 -0.6371
  508MOL0     C69973   4.722   6.615   7.638 -0.4657  1.2418  0.0178
  508MOL0     O69974   4.752   6.710   7.549  0.4707  0.3173  0.3866
  508MOL0     C69975   4.727   6.694   7.412 -0.3252  0.4414 -0.9784
  508MOL0     C69976   4.830   6.601   7.349  0.1265  0.7549 -0.3090
  508MOL0     C69977   4.827   6.605   7.191 -0.0557  0.4350  0.7564
  508MOL0     C69978   4.872   6.466   7.130  0.0519 -0.6111  0.1518
  508MOL0     C69979   4.888   6.475   6.975  1.0501  0.0320  0.1682
  508MOL0     C69980   4.884   6.343   6.896 -0.2024  0.1822  1.0064
  508MOL0     C69981   4.890   6.359   6.741 -0.3735  0.0919 -0.2937
  508MOL0     C69982   4.751   6.407   6.686 -0.4277 -0.1572  0.2645
  508MOL0     N69983   4.660   6.289   6.654 -0.3931  0.1394  0.2884
  508MOL0     C69984   4.522   6.315   6.647  0.0474 -0.4089 -0.7400
  508MOL0     C69985   4.469   6.194   6.594  0.0253 -0.6057 -1.0813
  508MOL0     C69986   4.321   6.159   6.560  0.9741 -0.8089 -0.1080
  508MOL0     C69987   4.207   6.236   6.632  0.0577  0.2646 -1.0638
  508MOL0     C69988   4.234   6.235   6.787  0.0419 -0.4662 -0.7752
  508MOL0     C69989   4.112   6.276   6.862 -0.8648 -0.6578  0.0712
  508MOL0     O69990   4.009   6.173   6.870  1.3239 -0.2766 -0.9560
  508MOL0     C69991   4.008   6.111   7.000  0.0163 -0.4907  0.3671
  508MOL0     C69992   3.947   6.174   7.103  0.2095 -0.2904 -0.1064
  508MOL0     C69993   3.955   6.130   7.241 -0.8526 -0.9446  0.7290
  508MOL0     C69994   3.899   6.225   7.347  0.1156 -0.0279 -0.7593
  508MOL0     C69995   4.023   6.007   7.266 -0.0311 -0.0470  0.4430
  508MOL0     C69996   4.013   5.948   7.394 -0.8044  0.0288  0.0353
  508MOL0     O69997   4.018   5.812   7.390 -0.2361  0.2150  0.0141
  508MOL0     C69998   3.962   5.735   7.489  0.1855  0.1315 -0.1018
  508MOL0     C69999   3.908   5.614   7.442  0.1958  0.0755 -0.3759
  508MOL0     C70000   3.848   5.528   7.536  1.0295  0.3487 -0.1047
  508MOL0     C70001   3.854   5.555   7.674 -1.1579  0.0398  0.4186
  508MOL0     O70002   3.783   5.462   7.753 -0.2543 -0.3337  0.4088
  508MOL0     C70003   3.729   5.500   7.881  0.1896 -0.7854  0.9557
  508MOL0     C70004   3.598   5.432   7.897  0.4551 -0.2739 -0.2128
  508MOL0     C70005   3.576   5.355   8.031  0.5121  0.3420  0.0611
  508MOL0     C70006   3.608   5.428   8.160  0.0532 -0.4022 -0.1987
  508MOL0     C70007   3.554   5.349   8.274  0.2618 -0.0262  0.2848
  508MOL0     C70008   3.617   5.216   8.295  0.0435  0.1173 -0.5661
  508MOL0     C70009   3.580   5.170   8.434  1.0526 -0.1194  0.2987
  508MOL0     C70010   3.664   5.056   8.484  0.3110 -0.5167 -0.9074
  508MOL0    Cl70011   3.837   5.071   8.500 -0.4117  0.0359 -0.2176
  508MOL0     C70012   3.932   5.664   7.719  0.1262 -0.3842  0.0679
  508MOL0     C70013   3.970   5.765   7.629  0.8149 -0.5287  0.2159
  508MOL0     O70014   4.037   6.016   7.497  0.7578  0.9611 -0.6753
  508MOL0     C70015   4.085   5.940   7.161  1.1152  1.1584 -0.2240
  508MOL0     C70016   4.066   5.990   7.040 -0.9107  0.0837  0.8868
  508MOL0     N70017   4.575   6.110   6.571 -0.7161 -0.2618  0.6744
  508MOL0     N70018   4.686   6.165   6.610  0.1606 -0.2480  0.1630
  508MOL0     C70019   4.630   6.513   7.619  0.2750 -1.1497 -0.3933
  508MOL0     C70020   4.610   6.417   7.720  0.1054 -0.6112 -0.7019
  508MOL0     C70021   4.577   6.283   8.159  0.8262  0.0471 -0.0693
  508MOL0     C70022   4.642   6.152   8.154 -0.1976 -0.1198  1.0489
  508MOL0     C70023   4.632   6.059   8.259  1.1442  0.6437  0.3454
  508MOL0     C70024   4.562   6.094   8.374 -0.0333  0.2683  0.7046
  508MOL0     O70025   4.565   5.993   8.468  0.1560  0.4901 -0.8121
  508MOL0     C70026   4.463   5.981   8.573  0.8263 -0.7871  0.4431
  508MOL0     C70027   4.462   6.081   8.687  0.8030 -1.2618  0.1581
  508MOL0     C70028   4.588   6.061   8.766 -1.3769 -0.2919  0.1758
  508MOL0     C70029   4.633   6.185   8.842 -0.7047  0.1681  0.5175
  508MOL0     C70030   4.559   6.207   8.967  0.1405  0.8887  0.3461
  508MOL0     C70031   4.509   6.201   9.077  0.3127 -0.7551  0.5040
  508MOL0     C70032   4.504   6.213   8.390 -0.2898 -0.5217  0.8791
  508MOL0     C70033   4.511   6.308   8.282 -0.0933 -0.5405 -0.3730
  508MOL0     C70034   4.453   6.448   8.322 -0.1142 -0.3619 -0.0126
  508MOL0     H70035   4.866   6.525   7.929 -0.7307  1.2327  1.1043
  508MOL0     H70036   4.869   6.702   7.759  0.8051 -1.9593  1.7190
  508MOL0     H70037   4.744   6.790   7.363  1.1657  0.0354 -1.2879
  508MOL0     H70038   4.630   6.648   7.389  0.9265 -1.8845 -1.9952
  508MOL0     H70039   4.928   6.639   7.379 -0.2762  0.2885  1.7959
  508MOL0     H70040   4.807   6.498   7.378  3.8310 -0.4261 -1.0981
  508MOL0     H70041   4.728   6.627   7.150  1.0759  4.7390 -0.1123
  508MOL0     H70042   4.910   6.672   7.170  1.2165  0.0849  4.0705
  508MOL0     H70043   4.975   6.438   7.158  0.2879  0.1746  0.0955
  508MOL0     H70044   4.807   6.384   7.162 -3.1111  2.4214  2.1867
  508MOL0     H70045   4.980   6.530   6.953  0.0464  1.2027 -1.3519
  508MOL0     H70046   4.802   6.526   6.930  2.4398  0.7665 -1.7398
  508MOL0     H70047   4.973   6.288   6.929  0.7647  0.7000 -0.6515
  508MOL0     H70048   4.799   6.278   6.922 -3.4404  2.9122 -1.8672
  508MOL0     H70049   4.921   6.262   6.700  2.7379  1.3001 -1.0970
  508MOL0     H70050   4.976   6.426   6.730  0.1097 -0.4301  0.2497
  508MOL0     H70051   4.710   6.472   6.764 -0.5660 -2.3125  2.1079
  508MOL0     H70052   4.761   6.465   6.594  0.4573 -0.4776  0.1492
  508MOL0     H70053   4.460   6.403   6.664 -1.3085 -0.9597 -2.5551
  508MOL0     H70054   4.313   6.050   6.565  0.5400 -0.7322  1.3664
  508MOL0     H70055   4.323   6.201   6.459 -0.2999  0.2650  0.2791
  508MOL0     H70056   4.195   6.338   6.596 -2.7486 -0.3973 -2.3560
  508MOL0     H70057   4.108   6.191   6.618 -1.3446  2.9800 -0.5430
  508MOL0     H70058   4.268   6.140   6.829 -1.1814 -1.0011 -0.9453
  508MOL0     H70059   4.315   6.304   6.812  2.3587 -2.7047 -1.6736
  508MOL0     H70060   4.131   6.306   6.966  0.1124 -0.8723 -0.0394
  508MOL0     H70061   4.073   6.364   6.810  0.9436 -0.0987 -0.4028
  508MOL0     H70062   3.900   6.271   7.090  2.4494  0.7294 -1.1348
  508MOL0     H70063   3.820   6.292   7.312 -1.9312 -3.0836 -2.4854
  508MOL0     H70064   3.978   6.294   7.378  0.3902 -0.4998 -0.3853
  508MOL0     H70065   3.861   6.167   7.432  0.8605  1.2602  0.5032
  508MOL0     H70066   3.917   5.593   7.336  0.3365 -1.5157 -0.0716
  508MOL0     H70067   3.798   5.436   7.506 -1.6094  1.2767  1.1981
  508MOL0     H70068   3.809   5.481   7.953  3.1408  1.9786 -1.2555
  508MOL0     H70069   3.708   5.607   7.881 -0.0464 -0.7375 -2.2609
  508MOL0     H70070   3.506   5.484   7.867  0.2677 -0.8972 -0.7534
  508MOL0     H70071   3.593   5.344   7.832 -1.1519  0.0440 -0.5751
  508MOL0     H70072   3.633   5.261   8.027  0.2110  0.1547  0.1300
  508MOL0     H70073   3.470   5.328   8.034  0.2232  1.2773 -1.1003
  508MOL0     H70074   3.556   5.525   8.158  1.3030  0.4800  3.0161
  508MOL0     H70075   3.716   5.442   8.156 -0.1754  1.3218 -1.9473
  508MOL0     H70076   3.570   5.422   8.353  3.2330  1.1292 -1.2017
  508MOL0     H70077   3.446   5.335   8.274  0.4376 -1.6771 -0.5952
  508MOL0     H70078   3.726   5.227   8.288  0.0203 -0.1617 -1.4815
  508MOL0     H70079   3.576   5.140   8.228  1.5655 -0.4266 -0.9236
  508MOL0     H70080   3.473   5.148   8.427  1.4029 -1.4328 -1.6361
  508MOL0     H70081   3.588   5.250   8.508  1.7495 -1.3454  1.5918
  508MOL0     H70082   3.640   4.972   8.418 -4.4375 -0.2967  0.1263
  508MOL0     H70083   3.621   5.052   8.584  1.3421  1.3520 -0.3401
  508MOL0     H70084   3.956   5.675   7.824  0.6961  1.3886 -0.2188
  508MOL0     H70085   4.025   5.851   7.666  0.8280 -1.3903  2.3809
  508MOL0     H70086   4.145   5.850   7.173  0.2364 -0.0950 -4.0940
  508MOL0     H70087   4.084   5.956   6.939 -1.3670  2.5501 -0.1095
  508MOL0     H70088   4.557   6.514   7.539 -0.0884  0.3062 -0.0778
  508MOL0     H70089   4.546   6.331   7.703 -0.5195  0.4337 -4.8311
  508MOL0     H70090   4.698   6.123   8.066 -1.6923 -0.7352  0.2539
  508MOL0     H70091   4.676   5.960   8.261 -0.6350 -0.1886  0.1246
  508MOL0     H70092   4.365   5.975   8.524  1.2863 -3.5063 -0.3506
  508MOL0     H70093   4.478   5.886   8.625  1.1912 -1.3137 -0.5873
  508MOL0     H70094   4.375   6.054   8.747  1.6017  0.0663  1.9837
  508MOL0     H70095   4.441   6.183   8.653  0.0503 -0.8223  1.8726
  508MOL0     H70096   4.592   5.978   8.838  2.1421 -2.7228 -2.4575
  508MOL0     H70097   4.664   6.042   8.689 -1.5724  0.0410 -0.0998
  508MOL0     H70098   4.628   6.266   8.768 -2.4652 -0.6675 -0.3316
  508MOL0     H70099   4.740   6.175   8.863  0.3632  2.1348 -3.0081
  508MOL0     H70100   4.464   6.204   9.175  1.4579  0.8974  1.0336
  508MOL0     H70101   4.438   6.245   8.470  0.4876  0.8356  1.0224
  508MOL0     H70102   4.521   6.524   8.282  0.1920 -0.6042  0.0369
  508MOL0     H70103   4.360   6.465   8.268 -0.1782 -1.2514 -0.2020
  508MOL0     H70104   4.436   6.470   8.427 -2.0211 -3.6094  0.4909
  509MOL0     O70105   2.992   5.909  10.051  0.3142 -0.8182  0.7084
  509MOL0     C70106   3.112   5.909  10.022  0.8017 -0.0714 -0.6977
  509MOL0     O70107   3.198   6.003  10.067 -0.4458  0.6899 -0.1066
  509MOL0     C70108   3.174   6.073  10.189 -0.5419  1.0637  0.5947
  509MOL0     C70109   3.282   6.062  10.271 -0.2559  0.4400  0.5547
  509MOL0     C70110   3.279   6.096  10.405  0.3479 -0.1387 -0.4376
  509MOL0     C70111   3.157   6.157  10.453 -0.2540  0.4111 -1.4486
  509MOL0     O70112   3.154   6.196  10.590 -0.7555 -0.3161  0.0284
  509MOL0     C70113   3.268   6.194  10.680 -0.8165 -0.0244  1.2051
  509MOL0     C70114   3.250   6.303  10.783  0.8902  0.2233  0.0836
  509MOL0     C70115   3.200   6.261  10.921 -0.3748  0.1645  0.3304
  509MOL0     C70116   3.041   6.235  10.934  0.1686  0.4816  0.1509
  509MOL0     C70117   2.960   6.350  10.982  0.0895 -0.2222 -0.7752
  509MOL0     C70118   2.813   6.324  11.019 -1.2706  0.5959  0.5162
  509MOL0     C70119   2.800   6.311  11.170 -0.1029 -0.1651  0.1518
  509MOL0     C70120   2.789   6.451  11.229  0.7535  0.3203 -0.2850
  509MOL0     N70121   2.747   6.457  11.365  0.0873 -0.1110 -0.4316
  509MOL0     C70122   2.637   6.391  11.427  0.7101  0.1489  0.3107
  509MOL0     C70123   2.667   6.398  11.557 -1.4967  0.6609 -0.4938
  509MOL0     C70124   2.589   6.333  11.670 -0.3612 -0.0443  0.3277
  509MOL0     C70125   2.456   6.274  11.646  0.3044 -1.2494 -0.2718
  509MOL0     C70126   2.357   6.387  11.620 -0.5877 -0.7722 -0.7557
  509MOL0     C70127   2.222   6.342  11.558  0.3189 -0.2745  1.0895
  509MOL0     O70128   2.248   6.286  11.427  0.1737 -0.1602  0.7190
  509MOL0     C70129   2.152   6.284  11.330  1.1295  0.4950  0.2777
  509MOL0     C70130   2.015   6.325  11.339  0.9048  0.7141  0.5133
  509MOL0     C70131   1.933   6.333  11.221 -0.3015 -0.4595 -0.0970
  509MOL0     C70132   1.789   6.366  11.226 -1.3739  0.1991 -0.5924
  509MOL0     C70133   1.995   6.294  11.092 -0.6712 -0.6391 -0.4808
  509MOL0     C70134   1.929   6.299  10.956  0.3388  0.1465 -0.3332
  509MOL0     O70135   1.971   6.210  10.859  0.3684 -0.0274 -0.5116
  509MOL0     C70136   1.890   6.183  10.750 -0.3265  0.5219  0.7710
  509MOL0     C70137   1.750   6.161  10.753 -0.1184  0.2094 -0.0897
  509MOL0     C70138   1.674   6.114  10.638 -0.1121 -0.4316 -0.1432
  509MOL0     C70139   1.746   6.104  10.520  0.3525  0.5310  0.1153
  509MOL0     O70140   1.691   6.062  10.399 -1.0983 -0.8848  0.3755
  509MOL0     C70141   1.557   6.079  10.368 -0.4075 -0.4969 -0.2430
  509MOL0     C70142   1.520   6.086  10.225  0.2749  0.7140 -0.2126
  509MOL0     C70143   1.566   5.961  10.153 -0.3568  0.0922 -1.0176
  509MOL0     C70144   1.537   5.950  10.003 -0.4513  0.3833  0.4606
  509MOL0     C70145   1.586   5.811   9.942  0.2670  0.7282 -0.0265
  509MOL0     C70146   1.513   5.788   9.807  0.4489  0.6948 -0.3547
  509MOL0     C70147   1.360   5.764   9.814  0.0264 -0.2632  0.8423
  509MOL0     C70148   1.276   5.859   9.722 -0.3803 -0.5343 -0.1496
  509MOL0    Cl70149   1.327   5.854   9.553 -0.1216  0.2040  0.0312
  509MOL0     C70150   1.887   6.126  10.515  0.6160  0.6340 -0.2658
  509MOL0     C70151   1.960   6.168  10.621  0.4606  1.4562 -0.0463
  509MOL0     O70152   1.843   6.385  10.942  0.1518  0.6316 -0.1388
  509MOL0     C70153   2.129   6.253  11.086  0.6617  0.0651 -0.8208
  509MOL0     C70154   2.201   6.249  11.205  0.7189  1.2340  1.1755
  509MOL0     N70155   2.794   6.452  11.571 -0.1898 -0.0976  0.4190
  509MOL0     N70156   2.833   6.501  11.463 -0.4882  0.6717 -0.8480
  509MOL0     C70157   3.046   6.168  10.370  0.3889  0.5749 -0.5878
  509MOL0     C70158   3.047   6.117  10.238  0.7606  0.3451 -0.1341
  509MOL0     C70159   3.182   5.807   9.944 -0.6882 -0.7838 -0.0332
  509MOL0     C70160   3.316   5.822   9.915 -0.7089  1.7682 -0.3126
  509MOL0     C70161   3.383   5.733   9.829 -0.3079  0.5071 -0.5178
  509MOL0     C70162   3.316   5.630   9.768  0.1542 -0.6262  0.4946
  509MOL0     O70163   3.386   5.544   9.689 -0.3136  0.4666  0.4446
  509MOL0     C70164   3.318   5.466   9.583 -0.1614  0.0090 -1.5810
  509MOL0     C70165   3.420   5.378   9.498 -0.4582  0.5689 -0.0001
  509MOL0     C70166   3.348   5.346   9.365 -0.2919 -0.8617  0.3482
  509MOL0     C70167   3.440   5.271   9.276  0.7309 -0.1958  0.3074
  509MOL0     C70168   3.373   5.242   9.142  1.0438  0.6310  0.4926
  509MOL0     C70169   3.322   5.197   9.036  0.8243  0.2255 -0.0264
  509MOL0     C70170   3.186   5.609   9.814  0.4072 -0.7816 -0.4163
  509MOL0     C70171   3.116   5.693   9.896  0.4220 -0.5106 -0.0459
  509MOL0     C70172   2.970   5.668   9.917  0.7330 -0.1988 -0.3062
  509MOL0     H70173   3.368   6.013  10.228 -2.3766 -2.2427 -0.9528
  509MOL0     H70174   3.365   6.083  10.470 -0.6030  0.8808  1.0847
  509MOL0     H70175   3.363   6.220  10.633 -0.0121 -1.1598  2.1253
  509MOL0     H70176   3.278   6.095  10.726 -1.6007 -0.1330  1.1481
  509MOL0     H70177   3.334   6.373  10.780  1.6433 -0.6790 -0.3807
  509MOL0     H70178   3.165   6.359  10.745 -1.0082 -2.8117 -0.5149
  509MOL0     H70179   3.262   6.176  10.948 -1.8863 -0.5056  1.8656
  509MOL0     H70180   3.226   6.341  10.991 -0.7409  1.9520 -1.4810
  509MOL0     H70181   3.004   6.204  10.836 -0.1785 -1.0309  0.7352
  509MOL0     H70182   3.031   6.144  10.995  2.2979  1.0556  1.4918
  509MOL0     H70183   2.967   6.419  10.897 -1.2274  2.8727  1.4298
  509MOL0     H70184   3.014   6.403  11.060 -2.6841  3.3138 -1.0002
  509MOL0     H70185   2.733   6.386  10.977 -3.9037 -0.7411  3.2114
  509MOL0     H70186   2.782   6.227  10.980 -2.9754  1.8541 -1.5239
  509MOL0     H70187   2.885   6.256  11.211  0.6964  0.5239 -0.5183
  509MOL0     H70188   2.709   6.253  11.183  0.0202 -0.1353  1.1669
  509MOL0     H70189   2.891   6.491  11.221  1.5211 -1.6488 -1.0217
  509MOL0     H70190   2.717   6.503  11.165 -1.2301 -2.9367 -0.9031
  509MOL0     H70191   2.549   6.348  11.380  0.5931  0.3310  0.3621
  509MOL0     H70192   2.564   6.410  11.743  0.7897  2.2781 -1.5970
  509MOL0     H70193   2.659   6.261  11.715  2.0595  1.2535 -1.1760
  509MOL0     H70194   2.472   6.215  11.556  0.6592 -3.0536  0.9084
  509MOL0     H70195   2.423   6.216  11.733 -1.0932  2.4124  1.8575
  509MOL0     H70196   2.336   6.443  11.711  0.1708  0.8052 -1.5204
  509MOL0     H70197   2.405   6.461  11.556 -1.1347 -0.0318 -0.3231
  509MOL0     H70198   2.177   6.264  11.620  3.6730 -2.6527  0.7999
  509MOL0     H70199   2.155   6.429  11.560 -1.2136 -1.4251  2.5774
  509MOL0     H70200   1.964   6.362  11.427  0.6392  3.5938 -0.7243
  509MOL0     H70201   1.742   6.330  11.318  2.9641 -1.6302  1.1941
  509MOL0     H70202   1.745   6.315  11.140  0.6424 -1.5853 -0.6569
  509MOL0     H70203   1.774   6.474  11.217 -1.1900  0.3407  0.6395
  509MOL0     H70204   1.695   6.169  10.846 -1.6280  1.5798 -1.0556
  509MOL0     H70205   1.566   6.101  10.645  0.0776 -1.2486  2.1788
  509MOL0     H70206   1.498   6.006  10.425 -0.0681  0.4366  1.3560
  509MOL0     H70207   1.515   6.174  10.402 -2.3198 -1.4859  0.3443
  509MOL0     H70208   1.411   6.087  10.233  0.0413 -4.0084 -0.1030
  509MOL0     H70209   1.556   6.171  10.165  0.9707 -1.1415 -2.5763
  509MOL0     H70210   1.525   5.876  10.208  3.5781 -1.9028 -0.8310
  509MOL0     H70211   1.675   5.954  10.163 -0.4883  0.1917  0.7213
  509MOL0     H70212   1.575   6.035   9.946 -0.3773  1.0016  1.4026
  509MOL0     H70213   1.428   5.959   9.991 -0.3062 -0.3038 -1.6948
  509MOL0     H70214   1.694   5.822   9.929  0.1770  2.1910  0.2991
  509MOL0     H70215   1.578   5.720  10.003  1.0152 -0.7283 -2.0042
  509MOL0     H70216   1.572   5.710   9.757  0.6963 -0.4266  1.5766
  509MOL0     H70217   1.516   5.882   9.751 -1.6387  0.2918 -1.2617
  509MOL0     H70218   1.314   5.769   9.913 -0.3894  4.4944  0.6002
  509MOL0     H70219   1.356   5.660   9.778  1.0629  0.0910 -0.3796
  509MOL0     H70220   1.293   5.959   9.762  2.2862 -2.1958  3.4365
  509MOL0     H70221   1.177   5.821   9.749  1.1409 -3.9891  1.2586
  509MOL0     H70222   1.927   6.116  10.415 -1.2801  3.5009 -1.4262
  509MOL0     H70223   2.065   6.191  10.615  1.0233 -1.0865 -1.4138
  509MOL0     H70224   2.174   6.228  10.990 -1.7613  2.9195 -2.8752
  509MOL0     H70225   2.302   6.210  11.204  0.6032  0.8145  2.6476
  509MOL0     H70226   2.962   6.228  10.403 -0.2143 -0.0074 -1.0602
  509MOL0     H70227   2.962   6.121  10.171 -0.3645 -0.5033  1.1730
  509MOL0     H70228   3.367   5.914   9.942 -0.0933  1.1858  0.5463
  509MOL0     H70229   3.488   5.742   9.801  0.0237 -2.5247 -0.5027
  509MOL0     H70230   3.238   5.406   9.627  1.8679 -1.4336  0.3348
  509MOL0     H70231   3.266   5.539   9.520  0.4455 -0.1387 -2.2664
  509MOL0     H70232   3.457   5.287   9.548  0.4050  0.2208 -1.2260
  509MOL0     H70233   3.510   5.436   9.476  0.1687 -0.9504 -1.6925
  509MOL0     H70234   3.265   5.277   9.380  0.6236 -1.3329  4.0871
  509MOL0     H70235   3.315   5.437   9.314  1.5070 -0.9772 -1.1318
  509MOL0     H70236   3.476   5.179   9.323  0.3572 -1.3291 -1.5059
  509MOL0     H70237   3.531   5.327   9.251  1.0834 -0.7589  0.3233
  509MOL0     H70238   3.275   5.162   8.946  0.6596  0.2245  0.0615
  509MOL0     H70239   3.132   5.524   9.774  2.3885 -0.4041 -4.4204
  509MOL0     H70240   2.960   5.660  10.025  1.6929  2.3658  0.0447
  509MOL0     H70241   2.902   5.748   9.885 -0.7376 -1.1010  0.4658
  509MOL0     H70242   2.930   5.578   9.870  0.3794  0.3489 -1.0891
  510MOL0     O70243   1.192   0.795  10.577 -0.0130 -0.0363 -0.1687
  510MOL0     C70244   1.151   0.878  10.491 -0.5154 -0.5507 -1.4614
  510MOL0     O70245   1.180   1.006  10.493 -1.1041 -0.1446 -0.2195
  510MOL0     C70246   1.284   1.048  10.575  0.2409  1.0292  0.4817
  510MOL0     C70247   1.280   1.175  10.628 -0.0606  0.1390 -1.0320
  510MOL0     C70248   1.383   1.219  10.706  0.9568  1.0198 -1.1357
  510MOL0     C70249   1.505   1.140  10.737 -0.3562  0.9094  0.2406
  510MOL0     O70250   1.609   1.174  10.828  0.3778 -1.0619 -0.5842
  510MOL0     C70251   1.685   1.294  10.780  0.2767  0.8306 -0.0657
  510MOL0     C70252   1.745   1.367  10.892  0.1399 -0.0798 -0.1190
  510MOL0     C70253   1.648   1.436  10.988  1.1153  0.5485 -0.0422
  510MOL0     C70254   1.703   1.550  11.071  0.0143 -0.9930 -1.1595
  510MOL0     C70255   1.630   1.573  11.193  0.7718 -0.6639 -0.3935
  510MOL0     C70256   1.656   1.702  11.274  0.5299  0.0820 -0.9142
  510MOL0     C70257   1.590   1.703  11.412  0.7590  1.2033 -0.0373
  510MOL0     C70258   1.580   1.832  11.490  0.7763  0.1469  0.7118
  510MOL0     N70259   1.527   1.801  11.621 -0.9623 -0.4135  0.0712
  510MOL0     C70260   1.593   1.817  11.734 -1.0494  0.8071  1.2963
  510MOL0     C70261   1.517   1.792  11.842 -0.5552  0.3245 -0.6547
  510MOL0     C70262   1.564   1.788  11.987  1.0149  0.4010  0.3389
  510MOL0     C70263   1.717   1.761  12.001 -0.2889 -0.0552  0.7376
  510MOL0     C70264   1.769   1.717  12.138  0.6263 -0.0128 -0.0834
  510MOL0     C70265   1.742   1.578  12.174  0.8044  0.5124  0.0799
  510MOL0     O70266   1.811   1.487  12.085 -0.0649  0.3960  0.5977
  510MOL0     C70267   1.949   1.454  12.098  0.0616 -0.3103 -0.4642
  510MOL0     C70268   2.022   1.408  11.982 -0.2584  0.1128 -0.2065
  510MOL0     C70269   2.163   1.386  11.988  1.0631 -1.0666  0.2654
  510MOL0     C70270   2.235   1.320  11.871  0.1015 -0.2650 -0.2262
  510MOL0     C70271   2.233   1.417  12.107 -0.2010 -0.1312  0.1457
  510MOL0     C70272   2.380   1.388  12.121  0.0043 -0.6978 -0.6009
  510MOL0     O70273   2.427   1.368  12.249  0.6039  0.2187 -0.0418
  510MOL0     C70274   2.560   1.339  12.261  0.2706 -0.2413 -0.4467
  510MOL0     C70275   2.643   1.436  12.320  0.5602  0.1854  0.7968
  510MOL0     C70276   2.778   1.409  12.321  0.0258 -0.3145 -0.2978
  510MOL0     C70277   2.834   1.280  12.278  0.0433 -0.3628 -0.3527
  510MOL0     O70278   2.969   1.253  12.255  0.5618  0.9846 -0.3732
  510MOL0     C70279   3.058   1.343  12.323  0.2223 -0.5301  0.9442
  510MOL0     C70280   3.187   1.276  12.319 -0.5460  0.4168 -0.5137
  510MOL0     C70281   3.185   1.155  12.422  1.0077  0.0794 -0.4657
  510MOL0     C70282   3.326   1.113  12.451 -0.4502  0.8633 -0.0105
  510MOL0     C70283   3.324   0.967  12.505 -0.2946  0.2740 -1.0318
  510MOL0     C70284   3.470   0.915  12.516  0.4112 -0.3483 -0.0823
  510MOL0     C70285   3.560   0.990  12.614  0.4251 -0.0441  0.2317
  510MOL0     C70286   3.671   1.075  12.541 -0.2245 -1.0166  0.4579
  510MOL0    Cl70287   3.655   1.239  12.611  0.0454  0.0402  0.0906
  510MOL0     C70288   2.753   1.181  12.223  0.4909  0.4672 -0.0812
  510MOL0     C70289   2.613   1.209  12.223 -0.2592 -0.8723 -0.6449
  510MOL0     O70290   2.451   1.422  12.029 -0.2646 -0.3275  0.3883
  510MOL0     C70291   2.155   1.460  12.216  0.1417  0.5077  0.5853
  510MOL0     C70292   2.016   1.470  12.214  0.0694 -0.3336  1.0510
  510MOL0     N70293   1.395   1.780  11.787  0.5569 -0.2799  0.3523
  510MOL0     N70294   1.398   1.786  11.656 -0.2347  0.4699 -1.2392
  510MOL0     C70295   1.506   1.016  10.676  0.2350 -0.1295  0.2260
  510MOL0     C70296   1.398   0.966  10.593  0.1585 -0.5697 -0.6704
  510MOL0     C70297   1.049   0.836  10.394 -0.4214  0.0367  0.7967
  510MOL0     C70298   1.024   0.911  10.270  0.1497  1.0020  0.1125
  510MOL0     C70299   0.942   0.862  10.165 -0.1462  0.4049  0.1237
  510MOL0     C70300   0.867   0.754  10.200 -0.0500 -0.7216  0.9497
  510MOL0     O70301   0.788   0.693  10.107 -0.3783 -0.5088  0.4011
  510MOL0     C70302   0.677   0.771  10.067  0.6133  0.1288  0.1965
  510MOL0     C70303   0.586   0.703   9.972 -0.5931 -0.0439  0.6418
  510MOL0     C70304   0.488   0.607  10.043  0.3261  0.7188  0.5967
  510MOL0     C70305   0.392   0.521   9.955 -0.0572 -0.3597  0.5207
  510MOL0     C70306   0.332   0.401  10.016  0.4224 -0.6353  0.1673
  510MOL0     C70307   0.277   0.311  10.083 -0.2672  0.2622  0.7738
  510MOL0     C70308   0.864   0.701  10.321  0.0986  0.2085  0.7323
  510MOL0     C70309   0.955   0.736  10.417 -0.6606  0.1990 -0.7991
  510MOL0     C70310   0.953   0.662  10.558 -0.6314 -0.3920 -0.1134
  510MOL0     H70311   1.194   1.239  10.615  0.0211  0.1407 -1.6034
  510MOL0     H70312   1.374   1.325  10.728 -0.3632  0.5098  1.0862
  510MOL0     H70313   1.614   1.359  10.728 -0.6417 -3.4994 -5.1768
  510MOL0     H70314   1.759   1.264  10.706  0.4290  0.4524  0.2332
  510MOL0     H70315   1.802   1.291  10.947  0.9340  1.1193  0.7801
  510MOL0     H70316   1.812   1.440  10.845 -1.2721  1.2774 -0.1127
  510MOL0     H70317   1.561   1.477  10.935 -0.3340  0.2966  2.0214
  510MOL0     H70318   1.601   1.362  11.052 -1.3451  0.3329 -1.9301
  510MOL0     H70319   1.804   1.517  11.099 -0.1211  0.3201  1.1284
  510MOL0     H70320   1.716   1.641  11.013 -1.2880 -0.9317 -1.3818
  510MOL0     H70321   1.612   1.481  11.250  0.9949 -1.6424 -1.8450
  510MOL0     H70322   1.531   1.597  11.153  0.3559 -1.3850  0.1616
  510MOL0     H70323   1.764   1.709  11.289  0.7555 -0.6324 -2.0704
  510MOL0     H70324   1.616   1.790  11.223 -2.5451 -0.6604 -0.0008
  510MOL0     H70325   1.652   1.635  11.471 -0.9310 -0.5142 -0.1366
  510MOL0     H70326   1.490   1.660  11.413  1.3419 -0.2601  2.3987
  510MOL0     H70327   1.681   1.875  11.495  0.9641 -0.2182  0.0946
  510MOL0     H70328   1.514   1.896  11.431  1.4927  0.8212  0.6216
  510MOL0     H70329   1.699   1.843  11.732 -1.2211  1.4668  0.5498
  510MOL0     H70330   1.517   1.696  12.023  1.7601 -1.4383 -2.9161
  510MOL0     H70331   1.532   1.871  12.051 -1.2135 -1.8261  2.2942
  510MOL0     H70332   1.761   1.695  11.925 -0.9936  0.1834  0.0996
  510MOL0     H70333   1.754   1.862  11.981 -1.1356  0.4172  1.4976
  510MOL0     H70334   1.877   1.734  12.137  0.4505  1.1945 -0.2210
  510MOL0     H70335   1.717   1.793  12.197 -3.7251 -2.7230  0.0547
  510MOL0     H70336   1.776   1.570  12.278 -3.0890  1.2660  1.5703
  510MOL0     H70337   1.637   1.546  12.172  1.0339 -0.2416 -0.4152
  510MOL0     H70338   1.957   1.389  11.897 -0.0998  2.1326 -0.8326
  510MOL0     H70339   2.158   1.316  11.793  0.7125  0.1004 -0.8526
  510MOL0     H70340   2.274   1.218  11.868 -0.6724 -0.5515 -1.0489
  510MOL0     H70341   2.317   1.376  11.826 -0.7051  0.5068 -0.7875
  510MOL0     H70342   2.594   1.529  12.346 -2.3343 -0.5585 -1.4354
  510MOL0     H70343   2.839   1.494  12.350 -0.1296 -0.8010  1.5475
  510MOL0     H70344   3.066   1.443  12.280  0.9551  0.3315  2.9752
  510MOL0     H70345   3.036   1.374  12.425 -1.0895 -0.2196  0.5802
  510MOL0     H70346   3.221   1.241  12.222  0.6750  0.9379 -0.2941
  510MOL0     H70347   3.262   1.353  12.340 -3.4521  3.0756  0.9134
  510MOL0     H70348   3.124   1.075  12.377  1.4250 -0.3132 -0.3452
  510MOL0     H70349   3.145   1.187  12.519  2.3786 -0.1824  0.2207
  510MOL0     H70350   3.376   1.183  12.519 -1.4258  1.1335  0.4625
  510MOL0     H70351   3.394   1.112  12.366  1.2179 -1.9870  1.2276
  510MOL0     H70352   3.275   0.958  12.602  3.3681 -2.3033  0.8068
  510MOL0     H70353   3.268   0.909  12.431  1.0617 -1.4063 -0.8064
  510MOL0     H70354   3.505   0.918  12.413 -3.1356 -4.4247 -1.7203
  510MOL0     H70355   3.482   0.812  12.553 -2.0109  0.4349  3.3414
  510MOL0     H70356   3.605   0.921  12.686 -2.0849 -1.1426  0.8264
  510MOL0     H70357   3.499   1.057  12.675 -0.9847 -0.9166 -0.1759
  510MOL0     H70358   3.648   1.091  12.436 -3.1317 -0.0268  1.1670
  510MOL0     H70359   3.770   1.032  12.559  0.5432  1.1301  1.7095
  510MOL0     H70360   2.796   1.092  12.179 -0.0549 -1.1919  2.5097
  510MOL0     H70361   2.541   1.138  12.184 -0.6985 -0.6377 -0.2724
  510MOL0     H70362   2.204   1.484  12.310 -2.3929  3.3992  1.3070
  510MOL0     H70363   1.965   1.484  12.309 -0.4693  0.3094  0.6666
  510MOL0     H70364   1.598   0.959  10.683  1.3319  1.7166  2.3183
  510MOL0     H70365   1.421   0.874  10.540  2.6579 -1.0830  1.1275
  510MOL0     H70366   1.076   1.002  10.244 -1.9843  1.5738 -2.4797
  510MOL0     H70367   0.925   0.912  10.070  1.6429  0.0556 -0.4165
  510MOL0     H70368   0.623   0.802  10.157 -1.0761  0.3576 -0.8606
  510MOL0     H70369   0.708   0.860  10.011  1.2474  0.8441  1.6133
  510MOL0     H70370   0.640   0.646   9.896 -0.4173  0.2439  0.5446
  510MOL0     H70371   0.527   0.781   9.923 -1.0806 -0.5985  0.3492
  510MOL0     H70372   0.540   0.539  10.111  0.3999  0.0446 -0.1092
  510MOL0     H70373   0.420   0.661  10.109 -4.2251 -3.0525 -0.4257
  510MOL0     H70374   0.441   0.491   9.862 -1.1214 -0.5473  0.0018
  510MOL0     H70375   0.308   0.585   9.927  0.5115  0.5990  0.9509
  510MOL0     H70376   0.240   0.238  10.153  1.4212  0.1584  1.5997
  510MOL0     H70377   0.794   0.621  10.345 -0.1649 -0.0214 -0.7252
  510MOL0     H70378   0.871   0.590  10.549  0.0382 -0.9875 -1.8196
  510MOL0     H70379   1.041   0.598  10.572 -0.2392  0.6139  2.9495
  510MOL0     H70380   0.941   0.729  10.644  1.8638 -0.6583  0.5312
  511MOL0     O70381   1.070   3.049   8.312  0.4465 -0.3319 -0.1221
  511MOL0     C70382   0.949   3.084   8.315 -0.6775 -0.0982 -0.6206
  511MOL0     O70383   0.900   3.193   8.247  0.0809  0.3412  0.2401
  511MOL0     C70384   0.969   3.263   8.150 -0.9343 -1.3965 -0.1675
  511MOL0     C70385   0.896   3.377   8.111 -0.2301  0.7397 -0.9304
  511MOL0     C70386   0.946   3.464   8.020 -0.3676  0.0743 -0.2454
  511MOL0     C70387   1.073   3.451   7.967 -0.6310 -0.2351  0.0756
  511MOL0     O70388   1.113   3.547   7.878  0.5443  0.3228 -0.2955
  511MOL0     C70389   1.257   3.588   7.870  0.2543 -0.5514 -0.3727
  511MOL0     C70390   1.281   3.712   7.775 -0.0539 -0.3175 -0.9375
  511MOL0     C70391   1.436   3.732   7.766  0.5733 -0.3804 -0.0448
  511MOL0     C70392   1.459   3.846   7.667 -0.1947 -0.3521 -0.2312
  511MOL0     C70393   1.608   3.881   7.656  0.9330  0.7586 -0.2338
  511MOL0     C70394   1.681   3.894   7.788 -0.4622  0.2083  0.1205
  511MOL0     C70395   1.817   3.955   7.769  0.4187 -0.6420  0.1034
  511MOL0     C70396   1.873   3.997   7.911 -0.1052  0.0296 -0.2133
  511MOL0     N70397   1.924   3.874   7.973 -0.0263 -0.2443  0.2966
  511MOL0     C70398   1.938   3.873   8.110 -0.0886  0.2320 -0.6468
  511MOL0     C70399   2.016   3.769   8.149  0.1780 -0.0880  0.7924
  511MOL0     C70400   2.037   3.727   8.299 -0.0324 -0.8122 -0.3814
  511MOL0     C70401   2.184   3.722   8.352  0.5553 -0.9649  0.2888
  511MOL0     C70402   2.281   3.832   8.287  0.1776  0.6387  0.2010
  511MOL0     C70403   2.421   3.825   8.342  0.5566  0.1081  0.7999
  511MOL0     O70404   2.469   3.685   8.354  0.2505 -0.0284 -0.2278
  511MOL0     C70405   2.568   3.632   8.291 -0.8189  0.2141  0.0393
  511MOL0     C70406   2.655   3.700   8.206 -0.2242 -0.6078 -0.0102
  511MOL0     C70407   2.766   3.632   8.158 -0.0094 -0.6943  0.6365
  511MOL0     C70408   2.846   3.722   8.067  0.2025  0.7816 -0.3408
  511MOL0     C70409   2.799   3.493   8.184 -1.0033  0.3023  0.0756
  511MOL0     C70410   2.907   3.419   8.117 -0.9815  0.8920  0.1543
  511MOL0     O70411   2.907   3.287   8.110  0.0113 -0.5515 -0.5236
  511MOL0     C70412   2.988   3.210   8.041 -0.3428  0.2013  1.0187
  511MOL0     C70413   3.042   3.257   7.920 -1.5185 -0.4174  1.1446
  511MOL0     C70414   3.138   3.186   7.846 -0.1508 -0.8646  0.3999
  511MOL0     C70415   3.186   3.064   7.891 -0.3196  0.0640 -0.5127
  511MOL0     O70416   3.275   2.992   7.816 -0.4150 -0.0591  0.2494
  511MOL0     C70417   3.367   2.898   7.888 -0.5514 -0.8369 -0.3483
  511MOL0     C70418   3.469   2.825   7.796 -0.3200  0.3085  0.2497
  511MOL0     C70419   3.565   2.923   7.734  0.1181  0.3033  0.6840
  511MOL0     C70420   3.708   2.917   7.778  0.3592 -0.1848 -0.1343
  511MOL0     C70421   3.807   3.000   7.693 -0.3587 -0.4646  0.4534
  511MOL0     C70422   3.876   2.928   7.589 -0.9993  0.4449  0.3508
  511MOL0     C70423   3.975   3.016   7.503  1.1721  0.8417 -0.4232
  511MOL0     C70424   4.097   2.942   7.459 -0.2338  0.1301  0.1141
  511MOL0    Cl70425   4.213   2.930   7.587 -0.6542  0.3018 -0.1281
  511MOL0     C70426   3.129   3.014   8.013 -0.2111  0.0386  0.3686
  511MOL0     C70427   3.025   3.086   8.078 -0.0470  0.8488 -0.3377
  511MOL0     O70428   2.999   3.485   8.074  0.0231  0.4889 -0.3279
  511MOL0     C70429   2.707   3.421   8.262  0.7410  0.1507  0.6305
  511MOL0     C70430   2.598   3.492   8.318  0.4384 -0.4589 -0.6832
  511MOL0     N70431   2.050   3.701   8.035 -0.6060 -0.6415 -0.6111
  511MOL0     N70432   2.004   3.772   7.926  0.8411 -0.7441 -0.0388
  511MOL0     C70433   1.157   3.345   8.007 -0.1434  0.9781  0.3190
  511MOL0     C70434   1.101   3.249   8.093 -0.0555 -0.6771 -0.2649
  511MOL0     C70435   0.862   2.999   8.406 -0.3434  0.0891  0.4585
  511MOL0     C70436   0.730   3.015   8.381  0.3547  0.2498  0.4128
  511MOL0     C70437   0.637   2.952   8.460  0.2202 -0.2239 -0.5141
  511MOL0     C70438   0.674   2.866   8.555 -0.2204 -0.0360  0.2153
  511MOL0     O70439   0.596   2.794   8.643 -0.7585 -0.1333 -0.1313
  511MOL0     C70440   0.455   2.809   8.641  0.8553  0.6886 -0.3825
  511MOL0     C70441   0.399   2.935   8.715 -0.1337  0.3075  0.2162
  511MOL0     C70442   0.432   2.945   8.860  0.4176 -0.3834  0.5863
  511MOL0     C70443   0.493   3.070   8.900 -0.0318 -0.4102  0.8788
  511MOL0     C70444   0.513   3.091   9.035 -0.3501 -0.5906 -0.8121
  511MOL0     C70445   0.544   3.107   9.151 -0.2882  0.0267 -0.5215
  511MOL0     C70446   0.812   2.832   8.571  1.1934  0.4233  0.5832
  511MOL0     C70447   0.907   2.914   8.508  0.0660  0.3344  0.6393
  511MOL0     C70448   1.051   2.877   8.556 -0.2666 -0.6780  0.1423
  511MOL0     H70449   0.802   3.374   8.164  0.8528 -2.3175  1.1155
  511MOL0     H70450   0.885   3.550   7.997  0.4939  0.1595 -2.5238
  511MOL0     H70451   1.324   3.507   7.841  2.2442  0.8888 -0.0020
  511MOL0     H70452   1.294   3.611   7.971  0.0499 -3.3206  0.4284
  511MOL0     H70453   1.257   3.692   7.670  1.2017  0.6130 -1.4228
  511MOL0     H70454   1.221   3.793   7.817 -0.9908 -1.5523  0.1794
  511MOL0     H70455   1.474   3.739   7.869 -0.2484  2.2794  0.1673
  511MOL0     H70456   1.480   3.640   7.729  2.7434  0.1759  0.9776
  511MOL0     H70457   1.419   3.831   7.566  3.3305 -2.5806 -1.4697
  511MOL0     H70458   1.412   3.936   7.708  2.6853  1.3733 -0.3891
  511MOL0     H70459   1.624   3.973   7.599  0.2564  0.5276 -0.8187
  511MOL0     H70460   1.654   3.801   7.598  0.4328  0.6149 -0.4345
  511MOL0     H70461   1.630   3.962   7.856 -1.1577 -1.4906  1.3638
  511MOL0     H70462   1.689   3.804   7.850  2.5660 -0.0306 -0.4353
  511MOL0     H70463   1.800   4.047   7.713 -1.7516 -0.9936  0.0924
  511MOL0     H70464   1.881   3.894   7.704 -1.1284 -2.2565  0.0218
  511MOL0     H70465   1.956   4.068   7.901  0.4838 -0.7033 -0.6459
  511MOL0     H70466   1.802   4.046   7.978  1.9686  0.9951  1.3741
  511MOL0     H70467   1.892   3.949   8.173 -0.5171 -0.1611 -0.4798
  511MOL0     H70468   1.993   3.627   8.299  1.2092 -1.6800 -5.5135
  511MOL0     H70469   1.977   3.785   8.369 -1.8532  0.4623 -2.8315
  511MOL0     H70470   2.173   3.746   8.458  0.3280  0.9798 -0.1310
  511MOL0     H70471   2.217   3.620   8.332  1.1525 -0.5399 -1.0493
  511MOL0     H70472   2.286   3.811   8.179  0.9109  2.0680 -0.0608
  511MOL0     H70473   2.240   3.933   8.290  1.7031  1.2592  2.2563
  511MOL0     H70474   2.489   3.886   8.281 -1.2889  2.0198  0.5096
  511MOL0     H70475   2.419   3.865   8.444 -0.9969 -0.2887  0.9497
  511MOL0     H70476   2.641   3.806   8.184 -1.2067 -0.4828  1.1348
  511MOL0     H70477   2.796   3.818   8.051 -1.7125  0.0905  1.1756
  511MOL0     H70478   2.858   3.677   7.968 -1.7910  0.4625 -0.4794
  511MOL0     H70479   2.944   3.735   8.113  0.1408  0.6798 -0.1807
  511MOL0     H70480   3.004   3.350   7.880 -1.4177 -1.2466 -0.9893
  511MOL0     H70481   3.170   3.230   7.752 -2.6994  0.7695  0.1964
  511MOL0     H70482   3.424   2.952   7.965  2.6015 -0.9598 -2.4429
  511MOL0     H70483   3.312   2.817   7.937 -1.4155 -2.7372 -4.0955
  511MOL0     H70484   3.522   2.745   7.849 -0.8880 -0.6925 -0.6534
  511MOL0     H70485   3.417   2.766   7.720  1.5316 -2.4877  1.0212
  511MOL0     H70486   3.526   3.025   7.744 -2.1444 -0.5589  1.3837
  511MOL0     H70487   3.561   2.907   7.626 -0.4155  0.8836  0.6136
  511MOL0     H70488   3.732   2.812   7.760  3.7673  0.0640  2.1490
  511MOL0     H70489   3.718   2.928   7.887  1.1988 -2.7597  0.1237
  511MOL0     H70490   3.737   3.072   7.650 -0.8518  0.0198  1.9904
  511MOL0     H70491   3.876   3.054   7.758  0.7313 -1.4729  0.1766
  511MOL0     H70492   3.810   2.875   7.520  0.8676 -3.6271  1.3507
  511MOL0     H70493   3.931   2.847   7.638 -2.8118  0.5973  2.8388
  511MOL0     H70494   3.998   3.104   7.564  1.4213  0.5701 -0.1302
  511MOL0     H70495   3.917   3.047   7.415 -3.4859 -2.1453  1.1969
  511MOL0     H70496   4.144   2.997   7.377  0.6219 -1.7952 -0.7623
  511MOL0     H70497   4.077   2.840   7.425  1.6089  0.3165 -1.7534
  511MOL0     H70498   3.158   2.914   8.044  0.2244 -0.5643 -1.7937
  511MOL0     H70499   2.991   3.058   8.177  3.1354  1.4058  1.0034
  511MOL0     H70500   2.726   3.320   8.297 -0.5817 -0.4351 -0.2332
  511MOL0     H70501   2.527   3.442   8.383  3.0453 -4.9418 -0.8633
  511MOL0     H70502   1.251   3.316   7.960  0.4487 -2.2235  3.0631
  511MOL0     H70503   1.161   3.161   8.116  3.3748  1.9200  1.7572
  511MOL0     H70504   0.697   3.067   8.292 -0.1493 -1.8238 -0.6676
  511MOL0     H70505   0.531   2.972   8.444 -0.7688 -1.1048  3.6860
  511MOL0     H70506   0.427   2.813   8.535  2.6361  1.1400 -0.8770
  511MOL0     H70507   0.395   2.729   8.685  0.2024  1.5364  0.3257
  511MOL0     H70508   0.291   2.947   8.705  0.3100  3.7487 -2.1898
  511MOL0     H70509   0.431   3.021   8.656 -2.6352 -0.3488 -2.3599
  511MOL0     H70510   0.342   2.941   8.922 -0.7206  0.3633 -0.9568
  511MOL0     H70511   0.502   2.863   8.881  0.4516 -1.5797 -3.3579
  511MOL0     H70512   0.422   3.147   8.867 -1.2149 -2.2325 -1.0546
  511MOL0     H70513   0.589   3.084   8.849 -0.4904  1.4111  0.4426
  511MOL0     H70514   0.581   3.115   9.251 -0.3325  0.7890 -0.5562
  511MOL0     H70515   0.828   2.749   8.640 -1.6377 -0.6893  0.0383
  511MOL0     H70516   1.044   2.794   8.626  0.2341 -0.2828  0.6725
  511MOL0     H70517   1.114   2.841   8.474 -1.2634 -2.7613  0.2441
  511MOL0     H70518   1.083   2.959   8.622  0.5770  0.0071 -1.0825
  512MOL0     O70519   5.220  10.015   9.045 -0.8311 -0.4910 -0.1723
  512MOL0     C70520   5.156  10.075   9.124  0.5021  0.7214 -0.2219
  512MOL0     O70521   5.174  10.206   9.172 -0.5722 -0.4677 -0.1261
  512MOL0     C70522   5.250  10.284   9.091 -0.0646 -0.0380  1.3641
  512MOL0     C70523   5.228  10.291   8.950  0.6685  0.6714 -0.9437
  512MOL0     C70524   5.320  10.359   8.869 -0.0052  0.6525  0.0371
  512MOL0     C70525   5.432  10.431   8.921 -0.0578 -0.0727  0.4484
  512MOL0     O70526   5.496  10.484   8.810 -0.2171 -0.2579  0.4093
  512MOL0     C70527   5.604  10.571   8.837  0.2450  0.0589 -0.6444
  512MOL0     C70528   5.686  10.606   8.714  0.1793  0.4361 -0.0302
  512MOL0     C70529   5.781  10.495   8.670  0.4051 -0.4810 -0.1015
  512MOL0     C70530   5.835  10.540   8.536  0.6226  0.7566 -0.1245
  512MOL0     C70531   5.968  10.485   8.491  0.2520  0.5597  0.8862
  512MOL0     C70532   6.009  10.556   8.364  0.0574 -0.0206  0.0833
  512MOL0     C70533   6.151  10.501   8.333 -0.0354  0.3747 -0.0737
  512MOL0     C70534   6.221  10.568   8.227  0.2165 -0.4696 -0.0938
  512MOL0     N70535   6.355  10.531   8.194  0.7665 -0.1545 -0.3391
  512MOL0     C70536   6.425  10.416   8.230  0.7662  1.1667 -0.1469
  512MOL0     C70537   6.531  10.416   8.149 -0.0264 -0.3725  0.8242
  512MOL0     C70538   6.634  10.308   8.118 -0.7621  0.0379 -1.1401
  512MOL0     C70539   6.573  10.170   8.100  0.3485  0.2482 -0.4546
  512MOL0     C70540   6.689  10.062   8.103 -1.0725  0.7550 -0.2634
  512MOL0     C70541   6.643   9.923   8.070  0.1560  0.1363 -0.0186
  512MOL0     O70542   6.537   9.870   8.151 -0.0586 -0.2162  0.2386
  512MOL0     C70543   6.478   9.754   8.127 -0.7019  0.1166  0.5578
  512MOL0     C70544   6.421   9.701   8.236  0.5221  1.0585 -0.2015
  512MOL0     C70545   6.347   9.581   8.220 -0.6559  0.4639 -1.0701
  512MOL0     C70546   6.293   9.526   8.345  0.3700  0.3639 -0.2194
  512MOL0     C70547   6.322   9.523   8.099  0.0932  0.4985  0.7872
  512MOL0     C70548   6.231   9.414   8.057 -0.1714  0.5365 -0.0877
  512MOL0     O70549   6.279   9.350   7.952 -0.2123 -0.3919  0.5090
  512MOL0     C70550   6.207   9.245   7.896 -0.0075 -0.8907  0.2594
  512MOL0     C70551   6.113   9.154   7.952  0.0763 -0.6860 -0.4358
  512MOL0     C70552   6.064   9.053   7.874  0.3117  0.4917  0.0831
  512MOL0     C70553   6.095   9.034   7.736  0.0153 -0.7524 -0.2868
  512MOL0     O70554   6.054   8.935   7.648 -0.4748  0.2820 -0.6269
  512MOL0     C70555   5.912   8.922   7.642  0.1484 -1.0682 -0.4964
  512MOL0     C70556   5.831   9.036   7.588 -0.3844 -0.1446  0.6428
  512MOL0     C70557   5.678   8.996   7.596 -0.3845  0.9396 -0.1296
  512MOL0     C70558   5.597   9.087   7.514 -0.5655  0.3123  0.3875
  512MOL0     C70559   5.589   9.228   7.569  0.4321  0.3858 -0.6095
  512MOL0     C70560   5.471   9.241   7.666  0.2621  1.4984 -0.1159
  512MOL0     C70561   5.459   9.392   7.699 -0.5467 -0.6553  0.7791
  512MOL0     C70562   5.321   9.406   7.767 -1.2471 -0.5623  0.2737
  512MOL0    Cl70563   5.260   9.578   7.733  0.4323 -0.1128 -0.0181
  512MOL0     C70564   6.178   9.134   7.677 -0.5334 -0.1039  0.0066
  512MOL0     C70565   6.231   9.239   7.758  0.1397  1.0014 -1.0219
  512MOL0     O70566   6.116   9.400   8.103 -0.2609 -0.3194  0.6045
  512MOL0     C70567   6.399   9.568   7.992  0.1385  0.2262  0.1410
  512MOL0     C70568   6.476   9.689   8.002 -0.1081 -0.1087  0.4749
  512MOL0     N70569   6.526  10.527   8.072 -0.0990 -0.5969  0.1292
  512MOL0     N70570   6.420  10.598   8.094  0.1484 -0.5600 -0.9398
  512MOL0     C70571   5.440  10.447   9.059 -0.4553 -0.1828  0.6669
  512MOL0     C70572   5.349  10.367   9.138  0.1735  0.1140 -0.8165
  512MOL0     C70573   5.044  10.003   9.206  0.2285  0.2498  0.5245
  512MOL0     C70574   4.949  10.083   9.281  0.0269 -0.2325  0.1538
  512MOL0     C70575   4.857  10.022   9.363 -0.0052  0.7671  0.6514
  512MOL0     C70576   4.823   9.894   9.335 -1.4823  0.3892  0.5678
  512MOL0     O70577   4.705   9.857   9.376 -0.9562  0.6124  0.2945
  512MOL0     C70578   4.591   9.890   9.290 -0.5474  1.1249 -0.2245
  512MOL0     C70579   4.539  10.034   9.299 -0.1774  0.8852 -0.5179
  512MOL0     C70580   4.498  10.058   9.446 -0.0514 -0.2865 -0.4586
  512MOL0     C70581   4.467  10.201   9.467 -0.9330  0.1347 -0.3989
  512MOL0     C70582   4.362  10.243   9.381 -0.0201 -0.1680  0.2310
  512MOL0     C70583   4.276  10.283   9.305  0.4030 -0.3487  0.3201
  512MOL0     C70584   4.911   9.814   9.263  0.8544  0.7603 -0.3367
  512MOL0     C70585   5.031   9.857   9.206 -0.5055 -0.0095 -0.6050
  512MOL0     C70586   5.117   9.763   9.131 -0.4264 -0.7230  0.5142
  512MOL0     H70587   5.147  10.237   8.902 -0.1596  1.1047 -0.0566
  512MOL0     H70588   5.309  10.362   8.762  1.7809  0.7951 -0.1803
  512MOL0     H70589   5.669  10.526   8.913 -0.4784 -0.0606 -0.0842
  512MOL0     H70590   5.564  10.660   8.887 -0.2224 -2.0227  3.0739
  512MOL0     H70591   5.613  10.634   8.638  0.6931  1.4544 -0.1642
  512MOL0     H70592   5.737  10.701   8.733 -0.4252  0.4595  1.5692
  512MOL0     H70593   5.861  10.495   8.744  0.0542  2.1940  0.3830
  512MOL0     H70594   5.731  10.399   8.651  2.4582 -1.1603 -2.7965
  512MOL0     H70595   5.763  10.540   8.454  1.3045 -0.2807 -0.7393
  512MOL0     H70596   5.863  10.644   8.556  0.9103  0.5198  0.7246
  512MOL0     H70597   5.968  10.380   8.463  1.1422  1.2027 -1.8245
  512MOL0     H70598   6.031  10.511   8.576  0.0252  0.1976  1.1654
  512MOL0     H70599   5.949  10.526   8.277  0.5667 -0.6973 -0.0403
  512MOL0     H70600   6.010  10.665   8.380 -0.8164  0.0824 -0.4552
  512MOL0     H70601   6.151  10.393   8.314  2.6945 -0.0083  1.6232
  512MOL0     H70602   6.214  10.500   8.422  0.2134 -1.4397 -0.2320
  512MOL0     H70603   6.168  10.565   8.131  0.2406 -0.6761 -0.1003
  512MOL0     H70604   6.229  10.668   8.270 -1.3488 -0.5211  0.3423
  512MOL0     H70605   6.404  10.337   8.300  1.0547  0.3046 -1.0066
  512MOL0     H70606   6.717  10.316   8.189 -2.2965  3.9643  0.4700
  512MOL0     H70607   6.679  10.340   8.023 -0.9399  3.4902 -0.1850
  512MOL0     H70608   6.499  10.146   8.176 -0.7701 -1.4184 -1.9932
  512MOL0     H70609   6.521  10.163   8.004  0.4744  0.2887 -0.5263
  512MOL0     H70610   6.749  10.095   8.017 -1.7953 -0.2481 -1.1895
  512MOL0     H70611   6.742  10.062   8.198 -2.2219 -0.4277  0.3980
  512MOL0     H70612   6.607   9.920   7.966 -3.1760  2.4842  0.8712
  512MOL0     H70613   6.731   9.861   8.087 -1.6131 -2.2746  0.8556
  512MOL0     H70614   6.421   9.757   8.329 -1.3964 -0.7291  0.9622
  512MOL0     H70615   6.355   9.545   8.434 -0.0647 -0.7619  0.3459
  512MOL0     H70616   6.280   9.419   8.326  0.2632  0.7739 -2.7903
  512MOL0     H70617   6.190   9.557   8.363  0.0953 -0.7738  0.2580
  512MOL0     H70618   6.080   9.168   8.054  2.3847 -1.0228  0.3987
  512MOL0     H70619   5.992   8.992   7.927 -1.1205  0.9477 -1.2590
  512MOL0     H70620   5.892   8.835   7.579  1.3822 -2.4169  0.8930
  512MOL0     H70621   5.885   8.889   7.743  2.0292 -0.0112  0.4036
  512MOL0     H70622   5.851   9.132   7.636 -2.2356  1.1706 -1.0240
  512MOL0     H70623   5.864   9.039   7.483 -2.7906 -0.6798 -0.2020
  512MOL0     H70624   5.648   9.011   7.700  0.3063  1.1024  0.0475
  512MOL0     H70625   5.657   8.891   7.570  3.4945  0.3239 -1.4751
  512MOL0     H70626   5.498   9.048   7.487 -0.8020  1.5952 -0.7093
  512MOL0     H70627   5.646   9.097   7.416  0.5203  1.0388  0.9824
  512MOL0     H70628   5.688   9.242   7.613 -0.2417  1.7489  0.5421
  512MOL0     H70629   5.569   9.290   7.482  0.9673 -2.7361 -3.1529
  512MOL0     H70630   5.493   9.176   7.751  0.3880 -0.1395 -1.3608
  512MOL0     H70631   5.384   9.211   7.607 -0.7045  3.2972  0.3201
  512MOL0     H70632   5.451   9.439   7.601 -0.3365 -0.4614  0.8542
  512MOL0     H70633   5.547   9.431   7.751  0.0900 -2.3985  1.0962
  512MOL0     H70634   5.330   9.392   7.875 -1.7423 -2.6386  0.0818
  512MOL0     H70635   5.241   9.345   7.725 -0.4318  0.6146 -3.3645
  512MOL0     H70636   6.216   9.114   7.577 -0.9158 -2.4126  0.2640
  512MOL0     H70637   6.312   9.293   7.709  1.6013  1.1054  1.3858
  512MOL0     H70638   6.420   9.534   7.891  3.7926 -0.0282  0.8428
  512MOL0     H70639   6.518   9.733   7.913 -2.5195  1.8297  0.1892
  512MOL0     H70640   5.515  10.515   9.098 -1.0560  0.1518  1.2654
  512MOL0     H70641   5.386  10.359   9.240  1.7724 -1.6852 -1.4724
  512MOL0     H70642   4.956  10.190   9.266 -2.2388 -0.2158 -1.0698
  512MOL0     H70643   4.800  10.096   9.418 -0.3512  0.6404  0.4618
  512MOL0     H70644   4.630   9.863   9.191  0.8095 -1.1368  0.8421
  512MOL0     H70645   4.503   9.827   9.308  0.2233  0.7931  2.8392
  512MOL0     H70646   4.448  10.051   9.240 -2.1703  0.3029  2.1808
  512MOL0     H70647   4.614  10.103   9.261  2.7292 -1.6257  0.2593
  512MOL0     H70648   4.410   9.998   9.474 -0.1024  0.9830  2.4821
  512MOL0     H70649   4.584  10.032   9.508  0.7593  1.8629 -0.6353
  512MOL0     H70650   4.549  10.271   9.447 -2.0543  2.4248  2.3229
  512MOL0     H70651   4.433  10.221   9.569  0.1071 -0.0402 -0.0053
  512MOL0     H70652   4.206  10.322   9.234  1.1998 -1.6586 -1.2513
  512MOL0     H70653   4.876   9.714   9.241  1.4388  1.1498 -3.5621
  512MOL0     H70654   5.088   9.757   9.026  0.6031 -0.1472  0.1812
  512MOL0     H70655   5.223   9.787   9.142 -0.3471 -2.0461  3.9755
  512MOL0     H70656   5.107   9.665   9.179 -1.5332  1.3821  5.1391
  513MOL0     O70657   3.433   9.491   1.961 -0.8042 -0.4925  0.5937
  513MOL0     C70658   3.514   9.495   2.048  0.2280 -0.6547 -1.0955
  513MOL0     O70659   3.649   9.490   2.023  0.1359 -0.9879 -0.0490
  513MOL0     C70660   3.690   9.560   1.907  0.0122 -0.3333 -1.0067
  513MOL0     C70661   3.724   9.493   1.787 -0.5631 -0.1802  0.1902
  513MOL0     C70662   3.781   9.572   1.681  0.1305 -0.0710 -0.2425
  513MOL0     C70663   3.790   9.709   1.691 -0.0280 -0.1234 -0.0865
  513MOL0     O70664   3.813   9.782   1.572 -0.3733  0.1038 -0.1811
  513MOL0     C70665   3.763   9.918   1.557 -0.4995  0.0928  0.1222
  513MOL0     C70666   3.855   9.999   1.460 -0.2824 -0.0179  0.1415
  513MOL0     C70667   3.970  10.062   1.522 -0.2407  0.2913 -0.1187
  513MOL0     C70668   4.018  10.181   1.449 -0.4605  0.2289  1.1256
  513MOL0     C70669   4.151  10.244   1.503 -0.5704 -0.0854  0.0133
  513MOL0     C70670   4.272  10.148   1.487  0.3031  0.8426 -0.9732
  513MOL0     C70671   4.286  10.067   1.365 -0.3457  0.8860  0.2321
  513MOL0     C70672   4.295  10.156   1.236  0.0796  0.1018 -0.4799
  513MOL0     N70673   4.346  10.086   1.118 -0.7962 -0.0727 -0.4105
  513MOL0     C70674   4.276  10.042   1.007 -0.4147  0.0147 -0.3255
  513MOL0     C70675   4.375  10.001   0.929 -1.1439 -0.2319 -0.1910
  513MOL0     C70676   4.381   9.944   0.790  0.1925 -0.8636 -0.8573
  513MOL0     C70677   4.420  10.053   0.689  1.5336  0.0901  0.1604
  513MOL0     C70678   4.519   9.992   0.582 -0.1402 -0.9165 -0.7498
  513MOL0     C70679   4.457   9.860   0.520  0.5416  0.0613  0.5760
  513MOL0     O70680   4.317   9.885   0.492 -0.1094  0.1817  0.2874
  513MOL0     C70681   4.236   9.773   0.509  0.2158 -0.7596  0.0540
  513MOL0     C70682   4.276   9.640   0.484  1.6055  0.3280 -0.0406
  513MOL0     C70683   4.197   9.532   0.541  0.8528  0.6881 -0.0689
  513MOL0     C70684   4.250   9.388   0.531  0.0332  0.4306  0.4444
  513MOL0     C70685   4.068   9.561   0.599 -0.3543 -0.4909 -0.0661
  513MOL0     C70686   3.961   9.467   0.634 -0.0681 -0.1363  0.0932
  513MOL0     O70687   3.981   9.418   0.754  0.0894  0.0225 -0.2711
  513MOL0     C70688   3.907   9.312   0.800 -0.1695 -0.4295 -0.3615
  513MOL0     C70689   3.887   9.314   0.938 -0.1318 -0.2387 -0.0010
  513MOL0     C70690   3.831   9.202   1.004 -0.9807 -0.5459  0.2343
  513MOL0     C70691   3.779   9.093   0.926  0.3161 -0.0497 -1.0211
  513MOL0     O70692   3.729   8.981   0.989  0.2595 -0.8659  0.0108
  513MOL0     C70693   3.820   8.873   1.013  0.0807  0.1597  0.4564
  513MOL0     C70694   3.852   8.867   1.167  0.3358  0.9276 -0.1823
  513MOL0     C70695   3.933   8.745   1.206 -0.6491  0.3204 -0.3855
  513MOL0     C70696   4.080   8.768   1.165 -0.0058  0.6012  0.1975
  513MOL0     C70697   4.166   8.667   1.236 -0.4984 -0.3353 -0.1614
  513MOL0     C70698   4.306   8.680   1.182  0.7276  0.3259  0.6984
  513MOL0     C70699   4.385   8.558   1.223 -0.0540  0.4221 -0.4719
  513MOL0     C70700   4.438   8.574   1.367 -0.8081 -0.1331 -0.2762
  513MOL0    Cl70701   4.550   8.710   1.393 -0.2561  0.4532 -0.0885
  513MOL0     C70702   3.799   9.094   0.791 -1.0541 -0.2246 -0.4359
  513MOL0     C70703   3.863   9.201   0.723  0.4554 -0.0877  0.4646
  513MOL0     O70704   3.871   9.447   0.562 -0.3467  0.3143 -0.3244
  513MOL0     C70705   4.041   9.700   0.625  0.0652 -0.2825 -0.0712
  513MOL0     C70706   4.117   9.798   0.579  0.2781  0.2748 -0.5148
  513MOL0     N70707   4.498  10.025   0.991 -0.6509  0.1821  0.0064
  513MOL0     N70708   4.484  10.062   1.110 -0.1217 -0.2879  0.2107
  513MOL0     C70709   3.769   9.768   1.814 -0.6854 -0.4304  0.8244
  513MOL0     C70710   3.717   9.699   1.924  0.4776  0.0230 -0.2865
  513MOL0     C70711   3.461   9.487   2.182 -0.6314  0.4302 -0.0702
  513MOL0     C70712   3.324   9.511   2.193  0.5437 -0.9289 -0.5437
  513MOL0     C70713   3.262   9.522   2.319  0.6114 -0.0813 -0.2166
  513MOL0     C70714   3.337   9.508   2.434 -0.1378  0.7936  0.5374
  513MOL0     O70715   3.265   9.512   2.553  0.6371 -0.7642  0.0907
  513MOL0     C70716   3.328   9.508   2.679  0.4133 -0.3204  0.6297
  513MOL0     C70717   3.348   9.651   2.732 -0.0768  0.3581 -0.5149
  513MOL0     C70718   3.463   9.653   2.843 -0.0895  0.3891 -0.1103
  513MOL0     C70719   3.448   9.549   2.950 -0.2925  1.5383  0.8296
  513MOL0     C70720   3.351   9.558   3.049  0.2397  0.4569  0.6825
  513MOL0     C70721   3.257   9.594   3.115  0.6713 -0.3312  0.1867
  513MOL0     C70722   3.474   9.468   2.421  0.5433  0.7234  0.2414
  513MOL0     C70723   3.535   9.452   2.294 -0.3044  0.2475 -0.3745
  513MOL0     C70724   3.670   9.391   2.298 -0.0688 -1.0585  0.9816
  513MOL0     H70725   3.706   9.386   1.781  2.0403 -0.6208 -1.1935
  513MOL0     H70726   3.791   9.521   1.585 -1.2775 -0.1365 -0.3736
  513MOL0     H70727   3.749   9.972   1.651  2.3654  2.1085 -0.5001
  513MOL0     H70728   3.665   9.908   1.510 -0.0551  2.0336 -1.3144
  513MOL0     H70729   3.889   9.946   1.371  0.1709  4.4373 -2.6841
  513MOL0     H70730   3.785  10.074   1.423 -3.2439 -3.0949 -1.0058
  513MOL0     H70731   3.960  10.087   1.628 -2.8591  1.7469 -0.6212
  513MOL0     H70732   4.046   9.984   1.519  1.7632  2.1407 -0.3647
  513MOL0     H70733   4.031  10.169   1.341  2.1961  2.0544  1.1296
  513MOL0     H70734   3.949  10.266   1.456  1.7063  2.1585  0.4283
  513MOL0     H70735   4.143  10.267   1.610 -3.1850 -2.2239  0.3993
  513MOL0     H70736   4.178  10.330   1.442 -5.1660  1.1409 -0.6913
  513MOL0     H70737   4.358  10.216   1.488 -0.3486  1.6961 -1.5085
  513MOL0     H70738   4.276  10.082   1.574 -2.6380  2.3099  0.4025
  513MOL0     H70739   4.210   9.989   1.359 -0.3461  0.9554 -0.7337
  513MOL0     H70740   4.379  10.014   1.387 -1.4303 -0.3626  2.1942
  513MOL0     H70741   4.201  10.205   1.208 -1.3026 -3.5997 -3.1171
  513MOL0     H70742   4.364  10.236   1.265  0.9251 -1.4024  1.9667
  513MOL0     H70743   4.167  10.033   1.005 -0.4378  0.4012 -0.9432
  513MOL0     H70744   4.288   9.892   0.762  1.7392 -3.4638 -1.4769
  513MOL0     H70745   4.465   9.875   0.784  2.2924  1.6970 -5.6523
  513MOL0     H70746   4.330  10.092   0.641  0.3210  0.8951  2.8683
  513MOL0     H70747   4.448  10.142   0.745 -4.9711  2.0020  1.2221
  513MOL0     H70748   4.533  10.064   0.501 -5.0746  1.5882  0.1921
  513MOL0     H70749   4.612   9.988   0.639  0.0230  1.4533 -0.7601
  513MOL0     H70750   4.505   9.825   0.429 -1.6899 -0.6091 -0.4063
  513MOL0     H70751   4.456   9.785   0.600 -3.6129 -1.0218 -0.2514
  513MOL0     H70752   4.369   9.626   0.431  0.2083 -4.0055 -1.7716
  513MOL0     H70753   4.357   9.371   0.549  0.2875 -0.7009 -1.8585
  513MOL0     H70754   4.230   9.343   0.434 -1.3601 -0.9011  1.3204
  513MOL0     H70755   4.182   9.326   0.590 -2.3579  1.6471 -0.8878
  513MOL0     H70756   3.927   9.396   0.998  0.4494 -1.3110  1.1295
  513MOL0     H70757   3.839   9.189   1.111 -0.8409  0.8002  0.4084
  513MOL0     H70758   3.771   8.780   0.981  0.8943  0.4388 -1.7879
  513MOL0     H70759   3.917   8.886   0.964 -0.1461 -0.7986 -0.2938
  513MOL0     H70760   3.896   8.964   1.190 -2.7381  1.9543  1.9873
  513MOL0     H70761   3.748   8.863   1.201 -0.7455 -1.4949 -3.2475
  513MOL0     H70762   3.891   8.653   1.163  0.6797 -1.0826  1.1547
  513MOL0     H70763   3.919   8.729   1.313 -0.8844 -0.6026 -0.5422
  513MOL0     H70764   4.114   8.865   1.203  0.1494 -0.1252  1.9947
  513MOL0     H70765   4.084   8.761   1.055  1.4569  1.1346  0.1992
  513MOL0     H70766   4.168   8.700   1.341  0.7821  2.2397 -0.8968
  513MOL0     H70767   4.124   8.568   1.222 -0.6399 -0.8570  3.0802
  513MOL0     H70768   4.348   8.778   1.210 -0.3571  1.6753 -2.0295
  513MOL0     H70769   4.320   8.696   1.074  1.3364  3.1642  1.0984
  513MOL0     H70770   4.479   8.572   1.170  0.3918  1.5857  0.5636
  513MOL0     H70771   4.339   8.461   1.202 -1.3187  1.1206 -1.0657
  513MOL0     H70772   4.495   8.483   1.388 -0.8716 -0.6883 -2.2837
  513MOL0     H70773   4.350   8.590   1.431 -0.8487 -0.1965 -0.3158
  513MOL0     H70774   3.768   9.015   0.723  3.0569 -0.3109 -2.5151
  513MOL0     H70775   3.897   9.190   0.620  2.8470 -1.2491  1.3081
  513MOL0     H70776   3.951   9.740   0.670 -0.5250 -0.1128 -1.3362
  513MOL0     H70777   4.089   9.899   0.606 -0.1903  0.1692 -0.6005
  513MOL0     H70778   3.804   9.869   1.833 -3.0413  0.4023  1.1623
  513MOL0     H70779   3.690   9.746   2.018 -0.4711  0.4822 -0.7637
  513MOL0     H70780   3.268   9.537   2.103  2.0158  1.0915 -0.9475
  513MOL0     H70781   3.155   9.542   2.320 -0.1094 -3.1970 -1.2029
  513MOL0     H70782   3.271   9.462   2.760  0.5422  1.3945  1.7329
  513MOL0     H70783   3.417   9.445   2.671  1.0125  0.5556  0.1704
  513MOL0     H70784   3.252   9.690   2.767  0.4734  0.1486  1.3622
  513MOL0     H70785   3.381   9.710   2.646 -0.8282  0.4760 -0.7253
  513MOL0     H70786   3.557   9.630   2.790 -0.7500 -0.5941 -0.8937
  513MOL0     H70787   3.470   9.753   2.886 -1.8153  0.6614 -0.3851
  513MOL0     H70788   3.547   9.515   2.981  0.5947 -0.3095 -3.3813
  513MOL0     H70789   3.414   9.458   2.900  0.7862  1.4702  0.1834
  513MOL0     H70790   3.181   9.617   3.187  0.8013 -1.3710  0.6628
  513MOL0     H70791   3.519   9.432   2.513 -4.2410 -1.3509  2.1327
  513MOL0     H70792   3.744   9.462   2.259 -1.0683 -1.1178 -1.1332
  513MOL0     H70793   3.692   9.361   2.401 -2.0579  3.9682  3.1907
  513MOL0     H70794   3.677   9.303   2.233  0.9778  1.1581 -2.1465
  514MOL0     O70795   8.978  10.084   4.643  0.2740  0.9220  0.0972
  514MOL0     C70796   8.862  10.102   4.687  0.2376  0.2354 -0.6559
  514MOL0     O70797   8.826  10.084   4.821  0.4644 -0.5282 -0.2190
  514MOL0     C70798   8.919  10.033   4.908 -0.4507 -0.2541  0.0098
  514MOL0     C70799   9.005  10.124   4.980 -0.0078 -0.8612  0.1598
  514MOL0     C70800   9.108  10.081   5.063  0.7837  1.3294 -0.1300
  514MOL0     C70801   9.126   9.944   5.097 -0.0662  0.2231 -0.1158
  514MOL0     O70802   9.238   9.909   5.179  0.0895  0.3327  0.1206
  514MOL0     C70803   9.286   9.773   5.181  0.2335 -0.3811 -0.6669
  514MOL0     C70804   9.419   9.760   5.254  0.1416 -0.1731 -0.5996
  514MOL0     C70805   9.401   9.790   5.407  1.0362  0.7240  0.7516
  514MOL0     C70806   9.360   9.660   5.472  0.2389 -0.2829 -0.2961
  514MOL0     C70807   9.352   9.672   5.626 -0.4162  0.1409  1.4376
  514MOL0     C70808   9.487   9.708   5.706 -0.3623  0.4021  0.6115
  514MOL0     C70809   9.459   9.698   5.859  0.2748 -0.5725 -0.5259
  514MOL0     C70810   9.574   9.767   5.930 -0.3155 -0.6263 -0.2578
  514MOL0     N70811   9.533   9.805   6.059 -0.2127 -0.3568  0.8737
  514MOL0     C70812   9.470   9.724   6.144  0.0815  0.8949  0.4240
  514MOL0     C70813   9.429   9.794   6.250 -0.0837  1.1023 -0.1170
  514MOL0     C70814   9.356   9.741   6.363  0.1237 -0.4913 -0.7257
  514MOL0     C70815   9.425   9.808   6.484  0.2794 -0.5974 -0.6571
  514MOL0     C70816   9.379   9.765   6.630 -0.2331 -0.4818  0.1552
  514MOL0     C70817   9.409   9.616   6.652  0.2603 -1.3210  0.8491
  514MOL0     O70818   9.548   9.606   6.685  0.1481  0.2599  0.1685
  514MOL0     C70819   9.591   9.491   6.747  0.3816 -0.2896 -0.4364
  514MOL0     C70820   9.520   9.378   6.773  0.4227  0.1541  0.0087
  514MOL0     C70821   9.577   9.258   6.824  0.2592 -0.9684  0.0432
  514MOL0     C70822   9.485   9.148   6.861  1.1798 -0.0033 -0.6190
  514MOL0     C70823   9.718   9.252   6.824  0.1683 -0.0320 -0.8724
  514MOL0     C70824   9.802   9.134   6.865  0.3722 -1.0098  0.4018
  514MOL0     O70825   9.934   9.154   6.842  0.6064 -0.8374  0.5142
  514MOL0     C70826  10.005   9.054   6.786  0.0956  0.6119 -0.6425
  514MOL0     C70827   9.950   8.951   6.713 -1.1822  0.0286 -1.1289
  514MOL0     C70828  10.034   8.860   6.647 -0.2901 -0.4022 -0.2886
  514MOL0     C70829  10.176   8.867   6.664 -0.2649  0.8304  0.2030
  514MOL0     O70830  10.265   8.781   6.595 -0.8916 -0.6106 -0.9603
  514MOL0     C70831  10.255   8.637   6.615 -0.1432  0.5141  0.7071
  514MOL0     C70832  10.393   8.567   6.617 -0.5264  0.7506 -0.5016
  514MOL0     C70833  10.458   8.573   6.485  0.5517  0.2734  0.6616
  514MOL0     C70834  10.601   8.516   6.481  0.2790  0.0688  0.5667
  514MOL0     C70835  10.658   8.525   6.339  0.0923  0.3297 -0.4594
  514MOL0     C70836  10.795   8.474   6.333 -0.6636  0.4591  0.2247
  514MOL0     C70837  10.861   8.494   6.188  0.1522  0.2844 -0.4177
  514MOL0     C70838  10.789   8.397   6.085  0.4973 -0.6128 -0.3514
  514MOL0    Cl70839  10.885   8.384   5.934  0.6053  0.2511 -0.0093
  514MOL0     C70840  10.233   8.961   6.743  0.0669 -0.5334 -0.4536
  514MOL0     C70841  10.148   9.055   6.795  0.4878 -0.5843  0.3908
  514MOL0     O70842   9.755   9.032   6.906  0.1867  0.2994  0.9758
  514MOL0     C70843   9.786   9.369   6.783 -0.0601 -0.1631  0.5388
  514MOL0     C70844   9.721   9.479   6.760  0.3147 -0.1594 -0.5959
  514MOL0     N70845   9.479   9.921   6.239  0.1330 -0.1088  0.2767
  514MOL0     N70846   9.535   9.929   6.118 -0.0646  0.3376 -0.1994
  514MOL0     C70847   9.037   9.855   5.034 -1.2706  0.0000  0.5340
  514MOL0     C70848   8.941   9.894   4.941 -0.1638 -0.0747  0.1653
  514MOL0     C70849   8.765  10.130   4.589 -0.0912  0.7891  0.1798
  514MOL0     C70850   8.638  10.071   4.613 -0.5202  0.2183 -0.3068
  514MOL0     C70851   8.528  10.102   4.534 -0.4087 -0.3831  0.1524
  514MOL0     C70852   8.538  10.179   4.422 -0.1241 -0.0952  0.5991
  514MOL0     O70853   8.426  10.191   4.335  0.3271 -0.0211  0.3666
  514MOL0     C70854   8.436  10.279   4.220 -0.1008 -0.4052 -0.3469
  514MOL0     C70855   8.302  10.275   4.139  0.5565 -0.5010  0.9752
  514MOL0     C70856   8.304  10.365   4.013  0.6057  0.3462  1.1893
  514MOL0     C70857   8.195  10.331   3.915  0.2182 -0.6808 -0.8410
  514MOL0     C70858   8.222  10.411   3.795 -0.2880 -0.3848  0.8519
  514MOL0     C70859   8.261  10.479   3.704 -0.4747  0.1016 -0.0072
  514MOL0     C70860   8.659  10.251   4.406  0.0670  0.0683 -0.8265
  514MOL0     C70861   8.773  10.222   4.481 -0.2989  1.1404 -0.8299
  514MOL0     C70862   8.899  10.304   4.456  0.2947  0.3067 -0.1226
  514MOL0     H70863   8.994  10.230   4.962  2.2421 -0.4312  1.0417
  514MOL0     H70864   9.177  10.154   5.105  1.6851 -1.7092  4.3553
  514MOL0     H70865   9.283   9.733   5.079  1.0494  0.0994 -0.8876
  514MOL0     H70866   9.212   9.713   5.234 -0.2373  0.1597 -0.6934
  514MOL0     H70867   9.459   9.658   5.247  0.0151 -0.1201 -2.8383
  514MOL0     H70868   9.486   9.838   5.219  0.8552  1.1619  3.2598
  514MOL0     H70869   9.498   9.818   5.449  0.0153 -0.0777  3.9109
  514MOL0     H70870   9.324   9.864   5.433 -2.5997 -1.4809 -2.6473
  514MOL0     H70871   9.257   9.646   5.439 -0.1501  1.4989  0.0562
  514MOL0     H70872   9.428   9.580   5.440 -0.6793 -0.3781 -2.1750
  514MOL0     H70873   9.316   9.577   5.667 -0.5338 -1.2649 -1.5780
  514MOL0     H70874   9.277   9.749   5.645 -3.7842 -2.3593 -0.5099
  514MOL0     H70875   9.565   9.633   5.685 -1.0546 -0.0026 -0.6346
  514MOL0     H70876   9.525   9.806   5.675  1.6861 -0.2643  0.8098
  514MOL0     H70877   9.462   9.594   5.892  3.1855 -0.0172  1.3696
  514MOL0     H70878   9.370   9.758   5.880  0.4518 -0.4840 -0.0114
  514MOL0     H70879   9.650   9.689   5.943 -2.3243 -2.7485 -0.5724
  514MOL0     H70880   9.591   9.857   5.869 -2.4900  0.2801  0.3923
  514MOL0     H70881   9.435   9.624   6.121 -0.3136  0.6125  2.1145
  514MOL0     H70882   9.355   9.632   6.369 -1.1882 -0.5214 -1.3590
  514MOL0     H70883   9.252   9.773   6.351  0.0046 -1.9567 -5.8577
  514MOL0     H70884   9.535   9.809   6.482  0.2889 -1.4674 -0.7448
  514MOL0     H70885   9.398   9.914   6.475  2.6585  0.0061 -1.4810
  514MOL0     H70886   9.421   9.841   6.697 -1.4555  0.8414 -0.5185
  514MOL0     H70887   9.270   9.771   6.633 -0.1896 -0.0325  2.1797
  514MOL0     H70888   9.342   9.591   6.736  1.7947 -1.6365  2.0194
  514MOL0     H70889   9.384   9.555   6.565 -1.7654  0.4540  0.0961
  514MOL0     H70890   9.412   9.369   6.761  0.4880 -0.6113 -0.0392
  514MOL0     H70891   9.387   9.195   6.871  1.9989  3.0969 -4.6357
  514MOL0     H70892   9.503   9.097   6.956  0.0553 -0.4081 -0.6122
  514MOL0     H70893   9.487   9.069   6.784 -0.2637  2.1509 -3.0186
  514MOL0     H70894   9.843   8.941   6.699 -1.3430 -1.0251  0.4853
  514MOL0     H70895   9.983   8.797   6.575 -1.4374  0.8586 -0.6241
  514MOL0     H70896  10.192   8.627   6.704 -1.8290 -0.3685 -0.5320
  514MOL0     H70897  10.204   8.584   6.535  0.0337 -0.7360  1.3931
  514MOL0     H70898  10.461   8.618   6.686  2.2909  2.0666 -3.9270
  514MOL0     H70899  10.375   8.464   6.648  2.2645 -0.6217 -2.9638
  514MOL0     H70900  10.465   8.675   6.445  0.9286 -0.3394 -0.9244
  514MOL0     H70901  10.398   8.519   6.411  0.0058  0.3717  1.0246
  514MOL0     H70902  10.605   8.416   6.525 -1.4964  0.4646  1.7129
  514MOL0     H70903  10.656   8.586   6.544 -1.7641  0.3969  2.0641
  514MOL0     H70904  10.587   8.467   6.279  0.3416 -0.5960  0.1042
  514MOL0     H70905  10.643   8.629   6.309 -0.9814 -0.5868 -3.4058
  514MOL0     H70906  10.794   8.369   6.363  4.0124  0.0117 -0.4096
  514MOL0     H70907  10.857   8.537   6.398 -0.8358  4.4389 -3.0142
  514MOL0     H70908  10.964   8.457   6.193 -0.6377 -1.9544  1.2653
  514MOL0     H70909  10.860   8.601   6.167  1.4830  1.1836  3.2604
  514MOL0     H70910  10.690   8.435   6.060  0.8155  0.3179 -0.2454
  514MOL0     H70911  10.786   8.296   6.127  1.0984 -0.4476  0.1025
  514MOL0     H70912  10.340   8.977   6.753 -0.0352 -0.8689  1.8020
  514MOL0     H70913  10.193   9.142   6.841 -2.7139  0.0994  2.6389
  514MOL0     H70914   9.894   9.372   6.785  0.0947 -2.1101 -1.0994
  514MOL0     H70915   9.779   9.569   6.739 -0.6533  0.9650  1.2464
  514MOL0     H70916   9.048   9.749   5.054  1.4572 -0.3884 -2.2732
  514MOL0     H70917   8.868   9.822   4.904 -0.9688 -0.1245  1.7957
  514MOL0     H70918   8.627  10.011   4.702  0.1116  1.6062  0.7487
  514MOL0     H70919   8.433  10.052   4.547  0.2694 -2.2191 -1.4702
  514MOL0     H70920   8.446  10.385   4.246 -0.2804 -0.7213  1.0978
  514MOL0     H70921   8.516  10.252   4.150  0.6610 -1.1032  0.7664
  514MOL0     H70922   8.222  10.317   4.201  0.8664  3.3365 -0.9523
  514MOL0     H70923   8.285  10.170   4.113  1.9827 -0.7604  1.0180
  514MOL0     H70924   8.309  10.472   4.039  2.6425  1.1257 -1.8114
  514MOL0     H70925   8.400  10.337   3.967 -1.1541 -0.4221 -2.3373
  514MOL0     H70926   8.097  10.364   3.949  0.4763 -1.7053  1.0139
  514MOL0     H70927   8.183  10.224   3.895 -1.0650 -0.7872  0.3766
  514MOL0     H70928   8.272  10.550   3.625 -0.8033  3.1428  2.4967
  514MOL0     H70929   8.681  10.331   4.336 -0.1672  0.1136 -0.8491
  514MOL0     H70930   8.964  10.239   4.397 -3.6331 -1.1761 -3.2388
  514MOL0     H70931   8.880  10.403   4.414 -0.0166  0.4749  0.4005
  514MOL0     H70932   8.946  10.318   4.554  3.1059 -1.1668 -1.1617
  515MOL0     O70933   7.920   0.797   8.003  0.1154 -0.2533 -0.2107
  515MOL0     C70934   7.839   0.758   8.085  0.6822 -0.1677 -0.2143
  515MOL0     O70935   7.703   0.808   8.094 -0.2010  0.6651  0.4950
  515MOL0     C70936   7.657   0.873   7.985 -1.1654  0.0562  0.7937
  515MOL0     C70937   7.656   1.014   7.990 -0.1283  0.5631 -0.7063
  515MOL0     C70938   7.603   1.086   7.887  0.3511  1.1268 -0.2279
  515MOL0     C70939   7.536   1.021   7.785  0.5236 -0.4862 -0.6117
  515MOL0     O70940   7.493   1.114   7.696 -0.2747 -0.2390  0.0955
  515MOL0     C70941   7.429   1.059   7.580  0.0924  0.1365  0.4959
  515MOL0     C70942   7.401   1.178   7.489  0.4453  0.0787  0.4966
  515MOL0     C70943   7.335   1.124   7.363  0.3793  0.0975  0.4206
  515MOL0     C70944   7.287   1.239   7.275 -1.5460 -0.3192  0.1948
  515MOL0     C70945   7.256   1.193   7.126  0.0233 -0.6369 -0.3315
  515MOL0     C70946   7.379   1.154   7.038  0.0881 -0.2819 -0.8432
  515MOL0     C70947   7.467   1.271   7.019  0.5392 -0.3744 -0.6041
  515MOL0     C70948   7.581   1.231   6.930 -0.9505  0.3096  0.5033
  515MOL0     N70949   7.674   1.138   7.003 -0.8468 -0.2931  0.0357
  515MOL0     C70950   7.754   1.176   7.109  0.1198  0.2753 -0.5969
  515MOL0     C70951   7.801   1.062   7.169  0.2163 -0.5797  0.8358
  515MOL0     C70952   7.905   1.072   7.278  0.0588 -0.7460  0.1893
  515MOL0     C70953   7.847   1.116   7.416  0.7627  0.1678 -0.7138
  515MOL0     C70954   7.942   1.132   7.534 -0.2496 -0.2292  0.2223
  515MOL0     C70955   8.005   1.011   7.577  0.0677 -0.2287  0.0220
  515MOL0     O70956   8.132   0.978   7.514 -0.1761  0.2345  0.6936
  515MOL0     C70957   8.194   0.861   7.548 -0.0044 -0.2327  0.1403
  515MOL0     C70958   8.149   0.773   7.649 -0.2132  0.3733 -0.3727
  515MOL0     C70959   8.222   0.670   7.705 -0.1606  1.5330  0.1053
  515MOL0     C70960   8.146   0.583   7.802 -1.2541  0.6122  0.6933
  515MOL0     C70961   8.348   0.637   7.637  0.1589  0.3944 -0.3820
  515MOL0     C70962   8.429   0.518   7.668  0.2930 -0.1285  1.0462
  515MOL0     O70963   8.522   0.482   7.577 -0.0260 -0.3831 -0.3256
  515MOL0     C70964   8.598   0.382   7.626  0.5526  0.0760  0.3936
  515MOL0     C70965   8.581   0.249   7.572 -0.3656 -0.0661 -0.0504
  515MOL0     C70966   8.670   0.142   7.608 -0.0707 -0.5042  0.3567
  515MOL0     C70967   8.761   0.161   7.710 -0.2727  0.4362 -1.2526
  515MOL0     O70968   8.840   0.066   7.773  0.0966  0.4736 -0.4349
  515MOL0     C70969   8.855  -0.072   7.719 -0.2249 -0.0646  0.4432
  515MOL0     C70970   8.923  -0.172   7.828 -0.9923 -0.4418  0.3563
  515MOL0     C70971   8.833  -0.161   7.953  0.3928 -0.8707  0.4171
  515MOL0     C70972   8.824  -0.293   8.027 -0.2209 -0.7983 -0.2796
  515MOL0     C70973   8.963  -0.348   8.077  0.7228 -1.1605  0.7496
  515MOL0     C70974   8.950  -0.472   8.171 -0.4044  0.6048 -0.1496
  515MOL0     C70975   9.050  -0.475   8.291  0.6617 -0.3564 -0.3210
  515MOL0     C70976   9.019  -0.571   8.402  0.5163  0.5959 -0.1791
  515MOL0    Cl70977   8.868  -0.514   8.476 -0.1015  0.1072 -0.0498
  515MOL0     C70978   8.779   0.287   7.760  0.4905 -0.2640 -0.5632
  515MOL0     C70979   8.696   0.399   7.724 -0.1308 -0.4981  0.5135
  515MOL0     O70980   8.407   0.448   7.764  0.2732  0.0672  0.2656
  515MOL0     C70981   8.392   0.719   7.536  1.5412  0.2673  0.6622
  515MOL0     C70982   8.319   0.833   7.500 -0.6632  1.4440  0.0303
  515MOL0     N70983   7.762   0.955   7.093  0.5427 -0.5290 -0.4948
  515MOL0     N70984   7.674   1.003   7.005 -0.6366  0.4718  0.1699
  515MOL0     C70985   7.534   0.881   7.780  0.1322  0.1438 -0.6749
  515MOL0     C70986   7.610   0.803   7.873 -0.3841  0.6059  0.0752
  515MOL0     C70987   7.895   0.653   8.186 -0.0012  0.2853  1.0652
  515MOL0     C70988   8.021   0.598   8.169 -0.2022  0.5072 -0.0675
  515MOL0     C70989   8.070   0.498   8.252 -0.6550  0.6893 -0.3943
  515MOL0     C70990   7.989   0.449   8.351  0.2518  0.1226 -0.3692
  515MOL0     O70991   8.045   0.341   8.417 -0.2086 -0.9284 -0.6926
  515MOL0     C70992   7.950   0.260   8.495  0.2581 -0.3052 -0.8331
  515MOL0     C70993   8.007   0.126   8.540 -0.1348  1.1122  0.4423
  515MOL0     C70994   7.999   0.035   8.414  0.4014  0.5479  0.0404
  515MOL0     C70995   8.051  -0.104   8.460  0.0657  0.1039  0.3868
  515MOL0     C70996   7.949  -0.170   8.539 -0.2647  0.6876 -0.8372
  515MOL0     C70997   7.864  -0.234   8.602 -0.0069 -0.9170 -0.5835
  515MOL0     C70998   7.858   0.500   8.376 -0.3469 -0.5013 -0.3627
  515MOL0     C70999   7.813   0.602   8.289  0.7807  0.1284 -0.6584
  515MOL0     C71000   7.699   0.677   8.358 -0.5529  0.3704  0.3936
  515MOL0     H71001   7.706   1.069   8.070 -1.7816  0.0307  0.7462
  515MOL0     H71002   7.620   1.192   7.896  0.5064  1.0084  1.1201
  515MOL0     H71003   7.340   1.000   7.605  1.2302 -1.4893  0.8407
  515MOL0     H71004   7.497   0.991   7.528 -0.0301 -1.0841  1.8546
  515MOL0     H71005   7.327   1.238   7.544  1.1507  0.2153  1.3159
  515MOL0     H71006   7.500   1.224   7.482  1.7744 -2.7335 -0.8145
  515MOL0     H71007   7.408   1.071   7.301  0.0944  1.5648 -1.2660
  515MOL0     H71008   7.258   1.050   7.384  2.5504 -2.4323  0.0341
  515MOL0     H71009   7.189   1.272   7.312 -1.4618 -0.2582  0.3677
  515MOL0     H71010   7.361   1.320   7.277 -1.4996 -0.2578 -1.9686
  515MOL0     H71011   7.196   1.272   7.081  1.6777  0.9282  0.1037
  515MOL0     H71012   7.182   1.113   7.127 -1.1987  0.4671  0.8711
  515MOL0     H71013   7.438   1.071   7.081 -2.5380 -0.8606  2.0351
  515MOL0     H71014   7.340   1.124   6.941 -3.2853  1.6421 -0.2152
  515MOL0     H71015   7.514   1.294   7.115 -0.8340 -3.0095  0.8097
  515MOL0     H71016   7.413   1.354   6.972  0.1081 -1.4144 -2.0069
  515MOL0     H71017   7.547   1.168   6.847  2.4863 -1.3777  0.1784
  515MOL0     H71018   7.630   1.322   6.894  0.2394  0.4115  2.2617
  515MOL0     H71019   7.752   1.274   7.156 -4.2585  1.8544 -3.3973
  515MOL0     H71020   7.982   1.140   7.241 -0.1577 -1.2712 -1.2834
  515MOL0     H71021   7.952   0.975   7.295  2.5239 -0.2344 -2.8881
  515MOL0     H71022   7.787   1.207   7.412 -0.9292 -0.5172  3.3741
  515MOL0     H71023   7.773   1.037   7.430 -0.7918  1.6755 -0.0301
  515MOL0     H71024   8.017   1.208   7.509  1.2256 -1.4285  0.7885
  515MOL0     H71025   7.886   1.167   7.621  2.1397  0.0330  1.7564
  515MOL0     H71026   8.007   1.015   7.687 -0.4775  1.7468  0.0044
  515MOL0     H71027   7.939   0.931   7.544  0.6015 -1.4489  1.7629
  515MOL0     H71028   8.050   0.799   7.685 -0.8724 -0.3029 -1.6129
  515MOL0     H71029   8.044   0.623   7.813 -2.0565 -0.6269 -1.4283
  515MOL0     H71030   8.198   0.568   7.896  1.5577 -1.5443 -1.0309
  515MOL0     H71031   8.152   0.484   7.755 -0.8498  2.1479 -2.8835
  515MOL0     H71032   8.504   0.248   7.495  0.3311 -0.9033 -0.7441
  515MOL0     H71033   8.665   0.046   7.558  2.9163 -2.8602  4.1210
  515MOL0     H71034   8.753  -0.108   7.699 -0.3588  0.7164 -0.3144
  515MOL0     H71035   8.906  -0.068   7.622 -0.3018  0.2288  0.4147
  515MOL0     H71036   8.924  -0.272   7.785 -0.2819  0.0088 -0.7285
  515MOL0     H71037   9.029  -0.154   7.850 -0.6696 -1.2900 -0.4276
  515MOL0     H71038   8.730  -0.133   7.929  1.6622  4.2296 -0.1958
  515MOL0     H71039   8.887  -0.089   8.016 -0.9625  1.4958 -0.9792
  515MOL0     H71040   8.779  -0.368   7.961  1.2474 -1.3065 -0.7313
  515MOL0     H71041   8.760  -0.282   8.115  1.3652  2.0685  0.6422
  515MOL0     H71042   9.035  -0.367   7.996 -0.9796 -0.9964 -0.8541
  515MOL0     H71043   9.009  -0.268   8.137 -0.8396  0.2555  0.1501
  515MOL0     H71044   8.949  -0.564   8.112 -1.5673  2.1094 -2.6566
  515MOL0     H71045   8.850  -0.454   8.211 -0.0258  1.5512  0.4027
  515MOL0     H71046   9.064  -0.372   8.324 -0.2555  0.8685 -3.4118
  515MOL0     H71047   9.149  -0.500   8.254 -0.1103  0.5199 -3.2559
  515MOL0     H71048   9.093  -0.572   8.483  0.4192  3.8488  0.0907
  515MOL0     H71049   9.011  -0.675   8.369  0.5341  0.3433  0.5908
  515MOL0     H71050   8.856   0.297   7.835  1.9308 -0.5787 -1.9659
  515MOL0     H71051   8.702   0.500   7.763 -1.7152 -0.8424  1.7721
  515MOL0     H71052   8.490   0.709   7.491  0.0687  0.4581 -2.8959
  515MOL0     H71053   8.355   0.899   7.422 -2.7616 -0.5889 -2.8792
  515MOL0     H71054   7.465   0.825   7.718  0.3301  0.0640 -0.8233
  515MOL0     H71055   7.624   0.695   7.876 -0.9197  0.5209 -0.3028
  515MOL0     H71056   8.089   0.625   8.089  2.5161 -0.1221  1.8964
  515MOL0     H71057   8.158   0.441   8.224  0.9270  1.6651  2.2820
  515MOL0     H71058   7.947   0.309   8.593 -4.4337  1.9985 -1.8514
  515MOL0     H71059   7.856   0.243   8.442 -1.0186  0.2639  1.1559
  515MOL0     H71060   7.945   0.102   8.627 -0.7176  1.5638  0.1596
  515MOL0     H71061   8.113   0.138   8.565  0.7951 -1.2462 -1.8626
  515MOL0     H71062   7.899   0.020   8.374  0.4154 -0.2371  0.2863
  515MOL0     H71063   8.052   0.088   8.334 -2.1985 -1.7271 -3.4960
  515MOL0     H71064   8.134  -0.094   8.531 -0.3417 -0.2356  0.9246
  515MOL0     H71065   8.075  -0.171   8.377  3.3844 -0.1668  1.4449
  515MOL0     H71066   7.789  -0.284   8.660  0.0306 -2.0938 -1.5054
  515MOL0     H71067   7.794   0.467   8.457  0.0779  0.2719  0.3047
  515MOL0     H71068   7.604   0.687   8.305 -1.3294 -1.0078  1.4503
  515MOL0     H71069   7.671   0.626   8.451 -0.8841 -0.5362 -0.1834
  515MOL0     H71070   7.750   0.766   8.394  0.0598 -0.2149  0.9911
  516MOL0     O71071   0.411   4.708   9.072  0.0427  0.4552 -0.6183
  516MOL0     C71072   0.313   4.652   9.129 -1.3031  0.5702  1.3651
  516MOL0     O71073   0.275   4.524   9.118  0.2714  0.3710  0.8359
  516MOL0     C71074   0.365   4.439   9.041  0.3315 -0.2225  0.2662
  516MOL0     C71075   0.308   4.338   8.962 -0.4993  0.3302  0.2663
  516MOL0     C71076   0.395   4.250   8.900 -0.1052 -0.7262 -0.4430
  516MOL0     C71077   0.527   4.269   8.888  0.7765 -1.1191 -1.2066
  516MOL0     O71078   0.602   4.185   8.811  0.0531  0.0060  0.2453
  516MOL0     C71079   0.574   4.158   8.672 -0.2779  0.9231  0.3156
  516MOL0     C71080   0.640   4.256   8.584  0.6433  0.0705  0.0762
  516MOL0     C71081   0.790   4.274   8.638 -0.5569 -0.3208 -0.1485
  516MOL0     C71082   0.871   4.359   8.542 -0.1654  1.0196 -0.1799
  516MOL0     C71083   1.010   4.400   8.585  1.2700 -0.4381 -0.8239
  516MOL0     C71084   1.102   4.287   8.626 -0.3075  0.5486 -0.1069
  516MOL0     C71085   1.111   4.173   8.519  0.3381 -0.5932 -0.0619
  516MOL0     C71086   1.222   4.086   8.538  0.0557  0.2525  0.5366
  516MOL0     N71087   1.347   4.147   8.536 -0.6869  0.7159  0.5086
  516MOL0     C71088   1.393   4.229   8.440  0.4690 -0.0957 -0.4584
  516MOL0     C71089   1.488   4.307   8.498  0.2164 -0.2148 -0.1769
  516MOL0     C71090   1.582   4.405   8.435  0.2635  0.2768 -0.1951
  516MOL0     C71091   1.654   4.352   8.309  0.1746  0.8322 -0.2168
  516MOL0     C71092   1.698   4.473   8.211  0.3109  0.3292 -0.1825
  516MOL0     C71093   1.800   4.583   8.277  0.5435 -0.3419  0.7754
  516MOL0     O71094   1.931   4.520   8.302  0.6392 -0.1319 -0.7144
  516MOL0     C71095   2.022   4.596   8.370  0.2006 -0.5225  0.6455
  516MOL0     C71096   2.001   4.715   8.442 -0.3574 -0.3911 -0.6662
  516MOL0     C71097   2.103   4.780   8.514 -0.2159  0.2255  0.9590
  516MOL0     C71098   2.060   4.911   8.569 -0.2459 -1.0737 -0.7793
  516MOL0     C71099   2.234   4.726   8.509 -0.3255  0.5460 -0.1455
  516MOL0     C71100   2.352   4.793   8.577  0.9808 -0.0313 -0.1059
  516MOL0     O71101   2.337   4.894   8.663 -0.1162  0.5839  0.1472
  516MOL0     C71102   2.443   4.953   8.717  0.4374  0.2319  0.1601
  516MOL0     C71103   2.545   4.995   8.635 -0.5875  0.4282  0.1708
  516MOL0     C71104   2.657   5.067   8.683 -1.0331 -0.1644 -0.4182
  516MOL0     C71105   2.667   5.098   8.822 -0.1447  0.5996  0.1299
  516MOL0     O71106   2.774   5.167   8.881  1.0125  0.2580 -0.1909
  516MOL0     C71107   2.879   5.237   8.806  0.6152  0.0794  0.4181
  516MOL0     C71108   2.967   5.315   8.899  0.4277 -0.9479 -0.0731
  516MOL0     C71109   2.888   5.396   8.999  0.6914 -0.7275 -0.4670
  516MOL0     C71110   2.982   5.465   9.094 -0.1247 -1.0782 -0.4168
  516MOL0     C71111   2.905   5.567   9.180  0.0521 -0.1244 -0.3600
  516MOL0     C71112   2.999   5.664   9.259 -0.4242  0.5668 -0.3925
  516MOL0     C71113   2.925   5.781   9.332  0.2450  0.4943 -0.0643
  516MOL0     C71114   2.877   5.757   9.477  0.8157 -0.1786  0.5825
  516MOL0    Cl71115   2.962   5.624   9.566  0.1757  0.5941 -0.0054
  516MOL0     C71116   2.560   5.053   8.908  0.0869  0.3091 -0.1770
  516MOL0     C71117   2.447   4.986   8.853 -0.4307 -0.4483 -0.8181
  516MOL0     O71118   2.454   4.730   8.550  0.0265 -0.6007 -0.4541
  516MOL0     C71119   2.249   4.607   8.435 -0.7990  0.5949  0.3645
  516MOL0     C71120   2.151   4.546   8.362  0.4296 -1.0436  0.0166
  516MOL0     N71121   1.506   4.260   8.626  0.0822 -0.3378 -0.0075
  516MOL0     N71122   1.425   4.167   8.653  0.7587 -0.6057  0.1739
  516MOL0     C71123   0.590   4.363   8.969  0.2775 -0.4168  0.9296
  516MOL0     C71124   0.508   4.443   9.059  0.5138 -0.4425  0.8529
  516MOL0     C71125   0.234   4.724   9.227 -0.4398  0.2298 -0.2070
  516MOL0     C71126   0.184   4.847   9.185 -0.0638  0.7864 -1.3239
  516MOL0     C71127   0.102   4.927   9.263  0.5375 -0.7716 -0.6436
  516MOL0     C71128   0.057   4.875   9.388  0.3604 -0.1323  0.0846
  516MOL0     O71129  -0.029   4.946   9.470 -1.0076  0.6808  0.1602
  516MOL0     C71130  -0.027   5.093   9.459  0.2867  0.9468  0.2251
  516MOL0     C71131   0.112   5.158   9.475  0.5526  0.2547  0.6495
  516MOL0     C71132   0.122   5.313   9.483 -0.7172  0.5731  0.4416
  516MOL0     C71133   0.065   5.393   9.367  0.1077 -0.5027  0.0971
  516MOL0     C71134   0.130   5.519   9.340 -0.0117 -0.1790 -0.3245
  516MOL0     C71135   0.188   5.623   9.311  0.4064 -0.3875 -0.6194
  516MOL0     C71136   0.120   4.754   9.438  0.0251  0.0401  0.4588
  516MOL0     C71137   0.201   4.684   9.355  0.0830 -0.4527 -0.3529
  516MOL0     C71138   0.271   4.564   9.421  0.7871 -0.2768  0.8596
  516MOL0     H71139   0.201   4.338   8.944 -0.1380  1.7521 -2.3168
  516MOL0     H71140   0.356   4.159   8.855 -0.0889 -0.7585 -0.3919
  516MOL0     H71141   0.467   4.149   8.652 -0.5484 -0.1186  2.0692
  516MOL0     H71142   0.621   4.062   8.646  0.1284  1.8617 -2.8003
  516MOL0     H71143   0.643   4.228   8.478 -1.0166 -3.7557  0.8919
  516MOL0     H71144   0.600   4.357   8.600  0.7328  0.1682 -0.2887
  516MOL0     H71145   0.800   4.327   8.734  1.4319 -0.8723  0.0067
  516MOL0     H71146   0.838   4.177   8.652  1.8913  0.4513 -2.3986
  516MOL0     H71147   0.882   4.308   8.446  2.6266  2.3712 -0.6887
  516MOL0     H71148   0.811   4.446   8.515 -2.6079 -0.3672  0.5543
  516MOL0     H71149   1.009   4.473   8.666  3.1427 -0.7886 -0.4421
  516MOL0     H71150   1.062   4.448   8.502  0.7894 -1.8088 -1.9730
  516MOL0     H71151   1.201   4.330   8.645  0.0499 -0.8503  1.4630
  516MOL0     H71152   1.063   4.253   8.723  1.6226 -0.4783  0.3662
  516MOL0     H71153   1.128   4.225   8.424  0.5718 -4.0079 -2.0641
  516MOL0     H71154   1.019   4.114   8.518 -0.1773  0.1039  1.8685
  516MOL0     H71155   1.208   4.030   8.631  3.9121  4.1769  3.9480
  516MOL0     H71156   1.224   4.016   8.454  2.4881  1.3738 -0.4687
  516MOL0     H71157   1.352   4.228   8.340 -4.0775  1.0967  1.1271
  516MOL0     H71158   1.654   4.434   8.513 -0.3285 -1.7660  1.1847
  516MOL0     H71159   1.514   4.485   8.405 -2.2419 -1.3309  0.8581
  516MOL0     H71160   1.732   4.278   8.329 -2.0211 -1.9067 -1.1190
  516MOL0     H71161   1.584   4.302   8.242 -0.0046  1.4988 -0.5367
  516MOL0     H71162   1.746   4.438   8.119  0.9284  2.0241 -0.5496
  516MOL0     H71163   1.609   4.527   8.177  1.1784  2.3178  0.5641
  516MOL0     H71164   1.809   4.659   8.200 -2.6276  0.8879  1.4688
  516MOL0     H71165   1.751   4.632   8.362  0.1138  1.0344 -0.2332
  516MOL0     H71166   1.908   4.769   8.436  1.7255  4.1441  2.2569
  516MOL0     H71167   2.108   4.911   8.667  0.0521  0.2895 -0.9037
  516MOL0     H71168   1.951   4.914   8.575 -0.1466  0.8624  0.7345
  516MOL0     H71169   2.105   4.994   8.514  2.4506 -1.2668  0.9621
  516MOL0     H71170   2.540   4.979   8.528  0.8472  3.2714 -0.4320
  516MOL0     H71171   2.720   5.106   8.603 -1.4249  0.1668 -0.5670
  516MOL0     H71172   2.943   5.170   8.748 -1.8406 -0.6006 -1.6696
  516MOL0     H71173   2.830   5.304   8.734 -1.3874  0.2204  1.8398
  516MOL0     H71174   3.035   5.247   8.950  1.4609 -0.5579 -0.8815
  516MOL0     H71175   3.031   5.388   8.847  0.1409 -0.3075  0.4562
  516MOL0     H71176   2.840   5.328   9.070  1.3214 -1.2457 -0.5268
  516MOL0     H71177   2.812   5.459   8.952 -1.9144 -1.3804  2.5329
  516MOL0     H71178   3.055   5.525   9.039 -0.8214  2.4451  2.1301
  516MOL0     H71179   3.032   5.384   9.147  1.5522  0.5023  0.5629
  516MOL0     H71180   2.840   5.633   9.122 -0.3085 -1.3851 -1.4510
  516MOL0     H71181   2.837   5.519   9.250 -2.0259  1.4058 -1.2333
  516MOL0     H71182   3.071   5.702   9.186 -0.9135  1.6619 -0.3220
  516MOL0     H71183   3.070   5.618   9.328 -1.4307  2.2195  1.8687
  516MOL0     H71184   2.843   5.821   9.272 -0.2903 -1.3047 -0.5833
  516MOL0     H71185   3.000   5.861   9.326 -1.3202  1.9870 -0.4392
  516MOL0     H71186   2.774   5.722   9.463  0.3056  1.3000  0.4154
  516MOL0     H71187   2.871   5.851   9.533 -1.0144  1.2028 -1.7438
  516MOL0     H71188   2.570   5.062   9.016  0.4670 -0.1369 -0.1706
  516MOL0     H71189   2.385   4.953   8.935  0.4660  0.6504  0.3386
  516MOL0     H71190   2.345   4.557   8.431  1.5189  4.5424  1.3552
  516MOL0     H71191   2.173   4.458   8.303 -4.3921 -1.5564 -1.4018
  516MOL0     H71192   0.698   4.366   8.968  0.2723  2.0956  1.0499
  516MOL0     H71193   0.542   4.513   9.136 -1.6939 -0.2752  1.7624
  516MOL0     H71194   0.232   4.879   9.093  1.7347 -2.3286 -1.6221
  516MOL0     H71195   0.064   5.022   9.229 -1.4338 -0.4057  2.2786
  516MOL0     H71196  -0.070   5.118   9.361 -2.3144 -1.1221  0.7199
  516MOL0     H71197  -0.087   5.142   9.536  2.9277  1.7119  1.9203
  516MOL0     H71198   0.184   5.123   9.401  1.2791 -0.0976  1.4932
  516MOL0     H71199   0.141   5.127   9.576 -0.7232  1.0063  1.2793
  516MOL0     H71200   0.089   5.363   9.574  0.5221 -0.0185  1.2372
  516MOL0     H71201   0.229   5.332   9.469 -1.2786  3.1832 -1.0791
  516MOL0     H71202  -0.042   5.406   9.382  0.3592 -1.4166  3.5513
  516MOL0     H71203   0.076   5.339   9.272  0.4686  0.5865 -0.4928
  516MOL0     H71204   0.230   5.718   9.283 -1.4699  0.3235 -1.1805
  516MOL0     H71205   0.102   4.710   9.536  3.2818  0.3675  1.3305
  516MOL0     H71206   0.346   4.537   9.346 -0.0415  1.5927 -0.7475
  516MOL0     H71207   0.318   4.598   9.514  0.8193 -1.2965  1.2284
  516MOL0     H71208   0.207   4.478   9.446 -0.5673  0.4107 -0.0963
  517MOL0     O71209   6.653   2.450   2.074  0.0860  0.1933  0.6029
  517MOL0     C71210   6.587   2.534   2.133  0.0357  0.7228  0.2087
  517MOL0     O71211   6.464   2.499   2.199 -0.5577  0.8834 -0.8155
  517MOL0     C71212   6.435   2.369   2.217  1.1869 -0.9109  0.1379
  517MOL0     C71213   6.510   2.300   2.314 -0.6930 -0.9717  0.3919
  517MOL0     C71214   6.463   2.175   2.342  0.2800  0.3036  0.3555
  517MOL0     C71215   6.352   2.107   2.276 -0.1689  0.6252 -0.1791
  517MOL0     O71216   6.312   1.985   2.334 -0.0647  0.3597 -0.3054
  517MOL0     C71217   6.308   1.869   2.251 -0.2212  0.3550 -0.9979
  517MOL0     C71218   6.450   1.798   2.241 -0.1088 -1.3112 -0.7309
  517MOL0     C71219   6.447   1.671   2.173 -0.2387  0.5813 -0.0382
  517MOL0     C71220   6.549   1.564   2.231  0.0661 -1.0216 -0.2492
  517MOL0     C71221   6.555   1.448   2.135  0.3497  0.0782  0.3504
  517MOL0     C71222   6.628   1.488   2.011 -1.5697 -0.3662 -0.7762
  517MOL0     C71223   6.692   1.365   1.935 -1.0498  0.1041  0.9039
  517MOL0     C71224   6.706   1.388   1.786 -0.3601 -0.2231  0.5374
  517MOL0     N71225   6.824   1.473   1.762  0.1856 -0.6204  0.7442
  517MOL0     C71226   6.820   1.577   1.667 -0.6143  0.6103 -0.8408
  517MOL0     C71227   6.948   1.615   1.642  0.6802 -0.1365 -0.3516
  517MOL0     C71228   7.006   1.706   1.536  0.2506 -0.6883 -0.0991
  517MOL0     C71229   6.970   1.856   1.533 -0.3012  1.1855 -0.3075
  517MOL0     C71230   6.982   1.915   1.677  0.1004 -0.4050 -0.0786
  517MOL0     C71231   6.971   2.073   1.683  0.2262 -0.7246 -0.8354
  517MOL0     O71232   6.833   2.107   1.649 -0.2098 -0.8026 -0.6167
  517MOL0     C71233   6.806   2.240   1.635  0.2181  0.5698  0.7317
  517MOL0     C71234   6.888   2.346   1.674 -0.3811 -0.4636 -0.1484
  517MOL0     C71235   6.841   2.482   1.658  0.2926  0.3761  0.5391
  517MOL0     C71236   6.934   2.592   1.707  1.2204 -0.0344  0.2926
  517MOL0     C71237   6.713   2.505   1.599  0.2865 -0.6104  0.2266
  517MOL0     C71238   6.656   2.643   1.572 -0.5749 -0.0730  0.0958
  517MOL0     O71239   6.749   2.731   1.538 -0.4309  0.1356  0.3382
  517MOL0     C71240   6.716   2.848   1.482  0.4262  0.0200  0.2872
  517MOL0     C71241   6.714   2.970   1.557  0.3275 -0.4325 -0.3319
  517MOL0     C71242   6.692   3.087   1.491  0.9702  0.7894 -0.1006
  517MOL0     C71243   6.668   3.097   1.358 -0.7886 -0.2844  0.2776
  517MOL0     O71244   6.643   3.224   1.304  0.3776  0.4992 -0.4179
  517MOL0     C71245   6.695   3.237   1.165 -0.1539 -0.0138 -0.8362
  517MOL0     C71246   6.697   3.384   1.133  0.0520  0.6143  1.1698
  517MOL0     C71247   6.802   3.427   1.026 -0.0087  0.3670  0.5419
  517MOL0     C71248   6.954   3.418   1.065  0.2107 -0.6385  0.1376
  517MOL0     C71249   7.046   3.451   0.946 -0.5172 -0.2248 -0.1612
  517MOL0     C71250   7.068   3.602   0.939  1.0377 -0.1510 -0.1685
  517MOL0     C71251   7.139   3.633   0.808  1.5508 -1.1475 -0.5268
  517MOL0     C71252   7.193   3.779   0.818 -0.0341  1.4020  0.2420
  517MOL0    Cl71253   7.188   3.835   0.650 -0.1877  0.5056  0.5049
  517MOL0     C71254   6.679   2.983   1.278  0.3049  0.0879 -1.2391
  517MOL0     C71255   6.713   2.859   1.340  0.4033 -0.9190  0.2200
  517MOL0     O71256   6.536   2.659   1.562 -0.0955  0.4891  0.0753
  517MOL0     C71257   6.635   2.396   1.573  0.2237  0.1965 -0.1090
  517MOL0     C71258   6.681   2.269   1.596  0.6588  0.2160  0.4431
  517MOL0     N71259   7.025   1.546   1.728 -0.2785 -0.2383 -0.0497
  517MOL0     N71260   6.954   1.463   1.793 -0.1569 -0.0857 -1.1842
  517MOL0     C71261   6.281   2.176   2.185  0.1099 -0.5471  0.1911
  517MOL0     C71262   6.323   2.305   2.156  0.6111 -0.0265 -0.1560
  517MOL0     C71263   6.636   2.667   2.142 -0.5107 -0.1631  0.7560
  517MOL0     C71264   6.632   2.741   2.256 -0.2097  0.4255 -0.4773
  517MOL0     C71265   6.686   2.871   2.277  0.7466  0.0745 -0.1784
  517MOL0     C71266   6.753   2.922   2.165 -0.1262 -0.3760 -0.2438
  517MOL0     O71267   6.810   3.044   2.179  0.2219  0.6226  0.0700
  517MOL0     C71268   6.839   3.128   2.068 -0.8154 -0.2249 -0.4016
  517MOL0     C71269   6.887   3.262   2.121 -0.0105 -0.4929 -0.0279
  517MOL0     C71270   6.984   3.334   2.020  0.9026  0.4540 -0.4660
  517MOL0     C71271   7.042   3.468   2.052 -0.2607 -0.9581  0.2178
  517MOL0     C71272   7.096   3.463   2.180  0.3472 -0.2065  0.3610
  517MOL0     C71273   7.136   3.466   2.296 -0.0061 -0.0202  1.4439
  517MOL0     C71274   6.744   2.855   2.041 -0.2805  0.7070 -0.1166
  517MOL0     C71275   6.677   2.730   2.020  0.3342 -0.0986  0.2213
  517MOL0     C71276   6.646   2.684   1.880 -0.0328 -1.0184  0.3298
  517MOL0     H71277   6.599   2.340   2.362 -0.4240 -0.7472 -0.2801
  517MOL0     H71278   6.531   2.121   2.407 -2.0270 -1.6002  1.3023
  517MOL0     H71279   6.287   1.894   2.146 -0.6601  1.1166 -0.7419
  517MOL0     H71280   6.239   1.794   2.289  0.3632 -0.0517 -0.7368
  517MOL0     H71281   6.529   1.866   2.207 -0.2004 -1.2076 -0.7398
  517MOL0     H71282   6.464   1.777   2.348  0.0436  0.2282 -0.4218
  517MOL0     H71283   6.347   1.629   2.190  0.0389  0.0104  0.2319
  517MOL0     H71284   6.472   1.676   2.067  0.7677 -0.8848  0.0934
  517MOL0     H71285   6.648   1.612   2.234 -0.6587  0.5026  1.0547
  517MOL0     H71286   6.523   1.538   2.334  0.9861  0.2503  0.3363
  517MOL0     H71287   6.459   1.404   2.108 -0.9541  1.8809  1.7643
  517MOL0     H71288   6.622   1.378   2.186  2.3449  0.5322 -1.4919
  517MOL0     H71289   6.568   1.540   1.935  1.2325  0.5374 -2.5229
  517MOL0     H71290   6.714   1.549   2.041 -1.0784 -1.9522  1.1719
  517MOL0     H71291   6.634   1.275   1.958  0.2444 -1.0423 -0.1442
  517MOL0     H71292   6.788   1.340   1.982 -1.5066 -1.8377  0.8601
  517MOL0     H71293   6.722   1.288   1.746 -3.8538 -0.1903 -1.3126
  517MOL0     H71294   6.617   1.435   1.743 -1.0774  0.4360  2.6013
  517MOL0     H71295   6.735   1.616   1.612 -2.7747 -1.7705  0.5857
  517MOL0     H71296   6.979   1.659   1.441  5.4050  0.9808 -2.8123
  517MOL0     H71297   7.113   1.697   1.556 -0.5108 -0.8401  5.5170
  517MOL0     H71298   7.034   1.903   1.458 -0.0819  1.9016  0.3170
  517MOL0     H71299   6.870   1.855   1.488 -1.1798 -1.9956  1.3664
  517MOL0     H71300   6.910   1.864   1.741  0.3215 -0.0033  0.5014
  517MOL0     H71301   7.086   1.894   1.705 -0.1161 -1.3620  0.0303
  517MOL0     H71302   6.988   2.101   1.787 -1.3370  0.8997 -0.9469
  517MOL0     H71303   7.051   2.122   1.626  0.2690  1.7810  1.2022
  517MOL0     H71304   6.976   2.322   1.733 -2.1937  1.1718  3.5586
  517MOL0     H71305   7.018   2.546   1.759  1.2782 -1.5071 -1.0283
  517MOL0     H71306   6.885   2.668   1.770  1.9252 -0.1526  0.9892
  517MOL0     H71307   6.964   2.650   1.619  2.3082 -0.2765  0.4993
  517MOL0     H71308   6.723   2.966   1.665  0.0289  0.2093 -0.2756
  517MOL0     H71309   6.679   3.185   1.536 -3.5918  0.5352 -0.4419
  517MOL0     H71310   6.800   3.206   1.165 -0.2590 -0.8083  2.8610
  517MOL0     H71311   6.637   3.180   1.092  1.5221 -1.9827 -0.7470
  517MOL0     H71312   6.600   3.403   1.086  1.2130 -1.1328 -2.3240
  517MOL0     H71313   6.709   3.453   1.216 -3.4014  1.6634  0.9109
  517MOL0     H71314   6.769   3.525   0.991  2.7056  0.7313 -1.3198
  517MOL0     H71315   6.788   3.359   0.941  1.1264  1.1268 -0.2789
  517MOL0     H71316   6.988   3.326   1.114  4.0913 -1.1816 -3.0428
  517MOL0     H71317   6.969   3.507   1.127  1.7660  1.3468 -2.8609
  517MOL0     H71318   7.145   3.406   0.960 -0.6307 -0.4747 -0.1669
  517MOL0     H71319   7.008   3.408   0.853  0.0749  1.4465 -1.2143
  517MOL0     H71320   7.127   3.638   1.024 -1.9943  2.7768  0.9093
  517MOL0     H71321   6.969   3.648   0.937 -0.0787 -2.3798  0.2928
  517MOL0     H71322   7.072   3.631   0.721 -1.7781  3.3469  1.5333
  517MOL0     H71323   7.224   3.568   0.788 -1.2731 -4.9298 -1.3266
  517MOL0     H71324   7.294   3.773   0.858 -0.6713 -0.4691  1.7008
  517MOL0     H71325   7.129   3.846   0.877 -1.0332 -0.6107  1.5546
  517MOL0     H71326   6.661   2.977   1.171 -0.2733 -4.7539 -1.1046
  517MOL0     H71327   6.743   2.776   1.277  1.2331 -0.2755 -0.2545
  517MOL0     H71328   6.529   2.400   1.548  0.3922  0.0753 -0.8810
  517MOL0     H71329   6.609   2.190   1.580 -0.4504  1.1870  0.5243
  517MOL0     H71330   6.193   2.129   2.142 -0.2397  1.6291 -1.6864
  517MOL0     H71331   6.270   2.359   2.077 -1.0284 -2.0738 -0.5530
  517MOL0     H71332   6.590   2.693   2.343 -0.6811  2.4424  0.4716
  517MOL0     H71333   6.671   2.913   2.376 -0.8654  1.4992 -0.9771
  517MOL0     H71334   6.913   3.080   2.003 -1.0540 -0.1531 -0.7276
  517MOL0     H71335   6.742   3.136   2.019 -1.6475  2.8911  1.4570
  517MOL0     H71336   6.947   3.243   2.210  0.8370 -1.8212 -0.8468
  517MOL0     H71337   6.805   3.332   2.141 -2.2842 -3.4304  1.7892
  517MOL0     H71338   7.057   3.264   1.977  2.3351  0.3978  1.9210
  517MOL0     H71339   6.914   3.350   1.936 -1.3740 -3.5454  0.4091
  517MOL0     H71340   6.962   3.542   2.040  0.7423  0.8194  3.3845
  517MOL0     H71341   7.120   3.491   1.980 -1.9146  1.9969 -0.7790
  517MOL0     H71342   7.187   3.464   2.390  2.7781 -2.6956  0.0788
  517MOL0     H71343   6.791   2.908   1.958 -0.0752  1.6993  0.6080
  517MOL0     H71344   6.689   2.589   1.848  1.9512 -0.1478  0.2773
  517MOL0     H71345   6.537   2.690   1.884 -0.2876 -4.0847 -0.1144
  517MOL0     H71346   6.681   2.759   1.808 -0.8045 -0.4752  0.4983
  518MOL0     O71347   4.222   5.330  10.536  0.5055  0.5385 -0.5116
  518MOL0     C71348   4.187   5.375  10.429  0.2399 -0.0144  0.1049
  518MOL0     O71349   4.058   5.422  10.405 -0.9749 -0.1455 -0.4977
  518MOL0     C71350   3.961   5.378  10.487  0.9706  0.0238  0.5030
  518MOL0     C71351   3.900   5.253  10.453  0.1940 -0.5274  0.1784
  518MOL0     C71352   3.781   5.212  10.529 -1.0973  0.0576 -1.0897
  518MOL0     C71353   3.739   5.293  10.625 -0.6878 -0.5426 -0.7586
  518MOL0     O71354   3.663   5.244  10.723  0.6005  0.3809  0.3363
  518MOL0     C71355   3.674   5.113  10.779  0.3587  0.7629 -0.6021
  518MOL0     C71356   3.739   5.134  10.913 -0.3116  0.0998 -0.0996
  518MOL0     C71357   3.659   5.198  11.019 -0.0290 -0.2256 -1.2075
  518MOL0     C71358   3.544   5.119  11.074 -0.1182 -0.5192  1.2047
  518MOL0     C71359   3.488   5.159  11.213 -0.4400  0.0880 -0.5860
  518MOL0     C71360   3.363   5.071  11.229 -0.4470 -0.4589  0.2785
  518MOL0     C71361   3.286   5.109  11.344  0.1494  0.5759 -1.2306
  518MOL0     C71362   3.174   5.014  11.367  0.2815  0.4137  0.3683
  518MOL0     N71363   3.091   5.018  11.496  0.1453  0.6805  0.6515
  518MOL0     C71364   2.973   4.960  11.509 -0.4663  0.8238  0.2071
  518MOL0     C71365   2.923   5.009  11.623 -0.8366  0.0711 -0.4450
  518MOL0     C71366   2.789   4.977  11.677 -0.1535  0.0779 -0.5413
  518MOL0     C71367   2.707   5.108  11.689 -0.5534  0.9045  0.1178
  518MOL0     C71368   2.564   5.056  11.698 -0.1998 -0.9405  0.1918
  518MOL0     C71369   2.472   5.172  11.735 -0.0400 -0.6448 -0.0391
  518MOL0     O71370   2.500   5.292  11.658  0.0465  0.2020 -0.1141
  518MOL0     C71371   2.440   5.413  11.694  0.1900 -0.0376 -0.0483
  518MOL0     C71372   2.477   5.514  11.618 -0.0777 -0.1255  0.3093
  518MOL0     C71373   2.445   5.648  11.661  0.8962 -0.6532 -1.2151
  518MOL0     C71374   2.480   5.758  11.567 -0.2378  0.6118 -0.4935
  518MOL0     C71375   2.381   5.672  11.786 -0.1442 -0.1587 -0.4353
  518MOL0     C71376   2.364   5.810  11.857 -0.2546  0.3928  0.2541
  518MOL0     O71377   2.281   5.816  11.970 -0.0383 -0.6152 -0.2726
  518MOL0     C71378   2.259   5.941  12.033  0.4215  0.2065 -0.9115
  518MOL0     C71379   2.151   6.008  11.974  0.0290 -0.5777 -0.4041
  518MOL0     C71380   2.118   6.136  12.010  0.6294  0.3835 -0.4067
  518MOL0     C71381   2.181   6.201  12.116 -0.4906 -0.9614  0.0538
  518MOL0     O71382   2.144   6.327  12.155 -0.0670 -0.1007  0.0277
  518MOL0     C71383   2.234   6.424  12.204 -0.7310 -0.2801  0.2885
  518MOL0     C71384   2.188   6.560  12.189  0.2402 -1.1198  0.7402
  518MOL0     C71385   2.070   6.589  12.284 -0.1695 -0.0093  0.3101
  518MOL0     C71386   2.051   6.745  12.273  0.3635 -0.1388 -1.1841
  518MOL0     C71387   1.932   6.798  12.354  0.8247 -0.4726 -0.1484
  518MOL0     C71388   1.948   6.786  12.514  0.0376 -0.1142 -0.4205
  518MOL0     C71389   1.804   6.780  12.572 -0.5450 -0.3463 -0.0285
  518MOL0     C71390   1.809   6.793  12.721 -0.7450  0.2816 -0.8535
  518MOL0    Cl71391   1.863   6.626  12.770  0.4547 -0.2582 -0.1539
  518MOL0     C71392   2.293   6.132  12.172  0.2343  0.0255  0.3519
  518MOL0     C71393   2.330   5.998  12.124  0.0983 -0.0545 -0.6796
  518MOL0     O71394   2.438   5.901  11.816  0.4155 -0.3625 -0.3712
  518MOL0     C71395   2.327   5.564  11.852 -0.5958  0.3109  0.5887
  518MOL0     C71396   2.364   5.433  11.808 -0.1015  0.1767  0.1047
  518MOL0     N71397   3.023   5.079  11.691 -0.4602 -0.6942  0.1988
  518MOL0     N71398   3.124   5.082  11.608 -0.0625 -0.6011 -0.6065
  518MOL0     C71399   3.811   5.413  10.660  0.1871  0.2397 -0.1796
  518MOL0     C71400   3.920   5.452  10.586  0.3170 -0.3311 -1.2475
  518MOL0     C71401   4.295   5.398  10.336  0.2760  0.1499 -1.2707
  518MOL0     C71402   4.283   5.496  10.243  0.8050 -0.2267 -0.8121
  518MOL0     C71403   4.368   5.508  10.139 -0.6106 -0.7656 -1.2783
  518MOL0     C71404   4.479   5.433  10.121  0.0269  1.3806 -0.6383
  518MOL0     O71405   4.563   5.467  10.012  0.7038  0.7267  0.4828
  518MOL0     C71406   4.600   5.358   9.926 -0.7834 -0.2389 -0.1889
  518MOL0     C71407   4.481   5.312   9.849 -0.5417  0.0741  0.3658
  518MOL0     C71408   4.490   5.156   9.817  0.2500  0.6320  0.6068
  518MOL0     C71409   4.367   5.116   9.735  0.2070 -0.5099  0.5926
  518MOL0     C71410   4.365   4.967   9.718 -1.0768 -0.6544 -0.8887
  518MOL0     C71411   4.381   4.847   9.683  0.5115  0.0562 -0.4608
  518MOL0     C71412   4.501   5.332  10.221 -0.0790  0.1266 -0.7518
  518MOL0     C71413   4.412   5.311  10.328  0.0986 -0.5466 -0.0743
  518MOL0     C71414   4.433   5.186  10.416  0.5007  0.0713 -0.5659
  518MOL0     H71415   3.946   5.198  10.372  1.4260 -1.4457  1.4590
  518MOL0     H71416   3.723   5.121  10.516 -0.8484 -0.9591  3.4457
  518MOL0     H71417   3.745   5.051  10.724  1.4191  0.0324  1.4832
  518MOL0     H71418   3.578   5.061  10.788  0.6439  0.4600  1.0577
  518MOL0     H71419   3.774   5.036  10.949  0.8822  0.6890  0.4178
  518MOL0     H71420   3.832   5.189  10.897 -1.2727  2.3807  1.6998
  518MOL0     H71421   3.721   5.210  11.108  0.0890  0.7077 -1.4004
  518MOL0     H71422   3.633   5.298  10.983 -1.8706 -0.6801 -1.2651
  518MOL0     H71423   3.467   5.119  10.997  2.1960  0.9195 -1.2617
  518MOL0     H71424   3.575   5.015  11.088  1.2304  0.0742  3.1110
  518MOL0     H71425   3.449   5.261  11.213 -1.8388 -0.4099 -1.4943
  518MOL0     H71426   3.558   5.144  11.295  3.4588 -4.1203 -4.0960
  518MOL0     H71427   3.298   5.092  11.143 -0.4728  2.0224  0.8435
  518MOL0     H71428   3.405   4.970  11.225  3.1767  0.8367  1.9827
  518MOL0     H71429   3.242   5.206  11.322 -4.1345 -1.4471 -2.6264
  518MOL0     H71430   3.349   5.115  11.434  1.3898 -0.4407 -1.9844
  518MOL0     H71431   3.098   5.013  11.288  1.2102  0.6131 -0.5475
  518MOL0     H71432   3.222   4.916  11.360 -0.4105  0.1591 -1.3861
  518MOL0     H71433   2.917   4.905  11.434  0.6661  1.4868 -1.2048
  518MOL0     H71434   2.800   4.913  11.765  0.0562 -0.8421 -1.2192
  518MOL0     H71435   2.744   4.910  11.603 -0.1337  0.0787 -0.5539
  518MOL0     H71436   2.750   5.179  11.761  2.6232 -1.3206  0.6046
  518MOL0     H71437   2.717   5.151  11.589 -1.9052  0.3589 -0.2602
  518MOL0     H71438   2.539   5.017  11.599  2.4898  1.8728 -1.7935
  518MOL0     H71439   2.580   4.986  11.780  1.7388  0.6642  1.2472
  518MOL0     H71440   2.374   5.135  11.702 -0.5833  1.7090 -1.2945
  518MOL0     H71441   2.477   5.199  11.840  2.3359  0.0165 -0.2801
  518MOL0     H71442   2.517   5.507  11.517  0.2663 -3.6931  0.5851
  518MOL0     H71443   2.560   5.809  11.621  0.1119 -0.6858  0.2328
  518MOL0     H71444   2.404   5.834  11.545 -0.9840 -0.3104 -1.1888
  518MOL0     H71445   2.530   5.721  11.477  0.7802  2.3364 -0.6719
  518MOL0     H71446   2.101   5.960  11.890 -0.7343  1.0522 -0.9339
  518MOL0     H71447   2.043   6.194  11.956 -0.0249 -1.5536 -1.6676
  518MOL0     H71448   2.260   6.399  12.308 -0.1644 -0.2539  0.1564
  518MOL0     H71449   2.327   6.414  12.148  0.3665  0.5119  1.8650
  518MOL0     H71450   2.276   6.623  12.206 -1.7791  1.3737  2.7017
  518MOL0     H71451   2.156   6.574  12.085 -2.3733 -1.4535  1.4156
  518MOL0     H71452   2.092   6.553  12.385  0.8629 -0.8871 -0.2029
  518MOL0     H71453   1.978   6.538  12.254  0.7390 -0.8163 -1.2627
  518MOL0     H71454   2.048   6.768  12.167  3.3391  0.3162 -1.2295
  518MOL0     H71455   2.141   6.784  12.321 -1.0131  0.9607  0.6748
  518MOL0     H71456   1.927   6.906  12.335  1.6696 -0.0283  1.8614
  518MOL0     H71457   1.840   6.748  12.322 -0.3581  0.7784  1.1742
  518MOL0     H71458   2.002   6.877  12.543 -0.6524  0.8058 -1.8781
  518MOL0     H71459   1.995   6.691  12.541  1.6009  0.9854  0.9020
  518MOL0     H71460   1.740   6.697  12.543 -0.8026 -0.4609  0.8165
  518MOL0     H71461   1.748   6.872  12.550  0.4160  0.4756  0.8199
  518MOL0     H71462   1.704   6.809  12.749 -0.6133 -2.6261  1.9626
  518MOL0     H71463   1.857   6.883  12.760 -0.7611  1.2966 -3.0620
  518MOL0     H71464   2.355   6.178  12.249  1.1971  1.1126 -1.0131
  518MOL0     H71465   2.422   5.959  12.168 -0.4156 -0.3420  0.1599
  518MOL0     H71466   2.270   5.559  11.944 -2.0426 -2.2791 -0.3386
  518MOL0     H71467   2.321   5.347  11.860  0.7544 -1.7108 -2.1238
  518MOL0     H71468   3.762   5.470  10.738 -3.5458 -1.2740 -1.1805
  518MOL0     H71469   3.974   5.541  10.616  2.3155 -2.7305  3.2562
  518MOL0     H71470   4.199   5.565  10.242  0.9495 -0.0444 -0.5220
  518MOL0     H71471   4.341   5.584  10.066  0.3330  1.0975  0.2176
  518MOL0     H71472   4.671   5.406   9.858  0.8396 -1.1324  0.8079
  518MOL0     H71473   4.646   5.283   9.991 -1.9784 -1.4423 -0.6771
  518MOL0     H71474   4.488   5.365   9.754 -2.0017 -1.5953 -0.7240
  518MOL0     H71475   4.388   5.340   9.900 -0.9625  1.2276 -0.9712
  518MOL0     H71476   4.582   5.137   9.760  0.7429 -0.7712  1.8091
  518MOL0     H71477   4.493   5.094   9.907  0.1259 -0.5235 -0.1661
  518MOL0     H71478   4.378   5.168   9.640  0.1411 -2.4447 -0.5217
  518MOL0     H71479   4.274   5.127   9.791 -1.5111 -0.9513 -2.0127
  518MOL0     H71480   4.404   4.750   9.644  3.2480  0.9784 -1.3836
  518MOL0     H71481   4.590   5.271  10.212 -1.5359 -2.3793  0.4933
  518MOL0     H71482   4.356   5.109  10.421  1.2523 -0.7684 -1.6575
  518MOL0     H71483   4.530   5.143  10.389  2.4347  2.6479  1.6216
  518MOL0     H71484   4.458   5.210  10.520 -1.3736 -3.7784  0.9718
  519MOL0     O71485  10.435   0.371   5.586 -0.0669 -0.6108  0.8438
  519MOL0     C71486  10.406   0.260   5.619  0.2234 -0.6646  0.6870
  519MOL0     O71487  10.499   0.157   5.643 -0.2830  0.5118 -0.6126
  519MOL0     C71488  10.630   0.198   5.657 -0.8466 -0.3875  0.3831
  519MOL0     C71489  10.716   0.202   5.551  0.6357 -0.4265  0.3954
  519MOL0     C71490  10.846   0.243   5.556 -0.8269 -0.5832 -0.0169
  519MOL0     C71491  10.898   0.287   5.679 -0.0109  0.7453 -0.3852
  519MOL0     O71492  11.024   0.341   5.682  0.1848  0.4156  0.3282
  519MOL0     C71493  11.054   0.456   5.765  0.3454 -0.0581  1.0509
  519MOL0     C71494  11.154   0.555   5.688  0.9012  0.1599 -0.0882
  519MOL0     C71495  11.188   0.680   5.765 -0.4312  0.5715  0.4872
  519MOL0     C71496  11.266   0.781   5.684 -0.5302  0.8694 -0.6805
  519MOL0     C71497  11.412   0.729   5.659  1.2404 -0.3364  0.4974
  519MOL0     C71498  11.513   0.841   5.666 -0.0043 -0.4756  0.4930
  519MOL0     C71499  11.464   0.937   5.544  0.5564  0.4238 -1.0337
  519MOL0     C71500  11.541   1.063   5.535 -0.8095 -0.3565 -0.0507
  519MOL0     N71501  11.521   1.167   5.636  0.3319  0.5515 -0.4241
  519MOL0     C71502  11.406   1.230   5.662  0.7852  0.3580 -0.1079
  519MOL0     C71503  11.427   1.305   5.775  0.4568  0.6372  0.0142
  519MOL0     C71504  11.314   1.357   5.859  0.2994 -0.5581 -0.2066
  519MOL0     C71505  11.300   1.270   5.986 -0.1266 -0.2560 -0.5282
  519MOL0     C71506  11.170   1.313   6.055 -0.1873  1.1167 -0.9610
  519MOL0     C71507  11.146   1.249   6.191 -1.1540  0.4120 -0.5366
  519MOL0     O71508  11.135   1.110   6.162 -0.6341  0.6687  0.6465
  519MOL0     C71509  11.119   1.018   6.260  0.1979  0.4445 -0.6222
  519MOL0     C71510  11.148   0.885   6.227  0.5277  0.5056  0.0789
  519MOL0     C71511  11.144   0.787   6.328  0.4860 -0.1156 -0.2551
  519MOL0     C71512  11.182   0.645   6.283  0.0982  0.5919 -0.8714
  519MOL0     C71513  11.093   0.821   6.456 -0.2482 -0.5091 -0.5997
  519MOL0     C71514  11.057   0.713   6.561  0.0922 -0.8593  0.5266
  519MOL0     O71515  11.049   0.762   6.691 -0.1533  0.0944  0.0812
  519MOL0     C71516  11.087   0.661   6.783  0.2623 -0.6013  0.7265
  519MOL0     C71517  11.220   0.648   6.834  0.8108  1.0915 -0.4091
  519MOL0     C71518  11.254   0.555   6.933  0.2456  0.4674  0.4819
  519MOL0     C71519  11.158   0.461   6.972 -0.8700  0.0827 -0.2442
  519MOL0     O71520  11.185   0.386   7.087  0.0871 -0.1068 -0.4725
  519MOL0     C71521  11.077   0.312   7.152 -0.0772  0.6851 -0.6923
  519MOL0     C71522  11.110   0.266   7.306 -0.0349 -0.2760 -0.8744
  519MOL0     C71523  11.116   0.398   7.391 -0.3886 -0.4039 -0.6758
  519MOL0     C71524  10.974   0.444   7.424 -0.0630 -1.1772  0.3226
  519MOL0     C71525  10.964   0.569   7.523 -0.0934 -0.0028  0.6048
  519MOL0     C71526  11.008   0.547   7.671  0.1548 -0.2193  0.1697
  519MOL0     C71527  11.045   0.681   7.731  0.6170  0.1241  0.9174
  519MOL0     C71528  11.122   0.667   7.863 -0.0032  0.0980 -0.3021
  519MOL0    Cl71529  11.268   0.575   7.848 -0.1445 -0.3105 -0.2532
  519MOL0     C71530  11.030   0.465   6.912 -0.4186 -0.0937 -0.0058
  519MOL0     C71531  10.992   0.564   6.820 -0.1631 -0.2354  0.8360
  519MOL0     O71532  11.050   0.594   6.531 -0.2571 -0.3987 -0.1827
  519MOL0     C71533  11.055   0.944   6.489 -0.6322 -0.3244  0.0752
  519MOL0     C71534  11.087   1.046   6.398 -0.0022 -0.4372  1.1641
  519MOL0     N71535  11.557   1.296   5.813 -0.6534  0.2955 -1.6184
  519MOL0     N71536  11.605   1.207   5.732  0.5490 -0.6321 -0.0785
  519MOL0     C71537  10.823   0.279   5.798  0.0171  0.0427 -0.3093
  519MOL0     C71538  10.691   0.236   5.780  0.0973 -0.3293 -0.2812
  519MOL0     C71539  10.268   0.221   5.615  0.7937 -0.0056  0.7290
  519MOL0     C71540  10.177   0.336   5.587 -0.6019  0.7859 -0.4096
  519MOL0     C71541  10.042   0.322   5.583  0.3643 -0.4006  0.1098
  519MOL0     C71542   9.990   0.195   5.590  0.3094 -0.5860 -0.5839
  519MOL0     O71543   9.854   0.158   5.584 -0.8340 -0.1311  0.2453
  519MOL0     C71544   9.780   0.175   5.712  0.0211  0.3670  0.3665
  519MOL0     C71545   9.633   0.138   5.691  0.6448 -0.4895  0.6666
  519MOL0     C71546   9.588  -0.011   5.685 -1.0386 -0.1779  0.7740
  519MOL0     C71547   9.685  -0.099   5.603 -0.1159  0.2377  0.3019
  519MOL0     C71548   9.631  -0.234   5.584  0.3109  0.2035  0.4969
  519MOL0     C71549   9.622  -0.350   5.606  0.4225 -0.2862  0.8361
  519MOL0     C71550  10.080   0.085   5.620  0.3398  0.0807  0.4032
  519MOL0     C71551  10.212   0.090   5.632 -0.1503  0.5835 -0.0061
  519MOL0     C71552  10.291  -0.034   5.655 -0.4104  0.8761  0.3269
  519MOL0     H71553  10.677   0.184   5.451  1.5451  1.2153 -0.2961
  519MOL0     H71554  10.898   0.243   5.461 -2.4483 -1.6442 -0.9490
  519MOL0     H71555  11.101   0.422   5.857  1.8206  2.3885  1.2900
  519MOL0     H71556  10.962   0.510   5.788 -1.3362 -1.2675 -2.1572
  519MOL0     H71557  11.239   0.495   5.653  0.5158  0.9166 -2.5116
  519MOL0     H71558  11.102   0.589   5.598 -1.8718  0.9090  1.6730
  519MOL0     H71559  11.099   0.738   5.792  0.7267  2.2190  0.8312
  519MOL0     H71560  11.246   0.653   5.853  1.1462 -1.9521 -1.2086
  519MOL0     H71561  11.217   0.792   5.587  3.2238 -2.2047 -3.2570
  519MOL0     H71562  11.271   0.874   5.740  0.5200  2.0926 -2.7169
  519MOL0     H71563  11.425   0.684   5.560  2.0608  1.2970 -0.1782
  519MOL0     H71564  11.437   0.658   5.738 -1.9904  0.3946  2.3795
  519MOL0     H71565  11.508   0.880   5.768  2.3422  2.1502 -0.2778
  519MOL0     H71566  11.611   0.801   5.639 -0.6097 -1.3991 -0.3782
  519MOL0     H71567  11.363   0.977   5.556  0.0064 -1.5957  1.9762
  519MOL0     H71568  11.471   0.889   5.446  1.0946  1.4640 -1.5235
  519MOL0     H71569  11.646   1.037   5.545 -0.4706  1.5751  2.1573
  519MOL0     H71570  11.535   1.106   5.434  2.1800  0.9256  0.2169
  519MOL0     H71571  11.311   1.219   5.611  1.4781  2.5524 -2.0402
  519MOL0     H71572  11.226   1.388   5.803  1.7732  3.6934 -0.5376
  519MOL0     H71573  11.366   1.448   5.890  2.5642 -3.0790  4.4794
  519MOL0     H71574  11.295   1.164   5.959 -0.5967  0.1475 -2.1790
  519MOL0     H71575  11.389   1.291   6.045 -1.2214 -2.0945  1.9295
  519MOL0     H71576  11.172   1.421   6.070  2.5338  0.9252  0.6589
  519MOL0     H71577  11.087   1.283   5.990 -0.6715  1.0129 -0.3023
  519MOL0     H71578  11.229   1.263   6.261 -1.1440 -2.9975  0.3293
  519MOL0     H71579  11.059   1.292   6.241 -0.0097  1.6892  0.4590
  519MOL0     H71580  11.191   0.863   6.129  1.4795 -0.1694  0.6324
  519MOL0     H71581  11.273   0.615   6.337 -1.4126 -2.7283  0.0623
  519MOL0     H71582  11.202   0.641   6.175  1.6612 -1.1972 -0.5644
  519MOL0     H71583  11.106   0.571   6.307  1.0442 -0.7089 -1.7171
  519MOL0     H71584  11.300   0.716   6.806  2.9993 -2.2889 -3.2371
  519MOL0     H71585  11.355   0.557   6.973 -0.4588  0.5692  2.3938
  519MOL0     H71586  10.978   0.358   7.159 -0.1203  0.3349  2.5973
  519MOL0     H71587  11.070   0.220   7.093 -0.5931  0.0392  0.3508
  519MOL0     H71588  11.031   0.195   7.335  0.3652 -1.2000 -1.9581
  519MOL0     H71589  11.195   0.197   7.305 -0.6082 -0.9985 -1.7580
  519MOL0     H71590  11.178   0.475   7.343 -1.2531  0.4000 -0.5318
  519MOL0     H71591  11.175   0.376   7.480  0.6049  1.8048 -0.7247
  519MOL0     H71592  10.921   0.363   7.475 -3.3909 -0.3701 -1.5369
  519MOL0     H71593  10.917   0.458   7.331 -0.1967  0.1875  0.5870
  519MOL0     H71594  11.034   0.635   7.470  0.5692 -0.0286  1.4288
  519MOL0     H71595  10.863   0.610   7.514 -0.5069 -1.3017 -1.8144
  519MOL0     H71596  11.089   0.473   7.670  0.5327  0.1912  0.1654
  519MOL0     H71597  10.930   0.515   7.741  1.9748 -0.0981  2.3506
  519MOL0     H71598  10.947   0.724   7.753  0.6477  2.1196 -2.2522
  519MOL0     H71599  11.100   0.745   7.662  0.1010  0.8569  1.1769
  519MOL0     H71600  11.067   0.614   7.941  1.3067  1.1249  1.3827
  519MOL0     H71601  11.138   0.763   7.913  1.4679  0.3762 -1.2343
  519MOL0     H71602  10.949   0.395   6.930 -1.6236  1.0498 -0.7717
  519MOL0     H71603  10.892   0.567   6.779 -0.9286  1.7062  2.7039
  519MOL0     H71604  11.010   0.983   6.580 -1.2875  0.5055 -0.5787
  519MOL0     H71605  11.066   1.152   6.411 -2.4814 -0.5590 -1.0093
  519MOL0     H71606  10.853   0.301   5.900 -2.4333  1.9361  0.0994
  519MOL0     H71607  10.625   0.228   5.866  1.7993 -1.1817  1.0063
  519MOL0     H71608  10.218   0.431   5.557  1.2803 -1.1759 -4.9292
  519MOL0     H71609   9.988   0.415   5.572  0.0275 -0.6876 -0.8250
  519MOL0     H71610   9.822   0.111   5.790  1.0905  2.2417  1.4048
  519MOL0     H71611   9.791   0.279   5.742  1.5146  0.1140  0.7819
  519MOL0     H71612   9.593   0.188   5.602  1.9787  0.3573  0.5198
  519MOL0     H71613   9.575   0.192   5.767  0.4349 -0.6089  0.5930
  519MOL0     H71614   9.584  -0.059   5.783  0.5587 -1.2090  0.3723
  519MOL0     H71615   9.495  -0.020   5.628 -0.4636 -1.2322 -0.0491
  519MOL0     H71616   9.780  -0.111   5.656 -0.6533 -2.7688  0.7710
  519MOL0     H71617   9.703  -0.059   5.503 -0.1712 -0.8565 -0.1654
  519MOL0     H71618   9.621  -0.449   5.645  0.8751 -0.2074  1.0580
  519MOL0     H71619  10.036  -0.013   5.636  1.8705 -0.3431  2.4592
  519MOL0     H71620  10.349  -0.060   5.566 -0.7149 -1.3178  0.7141
  519MOL0     H71621  10.353  -0.035   5.746 -0.1450  2.4762  0.1863
  519MOL0     H71622  10.226  -0.120   5.672  1.2578 -0.4047  0.5419
  520MOL0     O71623   8.578   7.326   6.126  0.4246 -1.0231  0.0463
  520MOL0     C71624   8.456   7.342   6.118  1.1939 -0.6252 -0.0378
  520MOL0     O71625   8.369   7.242   6.155  0.4037 -0.9347 -0.5550
  520MOL0     C71626   8.426   7.122   6.194  0.5360 -1.1066 -0.9578
  520MOL0     C71627   8.389   7.003   6.134  1.5317  0.1011  0.8762
  520MOL0     C71628   8.416   6.884   6.195 -1.0785 -0.0419 -0.2640
  520MOL0     C71629   8.491   6.870   6.311 -0.2905  0.0415  0.6586
  520MOL0     O71630   8.509   6.751   6.371 -0.0469  0.5234 -0.7359
  520MOL0     C71631   8.569   6.731   6.502 -0.0287 -1.0236  0.0637
  520MOL0     C71632   8.471   6.755   6.615  0.3629 -0.3677  1.2888
  520MOL0     C71633   8.519   6.688   6.734  0.2054  0.0770 -0.9068
  520MOL0     C71634   8.426   6.691   6.852  0.5671  0.0870  0.2795
  520MOL0     C71635   8.464   6.641   6.992 -0.0040  0.7333 -0.3335
  520MOL0     C71636   8.342   6.610   7.080  0.3707 -0.3598  0.1938
  520MOL0     C71637   8.387   6.517   7.198  0.4428  0.9864  0.7218
  520MOL0     C71638   8.261   6.486   7.290  0.8769  0.2418  0.0349
  520MOL0     N71639   8.165   6.406   7.203 -0.2992 -0.2503 -0.1695
  520MOL0     C71640   8.200   6.286   7.147 -0.1528 -0.2315 -1.4754
  520MOL0     C71641   8.088   6.230   7.100  0.3133  1.2183  0.6455
  520MOL0     C71642   8.080   6.103   7.017  0.1637 -0.0904 -1.2058
  520MOL0     C71643   8.081   6.125   6.861  0.1560  0.6588  0.5027
  520MOL0     C71644   7.996   6.238   6.804 -0.5784 -0.3536 -0.2044
  520MOL0     C71645   8.038   6.391   6.831 -0.4228  0.3551  0.5386
  520MOL0     O71646   7.984   6.469   6.722  0.0501  0.2130 -0.2045
  520MOL0     C71647   8.012   6.606   6.719 -0.5867  0.2358 -0.1999
  520MOL0     C71648   8.055   6.653   6.597  0.8487 -1.0769  0.5216
  520MOL0     C71649   8.092   6.786   6.586  0.0606 -0.8582 -0.1629
  520MOL0     C71650   8.101   6.841   6.445 -0.1437  0.0981  0.1842
  520MOL0     C71651   8.112   6.871   6.701  0.0340  0.1794  0.4795
  520MOL0     C71652   8.159   7.015   6.699  0.0215 -0.3036  0.4427
  520MOL0     O71653   8.088   7.119   6.635 -0.2413  0.0715 -0.3014
  520MOL0     C71654   8.145   7.244   6.621 -0.6232  0.2043  0.5431
  520MOL0     C71655   8.283   7.260   6.583  0.3786 -0.3621 -1.0183
  520MOL0     C71656   8.331   7.384   6.556  0.3870 -0.4758 -0.1580
  520MOL0     C71657   8.252   7.506   6.578  0.3091  0.0946  0.1900
  520MOL0     O71658   8.293   7.637   6.565  0.2314  0.0441  0.2220
  520MOL0     C71659   8.370   7.655   6.451  0.1674 -1.0373 -0.2513
  520MOL0     C71660   8.327   7.778   6.357 -0.0739  0.4158  0.6629
  520MOL0     C71661   8.180   7.767   6.315  0.4391  0.3320  0.5654
  520MOL0     C71662   8.160   7.882   6.211  0.4611  0.1224 -0.8919
  520MOL0     C71663   8.153   8.023   6.272  0.3545  0.8651 -0.8901
  520MOL0     C71664   8.132   8.121   6.163  0.8307 -0.7336  0.7505
  520MOL0     C71665   8.102   8.254   6.224  0.0231  0.1921  0.1978
  520MOL0     C71666   8.077   8.363   6.124  0.4136 -0.1312 -0.6086
  520MOL0    Cl71667   7.966   8.495   6.195  0.1280  0.0718  0.0781
  520MOL0     C71668   8.117   7.486   6.616  0.1269 -0.3579  0.5210
  520MOL0     C71669   8.064   7.361   6.637 -0.1380  1.0946  0.6642
  520MOL0     O71670   8.256   7.028   6.769  0.7226 -0.5312  0.3178
  520MOL0     C71671   8.071   6.822   6.821  0.2678  1.1532  0.0198
  520MOL0     C71672   8.022   6.691   6.827 -0.7118  0.6266 -0.1354
  520MOL0     N71673   7.982   6.305   7.142 -0.3707 -0.6282  0.6262
  520MOL0     N71674   8.031   6.417   7.194 -0.2608  0.1873 -0.0509
  520MOL0     C71675   8.529   6.988   6.367 -0.0539 -0.6053 -0.0591
  520MOL0     C71676   8.496   7.109   6.318  1.1176  0.0581 -0.9357
  520MOL0     C71677   8.406   7.473   6.055  0.3948 -1.2286 -0.6076
  520MOL0     C71678   8.500   7.555   5.981  0.3424  0.2395  0.1852
  520MOL0     C71679   8.458   7.673   5.924  0.9861  0.2915 -0.0590
  520MOL0     C71680   8.329   7.724   5.938  0.3338  0.8812 -0.0375
  520MOL0     O71681   8.278   7.838   5.882  0.0645  0.0100 -0.0271
  520MOL0     C71682   8.299   7.838   5.740 -0.1876 -0.4720  0.2493
  520MOL0     C71683   8.289   7.984   5.686  0.0916 -0.4325  0.2073
  520MOL0     C71684   8.151   8.038   5.721 -0.1324  0.1938 -1.1656
  520MOL0     C71685   8.120   8.162   5.640 -0.1101  0.1378 -0.4107
  520MOL0     C71686   8.199   8.279   5.688  0.7860  0.4864 -1.1172
  520MOL0     C71687   8.266   8.376   5.712  0.3215 -0.7640  0.1050
  520MOL0     C71688   8.241   7.639   6.004 -0.0591 -0.1293 -1.0994
  520MOL0     C71689   8.277   7.517   6.059  0.4003 -1.0875  0.1844
  520MOL0     C71690   8.158   7.438   6.119 -0.3647 -0.8842 -0.0516
  520MOL0     H71691   8.329   7.003   6.043  4.3094  1.3468 -1.1110
  520MOL0     H71692   8.374   6.799   6.143  0.1687  1.0722 -3.2825
  520MOL0     H71693   8.667   6.778   6.514 -0.3839 -0.6685  1.9854
  520MOL0     H71694   8.583   6.623   6.502 -1.1756 -1.2431 -2.7261
  520MOL0     H71695   8.444   6.858   6.637 -2.1457  0.0101 -2.6136
  520MOL0     H71696   8.382   6.695   6.592  1.9354 -1.9796 -1.0734
  520MOL0     H71697   8.552   6.586   6.712  2.2839 -0.1927  2.6457
  520MOL0     H71698   8.613   6.738   6.759 -0.5011  1.5405 -1.1115
  520MOL0     H71699   8.390   6.794   6.865  0.7938  0.1977  0.0190
  520MOL0     H71700   8.346   6.622   6.823 -1.0609  1.6776  0.7382
  520MOL0     H71701   8.519   6.729   7.027  0.9474 -0.1840  0.5272
  520MOL0     H71702   8.536   6.559   6.991  2.9440  3.1252 -0.7882
  520MOL0     H71703   8.294   6.705   7.105  1.8154  0.8863 -1.5065
  520MOL0     H71704   8.271   6.556   7.017 -2.7190  2.7847  0.6826
  520MOL0     H71705   8.463   6.567   7.258  1.3595  1.0061 -0.4275
  520MOL0     H71706   8.427   6.425   7.153 -1.4866  1.0662 -1.3659
  520MOL0     H71707   8.274   6.421   7.377 -0.0198 -2.0194 -1.4366
  520MOL0     H71708   8.211   6.579   7.319 -2.6110 -1.4139 -0.1171
  520MOL0     H71709   8.302   6.249   7.139 -0.2670 -0.8318 -0.2667
  520MOL0     H71710   7.982   6.060   7.038  0.5960 -0.0001  1.2277
  520MOL0     H71711   8.150   6.030   7.060 -2.1615 -1.2008  0.9597
  520MOL0     H71712   8.187   6.142   6.842 -0.2907  2.5556 -0.6912
  520MOL0     H71713   8.053   6.025   6.827 -2.6180  1.2576  0.8012
  520MOL0     H71714   7.979   6.216   6.698  0.9268 -1.8705 -0.1657
  520MOL0     H71715   7.902   6.231   6.861 -0.2403  1.5596  0.6481
  520MOL0     H71716   7.997   6.428   6.925  0.1476  3.4293 -0.2971
  520MOL0     H71717   8.147   6.398   6.838 -0.4477 -0.1983  1.7085
  520MOL0     H71718   8.045   6.580   6.517  1.3776  1.5137 -2.0645
  520MOL0     H71719   8.200   6.877   6.417 -1.6423  3.9479 -0.8427
  520MOL0     H71720   8.026   6.918   6.429 -1.1629 -0.4591  1.9255
  520MOL0     H71721   8.072   6.758   6.380  4.1818 -2.9339  1.6331
  520MOL0     H71722   8.351   7.177   6.570 -1.0483 -1.3277 -2.9705
  520MOL0     H71723   8.430   7.398   6.513 -1.5019 -0.4380 -5.2560
  520MOL0     H71724   8.477   7.656   6.473  0.1823 -4.7194  0.3756
  520MOL0     H71725   8.363   7.568   6.387 -1.2504 -2.5416  1.7979
  520MOL0     H71726   8.344   7.878   6.397  0.5619  1.1150 -1.2498
  520MOL0     H71727   8.400   7.761   6.277  1.2039  1.0020  1.6808
  520MOL0     H71728   8.108   7.791   6.394  1.2021  2.2054  0.7447
  520MOL0     H71729   8.148   7.676   6.265 -1.8356  1.7318 -0.7242
  520MOL0     H71730   8.072   7.853   6.153  0.2346 -1.6084  0.2554
  520MOL0     H71731   8.246   7.866   6.145  0.4572  1.0169 -1.1352
  520MOL0     H71732   8.082   8.026   6.355  1.9259 -3.4660  0.9022
  520MOL0     H71733   8.248   8.048   6.320  0.1886  2.6215 -1.4205
  520MOL0     H71734   8.051   8.084   6.100 -0.9431  2.9368  0.5863
  520MOL0     H71735   8.222   8.137   6.103 -0.4190 -0.6669 -1.2218
  520MOL0     H71736   8.194   8.282   6.276  2.9858 -1.0649 -3.8368
  520MOL0     H71737   8.014   8.242   6.288  1.3424 -0.4171  1.9771
  520MOL0     H71738   8.028   8.316   6.039  2.8073 -2.7688 -0.6518
  520MOL0     H71739   8.171   8.412   6.099  0.3312  1.2329  1.4702
  520MOL0     H71740   8.056   7.575   6.628  0.4467  0.1524 -1.3233
  520MOL0     H71741   7.964   7.353   6.680 -0.4336 -0.2139 -0.1834
  520MOL0     H71742   8.076   6.890   6.906 -0.0062  0.8523  0.2801
  520MOL0     H71743   8.001   6.650   6.925 -1.1736  2.7181  0.6942
  520MOL0     H71744   8.582   6.991   6.462  1.4765  1.5127 -0.8967
  520MOL0     H71745   8.516   7.197   6.379  0.3393  0.1840 -0.8606
  520MOL0     H71746   8.604   7.524   5.982 -0.0676 -1.3964 -1.5428
  520MOL0     H71747   8.523   7.737   5.865  0.9999  0.2223 -0.1186
  520MOL0     H71748   8.404   7.829   5.711 -0.2069  2.2278 -1.0095
  520MOL0     H71749   8.237   7.779   5.672  0.7011 -1.7736  0.5313
  520MOL0     H71750   8.319   7.969   5.582  1.5397  2.5296  0.1240
  520MOL0     H71751   8.362   8.048   5.736 -0.5222 -0.7188  1.5307
  520MOL0     H71752   8.083   7.953   5.713 -0.4336 -0.0753  2.3546
  520MOL0     H71753   8.156   8.066   5.827 -1.8477  1.3316 -1.3534
  520MOL0     H71754   8.011   8.172   5.652 -0.1304 -0.3256 -0.1882
  520MOL0     H71755   8.126   8.150   5.531  0.8152 -2.8453 -0.1015
  520MOL0     H71756   8.336   8.451   5.742  0.7987 -1.7131  1.4741
  520MOL0     H71757   8.141   7.681   6.013 -0.0882 -0.3170 -0.4456
  520MOL0     H71758   8.168   7.439   6.228 -3.5050 -0.8375  0.3020
  520MOL0     H71759   8.066   7.492   6.096 -0.4076 -0.8668  0.1614
  520MOL0     H71760   8.161   7.336   6.078  0.5140 -0.4087 -1.2254
  521MOL0     O71761   4.762   7.567   1.234 -0.0915 -0.6442  0.1296
  521MOL0     C71762   4.868   7.539   1.290  0.3519 -0.0010 -0.3569
  521MOL0     O71763   4.958   7.621   1.344 -0.1725  0.4697  0.2050
  521MOL0     C71764   4.949   7.752   1.302 -0.2657 -0.5045  1.0621
  521MOL0     C71765   4.905   7.853   1.393  0.3766  0.5301  0.1604
  521MOL0     C71766   4.888   7.986   1.341 -0.5587 -0.6969  0.2009
  521MOL0     C71767   4.925   8.022   1.210  0.5053 -0.1587 -0.1266
  521MOL0     O71768   4.897   8.131   1.139 -0.0150 -0.6757  0.5728
  521MOL0     C71769   4.854   8.249   1.213  0.5224 -0.2170  0.6871
  521MOL0     C71770   4.782   8.349   1.124  0.4103  0.8403 -0.3564
  521MOL0     C71771   4.773   8.493   1.192 -0.8129 -0.0655  0.5759
  521MOL0     C71772   4.911   8.560   1.183 -0.6574  0.4440  0.0383
  521MOL0     C71773   4.920   8.692   1.262 -0.4334 -1.6404 -0.1287
  521MOL0     C71774   4.854   8.811   1.203 -1.1607 -0.1253  0.0527
  521MOL0     C71775   4.889   8.937   1.277  0.0228  0.3921  0.4654
  521MOL0     C71776   5.030   8.982   1.249 -0.3921  1.0773  0.0868
  521MOL0     N71777   5.055   9.018   1.109 -0.2282 -0.6486  0.0340
  521MOL0     C71778   5.026   9.148   1.048  0.2737  0.7786 -1.4773
  521MOL0     C71779   5.053   9.125   0.910  0.5358 -0.7547 -0.7740
  521MOL0     C71780   5.028   9.220   0.789  0.8872  0.8414  1.1168
  521MOL0     C71781   5.089   9.191   0.654  0.3367 -0.5089  0.9685
  521MOL0     C71782   5.245   9.186   0.643 -0.5540  0.4030  0.8914
  521MOL0     C71783   5.312   9.318   0.673  0.5564  0.3086  0.3664
  521MOL0     O71784   5.279   9.419   0.584  0.5336  0.6662 -0.1492
  521MOL0     C71785   5.358   9.526   0.589  1.7509  0.7158  0.5635
  521MOL0     C71786   5.475   9.547   0.653 -1.0128  0.5699  0.7851
  521MOL0     C71787   5.545   9.664   0.659 -0.5948 -1.3779 -0.1918
  521MOL0     C71788   5.668   9.671   0.751  0.0952 -0.7018  0.9807
  521MOL0     C71789   5.495   9.780   0.584  0.1506 -0.5194 -0.0719
  521MOL0     C71790   5.554   9.915   0.589 -0.0251 -0.3544  0.8879
  521MOL0     O71791   5.496  10.001   0.500  0.2745  0.1844  0.0446
  521MOL0     C71792   5.522  10.131   0.520  0.2669 -0.6509  0.0832
  521MOL0     C71793   5.648  10.191   0.528  0.0482  0.4809 -0.2608
  521MOL0     C71794   5.658  10.328   0.540 -0.3370 -0.7045 -0.0852
  521MOL0     C71795   5.544  10.412   0.525 -0.2292 -0.1758  0.4462
  521MOL0     O71796   5.545  10.549   0.523 -0.0492 -0.5115 -0.2733
  521MOL0     C71797   5.645  10.625   0.452 -0.5008 -0.3930 -0.0291
  521MOL0     C71798   5.606  10.777   0.430  0.1268 -0.7426  0.4591
  521MOL0     C71799   5.702  10.849   0.338 -0.4154 -0.5652 -0.0608
  521MOL0     C71800   5.658  10.998   0.345 -0.2865  0.6131 -0.2799
  521MOL0     C71801   5.711  11.067   0.215  1.4656 -0.1009 -0.6842
  521MOL0     C71802   5.842  11.143   0.227 -0.0973 -0.1892  0.3978
  521MOL0     C71803   5.957  11.056   0.288  1.0002  0.4638 -0.2312
  521MOL0     C71804   6.083  11.136   0.308 -0.1006 -0.2023  1.0516
  521MOL0    Cl71805   6.219  11.026   0.364  0.0227  0.2860 -0.5256
  521MOL0     C71806   5.428  10.346   0.515  0.7734  0.3382 -0.6159
  521MOL0     C71807   5.410  10.204   0.513 -0.8361 -0.1407  1.0079
  521MOL0     O71808   5.643   9.935   0.663 -0.1186 -0.2229 -0.5233
  521MOL0     C71809   5.372   9.758   0.519  0.2479  0.6556  0.6987
  521MOL0     C71810   5.309   9.630   0.514  0.2767  0.0152  0.2554
  521MOL0     N71811   5.096   8.990   0.893  0.1492  0.1614 -0.0418
  521MOL0     N71812   5.093   8.936   1.006  0.1848  0.4928  0.4156
  521MOL0     C71813   4.965   7.916   1.119 -0.5338 -0.8253 -0.4602
  521MOL0     C71814   4.979   7.786   1.172 -0.6888 -0.4261 -0.0777
  521MOL0     C71815   4.885   7.394   1.317  0.5092  0.3046  0.6111
  521MOL0     C71816   4.814   7.312   1.223 -0.8289 -0.6488 -0.2766
  521MOL0     C71817   4.815   7.176   1.244  1.2939 -0.6051 -0.3247
  521MOL0     C71818   4.869   7.110   1.360 -0.2122 -0.4328 -0.8327
  521MOL0     O71819   4.879   6.977   1.380  0.0233 -0.0339 -0.1967
  521MOL0     C71820   4.810   6.885   1.301  0.0193 -0.5994 -0.2046
  521MOL0     C71821   4.818   6.738   1.354 -0.1345 -0.9310  0.1818
  521MOL0     C71822   4.776   6.644   1.238 -0.0158  0.2846 -0.5212
  521MOL0     C71823   4.801   6.501   1.261 -0.3098 -0.8406  0.0814
  521MOL0     C71824   4.707   6.444   1.354 -1.0126 -0.0000  0.0221
  521MOL0     C71825   4.639   6.398   1.446  0.2324  1.0314  0.5411
  521MOL0     C71826   4.929   7.195   1.452 -0.3284  0.5146 -0.6262
  521MOL0     C71827   4.931   7.333   1.434 -0.3414  0.1618 -0.5578
  521MOL0     C71828   4.977   7.421   1.554  0.4884  0.4058 -0.6355
  521MOL0     H71829   4.868   7.828   1.492 -1.3290 -1.0250 -0.8155
  521MOL0     H71830   4.842   8.050   1.415  0.2500 -2.0659  1.9776
  521MOL0     H71831   4.952   8.286   1.246  0.4156  0.2055  0.5325
  521MOL0     H71832   4.790   8.208   1.291  2.2616 -2.0737  1.2335
  521MOL0     H71833   4.828   8.358   1.025 -0.1615  1.9949 -0.5434
  521MOL0     H71834   4.681   8.312   1.106  0.3366  1.3919 -1.1516
  521MOL0     H71835   4.699   8.561   1.147  0.6347  2.1008  1.3373
  521MOL0     H71836   4.755   8.482   1.299 -0.1920  1.0695  0.8086
  521MOL0     H71837   4.982   8.494   1.234 -0.3359  0.4540 -0.3945
  521MOL0     H71838   4.949   8.570   1.081 -1.0320  0.5367 -0.0956
  521MOL0     H71839   5.027   8.710   1.273 -0.8435  0.5429  0.6564
  521MOL0     H71840   4.886   8.686   1.365 -1.2654  0.2587 -0.2510
  521MOL0     H71841   4.877   8.812   1.096 -3.1566 -4.2520 -0.6222
  521MOL0     H71842   4.745   8.807   1.206 -1.4029  2.9561 -0.9266
  521MOL0     H71843   4.869   8.928   1.385 -3.6803  2.5823  0.1501
  521MOL0     H71844   4.831   9.022   1.241 -1.3191  0.0790  1.7287
  521MOL0     H71845   5.042   9.070   1.313 -1.0742 -1.3593  3.8549
  521MOL0     H71846   5.098   8.905   1.285 -0.1623  1.5024  0.5700
  521MOL0     H71847   4.987   9.234   1.102 -1.8461 -1.5655  0.9899
  521MOL0     H71848   5.069   9.319   0.815  0.8721  1.4615 -1.0326
  521MOL0     H71849   4.920   9.231   0.781  0.6637 -1.0112  1.1630
  521MOL0     H71850   5.040   9.097   0.625  0.1853  0.5964 -2.9736
  521MOL0     H71851   5.061   9.273   0.587  3.6025 -0.8385 -1.0048
  521MOL0     H71852   5.285   9.109   0.710 -1.0617  1.0577  1.9682
  521MOL0     H71853   5.280   9.158   0.543  3.0174  0.6566  1.9409
  521MOL0     H71854   5.280   9.350   0.773  1.6870 -0.4191  0.9862
  521MOL0     H71855   5.416   9.285   0.662  0.1815 -0.9362  0.3330
  521MOL0     H71856   5.497   9.467   0.723 -0.0450 -0.5999 -0.7941
  521MOL0     H71857   5.755   9.704   0.695 -0.4960  1.8028  1.4244
  521MOL0     H71858   5.687   9.569   0.787  2.0364 -0.9025 -0.4824
  521MOL0     H71859   5.654   9.740   0.835  1.1817  0.9725 -0.1734
  521MOL0     H71860   5.731  10.122   0.525 -0.3235 -0.2770  3.2143
  521MOL0     H71861   5.754  10.373   0.563 -1.7487  2.4733  0.1397
  521MOL0     H71862   5.743  10.622   0.500 -0.0887  1.0355 -0.7220
  521MOL0     H71863   5.664  10.579   0.354 -1.1610  0.5991 -0.6403
  521MOL0     H71864   5.501  10.769   0.400  0.5087 -2.4500 -0.5979
  521MOL0     H71865   5.617  10.826   0.526 -1.2564 -0.7628  0.6470
  521MOL0     H71866   5.695  10.820   0.233 -1.4061  0.0953 -0.1937
  521MOL0     H71867   5.804  10.850   0.376  0.6710 -0.7676 -2.7905
  521MOL0     H71868   5.704  11.039   0.436 -2.9559  0.8689  1.0395
  521MOL0     H71869   5.549  11.008   0.352 -0.6781 -2.7145  0.2300
  521MOL0     H71870   5.714  10.997   0.131 -2.0329  0.5408 -1.5110
  521MOL0     H71871   5.625  11.130   0.191  0.9691 -0.2108  0.6921
  521MOL0     H71872   5.838  11.237   0.283  0.2165  0.2045 -0.2427
  521MOL0     H71873   5.865  11.173   0.125  5.1991  1.5944  1.8017
  521MOL0     H71874   5.963  10.957   0.240 -3.1502 -1.0253  1.8758
  521MOL0     H71875   5.926  11.026   0.388  1.5525  1.0378  0.1155
  521MOL0     H71876   6.064  11.204   0.392  0.4545  2.2670 -0.7182
  521MOL0     H71877   6.101  11.193   0.217  1.1721 -1.9751  0.1197
  521MOL0     H71878   5.340  10.408   0.504  0.0737  0.1884  2.8015
  521MOL0     H71879   5.314  10.156   0.498 -1.8131  1.3285  2.2182
  521MOL0     H71880   5.322   9.837   0.464 -1.1459 -0.4263  0.3452
  521MOL0     H71881   5.221   9.597   0.459  1.1768  0.0811 -1.2667
  521MOL0     H71882   4.986   7.927   1.013 -1.9166 -1.5984 -0.8491
  521MOL0     H71883   5.000   7.715   1.093  0.0392  0.3502 -0.5995
  521MOL0     H71884   4.777   7.357   1.131  2.3953 -2.6012 -2.7426
  521MOL0     H71885   4.766   7.117   1.167 -0.4721 -0.8626  0.9442
  521MOL0     H71886   4.705   6.915   1.295 -0.0110 -0.9014 -1.3569
  521MOL0     H71887   4.860   6.880   1.204 -0.3203 -1.6506 -0.3356
  521MOL0     H71888   4.748   6.733   1.438 -4.2219  2.7523 -2.5783
  521MOL0     H71889   4.920   6.709   1.378  0.6910 -0.3374 -2.3088
  521MOL0     H71890   4.671   6.664   1.216  0.4937  0.9737 -2.4957
  521MOL0     H71891   4.843   6.658   1.153  1.2254 -1.9633 -0.0061
  521MOL0     H71892   4.895   6.483   1.314 -1.2437  0.5107  2.3170
  521MOL0     H71893   4.804   6.444   1.167  3.7125  1.4546 -1.4133
  521MOL0     H71894   4.569   6.352   1.513 -1.2602 -0.1662 -1.6891
  521MOL0     H71895   4.969   7.153   1.544  2.1568  0.3182 -1.7097
  521MOL0     H71896   4.892   7.473   1.599 -1.8440 -0.1313 -4.0677
  521MOL0     H71897   5.008   7.352   1.634  2.8799 -0.3812 -2.1534
  521MOL0     H71898   5.053   7.488   1.515 -0.3590  1.0910 -1.1482
  522MOL0     O71899  10.022   1.046   4.971 -0.7563 -0.5354 -0.7027
  522MOL0     C71900  10.120   0.969   4.969 -0.8625 -0.5024  0.4318
  522MOL0     O71901  10.119   0.836   4.958  0.2291 -0.3821 -0.6930
  522MOL0     C71902  10.002   0.760   4.969 -0.7233 -0.0112  0.3130
  522MOL0     C71903   9.879   0.806   5.014 -0.0253 -0.1292 -0.3406
  522MOL0     C71904   9.755   0.737   5.006 -0.6545  0.2972  0.7502
  522MOL0     C71905   9.756   0.602   4.966 -0.2158  0.0190 -0.2872
  522MOL0     O71906   9.645   0.530   4.960 -0.2547  0.1454 -0.2131
  522MOL0     C71907   9.562   0.521   5.079  0.1620  0.3479 -0.3854
  522MOL0     C71908   9.422   0.473   5.038 -1.1889  0.5074  0.1327
  522MOL0     C71909   9.317   0.531   5.132 -0.3557 -1.6831 -0.7939
  522MOL0     C71910   9.178   0.472   5.132 -0.3653  0.1015 -0.5783
  522MOL0     C71911   9.073   0.590   5.145 -0.7993  0.9032  0.7630
  522MOL0     C71912   9.079   0.621   5.292  0.7476 -0.0036  0.8257
  522MOL0     C71913   8.986   0.742   5.317  0.2815  0.1832 -0.3084
  522MOL0     C71914   8.848   0.712   5.361  0.1222  0.0053 -0.4507
  522MOL0     N71915   8.840   0.656   5.493  0.3575  0.1152 -0.5149
  522MOL0     C71916   8.821   0.523   5.519 -0.0483  0.4803  0.0169
  522MOL0     C71917   8.762   0.506   5.643 -0.9126  0.7076  1.7263
  522MOL0     C71918   8.699   0.385   5.698 -1.0529  0.2755 -0.0849
  522MOL0     C71919   8.798   0.263   5.686 -0.0596  0.4150 -0.1811
  522MOL0     C71920   8.749   0.172   5.572  0.6330 -0.5656  0.0859
  522MOL0     C71921   8.828   0.041   5.567  0.1461 -0.5431  0.1258
  522MOL0     O71922   8.825  -0.017   5.434  0.2572  0.1076 -0.0876
  522MOL0     C71923   8.759  -0.135   5.411 -0.2786  0.1879 -1.0221
  522MOL0     C71924   8.781  -0.205   5.293 -0.3924 -1.0712  0.7503
  522MOL0     C71925   8.706  -0.321   5.258 -0.2970  0.2904  0.2682
  522MOL0     C71926   8.723  -0.359   5.111 -0.5970  0.3828 -0.0470
  522MOL0     C71927   8.615  -0.381   5.358 -0.7521 -0.2559  0.4144
  522MOL0     C71928   8.532  -0.495   5.334  1.3597 -0.3691 -0.4738
  522MOL0     O71929   8.544  -0.573   5.221 -0.4672 -1.1745  0.0961
  522MOL0     C71930   8.451  -0.671   5.186  0.8479  1.4331  0.2257
  522MOL0     C71931   8.415  -0.676   5.048  0.2060 -0.0455 -0.2644
  522MOL0     C71932   8.305  -0.753   5.004 -0.3829  0.3155  0.0519
  522MOL0     C71933   8.246  -0.837   5.106  0.2054 -0.0125 -0.2358
  522MOL0     O71934   8.139  -0.921   5.081 -0.3663 -0.0674  0.4757
  522MOL0     C71935   8.056  -0.888   4.965 -0.3104 -0.2867 -0.5787
  522MOL0     C71936   7.954  -1.000   4.937  0.8903  0.2733  1.0415
  522MOL0     C71937   7.821  -0.958   4.886 -0.0773 -1.0206 -0.5555
  522MOL0     C71938   7.838  -0.889   4.752 -0.4022  0.0714  0.7096
  522MOL0     C71939   7.706  -0.829   4.713 -0.7106 -0.2505 -0.7358
  522MOL0     C71940   7.599  -0.925   4.661 -0.2400  0.6618  0.1453
  522MOL0     C71941   7.625  -0.969   4.511 -0.0420 -0.3685  0.4107
  522MOL0     C71942   7.522  -1.059   4.455  0.3356  0.7166  0.4484
  522MOL0    Cl71943   7.557  -1.103   4.286 -0.5349 -0.1295 -0.1886
  522MOL0     C71944   8.294  -0.841   5.237  0.1756 -0.1689  0.2379
  522MOL0     C71945   8.387  -0.749   5.284  0.0887  0.3962 -0.1894
  522MOL0     O71946   8.441  -0.517   5.419  0.2938 -0.0280 -0.7099
  522MOL0     C71947   8.598  -0.304   5.470  0.4320  0.7507 -0.4889
  522MOL0     C71948   8.657  -0.180   5.490 -1.0332 -0.2398 -0.4099
  522MOL0     N71949   8.754   0.640   5.687 -0.6030  0.1481 -0.3755
  522MOL0     N71950   8.801   0.722   5.604  0.1296  0.3582 -0.0678
  522MOL0     C71951   9.885   0.542   4.941 -1.0462 -1.0065  0.0691
  522MOL0     C71952  10.006   0.624   4.947 -0.6976  0.1143 -0.3573
  522MOL0     C71953  10.253   1.038   4.968 -0.7093  0.1531 -0.3668
  522MOL0     C71954  10.346   1.006   5.069 -0.2917  0.0426  1.0362
  522MOL0     C71955  10.469   1.072   5.091 -0.1931 -0.3182  0.2877
  522MOL0     C71956  10.511   1.149   4.983 -0.4921 -0.1281  0.1766
  522MOL0     O71957  10.637   1.194   4.965 -0.2062  0.3242 -0.1680
  522MOL0     C71958  10.730   1.191   5.076 -0.3509  0.5004 -0.1197
  522MOL0     C71959  10.865   1.272   5.057  0.2447  0.4993  0.3673
  522MOL0     C71960  10.832   1.416   5.014  0.1530 -0.0847 -0.2699
  522MOL0     C71961  10.951   1.516   5.006  0.3465  0.3584 -0.1200
  522MOL0     C71962  11.057   1.460   4.936  0.9802 -0.8205  0.3679
  522MOL0     C71963  11.148   1.415   4.864  0.4037 -0.0969 -0.2220
  522MOL0     C71964  10.421   1.196   4.887  0.3835  0.3929 -0.4582
  522MOL0     C71965  10.290   1.149   4.880  0.8222  0.1030 -0.8898
  522MOL0     C71966  10.193   1.218   4.780 -0.0998 -0.0970  0.0564
  522MOL0     H71967   9.855   0.907   5.045 -4.5687 -1.5392  1.6531
  522MOL0     H71968   9.663   0.795   5.013  0.3168  2.5942 -2.8342
  522MOL0     H71969   9.558   0.615   5.135  1.5691  0.3314 -0.2235
  522MOL0     H71970   9.600   0.444   5.147 -2.3948 -1.2050 -0.5649
  522MOL0     H71971   9.405   0.504   4.935 -2.0564 -0.3979 -0.0054
  522MOL0     H71972   9.421   0.365   5.055 -1.9055  0.8450  2.7186
  522MOL0     H71973   9.355   0.539   5.234 -0.9823  0.9050 -0.7105
  522MOL0     H71974   9.310   0.636   5.103 -0.4245 -1.5111 -0.1667
  522MOL0     H71975   9.172   0.420   5.036 -0.8122  0.0271 -0.5128
  522MOL0     H71976   9.156   0.399   5.210 -0.1815 -0.5661 -1.1357
  522MOL0     H71977   8.976   0.546   5.123  0.5410 -2.3667  0.7642
  522MOL0     H71978   9.104   0.668   5.075  5.7193 -0.2771  1.6781
  522MOL0     H71979   9.045   0.533   5.347 -1.6434 -1.0561 -2.0386
  522MOL0     H71980   9.185   0.639   5.314  1.8745 -0.8689 -2.9715
  522MOL0     H71981   8.984   0.807   5.230  2.6538 -1.1881 -1.4794
  522MOL0     H71982   9.032   0.797   5.399 -0.1055  0.8190 -0.5134
  522MOL0     H71983   8.812   0.815   5.368 -0.4008 -0.2131  0.2591
  522MOL0     H71984   8.800   0.652   5.284  1.8377  0.0775 -1.6135
  522MOL0     H71985   8.831   0.447   5.443 -1.7953  1.2092 -1.0173
  522MOL0     H71986   8.598   0.368   5.662 -1.2815  0.4556  0.4597
  522MOL0     H71987   8.688   0.416   5.803 -0.4826 -2.6793  0.9582
  522MOL0     H71988   8.901   0.291   5.666  0.2617  1.7119  2.7934
  522MOL0     H71989   8.783   0.202   5.776 -3.2281  1.8319  0.4055
  522MOL0     H71990   8.644   0.144   5.583  0.1937  1.6204  2.3019
  522MOL0     H71991   8.766   0.225   5.478 -1.3603 -0.8387 -0.4675
  522MOL0     H71992   8.933   0.060   5.587  1.2337 -2.7381 -2.7622
  522MOL0     H71993   8.793  -0.027   5.646 -1.8798  0.6230  0.3013
  522MOL0     H71994   8.847  -0.156   5.222 -2.7632  0.3308 -0.5720
  522MOL0     H71995   8.653  -0.429   5.065  0.3710 -1.4802  1.2050
  522MOL0     H71996   8.814  -0.419   5.112  0.3491  1.7287  1.8642
  522MOL0     H71997   8.725  -0.267   5.052 -1.1951  1.1007  1.0303
  522MOL0     H71998   8.454  -0.620   4.963  1.8621 -1.1873 -0.3103
  522MOL0     H71999   8.281  -0.756   4.898  2.9864 -1.4896 -0.7907
  522MOL0     H72000   8.010  -0.790   4.981  1.8654  0.5977  0.6704
  522MOL0     H72001   8.113  -0.874   4.873 -0.5179  2.6277 -0.3501
  522MOL0     H72002   7.995  -1.077   4.871 -0.9710  0.2808 -0.2277
  522MOL0     H72003   7.938  -1.054   5.031  1.4845 -0.8281  0.5322
  522MOL0     H72004   7.769  -0.894   4.957  2.0401 -0.5157  0.6087
  522MOL0     H72005   7.757  -1.047   4.884 -1.4943 -0.0368 -0.4707
  522MOL0     H72006   7.874  -0.957   4.675  0.7027  0.9037  0.4660
  522MOL0     H72007   7.922  -0.819   4.757 -0.6331  0.4111 -0.0871
  522MOL0     H72008   7.664  -0.777   4.800 -0.5704 -0.4762 -0.5315
  522MOL0     H72009   7.714  -0.754   4.634 -2.1109  0.4578 -0.2312
  522MOL0     H72010   7.501  -0.877   4.670 -1.1355 -1.1359  0.4659
  522MOL0     H72011   7.594  -1.018   4.719 -2.5162 -0.8542 -2.2567
  522MOL0     H72012   7.724  -1.014   4.507 -0.0490 -0.3396 -0.3349
  522MOL0     H72013   7.635  -0.882   4.445  0.9833 -0.5570  0.3081
  522MOL0     H72014   7.426  -1.006   4.454  0.3737  0.7845  0.3330
  522MOL0     H72015   7.516  -1.142   4.526  1.1691  1.3082  1.2236
  522MOL0     H72016   8.236  -0.887   5.317 -0.4610 -2.1218 -1.2754
  522MOL0     H72017   8.410  -0.752   5.391 -1.7819  2.0339  0.3168
  522MOL0     H72018   8.524  -0.328   5.546 -0.9620 -0.9244 -2.2481
  522MOL0     H72019   8.633  -0.118   5.576  0.8885 -1.0798  0.7798
  522MOL0     H72020   9.879   0.437   4.917  2.5866 -1.2155 -0.4020
  522MOL0     H72021  10.099   0.571   4.930 -2.3028 -2.1617 -2.7218
  522MOL0     H72022  10.335   0.923   5.138 -2.6904  0.1842  0.8944
  522MOL0     H72023  10.528   1.053   5.180 -3.2326 -0.9233  2.3064
  522MOL0     H72024  10.679   1.239   5.160 -0.1999  3.5146 -1.6097
  522MOL0     H72025  10.766   1.094   5.110  0.6291  1.2617  1.1257
  522MOL0     H72026  10.924   1.230   4.975 -2.7054  1.9768 -2.7673
  522MOL0     H72027  10.918   1.270   5.152  0.1195 -1.0230  0.4416
  522MOL0     H72028  10.774   1.404   4.922 -0.3431  0.1476  0.0087
  522MOL0     H72029  10.760   1.450   5.088 -0.3957 -0.6333 -0.5399
  522MOL0     H72030  10.980   1.537   5.110  0.8817 -1.7995  0.2090
  522MOL0     H72031  10.920   1.611   4.962 -1.4143 -0.1655 -0.0799
  522MOL0     H72032  11.218   1.372   4.795 -0.9695 -0.6074 -1.3467
  522MOL0     H72033  10.466   1.267   4.817  0.6087  1.3069  0.5885
  522MOL0     H72034  10.133   1.156   4.712  2.6199 -4.0169  0.8489
  522MOL0     H72035  10.118   1.279   4.831 -1.3259  1.4200 -3.2906
  522MOL0     H72036  10.250   1.282   4.713  1.9293  0.9557  2.6303
  523MOL0     O72037   1.423  10.434   5.907  0.2181  0.3046 -0.2323
  523MOL0     C72038   1.428  10.542   5.846 -0.3860 -0.3126 -0.9507
  523MOL0     O72039   1.381  10.651   5.890  0.8998 -0.4077  0.3272
  523MOL0     C72040   1.342  10.674   6.023  0.5432 -0.0241 -0.3053
  523MOL0     C72041   1.218  10.739   6.043  0.0627 -0.7985 -0.4068
  523MOL0     C72042   1.181  10.773   6.176 -0.0891  0.2701  0.2956
  523MOL0     C72043   1.254  10.724   6.281 -0.1755  0.0560 -0.0218
  523MOL0     O72044   1.210  10.764   6.413 -0.9141 -0.3743 -0.0319
  523MOL0     C72045   1.231  10.669   6.519 -0.2129 -0.8309 -0.1768
  523MOL0     C72046   1.331  10.720   6.611 -0.6103  0.1850 -0.0755
  523MOL0     C72047   1.422  10.604   6.664  0.0525 -0.0763  1.1130
  523MOL0     C72048   1.373  10.516   6.784 -0.8824  0.2677  0.6195
  523MOL0     C72049   1.346  10.593   6.904  0.7422  0.2865 -0.2712
  523MOL0     C72050   1.316  10.499   7.025  0.1696  0.1698  0.6728
  523MOL0     C72051   1.282  10.570   7.147 -0.5623 -0.1300 -0.6080
  523MOL0     C72052   1.382  10.671   7.200 -0.1347  0.2360 -1.0089
  523MOL0     N72053   1.507  10.595   7.219  1.0803 -0.3889 -0.5656
  523MOL0     C72054   1.537  10.528   7.341 -0.1597 -0.3869 -0.1112
  523MOL0     C72055   1.664  10.498   7.335 -0.6593 -0.6231 -0.0484
  523MOL0     C72056   1.749  10.428   7.443  0.1710 -0.0228 -0.1459
  523MOL0     C72057   1.832  10.305   7.389  0.2170  0.3205  1.2911
  523MOL0     C72058   1.889  10.208   7.494  0.2353 -0.5411 -0.1291
  523MOL0     C72059   1.969  10.281   7.592 -0.4844  0.2113 -0.2507
  523MOL0     O72060   2.025  10.180   7.689  0.3365  0.0831 -1.0314
  523MOL0     C72061   2.013  10.210   7.822 -0.6288 -0.3845  0.2462
  523MOL0     C72062   2.084  10.320   7.875 -0.8648  0.5537  0.7699
  523MOL0     C72063   2.078  10.367   8.007  0.0156  0.1109  0.0820
  523MOL0     C72064   2.169  10.486   8.032 -0.5654 -0.1434 -0.2691
  523MOL0     C72065   2.011  10.286   8.100 -0.3002  0.0491 -0.3705
  523MOL0     C72066   2.001  10.315   8.248 -0.1251 -0.5868 -0.1396
  523MOL0     O72067   2.022  10.443   8.300  0.3070  0.5257 -0.2471
  523MOL0     C72068   2.040  10.456   8.439 -1.1956  0.5236  0.8143
  523MOL0     C72069   1.962  10.551   8.510 -0.4198 -0.5010  0.3711
  523MOL0     C72070   1.992  10.565   8.644 -0.0466  0.0814 -0.7493
  523MOL0     C72071   2.094  10.492   8.711  0.8556 -0.5443  0.1315
  523MOL0     O72072   2.123  10.514   8.846  0.2766 -0.0842 -0.1603
  523MOL0     C72073   2.129  10.644   8.895  0.8698  0.0534  0.9972
  523MOL0     C72074   2.231  10.668   8.993 -0.2386 -0.3500  1.1215
  523MOL0     C72075   2.197  10.654   9.144  0.2983 -0.3562  0.4302
  523MOL0     C72076   2.323  10.621   9.229 -0.5185 -0.0293 -0.7143
  523MOL0     C72077   2.289  10.590   9.378  0.6189 -0.0111  0.5177
  523MOL0     C72078   2.267  10.437   9.401  0.3736 -0.4936 -0.3795
  523MOL0     C72079   2.298  10.393   9.543  0.8366 -0.4223 -0.0311
  523MOL0     C72080   2.246  10.471   9.657  0.1795  0.5263  0.2002
  523MOL0    Cl72081   2.292  10.376   9.812  0.3020  0.1925  0.5136
  523MOL0     C72082   2.166  10.393   8.634  0.2893  0.5882  0.6351
  523MOL0     C72083   2.142  10.379   8.497 -0.1582 -0.4512 -0.0976
  523MOL0     O72084   1.977  10.215   8.317  0.0339  0.6422  0.4994
  523MOL0     C72085   1.937  10.185   8.046 -0.5880 -0.9634 -0.0312
  523MOL0     C72086   1.938  10.143   7.909  0.7494  0.2330 -0.2324
  523MOL0     N72087   1.708  10.533   7.208  0.4655 -0.4866 -0.3866
  523MOL0     N72088   1.610  10.586   7.139  0.5075 -0.3902  0.0016
  523MOL0     C72089   1.374  10.653   6.257  0.1350  1.1144 -1.2824
  523MOL0     C72090   1.420  10.628   6.129  0.4098 -0.9288 -0.6656
  523MOL0     C72091   1.471  10.543   5.708 -1.0293  0.8367 -0.1285
  523MOL0     C72092   1.389  10.606   5.615  0.5503 -0.9057  0.1077
  523MOL0     C72093   1.413  10.599   5.474  0.4494 -0.1495 -0.4022
  523MOL0     C72094   1.522  10.523   5.430  0.2387 -1.0546 -0.8662
  523MOL0     O72095   1.543  10.517   5.297  0.3374  0.8271 -0.0677
  523MOL0     C72096   1.655  10.437   5.250 -1.0918  0.8891 -0.7768
  523MOL0     C72097   1.687  10.462   5.100 -0.6958  0.1849 -0.0440
  523MOL0     C72098   1.552  10.446   5.019 -0.0133 -0.9378 -0.4140
  523MOL0     C72099   1.480  10.316   5.015 -0.8825 -0.7646  0.2773
  523MOL0     C72100   1.570  10.214   4.957 -0.7152  0.3201 -0.0094
  523MOL0     C72101   1.638  10.131   4.915 -0.2054  0.0831  0.7357
  523MOL0     C72102   1.594  10.449   5.525 -0.3304 -0.2355 -0.2182
  523MOL0     C72103   1.572  10.464   5.661  0.0557  0.0785 -0.4716
  523MOL0     C72104   1.675  10.393   5.746  0.2925  0.3916 -0.3110
  523MOL0     H72105   1.161  10.775   5.958 -0.0164  1.9228  0.6880
  523MOL0     H72106   1.092  10.831   6.199 -0.2611 -0.1932  0.8369
  523MOL0     H72107   1.271  10.575   6.481  2.0606 -1.0523  2.4463
  523MOL0     H72108   1.143  10.648   6.579 -1.1495  1.4842 -0.6188
  523MOL0     H72109   1.392  10.789   6.551  0.1683 -0.4019  0.0325
  523MOL0     H72110   1.302  10.791   6.690 -2.7701 -3.6476  2.9092
  523MOL0     H72111   1.445  10.539   6.579 -1.4564  0.7569  0.0118
  523MOL0     H72112   1.520  10.638   6.698  1.3250 -2.6336  0.2164
  523MOL0     H72113   1.286  10.462   6.746 -0.8716  1.8033 -1.7996
  523MOL0     H72114   1.451  10.443   6.806  1.1268  1.7578 -1.2125
  523MOL0     H72115   1.259  10.658   6.891  0.3912  0.5217  2.7061
  523MOL0     H72116   1.431  10.659   6.924  2.1783 -0.9922 -1.7966
  523MOL0     H72117   1.245  10.418   7.006  0.2714  0.0163  0.9497
  523MOL0     H72118   1.407  10.445   7.051 -1.0261 -1.7841  1.0412
  523MOL0     H72119   1.243  10.498   7.220 -1.7342 -0.3547 -1.4288
  523MOL0     H72120   1.190  10.618   7.110  0.1298  1.0534 -0.8392
  523MOL0     H72121   1.407  10.754   7.134  0.3351 -0.3285 -1.5567
  523MOL0     H72122   1.351  10.696   7.302 -2.0515 -2.9025 -0.6946
  523MOL0     H72123   1.482  10.504   7.432 -1.5287 -0.4475 -0.9284
  523MOL0     H72124   1.692  10.396   7.531  0.8829 -1.5387 -0.1944
  523MOL0     H72125   1.823  10.502   7.475 -1.3552  2.0967 -1.2850
  523MOL0     H72126   1.778  10.243   7.317 -2.3886  1.4025  2.1946
  523MOL0     H72127   1.905  10.352   7.322 -0.2574 -0.5486  0.1356
  523MOL0     H72128   1.805  10.156   7.539  0.8582  2.0722  4.7160
  523MOL0     H72129   1.956  10.138   7.443  0.9124 -0.4168  0.5603
  523MOL0     H72130   2.053  10.337   7.548 -1.7914  2.3005 -0.2048
  523MOL0     H72131   1.909  10.359   7.639  0.2012  0.5234  0.1198
  523MOL0     H72132   2.137  10.370   7.795 -0.0681  2.3986  2.3598
  523MOL0     H72133   2.142  10.574   7.973 -4.0609 -0.7982  0.1430
  523MOL0     H72134   2.267  10.464   7.989 -1.7330 -0.3795 -3.0846
  523MOL0     H72135   2.171  10.520   8.136  1.7068  2.8653 -1.1612
  523MOL0     H72136   1.880  10.597   8.455  1.3021  0.4042 -1.5793
  523MOL0     H72137   1.936  10.640   8.698  0.5244  0.7985 -1.1285
  523MOL0     H72138   2.143  10.714   8.812 -3.4068  0.8611  0.6962
  523MOL0     H72139   2.032  10.649   8.946  0.1305 -0.9855 -0.2635
  523MOL0     H72140   2.305  10.593   8.963  3.8064  3.4897  0.4612
  523MOL0     H72141   2.276  10.767   8.984  0.7556 -0.6440  2.4555
  523MOL0     H72142   2.117  10.580   9.146 -1.1630  0.9187 -2.9533
  523MOL0     H72143   2.149  10.744   9.182  0.3576  1.1371 -2.7161
  523MOL0     H72144   2.383  10.711   9.246 -0.7694 -0.0987  0.6060
  523MOL0     H72145   2.375  10.540   9.177 -1.8925 -1.2452 -0.2611
  523MOL0     H72146   2.364  10.634   9.444  0.4676 -0.3356  0.9049
  523MOL0     H72147   2.190  10.635   9.388  0.3807  0.6065 -3.0586
  523MOL0     H72148   2.331  10.385   9.329 -1.5412  0.6709 -3.0948
  523MOL0     H72149   2.170  10.401   9.365  1.3514 -2.7074 -0.9634
  523MOL0     H72150   2.407  10.394   9.552  0.8359 -0.4179 -0.0230
  523MOL0     H72151   2.258  10.291   9.552 -1.7222  0.5546  0.4865
  523MOL0     H72152   2.139  10.491   9.652  0.4895  2.0950 -1.3998
  523MOL0     H72153   2.302  10.564   9.676  0.8853  0.7024 -2.3215
  523MOL0     H72154   2.231  10.321   8.683 -0.7741  0.4233  1.8480
  523MOL0     H72155   2.197  10.297   8.451 -0.6783 -1.2844  0.7315
  523MOL0     H72156   1.887  10.119   8.116 -1.7840  0.1282  0.1789
  523MOL0     H72157   1.870  10.063   7.883 -0.1113 -0.2966  3.1367
  523MOL0     H72158   1.421  10.605   6.342  2.0989  1.4722 -2.0985
  523MOL0     H72159   1.515  10.578   6.113  1.6802  1.2308 -0.1852
  523MOL0     H72160   1.300  10.658   5.648  1.1114  0.2038 -0.0846
  523MOL0     H72161   1.362  10.665   5.405 -0.2261  0.7763  0.9217
  523MOL0     H72162   1.744  10.458   5.311 -0.9471 -2.4221  0.3826
  523MOL0     H72163   1.643  10.330   5.268  1.4943  0.6588  0.0897
  523MOL0     H72164   1.766  10.404   5.052  2.7086  5.0627 -1.0997
  523MOL0     H72165   1.739  10.558   5.098 -0.5890  0.2629  2.6656
  523MOL0     H72166   1.482  10.524   5.051  0.9929 -1.4309  3.3870
  523MOL0     H72167   1.571  10.473   4.914  1.4090  1.0696  0.2991
  523MOL0     H72168   1.388  10.337   4.960  0.3133  1.1202 -1.1060
  523MOL0     H72169   1.430  10.294   5.110  2.0913 -0.2100  2.0948
  523MOL0     H72170   1.709  10.064   4.871  1.0902  0.6074  1.9499
  523MOL0     H72171   1.670  10.385   5.481  1.6832  2.8905 -1.7358
  523MOL0     H72172   1.638  10.291   5.763 -0.4028  0.4373 -1.4605
  523MOL0     H72173   1.769  10.389   5.690  0.2998  1.5315 -0.4025
  523MOL0     H72174   1.704  10.440   5.841  1.1075  0.8247 -0.7701
  524MOL0     O72175  10.810   9.919   9.649  0.0846  0.2661  0.0098
  524MOL0     C72176  10.694   9.886   9.637  0.2068  0.1275 -0.0221
  524MOL0     O72177  10.596   9.896   9.729  0.0552 -1.0074 -0.1370
  524MOL0     C72178  10.624   9.978   9.840 -0.3493 -0.4324 -0.9821
  524MOL0     C72179  10.609   9.929   9.971  0.4672  0.8757 -0.4243
  524MOL0     C72180  10.642   9.996  10.092 -0.9590 -0.8480  0.8293
  524MOL0     C72181  10.701  10.122  10.083 -0.2204  0.3924 -1.2846
  524MOL0     O72182  10.716  10.188  10.206  0.2220  0.5247  0.3298
  524MOL0     C72183  10.834  10.270  10.211  0.9924 -0.1869 -0.4118
  524MOL0     C72184  10.968  10.208  10.222  0.5921  0.3887 -0.1380
  524MOL0     C72185  11.028  10.135  10.104 -0.9459  0.4979  0.3134
  524MOL0     C72186  11.068  10.245   9.997 -0.1382  0.4529  0.9959
  524MOL0     C72187  11.173  10.188   9.908 -0.0447 -0.8572  0.4070
  524MOL0     C72188  11.125  10.061   9.834 -0.2357 -0.1282 -0.0580
  524MOL0     C72189  11.225  10.010   9.733  0.7323  0.8891  1.2018
  524MOL0     C72190  11.322   9.913   9.787 -0.8005  0.5220  0.4761
  524MOL0     N72191  11.444   9.943   9.850 -0.4420 -0.2583 -0.8987
  524MOL0     C72192  11.539  10.035   9.806  0.2409 -0.0012  0.5670
  524MOL0     C72193  11.621  10.031   9.914  0.3057 -0.6936  0.1222
  524MOL0     C72194  11.737  10.127   9.940 -0.1142  0.5072 -0.4578
  524MOL0     C72195  11.710  10.275   9.980 -0.0161 -0.0712 -0.2355
  524MOL0     C72196  11.722  10.283  10.139 -0.1007 -0.5977 -0.3631
  524MOL0     C72197  11.679  10.426  10.186 -0.1144  0.2291 -0.0233
  524MOL0     O72198  11.539  10.442  10.185 -0.4200  0.0074  0.5291
  524MOL0     C72199  11.486  10.530  10.275  0.5279 -0.1817 -0.7191
  524MOL0     C72200  11.343  10.514  10.290 -0.3408  0.4556  0.7311
  524MOL0     C72201  11.263  10.589  10.379  0.2284 -0.6470  0.4530
  524MOL0     C72202  11.114  10.556  10.371  0.4919  0.6222 -0.2096
  524MOL0     C72203  11.332  10.682  10.457 -0.4042  0.5236  0.1433
  524MOL0     C72204  11.261  10.754  10.566 -0.8476  0.1705  0.1605
  524MOL0     O72205  11.311  10.880  10.597  0.3386 -0.5649  0.4661
  524MOL0     C72206  11.232  10.952  10.684  0.5796 -0.8783  0.0655
  524MOL0     C72207  11.099  10.987  10.666  0.6439  0.8120  0.2591
  524MOL0     C72208  11.037  11.078  10.746  0.8515 -0.0535 -0.5389
  524MOL0     C72209  11.109  11.146  10.854  0.7945  0.4308 -0.5073
  524MOL0     O72210  11.032  11.229  10.935  0.0608 -0.3224 -0.3997
  524MOL0     C72211  11.061  11.212  11.082 -0.0584  0.0401  0.5809
  524MOL0     C72212  11.003  11.076  11.140 -0.4347 -0.3269 -0.2461
  524MOL0     C72213  10.851  11.065  11.144 -0.6436  0.0659 -0.5391
  524MOL0     C72214  10.800  10.936  11.213  0.0726  0.0477 -0.1138
  524MOL0     C72215  10.644  10.943  11.200  0.0319 -0.4693 -0.3229
  524MOL0     C72216  10.565  10.815  11.223  0.6260  0.0124  0.1882
  524MOL0     C72217  10.605  10.746  11.362  0.3076 -0.3677  0.6973
  524MOL0     C72218  10.502  10.640  11.398  0.2079  0.4713 -0.1557
  524MOL0    Cl72219  10.492  10.513  11.274  0.5950 -0.0372  0.1990
  524MOL0     C72220  11.236  11.104  10.884  0.1880  0.1675  1.3646
  524MOL0     C72221  11.294  11.013  10.798 -0.0530  0.4330  0.3086
  524MOL0     O72222  11.168  10.701  10.620  0.1968  0.2343  0.0045
  524MOL0     C72223  11.473  10.707  10.441 -0.2730 -1.0501  1.4588
  524MOL0     C72224  11.546  10.629  10.354  0.4108  0.7644 -0.0195
  524MOL0     N72225  11.578   9.942  10.009  0.6461 -0.0471  0.3093
  524MOL0     N72226  11.466   9.893   9.975  0.0755 -0.7882  0.7006
  524MOL0     C72227  10.712  10.183   9.957 -0.0349  1.5870  0.2119
  524MOL0     C72228  10.668  10.113   9.837  0.2613  0.0241 -0.3256
  524MOL0     C72229  10.648   9.801   9.518  0.7813  0.0330 -0.3485
  524MOL0     C72230  10.529   9.728   9.531  0.0112  0.5274  0.2653
  524MOL0     C72231  10.479   9.643   9.436  0.1089  0.3362 -0.3858
  524MOL0     C72232  10.549   9.630   9.314 -0.5322  0.4411  0.6156
  524MOL0     O72233  10.501   9.540   9.230  0.0425  0.1725  0.5254
  524MOL0     C72234  10.380   9.567   9.155  0.2901  0.2922 -0.1328
  524MOL0     C72235  10.413   9.541   9.007 -0.5362  0.4932 -0.1333
  524MOL0     C72236  10.488   9.655   8.945 -0.3353 -0.9292  0.2822
  524MOL0     C72237  10.504   9.656   8.795 -0.3157  0.0696  0.4856
  524MOL0     C72238  10.594   9.549   8.747 -0.0358  0.2720 -1.4511
  524MOL0     C72239  10.668   9.467   8.707 -0.3221  0.3762  0.7134
  524MOL0     C72240  10.662   9.698   9.298  0.5526  0.4413  0.2790
  524MOL0     C72241  10.715   9.782   9.392 -1.2341  0.0488 -0.2642
  524MOL0     C72242  10.846   9.834   9.360  0.9266 -0.0969  0.0067
  524MOL0     H72243  10.573   9.827   9.975 -0.0402  1.0090 -1.3511
  524MOL0     H72244  10.638   9.943  10.187  0.4334 -4.2524 -0.8498
  524MOL0     H72245  10.830  10.328  10.304  2.4208 -0.6141 -0.0526
  524MOL0     H72246  10.836  10.346  10.132  1.8114  1.8957  1.4845
  524MOL0     H72247  11.035  10.281  10.268  0.8294  1.0723 -1.5200
  524MOL0     H72248  10.953  10.134  10.302 -0.1323 -0.0568 -0.6700
  524MOL0     H72249  11.124  10.091  10.131  0.2797  1.8252 -1.6725
  524MOL0     H72250  10.969  10.051  10.065 -1.9187  0.6624  1.3520
  524MOL0     H72251  10.978  10.267   9.939 -0.5097 -1.7824  0.6356
  524MOL0     H72252  11.098  10.341  10.040 -3.7660  1.5054  1.5553
  524MOL0     H72253  11.255  10.164   9.977 -0.5750 -1.0728  0.9671
  524MOL0     H72254  11.217  10.263   9.842  0.9444 -0.0624  1.8937
  524MOL0     H72255  11.095   9.979   9.899 -1.0296 -0.2286 -0.5384
  524MOL0     H72256  11.040  10.080   9.768  0.1092 -2.7757 -1.4098
  524MOL0     H72257  11.268  10.104   9.697 -1.6012  2.2193  1.7064
  524MOL0     H72258  11.173   9.958   9.651 -1.1680  0.5562  2.5466
  524MOL0     H72259  11.268   9.853   9.860 -0.2358  2.6306  2.7686
  524MOL0     H72260  11.358   9.850   9.705  0.4782  1.1853  0.4979
  524MOL0     H72261  11.548  10.098   9.719 -0.4593  1.7218  1.6883
  524MOL0     H72262  11.793  10.134   9.846 -1.4019 -0.4215 -1.3460
  524MOL0     H72263  11.811  10.085  10.008  0.0927  1.8992  0.1972
  524MOL0     H72264  11.770  10.340   9.915  0.3979 -0.0806  0.1350
  524MOL0     H72265  11.609  10.309   9.955 -1.5274 -2.8629  1.6120
  524MOL0     H72266  11.657  10.206  10.183  1.2275 -0.5186  1.9095
  524MOL0     H72267  11.823  10.266  10.177  0.2378  2.1489  0.1776
  524MOL0     H72268  11.722  10.446  10.284  2.0989  2.0321 -1.2792
  524MOL0     H72269  11.719  10.497  10.113 -1.2959  1.0071  0.0654
  524MOL0     H72270  11.293  10.446  10.221  0.5423  2.3340 -1.9106
  524MOL0     H72271  11.056  10.644  10.400  2.0993  2.0968 -1.2759
  524MOL0     H72272  11.080  10.471  10.431 -0.2126  0.8472 -0.2847
  524MOL0     H72273  11.092  10.526  10.269  2.2095  1.3635 -0.8415
  524MOL0     H72274  11.057  10.949  10.573 -1.1442  3.3434 -0.0910
  524MOL0     H72275  10.932  11.093  10.719  0.5818 -1.4206 -0.3184
  524MOL0     H72276  11.165  11.222  11.114 -0.4594  2.3290  1.3451
  524MOL0     H72277  11.011  11.294  11.134 -1.6815 -1.5013  1.5610
  524MOL0     H72278  11.023  10.994  11.070 -1.7793 -2.7839  2.0277
  524MOL0     H72279  11.046  11.048  11.237 -0.6698 -1.6252 -0.4976
  524MOL0     H72280  10.822  11.072  11.039 -1.2135 -2.1683 -0.5841
  524MOL0     H72281  10.812  11.152  11.197 -0.7008 -0.9594  1.1755
  524MOL0     H72282  10.828  10.914  11.317  0.2722  2.7528  0.4861
  524MOL0     H72283  10.818  10.850  11.149 -0.2867 -1.0442  1.1895
  524MOL0     H72284  10.607  11.018  11.270  0.6852 -0.5398  0.1085
  524MOL0     H72285  10.623  10.976  11.098  2.2486 -0.0744 -0.7025
  524MOL0     H72286  10.587  10.737  11.149  1.8629 -1.6101  2.1448
  524MOL0     H72287  10.459  10.841  11.221  0.2026 -0.9787 -5.1897
  524MOL0     H72288  10.602  10.819  11.443 -0.8384  1.8693 -1.2294
  524MOL0     H72289  10.700  10.694  11.347  0.2200 -0.5468  0.7457
  524MOL0     H72290  10.409  10.694  11.419 -0.7906 -1.1098 -0.4050
  524MOL0     H72291  10.535  10.589  11.489 -0.7184  2.3506  1.3180
  524MOL0     H72292  11.292  11.143  10.968 -0.6818  1.9064  1.1717
  524MOL0     H72293  11.395  10.975  10.812 -0.4268 -1.5535 -1.7042
  524MOL0     H72294  11.526  10.777  10.506  0.5116  2.8886 -2.8635
  524MOL0     H72295  11.653  10.650  10.353  0.4578  0.5339 -0.8596
  524MOL0     H72296  10.737  10.286   9.934  2.1252  1.5742  2.1129
  524MOL0     H72297  10.667  10.164   9.741 -0.7474 -0.2541 -0.4726
  524MOL0     H72298  10.469   9.738   9.621 -1.2009  2.2916 -0.6751
  524MOL0     H72299  10.399   9.572   9.451  2.7350 -3.0124 -1.1819
  524MOL0     H72300  10.296   9.507   9.192  1.1975 -2.1365 -1.7494
  524MOL0     H72301  10.340   9.669   9.155  2.7222  1.4622  3.4052
  524MOL0     H72302  10.314   9.522   8.963 -1.0984 -1.4267  1.7618
  524MOL0     H72303  10.475   9.456   8.981  0.7724  1.7173 -1.1650
  524MOL0     H72304  10.429   9.744   8.969  2.2631  1.4235 -1.3532
  524MOL0     H72305  10.583   9.679   8.992  0.2586  0.4650 -1.5158
  524MOL0     H72306  10.541   9.756   8.771 -0.0194  0.7366  3.3492
  524MOL0     H72307  10.406   9.645   8.748 -0.5897 -0.3777  1.1413
  524MOL0     H72308  10.753   9.408   8.678  0.3828  1.0542  1.3654
  524MOL0     H72309  10.720   9.678   9.208  3.1694 -3.5869  2.5322
  524MOL0     H72310  10.923   9.784   9.420  0.2363 -3.1705 -1.4931
  524MOL0     H72311  10.876   9.811   9.258 -0.5308  0.1531 -0.4961
  524MOL0     H72312  10.847   9.940   9.387 -2.0813  0.3215 -1.1500
  525MOL0     O72313   5.958   3.240   4.935  0.1298 -0.3474  0.4150
  525MOL0     C72314   5.882   3.250   4.840 -0.2787  0.4790  0.4951
  525MOL0     O72315   5.865   3.365   4.758  0.3229  0.2802 -0.3423
  525MOL0     C72316   5.973   3.438   4.736 -0.7698  0.3618  0.9843
  525MOL0     C72317   5.999   3.560   4.803  0.0636 -0.4363 -0.0227
  525MOL0     C72318   6.115   3.629   4.773  0.3185  0.0491  0.6102
  525MOL0     C72319   6.199   3.590   4.676 -0.2078  0.3735  0.4099
  525MOL0     O72320   6.318   3.664   4.646  0.3017 -0.1469  0.3747
  525MOL0     C72321   6.331   3.723   4.519 -0.4778 -0.7556  0.0458
  525MOL0     C72322   6.456   3.815   4.522  0.0992 -1.0621 -0.1087
  525MOL0     C72323   6.469   3.913   4.646 -0.0188 -0.3994  0.6115
  525MOL0     C72324   6.590   4.003   4.641  0.0430  0.0174  0.5601
  525MOL0     C72325   6.552   4.146   4.688 -0.8024  0.6248 -0.5515
  525MOL0     C72326   6.685   4.222   4.715 -0.2332  0.5796  0.2961
  525MOL0     C72327   6.626   4.359   4.738 -0.9881 -0.0354 -0.0366
  525MOL0     C72328   6.743   4.446   4.792  0.5404 -0.0293  1.4511
  525MOL0     N72329   6.691   4.564   4.858 -0.4750 -0.5542  0.0048
  525MOL0     C72330   6.601   4.657   4.822  0.7629 -0.9445  0.3239
  525MOL0     C72331   6.608   4.757   4.916 -0.9453  0.0123 -0.0457
  525MOL0     C72332   6.524   4.889   4.918 -0.5509 -0.6787 -0.3351
  525MOL0     C72333   6.373   4.877   4.887  0.0154 -0.7627 -0.6051
  525MOL0     C72334   6.323   5.023   4.885  0.7457 -0.9667 -0.0373
  525MOL0     C72335   6.193   5.034   4.809 -0.2310 -0.8632  0.2215
  525MOL0     O72336   6.163   5.180   4.784  0.7054  0.3999  0.0315
  525MOL0     C72337   6.092   5.220   4.672 -0.4106  0.1262 -0.1733
  525MOL0     C72338   6.101   5.350   4.644 -0.2336 -0.0821  0.5192
  525MOL0     C72339   6.044   5.395   4.515  1.0194 -0.9191  0.7058
  525MOL0     C72340   6.072   5.543   4.480 -0.5931  0.2225  0.5571
  525MOL0     C72341   5.969   5.304   4.438 -0.9028  0.0814 -0.4461
  525MOL0     C72342   5.902   5.344   4.308  0.5299 -0.9494 -0.7084
  525MOL0     O72343   5.866   5.481   4.289 -0.2261  0.0472  0.3433
  525MOL0     C72344   5.811   5.505   4.170 -0.5292 -0.1475 -0.1710
  525MOL0     C72345   5.673   5.480   4.137 -0.2503  0.3994  0.0348
  525MOL0     C72346   5.611   5.526   4.017 -0.4636 -0.3568 -0.1542
  525MOL0     C72347   5.695   5.591   3.919 -0.0978  1.1572 -0.4068
  525MOL0     O72348   5.633   5.644   3.814  0.6165 -0.1042  0.3775
  525MOL0     C72349   5.552   5.556   3.736  0.7820 -0.4443 -0.3430
  525MOL0     C72350   5.634   5.499   3.618 -0.2135  0.4065  0.8252
  525MOL0     C72351   5.553   5.493   3.484 -0.2762  0.3224 -0.1610
  525MOL0     C72352   5.483   5.356   3.466 -0.2989  0.4884  0.0451
  525MOL0     C72353   5.395   5.337   3.337 -0.1105 -0.2872 -0.3059
  525MOL0     C72354   5.294   5.450   3.317 -0.1396  0.4217 -0.1771
  525MOL0     C72355   5.236   5.444   3.182  0.5145  0.1006 -0.0420
  525MOL0     C72356   5.296   5.545   3.084  0.2857  0.7895 -0.3788
  525MOL0    Cl72357   5.243   5.520   2.914  0.2032 -0.2804  0.0319
  525MOL0     C72358   5.824   5.620   3.949  0.5855  0.2092 -0.5621
  525MOL0     C72359   5.878   5.582   4.071 -0.5574  0.3618 -0.2732
  525MOL0     O72360   5.888   5.253   4.228 -0.1468 -0.0940 -0.2443
  525MOL0     C72361   5.965   5.171   4.482 -0.4590  0.5930 -0.1367
  525MOL0     C72362   6.027   5.125   4.590 -0.5098 -0.2665 -0.7043
  525MOL0     N72363   6.696   4.720   5.017 -0.3391  0.1120 -0.5780
  525MOL0     N72364   6.739   4.606   4.974 -0.0072  0.2579  1.0065
  525MOL0     C72365   6.162   3.483   4.598 -0.6387 -0.1384 -0.1428
  525MOL0     C72366   6.052   3.396   4.631  0.7141  0.0632  0.2135
  525MOL0     C72367   5.807   3.125   4.794 -0.2529  0.0645  0.2052
  525MOL0     C72368   5.784   3.096   4.655  0.2228  0.4568 -0.7168
  525MOL0     C72369   5.722   2.976   4.614  1.3965 -0.7755  0.2559
  525MOL0     C72370   5.663   2.892   4.704 -0.8238  0.0889 -0.3164
  525MOL0     O72371   5.577   2.787   4.672  0.0227  0.4741  0.1815
  525MOL0     C72372   5.621   2.660   4.662 -0.7086  0.6494 -0.3202
  525MOL0     C72373   5.532   2.573   4.583 -0.5647 -0.5101 -0.9596
  525MOL0     C72374   5.595   2.429   4.598 -0.0646 -0.4946  0.2933
  525MOL0     C72375   5.567   2.348   4.468 -0.5380 -0.6966 -0.7373
  525MOL0     C72376   5.427   2.327   4.452  0.2862  0.3678 -0.5314
  525MOL0     C72377   5.306   2.312   4.448 -0.5622  0.0827  0.0033
  525MOL0     C72378   5.688   2.914   4.836  0.5668  0.1546  0.1077
  525MOL0     C72379   5.750   3.028   4.882 -0.6507 -0.1647  0.3866
  525MOL0     C72380   5.769   3.032   5.031 -0.0100  0.6243  0.1335
  525MOL0     H72381   5.917   3.589   4.868 -1.2165 -2.7345 -0.5271
  525MOL0     H72382   6.146   3.717   4.828 -0.5131  1.0764 -0.5057
  525MOL0     H72383   6.241   3.780   4.494  0.2812  1.2941  1.6963
  525MOL0     H72384   6.355   3.657   4.436 -0.4028  0.0447 -0.5866
  525MOL0     H72385   6.547   3.755   4.525  1.5150  0.9447 -0.6990
  525MOL0     H72386   6.465   3.867   4.426 -0.7210 -0.5215  0.0897
  525MOL0     H72387   6.372   3.961   4.662 -1.2323 -2.5061 -0.0370
  525MOL0     H72388   6.483   3.856   4.739 -1.4199 -1.4590  0.1985
  525MOL0     H72389   6.662   3.938   4.692  0.2639 -0.3611 -0.2161
  525MOL0     H72390   6.623   4.027   4.540  1.9753 -2.3455  0.5154
  525MOL0     H72391   6.490   4.145   4.778 -0.5797  0.9461 -0.3922
  525MOL0     H72392   6.497   4.198   4.610 -0.2758 -1.6603 -2.5702
  525MOL0     H72393   6.736   4.157   4.786 -1.4096 -3.2513 -2.0191
  525MOL0     H72394   6.750   4.240   4.629 -1.8375  0.1430 -1.0835
  525MOL0     H72395   6.544   4.362   4.810 -0.4581 -2.2584  0.7413
  525MOL0     H72396   6.588   4.391   4.641  3.5819 -1.6287 -2.6738
  525MOL0     H72397   6.812   4.388   4.855  1.9569  0.4751  0.4060
  525MOL0     H72398   6.797   4.467   4.700  1.4613  1.1547  2.2346
  525MOL0     H72399   6.542   4.671   4.732  1.2176 -2.0553 -0.1727
  525MOL0     H72400   6.566   4.969   4.856 -0.5619  0.4719  1.1013
  525MOL0     H72401   6.537   4.924   5.021 -0.3350 -1.9337  0.0837
  525MOL0     H72402   6.371   4.815   4.796 -1.5426  0.1973 -1.2664
  525MOL0     H72403   6.312   4.828   4.963  0.7946 -2.4429 -1.0091
  525MOL0     H72404   6.300   5.063   4.984  1.7423  0.7482 -0.4650
  525MOL0     H72405   6.398   5.085   4.835  0.6902 -2.5929 -2.2683
  525MOL0     H72406   6.207   4.997   4.707 -3.5343 -2.4714  0.2247
  525MOL0     H72407   6.113   4.982   4.862 -0.8813  1.1779  1.3599
  525MOL0     H72408   6.162   5.416   4.703 -0.6885 -0.8927  1.9466
  525MOL0     H72409   6.112   5.528   4.379 -1.1502  1.9073  0.0470
  525MOL0     H72410   6.145   5.587   4.548  1.0216 -2.8816  1.0005
  525MOL0     H72411   5.978   5.600   4.483  1.2957  3.6627 -0.5593
  525MOL0     H72412   5.611   5.428   4.210  0.8198 -1.1203 -0.1043
  525MOL0     H72413   5.504   5.519   3.998 -0.2959  2.4963 -3.1389
  525MOL0     H72414   5.503   5.478   3.794  1.2500 -0.7754 -0.3876
  525MOL0     H72415   5.463   5.608   3.699  0.0118 -0.4599  1.4074
  525MOL0     H72416   5.719   5.566   3.602 -0.7232  0.8964  0.0898
  525MOL0     H72417   5.682   5.401   3.632 -0.1789  0.3844  0.5649
  525MOL0     H72418   5.619   5.510   3.398  3.5446  3.7029  3.0113
  525MOL0     H72419   5.490   5.582   3.481  0.0752  0.5482 -1.6896
  525MOL0     H72420   5.417   5.329   3.549 -2.1318  0.4718 -1.3507
  525MOL0     H72421   5.560   5.278   3.469 -1.7568 -1.0120  0.3003
  525MOL0     H72422   5.471   5.344   3.259 -0.3585 -0.9822 -0.6128
  525MOL0     H72423   5.344   5.241   3.330  0.5692 -0.7821  1.0495
  525MOL0     H72424   5.334   5.547   3.349 -0.1196 -0.7984  4.0310
  525MOL0     H72425   5.205   5.442   3.380 -1.1623  2.3037 -1.2950
  525MOL0     H72426   5.127   5.454   3.181  0.5321  0.3206  0.1881
  525MOL0     H72427   5.262   5.354   3.126 -1.7808 -0.2936 -0.5724
  525MOL0     H72428   5.403   5.530   3.097 -0.0554 -0.8962  0.8174
  525MOL0     H72429   5.275   5.644   3.125 -1.1256 -0.0840  1.1342
  525MOL0     H72430   5.891   5.674   3.882  0.4308  0.6966 -0.3321
  525MOL0     H72431   5.983   5.603   4.087  0.5842 -3.6263 -1.4423
  525MOL0     H72432   5.908   5.092   4.434  2.6084 -0.8052 -1.7452
  525MOL0     H72433   6.019   5.021   4.617  1.3513  0.0813  1.4689
  525MOL0     H72434   6.228   3.461   4.515  0.3734  0.9081  0.3736
  525MOL0     H72435   6.025   3.305   4.579  0.6486  0.1172  0.1528
  525MOL0     H72436   5.804   3.163   4.572 -1.3540  1.9306  0.0373
  525MOL0     H72437   5.717   2.957   4.508  3.6715 -0.3891  0.0274
  525MOL0     H72438   5.725   2.658   4.627 -0.9833 -0.2870 -1.1235
  525MOL0     H72439   5.613   2.622   4.765  2.6897 -2.1881 -0.8860
  525MOL0     H72440   5.537   2.601   4.477  1.8134 -2.4012 -1.4373
  525MOL0     H72441   5.433   2.582   4.628 -1.6228  1.3633 -3.4171
  525MOL0     H72442   5.704   2.435   4.597 -0.0068 -0.5268 -2.5118
  525MOL0     H72443   5.566   2.376   4.690 -1.7211  1.4965  0.9948
  525MOL0     H72444   5.613   2.250   4.483 -0.2168 -0.5881 -0.9961
  525MOL0     H72445   5.612   2.403   4.384  0.4049 -2.5496 -1.5161
  525MOL0     H72446   5.200   2.301   4.443 -0.4538 -0.4025 -2.6530
  525MOL0     H72447   5.656   2.838   4.907  2.0858  2.3462  3.3887
  525MOL0     H72448   5.734   2.936   5.072  0.1759 -0.1310 -1.3901
  525MOL0     H72449   5.875   3.041   5.056 -0.2856  0.5873  1.3450
  525MOL0     H72450   5.714   3.120   5.064 -1.5520 -0.6616  1.1631
  526MOL0     O72451  11.200   0.886   1.311 -0.5034 -0.1353 -0.0134
  526MOL0     C72452  11.091   0.839   1.343  0.0493  0.1603 -0.1325
  526MOL0     O72453  10.974   0.892   1.321  0.2350 -0.5034 -0.9511
  526MOL0     C72454  10.970   1.030   1.314  0.2177 -0.1479  0.7828
  526MOL0     C72455  10.905   1.089   1.197  0.5607 -0.3890 -0.2862
  526MOL0     C72456  10.910   1.223   1.180 -0.3737 -0.6100 -0.8356
  526MOL0     C72457  10.964   1.305   1.277  0.1816  0.5422 -0.3809
  526MOL0     O72458  10.962   1.445   1.276  0.4197 -0.5482  0.1818
  526MOL0     C72459  10.884   1.516   1.178 -0.4364 -0.5556  0.1205
  526MOL0     C72460  10.828   1.644   1.232  0.2167 -0.4427 -0.0553
  526MOL0     C72461  10.758   1.625   1.368 -0.4395  0.7740  0.3604
  526MOL0     C72462  10.650   1.730   1.390 -0.1970 -0.1448 -0.2272
  526MOL0     C72463  10.562   1.700   1.520 -1.2932 -0.8991  0.3006
  526MOL0     C72464  10.477   1.826   1.564  0.0326  0.4796 -0.0757
  526MOL0     C72465  10.406   1.796   1.698  0.2844 -0.3190  0.9818
  526MOL0     C72466  10.298   1.685   1.702 -0.2712  0.3215  0.0867
  526MOL0     N72467  10.183   1.715   1.608  0.8393  0.2320 -0.2237
  526MOL0     C72468  10.071   1.795   1.634 -0.7462  0.0057  0.2201
  526MOL0     C72469  10.005   1.804   1.512 -0.4038 -0.4237  0.0669
  526MOL0     C72470   9.888   1.897   1.473 -0.7558 -0.2522  0.1171
  526MOL0     C72471   9.909   2.041   1.525  0.1499 -0.8237  0.0680
  526MOL0     C72472   9.787   2.128   1.475 -0.3943  0.1373 -0.2190
  526MOL0     C72473   9.808   2.265   1.535  0.5869 -0.3422  0.5086
  526MOL0     O72474   9.897   2.340   1.440  0.8060 -0.5944  0.4896
  526MOL0     C72475   9.952   2.452   1.492  0.5753  0.3339  0.7963
  526MOL0     C72476  10.067   2.496   1.430 -0.0574  0.2014  0.1380
  526MOL0     C72477  10.138   2.607   1.470 -0.8892  0.5802  0.0610
  526MOL0     C72478  10.266   2.640   1.398 -0.3903 -1.3227  0.5638
  526MOL0     C72479  10.096   2.680   1.584 -0.1833  0.9454 -0.3980
  526MOL0     C72480  10.175   2.791   1.637  0.6616  0.8147 -0.5040
  526MOL0     O72481  10.176   2.791   1.766  0.1639 -0.3933 -0.2340
  526MOL0     C72482  10.230   2.894   1.851 -0.5018 -0.3811 -0.3249
  526MOL0     C72483  10.335   2.981   1.807 -0.7987  0.4009 -0.4422
  526MOL0     C72484  10.398   3.062   1.900  0.0975  0.4893  0.9445
  526MOL0     C72485  10.349   3.080   2.029 -0.8869  0.8255  0.5868
  526MOL0     O72486  10.415   3.162   2.112  0.4785 -0.4057 -0.1117
  526MOL0     C72487  10.310   3.255   2.169  0.3646 -0.1652 -0.1035
  526MOL0     C72488  10.374   3.362   2.252  0.2494 -0.3677  0.0697
  526MOL0     C72489  10.288   3.484   2.276 -0.8898 -0.3793 -0.7722
  526MOL0     C72490  10.143   3.487   2.327  0.1228 -0.5686 -1.5552
  526MOL0     C72491  10.142   3.424   2.460 -0.0205 -0.4003  0.3328
  526MOL0     C72492   9.999   3.385   2.499  1.0372  0.5938  1.1820
  526MOL0     C72493   9.999   3.286   2.627  0.1396  0.1174  0.3157
  526MOL0     C72494   9.854   3.244   2.685 -0.2124  0.6158  0.6218
  526MOL0    Cl72495   9.778   3.394   2.747  0.2717  0.3203 -0.0994
  526MOL0     C72496  10.237   3.005   2.070 -0.0335 -1.1752  0.2851
  526MOL0     C72497  10.178   2.913   1.987 -0.6082  0.4533 -0.2454
  526MOL0     O72498  10.226   2.867   1.560 -0.0130 -0.3208  0.2619
  526MOL0     C72499   9.984   2.631   1.656 -0.1934 -0.1801  1.3646
  526MOL0     C72500   9.908   2.525   1.608  0.1155 -0.2357 -0.1448
  526MOL0     N72501  10.077   1.719   1.426  0.4028  0.2494  0.3515
  526MOL0     N72502  10.171   1.658   1.487  0.3011  0.4734  1.1473
  526MOL0     C72503  11.012   1.255   1.399 -0.7083 -0.0956 -0.2780
  526MOL0     C72504  11.016   1.119   1.411  0.0399  0.3739  0.3934
  526MOL0     C72505  11.086   0.715   1.418 -0.1122  0.6647 -0.1028
  526MOL0     C72506  10.993   0.611   1.396  0.4254 -0.5977 -0.8731
  526MOL0     C72507  10.981   0.504   1.485  0.5334  0.1877  0.4967
  526MOL0     C72508  11.067   0.484   1.585  0.2749  0.8516  0.0404
  526MOL0     O72509  11.038   0.379   1.666  0.0862 -0.2092  0.1298
  526MOL0     C72510  10.966   0.415   1.794  0.3204 -0.3322  0.1152
  526MOL0     C72511  11.047   0.396   1.922 -0.9569  0.0423  0.2746
  526MOL0     C72512  11.026   0.490   2.034 -0.5875 -0.0157  0.5456
  526MOL0     C72513  11.093   0.621   2.004 -0.1957  0.9234 -0.5429
  526MOL0     C72514  11.080   0.716   2.115  0.9808  0.0026 -0.1200
  526MOL0     C72515  11.066   0.801   2.190 -0.1936 -0.0710  0.0264
  526MOL0     C72516  11.162   0.586   1.606  0.1605 -0.0913 -0.9577
  526MOL0     C72517  11.176   0.702   1.529  0.6543 -0.4353  0.8170
  526MOL0     C72518  11.298   0.797   1.558  0.1975  0.1982 -0.0737
  526MOL0     H72519  10.864   1.031   1.116  0.4388 -0.2709 -0.3103
  526MOL0     H72520  10.882   1.265   1.084  1.2187 -0.3988 -1.2335
  526MOL0     H72521  10.804   1.452   1.139  0.6867 -0.7902 -1.9128
  526MOL0     H72522  10.947   1.542   1.093 -1.0073 -0.7547 -0.3723
  526MOL0     H72523  10.903   1.723   1.232 -0.5701  0.3484  1.5644
  526MOL0     H72524  10.746   1.665   1.162  0.0753  0.5940  0.3935
  526MOL0     H72525  10.706   1.530   1.375  0.5769  0.1542 -0.2640
  526MOL0     H72526  10.831   1.646   1.447  1.0350 -0.5746 -0.6074
  526MOL0     H72527  10.707   1.823   1.400  2.5980 -1.7946  0.1303
  526MOL0     H72528  10.585   1.721   1.302  0.6738  0.6951 -0.9879
  526MOL0     H72529  10.629   1.682   1.605 -0.4402 -1.4207 -0.4666
  526MOL0     H72530  10.500   1.610   1.514  0.6073 -2.1961 -1.4719
  526MOL0     H72531  10.534   1.920   1.567  0.1539  0.5109 -1.9156
  526MOL0     H72532  10.393   1.852   1.499 -2.9406 -0.8809  2.9497
  526MOL0     H72533  10.355   1.885   1.736 -0.5989  1.6962 -4.1727
  526MOL0     H72534  10.479   1.769   1.775 -1.4719 -0.8776  2.5158
  526MOL0     H72535  10.353   1.596   1.671  1.2303  0.6434  1.6749
  526MOL0     H72536  10.259   1.674   1.803  0.8045  1.6674  0.6763
  526MOL0     H72537  10.045   1.846   1.727  2.7377  1.2795  0.6714
  526MOL0     H72538   9.799   1.856   1.522 -1.6526  1.3584 -0.1144
  526MOL0     H72539   9.884   1.900   1.364 -1.9950  1.0326  0.1689
  526MOL0     H72540   9.903   2.049   1.634 -3.5052  1.5791 -0.1442
  526MOL0     H72541   9.996   2.090   1.479  0.0619  0.4807  1.2276
  526MOL0     H72542   9.768   2.118   1.367 -2.7560 -0.3567  0.1864
  526MOL0     H72543   9.689   2.088   1.504 -1.6593 -0.2444 -4.2469
  526MOL0     H72544   9.708   2.308   1.536  0.5763 -0.2748 -0.8178
  526MOL0     H72545   9.848   2.274   1.636 -1.9108  0.1710  1.5121
  526MOL0     H72546  10.093   2.446   1.337 -0.9822 -0.2675  0.1219
  526MOL0     H72547  10.256   2.743   1.363  0.8769 -0.8116  1.6123
  526MOL0     H72548  10.287   2.576   1.312  4.3322 -0.7251  0.9863
  526MOL0     H72549  10.352   2.625   1.464  2.5637 -0.5441 -2.7649
  526MOL0     H72550  10.369   2.987   1.704  1.7920 -2.3206  0.1280
  526MOL0     H72551  10.488   3.114   1.870 -0.3892  1.7288  1.5606
  526MOL0     H72552  10.261   3.298   2.081  0.8385 -0.8868 -0.7301
  526MOL0     H72553  10.238   3.205   2.234 -1.7527  0.2712 -1.9863
  526MOL0     H72554  10.397   3.323   2.351  0.8953  2.1912  1.0069
  526MOL0     H72555  10.472   3.394   2.215  0.6169  1.0047  2.0849
  526MOL0     H72556  10.288   3.531   2.177  0.5475 -3.3612 -2.3183
  526MOL0     H72557  10.347   3.543   2.346 -0.4347  0.1593 -1.5864
  526MOL0     H72558  10.088   3.433   2.250 -0.3813 -2.0319 -0.2159
  526MOL0     H72559  10.120   3.594   2.326 -1.3404 -0.6964  2.4155
  526MOL0     H72560  10.207   3.336   2.456 -1.2114 -1.4443  2.4801
  526MOL0     H72561  10.186   3.487   2.537  1.8225  0.6690 -1.4926
  526MOL0     H72562   9.949   3.323   2.424 -0.5718  0.6848  2.1329
  526MOL0     H72563   9.930   3.470   2.508 -0.5589 -0.3465 -1.0165
  526MOL0     H72564  10.039   3.329   2.719 -0.0321 -1.2069  1.0276
  526MOL0     H72565  10.061   3.198   2.611  0.9879  0.4473  1.6032
  526MOL0     H72566   9.846   3.173   2.768  0.7805  0.5089  0.6370
  526MOL0     H72567   9.790   3.208   2.603  1.6584  0.6177 -0.9120
  526MOL0     H72568  10.215   3.017   2.175 -0.4095  2.7867 -0.1073
  526MOL0     H72569  10.109   2.838   2.023 -0.6365 -0.4198 -1.9739
  526MOL0     H72570   9.944   2.669   1.749 -0.8111 -3.8257  2.7340
  526MOL0     H72571   9.824   2.500   1.673  1.1852 -1.9833  0.6563
  526MOL0     H72572  11.065   1.316   1.471 -1.1501  3.4935 -2.7059
  526MOL0     H72573  11.080   1.091   1.495 -2.3555 -1.3681  1.7671
  526MOL0     H72574  10.921   0.611   1.315  0.9173 -2.1430 -1.3332
  526MOL0     H72575  10.909   0.429   1.455  2.0407 -0.9116 -0.4806
  526MOL0     H72576  10.946   0.522   1.800  0.7586 -0.2047 -0.5627
  526MOL0     H72577  10.874   0.355   1.794  1.0325 -1.5215  2.0581
  526MOL0     H72578  11.153   0.401   1.895 -1.6606 -1.0953 -3.2302
  526MOL0     H72579  11.031   0.294   1.957  0.2899 -0.6669 -1.1025
  526MOL0     H72580  10.916   0.491   2.039 -0.6946 -0.8177 -1.0951
  526MOL0     H72581  11.062   0.461   2.134  1.7057 -0.9674 -0.4921
  526MOL0     H72582  11.062   0.670   1.912  0.4771  2.6713  0.1163
  526MOL0     H72583  11.197   0.587   2.001 -1.0877 -2.0551 -1.3598
  526MOL0     H72584  11.042   0.880   2.259  0.6949 -0.9976  1.4589
  526MOL0     H72585  11.242   0.552   1.672 -1.8845 -0.3346  1.5548
  526MOL0     H72586  11.373   0.793   1.479 -1.3035 -2.2835 -1.5064
  526MOL0     H72587  11.267   0.900   1.576  1.1948  0.2463  1.5487
  526MOL0     H72588  11.343   0.761   1.651  0.4774  3.4994  1.1785
  527MOL0     O72589  10.658   6.638  11.381  0.7683 -0.4808  0.1090
  527MOL0     C72590  10.618   6.676  11.267  0.5052  0.4891 -0.5065
  527MOL0     O72591  10.495   6.679  11.228 -0.3250  0.1665  0.6104
  527MOL0     C72592  10.399   6.594  11.276  1.1486 -0.7239  0.0919
  527MOL0     C72593  10.428   6.473  11.345 -0.3433  0.4193  0.1331
  527MOL0     C72594  10.325   6.380  11.374 -0.2419  0.1302  0.3739
  527MOL0     C72595  10.190   6.412  11.355 -0.0836  0.2429  0.5016
  527MOL0     O72596  10.103   6.317  11.393  0.9405 -0.5276 -0.7194
  527MOL0     C72597  10.020   6.340  11.510  0.2245  0.0052  0.8883
  527MOL0     C72598  10.076   6.292  11.636 -1.0436  0.1798 -0.5219
  527MOL0     C72599  10.120   6.144  11.602 -0.8410  0.8786 -1.0125
  527MOL0     C72600  10.138   6.067  11.736 -1.8682 -0.9261  0.3166
  527MOL0     C72601  10.008   5.980  11.758  0.6823 -0.4920  0.6774
  527MOL0     C72602   9.993   5.903  11.882 -0.1479 -0.1785 -0.0129
  527MOL0     C72603  10.091   5.779  11.889 -0.4928 -0.8742 -1.1781
  527MOL0     C72604  10.059   5.686  12.009  0.5977  0.3433 -0.1106
  527MOL0     N72605  10.130   5.711  12.138  0.1146  0.1550 -0.6156
  527MOL0     C72606  10.175   5.626  12.239 -0.4794 -0.5718  0.4948
  527MOL0     C72607  10.217   5.712  12.336  0.4478 -0.0973 -0.6274
  527MOL0     C72608  10.243   5.665  12.482 -0.2305  0.6536 -0.0988
  527MOL0     C72609  10.370   5.577  12.495 -0.6427  0.0266 -0.0030
  527MOL0     C72610  10.502   5.644  12.458 -0.1620  0.6614 -0.4215
  527MOL0     C72611  10.615   5.553  12.502 -0.4264 -0.6737  0.3898
  527MOL0     O72612  10.734   5.603  12.452 -0.1491  0.0992 -0.7820
  527MOL0     C72613  10.859   5.540  12.481  0.5197 -0.0464  0.9656
  527MOL0     C72614  10.880   5.420  12.540  0.5945  0.8107  0.2957
  527MOL0     C72615  11.007   5.360  12.549 -0.3592 -0.1949 -0.2834
  527MOL0     C72616  11.014   5.222  12.616  0.1615  0.1217  0.0419
  527MOL0     C72617  11.118   5.441  12.513  0.6268  0.5937  0.2124
  527MOL0     C72618  11.259   5.381  12.518 -0.0807 -0.3553  1.2618
  527MOL0     O72619  11.363   5.453  12.460  0.5339 -1.3202 -0.6673
  527MOL0     C72620  11.482   5.406  12.491  0.1712 -0.0439  0.7967
  527MOL0     C72621  11.565   5.363  12.385  0.7328 -0.3067 -0.0841
  527MOL0     C72622  11.696   5.325  12.411 -0.8688  0.7210 -0.0710
  527MOL0     C72623  11.751   5.320  12.538  0.1539  0.3691  0.1452
  527MOL0     O72624  11.878   5.277  12.557 -0.3759  0.1676 -0.9380
  527MOL0     C72625  11.902   5.196  12.670 -0.4395 -0.5208  0.3248
  527MOL0     C72626  11.983   5.074  12.611 -0.1644 -0.5781 -0.7600
  527MOL0     C72627  11.889   4.974  12.525  0.7234  0.2991 -0.3691
  527MOL0     C72628  11.768   4.906  12.599  0.2753 -0.3004 -0.3563
  527MOL0     C72629  11.689   4.811  12.508 -0.1464  0.5352 -0.0416
  527MOL0     C72630  11.591   4.861  12.400 -1.0491 -0.2607 -0.6687
  527MOL0     C72631  11.515   4.993  12.444 -0.0286 -0.1586  0.0587
  527MOL0     C72632  11.419   4.972  12.563 -0.7966 -0.7841 -0.2812
  527MOL0    Cl72633  11.314   4.819  12.551  0.2302 -0.0769 -0.0953
  527MOL0     C72634  11.671   5.364  12.640  0.6659 -0.6478 -0.6209
  527MOL0     C72635  11.534   5.404  12.619  0.0107 -0.4812 -0.6494
  527MOL0     O72636  11.279   5.278  12.577 -0.0511 -0.6211 -0.1498
  527MOL0     C72637  11.096   5.562  12.448  0.3118  0.4647  0.6447
  527MOL0     C72638  10.966   5.610  12.438  0.5126 -0.0082  0.2594
  527MOL0     N72639  10.195   5.840  12.292  0.3513 -0.2425 -1.5211
  527MOL0     N72640  10.155   5.838  12.172  0.7110 -0.1110  0.7051
  527MOL0     C72641  10.161   6.541  11.304 -0.0158 -0.6011  0.5258
  527MOL0     C72642  10.262   6.626  11.249  0.0339 -0.1906 -0.4403
  527MOL0     C72643  10.724   6.745  11.194 -0.1232  0.1062  0.0494
  527MOL0     C72644  10.847   6.685  11.188 -0.8492  0.2432  0.1359
  527MOL0     C72645  10.948   6.739  11.107  0.6168  0.4076 -0.1295
  527MOL0     C72646  10.925   6.844  11.028 -0.3002 -0.5652  0.1775
  527MOL0     O72647  11.025   6.882  10.951 -0.3763  0.4294  0.3358
  527MOL0     C72648  11.005   7.001  10.865 -0.1452  0.4960 -0.7680
  527MOL0     C72649  11.133   7.052  10.788  0.1207 -0.1067  0.4716
  527MOL0     C72650  11.173   6.981  10.664 -1.3552  0.4350 -0.2811
  527MOL0     C72651  11.094   6.984  10.537  0.9031 -0.2470  0.4153
  527MOL0     C72652  11.167   6.984  10.408 -0.9935 -0.4879  0.3655
  527MOL0     C72653  11.234   6.987  10.311 -0.8399  0.4464  0.2691
  527MOL0     C72654  10.803   6.913  11.033  0.6846  0.0625 -0.0621
  527MOL0     C72655  10.704   6.867  11.123 -0.6696  0.4173  0.4097
  527MOL0     C72656  10.580   6.940  11.128 -0.4078 -0.2298 -0.0098
  527MOL0     H72657  10.528   6.442  11.371 -1.3176 -1.9874  1.3306
  527MOL0     H72658  10.346   6.280  11.412  1.3901 -0.3563 -1.6530
  527MOL0     H72659   9.928   6.281  11.508  0.3298 -0.1464  0.0242
  527MOL0     H72660   9.990   6.445  11.522 -0.3451  0.0607 -0.7244
  527MOL0     H72661  10.164   6.355  11.651 -1.5982  1.0830 -1.0032
  527MOL0     H72662  10.005   6.292  11.719  2.6207  0.2144  2.9429
  527MOL0     H72663  10.054   6.082  11.540 -1.5662  1.2802 -0.6516
  527MOL0     H72664  10.219   6.141  11.556  0.3653 -3.7941  1.1661
  527MOL0     H72665  10.226   6.004  11.738 -0.0964  1.4157  0.8345
  527MOL0     H72666  10.149   6.138  11.819 -0.1439  0.5429 -1.0967
  527MOL0     H72667  10.001   5.906  11.678 -1.5506  0.8945 -0.4999
  527MOL0     H72668   9.921   6.045  11.748 -1.6310 -3.2093  1.9946
  527MOL0     H72669  10.012   5.972  11.965 -4.2270  1.6797 -0.4032
  527MOL0     H72670   9.890   5.867  11.887 -1.1206  2.5381  0.9025
  527MOL0     H72671  10.200   5.793  11.886 -0.3118 -1.9336 -0.4055
  527MOL0     H72672  10.067   5.709  11.808 -1.5048 -0.6394 -1.0821
  527MOL0     H72673   9.951   5.690  12.019  0.5199 -0.4078 -0.5471
  527MOL0     H72674  10.080   5.590  11.961 -1.1797  0.6455 -1.5605
  527MOL0     H72675  10.170   5.518  12.231 -0.2531 -0.6366  1.1948
  527MOL0     H72676  10.155   5.618  12.527 -0.7559 -0.2062 -1.9305
  527MOL0     H72677  10.272   5.755  12.538  2.4878 -0.3202  0.1902
  527MOL0     H72678  10.365   5.526  12.591 -4.5695 -1.8426 -1.0005
  527MOL0     H72679  10.355   5.492  12.427 -0.2571  0.9453 -1.2853
  527MOL0     H72680  10.513   5.649  12.349  0.3625 -1.0687 -0.4612
  527MOL0     H72681  10.515   5.741  12.507 -0.6077 -0.6263  2.4213
  527MOL0     H72682  10.620   5.556  12.611 -1.0902  2.8805  0.4396
  527MOL0     H72683  10.596   5.450  12.471 -0.8468 -0.0386 -1.5844
  527MOL0     H72684  10.797   5.358  12.574  0.0952  1.0199 -0.5110
  527MOL0     H72685  11.077   5.155  12.558 -1.2922 -2.8696  1.7038
  527MOL0     H72686  10.915   5.175  12.615  0.0522  0.3130  0.8518
  527MOL0     H72687  11.063   5.235  12.713  2.0032  1.3596 -0.9955
  527MOL0     H72688  11.522   5.372  12.286 -0.2799  1.0149  0.4386
  527MOL0     H72689  11.754   5.292  12.325 -1.9134  1.2925 -1.0323
  527MOL0     H72690  11.961   5.252  12.744  2.9927  1.7053 -3.6215
  527MOL0     H72691  11.809   5.162  12.717 -2.4065  2.6064 -0.9524
  527MOL0     H72692  12.057   5.118  12.544 -1.1622 -0.2359 -1.6686
  527MOL0     H72693  12.039   5.022  12.689 -0.6413 -1.0408 -0.7216
  527MOL0     H72694  11.955   4.898  12.482  0.5408  0.2618 -0.5919
  527MOL0     H72695  11.848   5.032  12.441 -0.6669 -0.0918  0.0190
  527MOL0     H72696  11.705   4.970  12.660  1.4711  0.0105  0.5941
  527MOL0     H72697  11.808   4.838  12.675 -0.6900 -0.9816 -0.4466
  527MOL0     H72698  11.763   4.742  12.467 -1.9500 -1.6616  0.2284
  527MOL0     H72699  11.635   4.744  12.575  2.8723 -1.8121  0.2675
  527MOL0     H72700  11.518   4.785  12.374 -1.4139  0.3339 -1.4147
  527MOL0     H72701  11.652   4.895  12.316 -1.0397 -2.0476 -1.4120
  527MOL0     H72702  11.453   5.033  12.363  0.3607 -0.0568 -0.1909
  527MOL0     H72703  11.589   5.069  12.473  1.6912 -0.8700 -2.1984
  527MOL0     H72704  11.361   5.063  12.577 -0.9726 -0.4545 -2.6684
  527MOL0     H72705  11.478   4.967  12.655 -1.1452  3.1755  0.3207
  527MOL0     H72706  11.707   5.382  12.741 -3.6037 -1.1904  1.2222
  527MOL0     H72707  11.484   5.448  12.705  2.3726  1.8354 -0.3227
  527MOL0     H72708  11.186   5.620  12.431  0.9925  1.0773  5.1277
  527MOL0     H72709  10.963   5.710  12.396  1.2262 -0.6348 -1.4066
  527MOL0     H72710  10.054   6.559  11.305  0.3539  3.1667  4.8776
  527MOL0     H72711  10.235   6.722  11.208 -6.7486 -0.8190  1.3864
  527MOL0     H72712  10.874   6.596  11.243 -1.3848 -0.2702 -0.4282
  527MOL0     H72713  11.043   6.686  11.112  0.3238 -0.0134  2.8889
  527MOL0     H72714  10.933   6.966  10.789 -0.8296 -1.7223  0.8074
  527MOL0     H72715  10.954   7.080  10.922  1.1293  0.8719 -0.1289
  527MOL0     H72716  11.220   7.050  10.853  0.2961 -2.2947  0.2379
  527MOL0     H72717  11.128   7.157  10.757  3.5336 -0.3938 -1.6042
  527MOL0     H72718  11.270   7.020  10.631 -1.1028 -0.2792 -0.4166
  527MOL0     H72719  11.190   6.878  10.698 -0.5144  0.2400 -1.2339
  527MOL0     H72720  11.028   7.070  10.534  0.9280 -0.2518 -0.4658
  527MOL0     H72721  11.017   6.907  10.534  0.2453  0.4146 -2.7964
  527MOL0     H72722  11.303   6.992  10.229 -0.5253  0.4372  0.5291
  527MOL0     H72723  10.781   6.998  10.969 -0.4337  0.0250  0.2551
  527MOL0     H72724  10.589   7.040  11.084 -1.8892  0.1369  0.4489
  527MOL0     H72725  10.518   6.899  11.047 -1.1229  2.2744 -0.8418
  527MOL0     H72726  10.532   6.932  11.225 -0.1754  0.2192  0.1429
  528MOL0     O72727   2.123   0.835   0.888 -0.2836  1.0137  0.3818
  528MOL0     C72728   2.170   0.821   0.770 -0.0800  0.1983  0.6748
  528MOL0     O72729   2.307   0.784   0.736  0.5629 -0.1192 -0.4993
  528MOL0     C72730   2.390   0.737   0.839  0.1579  0.7335  0.1329
  528MOL0     C72731   2.453   0.808   0.934 -1.2207  0.3107 -0.2733
  528MOL0     C72732   2.539   0.753   1.042 -0.0163 -0.0206  0.1204
  528MOL0     C72733   2.557   0.608   1.025 -0.1281  0.0208  0.1358
  528MOL0     O72734   2.640   0.534   1.111 -0.3224  0.6395 -0.0324
  528MOL0     C72735   2.690   0.595   1.231  0.0261  1.0342 -0.1718
  528MOL0     C72736   2.578   0.606   1.343  0.0319  1.0155  0.7720
  528MOL0     C72737   2.609   0.695   1.463 -0.6625 -0.3166  0.3811
  528MOL0     C72738   2.488   0.724   1.545  0.2255  0.0212 -0.0565
  528MOL0     C72739   2.434   0.623   1.655 -0.0612 -0.4705 -0.6525
  528MOL0     C72740   2.496   0.609   1.803  0.1132 -0.2274 -0.9632
  528MOL0     C72741   2.414   0.509   1.889 -0.5300 -0.1681  0.0135
  528MOL0     C72742   2.486   0.490   2.025 -0.0543  0.1743  0.3585
  528MOL0     N72743   2.405   0.386   2.092 -0.2057 -0.0003  0.6571
  528MOL0     C72744   2.443   0.256   2.112  0.3823 -0.4623  0.2618
  528MOL0     C72745   2.355   0.208   2.206  0.4795  0.8473  0.7981
  528MOL0     C72746   2.346   0.064   2.263  0.6076 -0.2610 -0.5460
  528MOL0     C72747   2.272  -0.036   2.179  0.0357 -0.4443  1.7999
  528MOL0     C72748   2.276  -0.184   2.231 -0.0427 -0.8213 -0.4601
  528MOL0     C72749   2.266  -0.197   2.386 -0.4875  0.2600 -0.1887
  528MOL0     O72750   2.247  -0.330   2.430  0.4525 -0.1226 -0.1491
  528MOL0     C72751   2.246  -0.356   2.567  0.8937 -0.2954 -0.0400
  528MOL0     C72752   2.213  -0.481   2.614  0.2285 -0.5414  0.1091
  528MOL0     C72753   2.204  -0.510   2.751  0.1399  0.2660  0.0765
  528MOL0     C72754   2.168  -0.656   2.779 -0.3178 -0.9302 -0.1532
  528MOL0     C72755   2.229  -0.409   2.842  0.2046  0.5827 -0.2722
  528MOL0     C72756   2.245  -0.442   2.985  0.1178 -1.2639  0.0228
  528MOL0     O72757   2.248  -0.330   3.067 -0.6774  0.7275  0.4916
  528MOL0     C72758   2.259  -0.359   3.197 -0.7339  0.2875 -0.8366
  528MOL0     C72759   2.373  -0.430   3.249  0.0410 -0.8366  0.0233
  528MOL0     C72760   2.395  -0.439   3.391  1.0455  0.8665 -0.2047
  528MOL0     C72761   2.302  -0.386   3.480  0.0678 -0.1225 -0.1382
  528MOL0     O72762   2.323  -0.391   3.612  0.0362 -0.2972 -0.0235
  528MOL0     C72763   2.447  -0.421   3.675  0.4019  0.0322  0.7600
  528MOL0     C72764   2.440  -0.426   3.830  0.9137  0.6851  0.7085
  528MOL0     C72765   2.329  -0.525   3.882 -0.0213  0.2003 -0.8319
  528MOL0     C72766   2.352  -0.580   4.026  0.9097  0.2569  0.2644
  528MOL0     C72767   2.386  -0.473   4.131 -0.4198 -0.1237 -0.7197
  528MOL0     C72768   2.257  -0.421   4.196  0.1823  0.4148  0.4595
  528MOL0     C72769   2.179  -0.313   4.108 -0.0917  0.1912  0.6654
  528MOL0     C72770   2.047  -0.271   4.171 -0.8304 -0.0659  0.2313
  528MOL0    Cl72771   1.918  -0.400   4.158 -0.5249 -0.1739 -0.0227
  528MOL0     C72772   2.190  -0.326   3.429 -0.1403 -0.1147 -0.6886
  528MOL0     C72773   2.168  -0.318   3.291  0.7116 -0.0265  0.0401
  528MOL0     O72774   2.253  -0.554   3.024 -1.3309 -0.1404 -0.1211
  528MOL0     C72775   2.256  -0.280   2.801  0.6242  0.8895 -0.1788
  528MOL0     C72776   2.277  -0.264   2.664 -0.7778 -0.5024 -0.7749
  528MOL0     N72777   2.268   0.311   2.237  0.2017  0.5369 -0.3845
  528MOL0     N72778   2.299   0.413   2.169 -1.0556 -0.2042 -0.2680
  528MOL0     C72779   2.483   0.538   0.923 -0.5940  0.3816  0.4675
  528MOL0     C72780   2.398   0.599   0.836  0.4470 -0.3703  0.1812
  528MOL0     C72781   2.081   0.859   0.658 -0.9381  0.1503 -0.2716
  528MOL0     C72782   1.949   0.802   0.644  0.5487  0.0435  0.0800
  528MOL0     C72783   1.853   0.857   0.548  0.8156  0.3716  0.1846
  528MOL0     C72784   1.896   0.957   0.461 -0.1108  0.0159  0.3861
  528MOL0     O72785   1.810   0.985   0.356 -0.8841  0.0342  0.8193
  528MOL0     C72786   1.778   1.125   0.358  0.5076  0.2392 -0.6745
  528MOL0     C72787   1.652   1.154   0.289  0.2140  0.8020  0.9643
  528MOL0     C72788   1.604   1.295   0.303  0.5655  0.1535  1.1272
  528MOL0     C72789   1.683   1.388   0.213  0.1714 -0.1920  0.5726
  528MOL0     C72790   1.663   1.346   0.070  0.1656 -0.4144 -0.4899
  528MOL0     C72791   1.660   1.320  -0.045 -0.5613  0.9449  0.0164
  528MOL0     C72792   2.022   1.020   0.498  0.2475 -0.3574  0.5705
  528MOL0     C72793   2.116   0.974   0.591  0.1208  0.2525 -0.0309
  528MOL0     C72794   2.256   1.035   0.592 -0.6033  0.1396 -0.2765
  528MOL0     H72795   2.430   0.915   0.934  1.1280  0.8784 -1.3283
  528MOL0     H72796   2.597   0.821   1.103 -0.6552  5.9683 -4.9264
  528MOL0     H72797   2.739   0.693   1.226  0.7285  0.9176  2.5082
  528MOL0     H72798   2.769   0.526   1.261  1.1591  1.0060 -2.9666
  528MOL0     H72799   2.481   0.631   1.299 -2.2623 -5.2112  1.3108
  528MOL0     H72800   2.548   0.506   1.375 -0.4055  1.3992  1.6029
  528MOL0     H72801   2.676   0.632   1.522 -1.7241  0.1549  2.1916
  528MOL0     H72802   2.658   0.792   1.446  1.2805 -1.0785  1.3113
  528MOL0     H72803   2.521   0.810   1.603 -0.6795  0.8016 -0.6549
  528MOL0     H72804   2.404   0.760   1.484  0.5711 -0.1901 -0.6626
  528MOL0     H72805   2.416   0.524   1.613 -0.1711 -1.4556  1.5379
  528MOL0     H72806   2.340   0.674   1.681 -0.2441 -1.6187  1.0773
  528MOL0     H72807   2.596   0.569   1.785 -0.5842 -2.3757 -0.4427
  528MOL0     H72808   2.508   0.705   1.855 -0.7294 -0.7686  0.3038
  528MOL0     H72809   2.419   0.412   1.839  5.2778 -0.0482 -0.2916
  528MOL0     H72810   2.306   0.530   1.892 -1.1822 -3.2454  1.5328
  528MOL0     H72811   2.593   0.475   2.006 -0.0098  1.5124 -0.6733
  528MOL0     H72812   2.482   0.587   2.075 -2.0511 -0.2263  1.0510
  528MOL0     H72813   2.535   0.208   2.078 -1.1100 -2.3892 -1.2637
  528MOL0     H72814   2.319   0.077   2.368  2.8198  0.5219 -0.0017
  528MOL0     H72815   2.452   0.038   2.275  1.5075  0.8740 -4.5529
  528MOL0     H72816   2.166  -0.015   2.190  0.1659  0.7535  0.9244
  528MOL0     H72817   2.298  -0.015   2.074 -1.6890  0.9528  1.6171
  528MOL0     H72818   2.202  -0.251   2.186 -0.0620 -2.7972  2.2980
  528MOL0     H72819   2.373  -0.226   2.202  0.2631 -1.1913  1.0478
  528MOL0     H72820   2.358  -0.165   2.437 -0.9078 -1.0051  1.4396
  528MOL0     H72821   2.196  -0.120   2.419 -0.3701 -0.8734  3.0890
  528MOL0     H72822   2.189  -0.560   2.543  2.4794  0.4892 -1.9726
  528MOL0     H72823   2.254  -0.723   2.785 -1.0878 -2.1218 -1.6539
  528MOL0     H72824   2.104  -0.699   2.702 -2.2419 -0.4489  1.1066
  528MOL0     H72825   2.123  -0.677   2.876 -1.0904 -0.0996 -0.3245
  528MOL0     H72826   2.455  -0.461   3.185  1.0321 -0.9825  1.2962
  528MOL0     H72827   2.479  -0.490   3.437  0.0247  0.4343  1.2448
  528MOL0     H72828   2.484  -0.514   3.632 -1.0653 -0.0989 -0.2997
  528MOL0     H72829   2.527  -0.350   3.649  2.9929 -0.5983  5.7214
  528MOL0     H72830   2.533  -0.453   3.882  0.9796  1.0986  0.8170
  528MOL0     H72831   2.425  -0.322   3.861 -2.5205  0.2848  0.7364
  528MOL0     H72832   2.321  -0.611   3.815  0.1733 -1.2551  0.9389
  528MOL0     H72833   2.234  -0.470   3.878  1.2447  2.9689  2.4078
  528MOL0     H72834   2.440  -0.645   4.016 -0.0498 -1.4684  2.3331
  528MOL0     H72835   2.258  -0.624   4.061 -0.4207  2.6970 -0.0354
  528MOL0     H72836   2.456  -0.512   4.206  0.4224  3.1337  0.3379
  528MOL0     H72837   2.440  -0.387   4.091 -0.0202  0.1546  0.3648
  528MOL0     H72838   2.279  -0.378   4.294  2.0628  0.2202  0.1626
  528MOL0     H72839   2.203  -0.512   4.224  4.2945 -2.0764  1.1733
  528MOL0     H72840   2.158  -0.336   4.003 -0.3166  3.2350 -0.0494
  528MOL0     H72841   2.246  -0.227   4.106  0.7927 -0.3403  3.4762
  528MOL0     H72842   2.004  -0.175   4.142  2.9703  1.0583 -2.4306
  528MOL0     H72843   2.062  -0.250   4.277 -2.2982  4.5143 -0.2687
  528MOL0     H72844   2.109  -0.274   3.480 -1.3143 -1.9728 -0.5642
  528MOL0     H72845   2.081  -0.271   3.246  2.4505  1.7158 -1.7303
  528MOL0     H72846   2.293  -0.197   2.861  0.7012  2.3635 -2.1794
  528MOL0     H72847   2.314  -0.165   2.637  1.8512 -0.8376  1.1959
  528MOL0     H72848   2.500   0.432   0.914 -3.4566 -0.1820  0.8656
  528MOL0     H72849   2.335   0.552   0.761  0.7296  1.5858 -1.3847
  528MOL0     H72850   1.936   0.723   0.717  3.6207 -1.6345 -1.0357
  528MOL0     H72851   1.750   0.822   0.556  1.4682 -1.7329 -0.0456
  528MOL0     H72852   1.785   1.160   0.461 -1.3281 -2.0340  0.3171
  528MOL0     H72853   1.857   1.167   0.295  0.3703 -1.5740 -2.1284
  528MOL0     H72854   1.575   1.095   0.340  1.0660 -1.3828 -0.1784
  528MOL0     H72855   1.665   1.111   0.190  3.6173 -2.4306  2.5517
  528MOL0     H72856   1.500   1.294   0.268  1.3920 -3.3191 -1.8181
  528MOL0     H72857   1.607   1.322   0.409 -0.7946 -0.6372  1.3834
  528MOL0     H72858   1.791   1.394   0.230  0.1545  1.2833  0.2535
  528MOL0     H72859   1.638   1.487   0.220  0.1735 -0.1453 -0.0852
  528MOL0     H72860   1.643   1.281  -0.143 -2.0769 -1.9065  1.3001
  528MOL0     H72861   2.052   1.103   0.434  1.3602 -2.9570 -2.5463
  528MOL0     H72862   2.331   0.976   0.539 -0.6612  0.1745 -0.3970
  528MOL0     H72863   2.251   1.133   0.545 -1.1740  0.6966  0.9059
  528MOL0     H72864   2.282   1.060   0.695  0.7881  5.1036 -1.5924
  529MOL0     O72865   2.094   0.382   8.331 -0.3705  0.2592 -0.2008
  529MOL0     C72866   1.998   0.453   8.309 -0.0791 -0.1628  0.4390
  529MOL0     O72867   2.004   0.574   8.239 -0.7276  0.1776  0.0655
  529MOL0     C72868   2.127   0.629   8.208  0.1672 -0.2497  0.2952
  529MOL0     C72869   2.161   0.749   8.281 -0.2741 -0.5528  0.6713
  529MOL0     C72870   2.294   0.803   8.258  0.6368  0.5325 -0.2796
  529MOL0     C72871   2.376   0.740   8.162 -0.6971 -0.2977 -1.2999
  529MOL0     O72872   2.499   0.804   8.145  1.0475  0.4889 -0.1985
  529MOL0     C72873   2.600   0.714   8.084  0.4373  0.4815  0.1251
  529MOL0     C72874   2.728   0.788   8.101 -0.0981  0.2846  0.9433
  529MOL0     C72875   2.789   0.755   8.242  0.5014 -0.5833  0.2404
  529MOL0     C72876   2.900   0.848   8.271  1.2962 -0.9298  0.2252
  529MOL0     C72877   3.022   0.810   8.189  0.7039  0.0209  0.4461
  529MOL0     C72878   3.147   0.891   8.220  0.1118 -0.2723 -0.2408
  529MOL0     C72879   3.263   0.864   8.128 -0.1020 -0.2482 -0.0103
  529MOL0     C72880   3.382   0.800   8.185 -1.3675 -0.3742  0.3593
  529MOL0     N72881   3.464   0.910   8.239 -0.2315 -0.4340  0.0430
  529MOL0     C72882   3.460   0.947   8.376  0.2282  0.0801 -0.3562
  529MOL0     C72883   3.544   1.046   8.388 -0.5281 -0.0616  0.5938
  529MOL0     C72884   3.576   1.104   8.522  0.4476 -0.4672  0.1753
  529MOL0     C72885   3.456   1.208   8.560  0.0091 -0.3569  0.0330
  529MOL0     C72886   3.487   1.305   8.674 -0.7520  0.2860  1.0294
  529MOL0     C72887   3.510   1.230   8.806 -0.1108 -0.4866  0.0431
  529MOL0     O72888   3.586   1.316   8.893 -0.4854  0.2616 -0.6404
  529MOL0     C72889   3.642   1.244   8.999  0.2496 -0.7763 -0.1721
  529MOL0     C72890   3.722   1.324   9.076 -0.5880 -0.4419 -0.1000
  529MOL0     C72891   3.790   1.274   9.190  0.4116 -0.1206 -0.7187
  529MOL0     C72892   3.877   1.369   9.267 -0.8753  0.6512  0.1993
  529MOL0     C72893   3.768   1.139   9.234 -0.1204 -0.5827  0.7958
  529MOL0     C72894   3.829   1.076   9.356  0.3527  0.2023 -0.0440
  529MOL0     O72895   3.883   1.152   9.464  0.9893 -0.4153  0.7001
  529MOL0     C72896   3.876   1.096   9.591 -0.1868  0.4433 -0.0538
  529MOL0     C72897   3.966   1.001   9.628 -0.0378 -0.2521 -0.2697
  529MOL0     C72898   3.967   0.948   9.756 -0.2984  0.5178  1.3404
  529MOL0     C72899   3.883   0.997   9.848 -0.0216  0.4768  0.2728
  529MOL0     O72900   3.890   0.963   9.980 -0.7834  0.1419 -0.2857
  529MOL0     C72901   3.923   0.828  10.019  0.5350  0.9041 -0.0327
  529MOL0     C72902   4.055   0.802  10.100 -1.0508 -0.3512  0.0804
  529MOL0     C72903   4.049   0.865  10.243  0.2371  0.4190  0.0103
  529MOL0     C72904   4.171   0.838  10.311 -0.0792  0.3640 -0.2356
  529MOL0     C72905   4.168   0.851  10.467 -0.1177 -0.8257 -0.4473
  529MOL0     C72906   4.065   0.763  10.536 -0.4168 -0.1776 -0.2888
  529MOL0     C72907   4.072   0.762  10.693 -0.0022 -0.1050 -0.1046
  529MOL0     C72908   3.997   0.650  10.766  1.1128 -0.4003 -0.3497
  529MOL0    Cl72909   4.021   0.652  10.941 -0.0828 -0.0185  0.4460
  529MOL0     C72910   3.787   1.090   9.819 -0.6208 -0.1740 -0.2217
  529MOL0     C72911   3.790   1.146   9.693 -0.2681 -0.1904 -0.2924
  529MOL0     O72912   3.822   0.955   9.360 -0.1242  0.4578 -0.7480
  529MOL0     C72913   3.691   1.057   9.143  0.3117 -0.4989 -1.4112
  529MOL0     C72914   3.631   1.109   9.032  0.1380  0.2913  0.3492
  529MOL0     N72915   3.610   1.064   8.253  0.0878 -0.0088  0.9988
  529MOL0     N72916   3.548   0.988   8.168  0.5215 -1.1094  0.7242
  529MOL0     C72917   2.336   0.623   8.096 -0.0359  0.1358 -1.2457
  529MOL0     C72918   2.209   0.562   8.123 -0.7983  0.2311 -0.0273
  529MOL0     C72919   1.856   0.420   8.333  0.1442 -0.1616  0.2127
  529MOL0     C72920   1.763   0.515   8.378  0.4742  0.2941  0.2443
  529MOL0     C72921   1.629   0.485   8.398  1.1253  0.6372 -0.2167
  529MOL0     C72922   1.581   0.354   8.365 -0.9842  0.7812 -0.6382
  529MOL0     O72923   1.447   0.315   8.376 -0.3080 -0.3339  0.3285
  529MOL0     C72924   1.352   0.419   8.402 -0.0004 -0.8049  0.1281
  529MOL0     C72925   1.213   0.360   8.439  0.2583 -0.2087  0.1771
  529MOL0     C72926   1.155   0.281   8.333  0.3091 -0.3670  0.1317
  529MOL0     C72927   1.013   0.231   8.362  0.4128 -0.3048 -0.0182
  529MOL0     C72928   0.940   0.214   8.239 -0.9918 -0.7993  0.3978
  529MOL0     C72929   0.904   0.203   8.124  0.6558 -0.2716  0.4261
  529MOL0     C72930   1.666   0.258   8.315 -1.0428 -0.1409 -0.3717
  529MOL0     C72931   1.805   0.286   8.310 -0.4798 -0.2039  0.6463
  529MOL0     C72932   1.899   0.183   8.248 -1.0601  0.1606 -0.8191
  529MOL0     H72933   2.093   0.793   8.353 -0.3551 -0.5210  0.5742
  529MOL0     H72934   2.325   0.885   8.322 -0.0909  0.8472 -0.3193
  529MOL0     H72935   2.577   0.705   7.978 -0.6178  3.7699 -0.0464
  529MOL0     H72936   2.590   0.611   8.119 -2.8013 -0.8450 -3.9050
  529MOL0     H72937   2.792   0.764   8.016 -0.0989  2.0951  0.3891
  529MOL0     H72938   2.709   0.894   8.084  1.3927  0.4761  0.3645
  529MOL0     H72939   2.716   0.761   8.324 -0.8757 -1.4292 -0.8753
  529MOL0     H72940   2.838   0.658   8.231  3.0639  0.2138  3.1621
  529MOL0     H72941   2.862   0.949   8.251  0.8682 -0.4077  3.2291
  529MOL0     H72942   2.917   0.847   8.379  0.9432  0.6302  0.3230
  529MOL0     H72943   2.994   0.814   8.083  0.8085 -0.5851  0.3942
  529MOL0     H72944   3.052   0.713   8.229 -1.8071 -1.2981 -0.6894
  529MOL0     H72945   3.119   0.997   8.215  0.3555 -0.1572  0.6569
  529MOL0     H72946   3.179   0.876   8.324 -0.4393  0.7367  0.0859
  529MOL0     H72947   3.293   0.947   8.063 -1.8509 -1.2263 -2.2472
  529MOL0     H72948   3.224   0.788   8.058  0.6766 -1.0222  0.3740
  529MOL0     H72949   3.363   0.735   8.271  1.0433  0.7747  1.8653
  529MOL0     H72950   3.439   0.755   8.103 -2.1245 -0.1784 -0.2844
  529MOL0     H72951   3.409   0.904   8.461  1.4518  0.4800  0.6141
  529MOL0     H72952   3.672   1.153   8.505  1.0362 -1.5579  0.2988
  529MOL0     H72953   3.578   1.024   8.596  0.0114  1.6691  2.6618
  529MOL0     H72954   3.432   1.264   8.469 -2.6449  0.9615  1.4264
  529MOL0     H72955   3.362   1.160   8.587 -0.7863  1.3767  0.5284
  529MOL0     H72956   3.572   1.364   8.640 -0.1317 -0.6126  0.9758
  529MOL0     H72957   3.407   1.379   8.682 -2.6398 -0.9714 -3.1669
  529MOL0     H72958   3.408   1.214   8.842  0.1323  1.1503  1.5992
  529MOL0     H72959   3.562   1.136   8.786  0.4700 -0.0627 -0.4683
  529MOL0     H72960   3.712   1.431   9.061 -2.0243 -0.8130 -2.2078
  529MOL0     H72961   3.889   1.457   9.203 -3.2282  0.2280 -0.9238
  529MOL0     H72962   3.971   1.315   9.286 -1.9245 -1.3303  0.0742
  529MOL0     H72963   3.828   1.397   9.361 -0.4683  1.9975  0.0273
  529MOL0     H72964   4.044   0.965   9.560  0.7875  4.6035 -2.2753
  529MOL0     H72965   4.045   0.874   9.776 -0.9299 -1.2447 -1.8517
  529MOL0     H72966   3.846   0.792  10.088  1.3919 -0.9034  0.0535
  529MOL0     H72967   3.924   0.753   9.939 -2.4436  1.2806 -0.5234
  529MOL0     H72968   4.073   0.694  10.107  0.4758 -0.0671  1.2377
  529MOL0     H72969   4.127   0.848  10.032 -0.3512 -1.0124  0.3620
  529MOL0     H72970   3.967   0.813  10.294  1.2786  0.1038  1.4048
  529MOL0     H72971   4.019   0.969  10.253  1.2305  0.9654 -2.2475
  529MOL0     H72972   4.245   0.911  10.274 -0.5758  0.1735 -1.6983
  529MOL0     H72973   4.203   0.738  10.281  1.8428  0.4815  1.2453
  529MOL0     H72974   4.266   0.818  10.504 -0.2049 -1.1353 -0.4915
  529MOL0     H72975   4.146   0.951  10.507 -2.0752 -1.2203 -0.4279
  529MOL0     H72976   4.077   0.659  10.503 -0.0785 -0.4659  0.7116
  529MOL0     H72977   3.962   0.783  10.503 -1.0557 -1.8747  0.5543
  529MOL0     H72978   4.032   0.853  10.739  1.0538 -0.2494  1.1517
  529MOL0     H72979   4.174   0.751  10.730  0.3516 -0.8629 -1.2359
  529MOL0     H72980   4.031   0.553  10.730 -0.4727 -1.5462  1.0471
  529MOL0     H72981   3.891   0.666  10.744  1.4625  4.3637  0.3685
  529MOL0     H72982   3.703   1.113   9.883 -1.6389  1.7116 -2.1360
  529MOL0     H72983   3.719   1.221   9.659  3.5033  3.0328 -1.8891
  529MOL0     H72984   3.663   0.953   9.160  0.2646 -0.1468  1.0421
  529MOL0     H72985   3.568   1.043   8.974  0.7448  1.8549 -2.2518
  529MOL0     H72986   2.409   0.580   8.028 -0.0608  1.0180 -1.8506
  529MOL0     H72987   2.169   0.473   8.076 -0.8768  1.3208 -2.1859
  529MOL0     H72988   1.807   0.611   8.401  0.3348  0.2899  0.5303
  529MOL0     H72989   1.567   0.563   8.440 -1.4550 -1.6170  0.4629
  529MOL0     H72990   1.388   0.481   8.485 -0.8967 -1.8268  1.3214
  529MOL0     H72991   1.323   0.476   8.313 -1.4794  0.1089  1.1384
  529MOL0     H72992   1.155   0.450   8.459 -0.6935 -0.7316 -0.1735
  529MOL0     H72993   1.240   0.301   8.527  1.4172 -1.2804 -0.8533
  529MOL0     H72994   1.157   0.345   8.245 -0.1981 -0.2555  0.2016
  529MOL0     H72995   1.218   0.192   8.318 -0.1098 -0.5099 -0.7666
  529MOL0     H72996   0.958   0.295   8.432 -2.2371 -2.7452  0.2906
  529MOL0     H72997   1.014   0.131   8.407 -2.5997 -0.7775 -0.7970
  529MOL0     H72998   0.858   0.201   8.028  1.0185  0.1645  0.2412
  529MOL0     H72999   1.625   0.160   8.290 -0.9527 -0.2995  0.0797
  529MOL0     H73000   1.847   0.095   8.208 -0.1750 -0.9911  0.5118
  529MOL0     H73001   1.955   0.224   8.163 -0.5754 -2.9188 -2.1384
  529MOL0     H73002   1.959   0.141   8.328 -1.2278  0.2650 -0.6381
  530MOL0     O73003   5.163   4.829   4.726  0.8529  0.2196  0.0604
  530MOL0     C73004   5.052   4.790   4.683 -0.5388 -0.4108 -0.4737
  530MOL0     O73005   5.008   4.833   4.565 -0.0312 -0.0381  0.3276
  530MOL0     C73006   5.023   4.965   4.527  0.1125  0.3266 -0.3572
  530MOL0     C73007   4.961   5.069   4.605 -0.0201  0.5599  0.5662
  530MOL0     C73008   4.974   5.197   4.558 -0.5688 -0.5001 -0.2332
  530MOL0     C73009   5.062   5.225   4.449  0.7605  0.4687 -0.5181
  530MOL0     O73010   5.070   5.355   4.420 -0.1466  0.2303 -0.3276
  530MOL0     C73011   5.185   5.414   4.365  1.4807  0.6947  0.2335
  530MOL0     C73012   5.174   5.566   4.337 -0.5665  0.5654 -0.3784
  530MOL0     C73013   5.294   5.642   4.289  0.3644  0.1540  0.0445
  530MOL0     C73014   5.286   5.793   4.323 -0.6172  0.3158 -0.3470
  530MOL0     C73015   5.416   5.858   4.276  0.7108  0.2206  0.7223
  530MOL0     C73016   5.396   6.010   4.273  0.2892  0.1667 -1.1560
  530MOL0     C73017   5.332   6.078   4.402 -1.7155 -0.7112 -1.2881
  530MOL0     C73018   5.374   6.228   4.419 -0.1935  1.2554  0.3763
  530MOL0     N73019   5.355   6.295   4.552  0.4073  0.2173  0.5848
  530MOL0     C73020   5.239   6.345   4.609  0.6688 -1.0095  0.4594
  530MOL0     C73021   5.267   6.389   4.723  0.4211  0.3114 -1.0920
  530MOL0     C73022   5.185   6.451   4.825  0.9524 -1.2816  0.6957
  530MOL0     C73023   5.164   6.596   4.799 -0.3298  0.8625 -0.5997
  530MOL0     C73024   5.290   6.677   4.823  0.6856 -0.4414 -1.0229
  530MOL0     C73025   5.266   6.822   4.836  0.5545 -0.7718  0.1685
  530MOL0     O73026   5.215   6.867   4.965 -0.2653 -0.5040 -0.2759
  530MOL0     C73027   5.128   6.974   4.974 -0.2896 -0.6482  0.2629
  530MOL0     C73028   5.124   7.086   4.878 -0.8091  0.6722  0.2407
  530MOL0     C73029   5.033   7.188   4.879  0.1093  0.2477  0.5257
  530MOL0     C73030   5.045   7.291   4.767  0.4649 -0.2326  0.6377
  530MOL0     C73031   4.929   7.194   4.980  0.4512  0.3418  0.0715
  530MOL0     C73032   4.823   7.301   4.998  1.1273  0.2139  0.3863
  530MOL0     O73033   4.714   7.264   5.074  0.4466 -0.0386 -0.2258
  530MOL0     C73034   4.628   7.366   5.114  0.4724  1.2217  0.6385
  530MOL0     C73035   4.518   7.411   5.043 -0.4985 -0.7451 -0.4114
  530MOL0     C73036   4.442   7.513   5.097 -0.0586  0.4280  0.3819
  530MOL0     C73037   4.458   7.552   5.230  0.5017 -0.4971 -0.8447
  530MOL0     O73038   4.375   7.634   5.302  0.2259 -0.5078 -0.0475
  530MOL0     C73039   4.247   7.675   5.252  1.2510 -0.2194 -0.6666
  530MOL0     C73040   4.141   7.679   5.371 -1.3774  0.4982  0.9248
  530MOL0     C73041   4.181   7.788   5.474  0.8775  0.7591  0.2048
  530MOL0     C73042   4.056   7.820   5.553  0.6124 -0.4365 -0.7724
  530MOL0     C73043   4.089   7.875   5.689  0.2582  0.4986 -0.3919
  530MOL0     C73044   4.176   7.999   5.684  0.0291 -0.4287  0.7175
  530MOL0     C73045   4.232   8.031   5.820  0.1153 -0.5307 -0.6923
  530MOL0     C73046   4.259   8.176   5.857  0.3704  0.2780  0.0280
  530MOL0    Cl73047   4.109   8.257   5.913  0.0786  0.6072 -0.4004
  530MOL0     C73048   4.547   7.483   5.310  0.4703 -0.3107 -0.0206
  530MOL0     C73049   4.639   7.401   5.251  1.1511 -0.2123  0.2623
  530MOL0     O73050   4.839   7.412   4.947  0.0388 -0.3871  0.2932
  530MOL0     C73051   4.941   7.092   5.082 -0.6207  0.2939  0.7565
  530MOL0     C73052   5.039   6.988   5.076  0.0610  0.2785  0.4728
  530MOL0     N73053   5.399   6.359   4.755  0.4733  0.5268 -0.2218
  530MOL0     N73054   5.452   6.303   4.650 -0.5510  0.1720  0.3883
  530MOL0     C73055   5.121   5.122   4.373 -0.8424 -0.1549 -0.2047
  530MOL0     C73056   5.095   4.997   4.419 -0.1662 -0.3204  0.7796
  530MOL0     C73057   4.963   4.691   4.743  1.0081 -0.4612 -0.0098
  530MOL0     C73058   4.900   4.600   4.646 -0.7471  0.3521 -0.9045
  530MOL0     C73059   4.817   4.499   4.702 -0.4165 -0.3989  0.1427
  530MOL0     C73060   4.787   4.495   4.833 -0.1715  0.1674 -0.4495
  530MOL0     O73061   4.700   4.402   4.888  0.4921  0.0229  0.2710
  530MOL0     C73062   4.753   4.296   4.964 -0.4823  0.0045  0.0691
  530MOL0     C73063   4.643   4.199   5.009  0.6716 -0.5212 -0.5512
  530MOL0     C73064   4.574   4.258   5.133  0.2757 -0.0455 -0.3588
  530MOL0     C73065   4.475   4.143   5.183  0.2964 -0.6109  0.5105
  530MOL0     C73066   4.381   4.201   5.286  0.3930  0.8360  0.1271
  530MOL0     C73067   4.307   4.238   5.372  0.6886  0.3367 -0.7970
  530MOL0     C73068   4.846   4.591   4.930  0.3878 -0.4936  0.5119
  530MOL0     C73069   4.929   4.687   4.885 -0.0178 -1.1538 -0.2032
  530MOL0     C73070   4.995   4.782   4.988  0.6345  0.3971 -0.8828
  530MOL0     H73071   4.893   5.038   4.685 -0.5428 -3.1301 -1.0875
  530MOL0     H73072   4.924   5.282   4.602  0.9259 -0.4160  1.3985
  530MOL0     H73073   5.208   5.360   4.272  1.2452  0.9151  0.0475
  530MOL0     H73074   5.269   5.398   4.433  3.3203  0.4761 -1.9663
  530MOL0     H73075   5.099   5.571   4.258 -0.5543 -1.1065 -0.5242
  530MOL0     H73076   5.134   5.610   4.429 -0.4778  0.5352 -0.3256
  530MOL0     H73077   5.391   5.613   4.331 -0.1444  1.2608  2.1650
  530MOL0     H73078   5.300   5.628   4.181  1.3786  1.3504 -0.0821
  530MOL0     H73079   5.201   5.835   4.269 -0.2757  1.9761  0.3572
  530MOL0     H73080   5.272   5.814   4.429  1.1238  0.1792 -0.0496
  530MOL0     H73081   5.434   5.823   4.174  0.4672  3.5057 -0.5494
  530MOL0     H73082   5.491   5.823   4.347 -1.0151  1.3891  3.2852
  530MOL0     H73083   5.495   6.050   4.248  0.8629 -0.6463 -0.2899
  530MOL0     H73084   5.318   6.021   4.198 -3.9016 -1.2390  2.5170
  530MOL0     H73085   5.378   6.046   4.496 -0.6941  2.4140 -0.6094
  530MOL0     H73086   5.223   6.070   4.402 -2.0936  2.2866  1.8287
  530MOL0     H73087   5.483   6.231   4.406  0.1404  3.0368  2.7696
  530MOL0     H73088   5.325   6.290   4.343  0.9888  1.6702 -0.0711
  530MOL0     H73089   5.137   6.347   4.572  1.0803  1.3501 -0.7288
  530MOL0     H73090   5.236   6.436   4.921  0.2524 -0.0423  1.2953
  530MOL0     H73091   5.086   6.406   4.842  0.3044 -1.6077 -3.0814
  530MOL0     H73092   5.133   6.604   4.694  0.1506  0.0484 -0.8189
  530MOL0     H73093   5.077   6.633   4.854  0.8255  3.0703 -0.1651
  530MOL0     H73094   5.337   6.650   4.918  0.2535 -2.0120 -1.2287
  530MOL0     H73095   5.347   6.656   4.732  1.5032 -0.6357 -0.4782
  530MOL0     H73096   5.363   6.869   4.822  1.3073 -1.8658  1.4934
  530MOL0     H73097   5.192   6.845   4.758  0.3504  1.0667  0.8527
  530MOL0     H73098   5.198   7.089   4.798 -0.5424  2.2283  0.5078
  530MOL0     H73099   4.946   7.329   4.739  1.5197  0.9184 -1.8468
  530MOL0     H73100   5.099   7.254   4.680 -0.1781  1.2855 -0.4493
  530MOL0     H73101   5.109   7.373   4.800  1.0455 -0.6633  0.6018
  530MOL0     H73102   4.496   7.374   4.943 -1.1218 -0.2061 -0.4816
  530MOL0     H73103   4.363   7.556   5.036 -1.2173 -0.4635  1.1932
  530MOL0     H73104   4.268   7.777   5.220 -0.1966  0.1280 -0.5972
  530MOL0     H73105   4.202   7.622   5.167 -2.3897  1.0176  0.2975
  530MOL0     H73106   4.048   7.689   5.314  1.3506  1.4414 -3.9917
  530MOL0     H73107   4.146   7.581   5.420 -1.7872  0.2298  0.4336
  530MOL0     H73108   4.219   7.881   5.430  1.9027  0.7578  1.0528
  530MOL0     H73109   4.263   7.753   5.537 -0.6169 -2.7113  0.4195
  530MOL0     H73110   3.996   7.728   5.554 -1.8706  1.0910 -1.3835
  530MOL0     H73111   3.993   7.892   5.499 -0.7616 -2.2606 -1.7291
  530MOL0     H73112   3.994   7.894   5.740  0.6837 -0.5599  0.8584
  530MOL0     H73113   4.136   7.795   5.748 -2.0643  0.6011  1.7502
  530MOL0     H73114   4.108   8.078   5.650 -0.1081 -1.3918 -1.3930
  530MOL0     H73115   4.261   7.999   5.615 -0.7232 -0.9664 -0.2506
  530MOL0     H73116   4.329   7.981   5.817  0.0947 -0.7552  1.1876
  530MOL0     H73117   4.169   7.991   5.900 -0.1891  0.0725 -0.6243
  530MOL0     H73118   4.293   8.236   5.772  1.7417  1.3653  1.2715
  530MOL0     H73119   4.326   8.172   5.944 -0.3355  3.2284  0.8328
  530MOL0     H73120   4.540   7.497   5.417  1.7406 -0.0305  0.0355
  530MOL0     H73121   4.718   7.358   5.311  2.0575 -0.9290 -1.3797
  530MOL0     H73122   4.886   7.096   5.176  0.1443 -3.9382  1.5762
  530MOL0     H73123   5.051   6.909   5.150  0.5384 -1.7402 -1.6167
  530MOL0     H73124   5.186   5.138   4.287  1.3557 -1.9126  1.0310
  530MOL0     H73125   5.132   4.918   4.355 -1.2130  0.5044 -0.9046
  530MOL0     H73126   4.933   4.590   4.543 -1.1401 -1.5283 -0.8828
  530MOL0     H73127   4.782   4.423   4.633 -0.2522  0.6761 -1.1706
  530MOL0     H73128   4.834   4.246   4.910 -1.2828 -2.1103  0.6911
  530MOL0     H73129   4.798   4.331   5.057 -1.4538 -0.0942  0.5893
  530MOL0     H73130   4.691   4.102   5.026  1.1339 -0.1010  0.6494
  530MOL0     H73131   4.566   4.183   4.933 -0.2621  0.6130  0.1207
  530MOL0     H73132   4.641   4.287   5.214 -0.3299  0.7910 -0.1460
  530MOL0     H73133   4.517   4.349   5.115  0.8146  0.3265 -0.1973
  530MOL0     H73134   4.530   4.056   5.220  0.8034 -1.7269 -2.6112
  530MOL0     H73135   4.417   4.113   5.095  2.1009  1.6067 -1.5425
  530MOL0     H73136   4.243   4.276   5.449 -0.7696  1.2431 -2.3746
  530MOL0     H73137   4.840   4.564   5.035 -2.0230  0.5655  0.6970
  530MOL0     H73138   4.947   4.879   5.000 -2.5852 -0.6848 -3.3476
  530MOL0     H73139   4.996   4.728   5.083 -1.7653 -0.2804 -1.1659
  530MOL0     H73140   5.100   4.799   4.961  0.3392  0.9960 -1.7026
  531MOL0     O73141   6.961   2.433   6.615  0.6728  0.2340  0.5037
  531MOL0     C73142   6.978   2.384   6.724 -0.4116 -1.3509  0.1558
  531MOL0     O73143   6.944   2.254   6.758  0.7588 -0.1859 -0.3375
  531MOL0     C73144   6.826   2.198   6.717  0.4017  0.0163 -1.6470
  531MOL0     C73145   6.823   2.060   6.714  0.3755 -0.0296  0.3668
  531MOL0     C73146   6.700   1.991   6.713  0.2092 -0.1915  0.4404
  531MOL0     C73147   6.579   2.053   6.701 -0.0628  0.0201  0.3894
  531MOL0     O73148   6.456   1.998   6.690  0.4449 -0.5067  0.3487
  531MOL0     C73149   6.452   1.872   6.775 -0.0845 -1.1936 -0.4083
  531MOL0     C73150   6.322   1.805   6.730  0.0278  0.4096 -0.0074
  531MOL0     C73151   6.338   1.722   6.603 -0.3080 -0.3910  0.2270
  531MOL0     C73152   6.385   1.812   6.484  0.0579  0.3068  1.3431
  531MOL0     C73153   6.361   1.749   6.337  0.4937  0.6632  0.0260
  531MOL0     C73154   6.212   1.745   6.275 -0.3135 -0.3063 -0.6614
  531MOL0     C73155   6.222   1.707   6.134  0.6823 -0.2366  0.3770
  531MOL0     C73156   6.279   1.558   6.115 -0.4008 -0.1920  0.2473
  531MOL0     N73157   6.216   1.447   6.183 -0.3551 -0.6571 -0.8498
  531MOL0     C73158   6.278   1.385   6.292 -0.2582 -0.4099  1.5433
  531MOL0     C73159   6.181   1.304   6.324 -0.3165 -0.8893 -0.2195
  531MOL0     C73160   6.206   1.202   6.433  0.0732  0.2693  0.6872
  531MOL0     C73161   6.094   1.206   6.538  0.2949  0.4926 -0.4754
  531MOL0     C73162   6.110   1.322   6.647 -0.0137 -0.4643 -0.2100
  531MOL0     C73163   5.972   1.389   6.656 -0.4841 -0.0838 -0.1052
  531MOL0     O73164   5.883   1.297   6.716 -0.3255 -0.0975 -0.7492
  531MOL0     C73165   5.863   1.292   6.853  0.5662 -0.5385 -1.1612
  531MOL0     C73166   5.842   1.161   6.908  0.0156 -0.4831  0.5959
  531MOL0     C73167   5.845   1.140   7.042 -0.0996  0.6263 -0.4635
  531MOL0     C73168   5.816   1.000   7.090  1.1334 -0.4616  0.0118
  531MOL0     C73169   5.864   1.245   7.136 -0.5081  0.3742 -0.2601
  531MOL0     C73170   5.878   1.229   7.281  0.4419 -0.8959 -0.6507
  531MOL0     O73171   5.956   1.129   7.339  0.6998  0.2504  0.0082
  531MOL0     C73172   6.028   1.130   7.458  0.0994 -0.2224  0.7147
  531MOL0     C73173   6.108   1.019   7.480 -0.4917 -0.5904  0.4009
  531MOL0     C73174   6.174   0.989   7.597  0.5030 -0.4102  0.1543
  531MOL0     C73175   6.154   1.072   7.706 -0.3611  0.1140  0.3589
  531MOL0     O73176   6.210   1.046   7.835  0.0944 -0.0261  0.8070
  531MOL0     C73177   6.291   1.150   7.900 -0.1256 -1.7346  0.3306
  531MOL0     C73178   6.283   1.145   8.057  0.3764  0.1451  1.1595
  531MOL0     C73179   6.363   1.258   8.129  0.5629  0.5882  0.2307
  531MOL0     C73180   6.364   1.227   8.285  0.2369 -0.0546  0.0012
  531MOL0     C73181   6.350   1.342   8.380  0.5596 -0.3046 -0.3551
  531MOL0     C73182   6.213   1.401   8.380  0.3509 -1.1256 -0.5198
  531MOL0     C73183   6.202   1.504   8.493 -0.2629  0.5760 -0.6886
  531MOL0     C73184   6.081   1.595   8.460 -0.3462 -0.4919 -0.6575
  531MOL0    Cl73185   6.106   1.723   8.585  0.3434 -0.4929  0.0377
  531MOL0     C73186   6.078   1.185   7.688 -0.8972 -0.6663 -0.0259
  531MOL0     C73187   6.016   1.220   7.564 -1.0578 -0.7478 -0.5029
  531MOL0     O73188   5.825   1.318   7.351 -0.3682  1.1782 -0.1648
  531MOL0     C73189   5.867   1.381   7.080  0.0813 -0.8515 -0.6295
  531MOL0     C73190   5.876   1.394   6.942  0.0949 -0.0973  0.5016
  531MOL0     N73191   6.071   1.312   6.238 -0.9446 -0.8685  0.7470
  531MOL0     N73192   6.092   1.390   6.139 -0.6760  0.8569 -0.9999
  531MOL0     C73193   6.584   2.189   6.707 -0.5017 -0.7708 -0.2539
  531MOL0     C73194   6.707   2.266   6.710 -0.4996 -0.5510 -0.0777
  531MOL0     C73195   7.071   2.465   6.811  0.0222 -0.1637 -0.4261
  531MOL0     C73196   7.089   2.606   6.785  0.8339 -0.1651  0.2814
  531MOL0     C73197   7.164   2.695   6.860 -0.9322 -0.4668  0.1279
  531MOL0     C73198   7.239   2.643   6.964  0.0955  0.4487  0.7066
  531MOL0     O73199   7.325   2.707   7.049  0.7184  0.0881  0.2172
  531MOL0     C73200   7.358   2.831   7.022  0.3512 -0.5312 -0.1490
  531MOL0     C73201   7.449   2.848   6.907  0.2319  0.3865 -0.6654
  531MOL0     C73202   7.426   2.980   6.840 -0.0535  0.3250  1.6907
  531MOL0     C73203   7.471   2.976   6.689  0.9145 -0.1271 -0.0771
  531MOL0     C73204   7.619   2.991   6.675  0.4561 -1.1937 -0.7366
  531MOL0     C73205   7.736   3.025   6.673  0.8591 -0.8666 -0.1090
  531MOL0     C73206   7.228   2.512   6.993  0.3080  0.1093 -0.1881
  531MOL0     C73207   7.144   2.427   6.925 -0.4494  1.5223 -0.4590
  531MOL0     C73208   7.138   2.275   6.973  0.6786 -0.3132  0.0505
  531MOL0     H73209   6.916   2.004   6.720 -0.0214 -1.0011 -1.7919
  531MOL0     H73210   6.717   1.884   6.724  1.9537  0.2073  2.0906
  531MOL0     H73211   6.458   1.896   6.882  0.8449  2.4226 -1.1443
  531MOL0     H73212   6.530   1.801   6.746 -0.4412 -2.7811  2.1281
  531MOL0     H73213   6.284   1.753   6.818  2.1642  1.6225  1.7303
  531MOL0     H73214   6.251   1.886   6.714 -1.4492 -0.3897  2.1216
  531MOL0     H73215   6.410   1.641   6.619  1.3160  0.8372 -0.5880
  531MOL0     H73216   6.242   1.677   6.575 -0.2833  0.1708 -0.8234
  531MOL0     H73217   6.341   1.912   6.495  0.7990  0.6297  1.4123
  531MOL0     H73218   6.492   1.827   6.500  0.6914  0.1265 -2.0567
  531MOL0     H73219   6.406   1.649   6.341  2.3216  1.4725  1.9537
  531MOL0     H73220   6.419   1.797   6.257 -1.2187 -0.4801 -2.0233
  531MOL0     H73221   6.148   1.677   6.331  1.4878 -3.7931 -2.4862
  531MOL0     H73222   6.177   1.848   6.283  2.1373  0.6787 -1.4564
  531MOL0     H73223   6.281   1.780   6.078 -1.8587  1.8763  0.2445
  531MOL0     H73224   6.124   1.701   6.086  0.6820 -0.4961  0.4121
  531MOL0     H73225   6.272   1.537   6.008 -1.8944  0.5168  0.1725
  531MOL0     H73226   6.384   1.558   6.142 -1.2135  3.7369  4.5721
  531MOL0     H73227   6.372   1.404   6.343 -1.0478  0.5471  2.6824
  531MOL0     H73228   6.304   1.214   6.481  0.7384  0.5370 -0.6914
  531MOL0     H73229   6.196   1.103   6.387  0.4882 -1.6206  4.2733
  531MOL0     H73230   5.993   1.209   6.497  0.6639 -0.7327 -1.5469
  531MOL0     H73231   6.094   1.108   6.589 -3.2799  0.7540  0.3040
  531MOL0     H73232   6.138   1.305   6.752 -3.6378  0.7387  1.1022
  531MOL0     H73233   6.176   1.403   6.615 -1.9111  2.5007  2.6149
  531MOL0     H73234   5.976   1.479   6.717 -3.7238 -1.5832  2.5976
  531MOL0     H73235   5.941   1.406   6.553  0.7364 -0.9476 -0.6490
  531MOL0     H73236   5.848   1.081   6.835  3.2831  1.4398 -1.5052
  531MOL0     H73237   5.905   0.938   7.104  1.7060  0.7988  2.4745
  531MOL0     H73238   5.759   0.947   7.013 -1.3858  2.6272 -0.4770
  531MOL0     H73239   5.778   1.001   7.193  3.1666 -0.1539  0.8098
  531MOL0     H73240   6.115   0.950   7.396  1.7120  1.3666 -1.1517
  531MOL0     H73241   6.239   0.907   7.624 -0.2721 -0.1130  3.2845
  531MOL0     H73242   6.394   1.135   7.868 -0.0166 -0.9868  0.3300
  531MOL0     H73243   6.262   1.247   7.860  0.3436 -1.4604  0.6517
  531MOL0     H73244   6.175   1.134   8.070 -0.2267 -0.6034 -3.0986
  531MOL0     H73245   6.324   1.047   8.086  0.9613 -2.0118 -5.2793
  531MOL0     H73246   6.311   1.352   8.106 -0.9078 -0.9129 -3.3428
  531MOL0     H73247   6.465   1.263   8.090  0.5836  1.2184  0.3445
  531MOL0     H73248   6.459   1.181   8.313  1.2762  1.2493 -1.1996
  531MOL0     H73249   6.277   1.165   8.307 -1.9193  3.4201  2.3601
  531MOL0     H73250   6.371   1.307   8.482 -1.0475  0.8710  0.4306
  531MOL0     H73251   6.412   1.420   8.334 -2.7272  0.3801 -4.1291
  531MOL0     H73252   6.131   1.330   8.392 -0.6204 -0.2503 -1.7032
  531MOL0     H73253   6.184   1.445   8.285 -2.6228 -1.2704  0.2322
  531MOL0     H73254   6.286   1.573   8.497 -1.1900  1.7770 -1.2177
  531MOL0     H73255   6.195   1.451   8.588 -0.8107  1.6142 -0.1396
  531MOL0     H73256   5.983   1.550   8.480  0.1352 -0.2255  3.0239
  531MOL0     H73257   6.085   1.641   8.361 -0.0144 -0.2037 -0.5148
  531MOL0     H73258   6.075   1.242   7.780  2.6259 -0.0622 -0.1633
  531MOL0     H73259   5.951   1.307   7.562 -3.1000 -2.1401  1.1815
  531MOL0     H73260   5.864   1.466   7.147  2.4733 -0.8326 -0.4577
  531MOL0     H73261   5.876   1.496   6.905 -0.6914  0.0267  0.8198
  531MOL0     H73262   6.496   2.250   6.695 -2.4154 -2.4470  3.5229
  531MOL0     H73263   6.700   2.373   6.692 -0.7488 -0.5903 -0.2261
  531MOL0     H73264   7.036   2.638   6.696  0.3945  2.6694  1.4686
  531MOL0     H73265   7.160   2.799   6.829  0.1997 -1.0350 -2.0600
  531MOL0     H73266   7.263   2.882   6.999  0.0792 -0.1082  1.7963
  531MOL0     H73267   7.408   2.869   7.111 -0.3038  0.2719 -0.1083
  531MOL0     H73268   7.430   2.766   6.836 -0.3091 -0.4382  0.3929
  531MOL0     H73269   7.547   2.846   6.955 -0.1312  1.6527  0.1885
  531MOL0     H73270   7.318   2.991   6.830 -1.0686 -6.1546  0.8345
  531MOL0     H73271   7.467   3.065   6.895 -4.5823  3.6871  0.4318
  531MOL0     H73272   7.435   3.063   6.634  0.1667 -1.6744 -2.1542
  531MOL0     H73273   7.439   2.887   6.634  0.5859 -0.3365  0.4373
  531MOL0     H73274   7.839   3.049   6.657  0.5803  0.1213 -0.5129
  531MOL0     H73275   7.283   2.479   7.081 -2.8139  1.4393  2.4623
  531MOL0     H73276   7.040   2.249   7.015  0.6000 -0.7448 -0.3783
  531MOL0     H73277   7.167   2.217   6.885  1.6469 -0.5614  0.5151
  531MOL0     H73278   7.212   2.227   7.037 -0.4167 -0.2654  1.3997
  532MOL0     O73279   2.338   5.304   7.424 -0.2290 -0.2049  0.8939
  532MOL0     C73280   2.422   5.340   7.497  0.2762  0.8822 -0.2621
  532MOL0     O73281   2.558   5.347   7.468  0.2109  0.4433 -0.6580
  532MOL0     C73282   2.607   5.333   7.340  0.5569 -0.1985 -0.5518
  532MOL0     C73283   2.661   5.218   7.279 -0.7241 -0.0236 -0.2045
  532MOL0     C73284   2.714   5.220   7.146 -0.1545 -0.5158 -1.2786
  532MOL0     C73285   2.744   5.336   7.077  0.0816  0.1389  0.2110
  532MOL0     O73286   2.807   5.360   6.963 -0.4513  0.2431  0.0331
  532MOL0     C73287   2.854   5.237   6.896  0.5638 -0.3673  0.5437
  532MOL0     C73288   2.923   5.280   6.760  0.1292 -0.3744 -0.0349
  532MOL0     C73289   2.997   5.161   6.696  0.5084 -0.6978  0.0109
  532MOL0     C73290   3.062   5.197   6.565 -0.2606 -0.8694  0.7482
  532MOL0     C73291   3.114   5.072   6.490 -0.0155  0.3251  0.5083
  532MOL0     C73292   3.146   5.108   6.346 -0.6486  0.2012  0.5130
  532MOL0     C73293   3.254   5.011   6.294  0.1990 -0.2484 -0.1766
  532MOL0     C73294   3.265   4.997   6.145 -0.5997  0.1322  0.7249
  532MOL0     N73295   3.277   5.131   6.080 -0.0072  1.1456 -0.4007
  532MOL0     C73296   3.398   5.200   6.053  0.5038 -0.1175  0.4146
  532MOL0     C73297   3.354   5.326   6.027  0.5238  0.7005  0.2403
  532MOL0     C73298   3.435   5.447   5.979 -0.5911 -0.0714 -0.0926
  532MOL0     C73299   3.450   5.441   5.823 -0.2635  0.3880  0.5579
  532MOL0     C73300   3.324   5.435   5.746  0.0228 -0.1588  0.3431
  532MOL0     C73301   3.229   5.549   5.789  0.7634 -0.8645  0.6456
  532MOL0     O73302   3.312   5.666   5.754  0.4420 -0.8042  0.2099
  532MOL0     C73303   3.254   5.759   5.672 -0.6118  0.3104  0.3925
  532MOL0     C73304   3.293   5.767   5.539 -0.1869 -0.0454  0.2892
  532MOL0     C73305   3.236   5.851   5.445 -0.4778  0.2019  0.0221
  532MOL0     C73306   3.288   5.840   5.300  0.0678 -0.9010  0.5724
  532MOL0     C73307   3.129   5.937   5.484  0.1739  0.4749  0.5739
  532MOL0     C73308   3.051   6.026   5.388 -0.5413  0.4203 -0.6338
  532MOL0     O73309   3.089   6.052   5.257 -0.1334  0.1882 -0.7703
  532MOL0     C73310   3.002   6.141   5.198 -0.7761  0.8445 -0.2907
  532MOL0     C73311   2.976   6.269   5.238 -0.4146  0.7958  0.3438
  532MOL0     C73312   2.920   6.360   5.155  0.3657  0.0694 -0.2585
  532MOL0     C73313   2.876   6.328   5.030 -0.5051 -0.9648 -0.5950
  532MOL0     O73314   2.817   6.423   4.946 -0.0995 -0.2488  0.2026
  532MOL0     C73315   2.861   6.427   4.808  0.2694  0.2359  0.9264
  532MOL0     C73316   2.906   6.573   4.774  0.2026  0.3309 -0.6014
  532MOL0     C73317   2.921   6.587   4.626  0.2673 -0.1198  0.1549
  532MOL0     C73318   2.787   6.576   4.551 -0.1150 -1.0547  0.4012
  532MOL0     C73319   2.781   6.659   4.416  0.0693 -0.1164 -0.1330
  532MOL0     C73320   2.656   6.648   4.340 -0.3887  0.6081  0.4296
  532MOL0     C73321   2.659   6.501   4.277 -0.0868  0.1556  0.5564
  532MOL0     C73322   2.577   6.484   4.161 -0.4808 -0.4766 -0.5359
  532MOL0    Cl73323   2.400   6.459   4.209  0.0348 -0.2032 -0.4226
  532MOL0     C73324   2.886   6.202   4.993  0.8014  0.1540 -0.1997
  532MOL0     C73325   2.940   6.102   5.079  0.4023  0.0811  0.5312
  532MOL0     O73326   2.958   6.077   5.449  0.5317  0.0130 -0.0552
  532MOL0     C73327   3.089   5.936   5.619 -0.2991 -0.7236 -0.5285
  532MOL0     C73328   3.149   5.845   5.710  0.3621 -0.4337  0.9351
  532MOL0     N73329   3.219   5.336   6.020  0.4800  0.0407  0.5630
  532MOL0     N73330   3.178   5.216   6.059 -0.4033  0.2491 -0.6753
  532MOL0     C73331   2.702   5.451   7.147  0.3142 -0.0837 -1.1284
  532MOL0     C73332   2.624   5.448   7.265  0.0476 -0.1144 -0.5346
  532MOL0     C73333   2.384   5.365   7.639 -0.0214  0.7872  0.4953
  532MOL0     C73334   2.247   5.360   7.666 -0.2754 -0.0487 -0.1442
  532MOL0     C73335   2.209   5.383   7.798 -0.4835  0.4400 -0.3349
  532MOL0     C73336   2.304   5.386   7.908 -0.3903 -0.8781 -0.3262
  532MOL0     O73337   2.289   5.393   8.042 -0.6670 -1.0728  0.3519
  532MOL0     C73338   2.180   5.469   8.091  0.0268 -0.0004 -0.0721
  532MOL0     C73339   2.199   5.622   8.063  0.2547 -0.1653  0.2419
  532MOL0     C73340   2.297   5.687   8.155 -0.7026  0.8378 -0.1084
  532MOL0     C73341   2.376   5.798   8.089  0.4508  0.2725  0.2341
  532MOL0     C73342   2.300   5.910   8.041 -0.4925  0.1765  0.3259
  532MOL0     C73343   2.241   6.013   8.014  1.3212 -0.2838 -1.3919
  532MOL0     C73344   2.443   5.380   7.873  1.2561 -0.5752 -1.0034
  532MOL0     C73345   2.482   5.369   7.744 -0.5890  0.6855  0.6037
  532MOL0     C73346   2.630   5.372   7.724  0.5444 -0.6395  0.5173
  532MOL0     H73347   2.657   5.125   7.334  0.5805 -0.5372 -0.9172
  532MOL0     H73348   2.745   5.123   7.108  1.7981  1.3205 -4.8884
  532MOL0     H73349   2.771   5.167   6.881  1.4989 -1.5377  0.6147
  532MOL0     H73350   2.915   5.187   6.972  1.2049 -0.6500 -0.1463
  532MOL0     H73351   2.844   5.310   6.690 -0.5215 -0.9065  0.4586
  532MOL0     H73352   2.991   5.360   6.788 -0.1344  0.2154 -1.0312
  532MOL0     H73353   3.088   5.149   6.756  1.5794 -1.7486 -1.7371
  532MOL0     H73354   2.933   5.072   6.687  0.1683 -0.7082  2.0252
  532MOL0     H73355   2.986   5.254   6.510  1.2037 -0.8678 -1.3898
  532MOL0     H73356   3.148   5.260   6.587  0.9326 -1.9833 -0.5260
  532MOL0     H73357   3.036   4.995   6.490  2.6982 -2.6442  2.1681
  532MOL0     H73358   3.199   5.032   6.545  1.0572  0.5931 -0.8882
  532MOL0     H73359   3.058   5.094   6.282  0.0379  0.7045 -0.5628
  532MOL0     H73360   3.186   5.209   6.343  1.0932 -0.4328  1.2021
  532MOL0     H73361   3.229   4.913   6.335 -2.2644  0.5520  0.4098
  532MOL0     H73362   3.352   5.037   6.334  0.4399 -0.7657 -0.4111
  532MOL0     H73363   3.357   4.941   6.125 -1.1265 -0.5089  0.0255
  532MOL0     H73364   3.185   4.937   6.101  0.5317 -0.7773 -0.1679
  532MOL0     H73365   3.504   5.177   6.049  1.2028  2.5844  1.2732
  532MOL0     H73366   3.533   5.437   6.025  0.0869 -2.3476 -1.8314
  532MOL0     H73367   3.398   5.546   6.005 -1.8293 -0.9716  1.8054
  532MOL0     H73368   3.505   5.526   5.782  1.2023  0.1560  1.9356
  532MOL0     H73369   3.505   5.347   5.817 -1.4962 -0.3584  0.4967
  532MOL0     H73370   3.354   5.463   5.644  0.7313  1.5261  0.9780
  532MOL0     H73371   3.283   5.334   5.748  0.7786 -0.4580  1.6601
  532MOL0     H73372   3.127   5.559   5.750  0.5530 -2.4038  0.7547
  532MOL0     H73373   3.222   5.563   5.898  1.8045  0.8705  0.5394
  532MOL0     H73374   3.382   5.714   5.509  0.2048 -1.2791  3.2554
  532MOL0     H73375   3.377   5.776   5.303  0.6774 -0.0864  0.3198
  532MOL0     H73376   3.310   5.942   5.265 -2.4478  0.4465  2.6014
  532MOL0     H73377   3.221   5.789   5.230  1.2145  0.3637 -1.5629
  532MOL0     H73378   3.016   6.295   5.335 -3.1950 -2.1071  2.4691
  532MOL0     H73379   2.913   6.466   5.178  1.9618  0.5039 -1.6027
  532MOL0     H73380   2.934   6.350   4.780 -0.1096  0.4394 -0.7074
  532MOL0     H73381   2.768   6.399   4.758  1.0056 -0.6269 -0.0154
  532MOL0     H73382   2.837   6.651   4.807  1.2247  2.8242 -3.8556
  532MOL0     H73383   2.999   6.585   4.831 -0.7181  1.9215  0.6489
  532MOL0     H73384   2.984   6.503   4.595 -0.4631 -1.0808  1.1588
  532MOL0     H73385   2.951   6.691   4.611 -2.0345  0.6944  0.7773
  532MOL0     H73386   2.705   6.602   4.619 -1.8976 -1.2865 -1.5567
  532MOL0     H73387   2.767   6.475   4.514 -3.1188  0.0081 -1.2728
  532MOL0     H73388   2.785   6.764   4.446  2.2002 -0.0855 -0.3805
  532MOL0     H73389   2.861   6.634   4.345 -0.7390 -1.7061 -0.5348
  532MOL0     H73390   2.639   6.719   4.259  1.1594 -0.5032 -0.9335
  532MOL0     H73391   2.577   6.669   4.413 -0.1085 -0.0714  0.9424
  532MOL0     H73392   2.640   6.431   4.358 -0.1133  1.1951  1.4717
  532MOL0     H73393   2.758   6.482   4.233 -1.0572 -3.2985 -0.4375
  532MOL0     H73394   2.615   6.391   4.118  1.9486 -0.1325  0.7211
  532MOL0     H73395   2.590   6.572   4.098 -0.9703  2.2546  2.8515
  532MOL0     H73396   2.850   6.172   4.895  2.1988  0.2331 -0.7609
  532MOL0     H73397   2.945   6.001   5.040 -3.9128 -1.0054  2.2616
  532MOL0     H73398   3.003   5.993   5.653 -0.6340 -1.1266 -0.6909
  532MOL0     H73399   3.131   5.856   5.817  0.9740 -0.2660  1.0251
  532MOL0     H73400   2.719   5.548   7.100 -3.7286  1.9454  1.0806
  532MOL0     H73401   2.582   5.539   7.306  0.9312  0.1062 -0.1106
  532MOL0     H73402   2.163   5.350   7.598 -1.6387  0.8489  1.3188
  532MOL0     H73403   2.102   5.389   7.816 -0.3051  2.1180  0.3939
  532MOL0     H73404   2.083   5.437   8.053 -1.1777  0.3292  2.5206
  532MOL0     H73405   2.170   5.456   8.199 -2.8259  0.2566 -0.2393
  532MOL0     H73406   2.104   5.669   8.092 -0.2791 -1.6434  1.0196
  532MOL0     H73407   2.221   5.642   7.958  0.7075 -0.5123  0.2677
  532MOL0     H73408   2.251   5.721   8.248  1.8277 -0.5930  1.8142
  532MOL0     H73409   2.368   5.610   8.186 -1.9714 -0.3626 -0.1011
  532MOL0     H73410   2.426   5.764   7.998  2.1994 -0.3621  1.3874
  532MOL0     H73411   2.458   5.839   8.148  2.5272  3.6698 -4.3901
  532MOL0     H73412   2.198   6.103   7.975 -1.2991  0.6318  2.8668
  532MOL0     H73413   2.508   5.384   7.960  1.2273 -0.1089 -0.9998
  532MOL0     H73414   2.689   5.378   7.816 -0.3622 -0.1665  1.0901
  532MOL0     H73415   2.663   5.284   7.669  1.7260  0.9369 -1.4305
  532MOL0     H73416   2.656   5.455   7.658 -1.0153  0.8560  1.6633
  533MOL0     O73417   0.605  10.902   9.241  0.4344 -0.9345  0.0118
  533MOL0     C73418   0.487  10.872   9.271 -1.4511  0.6078  0.6731
  533MOL0     O73419   0.449  10.741   9.310  0.3891 -0.2742 -1.0256
  533MOL0     C73420   0.533  10.642   9.343  0.0041 -0.2068  0.4866
  533MOL0     C73421   0.663  10.646   9.387 -0.2297 -0.3411 -0.2191
  533MOL0     C73422   0.741  10.528   9.396 -0.3800 -0.0881  0.9568
  533MOL0     C73423   0.682  10.400   9.375  0.5466  0.0632 -0.2417
  533MOL0     O73424   0.747  10.287   9.388 -0.1166  0.0744 -0.0118
  533MOL0     C73425   0.707  10.214   9.497 -0.3016  0.0132  0.9536
  533MOL0     C73426   0.591  10.117   9.485 -0.0991  0.8660  0.3646
  533MOL0     C73427   0.575  10.009   9.598 -0.6437  0.2494 -0.3891
  533MOL0     C73428   0.437   9.942   9.592 -0.6039  0.1351 -0.2537
  533MOL0     C73429   0.412   9.854   9.714  0.0279  0.1326 -0.5994
  533MOL0     C73430   0.260   9.811   9.725 -0.1033 -1.1104 -0.4288
  533MOL0     C73431   0.237   9.685   9.633  0.3720 -0.5310 -0.0957
  533MOL0     C73432   0.097   9.656   9.644  0.8764 -0.3201  0.9065
  533MOL0     N73433   0.020   9.722   9.541 -0.2629  0.5264  0.6658
  533MOL0     C73434  -0.036   9.650   9.437 -1.2268 -0.2455 -0.0646
  533MOL0     C73435  -0.097   9.748   9.361  0.4170  0.1893 -0.4183
  533MOL0     C73436  -0.168   9.720   9.229  0.1024  0.0769  0.1592
  533MOL0     C73437  -0.152   9.834   9.130 -0.4432  0.7836 -0.3299
  533MOL0     C73438  -0.286   9.898   9.089 -0.0527  0.3711  0.3334
  533MOL0     C73439  -0.363   9.978   9.190 -0.4854  0.5260  0.0800
  533MOL0     O73440  -0.288  10.092   9.236 -0.5203 -0.4493 -0.1774
  533MOL0     C73441  -0.328  10.177   9.338 -1.0122  0.4314 -0.1292
  533MOL0     C73442  -0.445  10.159   9.411  0.3286  0.1572 -0.4556
  533MOL0     C73443  -0.485  10.267   9.502  0.8155 -0.7427  0.0719
  533MOL0     C73444  -0.626  10.243   9.564 -0.7252  0.2773  0.7525
  533MOL0     C73445  -0.400  10.369   9.540 -0.0148 -0.1214  0.1014
  533MOL0     C73446  -0.421  10.454   9.651 -0.2941 -0.3220 -0.6215
  533MOL0     O73447  -0.548  10.474   9.689 -0.0246  0.0019  0.4397
  533MOL0     C73448  -0.595  10.550   9.792 -0.9315 -0.7176 -0.0402
  533MOL0     C73449  -0.514  10.598   9.900 -0.6690 -0.2645 -0.0465
  533MOL0     C73450  -0.557  10.671  10.006 -0.6570 -0.9919 -0.5886
  533MOL0     C73451  -0.691  10.703  10.013 -0.1932  0.1790 -0.3537
  533MOL0     O73452  -0.734  10.775  10.122 -0.3892  0.2383  0.3710
  533MOL0     C73453  -0.802  10.696  10.228  0.9287 -0.6222  0.0272
  533MOL0     C73454  -0.807  10.773  10.353  0.3245  0.3837 -0.4688
  533MOL0     C73455  -0.859  10.685  10.476  0.2986  0.7571  0.2834
  533MOL0     C73456  -0.803  10.700  10.616 -0.8497 -1.0771  0.3136
  533MOL0     C73457  -0.799  10.848  10.664  0.0853 -0.3237 -0.6796
  533MOL0     C73458  -0.941  10.908  10.692  0.0610  0.1294  0.1477
  533MOL0     C73459  -0.941  11.049  10.742 -0.6448 -0.1836  0.3692
  533MOL0     C73460  -1.080  11.087  10.778  0.4882  0.8511  0.3637
  533MOL0    Cl73461  -1.183  11.084  10.636  0.2202 -0.1489 -0.3506
  533MOL0     C73462  -0.779  10.659   9.911 -0.4456  0.1550  0.0640
  533MOL0     C73463  -0.729  10.570   9.806  0.4448 -0.2018 -0.2917
  533MOL0     O73464  -0.326  10.496   9.710 -0.2851  0.3505 -0.4028
  533MOL0     C73465  -0.274  10.379   9.473 -0.0559 -0.7727 -0.5869
  533MOL0     C73466  -0.244  10.284   9.370  0.0729  0.3835  0.7765
  533MOL0     N73467  -0.082   9.867   9.422 -0.4725 -0.7495 -0.8919
  533MOL0     N73468  -0.014   9.850   9.528  0.4437  0.3046  0.2028
  533MOL0     C73469   0.543  10.396   9.336  0.5961 -0.2204 -0.4924
  533MOL0     C73470   0.471  10.516   9.325 -0.1649 -1.0545 -0.9287
  533MOL0     C73471   0.378  10.966   9.262 -0.1048 -0.0283 -1.5800
  533MOL0     C73472   0.246  10.929   9.252 -0.4488 -0.5609  0.8036
  533MOL0     C73473   0.135  11.004   9.267  0.2119 -1.3387 -0.9087
  533MOL0     C73474   0.152  11.144   9.283  0.1976  0.4534 -0.4207
  533MOL0     O73475   0.057  11.235   9.322  0.5089 -0.5729  0.1976
  533MOL0     C73476  -0.084  11.202   9.300 -0.5573 -0.4079 -0.4016
  533MOL0     C73477  -0.165  11.310   9.380  0.3452 -0.1470  0.2825
  533MOL0     C73478  -0.315  11.266   9.390  0.2703 -0.1873 -0.6251
  533MOL0     C73479  -0.401  11.357   9.466  0.4779 -0.9390 -0.0389
  533MOL0     C73480  -0.344  11.377   9.597  0.9893 -0.0591 -0.9179
  533MOL0     C73481  -0.287  11.391   9.699 -0.0435  0.9233 -0.3218
  533MOL0     C73482   0.280  11.187   9.300  0.6212 -0.2462  0.1518
  533MOL0     C73483   0.395  11.103   9.298 -0.7390 -0.7067  0.3963
  533MOL0     C73484   0.534  11.171   9.336  1.0883  0.1621 -0.0619
  533MOL0     H73485   0.708  10.743   9.408  1.2483 -1.1034  0.2697
  533MOL0     H73486   0.849  10.534   9.386 -0.6189  0.4786 -1.8475
  533MOL0     H73487   0.696  10.279   9.585  3.2389  1.9616  0.1580
  533MOL0     H73488   0.789  10.149   9.527 -1.4380 -1.2559  1.4427
  533MOL0     H73489   0.496  10.171   9.484 -0.9796 -0.5573 -2.5103
  533MOL0     H73490   0.600  10.060   9.392 -0.1868  0.2912  0.7059
  533MOL0     H73491   0.646   9.932   9.567  1.2102  1.7468  0.0123
  533MOL0     H73492   0.586  10.044   9.701 -2.2332  1.8292 -0.7096
  533MOL0     H73493   0.351  10.009   9.580 -1.3052 -0.5475  0.7516
  533MOL0     H73494   0.428   9.878   9.504  3.0195 -2.2104  0.8380
  533MOL0     H73495   0.438   9.897   9.811  2.0971 -0.4933 -0.8148
  533MOL0     H73496   0.483   9.771   9.710  0.2463  0.3136 -0.4801
  533MOL0     H73497   0.217   9.798   9.825 -2.9185 -0.1522 -1.3977
  533MOL0     H73498   0.210   9.891   9.670 -1.4941 -0.7851  1.2053
  533MOL0     H73499   0.309   9.610   9.666 -0.2884 -0.8659  0.6229
  533MOL0     H73500   0.270   9.709   9.532  2.5069  5.9313  1.6317
  533MOL0     H73501   0.075   9.549   9.634  2.4946 -0.5481 -0.4442
  533MOL0     H73502   0.052   9.693   9.737  0.9107  1.6032  0.1862
  533MOL0     H73503  -0.019   9.549   9.402 -0.4164 -0.2181  0.2473
  533MOL0     H73504  -0.275   9.701   9.246  0.1476  0.5663  1.0473
  533MOL0     H73505  -0.135   9.629   9.178 -2.4095 -1.4860  1.1256
  533MOL0     H73506  -0.068   9.901   9.147  1.1651 -1.5728  1.8328
  533MOL0     H73507  -0.112   9.781   9.043  0.4117  0.7558  0.0764
  533MOL0     H73508  -0.247   9.953   9.004  2.0115  0.6489  1.3763
  533MOL0     H73509  -0.349   9.815   9.057 -1.8915  1.8042  0.0673
  533MOL0     H73510  -0.455  10.009   9.141  0.0799  0.4390 -1.0532
  533MOL0     H73511  -0.395   9.920   9.278  2.1448 -1.1074  0.0705
  533MOL0     H73512  -0.520  10.086   9.383 -2.6479  2.0214  1.9628
  533MOL0     H73513  -0.703  10.316   9.541 -0.7440  0.3546  1.0455
  533MOL0     H73514  -0.640  10.203   9.665 -2.9972 -3.1993 -0.7829
  533MOL0     H73515  -0.657  10.150   9.516 -1.4440  0.1305  1.4683
  533MOL0     H73516  -0.411  10.567   9.912 -0.9380 -1.1043  0.1868
  533MOL0     H73517  -0.486  10.717  10.074 -3.0748  0.0951  1.3687
  533MOL0     H73518  -0.902  10.674  10.192  0.9493  0.6263 -0.8796
  533MOL0     H73519  -0.750  10.601  10.243 -0.1819 -1.4324 -1.1104
  533MOL0     H73520  -0.705  10.797  10.384 -1.1953  1.4191  4.5877
  533MOL0     H73521  -0.874  10.856  10.329 -1.8364 -0.5018  2.0928
  533MOL0     H73522  -0.837  10.579  10.460  3.3793  1.1029  1.4930
  533MOL0     H73523  -0.967  10.702  10.478 -0.4027 -2.8512  0.2704
  533MOL0     H73524  -0.701  10.663  10.608 -1.4751 -2.7900 -0.1601
  533MOL0     H73525  -0.857  10.637  10.688 -0.2412 -0.5654  1.2489
  533MOL0     H73526  -0.738  10.872  10.752  1.5679  1.7524 -2.1693
  533MOL0     H73527  -0.767  10.906  10.577  0.2589  0.2399 -0.2422
  533MOL0     H73528  -0.997  10.854  10.769 -0.6690 -0.2826 -0.6450
  533MOL0     H73529  -0.997  10.902  10.597  2.7959  0.1405 -1.5720
  533MOL0     H73530  -0.906  11.121  10.667  0.0540  0.3174  1.1636
  533MOL0     H73531  -0.867  11.053  10.822  1.1741  0.5933 -1.2712
  533MOL0     H73532  -1.085  11.182  10.832 -0.4729 -0.9236  3.6797
  533MOL0     H73533  -1.120  11.012  10.847  0.2637 -1.3423 -1.9911
  533MOL0     H73534  -0.880  10.698   9.921  0.2923  2.1065  0.5120
  533MOL0     H73535  -0.792  10.540   9.723 -2.3565 -1.4323  2.1205
  533MOL0     H73536  -0.200  10.456   9.495  0.9532 -1.1337 -2.4945
  533MOL0     H73537  -0.151  10.296   9.316 -2.7487  2.6136 -4.2855
  533MOL0     H73538   0.485  10.309   9.307  2.8024 -1.8387 -0.3122
  533MOL0     H73539   0.365  10.529   9.306  0.2746  3.3680 -1.5272
  533MOL0     H73540   0.226  10.824   9.230 -3.1451 -0.1865  1.1358
  533MOL0     H73541   0.041  10.954   9.289  1.8995 -4.7962 -0.9494
  533MOL0     H73542  -0.111  11.202   9.194  1.0972  1.5346 -0.8787
  533MOL0     H73543  -0.101  11.099   9.335  2.1152 -0.7848 -0.0407
  533MOL0     H73544  -0.153  11.408   9.333 -0.6478 -0.2476 -0.2177
  533MOL0     H73545  -0.120  11.303   9.480 -2.7264  0.2291  1.8177
  533MOL0     H73546  -0.378  11.236   9.305 -1.3461 -0.7190  0.7006
  533MOL0     H73547  -0.294  11.172   9.440  2.1068 -0.8913 -2.5588
  533MOL0     H73548  -0.503  11.318   9.477  0.1168  0.2038  0.9676
  533MOL0     H73549  -0.406  11.456   9.419  3.2867 -0.3791  0.6821
  533MOL0     H73550  -0.247  11.404   9.797  0.5150 -3.4255  0.2239
  533MOL0     H73551   0.288  11.291   9.330  1.6401 -0.1990 -0.2315
  533MOL0     H73552   0.513  11.275   9.361 -0.8316 -0.6469  1.9664
  533MOL0     H73553   0.586  11.122   9.419 -0.6318  0.5292  1.2753
  533MOL0     H73554   0.594  11.157   9.245 -1.4211 -0.0339 -1.7856
  534MOL0     O73555   3.874   1.190   1.671  0.2489 -0.1507 -0.8219
  534MOL0     C73556   3.938   1.292   1.644  0.0644  0.2512  0.2565
  534MOL0     O73557   3.971   1.390   1.734  0.3123  0.2540  0.2905
  534MOL0     C73558   3.937   1.379   1.865  0.1571 -0.3974 -1.0516
  534MOL0     C73559   3.953   1.263   1.939  0.0719  0.3754 -0.3679
  534MOL0     C73560   3.930   1.272   2.071  0.0937  0.6547  0.3018
  534MOL0     C73561   3.886   1.387   2.144 -1.0383  0.4306 -0.5790
  534MOL0     O73562   3.867   1.379   2.282  0.1086  0.4861  0.1232
  534MOL0     C73563   3.804   1.488   2.347 -0.5932 -0.1564 -0.7040
  534MOL0     C73564   3.913   1.602   2.392  0.2278  0.7565 -0.0039
  534MOL0     C73565   3.880   1.664   2.532  0.0859 -0.0775  0.2132
  534MOL0     C73566   3.993   1.633   2.637  0.2607  0.6572 -0.0240
  534MOL0     C73567   3.929   1.660   2.777 -0.5730  0.0104  0.2751
  534MOL0     C73568   3.875   1.804   2.788 -0.6160 -0.2101 -0.4119
  534MOL0     C73569   3.790   1.818   2.905 -0.5782 -0.0173  0.2277
  534MOL0     C73570   3.803   1.959   2.964 -1.0708  0.3268 -0.1706
  534MOL0     N73571   3.786   2.063   2.859 -0.6682 -0.0735  0.6932
  534MOL0     C73572   3.883   2.145   2.792 -0.8953  0.1379 -0.2022
  534MOL0     C73573   3.809   2.228   2.716 -0.4353 -0.2521  0.5646
  534MOL0     C73574   3.867   2.351   2.632 -0.4047  0.1249 -0.1816
  534MOL0     C73575   3.777   2.407   2.510  0.2494  0.4545  0.1425
  534MOL0     C73576   3.846   2.535   2.456  0.3833  0.3242 -0.7616
  534MOL0     C73577   3.801   2.597   2.327  0.1004 -0.0343 -0.5137
  534MOL0     O73578   3.832   2.515   2.211 -0.0484 -0.2586 -0.4030
  534MOL0     C73579   3.741   2.442   2.138 -0.4957 -0.9950  0.0369
  534MOL0     C73580   3.790   2.390   2.020 -0.5118  0.8150 -0.0057
  534MOL0     C73581   3.718   2.302   1.936  0.3988 -0.2456  0.0747
  534MOL0     C73582   3.779   2.272   1.797 -0.5054 -0.9229  0.4367
  534MOL0     C73583   3.584   2.282   1.977 -1.1967  1.1779  0.2953
  534MOL0     C73584   3.496   2.196   1.897  0.1429 -1.1356  0.7089
  534MOL0     O73585   3.510   2.185   1.760  0.0451  0.2906 -0.2215
  534MOL0     C73586   3.433   2.092   1.688 -0.1589  1.3045 -0.5949
  534MOL0     C73587   3.501   2.042   1.571 -0.2689  0.4497 -0.4032
  534MOL0     C73588   3.440   1.947   1.493 -0.9694  0.1065 -0.8484
  534MOL0     C73589   3.312   1.901   1.516  0.4629  0.3098 -0.3045
  534MOL0     O73590   3.267   1.792   1.442  0.0521  0.0238 -0.2825
  534MOL0     C73591   3.201   1.682   1.510 -0.5764  0.1607  0.0737
  534MOL0     C73592   3.131   1.595   1.400  0.2153  0.5939  0.0560
  534MOL0     C73593   3.035   1.666   1.305 -0.0522 -0.5519 -0.8379
  534MOL0     C73594   2.934   1.561   1.247  0.3608 -0.7830  0.0361
  534MOL0     C73595   2.989   1.439   1.176 -0.1405 -0.0712 -0.6314
  534MOL0     C73596   2.880   1.321   1.150 -0.1198  0.1473  0.5013
  534MOL0     C73597   2.892   1.230   1.275 -0.7220  0.0575 -0.1996
  534MOL0     C73598   2.779   1.132   1.289  1.1030  0.1724  0.5720
  534MOL0    Cl73599   2.728   1.048   1.141  0.2933  0.5264  0.4440
  534MOL0     C73600   3.240   1.950   1.623  0.0613 -0.3568 -0.0968
  534MOL0     C73601   3.297   2.048   1.709 -0.6367  0.1432 -0.4495
  534MOL0     O73602   3.426   2.119   1.962  0.5157  0.1647  0.3401
  534MOL0     C73603   3.538   2.322   2.103 -0.3292 -0.6490 -1.3327
  534MOL0     C73604   3.613   2.402   2.187 -0.0864 -0.1629  0.5585
  534MOL0     N73605   3.674   2.181   2.723 -0.3100  0.6229 -0.1173
  534MOL0     N73606   3.671   2.075   2.797  0.0887  0.2583 -0.1907
  534MOL0     C73607   3.874   1.508   2.071 -0.4112 -0.4697 -0.3784
  534MOL0     C73608   3.898   1.503   1.931  0.2777 -0.3503 -0.2332
  534MOL0     C73609   3.960   1.341   1.503  0.6478 -0.0090 -0.3515
  534MOL0     C73610   4.004   1.471   1.479 -0.6262 -0.9820 -0.7834
  534MOL0     C73611   4.049   1.513   1.349  0.5909  0.1018 -0.3598
  534MOL0     C73612   4.027   1.419   1.247  0.8049 -0.3337 -0.2747
  534MOL0     O73613   4.069   1.461   1.129 -0.1463 -0.6097  0.3725
  534MOL0     C73614   4.215   1.495   1.122 -0.1248  0.2568  0.0094
  534MOL0     C73615   4.299   1.361   1.113 -0.1823 -0.3845  0.3460
  534MOL0     C73616   4.274   1.282   0.979 -0.1711  0.8140 -0.3324
  534MOL0     C73617   4.324   1.358   0.848  0.3300  0.9533 -0.3997
  534MOL0     C73618   4.293   1.287   0.723  0.4181  0.4578  0.5275
  534MOL0     C73619   4.295   1.223   0.620 -0.0173  0.2170 -0.6103
  534MOL0     C73620   3.987   1.294   1.266  0.1085 -0.1739  0.0122
  534MOL0     C73621   3.947   1.251   1.394 -0.0332 -0.1568 -0.2104
  534MOL0     C73622   3.872   1.116   1.404 -0.9836  0.3749  0.5814
  534MOL0     H73623   3.993   1.174   1.891  3.0265  0.0183  2.4421
  534MOL0     H73624   3.937   1.185   2.136 -0.3757 -0.0680 -0.5938
  534MOL0     H73625   3.750   1.442   2.430 -3.5764  0.2829 -2.2412
  534MOL0     H73626   3.727   1.534   2.283  0.5906 -0.5861 -2.5076
  534MOL0     H73627   4.011   1.555   2.401  0.1832  0.7058  0.2257
  534MOL0     H73628   3.917   1.678   2.314  1.8582 -0.4620 -1.1648
  534MOL0     H73629   3.866   1.772   2.528 -3.3145 -0.2816  2.4217
  534MOL0     H73630   3.781   1.641   2.571  0.4845  1.2772  2.1880
  534MOL0     H73631   4.027   1.529   2.635  1.6434  1.0997 -0.2733
  534MOL0     H73632   4.077   1.695   2.605  0.7829 -0.8588 -1.7201
  534MOL0     H73633   4.001   1.645   2.858 -1.3391  0.3825  1.0416
  534MOL0     H73634   3.853   1.582   2.787 -1.2022  0.3298 -1.6774
  534MOL0     H73635   3.967   1.865   2.792 -0.6902 -0.1447  2.5160
  534MOL0     H73636   3.826   1.846   2.700  2.2619  2.2139 -1.0388
  534MOL0     H73637   3.823   1.748   2.982  3.9091  2.4778  0.9032
  534MOL0     H73638   3.687   1.793   2.880 -1.1744  0.7028  1.8422
  534MOL0     H73639   3.732   1.966   3.046  0.3931 -1.2872  1.3210
  534MOL0     H73640   3.901   1.971   3.013 -0.8063 -1.4280 -0.1971
  534MOL0     H73641   3.991   2.140   2.801 -0.9566 -3.8756  0.2869
  534MOL0     H73642   3.965   2.333   2.586 -0.2068  2.2612 -0.7038
  534MOL0     H73643   3.886   2.433   2.702 -1.5970 -0.1361  0.4621
  534MOL0     H73644   3.778   2.338   2.425 -2.8047 -0.0328  0.3828
  534MOL0     H73645   3.676   2.434   2.545 -1.1085 -0.6088 -2.6868
  534MOL0     H73646   3.858   2.602   2.542  1.9818 -0.5794 -0.2292
  534MOL0     H73647   3.947   2.503   2.431  0.1244  0.1820 -1.6686
  534MOL0     H73648   3.694   2.614   2.333  0.3077  1.4082 -0.5786
  534MOL0     H73649   3.852   2.693   2.314  1.5636 -0.1999  2.9395
  534MOL0     H73650   3.890   2.426   2.001  0.6751 -1.0376  2.2852
  534MOL0     H73651   3.873   2.325   1.778 -0.1592 -2.0446 -1.1587
  534MOL0     H73652   3.718   2.306   1.714 -0.5835 -1.6129  0.2127
  534MOL0     H73653   3.793   2.165   1.781 -0.9270 -0.7184 -1.4423
  534MOL0     H73654   3.609   2.050   1.567  0.0772 -1.0257  2.6586
  534MOL0     H73655   3.498   1.897   1.417  0.6191  0.4087  0.1203
  534MOL0     H73656   3.274   1.616   1.557  2.2086  0.2279 -3.6810
  534MOL0     H73657   3.135   1.716   1.590 -1.0133 -3.6867  1.5716
  534MOL0     H73658   3.209   1.552   1.337  1.3426  2.2924  0.2185
  534MOL0     H73659   3.074   1.518   1.453  1.3505  0.5129  1.2104
  534MOL0     H73660   3.100   1.710   1.229  1.7533 -3.7682 -1.3344
  534MOL0     H73661   2.981   1.749   1.351  0.8277 -0.2979 -0.2387
  534MOL0     H73662   2.876   1.622   1.177  0.3569 -0.4618  0.3201
  534MOL0     H73663   2.872   1.535   1.334 -2.1869 -0.8914 -1.7048
  534MOL0     H73664   3.017   1.467   1.074 -1.9126  0.3583 -1.0313
  534MOL0     H73665   3.067   1.397   1.241 -0.8283  0.2417  0.4311
  534MOL0     H73666   2.918   1.268   1.062  2.5087 -0.1921  1.7333
  534MOL0     H73667   2.776   1.355   1.138  0.4639  1.9146  0.0320
  534MOL0     H73668   2.918   1.289   1.364 -0.8183 -0.2826  0.0546
  534MOL0     H73669   2.987   1.176   1.275  0.0626  1.3904 -0.1047
  534MOL0     H73670   2.695   1.184   1.335  1.4496 -0.2533  1.7174
  534MOL0     H73671   2.806   1.058   1.365 -0.7162  0.4347  1.5189
  534MOL0     H73672   3.148   1.907   1.662  0.4990 -1.4083 -0.1913
  534MOL0     H73673   3.234   2.076   1.792 -2.3083 -1.6404 -1.0322
  534MOL0     H73674   3.442   2.294   2.145  1.4913 -0.0321  4.0026
  534MOL0     H73675   3.577   2.421   2.288 -0.6133  0.7370  0.2125
  534MOL0     H73676   3.863   1.607   2.114 -1.1989 -0.8737  0.3541
  534MOL0     H73677   3.887   1.582   1.858  1.0928 -0.4077 -0.4338
  534MOL0     H73678   4.026   1.552   1.548  1.9275 -2.0135 -0.2688
  534MOL0     H73679   4.091   1.612   1.336  0.5987  0.1203 -0.1955
  534MOL0     H73680   4.239   1.544   1.028 -1.6408  1.2657  0.1101
  534MOL0     H73681   4.244   1.556   1.208  0.7579  0.9899 -0.7936
  534MOL0     H73682   4.265   1.297   1.194  1.0923  0.3707  1.5302
  534MOL0     H73683   4.407   1.378   1.116  0.2718 -1.7792 -3.3662
  534MOL0     H73684   4.328   1.188   0.988 -0.3994  0.7994  1.2358
  534MOL0     H73685   4.170   1.249   0.981 -0.8693  2.7248  2.9883
  534MOL0     H73686   4.430   1.380   0.855  0.2605  0.9028  1.1548
  534MOL0     H73687   4.270   1.453   0.852 -2.5257 -0.5423 -0.1438
  534MOL0     H73688   4.293   1.172   0.526 -0.4220  1.1688 -1.1277
  534MOL0     H73689   3.981   1.238   1.173 -0.3426  3.6017 -2.4511
  534MOL0     H73690   3.867   1.074   1.303  0.1645  0.1028  0.6124
  534MOL0     H73691   3.928   1.037   1.456  1.7420  2.3309  0.8292
  534MOL0     H73692   3.772   1.132   1.443 -0.4955 -1.2223  2.7055
  535MOL0     O73693   2.325   8.413   0.666  0.4632 -0.7713 -0.0750
  535MOL0     C73694   2.441   8.416   0.702  0.2691  0.1113  0.1543
  535MOL0     O73695   2.514   8.531   0.713  0.4073  0.1757 -0.2767
  535MOL0     C73696   2.435   8.645   0.719  0.2537  0.8346 -0.8873
  535MOL0     C73697   2.403   8.723   0.606  0.2969  0.0211 -0.8286
  535MOL0     C73698   2.321   8.832   0.620 -0.5677 -0.4518  0.3066
  535MOL0     C73699   2.287   8.880   0.746  0.1793 -0.0089  0.1176
  535MOL0     O73700   2.230   9.008   0.760 -0.1196  0.4320 -0.2755
  535MOL0     C73701   2.235   9.099   0.654  0.2731 -0.1473  0.2914
  535MOL0     C73702   2.152   9.220   0.715 -0.2852 -0.6622  0.0780
  535MOL0     C73703   2.002   9.194   0.704  0.2128  1.2584  0.9472
  535MOL0     C73704   1.942   9.301   0.805 -0.6711 -0.2566  0.1682
  535MOL0     C73705   1.816   9.369   0.744 -0.2422  0.4497 -0.1065
  535MOL0     C73706   1.772   9.485   0.832 -0.3178  0.2426  0.1453
  535MOL0     C73707   1.625   9.527   0.801  0.7643  0.1370  0.2181
  535MOL0     C73708   1.583   9.648   0.866  0.7606  0.6420 -0.1550
  535MOL0     N73709   1.460   9.634   0.931  1.1231  0.2394 -0.4889
  535MOL0     C73710   1.329   9.669   0.889 -0.7880  0.3689 -0.2140
  535MOL0     C73711   1.247   9.610   0.979  0.0211  0.7940  0.0750
  535MOL0     C73712   1.100   9.603   0.969 -0.2196 -0.3437  0.8306
  535MOL0     C73713   1.038   9.636   1.103  0.2005 -0.3117 -0.8702
  535MOL0     C73714   1.022   9.792   1.135 -0.5067  0.4316  0.0266
  535MOL0     C73715   0.918   9.870   1.038  0.9376  0.4857  1.0199
  535MOL0     O73716   0.796   9.799   1.060  0.8274 -0.1982 -0.3997
  535MOL0     C73717   0.719   9.817   1.174 -0.7451  0.6337 -0.4862
  535MOL0     C73718   0.745   9.886   1.288  0.7061  0.0601 -0.4757
  535MOL0     C73719   0.655   9.875   1.392  0.2093 -0.8007  0.1830
  535MOL0     C73720   0.707   9.927   1.520  0.4615 -0.5117 -1.1589
  535MOL0     C73721   0.541   9.804   1.383 -0.0399  0.1081 -1.5287
  535MOL0     C73722   0.454   9.792   1.501  0.6459 -0.0355  0.0041
  535MOL0     O73723   0.408   9.908   1.560  0.9433 -0.0838 -0.2406
  535MOL0     C73724   0.327   9.894   1.664  0.1296 -0.2918 -0.2906
  535MOL0     C73725   0.377   9.889   1.794  0.0684 -0.2173  0.6312
  535MOL0     C73726   0.301   9.870   1.912 -0.4354  0.7300  0.9129
  535MOL0     C73727   0.164   9.839   1.893  0.0491 -0.5006 -0.0072
  535MOL0     O73728   0.076   9.812   2.002 -0.2405 -0.9020  0.5910
  535MOL0     C73729   0.096   9.891   2.118 -0.4684 -0.4485  0.3076
  535MOL0     C73730  -0.029   9.881   2.206  0.1313  0.5968 -0.0728
  535MOL0     C73731   0.005   9.957   2.338 -0.8950  0.3359 -0.1373
  535MOL0     C73732  -0.117   9.951   2.432  0.0452 -0.1884 -0.1617
  535MOL0     C73733  -0.121  10.059   2.544 -0.2985 -0.2290 -0.2160
  535MOL0     C73734  -0.037  10.001   2.653  0.3730  0.4588 -0.4165
  535MOL0     C73735   0.009  10.097   2.769  0.2169 -0.4709  0.1302
  535MOL0     C73736   0.093  10.043   2.880 -0.2867 -0.2676 -0.1173
  535MOL0    Cl73737   0.120  10.145   3.011  0.0267 -0.0786  0.3020
  535MOL0     C73738   0.115   9.841   1.769 -0.2858 -0.6106  0.2155
  535MOL0     C73739   0.199   9.865   1.654  2.2486  0.4255  0.3250
  535MOL0     O73740   0.410   9.672   1.530 -0.0608  0.1984 -0.5398
  535MOL0     C73741   0.508   9.735   1.271 -0.1769  0.6489 -0.6124
  535MOL0     C73742   0.599   9.751   1.165 -0.6690  0.2026  0.6045
  535MOL0     N73743   1.323   9.553   1.077  0.5594 -0.4063 -1.0863
  535MOL0     N73744   1.449   9.570   1.051  0.6295 -0.0376 -0.4329
  535MOL0     C73745   2.312   8.795   0.848 -0.6004  0.1823 -0.8363
  535MOL0     C73746   2.384   8.682   0.843 -0.5383  0.0946 -0.1771
  535MOL0     C73747   2.498   8.282   0.737 -0.3432 -0.9892 -2.2958
  535MOL0     C73748   2.640   8.278   0.758 -0.8655  1.0510 -0.8294
  535MOL0     C73749   2.714   8.164   0.788 -0.0964  0.2999 -1.1628
  535MOL0     C73750   2.642   8.048   0.801  0.1209  0.1733 -0.3342
  535MOL0     O73751   2.711   7.927   0.833  0.3523 -0.6353  0.5986
  535MOL0     C73752   2.646   7.797   0.834  0.3911  0.0106 -0.5936
  535MOL0     C73753   2.745   7.690   0.861 -1.6083 -0.2694 -0.7695
  535MOL0     C73754   2.848   7.654   0.745  0.1096 -0.2605 -0.4126
  535MOL0     C73755   2.993   7.649   0.791 -0.1267 -0.7565  0.1052
  535MOL0     C73756   3.007   7.540   0.893  0.6320 -0.0828 -0.3989
  535MOL0     C73757   3.024   7.443   0.960 -0.5719 -0.3702  0.1954
  535MOL0     C73758   2.505   8.051   0.789  0.5802  0.3718  1.4781
  535MOL0     C73759   2.430   8.161   0.755  0.6013  0.4029 -0.3851
  535MOL0     C73760   2.277   8.144   0.760 -0.3214  0.4105 -0.3422
  535MOL0     H73761   2.446   8.702   0.509 -0.0395 -0.7388 -0.8219
  535MOL0     H73762   2.307   8.892   0.531  0.3612  0.6859  0.9048
  535MOL0     H73763   2.189   9.065   0.561 -1.4074  3.1770 -0.2588
  535MOL0     H73764   2.338   9.128   0.633 -0.4872  0.5508 -3.1419
  535MOL0     H73765   2.184   9.236   0.818  2.9323  0.8869 -1.0381
  535MOL0     H73766   2.167   9.318   0.669 -5.6467  0.5711  0.2173
  535MOL0     H73767   1.984   9.211   0.597 -1.4369 -5.9036 -0.4616
  535MOL0     H73768   1.971   9.091   0.725  0.2692  0.5262 -2.0928
  535MOL0     H73769   1.909   9.245   0.894 -3.0296 -1.0502 -1.1216
  535MOL0     H73770   2.021   9.372   0.831  0.6087 -1.1559 -1.0833
  535MOL0     H73771   1.732   9.301   0.730  0.0409  0.7290 -4.8339
  535MOL0     H73772   1.830   9.401   0.640  1.8282 -1.8908 -0.6447
  535MOL0     H73773   1.789   9.465   0.938  3.6646  1.9830  0.0314
  535MOL0     H73774   1.835   9.573   0.814 -0.8662  0.7011  0.4525
  535MOL0     H73775   1.561   9.442   0.827  0.0015 -0.4068 -2.9678
  535MOL0     H73776   1.616   9.537   0.692  0.4862  2.1869  0.3943
  535MOL0     H73777   1.650   9.654   0.952 -2.6903  1.0499  2.7517
  535MOL0     H73778   1.593   9.740   0.808 -1.9610 -0.0859 -1.9670
  535MOL0     H73779   1.304   9.714   0.794 -0.0214 -0.9497 -1.0695
  535MOL0     H73780   1.067   9.511   0.920  0.0665  0.7871 -1.6107
  535MOL0     H73781   1.054   9.683   0.911 -2.1771  1.1981  4.2154
  535MOL0     H73782   0.942   9.584   1.095  0.9205 -1.5413 -1.9199
  535MOL0     H73783   1.103   9.609   1.187 -0.9339 -1.0721 -0.2097
  535MOL0     H73784   0.988   9.808   1.238 -2.7103  1.7391 -0.8428
  535MOL0     H73785   1.118   9.845   1.129  0.4275 -1.0858  0.8897
  535MOL0     H73786   0.917   9.976   1.065  2.0623  0.5870  0.7128
  535MOL0     H73787   0.962   9.869   0.938  2.2156 -2.1203  1.5143
  535MOL0     H73788   0.843   9.930   1.300  0.2251  1.3389 -1.0605
  535MOL0     H73789   0.670   9.877   1.610  3.3230  0.4480  0.7083
  535MOL0     H73790   0.662  10.026   1.518 -1.1390 -1.2342 -1.9082
  535MOL0     H73791   0.816   9.932   1.531  0.4478 -1.8554 -0.0737
  535MOL0     H73792   0.480   9.898   1.829 -0.0645  0.6154  0.8463
  535MOL0     H73793   0.341   9.864   2.012  2.0009  0.9527  0.0233
  535MOL0     H73794   0.182   9.861   2.178 -1.0305 -2.5908  0.1431
  535MOL0     H73795   0.105   9.987   2.067 -2.9198 -2.2214 -4.0475
  535MOL0     H73796  -0.109   9.928   2.147  0.3794  0.2125 -0.7156
  535MOL0     H73797  -0.052   9.775   2.220  1.6002  0.1219 -1.0393
  535MOL0     H73798   0.024  10.059   2.303 -1.4433  0.5850  0.2835
  535MOL0     H73799   0.101   9.919   2.376 -1.0499  3.4067  3.9404
  535MOL0     H73800  -0.136   9.853   2.478  0.7208 -0.1033  0.3191
  535MOL0     H73801  -0.209   9.970   2.376 -1.1528 -0.7124  1.5346
  535MOL0     H73802  -0.075  10.150   2.505  3.1785 -2.3079 -1.4001
  535MOL0     H73803  -0.218  10.084   2.588  0.7551 -0.6958  2.5691
  535MOL0     H73804   0.052   9.953   2.609  1.9037  1.1280  1.8198
  535MOL0     H73805  -0.097   9.923   2.700  2.1826 -0.5856  0.2982
  535MOL0     H73806  -0.077  10.147   2.813  0.8174  1.4586 -0.8023
  535MOL0     H73807   0.065  10.175   2.718  0.1024  1.6207  2.9287
  535MOL0     H73808   0.184  10.014   2.825  0.6499  3.9761 -1.2069
  535MOL0     H73809   0.063   9.946   2.920 -1.2921 -0.1422 -0.5486
  535MOL0     H73810   0.013   9.804   1.761  0.5179 -2.5478 -3.6646
  535MOL0     H73811   0.149   9.856   1.558 -4.1007  1.5804  2.9605
  535MOL0     H73812   0.410   9.687   1.275 -1.0512  2.1403 -2.3984
  535MOL0     H73813   0.578   9.712   1.066  1.3703 -2.0543  0.9703
  535MOL0     H73814   2.279   8.817   0.949 -0.0907 -0.6583 -0.4764
  535MOL0     H73815   2.400   8.610   0.923 -0.9350  0.4924  0.2597
  535MOL0     H73816   2.690   8.374   0.753  3.2343 -0.8927 -0.9000
  535MOL0     H73817   2.822   8.162   0.798  0.3152 -2.7236 -4.2662
  535MOL0     H73818   2.566   7.792   0.909  1.0821 -0.1073  0.1561
  535MOL0     H73819   2.607   7.781   0.734  0.6587  0.4189 -0.7675
  535MOL0     H73820   2.697   7.601   0.900 -1.6605 -0.7402 -1.8757
  535MOL0     H73821   2.807   7.720   0.946 -2.2695  0.1897 -0.4445
  535MOL0     H73822   2.817   7.553   0.717 -0.1768 -0.9846  2.2532
  535MOL0     H73823   2.835   7.721   0.660 -1.0701 -1.1875 -0.9971
  535MOL0     H73824   3.030   7.748   0.818  0.4810 -1.2569  1.1921
  535MOL0     H73825   3.053   7.614   0.707  1.7955 -1.5459  1.7157
  535MOL0     H73826   3.031   7.362   1.030 -1.9768  2.2065  3.6126
  535MOL0     H73827   2.447   7.961   0.807 -0.4675  0.4258 -1.1496
  535MOL0     H73828   2.229   8.161   0.664 -1.6125 -1.4765 -0.0873
  535MOL0     H73829   2.260   8.040   0.790 -0.2082  0.4647 -0.0840
  535MOL0     H73830   2.220   8.213   0.823 -1.2169 -0.4024 -0.2360
  536MOL0     O73831   2.146   7.805   2.986 -0.2235  0.1346  0.4889
  536MOL0     C73832   2.105   7.887   2.904 -0.2387 -1.3026 -0.6511
  536MOL0     O73833   2.085   7.876   2.767 -0.3967  0.2828  0.3115
  536MOL0     C73834   2.137   7.774   2.686 -0.0180 -1.2400 -0.6248
  536MOL0     C73835   2.193   7.796   2.559 -0.7142  0.4886 -0.0371
  536MOL0     C73836   2.231   7.681   2.490 -0.0134 -0.2514  0.5210
  536MOL0     C73837   2.204   7.550   2.529  0.2541 -1.0578  0.3673
  536MOL0     O73838   2.226   7.453   2.439 -0.7484  0.8495  0.0076
  536MOL0     C73839   2.230   7.323   2.494  0.4997 -0.0589  0.1404
  536MOL0     C73840   2.297   7.225   2.396  0.5108  0.1954  0.5955
  536MOL0     C73841   2.234   7.231   2.253 -0.5172  0.1511 -0.2463
  536MOL0     C73842   2.274   7.100   2.175  0.2653 -0.5601 -0.2785
  536MOL0     C73843   2.232   7.117   2.019  0.1848 -0.9344  0.7258
  536MOL0     C73844   2.080   7.162   1.993 -1.2784  0.2743  0.5758
  536MOL0     C73845   1.987   7.047   2.038  0.9459  0.7149 -0.2702
  536MOL0     C73846   1.828   7.046   2.003 -0.3129 -0.1698 -0.4412
  536MOL0     N73847   1.817   6.986   1.877 -0.8596  0.0629 -0.0295
  536MOL0     C73848   1.821   6.851   1.848 -1.0123 -0.3185  1.0266
  536MOL0     C73849   1.790   6.844   1.725  0.2178 -0.4285  0.7070
  536MOL0     C73850   1.761   6.733   1.631  0.5505  0.7004 -0.3927
  536MOL0     C73851   1.778   6.592   1.688  0.4937  0.1635  0.1603
  536MOL0     C73852   1.914   6.535   1.666 -0.3199 -0.3939  0.2868
  536MOL0     C73853   1.956   6.415   1.756  0.0225 -0.1356  0.7533
  536MOL0     O73854   2.022   6.449   1.882  0.0024 -0.4054  0.2458
  536MOL0     C73855   2.009   6.367   1.987  0.1168 -0.6229  0.8739
  536MOL0     C73856   2.016   6.422   2.114  0.4302  0.9423  0.0945
  536MOL0     C73857   2.002   6.332   2.227 -0.5070 -0.5753 -0.3706
  536MOL0     C73858   2.002   6.403   2.360 -0.2957 -0.3126  0.0443
  536MOL0     C73859   1.983   6.189   2.209 -0.2753 -0.6153  0.2726
  536MOL0     C73860   1.955   6.094   2.322  1.0336  0.1699  0.3471
  536MOL0     O73861   1.927   6.143   2.442 -0.7416 -0.2003 -0.1327
  536MOL0     C73862   1.906   6.062   2.549 -0.1934  0.5526 -0.1345
  536MOL0     C73863   1.949   6.107   2.676  1.2635  0.6759  0.5206
  536MOL0     C73864   1.951   6.031   2.797 -0.0427  0.5276  0.5605
  536MOL0     C73865   1.892   5.905   2.785  0.1315  0.4118 -0.9382
  536MOL0     O73866   1.883   5.829   2.903 -0.2369 -0.4969  0.0971
  536MOL0     C73867   1.964   5.705   2.898  0.1911 -0.8633  1.0366
  536MOL0     C73868   1.908   5.621   3.010 -1.0449 -0.1668 -0.3555
  536MOL0     C73869   1.776   5.553   2.977 -0.0826 -0.7262  0.0766
  536MOL0     C73870   1.651   5.645   2.977  0.1361  0.9812  0.6282
  536MOL0     C73871   1.522   5.562   2.951 -0.2745 -0.0925  0.2593
  536MOL0     C73872   1.494   5.455   3.054  0.1681  0.1573  0.3065
  536MOL0     C73873   1.366   5.381   3.007  0.0175  0.2272  0.3001
  536MOL0     C73874   1.241   5.471   2.992 -0.2429  0.0070 -0.5156
  536MOL0    Cl73875   1.195   5.541   3.144  0.0776 -0.1562  0.1699
  536MOL0     C73876   1.849   5.847   2.666 -0.7571  0.1427 -0.0682
  536MOL0     C73877   1.850   5.928   2.558  0.1646 -0.6247  0.5150
  536MOL0     O73878   1.980   5.975   2.294  0.9271  0.1180 -0.4471
  536MOL0     C73879   1.983   6.143   2.073  0.1992  0.0193 -0.2708
  536MOL0     C73880   1.984   6.229   1.972 -0.2006  0.5512  0.4560
  536MOL0     N73881   1.792   6.977   1.670 -0.1279  0.7644 -0.4467
  536MOL0     N73882   1.804   7.058   1.765  0.0357 -0.5950  0.0968
  536MOL0     C73883   2.149   7.539   2.655 -0.0194 -0.2878  0.0037
  536MOL0     C73884   2.120   7.643   2.734  0.4076  0.1533 -0.0139
  536MOL0     C73885   2.079   8.019   2.973 -1.1309  0.4925  0.2943
  536MOL0     C73886   2.123   8.143   2.923 -0.5249  0.0576  0.1831
  536MOL0     C73887   2.118   8.262   2.989 -0.9175  0.2524  0.5724
  536MOL0     C73888   2.042   8.263   3.105  0.6846  0.3518 -0.2431
  536MOL0     O73889   2.002   8.379   3.174  0.4136 -0.3747 -0.1823
  536MOL0     C73890   2.025   8.511   3.116 -0.1876  0.3253  0.1363
  536MOL0     C73891   1.926   8.612   3.175  0.7679 -0.1658 -1.2204
  536MOL0     C73892   1.974   8.688   3.301 -0.0937  0.1289  0.7749
  536MOL0     C73893   1.903   8.819   3.317  0.0974  0.0102 -0.2238
  536MOL0     C73894   1.963   8.934   3.244 -0.8761  0.5068  0.3385
  536MOL0     C73895   1.997   9.028   3.175  0.1693  0.4221 -0.2909
  536MOL0     C73896   1.994   8.140   3.158 -0.4390 -1.2639  0.3560
  536MOL0     C73897   2.015   8.019   3.099 -0.3429 -0.7900 -0.2184
  536MOL0     C73898   1.945   7.896   3.153  0.8339 -0.5139 -0.5769
  536MOL0     H73899   2.197   7.897   2.519  1.7967  0.2549 -0.5062
  536MOL0     H73900   2.256   7.697   2.386 -0.3116 -2.3902  0.0885
  536MOL0     H73901   2.125   7.300   2.515  0.0637 -0.3734 -2.1342
  536MOL0     H73902   2.280   7.315   2.591 -1.0723  3.0570  1.3302
  536MOL0     H73903   2.401   7.256   2.384  0.1373  0.8463 -1.2801
  536MOL0     H73904   2.272   7.126   2.435  0.7586 -0.3274 -0.5501
  536MOL0     H73905   2.126   7.242   2.267 -0.3993  2.7039 -0.7728
  536MOL0     H73906   2.253   7.323   2.197 -3.3813  2.0372  1.6055
  536MOL0     H73907   2.381   7.082   2.174  0.8663  2.2415 -2.8453
  536MOL0     H73908   2.214   7.017   2.213  0.9535  0.0226  2.2383
  536MOL0     H73909   2.252   7.015   1.986  0.6108 -0.8290  0.6616
  536MOL0     H73910   2.296   7.189   1.967  0.1360 -1.9332 -0.7796
  536MOL0     H73911   2.067   7.256   2.048  0.1322  0.1570  1.1443
  536MOL0     H73912   2.053   7.177   1.888  2.7020  0.1796 -0.6254
  536MOL0     H73913   1.991   7.028   2.146  1.0633 -1.0381 -0.5517
  536MOL0     H73914   2.021   6.959   1.982 -0.4999  2.2205 -3.8444
  536MOL0     H73915   1.783   6.987   2.083  2.2938 -1.5002  0.1689
  536MOL0     H73916   1.787   7.147   2.014  0.2421 -0.0559  0.8146
  536MOL0     H73917   1.839   6.770   1.918 -0.4362  1.1480  2.6746
  536MOL0     H73918   1.829   6.742   1.546  2.2800  1.6877  1.0251
  536MOL0     H73919   1.656   6.742   1.601 -0.0706 -1.6503  0.8545
  536MOL0     H73920   1.745   6.572   1.790  1.1731 -2.6354 -0.0610
  536MOL0     H73921   1.706   6.525   1.639  0.1743 -0.3517  1.3057
  536MOL0     H73922   1.933   6.509   1.561  2.5512  3.7111 -0.4478
  536MOL0     H73923   1.986   6.614   1.688 -0.8504 -0.0133  0.6857
  536MOL0     H73924   1.867   6.356   1.779 -0.6568  1.2031  1.7271
  536MOL0     H73925   2.034   6.363   1.699  0.6183  1.1061  0.3969
  536MOL0     H73926   2.026   6.529   2.129  1.9617  1.2850 -2.6653
  536MOL0     H73927   2.072   6.352   2.427  1.2481  2.3909  0.5972
  536MOL0     H73928   1.905   6.408   2.411 -0.2650  1.7768 -0.0362
  536MOL0     H73929   2.046   6.503   2.360  0.1491 -0.4976  1.1029
  536MOL0     H73930   1.984   6.209   2.683  0.1899  0.9751  2.2538
  536MOL0     H73931   1.990   6.079   2.886  1.5435  1.3164 -0.5070
  536MOL0     H73932   1.962   5.652   2.803  0.0638  1.6177 -0.4443
  536MOL0     H73933   2.067   5.738   2.912 -1.6194  6.2875  1.6126
  536MOL0     H73934   1.977   5.537   3.023  1.6906  2.0770  0.3937
  536MOL0     H73935   1.912   5.670   3.108  0.9512 -2.9678  1.1332
  536MOL0     H73936   1.754   5.475   3.051 -2.0476 -2.6776 -2.3571
  536MOL0     H73937   1.806   5.498   2.887  4.2337 -2.5607  2.3139
  536MOL0     H73938   1.667   5.722   2.902  2.7254 -1.4587 -1.5328
  536MOL0     H73939   1.640   5.691   3.076  0.2950  1.4195  0.4422
  536MOL0     H73940   1.445   5.638   2.935 -0.4339 -0.1523  0.7493
  536MOL0     H73941   1.522   5.515   2.852 -1.3624 -1.3333  0.8178
  536MOL0     H73942   1.473   5.504   3.150 -0.2939 -0.8129  0.7180
  536MOL0     H73943   1.559   5.368   3.053 -1.0164 -0.7880 -2.1465
  536MOL0     H73944   1.330   5.304   3.076  0.4880 -1.7653 -1.5464
  536MOL0     H73945   1.390   5.321   2.918 -0.6856  0.6814 -0.2056
  536MOL0     H73946   1.160   5.409   2.954  0.2188 -1.4753  0.7810
  536MOL0     H73947   1.254   5.552   2.920  3.9325  1.6501  1.7058
  536MOL0     H73948   1.802   5.749   2.658  1.8000 -1.1178 -1.1733
  536MOL0     H73949   1.802   5.892   2.467  0.7637 -2.4215  0.8816
  536MOL0     H73950   1.969   6.040   2.042  1.7468  0.4646 -2.6539
  536MOL0     H73951   1.978   6.175   1.878 -0.7396  0.4299  0.5591
  536MOL0     H73952   2.118   7.444   2.698  0.4549 -1.3855 -1.9174
  536MOL0     H73953   2.077   7.630   2.832 -0.1627  1.0930 -0.1275
  536MOL0     H73954   2.176   8.158   2.829  0.9255  0.1929  0.9996
  536MOL0     H73955   2.169   8.350   2.949  1.2821 -1.7292 -1.2967
  536MOL0     H73956   2.131   8.532   3.134 -0.1436 -0.4560  0.8365
  536MOL0     H73957   2.006   8.506   3.008  0.3345 -1.0316  0.0896
  536MOL0     H73958   1.832   8.562   3.201 -2.0060  3.2846 -3.5035
  536MOL0     H73959   1.907   8.688   3.099  1.3324  2.1694  0.8503
  536MOL0     H73960   1.953   8.627   3.390 -2.6550  1.7155  1.3707
  536MOL0     H73961   2.080   8.709   3.284  1.1277 -3.6899  2.6819
  536MOL0     H73962   1.919   8.853   3.420 -0.5829  3.5235 -1.1211
  536MOL0     H73963   1.795   8.814   3.304 -0.2454 -1.9121  2.6631
  536MOL0     H73964   2.015   9.108   3.107 -0.2471  1.5021  0.8267
  536MOL0     H73965   1.928   8.151   3.243 -0.3115 -0.5143  0.3625
  536MOL0     H73966   2.016   7.822   3.189 -1.0395 -1.6655  0.9634
  536MOL0     H73967   1.869   7.919   3.228  0.8083 -1.3916 -0.3154
  536MOL0     H73968   1.889   7.855   3.068 -2.9441 -2.0139  2.3577
  537MOL0     O73969   7.304  10.742  10.807 -0.3409 -0.4364  0.5792
  537MOL0     C73970   7.393  10.797  10.745 -0.9817  0.5350 -0.1747
  537MOL0     O73971   7.400  10.815  10.604  0.0879  1.0642  0.7567
  537MOL0     C73972   7.322  10.740  10.514 -0.8895 -0.4004 -1.2498
  537MOL0     C73973   7.296  10.609  10.539 -0.0779  0.0138 -0.5725
  537MOL0     C73974   7.239  10.527  10.441 -0.3445  0.2752  0.8488
  537MOL0     C73975   7.184  10.589  10.319 -0.7415  0.8112 -0.7882
  537MOL0     O73976   7.110  10.518  10.233 -0.5673 -0.1279 -0.2800
  537MOL0     C73977   6.972  10.529  10.247  0.5604 -0.1335  0.2835
  537MOL0     C73978   6.908  10.481  10.117  0.1298  0.8938 -1.4291
  537MOL0     C73979   6.758  10.496  10.141 -0.3801 -0.1539  0.7811
  537MOL0     C73980   6.688  10.508  10.003  0.2244 -0.4532  1.0197
  537MOL0     C73981   6.532  10.484  10.006  0.4853  0.1404 -0.1257
  537MOL0     C73982   6.470  10.586  10.107 -0.3372  0.4623 -0.3029
  537MOL0     C73983   6.319  10.570  10.112 -0.3158 -0.1979  0.2462
  537MOL0     C73984   6.267  10.472  10.213  0.0757 -1.2358 -0.3879
  537MOL0     N73985   6.262  10.522  10.348 -0.3422  0.7690  0.0538
  537MOL0     C73986   6.346  10.486  10.452 -0.1547 -0.3119 -0.4465
  537MOL0     C73987   6.295  10.555  10.561 -0.2582  0.8742  0.0029
  537MOL0     C73988   6.365  10.583  10.686  0.0927 -0.1419 -0.5263
  537MOL0     C73989   6.370  10.464  10.777 -0.4830 -0.9809  0.5013
  537MOL0     C73990   6.418  10.506  10.919  0.6338  0.1121  0.9306
  537MOL0     C73991   6.432  10.379  10.996 -0.3646 -0.2218 -1.4207
  537MOL0     O73992   6.520  10.407  11.107 -0.0364  0.1173  0.5163
  537MOL0     C73993   6.632  10.332  11.137  0.7930  0.2855 -0.2234
  537MOL0     C73994   6.750  10.387  11.190 -0.2457  0.5511 -0.1158
  537MOL0     C73995   6.854  10.320  11.242  1.1381 -0.4199  0.4080
  537MOL0     C73996   6.956  10.399  11.318  0.0560  0.7775 -0.2925
  537MOL0     C73997   6.850  10.177  11.239  1.0163 -0.3789 -1.1155
  537MOL0     C73998   6.965  10.087  11.281  1.0775  0.6679  0.0745
  537MOL0     O73999   6.959   9.954  11.236 -0.3312 -0.7255  0.0417
  537MOL0     C74000   7.062   9.865  11.224 -0.4235 -0.3348 -0.0262
  537MOL0     C74001   7.052   9.730  11.257  0.3246 -0.5577  1.6495
  537MOL0     C74002   7.163   9.643  11.259 -0.4973  0.3604 -0.6042
  537MOL0     C74003   7.294   9.691  11.226  0.7446 -0.1026 -0.5771
  537MOL0     O74004   7.404   9.619  11.232 -0.0434 -0.1411 -0.1094
  537MOL0     C74005   7.432   9.550  11.356 -0.8145 -0.2824 -0.3282
  537MOL0     C74006   7.501   9.420  11.327 -0.2935  0.1251 -0.1268
  537MOL0     C74007   7.392   9.307  11.342 -0.2304  0.5662  0.8406
  537MOL0     C74008   7.467   9.170  11.339 -0.1911  0.0249 -0.3809
  537MOL0     C74009   7.387   9.042  11.391  0.2613  0.0150  0.6471
  537MOL0     C74010   7.353   9.057  11.538 -0.7692  0.6424 -0.1377
  537MOL0     C74011   7.257   8.945  11.584 -0.2170  0.4673 -0.9945
  537MOL0     C74012   7.335   8.819  11.609 -0.9359  1.0840 -0.0651
  537MOL0    Cl74013   7.440   8.841  11.758  0.0762  0.4326  0.1626
  537MOL0     C74014   7.306   9.823  11.179 -0.0565 -0.8484 -0.1419
  537MOL0     C74015   7.186   9.905  11.187 -0.4074  0.4689  0.3004
  537MOL0     O74016   7.062  10.126  11.346 -0.0777 -0.9080  0.1252
  537MOL0     C74017   6.733  10.123  11.185  0.1319 -0.1822  0.2897
  537MOL0     C74018   6.624  10.196  11.137 -1.8074  0.7320 -0.3555
  537MOL0     N74019   6.183  10.617  10.509  0.1891  0.2944 -0.2975
  537MOL0     N74020   6.165  10.604  10.391 -0.8260  0.2290  0.0816
  537MOL0     C74021   7.212  10.725  10.312 -0.0530  0.3949  0.6762
  537MOL0     C74022   7.285  10.802  10.396  0.1092  0.4418 -0.5598
  537MOL0     C74023   7.505  10.840  10.838 -0.6963  0.6182 -0.4533
  537MOL0     C74024   7.479  10.837  10.979 -0.7612 -0.4290 -0.2778
  537MOL0     C74025   7.573  10.881  11.072  0.2562  0.5142 -0.5555
  537MOL0     C74026   7.700  10.910  11.027 -0.5811 -0.6156  0.2259
  537MOL0     O74027   7.799  10.958  11.109  0.1552  0.4032  0.0499
  537MOL0     C74028   7.779  11.096  11.155  1.0201  0.1729  0.2613
  537MOL0     C74029   7.881  11.189  11.091  0.3985 -0.0420 -0.2442
  537MOL0     C74030   7.899  11.321  11.163 -0.1700 -1.0717 -0.6692
  537MOL0     C74031   8.001  11.404  11.098 -0.3448  0.0339  0.0224
  537MOL0     C74032   7.983  11.556  11.125  0.7885 -1.0653  0.4925
  537MOL0     C74033   7.972  11.677  11.136 -0.4061  0.1044  0.8436
  537MOL0     C74034   7.737  10.897  10.890  0.4617 -0.7107  0.9998
  537MOL0     C74035   7.638  10.867  10.794 -0.6345 -1.0224 -0.7042
  537MOL0     C74036   7.669  10.875  10.649 -0.7648  0.4516  0.9363
  537MOL0     H74037   7.349  10.565  10.623  0.4337 -0.5248 -1.1698
  537MOL0     H74038   7.219  10.422  10.457  0.9854 -0.0103  0.7838
  537MOL0     H74039   6.943  10.633  10.260 -2.4950 -0.7861 -0.6663
  537MOL0     H74040   6.932  10.478  10.335 -1.0764  1.1738  0.3311
  537MOL0     H74041   6.953  10.543  10.039  3.2237  2.1036  1.0823
  537MOL0     H74042   6.935  10.376  10.104  0.7403  0.4865  2.0829
  537MOL0     H74043   6.725  10.398  10.175 -1.6671 -0.9838 -2.4640
  537MOL0     H74044   6.746  10.587  10.201  2.7244  1.0203 -0.1604
  537MOL0     H74045   6.710  10.609   9.970 -2.9010  0.2238  0.6758
  537MOL0     H74046   6.731  10.436   9.931 -2.1918 -1.9712  0.9716
  537MOL0     H74047   6.513  10.378  10.025  2.4184  0.1274  2.3135
  537MOL0     H74048   6.492  10.508   9.907  0.2765 -0.8510 -0.2917
  537MOL0     H74049   6.518  10.571  10.204  1.8967 -2.2248 -1.6774
  537MOL0     H74050   6.496  10.685  10.069 -2.2983  1.0872 -0.1555
  537MOL0     H74051   6.279  10.532  10.018 -2.9786 -1.1930  1.6786
  537MOL0     H74052   6.274  10.668  10.130 -1.9459 -0.8196 -0.3211
  537MOL0     H74053   6.165  10.445  10.183  0.4834  0.3358 -3.6840
  537MOL0     H74054   6.330  10.383  10.206  0.3565 -0.9830 -1.3501
  537MOL0     H74055   6.447  10.450  10.435  0.6263  1.1763  0.7816
  537MOL0     H74056   6.308  10.652  10.749  2.2860  0.1619  1.2742
  537MOL0     H74057   6.465  10.623  10.663  0.6183 -1.9479 -1.6506
  537MOL0     H74058   6.274  10.413  10.790 -0.0974 -2.0330 -0.6666
  537MOL0     H74059   6.442  10.390  10.743  0.0527 -1.6905  3.0030
  537MOL0     H74060   6.519  10.546  10.909  0.5328  0.0044 -0.8032
  537MOL0     H74061   6.352  10.567  10.982  1.8909 -0.8207  3.3195
  537MOL0     H74062   6.338  10.349  11.042 -0.2415  3.3558  1.6314
  537MOL0     H74063   6.469  10.305  10.924 -0.4882 -1.0636 -0.6224
  537MOL0     H74064   6.743  10.495  11.198 -1.7780  0.6437 -2.1086
  537MOL0     H74065   6.998  10.336  11.397 -2.2828 -2.3848 -1.3194
  537MOL0     H74066   6.916  10.486  11.370  0.8963  0.7652  0.3956
  537MOL0     H74067   7.043  10.428  11.259  0.6837 -0.5929 -0.0771
  537MOL0     H74068   6.959   9.691  11.298 -1.9926  1.2275 -1.4744
  537MOL0     H74069   7.155   9.539  11.287  1.3682  0.5841  0.9546
  537MOL0     H74070   7.504   9.603  11.418 -0.6272 -1.2271  0.2859
  537MOL0     H74071   7.339   9.545  11.414 -1.1147  0.9111 -0.6718
  537MOL0     H74072   7.542   9.415  11.226 -1.7115  1.2354 -0.7776
  537MOL0     H74073   7.579   9.407  11.403 -1.8345 -0.4925  1.4126
  537MOL0     H74074   7.314   9.323  11.267 -1.4270  2.3733  2.3741
  537MOL0     H74075   7.339   9.315  11.437 -0.4233  0.3401  0.7537
  537MOL0     H74076   7.560   9.189  11.393  0.1986  0.6193 -1.2489
  537MOL0     H74077   7.496   9.145  11.237  2.4972 -0.2015  0.3649
  537MOL0     H74078   7.292   9.042  11.338  2.2945  0.8983 -3.3715
  537MOL0     H74079   7.445   8.952  11.368  0.1413  0.3957 -1.3189
  537MOL0     H74080   7.303   9.152  11.558  0.9692  1.6751 -0.5037
  537MOL0     H74081   7.449   9.053  11.592  0.0373  1.4557 -1.4463
  537MOL0     H74082   7.169   8.947  11.520 -1.9928  2.5390  1.3394
  537MOL0     H74083   7.227   8.985  11.681 -0.0228  0.0755 -0.7712
  537MOL0     H74084   7.401   8.802  11.523 -1.6430 -1.1808 -0.2224
  537MOL0     H74085   7.262   8.740  11.627 -0.5659  0.8300  0.3473
  537MOL0     H74086   7.388   9.866  11.122 -1.4422  1.0060 -0.8483
  537MOL0     H74087   7.215  10.006  11.161  1.9935 -0.6582 -1.9231
  537MOL0     H74088   6.725  10.016  11.169  3.0062 -0.3686 -0.4144
  537MOL0     H74089   6.531  10.141  11.123 -0.8862 -1.2045  0.7498
  537MOL0     H74090   7.171  10.775  10.224  0.2368  1.2144  0.9916
  537MOL0     H74091   7.311  10.903  10.366 -0.9187  0.1235 -2.6843
  537MOL0     H74092   7.379  10.834  11.021 -1.0582  0.2781 -0.9110
  537MOL0     H74093   7.553  10.898  11.177  1.5747 -2.5301  0.2925
  537MOL0     H74094   7.680  11.124  11.118  0.7459 -2.2690 -1.1318
  537MOL0     H74095   7.783  11.101  11.264  2.3500 -0.4542  0.2610
  537MOL0     H74096   7.851  11.210  10.988 -2.6736 -0.0368  0.5602
  537MOL0     H74097   7.983  11.149  11.099  0.5986  0.1464 -1.6179
  537MOL0     H74098   7.804  11.375  11.160 -0.4739 -1.5304  0.3481
  537MOL0     H74099   7.916  11.296  11.268 -1.7885  1.8602  0.4292
  537MOL0     H74100   8.017  11.389  10.991 -0.9153 -1.5412  0.1298
  537MOL0     H74101   8.086  11.374  11.160  1.3246 -1.5862 -2.8606
  537MOL0     H74102   7.982  11.784  11.136  4.3000 -0.1379  0.1645
  537MOL0     H74103   7.842  10.911  10.869  0.6727 -1.7448  1.3038
  537MOL0     H74104   7.610  10.949  10.594  2.7349  0.6964 -2.9527
  537MOL0     H74105   7.771  10.911  10.634 -0.8684  0.4400  0.1661
  537MOL0     H74106   7.645  10.777  10.607 -4.6750  0.3244  3.0263
  538MOL0     O74107   0.432   4.536   7.051  0.0679  0.2512  0.2798
  538MOL0     C74108   0.490   4.466   6.972  0.4138  0.1810 -0.5812
  538MOL0     O74109   0.525   4.508   6.843  0.0206  0.3677 -1.0335
  538MOL0     C74110   0.460   4.633   6.811 -0.7491  0.5562 -0.5566
  538MOL0     C74111   0.532   4.729   6.737  0.5932  0.8556  0.2978
  538MOL0     C74112   0.463   4.827   6.668  0.4842 -0.4585  0.1093
  538MOL0     C74113   0.320   4.847   6.686  0.5093 -1.3256 -0.5937
  538MOL0     O74114   0.249   4.949   6.616  0.8152  0.2753  0.7125
  538MOL0     C74115   0.139   5.015   6.688 -0.0390 -0.3178  0.0568
  538MOL0     C74116   0.189   5.145   6.743 -0.1720 -1.0887 -0.1622
  538MOL0     C74117   0.273   5.227   6.647 -0.0659 -0.2139  0.8487
  538MOL0     C74118   0.326   5.360   6.714  1.2542 -0.2029  0.1832
  538MOL0     C74119   0.424   5.439   6.622  0.5097 -0.2180  0.7600
  538MOL0     C74120   0.423   5.590   6.645  0.6169 -0.5487  1.1678
  538MOL0     C74121   0.287   5.650   6.576 -0.2815  0.2619  1.0624
  538MOL0     C74122   0.313   5.794   6.551  0.5421 -0.3196  0.9345
  538MOL0     N74123   0.313   5.889   6.670  0.0442  0.6284  0.8292
  538MOL0     C74124   0.426   5.934   6.737 -0.1171  0.1864  0.2886
  538MOL0     C74125   0.374   6.021   6.829 -0.8202  0.1859  0.0798
  538MOL0     C74126   0.463   6.101   6.910  0.4804 -0.6422 -0.5366
  538MOL0     C74127   0.543   6.011   7.006  0.6021  0.2970  1.1651
  538MOL0     C74128   0.646   6.091   7.096  0.6924 -0.4018 -0.3783
  538MOL0     C74129   0.785   6.031   7.106 -0.4405 -0.4000  0.8176
  538MOL0     O74130   0.851   6.045   6.977 -0.4287 -0.4176 -0.7630
  538MOL0     C74131   0.969   5.972   6.940  0.2856  0.2038 -0.7760
  538MOL0     C74132   1.041   5.884   7.033  0.2907  0.5272  0.1811
  538MOL0     C74133   1.165   5.822   6.997  0.1103 -0.5167 -0.6605
  538MOL0     C74134   1.244   5.735   7.097 -0.1242 -0.0983 -0.1717
  538MOL0     C74135   1.228   5.863   6.876  0.4067  0.0892 -0.2787
  538MOL0     C74136   1.361   5.824   6.828  0.2062  0.2478 -0.0303
  538MOL0     O74137   1.402   5.695   6.867 -0.0960 -0.6340 -0.0491
  538MOL0     C74138   1.536   5.667   6.896 -0.1731 -0.3917  0.1604
  538MOL0     C74139   1.577   5.537   6.888 -0.9249 -1.0810 -0.1692
  538MOL0     C74140   1.711   5.500   6.914  0.1374 -0.2969 -0.0086
  538MOL0     C74141   1.799   5.593   6.969 -0.2115  0.4591  0.7244
  538MOL0     O74142   1.931   5.552   6.977  0.8605 -0.2049 -0.2982
  538MOL0     C74143   2.016   5.657   6.935 -0.6249 -0.0744 -0.7074
  538MOL0     C74144   2.141   5.662   7.026  0.0198  0.1781  0.3923
  538MOL0     C74145   2.095   5.709   7.168  0.3271  0.4245 -0.2087
  538MOL0     C74146   2.220   5.701   7.261 -0.1699  0.9052 -0.2081
  538MOL0     C74147   2.186   5.752   7.400 -1.4602 -0.5067  0.0406
  538MOL0     C74148   2.304   5.729   7.503 -0.6033 -0.0155 -0.9996
  538MOL0     C74149   2.251   5.756   7.648 -0.4701 -0.1493  0.6223
  538MOL0     C74150   2.207   5.902   7.669  0.0158 -0.0212  0.6059
  538MOL0    Cl74151   2.364   5.977   7.691 -0.1828  0.0471 -0.0640
  538MOL0     C74152   1.756   5.724   7.004 -0.3633 -0.7179  0.2705
  538MOL0     C74153   1.620   5.762   6.966 -0.8239 -0.0521 -0.6323
  538MOL0     O74154   1.427   5.898   6.763 -1.0924 -0.7990  1.0612
  538MOL0     C74155   1.151   5.942   6.790 -0.2112 -0.5943  0.6267
  538MOL0     C74156   1.024   5.997   6.818  0.4328  1.4164 -0.1259
  538MOL0     N74157   0.235   6.022   6.824  0.5720 -0.2490  0.4747
  538MOL0     N74158   0.199   5.935   6.729  0.1180 -0.1234  0.1083
  538MOL0     C74159   0.247   4.750   6.761  0.8844  0.0057  1.0963
  538MOL0     C74160   0.316   4.638   6.817  0.3340  0.2091  0.2228
  538MOL0     C74161   0.552   4.335   7.007 -0.2360 -1.1858 -0.2692
  538MOL0     C74162   0.674   4.310   6.943  0.4430 -0.2708 -0.3830
  538MOL0     C74163   0.736   4.194   6.968 -0.3583  0.8431 -0.3999
  538MOL0     C74164   0.671   4.086   7.027  0.0308 -0.2862 -0.8297
  538MOL0     O74165   0.747   3.967   7.024 -0.6364 -0.4810 -0.2791
  538MOL0     C74166   0.702   3.846   7.089 -1.1350 -0.2777 -0.9270
  538MOL0     C74167   0.794   3.732   7.058 -0.6449 -0.1396 -0.3871
  538MOL0     C74168   0.878   3.699   7.184 -0.3560  0.1744  0.0475
  538MOL0     C74169   1.008   3.775   7.194  0.4326 -0.2978  0.5135
  538MOL0     C74170   1.049   3.778   7.332 -1.1875 -0.7705 -0.8389
  538MOL0     C74171   1.092   3.804   7.443 -0.4185 -0.2750  0.3381
  538MOL0     C74172   0.538   4.107   7.081 -0.1653 -0.1186 -1.2463
  538MOL0     C74173   0.486   4.234   7.074 -0.4165 -0.2672 -0.0132
  538MOL0     C74174   0.359   4.264   7.154 -0.5205 -0.1786  0.5222
  538MOL0     H74175   0.638   4.720   6.753  0.6470 -2.2313 -1.1169
  538MOL0     H74176   0.498   4.901   6.596 -0.0350 -1.3123 -1.0459
  538MOL0     H74177   0.099   4.957   6.771 -1.6318 -0.1050 -0.5423
  538MOL0     H74178   0.058   5.040   6.620  1.7306  0.7933 -1.7769
  538MOL0     H74179   0.125   5.220   6.791  2.3585  0.4146  1.0768
  538MOL0     H74180   0.266   5.112   6.813 -1.0871 -1.6891  0.5811
  538MOL0     H74181   0.359   5.179   6.600  0.8683  4.2570 -2.7227
  538MOL0     H74182   0.215   5.261   6.560  0.4411  2.3449  1.4212
  538MOL0     H74183   0.242   5.429   6.729 -0.6750 -1.0994 -4.6925
  538MOL0     H74184   0.363   5.334   6.814 -1.5358 -0.7681  1.1480
  538MOL0     H74185   0.405   5.421   6.515  3.4494  0.4244  0.0167
  538MOL0     H74186   0.520   5.401   6.658  0.4745  0.8745  2.0554
  538MOL0     H74187   0.439   5.631   6.746 -0.1831 -1.1703  1.5538
  538MOL0     H74188   0.512   5.629   6.594  1.4171 -4.2988 -0.6495
  538MOL0     H74189   0.206   5.635   6.649  0.1512  1.6651  1.8616
  538MOL0     H74190   0.285   5.605   6.477  1.9299  0.1721  1.0161
  538MOL0     H74191   0.412   5.813   6.508 -0.2350  1.5733 -0.1304
  538MOL0     H74192   0.241   5.830   6.478  0.6274 -1.1153  0.4512
  538MOL0     H74193   0.528   5.908   6.714 -1.2286 -1.4402 -3.6230
  538MOL0     H74194   0.403   6.170   6.971 -1.0628 -0.1148 -2.5468
  538MOL0     H74195   0.525   6.153   6.837 -0.4973 -1.1306 -1.7574
  538MOL0     H74196   0.474   5.952   7.066  3.3013 -1.9301  2.2770
  538MOL0     H74197   0.611   5.953   6.943 -0.4018  0.1588  0.1611
  538MOL0     H74198   0.648   6.193   7.056 -0.5856 -0.7619 -1.4427
  538MOL0     H74199   0.598   6.098   7.194 -0.4002 -0.0600 -0.9141
  538MOL0     H74200   0.838   6.077   7.190  2.5794 -0.4319 -0.9088
  538MOL0     H74201   0.774   5.926   7.135  1.6454 -2.3525 -4.2364
  538MOL0     H74202   0.998   5.876   7.132 -1.2457 -0.4476 -0.5255
  538MOL0     H74203   1.345   5.768   7.124  1.8073 -3.5801 -2.2733
  538MOL0     H74204   1.246   5.629   7.070  0.4043 -0.7328  2.1263
  538MOL0     H74205   1.183   5.738   7.187 -1.2797  0.7091 -0.9585
  538MOL0     H74206   1.497   5.473   6.851 -1.9194  0.0962 -0.1323
  538MOL0     H74207   1.746   5.400   6.890 -2.4699 -1.6679  1.5091
  538MOL0     H74208   2.052   5.631   6.835  0.2744  1.3685 -0.7916
  538MOL0     H74209   1.977   5.759   6.928 -3.8598 -1.1530 -0.1401
  538MOL0     H74210   2.183   5.561   7.036  1.3246  0.5895 -0.6444
  538MOL0     H74211   2.217   5.727   6.982 -0.0956  1.2381  1.6899
  538MOL0     H74212   2.024   5.641   7.216 -0.7098  2.1424  0.7913
  538MOL0     H74213   2.044   5.803   7.149 -3.2888 -0.8246  2.1284
  538MOL0     H74214   2.304   5.759   7.223 -0.7467  2.5368  0.8957
  538MOL0     H74215   2.255   5.598   7.277 -1.6684  0.7848  3.3453
  538MOL0     H74216   2.171   5.861   7.390  5.4867  1.0170  1.2823
  538MOL0     H74217   2.095   5.696   7.422  0.1903 -3.6872 -0.5855
  538MOL0     H74218   2.387   5.798   7.480 -0.2566 -0.4386 -1.0356
  538MOL0     H74219   2.327   5.622   7.502  0.0601  0.1037 -0.1317
  538MOL0     H74220   2.318   5.722   7.727  1.0157  2.9313  0.8255
  538MOL0     H74221   2.168   5.694   7.682  1.2701 -2.3871  1.0899
  538MOL0     H74222   2.156   5.923   7.763 -3.0241  1.3280 -1.2026
  538MOL0     H74223   2.145   5.941   7.589  0.9036 -0.9768 -0.5913
  538MOL0     H74224   1.824   5.791   7.056  1.9057 -1.3228 -1.7393
  538MOL0     H74225   1.589   5.863   6.990  1.0161  0.2440  0.7058
  538MOL0     H74226   1.201   5.984   6.703  1.6725  0.3008  2.0757
  538MOL0     H74227   0.976   6.051   6.737  1.8506 -1.2407 -2.9832
  538MOL0     H74228   0.139   4.763   6.751  1.1863  4.0255  1.4514
  538MOL0     H74229   0.257   4.561   6.866  3.3080 -2.6222 -0.3048
  538MOL0     H74230   0.737   4.382   6.892  0.2768 -1.8353 -3.0097
  538MOL0     H74231   0.837   4.192   6.929 -0.5516  0.5980 -0.8877
  538MOL0     H74232   0.693   3.867   7.196  1.7016  0.9998 -0.8340
  538MOL0     H74233   0.603   3.819   7.052 -2.3501  1.4184  0.9503
  538MOL0     H74234   0.847   3.753   6.965 -3.0477  0.7373 -1.6332
  538MOL0     H74235   0.739   3.642   7.032  0.7157 -0.3377 -2.9058
  538MOL0     H74236   0.820   3.722   7.274 -5.1946 -1.0397 -2.3801
  538MOL0     H74237   0.910   3.594   7.178  1.3978  0.6755  0.1415
  538MOL0     H74238   0.999   3.872   7.144  2.6864 -1.2366 -1.9544
  538MOL0     H74239   1.079   3.715   7.136  0.5700  0.1723  0.1832
  538MOL0     H74240   1.112   3.818   7.548  0.0600 -2.0916  0.5368
  538MOL0     H74241   0.486   4.040   7.149 -0.7634  1.1784 -0.3876
  538MOL0     H74242   0.279   4.289   7.083  0.1976  1.1316  0.1288
  538MOL0     H74243   0.328   4.189   7.227  1.8213 -0.2329  1.5524
  538MOL0     H74244   0.365   4.362   7.202 -4.4247  0.8068 -0.6241
  539MOL0     O74245   3.293   8.576  10.117 -0.1175  0.4165 -0.3784
  539MOL0     C74246   3.199   8.539  10.046  0.2255 -0.8501  0.1878
  539MOL0     O74247   3.206   8.498   9.913 -0.4965  0.1335 -0.4849
  539MOL0     C74248   3.315   8.511   9.831  0.5637  0.9604 -0.3765
  539MOL0     C74249   3.327   8.424   9.725  0.0376 -0.0668  0.4021
  539MOL0     C74250   3.424   8.431   9.625 -0.6279  0.6047 -0.0129
  539MOL0     C74251   3.529   8.517   9.642  1.2237 -0.6064  0.4396
  539MOL0     O74252   3.632   8.523   9.549  0.3508  0.3075  0.2744
  539MOL0     C74253   3.752   8.594   9.587 -0.3187  0.6218 -0.4933
  539MOL0     C74254   3.866   8.541   9.506 -0.1714 -0.8419  0.5435
  539MOL0     C74255   3.906   8.395   9.539 -0.3797  0.3762  0.8407
  539MOL0     C74256   4.060   8.375   9.534  0.8209 -0.0181 -0.4491
  539MOL0     C74257   4.092   8.228   9.569 -0.0821 -0.5255  0.1496
  539MOL0     C74258   4.239   8.205   9.571 -0.0811 -0.0294 -0.7204
  539MOL0     C74259   4.282   8.067   9.612  0.2735  1.1295  0.1926
  539MOL0     C74260   4.256   7.958   9.521 -0.2493  0.0318 -0.2274
  539MOL0     N74261   4.291   7.828   9.575  0.1307 -0.0217 -0.9661
  539MOL0     C74262   4.238   7.761   9.685  0.1054  0.1363  0.0025
  539MOL0     C74263   4.319   7.665   9.716  0.0097  0.0047 -0.0560
  539MOL0     C74264   4.294   7.566   9.825 -0.0688  0.1407  0.2593
  539MOL0     C74265   4.324   7.418   9.770  1.0426 -0.2705 -0.4347
  539MOL0     C74266   4.310   7.310   9.881 -0.4231  0.5095 -0.0920
  539MOL0     C74267   4.357   7.173   9.833  0.2915  0.2255 -0.1599
  539MOL0     O74268   4.392   7.084   9.943  1.2192 -0.1610  0.6631
  539MOL0     C74269   4.524   7.079   9.980 -0.1025  1.1895 -0.2252
  539MOL0     C74270   4.632   7.159   9.939  0.3366  0.2189  0.2204
  539MOL0     C74271   4.757   7.139   9.996 -0.0499  0.9627  0.4619
  539MOL0     C74272   4.878   7.211   9.942 -0.4214  0.5789 -0.5738
  539MOL0     C74273   4.776   7.031  10.090  0.6442 -0.6642 -0.6596
  539MOL0     C74274   4.895   7.009  10.170  0.1472  0.1913  0.4030
  539MOL0     O74275   4.939   6.881  10.171  0.3715 -0.0525  0.1982
  539MOL0     C74276   5.037   6.859  10.259  0.2508  0.1557 -0.0942
  539MOL0     C74277   5.167   6.892  10.236  0.0140 -0.0314  0.6488
  539MOL0     C74278   5.265   6.878  10.342  0.8901  0.1409 -0.0837
  539MOL0     C74279   5.228   6.840  10.470 -0.6083  0.1568  0.3651
  539MOL0     O74280   5.329   6.807  10.562  0.2859 -0.2880 -0.5842
  539MOL0     C74281   5.296   6.751  10.697  0.3961  0.3169  0.2396
  539MOL0     C74282   5.423   6.743  10.781 -0.1373  0.7950  0.3179
  539MOL0     C74283   5.415   6.639  10.886 -0.9145 -0.3933 -0.0579
  539MOL0     C74284   5.514   6.658  10.994 -0.5791 -0.0225 -0.7239
  539MOL0     C74285   5.518   6.541  11.097  0.4375  0.6416 -0.6643
  539MOL0     C74286   5.385   6.524  11.167 -0.8853  0.9227  0.0400
  539MOL0     C74287   5.395   6.427  11.285  0.3823  0.4276 -0.0011
  539MOL0     C74288   5.355   6.489  11.416 -0.5197  0.5906  0.2383
  539MOL0    Cl74289   5.179   6.524  11.398  0.3411  0.4375  0.6828
  539MOL0     C74290   5.097   6.796  10.497 -0.2357 -0.1031 -0.0149
  539MOL0     C74291   5.001   6.823  10.394 -0.6665  0.4609  0.9442
  539MOL0     O74292   4.937   7.100  10.241  0.1942 -0.3419 -0.3077
  539MOL0     C74293   4.670   6.951  10.127  0.0344  0.1275 -0.8715
  539MOL0     C74294   4.546   6.984  10.081 -1.2031 -0.1807 -0.7291
  539MOL0     N74295   4.424   7.667   9.628 -0.2292 -0.1171 -0.1123
  539MOL0     N74296   4.405   7.764   9.543  0.0228  0.0336  0.6883
  539MOL0     C74297   3.525   8.604   9.752 -0.2712  0.9108 -1.3223
  539MOL0     C74298   3.415   8.607   9.846  0.0894  0.1329  0.1277
  539MOL0     C74299   3.056   8.555  10.086  0.5277  0.2065 -0.0958
  539MOL0     C74300   2.945   8.471  10.024 -0.2673  0.1125 -0.3671
  539MOL0     C74301   2.812   8.479  10.051 -0.3544  0.1661 -0.8090
  539MOL0     C74302   2.771   8.575  10.139  0.2808 -0.0978 -0.8497
  539MOL0     O74303   2.640   8.581  10.184 -0.2867 -0.5349 -0.3867
  539MOL0     C74304   2.551   8.662  10.097 -0.5465 -0.2084 -0.3312
  539MOL0     C74305   2.426   8.701  10.183  0.8318 -0.4387  0.2242
  539MOL0     C74306   2.338   8.579  10.196  0.4417  0.6901  0.3445
  539MOL0     C74307   2.208   8.601  10.274 -0.6040 -0.8694  0.7423
  539MOL0     C74308   2.131   8.476  10.281 -0.0548  0.5033 -0.3291
  539MOL0     C74309   2.061   8.381  10.287  0.9889 -0.3521 -0.1962
  539MOL0     C74310   2.867   8.660  10.205 -0.0002  0.1559 -1.1957
  539MOL0     C74311   3.004   8.647  10.178  0.2982 -0.5599  0.0047
  539MOL0     C74312   3.089   8.733  10.270 -0.0869  0.2280  0.0458
  539MOL0     H74313   3.254   8.344   9.723 -0.3158  0.1525  2.1958
  539MOL0     H74314   3.411   8.362   9.543 -0.7478 -0.8001  1.1573
  539MOL0     H74315   3.775   8.581   9.694 -0.0919  0.1831 -0.5929
  539MOL0     H74316   3.747   8.702   9.572  0.5538  0.6427 -0.6549
  539MOL0     H74317   3.836   8.544   9.401 -2.5297 -3.7883  0.9797
  539MOL0     H74318   3.957   8.601   9.515 -1.1581  0.6498  1.0602
  539MOL0     H74319   3.874   8.377   9.642 -0.9422 -0.9843  0.4479
  539MOL0     H74320   3.853   8.325   9.474  1.1852 -0.2917  0.2312
  539MOL0     H74321   4.111   8.397   9.440 -1.5144  2.7647 -1.1990
  539MOL0     H74322   4.105   8.439   9.610  1.5493 -2.6454  1.4923
  539MOL0     H74323   4.059   8.163   9.487 -0.2116  0.3207 -0.4803
  539MOL0     H74324   4.049   8.207   9.668  1.2145 -0.5045  0.7350
  539MOL0     H74325   4.271   8.236   9.471 -2.7422 -0.6550 -1.8512
  539MOL0     H74326   4.277   8.276   9.645 -3.4064 -2.2471  3.5972
  539MOL0     H74327   4.236   8.038   9.707  0.2206 -2.4210 -0.7639
  539MOL0     H74328   4.391   8.070   9.615  0.4007 -1.5255  1.8762
  539MOL0     H74329   4.150   7.954   9.493  0.1563 -0.6596 -1.7379
  539MOL0     H74330   4.323   7.974   9.436  0.5480 -2.3752 -0.1164
  539MOL0     H74331   4.153   7.793   9.744 -0.2681  3.1367 -1.9889
  539MOL0     H74332   4.188   7.571   9.852  0.3377 -0.3172  2.1188
  539MOL0     H74333   4.354   7.594   9.912 -1.4881 -1.9514  2.0326
  539MOL0     H74334   4.262   7.396   9.683  1.0229 -1.6309 -0.1072
  539MOL0     H74335   4.429   7.415   9.740  1.6542 -1.1457  1.5974
  539MOL0     H74336   4.381   7.335   9.961  1.4846  0.8125 -1.8185
  539MOL0     H74337   4.210   7.303   9.926  0.7763 -0.1960  2.7237
  539MOL0     H74338   4.287   7.124   9.765 -0.8796  0.5450  0.7865
  539MOL0     H74339   4.448   7.186   9.774  0.7035  1.3604  0.6668
  539MOL0     H74340   4.622   7.241   9.868  2.6679  0.8893  0.5705
  539MOL0     H74341   4.943   7.240  10.025  0.3870 -0.3829 -0.8502
  539MOL0     H74342   4.854   7.301   9.885  2.2994  1.4167 -0.5220
  539MOL0     H74343   4.939   7.141   9.883 -0.9279  0.9566 -1.5725
  539MOL0     H74344   5.205   6.931  10.142 -1.8869 -1.2422 -0.6814
  539MOL0     H74345   5.369   6.908  10.337  1.1560 -0.3785  1.7069
  539MOL0     H74346   5.228   6.811  10.758 -0.1814  0.8291 -0.8972
  539MOL0     H74347   5.260   6.650  10.676  0.0597  0.1758  1.4069
  539MOL0     H74348   5.502   6.717  10.709 -0.1447 -2.2739  1.2744
  539MOL0     H74349   5.446   6.840  10.826  1.0304 -0.5319  2.7598
  539MOL0     H74350   5.427   6.542  10.836  0.2162  0.2679 -1.1127
  539MOL0     H74351   5.314   6.649  10.928 -0.1635  0.5668  1.5841
  539MOL0     H74352   5.478   6.743  11.054 -4.2740 -1.4780 -0.6117
  539MOL0     H74353   5.615   6.685  10.963  1.4014 -1.6100  3.5085
  539MOL0     H74354   5.544   6.451  11.039 -2.0032  0.4505 -1.5494
  539MOL0     H74355   5.593   6.553  11.176 -0.5497  2.9798 -0.0229
  539MOL0     H74356   5.321   6.469  11.097 -0.0438 -2.6190  1.8043
  539MOL0     H74357   5.349   6.621  11.202  0.3697  0.5995  2.4874
  539MOL0     H74358   5.490   6.373  11.281 -0.4069 -0.9805 -0.3160
  539MOL0     H74359   5.317   6.355  11.259 -0.3964  1.4698 -0.6378
  539MOL0     H74360   5.418   6.576  11.436 -0.8159  0.2433  3.1472
  539MOL0     H74361   5.362   6.422  11.502  1.5567  0.6666  0.1914
  539MOL0     H74362   5.061   6.751  10.589 -2.3493  1.5539  0.0443
  539MOL0     H74363   4.892   6.825  10.391 -0.7253 -1.6870 -0.3290
  539MOL0     H74364   4.684   6.884  10.212 -3.4728  4.2874  3.6021
  539MOL0     H74365   4.461   6.923  10.110 -1.0649  0.1457  0.4243
  539MOL0     H74366   3.597   8.684   9.765  1.5161 -0.8383  0.1008
  539MOL0     H74367   3.390   8.676   9.926 -3.5446 -1.7597  0.8633
  539MOL0     H74368   3.000   8.406   9.957 -1.3866 -0.7080 -0.4984
  539MOL0     H74369   2.726   8.423  10.017 -3.2644  3.0726  1.1399
  539MOL0     H74370   2.598   8.756  10.067 -0.6624 -0.2573 -0.6740
  539MOL0     H74371   2.524   8.589  10.020 -0.1691 -2.1624  1.3092
  539MOL0     H74372   2.359   8.774  10.137  0.3555  0.0426  1.6562
  539MOL0     H74373   2.459   8.728  10.284 -1.7930 -0.6843  1.2070
  539MOL0     H74374   2.319   8.545  10.094  2.2322  2.0331 -0.4852
  539MOL0     H74375   2.386   8.502  10.257 -0.1496  0.7830  0.9456
  539MOL0     H74376   2.144   8.673  10.222 -0.0445 -1.8897 -1.4542
  539MOL0     H74377   2.231   8.625  10.378 -0.0493 -0.7446  0.5960
  539MOL0     H74378   2.016   8.284  10.296  1.0857 -0.3676  0.1621
  539MOL0     H74379   2.831   8.717  10.290 -0.8393 -1.7101 -0.2254
  539MOL0     H74380   3.027   8.810  10.316 -2.0069 -0.9056 -0.5406
  539MOL0     H74381   3.131   8.668  10.347  1.1182 -0.3781 -1.0860
  539MOL0     H74382   3.160   8.778  10.200  1.3127  1.0777  1.9343
  540MOL0     O74383   6.433   4.062   9.569  0.5837 -0.4073  0.5314
  540MOL0     C74384   6.536   4.133   9.571  0.4007  1.3168  0.1973
  540MOL0     O74385   6.631   4.150   9.674 -0.5737 -0.6757  0.0607
  540MOL0     C74386   6.585   4.118   9.801  0.5244 -0.4492 -0.4800
  540MOL0     C74387   6.501   4.213   9.861 -0.1021 -0.2762 -0.1348
  540MOL0     C74388   6.466   4.207   9.994 -0.9640 -0.3638  0.1533
  540MOL0     C74389   6.522   4.102  10.070 -0.0829  0.0087 -0.1570
  540MOL0     O74390   6.482   4.080  10.200  0.2650  0.5431  0.2995
  540MOL0     C74391   6.436   4.190  10.289  0.0406  0.2393  0.0722
  540MOL0     C74392   6.502   4.172  10.417  0.4468 -0.0015  0.9617
  540MOL0     C74393   6.448   4.046  10.493 -0.0663  0.5533 -0.4056
  540MOL0     C74394   6.516   4.033  10.625  0.3813 -0.6877  0.2821
  540MOL0     C74395   6.448   3.956  10.730  0.2706  0.4212 -0.3197
  540MOL0     C74396   6.536   3.947  10.864  0.3437  0.0085  1.2055
  540MOL0     C74397   6.460   3.867  10.964  0.0242 -1.1522 -0.0032
  540MOL0     C74398   6.538   3.834  11.096  0.0336 -0.2504 -0.2033
  540MOL0     N74399   6.460   3.778  11.206 -0.2047 -1.3418  0.5187
  540MOL0     C74400   6.499   3.769  11.337  0.0716  0.4959 -0.3285
  540MOL0     C74401   6.395   3.711  11.398  0.2297 -0.3512  0.0073
  540MOL0     C74402   6.386   3.669  11.543  0.2364 -0.6182 -0.3402
  540MOL0     C74403   6.361   3.519  11.560 -0.2207  0.2361  0.5551
  540MOL0     C74404   6.479   3.434  11.502  0.3284 -0.7979  0.3067
  540MOL0     C74405   6.456   3.293  11.535 -0.1409 -0.4780  1.2160
  540MOL0     O74406   6.566   3.217  11.470  0.3152  0.2392 -0.1872
  540MOL0     C74407   6.582   3.088  11.503  1.1227  0.2191 -0.0905
  540MOL0     C74408   6.514   3.010  11.603 -0.0944  0.1618 -0.6723
  540MOL0     C74409   6.537   2.873  11.627  0.7817  0.6412 -0.2021
  540MOL0     C74410   6.454   2.821  11.741  0.3193  0.1078 -0.2796
  540MOL0     C74411   6.630   2.796  11.552  0.2931  0.2509 -0.0324
  540MOL0     C74412   6.662   2.650  11.579  0.1371 -0.3226 -0.1731
  540MOL0     O74413   6.765   2.602  11.508 -0.3087  0.1804 -0.0084
  540MOL0     C74414   6.824   2.489  11.558  0.1249  1.0698 -0.3614
  540MOL0     C74415   6.875   2.481  11.691  1.1055  0.2059  0.1388
  540MOL0     C74416   6.927   2.365  11.746  0.0980 -0.3329 -0.2520
  540MOL0     C74417   6.944   2.250  11.667 -0.9997  0.3244  0.3656
  540MOL0     O74418   7.003   2.138  11.720 -0.1647 -0.0694  0.4727
  540MOL0     C74419   7.084   2.051  11.633 -0.0580 -0.7029 -0.0207
  540MOL0     C74420   7.201   1.980  11.713 -0.1342  0.1670  1.2436
  540MOL0     C74421   7.291   1.896  11.626  0.4964 -0.1249  0.6221
  540MOL0     C74422   7.400   1.802  11.698 -0.3245 -0.1097 -0.0984
  540MOL0     C74423   7.457   1.686  11.614 -0.5461 -0.9580  0.5112
  540MOL0     C74424   7.538   1.730  11.495  0.6323  0.5662  0.7023
  540MOL0     C74425   7.683   1.786  11.532 -0.1090 -0.3804  0.0468
  540MOL0     C74426   7.789   1.764  11.419 -0.2948  0.1187 -0.3876
  540MOL0    Cl74427   7.774   1.857  11.272 -0.0911 -0.3570 -0.1127
  540MOL0     C74428   6.906   2.263  11.529 -0.1380  0.5033 -0.0425
  540MOL0     C74429   6.842   2.376  11.476  0.8240  0.2456 -1.1083
  540MOL0     O74430   6.594   2.583  11.662  0.3569  0.0392  0.0566
  540MOL0     C74431   6.702   2.872  11.444 -1.0309 -0.3508 -0.0333
  540MOL0     C74432   6.680   3.015  11.429  0.9617 -0.1809  0.3324
  540MOL0     N74433   6.294   3.690  11.305 -0.2419 -0.5413 -0.1514
  540MOL0     N74434   6.327   3.751  11.198  0.2366  0.3188 -0.4254
  540MOL0     C74435   6.603   4.005  10.007  0.7640  0.7112 -0.4874
  540MOL0     C74436   6.633   4.014   9.869 -0.3154  0.1858 -0.3705
  540MOL0     C74437   6.573   4.211   9.455 -0.0074 -1.4917  0.5296
  540MOL0     C74438   6.712   4.256   9.433  0.1220 -0.1076 -0.4713
  540MOL0     C74439   6.750   4.331   9.328 -0.4071  0.7270 -0.7659
  540MOL0     C74440   6.653   4.375   9.240 -0.9228  0.7045  0.2195
  540MOL0     O74441   6.698   4.469   9.152 -0.7367 -0.6046  0.1711
  540MOL0     C74442   6.688   4.438   9.021  0.2741 -0.6558  0.2843
  540MOL0     C74443   6.792   4.339   8.970 -0.2076  0.2942  0.1715
  540MOL0     C74444   6.793   4.340   8.817  0.1694  0.7014  0.1152
  540MOL0     C74445   6.695   4.232   8.765  0.7463  0.1523  0.8243
  540MOL0     C74446   6.743   4.094   8.782 -0.7803 -0.4090 -0.0018
  540MOL0     C74447   6.792   3.989   8.812 -0.4579  1.1965  0.7879
  540MOL0     C74448   6.521   4.336   9.259 -0.2369  0.0238  0.1374
  540MOL0     C74449   6.475   4.253   9.358 -0.9708  0.9701 -0.2243
  540MOL0     C74450   6.326   4.210   9.344 -0.6028  0.6969  0.8301
  540MOL0     H74451   6.455   4.286   9.796  0.3243  0.8140  0.7597
  540MOL0     H74452   6.388   4.269  10.035 -1.4542 -0.0433 -1.1989
  540MOL0     H74453   6.327   4.186  10.299  0.1142 -2.0177  0.6587
  540MOL0     H74454   6.469   4.285  10.247 -0.8471 -0.5096 -2.5220
  540MOL0     H74455   6.609   4.158  10.404  1.0382  0.8159  4.2420
  540MOL0     H74456   6.481   4.260  10.478 -3.7248 -1.2509  1.6713
  540MOL0     H74457   6.340   4.043  10.513  0.3415  0.2823  2.0446
  540MOL0     H74458   6.471   3.966  10.422 -0.6419  0.1957 -0.2050
  540MOL0     H74459   6.618   3.996  10.612 -0.6589 -3.8439  0.1890
  540MOL0     H74460   6.513   4.131  10.673 -2.7162  1.1574 -3.1887
  540MOL0     H74461   6.419   3.858  10.692 -1.1763  0.4033  0.7502
  540MOL0     H74462   6.357   4.001  10.771 -2.5670 -4.7257 -0.1875
  540MOL0     H74463   6.633   3.898  10.847 -0.6417 -1.6536  0.2010
  540MOL0     H74464   6.551   4.048  10.903 -0.5319  1.3190 -1.6181
  540MOL0     H74465   6.427   3.772  10.919  3.5832 -1.8149 -1.5436
  540MOL0     H74466   6.369   3.923  10.986 -0.8518 -2.7539  0.6291
  540MOL0     H74467   6.627   3.771  11.085  1.0839  0.6930  2.1536
  540MOL0     H74468   6.585   3.925  11.136 -1.0814  0.9198 -1.4442
  540MOL0     H74469   6.581   3.812  11.394  1.2367 -1.8400 -0.1050
  540MOL0     H74470   6.300   3.720  11.587 -2.1483 -3.9976 -0.7734
  540MOL0     H74471   6.482   3.695  11.590  0.3006 -3.7389  1.4871
  540MOL0     H74472   6.354   3.489  11.665  0.2376  1.7079  1.0361
  540MOL0     H74473   6.265   3.499  11.513  1.4971 -2.1453 -2.2761
  540MOL0     H74474   6.484   3.448  11.394 -1.4618  0.8464  0.3790
  540MOL0     H74475   6.573   3.466  11.548  0.5256 -2.2101  0.9520
  540MOL0     H74476   6.456   3.277  11.644  0.2207  1.9422  1.6198
  540MOL0     H74477   6.360   3.267  11.489 -0.2674 -0.3072  1.3817
  540MOL0     H74478   6.441   3.059  11.667  0.7574  1.8102 -0.8988
  540MOL0     H74479   6.374   2.750  11.717  0.1990  0.2857 -0.4130
  540MOL0     H74480   6.393   2.896  11.793  2.2475  1.2922  0.3794
  540MOL0     H74481   6.530   2.777  11.806  0.7982 -0.2998 -1.1053
  540MOL0     H74482   6.851   2.570  11.748 -0.9357  0.3821 -0.8994
  540MOL0     H74483   6.967   2.357  11.847 -0.8354 -4.2108 -0.0257
  540MOL0     H74484   7.027   1.974  11.580 -0.6168 -0.9893  0.9635
  540MOL0     H74485   7.129   2.116  11.557 -1.5657  0.2398 -0.1720
  540MOL0     H74486   7.257   2.062  11.760 -0.1962  0.7567  0.3078
  540MOL0     H74487   7.152   1.924  11.794  0.8255 -1.0104  1.0348
  540MOL0     H74488   7.340   1.965  11.558 -0.7370  0.4626  0.2922
  540MOL0     H74489   7.228   1.837  11.558  2.3288 -2.4874  0.8168
  540MOL0     H74490   7.351   1.752  11.782 -0.4000  2.2856  1.3762
  540MOL0     H74491   7.476   1.873  11.733 -1.0674  0.6905 -0.0805
  540MOL0     H74492   7.515   1.618  11.676  1.8917 -2.5681 -3.1725
  540MOL0     H74493   7.371   1.629  11.576 -1.1907  0.1230  0.3046
  540MOL0     H74494   7.485   1.805  11.435  1.6865  1.4281  0.8203
  540MOL0     H74495   7.541   1.644  11.427 -1.5070  1.0999 -0.1560
  540MOL0     H74496   7.735   1.746  11.620 -0.7431 -1.6540 -0.1407
  540MOL0     H74497   7.668   1.894  11.544 -0.0703  0.2435 -4.0538
  540MOL0     H74498   7.793   1.659  11.390  2.7567  1.1682 -4.7632
  540MOL0     H74499   7.886   1.781  11.466 -0.1362 -2.4533  0.3815
  540MOL0     H74500   6.931   2.173  11.474  0.3394 -1.6941  3.4384
  540MOL0     H74501   6.806   2.390  11.374 -1.1034 -0.9153 -0.6254
  540MOL0     H74502   6.776   2.834  11.374  1.3582  0.6824  1.7973
  540MOL0     H74503   6.742   3.066  11.356  1.6131 -2.6608 -0.9456
  540MOL0     H74504   6.633   3.927  10.076 -0.4089  0.4410 -0.2525
  540MOL0     H74505   6.702   3.944   9.823  0.1521  1.2504 -1.3181
  540MOL0     H74506   6.785   4.238   9.511 -2.0427  1.7052  2.1731
  540MOL0     H74507   6.853   4.362   9.330 -0.5456  1.3024  2.8454
  540MOL0     H74508   6.588   4.407   8.992 -0.7715  1.6537  1.1967
  540MOL0     H74509   6.708   4.535   8.973 -3.5814  0.6737  1.0595
  540MOL0     H74510   6.768   4.243   9.016  3.2852  0.0504  1.7683
  540MOL0     H74511   6.892   4.372   8.999 -0.0490  0.1888 -0.2485
  540MOL0     H74512   6.774   4.439   8.774 -2.4954  0.1497 -0.1481
  540MOL0     H74513   6.896   4.312   8.791 -0.5417  0.9502 -3.3377
  540MOL0     H74514   6.683   4.249   8.658  0.9065  0.6952  0.8914
  540MOL0     H74515   6.598   4.240   8.815 -0.5208  1.2250 -1.6317
  540MOL0     H74516   6.822   3.887   8.828 -1.8775  0.5241 -0.6546
  540MOL0     H74517   6.446   4.380   9.194 -1.8292 -0.5654  1.5080
  540MOL0     H74518   6.321   4.103   9.365 -0.4234 -0.5761 -4.3991
  540MOL0     H74519   6.252   4.269   9.399  0.5896  0.4557  2.7881
  540MOL0     H74520   6.295   4.207   9.239 -0.7625  1.3580  0.8517
  541MOL0     O74521   2.328   8.050   6.735 -0.0844 -0.2444  0.1076
  541MOL0     C74522   2.256   7.994   6.654  1.1345  0.9517  1.0922
  541MOL0     O74523   2.153   7.905   6.684  0.5007  0.7179 -0.0054
  541MOL0     C74524   2.137   7.855   6.813  0.2903 -0.7892  0.6303
  541MOL0     C74525   2.051   7.908   6.907 -0.3904 -0.2961 -0.4284
  541MOL0     C74526   2.041   7.852   7.033 -0.0618  1.0545 -0.1668
  541MOL0     C74527   2.103   7.731   7.066 -1.5549 -0.7239  0.2478
  541MOL0     O74528   2.121   7.661   7.178 -0.0874 -0.6077 -0.7337
  541MOL0     C74529   2.103   7.739   7.294  0.3814  1.0904  0.3668
  541MOL0     C74530   2.108   7.649   7.420 -0.3012 -1.5350  0.4653
  541MOL0     C74531   2.237   7.568   7.435  1.1003  0.0601  0.3652
  541MOL0     C74532   2.361   7.652   7.463  0.5395 -0.1394  0.4300
  541MOL0     C74533   2.485   7.567   7.505 -0.0869 -0.5761  0.5206
  541MOL0     C74534   2.463   7.507   7.647 -0.2945 -0.7597 -0.4794
  541MOL0     C74535   2.602   7.447   7.691 -0.2956  0.1091  0.4298
  541MOL0     C74536   2.590   7.362   7.827 -0.3133  0.7698 -0.0075
  541MOL0     N74537   2.730   7.306   7.857  1.5434 -0.7081  1.0060
  541MOL0     C74538   2.769   7.173   7.839  0.1338  0.6008  0.1529
  541MOL0     C74539   2.893   7.183   7.903  0.1296 -0.4003  1.2402
  541MOL0     C74540   2.984   7.064   7.889 -0.5340  0.3271 -0.8277
  541MOL0     C74541   3.104   7.090   7.803  0.0107  0.0257  1.0882
  541MOL0     C74542   3.114   6.988   7.689 -0.1104 -0.4781 -0.0756
  541MOL0     C74543   3.011   7.022   7.578  0.5852 -0.2890 -0.7340
  541MOL0     O74544   3.063   6.980   7.445  0.2814  0.3679  0.1528
  541MOL0     C74545   3.029   6.855   7.398 -0.0843 -0.0837 -0.1301
  541MOL0     C74546   3.064   6.831   7.263  1.1328  0.7522  1.1465
  541MOL0     C74547   3.056   6.712   7.195 -0.4405 -0.2002  0.0180
  541MOL0     C74548   3.091   6.705   7.047 -0.8089  0.6446  0.3139
  541MOL0     C74549   3.008   6.600   7.274 -0.3502  1.0948  0.8566
  541MOL0     C74550   2.980   6.461   7.233 -0.2257 -0.2340 -0.5371
  541MOL0     O74551   3.020   6.363   7.329  0.0994 -1.1392  0.5187
  541MOL0     C74552   3.024   6.230   7.306  0.3199  0.1204 -0.3991
  541MOL0     C74553   2.930   6.168   7.219  0.6854 -0.5421  0.8879
  541MOL0     C74554   2.944   6.029   7.198  0.3905  0.4222 -0.9356
  541MOL0     C74555   3.055   5.950   7.250 -0.2529  0.7315 -0.0822
  541MOL0     O74556   3.079   5.814   7.232 -0.1724 -0.1278  0.1601
  541MOL0     C74557   2.998   5.743   7.133 -0.2106  0.5824  0.2067
  541MOL0     C74558   3.042   5.597   7.105 -0.0626 -0.0579  0.2590
  541MOL0     C74559   3.198   5.571   7.116 -0.0442  0.8841  0.9820
  541MOL0     C74560   3.236   5.419   7.107 -0.5679 -0.1729 -0.2045
  541MOL0     C74561   3.381   5.379   7.157 -0.2383  0.0185  0.5062
  541MOL0     C74562   3.398   5.379   7.310  0.2986 -0.4120  0.4674
  541MOL0     C74563   3.528   5.311   7.350  0.6053 -0.7645  0.6840
  541MOL0     C74564   3.514   5.276   7.497 -0.4745 -0.1630  0.7199
  541MOL0    Cl74565   3.669   5.186   7.543  0.2619  0.0945  0.4003
  541MOL0     C74566   3.135   6.019   7.345 -0.7195 -0.0111 -0.5137
  541MOL0     C74567   3.132   6.157   7.360  0.4593 -0.1911  0.0338
  541MOL0     O74568   2.949   6.432   7.116 -0.2292 -0.2400 -0.4836
  541MOL0     C74569   2.992   6.611   7.410  0.3534  0.4834 -1.0653
  541MOL0     C74570   3.002   6.740   7.470  0.3582 -0.4648 -0.3915
  541MOL0     N74571   2.920   7.309   7.954  0.2295 -0.2542  0.1503
  541MOL0     N74572   2.815   7.380   7.926  1.4364  0.9952  0.0247
  541MOL0     C74573   2.165   7.667   6.961 -0.4561 -0.6655 -0.2577
  541MOL0     C74574   2.188   7.726   6.838 -0.3290  0.2361 -0.8277
  541MOL0     C74575   2.294   8.033   6.514 -0.5333 -0.0484  0.1448
  541MOL0     C74576   2.370   8.148   6.491  0.3446  0.0460 -0.0970
  541MOL0     C74577   2.433   8.182   6.376  0.0703 -0.2470 -0.6496
  541MOL0     C74578   2.431   8.094   6.262 -0.3479 -0.8681 -0.3915
  541MOL0     O74579   2.480   8.127   6.140  0.2082 -0.2969  0.2339
  541MOL0     C74580   2.502   8.274   6.117 -0.2460  0.2200  0.4126
  541MOL0     C74581   2.656   8.289   6.086 -0.1513 -0.4674 -0.2668
  541MOL0     C74582   2.755   8.253   6.202 -0.2757  0.7282  0.3446
  541MOL0     C74583   2.883   8.336   6.184 -0.1555  0.7836 -0.5949
  541MOL0     C74584   2.992   8.287   6.280 -0.3923 -0.7516 -0.1365
  541MOL0     C74585   3.087   8.250   6.346  0.1495 -0.8120 -0.9220
  541MOL0     C74586   2.347   7.987   6.277  0.3493  0.0139 -0.5337
  541MOL0     C74587   2.280   7.954   6.397 -1.1609 -0.0174 -1.0472
  541MOL0     C74588   2.189   7.835   6.397  0.5779  0.2679 -0.1357
  541MOL0     H74589   1.993   7.996   6.883  1.5281  1.0374 -0.4119
  541MOL0     H74590   1.985   7.900   7.113 -1.0079  0.6131 -0.5413
  541MOL0     H74591   2.001   7.780   7.297  1.4458  3.9196  1.1986
  541MOL0     H74592   2.172   7.823   7.298 -0.1429  1.6374 -1.2168
  541MOL0     H74593   2.096   7.717   7.505  2.7790 -1.6990  1.1633
  541MOL0     H74594   2.018   7.587   7.428 -1.4129  0.2355  3.6114
  541MOL0     H74595   2.219   7.503   7.521  2.1112 -0.1384  0.4326
  541MOL0     H74596   2.248   7.501   7.349 -0.0627 -0.5336  0.6502
  541MOL0     H74597   2.388   7.716   7.378 -0.9798  0.1834  0.1673
  541MOL0     H74598   2.351   7.722   7.547  3.1187  3.9116 -2.2286
  541MOL0     H74599   2.562   7.645   7.512 -1.6907  1.2364 -0.9765
  541MOL0     H74600   2.510   7.493   7.429 -0.1917  2.1982 -2.4023
  541MOL0     H74601   2.434   7.586   7.717  1.1015 -0.1829 -0.5154
  541MOL0     H74602   2.377   7.443   7.668  1.4216 -2.3143  2.3425
  541MOL0     H74603   2.689   7.510   7.711  0.4281 -1.3269  2.0810
  541MOL0     H74604   2.640   7.375   7.619 -1.6577  1.3395 -1.6200
  541MOL0     H74605   2.554   7.421   7.912 -1.5707 -2.6802  2.0660
  541MOL0     H74606   2.526   7.275   7.808  1.6914 -0.4819 -1.4063
  541MOL0     H74607   2.716   7.092   7.789  0.4134 -0.5819  1.6942
  541MOL0     H74608   2.919   6.978   7.869 -3.5748  1.7119  2.2402
  541MOL0     H74609   3.023   7.052   7.991  2.7142  2.4801 -1.6784
  541MOL0     H74610   3.097   7.187   7.753  1.6989 -1.9060 -3.4829
  541MOL0     H74611   3.189   7.090   7.872  1.7558  0.7153 -0.9566
  541MOL0     H74612   3.213   6.977   7.644 -1.0740 -0.7962 -2.2294
  541MOL0     H74613   3.099   6.889   7.732 -1.8874  0.1070  0.7369
  541MOL0     H74614   2.920   6.965   7.599  1.5935 -1.5683  0.4220
  541MOL0     H74615   2.999   7.130   7.574  0.5431 -0.2951 -0.7661
  541MOL0     H74616   3.091   6.911   7.194  1.6132 -1.1847 -1.0646
  541MOL0     H74617   3.104   6.604   7.007  0.7017 -0.5397  3.4428
  541MOL0     H74618   3.186   6.757   7.036 -0.4402  0.2355  1.4450
  541MOL0     H74619   3.017   6.758   6.987 -1.1076 -2.1450 -2.0538
  541MOL0     H74620   2.853   6.220   7.164  2.0860  1.1533  0.4624
  541MOL0     H74621   2.875   5.982   7.129  0.8838 -1.0617 -0.4755
  541MOL0     H74622   2.891   5.758   7.146 -0.1638  2.0455 -0.8198
  541MOL0     H74623   3.030   5.798   7.044  0.0267 -0.5883 -0.4523
  541MOL0     H74624   2.997   5.541   7.188  0.6238  0.6548  1.1334
  541MOL0     H74625   2.994   5.556   7.016 -1.2199 -1.5633  1.5104
  541MOL0     H74626   3.225   5.608   7.215 -1.1041  0.6979  1.3581
  541MOL0     H74627   3.245   5.628   7.036 -2.3086  2.5114  0.6860
  541MOL0     H74628   3.225   5.388   7.003  0.0219  2.1500 -1.0231
  541MOL0     H74629   3.179   5.357   7.178  0.3382 -0.2846  0.4457
  541MOL0     H74630   3.403   5.281   7.116  1.4292 -0.5696  2.6034
  541MOL0     H74631   3.443   5.451   7.103 -2.8317  0.2757 -2.4092
  541MOL0     H74632   3.310   5.339   7.360  0.6707 -1.2031  0.5151
  541MOL0     H74633   3.401   5.486   7.333  1.9561  0.0496 -1.5703
  541MOL0     H74634   3.607   5.386   7.336 -1.8507  2.2249  1.6975
  541MOL0     H74635   3.552   5.223   7.290 -4.3365  0.4789 -3.8127
  541MOL0     H74636   3.421   5.225   7.524 -0.2670 -1.1938 -0.4648
  541MOL0     H74637   3.505   5.365   7.560 -0.8641 -0.5551  1.2266
  541MOL0     H74638   3.220   5.970   7.391 -0.5289 -0.5701 -1.4266
  541MOL0     H74639   3.199   6.215   7.422 -0.1993  0.3108  0.2941
  541MOL0     H74640   2.959   6.529   7.473  0.1799  1.4574  0.1615
  541MOL0     H74641   2.981   6.754   7.576 -1.6834  4.3353 -1.1778
  541MOL0     H74642   2.226   7.584   6.996  1.3372  0.9954  0.7957
  541MOL0     H74643   2.246   7.673   6.763  0.3286 -0.2448 -0.0106
  541MOL0     H74644   2.377   8.218   6.573 -0.6036 -3.0707  2.8319
  541MOL0     H74645   2.491   8.273   6.382  0.7498 -0.7721  2.3271
  541MOL0     H74646   2.443   8.301   6.030 -2.7789  1.3055  2.3316
  541MOL0     H74647   2.469   8.342   6.197  0.5809 -1.6142  2.4203
  541MOL0     H74648   2.670   8.393   6.056  2.0065  0.3537  3.0902
  541MOL0     H74649   2.686   8.222   6.004  0.7743  0.8339 -1.0238
  541MOL0     H74650   2.724   8.273   6.305 -0.1877 -0.6860  0.6761
  541MOL0     H74651   2.774   8.145   6.199  2.0069  0.9708 -4.8228
  541MOL0     H74652   2.863   8.439   6.215 -2.7744  0.2749 -0.3259
  541MOL0     H74653   2.919   8.344   6.081 -1.2795  3.9617 -0.8571
  541MOL0     H74654   3.172   8.224   6.405 -0.8289 -1.5952  0.1884
  541MOL0     H74655   2.324   7.928   6.188  0.3545  0.0974 -0.5906
  541MOL0     H74656   2.104   7.848   6.464 -2.0351 -1.7160 -2.7533
  541MOL0     H74657   2.129   7.817   6.307  0.2484 -3.2745  0.6376
  541MOL0     H74658   2.246   7.748   6.429 -2.4795 -0.8682  2.8462
  542MOL0     O74659   4.536   0.650   8.954 -0.4611  0.4856  0.5384
  542MOL0     C74660   4.595   0.727   8.872  0.2931  0.4460  0.5442
  542MOL0     O74661   4.641   0.850   8.908 -0.2886 -0.1090 -0.0489
  542MOL0     C74662   4.638   0.896   9.034  0.2111 -0.4189 -0.0191
  542MOL0     C74663   4.625   0.820   9.152 -0.1572 -0.7469  0.2902
  542MOL0     C74664   4.624   0.884   9.281 -0.6897  0.5815 -0.4721
  542MOL0     C74665   4.654   1.019   9.299  0.6202 -0.2677  0.3288
  542MOL0     O74666   4.663   1.091   9.413  0.3159 -0.8626  0.4514
  542MOL0     C74667   4.633   1.036   9.540 -0.7098 -0.1251 -2.4141
  542MOL0     C74668   4.701   1.107   9.653 -0.1625 -0.7902  0.7881
  542MOL0     C74669   4.639   1.258   9.642 -0.1743  0.4411  0.7423
  542MOL0     C74670   4.693   1.325   9.763 -0.1853 -0.0112 -0.1692
  542MOL0     C74671   4.655   1.469   9.762 -0.0671 -0.3228  0.1685
  542MOL0     C74672   4.711   1.554   9.874  0.0081  0.2433  0.6735
  542MOL0     C74673   4.633   1.682   9.866  0.5473 -0.1744  0.2778
  542MOL0     C74674   4.737   1.782   9.933  0.1575 -0.0752 -0.3792
  542MOL0     N74675   4.851   1.826   9.855  0.9972 -0.3329 -0.6677
  542MOL0     C74676   4.977   1.831   9.907  0.3546 -0.5595  0.6945
  542MOL0     C74677   5.048   1.904   9.819 -0.4789 -0.3810 -0.5392
  542MOL0     C74678   5.184   1.955   9.828 -0.6817 -0.3792 -0.1356
  542MOL0     C74679   5.282   1.847   9.770  1.3781 -1.1438 -0.1885
  542MOL0     C74680   5.424   1.906   9.757  0.5554 -0.1907 -0.7002
  542MOL0     C74681   5.460   1.968   9.626 -1.4015 -0.5398 -0.4953
  542MOL0     O74682   5.534   1.881   9.530 -0.2526  0.3674 -0.0042
  542MOL0     C74683   5.481   1.887   9.407  0.2442  0.1995  0.5918
  542MOL0     C74684   5.382   1.802   9.362  0.4866  0.4707  0.1554
  542MOL0     C74685   5.353   1.790   9.225 -0.7372  0.2613  0.1637
  542MOL0     C74686   5.262   1.686   9.184  0.2100 -0.4444 -0.0514
  542MOL0     C74687   5.400   1.892   9.134 -0.0383 -0.2372 -0.4375
  542MOL0     C74688   5.357   1.893   9.001  0.1679  0.8163  0.3114
  542MOL0     O74689   5.453   1.929   8.916  0.2606  0.3178 -0.2076
  542MOL0     C74690   5.450   1.869   8.791  0.1895 -0.7945  0.5886
  542MOL0     C74691   5.371   1.919   8.694  0.4759  0.6854  0.9891
  542MOL0     C74692   5.360   1.858   8.566  0.3729 -0.4765 -0.3947
  542MOL0     C74693   5.440   1.755   8.527 -0.7385  0.3173  0.1461
  542MOL0     O74694   5.436   1.717   8.394 -0.2193  0.1827  0.2434
  542MOL0     C74695   5.508   1.598   8.348  0.4049  0.4944  0.6403
  542MOL0     C74696   5.651   1.621   8.323 -0.1448 -0.5819  0.4678
  542MOL0     C74697   5.752   1.508   8.323  0.5701  0.2315 -0.3702
  542MOL0     C74698   5.715   1.402   8.218 -0.3625  0.6242 -0.1409
  542MOL0     C74699   5.851   1.332   8.183 -0.5964 -0.1953 -0.7308
  542MOL0     C74700   5.850   1.227   8.071  0.2300 -0.3494  0.5010
  542MOL0     C74701   5.754   1.111   8.099  0.2014  1.4198 -0.3846
  542MOL0     C74702   5.724   1.032   7.968 -0.2054  0.3628 -0.6897
  542MOL0    Cl74703   5.875   0.929   7.940 -0.3752 -0.2389  0.1880
  542MOL0     C74704   5.531   1.706   8.626  0.1358 -0.7305 -0.0816
  542MOL0     C74705   5.528   1.760   8.758 -0.2789 -0.7414  0.4065
  542MOL0     O74706   5.235   1.876   8.969  0.1576 -0.4275  0.4785
  542MOL0     C74707   5.492   1.986   9.186  0.0281  0.4958  0.8476
  542MOL0     C74708   5.531   1.987   9.317  0.3491 -0.2380  0.7321
  542MOL0     N74709   4.966   1.934   9.710  0.3403 -0.1163 -0.0741
  542MOL0     N74710   4.855   1.893   9.734 -0.1559  0.2449 -0.9831
  542MOL0     C74711   4.671   1.082   9.178 -0.2892 -0.8741  0.4669
  542MOL0     C74712   4.660   1.033   9.046 -0.4641 -0.0572  0.6748
  542MOL0     C74713   4.577   0.688   8.734 -0.0234  0.4170  0.4107
  542MOL0     C74714   4.496   0.767   8.650 -0.5379 -0.4720 -0.2554
  542MOL0     C74715   4.467   0.731   8.519 -0.5793 -0.2677  0.1518
  542MOL0     C74716   4.509   0.610   8.473  0.2024 -0.4590 -0.3597
  542MOL0     O74717   4.490   0.570   8.348  0.6257 -0.3581  0.5174
  542MOL0     C74718   4.410   0.653   8.257 -0.6691 -0.3376  0.3389
  542MOL0     C74719   4.430   0.577   8.125 -0.4704  1.1146 -0.3860
  542MOL0     C74720   4.388   0.667   8.013 -0.3747  0.0916  0.1878
  542MOL0     C74721   4.411   0.597   7.875 -0.1462  0.2701  1.3199
  542MOL0     C74722   4.545   0.641   7.824 -0.4659 -0.2615  0.2840
  542MOL0     C74723   4.654   0.681   7.791  0.6846  0.8867  0.7594
  542MOL0     C74724   4.579   0.523   8.556 -1.2422  0.0119  0.5894
  542MOL0     C74725   4.612   0.560   8.681  0.4025  0.4239 -0.4538
  542MOL0     C74726   4.694   0.466   8.766  0.5809  1.1540 -0.2738
  542MOL0     H74727   4.601   0.714   9.155 -1.2735 -0.5039  3.0091
  542MOL0     H74728   4.614   0.819   9.367  3.8071  0.9845  0.5742
  542MOL0     H74729   4.664   0.931   9.545  0.4588  0.1740 -2.9400
  542MOL0     H74730   4.525   1.023   9.550 -0.6546 -0.1983 -1.8774
  542MOL0     H74731   4.663   1.057   9.743 -2.0992  3.0947  2.3724
  542MOL0     H74732   4.810   1.105   9.652 -0.1462 -0.4257  1.2898
  542MOL0     H74733   4.653   1.300   9.542  1.2277  0.1078  0.7773
  542MOL0     H74734   4.531   1.257   9.658 -0.0936 -1.6832  1.4460
  542MOL0     H74735   4.664   1.276   9.857  2.2431  1.9266  1.7477
  542MOL0     H74736   4.802   1.312   9.766 -0.2027 -0.2008 -0.3795
  542MOL0     H74737   4.546   1.479   9.765 -0.3561 -2.1178 -1.9110
  542MOL0     H74738   4.698   1.513   9.671  0.0899  2.0557  1.3188
  542MOL0     H74739   4.668   1.510   9.964 -3.6930  1.1159 -0.4796
  542MOL0     H74740   4.819   1.561   9.858 -0.0658  0.0981  0.0922
  542MOL0     H74741   4.535   1.678   9.914  0.7751 -1.6201  0.6873
  542MOL0     H74742   4.610   1.714   9.764 -0.4669 -1.4385  0.0698
  542MOL0     H74743   4.678   1.871   9.957 -0.6432 -0.9724  1.0809
  542MOL0     H74744   4.767   1.728  10.023  0.5011 -5.1514 -3.1976
  542MOL0     H74745   5.022   1.798  10.000  0.4238 -2.0419  0.1537
  542MOL0     H74746   5.201   1.962   9.935  1.5386 -1.1142 -0.3876
  542MOL0     H74747   5.194   2.054   9.783  0.3572 -0.7147 -0.6921
  542MOL0     H74748   5.283   1.760   9.835 -2.1652 -0.6862  0.7216
  542MOL0     H74749   5.242   1.817   9.673 -1.1477  4.0925 -1.1680
  542MOL0     H74750   5.433   1.993   9.823 -0.3481 -0.5353 -0.1015
  542MOL0     H74751   5.496   1.836   9.802 -3.0432 -0.7040  5.3176
  542MOL0     H74752   5.368   2.000   9.578 -1.6798  0.0744  0.4116
  542MOL0     H74753   5.530   2.050   9.648 -0.2612 -1.5992  0.0074
  542MOL0     H74754   5.332   1.741   9.437  4.4094 -2.6787  0.5765
  542MOL0     H74755   5.268   1.607   9.260 -0.3844  0.4834  0.9884
  542MOL0     H74756   5.290   1.640   9.088  0.0688  0.2271 -0.4182
  542MOL0     H74757   5.162   1.729   9.193  0.3875  0.0468 -0.3456
  542MOL0     H74758   5.309   2.004   8.720  0.0364  1.1809 -1.4127
  542MOL0     H74759   5.304   1.901   8.484  2.3361  0.3275 -1.3781
  542MOL0     H74760   5.493   1.512   8.414 -2.3822 -0.8762 -1.5686
  542MOL0     H74761   5.457   1.562   8.258  0.9512  1.2630  0.0147
  542MOL0     H74762   5.657   1.670   8.226 -0.3328 -1.1666  0.1600
  542MOL0     H74763   5.689   1.692   8.398  1.6040 -2.7135  1.6811
  542MOL0     H74764   5.763   1.460   8.420 -0.3799 -0.4311 -0.5770
  542MOL0     H74765   5.853   1.550   8.315  1.3217 -0.9403  1.9813
  542MOL0     H74766   5.661   1.454   8.139 -2.0253  1.6138  1.5789
  542MOL0     H74767   5.653   1.324   8.262  2.0130 -1.7664 -0.7261
  542MOL0     H74768   5.924   1.413   8.171 -0.8355  1.0237  3.9691
  542MOL0     H74769   5.890   1.284   8.273 -1.7632  3.2709  1.8297
  542MOL0     H74770   5.952   1.191   8.055 -0.2931 -1.6056 -0.1269
  542MOL0     H74771   5.825   1.275   7.976 -2.1014 -2.9372 -0.3016
  542MOL0     H74772   5.657   1.137   8.142 -1.0449  0.0549 -2.1730
  542MOL0     H74773   5.795   1.055   8.183 -0.4880  2.6873  0.8345
  542MOL0     H74774   5.713   1.101   7.884  2.8692  1.6702 -0.1583
  542MOL0     H74775   5.635   0.970   7.981 -0.4216  0.9143  0.6622
  542MOL0     H74776   5.587   1.617   8.600 -2.2271 -2.0778 -0.9253
  542MOL0     H74777   5.592   1.732   8.841  1.0939  3.0624  0.8647
  542MOL0     H74778   5.544   2.052   9.117  2.4432 -3.1307 -1.1475
  542MOL0     H74779   5.603   2.062   9.349  0.1211  0.6749 -0.7739
  542MOL0     H74780   4.690   1.188   9.187 -3.0138 -0.5012  3.1709
  542MOL0     H74781   4.658   1.090   8.954 -2.9795 -4.0498 -2.0482
  542MOL0     H74782   4.449   0.856   8.692 -0.3064 -0.8367  0.8314
  542MOL0     H74783   4.401   0.795   8.462  0.1634 -1.2723 -1.9536
  542MOL0     H74784   4.306   0.652   8.291 -0.9198 -2.7728 -0.3327
  542MOL0     H74785   4.442   0.757   8.247 -1.2536 -0.3195 -1.8219
  542MOL0     H74786   4.362   0.491   8.127  2.4816 -1.3891  2.5517
  542MOL0     H74787   4.532   0.545   8.104  0.2594  0.9413  2.9815
  542MOL0     H74788   4.283   0.693   8.031  0.1038  2.1385  0.2822
  542MOL0     H74789   4.461   0.747   8.031  0.3246 -0.7603  1.2971
  542MOL0     H74790   4.333   0.632   7.807  1.4910 -3.0024 -2.6065
  542MOL0     H74791   4.405   0.488   7.882 -1.7257  0.3154  0.9348
  542MOL0     H74792   4.751   0.708   7.755  0.4610  1.2856  0.4536
  542MOL0     H74793   4.601   0.424   8.516 -2.3294 -0.6172  1.5019
  542MOL0     H74794   4.770   0.514   8.829  1.8098 -2.1005  0.9516
  542MOL0     H74795   4.636   0.409   8.839 -0.4233  0.9797 -1.1952
  542MOL0     H74796   4.750   0.394   8.706 -0.5849  0.0387 -0.0642
  543MOL0     O74797   5.579   5.508   2.897  0.4250  0.5003  0.1781
  543MOL0     C74798   5.554   5.498   2.775  0.7736  0.2663 -0.2312
  543MOL0     O74799   5.602   5.589   2.679  0.4504 -0.3676  0.2349
  543MOL0     C74800   5.708   5.657   2.722 -0.5868  0.1031 -0.1911
  543MOL0     C74801   5.692   5.796   2.742 -0.9313  0.6415  0.5750
  543MOL0     C74802   5.791   5.883   2.803  0.3845 -0.2005  0.0602
  543MOL0     C74803   5.921   5.825   2.843  0.0232 -0.1943 -0.2618
  543MOL0     O74804   6.006   5.898   2.911 -0.0996  0.2856  0.1153
  543MOL0     C74805   6.144   5.850   2.921 -0.4196 -0.0427 -0.2530
  543MOL0     C74806   6.244   5.961   2.973 -0.5108 -0.0804  0.2011
  543MOL0     C74807   6.284   5.943   3.121  0.6040 -0.1509 -0.8447
  543MOL0     C74808   6.385   5.824   3.136  0.1450 -0.5009  0.2005
  543MOL0     C74809   6.467   5.822   3.264 -0.1778  0.1985  0.4071
  543MOL0     C74810   6.553   5.696   3.267 -1.7257 -0.7552  0.6648
  543MOL0     C74811   6.628   5.683   3.397  0.2042 -0.9206  0.0824
  543MOL0     C74812   6.717   5.561   3.377 -0.0866 -0.6075  0.3208
  543MOL0     N74813   6.810   5.524   3.483 -0.0126  0.4440  0.3992
  543MOL0     C74814   6.936   5.485   3.458  0.4291 -0.9104  0.7172
  543MOL0     C74815   6.998   5.504   3.580 -0.5816 -0.1589 -0.1465
  543MOL0     C74816   7.149   5.460   3.589 -0.0075 -0.3219 -0.4862
  543MOL0     C74817   7.212   5.496   3.723 -0.7761  0.5630  0.6695
  543MOL0     C74818   7.355   5.423   3.735  0.9967  0.8031 -0.2167
  543MOL0     C74819   7.443   5.381   3.613  0.1203  0.4869 -0.3238
  543MOL0     O74820   7.383   5.266   3.537  0.3602  0.8974  0.0842
  543MOL0     C74821   7.432   5.247   3.406  0.0149  0.3500 -0.2331
  543MOL0     C74822   7.504   5.335   3.330 -0.4112  0.6673 -0.0016
  543MOL0     C74823   7.548   5.299   3.203  0.2587  0.3650  0.4495
  543MOL0     C74824   7.652   5.391   3.140 -0.1187  0.7001  0.7905
  543MOL0     C74825   7.493   5.177   3.146 -0.1220 -1.2966  0.2372
  543MOL0     C74826   7.541   5.133   3.014 -0.7755 -0.1114  0.7353
  543MOL0     O74827   7.567   5.224   2.912 -0.0061 -0.1336 -0.2330
  543MOL0     C74828   7.588   5.181   2.784  0.1096  0.1215  0.2196
  543MOL0     C74829   7.626   5.285   2.700 -0.2760  0.3843 -0.0144
  543MOL0     C74830   7.658   5.276   2.564 -0.3643  0.2578 -0.3090
  543MOL0     C74831   7.637   5.152   2.499  0.8338  0.2037 -0.3639
  543MOL0     O74832   7.651   5.157   2.361  0.3841 -0.1999 -0.0669
  543MOL0     C74833   7.599   5.051   2.286  0.8546 -1.0920  0.9697
  543MOL0     C74834   7.580   5.091   2.143 -0.2299 -0.4721  0.6739
  543MOL0     C74835   7.505   5.222   2.125  0.2129 -1.0055 -0.5768
  543MOL0     C74836   7.491   5.266   1.980 -0.5524  0.0923  0.1873
  543MOL0     C74837   7.511   5.413   1.944  0.6856  0.0775  1.1120
  543MOL0     C74838   7.469   5.431   1.796 -0.5789 -1.0642 -0.4186
  543MOL0     C74839   7.439   5.584   1.772  0.1265  0.6703 -0.5572
  543MOL0     C74840   7.410   5.623   1.630 -0.6247  0.1389  0.0391
  543MOL0    Cl74841   7.549   5.596   1.515  0.4002  0.1615 -0.0824
  543MOL0     C74842   7.586   5.045   2.584 -0.6304 -0.2495  0.4637
  543MOL0     C74843   7.562   5.060   2.722  0.0709 -1.4110 -0.1423
  543MOL0     O74844   7.571   5.013   3.014 -0.0017 -0.4463 -0.0827
  543MOL0     C74845   7.408   5.095   3.225  0.4363  0.9307 -0.0575
  543MOL0     C74846   7.371   5.133   3.350 -0.7544 -0.1043  0.2414
  543MOL0     N74847   6.912   5.550   3.675 -0.1994  0.0574 -0.4185
  543MOL0     N74848   6.800   5.561   3.611  0.3512 -0.3109  0.4101
  543MOL0     C74849   5.934   5.681   2.825 -0.3008 -0.2545  0.3358
  543MOL0     C74850   5.831   5.606   2.765  0.9795  0.6863 -0.5523
  543MOL0     C74851   5.469   5.390   2.709  0.2997  0.6713 -0.4884
  543MOL0     C74852   5.416   5.421   2.582  0.4428 -0.4992  0.3399
  543MOL0     C74853   5.328   5.336   2.516 -0.9064  0.8871  0.3982
  543MOL0     C74854   5.310   5.216   2.563  0.5400  0.3290 -0.3863
  543MOL0     O74855   5.224   5.137   2.489  0.0293 -0.2433  0.6555
  543MOL0     C74856   5.092   5.110   2.544  0.1963 -0.6336 -0.3022
  543MOL0     C74857   5.011   5.069   2.425  0.2245  0.6118  0.7859
  543MOL0     C74858   5.074   4.943   2.345 -0.5005 -1.1126 -0.0024
  543MOL0     C74859   5.039   4.935   2.193  0.2465 -0.2790  0.1909
  543MOL0     C74860   4.890   4.908   2.173 -0.2195  0.5883 -0.1807
  543MOL0     C74861   4.776   4.900   2.139  0.5267 -0.0981  1.2712
  543MOL0     C74862   5.353   5.181   2.694  0.0403  0.0910 -0.2895
  543MOL0     C74863   5.435   5.268   2.765  0.4841  0.4538 -0.3446
  543MOL0     C74864   5.490   5.231   2.906 -0.1246 -0.3205  0.4237
  543MOL0     H74865   5.601   5.848   2.716  0.7254  2.5791 -1.8728
  543MOL0     H74866   5.785   5.991   2.817  3.4614  0.2653 -1.5563
  543MOL0     H74867   6.179   5.810   2.825 -0.6967  0.8801 -0.7521
  543MOL0     H74868   6.151   5.762   2.985  1.9171 -0.3492 -0.8545
  543MOL0     H74869   6.337   5.970   2.917  0.2829  1.8883  1.7099
  543MOL0     H74870   6.199   6.060   2.962 -0.4489 -0.1923 -1.1746
  543MOL0     H74871   6.338   6.030   3.160  1.9140  0.4044 -3.6044
  543MOL0     H74872   6.192   5.931   3.179 -0.1049  2.7319 -1.2054
  543MOL0     H74873   6.334   5.729   3.119 -1.2005  0.4295 -1.1184
  543MOL0     H74874   6.456   5.833   3.053 -2.5786  1.8857 -2.0699
  543MOL0     H74875   6.391   5.805   3.341 -1.4517  2.3362 -0.2790
  543MOL0     H74876   6.509   5.923   3.274  0.9455  0.2425 -3.2683
  543MOL0     H74877   6.490   5.607   3.257 -3.7596  0.8153 -1.9260
  543MOL0     H74878   6.623   5.680   3.185 -0.0224 -0.1104  1.9252
  543MOL0     H74879   6.562   5.659   3.480 -1.2614 -2.1405 -1.3808
  543MOL0     H74880   6.686   5.771   3.426  2.1299 -0.7123 -3.7170
  543MOL0     H74881   6.649   5.476   3.365 -0.6696  0.1889 -2.7769
  543MOL0     H74882   6.767   5.565   3.280 -2.8361 -1.2306 -1.2151
  543MOL0     H74883   6.975   5.460   3.360 -1.5027  2.1802 -1.0176
  543MOL0     H74884   7.201   5.519   3.514  0.4362  0.8935  0.7272
  543MOL0     H74885   7.163   5.353   3.575  0.4221 -0.3405  0.0575
  543MOL0     H74886   7.237   5.602   3.732  0.4516  0.1872  2.1342
  543MOL0     H74887   7.148   5.474   3.809  2.1016  0.1605  2.8724
  543MOL0     H74888   7.425   5.482   3.794  3.6514 -1.4996 -0.8546
  543MOL0     H74889   7.335   5.332   3.793 -0.4295  1.7727  0.9010
  543MOL0     H74890   7.464   5.465   3.547  0.8393  0.1248 -0.5726
  543MOL0     H74891   7.540   5.341   3.645 -1.0546 -2.1047  0.2567
  543MOL0     H74892   7.540   5.431   3.365 -0.3627  0.5906  0.1609
  543MOL0     H74893   7.628   5.443   3.048  0.1621  0.6376  0.6831
  543MOL0     H74894   7.742   5.330   3.127  0.6594  2.1924 -1.2518
  543MOL0     H74895   7.676   5.473   3.208  1.5014  1.3783 -0.5428
  543MOL0     H74896   7.632   5.385   2.741  0.9374 -1.1387  3.9597
  543MOL0     H74897   7.691   5.355   2.498  3.6276 -0.9803 -0.0635
  543MOL0     H74898   7.662   4.962   2.281  2.1669 -0.1862 -3.9591
  543MOL0     H74899   7.496   5.039   2.320 -0.9741  4.0058 -1.7428
  543MOL0     H74900   7.679   5.116   2.104 -1.0543  2.3016  0.1228
  543MOL0     H74901   7.519   5.020   2.087 -4.1033  0.9570  2.6783
  543MOL0     H74902   7.548   5.300   2.189  2.1839  0.5927 -3.5913
  543MOL0     H74903   7.402   5.215   2.160 -1.2233  0.0273 -4.1142
  543MOL0     H74904   7.388   5.241   1.950 -0.7801  2.8198 -1.7120
  543MOL0     H74905   7.555   5.209   1.912 -0.5650  1.5803 -1.1389
  543MOL0     H74906   7.454   5.472   2.016  0.0447  2.1050 -0.9612
  543MOL0     H74907   7.612   5.453   1.956  1.6190 -1.4372 -1.0886
  543MOL0     H74908   7.385   5.364   1.779 -0.0702 -1.3945 -1.8521
  543MOL0     H74909   7.549   5.401   1.727 -0.8363  1.7059 -2.1130
  543MOL0     H74910   7.523   5.650   1.794  1.0067 -0.9389  1.2397
  543MOL0     H74911   7.358   5.608   1.842  2.0151 -0.7807  2.3522
  543MOL0     H74912   7.386   5.729   1.635  0.5762  0.3562  1.9134
  543MOL0     H74913   7.327   5.560   1.597 -2.0574  0.0807  3.3613
  543MOL0     H74914   7.567   4.951   2.534  0.1642  0.9264 -2.2071
  543MOL0     H74915   7.527   4.977   2.782  0.4510 -2.3700 -1.1939
  543MOL0     H74916   7.372   5.001   3.184  0.3401  1.5693 -1.5206
  543MOL0     H74917   7.308   5.069   3.410 -1.9573  0.3968 -0.4430
  543MOL0     H74918   6.024   5.627   2.853 -0.7700 -1.6336 -0.7247
  543MOL0     H74919   5.831   5.497   2.762 -2.1219  0.4397  1.8727
  543MOL0     H74920   5.431   5.514   2.528 -0.6718 -0.8906 -0.6648
  543MOL0     H74921   5.289   5.368   2.420  0.8761  2.2010  0.0635
  543MOL0     H74922   5.095   5.021   2.609 -0.5390 -0.3446  0.1361
  543MOL0     H74923   5.049   5.198   2.592  1.2550 -0.9036  1.2159
  543MOL0     H74924   5.008   5.160   2.365 -2.1324  0.5699  0.7741
  543MOL0     H74925   4.910   5.045   2.459  0.1129  0.1210  0.1325
  543MOL0     H74926   5.183   4.934   2.348 -0.3856 -0.3403 -1.4670
  543MOL0     H74927   5.036   4.852   2.394  1.7207 -3.7218 -2.7543
  543MOL0     H74928   5.097   4.854   2.148  0.9061 -0.8100  1.9511
  543MOL0     H74929   5.043   5.033   2.144 -2.2266  0.4043  1.1749
  543MOL0     H74930   4.671   4.908   2.116  0.7821  1.7087  0.6140
  543MOL0     H74931   5.327   5.084   2.736  3.0109  0.0916  1.8606
  543MOL0     H74932   5.446   5.138   2.942 -0.9379 -0.6877 -1.3631
  543MOL0     H74933   5.595   5.204   2.892 -0.3675 -0.0159 -2.7260
  543MOL0     H74934   5.475   5.296   2.992  2.6366  0.3309  0.5052
  544MOL0     O74935   8.910   5.226   8.209 -0.6194 -0.0145 -0.2931
  544MOL0     C74936   8.947   5.175   8.103  0.6257 -0.5423  0.3981
  544MOL0     O74937   9.010   5.249   8.010 -0.1207  0.0343  0.5480
  544MOL0     C74938   9.048   5.384   8.021 -0.2261  0.1405 -0.0953
  544MOL0     C74939   9.095   5.448   8.129  0.1084 -0.5351  0.1541
  544MOL0     C74940   9.111   5.585   8.154  0.4553  1.1193  0.2336
  544MOL0     C74941   9.083   5.668   8.047  0.3438  0.7192 -0.6739
  544MOL0     O74942   9.107   5.799   8.072  1.3115 -0.3618  0.0055
  544MOL0     C74943   9.222   5.842   7.993 -0.5096  0.3129  0.1770
  544MOL0     C74944   9.300   5.958   8.060 -0.6393  0.3789  0.6267
  544MOL0     C74945   9.348   5.925   8.203  0.8706 -0.0093 -0.2576
  544MOL0     C74946   9.249   5.974   8.315 -0.5995 -0.0025  0.0518
  544MOL0     C74947   9.306   5.925   8.454  1.0239  1.0776  0.3658
  544MOL0     C74948   9.256   6.031   8.554 -0.0471  0.0812  0.1503
  544MOL0     C74949   9.319   6.023   8.695 -0.1374  0.4646 -1.4707
  544MOL0     C74950   9.323   6.156   8.771 -0.0068 -0.1702  0.7166
  544MOL0     N74951   9.386   6.128   8.909 -0.5042  0.0492 -0.1027
  544MOL0     C74952   9.514   6.165   8.930  0.2252  0.4439 -0.4509
  544MOL0     C74953   9.538   6.151   9.060 -0.8504 -0.7284 -0.1778
  544MOL0     C74954   9.663   6.196   9.135  1.0224 -0.1741  0.5130
  544MOL0     C74955   9.662   6.150   9.283  0.3080 -1.0167 -1.3393
  544MOL0     C74956   9.764   6.224   9.370  1.0101 -0.8052  0.3142
  544MOL0     C74957   9.742   6.178   9.518  0.1978  0.8217 -0.5426
  544MOL0     O74958   9.821   6.267   9.602 -0.7845 -0.1172  0.9299
  544MOL0     C74959   9.853   6.221   9.724 -0.2316  0.2037 -0.5658
  544MOL0     C74960   9.865   6.089   9.771 -0.0690  0.5663 -0.4407
  544MOL0     C74961   9.912   6.053   9.901 -0.4261 -1.2730  0.0974
  544MOL0     C74962   9.939   5.912   9.936 -0.3923  0.2536  0.0620
  544MOL0     C74963   9.940   6.163   9.985 -0.1136  0.0326  0.1919
  544MOL0     C74964   9.992   6.143  10.122 -0.7109  0.9675 -0.2167
  544MOL0     O74965  10.054   6.250  10.179 -0.3337  0.4341 -0.3808
  544MOL0     C74966  10.067   6.278  10.315  0.2101  0.9973  0.2614
  544MOL0     C74967  10.143   6.383  10.350 -0.3824  0.1364 -0.8157
  544MOL0     C74968  10.158   6.417  10.487 -0.8863  0.0190  0.4153
  544MOL0     C74969  10.090   6.346  10.592 -0.2459 -0.0674 -0.0970
  544MOL0     O74970  10.130   6.369  10.721  0.4305  0.6911  0.4069
  544MOL0     C74971  10.138   6.253  10.803 -0.0917  0.2441 -0.5324
  544MOL0     C74972  10.230   6.291  10.911 -0.9639  0.0629 -0.1414
  544MOL0     C74973  10.378   6.286  10.873  0.1964 -0.5769  0.3405
  544MOL0     C74974  10.463   6.366  10.976  0.5481  0.4803  0.1347
  544MOL0     C74975  10.613   6.386  10.933  0.9544  0.1775 -0.0472
  544MOL0     C74976  10.714   6.279  10.984 -0.5363  0.2836 -0.2817
  544MOL0     C74977  10.693   6.142  10.920 -0.2432  0.0634 -0.4535
  544MOL0     C74978  10.788   6.051  10.995  0.3958 -0.2775  0.1317
  544MOL0    Cl74979  10.789   5.878  10.928  0.2880 -0.0802 -0.2154
  544MOL0     C74980   9.996   6.249  10.556  0.2037 -0.7039 -0.2722
  544MOL0     C74981   9.989   6.217  10.418  0.5449  0.3931 -0.1014
  544MOL0     O74982   9.965   6.039  10.178 -0.0769  0.2821 -0.2143
  544MOL0     C74983   9.930   6.294   9.946  0.9988 -0.2751 -0.3669
  544MOL0     C74984   9.882   6.321   9.817 -0.8117  0.2900  0.8353
  544MOL0     N74985   9.422   6.089   9.119 -1.0590 -0.2017 -0.1674
  544MOL0     N74986   9.328   6.096   9.031  0.9182 -0.1174 -0.0145
  544MOL0     C74987   9.044   5.611   7.926 -0.2559  0.2893  0.3792
  544MOL0     C74988   9.034   5.470   7.906  0.5357 -0.1322  0.4921
  544MOL0     C74989   8.908   5.026   8.070 -0.5242  0.3942 -0.0825
  544MOL0     C74990   8.965   4.972   7.952 -0.4247  0.3819  0.3132
  544MOL0     C74991   8.926   4.846   7.904 -0.4514 -0.9492 -0.4287
  544MOL0     C74992   8.831   4.773   7.967  0.7454 -0.0619  0.8937
  544MOL0     O74993   8.818   4.643   7.939  0.1986  1.2334  0.3205
  544MOL0     C74994   8.898   4.553   8.013  0.0897 -0.6229 -0.1310
  544MOL0     C74995   8.991   4.489   7.909 -0.1322  0.0690 -0.1517
  544MOL0     C74996   9.119   4.568   7.877  0.0139  0.5692  0.0453
  544MOL0     C74997   9.221   4.481   7.805 -0.4778 -0.3958  0.2985
  544MOL0     C74998   9.327   4.574   7.763  0.0527  0.7049  1.0923
  544MOL0     C74999   9.407   4.655   7.730  0.0858  0.0576 -0.4689
  544MOL0     C75000   8.772   4.819   8.085 -0.4329 -0.3012  0.2656
  544MOL0     C75001   8.813   4.939   8.135  0.0753 -0.9393 -0.3553
  544MOL0     C75002   8.739   4.966   8.265  0.2580 -0.7845  0.1466
  544MOL0     H75003   9.128   5.394   8.218  0.3101  0.1427  0.4939
  544MOL0     H75004   9.152   5.609   8.252  1.1879 -1.0742  0.5202
  544MOL0     H75005   9.192   5.877   7.894 -1.9242 -0.9308  0.1308
  544MOL0     H75006   9.301   5.767   7.982  2.8591  3.6175 -0.1489
  544MOL0     H75007   9.387   5.978   7.995 -0.4927  0.1832  0.7615
  544MOL0     H75008   9.238   6.048   8.059 -1.2464 -0.0312  0.0606
  544MOL0     H75009   9.367   5.819   8.224 -1.0496 -0.5791 -1.1670
  544MOL0     H75010   9.446   5.970   8.214  3.1989 -4.2143 -1.3351
  544MOL0     H75011   9.243   6.083   8.318  3.6660  0.6249 -3.8947
  544MOL0     H75012   9.147   5.934   8.307 -0.5886 -0.4171  1.5273
  544MOL0     H75013   9.415   5.917   8.459  0.9709 -0.0751  0.0109
  544MOL0     H75014   9.281   5.822   8.479  2.5719  0.7437  0.5728
  544MOL0     H75015   9.289   6.131   8.524  4.3634 -0.7938  1.3095
  544MOL0     H75016   9.148   6.021   8.561  0.1405 -1.9881  0.7385
  544MOL0     H75017   9.420   5.980   8.690 -0.4819 -0.2139 -3.8537
  544MOL0     H75018   9.254   5.949   8.742  0.4995  0.1304 -1.1030
  544MOL0     H75019   9.368   6.238   8.714  0.0679 -1.2275 -0.8128
  544MOL0     H75020   9.219   6.186   8.782 -0.6646 -1.3125 -1.6223
  544MOL0     H75021   9.588   6.189   8.853  2.8156  0.1200  1.7735
  544MOL0     H75022   9.673   6.305   9.130 -0.5622  0.2224  3.6834
  544MOL0     H75023   9.745   6.139   9.090  1.6666 -0.5720  2.1433
  544MOL0     H75024   9.565   6.184   9.319  1.8263  1.5610  0.7202
  544MOL0     H75025   9.672   6.043   9.300 -1.2302 -0.6854  2.7605
  544MOL0     H75026   9.855   6.171   9.341 -0.1742 -3.6517  1.4250
  544MOL0     H75027   9.767   6.333   9.365  1.8675 -0.8658 -1.4684
  544MOL0     H75028   9.640   6.176   9.557  0.1760  2.6522 -0.3956
  544MOL0     H75029   9.783   6.077   9.528 -2.5924 -0.3395  0.0142
  544MOL0     H75030   9.836   6.007   9.705 -0.2900 -0.7061  1.1850
  544MOL0     H75031   9.935   5.859   9.841 -3.9217 -0.5856  0.5425
  544MOL0     H75032   9.857   5.865   9.992  1.1786  0.8434  3.0355
  544MOL0     H75033  10.035   5.891   9.984  0.4898 -2.1088 -2.4832
  544MOL0     H75034  10.208   6.437  10.281  1.9863 -1.2373  0.2110
  544MOL0     H75035  10.222   6.497  10.523 -1.3357  0.3082  0.5808
  544MOL0     H75036  10.043   6.238  10.855  0.8060 -0.6147  0.9400
  544MOL0     H75037  10.152   6.155  10.756 -3.6480  0.2491 -1.9118
  544MOL0     H75038  10.210   6.394  10.944  0.5202 -0.2713  2.0349
  544MOL0     H75039  10.221   6.229  11.001  0.0806 -2.1207 -1.4697
  544MOL0     H75040  10.389   6.329  10.772 -2.3786 -1.2400 -0.2979
  544MOL0     H75041  10.426   6.188  10.868  1.3485 -0.1143  1.7196
  544MOL0     H75042  10.447   6.315  11.072 -4.0739 -0.1941 -0.7562
  544MOL0     H75043  10.429   6.469  10.981  3.6756  1.5783  1.7039
  544MOL0     H75044  10.616   6.403  10.825 -1.0495 -2.2870 -0.5888
  544MOL0     H75045  10.632   6.478  10.989 -0.2535 -0.4629  1.5076
  544MOL0     H75046  10.704   6.268  11.092  2.9621 -1.5361  0.0045
  544MOL0     H75047  10.820   6.297  10.967  0.7571 -4.4826  1.2720
  544MOL0     H75048  10.724   6.148  10.815 -1.2334 -0.2080 -0.7781
  544MOL0     H75049  10.591   6.101  10.926 -0.7445  1.0143 -1.7903
  544MOL0     H75050  10.769   6.048  11.102  1.9135 -4.0278  0.4353
  544MOL0     H75051  10.886   6.099  10.988  0.0943  0.6843  1.9230
  544MOL0     H75052   9.924   6.203  10.622 -1.1492 -0.3975 -1.4764
  544MOL0     H75053   9.919   6.143  10.381  1.4772 -0.5560 -0.0170
  544MOL0     H75054   9.959   6.383  10.000 -3.6653  1.1271  0.2763
  544MOL0     H75055   9.892   6.425   9.787  1.6733 -0.0870  0.0823
  544MOL0     H75056   9.053   5.685   7.847 -0.4577 -1.6395 -1.5546
  544MOL0     H75057   9.009   5.432   7.807 -0.2203  1.0120  0.2228
  544MOL0     H75058   9.032   5.039   7.899  1.0786 -2.9432 -2.3667
  544MOL0     H75059   8.939   4.804   7.806 -1.7553 -1.8675 -0.2428
  544MOL0     H75060   8.945   4.605   8.096  0.0830 -1.4663  0.4050
  544MOL0     H75061   8.841   4.465   8.044  0.3860 -1.5845 -2.1039
  544MOL0     H75062   8.942   4.463   7.815 -0.1671  0.2334 -0.1793
  544MOL0     H75063   9.033   4.405   7.964 -0.6582  0.9681  1.7296
  544MOL0     H75064   9.098   4.649   7.807 -3.1022  1.1320  1.4483
  544MOL0     H75065   9.164   4.599   7.972  2.3684  0.0043 -0.8056
  544MOL0     H75066   9.173   4.421   7.727  1.8522 -2.3272  0.2434
  544MOL0     H75067   9.262   4.408   7.875 -1.8511 -0.0292  1.5606
  544MOL0     H75068   9.482   4.729   7.713 -0.1422  0.5646  0.6262
  544MOL0     H75069   8.704   4.755   8.140  1.8627 -0.5050  3.1264
  544MOL0     H75070   8.691   4.879   8.310  0.3283  0.0275  1.8677
  544MOL0     H75071   8.815   4.991   8.339  0.4402 -3.8475  1.1187
  544MOL0     H75072   8.674   5.053   8.251 -0.8340 -1.7393 -0.9350
  545MOL0     O75073   0.258   1.463   4.252  0.2200  0.6217 -0.1665
  545MOL0     C75074   0.154   1.493   4.190 -0.3520 -1.1138  0.0633
  545MOL0     O75075   0.026   1.492   4.239 -0.0085 -0.4131 -0.0047
  545MOL0     C75076   0.016   1.451   4.370 -0.5463 -0.5414  0.3545
  545MOL0     C75077  -0.057   1.337   4.381 -0.0338  0.0566 -1.0853
  545MOL0     C75078  -0.063   1.269   4.508 -0.0943  0.4690 -1.8228
  545MOL0     C75079  -0.010   1.325   4.620 -0.0297  0.4432 -0.4845
  545MOL0     O75080  -0.036   1.253   4.736 -0.1945  0.4692 -0.0025
  545MOL0     C75081   0.010   1.312   4.861  0.3816  0.1804 -0.6946
  545MOL0     C75082  -0.020   1.208   4.975 -0.2201  0.9306  0.7139
  545MOL0     C75083  -0.166   1.216   5.020  0.1244 -0.4848  1.5408
  545MOL0     C75084  -0.181   1.135   5.138 -0.6645  0.3613 -0.1894
  545MOL0     C75085  -0.330   1.141   5.201  0.1419  0.2458 -0.5394
  545MOL0     C75086  -0.340   1.057   5.329 -0.6108  0.0782 -0.1423
  545MOL0     C75087  -0.479   1.065   5.400 -0.7300 -1.3236 -0.6549
  545MOL0     C75088  -0.576   0.958   5.358 -0.3517  0.4474 -0.1784
  545MOL0     N75089  -0.681   0.927   5.458 -1.4024 -0.1658 -0.1846
  545MOL0     C75090  -0.666   0.862   5.576 -0.4697  0.2564  0.5006
  545MOL0     C75091  -0.788   0.868   5.630 -0.3557 -0.0643 -0.4366
  545MOL0     C75092  -0.812   0.814   5.766  0.8181 -0.2115  0.0771
  545MOL0     C75093  -0.895   0.688   5.753 -0.1895 -0.3363 -0.1471
  545MOL0     C75094  -0.997   0.688   5.859 -0.1692 -0.1085 -0.4598
  545MOL0     C75095  -1.048   0.544   5.878  0.0784  1.0243  0.1807
  545MOL0     O75096  -1.153   0.522   5.976 -0.8690  0.0424 -0.0209
  545MOL0     C75097  -1.285   0.544   5.923 -0.0624 -1.0680  0.0334
  545MOL0     C75098  -1.326   0.624   5.815  0.1089  0.0076  0.3659
  545MOL0     C75099  -1.463   0.624   5.782 -0.0334 -0.1552  0.2099
  545MOL0     C75100  -1.488   0.700   5.653 -0.6544  0.4889  0.6326
  545MOL0     C75101  -1.561   0.569   5.866  0.1740 -1.2770  0.8069
  545MOL0     C75102  -1.712   0.598   5.845 -0.3687  0.1436  0.8418
  545MOL0     O75103  -1.794   0.609   5.961  0.2520  0.3625  0.1794
  545MOL0     C75104  -1.920   0.585   5.959 -0.1253 -0.3342  0.9956
  545MOL0     C75105  -1.975   0.466   5.888 -0.0400  0.3311  0.1985
  545MOL0     C75106  -2.100   0.415   5.912 -0.0052 -0.0784 -0.3397
  545MOL0     C75107  -2.185   0.502   5.984 -0.6325 -0.1863  0.5984
  545MOL0     O75108  -2.318   0.468   5.994 -0.1536 -0.3920 -0.1888
  545MOL0     C75109  -2.363   0.337   6.019  0.2693  0.1278 -0.8113
  545MOL0     C75110  -2.520   0.318   6.019  0.0644 -0.6270  0.8400
  545MOL0     C75111  -2.590   0.412   6.118  0.3536 -0.7291  0.0742
  545MOL0     C75112  -2.739   0.420   6.101 -0.0617 -0.1090  0.3653
  545MOL0     C75113  -2.801   0.558   6.156 -0.4601  0.1502 -0.5255
  545MOL0     C75114  -2.785   0.667   6.058  0.0150  0.8968  0.8378
  545MOL0     C75115  -2.858   0.799   6.086 -0.0414 -0.7435 -0.6717
  545MOL0     C75116  -3.007   0.783   6.098  1.0593 -0.4874  0.7309
  545MOL0    Cl75117  -3.071   0.746   5.930 -0.1091 -0.0489  0.2151
  545MOL0     C75118  -2.148   0.623   6.049 -0.8914 -0.1768 -0.1334
  545MOL0     C75119  -2.005   0.651   6.047 -0.2140  0.6975 -1.2048
  545MOL0     O75120  -1.753   0.627   5.737  0.0811  0.2077  0.7407
  545MOL0     C75121  -1.513   0.498   5.978  0.3775 -0.0798  0.2481
  545MOL0     C75122  -1.381   0.487   6.000  0.2225  0.5492 -0.5437
  545MOL0     N75123  -0.878   0.925   5.552 -0.1990 -0.4336 -0.0562
  545MOL0     N75124  -0.810   0.971   5.447  0.5280  0.2323 -0.4450
  545MOL0     C75125   0.064   1.442   4.604 -0.8487 -0.2494 -0.0804
  545MOL0     C75126   0.079   1.514   4.479  0.7353  0.9426 -0.5859
  545MOL0     C75127   0.171   1.515   4.042 -0.1748 -0.1533 -0.5224
  545MOL0     C75128   0.054   1.550   3.972  0.5479  0.0816 -1.1048
  545MOL0     C75129   0.059   1.575   3.839 -0.0618 -0.1381  0.5992
  545MOL0     C75130   0.178   1.579   3.764 -0.5225  0.6730  0.1001
  545MOL0     O75131   0.172   1.585   3.631 -0.3869 -0.3387  0.4069
  545MOL0     C75132   0.154   1.717   3.580 -0.0805 -0.2653  0.2876
  545MOL0     C75133   0.029   1.725   3.497  0.3298  0.0467 -0.1846
  545MOL0     C75134  -0.006   1.851   3.417  0.4655 -0.0396 -0.0091
  545MOL0     C75135  -0.032   1.961   3.518 -0.5460 -0.4762 -0.6557
  545MOL0     C75136  -0.158   1.956   3.587  0.3723 -0.0932 -0.0896
  545MOL0     C75137  -0.278   1.947   3.637 -0.0278  0.4342 -0.0196
  545MOL0     C75138   0.292   1.547   3.833 -0.4595 -0.2292  0.1640
  545MOL0     C75139   0.294   1.505   3.968  0.0462  0.2537 -1.0732
  545MOL0     C75140   0.425   1.458   4.030  0.7674 -0.6116  0.1114
  545MOL0     H75141  -0.087   1.287   4.290  5.3648 -2.2300 -2.0168
  545MOL0     H75142  -0.119   1.177   4.517  1.1239 -0.0500  1.8914
  545MOL0     H75143  -0.039   1.409   4.869 -1.4182 -0.6751 -0.9630
  545MOL0     H75144   0.117   1.336   4.868 -0.0510  1.9145  0.5651
  545MOL0     H75145   0.001   1.106   4.944  2.2574  1.1074  1.5438
  545MOL0     H75146   0.055   1.237   5.049  1.7343 -0.8404 -0.4724
  545MOL0     H75147  -0.203   1.318   5.033 -0.6137 -0.8168  2.2002
  545MOL0     H75148  -0.215   1.169   4.934  0.0807  0.8705  0.7920
  545MOL0     H75149  -0.161   1.030   5.116  0.6141  0.2208  1.4374
  545MOL0     H75150  -0.124   1.179   5.220 -0.9639 -0.5443  0.5205
  545MOL0     H75151  -0.400   1.097   5.131  0.9589  0.0529 -1.2528
  545MOL0     H75152  -0.353   1.246   5.223  1.6261  0.1223  2.1125
  545MOL0     H75153  -0.313   0.952   5.319  0.2618  0.4096 -1.7143
  545MOL0     H75154  -0.261   1.092   5.397 -1.3571  2.4795 -0.4241
  545MOL0     H75155  -0.515   1.165   5.374  0.9385 -1.5086 -4.3423
  545MOL0     H75156  -0.454   1.057   5.506 -0.0094  0.5937 -0.6414
  545MOL0     H75157  -0.626   0.981   5.263 -0.7588  0.5447  0.0564
  545MOL0     H75158  -0.513   0.869   5.350 -0.9778 -0.0650  0.4444
  545MOL0     H75159  -0.570   0.830   5.615 -0.6288  0.0873  0.7526
  545MOL0     H75160  -0.855   0.892   5.830  0.8487 -0.5856  0.5582
  545MOL0     H75161  -0.717   0.795   5.816  1.1363  0.0365 -0.4164
  545MOL0     H75162  -0.938   0.675   5.653  1.2125 -0.9189 -0.7002
  545MOL0     H75163  -0.825   0.604   5.759 -0.6871 -1.0985 -3.1733
  545MOL0     H75164  -0.944   0.714   5.951 -2.3835 -3.4384  1.9697
  545MOL0     H75165  -1.075   0.764   5.853 -0.8015 -0.4896  1.9880
  545MOL0     H75166  -1.082   0.519   5.777 -0.8646  1.7802  0.2985
  545MOL0     H75167  -0.966   0.477   5.906 -1.7875 -0.9155  1.3414
  545MOL0     H75168  -1.249   0.662   5.749  1.6387 -3.0493  0.2245
  545MOL0     H75169  -1.396   0.751   5.624 -1.0409  2.8031  3.0786
  545MOL0     H75170  -1.569   0.770   5.673 -1.4816 -0.8775  2.3186
  545MOL0     H75171  -1.513   0.625   5.576  4.1462  1.5868 -2.3748
  545MOL0     H75172  -1.912   0.402   5.828  1.0943 -0.5507  2.2363
  545MOL0     H75173  -2.136   0.327   5.861 -0.2201 -0.8388  1.0931
  545MOL0     H75174  -2.315   0.267   5.950 -0.8835 -0.7417 -0.7631
  545MOL0     H75175  -2.343   0.300   6.121 -0.5608  1.0582 -0.2964
  545MOL0     H75176  -2.564   0.348   5.924 -1.5985 -1.3228  1.3435
  545MOL0     H75177  -2.546   0.213   6.040  0.4545 -0.3034  3.2537
  545MOL0     H75178  -2.548   0.511   6.101 -0.4466 -0.9544 -4.3560
  545MOL0     H75179  -2.569   0.372   6.218 -0.8784 -0.9213  0.2763
  545MOL0     H75180  -2.781   0.335   6.156 -0.7552  2.2087  3.7311
  545MOL0     H75181  -2.755   0.420   5.993  1.9507 -1.5503  0.0048
  545MOL0     H75182  -2.905   0.529   6.176  0.4042 -2.0360  1.2878
  545MOL0     H75183  -2.752   0.582   6.251 -0.8305 -4.7034  1.1902
  545MOL0     H75184  -2.817   0.639   5.957 -2.2934  0.2799  1.6831
  545MOL0     H75185  -2.679   0.688   6.037  0.7910 -2.1573  1.1812
  545MOL0     H75186  -2.822   0.862   6.005  2.1440  0.3615  1.0473
  545MOL0     H75187  -2.810   0.845   6.173  1.7987  0.6904 -2.3581
  545MOL0     H75188  -3.045   0.878   6.138 -2.9617 -1.9698  0.8909
  545MOL0     H75189  -3.036   0.725   6.186  0.5249 -1.6987 -0.2164
  545MOL0     H75190  -2.200   0.692   6.115 -0.7861 -0.9184  0.7321
  545MOL0     H75191  -1.964   0.720   6.119  3.0168  0.2057 -2.3786
  545MOL0     H75192  -1.586   0.457   6.048  0.5557 -1.7510 -0.4959
  545MOL0     H75193  -1.351   0.434   6.090 -1.2663  1.1478  0.3408
  545MOL0     H75194   0.109   1.487   4.693 -0.1091  3.8857 -2.2874
  545MOL0     H75195   0.130   1.609   4.473 -0.1389  1.7022  2.2035
  545MOL0     H75196  -0.047   1.547   4.012  1.1221  1.4971  0.5555
  545MOL0     H75197  -0.026   1.618   3.787  1.3553 -0.3055 -2.0125
  545MOL0     H75198   0.142   1.791   3.659 -0.0197 -0.8121  0.8194
  545MOL0     H75199   0.243   1.761   3.533 -0.0173 -0.8108 -0.1126
  545MOL0     H75200  -0.063   1.721   3.556  0.1430  0.9113 -0.3970
  545MOL0     H75201   0.019   1.640   3.430 -1.0393  0.6173 -0.7538
  545MOL0     H75202   0.082   1.881   3.359 -0.4833 -3.0412 -3.3766
  545MOL0     H75203  -0.081   1.822   3.342  2.1161 -2.7375 -0.7445
  545MOL0     H75204  -0.028   2.061   3.472  3.7424 -0.2912 -0.2957
  545MOL0     H75205   0.049   1.963   3.591 -1.9919 -1.4799  1.0545
  545MOL0     H75206  -0.376   1.918   3.671 -0.8291  2.0674 -0.8374
  545MOL0     H75207   0.390   1.549   3.786 -0.0618  0.7980  0.9706
  545MOL0     H75208   0.397   1.369   4.086 -2.3668 -0.3340 -0.8054
  545MOL0     H75209   0.493   1.436   3.946 -1.9019 -0.8686 -2.1178
  545MOL0     H75210   0.472   1.534   4.094 -1.9318  1.5150 -0.2183
  546MOL0     O75211  11.510   7.341   1.013  0.0531 -0.0209 -0.0558
  546MOL0     C75212  11.529   7.220   1.019 -0.0731 -0.5750 -0.4134
  546MOL0     O75213  11.556   7.135   0.908 -0.2266  0.3790  0.4074
  546MOL0     C75214  11.587   7.181   0.782  0.4937 -0.0384 -0.3174
  546MOL0     C75215  11.539   7.300   0.723 -0.0533  1.3790  1.2678
  546MOL0     C75216  11.594   7.331   0.596 -0.6981 -0.3651 -0.2771
  546MOL0     C75217  11.683   7.247   0.531  0.1316  0.3229  0.6635
  546MOL0     O75218  11.723   7.268   0.405 -0.1176 -0.1886  0.0837
  546MOL0     C75219  11.723   7.408   0.344  0.2300 -0.8109  0.3958
  546MOL0     C75220  11.802   7.400   0.215 -0.1972  0.4219 -0.1540
  546MOL0     C75221  11.804   7.537   0.139  0.3842  0.1651  0.1833
  546MOL0     C75222  11.889   7.645   0.210  0.1167  0.3862 -0.7574
  546MOL0     C75223  11.866   7.785   0.162 -0.2801  1.0273 -0.1918
  546MOL0     C75224  11.989   7.879   0.201  0.4035  0.3033  0.3948
  546MOL0     C75225  12.036   7.865   0.346  0.2480 -0.5368 -0.6727
  546MOL0     C75226  12.169   7.948   0.380 -0.6128  0.7462 -0.1112
  546MOL0     N75227  12.138   8.097   0.366  0.1876  0.3007 -0.4434
  546MOL0     C75228  12.129   8.161   0.247 -0.1849  1.1770  0.4818
  546MOL0     C75229  12.138   8.299   0.284  0.2812  0.6435  1.3341
  546MOL0     C75230  12.145   8.418   0.186  0.2792 -0.0359 -0.2796
  546MOL0     C75231  12.023   8.511   0.198  0.4018  1.0806 -0.1957
  546MOL0     C75232  11.999   8.572   0.066 -1.4320  0.7142  0.8276
  546MOL0     C75233  11.896   8.673   0.066  0.2637  0.2820  1.3699
  546MOL0     O75234  11.945   8.792   0.137 -0.0866 -0.4942  0.1071
  546MOL0     C75235  11.886   8.914   0.121  1.1714  0.9340 -0.1979
  546MOL0     C75236  11.921   9.023   0.201 -0.7934  0.4158  0.3417
  546MOL0     C75237  11.846   9.144   0.205  0.7098 -0.0676  0.5087
  546MOL0     C75238  11.898   9.245   0.312  0.3334  0.5276 -0.5965
  546MOL0     C75239  11.719   9.158   0.140 -0.7843  0.4714 -0.4169
  546MOL0     C75240  11.628   9.281   0.137 -0.0280 -0.2491 -0.2404
  546MOL0     O75241  11.548   9.277   0.021 -0.3957 -0.0140 -0.2108
  546MOL0     C75242  11.476   9.390  -0.005 -0.2758 -0.0588  0.1607
  546MOL0     C75243  11.492   9.443  -0.132  0.0593  0.2628 -0.3627
  546MOL0     C75244  11.402   9.542  -0.180  0.7138 -1.0868  0.0120
  546MOL0     C75245  11.298   9.602  -0.092 -0.6222  0.3101  0.5079
  546MOL0     O75246  11.215   9.692  -0.151  0.0485 -0.1076  0.0617
  546MOL0     C75247  11.080   9.702  -0.092 -0.3678 -0.1632 -0.0967
  546MOL0     C75248  11.089   9.784   0.037  0.2300  0.2704 -0.3212
  546MOL0     C75249  11.020   9.917   0.020  0.5502 -0.8428  0.0427
  546MOL0     C75250  10.990  10.003   0.148  0.8355  0.4842  0.2827
  546MOL0     C75251  10.903  10.138   0.122  0.3081 -0.2248  0.2375
  546MOL0     C75252  10.765  10.109   0.050 -0.2146  0.3138  0.5185
  546MOL0     C75253  10.681  10.229   0.053  0.7814 -0.5297  0.1619
  546MOL0     C75254  10.551  10.216  -0.025  0.9972 -0.5562 -0.9942
  546MOL0    Cl75255  10.584  10.144  -0.187  0.0304  0.2477  0.1200
  546MOL0     C75256  11.289   9.546   0.036 -0.8594 -0.2036  0.2795
  546MOL0     C75257  11.376   9.439   0.079 -0.8684 -0.5314  0.4201
  546MOL0     O75258  11.651   9.379   0.210  0.3961 -0.1742  0.5272
  546MOL0     C75259  11.682   9.052   0.060  0.1686  0.8681  0.3789
  546MOL0     C75260  11.763   8.934   0.050  0.8220  1.2740 -1.6064
  546MOL0     N75261  12.150   8.306   0.419  0.0363  0.2848  0.0879
  546MOL0     N75262  12.146   8.183   0.471 -0.9990 -0.4406  0.7777
  546MOL0     C75263  11.716   7.125   0.589 -0.2933 -0.0915 -0.6689
  546MOL0     C75264  11.677   7.099   0.723  0.9426 -0.1925 -0.2176
  546MOL0     C75265  11.515   7.151   1.158 -1.1916 -0.7557 -0.1901
  546MOL0     C75266  11.480   7.018   1.167  0.3313  0.0037  0.4492
  546MOL0     C75267  11.474   6.943   1.289  0.4249 -0.5369 -0.2216
  546MOL0     C75268  11.501   7.013   1.407 -0.3430 -1.0684  0.0249
  546MOL0     O75269  11.502   6.955   1.536  0.9302  0.2124 -0.5130
  546MOL0     C75270  11.526   6.813   1.548 -0.2071 -0.2216 -0.2275
  546MOL0     C75271  11.509   6.792   1.707 -0.2265  0.3384 -1.0878
  546MOL0     C75272  11.492   6.636   1.736 -1.2059  0.2477  0.6931
  546MOL0     C75273  11.471   6.611   1.882  0.7566 -0.1519  0.4195
  546MOL0     C75274  11.579   6.669   1.971  0.3130 -0.3286 -0.7827
  546MOL0     C75275  11.648   6.708   2.065  0.5108 -0.3534  0.4742
  546MOL0     C75276  11.541   7.149   1.404  0.1366  0.3594 -0.8066
  546MOL0     C75277  11.561   7.220   1.281 -0.0948  0.3541  0.1076
  546MOL0     C75278  11.625   7.355   1.269 -0.6482  0.1079  0.6911
  546MOL0     H75279  11.465   7.370   0.759  0.2467  2.2516  0.2285
  546MOL0     H75280  11.546   7.414   0.544  0.0202 -0.5456 -1.2681
  546MOL0     H75281  11.787   7.458   0.417  0.8703  0.9506 -1.2889
  546MOL0     H75282  11.628   7.463   0.344  1.3086  1.2202  2.6581
  546MOL0     H75283  11.904   7.366   0.235 -0.9811 -0.2717  3.6046
  546MOL0     H75284  11.747   7.323   0.159 -2.3218  0.3832  1.8081
  546MOL0     H75285  11.851   7.528   0.041  0.4913 -1.1218  0.3303
  546MOL0     H75286  11.701   7.565   0.112 -0.6148 -1.5878  1.8897
  546MOL0     H75287  11.870   7.636   0.317  0.8880  0.3527 -0.6175
  546MOL0     H75288  11.996   7.626   0.212  0.5043  2.3066  1.5087
  546MOL0     H75289  11.776   7.816   0.216 -0.7560 -2.5589  1.3429
  546MOL0     H75290  11.861   7.792   0.053  0.2882  1.2552 -0.2061
  546MOL0     H75291  12.066   7.840   0.133 -0.5421 -1.0650  0.0675
  546MOL0     H75292  11.967   7.984   0.184  2.8561  1.0385  1.2790
  546MOL0     H75293  12.054   7.763   0.380  0.2983 -0.6893 -1.1491
  546MOL0     H75294  11.961   7.910   0.411 -0.2405  1.4916 -2.5136
  546MOL0     H75295  12.206   7.929   0.481  2.5348 -3.0628 -1.7105
  546MOL0     H75296  12.244   7.919   0.305 -1.8538  1.6547 -1.7577
  546MOL0     H75297  12.113   8.120   0.148 -2.2079  1.3966  0.6697
  546MOL0     H75298  12.160   8.383   0.083 -1.5744  0.2717 -0.6904
  546MOL0     H75299  12.232   8.484   0.196  0.3748  0.1977 -2.2559
  546MOL0     H75300  11.936   8.447   0.216  2.0287 -1.0745  0.5815
  546MOL0     H75301  12.032   8.569   0.291 -0.4326 -0.9908  1.2675
  546MOL0     H75302  12.095   8.619   0.045 -1.2399  1.2630  2.7060
  546MOL0     H75303  11.978   8.490  -0.004  3.4719 -0.0747 -0.0846
  546MOL0     H75304  11.864   8.703  -0.035  0.5191 -1.0209  0.8797
  546MOL0     H75305  11.812   8.629   0.120  0.9583 -1.5492  1.0585
  546MOL0     H75306  12.009   9.018   0.265  0.9525  2.7167 -1.6612
  546MOL0     H75307  11.899   9.348   0.275 -5.2729  0.8111 -0.7416
  546MOL0     H75308  12.003   9.221   0.328  0.2090 -0.6677 -1.4451
  546MOL0     H75309  11.837   9.242   0.403  1.8958 -2.2630  0.4984
  546MOL0     H75310  11.558   9.409  -0.211 -1.0744  4.2388 -3.3535
  546MOL0     H75311  11.418   9.578  -0.281 -2.1633 -0.2702 -0.2489
  546MOL0     H75312  11.003   9.738  -0.160  1.2240  2.9580 -0.4356
  546MOL0     H75313  11.043   9.603  -0.062  2.0333 -1.1401 -0.1364
  546MOL0     H75314  11.037   9.725   0.113 -0.3286  0.6666 -0.3895
  546MOL0     H75315  11.191   9.803   0.072 -0.0307  2.0561 -0.4701
  546MOL0     H75316  10.919   9.885  -0.009  0.5533 -1.2345  0.4491
  546MOL0     H75317  11.075   9.980  -0.050 -1.2810 -0.9806 -1.6218
  546MOL0     H75318  11.081  10.031   0.202  0.2529 -1.3911  2.3992
  546MOL0     H75319  10.938   9.937   0.217  0.5993  0.1972 -0.1657
  546MOL0     H75320  10.907  10.188   0.219  3.8750  0.5483 -0.1708
  546MOL0     H75321  10.963  10.198   0.054  0.3789 -2.0019 -1.3436
  546MOL0     H75322  10.727  10.028   0.113 -4.0313 -0.2053 -2.1002
  546MOL0     H75323  10.791  10.078  -0.051 -0.6576 -1.7456  0.9967
  546MOL0     H75324  10.738  10.312   0.011  2.1694 -1.6294 -0.1720
  546MOL0     H75325  10.658  10.251   0.158  0.2832 -1.8748  0.3590
  546MOL0     H75326  10.508  10.314  -0.043  1.6738 -0.5139 -2.5897
  546MOL0     H75327  10.476  10.157   0.028 -0.2830  1.8820  0.0136
  546MOL0     H75328  11.212   9.576   0.107 -0.4186 -1.3474  1.2707
  546MOL0     H75329  11.382   9.413   0.184 -0.2127 -0.0431  0.5111
  546MOL0     H75330  11.592   9.060  -0.000  0.1180  3.3737  0.6754
  546MOL0     H75331  11.724   8.851  -0.009 -2.4032  1.2308  0.3374
  546MOL0     H75332  11.791   7.073   0.529  0.6123  2.1378 -1.5841
  546MOL0     H75333  11.732   7.019   0.772  1.8877 -0.1327 -1.1456
  546MOL0     H75334  11.454   6.963   1.077  0.4145 -0.9488  0.9899
  546MOL0     H75335  11.443   6.839   1.288 -0.2220 -0.3630  0.4002
  546MOL0     H75336  11.453   6.752   1.494 -1.7859  1.4180  0.0104
  546MOL0     H75337  11.622   6.772   1.513  1.2620  2.9175 -0.1764
  546MOL0     H75338  11.423   6.841   1.753  0.1785 -1.1619  1.4226
  546MOL0     H75339  11.598   6.836   1.753 -1.5745  2.0047  0.0438
  546MOL0     H75340  11.416   6.590   1.672 -0.9066  1.7074 -0.7958
  546MOL0     H75341  11.582   6.579   1.716 -1.8095 -1.0269  1.5060
  546MOL0     H75342  11.458   6.504   1.901 -0.1615 -0.1674 -0.2011
  546MOL0     H75343  11.377   6.665   1.900  0.0849 -0.5953 -1.4207
  546MOL0     H75344  11.705   6.719   2.155 -1.0318 -1.9962  1.7141
  546MOL0     H75345  11.564   7.193   1.500  0.4100  0.4361 -0.9064
  546MOL0     H75346  11.701   7.355   1.190  2.6845 -1.1694  3.6601
  546MOL0     H75347  11.543   7.424   1.243 -1.1213 -0.1486  1.4824
  546MOL0     H75348  11.675   7.374   1.364  0.8825 -2.1749  0.4187
  547MOL0     O75349   4.393   8.914  11.361 -0.5512  0.6724  0.2755
  547MOL0     C75350   4.336   8.937  11.467 -0.3659 -0.6585 -0.1644
  547MOL0     O75351   4.240   8.858  11.518 -0.2184  0.0138  0.0024
  547MOL0     C75352   4.211   8.742  11.455  0.1706  0.9868 -0.6444
  547MOL0     C75353   4.233   8.619  11.523  0.6494 -0.1479  1.3140
  547MOL0     C75354   4.191   8.495  11.466 -0.3367 -0.0708  0.0841
  547MOL0     C75355   4.127   8.507  11.339 -0.0201  0.1595 -0.4980
  547MOL0     O75356   4.071   8.402  11.275 -0.0424 -0.2459  0.2348
  547MOL0     C75357   4.093   8.269  11.330  0.9694  0.1365  0.2653
  547MOL0     C75358   4.011   8.173  11.252 -0.7826 -0.4766 -0.4670
  547MOL0     C75359   3.983   8.209  11.115 -0.1915 -0.6071 -0.1322
  547MOL0     C75360   3.919   8.087  11.048  0.6225 -0.3947 -0.1413
  547MOL0     C75361   3.916   8.076  10.893 -0.0363  0.3447 -0.4118
  547MOL0     C75362   4.044   8.110  10.822  1.0723  0.3655  0.1396
  547MOL0     C75363   4.030   8.065  10.680 -0.1984  0.2953 -0.5542
  547MOL0     C75364   4.124   8.127  10.568  0.3700 -0.5125  0.1287
  547MOL0     N75365   4.125   8.275  10.563  0.6199  0.2041 -0.1054
  547MOL0     C75366   4.065   8.351  10.464  0.0611  0.3695 -0.7312
  547MOL0     C75367   4.108   8.477  10.502  0.5110 -0.3532 -1.1134
  547MOL0     C75368   4.061   8.601  10.445  0.8919  0.0544 -0.4552
  547MOL0     C75369   4.166   8.713  10.417 -0.8272  0.8539 -0.8543
  547MOL0     C75370   4.139   8.828  10.329  0.3377 -0.2110  0.4062
  547MOL0     C75371   4.235   8.954  10.370  0.2428 -0.2447  0.9166
  547MOL0     O75372   4.153   9.062  10.332 -0.0852 -0.3627 -0.3529
  547MOL0     C75373   4.201   9.189  10.336 -0.2538  0.0934  1.3489
  547MOL0     C75374   4.119   9.296  10.358 -0.7082 -0.8847 -0.1138
  547MOL0     C75375   4.168   9.434  10.373  1.1661 -0.2168  0.3230
  547MOL0     C75376   4.071   9.544  10.413  0.6813 -0.6156  0.5130
  547MOL0     C75377   4.309   9.452  10.364 -0.1702  0.3867  1.0531
  547MOL0     C75378   4.378   9.580  10.377  0.7486 -0.8244 -0.3676
  547MOL0     O75379   4.507   9.583  10.334 -0.3362 -0.3812  0.4509
  547MOL0     C75380   4.570   9.705  10.344 -0.5515  0.1993  0.5757
  547MOL0     C75381   4.615   9.754  10.464 -0.2406  0.1187 -0.9813
  547MOL0     C75382   4.693   9.871  10.466  0.3251  0.1706  0.3587
  547MOL0     C75383   4.725   9.933  10.344  0.1843  0.0435 -0.3714
  547MOL0     O75384   4.793  10.054  10.350 -0.6335 -0.4300 -0.4751
  547MOL0     C75385   4.814  10.151  10.248 -0.1556 -0.5926 -0.4772
  547MOL0     C75386   4.931  10.242  10.279 -0.9897  0.1665 -0.9716
  547MOL0     C75387   4.969  10.342  10.173  0.0828  0.2639  0.0376
  547MOL0     C75388   5.111  10.326  10.102  0.8649 -0.1855 -0.5675
  547MOL0     C75389   5.229  10.316  10.212 -0.0633  0.2853  0.0074
  547MOL0     C75390   5.244  10.437  10.311 -0.2623 -0.0261 -0.8270
  547MOL0     C75391   5.347  10.423  10.415 -0.3998 -0.0419 -0.4867
  547MOL0     C75392   5.336  10.530  10.533 -0.7168  0.2090 -0.2153
  547MOL0    Cl75393   5.170  10.528  10.600  0.0050 -0.1711 -0.1592
  547MOL0     C75394   4.676   9.883  10.227 -0.3162 -0.2799 -0.1321
  547MOL0     C75395   4.595   9.775  10.226  0.4242  0.2075  0.0116
  547MOL0     O75396   4.324   9.679  10.436 -0.5145  0.7076  0.0911
  547MOL0     C75397   4.394   9.338  10.349  0.3019  0.2171  0.5315
  547MOL0     C75398   4.336   9.215  10.321  0.2511  0.6371 -0.1633
  547MOL0     N75399   4.199   8.473  10.601  0.1798  0.3552  0.0718
  547MOL0     N75400   4.210   8.349  10.641 -0.2755  0.0316  0.8144
  547MOL0     C75401   4.113   8.626  11.264 -0.2936  0.0997 -0.4442
  547MOL0     C75402   4.156   8.744  11.329  0.2583 -0.3718  0.8439
  547MOL0     C75403   4.373   9.059  11.545  0.3713 -0.6415  0.4165
  547MOL0     C75404   4.390   9.046  11.680  0.2884 -0.0668 -0.4848
  547MOL0     C75405   4.424   9.147  11.761  0.4747 -0.5091  0.0949
  547MOL0     C75406   4.456   9.271  11.698  0.0179 -0.9939  0.1437
  547MOL0     O75407   4.478   9.377  11.785 -0.0216  0.5009 -0.1093
  547MOL0     C75408   4.534   9.500  11.734  0.5317  0.3370  0.3543
  547MOL0     C75409   4.678   9.499  11.679  0.4521 -0.3505 -0.1612
  547MOL0     C75410   4.767   9.366  11.691 -0.3736 -0.6182  0.1558
  547MOL0     C75411   4.804   9.349  11.832  0.0055 -0.2062 -0.4913
  547MOL0     C75412   4.888   9.230  11.837 -0.0678 -0.0880  0.0870
  547MOL0     C75413   4.962   9.125  11.859  0.7979 -0.6018  0.8715
  547MOL0     C75414   4.438   9.289  11.563  1.0423 -0.1456  0.8938
  547MOL0     C75415   4.387   9.185  11.480  0.4486  0.6220  0.0708
  547MOL0     C75416   4.343   9.204  11.326 -0.0069  0.0078  0.5046
  547MOL0     H75417   4.300   8.608  11.608  3.1932  2.1099 -0.2863
  547MOL0     H75418   4.191   8.405  11.526  0.5943  1.4714  2.5548
  547MOL0     H75419   4.072   8.253  11.436 -0.7196 -3.5372 -0.4455
  547MOL0     H75420   4.199   8.255  11.310  0.7191  1.2638 -2.2592
  547MOL0     H75421   4.059   8.075  11.254  0.1440 -0.1524  3.8111
  547MOL0     H75422   3.920   8.147  11.307 -0.1516  2.2172  2.1311
  547MOL0     H75423   3.910   8.289  11.102 -0.1790 -0.9297 -2.5450
  547MOL0     H75424   4.079   8.224  11.064 -0.6769 -1.0326 -1.1752
  547MOL0     H75425   3.985   8.005  11.078  1.0539 -0.8184 -2.0986
  547MOL0     H75426   3.816   8.077  11.085  0.5580  3.2165  1.0747
  547MOL0     H75427   3.843   8.151  10.861 -0.4177  0.2922  0.3276
  547MOL0     H75428   3.885   7.973  10.871 -0.3267  0.1636  0.8010
  547MOL0     H75429   4.066   8.217  10.826  1.2718  0.3106  0.5218
  547MOL0     H75430   4.135   8.065  10.862 -0.3660 -1.8597  1.1291
  547MOL0     H75431   3.926   8.084  10.651 -0.9097 -1.3647  0.7689
  547MOL0     H75432   4.061   7.961  10.678  0.1292  0.3528  0.9740
  547MOL0     H75433   4.226   8.089  10.577  0.5507  0.5340  3.7365
  547MOL0     H75434   4.076   8.098  10.474  0.0675 -0.1210  0.1584
  547MOL0     H75435   3.991   8.318  10.392 -1.6507 -2.5519  2.0978
  547MOL0     H75436   3.982   8.639  10.510 -1.5091 -5.2031  0.1742
  547MOL0     H75437   4.036   8.577  10.341  4.2830 -0.5827 -1.2358
  547MOL0     H75438   4.197   8.752  10.514 -0.5308 -1.8293  0.2339
  547MOL0     H75439   4.248   8.653  10.377 -0.8895  1.7554 -2.4096
  547MOL0     H75440   4.163   8.801  10.225 -3.7810  0.4553 -0.8804
  547MOL0     H75441   4.034   8.853  10.340  1.1324  3.2307  1.3827
  547MOL0     H75442   4.245   8.955  10.479 -1.6199 -1.0556  1.1342
  547MOL0     H75443   4.331   8.951  10.317 -0.7977 -0.1124 -1.0481
  547MOL0     H75444   4.015   9.273  10.375 -0.3175 -2.8074 -0.1121
  547MOL0     H75445   4.073   9.626  10.340 -2.8863 -3.2828 -2.9530
  547MOL0     H75446   4.099   9.586  10.511  0.6598 -0.2775  0.3749
  547MOL0     H75447   3.968   9.510  10.426 -0.8247  3.1007 -0.4213
  547MOL0     H75448   4.589   9.715  10.562  1.3929 -2.5484 -1.5428
  547MOL0     H75449   4.734   9.906  10.560  3.4052  1.4327 -1.2848
  547MOL0     H75450   4.849  10.092  10.163  0.4938  2.5088 -2.5364
  547MOL0     H75451   4.728  10.208  10.212  0.0861  0.2089  0.1770
  547MOL0     H75452   4.931  10.300  10.372  2.6712 -1.2861  0.1583
  547MOL0     H75453   5.016  10.178  10.306  0.8477  2.8037  0.0379
  547MOL0     H75454   4.965  10.443  10.214 -3.0476  0.0792  0.4272
  547MOL0     H75455   4.902  10.336  10.087  4.5094 -2.8704 -3.6571
  547MOL0     H75456   5.127  10.418  10.044 -0.0178 -0.4373 -1.2312
  547MOL0     H75457   5.114  10.243  10.031  1.8491 -1.6770  1.1573
  547MOL0     H75458   5.230  10.223  10.268  0.7276 -0.2824 -0.9250
  547MOL0     H75459   5.319  10.318  10.149 -0.2146 -0.8402 -0.2654
  547MOL0     H75460   5.144  10.444  10.355 -0.0549 -3.3078  0.4392
  547MOL0     H75461   5.242  10.534  10.260 -1.6831 -0.3301 -1.3894
  547MOL0     H75462   5.448  10.435  10.374 -0.2733  1.9391  0.3014
  547MOL0     H75463   5.342  10.327  10.467 -2.1268  0.0837 -0.3393
  547MOL0     H75464   5.348  10.629  10.489 -0.1968  0.6541  0.8915
  547MOL0     H75465   5.409  10.505  10.611 -2.0456  3.1941  2.1698
  547MOL0     H75466   4.684   9.939  10.134 -1.8274  0.7115  0.3003
  547MOL0     H75467   4.540   9.735  10.142 -1.2016  0.4064  0.9478
  547MOL0     H75468   4.501   9.342  10.335  0.5140 -0.8781  1.7190
  547MOL0     H75469   4.405   9.140  10.284  0.4873  2.7599 -4.5239
  547MOL0     H75470   4.070   8.610  11.166 -2.4747 -1.2887  0.6447
  547MOL0     H75471   4.144   8.822  11.255 -1.4495 -1.6868 -0.3213
  547MOL0     H75472   4.381   8.947  11.723  0.3428 -0.2716 -0.9292
  547MOL0     H75473   4.417   9.118  11.865 -2.0325 -1.6440 -0.3287
  547MOL0     H75474   4.466   9.539  11.657  1.3839 -1.8384 -1.6279
  547MOL0     H75475   4.542   9.572  11.816 -1.8925 -1.4205  2.2976
  547MOL0     H75476   4.728   9.588  11.717 -1.0205  0.5130 -0.1456
  547MOL0     H75477   4.677   9.523  11.573  1.9254  1.0230  0.0891
  547MOL0     H75478   4.703   9.285  11.655  0.8810 -1.6893  0.2620
  547MOL0     H75479   4.852   9.385  11.625 -0.7852  0.4184 -0.0863
  547MOL0     H75480   4.712   9.335  11.889  0.5673  1.9941  1.1076
  547MOL0     H75481   4.869   9.428  11.870 -0.1601 -1.3138  2.3155
  547MOL0     H75482   5.025   9.038  11.857  3.2136  1.0557  1.1274
  547MOL0     H75483   4.446   9.388  11.520 -2.7739  0.5516  1.3899
  547MOL0     H75484   4.349   9.305  11.283 -1.2396 -0.8652 -1.9289
  547MOL0     H75485   4.398   9.138  11.258 -1.3220 -1.8578  1.1561
  547MOL0     H75486   4.237   9.180  11.311  0.7257 -0.9493 -5.9969
  548MOL0     O75487   1.371   0.770   1.822  0.6660  0.3349 -0.4221
  548MOL0     C75488   1.449   0.871   1.809 -0.4520 -0.3757 -0.6374
  548MOL0     O75489   1.522   0.899   1.700 -0.1759  0.2687  0.4737
  548MOL0     C75490   1.510   0.804   1.597 -0.2570  0.3168 -0.0188
  548MOL0     C75491   1.589   0.687   1.590 -0.1533 -0.3761 -0.1642
  548MOL0     C75492   1.572   0.599   1.481 -0.1423 -1.1803  0.1322
  548MOL0     C75493   1.482   0.620   1.378  0.1536  0.7437  0.1967
  548MOL0     O75494   1.471   0.524   1.279 -0.4763 -0.1999 -0.6826
  548MOL0     C75495   1.378   0.559   1.175 -0.3017  0.1335  0.8152
  548MOL0     C75496   1.377   0.457   1.063  0.8608 -0.6032  0.0496
  548MOL0     C75497   1.289   0.502   0.945  0.2351  0.3976 -0.2577
  548MOL0     C75498   1.270   0.398   0.838 -1.0887 -0.4907  0.4832
  548MOL0     C75499   1.154   0.415   0.735  0.3960  0.2543 -0.9559
  548MOL0     C75500   1.129   0.561   0.710 -0.0493  0.7373  0.1415
  548MOL0     C75501   1.027   0.583   0.599 -0.2203 -0.4355 -0.3533
  548MOL0     C75502   1.015   0.732   0.570 -0.0818 -0.7393  0.6822
  548MOL0     N75503   0.907   0.756   0.471 -0.7596 -0.3514  0.9429
  548MOL0     C75504   0.924   0.789   0.348 -0.2572 -1.3958  0.2105
  548MOL0     C75505   0.805   0.793   0.294  1.4937 -0.3737 -0.8439
  548MOL0     C75506   0.788   0.855   0.164  0.2291  0.5506 -0.1643
  548MOL0     C75507   0.679   0.774   0.086 -0.9547  0.1479  0.2270
  548MOL0     C75508   0.689   0.617   0.087 -0.0400 -0.7132 -0.1227
  548MOL0     C75509   0.574   0.564   0.001  0.0901  0.1159 -0.3406
  548MOL0     O75510   0.461   0.568   0.085  0.1581 -0.6504  0.2604
  548MOL0     C75511   0.408   0.468   0.143  0.1559  0.9062 -0.6811
  548MOL0     C75512   0.471   0.344   0.152 -0.8028 -0.0321 -0.5800
  548MOL0     C75513   0.406   0.223   0.193  0.1265  0.1996  0.5401
  548MOL0     C75514   0.485   0.090   0.197 -0.2144  0.5163 -0.2982
  548MOL0     C75515   0.268   0.226   0.240  0.3918 -0.4918 -0.6787
  548MOL0     C75516   0.185   0.118   0.294 -0.2147  0.2867 -0.1944
  548MOL0     O75517   0.054   0.155   0.316 -0.8905  0.1241  0.1160
  548MOL0     C75518  -0.040   0.066   0.346  0.2879  0.0746  0.6574
  548MOL0     C75519  -0.066  -0.049   0.266  0.0514  0.0102 -0.2957
  548MOL0     C75520  -0.174  -0.132   0.299 -0.0412 -0.7586 -0.1751
  548MOL0     C75521  -0.258  -0.101   0.407 -0.8722  0.7399  0.3030
  548MOL0     O75522  -0.361  -0.181   0.440  0.4641 -0.1771 -0.5859
  548MOL0     C75523  -0.388  -0.296   0.354  0.4040  0.6874  0.9474
  548MOL0     C75524  -0.520  -0.372   0.398 -0.1398 -0.6812 -0.3587
  548MOL0     C75525  -0.521  -0.499   0.310  0.0957  0.2509 -0.3087
  548MOL0     C75526  -0.666  -0.556   0.307 -1.3429 -0.7187  0.2196
  548MOL0     C75527  -0.678  -0.708   0.291 -0.3255 -0.0846 -0.5670
  548MOL0     C75528  -0.692  -0.766   0.144 -0.3034 -0.6281 -0.0424
  548MOL0     C75529  -0.693  -0.917   0.144  0.2330  0.9282 -0.1882
  548MOL0     C75530  -0.779  -0.991   0.256 -0.9634 -0.2590  0.0918
  548MOL0    Cl75531  -0.955  -0.948   0.265 -0.0553 -0.1144 -0.0550
  548MOL0     C75532  -0.242   0.024   0.466  1.0248  1.1756  0.2964
  548MOL0     C75533  -0.134   0.107   0.436 -0.4462 -0.5319  0.3525
  548MOL0     O75534   0.234   0.008   0.325 -0.2142  0.0312 -0.0309
  548MOL0     C75535   0.207   0.358   0.238 -1.0711 -0.2002  0.3009
  548MOL0     C75536   0.278   0.476   0.190  0.0614 -0.4011  0.0631
  548MOL0     N75537   0.710   0.758   0.395 -0.4802 -0.1888 -0.4702
  548MOL0     N75538   0.777   0.729   0.504 -0.1752 -0.2652 -0.2219
  548MOL0     C75539   1.399   0.735   1.388  0.6810  0.1373  0.5069
  548MOL0     C75540   1.417   0.833   1.489 -0.1331  0.5018  0.3105
  548MOL0     C75541   1.495   0.942   1.924 -0.0205 -1.2402 -0.2381
  548MOL0     C75542   1.631   0.982   1.930 -0.1133  0.3897 -0.0886
  548MOL0     C75543   1.670   1.059   2.037 -0.8370 -0.1820  0.6198
  548MOL0     C75544   1.591   1.090   2.139  0.3310 -0.2400  0.3829
  548MOL0     O75545   1.643   1.158   2.244  0.3777 -0.5595  0.3877
  548MOL0     C75546   1.757   1.241   2.243  0.4546 -0.1471 -0.2953
  548MOL0     C75547   1.888   1.178   2.293  0.3503 -0.1928  0.9662
  548MOL0     C75548   1.881   1.134   2.439 -0.4960  0.9983 -0.2762
  548MOL0     C75549   2.024   1.112   2.494  0.2907  0.6193  0.2553
  548MOL0     C75550   2.017   1.029   2.617 -0.7114 -0.3521  0.1070
  548MOL0     C75551   2.012   0.943   2.701  0.4285  1.2644 -0.0211
  548MOL0     C75552   1.457   1.064   2.134 -0.3321  0.1455 -0.7776
  548MOL0     C75553   1.403   0.993   2.032  0.2660  0.0629  0.5763
  548MOL0     C75554   1.252   0.978   2.024  0.0347 -0.3352 -0.1793
  548MOL0     H75555   1.662   0.666   1.667  1.3940  1.9457 -0.8974
  548MOL0     H75556   1.637   0.512   1.484 -1.8177 -2.5086  3.2514
  548MOL0     H75557   1.382   0.662   1.139 -0.4078  0.1592  0.8773
  548MOL0     H75558   1.278   0.550   1.220 -0.9148 -0.3934 -0.5867
  548MOL0     H75559   1.479   0.456   1.024  1.2293  2.4395  0.6222
  548MOL0     H75560   1.349   0.357   1.097  0.9605 -1.4518 -2.1830
  548MOL0     H75561   1.191   0.534   0.983 -0.5370  1.3306 -2.8188
  548MOL0     H75562   1.338   0.589   0.901 -3.3526  3.5027  1.3532
  548MOL0     H75563   1.365   0.406   0.784 -1.7466  1.0722 -0.5138
  548MOL0     H75564   1.253   0.301   0.885  1.0689 -1.9102 -1.4361
  548MOL0     H75565   1.073   0.362   0.786  0.8595 -1.0308 -1.5072
  548MOL0     H75566   1.171   0.353   0.647  0.9440 -1.8626  0.5656
  548MOL0     H75567   1.092   0.601   0.805 -2.9439 -0.2960 -0.4425
  548MOL0     H75568   1.224   0.605   0.678 -0.8498  0.4957 -2.9473
  548MOL0     H75569   0.927   0.549   0.628 -0.7848  0.8417 -0.7459
  548MOL0     H75570   1.055   0.527   0.510 -0.9037  1.5095 -1.8506
  548MOL0     H75571   0.990   0.790   0.659  0.1479  0.4342  0.0020
  548MOL0     H75572   1.104   0.779   0.528 -2.7184  3.5315 -0.7055
  548MOL0     H75573   1.020   0.817   0.307  0.7556 -0.1907  3.2026
  548MOL0     H75574   0.884   0.855   0.110  1.9958 -1.9565  2.6545
  548MOL0     H75575   0.762   0.959   0.184 -1.6275 -0.3469  2.7401
  548MOL0     H75576   0.583   0.796   0.133  0.1469  0.4887  2.4260
  548MOL0     H75577   0.689   0.814  -0.015 -0.3028 -0.2058  0.1432
  548MOL0     H75578   0.787   0.590   0.048  0.0083  1.7475 -1.9431
  548MOL0     H75579   0.699   0.569   0.185 -2.5378  1.8389  1.5371
  548MOL0     H75580   0.547   0.629  -0.082  1.0851  2.4177  1.0394
  548MOL0     H75581   0.576   0.464  -0.042 -0.1850 -0.7613  1.5724
  548MOL0     H75582   0.574   0.329   0.123 -1.0782 -3.9046 -0.0901
  548MOL0     H75583   0.422   0.013   0.150  0.5581 -1.2789  1.4893
  548MOL0     H75584   0.507   0.061   0.300  0.5160 -1.1301 -0.8848
  548MOL0     H75585   0.579   0.103   0.143  1.6688 -3.8982  1.4762
  548MOL0     H75586   0.004  -0.078   0.189  0.7663  0.1252  0.2936
  548MOL0     H75587  -0.179  -0.212   0.226  0.3415  0.4893 -1.6499
  548MOL0     H75588  -0.394  -0.274   0.247 -1.5415 -1.8623  0.4336
  548MOL0     H75589  -0.301  -0.360   0.368  1.9141  2.8053  1.7643
  548MOL0     H75590  -0.488  -0.403   0.498  5.2067 -0.2863 -1.6301
  548MOL0     H75591  -0.607  -0.306   0.397  0.2854 -0.0910  0.5827
  548MOL0     H75592  -0.447  -0.576   0.334  0.3051  0.8209  0.9930
  548MOL0     H75593  -0.506  -0.469   0.206 -1.5887  2.6174  0.0375
  548MOL0     H75594  -0.715  -0.490   0.234  2.5480  1.7604 -0.4319
  548MOL0     H75595  -0.701  -0.525   0.405  1.6393  2.3778  0.4765
  548MOL0     H75596  -0.602  -0.760   0.350 -3.5128 -2.0489  2.1928
  548MOL0     H75597  -0.765  -0.737   0.350 -1.2418 -0.9947 -2.2976
  548MOL0     H75598  -0.618  -0.718   0.080  1.5356 -0.5870  2.0044
  548MOL0     H75599  -0.787  -0.730   0.104 -0.6931 -0.5077  0.9593
  548MOL0     H75600  -0.591  -0.956   0.154  0.1109  0.7589  0.4237
  548MOL0     H75601  -0.730  -0.948   0.046 -1.3790  2.5750 -0.1449
  548MOL0     H75602  -0.736  -0.977   0.356 -0.4645 -0.3845 -0.1040
  548MOL0     H75603  -0.762  -1.096   0.231 -3.2440 -0.8049  0.5954
  548MOL0     H75604  -0.302   0.061   0.549  3.4022  3.4096  1.1574
  548MOL0     H75605  -0.128   0.209   0.471 -1.0842 -0.1310 -0.6620
  548MOL0     H75606   0.107   0.367   0.278 -1.4161 -2.3452  0.0464
  548MOL0     H75607   0.220   0.565   0.172  0.2880  0.0053  1.2319
  548MOL0     H75608   1.320   0.767   1.321 -1.3921  0.0783  2.8216
  548MOL0     H75609   1.364   0.927   1.498  1.0425  1.0669  1.9504
  548MOL0     H75610   1.708   0.953   1.858 -0.9017  1.1222 -1.2637
  548MOL0     H75611   1.778   1.070   2.027 -0.8546 -0.3001  0.2636
  548MOL0     H75612   1.774   1.277   2.141  0.2638  1.0032  0.0646
  548MOL0     H75613   1.734   1.322   2.313  3.0607 -0.7668  1.4320
  548MOL0     H75614   1.972   1.243   2.267  1.4699 -2.7236 -2.5651
  548MOL0     H75615   1.902   1.090   2.228  0.2709  2.3063 -2.7260
  548MOL0     H75616   1.839   1.211   2.505  0.1801  1.3414 -0.2362
  548MOL0     H75617   1.813   1.048   2.433  1.8937 -0.9022 -1.9801
  548MOL0     H75618   2.064   1.212   2.516 -1.6396  1.5303 -0.1181
  548MOL0     H75619   2.090   1.055   2.428 -0.4170 -1.3355  1.1799
  548MOL0     H75620   2.021   0.860   2.767 -2.5347  0.2511 -0.7589
  548MOL0     H75621   1.388   1.101   2.209  0.7085  1.6241 -0.5165
  548MOL0     H75622   1.202   1.070   2.056 -1.1228 -0.4072 -1.6834
  548MOL0     H75623   1.216   0.962   1.922 -1.1729 -0.0245  0.1765
  548MOL0     H75624   1.222   0.895   2.089  1.2396  1.0619  2.3011
  549MOL0     O75625   7.853   9.679   6.146 -0.3033 -0.6174 -0.0094
  549MOL0     C75626   7.832   9.726   6.033 -0.0655  0.2254 -0.3001
  549MOL0     O75627   7.931   9.753   5.939 -0.2433  0.6575  0.0274
  549MOL0     C75628   8.060   9.779   5.985  0.9737  0.2522 -0.0133
  549MOL0     C75629   8.104   9.815   6.114 -0.6946  0.4085  0.2809
  549MOL0     C75630   8.241   9.837   6.142 -0.2956  0.6382  0.6147
  549MOL0     C75631   8.332   9.821   6.038  0.1215  0.0603 -0.8131
  549MOL0     O75632   8.470   9.827   6.058  0.2006 -0.3080  0.0357
  549MOL0     C75633   8.529   9.939   6.123  0.4464 -0.3079  0.8073
  549MOL0     C75634   8.574  10.031   6.004 -0.8931 -0.2613 -0.7930
  549MOL0     C75635   8.626  10.164   6.058 -0.5207 -0.5882  0.3995
  549MOL0     C75636   8.697  10.249   5.961 -0.4275  0.2880  1.1421
  549MOL0     C75637   8.762  10.378   6.016 -0.2984  0.8827  0.0288
  549MOL0     C75638   8.666  10.492   6.020  0.0298 -0.4608  1.6663
  549MOL0     C75639   8.719  10.613   6.091 -0.3322 -0.2259  0.5284
  549MOL0     C75640   8.856  10.658   6.046  0.1051 -0.2430 -0.4579
  549MOL0     N75641   8.895  10.767   6.133 -0.6115  0.3544 -0.2075
  549MOL0     C75642   8.927  10.890   6.090  0.9333  0.6341 -0.2573
  549MOL0     C75643   8.952  10.959   6.206  0.5452  0.5457  1.0164
  549MOL0     C75644   9.013  11.098   6.220  0.1403  0.7335  0.1857
  549MOL0     C75645   9.162  11.091   6.235  0.2605  0.0171 -1.1003
  549MOL0     C75646   9.238  11.010   6.120  0.7956  0.6627  0.2719
  549MOL0     C75647   9.393  11.052   6.130  0.1362 -1.2315 -0.3218
  549MOL0     O75648   9.463  10.978   6.035  1.1313 -0.8776 -0.7717
  549MOL0     C75649   9.595  11.002   6.008 -0.3315  0.2224  0.3575
  549MOL0     C75650   9.674  10.915   5.928  0.7811 -0.3325  0.0444
  549MOL0     C75651   9.802  10.952   5.888 -0.1010 -0.1125  1.3327
  549MOL0     C75652   9.889  10.862   5.802  0.2770  0.9493  1.0407
  549MOL0     C75653   9.856  11.074   5.934  1.0607 -0.3160  0.7251
  549MOL0     C75654   9.983  11.143   5.891  0.5619 -0.4681 -0.6729
  549MOL0     O75655  10.090  11.085   5.821  0.4792  0.0999  0.6936
  549MOL0     C75656  10.215  11.128   5.830  1.1141 -0.5084  0.5611
  549MOL0     C75657  10.267  11.178   5.952 -0.0930 -0.1889 -0.3929
  549MOL0     C75658  10.394  11.228   5.950 -0.9986  0.0073 -0.6648
  549MOL0     C75659  10.470  11.256   5.833 -0.0986  0.1730  0.1143
  549MOL0     O75660  10.592  11.311   5.838  0.2519 -0.2203 -0.0271
  549MOL0     C75661  10.696  11.267   5.749  0.1601 -0.2996  0.7662
  549MOL0     C75662  10.823  11.271   5.848 -0.9101 -0.3397 -0.1879
  549MOL0     C75663  10.962  11.266   5.777 -0.9378  0.4637 -0.2486
  549MOL0     C75664  10.977  11.398   5.708  0.5556  0.5674 -0.5374
  549MOL0     C75665  11.098  11.419   5.620 -0.2309  0.5901  0.4995
  549MOL0     C75666  11.100  11.356   5.486 -0.5793 -0.0081  0.0940
  549MOL0     C75667  11.231  11.378   5.402  0.1475 -0.0418  0.7066
  549MOL0     C75668  11.212  11.338   5.252  0.0662  0.4285 -0.1186
  549MOL0    Cl75669  11.180  11.162   5.248 -0.3005 -0.7820  0.3684
  549MOL0     C75670  10.415  11.210   5.716 -0.5754 -0.3172  0.7887
  549MOL0     C75671  10.286  11.144   5.713  0.0458  0.9092 -0.4854
  549MOL0     O75672   9.969  11.266   5.901 -0.2616 -0.7985  0.6878
  549MOL0     C75673   9.785  11.149   6.032  0.2210  0.1122 -0.8654
  549MOL0     C75674   9.661  11.118   6.058  0.2487  0.3948 -1.3413
  549MOL0     N75675   8.949  10.864   6.314  0.1920 -0.9692  0.7842
  549MOL0     N75676   8.921  10.748   6.264  0.6593 -0.5362 -0.4944
  549MOL0     C75677   8.285   9.801   5.915 -1.2716  1.1202 -0.8045
  549MOL0     C75678   8.154   9.781   5.885  0.0165  0.6584 -0.5470
  549MOL0     C75679   7.697   9.745   5.981 -0.1614  0.5528  0.2595
  549MOL0     C75680   7.675   9.842   5.884 -0.7345 -0.5884 -0.2688
  549MOL0     C75681   7.553   9.879   5.832 -0.3509 -0.0798 -0.7722
  549MOL0     C75682   7.442   9.814   5.891  0.2393 -0.5648 -0.0449
  549MOL0     O75683   7.319   9.845   5.837  0.7328 -1.3178  0.3938
  549MOL0     C75684   7.216   9.746   5.819  0.8806 -0.5988 -0.1041
  549MOL0     C75685   7.260   9.640   5.710  0.9782  1.7081 -0.7742
  549MOL0     C75686   7.205   9.681   5.560 -0.1882 -0.2025  0.1847
  549MOL0     C75687   7.079   9.599   5.534  0.0245 -0.2509 -0.8036
  549MOL0     C75688   7.104   9.457   5.515 -0.6412  0.0131  0.1067
  549MOL0     C75689   7.103   9.340   5.477 -0.3196 -0.3968 -0.2599
  549MOL0     C75690   7.461   9.730   5.997 -0.3981 -0.0992 -0.7301
  549MOL0     C75691   7.584   9.693   6.037  0.3224 -0.6593  0.1752
  549MOL0     C75692   7.588   9.604   6.153  0.0780  0.3302  0.0656
  549MOL0     H75693   8.034   9.819   6.197 -0.1953 -1.9287  0.8959
  549MOL0     H75694   8.274   9.851   6.244 -0.3380 -2.4589  1.1574
  549MOL0     H75695   8.617   9.909   6.181  0.4847 -0.8384  0.4775
  549MOL0     H75696   8.459   9.983   6.194  1.1596 -1.0455  2.0064
  549MOL0     H75697   8.657   9.976   5.957  2.1590  3.4544 -0.2556
  549MOL0     H75698   8.490  10.047   5.936 -1.7853  0.6510  0.4811
  549MOL0     H75699   8.547  10.223   6.107 -0.5122  0.2115 -0.5128
  549MOL0     H75700   8.690  10.140   6.144  0.1220 -0.0301  0.0870
  549MOL0     H75701   8.780  10.185   5.929 -0.0596  0.1871  2.2378
  549MOL0     H75702   8.640  10.270   5.870  1.5044 -0.7617 -0.3892
  549MOL0     H75703   8.839  10.398   5.941  1.4564 -3.3756  0.3907
  549MOL0     H75704   8.811  10.363   6.113 -1.4887 -0.3513  0.4696
  549MOL0     H75705   8.653  10.534   5.920 -1.0634  0.7112  2.2670
  549MOL0     H75706   8.568  10.451   6.049 -0.9931 -1.5613 -2.5717
  549MOL0     H75707   8.717  10.596   6.199 -0.6683  2.1797  0.9447
  549MOL0     H75708   8.646  10.694   6.081  1.1150  1.1021  0.5298
  549MOL0     H75709   8.926  10.574   6.054  1.7729  1.2022  1.2968
  549MOL0     H75710   8.851  10.696   5.944  0.3099  2.6986  0.5333
  549MOL0     H75711   8.924  10.937   5.992 -1.3098  2.1521  0.4725
  549MOL0     H75712   8.974  11.144   6.312  1.1012  1.8690  0.0527
  549MOL0     H75713   8.985  11.168   6.140 -1.8894  1.4427  1.4345
  549MOL0     H75714   9.198  11.194   6.231  4.3143 -1.2364 -1.3049
  549MOL0     H75715   9.174  11.037   6.329  1.2340  0.3301 -1.0373
  549MOL0     H75716   9.246  10.903   6.141  0.9700  1.1056  2.9053
  549MOL0     H75717   9.202  11.036   6.020 -1.0659 -0.6562  0.5549
  549MOL0     H75718   9.390  11.154   6.092 -0.7556 -0.4674  1.6234
  549MOL0     H75719   9.436  11.055   6.231 -3.2255  2.5771  1.3164
  549MOL0     H75720   9.630  10.822   5.894 -1.4011  1.4548 -2.3919
  549MOL0     H75721   9.973  10.819   5.858  0.8308  0.7590  0.0718
  549MOL0     H75722   9.925  10.920   5.716  1.9426 -0.1939  0.9259
  549MOL0     H75723   9.831  10.776   5.770  3.0962 -1.3289  1.6657
  549MOL0     H75724  10.216  11.178   6.048  0.4835 -0.3636 -0.0821
  549MOL0     H75725  10.436  11.240   6.050 -1.2128  0.2568 -0.6018
  549MOL0     H75726  10.687  11.162   5.721 -1.3165 -0.0387  0.1741
  549MOL0     H75727  10.711  11.332   5.662  1.9461 -0.8374  0.6372
  549MOL0     H75728  10.821  11.367   5.901 -3.7604  0.9290 -2.3116
  549MOL0     H75729  10.825  11.185   5.916 -1.0365 -0.1803  0.0174
  549MOL0     H75730  10.957  11.184   5.704 -0.2888  2.6741 -2.9236
  549MOL0     H75731  11.048  11.252   5.843  0.3168  0.0089 -1.9177
  549MOL0     H75732  10.959  11.483   5.775 -1.4348  0.2281 -0.5893
  549MOL0     H75733  10.889  11.420   5.647  1.9393  4.5839 -1.4185
  549MOL0     H75734  11.102  11.527   5.608 -2.3428  0.6195 -0.2145
  549MOL0     H75735  11.185  11.370   5.666  2.1761 -0.2127 -4.3189
  549MOL0     H75736  11.016  11.395   5.427  1.5333 -2.1181 -4.8279
  549MOL0     H75737  11.084  11.249   5.500  0.2736 -0.3249 -1.2251
  549MOL0     H75738  11.302  11.302   5.437 -0.0590 -0.7297 -0.3109
  549MOL0     H75739  11.278  11.476   5.416  2.1155 -0.6298 -1.1876
  549MOL0     H75740  11.299  11.347   5.186 -0.9121 -0.8375 -1.6378
  549MOL0     H75741  11.129  11.396   5.211  0.4356  1.5982  0.7198
  549MOL0     H75742  10.468  11.239   5.625 -1.4980  0.9603  0.6195
  549MOL0     H75743  10.232  11.108   5.626 -3.0449 -0.0561  1.6772
  549MOL0     H75744   9.831  11.232   6.085  2.1211 -1.0468 -0.6204
  549MOL0     H75745   9.610  11.187   6.125  1.3630  0.9045 -1.0052
  549MOL0     H75746   8.356   9.778   5.836  0.2782 -0.9414  1.0509
  549MOL0     H75747   8.131   9.767   5.780  2.0068 -0.0052 -0.9433
  549MOL0     H75748   7.767   9.897   5.865 -0.7970  0.5368  2.3666
  549MOL0     H75749   7.541   9.954   5.755 -2.1727 -0.4378 -0.8732
  549MOL0     H75750   7.190   9.692   5.910 -2.9235 -0.7525 -1.1181
  549MOL0     H75751   7.120   9.794   5.795  0.4900 -0.2332  2.0399
  549MOL0     H75752   7.217   9.546   5.746  1.3491  0.8321 -2.4794
  549MOL0     H75753   7.368   9.622   5.713  0.5985 -0.8362  0.0323
  549MOL0     H75754   7.174   9.785   5.556  2.6338  0.6912 -1.4958
  549MOL0     H75755   7.271   9.667   5.473 -0.6478 -2.0853  0.0921
  549MOL0     H75756   7.033   9.628   5.439  0.0135 -1.0176 -1.0337
  549MOL0     H75757   7.005   9.611   5.614 -1.5093 -0.6880 -2.0981
  549MOL0     H75758   7.115   9.236   5.454  1.0079 -0.6707  1.4165
  549MOL0     H75759   7.370   9.701   6.049 -0.2221  1.1499  0.3231
  549MOL0     H75760   7.628   9.646   6.246 -0.1075  0.1797  0.2157
  549MOL0     H75761   7.488   9.569   6.183  0.0799 -0.3406 -0.6677
  549MOL0     H75762   7.652   9.522   6.119  1.0255  0.8103  0.6593
  550MOL0     O75763   4.396   7.284   5.606 -0.0431  1.0728  0.4690
  550MOL0     C75764   4.517   7.267   5.620 -0.3453  1.4971  1.6078
  550MOL0     O75765   4.596   7.183   5.535  1.2365  0.0257  0.6704
  550MOL0     C75766   4.532   7.081   5.457  0.2858 -0.0457 -0.0527
  550MOL0     C75767   4.627   7.019   5.379 -0.7509 -0.1553 -0.4515
  550MOL0     C75768   4.610   6.905   5.299  0.5279  0.3762  0.5022
  550MOL0     C75769   4.483   6.842   5.302  0.8190  0.2113 -0.7289
  550MOL0     O75770   4.471   6.729   5.226  0.0010  0.8098  0.2663
  550MOL0     C75771   4.351   6.654   5.219  0.2841 -0.6344 -0.1629
  550MOL0     C75772   4.257   6.667   5.098  1.2349  0.4305  0.3231
  550MOL0     C75773   4.327   6.655   4.965  0.0112 -0.3221 -0.5614
  550MOL0     C75774   4.228   6.659   4.840  0.0404  0.4751 -0.6432
  550MOL0     C75775   4.313   6.609   4.723  0.5189 -0.6814 -0.5903
  550MOL0     C75776   4.231   6.618   4.589  0.3640 -0.0183  1.3416
  550MOL0     C75777   4.250   6.747   4.518  0.1940 -0.3657 -0.5884
  550MOL0     C75778   4.132   6.780   4.437 -0.5576 -1.0835  0.0327
  550MOL0     N75779   4.155   6.884   4.331 -0.2267 -0.0544 -0.2504
  550MOL0     C75780   4.072   6.886   4.223  0.4924 -0.1400 -0.0717
  550MOL0     C75781   4.111   6.993   4.152  0.5257 -0.4371  0.5793
  550MOL0     C75782   4.048   7.035   4.018 -0.0156  0.0584  0.7671
  550MOL0     C75783   3.974   7.176   4.016 -0.4486 -0.3049  0.2048
  550MOL0     C75784   3.937   7.228   3.877  0.2120 -0.0219 -0.9068
  550MOL0     C75785   4.062   7.290   3.806  0.4180  0.1821  0.0073
  550MOL0     O75786   4.005   7.381   3.709 -0.3720  0.1078 -0.0182
  550MOL0     C75787   4.097   7.433   3.615  0.5923  0.5050  0.6905
  550MOL0     C75788   4.236   7.424   3.619 -0.4078  0.2427  0.2646
  550MOL0     C75789   4.315   7.488   3.519 -0.3390 -0.4030  0.6291
  550MOL0     C75790   4.470   7.491   3.526  0.4311  0.5129  0.3829
  550MOL0     C75791   4.254   7.571   3.426  0.6479 -0.5803  0.3509
  550MOL0     C75792   4.322   7.646   3.315 -0.1311 -0.8748  0.1433
  550MOL0     O75793   4.252   7.752   3.266  0.4189  0.3692  0.5273
  550MOL0     C75794   4.306   7.832   3.163 -0.5105 -0.2349 -0.0423
  550MOL0     C75795   4.370   7.949   3.199  0.5682 -0.3533 -1.3141
  550MOL0     C75796   4.408   8.042   3.106  0.1039 -0.2593 -0.4978
  550MOL0     C75797   4.374   8.014   2.964  0.4284 -0.7968 -1.2551
  550MOL0     O75798   4.413   8.091   2.858  0.6765 -0.3909  1.3009
  550MOL0     C75799   4.552   8.097   2.836 -0.0294 -0.2899  0.4926
  550MOL0     C75800   4.603   8.248   2.832  0.0073  0.5528  0.0068
  550MOL0     C75801   4.573   8.331   2.954 -0.2124  1.0257  0.7464
  550MOL0     C75802   4.686   8.328   3.050  0.4584  0.3732  0.4847
  550MOL0     C75803   4.643   8.411   3.177 -0.5639 -0.1961 -0.4052
  550MOL0     C75804   4.749   8.412   3.281  0.9602  0.3989 -0.7218
  550MOL0     C75805   4.720   8.527   3.382 -0.1441 -0.1876 -0.2337
  550MOL0     C75806   4.600   8.507   3.474  0.2437  0.8198  0.4913
  550MOL0    Cl75807   4.625   8.372   3.597 -0.2947  0.2900  0.0939
  550MOL0     C75808   4.293   7.906   2.934 -0.2117  0.4152 -0.7047
  550MOL0     C75809   4.257   7.814   3.031 -0.5626  0.2665  0.5885
  550MOL0     O75810   4.438   7.620   3.286 -0.4000  0.2828  0.5915
  550MOL0     C75811   4.118   7.582   3.427  0.3651 -0.0726 -0.6225
  550MOL0     C75812   4.039   7.518   3.517 -0.0494  0.1833 -0.0562
  550MOL0     N75813   4.232   7.045   4.206  1.2759  1.5400  0.0647
  550MOL0     N75814   4.247   6.986   4.328  0.4010  0.1926 -0.1795
  550MOL0     C75815   4.383   6.904   5.379 -0.3428 -0.4237  0.6402
  550MOL0     C75816   4.410   7.014   5.461  0.6624 -0.7253 -0.1711
  550MOL0     C75817   4.586   7.359   5.704 -0.0968 -0.0328 -0.5311
  550MOL0     C75818   4.721   7.370   5.682 -0.5569  0.4183 -0.4973
  550MOL0     C75819   4.803   7.458   5.747 -0.0043  0.1171 -0.0589
  550MOL0     C75820   4.751   7.539   5.844 -0.2663 -0.4316 -0.3213
  550MOL0     O75821   4.841   7.615   5.916  0.0579 -0.3895  0.3354
  550MOL0     C75822   4.912   7.698   5.828 -0.5240 -0.5750  0.6682
  550MOL0     C75823   5.031   7.749   5.894 -0.2771 -1.0336  0.7268
  550MOL0     C75824   5.144   7.653   5.901 -0.4854  0.1963  0.3974
  550MOL0     C75825   5.269   7.713   5.977  0.1271 -0.3038  0.3232
  550MOL0     C75826   5.398   7.634   5.954  0.2986  0.3283 -0.1578
  550MOL0     C75827   5.495   7.564   5.926  0.0853  0.0991 -0.8536
  550MOL0     C75828   4.616   7.541   5.866 -0.0865 -0.1941  0.2439
  550MOL0     C75829   4.526   7.455   5.788  1.1125 -0.0462 -0.6228
  550MOL0     C75830   4.381   7.463   5.824 -1.4459 -0.4938 -1.3170
  550MOL0     H75831   4.721   7.073   5.382 -1.5778  1.3194  0.4046
  550MOL0     H75832   4.696   6.872   5.243 -1.7392 -0.4174 -2.8454
  550MOL0     H75833   4.305   6.657   5.318  2.9628 -0.4477  1.1431
  550MOL0     H75834   4.394   6.554   5.217  1.4271 -0.2194  1.7588
  550MOL0     H75835   4.174   6.596   5.100 -1.0633  2.9547  1.5420
  550MOL0     H75836   4.201   6.761   5.106  1.4911  0.6449 -0.3544
  550MOL0     H75837   4.396   6.738   4.949 -1.2339  0.7302 -0.6284
  550MOL0     H75838   4.384   6.565   4.988 -0.3957 -0.1022  1.4527
  550MOL0     H75839   4.148   6.585   4.851  2.3025 -1.7974  2.2759
  550MOL0     H75840   4.180   6.757   4.832 -2.2178 -0.4572  0.3119
  550MOL0     H75841   4.350   6.508   4.743 -0.9757 -1.2162 -0.3666
  550MOL0     H75842   4.401   6.674   4.721  1.6613 -2.1469  0.2223
  550MOL0     H75843   4.260   6.537   4.521 -1.2800  0.2141  0.3327
  550MOL0     H75844   4.129   6.604   4.627 -0.0495  1.7864  0.9880
  550MOL0     H75845   4.342   6.745   4.459  2.3236 -1.4763  2.4914
  550MOL0     H75846   4.267   6.828   4.590  1.4624 -1.8689  0.9167
  550MOL0     H75847   4.088   6.696   4.382 -0.5856 -1.3584  0.4674
  550MOL0     H75848   4.055   6.819   4.505  2.9418  2.6595  2.2919
  550MOL0     H75849   3.987   6.822   4.201 -2.0540  1.7499  3.2113
  550MOL0     H75850   3.988   6.964   3.962  2.0457 -0.2188 -1.2471
  550MOL0     H75851   4.136   7.058   3.957  0.2845  3.7292  2.2966
  550MOL0     H75852   3.879   7.156   4.066 -1.1542 -0.9550 -1.3218
  550MOL0     H75853   4.035   7.248   4.071 -0.1011  0.8301 -1.5894
  550MOL0     H75854   3.880   7.153   3.821 -2.3850  1.7275 -0.7721
  550MOL0     H75855   3.871   7.314   3.893  0.5511  1.0970 -4.5276
  550MOL0     H75856   4.118   7.349   3.880  0.2106  2.6143 -1.6714
  550MOL0     H75857   4.123   7.211   3.761 -1.3294 -0.2109 -1.7940
  550MOL0     H75858   4.294   7.356   3.680  0.5992  1.7526  1.0598
  550MOL0     H75859   4.507   7.593   3.514 -1.5173  1.0170 -2.3240
  550MOL0     H75860   4.507   7.420   3.452 -1.4918 -1.3713  1.1236
  550MOL0     H75861   4.508   7.464   3.625  0.4079  0.4687  0.3800
  550MOL0     H75862   4.396   7.957   3.304 -0.6731  0.2854 -1.0311
  550MOL0     H75863   4.470   8.130   3.120  1.4918 -1.4875  1.6842
  550MOL0     H75864   4.614   8.034   2.901 -0.1944 -3.5682 -2.2510
  550MOL0     H75865   4.581   8.048   2.743 -0.0002 -1.9527  1.3458
  550MOL0     H75866   4.712   8.240   2.820  0.4989  3.7064  1.3765
  550MOL0     H75867   4.552   8.298   2.750  1.4111 -0.3056 -1.4492
  550MOL0     H75868   4.481   8.288   2.996 -0.6988  0.2727 -1.0093
  550MOL0     H75869   4.551   8.432   2.921 -1.5124  0.4566 -0.2137
  550MOL0     H75870   4.773   8.361   2.993 -0.0677 -0.2157 -0.6765
  550MOL0     H75871   4.711   8.226   3.081  1.8029  1.0900  1.9466
  550MOL0     H75872   4.628   8.516   3.153  1.2754 -0.1119 -1.3504
  550MOL0     H75873   4.542   8.373   3.193 -1.2599  0.0350 -3.5569
  550MOL0     H75874   4.846   8.419   3.233 -1.2187 -1.7666 -6.3193
  550MOL0     H75875   4.736   8.315   3.331  0.9498  0.6550 -0.2129
  550MOL0     H75876   4.698   8.624   3.335  0.2450 -0.7824 -1.7152
  550MOL0     H75877   4.805   8.541   3.448 -1.0101  0.0164  0.8766
  550MOL0     H75878   4.514   8.472   3.416  0.6673  0.5395  0.0250
  550MOL0     H75879   4.588   8.604   3.523 -1.4584  1.6234 -1.3864
  550MOL0     H75880   4.267   7.890   2.829  0.4111  1.3822 -1.0221
  550MOL0     H75881   4.212   7.717   3.014  0.0122 -0.6888  3.8929
  550MOL0     H75882   4.061   7.637   3.352 -2.5822  1.5452  2.5175
  550MOL0     H75883   3.932   7.530   3.509 -0.0661  3.5694  2.8306
  550MOL0     H75884   4.284   6.860   5.378  0.2121 -1.7195  0.7564
  550MOL0     H75885   4.337   7.051   5.532 -1.7746  0.6525 -3.1722
  550MOL0     H75886   4.779   7.299   5.623 -0.8911  0.8569 -1.3748
  550MOL0     H75887   4.910   7.456   5.725  0.4560  1.4757  1.8116
  550MOL0     H75888   4.940   7.660   5.729  1.0307  0.6727  0.5878
  550MOL0     H75889   4.847   7.785   5.815 -0.7245 -0.6487  1.1766
  550MOL0     H75890   5.017   7.772   6.000 -0.7865  0.0052  0.4446
  550MOL0     H75891   5.065   7.838   5.839  0.1554 -0.8389  1.2972
  550MOL0     H75892   5.102   7.572   5.962 -2.7059  1.6433  0.8846
  550MOL0     H75893   5.171   7.613   5.803 -1.7506 -1.1586  0.5756
  550MOL0     H75894   5.242   7.719   6.083 -2.8171 -3.4713 -0.0453
  550MOL0     H75895   5.290   7.814   5.940 -0.4128 -0.4872 -0.5094
  550MOL0     H75896   5.572   7.496   5.895 -0.3744  0.2492 -2.4322
  550MOL0     H75897   4.598   7.605   5.952  2.9001 -1.9094  2.3163
  550MOL0     H75898   4.308   7.492   5.748 -1.8188  1.4955 -0.2628
  550MOL0     H75899   4.358   7.359   5.849  0.1585 -0.5868 -0.0878
  550MOL0     H75900   4.366   7.528   5.910  1.4498 -1.5666  0.1086
  551MOL0     O75901   3.317   3.917   5.258 -0.1479  0.3790 -0.2855
  551MOL0     C75902   3.396   3.947   5.168  0.0755  0.1088  0.2878
  551MOL0     O75903   3.434   3.860   5.073  0.1455  0.1713  0.2719
  551MOL0     C75904   3.369   3.745   5.041 -0.1723 -0.3620 -0.3418
  551MOL0     C75905   3.440   3.645   4.977  0.5689 -0.6753 -0.0777
  551MOL0     C75906   3.378   3.537   4.921  0.2851  0.3415  0.5749
  551MOL0     C75907   3.247   3.506   4.940  0.7592  0.4735  0.7395
  551MOL0     O75908   3.204   3.379   4.892 -0.7854  0.6635  0.2197
  551MOL0     C75909   3.065   3.362   4.878  0.2603  0.0700 -0.0711
  551MOL0     C75910   3.045   3.260   4.767 -0.2384  0.7882  0.0686
  551MOL0     C75911   3.089   3.123   4.824 -0.4214 -0.4515 -0.2688
  551MOL0     C75912   3.050   3.003   4.734  0.8408  0.0810 -0.7848
  551MOL0     C75913   2.904   2.956   4.746  0.3876 -0.5012  1.1950
  551MOL0     C75914   2.830   2.896   4.618 -0.3976 -0.4799  0.8792
  551MOL0     C75915   2.900   2.814   4.515 -0.7957  0.2095 -0.5316
  551MOL0     C75916   2.802   2.720   4.450  0.2931 -0.3889  0.3968
  551MOL0     N75917   2.869   2.596   4.412  0.0487 -0.4476 -0.0927
  551MOL0     C75918   2.896   2.558   4.285 -0.3051 -0.8262  0.5896
  551MOL0     C75919   2.928   2.417   4.298  0.4140  0.2543  0.1569
  551MOL0     C75920   2.951   2.315   4.187 -0.9314  0.8046  0.0240
  551MOL0     C75921   2.835   2.276   4.097 -0.7706  0.1109  0.1122
  551MOL0     C75922   2.752   2.178   4.173  1.3669  0.3874 -0.4830
  551MOL0     C75923   2.608   2.162   4.132  0.1610 -0.3313  0.4668
  551MOL0     O75924   2.601   2.161   3.994  0.1806 -0.1474  0.3636
  551MOL0     C75925   2.487   2.123   3.934  0.6796 -0.3203  0.7201
  551MOL0     C75926   2.370   2.080   4.001 -0.9237  0.6555  0.1413
  551MOL0     C75927   2.258   2.054   3.928 -0.2695 -0.9680  0.2829
  551MOL0     C75928   2.134   2.035   4.019  0.1093 -0.1188 -1.0436
  551MOL0     C75929   2.255   2.070   3.782  0.3523 -0.0794  0.0550
  551MOL0     C75930   2.143   2.052   3.698  0.5568  0.0383  0.7997
  551MOL0     O75931   2.175   2.044   3.564  0.0984  0.3435 -0.1573
  551MOL0     C75932   2.089   2.070   3.470  0.7380  0.8038  1.0953
  551MOL0     C75933   2.146   2.052   3.344  0.4952  0.5388  1.0333
  551MOL0     C75934   2.073   2.055   3.225  0.3503  0.2085  1.1648
  551MOL0     C75935   1.934   2.084   3.228 -0.0150 -0.2525 -0.0383
  551MOL0     O75936   1.854   2.093   3.117 -0.7138 -0.4984 -0.1989
  551MOL0     C75937   1.924   2.101   2.992 -0.2773  0.2896  0.2833
  551MOL0     C75938   1.838   2.161   2.879 -0.7888 -0.3702 -0.9244
  551MOL0     C75939   1.701   2.110   2.841  0.3139 -0.8162  0.8748
  551MOL0     C75940   1.623   2.203   2.760 -0.6501  0.3425  0.2650
  551MOL0     C75941   1.498   2.137   2.702 -0.7471  0.7745  0.4462
  551MOL0     C75942   1.540   2.042   2.595 -0.3102  0.1289  0.9740
  551MOL0     C75943   1.430   1.981   2.499 -0.0778 -0.7960  0.0520
  551MOL0     C75944   1.363   1.861   2.564 -1.4382  0.6906 -0.1217
  551MOL0    Cl75945   1.253   1.880   2.706 -0.7130 -0.2759 -0.3269
  551MOL0     C75946   1.881   2.115   3.352  0.1605  0.0391 -0.3901
  551MOL0     C75947   1.953   2.113   3.472 -1.1151 -0.8053 -0.1725
  551MOL0     O75948   2.031   2.043   3.747  0.3294 -0.2136  0.5371
  551MOL0     C75949   2.374   2.101   3.727 -0.2713 -0.1259 -0.6276
  551MOL0     C75950   2.480   2.137   3.796  0.3299 -0.0980  0.0272
  551MOL0     N75951   2.915   2.393   4.431  0.1368 -0.1833  0.7508
  551MOL0     N75952   2.897   2.498   4.503  0.0427  0.7096  0.3267
  551MOL0     C75953   3.168   3.603   4.998 -0.4103 -0.1974  0.3135
  551MOL0     C75954   3.232   3.722   5.049  0.6059 -0.5947  0.3543
  551MOL0     C75955   3.440   4.085   5.150 -0.0732 -0.3131  0.2500
  551MOL0     C75956   3.513   4.117   5.029  0.0644  0.0017  0.3754
  551MOL0     C75957   3.557   4.251   4.998  0.1076  0.1805  0.3490
  551MOL0     C75958   3.503   4.362   5.064  0.0736  0.3634  0.1802
  551MOL0     O75959   3.518   4.495   5.027 -0.8704  1.1002  0.7723
  551MOL0     C75960   3.621   4.529   4.925 -0.2460 -0.6434  0.0287
  551MOL0     C75961   3.770   4.515   4.975 -0.3133 -0.0624  0.3819
  551MOL0     C75962   3.788   4.604   5.103 -0.0016  0.1059 -0.2301
  551MOL0     C75963   3.840   4.744   5.051 -0.4665 -0.4293  0.7902
  551MOL0     C75964   3.738   4.836   5.004 -0.3101  0.0331  0.2017
  551MOL0     C75965   3.646   4.906   4.963  0.6187  0.2827  0.6539
  551MOL0     C75966   3.425   4.335   5.186  0.3970 -0.0538  0.0754
  551MOL0     C75967   3.393   4.200   5.226 -0.2014 -0.6693  0.2557
  551MOL0     C75968   3.293   4.205   5.341 -0.1949  0.9619  0.1625
  551MOL0     H75969   3.543   3.660   4.948  1.1953 -2.1416  1.2354
  551MOL0     H75970   3.442   3.478   4.855 -1.8805 -1.2556 -0.2511
  551MOL0     H75971   3.013   3.450   4.840  1.1058  0.5959 -0.0346
  551MOL0     H75972   3.014   3.330   4.969  0.6195  2.6544  1.1275
  551MOL0     H75973   2.940   3.274   4.739  0.1565 -0.4157 -2.2389
  551MOL0     H75974   3.111   3.295   4.688  0.3981  1.6892  0.9813
  551MOL0     H75975   3.199   3.120   4.821 -0.1254  1.0797  3.7744
  551MOL0     H75976   3.057   3.120   4.928 -0.9846  0.6790 -0.4002
  551MOL0     H75977   3.081   3.024   4.632 -1.5550  2.8404 -1.0946
  551MOL0     H75978   3.112   2.917   4.760  2.8227  1.2563 -1.4239
  551MOL0     H75979   2.834   3.031   4.784  2.3746  1.4772  1.1764
  551MOL0     H75980   2.898   2.875   4.819  2.5628 -2.1883 -0.3725
  551MOL0     H75981   2.751   2.829   4.655 -2.3024  0.6119 -1.0128
  551MOL0     H75982   2.788   2.990   4.581  1.0695  1.6928  4.2090
  551MOL0     H75983   2.960   2.745   4.576 -1.2755  0.1256 -0.1385
  551MOL0     H75984   2.953   2.877   4.444  0.4998  1.9760  1.8449
  551MOL0     H75985   2.726   2.687   4.522 -1.7785 -0.3298 -1.6645
  551MOL0     H75986   2.761   2.776   4.366 -2.5737 -0.6273  1.5217
  551MOL0     H75987   2.885   2.610   4.191  1.3150 -3.5425 -1.2532
  551MOL0     H75988   2.999   2.227   4.231  0.8433  1.7195 -0.0119
  551MOL0     H75989   3.018   2.365   4.117  1.1155 -1.4579  0.2450
  551MOL0     H75990   2.776   2.368   4.092 -1.0435  0.1622  2.6188
  551MOL0     H75991   2.861   2.242   3.996 -0.9157  2.4243 -0.7618
  551MOL0     H75992   2.799   2.081   4.157 -1.1232 -0.7662 -1.3139
  551MOL0     H75993   2.752   2.215   4.276  0.1835  1.0353 -0.6941
  551MOL0     H75994   2.574   2.063   4.164  3.1763 -1.6245 -0.0454
  551MOL0     H75995   2.539   2.239   4.168  1.8252  1.2421  0.4113
  551MOL0     H75996   2.374   2.079   4.110 -2.9026 -0.5044  0.2601
  551MOL0     H75997   2.170   2.010   4.119 -1.6410  0.1924 -0.3123
  551MOL0     H75998   2.074   1.947   3.995  1.2486 -1.5874  1.1723
  551MOL0     H75999   2.074   2.126   4.024 -1.4882 -1.2025  2.4136
  551MOL0     H76000   2.251   2.025   3.344  0.3142 -0.1776  0.7562
  551MOL0     H76001   2.106   2.020   3.128 -2.1771  2.7127 -0.7600
  551MOL0     H76002   2.013   2.163   3.011  1.0497 -2.3384  3.6975
  551MOL0     H76003   1.943   1.997   2.964 -0.1690  0.1201  0.9796
  551MOL0     H76004   1.842   2.269   2.897 -0.1660 -0.6226  0.6115
  551MOL0     H76005   1.908   2.152   2.795  1.1225 -1.0156  0.6623
  551MOL0     H76006   1.647   2.059   2.921 -0.9273 -0.7624  0.0960
  551MOL0     H76007   1.729   2.025   2.780 -0.7494 -1.6286  1.4853
  551MOL0     H76008   1.697   2.235   2.686  0.6781 -0.2473  1.2864
  551MOL0     H76009   1.591   2.287   2.822 -1.4741 -0.5296  1.0571
  551MOL0     H76010   1.436   2.082   2.773 -1.2933  1.0412  0.1736
  551MOL0     H76011   1.443   2.217   2.652  1.0778  1.3299 -0.7779
  551MOL0     H76012   1.590   1.955   2.639 -2.9884 -1.4503  1.1797
  551MOL0     H76013   1.602   2.094   2.522 -1.1435  2.1554  1.6495
  551MOL0     H76014   1.484   1.963   2.406 -1.3652  0.0968 -0.9128
  551MOL0     H76015   1.357   2.058   2.472 -2.4427 -3.1416 -0.6670
  551MOL0     H76016   1.442   1.791   2.592 -1.8376 -0.3356 -1.4864
  551MOL0     H76017   1.308   1.811   2.484 -0.2250 -0.2101 -0.4242
  551MOL0     H76018   1.778   2.150   3.356  0.5001  1.0968 -0.4177
  551MOL0     H76019   1.911   2.151   3.564  0.2006 -0.9527  0.5133
  551MOL0     H76020   2.385   2.125   3.621  1.7614  0.8042 -0.2544
  551MOL0     H76021   2.568   2.181   3.751 -0.1522  0.4540 -0.3879
  551MOL0     H76022   3.061   3.598   5.017 -0.6252  3.1538  0.6029
  551MOL0     H76023   3.175   3.801   5.096  0.3313 -1.3914  1.4222
  551MOL0     H76024   3.547   4.045   4.955 -0.7999 -0.1206  0.0956
  551MOL0     H76025   3.606   4.262   4.902 -0.6107 -1.2796 -0.2153
  551MOL0     H76026   3.599   4.472   4.835 -0.6217 -2.3950  1.1700
  551MOL0     H76027   3.605   4.635   4.904 -2.5859 -0.9800 -0.1560
  551MOL0     H76028   3.832   4.529   4.886 -3.9511 -1.7047 -2.7318
  551MOL0     H76029   3.795   4.414   5.008  2.0240 -0.3123 -1.8102
  551MOL0     H76030   3.696   4.602   5.162  0.3166 -2.3536  0.3019
  551MOL0     H76031   3.873   4.572   5.165 -0.8569  0.0447  0.9376
  551MOL0     H76032   3.904   4.731   4.964 -0.4973  0.5733  0.6097
  551MOL0     H76033   3.889   4.788   5.138 -0.8000  0.4667  0.5324
  551MOL0     H76034   3.575   4.978   4.928 -0.2577 -0.2565  1.2794
  551MOL0     H76035   3.385   4.429   5.222 -0.9080 -0.5094 -0.1326
  551MOL0     H76036   3.260   4.296   5.391  0.7094 -0.1794  3.0624
  551MOL0     H76037   3.202   4.153   5.310  0.2058  1.2918 -1.6510
  551MOL0     H76038   3.349   4.156   5.422  2.7797  0.2894 -2.1379
  552MOL0     O76039   4.692   1.924   7.953  0.2220 -0.6769  0.3183
  552MOL0     C76040   4.613   1.906   8.051 -0.4251  0.1054  0.5686
  552MOL0     O76041   4.625   1.809   8.134  0.4810  0.1126  0.2965
  552MOL0     C76042   4.697   1.705   8.087  1.1937 -0.5888  0.2786
  552MOL0     C76043   4.639   1.618   8.001  0.1008  0.8489  0.2091
  552MOL0     C76044   4.708   1.505   7.959 -1.3185  0.5239  0.2812
  552MOL0     C76045   4.837   1.472   8.007  0.2316  0.4702 -0.2103
  552MOL0     O76046   4.906   1.360   7.972  0.3412  0.3200 -0.3873
  552MOL0     C76047   4.871   1.284   7.860 -0.6704  0.7164  0.2075
  552MOL0     C76048   4.994   1.187   7.846  0.3784 -0.2916  0.3343
  552MOL0     C76049   4.984   1.100   7.721  0.6811  0.5980  0.1364
  552MOL0     C76050   5.089   0.984   7.731 -0.2574 -0.7319 -0.0058
  552MOL0     C76051   5.041   0.852   7.661  0.2380  0.0212  0.4344
  552MOL0     C76052   5.046   0.855   7.507  0.3137  0.5101 -0.2828
  552MOL0     C76053   5.189   0.892   7.453 -1.0183  0.2534  0.2867
  552MOL0     C76054   5.182   0.873   7.303 -0.8000 -0.1770  0.1699
  552MOL0     N76055   5.297   0.949   7.241  0.5154  0.4456 -1.0253
  552MOL0     C76056   5.315   1.085   7.248  0.4664 -0.5395  0.2391
  552MOL0     C76057   5.418   1.103   7.162 -0.0176 -0.1317 -0.3932
  552MOL0     C76058   5.464   1.243   7.110 -0.1167 -0.9037  0.3640
  552MOL0     C76059   5.497   1.331   7.225 -0.9058  0.4562 -0.5325
  552MOL0     C76060   5.547   1.464   7.171 -0.3798 -0.1373 -0.3588
  552MOL0     C76061   5.430   1.544   7.099 -0.4146 -0.2028  0.1698
  552MOL0     O76062   5.458   1.686   7.086 -0.6554  0.0695 -0.1423
  552MOL0     C76063   5.460   1.766   7.201 -0.7995 -0.2507 -0.2738
  552MOL0     C76064   5.421   1.735   7.332 -0.0939  0.7570  0.2744
  552MOL0     C76065   5.409   1.834   7.433 -0.3589  0.4668  0.9670
  552MOL0     C76066   5.364   1.809   7.564 -0.0857  0.1478 -0.6231
  552MOL0     C76067   5.452   1.967   7.411 -0.1507  0.3480 -0.5814
  552MOL0     C76068   5.447   2.087   7.504  0.0172  0.3578  0.2080
  552MOL0     O76069   5.365   2.189   7.458  0.2515  0.1393  0.3224
  552MOL0     C76070   5.325   2.294   7.537 -0.1380  1.0113 -0.7405
  552MOL0     C76071   5.343   2.418   7.494 -0.3107 -0.0999  0.2413
  552MOL0     C76072   5.315   2.527   7.574 -0.1299 -0.7414 -0.1440
  552MOL0     C76073   5.243   2.507   7.700 -0.0260 -0.1945  0.2751
  552MOL0     O76074   5.239   2.609   7.796  0.3954 -0.5791  0.0402
  552MOL0     C76075   5.154   2.605   7.914 -0.6782 -0.3144  0.6191
  552MOL0     C76076   5.108   2.752   7.950  0.3405  0.7373 -0.6026
  552MOL0     C76077   5.018   2.747   8.074 -0.3006 -0.4287  0.0097
  552MOL0     C76078   5.105   2.735   8.201 -0.0551 -0.2541  0.3916
  552MOL0     C76079   5.037   2.764   8.327  0.7564 -0.0203 -0.5562
  552MOL0     C76080   5.142   2.783   8.445 -0.8999  0.5013 -0.4891
  552MOL0     C76081   5.083   2.773   8.594 -0.0663  0.0867  0.2259
  552MOL0     C76082   4.982   2.666   8.616  1.1486 -0.6710 -0.4374
  552MOL0    Cl76083   4.969   2.649   8.808  0.3621 -0.4900  0.2679
  552MOL0     C76084   5.220   2.371   7.737  0.3215 -1.0249 -0.3095
  552MOL0     C76085   5.260   2.269   7.659 -0.5113  0.0275 -0.2267
  552MOL0     O76086   5.499   2.076   7.613 -0.1567  0.4959 -0.0039
  552MOL0     C76087   5.501   1.988   7.280  0.3906  0.2241  1.3991
  552MOL0     C76088   5.501   1.892   7.180 -0.4460 -0.5969 -0.2787
  552MOL0     N76089   5.467   0.990   7.112 -0.6475  0.6815 -0.3004
  552MOL0     N76090   5.399   0.890   7.168 -0.2101 -0.3529 -0.6343
  552MOL0     C76091   4.900   1.565   8.091  0.8265 -0.6004  0.5365
  552MOL0     C76092   4.832   1.683   8.129 -0.5186 -0.5958  0.5680
  552MOL0     C76093   4.505   2.009   8.065  0.6405 -0.0004 -0.3873
  552MOL0     C76094   4.481   2.099   7.959  0.3765 -0.4074  0.7749
  552MOL0     C76095   4.382   2.207   7.973 -0.5014  0.8217 -0.7935
  552MOL0     C76096   4.307   2.208   8.089  1.0832  0.5408  0.4498
  552MOL0     O76097   4.205   2.302   8.093 -0.2586 -0.0016  0.6484
  552MOL0     C76098   4.104   2.276   8.191  0.1432  0.3845 -0.6103
  552MOL0     C76099   4.149   2.337   8.327  0.0446  0.0042  0.1279
  552MOL0     C76100   4.109   2.483   8.335 -0.1375 -0.0457 -0.4286
  552MOL0     C76101   4.184   2.548   8.455  0.2481 -0.5131 -0.6250
  552MOL0     C76102   4.101   2.534   8.578 -0.7137  0.9272  0.8962
  552MOL0     C76103   4.029   2.526   8.669  0.4141  0.3518  0.8117
  552MOL0     C76104   4.332   2.117   8.195 -0.3003  0.2837 -0.2335
  552MOL0     C76105   4.428   2.023   8.192 -0.1242 -0.3002 -0.4303
  552MOL0     C76106   4.457   1.934   8.309  0.0326  0.4898 -0.8432
  552MOL0     H76107   4.535   1.616   7.968 -0.1122  2.8931  0.5962
  552MOL0     H76108   4.664   1.439   7.885 -4.2064  3.0322 -0.4657
  552MOL0     H76109   4.866   1.345   7.770 -0.4029 -0.3010 -0.5064
  552MOL0     H76110   4.776   1.233   7.879 -0.4725  0.7744  1.4999
  552MOL0     H76111   5.086   1.245   7.839 -1.4653  2.9679  1.2581
  552MOL0     H76112   5.012   1.120   7.931  0.6371 -0.5498  0.0790
  552MOL0     H76113   4.885   1.053   7.716  0.0737  1.8900 -4.5192
  552MOL0     H76114   5.000   1.154   7.627 -0.9649  0.9904  0.0425
  552MOL0     H76115   5.187   1.019   7.697 -0.0810 -1.3175 -0.1170
  552MOL0     H76116   5.107   0.960   7.836  0.8286 -2.4029 -0.5398
  552MOL0     H76117   4.942   0.822   7.697  0.3992 -3.2702 -1.4391
  552MOL0     H76118   5.104   0.769   7.695 -1.1192 -0.5766  1.6057
  552MOL0     H76119   5.000   0.761   7.474  1.4147 -1.1041  2.4210
  552MOL0     H76120   4.968   0.926   7.480 -2.0064 -1.6487  0.3236
  552MOL0     H76121   5.263   0.825   7.498  0.8517 -0.5511 -3.5869
  552MOL0     H76122   5.227   0.993   7.471  1.6651 -0.5644 -0.3590
  552MOL0     H76123   5.197   0.766   7.287 -0.3426  0.2602 -2.9900
  552MOL0     H76124   5.086   0.906   7.261  0.2822  0.1875 -2.2133
  552MOL0     H76125   5.251   1.163   7.287 -2.3381 -2.9257  0.7565
  552MOL0     H76126   5.397   1.288   7.036 -0.2632 -0.7475  0.5903
  552MOL0     H76127   5.563   1.221   7.068  1.5905  0.2965  3.4449
  552MOL0     H76128   5.418   1.342   7.299 -0.2126  4.2385 -0.1574
  552MOL0     H76129   5.567   1.278   7.290 -1.4392 -0.9298 -1.0570
  552MOL0     H76130   5.603   1.516   7.249  2.3980 -3.0851 -0.1929
  552MOL0     H76131   5.613   1.442   7.087  1.7319  0.2404  1.1316
  552MOL0     H76132   5.413   1.516   6.994 -0.4287 -0.0812  0.1391
  552MOL0     H76133   5.336   1.530   7.154  1.0314  1.5222  3.3239
  552MOL0     H76134   5.377   1.638   7.357  0.8230  0.6293  1.4622
  552MOL0     H76135   5.438   1.838   7.640  0.7745 -0.6973 -1.1207
  552MOL0     H76136   5.333   1.705   7.572  0.1836 -0.0264 -1.7410
  552MOL0     H76137   5.273   1.867   7.582 -0.3777 -0.7792  1.1094
  552MOL0     H76138   5.386   2.431   7.395  1.5167 -2.3398  0.6321
  552MOL0     H76139   5.339   2.632   7.558 -1.8391 -0.4805 -1.3723
  552MOL0     H76140   5.074   2.534   7.893  2.3351 -3.5013 -1.0741
  552MOL0     H76141   5.204   2.562   8.002 -0.8820 -0.6617  0.5666
  552MOL0     H76142   5.194   2.816   7.970 -0.4950  1.1191  2.3200
  552MOL0     H76143   5.058   2.794   7.863  1.0825  2.5190 -0.2223
  552MOL0     H76144   4.944   2.667   8.075  0.2902 -1.0017 -0.6952
  552MOL0     H76145   4.964   2.841   8.086 -2.4622 -1.8714  2.9663
  552MOL0     H76146   5.189   2.803   8.185 -0.5223 -0.2739 -2.5612
  552MOL0     H76147   5.155   2.640   8.224  0.2581 -0.0253  0.6871
  552MOL0     H76148   4.973   2.853   8.329 -1.6183 -1.5685  3.0019
  552MOL0     H76149   4.976   2.675   8.345  0.6395  0.2964  0.7258
  552MOL0     H76150   5.206   2.872   8.436 -0.6932  0.2964 -1.0736
  552MOL0     H76151   5.214   2.700   8.438 -1.8797 -0.3363 -0.8015
  552MOL0     H76152   5.037   2.870   8.613  2.2512  1.7908 -2.2021
  552MOL0     H76153   5.168   2.768   8.662  0.6460  4.8149  0.0087
  552MOL0     H76154   5.024   2.568   8.590 -2.2039 -1.6305 -2.9466
  552MOL0     H76155   4.892   2.677   8.556  0.9717  1.9588  0.1948
  552MOL0     H76156   5.186   2.361   7.840  2.0662  1.2482  0.5924
  552MOL0     H76157   5.241   2.162   7.667 -1.2133  0.0401 -1.4624
  552MOL0     H76158   5.532   2.091   7.267 -0.8006  0.5163  0.7123
  552MOL0     H76159   5.538   1.924   7.083 -1.2825 -0.4997 -0.5735
  552MOL0     H76160   4.997   1.536   8.131 -0.3461 -0.0224  4.1535
  552MOL0     H76161   4.880   1.750   8.199  1.8040  1.9118 -3.0753
  552MOL0     H76162   4.530   2.110   7.863  0.6912  0.3980  1.0159
  552MOL0     H76163   4.365   2.278   7.892 -1.3765  1.4885 -0.0461
  552MOL0     H76164   4.004   2.308   8.160 -1.8302 -1.8384  2.7898
  552MOL0     H76165   4.090   2.169   8.205 -1.4625  0.5674 -0.7081
  552MOL0     H76166   4.258   2.331   8.332  0.2926  1.8301 -1.6823
  552MOL0     H76167   4.097   2.299   8.415  2.8797  1.6794  2.7123
  552MOL0     H76168   4.137   2.541   8.247  1.8461 -0.9318 -0.4496
  552MOL0     H76169   4.002   2.502   8.328  0.3022  3.0394 -0.1330
  552MOL0     H76170   4.186   2.656   8.438  1.7657 -0.2135  1.0557
  552MOL0     H76171   4.287   2.515   8.465 -0.1045 -1.1144  1.5009
  552MOL0     H76172   3.973   2.517   8.760  1.6728 -2.2999  1.4352
  552MOL0     H76173   4.278   2.114   8.290  2.2032  2.1925  1.3769
  552MOL0     H76174   4.409   1.966   8.402 -0.1763 -0.1726 -0.7189
  552MOL0     H76175   4.410   1.836   8.302  0.9295  0.0343 -0.6924
  552MOL0     H76176   4.566   1.925   8.322  0.1027 -1.4601 -2.3405
  553MOL0     O76177   6.492   8.057   4.223  0.0375 -0.3949 -0.8935
  553MOL0     C76178   6.609   8.095   4.261  0.3146 -0.5121  0.2663
  553MOL0     O76179   6.654   8.219   4.285 -0.4451  0.0674  0.0161
  553MOL0     C76180   6.587   8.335   4.267  0.2797 -0.4332  0.5429
  553MOL0     C76181   6.657   8.456   4.231 -0.5656  0.5913  0.1927
  553MOL0     C76182   6.589   8.580   4.227  0.8759 -1.6586  0.1896
  553MOL0     C76183   6.451   8.589   4.251 -0.2366  0.0300 -1.0549
  553MOL0     O76184   6.387   8.717   4.236 -0.5431  0.0088 -0.4394
  553MOL0     C76185   6.407   8.768   4.107 -0.3609 -0.8270  0.5436
  553MOL0     C76186   6.491   8.899   4.104 -0.7828  0.5822 -1.0332
  553MOL0     C76187   6.513   8.947   3.959  0.2390 -0.3035 -0.6831
  553MOL0     C76188   6.618   9.060   3.946 -0.0722 -0.1909 -0.1574
  553MOL0     C76189   6.602   9.115   3.800  0.4513  0.7970  0.2561
  553MOL0     C76190   6.728   9.201   3.762  0.3626  0.1765 -0.5814
  553MOL0     C76191   6.724   9.230   3.605 -0.5257 -0.6461 -0.1537
  553MOL0     C76192   6.813   9.142   3.520  0.2638 -0.1345  0.2726
  553MOL0     N76193   6.766   9.000   3.522  0.4517 -0.4625 -0.3242
  553MOL0     C76194   6.818   8.903   3.610 -0.5924 -0.6588  0.1502
  553MOL0     C76195   6.749   8.792   3.591 -0.5995  0.2277  0.0839
  553MOL0     C76196   6.751   8.669   3.675 -0.4004 -0.0934 -0.3726
  553MOL0     C76197   6.816   8.671   3.819 -0.0973 -0.5339 -0.9301
  553MOL0     C76198   6.779   8.559   3.910  0.1913 -0.3461  0.1209
  553MOL0     C76199   6.773   8.423   3.849  0.2822  0.1726  0.4947
  553MOL0     O76200   6.763   8.331   3.956  0.1722  0.2485  0.2231
  553MOL0     C76201   6.753   8.199   3.921  0.4965  0.1461 -0.2593
  553MOL0     C76202   6.866   8.119   3.897  0.5631 -0.9031  0.1988
  553MOL0     C76203   6.858   7.987   3.871  0.4187  0.1301  0.3489
  553MOL0     C76204   6.987   7.928   3.854  0.0200  0.2387  0.6878
  553MOL0     C76205   6.732   7.916   3.867 -0.0547 -1.0339 -1.0061
  553MOL0     C76206   6.718   7.769   3.836 -0.6535  0.3209 -0.3068
  553MOL0     O76207   6.744   7.735   3.712 -0.3903 -1.2899  0.5298
  553MOL0     C76208   6.755   7.609   3.660 -0.2451 -0.8951  0.1640
  553MOL0     C76209   6.819   7.505   3.724 -0.2334  0.3510 -0.3088
  553MOL0     C76210   6.838   7.389   3.653 -1.4709 -0.8483 -0.2082
  553MOL0     C76211   6.803   7.383   3.515 -0.0050  1.2865 -0.1607
  553MOL0     O76212   6.817   7.259   3.459  0.2332  0.2990  0.2784
  553MOL0     C76213   6.716   7.207   3.370  0.8469  0.6767 -0.1117
  553MOL0     C76214   6.736   7.061   3.352 -0.2314 -1.0658 -0.1319
  553MOL0     C76215   6.632   6.987   3.270  0.1264 -0.2672 -0.3639
  553MOL0     C76216   6.636   6.838   3.266 -0.7624  0.0825 -0.4422
  553MOL0     C76217   6.521   6.778   3.186  0.1816  0.1351 -0.0180
  553MOL0     C76218   6.566   6.729   3.051  0.2261 -0.1140 -0.6104
  553MOL0     C76219   6.646   6.603   3.052  0.2038 -0.1567 -0.8382
  553MOL0     C76220   6.725   6.589   2.923  0.8071 -0.9400  0.3833
  553MOL0    Cl76221   6.629   6.572   2.760 -0.0628 -0.1384 -0.0236
  553MOL0     C76222   6.747   7.493   3.444  0.0890  0.8916  0.4160
  553MOL0     C76223   6.735   7.607   3.521 -0.0130 -0.5060  0.4846
  553MOL0     O76224   6.683   7.688   3.928  0.5336  0.0694  0.2229
  553MOL0     C76225   6.618   8.000   3.894 -0.0730 -1.3200 -0.0847
  553MOL0     C76226   6.635   8.139   3.920  0.9424  1.8032  0.7065
  553MOL0     N76227   6.662   8.820   3.484  0.0158  0.7209 -0.2066
  553MOL0     N76228   6.672   8.939   3.444  0.3189  0.2736 -0.4293
  553MOL0     C76229   6.385   8.479   4.293 -0.6386  0.4616 -0.1560
  553MOL0     C76230   6.455   8.358   4.300 -0.2546  0.3556 -0.8233
  553MOL0     C76231   6.699   7.982   4.296 -0.3267  0.0454  0.2725
  553MOL0     C76232   6.652   7.845   4.296  0.4600 -0.5842  0.1159
  553MOL0     C76233   6.724   7.731   4.311  1.1351 -0.0062  0.1566
  553MOL0     C76234   6.863   7.735   4.330  0.4687  0.3518 -0.2988
  553MOL0     O76235   6.937   7.614   4.334  0.0545 -0.1703 -0.1121
  553MOL0     C76236   6.961   7.570   4.197 -0.1110  0.3051  1.2026
  553MOL0     C76237   7.105   7.596   4.174 -0.1644 -0.0017 -0.3237
  553MOL0     C76238   7.146   7.564   4.030 -0.0737 -0.2675  1.4123
  553MOL0     C76239   7.299   7.577   4.006 -0.0372 -0.5776 -0.2404
  553MOL0     C76240   7.370   7.469   4.064 -0.4741  1.1850  0.2007
  553MOL0     C76241   7.441   7.377   4.110  0.3112  0.0109 -0.1864
  553MOL0     C76242   6.916   7.868   4.339  0.3118 -0.5413  0.3067
  553MOL0     C76243   6.840   7.990   4.316 -0.9310  0.2364 -0.2743
  553MOL0     C76244   6.917   8.114   4.311 -0.2984 -0.2922  0.1248
  553MOL0     H76245   6.763   8.440   4.214 -0.5442 -0.2745  1.0352
  553MOL0     H76246   6.634   8.675   4.200 -2.8509  0.7642  1.6606
  553MOL0     H76247   6.306   8.793   4.073 -0.1908  0.0682  0.6569
  553MOL0     H76248   6.443   8.692   4.037  1.8395 -2.0981  2.8868
  553MOL0     H76249   6.436   8.968   4.169  2.5883 -0.4024  3.3712
  553MOL0     H76250   6.590   8.871   4.142 -1.0458  3.7231  2.6209
  553MOL0     H76251   6.544   8.868   3.891 -1.7297 -3.1661  1.4895
  553MOL0     H76252   6.417   8.983   3.920 -1.4511 -2.1634  1.4812
  553MOL0     H76253   6.620   9.140   4.021  2.3015 -0.3285 -0.0005
  553MOL0     H76254   6.711   9.004   3.953 -0.6757 -1.1266  0.5883
  553MOL0     H76255   6.512   9.172   3.774  0.9055  2.0125  1.2437
  553MOL0     H76256   6.601   9.023   3.741  0.5838  0.8636  0.1483
  553MOL0     H76257   6.735   9.298   3.813 -0.8534 -1.9458  4.2732
  553MOL0     H76258   6.817   9.151   3.801 -2.4544 -3.0342  2.4197
  553MOL0     H76259   6.758   9.333   3.592  3.3132 -1.5437  1.3346
  553MOL0     H76260   6.622   9.222   3.567 -0.8250 -3.8510  0.9823
  553MOL0     H76261   6.814   9.170   3.414  1.3088 -1.1653 -0.0070
  553MOL0     H76262   6.914   9.143   3.562 -1.6581 -0.1303  5.6240
  553MOL0     H76263   6.894   8.925   3.684 -1.6242  0.0118  1.0454
  553MOL0     H76264   6.806   8.592   3.620  1.5455  1.8693 -1.3362
  553MOL0     H76265   6.652   8.636   3.706  0.2955 -0.9883  1.0218
  553MOL0     H76266   6.923   8.658   3.799  1.2418 -1.0610  4.9293
  553MOL0     H76267   6.806   8.768   3.867 -0.0678 -1.3656  0.8263
  553MOL0     H76268   6.852   8.567   3.991 -1.9423 -0.6067  2.1849
  553MOL0     H76269   6.683   8.586   3.955 -0.4356  2.5564 -2.6105
  553MOL0     H76270   6.686   8.427   3.783  0.7186  1.7163 -0.0221
  553MOL0     H76271   6.863   8.399   3.791  0.2368 -1.3454  1.0013
  553MOL0     H76272   6.962   8.166   3.876  0.5097 -0.8410  0.0922
  553MOL0     H76273   6.981   7.828   3.810 -0.4627  1.6738 -2.8401
  553MOL0     H76274   7.031   7.918   3.954 -0.9289  0.3959  1.1238
  553MOL0     H76275   7.062   7.982   3.795 -3.5689  1.3781 -3.3019
  553MOL0     H76276   6.836   7.513   3.831 -0.1971  1.2270 -0.3740
  553MOL0     H76277   6.871   7.299   3.704 -0.7756 -1.1488 -1.1505
  553MOL0     H76278   6.619   7.229   3.415  0.3981 -0.5200 -0.4593
  553MOL0     H76279   6.732   7.254   3.272  1.8820  1.9941  0.6497
  553MOL0     H76280   6.834   7.036   3.310  1.1648  1.0044  1.6647
  553MOL0     H76281   6.734   7.024   3.455  3.8202 -1.5139 -0.0174
  553MOL0     H76282   6.630   7.018   3.166 -0.2798 -0.9513 -0.5663
  553MOL0     H76283   6.535   7.019   3.308  0.2141  3.7413 -3.0116
  553MOL0     H76284   6.623   6.798   3.367  0.5673 -5.1831 -2.0600
  553MOL0     H76285   6.732   6.801   3.228 -1.2969 -2.0758  0.1553
  553MOL0     H76286   6.474   6.694   3.239 -1.0159  1.4139  1.0477
  553MOL0     H76287   6.436   6.846   3.177  0.3902  0.4957  0.6368
  553MOL0     H76288   6.624   6.811   3.008 -0.9840  1.6285  0.9058
  553MOL0     H76289   6.476   6.727   2.990  0.8577  3.0126 -1.8614
  553MOL0     H76290   6.580   6.517   3.067 -1.3276  0.4414 -3.5556
  553MOL0     H76291   6.723   6.594   3.130  0.4435 -1.4933 -1.1922
  553MOL0     H76292   6.773   6.492   2.939  0.0814 -1.3388  0.1927
  553MOL0     H76293   6.799   6.669   2.918  0.9667 -0.9468  1.8992
  553MOL0     H76294   6.707   7.497   3.343 -0.2209 -1.6595  0.3783
  553MOL0     H76295   6.686   7.700   3.492  0.4924 -0.6298 -0.8039
  553MOL0     H76296   6.519   7.954   3.892 -1.6146  1.7682 -0.9780
  553MOL0     H76297   6.542   8.190   3.942 -0.2445  0.5986 -1.2314
  553MOL0     H76298   6.286   8.490   4.336  0.0059  2.6102  0.9894
  553MOL0     H76299   6.396   8.277   4.342  1.4204 -0.9422 -0.8411
  553MOL0     H76300   6.543   7.842   4.302  0.4694  1.3011  3.1153
  553MOL0     H76301   6.669   7.638   4.310 -3.3700  2.3757 -1.7914
  553MOL0     H76302   6.940   7.462   4.197 -2.8704  0.7705  2.1393
  553MOL0     H76303   6.910   7.615   4.112  3.2389 -2.9105 -2.9470
  553MOL0     H76304   7.167   7.540   4.246  0.1696  0.3694 -0.3149
  553MOL0     H76305   7.126   7.703   4.181  0.7722 -0.2253  0.7512
  553MOL0     H76306   7.115   7.468   3.988  0.2925  0.5298 -0.8086
  553MOL0     H76307   7.095   7.632   3.962  0.3649 -2.0246 -0.8063
  553MOL0     H76308   7.333   7.674   4.043  0.5886 -1.1983  0.8321
  553MOL0     H76309   7.315   7.576   3.897  1.8687 -1.0464  0.0163
  553MOL0     H76310   7.496   7.287   4.125 -0.1988 -0.2279  0.3061
  553MOL0     H76311   7.023   7.885   4.351  0.6808 -0.3858 -2.5236
  553MOL0     H76312   6.890   8.181   4.393 -4.3290  1.5767 -2.4403
  553MOL0     H76313   7.026   8.105   4.306 -0.5285 -3.7810 -3.6010
  553MOL0     H76314   6.904   8.173   4.220  3.0058  1.5208  0.6792
  554MOL0     O76315   0.257   0.207   4.965 -0.0598  0.3583  0.8374
  554MOL0     C76316   0.290   0.105   5.023 -0.7533 -0.0491 -0.3292
  554MOL0     O76317   0.235   0.059   5.136 -0.3593 -0.2577 -0.3398
  554MOL0     C76318   0.132   0.132   5.188  0.9813  0.4757  0.3576
  554MOL0     C76319  -0.001   0.088   5.168 -0.3054 -0.8997  1.2081
  554MOL0     C76320  -0.105   0.160   5.219  0.9089 -1.0224 -0.1899
  554MOL0     C76321  -0.084   0.279   5.297  0.7517  0.3818  0.8214
  554MOL0     O76322  -0.194   0.338   5.351 -0.3719 -0.1735 -0.3488
  554MOL0     C76323  -0.210   0.479   5.324  0.7426 -0.0901  0.2088
  554MOL0     C76324  -0.327   0.499   5.243  0.9192 -0.2047  0.5127
  554MOL0     C76325  -0.337   0.648   5.207 -0.0873 -0.3671 -0.0053
  554MOL0     C76326  -0.455   0.686   5.115 -0.7457 -0.0890 -0.7445
  554MOL0     C76327  -0.415   0.738   4.980 -0.6070  0.5184 -0.3327
  554MOL0     C76328  -0.519   0.797   4.883  1.0631 -0.3398 -0.0576
  554MOL0     C76329  -0.457   0.844   4.756 -0.2739 -0.3792  0.4208
  554MOL0     C76330  -0.558   0.915   4.647  0.2245  0.0708 -0.9348
  554MOL0     N76331  -0.495   0.999   4.552 -0.0991 -0.2439  1.0469
  554MOL0     C76332  -0.445   0.966   4.426  0.2220  0.1498 -0.3232
  554MOL0     C76333  -0.409   1.072   4.366  0.0903  0.4367  1.0360
  554MOL0     C76334  -0.336   1.078   4.235  0.6983 -0.1160  0.2176
  554MOL0     C76335  -0.421   1.140   4.122 -1.2595 -0.3637  0.6199
  554MOL0     C76336  -0.463   1.288   4.111 -0.1686  0.3918 -0.0312
  554MOL0     C76337  -0.566   1.316   3.996 -0.2259  0.3849 -0.0481
  554MOL0     O76338  -0.668   1.400   4.048 -0.1623  0.2670 -0.2858
  554MOL0     C76339  -0.773   1.352   4.124  0.8581  0.2792 -0.3995
  554MOL0     C76340  -0.786   1.226   4.180 -0.0341 -0.2113 -0.8915
  554MOL0     C76341  -0.900   1.195   4.252  0.0786  0.8863 -0.0660
  554MOL0     C76342  -0.900   1.050   4.295 -0.4145  0.3215  0.3117
  554MOL0     C76343  -1.005   1.287   4.271 -1.2351 -0.7187  0.5138
  554MOL0     C76344  -1.139   1.244   4.330 -0.6722  0.2537  0.0587
  554MOL0     O76345  -1.253   1.309   4.298 -0.3907 -0.2861 -0.1277
  554MOL0     C76346  -1.376   1.270   4.340  0.0999  0.4696  0.1999
  554MOL0     C76347  -1.473   1.357   4.380  0.2484 -0.2779  0.4435
  554MOL0     C76348  -1.597   1.325   4.436  0.1251  0.3809 -0.2168
  554MOL0     C76349  -1.625   1.191   4.456  0.6108  0.3098 -0.5218
  554MOL0     O76350  -1.737   1.157   4.524  0.0951  0.7925  0.0187
  554MOL0     C76351  -1.713   1.166   4.661  0.5932 -0.0381 -0.8512
  554MOL0     C76352  -1.837   1.168   4.753 -0.7128 -0.0652 -0.0670
  554MOL0     C76353  -1.945   1.275   4.702 -0.7141  0.4611 -0.0150
  554MOL0     C76354  -2.086   1.246   4.750 -0.7838 -0.6416  0.0407
  554MOL0     C76355  -2.168   1.370   4.789 -0.0532  0.0748 -0.6789
  554MOL0     C76356  -2.149   1.480   4.667 -0.5869  0.5299  0.9261
  554MOL0     C76357  -2.186   1.436   4.524  1.0921 -0.9735  0.4170
  554MOL0     C76358  -2.171   1.550   4.429  0.4903  0.1757 -0.5008
  554MOL0    Cl76359  -1.996   1.602   4.419  0.3625  0.0351 -0.0786
  554MOL0     C76360  -1.536   1.098   4.397 -0.5316  0.1202  0.5142
  554MOL0     C76361  -1.415   1.136   4.340  0.6697  0.5850 -0.0747
  554MOL0     O76362  -1.138   1.149   4.409  0.3699 -0.3544 -0.0630
  554MOL0     C76363  -0.979   1.419   4.229  0.4883 -0.7139 -0.4488
  554MOL0     C76364  -0.869   1.449   4.154  0.4996  0.0458  0.5474
  554MOL0     N76365  -0.426   1.176   4.443 -0.2604  0.0629 -0.5360
  554MOL0     N76366  -0.482   1.140   4.556 -0.5241  0.8275 -0.3016
  554MOL0     C76367   0.048   0.324   5.311  0.0221 -0.3304 -0.0786
  554MOL0     C76368   0.154   0.246   5.260 -0.7606  0.0198 -0.3190
  554MOL0     C76369   0.401   0.024   4.975  0.5086 -0.3654 -0.1630
  554MOL0     C76370   0.390  -0.115   4.968 -0.4611 -0.1341 -0.1488
  554MOL0     C76371   0.482  -0.193   4.899  0.1068 -1.0509 -0.6928
  554MOL0     C76372   0.583  -0.130   4.829 -0.0991  1.0566 -0.2358
  554MOL0     O76373   0.672  -0.200   4.747 -0.1497  0.1792 -0.4092
  554MOL0     C76374   0.601  -0.220   4.626 -0.5272 -1.2188  0.2690
  554MOL0     C76375   0.701  -0.259   4.515 -0.8978  0.1246  0.3477
  554MOL0     C76376   0.633  -0.288   4.380  0.1321  0.1058 -0.5437
  554MOL0     C76377   0.550  -0.178   4.317 -0.8418 -0.3709 -0.1250
  554MOL0     C76378   0.456  -0.242   4.226 -0.1559  0.6169 -0.6744
  554MOL0     C76379   0.381  -0.301   4.156  1.3033  0.2188 -0.3857
  554MOL0     C76380   0.605   0.003   4.848  0.5733 -0.0421 -0.5296
  554MOL0     C76381   0.516   0.083   4.923 -0.3760 -0.4256 -0.2491
  554MOL0     C76382   0.564   0.228   4.931  0.4179  0.2601 -0.2845
  554MOL0     H76383  -0.022  -0.001   5.111  1.4191 -0.9628  0.6245
  554MOL0     H76384  -0.203   0.112   5.217 -1.2762  3.0286 -1.3039
  554MOL0     H76385  -0.120   0.529   5.287  1.3184 -0.9642  0.3868
  554MOL0     H76386  -0.234   0.522   5.422 -1.2389 -1.0322  0.1752
  554MOL0     H76387  -0.313   0.436   5.155 -0.5091 -0.3831  0.3902
  554MOL0     H76388  -0.421   0.463   5.286 -0.6387  1.3889 -1.3905
  554MOL0     H76389  -0.346   0.701   5.303  2.2537  3.6772 -1.7804
  554MOL0     H76390  -0.246   0.686   5.161  0.9480 -1.2645  1.2028
  554MOL0     H76391  -0.526   0.603   5.103  1.2774 -1.8280 -1.2982
  554MOL0     H76392  -0.506   0.767   5.168  1.0546  0.3133  0.4475
  554MOL0     H76393  -0.371   0.662   4.916 -0.8371  2.4121 -2.8741
  554MOL0     H76394  -0.338   0.814   4.993 -1.0089  0.9304 -0.3125
  554MOL0     H76395  -0.599   0.726   4.859  0.1627  0.0994  1.4927
  554MOL0     H76396  -0.574   0.878   4.932 -1.4081  0.1348 -3.2373
  554MOL0     H76397  -0.413   0.758   4.704  0.2310 -2.6931  4.2499
  554MOL0     H76398  -0.378   0.916   4.780  0.4316 -1.2039  0.6417
  554MOL0     H76399  -0.624   0.842   4.599  0.7838 -1.2783  0.2800
  554MOL0     H76400  -0.626   0.984   4.698  2.1207  0.9086  0.6119
  554MOL0     H76401  -0.429   0.865   4.389 -2.5213 -0.4289 -0.1621
  554MOL0     H76402  -0.309   0.982   4.189 -0.7868 -0.3508 -0.2049
  554MOL0     H76403  -0.246   1.136   4.258  0.1617  1.4624 -1.5181
  554MOL0     H76404  -0.360   1.112   4.036 -0.5499 -0.9053  1.2794
  554MOL0     H76405  -0.509   1.076   4.116 -2.3917  1.2563 -0.9459
  554MOL0     H76406  -0.501   1.330   4.204  2.3998 -0.6350  1.6015
  554MOL0     H76407  -0.380   1.354   4.087  0.4036  0.4686  1.9769
  554MOL0     H76408  -0.520   1.365   3.910 -1.8800  2.3139  0.1021
  554MOL0     H76409  -0.601   1.216   3.969  0.4411 -0.4673  2.0552
  554MOL0     H76410  -0.703   1.159   4.161 -0.9883 -1.1683 -1.8030
  554MOL0     H76411  -0.804   1.000   4.283 -0.1715  1.2542 -2.3566
  554MOL0     H76412  -0.977   0.998   4.236 -1.0667  2.6698 -1.0680
  554MOL0     H76413  -0.925   1.033   4.400 -1.0348 -0.1437  0.0971
  554MOL0     H76414  -1.452   1.463   4.366 -2.3183  0.1988 -0.3626
  554MOL0     H76415  -1.674   1.397   4.463  0.2532  1.1613 -1.8295
  554MOL0     H76416  -1.637   1.096   4.697  2.1057  1.3415 -1.2801
  554MOL0     H76417  -1.660   1.259   4.681  1.3434 -0.3278 -1.4623
  554MOL0     H76418  -1.884   1.069   4.753 -0.9661 -0.0247 -2.5112
  554MOL0     H76419  -1.822   1.195   4.858  0.1380  4.0630 -1.0666
  554MOL0     H76420  -1.945   1.278   4.592 -4.5180 -1.8579 -0.2561
  554MOL0     H76421  -1.906   1.366   4.749  0.7017 -1.0787  1.9133
  554MOL0     H76422  -2.078   1.175   4.833 -1.8143 -0.2727  0.4738
  554MOL0     H76423  -2.141   1.188   4.676  3.3732 -5.4280  0.1337
  554MOL0     H76424  -2.274   1.345   4.799  0.2888 -1.8449 -1.3581
  554MOL0     H76425  -2.129   1.413   4.882 -1.1845  0.1016 -0.2001
  554MOL0     H76426  -2.048   1.522   4.665  0.2132 -0.9335 -4.0610
  554MOL0     H76427  -2.219   1.559   4.696 -0.1104  0.5681  2.0313
  554MOL0     H76428  -2.289   1.400   4.529 -0.0685  1.4529 -2.7152
  554MOL0     H76429  -2.125   1.354   4.485 -2.6071 -3.6078 -0.4550
  554MOL0     H76430  -2.226   1.637   4.464 -0.3796 -0.3374 -0.5653
  554MOL0     H76431  -2.200   1.506   4.333  1.1668 -0.9898 -0.1958
  554MOL0     H76432  -1.559   0.993   4.408 -0.4923  0.0313 -0.1912
  554MOL0     H76433  -1.345   1.061   4.303  1.3165  1.4683 -0.6751
  554MOL0     H76434  -1.063   1.486   4.239  0.0145 -1.2822 -0.5493
  554MOL0     H76435  -0.861   1.551   4.117  5.1176 -0.4955 -0.5512
  554MOL0     H76436   0.063   0.421   5.359 -1.1200 -1.3921  2.6326
  554MOL0     H76437   0.259   0.267   5.279 -0.6186 -1.8268  1.1641
  554MOL0     H76438   0.306  -0.164   5.017  0.1144  2.7489  4.2973
  554MOL0     H76439   0.473  -0.299   4.882 -3.1721 -1.0110  0.2286
  554MOL0     H76440   0.530  -0.301   4.643 -1.8135 -0.4048 -1.0188
  554MOL0     H76441   0.551  -0.131   4.588  1.1130 -1.5938 -3.1021
  554MOL0     H76442   0.767  -0.341   4.544 -1.0964 -1.1311 -2.4788
  554MOL0     H76443   0.756  -0.165   4.511  2.6026 -1.7987 -2.1374
  554MOL0     H76444   0.709  -0.317   4.306 -0.2754  0.0882 -0.9541
  554MOL0     H76445   0.574  -0.377   4.405  0.0118  0.8084  1.9315
  554MOL0     H76446   0.613  -0.099   4.275  0.4741 -2.2167 -1.7858
  554MOL0     H76447   0.483  -0.122   4.382 -0.8043  2.3135 -2.2138
  554MOL0     H76448   0.316  -0.359   4.094 -0.2930  0.5788  0.8690
  554MOL0     H76449   0.694   0.054   4.814  0.8772  0.5301  1.0254
  554MOL0     H76450   0.670   0.236   4.956  0.1942  0.9267  0.4992
  554MOL0     H76451   0.541   0.274   4.835  0.3298 -1.0643 -0.9179
  554MOL0     H76452   0.502   0.278   5.006 -1.6269 -3.5907  0.9151
  555MOL0     O76453   5.570  10.442   2.100 -0.5342  0.3980  0.9271
  555MOL0     C76454   5.519  10.441   1.986 -0.0426 -0.1194 -0.1090
  555MOL0     O76455   5.599  10.449   1.874 -0.2318 -0.1502  0.6136
  555MOL0     C76456   5.740  10.456   1.887  0.4786 -1.3084  1.0421
  555MOL0     C76457   5.813  10.342   1.870  0.9556  0.1208  0.2935
  555MOL0     C76458   5.958  10.349   1.862  0.3702 -0.3663  0.4146
  555MOL0     C76459   6.029  10.471   1.881 -0.0102 -0.3369 -0.4608
  555MOL0     O76460   6.165  10.444   1.891 -0.4849 -0.3346 -0.3972
  555MOL0     C76461   6.239  10.552   1.964  1.1972  0.0727  1.0652
  555MOL0     C76462   6.386  10.512   1.979 -0.6162 -0.7894 -0.5186
  555MOL0     C76463   6.388  10.375   2.041 -1.4500  0.5023 -0.4886
  555MOL0     C76464   6.538  10.333   2.059 -0.0538  0.0058  0.3326
  555MOL0     C76465   6.615  10.294   1.926  0.0729 -0.4501  0.0799
  555MOL0     C76466   6.741  10.209   1.944  0.3211 -0.4383  0.3183
  555MOL0     C76467   6.806  10.180   1.811  0.5058  0.4048  0.0080
  555MOL0     C76468   6.888  10.059   1.825 -0.8510 -0.6987  0.8690
  555MOL0     N76469   6.907   9.988   1.699  0.3959 -0.7325 -0.2542
  555MOL0     C76470   6.962  10.039   1.585 -0.4404 -0.3156 -0.4696
  555MOL0     C76471   6.974   9.938   1.500  0.5353  0.0076  0.1372
  555MOL0     C76472   7.001   9.934   1.357 -0.2401  0.8496  0.4423
  555MOL0     C76473   7.139   9.876   1.326  0.6899 -0.7578 -0.2574
  555MOL0     C76474   7.170   9.819   1.187  0.4048  0.7579 -0.7247
  555MOL0     C76475   7.308   9.855   1.143  0.2601  0.1720 -0.6176
  555MOL0     O76476   7.338   9.835   1.011  0.4440  0.4376  0.4593
  555MOL0     C76477   7.368   9.700   0.974 -0.4361 -0.0297  0.8071
  555MOL0     C76478   7.412   9.687   0.844  0.2413  0.3458 -0.5409
  555MOL0     C76479   7.442   9.563   0.789 -0.4985  0.2501  0.9594
  555MOL0     C76480   7.479   9.573   0.640 -0.3113  0.0852  0.3078
  555MOL0     C76481   7.434   9.443   0.866  0.0445 -0.6579 -0.9720
  555MOL0     C76482   7.465   9.308   0.827  0.0960 -0.3208  0.1926
  555MOL0     O76483   7.486   9.274   0.702  0.5280 -0.2896 -0.3035
  555MOL0     C76484   7.557   9.160   0.677 -0.4760  0.0760 -0.1759
  555MOL0     C76485   7.504   9.035   0.680  0.1863  0.6074 -0.6182
  555MOL0     C76486   7.581   8.929   0.629 -0.1691  0.5781  0.7058
  555MOL0     C76487   7.709   8.952   0.570 -0.2898  0.2071  0.5428
  555MOL0     O76488   7.784   8.844   0.517  0.6269 -0.8295  0.8585
  555MOL0     C76489   7.717   8.732   0.464 -0.6091  0.0405  0.0555
  555MOL0     C76490   7.783   8.655   0.351 -0.0862  0.5145 -0.5477
  555MOL0     C76491   7.943   8.663   0.366 -0.3637 -0.1733  1.2431
  555MOL0     C76492   7.982   8.588   0.240 -0.3104 -0.2238  0.0652
  555MOL0     C76493   8.128   8.547   0.249 -0.4116 -0.4270 -0.8196
  555MOL0     C76494   8.191   8.485   0.117 -0.1951  0.0093  0.0939
  555MOL0     C76495   8.119   8.345   0.090  0.6412 -0.3668  1.3821
  555MOL0     C76496   8.191   8.264  -0.018 -0.3633 -0.4912 -0.2289
  555MOL0    Cl76497   8.366   8.235   0.024 -0.1612  0.2902  0.1125
  555MOL0     C76498   7.759   9.075   0.577  0.2688 -0.0126  0.7175
  555MOL0     C76499   7.679   9.180   0.618 -0.2189  0.6938 -0.1733
  555MOL0     O76500   7.472   9.234   0.920 -0.9689  0.1639 -0.2896
  555MOL0     C76501   7.395   9.463   1.003 -0.2178 -0.1107  0.1485
  555MOL0     C76502   7.364   9.586   1.053  0.8012  0.1606  0.3249
  555MOL0     N76503   6.939   9.825   1.571  0.4559 -1.0430  0.4912
  555MOL0     N76504   6.893   9.853   1.683 -0.2278 -0.0319 -0.8851
  555MOL0     C76505   5.949  10.589   1.892 -0.3271 -0.0405 -0.4236
  555MOL0     C76506   5.811  10.577   1.898 -0.7639 -0.1587  0.1780
  555MOL0     C76507   5.370  10.427   1.966  0.2687  0.6306 -0.1251
  555MOL0     C76508   5.343  10.370   1.836  0.9129  0.0896  0.0589
  555MOL0     C76509   5.200  10.347   1.802 -0.1577 -0.1586  0.2864
  555MOL0     C76510   5.099  10.364   1.901  0.1137 -0.5208  0.1062
  555MOL0     O76511   4.965  10.344   1.878  0.4567  0.7850  0.0680
  555MOL0     C76512   4.928  10.246   1.782  0.4281  1.2715 -0.4635
  555MOL0     C76513   4.775  10.217   1.784 -0.4473  1.0817 -0.0509
  555MOL0     C76514   4.705  10.349   1.756 -0.7300 -0.2059 -0.1557
  555MOL0     C76515   4.571  10.322   1.682  0.1132 -0.1415  0.3446
  555MOL0     C76516   4.603  10.282   1.542 -0.2666  0.3386  0.1045
  555MOL0     C76517   4.625  10.244   1.428  0.9522  0.9765  0.8129
  555MOL0     C76518   5.142  10.413   2.024 -0.1332 -0.2401 -0.0386
  555MOL0     C76519   5.268  10.453   2.058 -0.6157  0.0188 -0.1529
  555MOL0     C76520   5.279  10.507   2.197  0.0550  0.7247 -1.0178
  555MOL0     H76521   5.768  10.246   1.846  2.4010 -0.2873 -0.9470
  555MOL0     H76522   6.018  10.260   1.851 -0.4381 -0.7410 -1.2658
  555MOL0     H76523   6.181  10.564   2.056  1.4423  0.8489  1.1242
  555MOL0     H76524   6.227  10.645   1.907 -0.1435  0.1700  1.4803
  555MOL0     H76525   6.443  10.520   1.886  0.9525  2.0502  0.5405
  555MOL0     H76526   6.433  10.590   2.040  0.9010 -0.7256 -1.7006
  555MOL0     H76527   6.346  10.362   2.141 -0.1788 -2.0424 -0.2206
  555MOL0     H76528   6.342  10.294   1.983  2.0322 -2.2790  0.2864
  555MOL0     H76529   6.602  10.405   2.111  0.4276 -0.9135  1.0475
  555MOL0     H76530   6.537  10.244   2.124  0.9237 -1.3821 -1.4487
  555MOL0     H76531   6.626  10.384   1.865 -0.4375 -1.1114 -1.0177
  555MOL0     H76532   6.542  10.233   1.873  2.3412 -1.8213 -1.6224
  555MOL0     H76533   6.821  10.261   1.996 -0.8216  0.5094  1.1863
  555MOL0     H76534   6.730  10.121   2.009  4.4331 -0.9499  0.5740
  555MOL0     H76535   6.862  10.269   1.782  0.0539  1.1012  1.1766
  555MOL0     H76536   6.726  10.153   1.741  0.2421  0.5725  0.2400
  555MOL0     H76537   6.990  10.087   1.853 -1.1271 -0.9092  2.1886
  555MOL0     H76538   6.855   9.974   1.887 -0.6320 -1.7366 -0.3935
  555MOL0     H76539   6.993  10.142   1.571  0.7170 -0.3692  1.4188
  555MOL0     H76540   6.997  10.031   1.307  5.7454  1.3981  0.3096
  555MOL0     H76541   6.926   9.864   1.319 -0.7767  0.9288  1.3356
  555MOL0     H76542   7.203   9.958   1.361 -1.9586  1.6864 -0.8019
  555MOL0     H76543   7.163   9.796   1.398 -1.2013 -0.4042  0.8217
  555MOL0     H76544   7.142   9.714   1.198 -4.5633  1.7945 -0.9557
  555MOL0     H76545   7.098   9.854   1.113 -0.2604 -0.2570 -0.5802
  555MOL0     H76546   7.315   9.963   1.158  1.3229 -0.0657  0.7362
  555MOL0     H76547   7.380   9.805   1.208 -0.1676 -0.9135 -0.9655
  555MOL0     H76548   7.395   9.773   0.779 -0.9986  0.9361  0.5046
  555MOL0     H76549   7.496   9.477   0.590 -0.6602  0.2867 -0.2055
  555MOL0     H76550   7.574   9.627   0.632  1.2154 -2.7018 -2.9272
  555MOL0     H76551   7.399   9.629   0.590 -0.6149  0.0331  0.7316
  555MOL0     H76552   7.401   9.023   0.710  0.4644  0.5882  0.3593
  555MOL0     H76553   7.536   8.830   0.625  2.0829 -0.6464  3.1454
  555MOL0     H76554   7.725   8.655   0.542 -0.4441 -0.2544 -0.2488
  555MOL0     H76555   7.620   8.762   0.425  0.6189  0.4857 -2.9249
  555MOL0     H76556   7.742   8.554   0.352  3.8289 -1.2694 -0.4078
  555MOL0     H76557   7.763   8.710   0.259  1.3430  2.2417  0.1110
  555MOL0     H76558   7.984   8.595   0.442 -1.1333 -2.9259 -0.6261
  555MOL0     H76559   7.987   8.762   0.372  2.4927 -1.2966  0.3459
  555MOL0     H76560   7.957   8.647   0.151  0.0611  4.8633  2.9576
  555MOL0     H76561   7.938   8.488   0.235  1.7750 -1.1332 -2.3865
  555MOL0     H76562   8.182   8.639   0.273 -0.2775 -0.3324 -1.4820
  555MOL0     H76563   8.127   8.469   0.327 -3.0787 -0.7021 -1.0449
  555MOL0     H76564   8.300   8.478   0.124 -0.0514 -2.6749 -2.6367
  555MOL0     H76565   8.184   8.556   0.034 -0.8201 -1.3903 -1.0928
  555MOL0     H76566   8.015   8.368   0.068  1.1062 -0.9365 -2.0819
  555MOL0     H76567   8.132   8.276   0.174  0.9273 -2.4389 -0.2544
  555MOL0     H76568   8.183   8.320  -0.112 -0.2191  1.9956  1.1360
  555MOL0     H76569   8.147   8.169  -0.050  0.9986 -0.8513 -1.1893
  555MOL0     H76570   7.858   9.091   0.535 -0.3932  0.7068 -0.6193
  555MOL0     H76571   7.721   9.279   0.623 -1.5183  1.2331  0.6541
  555MOL0     H76572   7.388   9.378   1.071  0.2618  0.4192  0.8697
  555MOL0     H76573   7.342   9.597   1.159  2.2377 -0.5191  0.7229
  555MOL0     H76574   5.976  10.694   1.900 -1.9472  0.5350 -1.9224
  555MOL0     H76575   5.762  10.674   1.908 -0.7075 -0.1454  0.3264
  555MOL0     H76576   5.418  10.342   1.763  0.6609 -2.3511  0.6740
  555MOL0     H76577   5.172  10.307   1.705 -0.6237 -1.3514  0.9025
  555MOL0     H76578   4.951  10.293   1.686  1.9390  0.3153 -0.5880
  555MOL0     H76579   4.986  10.157   1.806  0.0024  1.5716  1.9660
  555MOL0     H76580   4.752  10.177   1.883 -0.8438 -2.8537 -1.5543
  555MOL0     H76581   4.755  10.144   1.705  1.0529 -0.9282  1.3200
  555MOL0     H76582   4.685  10.398   1.852  0.0007 -2.3831  1.1882
  555MOL0     H76583   4.765  10.422   1.701 -0.5688  0.7837  1.2678
  555MOL0     H76584   4.505  10.409   1.689  2.3602  1.5904  1.2192
  555MOL0     H76585   4.518  10.240   1.731  0.0558  1.4257  3.1405
  555MOL0     H76586   4.641  10.190   1.337 -0.9202  1.6260  0.0310
  555MOL0     H76587   5.066  10.431   2.099  0.5761 -1.2302  0.9394
  555MOL0     H76588   5.378  10.530   2.236  0.4901  0.6406 -2.0340
  555MOL0     H76589   5.209  10.590   2.207 -1.5404 -0.7971  1.5210
  555MOL0     H76590   5.239  10.441   2.275 -2.2968  2.6291 -0.4899
  556MOL0     O76591   8.142   9.719   9.099  0.6039 -0.2088  0.2945
  556MOL0     C76592   8.054   9.656   9.048  0.3401  0.3372  0.0204
  556MOL0     O76593   8.009   9.666   8.915  0.0592 -0.1824 -0.5605
  556MOL0     C76594   8.074   9.760   8.827  0.2751  0.5798 -0.4419
  556MOL0     C76595   8.030   9.896   8.830 -1.0465  0.0190  0.2716
  556MOL0     C76596   8.100   9.991   8.740  0.1807  1.2663  0.0830
  556MOL0     C76597   8.210   9.944   8.664  0.1796 -0.2625  0.3987
  556MOL0     O76598   8.288  10.014   8.576  0.1179 -0.2899 -0.0368
  556MOL0     C76599   8.304  10.147   8.609 -0.0045 -0.3877  0.3323
  556MOL0     C76600   8.392  10.223   8.497  0.5780 -0.0854 -0.5792
  556MOL0     C76601   8.417  10.370   8.532  0.4106  0.1212  0.8267
  556MOL0     C76602   8.492  10.441   8.425 -0.1893  0.9382 -0.8795
  556MOL0     C76603   8.503  10.588   8.453 -0.5976  0.1744 -0.6236
  556MOL0     C76604   8.539  10.654   8.323 -0.3344  0.0945  0.2026
  556MOL0     C76605   8.525  10.812   8.339 -0.2010 -0.2499  1.2450
  556MOL0     C76606   8.611  10.879   8.240 -0.7377  0.6651 -0.5978
  556MOL0     N76607   8.532  10.887   8.114  0.3136 -0.2820 -0.6597
  556MOL0     C76608   8.463  11.000   8.058 -0.6296  0.5102  0.0010
  556MOL0     C76609   8.393  10.952   7.954 -0.9252 -0.0502 -0.0611
  556MOL0     C76610   8.301  11.033   7.860 -0.1436  0.7488  0.0888
  556MOL0     C76611   8.145  11.023   7.882 -0.1855 -1.4141 -0.5357
  556MOL0     C76612   8.103  11.037   8.032  0.1535  0.6191 -0.3843
  556MOL0     C76613   8.076  11.184   8.078 -0.7005  0.6801 -0.3170
  556MOL0     O76614   8.010  11.259   7.982  0.2274 -0.3278 -0.4868
  556MOL0     C76615   7.871  11.274   7.991 -0.5230 -0.1188 -0.2788
  556MOL0     C76616   7.812  11.371   7.914  0.0580 -0.4759  0.3793
  556MOL0     C76617   7.675  11.386   7.898  1.2469 -0.2218 -0.4670
  556MOL0     C76618   7.620  11.495   7.808  0.5086  0.5598 -0.6570
  556MOL0     C76619   7.594  11.308   7.982  0.3553  0.2656  0.0430
  556MOL0     C76620   7.444  11.309   7.966 -0.9142  0.3739  0.0605
  556MOL0     O76621   7.384  11.251   8.072 -0.1288  0.6485 -0.5720
  556MOL0     C76622   7.246  11.267   8.081  0.0035 -0.9303  0.3119
  556MOL0     C76623   7.184  11.388   8.045 -0.9616 -0.3015  0.0453
  556MOL0     C76624   7.047  11.398   8.055  0.9549  0.6733  0.2630
  556MOL0     C76625   6.965  11.300   8.098  0.4268  0.6889  0.0629
  556MOL0     O76626   6.828  11.314   8.090  0.4795 -0.4446 -0.5918
  556MOL0     C76627   6.741  11.257   8.182  0.1395 -0.0376 -0.5834
  556MOL0     C76628   6.725  11.335   8.309 -1.2331  0.1142 -0.1473
  556MOL0     C76629   6.659  11.252   8.421  0.2709  0.8841 -0.0024
  556MOL0     C76630   6.629  11.331   8.546  0.0921 -0.1225  0.1614
  556MOL0     C76631   6.502  11.421   8.505 -0.5735 -0.1281 -0.6602
  556MOL0     C76632   6.431  11.461   8.634  0.8648  1.1682 -0.7141
  556MOL0     C76633   6.378  11.328   8.698 -0.4264  0.0265 -0.0861
  556MOL0     C76634   6.284  11.353   8.815 -0.5358 -0.4130  0.1644
  556MOL0    Cl76635   6.238  11.199   8.887  0.1678 -0.4355  0.1245
  556MOL0     C76636   7.022  11.174   8.135 -0.1977  0.7979 -0.2661
  556MOL0     C76637   7.167  11.167   8.124  0.2158  1.1784 -0.0863
  556MOL0     O76638   7.390  11.338   7.859 -0.4234 -0.6031 -0.5034
  556MOL0     C76639   7.660  11.215   8.074  0.0560  0.6317 -0.1159
  556MOL0     C76640   7.796  11.194   8.077 -0.5039  0.1774  0.2473
  556MOL0     N76641   8.421  10.816   7.943  0.1536  0.3725 -0.2646
  556MOL0     N76642   8.502  10.778   8.035 -0.5045  0.8325 -0.1359
  556MOL0     C76643   8.244   9.807   8.664  0.2772  0.0334 -0.1994
  556MOL0     C76644   8.182   9.718   8.745  0.5986  0.4813 -0.9132
  556MOL0     C76645   7.993   9.556   9.144 -0.2256  0.1982  1.2058
  556MOL0     C76646   7.986   9.581   9.281  0.3857 -0.0377 -0.0940
  556MOL0     C76647   7.944   9.487   9.368  0.8720  0.5469  0.4251
  556MOL0     C76648   7.892   9.365   9.318  0.5060  0.0916 -0.3245
  556MOL0     O76649   7.828   9.266   9.394 -0.5559 -0.1899 -0.8042
  556MOL0     C76650   7.832   9.268   9.539  0.4769 -0.4569  0.0536
  556MOL0     C76651   7.778   9.135   9.600  0.6527 -0.2948 -0.5228
  556MOL0     C76652   7.648   9.075   9.533  0.3637  0.6568 -0.2252
  556MOL0     C76653   7.635   8.930   9.573  0.0124  1.3502  0.0628
  556MOL0     C76654   7.515   8.869   9.540 -0.0343 -0.0356 -0.3264
  556MOL0     C76655   7.407   8.808   9.517  0.1911 -0.5622  0.6374
  556MOL0     C76656   7.901   9.342   9.180 -0.0046 -0.1037  0.4746
  556MOL0     C76657   7.950   9.431   9.087  0.3421 -0.1108 -0.1857
  556MOL0     C76658   7.957   9.375   8.945  0.3432  1.0541 -0.1092
  556MOL0     H76659   7.940   9.931   8.879 -1.0043  0.2801  0.1624
  556MOL0     H76660   8.055  10.088   8.724  1.6793  2.3599  2.0765
  556MOL0     H76661   8.363  10.159   8.700  1.6298  3.4882 -0.9972
  556MOL0     H76662   8.208  10.199   8.613  0.9272  1.6574 -1.3139
  556MOL0     H76663   8.492  10.178   8.487  0.8104  0.4525 -0.7002
  556MOL0     H76664   8.340  10.220   8.401 -0.4347  0.2499 -0.0516
  556MOL0     H76665   8.319  10.418   8.528  1.3469  2.2360 -4.6505
  556MOL0     H76666   8.461  10.381   8.632 -0.2941 -1.9874  1.4140
  556MOL0     H76667   8.592  10.398   8.417  1.3353  3.9586  0.4455
  556MOL0     H76668   8.433  10.417   8.336 -1.4402 -0.0253  0.1590
  556MOL0     H76669   8.585  10.608   8.523 -0.7536 -1.4427  0.0505
  556MOL0     H76670   8.407  10.615   8.499  1.1649 -0.6406  4.1724
  556MOL0     H76671   8.641  10.629   8.293  0.2351 -0.6838  2.5568
  556MOL0     H76672   8.473  10.628   8.240  0.3996 -2.1244  0.2319
  556MOL0     H76673   8.558  10.858   8.433 -0.2479  2.0733  0.1821
  556MOL0     H76674   8.421  10.842   8.326  1.1802  5.6463  0.9981
  556MOL0     H76675   8.635  10.979   8.279  0.3641 -0.2077  1.1362
  556MOL0     H76676   8.701  10.824   8.211 -0.8286 -0.2540  0.7312
  556MOL0     H76677   8.473  11.102   8.092  1.8303  0.4944 -0.5082
  556MOL0     H76678   8.323  11.003   7.757 -0.0182  1.3304 -0.0545
  556MOL0     H76679   8.327  11.139   7.867  2.1592  0.3774 -1.6223
  556MOL0     H76680   8.103  11.090   7.806  4.0589  0.0121 -1.9618
  556MOL0     H76681   8.117  10.926   7.840  0.4772 -1.5610 -0.6510
  556MOL0     H76682   8.029  10.959   8.052  2.8813 -1.7921  0.9918
  556MOL0     H76683   8.187  11.008   8.095 -0.1924  2.5363  1.0217
  556MOL0     H76684   8.029  11.199   8.175 -1.3595 -0.3837 -0.4554
  556MOL0     H76685   8.172  11.235   8.087  1.1225 -2.4471 -0.4417
  556MOL0     H76686   7.872  11.436   7.853 -2.4402  1.4536 -0.1903
  556MOL0     H76687   7.561  11.558   7.875 -0.7634 -0.6210 -0.6468
  556MOL0     H76688   7.567  11.452   7.723 -2.9193 -1.5898  2.2865
  556MOL0     H76689   7.696  11.568   7.779 -0.2835  1.5163 -0.3905
  556MOL0     H76690   7.232  11.470   7.992 -3.9457  0.9490 -0.9366
  556MOL0     H76691   6.998  11.485   8.012  1.8016  1.0625  0.0561
  556MOL0     H76692   6.641  11.246   8.140 -0.8805 -2.5285  2.1518
  556MOL0     H76693   6.762  11.151   8.201 -0.8719  0.0936  1.6315
  556MOL0     H76694   6.828  11.353   8.339 -0.5943 -3.2136  0.0168
  556MOL0     H76695   6.669  11.428   8.294  1.3183  1.5884 -1.1235
  556MOL0     H76696   6.725  11.170   8.450  1.0924  2.0233  1.4452
  556MOL0     H76697   6.564  11.205   8.392  1.3010 -1.9988  0.9524
  556MOL0     H76698   6.708  11.398   8.580  1.1983 -1.4183  0.2357
  556MOL0     H76699   6.598  11.259   8.622 -1.4318 -0.9681 -1.1716
  556MOL0     H76700   6.536  11.514   8.458 -1.7486  1.9461  2.2121
  556MOL0     H76701   6.432  11.373   8.436 -0.2141  2.0223 -2.6631
  556MOL0     H76702   6.351  11.533   8.614 -2.8196 -2.7728 -1.7441
  556MOL0     H76703   6.506  11.492   8.707 -1.4733  0.0560  2.3681
  556MOL0     H76704   6.451  11.262   8.744 -1.4743 -1.4633 -0.4725
  556MOL0     H76705   6.332  11.268   8.619  1.1349  0.2710 -1.2350
  556MOL0     H76706   6.198  11.414   8.786  2.1208  2.6824 -1.8846
  556MOL0     H76707   6.346  11.409   8.886  0.6965 -1.3810 -0.0991
  556MOL0     H76708   6.962  11.091   8.170  0.9597  0.6981  1.6602
  556MOL0     H76709   7.219  11.071   8.119 -0.6712  0.7388 -1.2016
  556MOL0     H76710   7.593  11.148   8.126  0.8503 -1.1241 -1.2653
  556MOL0     H76711   7.836  11.112   8.135 -2.0298  2.0772  4.3655
  556MOL0     H76712   8.326   9.777   8.599  2.4672 -0.5655  2.6641
  556MOL0     H76713   8.206   9.612   8.745 -0.3521  0.2487 -2.0018
  556MOL0     H76714   8.026   9.678   9.309  2.4494 -0.3109 -1.8196
  556MOL0     H76715   7.954   9.503   9.475  0.7965  3.1817  0.0841
  556MOL0     H76716   7.938   9.276   9.564 -0.1287  1.6668  2.4093
  556MOL0     H76717   7.783   9.356   9.582 -1.8830 -0.9695 -1.4048
  556MOL0     H76718   7.767   9.164   9.705 -0.4777  1.0340 -0.9766
  556MOL0     H76719   7.863   9.068   9.589  0.8790  0.2696 -2.5181
  556MOL0     H76720   7.555   9.127   9.558 -0.1707  0.9707 -2.6414
  556MOL0     H76721   7.663   9.085   9.425  1.1189  1.8172 -0.0278
  556MOL0     H76722   7.644   8.927   9.682 -0.5129  1.0563  0.1008
  556MOL0     H76723   7.713   8.874   9.521  1.4426  2.4321  0.9279
  556MOL0     H76724   7.321   8.747   9.500  0.2608 -0.1531 -1.4019
  556MOL0     H76725   7.875   9.246   9.134  0.3155  0.9795 -2.1777
  556MOL0     H76726   7.915   9.447   8.874 -0.1007  2.0600  1.1347
  556MOL0     H76727   8.061   9.359   8.916  0.4238  2.3014 -0.5872
  556MOL0     H76728   7.903   9.280   8.940  2.2482 -0.0867  0.3737
  557MOL0     O76729   3.480  11.418   0.672  0.5879 -0.9194 -0.1098
  557MOL0     C76730   3.589  11.452   0.625  0.3821 -0.1993  1.2422
  557MOL0     O76731   3.594  11.512   0.507 -0.5443 -0.0497 -0.3544
  557MOL0     C76732   3.569  11.434   0.395 -0.3864  0.4651 -0.1411
  557MOL0     C76733   3.661  11.351   0.333  0.0548  0.1225  0.9603
  557MOL0     C76734   3.620  11.269   0.225 -0.0658 -0.0223 -0.4026
  557MOL0     C76735   3.491  11.271   0.172  0.5221  0.0279  0.1276
  557MOL0     O76736   3.441  11.204   0.064  0.2407  0.7114  0.3830
  557MOL0     C76737   3.529  11.126  -0.019 -0.6608 -0.3553 -0.6859
  557MOL0     C76738   3.605  11.223  -0.117  0.0130  1.1708 -0.3218
  557MOL0     C76739   3.692  11.148  -0.213 -0.2496  0.6018  1.5442
  557MOL0     C76740   3.829  11.098  -0.154 -0.0496 -0.1243  0.1461
  557MOL0     C76741   3.917  11.065  -0.271 -0.4075  0.9978  0.0992
  557MOL0     C76742   4.064  11.041  -0.228 -0.0986 -0.1583  0.8247
  557MOL0     C76743   4.148  11.037  -0.359 -0.8980 -0.3771 -0.4133
  557MOL0     C76744   4.302  11.045  -0.337  1.0895  0.0400  1.0204
  557MOL0     N76745   4.365  10.923  -0.267 -0.0350  0.1184 -0.5075
  557MOL0     C76746   4.497  10.911  -0.234 -0.3155 -0.3052  1.0908
  557MOL0     C76747   4.498  10.791  -0.169  0.9785  0.2305  0.9597
  557MOL0     C76748   4.625  10.746  -0.113  0.5270  0.1129 -1.2925
  557MOL0     C76749   4.619  10.610  -0.039  0.4057  0.3273  0.0645
  557MOL0     C76750   4.587  10.485  -0.123 -0.0078  0.5871 -0.0086
  557MOL0     C76751   4.687  10.479  -0.233  0.1025  0.5418 -0.1261
  557MOL0     O76752   4.659  10.377  -0.327  0.1130  0.2285  0.4266
  557MOL0     C76753   4.556  10.387  -0.416  0.3824 -0.5349  0.7748
  557MOL0     C76754   4.535  10.266  -0.485  0.0089  0.1321  0.4644
  557MOL0     C76755   4.430  10.253  -0.580  0.0320 -0.0600  0.2938
  557MOL0     C76756   4.424  10.116  -0.653  0.2985  0.5973 -0.7152
  557MOL0     C76757   4.334  10.360  -0.596  2.0158  0.7696 -1.1981
  557MOL0     C76758   4.226  10.352  -0.695 -1.3468  0.1353 -0.5398
  557MOL0     O76759   4.167  10.471  -0.736  0.2954  0.3368 -0.6511
  557MOL0     C76760   4.083  10.467  -0.850  0.0815 -0.6032 -0.1287
  557MOL0     C76761   4.118  10.543  -0.960  0.1812  0.2442  0.1426
  557MOL0     C76762   4.023  10.570  -1.061 -0.3277 -0.1781 -0.0311
  557MOL0     C76763   3.895  10.509  -1.047  0.1650  0.1181  0.5431
  557MOL0     O76764   3.806  10.540  -1.152  0.1198 -0.0995 -0.3759
  557MOL0     C76765   3.666  10.496  -1.133 -0.5832  0.7045 -0.2827
  557MOL0     C76766   3.641  10.339  -1.144 -0.4362 -0.2180  0.0749
  557MOL0     C76767   3.691  10.294  -1.279  0.0017  0.5312  0.3220
  557MOL0     C76768   3.664  10.142  -1.285 -0.2441 -0.3366 -0.0611
  557MOL0     C76769   3.748  10.081  -1.402  1.5470 -0.0005 -0.0719
  557MOL0     C76770   3.716   9.938  -1.443 -1.1362 -0.0346  0.4829
  557MOL0     C76771   3.830   9.886  -1.543  0.8917  0.4409  0.1090
  557MOL0     C76772   3.835   9.735  -1.558 -0.5015  0.1025  0.1541
  557MOL0    Cl76773   3.820   9.638  -1.409  0.1406  0.1028  0.2446
  557MOL0     C76774   3.870  10.422  -0.943 -0.4024  0.2470  0.2936
  557MOL0     C76775   3.962  10.406  -0.844  0.4936  0.1442 -0.0853
  557MOL0     O76776   4.180  10.242  -0.736  0.5639 -0.2750  0.0659
  557MOL0     C76777   4.367  10.483  -0.529 -0.7795  0.0118  0.6264
  557MOL0     C76778   4.474  10.494  -0.446  0.4372  0.2111 -0.2050
  557MOL0     N76779   4.379  10.732  -0.167  0.9231 -0.3317  0.3954
  557MOL0     N76780   4.296  10.812  -0.235 -0.8035 -0.3310 -0.7356
  557MOL0     C76781   3.406  11.359   0.226  0.6424  0.0362  0.2180
  557MOL0     C76782   3.439  11.436   0.338 -0.7391 -0.5503  0.6969
  557MOL0     C76783   3.711  11.425   0.708  0.1890  0.0388  0.8950
  557MOL0     C76784   3.829  11.445   0.648 -1.1311 -0.9042  0.3825
  557MOL0     C76785   3.947  11.392   0.697  0.6891  0.0537  0.4978
  557MOL0     C76786   3.947  11.325   0.825  0.9831 -0.7305  0.1856
  557MOL0     O76787   4.070  11.285   0.865 -0.9509  0.1210 -0.4541
  557MOL0     C76788   4.088  11.259   1.011  0.8874 -0.4152 -0.0817
  557MOL0     C76789   4.100  11.385   1.096  0.0938 -1.1239  0.2397
  557MOL0     C76790   4.237  11.458   1.097  0.3782  0.2805 -0.4846
  557MOL0     C76791   4.297  11.495   0.955 -0.4812  0.4108  0.6403
  557MOL0     C76792   4.441  11.528   0.949  0.4594 -0.0018 -0.5644
  557MOL0     C76793   4.560  11.552   0.953 -0.1213  0.3590 -0.7374
  557MOL0     C76794   3.821  11.305   0.880  0.4924 -0.0721 -0.3608
  557MOL0     C76795   3.703  11.362   0.836 -0.0822 -1.2861  0.3202
  557MOL0     C76796   3.583  11.338   0.925  0.2319 -0.0309 -0.1361
  557MOL0     H76797   3.760  11.339   0.375 -0.5896 -1.8715  2.0191
  557MOL0     H76798   3.691  11.198   0.183  1.3071 -0.2790  2.1380
  557MOL0     H76799   3.478  11.049  -0.079 -1.0191 -0.0246 -0.8059
  557MOL0     H76800   3.596  11.071   0.048  1.7943  0.1955 -2.5106
  557MOL0     H76801   3.534  11.285  -0.173  1.4305  2.7495 -0.4450
  557MOL0     H76802   3.673  11.296  -0.074  2.1209  2.1808 -4.7339
  557MOL0     H76803   3.642  11.061  -0.258  0.3516 -0.3520  2.6645
  557MOL0     H76804   3.699  11.212  -0.302 -1.2663 -0.1986  0.8648
  557MOL0     H76805   3.869  11.191  -0.112  0.6639 -0.3794  0.0502
  557MOL0     H76806   3.824  11.006  -0.095 -0.2150 -2.4851 -3.2387
  557MOL0     H76807   3.910  11.142  -0.348  3.1482 -0.7422 -2.1899
  557MOL0     H76808   3.881  10.978  -0.326 -0.0894  1.6044 -1.0924
  557MOL0     H76809   4.096  11.105  -0.146  0.5887 -1.7509  1.8506
  557MOL0     H76810   4.068  10.947  -0.172 -2.6936 -0.9067 -0.1237
  557MOL0     H76811   4.126  11.126  -0.419 -0.4944  0.3840  0.5531
  557MOL0     H76812   4.118  10.945  -0.411  1.6393 -0.9542 -0.9993
  557MOL0     H76813   4.348  11.057  -0.436 -0.1210 -1.0171  0.3010
  557MOL0     H76814   4.315  11.134  -0.275 -1.5620  0.7049  0.7478
  557MOL0     H76815   4.571  10.990  -0.231 -0.5921 -0.0501  3.3963
  557MOL0     H76816   4.663  10.829  -0.054  0.8592 -0.2990 -0.9220
  557MOL0     H76817   4.704  10.741  -0.189 -1.2102  2.0960 -3.3856
  557MOL0     H76818   4.721  10.610  -0.000 -0.3385  1.0385  2.1874
  557MOL0     H76819   4.544  10.614   0.040 -0.7685 -0.9674 -0.9319
  557MOL0     H76820   4.581  10.394  -0.062  1.7001 -0.4654 -1.2929
  557MOL0     H76821   4.483  10.493  -0.156 -0.5969 -1.3743  1.1707
  557MOL0     H76822   4.705  10.574  -0.284  1.7064  0.7403  0.7112
  557MOL0     H76823   4.786  10.461  -0.188 -0.7147  1.1146  2.0283
  557MOL0     H76824   4.597  10.180  -0.461  0.9214  1.2072  2.1875
  557MOL0     H76825   4.410  10.132  -0.761 -0.6954  0.4734 -0.6078
  557MOL0     H76826   4.332  10.069  -0.617  0.2855  0.7972 -0.4879
  557MOL0     H76827   4.506  10.050  -0.624  0.4795  0.8677 -0.6086
  557MOL0     H76828   4.217  10.587  -0.966 -0.1753  0.8618 -1.8759
  557MOL0     H76829   4.035  10.642  -1.142 -1.4956  0.7845  0.6330
  557MOL0     H76830   3.630  10.538  -1.039  0.1039 -0.5400  0.5530
  557MOL0     H76831   3.608  10.530  -1.220 -4.5474 -0.2528  1.7612
  557MOL0     H76832   3.694  10.271  -1.077  0.7911 -2.0428 -2.6057
  557MOL0     H76833   3.534  10.317  -1.136 -0.9625  0.6868 -3.0710
  557MOL0     H76834   3.799  10.306  -1.283 -0.0735  1.8117  1.3323
  557MOL0     H76835   3.649  10.338  -1.370 -1.6239 -0.2753  0.6282
  557MOL0     H76836   3.558  10.125  -1.307 -0.9630  1.2711  1.7702
  557MOL0     H76837   3.702  10.089  -1.197  1.8328 -1.6260 -1.6497
  557MOL0     H76838   3.729  10.143  -1.491 -0.1416 -0.1985  0.1087
  557MOL0     H76839   3.854  10.096  -1.382  1.5443  2.5879 -1.5410
  557MOL0     H76840   3.625   9.934  -1.503  0.4330 -0.7207 -1.9961
  557MOL0     H76841   3.721   9.887  -1.346  0.9564  2.9035  2.0609
  557MOL0     H76842   3.926   9.914  -1.498  3.7397 -4.7318 -1.9332
  557MOL0     H76843   3.802   9.920  -1.643  0.0485 -5.1617 -1.9002
  557MOL0     H76844   3.930   9.711  -1.606  0.1097 -1.1398  1.8750
  557MOL0     H76845   3.760   9.695  -1.628 -0.1236 -2.0987  0.9078
  557MOL0     H76846   3.767  10.397  -0.916 -0.5650 -0.4102 -0.8535
  557MOL0     H76847   3.925  10.373  -0.747 -1.1721  2.1415  0.0266
  557MOL0     H76848   4.290  10.560  -0.528 -0.9949 -0.2017  0.5781
  557MOL0     H76849   4.489  10.589  -0.397 -1.5683  1.0715 -1.1588
  557MOL0     H76850   3.302  11.372   0.196  0.7098  0.8340  0.3065
  557MOL0     H76851   3.361  11.492   0.389 -0.0268 -0.5260  1.7898
  557MOL0     H76852   3.834  11.480   0.545  2.1969 -1.3310  0.2846
  557MOL0     H76853   4.042  11.409   0.649  0.1807 -2.0979 -1.4791
  557MOL0     H76854   4.011  11.188   1.041  2.7041 -3.4612 -2.0919
  557MOL0     H76855   4.168  11.187   1.032 -1.4147 -3.3409 -0.6880
  557MOL0     H76856   4.073  11.376   1.201 -0.1459 -0.2786  0.2598
  557MOL0     H76857   4.011  11.446   1.078 -0.4241 -0.0640  5.0770
  557MOL0     H76858   4.234  11.548   1.160  2.7510  1.2752 -1.6494
  557MOL0     H76859   4.293  11.377   1.143  0.3448 -0.3140 -1.4540
  557MOL0     H76860   4.238  11.570   0.902  1.1728  0.3498 -1.4139
  557MOL0     H76861   4.281  11.405   0.894 -0.9613 -0.2167  1.6586
  557MOL0     H76862   4.664  11.565   0.974  0.1533 -3.3723  1.0380
  557MOL0     H76863   3.814  11.239   0.966  2.9474 -1.1929 -0.9291
  557MOL0     H76864   3.525  11.260   0.875 -1.7395 -0.7956  3.0620
  557MOL0     H76865   3.601  11.278   1.015  2.4019  0.0699 -0.4585
  557MOL0     H76866   3.510  11.417   0.948 -2.8120 -1.8646 -2.7428
  558MOL0     O76867   2.562   9.924   1.996  0.2224  0.1526 -0.1443
  558MOL0     C76868   2.538   9.987   1.894  1.5286 -0.3670 -0.5495
  558MOL0     O76869   2.531   9.935   1.774  0.5618  0.1391 -0.1602
  558MOL0     C76870   2.550   9.800   1.765  0.3018  0.2595  0.4589
  558MOL0     C76871   2.636   9.762   1.662  0.3703 -0.0940 -0.3806
  558MOL0     C76872   2.675   9.631   1.635  0.9457  0.5893  0.2444
  558MOL0     C76873   2.628   9.528   1.723  0.5351  0.1178  0.3522
  558MOL0     O76874   2.666   9.398   1.723  0.4906 -0.0383  0.8361
  558MOL0     C76875   2.743   9.353   1.615  0.0991 -0.6807 -0.2316
  558MOL0     C76876   2.789   9.210   1.627  0.4507 -0.0920 -0.1052
  558MOL0     C76877   2.675   9.119   1.673  0.8071 -0.1460  0.1591
  558MOL0     C76878   2.572   9.073   1.568 -0.2900 -0.1354  0.0266
  558MOL0     C76879   2.491   8.966   1.629  0.2124  0.7177  0.2167
  558MOL0     C76880   2.384   8.904   1.539 -0.2822 -0.0579 -0.0009
  558MOL0     C76881   2.285   8.805   1.614  0.2651 -0.2698  0.4894
  558MOL0     C76882   2.152   8.876   1.651  0.3614  0.7200 -0.1212
  558MOL0     N76883   2.050   8.774   1.707 -0.5943  0.0193 -0.1017
  558MOL0     C76884   1.926   8.797   1.766  0.6162  0.1976 -0.4896
  558MOL0     C76885   1.886   8.681   1.815 -1.1457  0.1641 -0.1791
  558MOL0     C76886   1.776   8.664   1.914  0.4379 -0.7778 -1.2345
  558MOL0     C76887   1.638   8.742   1.885 -0.4365  0.2638  0.0973
  558MOL0     C76888   1.584   8.703   1.747 -0.2250 -0.6941  0.0931
  558MOL0     C76889   1.486   8.792   1.684  0.2802  0.1051 -1.0689
  558MOL0     O76890   1.354   8.777   1.720 -1.1174 -0.1669  0.5624
  558MOL0     C76891   1.287   8.675   1.664 -0.7919  0.0838  0.1827
  558MOL0     C76892   1.162   8.673   1.713 -0.5624 -0.0842 -0.5960
  558MOL0     C76893   1.067   8.584   1.661 -0.0204 -0.4776 -1.4043
  558MOL0     C76894   0.923   8.622   1.685 -0.8119  1.4119  0.2345
  558MOL0     C76895   1.117   8.484   1.574  0.3355 -0.3456  0.7976
  558MOL0     C76896   1.032   8.385   1.499  0.1158 -1.5399  0.5476
  558MOL0     O76897   1.081   8.351   1.372 -0.7989 -0.1713 -0.4543
  558MOL0     C76898   1.007   8.254   1.314 -0.1014 -0.1879 -0.2433
  558MOL0     C76899   0.885   8.277   1.256 -0.6289  0.1009 -0.6572
  558MOL0     C76900   0.810   8.178   1.185  0.7916 -0.4781 -0.1398
  558MOL0     C76901   0.857   8.048   1.197  0.5581  0.9252  0.8377
  558MOL0     O76902   0.788   7.940   1.146  0.1103 -0.2094  0.2428
  558MOL0     C76903   0.752   7.937   1.005 -0.1041  0.1148 -1.1179
  558MOL0     C76904   0.870   7.882   0.931  0.3029 -0.9342  0.6152
  558MOL0     C76905   0.831   7.827   0.792 -0.3180  0.9029  1.0154
  558MOL0     C76906   0.956   7.794   0.713 -0.1614 -0.2810 -0.3910
  558MOL0     C76907   0.935   7.730   0.580  0.6482  0.2881  0.1956
  558MOL0     C76908   1.058   7.739   0.484  0.2277 -0.4558  0.0705
  558MOL0     C76909   1.098   7.868   0.426 -0.5355 -0.3975  0.3301
  558MOL0     C76910   0.973   7.946   0.365 -0.9925 -0.0735  0.2713
  558MOL0    Cl76911   0.913   8.026   0.501  0.4571  0.0884 -0.0918
  558MOL0     C76912   0.979   8.022   1.253  1.0981 -0.4731  0.1582
  558MOL0     C76913   1.054   8.126   1.310  0.4072 -0.1872 -0.7657
  558MOL0     O76914   0.938   8.339   1.558  0.2822 -0.4760  0.1677
  558MOL0     C76915   1.252   8.476   1.546 -0.4898 -0.7144  0.6377
  558MOL0     C76916   1.330   8.571   1.583  0.1430 -0.5236  1.0301
  558MOL0     N76917   1.984   8.584   1.786 -1.7468  0.0261 -0.1193
  558MOL0     N76918   2.076   8.645   1.716 -0.2306  0.3801 -0.6289
  558MOL0     C76919   2.545   9.562   1.829 -0.6692 -0.9047  0.5000
  558MOL0     C76920   2.498   9.700   1.840  0.1304 -0.4911  1.2149
  558MOL0     C76921   2.519  10.131   1.900 -0.0030 -0.7737 -0.2685
  558MOL0     C76922   2.469  10.177   2.024  0.1859  0.6252 -0.3089
  558MOL0     C76923   2.442  10.308   2.043  0.0938 -0.0730  0.0439
  558MOL0     C76924   2.479  10.405   1.945  0.7852 -0.3091 -0.9294
  558MOL0     O76925   2.479  10.548   1.960  0.7015 -0.1375  0.9199
  558MOL0     C76926   2.414  10.598   2.083 -0.3515  0.8345 -0.2584
  558MOL0     C76927   2.460  10.741   2.115 -0.3813  0.0330 -0.4314
  558MOL0     C76928   2.400  10.839   2.016  0.1520 -1.3407  0.4267
  558MOL0     C76929   2.448  10.987   2.042 -0.4524  0.1060 -0.0242
  558MOL0     C76930   2.382  11.100   1.968  0.3882  0.1672 -0.2107
  558MOL0     C76931   2.324  11.174   1.894  0.6835  0.3133  0.2127
  558MOL0     C76932   2.522  10.353   1.816 -0.7520  0.2657 -0.7275
  558MOL0     C76933   2.560  10.223   1.797  0.4668 -0.1207  0.4007
  558MOL0     C76934   2.618  10.191   1.661 -0.6690  0.0821 -1.0053
  558MOL0     H76935   2.683   9.833   1.594  1.9682 -1.0079 -0.2886
  558MOL0     H76936   2.733   9.619   1.544  0.2477  3.1633 -0.6260
  558MOL0     H76937   2.832   9.415   1.625  0.9144 -1.7585 -0.5384
  558MOL0     H76938   2.685   9.369   1.524  0.8556 -0.4062 -0.6794
  558MOL0     H76939   2.836   9.177   1.534 -1.5089 -0.7439 -0.9093
  558MOL0     H76940   2.864   9.203   1.707  2.3010  1.1255 -1.6357
  558MOL0     H76941   2.726   9.033   1.717 -2.4432 -3.6440 -2.2981
  558MOL0     H76942   2.626   9.167   1.758  1.1445  2.5792 -1.0675
  558MOL0     H76943   2.509   9.158   1.541 -2.9140 -1.5134  1.4447
  558MOL0     H76944   2.632   9.033   1.486  0.2516  1.5205 -0.4377
  558MOL0     H76945   2.459   8.997   1.729  0.5981  1.3947  0.1365
  558MOL0     H76946   2.555   8.881   1.653 -0.8906 -0.3937 -0.6838
  558MOL0     H76947   2.326   8.978   1.484  2.3274 -0.9280 -4.4168
  558MOL0     H76948   2.438   8.847   1.463  1.7733  0.7126  0.8183
  558MOL0     H76949   2.331   8.782   1.711  0.0921 -1.0945  0.3815
  558MOL0     H76950   2.259   8.717   1.556  2.3701  0.9061 -2.4512
  558MOL0     H76951   2.172   8.950   1.728  0.9638 -2.7473  3.3669
  558MOL0     H76952   2.116   8.919   1.557  1.6026  0.2712 -0.8357
  558MOL0     H76953   1.873   8.892   1.770  0.7117  0.2047  1.3111
  558MOL0     H76954   1.810   8.688   2.015 -1.0574  2.5110 -1.4169
  558MOL0     H76955   1.743   8.559   1.913  2.1737 -1.4514  1.5865
  558MOL0     H76956   1.563   8.711   1.958  0.4863 -2.7186 -0.1176
  558MOL0     H76957   1.665   8.848   1.883 -1.3587  0.4930 -1.2035
  558MOL0     H76958   1.667   8.693   1.676 -1.3809  1.3679 -1.6702
  558MOL0     H76959   1.530   8.608   1.752 -1.7603 -0.0467 -2.4909
  558MOL0     H76960   1.510   8.892   1.722  0.9803 -1.1770  2.2398
  558MOL0     H76961   1.504   8.796   1.577  2.0661 -0.1486 -0.7997
  558MOL0     H76962   1.142   8.752   1.785  3.2827  0.4331  0.1559
  558MOL0     H76963   0.886   8.642   1.584  3.7739  0.9402 -1.7545
  558MOL0     H76964   0.913   8.711   1.748  0.7690  0.2870  2.2148
  558MOL0     H76965   0.873   8.541   1.740 -0.6925  2.1700  1.5085
  558MOL0     H76966   0.856   8.381   1.256 -1.1788 -0.0464 -0.2464
  558MOL0     H76967   0.717   8.211   1.139 -0.9281 -2.6762  1.5422
  558MOL0     H76968   0.664   7.874   0.992  1.4665 -2.2680 -0.7365
  558MOL0     H76969   0.730   8.039   0.972 -1.6003  0.0182 -0.5054
  558MOL0     H76970   0.947   7.959   0.922 -1.1459  0.5469  0.5251
  558MOL0     H76971   0.909   7.799   0.992 -0.0345 -3.6442 -2.5557
  558MOL0     H76972   0.776   7.914   0.755  1.7078  1.6594 -0.3787
  558MOL0     H76973   0.769   7.737   0.793 -1.0924  1.4057 -0.1409
  558MOL0     H76974   1.016   7.730   0.780 -1.5821 -0.9065  0.3430
  558MOL0     H76975   1.000   7.893   0.701 -1.5727  0.1703 -2.2151
  558MOL0     H76976   0.914   7.623   0.585 -1.6499  0.5908 -1.1410
  558MOL0     H76977   0.845   7.763   0.526  2.5248  2.6308 -1.7236
  558MOL0     H76978   1.029   7.673   0.401 -2.3719  3.1377 -2.1576
  558MOL0     H76979   1.153   7.699   0.520  0.5483 -0.0065 -0.2776
  558MOL0     H76980   1.187   7.855   0.363 -0.5472  0.8370  0.0308
  558MOL0     H76981   1.138   7.930   0.507 -0.6458  0.3042 -0.1407
  558MOL0     H76982   0.902   7.879   0.316  0.6931 -1.7798  0.0233
  558MOL0     H76983   1.005   8.022   0.294 -6.0150 -1.7268 -4.4584
  558MOL0     H76984   1.020   7.923   1.237 -2.1574 -1.7865 -0.9504
  558MOL0     H76985   1.155   8.102   1.342  0.0364 -1.2209 -0.3377
  558MOL0     H76986   1.289   8.400   1.478  4.0038  2.0107 -0.4298
  558MOL0     H76987   1.423   8.580   1.528 -0.3755 -1.0606  0.0448
  558MOL0     H76988   2.502   9.499   1.907 -0.5418  0.3113  1.5960
  558MOL0     H76989   2.431   9.726   1.922  0.1918 -1.2316  1.5149
  558MOL0     H76990   2.436  10.113   2.106  1.4222  0.1004 -0.1920
  558MOL0     H76991   2.399  10.336   2.138  2.0329  0.6791  0.7451
  558MOL0     H76992   2.308  10.585   2.058  0.3467 -1.7404 -2.2761
  558MOL0     H76993   2.438  10.537   2.171  0.6922  0.2461 -0.9306
  558MOL0     H76994   2.569  10.749   2.107 -0.1429 -1.9635  0.1694
  558MOL0     H76995   2.421  10.763   2.214 -1.0579  1.2479 -0.9518
  558MOL0     H76996   2.422  10.808   1.914  0.9179 -1.5073  0.6358
  558MOL0     H76997   2.290  10.837   2.021 -0.0176  0.0150 -1.7180
  558MOL0     H76998   2.556  10.993   2.026 -0.8429  1.3508 -2.9654
  558MOL0     H76999   2.434  11.003   2.149 -1.2521 -0.8072  0.0200
  558MOL0     H77000   2.266  11.230   1.824 -0.0694 -0.8455 -0.1267
  558MOL0     H77001   2.555  10.418   1.736 -0.1501  0.2534 -0.4942
  558MOL0     H77002   2.710  10.134   1.676 -0.2194  1.1433  0.4386
  558MOL0     H77003   2.553  10.128   1.600 -2.3305 -0.0446  0.7995
  558MOL0     H77004   2.627  10.289   1.614 -1.9606  1.7036  1.8791
  559MOL0     O77005   1.468   5.875  10.891  0.1096 -0.5572  1.4321
  559MOL0     C77006   1.549   5.822  10.819  0.5040 -0.5041  0.6014
  559MOL0     O77007   1.680   5.789  10.850 -0.7722  0.2879 -0.2925
  559MOL0     C77008   1.743   5.841  10.958  0.0393 -0.3850 -0.1412
  559MOL0     C77009   1.705   5.937  11.051 -0.1974  0.1937  0.7574
  559MOL0     C77010   1.789   5.999  11.144  0.3915  0.6731 -1.0092
  559MOL0     C77011   1.922   5.946  11.152  0.1280 -0.7815  0.0206
  559MOL0     O77012   1.983   6.016  11.259  0.8736  0.2215  0.4269
  559MOL0     C77013   2.069   5.929  11.324  0.5701 -0.1160 -0.3863
  559MOL0     C77014   2.089   5.969  11.477 -0.5141  1.0657 -1.1355
  559MOL0     C77015   1.960   5.974  11.559  0.7401  0.6036  0.2136
  559MOL0     C77016   1.881   5.849  11.554  0.8333  0.8851 -0.2340
  559MOL0     C77017   1.757   5.849  11.659  0.6934 -0.4417  0.3979
  559MOL0     C77018   1.688   5.709  11.669 -0.0115 -0.2087  0.3030
  559MOL0     C77019   1.566   5.727  11.761  0.0313 -0.6722  0.2421
  559MOL0     C77020   1.496   5.593  11.800 -0.1250  0.1043  0.2235
  559MOL0     N77021   1.419   5.549  11.692 -0.8170  0.3104  0.6741
  559MOL0     C77022   1.307   5.616  11.636 -0.0792  0.0327  0.4081
  559MOL0     C77023   1.278   5.544  11.526 -0.6584 -1.0377 -0.0971
  559MOL0     C77024   1.175   5.589  11.440  0.1541  0.6307 -0.5910
  559MOL0     C77025   1.038   5.589  11.498  0.6855 -0.4867 -0.2955
  559MOL0     C77026   1.011   5.451  11.569  1.0216 -0.1054  0.1419
  559MOL0     C77027   0.865   5.435  11.603 -1.6351  0.2415 -0.3658
  559MOL0     O77028   0.816   5.395  11.471 -0.0164  0.2206  0.7401
  559MOL0     C77029   0.681   5.364  11.468  0.9343 -0.5882  0.6179
  559MOL0     C77030   0.600   5.346  11.588 -0.7675 -0.0828  1.1737
  559MOL0     C77031   0.457   5.320  11.574 -0.1516  0.0716 -0.4455
  559MOL0     C77032   0.382   5.326  11.707 -0.1538 -0.8887  0.3920
  559MOL0     C77033   0.397   5.300  11.452 -0.3141 -0.9258  0.4008
  559MOL0     C77034   0.252   5.283  11.446 -0.1487  0.9120  0.8014
  559MOL0     O77035   0.202   5.167  11.506 -0.6752 -0.0442 -0.0661
  559MOL0     C77036   0.067   5.162  11.542 -0.7657 -0.5028 -0.0176
  559MOL0     C77037  -0.003   5.272  11.575 -0.8511 -0.0613 -0.0193
  559MOL0     C77038  -0.131   5.268  11.639 -0.1176 -0.6954 -0.2145
  559MOL0     C77039  -0.194   5.147  11.661  0.5942 -0.3859  0.8072
  559MOL0     O77040  -0.311   5.123  11.729  0.2074 -0.5374  0.2216
  559MOL0     C77041  -0.421   5.204  11.695  0.3983 -0.4268  1.1451
  559MOL0     C77042  -0.549   5.188  11.784 -0.0074  0.1867 -0.0557
  559MOL0     C77043  -0.620   5.052  11.787 -0.2386 -0.5119 -0.3798
  559MOL0     C77044  -0.538   4.921  11.812  0.6094 -0.2707  0.6985
  559MOL0     C77045  -0.630   4.803  11.840  0.0755  0.4818  0.2171
  559MOL0     C77046  -0.552   4.674  11.878 -0.0283  0.4996  0.3519
  559MOL0     C77047  -0.450   4.628  11.770  0.0881  0.7918 -0.4497
  559MOL0     C77048  -0.386   4.497  11.826 -0.9725  0.2060  0.1843
  559MOL0    Cl77049  -0.485   4.365  11.890 -0.3545  0.4302 -0.7332
  559MOL0     C77050  -0.119   5.033  11.615  0.7521 -0.3749 -0.1665
  559MOL0     C77051   0.009   5.037  11.561  0.6504 -0.5076  0.0572
  559MOL0     O77052   0.197   5.356  11.359  0.4061  0.2918 -0.1956
  559MOL0     C77053   0.478   5.304  11.328 -0.3152  0.3911 -0.5424
  559MOL0     C77054   0.623   5.328  11.339  0.1414  0.8010 -0.1541
  559MOL0     N77055   1.366   5.440  11.515 -0.3896 -0.5617  0.3560
  559MOL0     N77056   1.445   5.439  11.624 -0.3565 -0.0490  0.3729
  559MOL0     C77057   1.966   5.844  11.067 -0.1446 -0.2527  0.0143
  559MOL0     C77058   1.881   5.802  10.968  0.4874  0.7305 -0.7290
  559MOL0     C77059   1.486   5.799  10.685  0.5052 -0.2028  0.0337
  559MOL0     C77060   1.349   5.802  10.667  0.7487  0.0654 -0.9602
  559MOL0     C77061   1.290   5.793  10.542 -0.7038  0.5000 -0.1332
  559MOL0     C77062   1.369   5.747  10.434  0.0672  0.7233 -0.2553
  559MOL0     O77063   1.338   5.726  10.299  0.0390  0.4266 -0.2233
  559MOL0     C77064   1.203   5.660  10.282 -1.2284 -0.2954 -0.1188
  559MOL0     C77065   1.098   5.750  10.221 -0.3328  0.2335  0.3109
  559MOL0     C77066   1.040   5.851  10.312  0.4770  0.7279  0.0916
  559MOL0     C77067   0.925   5.932  10.240  0.7424  0.8033 -0.4625
  559MOL0     C77068   0.806   5.847  10.198 -0.9779  0.5878 -0.2634
  559MOL0     C77069   0.714   5.769  10.168 -0.3421  0.2192 -0.2476
  559MOL0     C77070   1.502   5.738  10.453 -0.7876 -0.4932 -0.2159
  559MOL0     C77071   1.570   5.772  10.571 -0.4003 -0.1702  0.6542
  559MOL0     C77072   1.726   5.769  10.564  0.8571  0.1884 -0.0623
  559MOL0     H77073   1.600   5.966  11.046 -0.1419  0.3068  0.1108
  559MOL0     H77074   1.749   6.067  11.218  1.3779 -2.1287  2.3586
  559MOL0     H77075   2.168   5.932  11.278  1.0769  2.2768  0.7668
  559MOL0     H77076   2.044   5.822  11.323 -2.3721  0.3550  2.9777
  559MOL0     H77077   2.154   5.892  11.518 -3.0516 -1.2611 -1.2374
  559MOL0     H77078   2.134   6.068  11.490  0.6547  0.3949  0.2267
  559MOL0     H77079   1.986   6.004  11.661  2.8064  1.4616 -0.5094
  559MOL0     H77080   1.883   6.044  11.528 -2.6099 -2.2958  1.3779
  559MOL0     H77081   1.844   5.843  11.451  1.0175 -2.1579 -0.2323
  559MOL0     H77082   1.937   5.755  11.567 -1.0887 -0.5560 -1.7686
  559MOL0     H77083   1.676   5.919  11.637 -1.1008 -1.8828  2.0680
  559MOL0     H77084   1.805   5.869  11.755  2.4849 -2.4439 -0.0181
  559MOL0     H77085   1.650   5.665  11.577 -0.4259  0.1269  0.3109
  559MOL0     H77086   1.767   5.642  11.705  1.5824  0.8979 -0.9423
  559MOL0     H77087   1.508   5.809  11.719  1.9479  0.2070 -0.7937
  559MOL0     H77088   1.594   5.765  11.860 -0.2211 -1.1892  0.5195
  559MOL0     H77089   1.568   5.519  11.837  2.9028  1.9325 -1.6159
  559MOL0     H77090   1.438   5.610  11.891  0.1588 -0.3187  0.4869
  559MOL0     H77091   1.247   5.700  11.669  1.7720  2.5398 -2.1665
  559MOL0     H77092   1.176   5.525  11.351  1.5894 -2.2741  1.3407
  559MOL0     H77093   1.191   5.694  11.412  0.7461  0.2162 -1.8981
  559MOL0     H77094   1.028   5.679  11.559 -1.1609 -0.9201  0.0978
  559MOL0     H77095   0.967   5.604  11.417  2.7197  2.6202 -1.7026
  559MOL0     H77096   1.044   5.366  11.509 -0.7938 -0.9791  0.3137
  559MOL0     H77097   1.074   5.452  11.659  1.6213 -1.1866 -0.2427
  559MOL0     H77098   0.859   5.358  11.681 -0.5349  0.7690  0.2662
  559MOL0     H77099   0.823   5.531  11.636 -0.2720  0.1687  1.7634
  559MOL0     H77100   0.650   5.380  11.678  1.4464  3.4413 -1.1347
  559MOL0     H77101   0.433   5.354  11.800 -1.2606 -0.2153  0.8171
  559MOL0     H77102   0.320   5.238  11.726  0.9012 -1.3431  1.9507
  559MOL0     H77103   0.318   5.411  11.687 -0.4741 -0.6196  2.4108
  559MOL0     H77104   0.036   5.372  11.556 -3.7800  0.7032 -3.0435
  559MOL0     H77105  -0.179   5.364  11.657  0.4543 -0.9524  3.4425
  559MOL0     H77106  -0.401   5.311  11.695  0.8462 -0.4880 -0.3121
  559MOL0     H77107  -0.439   5.181  11.590  2.3279 -2.6343  1.2143
  559MOL0     H77108  -0.530   5.215  11.888 -0.5312 -0.2569  0.1584
  559MOL0     H77109  -0.613   5.266  11.742  2.6224  2.1868 -0.5848
  559MOL0     H77110  -0.682   5.040  11.697 -0.6279 -0.4092 -0.1266
  559MOL0     H77111  -0.697   5.075  11.861  1.4788  2.0786  0.7415
  559MOL0     H77112  -0.490   4.945  11.907 -0.0773  4.1132  0.1689
  559MOL0     H77113  -0.462   4.916  11.734 -0.4033  4.8208 -1.0186
  559MOL0     H77114  -0.698   4.831  11.921 -0.7037  1.0950 -0.6316
  559MOL0     H77115  -0.691   4.792  11.750 -0.3328 -1.7019  0.6845
  559MOL0     H77116  -0.627   4.598  11.901  1.6057 -0.9822  0.9749
  559MOL0     H77117  -0.497   4.692  11.971 -2.8902  0.9085  2.0996
  559MOL0     H77118  -0.372   4.699  11.740 -0.9607  1.8231 -0.7932
  559MOL0     H77119  -0.508   4.605  11.680 -0.8031  2.8997 -0.4645
  559MOL0     H77120  -0.314   4.521  11.906  2.5215 -1.2658 -2.2417
  559MOL0     H77121  -0.337   4.444  11.744 -0.3767 -1.4954  1.5808
  559MOL0     H77122  -0.157   4.934  11.640  1.4161 -0.3429  1.0739
  559MOL0     H77123   0.049   4.939  11.537 -0.9652 -1.2469  0.2035
  559MOL0     H77124   0.431   5.309  11.230 -4.2686  2.4878  1.2054
  559MOL0     H77125   0.682   5.332  11.248  0.7114  2.5078  0.2411
  559MOL0     H77126   2.063   5.798  11.058 -0.2903 -0.5661  0.0471
  559MOL0     H77127   1.931   5.738  10.896  2.1474  2.1846 -0.9267
  559MOL0     H77128   1.284   5.809  10.754 -0.1644 -4.7753 -0.9790
  559MOL0     H77129   1.182   5.796  10.528 -0.7858 -1.9484 -0.5669
  559MOL0     H77130   1.215   5.572  10.218  0.9713  1.4344 -2.2904
  559MOL0     H77131   1.171   5.632  10.383  0.6689  1.3223  1.0126
  559MOL0     H77132   1.014   5.699  10.173 -0.1069  1.6331 -1.6753
  559MOL0     H77133   1.134   5.815  10.141  4.9510  0.2752  2.3271
  559MOL0     H77134   1.007   5.803  10.405  1.8351  2.2204  1.4039
  559MOL0     H77135   1.113   5.920  10.354  1.5344 -0.0291 -0.4633
  559MOL0     H77136   0.957   5.997  10.158  0.1591 -1.5578 -2.7351
  559MOL0     H77137   0.878   5.997  10.314 -1.8227 -0.2831 -1.0032
  559MOL0     H77138   0.630   5.720  10.124 -0.7696  1.8105 -1.2804
  559MOL0     H77139   1.571   5.730  10.369  1.5014  2.9492  1.1130
  559MOL0     H77140   1.750   5.864  10.613 -3.5530  1.4025  0.2190
  559MOL0     H77141   1.771   5.684  10.616  0.3994  0.1052  0.2071
  559MOL0     H77142   1.752   5.766  10.458  0.6744  1.0309 -0.1396
  560MOL0     O77143   5.266   5.090   7.422 -0.4132  0.5869  0.1160
  560MOL0     C77144   5.151   5.129   7.444 -0.4706 -1.1670  0.1943
  560MOL0     O77145   5.067   5.068   7.544 -0.0890 -0.2566 -0.3354
  560MOL0     C77146   5.115   4.953   7.609  0.4440  0.4249  0.2510
  560MOL0     C77147   5.134   4.834   7.527 -0.2258 -0.5625  0.0811
  560MOL0     C77148   5.171   4.710   7.590  0.0511  0.3018  0.3645
  560MOL0     C77149   5.176   4.712   7.727  0.8337  0.6667  1.2216
  560MOL0     O77150   5.223   4.596   7.798 -0.3248 -0.2312  0.8174
  560MOL0     C77151   5.288   4.492   7.720  0.8504  0.3293 -0.1358
  560MOL0     C77152   5.356   4.396   7.818  0.5416  0.6825  0.6722
  560MOL0     C77153   5.509   4.413   7.816 -0.5776 -0.1397  0.4777
  560MOL0     C77154   5.574   4.360   7.958  1.1798 -0.3544  0.0286
  560MOL0     C77155   5.720   4.408   7.963  0.6270 -0.4974 -0.1065
  560MOL0     C77156   5.786   4.384   8.100  0.5154 -0.0162  0.6209
  560MOL0     C77157   5.813   4.236   8.125  0.1134 -0.1953  0.0011
  560MOL0     C77158   5.877   4.213   8.264  1.2717 -0.3146  0.7176
  560MOL0     N77159   6.013   4.265   8.262  0.3377  0.4411  0.0485
  560MOL0     C77160   6.124   4.200   8.204  0.2502  0.1892  0.3766
  560MOL0     C77161   6.228   4.270   8.250  0.5131 -0.0348  0.1228
  560MOL0     C77162   6.362   4.240   8.214  0.3200  1.0776 -0.3433
  560MOL0     C77163   6.421   4.148   8.318  0.1166  0.3649  0.4774
  560MOL0     C77164   6.560   4.099   8.275  0.3968  0.0607  0.5067
  560MOL0     C77165   6.621   4.003   8.379 -0.1795 -0.3635  1.1055
  560MOL0     O77166   6.545   3.890   8.396 -0.4831 -0.0549 -0.0757
  560MOL0     C77167   6.591   3.797   8.489 -0.5566  0.5335  0.1559
  560MOL0     C77168   6.523   3.775   8.605  0.5174 -0.2241 -0.1018
  560MOL0     C77169   6.561   3.696   8.713 -0.2645 -0.3017  0.7080
  560MOL0     C77170   6.458   3.703   8.834 -0.4926 -0.3438  0.4537
  560MOL0     C77171   6.677   3.612   8.696  0.5552 -1.5265 -0.4441
  560MOL0     C77172   6.722   3.516   8.806  0.9038 -0.1896  0.0285
  560MOL0     O77173   6.645   3.491   8.918 -0.5435 -0.1800 -0.3771
  560MOL0     C77174   6.661   3.376   8.978 -0.8091  0.5791 -0.9167
  560MOL0     C77175   6.544   3.302   9.003  0.1749 -0.1879 -0.4142
  560MOL0     C77176   6.554   3.185   9.070  0.3446 -0.7083 -0.9343
  560MOL0     C77177   6.672   3.131   9.114  0.3538  0.2202 -0.6454
  560MOL0     O77178   6.677   3.015   9.187  0.5410 -1.0631  0.5659
  560MOL0     C77179   6.772   2.909   9.168  0.3290 -0.8768 -0.5955
  560MOL0     C77180   6.744   2.794   9.263  0.6350  0.0833  0.4614
  560MOL0     C77181   6.776   2.829   9.407 -0.7114 -0.3113 -0.9647
  560MOL0     C77182   6.804   2.711   9.487  0.2095 -0.2435 -0.4339
  560MOL0     C77183   6.824   2.747   9.635  0.0706  0.3918  0.2003
  560MOL0     C77184   6.913   2.875   9.670 -0.2417 -0.1877 -0.4876
  560MOL0     C77185   7.058   2.834   9.663 -0.3130  0.4112  0.5218
  560MOL0     C77186   7.145   2.947   9.674  0.1744 -0.6945  0.0412
  560MOL0    Cl77187   7.309   2.879   9.698 -0.3039  0.3872  0.2579
  560MOL0     C77188   6.794   3.206   9.095 -0.4458  0.3147  0.7033
  560MOL0     C77189   6.784   3.326   9.028 -0.6431 -0.3020  1.2282
  560MOL0     O77190   6.820   3.451   8.776 -0.5149 -0.4236 -0.1057
  560MOL0     C77191   6.749   3.629   8.582  0.1459  0.1904  0.7210
  560MOL0     C77192   6.707   3.721   8.476 -0.0487  0.3754 -0.2786
  560MOL0     N77193   6.181   4.370   8.326 -1.4187 -0.3828  0.2764
  560MOL0     N77194   6.054   4.367   8.329 -0.3845 -0.1270  1.3257
  560MOL0     C77195   5.130   4.815   7.807 -0.6987 -0.4534  0.7631
  560MOL0     C77196   5.115   4.945   7.755  0.1400 -0.7739  0.9462
  560MOL0     C77197   5.091   5.237   7.358 -0.0893 -0.7003 -0.3779
  560MOL0     C77198   4.962   5.286   7.402  0.3925  0.2020  0.4223
  560MOL0     C77199   4.908   5.402   7.356 -0.0039 -0.3554  0.2759
  560MOL0     C77200   4.967   5.473   7.260 -0.0564  0.1448 -0.3995
  560MOL0     O77201   4.903   5.578   7.203 -0.2752  0.9290 -0.2783
  560MOL0     C77202   4.774   5.553   7.138  0.1979  0.1381 -0.6796
  560MOL0     C77203   4.652   5.637   7.194 -1.5799  0.4349  0.6328
  560MOL0     C77204   4.554   5.645   7.091 -0.3247 -0.0311 -0.6707
  560MOL0     C77205   4.415   5.687   7.149  0.1424 -0.2325  0.0060
  560MOL0     C77206   4.419   5.825   7.212 -0.8291  1.0088  0.1367
  560MOL0     C77207   4.433   5.925   7.277 -0.4521  0.2403  0.1445
  560MOL0     C77208   5.094   5.432   7.213 -0.1319 -0.0530 -0.3861
  560MOL0     C77209   5.152   5.314   7.261 -0.2654 -0.0668  0.5295
  560MOL0     C77210   5.280   5.276   7.193 -0.3342 -0.0272 -0.1487
  560MOL0     H77211   5.119   4.845   7.420 -0.8563  1.7885  0.3550
  560MOL0     H77212   5.190   4.625   7.525  2.5090  3.1130 -3.0333
  560MOL0     H77213   5.357   4.538   7.649 -0.4514  0.8258 -1.1328
  560MOL0     H77214   5.214   4.432   7.666 -0.0776 -1.0008  2.4330
  560MOL0     H77215   5.311   4.411   7.917 -1.1870 -1.9014  0.3527
  560MOL0     H77216   5.343   4.296   7.777  0.9028  0.2778  1.5346
  560MOL0     H77217   5.551   4.375   7.722 -2.7723 -1.1881 -0.1588
  560MOL0     H77218   5.527   4.521   7.815  2.5504 -0.5350  2.4231
  560MOL0     H77219   5.521   4.413   8.037  2.4573  2.3248 -0.8133
  560MOL0     H77220   5.580   4.251   7.954  2.6477 -0.3440  1.1458
  560MOL0     H77221   5.731   4.516   7.954  3.1437 -0.2928  3.3660
  560MOL0     H77222   5.780   4.357   7.887 -0.2666 -2.0086  0.1693
  560MOL0     H77223   5.872   4.448   8.121  0.4803 -0.7239  3.2822
  560MOL0     H77224   5.711   4.422   8.170 -0.4744  1.8072 -1.3245
  560MOL0     H77225   5.884   4.191   8.054 -0.3045  1.5579 -1.6245
  560MOL0     H77226   5.720   4.179   8.121 -1.5233  2.2688  0.9274
  560MOL0     H77227   5.822   4.259   8.346 -0.8066  0.9180 -1.2391
  560MOL0     H77228   5.880   4.104   8.272  1.0976 -0.5993 -1.9558
  560MOL0     H77229   6.124   4.101   8.161 -0.1530 -0.4138  1.7120
  560MOL0     H77230   6.413   4.337   8.222 -2.2890  2.4257  1.4279
  560MOL0     H77231   6.368   4.199   8.113 -0.3392  2.4592 -0.9796
  560MOL0     H77232   6.433   4.192   8.418 -0.8323 -0.3017  0.9066
  560MOL0     H77233   6.357   4.060   8.333 -0.2384  0.3435 -1.0815
  560MOL0     H77234   6.552   4.057   8.174 -0.3197  0.0579  0.5540
  560MOL0     H77235   6.625   4.186   8.276  0.2337  0.2978 -2.1398
  560MOL0     H77236   6.716   3.962   8.344  0.2174  0.3991  1.2791
  560MOL0     H77237   6.611   4.051   8.477 -4.0933  2.3394 -0.3850
  560MOL0     H77238   6.428   3.827   8.615  1.7142  2.3090 -0.9148
  560MOL0     H77239   6.401   3.610   8.844 -0.4523 -0.1519  2.8732
  560MOL0     H77240   6.395   3.791   8.826  0.4856  0.2644 -1.2280
  560MOL0     H77241   6.519   3.707   8.925  0.8187 -0.7573 -0.3770
  560MOL0     H77242   6.442   3.338   8.993 -0.4066 -2.0152 -1.6191
  560MOL0     H77243   6.464   3.129   9.094  1.4051 -2.1015 -0.0747
  560MOL0     H77244   6.764   2.884   9.062  1.3192  2.2121 -1.5025
  560MOL0     H77245   6.872   2.951   9.179 -1.0784  2.7189 -0.2372
  560MOL0     H77246   6.640   2.769   9.243  1.3473 -2.2775 -0.6069
  560MOL0     H77247   6.804   2.707   9.234  0.1352  0.3030 -1.3701
  560MOL0     H77248   6.689   2.880   9.449  1.1771  0.9418  1.7325
  560MOL0     H77249   6.858   2.902   9.409 -1.3209  0.4240  1.8996
  560MOL0     H77250   6.901   2.678   9.449  0.4984 -1.5313  1.3254
  560MOL0     H77251   6.731   2.633   9.461  0.6745 -0.8137 -0.0318
  560MOL0     H77252   6.729   2.754   9.687  0.6367  1.4796  1.1274
  560MOL0     H77253   6.879   2.662   9.675  0.1262  1.7851  3.3793
  560MOL0     H77254   6.894   2.917   9.769  1.4382  1.3003 -0.7617
  560MOL0     H77255   6.892   2.959   9.603  5.5010  0.3924 -2.0403
  560MOL0     H77256   7.080   2.797   9.563 -0.1437  0.7089  0.4480
  560MOL0     H77257   7.078   2.761   9.742 -1.8026 -1.4663 -0.7275
  560MOL0     H77258   7.111   2.990   9.768  1.1416  0.1898  0.0118
  560MOL0     H77259   7.142   3.035   9.609  1.3885 -0.3089  0.4708
  560MOL0     H77260   6.886   3.169   9.139 -0.0816  0.1235 -0.1927
  560MOL0     H77261   6.872   3.390   9.031 -0.5659 -0.3659  0.5221
  560MOL0     H77262   6.834   3.567   8.556 -0.1556 -0.1786  0.5977
  560MOL0     H77263   6.770   3.726   8.388  2.7056 -0.3757  1.5145
  560MOL0     H77264   5.128   4.805   7.915  1.1753 -0.4294  0.8370
  560MOL0     H77265   5.097   5.039   7.805 -3.4028  0.1561 -1.6552
  560MOL0     H77266   4.906   5.247   7.487  1.1903 -1.4261  0.2307
  560MOL0     H77267   4.814   5.427   7.404  1.9348  0.8025  3.7762
  560MOL0     H77268   4.784   5.548   7.029 -1.9926 -1.0086 -0.8917
  560MOL0     H77269   4.746   5.450   7.161 -3.7321  1.0511 -0.6348
  560MOL0     H77270   4.682   5.736   7.230  0.0728 -0.3825  1.6526
  560MOL0     H77271   4.615   5.575   7.276 -2.6875  0.7703  0.3989
  560MOL0     H77272   4.589   5.718   7.019 -0.4227  2.2905  1.5042
  560MOL0     H77273   4.539   5.546   7.046 -0.2458  0.5186 -1.9433
  560MOL0     H77274   4.392   5.618   7.232 -1.2900 -0.5837 -0.6578
  560MOL0     H77275   4.337   5.677   7.073 -0.9011 -0.5839  1.0776
  560MOL0     H77276   4.442   6.011   7.341  1.0712  0.0680  0.1801
  560MOL0     H77277   5.137   5.500   7.140  3.0717  1.3920  2.5483
  560MOL0     H77278   5.277   5.169   7.173 -0.9817 -0.8506  3.5922
  560MOL0     H77279   5.285   5.343   7.107  0.1275  2.0942  1.4320
  560MOL0     H77280   5.361   5.306   7.261 -1.9560 -1.3152  2.4979
  561MOL0     O77281   7.985   5.437  11.445 -0.8931 -0.1857 -0.8348
  561MOL0     C77282   7.891   5.375  11.501  0.0588 -0.7396  0.4431
  561MOL0     O77283   7.877   5.246  11.508  0.2168 -0.7884  0.0619
  561MOL0     C77284   7.986   5.180  11.549  0.2733 -0.0025  0.2736
  561MOL0     C77285   8.101   5.161  11.469 -0.7394  0.4203 -0.1844
  561MOL0     C77286   8.222   5.088  11.515 -0.0682 -0.5641  0.9326
  561MOL0     C77287   8.221   5.026  11.640  0.3396  0.3632  0.3996
  561MOL0     O77288   8.308   4.929  11.689  0.3897  0.3842  0.2859
  561MOL0     C77289   8.416   4.886  11.606 -0.2482  0.9132  0.5782
  561MOL0     C77290   8.482   4.763  11.663  0.9810 -0.4875 -0.8175
  561MOL0     C77291   8.390   4.634  11.640 -0.3737  0.7745 -0.5534
  561MOL0     C77292   8.318   4.610  11.774  0.8467  0.8660 -0.3178
  561MOL0     C77293   8.239   4.472  11.764 -0.9471  0.0997 -0.1807
  561MOL0     C77294   8.340   4.354  11.769 -0.1169 -0.3373 -1.1715
  561MOL0     C77295   8.280   4.217  11.821  0.3752  0.0307  0.1898
  561MOL0     C77296   8.168   4.170  11.731 -0.4134  0.7067  0.1663
  561MOL0     N77297   8.050   4.114  11.807  0.6595 -0.0449  0.7658
  561MOL0     C77298   8.001   3.990  11.793 -0.8560 -0.6315 -0.6588
  561MOL0     C77299   7.884   3.991  11.872  0.0438 -0.2442  0.2545
  561MOL0     C77300   7.792   3.879  11.906  0.1690 -0.0990  1.0550
  561MOL0     C77301   7.676   3.916  12.000  0.0055 -0.0449 -0.5439
  561MOL0     C77302   7.580   3.794  12.020 -0.3343 -0.5008  0.6275
  561MOL0     C77303   7.540   3.769  12.155 -0.0178 -0.2639  0.7784
  561MOL0     O77304   7.654   3.720  12.226  0.8830 -0.1109  0.2650
  561MOL0     C77305   7.665   3.586  12.249  0.0941  0.2089 -0.7966
  561MOL0     C77306   7.584   3.520  12.334  0.3033 -0.5302 -0.8639
  561MOL0     C77307   7.610   3.393  12.373 -0.0803  0.1624 -0.1192
  561MOL0     C77308   7.499   3.335  12.454 -0.3805 -0.0405 -0.1441
  561MOL0     C77309   7.709   3.317  12.309 -0.9643  0.2542 -1.5328
  561MOL0     C77310   7.732   3.171  12.329 -0.0326  0.5884  1.0654
  561MOL0     O77311   7.822   3.104  12.253 -0.2441  0.7793  0.5635
  561MOL0     C77312   7.888   2.991  12.302  0.0341 -0.0201  0.4442
  561MOL0     C77313   7.889   2.878  12.216 -0.1455 -0.2070  1.1034
  561MOL0     C77314   7.989   2.776  12.238  1.1906  0.0074  0.0757
  561MOL0     C77315   8.059   2.772  12.356  0.2064  0.0855  0.4541
  561MOL0     O77316   8.155   2.678  12.389  0.1834 -0.5890 -0.2414
  561MOL0     C77317   8.116   2.552  12.346 -0.8062 -0.0366  0.5011
  561MOL0     C77318   8.220   2.445  12.399 -0.2595 -0.0119 -1.1381
  561MOL0     C77319   8.356   2.444  12.320 -0.0324  0.2351  0.3359
  561MOL0     C77320   8.429   2.315  12.337 -0.6562 -0.5767  0.3961
  561MOL0     C77321   8.368   2.196  12.257 -0.0887 -0.4906 -0.6940
  561MOL0     C77322   8.327   2.088  12.357  0.1033  1.0521  0.1440
  561MOL0     C77323   8.275   1.973  12.268  0.0085  0.0775  0.4918
  561MOL0     C77324   8.210   1.852  12.344 -0.8784 -0.0289  0.4107
  561MOL0    Cl77325   8.066   1.896  12.415 -0.0940  0.5711 -0.1568
  561MOL0     C77326   8.030   2.868  12.447  0.2002 -0.7723  0.5022
  561MOL0     C77327   7.947   2.976  12.426 -0.1212 -0.1264 -0.0775
  561MOL0     O77328   7.679   3.120  12.432 -0.1547 -1.0252  0.1388
  561MOL0     C77329   7.806   3.392  12.237  0.7360  0.1837  0.5810
  561MOL0     C77330   7.782   3.529  12.203  0.6408 -0.1815 -0.6504
  561MOL0     N77331   7.880   4.112  11.940 -0.2595 -0.7634  0.5133
  561MOL0     N77332   7.973   4.185  11.889 -0.1337 -0.2812 -0.3866
  561MOL0     C77333   8.106   5.045  11.719  0.6264  1.4155  1.1049
  561MOL0     C77334   7.998   5.123  11.675  0.1069 -0.4628 -0.3383
  561MOL0     C77335   7.786   5.459  11.570 -0.0138 -1.2043 -0.7221
  561MOL0     C77336   7.779   5.444  11.706  0.4250  0.0196  0.6857
  561MOL0     C77337   7.694   5.516  11.787  1.0085 -0.3650 -0.5244
  561MOL0     C77338   7.616   5.620  11.721  0.1854 -0.1017 -0.1612
  561MOL0     O77339   7.537   5.702  11.795 -0.5992  0.4080 -0.1487
  561MOL0     C77340   7.454   5.620  11.880  0.2005 -0.2361 -0.5212
  561MOL0     C77341   7.359   5.720  11.946  0.2933  0.1815  0.7272
  561MOL0     C77342   7.235   5.754  11.857 -0.4710 -0.8778  0.0660
  561MOL0     C77343   7.151   5.866  11.925  0.8719 -0.0538  0.0625
  561MOL0     C77344   7.032   5.889  11.832  0.4444 -0.7859 -0.6094
  561MOL0     C77345   6.947   5.915  11.754 -0.6634  0.3360  1.1423
  561MOL0     C77346   7.625   5.636  11.581 -1.0885  0.1289 -0.1175
  561MOL0     C77347   7.711   5.564  11.503 -0.3518 -0.1445  0.3249
  561MOL0     C77348   7.718   5.588  11.356 -0.1389 -0.3776 -0.0672
  561MOL0     H77349   8.103   5.215  11.375  0.9444  0.1516 -0.3394
  561MOL0     H77350   8.302   5.077  11.442 -1.1504 -1.1182 -0.2059
  561MOL0     H77351   8.490   4.964  11.585 -0.4770  0.9459 -0.1465
  561MOL0     H77352   8.376   4.867  11.506 -0.0199  2.7544  0.0959
  561MOL0     H77353   8.576   4.742  11.611  0.0572 -0.0172 -2.7716
  561MOL0     H77354   8.508   4.786  11.767 -0.8373 -3.5432  0.4440
  561MOL0     H77355   8.316   4.646  11.560 -0.0819 -1.5245 -1.2450
  561MOL0     H77356   8.458   4.550  11.624  0.8092  0.6989  3.6079
  561MOL0     H77357   8.382   4.606  11.862 -0.5637 -3.5382  0.7802
  561MOL0     H77358   8.251   4.693  11.800  2.3900  2.1016 -0.1550
  561MOL0     H77359   8.168   4.468  11.680 -0.8281 -0.2488 -0.2683
  561MOL0     H77360   8.177   4.464  11.854 -1.8382 -1.7912 -0.9063
  561MOL0     H77361   8.386   4.341  11.671 -1.6184 -1.4153 -1.7778
  561MOL0     H77362   8.416   4.383  11.842  0.1692 -2.1202 -0.7165
  561MOL0     H77363   8.241   4.221  11.924 -0.2758  0.7571 -0.0743
  561MOL0     H77364   8.366   4.149  11.812  0.1301 -0.3401  0.5842
  561MOL0     H77365   8.124   4.259  11.684  1.2586  1.3796 -0.2109
  561MOL0     H77366   8.206   4.106  11.651 -1.7526 -1.6751  1.3398
  561MOL0     H77367   8.047   3.907  11.740  3.1184 -1.4614  3.4111
  561MOL0     H77368   7.846   3.801  11.960  0.0441  0.2805  1.7317
  561MOL0     H77369   7.748   3.835  11.816  0.6137 -0.5122  1.0354
  561MOL0     H77370   7.712   3.950  12.098 -1.6553 -3.9697  1.6438
  561MOL0     H77371   7.616   3.991  11.947 -0.5989 -1.5348 -2.0443
  561MOL0     H77372   7.492   3.815  11.959 -0.0459  0.2116  0.4491
  561MOL0     H77373   7.633   3.712  11.971  0.3010  1.9557 -3.3193
  561MOL0     H77374   7.513   3.868  12.194  3.6880  1.3712 -0.3480
  561MOL0     H77375   7.456   3.700  12.143 -0.6491  0.1427  2.5245
  561MOL0     H77376   7.496   3.571  12.372  1.0375 -1.2658  2.0736
  561MOL0     H77377   7.527   3.273  12.540 -1.5425 -1.4977 -0.7867
  561MOL0     H77378   7.447   3.268  12.385 -2.4360 -0.7183  1.9371
  561MOL0     H77379   7.418   3.401  12.485 -0.7254 -0.1546 -0.8014
  561MOL0     H77380   7.829   2.863  12.127 -0.9907 -2.1425  1.9533
  561MOL0     H77381   7.997   2.711  12.151  0.9929  1.8251 -1.3623
  561MOL0     H77382   8.017   2.536  12.388 -1.1755 -0.2329 -0.4298
  561MOL0     H77383   8.111   2.536  12.238 -1.0906 -2.9986  0.8690
  561MOL0     H77384   8.243   2.463  12.504 -0.1767  0.1624 -1.1861
  561MOL0     H77385   8.175   2.345  12.399 -1.0821  0.2850  1.4157
  561MOL0     H77386   8.407   2.539  12.338 -1.1824  0.7485  1.0638
  561MOL0     H77387   8.322   2.449  12.217  1.7949  1.5682 -0.2458
  561MOL0     H77388   8.432   2.294  12.445 -0.2450  0.1706  0.5345
  561MOL0     H77389   8.529   2.341  12.301  0.3291 -0.4128  2.9739
  561MOL0     H77390   8.281   2.219  12.197 -2.3528 -0.6815  2.2670
  561MOL0     H77391   8.449   2.171  12.188  0.1678 -0.2238 -0.4901
  561MOL0     H77392   8.238   2.124  12.410 -1.3697 -0.2613 -1.3218
  561MOL0     H77393   8.402   2.053  12.428 -1.3019 -1.4830  0.5063
  561MOL0     H77394   8.355   1.931  12.207  0.7634 -0.0520  1.5447
  561MOL0     H77395   8.203   2.019  12.200  0.1024 -1.5045 -0.7188
  561MOL0     H77396   8.282   1.827  12.422 -1.2733  1.6336  1.3627
  561MOL0     H77397   8.196   1.763  12.281  1.8810 -1.3518  1.5292
  561MOL0     H77398   8.081   2.873  12.543  0.6830  2.1446  0.1994
  561MOL0     H77399   7.952   3.064  12.489  0.0424 -2.0410  2.7784
  561MOL0     H77400   7.887   3.335  12.191 -0.0544  0.6991 -1.5817
  561MOL0     H77401   7.858   3.586  12.150 -0.0110  0.9534 -0.4013
  561MOL0     H77402   8.107   4.982  11.807 -1.2223 -1.1217 -0.5493
  561MOL0     H77403   7.904   5.140  11.726 -0.9544 -0.3732 -2.2157
  561MOL0     H77404   7.839   5.367  11.753  1.1941  1.1636  1.6432
  561MOL0     H77405   7.687   5.507  11.894 -4.3458  5.2246  0.1851
  561MOL0     H77406   7.410   5.543  11.817  0.1909 -1.6391  1.1349
  561MOL0     H77407   7.515   5.565  11.952  0.8357  1.2561  0.1276
  561MOL0     H77408   7.412   5.812  11.973 -0.9609  1.3853 -0.7463
  561MOL0     H77409   7.311   5.678  12.035 -0.3255 -1.6851 -0.4419
  561MOL0     H77410   7.262   5.786  11.756  2.1676 -1.5337  0.4879
  561MOL0     H77411   7.188   5.656  11.849 -1.1120 -0.4344 -2.3113
  561MOL0     H77412   7.207   5.957  11.947 -1.6585  1.8161 -0.7898
  561MOL0     H77413   7.109   5.840  12.023  0.0790 -0.9663 -0.5051
  561MOL0     H77414   6.864   5.939  11.690  0.1977 -0.9103 -0.5348
  561MOL0     H77415   7.553   5.702  11.534  1.8471  1.1180 -3.7152
  561MOL0     H77416   7.650   5.667  11.324  1.8698  0.5866 -2.3450
  561MOL0     H77417   7.818   5.625  11.331  0.4695  1.1263  3.9370
  561MOL0     H77418   7.684   5.499  11.301 -1.7948  1.9843 -3.1516
  562MOL0     O77419   9.487  10.260   2.620 -0.1729  0.8193  0.7690
  562MOL0     C77420   9.484  10.305   2.731  0.7060 -0.3360  0.3122
  562MOL0     O77421   9.394  10.413   2.771 -0.1408 -0.3388  0.1472
  562MOL0     C77422   9.321  10.476   2.670 -0.0893  0.8510 -0.3180
  562MOL0     C77423   9.374  10.539   2.550 -0.5078 -0.8187  0.3312
  562MOL0     C77424   9.287  10.580   2.441 -0.2043  0.2815 -0.1933
  562MOL0     C77425   9.147  10.577   2.468 -0.6038  0.0229 -0.3144
  562MOL0     O77426   9.066  10.622   2.365 -0.3983 -0.0190 -0.1772
  562MOL0     C77427   8.925  10.624   2.385  0.0842 -0.3412  0.0001
  562MOL0     C77428   8.855  10.664   2.247 -0.8047 -0.1783  0.4606
  562MOL0     C77429   8.727  10.727   2.265  0.2151 -0.7113 -0.1979
  562MOL0     C77430   8.666  10.784   2.134 -0.5373  1.1086 -0.4143
  562MOL0     C77431   8.620  10.667   2.043  0.5953 -0.4283 -0.3370
  562MOL0     C77432   8.555  10.726   1.919  0.5595 -0.1248 -0.3181
  562MOL0     C77433   8.523  10.635   1.801 -0.0818  0.0174  0.5865
  562MOL0     C77434   8.424  10.518   1.826 -0.5595  0.2182  0.1480
  562MOL0     N77435   8.287  10.561   1.862  0.2174  0.3426  0.2983
  562MOL0     C77436   8.231  10.550   1.989 -0.1942  0.5568  0.6879
  562MOL0     C77437   8.099  10.573   1.964 -0.2647  1.0088 -0.1588
  562MOL0     C77438   7.992  10.559   2.068  0.7288 -0.3216  0.2144
  562MOL0     C77439   7.998  10.651   2.188  0.0076 -0.2514 -0.2074
  562MOL0     C77440   7.886  10.632   2.292 -0.4492 -0.4805 -0.0348
  562MOL0     C77441   7.943  10.680   2.425 -0.1054 -0.0022 -0.2645
  562MOL0     O77442   7.829  10.717   2.511  0.2538 -0.5513 -0.6036
  562MOL0     C77443   7.853  10.799   2.617  0.1326 -0.9040 -0.1946
  562MOL0     C77444   7.960  10.783   2.699 -0.2281 -0.0174 -0.7237
  562MOL0     C77445   7.998  10.881   2.800 -0.1627 -0.7065 -0.9881
  562MOL0     C77446   8.121  10.856   2.888 -0.6021  0.6653  0.3620
  562MOL0     C77447   7.909  10.986   2.826  1.0868  0.2686  0.3611
  562MOL0     C77448   7.920  11.086   2.948 -0.1489  0.1463 -0.7180
  562MOL0     O77449   7.819  11.191   2.949  1.4537  0.6721  0.3299
  562MOL0     C77450   7.782  11.258   3.063  0.3053 -0.6957 -0.0776
  562MOL0     C77451   7.804  11.198   3.194 -0.4257 -0.6367 -1.0032
  562MOL0     C77452   7.787  11.267   3.314 -0.1912  1.2751 -0.8099
  562MOL0     C77453   7.741  11.394   3.316  0.4119  0.1988  0.4572
  562MOL0     O77454   7.735  11.456   3.437 -0.7512 -0.3894 -0.1150
  562MOL0     C77455   7.609  11.520   3.450 -0.2972 -1.4489 -0.6094
  562MOL0     C77456   7.642  11.665   3.460  0.9454  0.3870 -0.3145
  562MOL0     C77457   7.522  11.744   3.511 -0.1326 -0.0944 -0.9646
  562MOL0     C77458   7.554  11.899   3.514 -0.5347 -0.3261 -0.4142
  562MOL0     C77459   7.679  11.934   3.596  0.7857 -0.0729  0.5640
  562MOL0     C77460   7.676  11.920   3.749  0.1892  0.2592  0.6178
  562MOL0     C77461   7.576  12.026   3.804 -0.0231  0.1052 -0.4283
  562MOL0     C77462   7.612  12.175   3.786 -0.3098 -0.2049 -0.6793
  562MOL0    Cl77463   7.765  12.194   3.884  0.0900  0.1290  0.0352
  562MOL0     C77464   7.731  11.467   3.190  0.2148 -0.4747 -0.3928
  562MOL0     C77465   7.749  11.400   3.064 -0.6498  0.7454  0.3116
  562MOL0     O77466   7.998  11.062   3.037  0.1817  0.4862 -0.7096
  562MOL0     C77467   7.807  11.005   2.731  0.4921 -0.4873  0.0943
  562MOL0     C77468   7.781  10.912   2.632  0.4678  0.3725 -0.4114
  562MOL0     N77469   8.074  10.580   1.831 -0.4389  0.6275  0.2048
  562MOL0     N77470   8.183  10.567   1.770 -0.1329 -0.3650  0.9466
  562MOL0     C77471   9.097  10.535   2.590 -1.1688  0.0803 -0.1447
  562MOL0     C77472   9.180  10.478   2.681  1.1098  0.0991  0.0316
  562MOL0     C77473   9.588  10.244   2.815 -0.4698  0.1065 -0.4001
  562MOL0     C77474   9.695  10.167   2.758  0.4609 -0.3285 -0.4370
  562MOL0     C77475   9.804  10.118   2.834  1.6542 -0.9494  1.1996
  562MOL0     C77476   9.821  10.155   2.964  0.2294 -0.2928  0.6614
  562MOL0     O77477   9.934  10.116   3.023  0.2860  1.0175 -0.3164
  562MOL0     C77478   9.918  10.046   3.146  0.9218  0.0594  0.1437
  562MOL0     C77479  10.029   9.943   3.173  0.6374  1.2848 -0.1898
  562MOL0     C77480  10.053   9.857   3.041 -0.4512 -0.0743 -0.0110
  562MOL0     C77481   9.928   9.806   2.963 -0.4153  0.0240  0.3421
  562MOL0     C77482   9.959   9.746   2.834 -0.3942  0.2967 -0.4405
  562MOL0     C77483   9.975   9.706   2.721 -0.4761 -0.6711  0.7456
  562MOL0     C77484   9.721  10.240   3.025 -0.2646  0.4733 -0.5062
  562MOL0     C77485   9.608  10.283   2.951 -0.1586  0.3989  0.7683
  562MOL0     C77486   9.513  10.378   3.017  0.0159  0.1348 -0.4196
  562MOL0     H77487   9.480  10.539   2.528 -0.6227  0.7747 -0.3210
  562MOL0     H77488   9.316  10.619   2.344 -0.6227  0.6861 -0.1600
  562MOL0     H77489   8.901  10.689   2.470 -1.7140 -1.1306  0.1494
  562MOL0     H77490   8.897  10.522   2.413  0.2083 -0.0990  1.0194
  562MOL0     H77491   8.921  10.725   2.184 -0.6710 -1.7515 -1.0309
  562MOL0     H77492   8.847  10.565   2.199  0.2149 -0.0078 -0.0934
  562MOL0     H77493   8.651  10.657   2.299 -1.4920 -0.5067 -3.2022
  562MOL0     H77494   8.737  10.802   2.344  0.4227 -1.3779  0.4119
  562MOL0     H77495   8.579  10.842   2.166 -0.5267  0.8008  0.1929
  562MOL0     H77496   8.739  10.847   2.083  0.4172  0.1235 -0.3128
  562MOL0     H77497   8.563  10.597   2.106  1.2410 -0.3810  0.3210
  562MOL0     H77498   8.707  10.609   2.011  1.0269 -0.0205  0.0744
  562MOL0     H77499   8.466  10.778   1.955  0.1167  0.2533 -1.8794
  562MOL0     H77500   8.613  10.804   1.868 -0.0789 -2.1695 -4.6059
  562MOL0     H77501   8.616  10.587   1.770  0.4262  0.5484  1.2818
  562MOL0     H77502   8.490  10.697   1.717  2.3915 -1.9431 -2.0412
  562MOL0     H77503   8.412  10.461   1.733  2.2734 -2.6490  1.3667
  562MOL0     H77504   8.477  10.449   1.892 -0.8542 -0.0766  0.0777
  562MOL0     H77505   8.268  10.529   2.089  1.0698 -0.5134  0.0197
  562MOL0     H77506   7.996  10.451   2.088  0.9557 -0.4606 -0.5341
  562MOL0     H77507   7.903  10.577   2.007  2.1985  2.0109 -1.3605
  562MOL0     H77508   8.101  10.654   2.223  0.8158  0.5005 -2.4951
  562MOL0     H77509   7.987  10.754   2.153  1.1178  0.0672  0.3551
  562MOL0     H77510   7.804  10.697   2.259 -1.4008 -1.9107 -0.5502
  562MOL0     H77511   7.855  10.528   2.300  0.7666 -0.9351 -1.0925
  562MOL0     H77512   7.992  10.598   2.479 -2.7398 -0.7441  1.1860
  562MOL0     H77513   8.001  10.772   2.422 -0.7570  0.5120  1.4385
  562MOL0     H77514   8.020  10.693   2.694 -1.4570 -0.7969 -2.2996
  562MOL0     H77515   8.080  10.816   2.981  1.1779 -2.0717  0.0755
  562MOL0     H77516   8.196  10.935   2.897  2.1608 -0.9787 -4.4798
  562MOL0     H77517   8.180  10.779   2.838  0.6653  2.4934 -1.0883
  562MOL0     H77518   7.838  11.098   3.217  0.0965 -0.0126  1.1515
  562MOL0     H77519   7.820  11.222   3.407  1.2375  0.5949 -1.6177
  562MOL0     H77520   7.535  11.494   3.373 -1.4800 -1.1535  0.3928
  562MOL0     H77521   7.564  11.494   3.546  0.5420 -1.3174 -0.1813
  562MOL0     H77522   7.718  11.671   3.539  0.4332  1.2159  0.1260
  562MOL0     H77523   7.667  11.700   3.359 -3.4129  0.2988 -1.6445
  562MOL0     H77524   7.503  11.715   3.615 -0.8438 -2.2259 -1.6406
  562MOL0     H77525   7.432  11.722   3.452 -0.9149  0.5396 -0.0504
  562MOL0     H77526   7.467  11.956   3.550  0.7641  1.8911 -0.6289
  562MOL0     H77527   7.570  11.925   3.409 -1.1712 -0.6787 -0.6068
  562MOL0     H77528   7.767  11.878   3.563  0.0598 -0.9707  0.0815
  562MOL0     H77529   7.694  12.041   3.579 -1.8167  0.0251 -1.8001
  562MOL0     H77530   7.780  11.929   3.780 -0.1182  0.1209  1.7615
  562MOL0     H77531   7.643  11.820   3.778 -0.6263 -0.1555 -1.5366
  562MOL0     H77532   7.594  12.016   3.912  1.2223 -0.3113 -0.6582
  562MOL0     H77533   7.473  12.003   3.779  0.4321  0.0880 -2.4156
  562MOL0     H77534   7.542  12.231   3.848  2.4871  0.1086  2.4455
  562MOL0     H77535   7.622  12.210   3.683 -0.0208  2.9574  0.3113
  562MOL0     H77536   7.720  11.574   3.198 -0.6450 -0.6688  1.8258
  562MOL0     H77537   7.742  11.447   2.966  1.4526 -2.2914 -1.4591
  562MOL0     H77538   7.731  11.081   2.743 -1.6708 -2.2078 -1.8614
  562MOL0     H77539   7.710  10.921   2.551 -0.8964  0.9260  0.7952
  562MOL0     H77540   8.993  10.543   2.618 -0.6362  2.8999  1.3426
  562MOL0     H77541   9.131  10.443   2.771 -1.7319  1.1848 -0.9892
  562MOL0     H77542   9.678  10.122   2.660 -2.6767 -3.2145  1.1869
  562MOL0     H77543   9.881  10.059   2.785  1.4946 -1.4380  1.5258
  562MOL0     H77544   9.909  10.115   3.230  0.4894  0.4412 -0.2131
  562MOL0     H77545   9.821   9.997   3.156 -0.1429  1.5002 -2.2689
  562MOL0     H77546  10.007   9.888   3.265  3.7828 -0.3835 -0.2666
  562MOL0     H77547  10.119  10.003   3.190  2.0180 -0.7474  0.1818
  562MOL0     H77548  10.113   9.918   2.973 -1.5738  2.6218  1.2889
  562MOL0     H77549  10.120   9.775   3.070 -0.4442  0.7507  2.4405
  562MOL0     H77550   9.867   9.894   2.943  1.7010  1.0800 -2.0928
  562MOL0     H77551   9.872   9.729   3.017 -0.6492  1.9829  3.0617
  562MOL0     H77552  10.005   9.668   2.625  0.9975 -2.2485  1.7594
  562MOL0     H77553   9.731  10.273   3.128 -4.5049  1.4205 -0.2181
  562MOL0     H77554   9.407  10.367   2.993  0.1637  1.6017 -1.8699
  562MOL0     H77555   9.517  10.361   3.125 -2.4642 -2.3273 -0.6069
  562MOL0     H77556   9.541  10.482   2.999 -2.6926  1.1869  0.7624
  563MOL0     O77557  11.469   9.044   6.913  0.3482  1.1173 -0.1466
  563MOL0     C77558  11.538   8.944   6.907 -0.0317  0.3864  0.7522
  563MOL0     O77559  11.604   8.899   6.791  0.6805 -0.4193 -0.1978
  563MOL0     C77560  11.594   8.975   6.673  0.3604  0.1603  0.8733
  563MOL0     C77561  11.620   9.115   6.665  0.7546 -1.0360 -0.4659
  563MOL0     C77562  11.598   9.188   6.544 -0.6223 -0.2577  0.5537
  563MOL0     C77563  11.559   9.119   6.426 -0.6359  1.1007 -0.3227
  563MOL0     O77564  11.522   9.196   6.316 -0.1533 -0.9232 -0.4336
  563MOL0     C77565  11.502   9.135   6.182 -0.1922 -0.3306 -0.3298
  563MOL0     C77566  11.422   9.233   6.085 -0.0892  0.7014 -0.6733
  563MOL0     C77567  11.504   9.366   6.056 -0.3815  0.1382  0.5848
  563MOL0     C77568  11.649   9.329   6.022 -0.6444  0.9771  1.1963
  563MOL0     C77569  11.723   9.456   6.002  0.7193  0.2082 -0.2915
  563MOL0     C77570  11.860   9.437   5.948  0.4782 -0.0880 -0.3832
  563MOL0     C77571  11.973   9.382   6.038 -0.0090 -0.4217  0.5552
  563MOL0     C77572  11.989   9.467   6.165  0.3141  0.5403 -0.5721
  563MOL0     N77573  12.018   9.600   6.126  0.5684  0.5042  0.4974
  563MOL0     C77574  12.133   9.662   6.081 -0.0712 -0.0988 -0.4553
  563MOL0     C77575  12.119   9.793   6.105 -0.2625  0.3540 -0.0641
  563MOL0     C77576  12.222   9.898   6.100  0.8604 -1.2052 -0.1369
  563MOL0     C77577  12.359   9.840   6.164 -0.3400 -0.0817  0.6111
  563MOL0     C77578  12.358   9.846   6.316  0.1284 -0.2770  1.2604
  563MOL0     C77579  12.255   9.765   6.405  0.1420  0.2257 -0.7792
  563MOL0     O77580  12.289   9.623   6.396  0.8448  0.3995 -0.1245
  563MOL0     C77581  12.232   9.554   6.502 -0.7095  0.2697  0.5098
  563MOL0     C77582  12.097   9.525   6.503 -0.0407 -0.1591  0.6021
  563MOL0     C77583  12.041   9.457   6.609 -0.4540  0.4563  0.1888
  563MOL0     C77584  11.891   9.423   6.619 -0.2818  0.2523 -0.0826
  563MOL0     C77585  12.125   9.409   6.719  0.4884 -0.8903  0.3530
  563MOL0     C77586  12.077   9.321   6.830  0.3710  0.3636 -0.5732
  563MOL0     O77587  12.166   9.223   6.871  0.4552 -0.5479 -0.1930
  563MOL0     C77588  12.119   9.158   6.980  0.1737 -0.7495 -0.8084
  563MOL0     C77589  12.062   9.030   6.968  0.0998 -0.3386  0.3807
  563MOL0     C77590  12.001   8.966   7.086 -0.3370  0.1285  0.9164
  563MOL0     C77591  11.998   9.025   7.208  0.9811  0.1877 -0.5340
  563MOL0     O77592  11.971   8.946   7.312 -0.5614  0.5201 -0.1160
  563MOL0     C77593  11.896   9.007   7.426 -0.6252  0.4004 -0.1827
  563MOL0     C77594  11.758   9.060   7.391 -0.1175 -0.5043 -0.2860
  563MOL0     C77595  11.701   9.104   7.526  0.9210  0.4116 -0.4895
  563MOL0     C77596  11.549   9.134   7.505 -0.9007 -1.1390 -1.3591
  563MOL0     C77597  11.459   9.142   7.630 -1.1875 -0.6854  0.6885
  563MOL0     C77598  11.340   9.225   7.592 -0.0784  0.1613 -0.1524
  563MOL0     C77599  11.242   9.217   7.708  0.2804 -0.0125  0.2809
  563MOL0     C77600  11.094   9.198   7.674  0.9054 -0.1170 -0.2165
  563MOL0    Cl77601  10.997   9.217   7.817  0.3859 -0.2931 -0.4178
  563MOL0     C77602  12.073   9.146   7.223  0.4083 -0.1734  0.0920
  563MOL0     C77603  12.113   9.219   7.108  0.9288  0.2293  0.3927
  563MOL0     O77604  11.983   9.356   6.896  0.1776 -0.0357  0.5720
  563MOL0     C77605  12.266   9.428   6.712 -0.3550 -0.0316  0.2160
  563MOL0     C77606  12.318   9.495   6.597 -0.5431  0.4839  0.3448
  563MOL0     N77607  11.985   9.808   6.143  0.2332  0.3222 -0.3296
  563MOL0     N77608  11.928   9.697   6.150  0.0770  0.0999  0.5659
  563MOL0     C77609  11.545   8.982   6.425  0.1293  0.2554  0.1208
  563MOL0     C77610  11.561   8.916   6.546  0.4199  0.4072 -0.2537
  563MOL0     C77611  11.552   8.873   7.038 -0.0593 -0.9252  0.3820
  563MOL0     C77612  11.663   8.787   7.035  0.3530  0.1960  0.6382
  563MOL0     C77613  11.692   8.713   7.147 -0.0069 -0.1983 -0.3040
  563MOL0     C77614  11.613   8.706   7.258  1.0432 -0.8009  0.6899
  563MOL0     O77615  11.656   8.616   7.358 -0.2819  0.1106 -0.0758
  563MOL0     C77616  11.579   8.608   7.478 -0.1594 -0.3676 -0.2136
  563MOL0     C77617  11.459   8.512   7.464 -0.2594  0.2363  0.8561
  563MOL0     C77618  11.361   8.519   7.582 -0.9105 -0.0139  1.1818
  563MOL0     C77619  11.313   8.379   7.608  0.0801 -0.2231  0.7395
  563MOL0     C77620  11.218   8.367   7.713 -0.0010 -0.0881 -0.7834
  563MOL0     C77621  11.142   8.380   7.808  0.1748  0.0935  0.3465
  563MOL0     C77622  11.499   8.787   7.259  0.0327 -0.5770 -0.7150
  563MOL0     C77623  11.473   8.879   7.158 -0.2220 -0.4816 -0.9618
  563MOL0     C77624  11.374   8.988   7.183  0.2947 -0.0185  0.1188
  563MOL0     H77625  11.633   9.158   6.763  0.0479  1.1009 -1.2513
  563MOL0     H77626  11.602   9.296   6.535  2.0236 -0.3471 -0.0826
  563MOL0     H77627  11.435   9.050   6.177  0.9275 -1.1831 -3.3877
  563MOL0     H77628  11.595   9.105   6.132 -0.0978  3.4615 -2.8896
  563MOL0     H77629  11.402   9.173   5.996 -0.1056  2.2945 -1.7925
  563MOL0     H77630  11.325   9.252   6.131  0.1428 -0.1561  0.1937
  563MOL0     H77631  11.455   9.410   5.969 -0.6600 -2.1832 -0.4866
  563MOL0     H77632  11.508   9.425   6.148  2.1478 -0.0713  0.6860
  563MOL0     H77633  11.705   9.261   6.086  3.3803  0.6483 -2.2034
  563MOL0     H77634  11.657   9.275   5.927 -1.4333 -0.2327  1.7966
  563MOL0     H77635  11.733   9.520   6.090  3.3756  3.5709 -2.7844
  563MOL0     H77636  11.670   9.516   5.927  2.2187 -0.1862 -1.7175
  563MOL0     H77637  11.869   9.389   5.851  1.7790 -1.0857  0.2067
  563MOL0     H77638  11.896   9.536   5.916 -0.1128  1.0655  2.2197
  563MOL0     H77639  12.061   9.383   5.973 -2.6516  4.9925 -3.8035
  563MOL0     H77640  11.960   9.279   6.072 -2.7142 -0.8818 -1.4643
  563MOL0     H77641  11.904   9.456   6.233  1.8716 -0.1231  1.3578
  563MOL0     H77642  12.077   9.434   6.222  1.2161  0.5378 -1.9058
  563MOL0     H77643  12.222   9.608   6.052 -2.2181 -4.5924  0.3798
  563MOL0     H77644  12.196   9.981   6.166  3.0754 -1.4315  1.1396
  563MOL0     H77645  12.225   9.928   5.995 -1.8700 -1.3776 -0.3266
  563MOL0     H77646  12.377   9.733   6.148 -1.3454 -0.1325 -0.3481
  563MOL0     H77647  12.444   9.893   6.121 -1.4331  1.3921  0.2107
  563MOL0     H77648  12.452   9.800   6.348 -0.0728  0.0882  2.4258
  563MOL0     H77649  12.360   9.948   6.354  1.1304 -0.9307  3.1275
  563MOL0     H77650  12.248   9.795   6.510 -1.7435 -0.5163 -0.6536
  563MOL0     H77651  12.157   9.773   6.358 -0.3228 -1.0860 -0.1097
  563MOL0     H77652  12.030   9.561   6.426 -2.3570 -2.2457  1.4849
  563MOL0     H77653  11.864   9.320   6.642  0.1439  0.0860 -0.3221
  563MOL0     H77654  11.839   9.438   6.524 -0.9425 -1.4724 -0.0215
  563MOL0     H77655  11.853   9.498   6.690  1.0543  0.9510 -0.0681
  563MOL0     H77656  12.062   8.970   6.877  1.9150 -0.1771  0.2261
  563MOL0     H77657  11.948   8.873   7.077  1.9987 -1.2028  0.1034
  563MOL0     H77658  11.888   8.934   7.507 -0.4547 -1.8342 -2.1113
  563MOL0     H77659  11.951   9.091   7.471  3.5293 -0.6351 -2.7834
  563MOL0     H77660  11.760   9.145   7.323  0.8267 -1.9539 -2.1590
  563MOL0     H77661  11.701   8.976   7.349 -0.5033  0.8289 -2.5805
  563MOL0     H77662  11.741   9.199   7.562 -2.0247  1.4783  0.3024
  563MOL0     H77663  11.701   9.031   7.607 -0.6212  1.2587  0.3087
  563MOL0     H77664  11.504   9.060   7.438 -1.1347 -1.6889 -0.6089
  563MOL0     H77665  11.550   9.237   7.470 -0.3238  0.0887  1.9362
  563MOL0     H77666  11.438   9.037   7.652  1.8543 -1.3166  0.9272
  563MOL0     H77667  11.507   9.196   7.711  3.1966 -1.8893 -0.8369
  563MOL0     H77668  11.298   9.178   7.503  0.8197 -2.0667  0.5110
  563MOL0     H77669  11.354   9.330   7.564 -1.2136 -0.0210 -1.5151
  563MOL0     H77670  11.248   9.309   7.767 -2.1351 -0.4228  1.2984
  563MOL0     H77671  11.257   9.130   7.772 -1.9529 -1.1817 -0.6563
  563MOL0     H77672  11.078   9.102   7.625 -1.5581 -0.9793  2.0178
  563MOL0     H77673  11.053   9.269   7.600 -0.0172 -0.8810 -0.4545
  563MOL0     H77674  12.081   9.201   7.317  0.0779 -0.6036  0.3756
  563MOL0     H77675  12.125   9.327   7.118  0.4516  0.3676 -0.3885
  563MOL0     H77676  12.324   9.406   6.800  2.0534  0.7553 -1.0932
  563MOL0     H77677  12.421   9.529   6.590 -0.7323  0.8609 -0.7927
  563MOL0     H77678  11.521   8.919   6.340 -0.6343  0.1582  0.3943
  563MOL0     H77679  11.535   8.810   6.546 -0.9551  0.7254  0.3883
  563MOL0     H77680  11.732   8.788   6.952 -0.5754 -0.9720 -0.1889
  563MOL0     H77681  11.787   8.661   7.159  0.5855  0.7596 -0.7500
  563MOL0     H77682  11.642   8.592   7.566 -1.2783  4.2914  1.7399
  563MOL0     H77683  11.542   8.705   7.514  2.5793 -0.0626  2.0800
  563MOL0     H77684  11.517   8.419   7.459  0.5167  0.7341  0.3633
  563MOL0     H77685  11.398   8.528   7.374 -1.8861 -1.9493  1.5008
  563MOL0     H77686  11.416   8.553   7.670  0.1572 -0.9178  0.8965
  563MOL0     H77687  11.269   8.575   7.562 -2.2151 -1.9748  1.4121
  563MOL0     H77688  11.399   8.317   7.632  1.0543  0.2988 -1.2040
  563MOL0     H77689  11.270   8.329   7.520 -0.0040 -0.5066  0.9400
  563MOL0     H77690  11.103   8.404   7.905  1.4468  0.6263  0.7440
  563MOL0     H77691  11.427   8.784   7.340 -2.9294  0.1299 -3.1367
  563MOL0     H77692  11.410   9.090   7.167 -1.1619  0.8667  2.0511
  563MOL0     H77693  11.284   8.976   7.122  0.3920 -2.5698  0.3769
  563MOL0     H77694  11.335   8.987   7.285  1.0261 -0.5064  0.3987
  564MOL0     O77695   2.067   0.202   3.061 -0.1398  0.2089 -0.0559
  564MOL0     C77696   1.984   0.117   3.097  0.1186  0.1375  0.0658
  564MOL0     O77697   1.890   0.064   3.013  0.4870  0.6929 -0.3431
  564MOL0     C77698   1.907   0.075   2.876 -0.0565 -0.8717  1.0712
  564MOL0     C77699   1.994  -0.010   2.811 -0.7961 -0.2888  0.4534
  564MOL0     C77700   1.998  -0.025   2.674 -0.3986  0.3207  0.3430
  564MOL0     C77701   1.930   0.072   2.597 -0.7020 -0.9083 -0.1422
  564MOL0     O77702   1.916   0.071   2.458  0.2282  0.0079  0.3044
  564MOL0     C77703   1.965   0.186   2.386  0.5672 -1.2600  0.1620
  564MOL0     C77704   1.913   0.176   2.241  0.4955  0.2764  0.6873
  564MOL0     C77705   1.774   0.237   2.219  0.1738  0.8106 -0.0797
  564MOL0     C77706   1.705   0.158   2.105  0.9801 -0.5027  0.3992
  564MOL0     C77707   1.565   0.209   2.050  0.2913  1.2459 -0.5057
  564MOL0     C77708   1.518   0.344   2.106  0.9322 -0.8170  0.2592
  564MOL0     C77709   1.384   0.378   2.033  0.2463  0.1991 -0.3106
  564MOL0     C77710   1.311   0.499   2.095 -0.0058  0.5331  0.2521
  564MOL0     N77711   1.389   0.594   2.170 -0.7150  0.0148  0.2337
  564MOL0     C77712   1.501   0.663   2.142 -0.5344 -0.2306 -0.8443
  564MOL0     C77713   1.544   0.723   2.261  0.1278 -0.5106  0.0336
  564MOL0     C77714   1.684   0.781   2.281 -0.5937  0.0531 -0.4406
  564MOL0     C77715   1.792   0.684   2.339 -0.0593 -0.5570 -0.5300
  564MOL0     C77716   1.902   0.767   2.417  0.4676  0.2896  0.2141
  564MOL0     C77717   2.013   0.681   2.450  0.0053 -0.4187 -0.2522
  564MOL0     O77718   1.974   0.581   2.547 -0.5125 -0.1150  0.2278
  564MOL0     C77719   2.082   0.520   2.602  0.4804  0.4121  0.7166
  564MOL0     C77720   2.211   0.486   2.544  0.0630  0.5956  0.8241
  564MOL0     C77721   2.307   0.402   2.606 -0.2272  0.0059 -0.6125
  564MOL0     C77722   2.440   0.373   2.540 -0.6165 -1.4186  1.1421
  564MOL0     C77723   2.262   0.337   2.726  0.2597  0.0518 -0.4126
  564MOL0     C77724   2.336   0.234   2.788  0.1454  0.9583  0.0291
  564MOL0     O77725   2.354   0.254   2.921 -0.5045 -0.0866  0.8096
  564MOL0     C77726   2.437   0.177   2.989  0.6080 -0.1164 -0.4427
  564MOL0     C77727   2.522   0.242   3.079  0.0718  0.4977 -0.9393
  564MOL0     C77728   2.610   0.163   3.164  0.2781 -0.9281 -0.1126
  564MOL0     C77729   2.591   0.015   3.167 -0.7501 -0.3977  0.1727
  564MOL0     O77730   2.659  -0.064   3.253 -0.5915  0.0970  0.3760
  564MOL0     C77731   2.575  -0.118   3.361  0.1887 -0.1847 -0.4783
  564MOL0     C77732   2.588  -0.009   3.473 -0.6630 -0.2737  0.1546
  564MOL0     C77733   2.494  -0.062   3.583  0.4025 -0.5604 -0.3258
  564MOL0     C77734   2.423   0.049   3.652  0.0597 -0.4558 -0.3032
  564MOL0     C77735   2.332  -0.009   3.747 -0.2880 -0.1589 -0.2139
  564MOL0     C77736   2.261   0.098   3.827  0.1001  0.4750 -0.3055
  564MOL0     C77737   2.154   0.043   3.920 -0.2006  0.0858 -0.0912
  564MOL0     C77738   2.061   0.156   3.958 -1.2582 -0.2392  0.2633
  564MOL0    Cl77739   1.937   0.108   4.072 -0.0115  0.0919 -0.5050
  564MOL0     C77740   2.496  -0.041   3.074 -0.6736  0.3896  0.4406
  564MOL0     C77741   2.427   0.041   2.989  1.1152  0.3573  0.3211
  564MOL0     O77742   2.392   0.142   2.724 -0.2967 -0.3434  0.1591
  564MOL0     C77743   2.135   0.368   2.782  0.4885  0.7043  0.1057
  564MOL0     C77744   2.051   0.462   2.725  0.1279  0.8625  0.3056
  564MOL0     N77745   1.454   0.671   2.360  0.5547 -0.1804  0.1927
  564MOL0     N77746   1.356   0.611   2.301 -0.1714  0.1522  0.0690
  564MOL0     C77747   1.860   0.173   2.660  1.0756  0.5903 -0.0253
  564MOL0     C77748   1.839   0.171   2.794  0.5330 -0.1885  0.0229
  564MOL0     C77749   1.960   0.097   3.244 -0.6831  0.0735  0.1883
  564MOL0     C77750   1.827   0.081   3.296  0.1396 -0.3847 -0.5948
  564MOL0     C77751   1.811   0.039   3.434 -0.0839 -1.6483 -0.5739
  564MOL0     C77752   1.922   0.036   3.516  1.0598  0.5708  0.4593
  564MOL0     O77753   1.904   0.006   3.647  0.4521  0.4141  0.2873
  564MOL0     C77754   1.778  -0.036   3.704  1.1729 -0.0110  0.5498
  564MOL0     C77755   1.701   0.081   3.760 -0.1985 -0.2178  0.6223
  564MOL0     C77756   1.553   0.058   3.812  0.5397  0.2035 -0.4972
  564MOL0     C77757   1.476   0.191   3.813 -0.2778 -0.4569 -0.2547
  564MOL0     C77758   1.535   0.284   3.913 -0.1542  0.0350  0.1986
  564MOL0     C77759   1.576   0.368   3.990 -0.5071  0.4340  0.2631
  564MOL0     C77760   2.048   0.045   3.464 -0.7956  0.2096 -0.2256
  564MOL0     C77761   2.070   0.066   3.331 -0.0346  0.4202  1.0047
  564MOL0     C77762   2.223   0.055   3.295  0.6246  0.2241 -0.1532
  564MOL0     H77763   2.060  -0.080   2.863  1.8970  2.3585  0.8532
  564MOL0     H77764   2.049  -0.114   2.639 -1.2638 -0.7498  1.7326
  564MOL0     H77765   2.074   0.177   2.382  0.8726 -0.0411  3.2150
  564MOL0     H77766   1.942   0.281   2.435 -0.2377 -1.9834  1.2419
  564MOL0     H77767   1.990   0.214   2.173  2.4179 -1.5108  1.7599
  564MOL0     H77768   1.911   0.070   2.217 -2.2429  0.6108 -0.9336
  564MOL0     H77769   1.716   0.241   2.311  1.4603  2.5713  0.7148
  564MOL0     H77770   1.798   0.340   2.193  0.9377  1.0965  1.5934
  564MOL0     H77771   1.759   0.163   2.010 -3.3093 -0.1057 -2.3110
  564MOL0     H77772   1.697   0.054   2.137 -2.4465 -0.0932  1.2643
  564MOL0     H77773   1.496   0.127   2.076  2.9953 -1.6212 -1.7113
  564MOL0     H77774   1.550   0.212   1.942 -2.6008  0.7427 -0.2181
  564MOL0     H77775   1.491   0.354   2.212 -0.9686  2.3356 -0.4065
  564MOL0     H77776   1.595   0.419   2.090 -0.4469  0.9294  1.4112
  564MOL0     H77777   1.319   0.291   2.042  0.1791  0.0470 -1.9800
  564MOL0     H77778   1.401   0.391   1.926 -1.8609  3.0791 -0.4092
  564MOL0     H77779   1.282   0.559   2.009  0.0198 -1.1998 -1.0103
  564MOL0     H77780   1.227   0.456   2.151  1.6407 -1.5121  1.2958
  564MOL0     H77781   1.544   0.678   2.043 -1.3525 -0.3856 -1.2366
  564MOL0     H77782   1.679   0.873   2.340 -0.0871  0.7288 -1.4344
  564MOL0     H77783   1.711   0.816   2.181 -2.2407  4.3695  0.4080
  564MOL0     H77784   1.749   0.611   2.409  1.0352 -1.3031 -0.6171
  564MOL0     H77785   1.840   0.622   2.263  4.4716  1.4166  0.4200
  564MOL0     H77786   1.933   0.858   2.366 -1.5340  2.6490  2.8695
  564MOL0     H77787   1.848   0.806   2.504 -0.9269 -1.8096  0.3797
  564MOL0     H77788   2.068   0.646   2.362  0.2872 -0.3141 -0.1224
  564MOL0     H77789   2.083   0.748   2.502  0.0242 -1.1237  0.6508
  564MOL0     H77790   2.237   0.524   2.445  1.4341 -0.9752  0.5425
  564MOL0     H77791   2.513   0.348   2.617 -1.1223  1.4246  2.6718
  564MOL0     H77792   2.473   0.465   2.491  1.5347 -3.1470 -0.9492
  564MOL0     H77793   2.443   0.301   2.458 -3.4267  1.0025 -1.3070
  564MOL0     H77794   2.506   0.349   3.080  1.0347  0.6563  0.1635
  564MOL0     H77795   2.665   0.214   3.242 -2.6150  0.0047  1.4389
  564MOL0     H77796   2.468  -0.134   3.342  0.1289  1.4555 -1.8104
  564MOL0     H77797   2.613  -0.209   3.407  0.5082 -0.3809 -1.1168
  564MOL0     H77798   2.687  -0.002   3.520 -1.1296 -0.8561  1.2673
  564MOL0     H77799   2.563   0.089   3.429  0.9676  1.0585  2.0112
  564MOL0     H77800   2.556  -0.127   3.646  0.4235 -0.1111  0.1220
  564MOL0     H77801   2.416  -0.129   3.546 -2.2145  0.3361  3.0468
  564MOL0     H77802   2.369   0.107   3.576  1.9483  1.0505 -0.5520
  564MOL0     H77803   2.492   0.116   3.703 -0.2799 -2.2365  2.7025
  564MOL0     H77804   2.253  -0.061   3.692 -0.6562  0.3287 -0.1487
  564MOL0     H77805   2.382  -0.070   3.823  0.0680  2.0883  1.4500
  564MOL0     H77806   2.205   0.161   3.758  0.8764  2.3446  0.7144
  564MOL0     H77807   2.327   0.165   3.883  0.4900 -0.8064  0.8197
  564MOL0     H77808   2.198  -0.003   4.009 -0.6533 -1.3883 -0.5994
  564MOL0     H77809   2.089  -0.034   3.877 -0.2356 -0.2689  0.5691
  564MOL0     H77810   2.004   0.180   3.868  0.9568  0.3157 -1.0863
  564MOL0     H77811   2.120   0.241   3.994 -0.8205 -0.8704  1.0760
  564MOL0     H77812   2.477  -0.147   3.064 -4.8651  0.8673  1.2636
  564MOL0     H77813   2.351  -0.005   2.927 -1.5190  2.0191  2.1005
  564MOL0     H77814   2.115   0.322   2.878  1.5421 -1.9034 -0.8398
  564MOL0     H77815   1.965   0.505   2.776  1.4078 -1.3909  4.9545
  564MOL0     H77816   1.802   0.247   2.608 -2.3749 -0.8057  1.5382
  564MOL0     H77817   1.764   0.236   2.837  1.4046  0.8690 -0.0130
  564MOL0     H77818   1.733   0.082   3.243 -0.9719 -0.7524  1.2725
  564MOL0     H77819   1.708   0.024   3.466 -0.2618 -2.1777 -1.3702
  564MOL0     H77820   1.715  -0.101   3.641  0.5615 -0.5748  1.6949
  564MOL0     H77821   1.796  -0.099   3.792  0.5731  0.1560  0.8002
  564MOL0     H77822   1.693   0.151   3.676  2.5541 -0.1756  0.3245
  564MOL0     H77823   1.754   0.131   3.841 -2.2117 -0.5130  2.2032
  564MOL0     H77824   1.506  -0.019   3.749 -1.3276 -0.7168  1.8273
  564MOL0     H77825   1.555   0.004   3.908  0.2130 -0.2438 -0.7385
  564MOL0     H77826   1.377   0.166   3.853  0.6933 -0.8260  2.1186
  564MOL0     H77827   1.455   0.236   3.716 -1.9866  1.0640  0.7329
  564MOL0     H77828   1.615   0.449   4.047  0.4255  1.2320 -1.4165
  564MOL0     H77829   2.131   0.022   3.530 -2.4218 -1.9653  1.1797
  564MOL0     H77830   2.238   0.016   3.193 -2.2839  0.0711 -0.6054
  564MOL0     H77831   2.259   0.157   3.278 -2.4742  1.7209  1.4884
  564MOL0     H77832   2.268  -0.002   3.377 -2.5512 -0.8062  1.0227
  565MOL0     O77833   9.507   8.858   0.943 -0.1412 -0.3332  0.6229
  565MOL0     C77834   9.495   8.798   0.839 -0.7656 -0.2732  0.4085
  565MOL0     O77835   9.590   8.793   0.744 -0.9398  0.4690 -0.4716
  565MOL0     C77836   9.698   8.877   0.751 -0.5747  0.8307  0.0719
  565MOL0     C77837   9.710   8.974   0.654  1.4195 -1.4824  0.3738
  565MOL0     C77838   9.827   9.048   0.636  0.5339  0.5071  0.0229
  565MOL0     C77839   9.941   9.021   0.709  0.0700  1.1488 -0.4200
  565MOL0     O77840  10.049   9.100   0.682 -0.2103  0.5893  0.1217
  565MOL0     C77841  10.154   9.099   0.780 -0.2923 -0.0406  0.2798
  565MOL0     C77842  10.260   9.207   0.747 -0.8313  1.2310  0.1185
  565MOL0     C77843  10.230   9.335   0.823 -0.7285  0.2375  0.3649
  565MOL0     C77844  10.349   9.437   0.799 -0.0430 -0.8426 -0.9981
  565MOL0     C77845  10.324   9.564   0.885 -0.4264  0.0380  0.7027
  565MOL0     C77846  10.387   9.689   0.829  0.2886 -0.3429 -0.4846
  565MOL0     C77847  10.537   9.676   0.810  0.1094  0.0890  0.1071
  565MOL0     C77848  10.622   9.691   0.934  0.0367  0.5130  0.3717
  565MOL0     N77849  10.582   9.807   1.013 -0.0047 -0.4615 -0.7888
  565MOL0     C77850  10.596   9.941   0.969 -0.0952  0.2573 -0.0065
  565MOL0     C77851  10.529  10.010   1.064  0.0934 -0.2205 -0.2532
  565MOL0     C77852  10.518  10.154   1.083  0.8742  0.1255 -0.7871
  565MOL0     C77853  10.673  10.219   1.082  0.8318 -0.8928 -0.6266
  565MOL0     C77854  10.721  10.298   0.958  0.9799  0.6801 -0.2040
  565MOL0     C77855  10.842  10.381   0.987  0.6993 -0.1704 -0.9948
  565MOL0     O77856  10.948  10.295   1.017 -0.0071 -0.6069  0.1369
  565MOL0     C77857  11.079  10.336   0.987  0.3772 -1.0591 -0.0068
  565MOL0     C77858  11.151  10.250   0.907 -0.5189  0.2698 -0.3724
  565MOL0     C77859  11.277  10.306   0.857 -0.4855  0.5247 -0.1844
  565MOL0     C77860  11.359  10.211   0.769 -0.8583  0.1026 -1.1541
  565MOL0     C77861  11.312  10.441   0.867 -0.3352  0.2958 -0.3490
  565MOL0     C77862  11.427  10.507   0.811  0.1586  0.0134 -1.0842
  565MOL0     O77863  11.549  10.502   0.872  0.4738 -0.0522  1.0590
  565MOL0     C77864  11.658  10.567   0.810 -0.6803 -0.1337 -0.2310
  565MOL0     C77865  11.778  10.500   0.806  0.4515 -1.2271  0.1932
  565MOL0     C77866  11.884  10.561   0.735 -0.1601  0.3717 -0.2581
  565MOL0     C77867  11.871  10.682   0.663  0.1094 -0.3585  0.1434
  565MOL0     O77868  11.971  10.749   0.598  0.4250 -0.3613  0.9006
  565MOL0     C77869  12.093  10.729   0.670 -1.7361 -0.4623  0.5143
  565MOL0     C77870  12.194  10.847   0.647 -0.1651  0.6807  0.1798
  565MOL0     C77871  12.330  10.830   0.718 -0.2742  0.0705  0.6498
  565MOL0     C77872  12.359  10.945   0.809  0.9917  1.0427 -0.6020
  565MOL0     C77873  12.423  11.068   0.749  0.2082 -0.1963  0.5657
  565MOL0     C77874  12.324  11.183   0.721 -0.4609  1.1696 -0.4113
  565MOL0     C77875  12.278  11.245   0.851  0.2812 -0.3519  0.2677
  565MOL0     C77876  12.401  11.298   0.924 -0.1128 -0.2741  0.2390
  565MOL0    Cl77877  12.345  11.388   1.074  0.3507  0.0971 -0.1258
  565MOL0     C77878  11.747  10.748   0.674 -0.6397 -0.1150  0.3670
  565MOL0     C77879  11.643  10.694   0.750 -0.7235  1.7191  0.6366
  565MOL0     O77880  11.406  10.559   0.701 -0.7331 -0.4559 -0.5674
  565MOL0     C77881  11.231  10.524   0.957  0.0029 -0.5281 -0.2151
  565MOL0     C77882  11.116  10.470   1.010  0.0115 -1.6517  0.3408
  565MOL0     N77883  10.498   9.920   1.173  0.5170  0.2374  0.4612
  565MOL0     N77884  10.527   9.801   1.139  0.7206 -0.4448  1.4266
  565MOL0     C77885   9.933   8.914   0.808  0.0555 -0.8465  0.1772
  565MOL0     C77886   9.809   8.844   0.822 -0.8383 -0.2968 -0.2344
  565MOL0     C77887   9.376   8.715   0.831  0.2190  0.0294 -0.2861
  565MOL0     C77888   9.382   8.601   0.748  0.5104 -0.8446 -0.1716
  565MOL0     C77889   9.275   8.513   0.741  0.0314 -0.5202 -0.0577
  565MOL0     C77890   9.158   8.526   0.819  0.1794  0.2138  0.0087
  565MOL0     O77891   9.054   8.437   0.821  0.1322  0.5857  0.2521
  565MOL0     C77892   9.057   8.323   0.728  0.4751  0.1398  0.2492
  565MOL0     C77893   8.912   8.259   0.711  0.7953  0.2301 -1.1615
  565MOL0     C77894   8.904   8.109   0.676  0.8848  1.1175  0.4016
  565MOL0     C77895   8.755   8.069   0.637 -0.6380 -0.4643 -0.5493
  565MOL0     C77896   8.744   7.924   0.623 -0.5984 -1.0185  0.4967
  565MOL0     C77897   8.732   7.803   0.624 -0.0444 -0.0702 -0.4702
  565MOL0     C77898   9.150   8.646   0.884  0.7758 -0.1468 -0.6457
  565MOL0     C77899   9.254   8.744   0.901 -0.2576 -0.3693  0.6461
  565MOL0     C77900   9.224   8.856   1.000  0.3147  1.0900 -0.3384
  565MOL0     H77901   9.622   9.003   0.597  2.1028  1.8946  0.8077
  565MOL0     H77902   9.823   9.125   0.560  0.9527 -0.1322 -0.6626
  565MOL0     H77903  10.196   8.998   0.774 -0.8177 -0.2481  0.0749
  565MOL0     H77904  10.114   9.114   0.881  1.6819  0.5814  1.0069
  565MOL0     H77905  10.355   9.168   0.785 -0.0874  0.5870 -2.2195
  565MOL0     H77906  10.264   9.224   0.639  1.0444 -0.9303 -0.2214
  565MOL0     H77907  10.131   9.374   0.795 -0.1262  2.3358  0.9108
  565MOL0     H77908  10.221   9.306   0.928  1.2823 -1.0957  0.2089
  565MOL0     H77909  10.446   9.387   0.812 -2.1808 -4.6381  2.8868
  565MOL0     H77910  10.357   9.464   0.693  1.1381 -0.0380 -0.7319
  565MOL0     H77911  10.350   9.556   0.991  0.9845 -1.3918  0.2983
  565MOL0     H77912  10.218   9.587   0.880 -0.0736  1.4605 -0.8910
  565MOL0     H77913  10.332   9.711   0.737  1.2083  0.2259 -0.9180
  565MOL0     H77914  10.376   9.780   0.890 -1.9131 -1.0055  0.1982
  565MOL0     H77915  10.552   9.756   0.737  1.4354  1.2752  1.5991
  565MOL0     H77916  10.565   9.577   0.775  1.3233 -0.9139  3.5093
  565MOL0     H77917  10.641   9.604   0.998  2.6003  0.5567 -0.2043
  565MOL0     H77918  10.727   9.709   0.911  0.9365 -1.1524  2.7209
  565MOL0     H77919  10.650   9.979   0.883  1.8908  2.0834  1.9020
  565MOL0     H77920  10.474  10.172   1.182 -0.1510 -0.2297 -1.1649
  565MOL0     H77921  10.444  10.198   1.015 -0.6946  0.0652  0.7897
  565MOL0     H77922  10.671  10.290   1.166 -2.2713 -2.4960  0.8516
  565MOL0     H77923  10.749  10.149   1.118  0.4257 -1.0857 -0.1199
  565MOL0     H77924  10.753  10.228   0.881  0.1295 -0.1127  0.1578
  565MOL0     H77925  10.642  10.365   0.922  0.4893 -0.0588 -0.5184
  565MOL0     H77926  10.872  10.446   0.904  1.3445  3.0881  1.5564
  565MOL0     H77927  10.821  10.445   1.073  4.3156 -1.6229  1.1875
  565MOL0     H77928  11.112  10.156   0.870 -1.3739  1.0228 -1.4492
  565MOL0     H77929  11.452  10.193   0.823  1.1249  0.0161 -4.3064
  565MOL0     H77930  11.387  10.265   0.678  1.0279 -1.9987 -1.9231
  565MOL0     H77931  11.308  10.118   0.744 -1.9970  0.3051  0.3410
  565MOL0     H77932  11.806  10.399   0.836  0.8567 -0.4006  2.8538
  565MOL0     H77933  11.977  10.507   0.740 -0.2719  0.3126  1.4713
  565MOL0     H77934  12.073  10.732   0.777 -0.3358  2.2162  0.8035
  565MOL0     H77935  12.139  10.641   0.625 -1.1315  0.7391 -1.3630
  565MOL0     H77936  12.219  10.860   0.541  2.6984  3.2196  1.0241
  565MOL0     H77937  12.139  10.931   0.689 -5.3307 -2.1166 -0.2372
  565MOL0     H77938  12.412  10.816   0.648 -0.3442  1.3189  0.3001
  565MOL0     H77939  12.324  10.742   0.783 -0.4623  0.0087  0.5500
  565MOL0     H77940  12.437  10.911   0.878  0.6597 -1.4703 -1.3560
  565MOL0     H77941  12.268  10.956   0.868 -0.7672  1.6657 -3.2562
  565MOL0     H77942  12.508  11.091   0.815  0.8495 -0.6262 -0.0887
  565MOL0     H77943  12.476  11.041   0.657  0.8652 -2.6355  1.5543
  565MOL0     H77944  12.234  11.143   0.674  0.8936 -1.8149 -0.7161
  565MOL0     H77945  12.366  11.263   0.660  1.3051  1.2475  0.8029
  565MOL0     H77946  12.229  11.172   0.917 -3.9484  2.5053  0.6955
  565MOL0     H77947  12.207  11.326   0.831  0.6079 -0.1201  0.0424
  565MOL0     H77948  12.462  11.358   0.856 -0.6701  2.6799  2.1540
  565MOL0     H77949  12.460  11.210   0.953 -2.5991 -2.9093 -2.1826
  565MOL0     H77950  11.742  10.842   0.621 -2.3112 -0.2222  0.2598
  565MOL0     H77951  11.548  10.745   0.761 -0.8349  1.6128  0.2003
  565MOL0     H77952  11.254  10.628   0.977 -1.0663  1.4709 -6.9125
  565MOL0     H77953  11.055  10.545   1.060  5.9973  4.1200  0.3647
  565MOL0     H77954  10.012   8.878   0.873 -2.1706 -3.8097  1.5019
  565MOL0     H77955   9.795   8.764   0.894  0.8403  1.6491  2.4581
  565MOL0     H77956   9.477   8.587   0.697  2.3487 -1.3647  3.0670
  565MOL0     H77957   9.282   8.421   0.684 -2.0437 -0.9102  0.2374
  565MOL0     H77958   9.076   8.356   0.626 -0.1107  2.2216  0.7619
  565MOL0     H77959   9.132   8.251   0.761  3.0535  2.2984 -0.5424
  565MOL0     H77960   8.867   8.312   0.627 -2.7999 -0.2047  0.3161
  565MOL0     H77961   8.853   8.280   0.801  0.3309  2.2079 -1.8555
  565MOL0     H77962   8.972   8.093   0.592  0.3466 -2.7343  0.5227
  565MOL0     H77963   8.941   8.048   0.758  0.4951 -2.3854 -1.8429
  565MOL0     H77964   8.735   8.111   0.538  0.0627 -1.4020 -1.1075
  565MOL0     H77965   8.690   8.105   0.717  0.7757  1.6467 -0.2821
  565MOL0     H77966   8.710   7.699   0.633  0.6648 -0.1577  0.3674
  565MOL0     H77967   9.061   8.675   0.938  2.1008  1.7024  0.6932
  565MOL0     H77968   9.241   8.812   1.099 -0.6157  1.0846 -0.1775
  565MOL0     H77969   9.270   8.953   0.978 -2.6451  2.4573 -1.0153
  565MOL0     H77970   9.117   8.876   0.993  0.1740 -0.0525 -2.2046
  566MOL0     O77971   8.112   0.204  10.754  0.3671 -0.2547  0.2213
  566MOL0     C77972   8.191   0.116  10.772  0.0922 -0.0857 -0.0852
  566MOL0     O77973   8.160  -0.021  10.791 -0.3307  0.5702  0.1177
  566MOL0     C77974   8.057  -0.089  10.734 -0.3618  0.4122  0.9990
  566MOL0     C77975   7.959  -0.022  10.654 -0.5055 -0.0626 -0.3974
  566MOL0     C77976   7.853  -0.093  10.609 -0.5413  0.0904  0.4399
  566MOL0     C77977   7.851  -0.232  10.614  0.4173  0.5552  0.5463
  566MOL0     O77978   7.764  -0.314  10.552  0.0642  0.9889  0.0774
  566MOL0     C77979   7.668  -0.263  10.458  0.5692  0.6423  0.9958
  566MOL0     C77980   7.616  -0.376  10.365  0.4577  0.2430 -0.9461
  566MOL0     C77981   7.726  -0.413  10.270 -0.3560  0.1055  0.3554
  566MOL0     C77982   7.661  -0.532  10.198 -0.1141 -0.2316  0.5939
  566MOL0     C77983   7.748  -0.580  10.079 -0.2063  0.4302  0.0345
  566MOL0     C77984   7.763  -0.479   9.965 -0.0383  0.5409  0.5641
  566MOL0     C77985   7.860  -0.526   9.854  0.7715  0.7846  0.7442
  566MOL0     C77986   7.915  -0.402   9.778 -0.5983  0.5732  0.0193
  566MOL0     N77987   7.811  -0.316   9.724  0.2920  0.1194 -0.0555
  566MOL0     C77988   7.746  -0.216   9.797 -0.2426  0.0415  0.7774
  566MOL0     C77989   7.638  -0.191   9.724  0.4099 -0.1380 -1.0092
  566MOL0     C77990   7.538  -0.076   9.743 -0.4446  0.8381  0.6421
  566MOL0     C77991   7.413  -0.120   9.818 -0.0134  0.6389  0.5382
  566MOL0     C77992   7.443  -0.164   9.969  0.0222  0.2812 -0.8189
  566MOL0     C77993   7.323  -0.239  10.026  0.6321 -0.1431  0.2307
  566MOL0     O77994   7.322  -0.232  10.167  0.6975  0.1223  0.3021
  566MOL0     C77995   7.233  -0.290  10.251  1.1221  0.5661  0.1640
  566MOL0     C77996   7.259  -0.300  10.387  0.0136  0.0899  0.1249
  566MOL0     C77997   7.175  -0.379  10.471  0.0483 -0.0441 -0.5802
  566MOL0     C77998   7.210  -0.360  10.617  0.0959  0.1024 -0.1393
  566MOL0     C77999   7.066  -0.453  10.416 -0.4177 -0.5070  0.1221
  566MOL0     C78000   6.971  -0.532  10.492 -0.1413 -0.1079 -0.5316
  566MOL0     O78001   6.899  -0.622  10.416  0.1205  0.9697  0.1357
  566MOL0     C78002   6.870  -0.744  10.470 -0.4133 -0.2551 -0.4968
  566MOL0     C78003   6.743  -0.782  10.442  0.1917 -0.3345  0.8316
  566MOL0     C78004   6.685  -0.906  10.475 -0.1471 -0.3665 -0.0289
  566MOL0     C78005   6.758  -0.985  10.565 -0.1736  0.0583  0.0448
  566MOL0     O78006   6.688  -1.095  10.616 -0.4685  0.0408 -0.1396
  566MOL0     C78007   6.758  -1.191  10.691 -0.6272  0.6792  0.2134
  566MOL0     C78008   6.859  -1.276  10.604  0.4438  0.6299  0.1455
  566MOL0     C78009   6.959  -1.368  10.677  1.3681  0.5857  0.0918
  566MOL0     C78010   7.040  -1.289  10.778 -0.8648 -0.1609  0.3043
  566MOL0     C78011   7.144  -1.370  10.851 -0.0399  0.1798 -0.4421
  566MOL0     C78012   7.237  -1.293  10.943 -0.1473  0.1419  0.9788
  566MOL0     C78013   7.354  -1.238  10.866 -1.1234  0.9465 -0.3898
  566MOL0     C78014   7.390  -1.097  10.916 -0.1495 -0.0024 -0.3566
  566MOL0    Cl78015   7.461  -1.097  11.080 -0.0245 -0.4397  0.6724
  566MOL0     C78016   6.893  -0.952  10.597  0.5943 -0.0064 -0.3868
  566MOL0     C78017   6.949  -0.828  10.552 -1.1546 -1.2837 -0.0420
  566MOL0     O78018   6.996  -0.551  10.612 -0.0852 -0.0163  0.0276
  566MOL0     C78019   7.041  -0.442  10.279 -0.2464  0.0428  0.3735
  566MOL0     C78020   7.128  -0.366  10.198  0.0337  0.4900 -0.2140
  566MOL0     N78021   7.636  -0.273   9.622  0.7173  0.1474 -0.4095
  566MOL0     N78022   7.739  -0.351   9.617 -0.1492  1.1407 -0.3805
  566MOL0     C78023   7.941  -0.299  10.682  0.0854  0.5908 -1.7838
  566MOL0     C78024   8.046  -0.228  10.741 -0.6013  0.3922  0.1842
  566MOL0     C78025   8.336   0.139  10.763  0.1223 -0.0238 -0.0561
  566MOL0     C78026   8.421   0.028  10.753 -0.3361 -0.8566  1.0965
  566MOL0     C78027   8.557   0.036  10.752  0.2836  0.1270 -0.5738
  566MOL0     C78028   8.615   0.159  10.741 -1.0767  0.3266 -0.5182
  566MOL0     O78029   8.752   0.181  10.733  0.0537  0.5588 -0.3464
  566MOL0     C78030   8.826   0.084  10.660 -0.9077 -0.0975 -0.9214
  566MOL0     C78031   8.976   0.090  10.691  0.2977 -0.1657 -0.4317
  566MOL0     C78032   9.034   0.233  10.680  0.4118  0.3232  0.0063
  566MOL0     C78033   9.152   0.244  10.581 -0.9618 -1.1056 -0.4725
  566MOL0     C78034   9.268   0.170  10.634 -0.0005 -0.0131 -0.2561
  566MOL0     C78035   9.361   0.101  10.674 -0.3131 -0.5153 -0.2710
  566MOL0     C78036   8.530   0.269  10.731  0.2740  0.0430  0.0589
  566MOL0     C78037   8.393   0.270  10.749 -0.5325 -0.1465 -0.2029
  566MOL0     C78038   8.328   0.405  10.745  0.6296  0.1284 -0.7526
  566MOL0     H78039   7.949   0.086  10.653  0.1622 -0.0009 -1.5384
  566MOL0     H78040   7.779  -0.029  10.562  0.0953 -0.5546 -1.5913
  566MOL0     H78041   7.721  -0.200  10.386  2.0995 -2.8648 -1.2256
  566MOL0     H78042   7.584  -0.211  10.504 -2.0231 -2.6451  0.4114
  566MOL0     H78043   7.598  -0.449  10.444 -1.0768  1.7264  0.1297
  566MOL0     H78044   7.528  -0.351  10.306 -0.0546  0.0004 -0.2915
  566MOL0     H78045   7.740  -0.329  10.201  0.4330 -1.7336 -1.8201
  566MOL0     H78046   7.819  -0.451  10.312 -0.3813 -1.1723 -0.6813
  566MOL0     H78047   7.652  -0.611  10.273  0.8300  1.4955  2.6264
  566MOL0     H78048   7.560  -0.513  10.162 -0.7653 -2.3159  1.1999
  566MOL0     H78049   7.700  -0.671  10.043  2.5262 -0.3912 -1.8761
  566MOL0     H78050   7.848  -0.600  10.119  0.6099  2.0800 -1.0468
  566MOL0     H78051   7.664  -0.451   9.927  1.3800  2.9820 -1.6653
  566MOL0     H78052   7.801  -0.388  10.012  0.0845  1.3439 -1.0383
  566MOL0     H78053   7.811  -0.597   9.787  2.2670 -0.3842  0.8268
  566MOL0     H78054   7.943  -0.587   9.892 -0.6538  0.0407  2.8154
  566MOL0     H78055   7.973  -0.338   9.845  2.7292 -1.2327 -0.9374
  566MOL0     H78056   7.978  -0.427   9.692 -1.3933 -1.5626  0.0001
  566MOL0     H78057   7.775  -0.178   9.895  0.0577 -1.4804  1.3090
  566MOL0     H78058   7.515  -0.037   9.643 -1.2473  0.2888  0.6032
  566MOL0     H78059   7.586   0.009   9.793 -0.0382  1.3254 -0.5518
  566MOL0     H78060   7.330  -0.048   9.815 -0.3095  0.3706  1.6103
  566MOL0     H78061   7.369  -0.206   9.767  0.2005 -0.0414  1.4715
  566MOL0     H78062   7.533  -0.224   9.990  0.5160  1.5564  0.9341
  566MOL0     H78063   7.465  -0.076  10.030 -0.5683  0.2235 -0.5183
  566MOL0     H78064   7.235  -0.190   9.984  1.0161  1.6448  1.3649
  566MOL0     H78065   7.324  -0.342   9.990 -1.0432  0.0665 -0.4785
  566MOL0     H78066   7.355  -0.258  10.417  0.3390  0.5070 -1.4390
  566MOL0     H78067   7.265  -0.449  10.648 -0.8918 -1.1133 -1.7373
  566MOL0     H78068   7.120  -0.354  10.678  0.0584  4.2078 -0.3293
  566MOL0     H78069   7.274  -0.273  10.636  1.8804 -1.2310  0.2244
  566MOL0     H78070   6.670  -0.726  10.385  2.7677  0.5893 -1.8110
  566MOL0     H78071   6.591  -0.943  10.437  0.7170 -2.5363 -0.1913
  566MOL0     H78072   6.818  -1.143  10.769  1.5828  0.8336 -1.4666
  566MOL0     H78073   6.697  -1.266  10.742  2.7314  1.1905  5.8795
  566MOL0     H78074   6.805  -1.331  10.526  1.8014 -1.2926  0.4938
  566MOL0     H78075   6.929  -1.215  10.546  1.3262  0.2242  0.7727
  566MOL0     H78076   7.032  -1.402  10.603  1.8798  2.0250 -0.1039
  566MOL0     H78077   6.908  -1.453  10.723 -0.7778  1.3485 -0.7545
  566MOL0     H78078   6.965  -1.244  10.843 -0.9308 -2.0402  1.6053
  566MOL0     H78079   7.097  -1.209  10.730  5.2518 -3.7191  0.5854
  566MOL0     H78080   7.094  -1.439  10.919  2.2643 -1.7292 -0.5712
  566MOL0     H78081   7.209  -1.421  10.780 -2.2431  0.9935 -3.2457
  566MOL0     H78082   7.279  -1.361  11.018  0.8231 -1.2806 -0.7800
  566MOL0     H78083   7.176  -1.221  10.999  0.6132  1.7801 -0.2298
  566MOL0     H78084   7.327  -1.228  10.760 -1.0856 -1.4984 -0.6987
  566MOL0     H78085   7.440  -1.305  10.872 -0.1438  2.2948  3.5841
  566MOL0     H78086   7.302  -1.033  10.928  0.8163  1.0923  1.1679
  566MOL0     H78087   7.463  -1.059  10.844 -0.0051  2.6738  1.0933
  566MOL0     H78088   6.942  -1.020  10.666 -0.2401  0.5204  0.7728
  566MOL0     H78089   7.056  -0.810  10.560 -1.3963 -0.1753  0.8282
  566MOL0     H78090   6.966  -0.489  10.216  2.2519 -1.8109 -1.4156
  566MOL0     H78091   7.113  -0.378  10.091 -1.0273  2.4162 -0.3243
  566MOL0     H78092   7.941  -0.407  10.697 -1.1397  0.8504  0.5543
  566MOL0     H78093   8.120  -0.296  10.782 -1.6109 -0.3578  0.8113
  566MOL0     H78094   8.382  -0.072  10.737  1.4807 -1.2326 -1.8576
  566MOL0     H78095   8.611  -0.057  10.762 -0.1425 -0.1426 -0.7441
  566MOL0     H78096   8.800  -0.019  10.684 -1.8448 -0.0431 -1.6232
  566MOL0     H78097   8.802   0.093  10.553  1.3129  1.6311 -1.3500
  566MOL0     H78098   9.013   0.011  10.626  0.7068 -0.6130  0.3390
  566MOL0     H78099   8.996   0.061  10.794  2.4153  1.5440 -0.2871
  566MOL0     H78100   8.951   0.299  10.653  0.3143 -0.0471 -0.6005
  566MOL0     H78101   9.065   0.277  10.776 -4.0497  3.7833  0.2094
  566MOL0     H78102   9.185   0.347  10.565  1.2104 -1.7771 -0.6211
  566MOL0     H78103   9.115   0.203  10.486  0.4416  2.7621 -2.9186
  566MOL0     H78104   9.439   0.030  10.695  2.9492  2.2515 -2.1197
  566MOL0     H78105   8.584   0.363  10.722  1.4408 -0.5804  0.3630
  566MOL0     H78106   8.276   0.415  10.650 -2.3427 -0.1439  0.7413
  566MOL0     H78107   8.255   0.419  10.825 -1.2599 -0.3549 -2.3306
  566MOL0     H78108   8.397   0.490  10.737 -0.0479  0.5810 -1.9585
  567MOL0     O78109   3.798  11.096   6.712  0.2327 -0.1250 -0.1059
  567MOL0     C78110   3.759  11.121   6.828 -0.3175 -1.0121  0.8334
  567MOL0     O78111   3.667  11.208   6.855  0.5508 -0.4754  0.4821
  567MOL0     C78112   3.607  11.268   6.746 -0.0290 -0.2402 -0.3704
  567MOL0     C78113   3.669  11.374   6.681  0.0584 -0.3205 -0.3232
  567MOL0     C78114   3.610  11.430   6.567 -0.6343 -0.3120 -0.9846
  567MOL0     C78115   3.480  11.393   6.521 -1.0214 -0.8136 -0.0469
  567MOL0     O78116   3.433  11.453   6.412  0.7645 -0.0290  0.5969
  567MOL0     C78117   3.295  11.496   6.418 -0.0112 -0.0301  0.6397
  567MOL0     C78118   3.274  11.571   6.286  0.4202 -0.4258  0.0550
  567MOL0     C78119   3.381  11.682   6.267  0.4068  0.0727 -0.4549
  567MOL0     C78120   3.348  11.806   6.171  0.4579  0.4198 -1.6058
  567MOL0     C78121   3.458  11.923   6.167  0.3853 -0.2260 -0.0028
  567MOL0     C78122   3.423  12.024   6.060 -0.9646  0.2062  0.2971
  567MOL0     C78123   3.520  12.140   6.050 -0.1106 -0.1555 -0.1553
  567MOL0     C78124   3.504  12.242   6.168  0.3503  0.3481  0.4061
  567MOL0     N78125   3.565  12.375   6.151  0.2843  0.3666 -0.1894
  567MOL0     C78126   3.681  12.400   6.087 -0.2289  0.0135  1.1848
  567MOL0     C78127   3.689  12.537   6.084 -0.4929  0.4118 -0.3179
  567MOL0     C78128   3.811  12.609   6.022 -0.2355 -0.9907  0.2453
  567MOL0     C78129   3.864  12.715   6.123  0.0241  1.0485 -0.1601
  567MOL0     C78130   3.983  12.789   6.061 -0.4616  0.1945  0.7186
  567MOL0     C78131   4.040  12.890   6.158 -0.2426  0.7028 -0.2862
  567MOL0     O78132   4.119  12.981   6.079 -0.1026  0.3852  0.1733
  567MOL0     C78133   4.165  13.094   6.148  0.3494 -1.1948 -0.7303
  567MOL0     C78134   4.162  13.211   6.076  1.3723  0.6517  0.5372
  567MOL0     C78135   4.179  13.335   6.128 -0.2915 -0.4300  0.1128
  567MOL0     C78136   4.187  13.440   6.019 -0.4574 -0.2524 -0.8966
  567MOL0     C78137   4.215  13.344   6.267 -0.5394  0.0464  0.1552
  567MOL0     C78138   4.255  13.469   6.341  1.1876  0.3562 -0.0212
  567MOL0     O78139   4.245  13.583   6.275 -0.0559  0.8990 -1.0606
  567MOL0     C78140   4.299  13.693   6.321 -0.9580 -1.0578  0.5284
  567MOL0     C78141   4.436  13.709   6.313  0.3788  1.0700  0.1783
  567MOL0     C78142   4.506  13.820   6.365  0.7494 -0.0209  0.6955
  567MOL0     C78143   4.429  13.930   6.418  0.3576  0.1243  0.4314
  567MOL0     O78144   4.502  14.045   6.459 -0.3752  0.1923  0.1727
  567MOL0     C78145   4.454  14.165   6.397 -1.4489  0.5454 -0.1159
  567MOL0     C78146   4.577  14.264   6.382  0.3447  1.1999  1.1583
  567MOL0     C78147   4.632  14.318   6.520 -0.4271 -0.1288  0.0510
  567MOL0     C78148   4.737  14.434   6.490 -0.2307 -0.4627  0.5155
  567MOL0     C78149   4.752  14.528   6.604 -0.6462  0.2659  0.0608
  567MOL0     C78150   4.882  14.621   6.580  0.4841 -0.5788  0.6444
  567MOL0     C78151   4.880  14.724   6.690  0.8579 -0.0950 -1.1072
  567MOL0     C78152   4.970  14.838   6.675 -0.2585 -0.3303 -0.0570
  567MOL0    Cl78153   4.945  14.910   6.519 -0.0632  0.1668  0.1354
  567MOL0     C78154   4.292  13.909   6.428 -1.2383  0.1551  0.7270
  567MOL0     C78155   4.226  13.800   6.368 -0.6133  0.3701  0.7651
  567MOL0     O78156   4.306  13.458   6.449  0.2595  0.3655 -0.1547
  567MOL0     C78157   4.216  13.226   6.349 -1.1546  0.1221  0.3889
  567MOL0     C78158   4.182  13.104   6.294  0.1845  0.2823  0.4855
  567MOL0     N78159   3.577  12.587   6.152  0.4566  0.6502 -0.8453
  567MOL0     N78160   3.501  12.488   6.187  0.9464 -0.4903 -0.4700
  567MOL0     C78161   3.424  11.296   6.595  0.5787  0.7498 -0.1946
  567MOL0     C78162   3.483  11.220   6.696  0.4898 -0.0524  1.1992
  567MOL0     C78163   3.823  11.054   6.947 -0.5812  0.0457  0.8301
  567MOL0     C78164   3.943  10.976   6.918 -0.1051 -0.4043 -0.7720
  567MOL0     C78165   3.987  10.880   7.016  0.0800  0.2391 -0.3859
  567MOL0     C78166   3.922  10.864   7.144  0.2518 -0.3129 -0.6224
  567MOL0     O78167   3.954  10.763   7.237 -0.0405 -1.1835 -0.9338
  567MOL0     C78168   3.861  10.653   7.245 -0.1902  0.5995  0.4374
  567MOL0     C78169   3.914  10.584   7.355  0.2787  0.8872  0.3296
  567MOL0     C78170   3.888  10.652   7.494  0.0674 -0.0892 -0.6040
  567MOL0     C78171   3.949  10.559   7.608 -0.3526  0.4117 -0.4621
  567MOL0     C78172   3.915  10.580   7.747 -0.0785 -0.6889 -0.0576
  567MOL0     C78173   3.860  10.628   7.844 -0.4901  0.2790  0.6425
  567MOL0     C78174   3.807  10.942   7.165 -0.9544  0.2859  0.7107
  567MOL0     C78175   3.754  11.034   7.068  0.4769  0.4845  0.5417
  567MOL0     C78176   3.620  11.086   7.104  0.1629 -0.9075 -0.0739
  567MOL0     H78177   3.761  11.413   6.721  0.6097 -1.5722 -0.3201
  567MOL0     H78178   3.670  11.504   6.515 -0.6041 -1.6745 -3.0139
  567MOL0     H78179   3.282  11.566   6.502  3.7317  2.3461 -0.5222
  567MOL0     H78180   3.229  11.408   6.417  0.1556 -0.1522 -0.2775
  567MOL0     H78181   3.279  11.495   6.207  1.0758 -2.4824  1.9822
  567MOL0     H78182   3.177  11.622   6.298  2.2002  3.0026  1.1418
  567MOL0     H78183   3.404  11.721   6.366 -0.1170 -4.2398  1.5971
  567MOL0     H78184   3.466  11.626   6.227  0.9815 -0.3701  1.3230
  567MOL0     H78185   3.330  11.761   6.073 -3.6593 -0.1748 -0.7807
  567MOL0     H78186   3.252  11.847   6.205 -0.1527 -0.2836 -2.4212
  567MOL0     H78187   3.557  11.880   6.150 -0.0645 -0.9584 -0.8467
  567MOL0     H78188   3.462  11.984   6.257  2.0809 -0.2559 -0.0387
  567MOL0     H78189   3.400  11.972   5.966  1.7928 -0.3963 -0.1220
  567MOL0     H78190   3.329  12.071   6.089  0.3749  1.7364  2.4373
  567MOL0     H78191   3.499  12.187   5.953  0.2421  0.7628  0.2005
  567MOL0     H78192   3.623  12.102   6.048 -0.1300 -0.5272  2.5916
  567MOL0     H78193   3.399  12.265   6.185  0.1465 -1.8999  2.7395
  567MOL0     H78194   3.542  12.199   6.261  0.7691  2.1370  1.1048
  567MOL0     H78195   3.758  12.337   6.044 -0.5096  1.3238 -1.4060
  567MOL0     H78196   3.772  12.665   5.936 -2.4466  1.7735  2.8271
  567MOL0     H78197   3.886  12.534   5.996 -3.0500 -3.4913 -1.2502
  567MOL0     H78198   3.779  12.778   6.149 -0.5487  0.4674 -0.5923
  567MOL0     H78199   3.902  12.662   6.211 -0.4919 -2.4841 -1.8748
  567MOL0     H78200   4.051  12.708   6.033 -1.1593 -1.0940  2.5304
  567MOL0     H78201   3.942  12.845   5.976 -2.4523 -0.5539  1.1264
  567MOL0     H78202   3.959  12.949   6.201 -3.2159 -0.2063 -4.1022
  567MOL0     H78203   4.096  12.841   6.238 -2.2765  0.0154  0.7764
  567MOL0     H78204   4.154  13.204   5.968  0.6470  0.5430  0.5930
  567MOL0     H78205   4.154  13.534   6.065 -0.7723 -1.0888  0.6500
  567MOL0     H78206   4.133  13.416   5.926  0.4644  0.0242 -1.5220
  567MOL0     H78207   4.294  13.442   5.999 -0.5851  0.0916 -1.6048
  567MOL0     H78208   4.497  13.629   6.274  2.4464  2.5845  0.1012
  567MOL0     H78209   4.614  13.819   6.357  0.7314 -1.4206  0.3706
  567MOL0     H78210   4.408  14.154   6.299 -2.9176 -1.6780  0.7475
  567MOL0     H78211   4.368  14.200   6.457 -2.1287 -0.8930 -0.2104
  567MOL0     H78212   4.664  14.208   6.347  0.0244  0.1483  2.0071
  567MOL0     H78213   4.548  14.347   6.317  0.9303  2.4684  2.4709
  567MOL0     H78214   4.685  14.238   6.573 -0.4924  0.1765  0.5795
  567MOL0     H78215   4.543  14.354   6.572 -2.6788 -0.3194 -3.3613
  567MOL0     H78216   4.710  14.498   6.405  0.9975  1.4308  1.4684
  567MOL0     H78217   4.835  14.394   6.464  0.8134 -0.1784  3.5559
  567MOL0     H78218   4.658  14.583   6.613 -3.0263 -3.5396  0.6558
  567MOL0     H78219   4.777  14.469   6.693  1.0299 -0.1304 -0.6240
  567MOL0     H78220   4.878  14.675   6.485 -0.7656 -0.2601  0.8598
  567MOL0     H78221   4.973  14.562   6.594  1.5804  1.7673  4.9698
  567MOL0     H78222   4.894  14.679   6.789  2.3605  2.0192 -0.2954
  567MOL0     H78223   4.785  14.777   6.702  0.6719 -0.6040 -0.1670
  567MOL0     H78224   5.076  14.819   6.695  1.2343  4.0143 -2.5852
  567MOL0     H78225   4.946  14.916   6.748  1.8512  0.7472 -0.4466
  567MOL0     H78226   4.228  13.987   6.468  0.9099  0.8862  2.9834
  567MOL0     H78227   4.121  13.786   6.392 -0.4800 -2.0681  0.2569
  567MOL0     H78228   4.247  13.208   6.451  2.4496 -1.9773 -0.9073
  567MOL0     H78229   4.179  13.021   6.364 -0.0106  1.1598  1.5464
  567MOL0     H78230   3.321  11.266   6.577  0.4027  0.2262  1.5140
  567MOL0     H78231   3.426  11.141   6.744  1.0305 -0.4077  1.2616
  567MOL0     H78232   3.994  10.980   6.823  1.7572 -0.0533  0.2035
  567MOL0     H78233   4.077  10.826   6.988  0.7907  1.4531 -0.4917
  567MOL0     H78234   3.759  10.687   7.260  0.3315  2.4839  0.0087
  567MOL0     H78235   3.861  10.587   7.158  1.3027  0.3997  0.5597
  567MOL0     H78236   4.016  10.557   7.326 -0.6166 -0.9601 -1.3891
  567MOL0     H78237   3.866  10.486   7.364 -3.0325  1.8587 -3.7782
  567MOL0     H78238   3.946  10.743   7.507 -1.9811  0.9467  2.1530
  567MOL0     H78239   3.781  10.670   7.498 -0.0683 -0.6739 -1.2665
  567MOL0     H78240   4.055  10.587   7.610  0.8145 -2.8505  5.1037
  567MOL0     H78241   3.946  10.455   7.575 -1.0313  0.2055  0.1994
  567MOL0     H78242   3.808  10.680   7.922  0.8365 -1.3686  2.7353
  567MOL0     H78243   3.737  10.924   7.246 -1.4591 -3.4078 -0.3524
  567MOL0     H78244   3.619  11.195   7.108 -0.7341 -0.9053 -0.1905
  567MOL0     H78245   3.540  11.052   7.038 -0.2693  3.9437 -2.5309
  567MOL0     H78246   3.585  11.054   7.202 -0.0404 -0.8801 -0.1383
  568MOL0     O78247   2.750   0.955   8.727  0.1361  0.1182 -0.2161
  568MOL0     C78248   2.796   1.045   8.648  0.7493  0.8694 -0.5683
  568MOL0     O78249   2.928   1.068   8.613  0.1194 -0.0378 -0.2346
  568MOL0     C78250   3.026   1.035   8.703  0.1296 -0.5830 -0.2822
  568MOL0     C78251   3.006   1.038   8.847 -0.0325  0.3752  0.3642
  568MOL0     C78252   3.118   1.010   8.925 -0.2542  0.0543  0.5850
  568MOL0     C78253   3.237   0.960   8.870 -0.0654 -0.1174  0.3004
  568MOL0     O78254   3.341   0.939   8.948 -0.5675 -0.4858 -0.6305
  568MOL0     C78255   3.393   0.798   8.981  0.7398  0.3036  0.1383
  568MOL0     C78256   3.291   0.719   9.066 -0.1461 -1.3107  0.0055
  568MOL0     C78257   3.284   0.770   9.210 -0.3782 -0.0231 -0.3114
  568MOL0     C78258   3.203   0.667   9.301 -0.0087 -0.9680 -0.3775
  568MOL0     C78259   3.203   0.700   9.454 -0.5181  0.0874  0.5994
  568MOL0     C78260   3.145   0.840   9.491 -0.4543  0.2113  1.1867
  568MOL0     C78261   3.000   0.857   9.451 -0.3357  0.6106  0.1112
  568MOL0     C78262   2.939   0.987   9.499  0.0806 -0.1630 -0.2839
  568MOL0     N78263   2.802   1.014   9.468  0.6043 -0.3795 -1.0889
  568MOL0     C78264   2.721   0.955   9.373  0.0686 -0.3949 -1.0340
  568MOL0     C78265   2.609   1.028   9.377 -0.2688 -0.1156 -0.0386
  568MOL0     C78266   2.505   0.992   9.267 -0.7241 -0.7152  0.7126
  568MOL0     C78267   2.373   0.928   9.324 -0.5777 -0.1867 -0.1474
  568MOL0     C78268   2.307   1.029   9.430  1.2440  0.2942  0.3848
  568MOL0     C78269   2.333   1.004   9.577 -0.9131 -1.5884 -0.1467
  568MOL0     O78270   2.273   0.886   9.615 -0.1801  0.2534 -0.5474
  568MOL0     C78271   2.341   0.810   9.713 -0.7553 -0.2448  0.0817
  568MOL0     C78272   2.360   0.671   9.698  0.2219 -0.2791 -0.0497
  568MOL0     C78273   2.451   0.585   9.777 -0.2897  0.0033  1.0492
  568MOL0     C78274   2.445   0.436   9.755  0.1496 -0.4780 -0.3496
  568MOL0     C78275   2.526   0.656   9.882 -0.3868  0.2650 -0.1070
  568MOL0     C78276   2.626   0.597   9.983  0.2423  0.0207 -0.4573
  568MOL0     O78277   2.707   0.692  10.045 -0.7138 -0.5522 -0.5665
  568MOL0     C78278   2.794   0.643  10.138 -0.3245  0.1580 -0.0191
  568MOL0     C78279   2.894   0.545  10.116  0.7396  0.4397  0.3764
  568MOL0     C78280   2.991   0.515  10.212  0.5202  0.1668 -0.6296
  568MOL0     C78281   2.998   0.589  10.336 -0.1527 -1.0055  0.4332
  568MOL0     O78282   3.096   0.566  10.432  0.4502  0.3975 -0.0527
  568MOL0     C78283   3.090   0.619  10.567  0.0842  0.1272  0.2464
  568MOL0     C78284   3.190   0.547  10.647  0.0224 -0.7072 -0.2755
  568MOL0     C78285   3.154   0.399  10.676 -0.1956 -1.3066  0.5897
  568MOL0     C78286   3.055   0.382  10.789  0.1591 -0.0903 -0.1374
  568MOL0     C78287   3.006   0.233  10.783  0.6864 -0.9229 -0.2310
  568MOL0     C78288   2.906   0.204  10.900  0.8534  0.8253 -0.4963
  568MOL0     C78289   2.873   0.058  10.891 -0.4494  0.7538 -0.3039
  568MOL0     C78290   2.968  -0.031  10.965 -0.5408 -0.8715 -0.3977
  568MOL0    Cl78291   2.911  -0.197  10.988 -0.1704 -0.0887 -0.0271
  568MOL0     C78292   2.887   0.679  10.366 -0.4943  0.0599 -0.3205
  568MOL0     C78293   2.796   0.708  10.260  0.1761  0.5469  0.1405
  568MOL0     O78294   2.614   0.478  10.016  0.0848  0.2080  0.0297
  568MOL0     C78295   2.502   0.796   9.887 -0.5720 -0.3831 -0.7412
  568MOL0     C78296   2.410   0.866   9.809  0.0225 -0.6027 -0.2738
  568MOL0     N78297   2.625   1.140   9.455  0.2418 -0.5325 -0.1483
  568MOL0     N78298   2.741   1.133   9.505  0.8064  1.2988  0.0861
  568MOL0     C78299   3.255   0.956   8.731 -0.4634  0.0413 -0.0079
  568MOL0     C78300   3.150   0.994   8.646  1.0451 -0.5350 -0.3874
  568MOL0     C78301   2.690   1.112   8.580  0.1132  0.0691 -0.0776
  568MOL0     C78302   2.683   1.122   8.436  0.5475  0.2731 -0.2312
  568MOL0     C78303   2.577   1.197   8.380 -0.2130  0.4249 -0.4452
  568MOL0     C78304   2.480   1.256   8.463  0.8161 -0.5718  1.2578
  568MOL0     O78305   2.359   1.317   8.399 -0.2090  0.1675  0.2252
  568MOL0     C78306   2.246   1.348   8.480  0.0816 -0.3306  0.0562
  568MOL0     C78307   2.128   1.397   8.390 -0.2118  0.7892 -0.0251
  568MOL0     C78308   2.096   1.297   8.275  0.3409  0.4856 -0.4936
  568MOL0     C78309   2.013   1.173   8.325  0.3839  0.6286 -0.2339
  568MOL0     C78310   1.911   1.191   8.422 -0.5078 -0.0712 -0.5836
  568MOL0     C78311   1.823   1.206   8.506  0.6196  1.0229 -0.2282
  568MOL0     C78312   2.494   1.266   8.593  0.4884 -0.0552 -0.5988
  568MOL0     C78313   2.594   1.196   8.654  0.2856  1.2247  0.8048
  568MOL0     C78314   2.590   1.193   8.806 -1.1339  0.6578 -0.3563
  568MOL0     H78315   2.913   1.073   8.891 -1.5775 -1.6233 -1.1337
  568MOL0     H78316   3.118   1.024   9.033  1.9779  1.7763  0.4174
  568MOL0     H78317   3.488   0.797   9.035 -0.7588  0.7072  2.9431
  568MOL0     H78318   3.391   0.745   8.885  0.7955  1.4386 -0.5122
  568MOL0     H78319   3.198   0.741   9.012  0.9181  0.1159 -1.3615
  568MOL0     H78320   3.313   0.612   9.072  0.4767 -1.1002  2.1277
  568MOL0     H78321   3.385   0.779   9.251  0.8861  2.3338 -3.4971
  568MOL0     H78322   3.241   0.870   9.226 -0.6083 -0.5230  2.7880
  568MOL0     H78323   3.100   0.651   9.268 -0.5210  0.5968  0.3991
  568MOL0     H78324   3.243   0.565   9.293 -2.0715 -1.8322 -0.2763
  568MOL0     H78325   3.305   0.726   9.485 -0.7765  0.3139  1.2700
  568MOL0     H78326   3.170   0.621   9.521 -1.2789  1.4257  1.8525
  568MOL0     H78327   3.153   0.849   9.600 -3.1148 -0.3218  1.5087
  568MOL0     H78328   3.202   0.918   9.440 -2.7187  0.7614 -0.7170
  568MOL0     H78329   2.933   0.774   9.473  1.4919 -1.7280 -2.4733
  568MOL0     H78330   3.000   0.856   9.341 -1.1658 -1.0238  0.0957
  568MOL0     H78331   2.958   1.009   9.604 -1.8217  1.4204 -0.2332
  568MOL0     H78332   2.987   1.068   9.443  1.6404 -1.2773 -0.6494
  568MOL0     H78333   2.733   0.863   9.317  1.5864 -0.0614 -1.3117
  568MOL0     H78334   2.543   0.933   9.184 -3.1714  1.0632 -1.8419
  568MOL0     H78335   2.483   1.096   9.239  1.6059  0.5446  2.9607
  568MOL0     H78336   2.301   0.907   9.245  0.3075  5.4700 -2.9788
  568MOL0     H78337   2.407   0.837   9.375  4.2088  2.9926  3.2512
  568MOL0     H78338   2.328   1.132   9.400 -2.7435  1.0524 -0.4154
  568MOL0     H78339   2.199   1.028   9.414  0.6497  0.6050  3.7552
  568MOL0     H78340   2.440   1.003   9.598 -0.8983 -1.1184 -0.2013
  568MOL0     H78341   2.285   1.085   9.633  3.1224  1.0485 -0.1227
  568MOL0     H78342   2.312   0.632   9.609  1.1130 -1.0827 -0.2052
  568MOL0     H78343   2.543   0.394   9.779 -0.4022 -0.7362  1.5654
  568MOL0     H78344   2.422   0.419   9.649 -0.8477 -0.8590 -0.0742
  568MOL0     H78345   2.360   0.402   9.815  0.0292 -1.5798 -1.1061
  568MOL0     H78346   2.898   0.507  10.014  0.6475  1.3684  0.0133
  568MOL0     H78347   3.067   0.446  10.178  2.1899  2.2815 -1.4758
  568MOL0     H78348   3.123   0.724  10.566 -0.9826  0.4814  0.8140
  568MOL0     H78349   2.991   0.606  10.611  0.6726  1.7985  2.2283
  568MOL0     H78350   3.272   0.549  10.576 -1.5364  1.2782 -2.1690
  568MOL0     H78351   3.218   0.598  10.739 -0.0559  2.2440 -1.7653
  568MOL0     H78352   3.252   0.355  10.696  0.6068  0.2715  0.2249
  568MOL0     H78353   3.115   0.351  10.586  0.3389 -0.3482 -0.1623
  568MOL0     H78354   2.975   0.454  10.768 -0.4163 -0.7216 -0.1240
  568MOL0     H78355   3.092   0.412  10.888  0.8736  1.0909 -0.7407
  568MOL0     H78356   2.966   0.217  10.682  2.1595  0.2957 -1.0434
  568MOL0     H78357   3.090   0.163  10.789  0.7514 -0.9379 -1.1405
  568MOL0     H78358   2.808   0.254  10.890 -0.5684 -2.0029 -1.7351
  568MOL0     H78359   2.944   0.223  11.001 -2.0798 -0.3062  0.9435
  568MOL0     H78360   2.865   0.026  10.786 -0.8592  2.3485 -0.7910
  568MOL0     H78361   2.776   0.053  10.942  0.5318 -0.2200  1.5097
  568MOL0     H78362   2.978   0.006  11.067  2.4202 -0.4627 -0.7470
  568MOL0     H78363   3.061  -0.019  10.909 -1.8546  0.2629 -2.4883
  568MOL0     H78364   2.875   0.725  10.463 -0.3893 -1.3146  0.3744
  568MOL0     H78365   2.716   0.778  10.281 -1.6261 -1.6819  1.1820
  568MOL0     H78366   2.553   0.847   9.968 -1.0714 -1.6634  0.4187
  568MOL0     H78367   2.408   0.971   9.836  0.7768 -0.6618  0.0330
  568MOL0     H78368   3.351   0.928   8.687  1.3224  0.6057  3.1844
  568MOL0     H78369   3.159   1.000   8.538  0.5499 -2.0562 -0.5273
  568MOL0     H78370   2.769   1.082   8.384 -0.3605 -0.6033 -1.0937
  568MOL0     H78371   2.554   1.203   8.274 -0.9201 -0.3040 -0.3429
  568MOL0     H78372   2.206   1.264   8.537 -2.4308  2.2398  2.4088
  568MOL0     H78373   2.274   1.432   8.544  1.2338 -0.4704 -0.2477
  568MOL0     H78374   2.172   1.482   8.337  0.2171 -0.4932 -1.8187
  568MOL0     H78375   2.037   1.430   8.442 -1.4576 -1.6083 -0.5421
  568MOL0     H78376   2.040   1.348   8.196  2.3570 -0.7530 -2.8324
  568MOL0     H78377   2.182   1.255   8.223 -2.9364 -4.4171 -2.6784
  568MOL0     H78378   2.068   1.081   8.349  0.1333  0.4028 -0.5054
  568MOL0     H78379   1.953   1.145   8.237 -0.4012 -1.3223  0.8538
  568MOL0     H78380   1.743   1.196   8.577 -0.5749 -0.5793 -1.7131
  568MOL0     H78381   2.442   1.332   8.661  1.6814 -2.0870  2.5347
  568MOL0     H78382   2.685   1.201   8.859 -0.6370 -3.2474 -0.3366
  568MOL0     H78383   2.521   1.270   8.841  0.7537  2.6912 -0.9265
  568MOL0     H78384   2.542   1.103   8.846 -3.3680  1.5538 -0.8508
  569MOL0     O78385   2.860   9.781   6.970  0.0873 -0.5425  0.2701
  569MOL0     C78386   2.932   9.846   7.049 -0.3625 -0.4709 -0.2128
  569MOL0     O78387   2.925   9.981   7.061 -0.0289 -0.5351  0.2313
  569MOL0     C78388   2.823  10.063   7.024  1.0445  0.2018 -0.0201
  569MOL0     C78389   2.864  10.182   6.961 -0.1817  0.1860  0.0852
  569MOL0     C78390   2.770  10.278   6.942  0.8727  0.3851 -0.3715
  569MOL0     C78391   2.632  10.245   6.978 -1.6094  0.4816  0.3684
  569MOL0     O78392   2.541  10.338   6.952  0.0730  0.3268 -0.9615
  569MOL0     C78393   2.542  10.401   6.820 -0.1883 -0.2148 -0.1675
  569MOL0     C78394   2.412  10.470   6.796 -0.3169 -0.5726  0.0870
  569MOL0     C78395   2.413  10.614   6.846 -0.4094 -0.5091 -0.0392
  569MOL0     C78396   2.403  10.633   7.000 -0.3983  0.7257 -0.5645
  569MOL0     C78397   2.397  10.781   7.024 -0.1791  0.0002  0.1551
  569MOL0     C78398   2.425  10.838   7.166  0.1343 -0.7737  0.0241
  569MOL0     C78399   2.488  10.987   7.168  0.7241  0.2335 -0.2490
  569MOL0     C78400   2.637  10.991   7.138 -0.6068  0.2839  0.1209
  569MOL0     N78401   2.680  11.126   7.104 -0.7774 -0.1813  0.2275
  569MOL0     C78402   2.801  11.188   7.124  0.4978 -0.1675 -0.6422
  569MOL0     C78403   2.789  11.309   7.062 -0.2247 -0.7989  0.4070
  569MOL0     C78404   2.896  11.423   7.053  0.2501 -0.5541 -0.2479
  569MOL0     C78405   2.871  11.538   7.163 -0.2895  0.8162 -0.1461
  569MOL0     C78406   2.950  11.679   7.140  0.3407  1.1900 -0.1909
  569MOL0     C78407   2.895  11.784   7.230  0.0341  0.8444 -0.5807
  569MOL0     O78408   2.918  11.904   7.166  0.3909  0.0546 -0.5780
  569MOL0     C78409   2.864  12.019   7.218  0.0157 -0.1901 -0.0025
  569MOL0     C78410   2.850  12.132   7.130 -0.1451  0.2560  0.3421
  569MOL0     C78411   2.791  12.251   7.174  0.2255  0.6409  0.4210
  569MOL0     C78412   2.758  12.342   7.058  0.4621 -0.5004 -0.4678
  569MOL0     C78413   2.771  12.277   7.314  0.4384 -0.0146  0.2543
  569MOL0     C78414   2.732  12.408   7.365 -0.9823 -0.8651  0.8664
  569MOL0     O78415   2.755  12.444   7.493  0.0934  0.2364 -0.2817
  569MOL0     C78416   2.734  12.577   7.531 -0.7274  0.5896  0.5586
  569MOL0     C78417   2.621  12.615   7.590 -0.6597 -0.7840 -1.2598
  569MOL0     C78418   2.611  12.749   7.628 -0.8478  0.2037  0.6688
  569MOL0     C78419   2.707  12.851   7.604  0.5437  0.2061 -0.3101
  569MOL0     O78420   2.700  12.989   7.637 -0.2099 -0.1534  0.1431
  569MOL0     C78421   2.576  13.055   7.670  0.1288 -0.4021  0.4011
  569MOL0     C78422   2.593  13.145   7.793  1.1065 -0.1254  0.1536
  569MOL0     C78423   2.472  13.234   7.814 -0.1408 -0.7967  0.5040
  569MOL0     C78424   2.354  13.168   7.877 -0.2737 -0.8785 -0.2093
  569MOL0     C78425   2.243  13.276   7.913 -0.0490  0.6925  0.1024
  569MOL0     C78426   2.124  13.222   7.991  0.3659 -1.2219  0.0610
  569MOL0     C78427   2.017  13.136   7.905 -0.5491 -0.8806 -0.5692
  569MOL0     C78428   1.873  13.157   7.955 -0.5839  0.1804  0.9560
  569MOL0    Cl78429   1.873  13.124   8.133  0.1125 -0.1358 -0.4950
  569MOL0     C78430   2.817  12.804   7.538  0.0775  1.0066  0.4454
  569MOL0     C78431   2.832  12.671   7.493  0.3521  0.5366 -0.0175
  569MOL0     O78432   2.705  12.492   7.282 -0.3835  0.2911 -0.0236
  569MOL0     C78433   2.771  12.165   7.402 -0.3757 -0.4029  1.3906
  569MOL0     C78434   2.813  12.037   7.346 -1.0141 -0.9001  0.4162
  569MOL0     N78435   2.667  11.322   7.005  0.2111 -0.0378 -0.1134
  569MOL0     N78436   2.611  11.213   7.026 -0.1952  0.0513  0.5260
  569MOL0     C78437   2.591  10.128   7.036 -0.1326 -0.5571 -0.6655
  569MOL0     C78438   2.695  10.034   7.056  0.2206 -0.0296  0.3174
  569MOL0     C78439   3.037   9.770   7.125  0.4220  0.6949 -0.2193
  569MOL0     C78440   3.078   9.824   7.247  0.1154 -0.7129 -0.7384
  569MOL0     C78441   3.186   9.780   7.312 -0.6499 -0.2562 -0.3070
  569MOL0     C78442   3.260   9.674   7.267  0.0734  0.1457  0.4240
  569MOL0     O78443   3.373   9.615   7.334  0.4378 -0.3111  0.2481
  569MOL0     C78444   3.418   9.649   7.467 -0.4850 -0.6285 -0.3633
  569MOL0     C78445   3.322   9.623   7.583 -0.1424  0.0341  0.3588
  569MOL0     C78446   3.278   9.469   7.588  0.3280 -0.7867  0.9501
  569MOL0     C78447   3.170   9.414   7.487 -0.0619  0.8239  0.2611
  569MOL0     C78448   3.056   9.497   7.498  0.2475  0.0475  0.5759
  569MOL0     C78449   2.961   9.568   7.514  0.6338 -1.2551  0.1346
  569MOL0     C78450   3.226   9.609   7.148  0.5311  0.2025  0.1957
  569MOL0     C78451   3.109   9.656   7.078 -0.0718  0.4174  0.6157
  569MOL0     C78452   3.072   9.598   6.938 -0.0519 -0.1617  0.8135
  569MOL0     H78453   2.967  10.203   6.938 -0.5744  2.4312  0.1624
  569MOL0     H78454   2.803  10.375   6.907  0.6574  1.1932  1.5279
  569MOL0     H78455   2.565  10.322   6.749 -1.0579  0.8254 -1.6634
  569MOL0     H78456   2.626  10.471   6.823  0.9659 -1.5588 -0.1837
  569MOL0     H78457   2.406  10.484   6.688 -2.4390 -0.4519  0.1956
  569MOL0     H78458   2.327  10.411   6.830 -1.0002  0.3200 -0.0498
  569MOL0     H78459   2.509  10.658   6.817 -0.2468 -2.2402 -2.3746
  569MOL0     H78460   2.335  10.671   6.794 -0.8622 -1.4166 -0.3699
  569MOL0     H78461   2.324  10.583   7.056  0.0256  2.0550  1.3055
  569MOL0     H78462   2.497  10.589   7.035 -1.5022 -0.9433  0.3762
  569MOL0     H78463   2.303  10.820   6.984 -0.6911 -2.2714 -1.0745
  569MOL0     H78464   2.477  10.819   6.959  0.3819  0.4476  1.0867
  569MOL0     H78465   2.336  10.836   7.229 -0.2571 -2.2857 -0.5185
  569MOL0     H78466   2.491  10.762   7.209  2.1108  0.8947  0.0951
  569MOL0     H78467   2.472  11.029   7.268  0.1117 -0.8706  0.1403
  569MOL0     H78468   2.438  11.048   7.092 -0.4519 -0.1800  0.1577
  569MOL0     H78469   2.690  10.941   7.220  1.1545 -0.3133 -1.3232
  569MOL0     H78470   2.659  10.931   7.049  1.5152  2.4863 -0.9592
  569MOL0     H78471   2.885  11.156   7.185  2.7593 -1.2755 -4.0436
  569MOL0     H78472   2.905  11.472   6.955  3.0749 -2.9829 -1.3343
  569MOL0     H78473   2.998  11.389   7.075  1.6223  2.1582 -1.8368
  569MOL0     H78474   2.763  11.558   7.159 -0.5510 -0.5188 -0.2579
  569MOL0     H78475   2.891  11.509   7.267 -0.3964  2.6269  0.4195
  569MOL0     H78476   3.057  11.669   7.155  0.1767  1.7203  1.5531
  569MOL0     H78477   2.925  11.713   7.039 -0.9320  0.1572 -0.2557
  569MOL0     H78478   2.788  11.765   7.244  0.2794  0.1948  0.4686
  569MOL0     H78479   2.958  11.770   7.318 -0.0326 -3.0177 -0.9683
  569MOL0     H78480   2.892  12.123   7.030  2.2159 -0.9978  1.3612
  569MOL0     H78481   2.735  12.288   6.966 -3.1510 -1.0304  0.5796
  569MOL0     H78482   2.836  12.412   7.027 -0.2914  1.7348  2.2827
  569MOL0     H78483   2.662  12.385   7.088 -0.0031 -2.8095  1.7370
  569MOL0     H78484   2.538  12.549   7.611  1.2172 -1.9344  4.2285
  569MOL0     H78485   2.513  12.778   7.666 -1.3522 -1.2752  0.5580
  569MOL0     H78486   2.553  13.116   7.583 -0.2753 -1.4126 -0.2258
  569MOL0     H78487   2.492  12.987   7.689 -0.9728  0.1908 -1.9215
  569MOL0     H78488   2.623  13.081   7.876 -0.8150  1.7549  2.4513
  569MOL0     H78489   2.682  13.207   7.792  2.1643 -1.5847  0.1041
  569MOL0     H78490   2.440  13.289   7.725  0.0951 -4.0778 -1.7540
  569MOL0     H78491   2.518  13.306   7.883  0.1695 -2.3339  1.9833
  569MOL0     H78492   2.384  13.130   7.975  1.9821  2.1076  0.4324
  569MOL0     H78493   2.328  13.080   7.818  1.6269  0.0874 -2.6982
  569MOL0     H78494   2.291  13.349   7.980  1.6915  0.0584 -0.4039
  569MOL0     H78495   2.200  13.334   7.831 -3.3325  0.3252  1.4335
  569MOL0     H78496   2.079  13.306   8.044  2.9578 -1.1120  2.3708
  569MOL0     H78497   2.158  13.162   8.077  0.7011 -1.7306 -0.4209
  569MOL0     H78498   2.060  13.037   7.894 -1.5143 -1.2503 -1.1436
  569MOL0     H78499   2.016  13.183   7.806  0.3997  1.5387  0.5022
  569MOL0     H78500   1.804  13.080   7.920 -2.3063  1.4475  1.4653
  569MOL0     H78501   1.835  13.258   7.939  2.2625  0.8055 -3.4761
  569MOL0     H78502   2.895  12.874   7.509  0.0389  0.1309 -2.0475
  569MOL0     H78503   2.923  12.646   7.441  1.9803 -0.4701  3.0776
  569MOL0     H78504   2.727  12.177   7.500 -1.8843  0.1553  0.6697
  569MOL0     H78505   2.797  11.955   7.415 -1.9746 -1.3252 -0.2992
  569MOL0     H78506   2.494  10.127   7.086 -0.4517 -0.3943 -1.2722
  569MOL0     H78507   2.673   9.947   7.118 -2.9836  1.0249  0.8782
  569MOL0     H78508   3.044   9.923   7.276  1.2241 -0.2600 -0.9287
  569MOL0     H78509   3.201   9.827   7.409 -0.6146 -0.2802 -0.3011
  569MOL0     H78510   3.506   9.588   7.486  0.8853  1.0138 -1.1191
  569MOL0     H78511   3.446   9.755   7.465  1.0196 -1.0133 -1.4568
  569MOL0     H78512   3.232   9.686   7.581 -1.7828 -1.7905  4.8145
  569MOL0     H78513   3.370   9.644   7.679  0.1245 -0.9225  0.4361
  569MOL0     H78514   3.368   9.407   7.581  1.0328  0.3542 -0.7997
  569MOL0     H78515   3.234   9.446   7.685  0.4044 -6.9086 -0.0978
  569MOL0     H78516   3.149   9.308   7.505 -0.4660  0.1132 -3.4708
  569MOL0     H78517   3.208   9.417   7.384 -2.0891 -1.6498 -0.6693
  569MOL0     H78518   2.877   9.628   7.543  1.0364 -0.5042 -0.2227
  569MOL0     H78519   3.282   9.526   7.108  1.1118  0.5343  0.3137
  569MOL0     H78520   2.966   9.573   6.945 -0.6268  0.7526 -2.8747
  569MOL0     H78521   3.103   9.667   6.859  2.8321 -1.0703  1.0349
  569MOL0     H78522   3.127   9.504   6.934  2.1543  0.9710 -5.1302
  570MOL0     O78523  10.838   6.417   5.499  0.9095  0.0464  0.6178
  570MOL0     C78524  10.802   6.500   5.419 -0.7519 -0.1205  1.0834
  570MOL0     O78525  10.721   6.607   5.441 -0.6806 -0.4862  0.4298
  570MOL0     C78526  10.696   6.664   5.562  0.8201 -0.5249 -0.3535
  570MOL0     C78527  10.605   6.770   5.560 -0.2895 -0.0779 -1.0714
  570MOL0     C78528  10.567   6.837   5.687 -0.1815 -0.0723  0.5290
  570MOL0     C78529  10.621   6.790   5.808  0.4798  0.2297 -0.2411
  570MOL0     O78530  10.575   6.849   5.923 -0.3753 -0.3171 -0.1144
  570MOL0     C78531  10.547   6.759   6.035 -0.1354  1.3611  0.8048
  570MOL0     C78532  10.439   6.814   6.128  0.2195  0.0229  0.1434
  570MOL0     C78533  10.414   6.728   6.253 -0.2610 -0.9689  0.2515
  570MOL0     C78534  10.369   6.824   6.369  0.5933 -0.7997  0.6149
  570MOL0     C78535  10.327   6.750   6.495  0.0795  0.9041  0.3123
  570MOL0     C78536  10.268   6.853   6.592  0.2001  0.4963 -0.0630
  570MOL0     C78537  10.184   6.966   6.543 -1.2140  0.5081 -0.0266
  570MOL0     C78538  10.120   7.040   6.664  0.2385 -0.2163  0.4984
  570MOL0     N78539  10.073   7.172   6.611  0.4759  0.0112 -0.3195
  570MOL0     C78540  10.145   7.288   6.588 -0.4386  0.0699 -0.5133
  570MOL0     C78541  10.049   7.373   6.538  0.0831 -0.7080 -0.8792
  570MOL0     C78542  10.081   7.522   6.524 -0.3678 -0.7349  0.1798
  570MOL0     C78543  10.092   7.594   6.661  0.6663  1.4845 -0.9220
  570MOL0     C78544  10.219   7.577   6.740 -0.1375 -0.8065  0.0379
  570MOL0     C78545  10.223   7.623   6.886  0.1441 -0.4540  0.1670
  570MOL0     O78546  10.127   7.555   6.965  0.6764 -1.0748  0.5505
  570MOL0     C78547  10.175   7.444   7.025 -0.2176 -0.2713 -0.5595
  570MOL0     C78548  10.226   7.445   7.154  0.5517  0.3818 -0.9892
  570MOL0     C78549  10.254   7.329   7.232 -0.2988  0.4916  0.6389
  570MOL0     C78550  10.308   7.352   7.371  0.0309 -0.5537  1.1820
  570MOL0     C78551  10.233   7.203   7.162  0.1155 -1.2681  0.6584
  570MOL0     C78552  10.262   7.072   7.225  0.2015 -0.5884  1.3331
  570MOL0     O78553  10.384   7.065   7.291  0.3837  0.0077 -0.6487
  570MOL0     C78554  10.425   6.943   7.336  0.0034 -0.0849  0.9983
  570MOL0     C78555  10.512   6.950   7.446 -0.2796  0.8768 -0.8616
  570MOL0     C78556  10.575   6.829   7.487  0.1384  0.0578  0.5063
  570MOL0     C78557  10.560   6.708   7.425 -0.4499 -0.1884 -0.7551
  570MOL0     O78558  10.612   6.598   7.487 -0.3690  0.2429 -0.3190
  570MOL0     C78559  10.544   6.474   7.467  0.6198  0.6744 -1.0073
  570MOL0     C78560  10.392   6.465   7.512 -0.7046 -0.2547  0.2530
  570MOL0     C78561  10.345   6.328   7.528  0.4759 -0.2087  0.5688
  570MOL0     C78562  10.192   6.333   7.547  1.1395  0.6797 -0.0621
  570MOL0     C78563  10.111   6.208   7.523 -0.4896  0.1587 -0.4906
  570MOL0     C78564  10.134   6.105   7.632 -0.0659  0.5551  0.4356
  570MOL0     C78565  10.034   5.985   7.617  0.0035  0.2245 -1.1397
  570MOL0     C78566   9.886   6.002   7.667 -0.7521 -0.1723 -0.1937
  570MOL0    Cl78567   9.763   5.958   7.542 -0.2220  0.0828 -0.0796
  570MOL0     C78568  10.481   6.705   7.309  0.5577  0.4742  0.4330
  570MOL0     C78569  10.411   6.822   7.266  0.1044 -0.2252 -0.1842
  570MOL0     O78570  10.180   6.982   7.212  0.0609  1.1116  0.5339
  570MOL0     C78571  10.173   7.204   7.036  0.4491  0.7045  0.1908
  570MOL0     C78572  10.146   7.317   6.970  0.1992  0.1336 -0.1735
  570MOL0     N78573   9.926   7.312   6.545  0.3563  0.2548 -0.3181
  570MOL0     N78574   9.939   7.185   6.572 -0.4375  0.2180  0.0692
  570MOL0     C78575  10.703   6.680   5.816  0.3827 -0.6699  0.8559
  570MOL0     C78576  10.732   6.615   5.690  0.0255 -1.2299 -0.8748
  570MOL0     C78577  10.851   6.492   5.284  0.0879  0.5210  0.0284
  570MOL0     C78578  10.850   6.358   5.228 -0.2956 -1.0599 -0.2098
  570MOL0     C78579  10.904   6.340   5.100 -1.0693  0.5655 -0.4199
  570MOL0     C78580  10.930   6.446   5.019  0.3923 -0.1997 -0.2171
  570MOL0     O78581  10.962   6.424   4.884 -0.2681 -0.1521 -0.4111
  570MOL0     C78582  11.093   6.384   4.846 -0.4168 -0.6527 -0.3339
  570MOL0     C78583  11.141   6.467   4.730  0.0746 -0.8267 -0.1340
  570MOL0     C78584  11.161   6.622   4.766  0.3886 -0.5232 -0.4058
  570MOL0     C78585  11.219   6.697   4.645 -0.3345  0.0640  0.1253
  570MOL0     C78586  11.125   6.715   4.530  0.0934 -0.2164 -1.0725
  570MOL0     C78587  11.049   6.722   4.436  0.2179  1.0248 -0.7831
  570MOL0     C78588  10.928   6.579   5.076 -0.2403  0.0060  0.0090
  570MOL0     C78589  10.897   6.600   5.209 -0.2359 -0.4390 -0.3847
  570MOL0     C78590  10.904   6.748   5.249  0.0571 -1.1496  0.4534
  570MOL0     H78591  10.577   6.808   5.463  0.2857  1.3923 -0.6993
  570MOL0     H78592  10.484   6.906   5.685  0.1000  0.4422  3.0333
  570MOL0     H78593  10.638   6.743   6.093  0.3114 -1.2674 -0.4698
  570MOL0     H78594  10.509   6.662   6.001  3.5329 -0.3214  0.9324
  570MOL0     H78595  10.464   6.918   6.152  3.1622 -0.1094 -1.7591
  570MOL0     H78596  10.346   6.827   6.072 -0.5177  3.7591  1.8776
  570MOL0     H78597  10.329   6.665   6.224 -0.5194 -0.8651  0.7798
  570MOL0     H78598  10.498   6.665   6.283 -0.0046 -0.8965 -0.3025
  570MOL0     H78599  10.455   6.888   6.389 -0.4898  1.4485 -1.4057
  570MOL0     H78600  10.283   6.883   6.338  0.2893 -0.2239  2.4153
  570MOL0     H78601  10.406   6.693   6.544  0.2721  1.9325  1.2482
  570MOL0     H78602  10.264   6.670   6.456 -0.8801  0.8320  1.9582
  570MOL0     H78603  10.215   6.803   6.674  0.9512  1.4223  1.0348
  570MOL0     H78604  10.354   6.891   6.649 -1.9688  0.1039  3.7939
  570MOL0     H78605  10.103   6.916   6.490 -0.9827 -0.3462  0.4065
  570MOL0     H78606  10.240   7.029   6.473  0.2733  1.1520  1.6613
  570MOL0     H78607  10.051   6.961   6.695  1.9141 -1.1360  2.0590
  570MOL0     H78608  10.190   7.049   6.747  0.3965 -3.1135  0.7838
  570MOL0     H78609  10.250   7.313   6.589  0.5324 -3.4510  1.7348
  570MOL0     H78610  10.009   7.576   6.463  0.1534  0.8110  0.8997
  570MOL0     H78611  10.175   7.544   6.474 -1.8520  1.8501 -1.7082
  570MOL0     H78612  10.084   7.702   6.642  0.1983  1.4548 -0.8969
  570MOL0     H78613  10.015   7.575   6.735  1.5726  1.0462 -0.0661
  570MOL0     H78614  10.251   7.473   6.733 -3.7900 -1.9506 -1.9324
  570MOL0     H78615  10.296   7.629   6.681 -1.9117  3.4113  1.0194
  570MOL0     H78616  10.321   7.621   6.935 -0.4046 -2.5208  1.3029
  570MOL0     H78617  10.215   7.731   6.868  4.0353 -0.3139 -1.8840
  570MOL0     H78618  10.246   7.537   7.208  1.2593 -1.3030  1.7870
  570MOL0     H78619  10.333   7.262   7.427  1.0850 -1.3396 -0.4630
  570MOL0     H78620  10.243   7.415   7.433 -1.4743  0.8506 -1.6119
  570MOL0     H78621  10.405   7.397   7.347  0.8240 -3.4889 -1.8304
  570MOL0     H78622  10.529   7.042   7.502 -0.2981 -0.3971  1.3310
  570MOL0     H78623  10.641   6.853   7.570  1.5523  0.2071 -0.6135
  570MOL0     H78624  10.565   6.419   7.375 -0.5091 -1.4309 -0.1087
  570MOL0     H78625  10.590   6.420   7.551  0.1169  1.8951  0.0906
  570MOL0     H78626  10.376   6.529   7.599  1.1911 -2.5121  2.4263
  570MOL0     H78627  10.327   6.503   7.433 -0.6008 -3.0124 -1.2810
  570MOL0     H78628  10.386   6.276   7.615  1.9641  0.0555  0.0374
  570MOL0     H78629  10.375   6.275   7.437  0.3045  1.1539 -0.3183
  570MOL0     H78630  10.153   6.403   7.474  0.6234  0.6359  0.1687
  570MOL0     H78631  10.164   6.368   7.647 -0.0299 -2.1892  0.7082
  570MOL0     H78632  10.004   6.220   7.506 -0.9935 -1.5178  1.1547
  570MOL0     H78633  10.151   6.162   7.432 -1.4136 -2.8709  0.5094
  570MOL0     H78634  10.123   6.155   7.729  0.9909 -4.8035  3.7352
  570MOL0     H78635  10.236   6.065   7.635 -0.2940 -0.0486  0.3250
  570MOL0     H78636  10.084   5.906   7.674 -1.4500 -1.1112 -1.6512
  570MOL0     H78637  10.020   5.959   7.512 -1.9521  2.8313 -1.5974
  570MOL0     H78638   9.875   6.104   7.702  1.8009  0.4127 -0.8519
  570MOL0     H78639   9.873   5.924   7.742  0.4534 -1.6837 -1.4666
  570MOL0     H78640  10.474   6.621   7.241 -2.7375  0.0776  1.0802
  570MOL0     H78641  10.355   6.814   7.173  0.1250  1.2581 -0.3500
  570MOL0     H78642  10.139   7.118   6.979 -0.5415  1.1785  0.0511
  570MOL0     H78643  10.101   7.309   6.872 -0.2286  0.6136 -0.0203
  570MOL0     H78644  10.749   6.641   5.906 -2.7623 -1.6659  2.1481
  570MOL0     H78645  10.799   6.532   5.707  2.6081  0.9180  0.2318
  570MOL0     H78646  10.814   6.278   5.292 -0.4208 -2.2031 -1.6479
  570MOL0     H78647  10.899   6.237   5.068 -1.2460 -0.1666  1.7509
  570MOL0     H78648  11.167   6.383   4.926 -0.3686 -1.6334 -0.3850
  570MOL0     H78649  11.082   6.280   4.814 -3.3846 -0.5895  0.1597
  570MOL0     H78650  11.061   6.455   4.656 -1.0979  0.7467  0.8154
  570MOL0     H78651  11.235   6.432   4.688  0.4653  0.1582 -0.1016
  570MOL0     H78652  11.061   6.660   4.789 -0.7894 -2.1232 -2.4455
  570MOL0     H78653  11.233   6.644   4.845 -0.0842 -2.1056  0.5251
  570MOL0     H78654  11.309   6.649   4.607  0.7404  4.3490 -3.5968
  570MOL0     H78655  11.259   6.796   4.670  2.4353 -1.5578  2.6945
  570MOL0     H78656  10.987   6.718   4.349  0.5809 -0.9773 -1.0184
  570MOL0     H78657  10.947   6.664   5.012 -0.2738 -0.1826 -0.2522
  570MOL0     H78658  10.906   6.813   5.161  0.5645 -1.8767 -0.0770
  570MOL0     H78659  10.809   6.770   5.299 -0.4265 -0.2818 -0.7864
  570MOL0     H78660  10.999   6.763   5.301 -0.3457  0.7475  0.7253
  571MOL0     O78661   7.573   0.099   7.313  0.2788  0.0952  0.8325
  571MOL0     C78662   7.624   0.092   7.200  0.0747 -1.0065  0.2537
  571MOL0     O78663   7.554   0.067   7.080 -0.2890  0.1873 -0.2526
  571MOL0     C78664   7.420   0.084   7.063  0.4183  0.2517 -0.5131
  571MOL0     C78665   7.368   0.097   6.933 -0.5777 -0.4505 -0.2344
  571MOL0     C78666   7.225   0.109   6.905 -0.3618 -0.7557 -0.3708
  571MOL0     C78667   7.134   0.122   7.009 -0.2602  0.0909  0.2288
  571MOL0     O78668   7.001   0.125   6.990 -0.2986 -0.9136  0.7219
  571MOL0     C78669   6.939   0.249   6.980  0.2660  0.0705 -0.2362
  571MOL0     C78670   6.786   0.254   6.981 -0.8221 -0.1492 -0.0829
  571MOL0     C78671   6.713   0.203   6.866  0.5210  0.1686 -0.1686
  571MOL0     C78672   6.564   0.241   6.884 -0.2877  0.2154 -0.6877
  571MOL0     C78673   6.493   0.151   6.980 -0.1680  0.6404 -0.2273
  571MOL0     C78674   6.342   0.133   6.965  0.1178 -0.7143 -0.3156
  571MOL0     C78675   6.273   0.007   7.035  0.3104 -0.1011 -0.3245
  571MOL0     C78676   6.138  -0.009   6.963  0.6551 -0.0570 -0.2192
  571MOL0     N78677   6.048  -0.100   7.017 -1.2651  0.0631  0.7495
  571MOL0     C78678   6.005  -0.212   6.954  0.0109  0.3036 -0.1510
  571MOL0     C78679   5.914  -0.268   7.035  0.3208 -0.4667  0.1640
  571MOL0     C78680   5.850  -0.403   7.006 -0.2052  0.0198  0.2358
  571MOL0     C78681   5.821  -0.480   7.129 -0.1868  0.5050 -0.2203
  571MOL0     C78682   5.759  -0.615   7.079  0.3700  0.7083 -1.0377
  571MOL0     C78683   5.716  -0.712   7.200 -0.4333 -0.0977  0.4066
  571MOL0     O78684   5.643  -0.818   7.134  0.1884 -0.4762 -0.0261
  571MOL0     C78685   5.580  -0.903   7.221  0.5915  0.2996 -0.1861
  571MOL0     C78686   5.488  -0.995   7.173 -0.2541 -0.5512  0.0945
  571MOL0     C78687   5.428  -1.095   7.252 -0.2903  0.5424  0.1725
  571MOL0     C78688   5.326  -1.188   7.192  0.7946  0.1177  0.4981
  571MOL0     C78689   5.455  -1.099   7.393  0.6929 -0.2806 -0.5772
  571MOL0     C78690   5.395  -1.190   7.500  0.0961 -0.0704  0.1482
  571MOL0     O78691   5.256  -1.199   7.488  0.4908  0.0600 -0.0666
  571MOL0     C78692   5.196  -1.324   7.506 -0.3363 -0.2523 -0.0690
  571MOL0     C78693   5.260  -1.441   7.546 -0.2173 -0.0972  1.1259
  571MOL0     C78694   5.192  -1.557   7.585  0.4143 -1.6690 -0.6795
  571MOL0     C78695   5.048  -1.554   7.569 -0.8400  0.5905 -0.7514
  571MOL0     O78696   4.964  -1.658   7.598  0.2652 -0.0005 -0.1690
  571MOL0     C78697   5.015  -1.783   7.646 -0.9971  0.7011  0.0113
  571MOL0     C78698   4.906  -1.896   7.648 -0.4334 -0.4408 -0.2068
  571MOL0     C78699   4.802  -1.875   7.760  0.0425  0.3081 -0.0674
  571MOL0     C78700   4.719  -2.008   7.768  0.4868 -0.9024 -0.3503
  571MOL0     C78701   4.569  -1.983   7.798 -0.2761  0.3028 -0.0412
  571MOL0     C78702   4.552  -1.908   7.937  0.4928  0.2977  0.4794
  571MOL0     C78703   4.572  -1.998   8.055  0.3641  0.0589  0.4732
  571MOL0     C78704   4.514  -1.942   8.190 -0.3384  0.1459 -0.3628
  571MOL0    Cl78705   4.341  -1.954   8.191  0.3860  0.3278  0.5183
  571MOL0     C78706   4.978  -1.441   7.525 -0.6760 -0.1289 -0.1995
  571MOL0     C78707   5.054  -1.325   7.496  0.6633 -0.1870 -0.5198
  571MOL0     O78708   5.466  -1.242   7.584  0.6101 -0.1323 -0.1704
  571MOL0     C78709   5.549  -1.006   7.445  0.2416 -0.1883 -0.0267
  571MOL0     C78710   5.610  -0.917   7.355 -1.0651 -0.4380  0.1266
  571MOL0     N78711   5.903  -0.183   7.146 -0.3438  0.3267  0.3330
  571MOL0     N78712   5.983  -0.086   7.138 -0.5175  0.2376  0.7796
  571MOL0     C78713   7.186   0.091   7.142  0.3059 -0.4446 -0.5047
  571MOL0     C78714   7.325   0.079   7.169  0.3339  0.3859  0.7979
  571MOL0     C78715   7.768   0.095   7.170  0.3214  0.5507  0.0298
  571MOL0     C78716   7.806   0.158   7.047 -0.0476  0.9867  0.5530
  571MOL0     C78717   7.936   0.137   6.998  0.2129  0.5255 -0.3204
  571MOL0     C78718   8.038   0.072   7.070  0.3669 -1.1867 -0.2068
  571MOL0     O78719   8.168   0.063   7.031  0.3152  0.1978  0.4418
  571MOL0     C78720   8.196   0.081   6.890  0.0307  0.8605 -0.8326
  571MOL0     C78721   8.340   0.042   6.860 -0.5503  0.2521 -0.4057
  571MOL0     C78722   8.356  -0.011   6.718 -0.3922  0.4913 -0.2223
  571MOL0     C78723   8.503  -0.015   6.679  1.0036 -0.5380  0.1088
  571MOL0     C78724   8.543   0.104   6.602  0.0535  0.2106  0.7106
  571MOL0     C78725   8.594   0.179   6.529  0.0117 -0.0565 -0.0442
  571MOL0     C78726   8.007   0.022   7.196  0.1876  1.4492  0.1545
  571MOL0     C78727   7.872   0.029   7.242 -0.9366  0.2925 -0.4502
  571MOL0     C78728   7.854  -0.024   7.380  0.6641 -0.0169 -0.2881
  571MOL0     H78729   7.443   0.115   6.857 -1.1755  2.3193 -0.2685
  571MOL0     H78730   7.193   0.114   6.801  2.0758 -1.5115 -1.2260
  571MOL0     H78731   6.978   0.301   6.893 -0.1446 -2.2152 -1.8757
  571MOL0     H78732   6.968   0.311   7.066 -5.1577  3.7044 -0.5431
  571MOL0     H78733   6.753   0.202   7.072  0.7799  1.5905  1.5769
  571MOL0     H78734   6.767   0.361   6.978 -1.1645 -0.1387  1.3502
  571MOL0     H78735   6.756   0.265   6.786  2.3843 -0.0608  0.5989
  571MOL0     H78736   6.733   0.096   6.854  1.4878  0.2213  0.8860
  571MOL0     H78737   6.550   0.338   6.934 -1.3290  0.6495 -1.7578
  571MOL0     H78738   6.515   0.239   6.786  2.9138 -1.1126 -2.4286
  571MOL0     H78739   6.512   0.167   7.086 -1.3909  0.3429  0.0525
  571MOL0     H78740   6.532   0.050   6.962  0.5688  0.1424  3.3584
  571MOL0     H78741   6.306   0.221   7.019  1.4820 -1.2981  1.6538
  571MOL0     H78742   6.313   0.130   6.860 -2.3458  1.5201  0.2009
  571MOL0     H78743   6.273   0.025   7.142  0.1538 -1.2895 -0.1065
  571MOL0     H78744   6.320  -0.091   7.022  0.0463  0.0442 -2.9445
  571MOL0     H78745   6.080   0.084   6.952  2.8479  1.1806 -2.1051
  571MOL0     H78746   6.154  -0.036   6.858  0.8375  0.2416 -0.2692
  571MOL0     H78747   6.044  -0.245   6.858 -0.4243 -1.3414  0.2119
  571MOL0     H78748   5.910  -0.463   6.938  0.0289 -2.3236  2.3707
  571MOL0     H78749   5.757  -0.383   6.954 -0.6851 -2.8663 -0.1281
  571MOL0     H78750   5.903  -0.503   7.198 -1.6920 -1.6881  0.9399
  571MOL0     H78751   5.749  -0.424   7.189 -1.6067 -0.2506 -1.1693
  571MOL0     H78752   5.666  -0.597   7.024 -2.5313 -0.1799  3.0552
  571MOL0     H78753   5.835  -0.674   7.027 -0.6812 -0.8690 -0.8796
  571MOL0     H78754   5.808  -0.743   7.251  0.4701  1.6200 -0.0951
  571MOL0     H78755   5.652  -0.665   7.275 -0.4052 -0.7922  0.8746
  571MOL0     H78756   5.465  -0.994   7.067  0.4829  0.0592 -0.0749
  571MOL0     H78757   5.308  -1.291   7.224  1.4825 -0.9242 -2.1464
  571MOL0     H78758   5.356  -1.203   7.087  1.7537  1.4667  0.5592
  571MOL0     H78759   5.228  -1.141   7.199 -0.8475 -3.1066  0.8850
  571MOL0     H78760   5.368  -1.443   7.543 -0.1291  2.2629 -1.4997
  571MOL0     H78761   5.232  -1.652   7.619 -0.0570 -2.2148 -1.6112
  571MOL0     H78762   5.095  -1.815   7.579  2.3556  2.0629  3.0463
  571MOL0     H78763   5.064  -1.769   7.742 -2.1035  0.2562  0.6607
  571MOL0     H78764   4.848  -1.884   7.556  0.4179  6.1045 -0.3506
  571MOL0     H78765   4.964  -1.989   7.651 -1.6768 -1.3653 -2.4303
  571MOL0     H78766   4.734  -1.797   7.726 -2.2238 -1.7510 -0.5351
  571MOL0     H78767   4.845  -1.858   7.859 -0.8248 -1.2187  0.6047
  571MOL0     H78768   4.769  -2.070   7.843  2.7864  1.4246  0.1817
  571MOL0     H78769   4.725  -2.047   7.666  0.4391  1.5354 -1.3644
  571MOL0     H78770   4.526  -1.921   7.719 -1.6387 -0.0239  0.4076
  571MOL0     H78771   4.509  -2.074   7.792 -0.6897  0.6148 -0.7681
  571MOL0     H78772   4.454  -1.859   7.927  0.7925  0.6523 -0.9099
  571MOL0     H78773   4.621  -1.825   7.954 -0.0441  0.6252  1.1428
  571MOL0     H78774   4.677  -2.029   8.059 -0.2156 -2.1508 -0.0499
  571MOL0     H78775   4.522  -2.093   8.038 -3.0116  1.6520  0.7533
  571MOL0     H78776   4.551  -1.839   8.193 -0.1401  0.2602 -3.6443
  571MOL0     H78777   4.562  -2.010   8.261 -1.0660  1.1895  1.1983
  571MOL0     H78778   4.870  -1.425   7.520 -0.3167  2.7822 -0.6707
  571MOL0     H78779   4.996  -1.234   7.480  0.5965 -0.4957 -2.1863
  571MOL0     H78780   5.581  -1.010   7.549  2.3485 -0.8820 -0.6700
  571MOL0     H78781   5.697  -0.861   7.390 -0.9354 -0.7153  0.2515
  571MOL0     H78782   7.110   0.080   7.220  1.2767 -2.4269  0.2409
  571MOL0     H78783   7.353   0.072   7.274  3.5396 -1.5257 -0.0571
  571MOL0     H78784   7.740   0.201   6.972 -0.2389 -2.9035 -1.7356
  571MOL0     H78785   7.961   0.173   6.899 -1.0258  0.7640 -0.5581
  571MOL0     H78786   8.131   0.008   6.841 -0.0230 -0.3207  0.8823
  571MOL0     H78787   8.175   0.181   6.852 -3.9182 -0.3205 -2.3155
  571MOL0     H78788   8.367  -0.038   6.929 -1.0772 -0.2722 -0.7930
  571MOL0     H78789   8.407   0.128   6.872 -0.2411  0.2683 -1.9580
  571MOL0     H78790   8.321  -0.115   6.718  0.4161  0.1984  0.9796
  571MOL0     H78791   8.301   0.039   6.638  0.0795 -0.1713 -0.9904
  571MOL0     H78792   8.518  -0.106   6.620 -0.9074  0.2685 -1.7245
  571MOL0     H78793   8.565  -0.018   6.769 -0.5525 -0.3392  1.2453
  571MOL0     H78794   8.643   0.244   6.460 -1.7448  2.8104  1.2156
  571MOL0     H78795   8.080  -0.021   7.265 -1.0079 -0.5754  0.2306
  571MOL0     H78796   7.828  -0.130   7.370 -1.3587  0.4703 -0.6752
  571MOL0     H78797   7.941  -0.009   7.445  0.1569 -2.1277  1.0042
  571MOL0     H78798   7.768   0.018   7.435 -0.6665 -1.5136 -1.1536
  572MOL0     O78799   2.674   3.973   0.760 -1.2951 -0.1924  0.3355
  572MOL0     C78800   2.626   3.984   0.872 -0.6657 -0.8508  0.0916
  572MOL0     O78801   2.499   4.019   0.893 -0.1902  0.7463  1.2820
  572MOL0     C78802   2.432   4.090   0.796  0.6229 -0.1291 -0.2365
  572MOL0     C78803   2.295   4.074   0.783 -0.4051  0.6013 -0.9548
  572MOL0     C78804   2.220   4.152   0.694  1.3152  0.4665  1.5241
  572MOL0     C78805   2.274   4.238   0.608 -0.5181 -0.4053  0.5478
  572MOL0     O78806   2.194   4.301   0.507 -0.6105  0.4694 -0.3499
  572MOL0     C78807   2.253   4.395   0.419 -0.3284 -0.4945 -0.2620
  572MOL0     C78808   2.155   4.459   0.327  0.4605  0.6826  0.1536
  572MOL0     C78809   2.078   4.346   0.246  0.9815 -1.6685  0.4984
  572MOL0     C78810   1.973   4.423   0.165 -0.0171  0.0647  0.4396
  572MOL0     C78811   1.903   4.351   0.039 -0.4111  0.4693  0.3794
  572MOL0     C78812   1.817   4.452  -0.032  0.1159 -0.0752  0.5356
  572MOL0     C78813   1.745   4.399  -0.154 -0.2647 -0.0462  0.2077
  572MOL0     C78814   1.688   4.249  -0.143 -0.7300  0.3884 -0.2365
  572MOL0     N78815   1.652   4.189  -0.270  0.1741  0.5373 -0.4454
  572MOL0     C78816   1.721   4.185  -0.392 -0.5068 -0.2983 -0.7734
  572MOL0     C78817   1.649   4.103  -0.472 -0.4038  0.5918  0.6697
  572MOL0     C78818   1.655   4.050  -0.611 -0.9844  0.1517 -0.3964
  572MOL0     C78819   1.782   4.105  -0.678  0.0182  0.1532  0.2720
  572MOL0     C78820   1.784   4.040  -0.822 -0.3479 -0.0339 -0.4119
  572MOL0     C78821   1.916   4.063  -0.887 -0.2400 -0.2458 -0.8454
  572MOL0     O78822   1.909   4.191  -0.944  0.0665  0.0787  0.0135
  572MOL0     C78823   2.003   4.221  -1.045  0.8806  0.0510 -0.9235
  572MOL0     C78824   1.966   4.312  -1.138 -0.5957  0.1187  0.8139
  572MOL0     C78825   2.059   4.358  -1.240 -0.6487  0.9453 -1.0204
  572MOL0     C78826   2.007   4.446  -1.341 -0.3995 -0.7623 -0.6909
  572MOL0     C78827   2.193   4.311  -1.237 -0.5614 -0.2694 -0.9566
  572MOL0     C78828   2.300   4.363  -1.332  0.5668 -0.0944  0.1379
  572MOL0     O78829   2.409   4.273  -1.349 -0.0478 -0.0109 -0.0839
  572MOL0     C78830   2.511   4.318  -1.419 -1.7547 -1.2739 -0.2014
  572MOL0     C78831   2.527   4.251  -1.544 -0.1171  0.4200 -0.6887
  572MOL0     C78832   2.624   4.299  -1.627  1.0539  0.5011 -0.1144
  572MOL0     C78833   2.706   4.413  -1.595 -0.1006  0.0003  0.1418
  572MOL0     O78834   2.801   4.450  -1.681 -0.4270 -0.1471 -0.0172
  572MOL0     C78835   2.802   4.589  -1.718 -0.2716 -0.5557  0.1355
  572MOL0     C78836   2.899   4.584  -1.830 -0.1259  0.2297 -0.1174
  572MOL0     C78837   2.874   4.488  -1.949 -0.5163  0.0738  0.4060
  572MOL0     C78838   2.979   4.505  -2.058  0.6778 -0.4935  0.3147
  572MOL0     C78839   2.935   4.400  -2.165  0.1104 -0.8259 -0.0364
  572MOL0     C78840   3.027   4.414  -2.286 -0.0422 -0.3747  0.2106
  572MOL0     C78841   3.166   4.349  -2.282  0.1368  0.7326  0.2991
  572MOL0     C78842   3.187   4.293  -2.419  0.0478  1.0135  0.0220
  572MOL0    Cl78843   3.220   4.429  -2.530 -0.1785  0.4672 -0.4897
  572MOL0     C78844   2.684   4.484  -1.478  0.7117  0.1644 -0.2247
  572MOL0     C78845   2.588   4.431  -1.390  0.8587 -0.1855  0.1096
  572MOL0     O78846   2.287   4.476  -1.375 -0.3121  0.4703  0.2324
  572MOL0     C78847   2.233   4.227  -1.129  0.0907 -0.6701  0.5779
  572MOL0     C78848   2.138   4.175  -1.037  0.3615 -0.0982 -0.0646
  572MOL0     N78849   1.539   4.049  -0.401  0.8624 -0.2110 -0.2926
  572MOL0     N78850   1.537   4.104  -0.285 -0.4478 -0.0078 -1.0244
  572MOL0     C78851   2.408   4.264   0.623 -0.0102  0.3936  0.1918
  572MOL0     C78852   2.483   4.202   0.725 -0.0199  1.3005 -0.5261
  572MOL0     C78853   2.697   3.913   0.984  0.2503  0.1311  0.5634
  572MOL0     C78854   2.630   3.847   1.082 -0.0855  0.4140 -0.3104
  572MOL0     C78855   2.696   3.780   1.189  0.1390 -0.9277 -0.1754
  572MOL0     C78856   2.841   3.770   1.190  1.7707 -0.3495 -0.3645
  572MOL0     O78857   2.911   3.711   1.290 -0.3722 -0.2231  0.6205
  572MOL0     C78858   2.856   3.710   1.422  0.1982  0.8914  0.3274
  572MOL0     C78859   2.782   3.569   1.433  0.2649 -0.6619 -0.2727
  572MOL0     C78860   2.756   3.536   1.576  0.1421 -0.0523 -0.0313
  572MOL0     C78861   2.673   3.639   1.649  0.3079  0.5834 -0.0889
  572MOL0     C78862   2.538   3.674   1.590  0.6255 -0.2793 -0.9308
  572MOL0     C78863   2.434   3.709   1.536 -0.1193  0.0835 -0.3130
  572MOL0     C78864   2.904   3.845   1.095 -0.3288  0.6349  0.1420
  572MOL0     C78865   2.841   3.916   0.989 -0.4263  0.5700 -0.9315
  572MOL0     C78866   2.926   3.996   0.905 -0.8033 -0.1823 -0.2453
  572MOL0     H78867   2.254   3.999   0.849  2.8653  1.3785  2.2955
  572MOL0     H78868   2.113   4.134   0.688  1.8009 -2.8296  0.4929
  572MOL0     H78869   2.335   4.345   0.367 -0.5775 -2.3739  1.0420
  572MOL0     H78870   2.317   4.464   0.474  0.6929 -0.7794 -1.0641
  572MOL0     H78871   2.090   4.526   0.384  0.9966 -0.3702  2.1058
  572MOL0     H78872   2.216   4.522   0.261 -0.2678  2.7980  1.3959
  572MOL0     H78873   2.133   4.298   0.164 -2.4320 -0.2038 -2.9172
  572MOL0     H78874   2.029   4.273   0.311 -0.5248  0.2625  1.6399
  572MOL0     H78875   1.891   4.457   0.229 -2.2527 -2.7066 -0.7171
  572MOL0     H78876   2.014   4.520   0.135  2.4219 -0.7551  0.8978
  572MOL0     H78877   1.848   4.262   0.070  6.0976 -4.0883  1.0016
  572MOL0     H78878   1.980   4.313  -0.030  0.4979 -1.0129  2.1418
  572MOL0     H78879   1.738   4.489   0.034  0.6578  1.8448  0.1556
  572MOL0     H78880   1.884   4.531  -0.066  0.1541 -1.4398 -3.0116
  572MOL0     H78881   1.808   4.394  -0.244 -1.5767  0.4109 -0.7578
  572MOL0     H78882   1.662   4.462  -0.188 -0.4088 -1.0539 -1.4436
  572MOL0     H78883   1.759   4.172  -0.111 -0.0077  1.3128  0.4451
  572MOL0     H78884   1.612   4.244  -0.064 -0.0100  2.1120  0.6253
  572MOL0     H78885   1.813   4.236  -0.420 -0.1184  0.4646  1.6174
  572MOL0     H78886   1.562   4.077  -0.661 -1.1471 -2.6479 -1.8023
  572MOL0     H78887   1.663   3.941  -0.609  0.0182  0.1983 -1.2015
  572MOL0     H78888   1.788   4.214  -0.686 -5.5809  0.7462  0.0060
  572MOL0     H78889   1.866   4.075  -0.615  0.4928 -0.3678 -0.5908
  572MOL0     H78890   1.768   3.932  -0.827  0.8246 -0.2599  0.2349
  572MOL0     H78891   1.707   4.095  -0.877 -1.1026 -0.1597  0.5146
  572MOL0     H78892   2.004   4.069  -0.822 -2.8571  0.3541  2.9553
  572MOL0     H78893   1.931   3.992  -0.968 -0.8008  1.4993 -2.5626
  572MOL0     H78894   1.863   4.344  -1.129 -0.9762 -0.4174 -1.1902
  572MOL0     H78895   1.898   4.455  -1.336 -0.4539 -2.0932  1.9361
  572MOL0     H78896   2.045   4.407  -1.436  2.5508  1.2120 -0.4520
  572MOL0     H78897   2.058   4.541  -1.321 -0.6523 -1.2524  2.8900
  572MOL0     H78898   2.458   4.173  -1.574  0.9684  0.3213 -3.1234
  572MOL0     H78899   2.632   4.256  -1.726 -3.4452  2.2569 -1.5076
  572MOL0     H78900   2.711   4.638  -1.754  0.2562 -0.3924 -1.0128
  572MOL0     H78901   2.863   4.648  -1.650  2.9980 -1.1932 -2.0339
  572MOL0     H78902   2.900   4.682  -1.879 -2.9206 -0.9501 -2.9441
  572MOL0     H78903   2.995   4.550  -1.790 -0.7499 -1.9474 -0.3487
  572MOL0     H78904   2.772   4.503  -1.985 -1.6700 -1.2685  2.8296
  572MOL0     H78905   2.888   4.385  -1.915  0.0880 -0.4264 -1.2912
  572MOL0     H78906   3.080   4.481  -2.023  0.3967 -1.4766  0.4941
  572MOL0     H78907   2.988   4.610  -2.086  0.8397 -0.7098 -0.4690
  572MOL0     H78908   2.944   4.298  -2.127 -0.7345 -0.1042  2.2775
  572MOL0     H78909   2.831   4.420  -2.191 -0.7117  0.0098  3.4365
  572MOL0     H78910   3.039   4.521  -2.303 -3.6734  0.2480  0.7918
  572MOL0     H78911   2.970   4.395  -2.377  2.2652  0.6995 -1.5694
  572MOL0     H78912   3.163   4.263  -2.214 -1.9086  1.1225  0.7835
  572MOL0     H78913   3.236   4.422  -2.240  0.7037  0.7259 -0.6110
  572MOL0     H78914   3.100   4.235  -2.450 -1.3098  1.0363  3.3566
  572MOL0     H78915   3.270   4.223  -2.412 -1.3514 -0.6684  0.3642
  572MOL0     H78916   2.743   4.567  -1.441 -0.9051 -0.1032  3.4395
  572MOL0     H78917   2.571   4.486  -1.298  0.3311 -0.2541  0.0551
  572MOL0     H78918   2.338   4.209  -1.110 -0.0386 -2.6740 -0.3505
  572MOL0     H78919   2.178   4.122  -0.951  0.5113 -0.8744 -0.6024
  572MOL0     H78920   2.463   4.337   0.564  0.0164  0.2230  0.0002
  572MOL0     H78921   2.589   4.226   0.725  0.0027  1.1966 -0.3014
  572MOL0     H78922   2.523   3.830   1.092  0.3321 -2.5696 -0.1304
  572MOL0     H78923   2.629   3.750   1.269 -2.4574  1.1494 -1.4286
  572MOL0     H78924   2.930   3.721   1.501  3.0339 -0.7198 -1.8991
  572MOL0     H78925   2.774   3.782   1.428 -0.2400  0.3258  1.4595
  572MOL0     H78926   2.825   3.477   1.392 -2.0735 -1.4674 -1.0583
  572MOL0     H78927   2.689   3.578   1.376 -0.6375 -1.4665  1.0245
  572MOL0     H78928   2.698   3.443   1.566  0.0821  0.0885 -1.1739
  572MOL0     H78929   2.848   3.511   1.630 -0.6649 -0.8874  1.0001
  572MOL0     H78930   2.738   3.726   1.662  1.2468 -0.1628  0.3646
  572MOL0     H78931   2.677   3.598   1.751  2.0518 -1.9660 -1.0760
  572MOL0     H78932   2.352   3.745   1.477  1.7303  0.9686 -2.5058
  572MOL0     H78933   3.011   3.853   1.110 -0.1139 -1.5369  0.0723
  572MOL0     H78934   3.026   3.998   0.949 -0.2736 -3.3341 -1.0841
  572MOL0     H78935   2.933   3.965   0.800 -1.1746 -0.6665 -0.1310
  572MOL0     H78936   2.876   4.093   0.902 -0.1446  0.1330 -1.6142
  573MOL0     O78937   1.100   2.069   8.296  0.6816 -0.0923 -0.9233
  573MOL0     C78938   1.045   2.053   8.188 -0.1087 -0.0613  0.3734
  573MOL0     O78939   0.910   2.016   8.170  0.1659  0.4022 -0.2037
  573MOL0     C78940   0.825   2.005   8.277  0.0897  0.8685  0.5044
  573MOL0     C78941   0.736   1.895   8.269 -0.3903 -0.2866  0.4664
  573MOL0     C78942   0.625   1.891   8.347 -0.4945  0.0239 -0.6062
  573MOL0     C78943   0.600   1.992   8.437  0.2874  0.4208 -0.3016
  573MOL0     O78944   0.486   1.985   8.515  0.0540  1.2620 -0.1868
  573MOL0     C78945   0.388   2.095   8.531  0.3003 -0.2101 -0.2560
  573MOL0     C78946   0.300   2.113   8.417  0.0533 -0.5133  0.5058
  573MOL0     C78947   0.351   2.187   8.289 -0.0622 -1.1239  0.8366
  573MOL0     C78948   0.238   2.198   8.180  0.0730  0.2625 -0.7378
  573MOL0     C78949   0.129   2.292   8.230 -0.1153  0.1519 -0.9660
  573MOL0     C78950   0.050   2.359   8.121 -0.2178  0.2885 -0.3892
  573MOL0     C78951  -0.002   2.272   8.008 -0.2052  0.3337 -0.1232
  573MOL0     C78952  -0.063   2.378   7.909  0.3897 -0.2878 -0.0330
  573MOL0     N78953  -0.093   2.309   7.784  0.3856 -0.2577 -0.8297
  573MOL0     C78954  -0.159   2.190   7.766 -0.5174 -0.2829 -0.1273
  573MOL0     C78955  -0.162   2.180   7.631 -0.2112 -0.5733 -0.5314
  573MOL0     C78956  -0.224   2.060   7.549 -0.7407 -0.2445 -0.3195
  573MOL0     C78957  -0.364   2.097   7.481 -0.5606  1.2318 -0.4947
  573MOL0     C78958  -0.330   2.161   7.346 -0.3898 -1.3804 -0.1130
  573MOL0     C78959  -0.468   2.186   7.270  0.4134  0.5823 -0.1311
  573MOL0     O78960  -0.439   2.197   7.130 -0.2159 -0.4213 -0.0279
  573MOL0     C78961  -0.465   2.319   7.077  0.3068  0.3907 -0.6237
  573MOL0     C78962  -0.593   2.342   7.058  0.8931 -0.2561 -0.0759
  573MOL0     C78963  -0.633   2.464   7.006 -0.1180 -1.0407  0.3863
  573MOL0     C78964  -0.778   2.480   6.964 -0.6277 -0.1181  0.2096
  573MOL0     C78965  -0.543   2.572   6.983  0.2431  0.4296  0.1567
  573MOL0     C78966  -0.572   2.707   6.937 -0.1614 -0.6074  0.3734
  573MOL0     O78967  -0.465   2.781   6.898  0.1900 -0.4671 -0.0541
  573MOL0     C78968  -0.467   2.872   6.789  1.0038  0.1183 -0.0604
  573MOL0     C78969  -0.336   2.896   6.739 -0.0940  0.8609  0.0982
  573MOL0     C78970  -0.327   2.952   6.619  0.3658 -0.2997  0.0598
  573MOL0     C78971  -0.442   2.998   6.546  0.2389 -1.2314 -0.1764
  573MOL0     O78972  -0.413   3.045   6.417  0.3997 -0.0205  0.5020
  573MOL0     C78973  -0.516   3.094   6.324  0.2612 -0.0151  0.1674
  573MOL0     C78974  -0.480   3.164   6.193  0.1399  0.0316 -0.1448
  573MOL0     C78975  -0.606   3.216   6.116 -0.8143  0.7390 -0.2995
  573MOL0     C78976  -0.696   3.112   6.053 -0.0655  0.6194  0.7464
  573MOL0     C78977  -0.821   3.169   5.967  0.4795 -0.3112 -0.6373
  573MOL0     C78978  -0.917   3.239   6.057 -0.8173 -0.3161  0.7679
  573MOL0     C78979  -0.969   3.148   6.172  0.8557  0.4115  0.2074
  573MOL0     C78980  -1.070   3.214   6.262  0.8432 -1.1075  0.6767
  573MOL0    Cl78981  -1.041   3.385   6.274  0.0942  0.3809  0.0688
  573MOL0     C78982  -0.572   3.004   6.603 -0.0029 -0.8477 -0.7385
  573MOL0     C78983  -0.584   2.943   6.724  0.2223 -0.5963  1.0939
  573MOL0     O78984  -0.689   2.745   6.930 -0.6236 -0.0286 -0.6522
  573MOL0     C78985  -0.407   2.532   7.001  0.9088 -0.4429 -0.5580
  573MOL0     C78986  -0.371   2.405   7.044  0.7315  0.5180  0.7707
  573MOL0     N78987  -0.107   2.292   7.568 -0.1954 -0.4449  0.3189
  573MOL0     N78988  -0.062   2.370   7.661 -0.0357  0.3033 -0.8063
  573MOL0     C78989   0.682   2.103   8.439 -0.2839 -0.1846 -0.2647
  573MOL0     C78990   0.803   2.117   8.363  0.1860  0.4192 -0.0396
  573MOL0     C78991   1.127   2.100   8.070 -0.1739 -0.0897 -0.2464
  573MOL0     C78992   1.058   2.170   7.974 -0.8278 -0.8284  0.1261
  573MOL0     C78993   1.127   2.223   7.867  0.3053  0.2243  0.7845
  573MOL0     C78994   1.259   2.190   7.850 -0.0872 -0.7804  0.2694
  573MOL0     O78995   1.311   2.217   7.719 -0.2188  0.2753 -0.2728
  573MOL0     C78996   1.445   2.190   7.690  0.0605 -0.2899  0.2188
  573MOL0     C78997   1.475   2.240   7.553 -0.0999  0.2989  0.0457
  573MOL0     C78998   1.501   2.400   7.543 -0.0948  1.4271 -0.1491
  573MOL0     C78999   1.610   2.445   7.639 -0.3080  1.0699  0.1566
  573MOL0     C79000   1.736   2.398   7.590 -0.5788  0.5989 -0.0456
  573MOL0     C79001   1.831   2.338   7.539 -0.1317 -0.5490  0.0772
  573MOL0     C79002   1.336   2.124   7.948 -0.0128  1.0983 -0.4730
  573MOL0     C79003   1.269   2.074   8.059  0.3703  0.2129 -0.4543
  573MOL0     C79004   1.332   1.972   8.163  0.6107  0.7628  0.1262
  573MOL0     H79005   0.747   1.825   8.187 -2.6224 -0.3767  0.1735
  573MOL0     H79006   0.542   1.822   8.334 -1.6138  0.9152  1.2803
  573MOL0     H79007   0.450   2.184   8.549  0.1161 -0.5688  2.6722
  573MOL0     H79008   0.323   2.080   8.617  1.8498  1.7946  1.3772
  573MOL0     H79009   0.270   2.012   8.389 -3.1813  0.5321 -0.1156
  573MOL0     H79010   0.225   2.182   8.458  0.9952  1.6211 -1.1594
  573MOL0     H79011   0.408   2.279   8.306  2.1563 -1.6857 -2.5918
  573MOL0     H79012   0.433   2.123   8.254 -0.1609 -0.5130 -0.5501
  573MOL0     H79013   0.290   2.232   8.090  0.5231  0.8016 -0.2803
  573MOL0     H79014   0.193   2.100   8.161  2.3709 -0.7218 -1.5220
  573MOL0     H79015   0.163   2.375   8.294 -1.8374  0.8252 -0.8653
  573MOL0     H79016   0.069   2.229   8.296  1.6828  1.0159  1.6865
  573MOL0     H79017  -0.037   2.407   8.166  0.2940  2.2821 -1.4056
  573MOL0     H79018   0.106   2.433   8.063 -3.6468  0.2958 -4.0998
  573MOL0     H79019  -0.076   2.194   8.027 -0.3566  0.6726  0.7283
  573MOL0     H79020   0.085   2.223   7.963 -0.4896 -1.6277  1.3587
  573MOL0     H79021  -0.156   2.410   7.956 -0.1447  0.4359 -1.5071
  573MOL0     H79022  -0.004   2.466   7.883  1.7516 -0.8073  1.1661
  573MOL0     H79023  -0.208   2.122   7.835  0.6576 -1.7801 -0.6939
  573MOL0     H79024  -0.231   1.978   7.621  2.9466 -0.2826  0.2162
  573MOL0     H79025  -0.153   2.028   7.473 -0.2838  1.1932 -0.5430
  573MOL0     H79026  -0.420   2.007   7.454 -0.4862  1.7857 -2.6721
  573MOL0     H79027  -0.426   2.153   7.551  0.5402  1.7220  0.1153
  573MOL0     H79028  -0.277   2.257   7.355  0.2219 -1.6752 -0.5194
  573MOL0     H79029  -0.277   2.087   7.286 -0.4968 -1.4643 -0.1034
  573MOL0     H79030  -0.535   2.100   7.280  0.0645  0.5755 -2.2503
  573MOL0     H79031  -0.523   2.275   7.303 -1.5944 -0.4611 -0.5127
  573MOL0     H79032  -0.678   2.278   7.080  1.1673 -0.8974 -0.8777
  573MOL0     H79033  -0.797   2.521   6.864 -1.9306 -1.3561 -0.0670
  573MOL0     H79034  -0.835   2.540   7.036  0.3380 -1.4168  2.1395
  573MOL0     H79035  -0.821   2.380   6.966 -0.0592 -0.3723 -0.0835
  573MOL0     H79036  -0.241   2.875   6.788 -1.0645  1.1727  2.2626
  573MOL0     H79037  -0.225   2.962   6.583  0.1276  0.3492 -0.4456
  573MOL0     H79038  -0.581   3.009   6.304  0.6905  0.1418 -2.1022
  573MOL0     H79039  -0.575   3.167   6.381  2.2310  2.1060 -0.3616
  573MOL0     H79040  -0.417   3.252   6.209  1.7346 -1.1961  0.6519
  573MOL0     H79041  -0.421   3.100   6.126  1.4343  0.0414  0.9334
  573MOL0     H79042  -0.568   3.290   6.045 -0.6782  4.7415  3.4799
  573MOL0     H79043  -0.655   3.283   6.187 -0.9420 -1.0101  1.3417
  573MOL0     H79044  -0.726   3.032   6.121 -0.3761 -1.2489 -1.4635
  573MOL0     H79045  -0.619   3.061   5.994 -0.0480  0.6350  0.7555
  573MOL0     H79046  -0.789   3.225   5.879 -1.2588  0.5160 -0.7756
  573MOL0     H79047  -0.872   3.079   5.931  0.7992 -0.4651 -0.7200
  573MOL0     H79048  -1.002   3.283   6.004 -0.6204  0.1448  0.8241
  573MOL0     H79049  -0.878   3.330   6.103 -1.6967  1.3795 -1.6232
  573MOL0     H79050  -0.883   3.115   6.230 -0.7467 -1.0906  1.8676
  573MOL0     H79051  -1.019   3.057   6.135 -1.1469  0.7642  1.8443
  573MOL0     H79052  -1.084   3.172   6.363 -1.5270 -0.0698  0.8552
  573MOL0     H79053  -1.168   3.207   6.213  1.5094  2.4156 -1.4787
  573MOL0     H79054  -0.653   3.052   6.548  0.7978 -0.0187 -1.2107
  573MOL0     H79055  -0.684   2.940   6.766  0.8007  1.3926  2.7842
  573MOL0     H79056  -0.327   2.604   6.985  1.2393 -0.8308 -0.6754
  573MOL0     H79057  -0.270   2.369   7.058  0.7363 -0.0148 -0.5246
  573MOL0     H79058   0.656   2.183   8.507 -1.8314  1.2675 -2.4319
  573MOL0     H79059   0.866   2.205   8.364 -2.3393  2.4490 -2.5332
  573MOL0     H79060   0.950   2.176   7.982 -0.8693 -2.4109  1.0216
  573MOL0     H79061   1.089   2.275   7.780  3.5630  2.2780  0.4299
  573MOL0     H79062   1.514   2.222   7.769 -1.0366 -1.1353  1.5573
  573MOL0     H79063   1.450   2.080   7.691 -3.0153 -0.5258 -1.6024
  573MOL0     H79064   1.393   2.203   7.491 -1.0940 -0.7610  1.8952
  573MOL0     H79065   1.557   2.180   7.512 -0.1654 -0.3123  0.7828
  573MOL0     H79066   1.530   2.428   7.441  1.4741  1.4080  0.2677
  573MOL0     H79067   1.411   2.455   7.570  0.2494  1.6660  0.5374
  573MOL0     H79068   1.588   2.404   7.738 -1.1930  1.0628 -0.0344
  573MOL0     H79069   1.610   2.554   7.644  2.0438  1.1095  0.3484
  573MOL0     H79070   1.924   2.303   7.500  0.6770  2.6631 -1.2609
  573MOL0     H79071   1.441   2.099   7.938  0.3791  0.7927  3.2181
  573MOL0     H79072   1.252   1.901   8.189 -1.4212  2.2373 -1.7625
  573MOL0     H79073   1.417   1.909   8.134 -0.2692  0.3032 -1.5746
  573MOL0     H79074   1.352   2.019   8.260 -1.4348  2.3680 -0.1603
  574MOL0     O79075   5.912  10.176   7.071  0.0502  0.0122  0.0428
  574MOL0     C79076   5.845  10.268   7.123 -0.6443 -0.2562 -0.1316
  574MOL0     O79077   5.718  10.296   7.081  0.0973 -0.5097 -0.1686
  574MOL0     C79078   5.660  10.206   6.998  0.8276  1.1619  0.6855
  574MOL0     C79079   5.709  10.193   6.870 -0.1006  0.4383  1.0835
  574MOL0     C79080   5.687  10.081   6.789 -0.6619 -0.1551 -0.2508
  574MOL0     C79081   5.596   9.984   6.835  0.7594 -0.6384  0.2301
  574MOL0     O79082   5.569   9.875   6.751  1.5795  0.5013 -0.8965
  574MOL0     C79083   5.611   9.741   6.792  0.0028  0.5326 -0.4135
  574MOL0     C79084   5.479   9.663   6.780  0.2618 -0.3330  0.2889
  574MOL0     C79085   5.461   9.523   6.832  0.8952  0.3493 -0.2114
  574MOL0     C79086   5.324   9.472   6.793 -0.8750 -0.1766  0.5036
  574MOL0     C79087   5.308   9.329   6.841 -0.2407 -0.1338 -0.5200
  574MOL0     C79088   5.179   9.267   6.794 -0.3329 -0.2294  0.9891
  574MOL0     C79089   5.168   9.128   6.855 -0.0169 -1.1797  0.3532
  574MOL0     C79090   5.056   9.061   6.780 -0.2255  0.2803 -0.8780
  574MOL0     N79091   4.982   8.951   6.856 -0.6440 -0.2492  0.2536
  574MOL0     C79092   5.028   8.835   6.902  0.2686  0.5373  0.9794
  574MOL0     C79093   4.920   8.779   6.966 -1.1630 -0.3135 -0.2903
  574MOL0     C79094   4.926   8.632   7.007  0.4036  0.0770  0.3581
  574MOL0     C79095   4.919   8.541   6.887  0.3001  0.6759  0.4254
  574MOL0     C79096   4.946   8.403   6.936 -0.2392 -0.7232 -0.6535
  574MOL0     C79097   4.952   8.296   6.835 -0.0847  0.5893 -0.3060
  574MOL0     O79098   4.826   8.244   6.801 -0.1944 -0.0929 -1.0228
  574MOL0     C79099   4.817   8.130   6.715 -0.0890  0.1267 -0.3152
  574MOL0     C79100   4.693   8.107   6.656 -0.1375 -1.7877  0.2415
  574MOL0     C79101   4.664   8.005   6.566 -1.1455 -1.4212  0.0645
  574MOL0     C79102   4.521   8.004   6.499  0.0805 -0.2040  0.5404
  574MOL0     C79103   4.771   7.919   6.542  0.9243 -0.1705  0.4082
  574MOL0     C79104   4.740   7.792   6.466  0.3331 -0.6960 -0.4051
  574MOL0     O79105   4.849   7.718   6.439 -0.1327  0.1929 -0.6547
  574MOL0     C79106   4.849   7.604   6.359 -1.1559 -0.4509 -0.8589
  574MOL0     C79107   4.976   7.538   6.363  0.1054 -0.5336  0.7093
  574MOL0     C79108   5.001   7.422   6.283  0.0461 -1.1442  0.3078
  574MOL0     C79109   4.895   7.376   6.199 -0.8270  0.4688 -0.7304
  574MOL0     O79110   4.906   7.264   6.120 -0.4008  0.5723 -0.1462
  574MOL0     C79111   4.811   7.224   6.031  0.3930  0.1573  0.5632
  574MOL0     C79112   4.864   7.101   5.948  0.7760 -0.6037  0.0701
  574MOL0     C79113   4.746   7.041   5.865 -0.6718 -0.2647 -1.6381
  574MOL0     C79114   4.801   6.941   5.755  0.8792  0.0768  0.3796
  574MOL0     C79115   4.682   6.857   5.706 -0.7292 -0.1128 -0.5006
  574MOL0     C79116   4.712   6.769   5.585  0.5986 -0.0668 -0.2736
  574MOL0     C79117   4.782   6.633   5.611 -0.5774 -1.3528  0.2621
  574MOL0     C79118   4.790   6.534   5.503  0.1827  0.2222  0.1373
  574MOL0    Cl79119   4.609   6.505   5.463 -0.3201 -0.1429  0.1248
  574MOL0     C79120   4.771   7.442   6.206  0.3615 -1.0348 -0.4806
  574MOL0     C79121   4.746   7.552   6.289 -0.0919  0.0286 -0.9736
  574MOL0     O79122   4.625   7.751   6.465 -0.5511 -0.0511  0.3473
  574MOL0     C79123   4.903   7.942   6.590  0.8569  0.1103  0.5679
  574MOL0     C79124   4.924   8.044   6.685  0.4435  0.2172 -0.7981
  574MOL0     N79125   4.818   8.860   6.956 -0.4664  0.7969  0.6918
  574MOL0     N79126   4.858   8.968   6.905 -0.5913 -0.3265 -0.4382
  574MOL0     C79127   5.534  10.000   6.962 -0.4137 -0.8298 -0.1002
  574MOL0     C79128   5.573  10.111   7.047 -0.3805  0.9996 -0.9307
  574MOL0     C79129   5.885  10.317   7.257 -0.2453  0.0229  0.0303
  574MOL0     C79130   5.787  10.311   7.360 -0.1433  0.0234  0.9412
  574MOL0     C79131   5.818  10.361   7.486  0.4218  0.3449 -0.5641
  574MOL0     C79132   5.939  10.407   7.526  0.1864 -0.3284  0.1809
  574MOL0     O79133   5.950  10.439   7.662 -0.3272 -0.2286 -0.2094
  574MOL0     C79134   6.077  10.440   7.721  0.6128  1.0089  1.1055
  574MOL0     C79135   6.082  10.465   7.870 -0.0510 -0.6846 -0.6730
  574MOL0     C79136   5.962  10.425   7.947  0.3237  0.0799 -0.8293
  574MOL0     C79137   5.949  10.279   8.001  0.8735  0.2460  0.2321
  574MOL0     C79138   6.071  10.249   8.078 -0.5935 -0.8042  0.3528
  574MOL0     C79139   6.178  10.207   8.123  1.6378  0.0057  0.3854
  574MOL0     C79140   6.047  10.397   7.434  0.2542  0.2191 -0.3259
  574MOL0     C79141   6.018  10.354   7.293 -0.1558 -0.9236 -0.6108
  574MOL0     C79142   6.125  10.347   7.188  0.2668 -0.1692  0.0587
  574MOL0     H79143   5.766  10.281   6.839 -1.6523  1.5415  1.2156
  574MOL0     H79144   5.750  10.049   6.706 -1.1517  1.3541 -1.2266
  574MOL0     H79145   5.642   9.738   6.897 -2.2874 -2.8443  0.3169
  574MOL0     H79146   5.694   9.718   6.725  0.0770  3.4434 -1.4813
  574MOL0     H79147   5.399   9.725   6.822  1.0712  1.1062 -0.1855
  574MOL0     H79148   5.463   9.659   6.671 -0.3302 -1.4527  0.4069
  574MOL0     H79149   5.531   9.451   6.789 -0.4492 -2.2259  1.6669
  574MOL0     H79150   5.483   9.524   6.939  1.1304  2.8444 -0.2153
  574MOL0     H79151   5.258   9.542   6.846 -0.6488 -0.3800  1.0676
  574MOL0     H79152   5.295   9.482   6.688 -0.1105  0.7804  0.3656
  574MOL0     H79153   5.321   9.328   6.950  0.5226  0.0354 -0.6017
  574MOL0     H79154   5.392   9.268   6.806 -1.2466 -0.6400 -2.1705
  574MOL0     H79155   5.101   9.335   6.830  3.1677  3.3178  2.7100
  574MOL0     H79156   5.174   9.259   6.685  0.9625  1.9205  0.7080
  574MOL0     H79157   5.153   9.153   6.960 -0.7498 -1.7680  0.4028
  574MOL0     H79158   5.255   9.063   6.844 -0.9345 -2.1895 -1.5974
  574MOL0     H79159   4.977   9.132   6.751  0.3118  0.1068 -2.9355
  574MOL0     H79160   5.097   9.028   6.684 -1.5285  2.6205 -2.3349
  574MOL0     H79161   5.122   8.787   6.875  1.0380  2.8116 -0.6741
  574MOL0     H79162   4.839   8.609   7.070 -0.0085  1.1496  0.2121
  574MOL0     H79163   5.021   8.620   7.061  1.1752  0.2178 -0.9305
  574MOL0     H79164   4.816   8.542   6.849  0.5096  0.1124 -0.1650
  574MOL0     H79165   4.982   8.567   6.801  0.2060 -1.7971 -0.4736
  574MOL0     H79166   5.043   8.400   6.986 -1.4088 -1.0636  1.7649
  574MOL0     H79167   4.870   8.375   7.010  0.7272  0.4413  0.8561
  574MOL0     H79168   5.001   8.328   6.742 -1.7089 -2.9125 -2.5729
  574MOL0     H79169   5.019   8.221   6.878 -0.3474  1.1663  1.1875
  574MOL0     H79170   4.621   8.185   6.680 -1.1905 -3.4255  2.8017
  574MOL0     H79171   4.466   8.099   6.499  0.4563  0.0713 -1.5873
  574MOL0     H79172   4.458   7.928   6.546  0.2790 -0.3111  0.6324
  574MOL0     H79173   4.543   7.987   6.393 -0.0361 -0.0217  0.4862
  574MOL0     H79174   5.057   7.578   6.424  1.8886 -2.7779 -0.0140
  574MOL0     H79175   5.104   7.389   6.287  0.5796 -0.0867 -2.3940
  574MOL0     H79176   4.724   7.199   6.093  0.0062 -2.9655 -1.0401
  574MOL0     H79177   4.792   7.314   5.972 -1.0006  0.0984  0.8725
  574MOL0     H79178   4.939   7.141   5.878 -0.5918 -0.0077 -1.0945
  574MOL0     H79179   4.911   7.023   6.009  1.5082 -1.2283 -1.2356
  574MOL0     H79180   4.700   7.125   5.811 -0.6201  0.5540 -0.4438
  574MOL0     H79181   4.658   7.006   5.918 -0.6285  3.9809  1.8181
  574MOL0     H79182   4.878   6.874   5.794  0.3042 -1.4511 -0.9805
  574MOL0     H79183   4.853   6.993   5.675  2.9647 -3.3331 -0.7171
  574MOL0     H79184   4.627   6.800   5.782 -0.5332 -1.4904 -1.3449
  574MOL0     H79185   4.607   6.931   5.677 -0.0367  0.6613 -0.3300
  574MOL0     H79186   4.768   6.824   5.508 -3.0345  1.9593 -1.7108
  574MOL0     H79187   4.611   6.751   5.547  0.5811  0.8978 -0.7057
  574MOL0     H79188   4.747   6.586   5.703  1.0158 -1.1546  1.0051
  574MOL0     H79189   4.887   6.662   5.620 -0.9924 -0.1868  1.7026
  574MOL0     H79190   4.842   6.445   5.539  1.1784  0.0309 -1.6747
  574MOL0     H79191   4.839   6.565   5.410 -0.1573 -1.2331 -0.5531
  574MOL0     H79192   4.684   7.402   6.156 -0.0619  2.0403 -2.4757
  574MOL0     H79193   4.649   7.601   6.289 -0.8720 -1.4468 -0.5368
  574MOL0     H79194   4.990   7.892   6.548  0.9575 -0.1216  1.0430
  574MOL0     H79195   5.023   8.056   6.727  0.3972 -0.9760 -0.3301
  574MOL0     H79196   5.457   9.930   6.991  1.5741 -2.5484  1.3743
  574MOL0     H79197   5.544  10.115   7.151 -1.1363 -0.5478 -1.0564
  574MOL0     H79198   5.688  10.288   7.320  0.4179  0.1170 -0.5695
  574MOL0     H79199   5.735  10.362   7.556  0.7783  0.7939 -0.1375
  574MOL0     H79200   6.111  10.337   7.704  1.9419  1.0491  3.1671
  574MOL0     H79201   6.147  10.510   7.674  1.5474 -0.3590  0.3567
  574MOL0     H79202   6.104  10.569   7.899  1.5776 -1.6772  2.0501
  574MOL0     H79203   6.178  10.418   7.894  0.1218  0.7246  1.6802
  574MOL0     H79204   5.964  10.478   8.043 -1.3528  0.7716 -1.1278
  574MOL0     H79205   5.866  10.451   7.902  1.5910  1.3809 -2.8794
  574MOL0     H79206   5.949  10.209   7.917  1.3189  0.8740 -0.3033
  574MOL0     H79207   5.857  10.253   8.055 -0.0955  2.7081 -0.0969
  574MOL0     H79208   6.276  10.188   8.163  2.4992 -0.1340 -1.6825
  574MOL0     H79209   6.147  10.422   7.467  0.0091 -2.5226  3.0566
  574MOL0     H79210   6.095  10.402   7.098 -3.9500  1.4916  2.1767
  574MOL0     H79211   6.216  10.392   7.228  0.6511 -0.3702 -0.5702
  574MOL0     H79212   6.153  10.246   7.157 -2.9148 -1.0771 -0.2268
  575MOL0     O79213   2.199   9.474   5.474 -0.2475 -0.3543  0.1508
  575MOL0     C79214   2.288   9.558   5.490  0.5383 -0.5468 -0.3885
  575MOL0     O79215   2.263   9.692   5.506 -0.4762  0.7365 -0.2866
  575MOL0     C79216   2.141   9.745   5.468 -0.4552  0.4908  0.1742
  575MOL0     C79217   2.103   9.731   5.333 -0.1034 -0.1111 -0.9754
  575MOL0     C79218   1.989   9.792   5.278  0.0047 -0.0309 -0.3155
  575MOL0     C79219   1.904   9.864   5.368 -0.4551 -0.3158  0.4931
  575MOL0     O79220   1.801   9.919   5.303  0.4835  0.2823 -0.1358
  575MOL0     C79221   1.701   9.990   5.381 -1.1270 -0.2068  0.4146
  575MOL0     C79222   1.599  10.035   5.277  1.6085 -0.0822 -0.3496
  575MOL0     C79223   1.528   9.918   5.203  0.3989  0.2562  0.0852
  575MOL0     C79224   1.392   9.938   5.130  0.5871 -0.2699 -0.2068
  575MOL0     C79225   1.325   9.804   5.078  0.0158  0.3659 -0.2396
  575MOL0     C79226   1.197   9.824   5.000  0.2476  0.2540  0.2352
  575MOL0     C79227   1.152   9.701   4.936 -0.2207 -0.4641  0.3617
  575MOL0     C79228   1.017   9.709   4.863  0.0524  0.1240 -0.0715
  575MOL0     N79229   1.021   9.822   4.769  0.8130  1.2442 -0.0116
  575MOL0     C79230   1.051   9.818   4.631  0.0053 -0.4196  0.3725
  575MOL0     C79231   1.058   9.942   4.590 -0.3280 -0.5414 -0.4445
  575MOL0     C79232   1.106   9.989   4.452  0.7604 -0.4719 -0.5262
  575MOL0     C79233   1.000  10.055   4.351  0.1912 -0.4821  0.2212
  575MOL0     C79234   0.983  10.211   4.366 -0.3625 -0.5202  0.1978
  575MOL0     C79235   0.861  10.251   4.287 -1.0946  0.3668 -0.4257
  575MOL0     O79236   0.738  10.198   4.342  0.5096  0.5409 -0.1862
  575MOL0     C79237   0.625  10.203   4.258  0.3579  1.0258  0.2823
  575MOL0     C79238   0.513  10.130   4.295 -0.0076  0.3053 -0.5899
  575MOL0     C79239   0.389  10.151   4.242  0.5814 -0.3482  0.8035
  575MOL0     C79240   0.273  10.081   4.313  0.2754 -0.5511 -0.5612
  575MOL0     C79241   0.366  10.250   4.142  0.7700  0.4410  0.2778
  575MOL0     C79242   0.226  10.272   4.083 -0.1267  0.4551 -0.1402
  575MOL0     O79243   0.195  10.397   4.034  0.4967 -0.9210  0.0171
  575MOL0     C79244   0.083  10.410   3.954  0.4109 -0.4402  0.1439
  575MOL0     C79245   0.100  10.469   3.830  0.4256  0.1917  0.1140
  575MOL0     C79246  -0.010  10.475   3.748 -0.9290 -0.2899 -0.7099
  575MOL0     C79247  -0.133  10.437   3.780  0.1445  0.3186  0.2872
  575MOL0     O79248  -0.232  10.452   3.683 -0.7189 -0.0008  1.0610
  575MOL0     C79249  -0.361  10.399   3.696  0.3130 -0.5148  0.6474
  575MOL0     C79250  -0.425  10.375   3.557 -0.1183  0.4033  0.2380
  575MOL0     C79251  -0.583  10.351   3.549  0.2170  0.3038  0.6466
  575MOL0     C79252  -0.628  10.322   3.407  0.0087 -0.0029  0.2298
  575MOL0     C79253  -0.782  10.316   3.384  0.4601  1.5464  0.1876
  575MOL0     C79254  -0.839  10.198   3.468  0.6262  1.2299  0.9751
  575MOL0     C79255  -0.966  10.163   3.399  0.4215 -0.9298  0.4240
  575MOL0     C79256  -1.013  10.026   3.444  0.0848  0.2040 -0.4850
  575MOL0    Cl79257  -1.107   9.957   3.301 -0.0204 -0.2937  0.2786
  575MOL0     C79258  -0.162  10.382   3.907  0.4883 -0.0133 -0.6872
  575MOL0     C79259  -0.048  10.359   3.989 -0.3013 -0.5362  0.5895
  575MOL0     O79260   0.156  10.170   4.056 -0.3511 -0.0880 -0.3085
  575MOL0     C79261   0.482  10.328   4.099 -0.3737  0.4141  0.4261
  575MOL0     C79262   0.596  10.313   4.166 -0.0291  1.0199  0.2341
  575MOL0     N79263   1.011  10.014   4.694 -0.4273 -0.9858  0.0717
  575MOL0     N79264   0.989   9.947   4.801  0.0668 -0.7674  0.1880
  575MOL0     C79265   1.940   9.879   5.502 -0.2796  0.1376  0.1477
  575MOL0     C79266   2.053   9.822   5.552  0.7206  0.3478 -0.1597
  575MOL0     C79267   2.428   9.510   5.489 -0.0565  0.5231  0.2275
  575MOL0     C79268   2.435   9.375   5.535  0.0317  0.2371 -0.0687
  575MOL0     C79269   2.559   9.305   5.557 -0.4018  0.2461 -0.4415
  575MOL0     C79270   2.678   9.377   5.537 -0.5551  0.5381 -0.4393
  575MOL0     O79271   2.797   9.312   5.556 -0.3094 -0.2242 -0.6312
  575MOL0     C79272   2.813   9.198   5.644 -0.0120 -0.4582 -0.5727
  575MOL0     C79273   2.769   9.215   5.795  0.6587  0.7580 -0.2855
  575MOL0     C79274   2.751   9.078   5.856 -0.1166  0.3269 -0.7327
  575MOL0     C79275   2.620   9.053   5.936 -0.4453 -0.5787 -0.2509
  575MOL0     C79276   2.508   9.080   5.846 -0.2015  1.0171  0.2491
  575MOL0     C79277   2.421   9.109   5.771  1.5924  0.6847 -0.0915
  575MOL0     C79278   2.666   9.510   5.481 -0.7892 -0.7442  0.9314
  575MOL0     C79279   2.550   9.583   5.454  0.8563  0.1961 -0.0640
  575MOL0     C79280   2.551   9.726   5.425 -0.1571 -0.3155 -0.3017
  575MOL0     H79281   2.177   9.679   5.273  0.2123 -2.9104  1.6086
  575MOL0     H79282   1.965   9.801   5.172 -1.6431 -1.5690 -0.1186
  575MOL0     H79283   1.744  10.071   5.441 -2.8213  1.7649 -0.9139
  575MOL0     H79284   1.662   9.912   5.447 -2.0303  1.0114  1.3722
  575MOL0     H79285   1.520  10.092   5.327  1.0549 -0.1940 -1.0750
  575MOL0     H79286   1.663  10.096   5.213  2.6343  1.9868  2.4664
  575MOL0     H79287   1.596   9.854   5.146 -0.0181 -3.9852  3.7539
  575MOL0     H79288   1.504   9.843   5.280  1.8788 -0.5566 -0.2083
  575MOL0     H79289   1.329   9.990   5.203 -1.3327 -0.1764 -1.8249
  575MOL0     H79290   1.402  10.011   5.048 -1.7764  2.0834  1.4123
  575MOL0     H79291   1.296   9.736   5.159 -4.2306  0.9017 -1.0770
  575MOL0     H79292   1.403   9.748   5.027  0.4004 -1.0430  1.7533
  575MOL0     H79293   1.117   9.861   5.065 -0.3342  1.6126 -1.1872
  575MOL0     H79294   1.209   9.905   4.928  0.1475 -1.3616 -1.6868
  575MOL0     H79295   1.142   9.627   5.017  0.1077 -1.2108 -0.2644
  575MOL0     H79296   1.237   9.668   4.875 -0.0747  2.3654 -1.1105
  575MOL0     H79297   1.000   9.617   4.805  0.4697 -0.1141  0.1749
  575MOL0     H79298   0.935   9.724   4.934 -1.9118  2.0167 -2.5627
  575MOL0     H79299   1.088   9.728   4.583  0.4700  0.0665 -0.2006
  575MOL0     H79300   1.155   9.905   4.403 -1.7517 -0.9793 -2.3538
  575MOL0     H79301   1.187  10.060   4.471  1.3515 -0.1091 -3.8196
  575MOL0     H79302   1.034  10.045   4.247  0.5753 -0.7467  0.3663
  575MOL0     H79303   0.909   9.997   4.370  0.8545 -1.6260  0.0114
  575MOL0     H79304   0.976  10.227   4.474  0.1729 -0.9338  0.3000
  575MOL0     H79305   1.064  10.271   4.325 -0.4810  0.4293  1.2875
  575MOL0     H79306   0.838  10.357   4.299  0.2613  0.5129  1.2345
  575MOL0     H79307   0.877  10.224   4.182 -0.1128 -0.1506 -0.1520
  575MOL0     H79308   0.507  10.081   4.392 -0.1030  0.6660 -0.4097
  575MOL0     H79309   0.248   9.987   4.264 -3.3535  0.9662 -2.0588
  575MOL0     H79310   0.184  10.145   4.317  1.6680  1.4416  2.4880
  575MOL0     H79311   0.300  10.071   4.419  2.5383 -1.1563 -1.1398
  575MOL0     H79312   0.195  10.496   3.786  0.3369 -1.6569 -1.3323
  575MOL0     H79313   0.004  10.517   3.649  1.6278 -0.2591 -0.3988
  575MOL0     H79314  -0.363  10.312   3.762 -0.6674 -0.3420  0.8567
  575MOL0     H79315  -0.420  10.476   3.747  1.3764  1.5769 -1.0921
  575MOL0     H79316  -0.397  10.450   3.483  0.3989 -1.7842 -1.9515
  575MOL0     H79317  -0.376  10.281   3.525 -2.9278 -0.3238 -2.4208
  575MOL0     H79318  -0.626  10.436   3.603  2.1976 -0.8508  4.4526
  575MOL0     H79319  -0.610  10.267   3.614 -2.0578 -0.8985 -1.6618
  575MOL0     H79320  -0.580  10.229   3.377  1.6962  0.6618  0.7407
  575MOL0     H79321  -0.586  10.400   3.343 -1.4052  0.3478 -0.3150
  575MOL0     H79322  -0.835  10.406   3.417 -0.6671  0.2242  2.2144
  575MOL0     H79323  -0.804  10.296   3.279 -0.6513  0.9009  0.5301
  575MOL0     H79324  -0.863  10.237   3.567 -1.4288  3.2431 -0.2179
  575MOL0     H79325  -0.773  10.111   3.477 -1.4812 -0.6424 -0.4410
  575MOL0     H79326  -0.961  10.169   3.290  0.3469  4.2070  0.4573
  575MOL0     H79327  -1.045  10.236   3.418  1.5116  0.1808  0.7806
  575MOL0     H79328  -1.079  10.040   3.530  0.1584  1.1568 -0.5761
  575MOL0     H79329  -0.932   9.956   3.465 -0.4611 -0.6360 -1.1039
  575MOL0     H79330  -0.264  10.360   3.937  0.2797  1.6927  0.0158
  575MOL0     H79331  -0.067  10.315   4.086  1.4101 -1.9417  0.3470
  575MOL0     H79332   0.458  10.405   4.027  1.2327  2.5225  1.9986
  575MOL0     H79333   0.675  10.383   4.139  0.9844 -0.9305 -2.2784
  575MOL0     H79334   1.873   9.945   5.555 -2.3029  1.7452 -4.0062
  575MOL0     H79335   2.073   9.851   5.655 -0.9258  2.7713 -0.4384
  575MOL0     H79336   2.346   9.314   5.550  0.0867  0.8274  3.3272
  575MOL0     H79337   2.551   9.208   5.607  0.4886  1.7227  2.8453
  575MOL0     H79338   2.753   9.117   5.601 -1.4792 -0.4022  1.2084
  575MOL0     H79339   2.919   9.175   5.654 -0.0621 -0.4034  0.2035
  575MOL0     H79340   2.683   9.282   5.788 -0.4960 -0.8503 -2.1827
  575MOL0     H79341   2.849   9.257   5.857 -0.6183  1.6922  0.7704
  575MOL0     H79342   2.744   9.005   5.775 -1.8741 -1.6883  1.1321
  575MOL0     H79343   2.841   9.059   5.916 -0.4742 -1.8374 -0.7994
  575MOL0     H79344   2.625   9.111   6.028 -1.4790 -1.5431  0.4392
  575MOL0     H79345   2.616   8.949   5.969 -0.5935  0.2162  2.4856
  575MOL0     H79346   2.342   9.124   5.701 -0.7104 -0.2547  2.1587
  575MOL0     H79347   2.756   9.565   5.456 -0.4824 -1.0966  1.2296
  575MOL0     H79348   2.644   9.754   5.376 -1.4233  3.1391 -1.0831
  575MOL0     H79349   2.463   9.758   5.368 -0.6980 -0.1452  0.5900
  575MOL0     H79350   2.545   9.789   5.515 -3.0223  0.8400 -1.1817
  576MOL0     O79351   9.882  10.634   1.038  0.4499  1.2199 -0.3775
  576MOL0     C79352   9.823  10.652   1.142 -0.6172  0.2295  0.3735
  576MOL0     O79353   9.690  10.669   1.167 -0.6709  0.0083  0.3368
  576MOL0     C79354   9.608  10.661   1.058  0.6606 -0.2014  0.4083
  576MOL0     C79355   9.546  10.538   1.028 -0.5711 -0.7726  0.4722
  576MOL0     C79356   9.488  10.534   0.907 -0.4068 -0.1658  0.0028
  576MOL0     C79357   9.473  10.644   0.815  0.5901  0.9554  0.0800
  576MOL0     O79358   9.393  10.637   0.702 -0.2210  0.6787  0.4052
  576MOL0     C79359   9.254  10.658   0.729  0.0282 -0.1621  0.0432
  576MOL0     C79360   9.175  10.542   0.674  0.2366 -0.5840  0.1858
  576MOL0     C79361   9.016  10.553   0.679  0.1890  0.0848 -1.4477
  576MOL0     C79362   8.945  10.433   0.609 -0.0627 -0.3950  0.6424
  576MOL0     C79363   8.798  10.439   0.573  0.9123  0.2551 -0.0307
  576MOL0     C79364   8.722  10.522   0.689 -0.1053  0.7249 -1.0171
  576MOL0     C79365   8.573  10.517   0.659 -0.3222 -0.5781  0.0531
  576MOL0     C79366   8.482  10.612   0.748  0.3122  0.1657 -0.2453
  576MOL0     N79367   8.356  10.636   0.674 -0.0247 -0.1229  0.4515
  576MOL0     C79368   8.239  10.569   0.675 -1.0073 -0.4141  0.6738
  576MOL0     C79369   8.160  10.628   0.585  0.2457 -0.2969 -0.0499
  576MOL0     C79370   8.029  10.582   0.541  0.5132  0.5507  0.6651
  576MOL0     C79371   7.998  10.572   0.382  0.5130  0.5499 -0.5085
  576MOL0     C79372   8.035  10.685   0.280 -0.1634  0.1925  0.7403
  576MOL0     C79373   7.978  10.821   0.321 -0.2879 -0.1634 -1.2408
  576MOL0     O79374   7.930  10.888   0.204 -0.4960 -0.1212  0.9744
  576MOL0     C79375   8.021  10.974   0.134  0.9205 -0.4689  0.3021
  576MOL0     C79376   8.047  10.947   0.010  0.1974  0.5440  0.0313
  576MOL0     C79377   8.121  11.033  -0.073  0.2817  0.9028  0.4486
  576MOL0     C79378   8.135  10.978  -0.212 -0.2263 -0.1867 -0.4262
  576MOL0     C79379   8.168  11.148  -0.020  0.7277  0.1353  0.5911
  576MOL0     C79380   8.240  11.254  -0.094 -0.0618 -0.6152 -0.1412
  576MOL0     O79381   8.266  11.375  -0.027 -0.1994 -0.3253  0.1545
  576MOL0     C79382   8.361  11.455  -0.092  0.0775 -0.3875 -1.0636
  576MOL0     C79383   8.503  11.443  -0.061  0.5442  0.8585  0.6430
  576MOL0     C79384   8.587  11.529  -0.137  1.0820 -0.6309  0.2740
  576MOL0     C79385   8.533  11.625  -0.234  0.9718  0.4203 -0.5958
  576MOL0     O79386   8.618  11.682  -0.318 -0.2105 -0.2666  0.1664
  576MOL0     C79387   8.592  11.800  -0.398 -0.4264 -0.1324 -0.8506
  576MOL0     C79388   8.722  11.837  -0.470  0.8078 -0.6177  1.1338
  576MOL0     C79389   8.710  11.978  -0.523  0.0050 -0.2614  0.5852
  576MOL0     C79390   8.836  12.017  -0.613  0.3691 -1.0641  0.2360
  576MOL0     C79391   8.831  12.167  -0.654 -0.8031 -0.3119 -0.0607
  576MOL0     C79392   8.896  12.212  -0.781 -0.8171 -0.0455 -0.0029
  576MOL0     C79393   9.046  12.158  -0.770  0.9071 -0.2323  0.2124
  576MOL0     C79394   9.144  12.248  -0.838  0.4843 -0.5800  0.7952
  576MOL0    Cl79395   9.085  12.318  -0.988  0.0821 -0.9325 -0.0800
  576MOL0     C79396   8.397  11.632  -0.260  0.2944 -0.1349 -0.1017
  576MOL0     C79397   8.311  11.550  -0.182 -0.6050 -0.3610  1.0030
  576MOL0     O79398   8.268  11.230  -0.210 -0.1562  0.1593 -0.6354
  576MOL0     C79399   8.129  11.185   0.118 -0.1487  1.2844  0.4120
  576MOL0     C79400   8.051  11.096   0.190 -0.0809  0.0960  0.3818
  576MOL0     N79401   8.233  10.730   0.523 -0.1811  0.3210 -0.4446
  576MOL0     N79402   8.348  10.742   0.579  0.0249  0.6434  0.1801
  576MOL0     C79403   9.525  10.772   0.856 -0.7270  1.2934 -0.2822
  576MOL0     C79404   9.597  10.780   0.976  1.1727 -0.4631 -0.6638
  576MOL0     C79405   9.892  10.673   1.265 -0.3109 -0.0106 -0.0488
  576MOL0     C79406   9.994  10.766   1.283  0.1983  0.2113  0.0179
  576MOL0     C79407  10.068  10.779   1.399 -0.6362  0.0693  0.0200
  576MOL0     C79408  10.049  10.697   1.508 -0.6008  0.0009  0.1489
  576MOL0     O79409  10.122  10.697   1.623  0.1792 -1.1341  0.4138
  576MOL0     C79410  10.202  10.815   1.660  0.8121  0.1846 -0.1353
  576MOL0     C79411  10.317  10.793   1.765  1.3293 -0.1565 -0.2419
  576MOL0     C79412  10.408  10.680   1.725 -1.2696  0.0829  0.4702
  576MOL0     C79413  10.507  10.629   1.838  1.2249  0.7405  0.0327
  576MOL0     C79414  10.601  10.727   1.887 -0.2540 -0.2006  0.5384
  576MOL0     C79415  10.691  10.801   1.905  0.5357  0.1562 -0.1859
  576MOL0     C79416   9.952  10.596   1.489  0.0162  0.6404  0.0564
  576MOL0     C79417   9.881  10.579   1.372  0.3543 -0.1413  0.9227
  576MOL0     C79418   9.786  10.461   1.355 -0.1506 -0.6499 -0.4933
  576MOL0     H79419   9.530  10.447   1.084 -0.6519 -1.6938 -0.9932
  576MOL0     H79420   9.444  10.436   0.889 -1.6660  0.2771  0.5747
  576MOL0     H79421   9.220  10.753   0.686 -3.3028 -1.5499 -0.7528
  576MOL0     H79422   9.223  10.677   0.833  0.9089 -0.6366  0.3979
  576MOL0     H79423   9.210  10.543   0.570  2.9613  4.8108  0.7964
  576MOL0     H79424   9.199  10.445   0.718 -0.8949 -0.2067  1.7175
  576MOL0     H79425   8.993  10.558   0.786 -1.8731 -0.7749 -1.8022
  576MOL0     H79426   8.987  10.653   0.643  1.7577  2.2927  2.6898
  576MOL0     H79427   9.004  10.414   0.520 -1.5782  0.3892 -0.5849
  576MOL0     H79428   8.957  10.349   0.679 -2.3062 -2.8913 -1.7487
  576MOL0     H79429   8.749  10.341   0.569 -2.2050  1.7334 -2.0213
  576MOL0     H79430   8.769  10.481   0.476  0.0836 -3.9541 -1.8370
  576MOL0     H79431   8.733  10.455   0.774 -3.0715 -0.0009 -1.0814
  576MOL0     H79432   8.769  10.619   0.709 -0.5452  0.0925  4.6373
  576MOL0     H79433   8.552  10.410   0.669 -2.3543 -0.3368 -0.9503
  576MOL0     H79434   8.558  10.529   0.551 -0.2208 -1.0837 -0.0184
  576MOL0     H79435   8.460  10.563   0.844  0.9584 -2.8585 -1.5413
  576MOL0     H79436   8.548  10.699   0.761  1.1360 -0.2338 -1.6254
  576MOL0     H79437   8.225  10.480   0.736  1.7535 -1.0387  0.5478
  576MOL0     H79438   7.956  10.654   0.579  1.0801  2.2418 -1.2852
  576MOL0     H79439   7.990  10.496   0.597 -1.9137 -0.3822 -2.1703
  576MOL0     H79440   8.051  10.485   0.340 -1.8216 -0.4618 -1.5269
  576MOL0     H79441   7.894  10.543   0.367  0.0986  2.1812 -0.9626
  576MOL0     H79442   8.140  10.689   0.252 -0.7541  0.2261 -1.7233
  576MOL0     H79443   7.985  10.654   0.188  2.7408  0.0523 -0.8986
  576MOL0     H79444   7.884  10.810   0.375 -0.4404  2.7833 -0.7128
  576MOL0     H79445   8.045  10.880   0.385  0.2188 -0.5506 -1.4131
  576MOL0     H79446   7.996  10.861  -0.034  0.0916 -0.6836  2.3765
  576MOL0     H79447   8.241  10.970  -0.237 -0.5041 -0.3734 -1.6534
  576MOL0     H79448   8.084  11.045  -0.282 -1.8626 -0.8464  0.0710
  576MOL0     H79449   8.096  10.877  -0.228 -1.5537 -0.0913  1.8577
  576MOL0     H79450   8.553  11.369   0.000  1.5500 -0.5150 -1.7112
  576MOL0     H79451   8.693  11.512  -0.156  0.6832 -0.6768 -2.1290
  576MOL0     H79452   8.513  11.791  -0.473  0.0035 -4.0551 -1.0574
  576MOL0     H79453   8.556  11.886  -0.341  2.5443  0.8985 -0.3583
  576MOL0     H79454   8.801  11.840  -0.395  2.1798 -0.6433 -0.2608
  576MOL0     H79455   8.753  11.769  -0.550 -3.2665 -0.8636 -0.4894
  576MOL0     H79456   8.713  12.035  -0.430  1.5504 -1.4449  1.2977
  576MOL0     H79457   8.624  11.991  -0.590  0.8996  0.4759 -0.4521
  576MOL0     H79458   8.821  11.964  -0.707 -2.1583 -3.2573  1.6986
  576MOL0     H79459   8.927  11.978  -0.565  0.0155  0.0049  1.8696
  576MOL0     H79460   8.730  12.209  -0.662 -1.1582 -1.2853 -1.0027
  576MOL0     H79461   8.884  12.219  -0.574 -1.8109  0.4189  0.1553
  576MOL0     H79462   8.880  12.316  -0.811  0.5854  0.5481  1.1706
  576MOL0     H79463   8.849  12.155  -0.862  1.9372 -3.3829  0.5210
  576MOL0     H79464   9.038  12.062  -0.822 -1.9261 -1.6335  2.9320
  576MOL0     H79465   9.080  12.130  -0.670  4.1955  1.9748 -0.1427
  576MOL0     H79466   9.237  12.194  -0.856  0.6175 -0.3329  0.7308
  576MOL0     H79467   9.169  12.338  -0.781  1.8166 -1.0773  1.0282
  576MOL0     H79468   8.352  11.700  -0.332 -0.3550  0.8861  1.2234
  576MOL0     H79469   8.205  11.563  -0.201 -0.1569  1.5515 -0.4257
  576MOL0     H79470   8.165  11.271   0.174  0.4228  0.1285  1.8730
  576MOL0     H79471   8.000  11.114   0.284 -2.6174 -0.0693 -0.8685
  576MOL0     H79472   9.490  10.839   0.778  0.0261  1.2418 -0.6749
  576MOL0     H79473   9.645  10.864   1.025  0.4303  0.3320 -1.2674
  576MOL0     H79474  10.001  10.836   1.200  1.2604  0.5080  0.3348
  576MOL0     H79475  10.127  10.870   1.400 -0.7392  0.1802 -1.7043
  576MOL0     H79476  10.251  10.847   1.567 -0.7388  0.7832 -0.7782
  576MOL0     H79477  10.135  10.897   1.684  0.1143 -0.4680  0.2152
  576MOL0     H79478  10.276  10.772   1.864 -0.4768 -3.4084 -1.5136
  576MOL0     H79479  10.365  10.891   1.774  0.0280  0.8470 -2.9898
  576MOL0     H79480  10.347  10.596   1.693 -0.0068 -0.5958 -0.2524
  576MOL0     H79481  10.455  10.718   1.634 -0.1004 -1.0127  0.5919
  576MOL0     H79482  10.572  10.546   1.810  0.6778  0.0358  0.7771
  576MOL0     H79483  10.437  10.580   1.908  0.4789  1.2496 -0.3407
  576MOL0     H79484  10.775  10.868   1.903  1.8443 -1.4474 -1.3165
  576MOL0     H79485   9.939  10.514   1.559  1.4595  0.4345  0.1074
  576MOL0     H79486   9.798  10.399   1.266  0.2815 -1.3884  0.0645
  576MOL0     H79487   9.789  10.394   1.441  0.2574 -0.8959 -0.6953
  576MOL0     H79488   9.684  10.499   1.354  0.7156  2.4724  3.1689
  577MOL0     O79489   7.917   6.827   0.191 -0.0728  0.3110  0.7189
  577MOL0     C79490   8.034   6.854   0.193 -1.1753  0.2625  0.6811
  577MOL0     O79491   8.134   6.761   0.185 -0.0554 -0.7202  0.4331
  577MOL0     C79492   8.107   6.631   0.214  0.8748 -0.5548  0.6581
  577MOL0     C79493   8.012   6.561   0.144 -0.2155 -0.2638  0.5134
  577MOL0     C79494   8.005   6.414   0.163  0.3757  0.5455 -0.5907
  577MOL0     C79495   8.087   6.355   0.260 -0.4776  0.3012  0.2460
  577MOL0     O79496   8.064   6.227   0.302  0.2750 -0.3790 -0.6819
  577MOL0     C79497   7.995   6.129   0.219 -0.7270 -0.1508  0.6247
  577MOL0     C79498   7.997   5.983   0.293 -0.4263 -0.0837 -0.6390
  577MOL0     C79499   8.129   5.896   0.283 -1.4594  0.8372 -0.4559
  577MOL0     C79500   8.131   5.745   0.300 -0.2906  0.0635  0.2272
  577MOL0     C79501   8.267   5.669   0.296 -0.1441 -0.2571 -0.3090
  577MOL0     C79502   8.252   5.521   0.330 -0.4974  0.8344 -0.1728
  577MOL0     C79503   8.391   5.457   0.312  0.8284  1.0016 -0.1095
  577MOL0     C79504   8.413   5.306   0.331 -0.8039  0.3258 -0.1319
  577MOL0     N79505   8.552   5.269   0.338 -0.5775  0.6303 -0.6087
  577MOL0     C79506   8.640   5.306   0.433  0.2542 -0.4142  0.4147
  577MOL0     C79507   8.760   5.268   0.392 -0.0233  0.0836  0.4695
  577MOL0     C79508   8.886   5.288   0.475  0.6015  1.5380  0.3919
  577MOL0     C79509   8.940   5.423   0.452  0.1648  0.0054 -0.6744
  577MOL0     C79510   9.089   5.435   0.481  0.2303  0.0924  0.3028
  577MOL0     C79511   9.125   5.355   0.614 -0.6071 -0.3141  0.4681
  577MOL0     O79512   9.254   5.404   0.672  0.7047  0.2318  0.4280
  577MOL0     C79513   9.365   5.433   0.593  0.2712 -0.2467  0.5163
  577MOL0     C79514   9.415   5.564   0.580 -0.5534 -0.4941 -0.5528
  577MOL0     C79515   9.533   5.587   0.507 -0.1849  0.8802  0.5402
  577MOL0     C79516   9.586   5.723   0.485 -0.0478  0.3753 -0.0549
  577MOL0     C79517   9.599   5.484   0.443 -0.5029 -0.1894  1.0437
  577MOL0     C79518   9.697   5.509   0.337 -0.5950  0.7680 -0.2610
  577MOL0     O79519   9.644   5.517   0.212 -0.2458  0.8819  0.0894
  577MOL0     C79520   9.711   5.558   0.096  0.0002 -0.2590  0.1864
  577MOL0     C79521   9.837   5.615   0.085 -0.7757 -0.0286 -0.0325
  577MOL0     C79522   9.892   5.643  -0.036  0.3407 -0.6101 -0.2686
  577MOL0     C79523   9.825   5.607  -0.153  0.0112  0.9263 -0.8322
  577MOL0     O79524   9.886   5.633  -0.271  0.5909 -0.4975 -0.8104
  577MOL0     C79525   9.897   5.531  -0.382 -1.5482 -0.5041 -0.3187
  577MOL0     C79526  10.027   5.452  -0.372  0.7714  0.0151  0.0668
  577MOL0     C79527  10.158   5.531  -0.397 -0.6433  0.4380 -0.3048
  577MOL0     C79528  10.268   5.430  -0.434  0.1433 -0.5247 -0.3020
  577MOL0     C79529  10.407   5.477  -0.397  0.0224 -0.2423 -0.0744
  577MOL0     C79530  10.478   5.535  -0.531 -0.0491  0.3747 -0.6111
  577MOL0     C79531  10.622   5.589  -0.518 -0.4284  0.0708  0.6013
  577MOL0     C79532  10.726   5.484  -0.472 -0.5412  0.5772  0.0788
  577MOL0    Cl79533  10.770   5.389  -0.614 -0.2258 -0.0498 -0.1189
  577MOL0     C79534   9.700   5.545  -0.141  0.0118 -0.1279  0.8234
  577MOL0     C79535   9.646   5.529  -0.019 -0.4283  1.0194  1.2346
  577MOL0     O79536   9.808   5.535   0.366 -0.1243  1.3305  0.5266
  577MOL0     C79537   9.555   5.349   0.464  0.3002  0.2333  0.3119
  577MOL0     C79538   9.435   5.330   0.532  0.0731  0.9745  0.6796
  577MOL0     N79539   8.743   5.196   0.276 -0.3806  0.4421  0.6293
  577MOL0     N79540   8.626   5.205   0.239 -0.0836  0.2095 -0.1112
  577MOL0     C79541   8.188   6.432   0.324  0.4191  0.7924  0.2653
  577MOL0     C79542   8.190   6.573   0.303 -0.0794 -0.0757 -0.1958
  577MOL0     C79543   8.081   6.993   0.152 -0.7583 -0.0839 -0.3527
  577MOL0     C79544   8.165   7.011   0.041  0.2628  1.3100  0.0628
  577MOL0     C79545   8.208   7.144   0.019 -0.6525 -0.4921  1.0197
  577MOL0     C79546   8.168   7.255   0.099 -0.5758  0.7598  0.3164
  577MOL0     O79547   8.212   7.386   0.092  0.5720 -0.0043 -0.6065
  577MOL0     C79548   8.286   7.430  -0.026 -1.3160  0.1874  0.8762
  577MOL0     C79549   8.443   7.441  -0.003 -0.7172  0.3406 -0.2508
  577MOL0     C79550   8.524   7.482  -0.134  0.1030  0.1907  0.3741
  577MOL0     C79551   8.673   7.500  -0.114  0.7779 -0.3774  0.1954
  577MOL0     C79552   8.721   7.546  -0.244 -0.1533  0.6229 -0.3155
  577MOL0     C79553   8.759   7.594  -0.350  0.0533 -0.3267  1.1622
  577MOL0     C79554   8.080   7.228   0.207  0.1949 -0.1631  0.0927
  577MOL0     C79555   8.039   7.096   0.232 -0.0408 -0.3762  0.4484
  577MOL0     C79556   7.953   7.073   0.355  0.1380 -0.2454  0.1062
  577MOL0     H79557   7.957   6.606   0.062  2.7227 -0.0473 -1.4816
  577MOL0     H79558   7.931   6.369   0.097  0.6007  1.3303 -1.4034
  577MOL0     H79559   8.029   6.129   0.115  2.3036  0.6058  1.5170
  577MOL0     H79560   7.889   6.153   0.215 -0.6440  0.0929 -0.8509
  577MOL0     H79561   7.978   5.998   0.400  1.9328 -2.4736  0.2134
  577MOL0     H79562   7.915   5.926   0.247  0.1211 -1.8024  0.4277
  577MOL0     H79563   8.165   5.914   0.181 -1.9443 -0.1181 -0.8042
  577MOL0     H79564   8.203   5.949   0.344 -3.1103  1.7256  0.8294
  577MOL0     H79565   8.084   5.716   0.394  0.5180 -0.5921  0.4475
  577MOL0     H79566   8.073   5.709   0.215 -3.1923  4.6991 -0.0976
  577MOL0     H79567   8.334   5.724   0.363 -0.2739 -0.7598  0.2392
  577MOL0     H79568   8.299   5.675   0.191 -0.3743 -0.3746 -0.3853
  577MOL0     H79569   8.212   5.524   0.432 -1.6686 -0.7959 -0.5336
  577MOL0     H79570   8.181   5.473   0.262  0.2453 -0.7618  0.1232
  577MOL0     H79571   8.443   5.492   0.401  1.6355 -2.6144  1.0302
  577MOL0     H79572   8.436   5.492   0.219  1.6934 -1.0613 -0.5310
  577MOL0     H79573   8.372   5.281   0.429 -0.0285 -0.9512 -0.1168
  577MOL0     H79574   8.366   5.249   0.251  0.2083 -0.2654 -0.3236
  577MOL0     H79575   8.632   5.370   0.519 -0.8915  0.7975 -0.5494
  577MOL0     H79576   8.950   5.203   0.449 -2.5659 -1.1073  0.5371
  577MOL0     H79577   8.860   5.265   0.579  0.6124 -4.6944 -0.5840
  577MOL0     H79578   8.924   5.456   0.349 -0.6664 -1.6912 -1.1115
  577MOL0     H79579   8.901   5.498   0.522  0.1829  1.0804 -1.7833
  577MOL0     H79580   9.145   5.396   0.395  0.9890  0.1757  0.7560
  577MOL0     H79581   9.116   5.541   0.493  0.6092  0.2861 -1.7959
  577MOL0     H79582   9.052   5.367   0.695 -0.4098 -1.3403  0.8167
  577MOL0     H79583   9.141   5.247   0.602 -1.1214 -0.4952  1.3240
  577MOL0     H79584   9.367   5.648   0.629  1.9592  0.3451  0.6466
  577MOL0     H79585   9.615   5.741   0.381 -0.3679 -0.0705 -0.2273
  577MOL0     H79586   9.685   5.729   0.531  0.1675  0.6306 -0.5482
  577MOL0     H79587   9.525   5.803   0.529  1.2250  1.6665 -0.5719
  577MOL0     H79588   9.893   5.640   0.175 -1.8659 -0.1795  0.7070
  577MOL0     H79589   9.987   5.695  -0.041 -0.1659  0.5099  1.1113
  577MOL0     H79590   9.810   5.466  -0.396  0.6104 -3.0383 -3.7517
  577MOL0     H79591   9.906   5.591  -0.473  1.0732  1.2381  0.9413
  577MOL0     H79592  10.031   5.393  -0.280  0.8489  0.5514  0.4107
  577MOL0     H79593  10.015   5.381  -0.454 -2.7421  2.3176 -1.6817
  577MOL0     H79594  10.180   5.594  -0.311 -3.3430 -0.6977  1.3513
  577MOL0     H79595  10.143   5.592  -0.487  3.4037 -0.4771 -1.7971
  577MOL0     H79596  10.251   5.396  -0.536 -3.4017 -0.5225  0.1555
  577MOL0     H79597  10.258   5.342  -0.370  2.1678 -0.3770  0.2835
  577MOL0     H79598  10.390   5.554  -0.321  0.2594 -0.8581  0.6277
  577MOL0     H79599  10.469   5.394  -0.360  3.0770 -0.2207 -4.3854
  577MOL0     H79600  10.417   5.621  -0.561 -0.2270  0.8372  0.9715
  577MOL0     H79601  10.485   5.458  -0.609  0.4103  0.6324 -0.8243
  577MOL0     H79602  10.633   5.680  -0.458  2.7136 -1.0046  1.8894
  577MOL0     H79603  10.648   5.614  -0.621  0.9193 -2.4563  0.2387
  577MOL0     H79604  10.689   5.417  -0.393 -2.8345 -0.8984 -2.0855
  577MOL0     H79605  10.815   5.531  -0.430 -0.9695  0.7328  0.8274
  577MOL0     H79606   9.637   5.509  -0.221 -1.4642  1.0359  1.4181
  577MOL0     H79607   9.546   5.490  -0.001 -0.0581 -0.6214 -0.0092
  577MOL0     H79608   9.601   5.269   0.408  2.5955  2.0134 -0.4945
  577MOL0     H79609   9.397   5.229   0.541  1.1388  0.4455 -0.3456
  577MOL0     H79610   8.246   6.378   0.399 -3.8384 -0.9060  2.6880
  577MOL0     H79611   8.263   6.635   0.354 -1.7463  1.7736  0.0817
  577MOL0     H79612   8.193   6.924  -0.017  0.8770  1.0958  0.6662
  577MOL0     H79613   8.278   7.149  -0.063 -2.4146 -2.9439 -0.7480
  577MOL0     H79614   8.273   7.373  -0.118  1.0912  1.5241 -0.3636
  577MOL0     H79615   8.252   7.532  -0.043 -0.5573  0.6988  2.2698
  577MOL0     H79616   8.477   7.341   0.027 -1.3484 -0.2430 -1.4000
  577MOL0     H79617   8.457   7.512   0.079 -1.3409  0.2504 -0.0596
  577MOL0     H79618   8.519   7.410  -0.216  0.4308  0.9614 -0.3424
  577MOL0     H79619   8.489   7.578  -0.172  0.3819  0.8212  1.6898
  577MOL0     H79620   8.735   7.413  -0.091 -2.0965 -2.6180  0.0439
  577MOL0     H79621   8.685   7.581  -0.041 -1.6428  1.3404 -1.1695
  577MOL0     H79622   8.785   7.633  -0.447 -2.4828  0.6999  0.8199
  577MOL0     H79623   8.042   7.305   0.274 -1.5471 -2.6259  2.1683
  577MOL0     H79624   7.856   7.031   0.328 -1.8580  3.2661  1.2182
  577MOL0     H79625   8.003   7.005   0.425  0.1376 -0.8996 -0.5110
  577MOL0     H79626   7.934   7.174   0.393 -0.2537 -1.2342  2.7426
  578MOL0     O79627   9.472   9.268   7.840 -0.2103  0.2109  0.5671
  578MOL0     C79628   9.569   9.200   7.802  0.3706 -0.4924 -0.5084
  578MOL0     O79629   9.595   9.073   7.839 -0.2368  0.1546 -0.1495
  578MOL0     C79630   9.500   9.002   7.889  0.4622 -0.7626 -0.6078
  578MOL0     C79631   9.496   9.000   8.031  0.2913  0.2522 -0.7002
  578MOL0     C79632   9.398   8.914   8.090  0.8892 -0.1239  0.2957
  578MOL0     C79633   9.313   8.830   8.008 -0.0777  0.2311 -0.8064
  578MOL0     O79634   9.209   8.752   8.053 -0.8199 -0.1001  0.1465
  578MOL0     C79635   9.192   8.754   8.191 -0.1954 -0.4430  0.2240
  578MOL0     C79636   9.096   8.639   8.213 -0.3292  0.9906 -0.4302
  578MOL0     C79637   9.085   8.616   8.370 -1.0234 -0.1129 -0.0491
  578MOL0     C79638   8.980   8.517   8.422  0.0421 -0.1719 -0.1202
  578MOL0     C79639   8.989   8.378   8.373  0.1490  0.4355 -0.2250
  578MOL0     C79640   9.109   8.293   8.408  0.2607  1.0466  0.5415
  578MOL0     C79641   9.091   8.139   8.396  0.0189 -0.6376 -0.5148
  578MOL0     C79642   9.199   8.049   8.332 -0.3282  0.8489  0.5841
  578MOL0     N79643   9.246   8.098   8.197 -0.5577 -0.7877 -0.0717
  578MOL0     C79644   9.378   8.111   8.151 -0.1386  0.4044 -0.6547
  578MOL0     C79645   9.359   8.153   8.018 -0.2017 -0.0712 -0.0418
  578MOL0     C79646   9.478   8.170   7.924  0.1302 -0.7122 -0.2325
  578MOL0     C79647   9.542   8.310   7.913  0.5355 -0.3062 -1.1000
  578MOL0     C79648   9.655   8.326   7.803  0.6067  0.6580  0.6117
  578MOL0     C79649   9.781   8.230   7.837  0.4866 -0.3452 -0.3317
  578MOL0     O79650   9.757   8.097   7.809 -0.9700 -0.0169  0.3803
  578MOL0     C79651   9.753   8.052   7.679 -0.8244  0.3179  0.3822
  578MOL0     C79652   9.714   7.918   7.666 -0.3826  0.0327 -0.0357
  578MOL0     C79653   9.705   7.848   7.551 -0.2206 -0.1416 -0.0784
  578MOL0     C79654   9.675   7.695   7.559 -0.4538 -0.1083  0.3282
  578MOL0     C79655   9.735   7.911   7.422  0.3980  0.9264 -1.4669
  578MOL0     C79656   9.723   7.844   7.300  0.4481  0.2777  0.2073
  578MOL0     O79657   9.619   7.751   7.284  0.3766  0.6079  0.5935
  578MOL0     C79658   9.624   7.659   7.182  0.2351 -0.2206  0.4628
  578MOL0     C79659   9.509   7.622   7.109 -0.7448 -0.6180 -1.2085
  578MOL0     C79660   9.504   7.538   6.994  0.0418  0.1535  0.2751
  578MOL0     C79661   9.623   7.479   6.950 -0.1113  0.3107  0.7322
  578MOL0     O79662   9.611   7.399   6.837  0.8508  0.4314  0.4488
  578MOL0     C79663   9.704   7.292   6.822 -0.4004  0.2748 -0.1697
  578MOL0     C79664   9.681   7.166   6.907 -0.6419  0.4281 -0.4003
  578MOL0     C79665   9.791   7.070   6.869  0.4224 -0.1335  0.4037
  578MOL0     C79666   9.784   6.943   6.948  0.3454 -0.5999  0.8720
  578MOL0     C79667   9.914   6.861   6.944 -0.6279  0.7583 -0.4724
  578MOL0     C79668   9.907   6.760   7.058 -0.1558 -0.1862  0.4898
  578MOL0     C79669  10.041   6.688   7.063 -0.1733 -0.3677  0.4597
  578MOL0     C79670  10.057   6.589   7.186  0.2884  0.1284 -0.0320
  578MOL0    Cl79671  10.183   6.466   7.154  0.2033  0.0561 -0.1594
  578MOL0     C79672   9.745   7.518   7.011 -0.4178  0.1114 -0.7269
  578MOL0     C79673   9.748   7.602   7.126  0.5524 -0.6050  0.6703
  578MOL0     O79674   9.824   7.867   7.217  0.7933  0.1529 -0.1709
  578MOL0     C79675   9.766   8.046   7.429  0.2137 -1.3486 -0.2447
  578MOL0     C79676   9.787   8.116   7.558  1.1341  0.8748 -0.2192
  578MOL0     N79677   9.223   8.160   7.992  0.1280  0.0870  0.9032
  578MOL0     N79678   9.162   8.139   8.099  0.3458 -0.4312 -0.3601
  578MOL0     C79679   9.335   8.832   7.872  0.1000 -0.7441  0.1163
  578MOL0     C79680   9.418   8.918   7.810  1.1507  0.2397 -0.4693
  578MOL0     C79681   9.666   9.271   7.715 -0.0809 -0.2821  0.6422
  578MOL0     C79682   9.629   9.387   7.650 -0.3496 -0.1532  0.0979
  578MOL0     C79683   9.712   9.463   7.566  0.1494  0.5418  0.2934
  578MOL0     C79684   9.848   9.419   7.559 -0.3127 -0.5477  0.3404
  578MOL0     O79685   9.941   9.489   7.478 -0.0887  0.1153 -0.2145
  578MOL0     C79686   9.905   9.603   7.406  0.5437 -0.6297  0.3148
  578MOL0     C79687   9.903   9.722   7.502 -0.0810 -0.1312  0.1903
  578MOL0     C79688  10.041   9.791   7.515 -0.0739  0.2327  0.2924
  578MOL0     C79689  10.030   9.880   7.634 -0.6812 -0.6756  0.0963
  578MOL0     C79690  10.148   9.966   7.661 -0.8784 -0.3398 -0.2961
  578MOL0     C79691  10.251  10.019   7.696 -1.9554  1.1838 -0.4522
  578MOL0     C79692   9.885   9.304   7.619 -0.7577  0.8274  0.2474
  578MOL0     C79693   9.804   9.231   7.705 -0.3085  0.3095 -0.7490
  578MOL0     C79694   9.859   9.103   7.765 -0.6126  0.1056 -0.2329
  578MOL0     H79695   9.566   9.059   8.090  0.1494 -0.7298  0.5046
  578MOL0     H79696   9.401   8.911   8.199  2.1838  0.6174  0.3026
  578MOL0     H79697   9.161   8.853   8.226  0.7672 -0.3495  0.8389
  578MOL0     H79698   9.288   8.733   8.238  0.6092 -2.7264 -2.1855
  578MOL0     H79699   8.998   8.656   8.167 -0.5131  1.0726 -0.0145
  578MOL0     H79700   9.137   8.551   8.163  2.3251  2.1201 -0.3968
  578MOL0     H79701   9.184   8.582   8.401  0.5653  1.1779 -3.3007
  578MOL0     H79702   9.074   8.718   8.407  0.6628  1.2088 -2.8997
  578MOL0     H79703   8.992   8.509   8.530 -1.1908  3.0247  0.3696
  578MOL0     H79704   8.880   8.561   8.412  0.3433  0.8609  1.1451
  578MOL0     H79705   8.977   8.383   8.264  0.1742  1.6276 -0.1847
  578MOL0     H79706   8.905   8.321   8.413  0.4652  1.0646  1.3818
  578MOL0     H79707   9.193   8.317   8.343  1.5343 -0.3520  1.5927
  578MOL0     H79708   9.153   8.309   8.507  3.9126  3.8016 -1.2986
  578MOL0     H79709   9.017   8.135   8.316 -0.1367  0.4184 -0.4474
  578MOL0     H79710   9.050   8.091   8.485 -2.3022  0.7260 -0.7447
  578MOL0     H79711   9.281   8.045   8.404 -2.3811  1.8186  3.1160
  578MOL0     H79712   9.154   7.949   8.326 -0.0521  0.7019  0.9059
  578MOL0     H79713   9.469   8.096   8.208 -0.0565 -1.1063 -1.1426
  578MOL0     H79714   9.433   8.144   7.828 -2.0572 -1.5060  0.9386
  578MOL0     H79715   9.565   8.107   7.948  0.5853 -0.9011 -2.1993
  578MOL0     H79716   9.474   8.395   7.920  3.4613  2.0911  1.6723
  578MOL0     H79717   9.601   8.310   8.005  3.8228  0.5667 -3.0261
  578MOL0     H79718   9.619   8.307   7.702  4.5319  1.9315 -1.1908
  578MOL0     H79719   9.694   8.428   7.794  0.9737  0.3014 -3.0612
  578MOL0     H79720   9.870   8.265   7.785  0.5303 -1.7623 -1.2378
  578MOL0     H79721   9.801   8.246   7.943  1.9189  1.2894 -0.8072
  578MOL0     H79722   9.682   7.873   7.760 -0.9166 -1.2027 -0.7831
  578MOL0     H79723   9.732   7.639   7.485 -0.2199 -1.9464  1.8104
  578MOL0     H79724   9.568   7.670   7.557 -0.7511  1.1533 -0.8949
  578MOL0     H79725   9.710   7.661   7.657  1.2441  1.3118  0.2429
  578MOL0     H79726   9.421   7.680   7.134  0.6466  0.6231  1.1637
  578MOL0     H79727   9.408   7.533   6.945  0.6178 -0.2093 -0.8488
  578MOL0     H79728   9.701   7.250   6.721  1.2742 -0.5631  0.0868
  578MOL0     H79729   9.807   7.325   6.839 -0.1069  0.6051 -2.3499
  578MOL0     H79730   9.694   7.186   7.014  0.0694 -0.2368 -0.3502
  578MOL0     H79731   9.582   7.121   6.896 -0.7954  0.8632 -0.7941
  578MOL0     H79732   9.890   7.116   6.869  0.3917  0.4505 -4.1132
  578MOL0     H79733   9.777   7.051   6.762 -1.4685 -0.6382  0.7119
  578MOL0     H79734   9.696   6.889   6.913 -0.7451  2.6001 -1.8286
  578MOL0     H79735   9.748   6.958   7.050 -0.8512 -1.4903  0.6097
  578MOL0     H79736   9.923   6.809   6.849 -0.5033 -1.2902  0.6015
  578MOL0     H79737  10.004   6.919   6.966  0.3829  0.3058 -3.0862
  578MOL0     H79738   9.821   6.694   7.047  0.9888 -1.6679  0.0890
  578MOL0     H79739   9.899   6.814   7.153 -1.2473 -0.6304  0.6630
  578MOL0     H79740  10.128   6.754   7.064  1.1428 -2.0495  1.0237
  578MOL0     H79741  10.044   6.631   6.970  2.3356 -2.2710  1.6061
  578MOL0     H79742   9.959   6.546   7.207 -0.1591 -0.8901 -3.5758
  578MOL0     H79743  10.099   6.642   7.272  2.6677 -0.9828 -0.4055
  578MOL0     H79744   9.847   7.495   6.981  0.9226  0.7037  2.8764
  578MOL0     H79745   9.844   7.621   7.172  0.8187  0.6974 -0.3716
  578MOL0     H79746   9.784   8.100   7.337  0.9677 -2.1558 -0.5895
  578MOL0     H79747   9.814   8.221   7.563 -0.1751  1.2393 -0.3574
  578MOL0     H79748   9.275   8.778   7.799 -1.0296  0.6201 -0.0128
  578MOL0     H79749   9.423   8.904   7.703  1.7502 -0.5514 -0.3504
  578MOL0     H79750   9.529   9.430   7.658 -0.0484  0.4340  0.7917
  578MOL0     H79751   9.685   9.562   7.530 -1.7130  0.4788  1.3829
  578MOL0     H79752   9.975   9.623   7.324 -0.4897 -2.5387 -1.1249
  578MOL0     H79753   9.810   9.593   7.353  0.9475 -0.5541 -0.4257
  578MOL0     H79754   9.866   9.692   7.601 -3.0656 -0.0694 -0.7994
  578MOL0     H79755   9.836   9.803   7.474  0.7190 -0.4252 -2.9002
  578MOL0     H79756  10.108   9.707   7.535 -0.9718 -0.4233  0.6147
  578MOL0     H79757  10.077   9.844   7.426 -3.7413  0.5674 -1.1735
  578MOL0     H79758   9.989   9.820   7.716  0.0874  1.9486  2.5769
  578MOL0     H79759   9.954   9.955   7.611 -0.9283 -0.2429  2.1365
  578MOL0     H79760  10.344  10.052   7.739 -2.5288  0.5705  1.3620
  578MOL0     H79761   9.983   9.262   7.600 -0.7181 -0.9227  3.6367
  578MOL0     H79762   9.814   9.012   7.724  0.5885 -2.6376  3.9535
  578MOL0     H79763   9.968   9.109   7.756 -0.2724  3.3219  3.3437
  578MOL0     H79764   9.842   9.106   7.873  4.0892  0.7746  0.6794
  579MOL0     O79765   1.097   2.899   4.118 -0.1855  0.0676 -0.0502
  579MOL0     C79766   1.105   2.848   4.006  0.0953 -0.7286 -0.8612
  579MOL0     O79767   1.000   2.785   3.936 -0.1130 -0.6964  0.0082
  579MOL0     C79768   0.875   2.834   3.945  0.1298  1.0079  0.6556
  579MOL0     C79769   0.843   2.965   3.992  0.8993 -0.3775  0.2250
  579MOL0     C79770   0.705   3.003   3.994 -0.4798  0.3673  0.7264
  579MOL0     C79771   0.606   2.917   3.961 -0.5339  0.5287  0.5070
  579MOL0     O79772   0.476   2.932   3.974 -0.3647 -0.3599  0.1119
  579MOL0     C79773   0.417   3.064   4.004  0.2484  0.2513  0.0881
  579MOL0     C79774   0.261   3.050   3.997 -0.3716 -0.0194 -0.5635
  579MOL0     C79775   0.213   3.039   3.844  0.7456 -1.3713 -0.4081
  579MOL0     C79776   0.228   3.181   3.786 -0.2022 -0.4719 -0.5096
  579MOL0     C79777   0.195   3.192   3.638  0.3344 -0.1477  0.5890
  579MOL0     C79778   0.257   3.317   3.580 -0.7928 -0.3484 -0.9969
  579MOL0     C79779   0.246   3.336   3.427 -0.6123  0.0072 -0.0527
  579MOL0     C79780   0.350   3.437   3.375 -0.4441 -0.1541 -0.2284
  579MOL0     N79781   0.353   3.569   3.447 -0.6770  0.0631  0.8132
  579MOL0     C79782   0.390   3.596   3.580 -0.6605  0.2865 -0.4518
  579MOL0     C79783   0.383   3.735   3.574 -0.2862 -0.6429 -0.6451
  579MOL0     C79784   0.415   3.814   3.707  0.2084  0.5834 -0.0994
  579MOL0     C79785   0.562   3.874   3.687  0.5318  1.1047 -0.6469
  579MOL0     C79786   0.550   4.017   3.645 -0.3022  0.3410 -0.3569
  579MOL0     C79787   0.690   4.093   3.675 -0.3220  0.1566 -0.1401
  579MOL0     O79788   0.799   4.046   3.601  0.1572  0.5257  0.7275
  579MOL0     C79789   0.816   4.064   3.471  0.2895  0.1320  1.2013
  579MOL0     C79790   0.931   4.010   3.415 -0.6118 -0.1298 -0.4542
  579MOL0     C79791   0.938   3.993   3.275  0.2046  0.1631 -0.3258
  579MOL0     C79792   1.034   3.896   3.226  0.2424  0.1429 -0.1898
  579MOL0     C79793   0.849   4.050   3.187  0.3741  0.2502  0.0322
  579MOL0     C79794   0.840   4.038   3.039  0.6193 -0.3764 -0.8544
  579MOL0     O79795   0.755   4.128   2.973 -0.5963  0.4681 -0.3489
  579MOL0     C79796   0.753   4.141   2.831  0.1538 -0.5878 -0.1980
  579MOL0     C79797   0.633   4.187   2.782  1.3094 -1.0720  0.6031
  579MOL0     C79798   0.602   4.197   2.645  0.5461  0.0838  0.1465
  579MOL0     C79799   0.710   4.186   2.552 -0.2475 -0.6195 -1.0192
  579MOL0     O79800   0.686   4.210   2.421  0.0726  1.1123  0.0898
  579MOL0     C79801   0.795   4.185   2.329 -0.4048 -0.2971  0.3872
  579MOL0     C79802   0.741   4.187   2.182  0.0066 -0.3142  0.5112
  579MOL0     C79803   0.648   4.306   2.149 -0.1425  0.2336  0.1685
  579MOL0     C79804   0.611   4.300   2.007 -0.3195 -1.2338 -0.4996
  579MOL0     C79805   0.520   4.424   1.975 -0.3990  0.9259  0.2150
  579MOL0     C79806   0.365   4.406   1.999 -1.3038  0.5177 -0.4654
  579MOL0     C79807   0.283   4.533   1.968 -1.2128  0.1888  0.0776
  579MOL0     C79808   0.228   4.530   1.826  1.3375 -0.1786 -0.9540
  579MOL0    Cl79809   0.158   4.690   1.796 -0.2103  0.5368  0.1736
  579MOL0     C79810   0.837   4.147   2.604 -0.1298 -0.4489 -1.1222
  579MOL0     C79811   0.856   4.123   2.741  0.1180 -0.1055 -0.3216
  579MOL0     O79812   0.908   3.957   2.977  0.2629 -0.1308 -1.0075
  579MOL0     C79813   0.746   4.119   3.243  1.1344 -0.3089 -0.2524
  579MOL0     C79814   0.723   4.121   3.383 -0.3535  0.0686  0.1181
  579MOL0     N79815   0.347   3.787   3.455  0.2676  0.3578 -0.9368
  579MOL0     N79816   0.330   3.685   3.381 -0.7610 -0.4440 -0.5322
  579MOL0     C79817   0.638   2.786   3.909 -0.0267 -0.3462 -0.3890
  579MOL0     C79818   0.773   2.754   3.889 -0.1679  0.2479  0.5387
  579MOL0     C79819   1.244   2.838   3.958 -0.1629  0.1003 -0.6617
  579MOL0     C79820   1.359   2.865   4.043  0.4169  0.9461  0.6503
  579MOL0     C79821   1.482   2.826   4.011 -0.4893 -0.2119 -1.2276
  579MOL0     C79822   1.510   2.777   3.880  0.1646 -0.1060 -0.1443
  579MOL0     O79823   1.637   2.768   3.840 -0.0617  0.3536 -0.1685
  579MOL0     C79824   1.749   2.823   3.911 -0.5930  0.2957 -1.0056
  579MOL0     C79825   1.808   2.721   4.027 -0.4881 -0.4563 -0.4180
  579MOL0     C79826   1.921   2.764   4.121 -0.3547 -0.2683 -0.2224
  579MOL0     C79827   2.044   2.826   4.058 -0.2773  0.1645  0.2795
  579MOL0     C79828   2.113   2.896   4.169  0.7387 -0.5263 -0.2738
  579MOL0     C79829   2.165   2.960   4.250 -0.1422 -0.4975  0.4768
  579MOL0     C79830   1.405   2.752   3.795  0.0897  0.0209 -0.0436
  579MOL0     C79831   1.275   2.790   3.830  0.6303  1.0724 -0.3778
  579MOL0     C79832   1.176   2.755   3.715  0.6169 -0.5520 -0.2240
  579MOL0     H79833   0.917   3.042   4.010  0.0647  0.8777 -1.4173
  579MOL0     H79834   0.672   3.099   4.032 -2.3148 -0.1836  0.5970
  579MOL0     H79835   0.449   3.147   3.940 -0.2171 -0.9955 -1.8306
  579MOL0     H79836   0.444   3.073   4.110  3.6632 -0.1301 -0.6339
  579MOL0     H79837   0.228   2.966   4.059 -0.2663 -0.3694 -0.9734
  579MOL0     H79838   0.218   3.140   4.041  0.3928  0.4849 -0.8308
  579MOL0     H79839   0.282   2.979   3.784  0.6243  1.1035 -3.2248
  579MOL0     H79840   0.115   2.993   3.825 -0.7675  0.0785  3.0057
  579MOL0     H79841   0.154   3.242   3.839  0.2599  0.0078 -0.4033
  579MOL0     H79842   0.320   3.239   3.800 -0.2832  0.3321 -2.8770
  579MOL0     H79843   0.086   3.190   3.624  0.5888 -3.6838 -2.5511
  579MOL0     H79844   0.243   3.109   3.585 -0.5612  0.4668 -1.2836
  579MOL0     H79845   0.216   3.408   3.625  1.5574 -0.0746  0.8079
  579MOL0     H79846   0.361   3.309   3.612 -1.4720  1.3436  2.0311
  579MOL0     H79847   0.149   3.382   3.406  0.3589  0.5480 -4.2097
  579MOL0     H79848   0.237   3.244   3.369  0.9057 -0.3290  0.2047
  579MOL0     H79849   0.445   3.389   3.402  0.7048  1.5776 -0.9973
  579MOL0     H79850   0.350   3.443   3.265  3.1136 -0.6950 -0.3967
  579MOL0     H79851   0.418   3.529   3.661 -0.1007  0.2693 -0.6550
  579MOL0     H79852   0.408   3.744   3.791 -3.1972 -0.7693 -1.3082
  579MOL0     H79853   0.344   3.896   3.722  1.9883  2.1056  0.3501
  579MOL0     H79854   0.607   3.878   3.786  1.3491  0.7492 -1.0032
  579MOL0     H79855   0.631   3.809   3.633 -1.9803 -1.6789 -0.7908
  579MOL0     H79856   0.520   4.020   3.540  1.8348  1.4476 -0.9968
  579MOL0     H79857   0.487   4.075   3.712 -0.4840 -1.2008  0.8508
  579MOL0     H79858   0.667   4.196   3.646 -1.7325 -0.0651  0.1316
  579MOL0     H79859   0.724   4.094   3.779  3.4335 -0.0622 -1.2168
  579MOL0     H79860   1.001   3.958   3.480 -1.0006  0.4139  0.4153
  579MOL0     H79861   1.098   3.932   3.145 -2.8327 -1.8192 -3.7919
  579MOL0     H79862   0.977   3.811   3.188 -4.5077  2.9790 -0.1080
  579MOL0     H79863   1.099   3.876   3.312  0.1099  1.2361  0.1814
  579MOL0     H79864   0.572   4.225   2.864  1.1075 -0.7209  0.2930
  579MOL0     H79865   0.507   4.239   2.612 -0.2245 -0.3256  1.7281
  579MOL0     H79866   0.865   4.269   2.327 -0.2120 -0.4095  1.4860
  579MOL0     H79867   0.844   4.092   2.360  2.0849  1.0871  0.8469
  579MOL0     H79868   0.835   4.204   2.127  0.7330  0.5359  1.9673
  579MOL0     H79869   0.696   4.091   2.154  0.0849 -0.9437  2.4231
  579MOL0     H79870   0.715   4.393   2.151  3.2333 -2.1681  0.8396
  579MOL0     H79871   0.561   4.322   2.213 -2.1029  0.3835 -2.3721
  579MOL0     H79872   0.546   4.215   1.986  0.5392 -1.8423 -0.6918
  579MOL0     H79873   0.697   4.301   1.939  0.4643  1.8325  0.3423
  579MOL0     H79874   0.559   4.517   2.020  0.5693  1.1098 -0.9619
  579MOL0     H79875   0.532   4.443   1.868 -0.8910 -1.2546 -0.2649
  579MOL0     H79876   0.352   4.370   2.101 -1.9590 -0.5012 -0.8950
  579MOL0     H79877   0.324   4.330   1.932 -2.1627 -1.7363  2.4181
  579MOL0     H79878   0.347   4.620   1.986 -1.8907  1.3571 -2.6381
  579MOL0     H79879   0.192   4.539   2.028 -0.3258 -0.3904  1.5395
  579MOL0     H79880   0.148   4.458   1.806  1.3733 -0.4203 -0.2507
  579MOL0     H79881   0.304   4.506   1.751  1.6455 -0.4687 -0.5523
  579MOL0     H79882   0.924   4.130   2.541 -0.2429 -0.3837 -1.2967
  579MOL0     H79883   0.959   4.106   2.773  0.6251  2.7845 -0.1271
  579MOL0     H79884   0.669   4.160   3.179 -0.2209 -1.3311  0.6412
  579MOL0     H79885   0.646   4.188   3.420  1.8972  3.4523 -0.8549
  579MOL0     H79886   0.558   2.730   3.862 -0.5556  0.5903 -0.6206
  579MOL0     H79887   0.796   2.656   3.848  2.1354 -0.5112  3.2685
  579MOL0     H79888   1.341   2.887   4.148  1.8972  0.8397  0.9519
  579MOL0     H79889   1.560   2.839   4.084 -3.0388  2.3404  1.3234
  579MOL0     H79890   1.834   2.842   3.845  0.8410 -0.5737  0.5156
  579MOL0     H79891   1.715   2.920   3.951 -2.1252 -1.0208  1.1374
  579MOL0     H79892   1.858   2.640   3.974  2.6340  2.0440 -1.6702
  579MOL0     H79893   1.730   2.669   4.084 -0.1273 -2.1369 -1.3952
  579MOL0     H79894   1.882   2.840   4.189  2.5030  1.9364 -0.8349
  579MOL0     H79895   1.955   2.676   4.178  1.5275  2.0840  2.5581
  579MOL0     H79896   2.008   2.897   3.984 -2.0434 -2.3245 -1.4217
  579MOL0     H79897   2.120   2.760   4.015  0.8304  1.5278  0.0867
  579MOL0     H79898   2.218   3.027   4.315  0.4396 -1.5171  1.0669
  579MOL0     H79899   1.416   2.697   3.702 -1.9600  1.8609 -1.4932
  579MOL0     H79900   1.095   2.829   3.708  1.1818  0.0164 -0.8767
  579MOL0     H79901   1.214   2.762   3.613 -4.0921 -3.7695 -2.5568
  579MOL0     H79902   1.140   2.653   3.727  2.2809 -1.2375 -0.8678
  580MOL0     O79903   1.777   9.283   3.029  0.3928  0.6691 -0.4666
  580MOL0     C79904   1.662   9.325   3.025  0.0340  0.3395  0.5393
  580MOL0     O79905   1.552   9.245   3.037 -0.0401  0.1472 -0.4641
  580MOL0     C79906   1.552   9.113   3.004  0.6354  0.0001  0.8814
  580MOL0     C79907   1.496   9.083   2.874 -0.1227 -0.2713  0.0346
  580MOL0     C79908   1.493   8.957   2.829 -0.3550 -0.0536 -0.1928
  580MOL0     C79909   1.542   8.849   2.907  0.1245 -0.0860 -0.0636
  580MOL0     O79910   1.544   8.714   2.867 -0.3155 -0.3846 -0.7047
  580MOL0     C79911   1.445   8.666   2.782  0.0234  0.0632  0.7572
  580MOL0     C79912   1.433   8.520   2.782  0.2741  0.2052  0.4519
  580MOL0     C79913   1.380   8.480   2.646  1.0377  0.2857  0.2352
  580MOL0     C79914   1.416   8.329   2.635  0.1479 -0.0358  0.3503
  580MOL0     C79915   1.322   8.263   2.532 -0.2076 -0.1882 -0.6706
  580MOL0     C79916   1.354   8.115   2.501 -0.1580 -0.2314  0.4818
  580MOL0     C79917   1.216   8.043   2.450 -0.3127  0.0089  0.7122
  580MOL0     C79918   1.240   7.931   2.345 -0.7176  0.2262 -0.9027
  580MOL0     N79919   1.113   7.877   2.288  0.5362 -0.4255  0.3683
  580MOL0     C79920   1.017   7.809   2.364  0.7275 -0.1862  0.2245
  580MOL0     C79921   0.909   7.802   2.285 -0.4424  0.6437 -0.4677
  580MOL0     C79922   0.787   7.717   2.327  0.1397  0.0561 -0.2314
  580MOL0     C79923   0.754   7.745   2.486  0.8700 -0.7325 -0.4261
  580MOL0     C79924   0.608   7.700   2.537 -1.1401 -1.1458  0.6050
  580MOL0     C79925   0.573   7.784   2.662 -0.1338  0.0121 -1.0787
  580MOL0     O79926   0.672   7.749   2.765 -0.4409 -0.7378  0.1613
  580MOL0     C79927   0.680   7.837   2.871 -0.2858 -0.2494  0.3099
  580MOL0     C79928   0.610   7.955   2.879  0.4342 -0.0538 -0.4593
  580MOL0     C79929   0.640   8.054   2.975  0.6009 -0.2029  0.7356
  580MOL0     C79930   0.568   8.187   2.961 -0.2751  0.7253 -0.9916
  580MOL0     C79931   0.738   8.030   3.069 -0.2778  0.1508 -0.8075
  580MOL0     C79932   0.776   8.143   3.155 -0.4315  0.5125 -0.0714
  580MOL0     O79933   0.777   8.114   3.281 -0.1432 -0.1165 -0.3872
  580MOL0     C79934   0.847   8.185   3.369 -0.6012  0.1810 -0.5766
  580MOL0     C79935   0.991   8.168   3.383 -0.2626  0.3178 -0.3307
  580MOL0     C79936   1.046   8.240   3.482 -0.6683 -0.0331 -0.8125
  580MOL0     C79937   0.980   8.334   3.566 -0.6021  0.3623 -0.4527
  580MOL0     O79938   1.043   8.403   3.663  0.3669  0.6437 -0.1938
  580MOL0     C79939   1.027   8.545   3.656 -0.1010  0.3661 -0.4912
  580MOL0     C79940   1.110   8.614   3.767 -0.0568  0.0401 -0.5659
  580MOL0     C79941   1.244   8.552   3.801 -0.4861  0.0198 -0.4160
  580MOL0     C79942   1.239   8.464   3.924  0.3438 -0.0820  0.3161
  580MOL0     C79943   1.384   8.406   3.961  0.2208  0.8722  0.3233
  580MOL0     C79944   1.363   8.311   4.090  1.1433 -0.2921 -1.3059
  580MOL0     C79945   1.319   8.394   4.211 -0.0982 -0.6667  0.4398
  580MOL0     C79946   1.355   8.316   4.328  0.6594  0.4224 -0.0047
  580MOL0    Cl79947   1.298   8.418   4.469 -0.1259  0.2355  0.7672
  580MOL0     C79948   0.839   8.341   3.552  0.3000 -0.2896  1.0900
  580MOL0     C79949   0.777   8.273   3.450  0.6564  0.4175  0.2648
  580MOL0     O79950   0.808   8.251   3.103 -0.1202  0.8526  0.4917
  580MOL0     C79951   0.805   7.906   3.079  0.0415  0.5827  0.7783
  580MOL0     C79952   0.787   7.815   2.962  0.0087 -1.0529 -0.2416
  580MOL0     N79953   0.939   7.865   2.164  0.1168  0.7949  0.3926
  580MOL0     N79954   1.059   7.917   2.166  0.1875 -0.0507 -0.2087
  580MOL0     C79955   1.598   8.877   3.032 -0.1297  0.0216  0.0612
  580MOL0     C79956   1.601   9.012   3.086 -0.7915  0.1744 -0.2907
  580MOL0     C79957   1.636   9.471   3.006 -0.0383  0.7079 -0.5475
  580MOL0     C79958   1.749   9.554   3.009  0.6992 -0.3776  0.7815
  580MOL0     C79959   1.736   9.695   2.995  0.6557  0.8935 -0.4116
  580MOL0     C79960   1.615   9.753   2.974 -0.2878  0.8873 -0.5197
  580MOL0     O79961   1.591   9.886   2.946  0.5435  0.6117 -0.7628
  580MOL0     C79962   1.691   9.976   2.949 -0.9632  0.3330  0.0613
  580MOL0     C79963   1.649  10.112   2.908 -0.3645 -0.0287  0.4193
  580MOL0     C79964   1.762  10.216   2.895 -0.1878  0.1016  0.9632
  580MOL0     C79965   1.852  10.217   2.769 -0.7693  0.6170 -0.5829
  580MOL0     C79966   1.788  10.269   2.653  0.6064 -1.2674  0.7114
  580MOL0     C79967   1.741  10.301   2.549  0.1159  0.7913  0.8221
  580MOL0     C79968   1.501   9.664   2.968 -0.3131  0.0311 -0.6546
  580MOL0     C79969   1.506   9.521   2.982  0.4096 -0.1886  0.3622
  580MOL0     C79970   1.380   9.441   2.971 -0.3270 -0.0457 -0.6773
  580MOL0     H79971   1.460   9.163   2.811 -0.1989 -2.9145 -3.6328
  580MOL0     H79972   1.450   8.940   2.731 -0.2383  2.6361 -0.7676
  580MOL0     H79973   1.458   8.711   2.683 -0.2061 -0.6930  0.3752
  580MOL0     H79974   1.348   8.707   2.811 -0.4857 -1.2031  0.8780
  580MOL0     H79975   1.536   8.486   2.788  0.0917 -1.1365 -2.3714
  580MOL0     H79976   1.376   8.479   2.866  3.2690 -1.6514  1.7193
  580MOL0     H79977   1.271   8.490   2.647  0.8899 -1.1500  0.2002
  580MOL0     H79978   1.430   8.544   2.572 -2.1870  1.7135 -0.8845
  580MOL0     H79979   1.519   8.322   2.598 -0.2420  2.9438 -1.6965
  580MOL0     H79980   1.411   8.268   2.725  2.3960  0.1013  0.6422
  580MOL0     H79981   1.332   8.318   2.438  1.8344 -1.7858 -1.4625
  580MOL0     H79982   1.218   8.279   2.560  0.1388 -0.6627  0.9967
  580MOL0     H79983   1.431   8.112   2.423 -0.7139 -0.0684 -0.0888
  580MOL0     H79984   1.387   8.051   2.583  3.7339 -0.9257 -1.3875
  580MOL0     H79985   1.149   8.119   2.411 -2.3815 -1.3082  1.5484
  580MOL0     H79986   1.165   7.987   2.529  1.2487 -1.3789  0.8174
  580MOL0     H79987   1.296   7.978   2.263 -1.1781  0.9100 -0.8282
  580MOL0     H79988   1.298   7.842   2.373 -2.6432 -0.8482 -0.1570
  580MOL0     H79989   1.026   7.763   2.462  4.0781  0.8021  0.5080
  580MOL0     H79990   0.814   7.612   2.313  0.0422 -0.1636  1.0920
  580MOL0     H79991   0.704   7.741   2.260  0.2989 -0.7716 -0.7497
  580MOL0     H79992   0.829   7.700   2.552  1.5145  1.4765  0.4448
  580MOL0     H79993   0.760   7.854   2.494  1.8610 -0.8985  1.7144
  580MOL0     H79994   0.536   7.732   2.461 -1.4328 -0.9443  0.9612
  580MOL0     H79995   0.603   7.593   2.558  1.7352 -1.5809 -0.5296
  580MOL0     H79996   0.585   7.888   2.629 -2.7975 -0.4888 -4.0982
  580MOL0     H79997   0.477   7.773   2.712  0.7449  2.0058  1.2496
  580MOL0     H79998   0.530   7.978   2.810 -0.1820 -0.1350  0.2249
  580MOL0     H79999   0.627   8.274   2.934  0.5285  0.6412  0.3822
  580MOL0     H80000   0.524   8.208   3.059 -0.2294 -3.6917  0.2061
  580MOL0     H80001   0.481   8.180   2.896 -0.1786 -1.0945 -0.9751
  580MOL0     H80002   1.044   8.112   3.307 -0.9140 -2.1543  0.9288
  580MOL0     H80003   1.153   8.225   3.493 -0.9184 -0.2479  1.9747
  580MOL0     H80004   1.049   8.574   3.553  1.0508  0.1310 -0.3221
  580MOL0     H80005   0.924   8.577   3.675  0.5712  1.9249  0.7567
  580MOL0     H80006   1.142   8.709   3.724  0.1854  0.5469  0.6952
  580MOL0     H80007   1.047   8.628   3.856  2.8766 -2.3224  2.1138
  580MOL0     H80008   1.318   8.630   3.820 -3.3168  2.5240  1.0237
  580MOL0     H80009   1.281   8.505   3.708  0.6988  3.4884 -1.8565
  580MOL0     H80010   1.170   8.382   3.903  0.2900  0.1324 -0.3536
  580MOL0     H80011   1.205   8.517   4.013  3.2029 -0.1844  1.5756
  580MOL0     H80012   1.427   8.354   3.875 -0.4353 -0.8861  0.9930
  580MOL0     H80013   1.458   8.479   3.993  2.6424 -2.4156  2.9099
  580MOL0     H80014   1.451   8.249   4.105 -1.9143 -4.7876  0.1588
  580MOL0     H80015   1.284   8.237   4.072 -2.7157  2.8436  1.0393
  580MOL0     H80016   1.211   8.402   4.202 -0.0217 -1.2682 -1.7368
  580MOL0     H80017   1.375   8.487   4.202 -2.7678  0.9895  0.2226
  580MOL0     H80018   1.464   8.326   4.335  0.8799 -2.1091  1.1470
  580MOL0     H80019   1.314   8.215   4.333 -0.0347  0.7521  1.7534
  580MOL0     H80020   0.789   8.405   3.624  1.2895  1.9636 -0.1531
  580MOL0     H80021   0.670   8.262   3.440  0.7211  1.5049 -2.2968
  580MOL0     H80022   0.882   7.895   3.154  1.2386 -0.3112 -0.5204
  580MOL0     H80023   0.858   7.735   2.946  0.4174 -0.6821 -0.2971
  580MOL0     H80024   1.637   8.794   3.088  0.9993  0.5601  0.0895
  580MOL0     H80025   1.653   9.048   3.174 -2.2354  3.2083 -0.5451
  580MOL0     H80026   1.849   9.519   3.032  0.9861 -0.9051 -1.1221
  580MOL0     H80027   1.823   9.756   3.017 -0.5179  2.9731 -1.2075
  580MOL0     H80028   1.723   9.981   3.053  0.7734 -2.4478 -0.2357
  580MOL0     H80029   1.780   9.941   2.895 -0.2844  0.2237  1.2105
  580MOL0     H80030   1.573  10.135   2.985 -0.1857  2.1904  0.0113
  580MOL0     H80031   1.595  10.111   2.813 -0.2635 -1.6366  0.3518
  580MOL0     H80032   1.715  10.314   2.906  0.7890  0.6415  0.4101
  580MOL0     H80033   1.831  10.213   2.979 -1.4620  4.8055  2.5011
  580MOL0     H80034   1.890  10.115   2.757 -0.7249  0.5039  0.4730
  580MOL0     H80035   1.942  10.275   2.790  1.5539 -2.8130 -0.2251
  580MOL0     H80036   1.692  10.342   2.463  3.7651  0.1182 -1.8048
  580MOL0     H80037   1.398   9.699   2.960 -0.4242 -0.0053  0.5063
  580MOL0     H80038   1.399   9.364   2.895 -1.2317  0.6436 -1.6416
  580MOL0     H80039   1.366   9.389   3.066  2.0716 -1.0621 -0.8131
  580MOL0     H80040   1.282   9.489   2.966  0.2920  2.1353  3.5788
  581MOL0     O80041   1.966   8.141   0.501  0.1734 -0.1416 -0.2450
  581MOL0     C80042   1.848   8.153   0.545 -0.4929 -0.0636 -0.5563
  581MOL0     O80043   1.738   8.195   0.477 -0.0328 -0.3918 -0.2549
  581MOL0     C80044   1.756   8.200   0.344  0.4655 -0.4978  0.4890
  581MOL0     C80045   1.730   8.320   0.282 -0.4490 -0.1443  0.7568
  581MOL0     C80046   1.744   8.333   0.137  0.0167  0.4372 -0.2053
  581MOL0     C80047   1.804   8.231   0.062 -0.9929  0.5815  0.4784
  581MOL0     O80048   1.848   8.255  -0.066 -0.4072  0.2455  0.2363
  581MOL0     C80049   1.849   8.394  -0.117 -0.5131 -0.5027  0.6350
  581MOL0     C80050   1.953   8.407  -0.225  1.1384 -0.2182  0.2069
  581MOL0     C80051   1.956   8.536  -0.305  0.4277 -0.5740 -0.4213
  581MOL0     C80052   2.030   8.503  -0.435  0.3237 -0.4831  0.3533
  581MOL0     C80053   2.024   8.625  -0.521 -1.1935  0.4644  1.8190
  581MOL0     C80054   2.095   8.584  -0.656  0.2478  0.1101 -0.5219
  581MOL0     C80055   2.158   8.709  -0.722 -0.4790  0.5186 -0.3470
  581MOL0     C80056   2.218   8.692  -0.862 -0.4612  0.2768 -0.3882
  581MOL0     N80057   2.250   8.811  -0.934 -0.4884  0.1906 -0.5412
  581MOL0     C80058   2.358   8.894  -0.905  0.5811 -1.0616 -0.7815
  581MOL0     C80059   2.373   8.971  -1.015  0.3341  0.9057  0.1331
  581MOL0     C80060   2.485   9.071  -1.036  0.0414  0.2173 -0.5590
  581MOL0     C80061   2.552   9.046  -1.175 -0.8108  0.1143 -0.0792
  581MOL0     C80062   2.672   9.143  -1.200 -0.9942 -0.1801  0.9245
  581MOL0     C80063   2.712   9.143  -1.345 -0.7950 -0.3014  0.1515
  581MOL0     O80064   2.600   9.187  -1.418 -0.2346  0.3363  0.0809
  581MOL0     C80065   2.601   9.160  -1.549  0.2548  0.5011 -0.4584
  581MOL0     C80066   2.691   9.217  -1.634 -0.2350  0.2407 -0.2406
  581MOL0     C80067   2.688   9.185  -1.771  0.6664 -0.3522  0.1446
  581MOL0     C80068   2.793   9.238  -1.867  0.8011 -0.5648 -0.6339
  581MOL0     C80069   2.602   9.087  -1.823  0.2384 -0.9366  0.0629
  581MOL0     C80070   2.606   9.031  -1.961 -1.1954 -0.3395  0.0970
  581MOL0     O80071   2.488   9.023  -2.026 -0.7027 -0.1481  0.4600
  581MOL0     C80072   2.476   8.968  -2.148  0.0538  0.0836  1.6759
  581MOL0     C80073   2.528   8.836  -2.177  0.0463 -0.4550  0.7730
  581MOL0     C80074   2.490   8.781  -2.307 -0.3329  0.2099  0.3160
  581MOL0     C80075   2.396   8.840  -2.385  0.8514 -0.9579 -0.3258
  581MOL0     O80076   2.365   8.765  -2.494 -0.5635  0.5531  0.4111
  581MOL0     C80077   2.251   8.806  -2.568  0.2202 -0.1645 -0.7925
  581MOL0     C80078   2.204   8.678  -2.644 -0.4163 -0.2142 -0.2991
  581MOL0     C80079   2.183   8.553  -2.559 -0.1756  0.4692 -1.0687
  581MOL0     C80080   2.073   8.468  -2.625  0.2884  0.5300 -0.1759
  581MOL0     C80081   2.021   8.367  -2.521 -0.3985  0.0087  0.5195
  581MOL0     C80082   1.929   8.275  -2.593 -0.1098  0.1598  0.1708
  581MOL0     C80083   1.863   8.172  -2.503 -0.8433 -0.7506  0.7003
  581MOL0     C80084   1.959   8.089  -2.422 -0.7051  0.2256  0.0063
  581MOL0    Cl80085   1.850   7.972  -2.325 -0.7263 -0.0259 -0.4761
  581MOL0     C80086   2.347   8.963  -2.355  0.1362  0.0413  0.7139
  581MOL0     C80087   2.393   9.025  -2.242 -0.0958 -0.2325  0.0166
  581MOL0     O80088   2.718   9.002  -2.005  0.7245 -0.3293 -0.1904
  581MOL0     C80089   2.509   9.026  -1.731 -0.4219 -0.6088 -0.3684
  581MOL0     C80090   2.508   9.071  -1.600 -0.3804 -0.1770  0.3172
  581MOL0     N80091   2.267   8.936  -1.104 -0.3753 -0.6261 -0.6450
  581MOL0     N80092   2.193   8.849  -1.050 -0.0268 -0.3535 -0.7126
  581MOL0     C80093   1.819   8.109   0.123  0.1741 -0.3574 -0.4626
  581MOL0     C80094   1.796   8.095   0.266 -0.1900  0.0806  0.8350
  581MOL0     C80095   1.816   8.139   0.687  0.0333 -0.9036 -0.3159
  581MOL0     C80096   1.719   8.230   0.736 -0.0992 -0.6477 -0.2576
  581MOL0     C80097   1.683   8.229   0.871  0.3571 -0.3231 -0.2225
  581MOL0     C80098   1.726   8.129   0.951 -0.6154 -0.0523 -0.1638
  581MOL0     O80099   1.710   8.109   1.090 -0.4850 -0.1847 -0.2235
  581MOL0     C80100   1.682   8.229   1.170 -0.6808 -0.0699 -0.4206
  581MOL0     C80101   1.531   8.246   1.184 -0.6329 -0.2201  0.1983
  581MOL0     C80102   1.450   8.121   1.215  0.6006 -0.1605 -0.0631
  581MOL0     C80103   1.497   8.066   1.348  0.3194  0.2730  0.2356
  581MOL0     C80104   1.407   7.955   1.383 -0.3238 -0.1490  0.1189
  581MOL0     C80105   1.325   7.868   1.412  0.0412  0.1057 -0.7738
  581MOL0     C80106   1.795   8.026   0.889  1.2159  1.3093 -0.8174
  581MOL0     C80107   1.846   8.032   0.763  0.5760  0.4585  0.3715
  581MOL0     C80108   1.934   7.921   0.720  0.0632  0.4427 -0.4171
  581MOL0     H80109   1.687   8.396   0.346 -6.0719 -1.5171 -0.8719
  581MOL0     H80110   1.718   8.430   0.096 -0.4366  0.8390  0.9911
  581MOL0     H80111   1.878   8.477  -0.052 -2.4955  2.3822 -1.8602
  581MOL0     H80112   1.749   8.423  -0.152  0.2494  2.3457  0.5441
  581MOL0     H80113   2.052   8.389  -0.180  0.6748 -1.9155  0.5994
  581MOL0     H80114   1.932   8.337  -0.306  2.5533  0.3699 -0.7112
  581MOL0     H80115   1.861   8.574  -0.343  1.7614  0.2485 -3.2141
  581MOL0     H80116   1.994   8.626  -0.255 -2.0677  1.8879 -2.6462
  581MOL0     H80117   2.135   8.489  -0.405  0.5008 -0.4895 -0.2680
  581MOL0     H80118   1.994   8.414  -0.486 -0.4269  1.1295 -2.0743
  581MOL0     H80119   2.073   8.709  -0.471 -2.0900  1.6180  0.8404
  581MOL0     H80120   1.917   8.638  -0.543 -0.8879  1.0820  0.6466
  581MOL0     H80121   2.176   8.511  -0.647  1.0020  0.5662 -3.0095
  581MOL0     H80122   2.021   8.534  -0.720 -1.7027 -0.3973  1.9716
  581MOL0     H80123   2.227   8.762  -0.654  0.8558  3.4682 -3.7057
  581MOL0     H80124   2.077   8.781  -0.734 -1.8510 -0.6946  1.1560
  581MOL0     H80125   2.300   8.620  -0.854 -0.5364  0.3307  1.3070
  581MOL0     H80126   2.138   8.637  -0.913  0.5167 -0.4012 -1.2210
  581MOL0     H80127   2.420   8.886  -0.816 -0.1940  0.7528 -0.0381
  581MOL0     H80128   2.555   9.067  -0.951  0.0319  0.3802 -0.5438
  581MOL0     H80129   2.438   9.169  -1.028  1.7278  1.1464 -1.3936
  581MOL0     H80130   2.590   8.944  -1.163 -0.9270  0.1101  0.2860
  581MOL0     H80131   2.468   9.040  -1.245  1.5065 -2.6511 -2.9014
  581MOL0     H80132   2.645   9.244  -1.168 -3.8778 -0.6834  0.3729
  581MOL0     H80133   2.763   9.118  -1.144  0.5241 -1.9241 -2.0764
  581MOL0     H80134   2.795   9.212  -1.363 -2.1146  0.9767 -1.4800
  581MOL0     H80135   2.738   9.041  -1.373  1.6851  0.4786 -0.7234
  581MOL0     H80136   2.780   9.272  -1.602 -0.1219  0.2736 -0.6108
  581MOL0     H80137   2.865   9.158  -1.883  0.7508 -0.4378 -1.5263
  581MOL0     H80138   2.844   9.329  -1.833  0.4273 -0.8278  0.7135
  581MOL0     H80139   2.743   9.264  -1.961  1.0707 -0.1988 -0.6821
  581MOL0     H80140   2.590   8.776  -2.112 -1.2554 -1.8321  0.7995
  581MOL0     H80141   2.515   8.677  -2.329  1.1546  0.9485 -1.8741
  581MOL0     H80142   2.171   8.828  -2.497  4.1731 -2.9673  5.4612
  581MOL0     H80143   2.269   8.891  -2.635 -0.1715  0.5605 -0.0014
  581MOL0     H80144   2.113   8.692  -2.702 -0.2495  0.8486 -0.3278
  581MOL0     H80145   2.284   8.656  -2.716 -0.9184 -1.0445 -0.6187
  581MOL0     H80146   2.154   8.576  -2.456 -1.3488 -5.1379  0.1746
  581MOL0     H80147   2.270   8.486  -2.558  0.0204  0.6740  1.3154
  581MOL0     H80148   2.111   8.421  -2.716 -0.3323 -1.8423  0.7112
  581MOL0     H80149   1.989   8.532  -2.652 -1.4656 -0.7069  1.9809
  581MOL0     H80150   2.098   8.302  -2.477  0.2203 -1.1013 -2.0115
  581MOL0     H80151   1.965   8.422  -2.445  0.3190  0.5950  0.6338
  581MOL0     H80152   1.987   8.233  -2.675  0.4250  0.0223  0.6101
  581MOL0     H80153   1.845   8.335  -2.629 -1.8392 -2.7378 -1.0669
  581MOL0     H80154   1.811   8.103  -2.570  0.0167  0.0429 -0.8351
  581MOL0     H80155   1.793   8.227  -2.439 -0.8426 -1.4247  1.2988
  581MOL0     H80156   2.012   8.145  -2.345 -0.8719  3.3333 -1.9642
  581MOL0     H80157   2.033   8.040  -2.487  0.3265 -0.4941  1.6742
  581MOL0     H80158   2.268   9.017  -2.407 -3.1589 -1.7542  3.3983
  581MOL0     H80159   2.357   9.126  -2.225  0.4585  0.0031 -0.1844
  581MOL0     H80160   2.444   8.943  -1.756  1.1960 -1.3264 -2.4929
  581MOL0     H80161   2.442   9.029  -1.525 -2.1105  1.1398 -0.3995
  581MOL0     H80162   1.851   8.025   0.062 -2.4552 -1.1289 -0.9082
  581MOL0     H80163   1.794   7.999   0.317  1.3289 -0.9429 -0.8964
  581MOL0     H80164   1.678   8.308   0.673 -0.8712 -1.5611 -0.9107
  581MOL0     H80165   1.616   8.303   0.914 -1.9816 -1.9266 -0.9246
  581MOL0     H80166   1.721   8.214   1.272 -1.7470  1.6042  0.2869
  581MOL0     H80167   1.735   8.316   1.130 -0.2788 -0.6353 -1.1455
  581MOL0     H80168   1.496   8.288   1.089 -1.0153  2.2645  1.3839
  581MOL0     H80169   1.508   8.320   1.260 -0.5258 -0.3978  0.4054
  581MOL0     H80170   1.344   8.150   1.221  0.3337 -1.3279  1.9127
  581MOL0     H80171   1.469   8.049   1.135 -0.5967 -1.6573  0.9347
  581MOL0     H80172   1.481   8.141   1.427  2.0979  2.9738 -1.7894
  581MOL0     H80173   1.602   8.035   1.347  0.6651  1.3608  0.7577
  581MOL0     H80174   1.247   7.800   1.436 -0.2213 -0.1524 -2.2614
  581MOL0     H80175   1.815   7.939   0.951  2.6370  1.0097 -1.6460
  581MOL0     H80176   2.007   7.906   0.799  0.3689 -0.4656 -0.8684
  581MOL0     H80177   1.865   7.837   0.708  1.0083 -0.7779  2.1138
  581MOL0     H80178   1.994   7.929   0.629  2.2254  0.3628  0.9559
  582MOL0     O80179   2.618   5.942   8.635  0.0925 -0.2420  0.1006
  582MOL0     C80180   2.647   6.044   8.564 -0.3748  0.9244 -0.8602
  582MOL0     O80181   2.559   6.126   8.493  0.0162  0.0725 -0.1095
  582MOL0     C80182   2.426   6.114   8.506 -0.2115 -0.4447  0.4257
  582MOL0     C80183   2.352   6.049   8.404 -0.4464  0.1854  0.1996
  582MOL0     C80184   2.214   6.047   8.407 -0.0664  0.2082  0.2916
  582MOL0     C80185   2.146   6.110   8.516 -0.1125 -0.6329  0.3213
  582MOL0     O80186   2.007   6.089   8.514 -0.4715  0.4423  1.0420
  582MOL0     C80187   1.928   6.141   8.620 -0.1507 -0.3614 -0.5824
  582MOL0     C80188   1.779   6.130   8.578 -0.0898 -0.2345 -0.2082
  582MOL0     C80189   1.738   6.204   8.452  0.1019 -0.2567 -0.1733
  582MOL0     C80190   1.593   6.202   8.438  0.3889 -0.4441  0.2544
  582MOL0     C80191   1.549   6.279   8.302 -0.9425  0.7030  0.5065
  582MOL0     C80192   1.400   6.295   8.286  0.7328 -0.0869 -0.2937
  582MOL0     C80193   1.370   6.356   8.147  0.1858 -0.4665 -0.5374
  582MOL0     C80194   1.228   6.415   8.133  0.9457  0.2828  0.4671
  582MOL0     N80195   1.124   6.326   8.175 -0.7150  0.1242  0.5538
  582MOL0     C80196   1.092   6.198   8.121 -0.9223 -0.1519 -0.7714
  582MOL0     C80197   0.988   6.154   8.183 -0.0977  0.1614 -0.5879
  582MOL0     C80198   0.924   6.022   8.147  0.1694  0.6531  0.0570
  582MOL0     C80199   0.790   6.053   8.080  0.4283 -0.4506 -0.6014
  582MOL0     C80200   0.687   5.938   8.082  0.4242  0.6146  0.3974
  582MOL0     C80201   0.742   5.820   8.006  1.2207  1.0679 -0.1535
  582MOL0     O80202   0.636   5.724   8.002 -0.2522 -0.4084  0.1863
  582MOL0     C80203   0.663   5.592   7.974 -0.6572  0.1509  0.1478
  582MOL0     C80204   0.580   5.489   8.000 -0.4479 -0.2769  0.0839
  582MOL0     C80205   0.613   5.352   7.989  0.0200  0.2795 -1.1116
  582MOL0     C80206   0.503   5.251   8.028  0.0820 -0.2149  0.1307
  582MOL0     C80207   0.738   5.314   7.921  0.3114 -0.1714  0.0831
  582MOL0     C80208   0.767   5.178   7.882  0.1492 -0.2101  0.0646
  582MOL0     O80209   0.843   5.184   7.774  1.1715 -0.6172  0.1822
  582MOL0     C80210   0.868   5.062   7.720 -0.0952  0.0363 -0.2383
  582MOL0     C80211   0.956   4.969   7.785  0.9484  0.1668  0.1974
  582MOL0     C80212   0.955   4.840   7.729  0.2721  1.0212  0.4830
  582MOL0     C80213   0.898   4.822   7.604  0.6020 -0.2005 -0.4923
  582MOL0     O80214   0.929   4.701   7.539  0.1637 -0.5082  0.2563
  582MOL0     C80215   0.822   4.633   7.475  0.5239  0.6569  0.3938
  582MOL0     C80216   0.850   4.625   7.323  0.6566 -0.2670 -0.1828
  582MOL0     C80217   0.992   4.581   7.291 -0.3615 -0.4679 -0.2834
  582MOL0     C80218   1.021   4.558   7.135 -0.7108  0.2608 -0.1419
  582MOL0     C80219   1.148   4.484   7.088  0.2083  0.3049 -0.1216
  582MOL0     C80220   1.117   4.329   7.051 -0.4602  0.2903  0.4366
  582MOL0     C80221   1.095   4.245   7.180 -0.2785  0.3245  0.2087
  582MOL0     C80222   1.197   4.130   7.180  0.9919 -0.2472 -0.1871
  582MOL0    Cl80223   1.361   4.176   7.242  0.1194 -0.4666 -0.4672
  582MOL0     C80224   0.819   4.920   7.532 -0.5165  0.4949 -0.9291
  582MOL0     C80225   0.800   5.044   7.599  0.2150  0.2411  0.1358
  582MOL0     O80226   0.752   5.083   7.954  0.0938  0.8341 -0.2645
  582MOL0     C80227   0.823   5.426   7.887  0.0748 -0.3509  0.3566
  582MOL0     C80228   0.781   5.556   7.903 -0.0713 -0.1942  0.4421
  582MOL0     N80229   0.947   6.252   8.279 -0.4865 -0.1478  0.2144
  582MOL0     N80230   1.022   6.361   8.266 -0.2403 -0.4458  0.4510
  582MOL0     C80231   2.215   6.166   8.624 -0.0444  0.3564 -0.6318
  582MOL0     C80232   2.364   6.170   8.613  0.4191  0.3387  0.2897
  582MOL0     C80233   2.788   6.052   8.519  0.1856  0.2003  0.3430
  582MOL0     C80234   2.828   5.951   8.435  0.0374 -0.0568 -0.1623
  582MOL0     C80235   2.963   5.932   8.415  0.5435 -0.7925  0.9366
  582MOL0     C80236   3.055   6.024   8.465  0.2125 -0.4815 -0.0149
  582MOL0     O80237   3.180   5.996   8.419  0.6103 -0.3135  0.6097
  582MOL0     C80238   3.286   6.077   8.470  0.0958  0.2742 -0.1148
  582MOL0     C80239   3.314   6.034   8.623  0.1953 -0.6155 -1.2501
  582MOL0     C80240   3.418   6.127   8.684  0.0581 -0.4623  0.5180
  582MOL0     C80241   3.462   6.079   8.827 -0.0732  1.6052  0.1879
  582MOL0     C80242   3.358   6.077   8.932  0.5400 -0.3123  0.0706
  582MOL0     C80243   3.270   6.083   9.017 -0.8167  0.8717  0.3182
  582MOL0     C80244   3.007   6.139   8.542 -0.4772 -0.5559 -0.2298
  582MOL0     C80245   2.873   6.141   8.581 -0.7275 -0.0497  0.3953
  582MOL0     C80246   2.824   6.234   8.684 -1.0497 -0.3913 -0.5355
  582MOL0     H80247   2.413   6.004   8.326  1.4344  1.2366  1.0177
  582MOL0     H80248   2.150   5.998   8.334  1.1938 -0.0010 -0.6987
  582MOL0     H80249   1.950   6.247   8.635  0.5921 -0.6943  0.9274
  582MOL0     H80250   1.928   6.083   8.713 -1.5244 -0.9761 -0.9380
  582MOL0     H80251   1.768   6.022   8.566  0.7359 -0.7731  3.0471
  582MOL0     H80252   1.718   6.169   8.660 -0.5698  2.4452 -1.7241
  582MOL0     H80253   1.793   6.298   8.457  1.6606 -1.1692  0.6953
  582MOL0     H80254   1.791   6.157   8.369 -1.1955  1.2701 -1.9581
  582MOL0     H80255   1.554   6.100   8.435  0.1238 -0.3254 -0.5240
  582MOL0     H80256   1.559   6.244   8.532  0.5125 -0.7408  0.4329
  582MOL0     H80257   1.602   6.237   8.216  2.4368 -2.0561  3.5730
  582MOL0     H80258   1.588   6.381   8.306 -0.6308  0.8249 -2.7489
  582MOL0     H80259   1.363   6.192   8.294  1.5736 -0.2569  2.6936
  582MOL0     H80260   1.351   6.359   8.359 -1.0449  0.1549 -1.6344
  582MOL0     H80261   1.392   6.291   8.063  1.4089  0.1826 -0.7467
  582MOL0     H80262   1.439   6.441   8.142  0.8006 -0.7327  1.9684
  582MOL0     H80263   1.211   6.507   8.191 -0.8616 -0.7403  1.6640
  582MOL0     H80264   1.217   6.453   8.031 -2.2810 -1.0925  0.1754
  582MOL0     H80265   1.155   6.143   8.052  1.1971  0.9542  0.1930
  582MOL0     H80266   0.899   5.962   8.235  0.0538 -0.1449 -0.5088
  582MOL0     H80267   0.989   5.955   8.090  0.7509 -0.7778  2.2749
  582MOL0     H80268   0.749   6.149   8.113  2.3535 -0.3091  1.6401
  582MOL0     H80269   0.823   6.074   7.977 -0.0547  3.1059 -0.1487
  582MOL0     H80270   0.668   5.897   8.182 -1.3455 -2.8494 -1.1954
  582MOL0     H80271   0.597   5.974   8.031 -0.0963 -2.2137 -0.8516
  582MOL0     H80272   0.773   5.844   7.904  1.0673  1.1728 -0.1743
  582MOL0     H80273   0.816   5.762   8.062 -1.1628 -4.7582 -2.2785
  582MOL0     H80274   0.488   5.507   8.056  0.9277  2.1139  1.7140
  582MOL0     H80275   0.466   5.192   7.943 -4.3666  1.5437  0.5977
  582MOL0     H80276   0.409   5.292   8.065 -0.1703  0.0011 -0.7352
  582MOL0     H80277   0.548   5.181   8.099  0.2664 -0.6267 -0.3794
  582MOL0     H80278   1.007   4.996   7.877  1.9286 -1.6968  0.2467
  582MOL0     H80279   1.010   4.759   7.776  0.5234  1.0352  0.2132
  582MOL0     H80280   0.820   4.530   7.513 -1.7688 -0.0669 -1.4481
  582MOL0     H80281   0.721   4.674   7.487  0.7607  1.6803 -0.8939
  582MOL0     H80282   0.785   4.546   7.284 -0.6869  1.3793 -1.4503
  582MOL0     H80283   0.826   4.720   7.275 -2.2402 -1.4791 -1.3480
  582MOL0     H80284   1.020   4.487   7.339  1.5584 -0.5558 -1.5020
  582MOL0     H80285   1.064   4.655   7.329 -0.6466 -0.6957  0.7531
  582MOL0     H80286   1.020   4.662   7.101  0.1234 -0.1820 -1.6223
  582MOL0     H80287   0.925   4.522   7.098 -2.2657 -0.0229  3.7318
  582MOL0     H80288   1.180   4.532   6.995 -0.6788  0.6224 -0.2728
  582MOL0     H80289   1.228   4.500   7.161  1.1653  0.7366 -1.2399
  582MOL0     H80290   1.199   4.302   6.984  0.2006  0.4844  1.1516
  582MOL0     H80291   1.030   4.317   6.985  1.6632 -1.4516 -2.2427
  582MOL0     H80292   0.996   4.200   7.176  0.9163 -2.6871  1.0531
  582MOL0     H80293   1.124   4.300   7.271 -1.3027  0.1479  0.6505
  582MOL0     H80294   1.198   4.096   7.076  0.7247 -2.3626  0.4470
  582MOL0     H80295   1.152   4.051   7.241 -2.7135  0.3308 -1.8934
  582MOL0     H80296   0.759   4.905   7.443 -0.9577  1.6291 -0.8473
  582MOL0     H80297   0.730   5.122   7.569  4.0331  3.8385 -0.4136
  582MOL0     H80298   0.922   5.407   7.847 -0.2127 -3.2518  0.7959
  582MOL0     H80299   0.849   5.637   7.878  0.2074 -1.6167 -4.2353
  582MOL0     H80300   2.167   6.218   8.706  2.1868  1.3910  0.1124
  582MOL0     H80301   2.430   6.222   8.682  1.3618 -1.4572  0.7960
  582MOL0     H80302   2.751   5.885   8.397  0.4100  0.8628 -2.7359
  582MOL0     H80303   3.002   5.861   8.343  2.0992  3.1987 -2.5701
  582MOL0     H80304   3.381   6.045   8.426  0.4248 -0.4599  1.0919
  582MOL0     H80305   3.262   6.182   8.452  0.8633  0.2677 -1.2732
  582MOL0     H80306   3.349   5.931   8.614  0.4958 -0.9782  2.5110
  582MOL0     H80307   3.222   6.024   8.682  1.5094 -0.0821  1.0271
  582MOL0     H80308   3.506   6.108   8.622  0.4006 -0.5302  1.0149
  582MOL0     H80309   3.384   6.230   8.673  1.1592 -0.2225 -0.9401
  582MOL0     H80310   3.553   6.131   8.860 -1.0651  2.2398  2.1330
  582MOL0     H80311   3.503   5.978   8.817 -1.7341  0.9439 -0.1306
  582MOL0     H80312   3.197   6.094   9.095  0.0849  0.5260  1.2280
  582MOL0     H80313   3.066   6.216   8.588 -0.3997  0.0652 -1.3402
  582MOL0     H80314   2.800   6.184   8.778 -2.0855 -0.3207 -0.7422
  582MOL0     H80315   2.900   6.312   8.696 -0.0370 -1.4440 -0.0169
  582MOL0     H80316   2.730   6.282   8.655 -0.4621  1.6476  0.6619
  583MOL0     O80317   9.945   5.898   4.976 -0.5663 -0.5464 -0.5327
  583MOL0     C80318  10.015   5.989   4.940  0.5981 -0.5472 -0.1710
  583MOL0     O80319  10.043   6.016   4.810 -0.2565  0.0625 -0.7676
  583MOL0     C80320   9.968   5.959   4.711 -0.2037  0.0059  0.3037
  583MOL0     C80321   9.830   5.939   4.709 -0.0161 -0.1140  0.0128
  583MOL0     C80322   9.767   5.871   4.604  0.1814 -0.5466  0.4870
  583MOL0     C80323   9.837   5.834   4.489  0.3019  0.5502 -0.1798
  583MOL0     O80324   9.773   5.761   4.383 -0.7817  0.0856 -0.6805
  583MOL0     C80325   9.780   5.832   4.262  0.4062 -1.0098 -0.2733
  583MOL0     C80326   9.732   5.737   4.152  1.5772  0.2563  0.3406
  583MOL0     C80327   9.707   5.804   4.018 -1.0224 -0.9208 -0.5582
  583MOL0     C80328   9.660   5.711   3.911 -0.6561 -0.0524 -0.1346
  583MOL0     C80329   9.579   5.775   3.795  0.5006  0.5123  0.1635
  583MOL0     C80330   9.623   5.903   3.743  0.1760  0.6027 -0.4641
  583MOL0     C80331   9.638   5.895   3.596  0.0214 -0.0286 -0.1416
  583MOL0     C80332   9.499   5.908   3.536  0.1953  0.2354  1.0012
  583MOL0     N80333   9.503   5.914   3.386 -0.7588  0.1613  0.3092
  583MOL0     C80334   9.542   5.804   3.301  0.8489 -0.5315  0.2065
  583MOL0     C80335   9.497   5.838   3.177  0.6022  0.0955  0.4361
  583MOL0     C80336   9.491   5.744   3.061  0.0578  0.3546  0.3721
  583MOL0     C80337   9.599   5.763   2.953 -0.2082  1.2687 -0.6715
  583MOL0     C80338   9.595   5.897   2.882  0.0358 -0.4858  0.4220
  583MOL0     C80339   9.692   5.908   2.767 -0.7966  0.1952  1.4462
  583MOL0     O80340   9.661   5.804   2.678 -0.4740  0.6778  0.0320
  583MOL0     C80341   9.745   5.796   2.566  0.5332 -0.2145 -0.0379
  583MOL0     C80342   9.842   5.895   2.534 -0.5505  0.3411  0.1622
  583MOL0     C80343   9.918   5.891   2.417 -0.1621  0.0901  0.1982
  583MOL0     C80344  10.002   6.004   2.392 -0.9825 -1.1715  0.1915
  583MOL0     C80345   9.910   5.771   2.337  0.0105 -0.1266  0.3738
  583MOL0     C80346   9.997   5.734   2.224 -0.7809  0.0486  0.6273
  583MOL0     O80347   9.977   5.610   2.175  0.1053 -0.0036  0.2174
  583MOL0     C80348  10.065   5.558   2.087 -0.4068  0.5232  0.3530
  583MOL0     C80349  10.147   5.455   2.126 -0.8926 -0.0585 -0.5933
  583MOL0     C80350  10.240   5.402   2.036  0.0938  0.6758 -0.1772
  583MOL0     C80351  10.254   5.450   1.911 -0.1957  0.0986 -0.4268
  583MOL0     O80352  10.351   5.400   1.829 -0.0982  0.0765  0.0127
  583MOL0     C80353  10.427   5.509   1.773  0.1074  0.0609 -0.1999
  583MOL0     C80354  10.576   5.503   1.822  0.1660 -1.2377  1.0488
  583MOL0     C80355  10.661   5.610   1.751 -0.2712 -0.3346  0.0755
  583MOL0     C80356  10.680   5.584   1.602  0.1772 -0.0321  0.1568
  583MOL0     C80357  10.773   5.682   1.526  0.1320  0.7045 -0.5367
  583MOL0     C80358  10.782   5.665   1.375 -0.4031 -0.0718  0.2541
  583MOL0     C80359  10.863   5.545   1.346 -1.5322  0.3959  0.7973
  583MOL0     C80360  11.006   5.571   1.311  0.2112  0.7922  0.6316
  583MOL0    Cl80361  11.116   5.627   1.447  0.0857 -0.3277 -0.2769
  583MOL0     C80362  10.167   5.549   1.870 -1.0540  0.8924  0.3332
  583MOL0     C80363  10.071   5.606   1.957  0.1135 -1.2427 -0.3618
  583MOL0     O80364  10.082   5.818   2.178  0.7061 -0.2064 -0.6272
  583MOL0     C80365   9.817   5.669   2.381  0.3913  0.2472  0.0675
  583MOL0     C80366   9.732   5.687   2.486  0.2501  0.4826  0.5241
  583MOL0     N80367   9.439   5.961   3.183  0.3932 -0.5244  0.6938
  583MOL0     N80368   9.453   6.007   3.305  0.4749 -0.1090  0.1064
  583MOL0     C80369   9.976   5.854   4.480 -0.0294 -0.7014  0.0548
  583MOL0     C80370  10.040   5.920   4.592 -0.8159 -1.1312  0.6605
  583MOL0     C80371  10.067   6.073   5.047 -0.2573 -0.4232 -0.9884
  583MOL0     C80372  10.091   6.219   5.021  0.1591 -0.6657  0.5001
  583MOL0     C80373  10.140   6.305   5.117 -0.1966  0.1956 -0.2962
  583MOL0     C80374  10.157   6.266   5.254 -0.5920  0.3996  0.9434
  583MOL0     O80375  10.193   6.349   5.354 -0.5706  0.2703  0.6847
  583MOL0     C80376  10.254   6.475   5.327 -0.4751  0.0725  0.6483
  583MOL0     C80377  10.337   6.516   5.448 -1.1957 -0.2174  0.3299
  583MOL0     C80378  10.259   6.546   5.567  0.5567 -0.1614  0.3707
  583MOL0     C80379  10.339   6.609   5.674  0.2214 -0.0733 -0.2042
  583MOL0     C80380  10.280   6.589   5.808  0.3360  0.1157 -0.3792
  583MOL0     C80381  10.236   6.589   5.926 -0.2819 -0.2219  0.0335
  583MOL0     C80382  10.123   6.136   5.285 -0.1013 -0.3922 -0.3506
  583MOL0     C80383  10.081   6.039   5.183 -0.8512  0.0398 -0.2141
  583MOL0     C80384  10.053   5.899   5.233 -0.2958  0.0941  0.7492
  583MOL0     H80385   9.786   5.966   4.805 -0.9388 -0.4852 -0.3042
  583MOL0     H80386   9.659   5.865   4.600 -0.0160  1.8327  0.9351
  583MOL0     H80387   9.883   5.866   4.253 -0.3532  1.0527 -1.9158
  583MOL0     H80388   9.704   5.910   4.251 -0.3518 -1.4958  1.2586
  583MOL0     H80389   9.814   5.667   4.144  0.2356 -1.9273  3.5262
  583MOL0     H80390   9.638   5.697   4.193  2.0237  0.2527  1.3808
  583MOL0     H80391   9.617   5.866   4.022 -1.0060 -0.9556  0.4569
  583MOL0     H80392   9.800   5.854   3.989 -1.8433  0.0200 -1.6584
  583MOL0     H80393   9.747   5.651   3.882 -1.1230 -1.6968  1.6192
  583MOL0     H80394   9.591   5.638   3.955 -0.2282 -0.0691  0.5312
  583MOL0     H80395   9.475   5.797   3.821  0.6560  2.1410 -0.4395
  583MOL0     H80396   9.577   5.703   3.713  1.7677  2.4978 -1.6935
  583MOL0     H80397   9.551   5.977   3.779  0.9554  0.7362  0.8765
  583MOL0     H80398   9.721   5.935   3.780  0.0634  2.1556 -1.4062
  583MOL0     H80399   9.681   5.799   3.566 -0.3488  0.2814 -1.8115
  583MOL0     H80400   9.701   5.971   3.549 -1.7165  1.2561 -0.5054
  583MOL0     H80401   9.445   5.815   3.556  1.4651 -1.0749 -1.2142
  583MOL0     H80402   9.450   6.001   3.566  0.2516  0.4158  0.5435
  583MOL0     H80403   9.584   5.711   3.336 -0.3766 -2.6229 -3.3309
  583MOL0     H80404   9.397   5.764   3.008 -2.2040 -2.9373  2.7637
  583MOL0     H80405   9.498   5.640   3.093  1.1152  1.4694  4.2714
  583MOL0     H80406   9.696   5.757   3.004  0.0268 -0.4522 -1.2442
  583MOL0     H80407   9.586   5.679   2.883 -0.8393 -1.7417  2.7387
  583MOL0     H80408   9.492   5.914   2.851 -0.5191  0.5758  2.6511
  583MOL0     H80409   9.626   5.961   2.965  0.7968 -1.5157  0.9587
  583MOL0     H80410   9.670   6.008   2.731 -0.4389  0.5615  2.2224
  583MOL0     H80411   9.794   5.905   2.806 -0.2897 -1.2403  0.1372
  583MOL0     H80412   9.835   5.992   2.581 -2.8807  2.6303 -4.3008
  583MOL0     H80413   9.971   6.063   2.305  1.5987  0.1846  0.0925
  583MOL0     H80414  10.104   5.973   2.372 -1.2640 -1.3818 -0.9752
  583MOL0     H80415  10.006   6.066   2.482 -1.6652 -0.7713 -0.0403
  583MOL0     H80416  10.136   5.416   2.227 -1.9901  1.4007 -0.1103
  583MOL0     H80417  10.292   5.309   2.058 -2.4500 -1.5730 -2.7656
  583MOL0     H80418  10.431   5.497   1.664 -0.3336  2.8076 -0.5775
  583MOL0     H80419  10.381   5.607   1.791 -0.7664 -0.3913  0.0873
  583MOL0     H80420  10.580   5.515   1.931 -4.7147 -0.5908  1.3613
  583MOL0     H80421  10.614   5.403   1.801 -1.7102 -1.5903 -1.0290
  583MOL0     H80422  10.759   5.610   1.801 -0.9369 -1.2587  1.4437
  583MOL0     H80423  10.623   5.710   1.777  1.5603  0.5864 -0.5916
  583MOL0     H80424  10.585   5.589   1.549  1.6478  1.3496 -2.6038
  583MOL0     H80425  10.714   5.481   1.583 -0.8132 -0.5209  0.9638
  583MOL0     H80426  10.738   5.785   1.536 -1.1293  0.6699 -3.5837
  583MOL0     H80427  10.873   5.673   1.571 -1.0809 -1.9723  2.0027
  583MOL0     H80428  10.829   5.747   1.320 -0.8044 -1.0339 -1.6541
  583MOL0     H80429  10.682   5.660   1.331 -0.3317  0.3191  0.0369
  583MOL0     H80430  10.813   5.503   1.258 -1.0632 -0.0953  0.7613
  583MOL0     H80431  10.861   5.465   1.421 -1.6810 -2.4697 -2.0417
  583MOL0     H80432  11.007   5.649   1.234 -0.0112 -0.2751 -0.4623
  583MOL0     H80433  11.049   5.481   1.268 -0.0725  0.0376  1.8559
  583MOL0     H80434  10.180   5.600   1.775 -2.8101  0.7452 -0.0078
  583MOL0     H80435   9.996   5.680   1.932 -0.9585 -1.2319  2.5015
  583MOL0     H80436   9.806   5.573   2.332 -3.4614  0.2443  0.6797
  583MOL0     H80437   9.660   5.606   2.492  0.3473  0.4036  0.6273
  583MOL0     H80438  10.030   5.807   4.399 -0.7859  0.0916 -0.9545
  583MOL0     H80439  10.148   5.908   4.593 -0.8556 -1.7438  2.9311
  583MOL0     H80440  10.079   6.248   4.917  1.1760  1.7110  0.9844
  583MOL0     H80441  10.162   6.407   5.089 -3.4227  0.9822 -0.2950
  583MOL0     H80442  10.319   6.475   5.239 -2.3590  0.4494 -0.8036
  583MOL0     H80443  10.182   6.556   5.310 -0.9229  0.3269  3.3406
  583MOL0     H80444  10.391   6.607   5.420 -1.9275 -0.1550 -0.9591
  583MOL0     H80445  10.407   6.438   5.478 -1.4720  0.4377  2.9725
  583MOL0     H80446  10.173   6.611   5.549  1.2185  1.7061  3.3031
  583MOL0     H80447  10.203   6.462   5.608  1.0466  1.3174  4.5218
  583MOL0     H80448  10.332   6.718   5.669  0.4551 -0.0887 -0.8966
  583MOL0     H80449  10.444   6.579   5.677 -0.1795 -1.4996  0.9442
  583MOL0     H80450  10.229   6.593   6.033 -0.8817  1.9536 -0.0294
  583MOL0     H80451  10.116   6.095   5.385 -0.9157  0.2906 -0.1121
  583MOL0     H80452  10.071   5.833   5.147 -3.1040 -0.0663  0.2048
  583MOL0     H80453  10.131   5.873   5.305  2.4027 -0.0961 -1.9917
  583MOL0     H80454   9.949   5.897   5.266 -0.6595  0.0173 -0.3374
  584MOL0     O80455  10.670   5.339   5.806 -0.2344 -0.8053  0.1703
  584MOL0     C80456  10.553   5.300   5.833 -0.4028  0.3423  0.9372
  584MOL0     O80457  10.517   5.186   5.911 -0.6839  0.4059  0.0953
  584MOL0     C80458  10.620   5.107   5.945  0.9176 -0.0905  0.1812
  584MOL0     C80459  10.663   5.008   5.860  1.1304  0.1109  0.6878
  584MOL0     C80460  10.753   4.906   5.892  0.0790  0.1262 -0.2902
  584MOL0     C80461  10.798   4.906   6.030 -0.4604  0.6979 -0.1238
  584MOL0     O80462  10.872   4.812   6.095  0.2917  0.2221 -0.4260
  584MOL0     C80463  10.884   4.690   6.025  0.2392  0.7157  0.8147
  584MOL0     C80464  10.940   4.582   6.130  0.6267  0.5449  0.2873
  584MOL0     C80465  11.090   4.624   6.184  0.0413 -1.1191  0.1076
  584MOL0     C80466  11.126   4.566   6.313 -0.5001  0.6840 -1.1192
  584MOL0     C80467  11.205   4.438   6.293 -0.0041  0.0427  0.1293
  584MOL0     C80468  11.221   4.351   6.418 -0.2393 -0.3890  0.2499
  584MOL0     C80469  11.267   4.443   6.534  1.0100 -0.2603  0.7591
  584MOL0     C80470  11.307   4.372   6.661  0.6258  0.2780 -0.3118
  584MOL0     N80471  11.416   4.274   6.649  0.6697  0.4591  0.0760
  584MOL0     C80472  11.536   4.299   6.593  0.1762 -0.5500  0.7877
  584MOL0     C80473  11.621   4.199   6.628 -0.2733  0.0335  0.3746
  584MOL0     C80474  11.760   4.208   6.574  0.0397  0.3625 -0.5295
  584MOL0     C80475  11.857   4.195   6.696  0.8938  0.2148  0.2532
  584MOL0     C80476  12.001   4.197   6.652  0.8244 -0.0162  0.6160
  584MOL0     C80477  12.041   4.315   6.557  0.0666  0.6121  0.3056
  584MOL0     O80478  12.040   4.271   6.417 -0.0353  0.1214 -0.2893
  584MOL0     C80479  12.112   4.338   6.322 -0.3369 -0.0595 -0.3156
  584MOL0     C80480  12.134   4.471   6.330 -0.2764 -0.9118  0.1399
  584MOL0     C80481  12.224   4.537   6.246 -0.5407  0.0234 -0.0112
  584MOL0     C80482  12.248   4.690   6.270  0.0813 -0.1258  0.0186
  584MOL0     C80483  12.296   4.459   6.147 -0.5778  0.8803  0.4005
  584MOL0     C80484  12.390   4.513   6.048 -0.3858  0.9419  0.1939
  584MOL0     O80485  12.415   4.432   5.927 -0.4185  0.2541 -0.5884
  584MOL0     C80486  12.489   4.477   5.824  0.0165  0.0359  0.1903
  584MOL0     C80487  12.465   4.604   5.775  0.5865  0.7557 -1.2762
  584MOL0     C80488  12.529   4.644   5.662 -0.1853 -0.5400 -0.6317
  584MOL0     C80489  12.619   4.568   5.599  0.7306  0.6186  0.0757
  584MOL0     O80490  12.675   4.622   5.481  0.9766  0.1951  0.2484
  584MOL0     C80491  12.764   4.535   5.406 -0.2066 -0.0093 -0.5669
  584MOL0     C80492  12.781   4.606   5.271  0.0624  0.0497 -0.2150
  584MOL0     C80493  12.838   4.526   5.153  0.5748  0.4463  0.1525
  584MOL0     C80494  12.977   4.470   5.179 -0.2717 -0.5987 -0.1368
  584MOL0     C80495  13.074   4.582   5.221  0.3316 -0.2106  0.9622
  584MOL0     C80496  13.228   4.526   5.217  0.5545  0.0965  0.1083
  584MOL0     C80497  13.242   4.410   5.318  0.2959  0.0897  0.4892
  584MOL0     C80498  13.389   4.390   5.353  0.1783  0.1715 -1.5749
  584MOL0    Cl80499  13.408   4.229   5.434  0.2504  0.3202  0.1199
  584MOL0     C80500  12.656   4.446   5.653 -0.0972 -0.1072 -0.0835
  584MOL0     C80501  12.593   4.394   5.761 -0.0173  0.2089 -0.3401
  584MOL0     O80502  12.438   4.623   6.062  0.7945 -0.0089  0.0400
  584MOL0     C80503  12.276   4.320   6.149 -0.7479  0.2786  0.7501
  584MOL0     C80504  12.185   4.258   6.232  0.9263  0.3382 -0.0228
  584MOL0     N80505  11.541   4.102   6.692 -0.2118 -0.8127 -0.5410
  584MOL0     N80506  11.425   4.157   6.716  0.0160 -2.0541  0.5914
  584MOL0     C80507  10.762   5.010   6.119  0.3974 -0.1884  0.1123
  584MOL0     C80508  10.672   5.110   6.073 -0.0124 -0.7888 -0.1079
  584MOL0     C80509  10.446   5.392   5.781 -0.1658  0.0442 -0.2781
  584MOL0     C80510  10.317   5.345   5.790 -0.6431  0.2409  0.5544
  584MOL0     C80511  10.208   5.405   5.734  0.3307 -0.4891 -0.0513
  584MOL0     C80512  10.221   5.530   5.661  0.2986 -0.0597 -0.4916
  584MOL0     O80513  10.116   5.605   5.603  1.2698 -0.5739  0.3743
  584MOL0     C80514   9.984   5.567   5.657 -0.7496  0.2423 -0.0433
  584MOL0     C80515   9.876   5.661   5.627  0.9005 -0.6547 -0.4827
  584MOL0     C80516   9.916   5.804   5.576  0.3308  0.8047 -0.8053
  584MOL0     C80517   9.801   5.906   5.587 -0.3281 -1.2117  0.4990
  584MOL0     C80518   9.848   6.044   5.565 -0.1947 -0.1088  0.2583
  584MOL0     C80519   9.882   6.158   5.546  0.0736 -0.5558  0.3967
  584MOL0     C80520  10.350   5.585   5.658 -0.6933  0.2094 -0.1249
  584MOL0     C80521  10.460   5.520   5.714 -0.3614 -0.0066 -0.3438
  584MOL0     C80522  10.593   5.587   5.695 -0.2662 -0.5262  0.3132
  584MOL0     H80523  10.615   4.995   5.764  2.6928 -0.5901 -0.0394
  584MOL0     H80524  10.765   4.832   5.814  0.5333 -1.0770  0.8882
  584MOL0     H80525  10.962   4.701   5.949  1.2992 -0.5097  1.6772
  584MOL0     H80526  10.793   4.653   5.977  0.9353 -1.7868  1.2786
  584MOL0     H80527  10.877   4.585   6.220 -0.3365  0.2435 -0.3633
  584MOL0     H80528  10.932   4.483   6.084 -2.0758  0.7349  0.1631
  584MOL0     H80529  11.165   4.615   6.104  0.4638 -0.0821  0.3764
  584MOL0     H80530  11.092   4.732   6.200  1.2384 -0.9720 -0.7997
  584MOL0     H80531  11.200   4.630   6.360  0.0092 -0.7136  0.0532
  584MOL0     H80532  11.038   4.546   6.375  0.9783 -0.3137  0.7450
  584MOL0     H80533  11.306   4.468   6.265  0.3730  0.1001  1.4794
  584MOL0     H80534  11.167   4.379   6.209  0.1392  1.1027 -0.7016
  584MOL0     H80535  11.128   4.304   6.451 -1.1680  3.0229  3.1494
  584MOL0     H80536  11.297   4.275   6.396  1.6366  1.7467 -1.2486
  584MOL0     H80537  11.181   4.501   6.570  0.5700  0.3649 -1.1577
  584MOL0     H80538  11.342   4.516   6.503  1.7046 -0.6232  1.5341
  584MOL0     H80539  11.337   4.450   6.732 -1.6318 -0.2345  1.3012
  584MOL0     H80540  11.215   4.325   6.696 -0.6795  0.0400 -3.6419
  584MOL0     H80541  11.551   4.384   6.527 -1.0386 -2.8736 -2.7543
  584MOL0     H80542  11.772   4.307   6.528  1.2788  0.8048  0.6764
  584MOL0     H80543  11.791   4.131   6.502 -2.9783 -0.3888 -1.1615
  584MOL0     H80544  11.841   4.271   6.773  2.5728 -0.8598  1.7374
  584MOL0     H80545  11.835   4.099   6.745 -0.3732  0.3516 -0.0009
  584MOL0     H80546  12.058   4.209   6.745 -1.0457  1.0489  1.6827
  584MOL0     H80547  12.034   4.101   6.610 -1.0799  1.1038 -3.9301
  584MOL0     H80548  11.983   4.408   6.567  2.2710  2.2857 -1.2688
  584MOL0     H80549  12.143   4.340   6.588 -0.8128  1.7851  2.4816
  584MOL0     H80550  12.085   4.533   6.404 -1.1199  0.9624 -1.8591
  584MOL0     H80551  12.242   4.739   6.173  0.1384 -1.3947 -0.6416
  584MOL0     H80552  12.351   4.705   6.303  0.0468 -0.8669  0.4817
  584MOL0     H80553  12.166   4.733   6.329 -0.0010 -1.4039  0.8879
  584MOL0     H80554  12.385   4.667   5.813  2.6705  1.9356  1.5667
  584MOL0     H80555  12.525   4.745   5.624  3.1715 -0.9419 -2.4791
  584MOL0     H80556  12.852   4.515   5.467 -2.3767  0.0152  2.8754
  584MOL0     H80557  12.720   4.438   5.380  0.4051  0.2214 -2.6415
  584MOL0     H80558  12.685   4.648   5.238 -0.8993 -0.6406  1.5708
  584MOL0     H80559  12.840   4.696   5.291 -0.4840  0.3226  0.2009
  584MOL0     H80560  12.832   4.593   5.068  1.1070  0.0185 -0.2321
  584MOL0     H80561  12.769   4.445   5.127  0.8999  0.4821 -0.8659
  584MOL0     H80562  13.018   4.427   5.087  0.3055  2.7653 -1.5921
  584MOL0     H80563  12.979   4.396   5.260  1.0996  0.5840  0.9808
  584MOL0     H80564  13.071   4.666   5.152 -1.0079 -1.4129 -0.5078
  584MOL0     H80565  13.057   4.619   5.322  2.4221 -3.2659  2.6310
  584MOL0     H80566  13.300   4.605   5.242 -1.5291  1.8215  1.0075
  584MOL0     H80567  13.256   4.511   5.112 -0.0038  0.0578 -0.0402
  584MOL0     H80568  13.205   4.321   5.266  0.4978 -0.5461  1.4048
  584MOL0     H80569  13.189   4.420   5.414  0.0927 -2.5579  0.7201
  584MOL0     H80570  13.414   4.465   5.428 -2.5694 -1.4845  1.2522
  584MOL0     H80571  13.452   4.393   5.263 -0.4919 -1.6102 -2.1503
  584MOL0     H80572  12.731   4.380   5.610 -2.6000 -1.7392 -2.2604
  584MOL0     H80573  12.622   4.294   5.792 -3.1989 -0.9458 -0.6720
  584MOL0     H80574  12.347   4.259   6.094 -2.8665 -2.0071  0.3890
  584MOL0     H80575  12.166   4.151   6.224 -0.7874  0.7317 -2.2795
  584MOL0     H80576  10.796   5.003   6.222  1.5748  0.1154 -0.2418
  584MOL0     H80577  10.650   5.195   6.137  0.4578 -0.6100 -0.1820
  584MOL0     H80578  10.292   5.256   5.848  0.0344 -0.4143 -0.1390
  584MOL0     H80579  10.115   5.352   5.752  1.2254 -1.5639  1.6150
  584MOL0     H80580   9.970   5.465   5.619  1.9841 -0.8417  1.5813
  584MOL0     H80581  10.005   5.559   5.764 -1.9378  0.0749  0.1982
  584MOL0     H80582   9.809   5.664   5.713 -0.6472 -0.0379 -1.6487
  584MOL0     H80583   9.815   5.630   5.541 -0.2857  1.9083 -0.6759
  584MOL0     H80584   9.998   5.856   5.627 -0.5452  1.0136  0.4261
  584MOL0     H80585   9.945   5.793   5.471  1.9977 -3.7971 -0.0878
  584MOL0     H80586   9.769   5.889   5.690  0.1013 -1.7471  0.5464
  584MOL0     H80587   9.712   5.888   5.527  0.5847 -0.4003 -1.1651
  584MOL0     H80588   9.914   6.257   5.519 -0.0049 -0.9386 -1.1659
  584MOL0     H80589  10.377   5.667   5.592 -1.3502  1.1732  0.7881
  584MOL0     H80590  10.653   5.571   5.785  0.8094 -3.0574 -0.7417
  584MOL0     H80591  10.639   5.560   5.599 -0.0474  1.2940 -0.1363
  584MOL0     H80592  10.589   5.697   5.695 -1.1595 -0.5444 -0.7902
  585MOL0     O80593   9.362   0.726   4.682 -0.3269 -0.0776  0.2114
  585MOL0     C80594   9.347   0.614   4.631  0.2080  0.5339  0.8979
  585MOL0     O80595   9.448   0.539   4.566 -0.4474  0.2437  0.2018
  585MOL0     C80596   9.576   0.581   4.557 -0.0642  0.1402  0.8594
  585MOL0     C80597   9.639   0.654   4.657 -0.2080  0.5647  0.0417
  585MOL0     C80598   9.773   0.709   4.630  0.4027  0.0882  0.7766
  585MOL0     C80599   9.835   0.689   4.512 -0.2258 -0.6722 -0.7593
  585MOL0     O80600   9.965   0.728   4.488  0.4141 -0.7405  0.3240
  585MOL0     C80601  10.049   0.782   4.586  1.1193 -0.1949 -0.3234
  585MOL0     C80602  10.189   0.777   4.533  0.0044 -1.3945 -0.7196
  585MOL0     C80603  10.298   0.849   4.617 -1.0204  0.3536 -0.2082
  585MOL0     C80604  10.436   0.824   4.573 -0.1592  0.1513 -1.0715
  585MOL0     C80605  10.542   0.837   4.690 -0.5223  0.7499 -0.3541
  585MOL0     C80606  10.562   0.706   4.772  0.2297  0.1827 -0.2120
  585MOL0     C80607  10.636   0.596   4.687 -0.3681  0.7604 -0.1734
  585MOL0     C80608  10.607   0.450   4.736 -0.6636 -0.3721 -0.0412
  585MOL0     N80609  10.469   0.426   4.745 -0.6118 -0.6592  0.1942
  585MOL0     C80610  10.383   0.449   4.636 -0.3748 -0.2703 -0.6763
  585MOL0     C80611  10.266   0.403   4.685  0.0379  0.1457 -0.1292
  585MOL0     C80612  10.141   0.390   4.614  0.5192  0.2611 -0.0950
  585MOL0     C80613  10.084   0.245   4.607  0.1314  0.7972  0.7447
  585MOL0     C80614   9.971   0.235   4.501 -0.0662 -0.3220 -0.4440
  585MOL0     C80615   9.832   0.256   4.553 -0.4219 -0.1644  0.6076
  585MOL0     O80616   9.739   0.250   4.435  0.8485 -0.1552 -0.2368
  585MOL0     C80617   9.608   0.213   4.458 -0.4977  0.1494  0.3428
  585MOL0     C80618   9.527   0.210   4.346  0.6312  0.9478  0.4386
  585MOL0     C80619   9.396   0.168   4.345  0.5078 -0.4213 -1.1354
  585MOL0     C80620   9.322   0.154   4.214  0.1400  0.4645 -0.6480
  585MOL0     C80621   9.331   0.132   4.462  0.1451  0.8182  0.8355
  585MOL0     C80622   9.193   0.087   4.482 -0.2750  0.1323 -0.8500
  585MOL0     O80623   9.140   0.135   4.608 -0.0543 -0.8141  1.2807
  585MOL0     C80624   9.028   0.072   4.650  0.4461  0.0698 -0.4408
  585MOL0     C80625   9.053  -0.053   4.699  0.2120  0.7919 -0.0334
  585MOL0     C80626   8.949  -0.134   4.740  0.6408  1.0756 -0.6378
  585MOL0     C80627   8.817  -0.095   4.754 -0.1795 -0.9300  0.4112
  585MOL0     O80628   8.724  -0.179   4.803 -0.5063  0.0883  0.6221
  585MOL0     C80629   8.593  -0.162   4.764  0.2515  0.4777 -0.3298
  585MOL0     C80630   8.500  -0.277   4.815  0.3502 -0.0791 -0.2732
  585MOL0     C80631   8.348  -0.242   4.782 -0.0047 -0.4775 -1.0890
  585MOL0     C80632   8.268  -0.325   4.879 -0.1876 -0.0659  0.8322
  585MOL0     C80633   8.117  -0.299   4.853  0.2599 -0.4846 -0.7063
  585MOL0     C80634   8.039  -0.409   4.925  0.7472  0.7591 -0.6441
  585MOL0     C80635   7.894  -0.396   4.888 -0.1279  0.6147 -0.0797
  585MOL0     C80636   7.863  -0.418   4.739  0.0992  0.6585  0.3874
  585MOL0    Cl80637   7.688  -0.455   4.735  0.0277  0.0403 -0.1570
  585MOL0     C80638   8.789   0.041   4.703  1.0923  0.9635  0.8062
  585MOL0     C80639   8.899   0.123   4.662 -0.1188 -0.4896  1.0406
  585MOL0     O80640   9.141   0.009   4.404  0.9465 -0.0647  0.8573
  585MOL0     C80641   9.410   0.142   4.578  0.2874 -0.2032 -1.0358
  585MOL0     C80642   9.539   0.191   4.581 -0.7160 -0.9205 -0.2080
  585MOL0     N80643  10.287   0.350   4.816 -0.4570  1.1183 -0.3933
  585MOL0     N80644  10.408   0.361   4.851 -0.1368 -0.8710  0.0566
  585MOL0     C80645   9.775   0.605   4.420 -0.0828 -0.4112 -0.6274
  585MOL0     C80646   9.651   0.552   4.448  0.6656 -0.2026 -0.4906
  585MOL0     C80647   9.213   0.566   4.603 -0.7054  0.5797  0.0639
  585MOL0     C80648   9.192   0.474   4.495  0.2084  0.1088  0.3521
  585MOL0     C80649   9.058   0.434   4.460  0.0166  0.1545  0.6141
  585MOL0     C80650   8.942   0.496   4.516 -0.2503 -1.4277 -0.3872
  585MOL0     O80651   8.811   0.463   4.480  0.3099  0.1767 -0.5416
  585MOL0     C80652   8.781   0.476   4.337  1.0937  0.1748  0.1476
  585MOL0     C80653   8.789   0.622   4.291 -0.2612  1.1807  0.6754
  585MOL0     C80654   8.690   0.705   4.386 -0.5389 -0.1880 -0.2693
  585MOL0     C80655   8.721   0.854   4.380 -0.7609 -0.3912  0.0729
  585MOL0     C80656   8.837   0.881   4.457  0.4104  0.1867  0.3562
  585MOL0     C80657   8.950   0.869   4.493  0.3544  0.2809 -0.0772
  585MOL0     C80658   8.974   0.583   4.623  0.1535 -0.8668 -0.1697
  585MOL0     C80659   9.103   0.609   4.673 -0.0618  0.1114  0.4679
  585MOL0     C80660   9.119   0.683   4.802 -0.3285  0.5570  1.1781
  585MOL0     H80661   9.588   0.677   4.750  1.9415 -3.3322  2.4580
  585MOL0     H80662   9.803   0.787   4.700 -2.4667  3.4187 -1.3314
  585MOL0     H80663  10.051   0.718   4.674 -1.7457 -2.1229 -1.5418
  585MOL0     H80664  10.024   0.886   4.608 -0.8754 -0.2779 -1.9200
  585MOL0     H80665  10.227   0.674   4.532  3.3344 -0.3393  0.8309
  585MOL0     H80666  10.201   0.824   4.435  0.7558  2.1743  0.9022
  585MOL0     H80667  10.284   0.958   4.618  1.4139  0.7788  2.5933
  585MOL0     H80668  10.273   0.819   4.719  2.1322 -1.4125  0.1557
  585MOL0     H80669  10.437   0.728   4.521 -3.3375 -1.2153  1.1082
  585MOL0     H80670  10.466   0.899   4.499  1.2249  2.7006  1.8455
  585MOL0     H80671  10.499   0.911   4.758 -0.2620 -0.1225  0.7934
  585MOL0     H80672  10.638   0.878   4.658 -0.1925  2.1076  2.1176
  585MOL0     H80673  10.628   0.712   4.859  0.2032 -0.0055 -0.1780
  585MOL0     H80674  10.464   0.675   4.809 -0.5285  2.2588 -0.3531
  585MOL0     H80675  10.745   0.607   4.696 -0.1593 -1.0168 -0.1380
  585MOL0     H80676  10.612   0.613   4.582  0.2497  0.1417 -0.4299
  585MOL0     H80677  10.653   0.377   4.668 -0.1133  3.2620 -3.9948
  585MOL0     H80678  10.661   0.421   4.826 -0.5589 -0.8255 -0.2445
  585MOL0     H80679  10.398   0.490   4.537 -1.1963  1.2099 -0.2201
  585MOL0     H80680  10.157   0.423   4.511  0.5761 -0.3545 -0.2876
  585MOL0     H80681  10.065   0.450   4.664  1.2348 -0.3727  1.8550
  585MOL0     H80682  10.167   0.180   4.579 -1.2378 -1.8291  2.3710
  585MOL0     H80683  10.031   0.215   4.698 -1.9359  1.5633 -0.1257
  585MOL0     H80684   9.995   0.306   4.421 -0.7203  1.5058  0.9264
  585MOL0     H80685   9.973   0.140   4.446 -2.6083 -0.2214 -0.8047
  585MOL0     H80686   9.821   0.175   4.626  1.9656 -0.2193  0.9742
  585MOL0     H80687   9.822   0.355   4.600 -1.3905 -0.3912  0.8983
  585MOL0     H80688   9.580   0.240   4.256  1.0250  0.8459  0.6312
  585MOL0     H80689   9.402   0.155   4.139  1.7032 -0.6145  0.9374
  585MOL0     H80690   9.263   0.244   4.195 -2.0772 -1.1048 -1.7009
  585MOL0     H80691   9.263   0.067   4.182  0.0761 -0.1576  1.0690
  585MOL0     H80692   9.152  -0.096   4.714 -1.0477 -1.5664  2.1147
  585MOL0     H80693   8.952  -0.232   4.786  0.7332  0.4947 -1.8502
  585MOL0     H80694   8.550  -0.069   4.803 -0.9722 -0.6025  1.0509
  585MOL0     H80695   8.584  -0.158   4.655  0.3864 -0.7841 -0.3957
  585MOL0     H80696   8.530  -0.369   4.766  1.2387  1.9756 -3.9577
  585MOL0     H80697   8.509  -0.283   4.924 -0.8593  0.9028 -0.0997
  585MOL0     H80698   8.314  -0.267   4.682  1.7958 -1.3764 -1.5143
  585MOL0     H80699   8.330  -0.137   4.806  0.1110 -0.3930 -1.3740
  585MOL0     H80700   8.304  -0.315   4.982  1.2637 -3.1249  0.7354
  585MOL0     H80701   8.284  -0.430   4.853 -1.6188 -0.6285  2.0651
  585MOL0     H80702   8.095  -0.200   4.895  2.1420 -0.7443  1.1013
  585MOL0     H80703   8.098  -0.297   4.746  0.6082 -0.0901 -0.7636
  585MOL0     H80704   8.057  -0.409   5.032 -0.8895 -1.9194 -0.2941
  585MOL0     H80705   8.079  -0.507   4.898 -0.4791  0.2773 -0.7569
  585MOL0     H80706   7.868  -0.290   4.901  2.4473  1.3034 -0.0828
  585MOL0     H80707   7.842  -0.467   4.953  1.0714 -0.0221  0.2019
  585MOL0     H80708   7.913  -0.506   4.696 -0.6902  0.0653  0.6600
  585MOL0     H80709   7.889  -0.330   4.679 -0.5729  0.3070 -0.4322
  585MOL0     H80710   8.690   0.085   4.703  0.5427 -0.1841  2.5689
  585MOL0     H80711   8.873   0.220   4.619 -2.7194 -0.5639  2.2458
  585MOL0     H80712   9.381   0.125   4.681  0.5460  2.6477 -0.4186
  585MOL0     H80713   9.589   0.203   4.676  1.8490  6.8991 -1.7618
  585MOL0     H80714   9.814   0.579   4.321 -0.2347  1.4829 -1.2283
  585MOL0     H80715   9.610   0.478   4.380 -0.0361  0.4700 -0.8112
  585MOL0     H80716   9.275   0.436   4.437  0.4472  3.8204 -2.1233
  585MOL0     H80717   9.033   0.364   4.380 -1.4349  2.0394 -0.6691
  585MOL0     H80718   8.848   0.413   4.278 -0.6154 -2.8477  1.2348
  585MOL0     H80719   8.679   0.441   4.318 -0.4933  4.7369 -1.0766
  585MOL0     H80720   8.760   0.640   4.187  1.1929  1.3015  0.2646
  585MOL0     H80721   8.893   0.655   4.293  0.0854  0.1014  2.3071
  585MOL0     H80722   8.583   0.690   4.372 -1.3847  4.4326 -0.2332
  585MOL0     H80723   8.717   0.676   4.488  0.8103  1.5453 -0.0746
  585MOL0     H80724   8.635   0.907   4.423 -1.8333 -2.6940  0.9210
  585MOL0     H80725   8.740   0.892   4.279 -1.7244  1.3348  0.5005
  585MOL0     H80726   9.051   0.863   4.530  1.2433  0.8285 -2.2046
  585MOL0     H80727   8.881   0.627   4.658 -0.7295 -2.1070 -0.8746
  585MOL0     H80728   9.161   0.779   4.769 -3.3136  0.8043 -2.6406
  585MOL0     H80729   9.018   0.700   4.842 -0.9452  1.8954 -0.7895
  585MOL0     H80730   9.189   0.634   4.871  3.7491 -0.4269 -3.1317
  586MOL0     O80731   9.580   3.986   6.557  0.6060  0.2273  0.0493
  586MOL0     C80732   9.549   3.955   6.448 -0.8208  0.1758  0.2150
  586MOL0     O80733   9.414   3.968   6.391 -0.8579 -0.2211  0.0169
  586MOL0     C80734   9.296   3.951   6.463 -1.0007  0.6089 -0.4798
  586MOL0     C80735   9.189   3.954   6.383 -0.2800 -0.5863 -0.0977
  586MOL0     C80736   9.066   3.931   6.439  0.4794  0.8643  0.3487
  586MOL0     C80737   9.040   3.899   6.575 -0.0930 -0.1867  0.6773
  586MOL0     O80738   8.921   3.876   6.630  0.0160  0.2524 -0.9313
  586MOL0     C80739   8.825   3.976   6.608  1.3398  0.3602  0.9879
  586MOL0     C80740   8.723   3.963   6.726 -0.8271 -0.0383  0.0954
  586MOL0     C80741   8.784   3.998   6.861 -0.2318  0.0163  0.0497
  586MOL0     C80742   8.688   4.011   6.977  0.4818  0.1435  0.2545
  586MOL0     C80743   8.584   4.121   6.953  0.2883  0.1177  0.6255
  586MOL0     C80744   8.484   4.140   7.072 -0.9127  0.6039  1.1922
  586MOL0     C80745   8.377   4.252   7.051  0.1293  0.6068 -0.5629
  586MOL0     C80746   8.272   4.251   7.156  0.4294  0.3686 -0.0839
  586MOL0     N80747   8.189   4.369   7.160 -0.4975 -0.4369 -1.2153
  586MOL0     C80748   8.198   4.464   7.266  1.0906  0.1319 -0.0505
  586MOL0     C80749   8.110   4.561   7.232 -0.1532 -0.4532  0.6909
  586MOL0     C80750   8.069   4.691   7.299  0.2191 -0.5952  0.1384
  586MOL0     C80751   8.193   4.761   7.361  0.6663  0.4534 -0.4770
  586MOL0     C80752   8.150   4.880   7.445  0.4627 -0.3634 -0.1412
  586MOL0     C80753   8.092   4.841   7.584 -0.9689  0.7064 -0.7941
  586MOL0     O80754   8.044   4.956   7.650 -0.3237  0.2113  0.1895
  586MOL0     C80755   7.942   4.948   7.745  0.4282  0.4041 -0.3666
  586MOL0     C80756   7.982   4.987   7.872 -0.4520  0.6397 -0.1521
  586MOL0     C80757   7.897   4.956   7.978  0.4333  1.3170  0.9243
  586MOL0     C80758   7.948   4.973   8.119  0.3736 -0.0259  0.3319
  586MOL0     C80759   7.764   4.908   7.954 -0.2682 -1.8504  0.1458
  586MOL0     C80760   7.663   4.875   8.063  0.2497  0.0108 -0.6155
  586MOL0     O80761   7.528   4.893   8.034  0.2589  1.1584 -0.2346
  586MOL0     C80762   7.440   4.828   8.120 -0.3926 -0.1976 -0.7110
  586MOL0     C80763   7.334   4.892   8.173 -0.0720  0.0044 -0.0457
  586MOL0     C80764   7.235   4.817   8.236  0.2154 -0.3471 -0.3206
  586MOL0     C80765   7.240   4.681   8.259  0.4440  0.0090  0.3232
  586MOL0     O80766   7.129   4.604   8.299 -0.1589 -0.2185 -0.7496
  586MOL0     C80767   7.036   4.659   8.387  0.1067 -0.4326 -0.1205
  586MOL0     C80768   6.893   4.671   8.333  0.2364  0.4803  0.0537
  586MOL0     C80769   6.841   4.523   8.316  0.5815 -0.0295 -0.1012
  586MOL0     C80770   6.721   4.508   8.406 -1.1576  0.6772 -0.7138
  586MOL0     C80771   6.592   4.589   8.374  0.1416 -0.6018 -0.1224
  586MOL0     C80772   6.493   4.603   8.484  0.1362  0.3937 -1.0772
  586MOL0     C80773   6.444   4.465   8.520  0.3502  0.4030 -0.3765
  586MOL0     C80774   6.351   4.459   8.639  0.4193 -0.3813 -1.0751
  586MOL0    Cl80775   6.401   4.549   8.787 -0.2322  0.0262 -0.3532
  586MOL0     C80776   7.355   4.611   8.209  0.5788 -0.3763  0.5659
  586MOL0     C80777   7.455   4.683   8.141  0.6294 -0.0979  0.2923
  586MOL0     O80778   7.708   4.813   8.159 -0.0346 -0.5615 -0.2421
  586MOL0     C80779   7.725   4.885   7.819 -0.7642  0.5761 -0.0293
  586MOL0     C80780   7.814   4.905   7.718 -0.8709  0.0881  0.3638
  586MOL0     N80781   8.045   4.517   7.113 -0.3693 -0.9254 -0.4386
  586MOL0     N80782   8.096   4.405   7.078 -0.1723 -0.6447  0.8748
  586MOL0     C80783   9.151   3.892   6.658 -0.2736  0.7905  0.7761
  586MOL0     C80784   9.280   3.910   6.593 -0.3592  0.0939 -0.4749
  586MOL0     C80785   9.667   3.922   6.366 -0.6046  0.3607 -0.3245
  586MOL0     C80786   9.770   4.024   6.363 -0.0302  0.3239 -0.7492
  586MOL0     C80787   9.890   3.991   6.304  0.3771 -0.1870  0.2952
  586MOL0     C80788   9.903   3.874   6.226  0.6058  0.8121 -0.1152
  586MOL0     O80789  10.019   3.847   6.154  0.4479  0.8654 -0.1402
  586MOL0     C80790  10.128   3.941   6.150  0.4983  0.3937  0.1864
  586MOL0     C80791  10.208   3.960   6.287  0.0664  0.2062 -0.9951
  586MOL0     C80792  10.227   3.826   6.350  0.4927 -0.7302  0.7420
  586MOL0     C80793  10.332   3.727   6.277 -0.0146 -0.1719  0.0567
  586MOL0     C80794  10.468   3.793   6.263  0.8428  0.4674  0.6841
  586MOL0     C80795  10.573   3.857   6.263 -0.0993  1.0060  0.8029
  586MOL0     C80796   9.798   3.783   6.227  1.1467 -0.0043  0.4535
  586MOL0     C80797   9.679   3.803   6.288 -0.0417 -0.4169 -0.4454
  586MOL0     C80798   9.578   3.686   6.316  0.1869 -0.2379  0.7924
  586MOL0     H80799   9.190   3.985   6.279  0.5545 -0.3958 -0.0468
  586MOL0     H80800   8.981   3.941   6.373 -0.7700 -2.4030  1.2482
  586MOL0     H80801   8.781   3.960   6.510 -1.0309  0.1032  2.0126
  586MOL0     H80802   8.862   4.079   6.603 -0.9400  1.3322  2.0848
  586MOL0     H80803   8.639   4.027   6.698 -3.9869 -3.4208  0.9418
  586MOL0     H80804   8.677   3.864   6.735 -1.6038  0.1291 -1.6923
  586MOL0     H80805   8.859   3.926   6.894  0.5734  0.1129 -1.4903
  586MOL0     H80806   8.828   4.098   6.865  0.7294 -0.2520 -2.1131
  586MOL0     H80807   8.640   3.918   7.008 -0.2003  1.1103  2.2485
  586MOL0     H80808   8.752   4.048   7.058  0.3956 -1.2791  1.0066
  586MOL0     H80809   8.521   4.105   6.865 -1.5878  1.7710  1.5695
  586MOL0     H80810   8.621   4.221   6.930 -1.1836  0.5580  0.0034
  586MOL0     H80811   8.451   4.039   7.095 -1.0111  0.6611  1.3064
  586MOL0     H80812   8.541   4.162   7.163  1.1753 -1.4766  0.4851
  586MOL0     H80813   8.344   4.245   6.947  3.4839  1.2524 -1.8261
  586MOL0     H80814   8.416   4.354   7.065 -1.7607  1.1652  1.1641
  586MOL0     H80815   8.202   4.168   7.144 -1.1359  1.5338  0.7197
  586MOL0     H80816   8.332   4.246   7.247 -0.9587 -1.6708  0.7894
  586MOL0     H80817   8.254   4.455   7.358 -0.0801 -0.5914  0.6289
  586MOL0     H80818   7.987   4.672   7.368  0.2477  1.1166  0.6738
  586MOL0     H80819   8.023   4.762   7.230 -2.3903 -1.2079  1.1663
  586MOL0     H80820   8.262   4.700   7.420 -0.8347 -0.2867  0.5725
  586MOL0     H80821   8.249   4.794   7.272  0.6313  2.2087  0.1344
  586MOL0     H80822   8.228   4.952   7.473  1.8074 -2.3318  1.4571
  586MOL0     H80823   8.076   4.924   7.378  1.2115 -1.5743 -1.8341
  586MOL0     H80824   8.006   4.774   7.574 -1.1509  0.4426  1.8030
  586MOL0     H80825   8.166   4.779   7.637  1.4895 -0.2059 -4.8770
  586MOL0     H80826   8.088   5.013   7.876 -0.1179 -0.7387  1.6439
  586MOL0     H80827   7.872   4.993   8.196  2.1194  1.4634  1.7643
  586MOL0     H80828   8.017   5.057   8.130 -0.0353  0.1238  2.0906
  586MOL0     H80829   8.001   4.884   8.154  1.6005 -0.1585 -1.7096
  586MOL0     H80830   7.313   4.994   8.141  1.4374  0.7741  1.2441
  586MOL0     H80831   7.145   4.871   8.264  1.6016  2.0153 -0.1713
  586MOL0     H80832   7.029   4.610   8.485 -0.5367  0.2828  0.2042
  586MOL0     H80833   7.049   4.762   8.419 -2.2372 -0.3758  0.8301
  586MOL0     H80834   6.829   4.725   8.404  1.3194  0.9952  0.6771
  586MOL0     H80835   6.900   4.733   8.243 -0.6047  1.7407  0.8229
  586MOL0     H80836   6.915   4.454   8.356 -0.6458  0.8441  4.1935
  586MOL0     H80837   6.828   4.499   8.210  0.3591 -3.4279  0.5869
  586MOL0     H80838   6.758   4.530   8.506 -0.0005 -3.5007 -0.0404
  586MOL0     H80839   6.704   4.400   8.412  0.6423  0.3560 -1.0115
  586MOL0     H80840   6.627   4.689   8.346  0.7448 -1.2585 -1.9082
  586MOL0     H80841   6.536   4.541   8.293  1.9891 -3.1954  0.0299
  586MOL0     H80842   6.406   4.667   8.466  0.3159  2.3411  3.5607
  586MOL0     H80843   6.546   4.649   8.568 -1.7483  3.6490 -1.4997
  586MOL0     H80844   6.521   4.394   8.551 -0.3919 -0.4423 -0.4312
  586MOL0     H80845   6.403   4.410   8.434  1.1580 -2.1705  0.7822
  586MOL0     H80846   6.346   4.355   8.672 -2.8095  0.1176  0.4177
  586MOL0     H80847   6.246   4.484   8.624 -0.4191 -1.2724  2.2513
  586MOL0     H80848   7.357   4.502   8.212 -0.8195 -0.4269  0.4313
  586MOL0     H80849   7.522   4.629   8.074  2.6056  0.6755  1.5422
  586MOL0     H80850   7.625   4.858   7.788 -1.9351  3.8345  0.4427
  586MOL0     H80851   7.796   4.895   7.612 -0.1427  1.9054  0.0172
  586MOL0     H80852   9.140   3.851   6.758 -2.6988  1.0743  0.6636
  586MOL0     H80853   9.367   3.876   6.648 -0.4824  1.2251  0.4636
  586MOL0     H80854   9.774   4.111   6.427  1.9883 -0.6619  0.5411
  586MOL0     H80855   9.968   4.066   6.306 -1.0971  1.4596 -0.7051
  586MOL0     H80856  10.193   3.918   6.066 -1.6435  2.3734 -2.1616
  586MOL0     H80857  10.087   4.041   6.135 -0.1968  1.1561  5.2284
  586MOL0     H80858  10.163   4.031   6.357 -0.3289 -3.9843  3.5336
  586MOL0     H80859  10.299   4.011   6.254  0.5445  0.2179  0.2805
  586MOL0     H80860  10.261   3.852   6.450  0.0800 -0.6408  0.8635
  586MOL0     H80861  10.131   3.773   6.347 -0.1860  0.2734 -4.0558
  586MOL0     H80862  10.288   3.708   6.178 -1.3430 -3.0779  1.0903
  586MOL0     H80863  10.337   3.641   6.344  1.3991  0.0014  0.1912
  586MOL0     H80864  10.651   3.930   6.272  0.7623  0.2311 -0.1114
  586MOL0     H80865   9.825   3.692   6.174  0.2939  0.4996 -0.9265
  586MOL0     H80866   9.488   3.733   6.277  2.9648  4.9481 -0.3056
  586MOL0     H80867   9.618   3.595   6.271  2.6843  1.0169  0.2608
  586MOL0     H80868   9.563   3.688   6.425 -2.5959 -0.5476  0.4732
  587MOL0     O80869   1.974  10.355   5.536  0.8324  0.0544  0.0663
  587MOL0     C80870   2.008  10.452   5.472  0.8556 -0.1326 -0.7873
  587MOL0     O80871   1.991  10.582   5.518 -0.6044 -0.0171  0.2628
  587MOL0     C80872   1.965  10.607   5.647  0.7167  0.6745 -0.8634
  587MOL0     C80873   1.872  10.709   5.671 -0.4405  0.2217 -0.3731
  587MOL0     C80874   1.830  10.751   5.797  0.6486 -0.1925 -0.1609
  587MOL0     C80875   1.876  10.671   5.908 -0.3519 -0.3242  1.3984
  587MOL0     O80876   1.832  10.718   6.030  0.1161  0.4674  0.4661
  587MOL0     C80877   1.853  10.626   6.138  0.5163  0.3151 -1.2787
  587MOL0     C80878   1.771  10.675   6.263  0.1993 -0.3776 -0.5515
  587MOL0     C80879   1.802  10.822   6.313 -0.7568  1.8319  0.5533
  587MOL0     C80880   1.746  10.842   6.451 -0.3622 -0.2580 -1.0149
  587MOL0     C80881   1.763  10.994   6.495  0.4063  0.0082 -0.4364
  587MOL0     C80882   1.674  11.024   6.612  0.8005  1.0027 -0.6511
  587MOL0     C80883   1.692  11.158   6.643 -1.0314  0.6057 -0.6684
  587MOL0     C80884   1.595  11.197   6.751  0.4595 -0.3968  0.8765
  587MOL0     N80885   1.556  11.345   6.757  0.8156  0.7804 -0.2680
  587MOL0     C80886   1.641  11.448   6.752  0.0362 -0.5255 -1.1927
  587MOL0     C80887   1.563  11.555   6.782 -0.2155  0.2176  0.0333
  587MOL0     C80888   1.607  11.687   6.797 -0.3590  0.1369 -0.7524
  587MOL0     C80889   1.710  11.694   6.908 -0.2571  1.0634 -0.7115
  587MOL0     C80890   1.728  11.840   6.943 -0.1174 -0.6806  0.1104
  587MOL0     C80891   1.827  11.860   7.062  0.6044  0.5130  0.4871
  587MOL0     O80892   1.958  11.818   7.021 -0.2929 -0.5645 -0.3024
  587MOL0     C80893   2.030  11.764   7.123 -0.1311 -0.1834 -0.0779
  587MOL0     C80894   2.035  11.818   7.243  0.0697 -0.5573  0.5341
  587MOL0     C80895   2.078  11.749   7.352 -0.1707 -0.5262  0.7225
  587MOL0     C80896   2.032  11.820   7.477  0.2453  0.5261 -0.4230
  587MOL0     C80897   2.127  11.613   7.338  0.4359 -0.4054 -0.9298
  587MOL0     C80898   2.161  11.525   7.452 -0.1363 -0.9306 -0.2653
  587MOL0     O80899   2.204  11.594   7.566  0.4201  1.0264  0.2271
  587MOL0     C80900   2.202  11.531   7.688  0.1458 -0.0198 -0.2159
  587MOL0     C80901   2.249  11.403   7.727 -0.1015 -0.4301  0.7843
  587MOL0     C80902   2.259  11.367   7.858 -0.5597 -0.7073 -0.4623
  587MOL0     C80903   2.242  11.464   7.955 -0.6901  0.4530 -0.3793
  587MOL0     O80904   2.267  11.424   8.088  0.0951  0.3083 -0.2507
  587MOL0     C80905   2.181  11.462   8.200 -0.2551  0.2286  0.4510
  587MOL0     C80906   2.135  11.336   8.281 -0.3871  0.9185  0.3757
  587MOL0     C80907   2.072  11.384   8.409  0.2765 -0.7763  0.4184
  587MOL0     C80908   2.159  11.457   8.499  0.8341  0.6088  0.1869
  587MOL0     C80909   2.085  11.491   8.631  0.6590  0.2648 -0.7171
  587MOL0     C80910   2.166  11.604   8.703 -0.1134 -0.5628  0.7525
  587MOL0     C80911   2.093  11.637   8.832  0.6022  0.0365  0.1506
  587MOL0     C80912   2.144  11.732   8.934  0.2355  0.0826  0.1987
  587MOL0    Cl80913   2.191  11.874   8.825  0.3343  0.0980  0.0887
  587MOL0     C80914   2.179  11.582   7.927 -0.5100  0.2027  0.5846
  587MOL0     C80915   2.160  11.618   7.788  0.3424  0.4151 -0.4885
  587MOL0     O80916   2.133  11.409   7.454 -0.4770  0.9293  0.1386
  587MOL0     C80917   2.123  11.556   7.211 -1.0252  0.7203 -0.0473
  587MOL0     C80918   2.067  11.634   7.107  0.7353  1.6516  0.4668
  587MOL0     N80919   1.435  11.512   6.810 -0.6254  0.1608 -0.0904
  587MOL0     N80920   1.433  11.385   6.794 -0.5834  0.2185  0.7998
  587MOL0     C80921   1.974  10.563   5.890  1.2092 -0.0689 -0.7274
  587MOL0     C80922   2.016  10.537   5.763  0.0899 -0.1612 -0.5976
  587MOL0     C80923   2.045  10.453   5.332 -0.2310 -0.0275  0.6496
  587MOL0     C80924   2.130  10.559   5.290  0.2170  0.2125 -1.6021
  587MOL0     C80925   2.168  10.581   5.159 -0.0282  0.2138 -0.1928
  587MOL0     C80926   2.123  10.487   5.063  0.7339 -0.5392 -0.1989
  587MOL0     O80927   2.132  10.501   4.925 -0.2141  0.7190 -0.6038
  587MOL0     C80928   2.205  10.605   4.860  0.2774  0.4992 -0.1634
  587MOL0     C80929   2.106  10.703   4.796  0.0059  0.3844  0.6549
  587MOL0     C80930   2.044  10.792   4.894 -0.0427 -0.0493  0.9564
  587MOL0     C80931   2.125  10.914   4.931 -1.4249 -0.0250 -0.3420
  587MOL0     C80932   2.265  10.886   4.977  0.9998  0.3752 -0.3318
  587MOL0     C80933   2.378  10.885   5.020 -0.2502 -0.2058 -0.9549
  587MOL0     C80934   2.051  10.370   5.103  0.1104 -0.4502 -0.7471
  587MOL0     C80935   2.017  10.348   5.238  1.0120 -0.2577  0.5691
  587MOL0     C80936   1.939  10.224   5.275 -0.0612 -0.4141  0.4554
  587MOL0     H80937   1.834  10.756   5.581 -0.3623  1.9607  0.4540
  587MOL0     H80938   1.773  10.842   5.817 -1.3989 -1.9055  2.5190
  587MOL0     H80939   1.954  10.623   6.179 -0.2354  1.5713  0.8357
  587MOL0     H80940   1.815  10.525   6.117 -1.2611  0.3299  1.3272
  587MOL0     H80941   1.662  10.669   6.250 -0.2462  1.7766  1.6143
  587MOL0     H80942   1.788  10.598   6.339  3.2719 -0.0035 -0.7551
  587MOL0     H80943   1.911  10.828   6.325 -0.1169 -0.6517 -2.5194
  587MOL0     H80944   1.770  10.899   6.242  1.0519  3.4684  1.4313
  587MOL0     H80945   1.644  10.807   6.467 -0.9134  2.5353  3.3072
  587MOL0     H80946   1.803  10.784   6.524 -0.3783  2.4223  1.3084
  587MOL0     H80947   1.724  11.049   6.409 -2.2873  0.4521  0.9497
  587MOL0     H80948   1.869  11.018   6.509  0.8748 -0.8819 -2.1604
  587MOL0     H80949   1.570  11.009   6.582  1.0898  0.3112 -1.3542
  587MOL0     H80950   1.687  10.966   6.704  0.9244 -0.2142 -1.4182
  587MOL0     H80951   1.665  11.221   6.557 -0.5641  0.8235 -0.6561
  587MOL0     H80952   1.793  11.179   6.680 -1.0338 -1.2649  0.5018
  587MOL0     H80953   1.498  11.147   6.742  0.9509 -1.1037 -0.8680
  587MOL0     H80954   1.640  11.171   6.847  1.3957 -0.7842  0.3421
  587MOL0     H80955   1.745  11.426   6.732  0.0605  0.6689 -2.5620
  587MOL0     H80956   1.527  11.760   6.813 -1.0330 -0.8485  0.5251
  587MOL0     H80957   1.666  11.720   6.711 -0.7977  0.0532 -1.0874
  587MOL0     H80958   1.674  11.640   6.996 -1.5357 -1.1288 -2.4754
  587MOL0     H80959   1.803  11.646   6.879 -1.3446 -2.3042  0.8785
  587MOL0     H80960   1.777  11.897   6.863  0.9927 -1.3329  0.3060
  587MOL0     H80961   1.628  11.879   6.961 -1.0149  1.0290 -6.0578
  587MOL0     H80962   1.827  11.968   7.078 -0.3401  0.6151 -0.1088
  587MOL0     H80963   1.796  11.814   7.156 -1.2518  1.5087  0.3977
  587MOL0     H80964   1.980  11.912   7.243  0.5079 -0.2791 -0.7387
  587MOL0     H80965   1.929  11.856   7.475  0.8784  2.6938  1.3382
  587MOL0     H80966   2.107  11.899   7.496 -0.6096  0.8794  1.7700
  587MOL0     H80967   2.045  11.760   7.567  1.3027  1.2339 -0.0703
  587MOL0     H80968   2.287  11.336   7.650 -2.3801  0.7041 -1.4669
  587MOL0     H80969   2.311  11.278   7.892  1.7115  0.7569  0.1545
  587MOL0     H80970   2.226  11.540   8.263  2.2327 -0.3331 -0.4944
  587MOL0     H80971   2.087  11.496   8.156  0.0951  2.5737  1.3589
  587MOL0     H80972   2.078  11.264   8.222  0.6434  0.5664 -0.2258
  587MOL0     H80973   2.234  11.290   8.290  0.5110  2.0280 -2.4720
  587MOL0     H80974   2.042  11.290   8.457 -0.0164 -0.5458  0.6822
  587MOL0     H80975   1.983  11.439   8.379  1.7901  0.7889 -1.5147
  587MOL0     H80976   2.179  11.556   8.458 -0.1762  0.4879 -0.6564
  587MOL0     H80977   2.250  11.401   8.520  1.0912  2.3093  4.3851
  587MOL0     H80978   1.982  11.523   8.609  0.3191  1.3126  2.0359
  587MOL0     H80979   2.067  11.407   8.698 -0.1705  1.4743  0.6527
  587MOL0     H80980   2.174  11.693   8.640  1.3775 -0.7874  0.5681
  587MOL0     H80981   2.264  11.559   8.723 -0.6763 -1.5018  1.4816
  587MOL0     H80982   2.067  11.540   8.876 -1.0268 -2.0303 -4.6965
  587MOL0     H80983   1.993  11.674   8.806 -0.0711  0.5881  3.0984
  587MOL0     H80984   2.225  11.693   8.996  0.0627 -2.6122 -1.1316
  587MOL0     H80985   2.062  11.776   8.991  0.8976  0.7094  0.6839
  587MOL0     H80986   2.154  11.657   8.000  2.3658  3.6423 -1.6447
  587MOL0     H80987   2.099  11.707   7.779 -0.2583  0.0699  0.0644
  587MOL0     H80988   2.151  11.455   7.183  0.9313  1.9880 -3.3407
  587MOL0     H80989   2.063  11.593   7.006 -0.6063 -0.0323  1.1579
  587MOL0     H80990   2.020  10.515   5.975  0.1783  1.9138  1.0378
  587MOL0     H80991   2.093  10.462   5.750 -1.2198 -1.9992  1.4301
  587MOL0     H80992   2.161  10.614   5.379 -1.0047 -2.9652  0.9743
  587MOL0     H80993   2.227  10.667   5.128 -2.7175  1.5268 -2.0744
  587MOL0     H80994   2.279  10.651   4.926 -1.5096  0.5119  1.9745
  587MOL0     H80995   2.265  10.564   4.778  0.1026  0.9464 -0.5224
  587MOL0     H80996   2.018  10.645   4.767 -0.1469  1.2230 -0.6605
  587MOL0     H80997   2.150  10.757   4.711 -1.4190  3.5121  1.7227
  587MOL0     H80998   1.950  10.830   4.853 -1.0038 -0.9666  2.2429
  587MOL0     H80999   2.015  10.741   4.987 -2.4685  3.6184  2.4867
  587MOL0     H81000   2.075  10.977   5.004 -0.8476 -3.6271  3.5497
  587MOL0     H81001   2.141  10.976   4.843  1.6779 -1.7014 -1.1235
  587MOL0     H81002   2.473  10.902   5.066  0.1232  0.2489 -1.8521
  587MOL0     H81003   2.009  10.301   5.031  2.5649  0.6158 -3.3620
  587MOL0     H81004   1.862  10.260   5.345 -2.0889 -1.5567 -1.0664
  587MOL0     H81005   1.888  10.176   5.191 -1.2901  0.7969  0.4664
  587MOL0     H81006   2.005  10.143   5.309 -0.4228 -2.6373 -3.5377
  588MOL0     O81007   4.340   2.387   8.962  0.0478 -0.2857  0.3933
  588MOL0     C81008   4.435   2.409   9.036  0.7501  1.1483 -0.0182
  588MOL0     O81009   4.470   2.537   9.087 -0.1919  0.4867  0.1109
  588MOL0     C81010   4.417   2.655   9.043 -0.2413 -0.6411  0.1338
  588MOL0     C81011   4.431   2.766   9.122 -0.1908  0.0536 -0.3516
  588MOL0     C81012   4.376   2.883   9.078  0.8527 -0.0980  0.2294
  588MOL0     C81013   4.312   2.903   8.949  1.4160  0.0732  0.8750
  588MOL0     O81014   4.274   3.029   8.901  0.2337  0.0786 -0.8080
  588MOL0     C81015   4.300   3.153   8.973  0.3932  0.1590 -0.5610
  588MOL0     C81016   4.185   3.190   9.068  0.2107 -0.5802 -0.3171
  588MOL0     C81017   4.043   3.204   9.008  0.3822 -0.5261  0.2196
  588MOL0     C81018   4.014   3.334   8.934 -0.2430  1.0168 -0.6621
  588MOL0     C81019   3.891   3.327   8.850  1.0095  0.2835  0.5916
  588MOL0     C81020   3.757   3.308   8.924  0.4260 -0.3958 -0.4612
  588MOL0     C81021   3.734   3.392   9.047 -0.6114  0.4973 -0.3130
  588MOL0     C81022   3.609   3.345   9.137  0.4765  0.0412 -0.0648
  588MOL0     N81023   3.478   3.331   9.076 -0.1818 -0.6740  0.4417
  588MOL0     C81024   3.434   3.214   9.029  0.4687  0.4136 -0.6768
  588MOL0     C81025   3.309   3.226   8.992 -0.6792  1.2082  0.0077
  588MOL0     C81026   3.228   3.123   8.925 -0.1275 -0.9769 -0.0456
  588MOL0     C81027   3.086   3.172   8.935 -0.0789 -0.2783 -0.9380
  588MOL0     C81028   2.992   3.068   8.903  0.4975  0.1303  0.5715
  588MOL0     C81029   2.982   2.941   8.997  0.1592  0.6688  0.5302
  588MOL0     O81030   2.935   2.822   8.925 -0.0900 -0.1176 -0.0229
  588MOL0     C81031   2.799   2.821   8.892 -0.2571  0.2143  0.8130
  588MOL0     C81032   2.693   2.905   8.934 -0.2947 -0.5360  0.3608
  588MOL0     C81033   2.554   2.900   8.897 -0.5349 -0.0542  0.4740
  588MOL0     C81034   2.461   3.005   8.941  0.6785  0.6497  0.3192
  588MOL0     C81035   2.521   2.793   8.810 -1.0047  0.3714  0.6542
  588MOL0     C81036   2.384   2.774   8.755 -0.5222 -0.0952  0.2234
  588MOL0     O81037   2.356   2.642   8.709  0.1863  0.3771  0.3775
  588MOL0     C81038   2.252   2.630   8.628  0.1995 -0.3760 -0.5293
  588MOL0     C81039   2.150   2.539   8.673 -0.1971 -0.6204  0.6695
  588MOL0     C81040   2.062   2.486   8.584  0.4002 -0.5185 -0.2028
  588MOL0     C81041   2.046   2.544   8.451  0.2222 -0.0764 -0.5402
  588MOL0     O81042   1.935   2.502   8.373 -0.1970  0.6645 -0.6452
  588MOL0     C81043   1.930   2.524   8.229  0.5586 -0.2754 -0.3483
  588MOL0     C81044   1.787   2.533   8.194 -0.5322  0.2315 -0.0318
  588MOL0     C81045   1.777   2.619   8.060 -0.8532  0.1714  0.0672
  588MOL0     C81046   1.648   2.687   8.062  0.2941 -0.1140  0.2437
  588MOL0     C81047   1.597   2.733   7.926  0.9407 -0.1706 -0.4134
  588MOL0     C81048   1.707   2.808   7.852 -0.1878 -0.6539  0.1619
  588MOL0     C81049   1.656   2.874   7.723 -0.0030 -0.0745 -0.3414
  588MOL0     C81050   1.746   2.989   7.699  0.4302 -0.3563  0.0588
  588MOL0    Cl81051   1.911   2.936   7.697 -0.4174 -0.3069  0.1504
  588MOL0     C81052   2.139   2.645   8.414 -0.2097 -0.0706 -0.1566
  588MOL0     C81053   2.245   2.691   8.501 -0.3745  0.9992  0.8423
  588MOL0     O81054   2.336   2.875   8.719  0.2601  0.1682  0.3307
  588MOL0     C81055   2.625   2.703   8.774 -0.1861 -0.9230 -0.0301
  588MOL0     C81056   2.758   2.715   8.807  1.2829  1.1795  0.4817
  588MOL0     N81057   3.289   3.364   9.006 -0.2124  0.0911 -0.5150
  588MOL0     N81058   3.392   3.431   9.044  0.1293 -0.2128  0.1874
  588MOL0     C81059   4.301   2.788   8.869 -0.6491  0.1638  0.3369
  588MOL0     C81060   4.353   2.665   8.919  0.0224 -0.6092  0.5596
  588MOL0     C81061   4.520   2.294   9.075 -0.1901 -0.2913 -0.4290
  588MOL0     C81062   4.657   2.316   9.066 -0.3196 -0.1931  0.3034
  588MOL0     C81063   4.747   2.213   9.106 -0.9340 -0.3840  0.2735
  588MOL0     C81064   4.706   2.084   9.138  0.2936  0.6943 -0.4498
  588MOL0     O81065   4.788   1.975   9.164 -0.9318 -0.3185  0.0208
  588MOL0     C81066   4.925   1.995   9.201  0.1314  0.5323 -0.1082
  588MOL0     C81067   4.943   2.043   9.346 -0.4591 -0.0807  0.2910
  588MOL0     C81068   5.087   2.041   9.391 -0.4812  0.7710  0.0887
  588MOL0     C81069   5.180   2.123   9.302  0.4691 -0.1000 -0.4663
  588MOL0     C81070   5.141   2.262   9.309  1.0264 -0.6612 -0.5077
  588MOL0     C81071   5.105   2.377   9.319  0.1575  0.4366 -0.2270
  588MOL0     C81072   4.567   2.058   9.128 -0.0536  0.8667 -0.3988
  588MOL0     C81073   4.474   2.165   9.105 -0.3219 -0.7472 -0.5383
  588MOL0     C81074   4.325   2.134   9.121  0.6007 -0.6124 -0.1129
  588MOL0     H81075   4.481   2.749   9.218  1.7450 -3.5236 -1.8054
  588MOL0     H81076   4.406   2.969   9.137  4.4118 -0.2851 -1.0832
  588MOL0     H81077   4.295   3.229   8.895  0.3276  2.7166  1.7915
  588MOL0     H81078   4.396   3.145   9.023  0.6558  0.5485 -0.9984
  588MOL0     H81079   4.177   3.112   9.145  1.1671 -0.1117  0.2705
  588MOL0     H81080   4.203   3.279   9.128 -0.9846 -2.3242  2.8681
  588MOL0     H81081   4.025   3.127   8.932 -0.4884  0.6294 -0.7877
  588MOL0     H81082   3.961   3.189   9.078  0.2593 -3.2771 -0.4131
  588MOL0     H81083   4.012   3.416   9.008  2.2458 -0.6992  1.5173
  588MOL0     H81084   4.096   3.356   8.865 -1.4822 -2.5851 -3.6153
  588MOL0     H81085   3.902   3.248   8.775  1.9106  1.0702 -0.1259
  588MOL0     H81086   3.881   3.423   8.799  1.2514 -0.7772 -1.5835
  588MOL0     H81087   3.676   3.329   8.854  0.4115  2.6231  0.3363
  588MOL0     H81088   3.729   3.208   8.959  1.1011  0.4162  2.7414
  588MOL0     H81089   3.722   3.501   9.046 -0.4198  0.6690  3.2613
  588MOL0     H81090   3.819   3.390   9.116 -0.3557 -1.1739 -0.6358
  588MOL0     H81091   3.636   3.252   9.187  3.5610  1.2434  0.7611
  588MOL0     H81092   3.593   3.413   9.220  1.8647 -2.5231  2.4797
  588MOL0     H81093   3.487   3.119   9.030  0.6482  0.5164  0.1256
  588MOL0     H81094   3.244   3.028   8.979 -1.3495 -1.1749  0.0056
  588MOL0     H81095   3.249   3.111   8.819 -0.6959 -4.8314  0.1171
  588MOL0     H81096   3.072   3.188   9.042  2.1287 -1.6992 -0.3740
  588MOL0     H81097   3.082   3.257   8.866  1.0835  0.8493  0.3046
  588MOL0     H81098   2.890   3.109   8.902  0.3221 -0.2943 -0.3706
  588MOL0     H81099   3.002   3.035   8.799 -2.7830 -1.3075  0.5838
  588MOL0     H81100   3.083   2.924   9.034 -0.8587 -0.1087  3.1436
  588MOL0     H81101   2.927   2.949   9.091 -0.0442  2.2620  0.3088
  588MOL0     H81102   2.725   2.973   9.013 -0.8502  0.0975  0.0507
  588MOL0     H81103   2.481   3.104   8.901 -0.5934  1.3923  1.4017
  588MOL0     H81104   2.455   3.017   9.050 -0.3277  0.1605  0.3378
  588MOL0     H81105   2.357   2.985   8.912  1.1706 -1.1049 -0.3730
  588MOL0     H81106   2.149   2.507   8.776 -0.0259 -0.2306  0.7911
  588MOL0     H81107   1.986   2.421   8.626  1.0563 -0.9283  0.3832
  588MOL0     H81108   1.969   2.625   8.218  1.0031 -0.5606 -1.4973
  588MOL0     H81109   1.978   2.444   8.172  3.5362  1.5581 -0.6186
  588MOL0     H81110   1.736   2.436   8.191  0.8150 -0.4858 -0.4197
  588MOL0     H81111   1.735   2.593   8.269 -2.3223 -0.4816 -0.6323
  588MOL0     H81112   1.784   2.549   7.976 -0.0316 -0.2747  0.5031
  588MOL0     H81113   1.862   2.689   8.054  0.4419 -1.4011 -0.7377
  588MOL0     H81114   1.640   2.778   8.123 -5.3413  1.3044 -2.0169
  588MOL0     H81115   1.574   2.627   8.117 -0.0822 -1.3887 -1.5573
  588MOL0     H81116   1.563   2.646   7.868 -1.3519  0.7977 -0.6447
  588MOL0     H81117   1.512   2.801   7.940  1.1978  0.5046 -1.9278
  588MOL0     H81118   1.791   2.743   7.826  0.8009  0.8243 -0.4469
  588MOL0     H81119   1.748   2.884   7.919 -1.9929  2.6156 -2.1867
  588MOL0     H81120   1.558   2.920   7.727 -0.3589  0.0250 -4.8541
  588MOL0     H81121   1.658   2.813   7.632  3.6909  2.1352 -1.9762
  588MOL0     H81122   1.728   3.080   7.757 -1.8932 -0.1902 -0.8137
  588MOL0     H81123   1.718   3.018   7.598 -0.1167 -0.2063  0.2505
  588MOL0     H81124   2.122   2.696   8.320 -2.8880 -1.1287 -0.3323
  588MOL0     H81125   2.320   2.759   8.463  0.4115 -1.9328 -3.6186
  588MOL0     H81126   2.595   2.615   8.717 -0.4081  0.5923 -2.3865
  588MOL0     H81127   2.835   2.644   8.779  2.6254  1.6963  2.5770
  588MOL0     H81128   4.267   2.786   8.766 -0.3442 -0.8667  0.2402
  588MOL0     H81129   4.354   2.591   8.840 -2.2782  0.1882 -0.3034
  588MOL0     H81130   4.690   2.408   9.020 -2.6467 -1.3823 -4.4012
  588MOL0     H81131   4.853   2.236   9.106 -1.4785  2.5803  0.0189
  588MOL0     H81132   4.967   1.898   9.174 -4.0079 -0.5755 -3.8168
  588MOL0     H81133   4.968   2.072   9.137 -0.0044  2.4108  1.9331
  588MOL0     H81134   4.893   1.969   9.409  0.2010 -0.8127 -0.0391
  588MOL0     H81135   4.899   2.142   9.361 -2.5860 -0.7504 -1.1569
  588MOL0     H81136   5.090   2.087   9.490 -2.0980  1.7819 -0.2940
  588MOL0     H81137   5.114   1.936   9.407 -0.4440  1.2033  3.3528
  588MOL0     H81138   5.167   2.103   9.195 -0.4571  2.0750 -0.8322
  588MOL0     H81139   5.283   2.111   9.336  0.0213 -0.2486  0.8814
  588MOL0     H81140   5.049   2.468   9.321 -1.0733 -0.2981 -0.5443
  588MOL0     H81141   4.530   1.971   9.181 -1.2752  1.1296 -0.7933
  588MOL0     H81142   4.306   2.062   9.041 -3.2621 -0.3077  0.2988
  588MOL0     H81143   4.301   2.082   9.214 -1.7623  0.1638 -0.2112
  588MOL0     H81144   4.257   2.219   9.104 -0.8686 -1.9502 -1.2377
  589MOL0     O81145   2.158   5.095   7.990  1.0213 -0.2643  0.2948
  589MOL0     C81146   2.047   5.112   8.037  0.1992 -0.1338 -0.0193
  589MOL0     O81147   1.925   5.124   7.959 -0.0181 -0.3122  0.5347
  589MOL0     C81148   1.917   5.138   7.823  0.2203 -0.9205  0.0716
  589MOL0     C81149   2.017   5.103   7.725 -0.7786  0.4314  0.4054
  589MOL0     C81150   2.000   5.135   7.592  0.4363 -0.3169  0.3539
  589MOL0     C81151   1.876   5.179   7.550  0.1511 -0.7973  0.6591
  589MOL0     O81152   1.843   5.210   7.427 -0.4684 -0.0290 -0.0289
  589MOL0     C81153   1.937   5.280   7.349 -0.7687 -0.9097  0.1781
  589MOL0     C81154   1.904   5.287   7.194  0.5021 -0.4144 -0.7519
  589MOL0     C81155   1.932   5.145   7.126  0.5970 -0.8314  0.5802
  589MOL0     C81156   1.911   5.139   6.980  1.0005  0.0247 -0.6526
  589MOL0     C81157   1.950   5.003   6.927  0.2028 -0.3588 -0.3154
  589MOL0     C81158   1.981   4.993   6.779  0.3834 -0.1725  0.7692
  589MOL0     C81159   1.862   5.006   6.691 -0.2367  0.1470 -0.1272
  589MOL0     C81160   1.912   4.976   6.549 -0.0977 -0.2243  0.3711
  589MOL0     N81161   1.947   4.832   6.536 -0.0262  0.7939 -0.6706
  589MOL0     C81162   1.867   4.727   6.499 -0.5630 -0.6036  0.0970
  589MOL0     C81163   1.940   4.616   6.502  0.4292 -0.1071  0.3068
  589MOL0     C81164   1.897   4.475   6.497 -0.0234  0.6952  0.1573
  589MOL0     C81165   2.013   4.386   6.428  0.1278 -0.0539  0.1955
  589MOL0     C81166   2.071   4.435   6.293 -0.9249  0.6881 -0.2158
  589MOL0     C81167   2.197   4.350   6.240 -0.0369  0.9475  1.1924
  589MOL0     O81168   2.174   4.204   6.227  0.4434 -1.1363  0.0538
  589MOL0     C81169   2.284   4.127   6.211  0.6316 -1.3612 -1.0212
  589MOL0     C81170   2.256   3.993   6.203 -0.6836  0.2309  0.4726
  589MOL0     C81171   2.356   3.898   6.186 -0.5008 -0.0057  0.8533
  589MOL0     C81172   2.320   3.755   6.164  0.0247  0.4299 -1.2886
  589MOL0     C81173   2.496   3.946   6.197  0.1434 -0.2101  0.1931
  589MOL0     C81174   2.618   3.864   6.181 -0.8635  0.5672 -0.0385
  589MOL0     O81175   2.738   3.927   6.190  0.6465 -0.0945  0.3454
  589MOL0     C81176   2.858   3.869   6.206 -0.5174  0.2440  1.0994
  589MOL0     C81177   2.874   3.742   6.259  0.1978 -0.2409 -0.9881
  589MOL0     C81178   3.003   3.683   6.267 -0.2776 -0.3932  0.3491
  589MOL0     C81179   3.112   3.766   6.263  0.0046 -0.1463  0.2283
  589MOL0     O81180   3.236   3.706   6.292 -0.2744 -0.1105 -0.3687
  589MOL0     C81181   3.269   3.719   6.433 -0.5838  0.1278  0.0095
  589MOL0     C81182   3.415   3.665   6.469  0.3768 -0.2704  0.3056
  589MOL0     C81183   3.411   3.519   6.467  0.8237  0.0194 -0.1627
  589MOL0     C81184   3.542   3.441   6.469  0.4728 -0.5012  0.3732
  589MOL0     C81185   3.658   3.533   6.512  0.7085  0.0691 -0.2298
  589MOL0     C81186   3.796   3.469   6.533 -0.0903  0.1640  0.6121
  589MOL0     C81187   3.873   3.586   6.599  0.2178  0.4570 -0.2313
  589MOL0     C81188   4.024   3.548   6.624  0.9779 -0.5521 -0.1649
  589MOL0    Cl81189   4.100   3.646   6.751  0.0885  0.2258  0.2887
  589MOL0     C81190   3.101   3.896   6.222  0.1474  0.0641  0.4046
  589MOL0     C81191   2.972   3.944   6.183 -0.1622  0.4804 -0.4408
  589MOL0     O81192   2.608   3.748   6.131 -0.4492  0.2588  0.0309
  589MOL0     C81193   2.517   4.079   6.203  0.5471 -0.7094 -1.0886
  589MOL0     C81194   2.415   4.171   6.214 -0.0317 -0.3806 -0.9580
  589MOL0     N81195   2.068   4.655   6.529  0.2200  0.1899 -0.3130
  589MOL0     N81196   2.070   4.778   6.549  0.0620  0.0707  0.9671
  589MOL0     C81197   1.777   5.217   7.642  1.2024 -0.4245 -0.7005
  589MOL0     C81198   1.801   5.199   7.781 -0.1422  0.0158  0.6556
  589MOL0     C81199   2.030   5.173   8.176  0.7073 -0.4040  0.0996
  589MOL0     C81200   1.905   5.236   8.210 -0.3507 -0.5860 -0.0698
  589MOL0     C81201   1.889   5.316   8.330  0.4208  0.3553  0.0599
  589MOL0     C81202   1.986   5.317   8.427  0.5415 -0.3378 -0.0917
  589MOL0     O81203   1.959   5.400   8.537 -0.1536 -0.0629 -0.4524
  589MOL0     C81204   2.065   5.458   8.611 -0.0841 -0.6717  0.1607
  589MOL0     C81205   2.044   5.444   8.762 -0.1053  0.3114 -0.1545
  589MOL0     C81206   2.108   5.311   8.826 -0.0845  0.8117  1.1375
  589MOL0     C81207   2.072   5.299   8.977  0.1650 -0.3953  0.9977
  589MOL0     C81208   2.106   5.157   9.017 -0.3481 -0.2740 -0.8388
  589MOL0     C81209   2.139   5.043   9.049 -0.2366  0.3400  0.2838
  589MOL0     C81210   2.108   5.244   8.404  0.0158 -0.9681 -0.4958
  589MOL0     C81211   2.129   5.179   8.276 -0.3685  0.2552  0.1599
  589MOL0     C81212   2.262   5.103   8.264  0.5012  0.3748 -0.3828
  589MOL0     H81213   2.115   5.064   7.752  0.1031  1.7152 -0.8031
  589MOL0     H81214   2.082   5.109   7.526  0.5796 -2.1926  1.1982
  589MOL0     H81215   2.034   5.233   7.367  0.4430  1.1067 -0.7772
  589MOL0     H81216   1.958   5.380   7.387  0.4806 -1.4096  0.8864
  589MOL0     H81217   1.797   5.308   7.183  0.4103  0.2825  1.0109
  589MOL0     H81218   1.959   5.364   7.139  1.7300 -2.1471 -2.0350
  589MOL0     H81219   2.032   5.113   7.155  0.0364 -0.4928  3.1895
  589MOL0     H81220   1.865   5.076   7.179  1.0993 -1.5001  0.3680
  589MOL0     H81221   1.804   5.151   6.958  0.3563 -2.0242  1.0495
  589MOL0     H81222   1.969   5.221   6.937  1.6954 -0.0789  0.0702
  589MOL0     H81223   1.868   4.936   6.955  0.2232  0.8249  3.1422
  589MOL0     H81224   2.041   4.973   6.980 -0.0500  0.0621  0.3721
  589MOL0     H81225   2.055   5.070   6.753 -1.2824  1.8842  1.8776
  589MOL0     H81226   2.036   4.899   6.766  1.2991  0.1209  2.3041
  589MOL0     H81227   1.812   5.103   6.699  0.3505  0.3963  0.7909
  589MOL0     H81228   1.796   4.926   6.727  0.9010  0.0567  1.9353
  589MOL0     H81229   1.850   5.006   6.464  2.7653  0.9128 -1.4677
  589MOL0     H81230   2.002   5.038   6.538 -0.6500  0.2428 -2.1176
  589MOL0     H81231   1.760   4.734   6.485 -0.5527  2.7819  0.8961
  589MOL0     H81232   1.807   4.472   6.435 -0.2999  0.7861  0.5459
  589MOL0     H81233   1.873   4.441   6.598 -1.9161  1.3517 -0.0289
  589MOL0     H81234   2.095   4.371   6.499  1.9813  0.5264 -1.7078
  589MOL0     H81235   1.976   4.285   6.411 -0.8790  0.5467 -1.4990
  589MOL0     H81236   1.991   4.426   6.219 -1.6946 -2.8278  0.8769
  589MOL0     H81237   2.097   4.541   6.307  0.3972  0.2171  1.2579
  589MOL0     H81238   2.221   4.382   6.138 -2.9010 -2.0116 -0.6049
  589MOL0     H81239   2.279   4.375   6.309  0.7916  2.5205 -0.2834
  589MOL0     H81240   2.152   3.966   6.192 -0.3586 -0.7510 -0.3026
  589MOL0     H81241   2.348   3.693   6.250  1.0778  0.5244 -1.5502
  589MOL0     H81242   2.370   3.728   6.070 -1.9137  3.9377 -3.5117
  589MOL0     H81243   2.212   3.742   6.154 -0.9833  1.7062  4.5882
  589MOL0     H81244   2.796   3.674   6.291  1.4149 -1.8577 -1.3060
  589MOL0     H81245   3.016   3.578   6.292 -0.0273 -0.2579  0.7934
  589MOL0     H81246   3.277   3.827   6.446 -0.7408  0.3144 -1.3039
  589MOL0     H81247   3.201   3.668   6.502  0.3359 -0.4320  0.5309
  589MOL0     H81248   3.482   3.707   6.394  1.8982 -2.4391  0.3756
  589MOL0     H81249   3.445   3.700   6.568  0.3343  0.7972 -0.0497
  589MOL0     H81250   3.349   3.476   6.387  0.2036 -2.8359  1.7111
  589MOL0     H81251   3.359   3.508   6.563 -0.7383  0.4130 -0.9270
  589MOL0     H81252   3.559   3.416   6.364  0.2845  0.7341  0.0356
  589MOL0     H81253   3.533   3.352   6.533 -2.5808  0.3808  1.3437
  589MOL0     H81254   3.657   3.622   6.448 -0.4056 -0.7220 -1.3789
  589MOL0     H81255   3.619   3.571   6.607 -1.4985  0.5433 -1.2585
  589MOL0     H81256   3.835   3.438   6.436  2.3409  2.6863  0.6590
  589MOL0     H81257   3.792   3.381   6.597  2.7097  0.3602  1.1790
  589MOL0     H81258   3.824   3.613   6.692  1.1766 -0.8548  0.6878
  589MOL0     H81259   3.880   3.678   6.540  4.0136  1.3640  1.3095
  589MOL0     H81260   4.076   3.566   6.529 -1.3438  2.9336 -0.9644
  589MOL0     H81261   4.028   3.444   6.660  0.9604 -0.4356  0.1734
  589MOL0     H81262   3.196   3.945   6.204  1.3239 -2.1756  0.0793
  589MOL0     H81263   2.962   4.047   6.148  1.0777 -0.8146 -5.4327
  589MOL0     H81264   2.616   4.123   6.211 -1.6842  4.7566  1.8868
  589MOL0     H81265   2.452   4.272   6.222 -0.4988 -0.1787 -1.3022
  589MOL0     H81266   1.684   5.265   7.611  0.7831  0.3986  1.6481
  589MOL0     H81267   1.728   5.241   7.849 -2.8336  3.0673 -3.5965
  589MOL0     H81268   1.823   5.241   8.139 -0.2516  0.8772 -0.1190
  589MOL0     H81269   1.790   5.360   8.339 -0.3865 -1.5393  0.8343
  589MOL0     H81270   2.164   5.420   8.584 -0.1197 -1.1477  0.6852
  589MOL0     H81271   2.053   5.565   8.593  2.4933  0.2650  3.1809
  589MOL0     H81272   1.939   5.455   8.794 -0.5103  0.2402 -1.4139
  589MOL0     H81273   2.098   5.527   8.809  0.5857  0.0083 -0.4109
  589MOL0     H81274   2.068   5.228   8.767  1.4407  0.1266  1.0062
  589MOL0     H81275   2.217   5.316   8.819 -0.0682 -1.1699 -2.8769
  589MOL0     H81276   1.964   5.315   8.988  0.3391  0.2975  1.7838
  589MOL0     H81277   2.124   5.376   9.034  0.9401  0.5162 -0.8543
  589MOL0     H81278   2.148   4.938   9.072 -0.3514  0.2763  0.0467
  589MOL0     H81279   2.195   5.254   8.467 -0.3047  0.9767 -0.3048
  589MOL0     H81280   2.336   5.143   8.194 -2.3309 -0.1135 -3.9476
  589MOL0     H81281   2.311   5.105   8.362  3.4855  1.5322 -1.7737
  589MOL0     H81282   2.244   5.001   8.229  3.1675 -0.8200  1.4311
  590MOL0     O81283   2.052   1.465   4.233  0.1338  0.5071 -1.3839
  590MOL0     C81284   1.956   1.480   4.155  0.4405  0.1368 -0.9461
  590MOL0     O81285   1.823   1.514   4.179  0.5829 -0.2013 -0.7213
  590MOL0     C81286   1.790   1.531   4.316  0.0195 -0.1906  0.6108
  590MOL0     C81287   1.811   1.426   4.406 -0.1832 -0.1642  0.4858
  590MOL0     C81288   1.783   1.448   4.541  0.3600  0.1640  0.3569
  590MOL0     C81289   1.735   1.575   4.585  0.6070  0.2962  0.3797
  590MOL0     O81290   1.700   1.578   4.719 -0.3167  0.2748  0.4177
  590MOL0     C81291   1.735   1.694   4.805 -0.7847 -0.7715  0.8091
  590MOL0     C81292   1.703   1.665   4.948 -0.0886  0.2535 -0.0720
  590MOL0     C81293   1.721   1.791   5.046  0.2681  0.8186  0.6702
  590MOL0     C81294   1.863   1.832   5.069  0.0216 -0.5362  0.5740
  590MOL0     C81295   1.874   1.922   5.200  0.4938  0.5998  0.6844
  590MOL0     C81296   1.875   1.826   5.320 -0.3980 -1.3994 -0.3751
  590MOL0     C81297   1.838   1.910   5.435 -0.6591 -0.8428  0.2221
  590MOL0     C81298   1.690   1.903   5.480  0.2855  0.3343  0.5980
  590MOL0     N81299   1.639   1.968   5.593 -0.4775 -0.0174  0.6018
  590MOL0     C81300   1.524   1.929   5.651 -0.6985 -0.7079 -0.2463
  590MOL0     C81301   1.491   2.036   5.725  0.4134  0.5843  0.7226
  590MOL0     C81302   1.362   2.055   5.806  0.1192 -0.2736  1.3212
  590MOL0     C81303   1.378   2.071   5.965  0.1972  0.1575 -0.1111
  590MOL0     C81304   1.246   2.116   6.030 -0.7776  0.3705  0.9287
  590MOL0     C81305   1.268   2.115   6.180 -0.3054  0.7733  0.1850
  590MOL0     O81306   1.284   1.984   6.223  0.4606 -0.1968  0.1818
  590MOL0     C81307   1.167   1.908   6.222 -0.0478 -0.4343 -0.9407
  590MOL0     C81308   1.049   1.953   6.272  0.4957  0.5720 -0.7530
  590MOL0     C81309   0.938   1.868   6.291 -0.5305  0.3735 -0.4404
  590MOL0     C81310   0.812   1.925   6.346 -0.1345  0.2485  0.5726
  590MOL0     C81311   0.954   1.734   6.259  0.1997  0.0608 -0.0741
  590MOL0     C81312   0.849   1.638   6.286 -0.2558 -0.5798 -0.4169
  590MOL0     O81313   0.801   1.631   6.417  0.0258 -0.0093 -0.0283
  590MOL0     C81314   0.709   1.538   6.454  0.6686  0.7766 -1.0730
  590MOL0     C81315   0.726   1.487   6.583  0.3170 -0.6103 -0.7048
  590MOL0     C81316   0.639   1.395   6.644 -0.2830  0.4260 -0.8573
  590MOL0     C81317   0.530   1.354   6.572 -0.3520 -0.8234  0.2126
  590MOL0     O81318   0.436   1.272   6.609  0.5703 -0.1689  0.3087
  590MOL0     C81319   0.384   1.253   6.745 -0.0539 -0.5452  0.1581
  590MOL0     C81320   0.336   1.386   6.808 -0.4454 -0.5650  0.1731
  590MOL0     C81321   0.222   1.458   6.728 -0.4190 -0.2999 -0.3211
  590MOL0     C81322   0.129   1.531   6.828  0.2018 -0.8183  0.1195
  590MOL0     C81323   0.168   1.668   6.866 -0.5050  0.1081 -0.3694
  590MOL0     C81324   0.304   1.666   6.933 -0.5476  0.5760  0.0723
  590MOL0     C81325   0.341   1.799   7.002  0.3792  0.4280  0.6904
  590MOL0     C81326   0.486   1.809   7.035  0.2239  0.1890  0.0988
  590MOL0    Cl81327   0.536   1.950   7.113 -0.1786 -0.0129 -0.1666
  590MOL0     C81328   0.508   1.399   6.443  0.2418  0.4755  0.2093
  590MOL0     C81329   0.595   1.483   6.380 -0.6234  0.5478 -0.5525
  590MOL0     O81330   0.830   1.559   6.204  0.4698  0.2115  0.0500
  590MOL0     C81331   1.083   1.694   6.222 -0.0535  0.8204 -0.7154
  590MOL0     C81332   1.191   1.774   6.204 -0.6577  0.0235  0.3648
  590MOL0     N81333   1.605   2.116   5.732  0.1060 -0.4966  0.4165
  590MOL0     N81334   1.696   2.075   5.646  0.8500 -0.6326 -0.5975
  590MOL0     C81335   1.719   1.685   4.497 -1.0417  0.8263 -0.1532
  590MOL0     C81336   1.749   1.663   4.363  0.1959 -0.3147 -0.1153
  590MOL0     C81337   1.998   1.482   4.019  0.2859  0.2035  0.2238
  590MOL0     C81338   2.081   1.378   3.967  0.3864 -0.9057  1.4747
  590MOL0     C81339   2.134   1.383   3.840 -0.4207 -0.3796  0.4519
  590MOL0     C81340   2.102   1.489   3.756 -0.3079 -0.2735  0.5336
  590MOL0     O81341   2.173   1.497   3.637  0.2990 -0.1717 -1.3046
  590MOL0     C81342   2.176   1.385   3.549 -0.3063 -0.7042  0.1611
  590MOL0     C81343   2.154   1.431   3.402 -0.2974  0.1589  0.5232
  590MOL0     C81344   2.156   1.306   3.313  1.8087 -0.5994  0.6081
  590MOL0     C81345   2.296   1.262   3.269  0.2563 -0.2092 -0.5883
  590MOL0     C81346   2.283   1.131   3.209  0.0138 -0.3881 -0.1175
  590MOL0     C81347   2.284   1.024   3.161  0.2076  0.5185  0.1285
  590MOL0     C81348   2.022   1.594   3.802  0.1076 -0.0553 -0.6121
  590MOL0     C81349   1.970   1.591   3.933 -0.3449  0.5991 -0.0502
  590MOL0     C81350   1.894   1.715   3.978  0.7831 -0.3114  0.9436
  590MOL0     H81351   1.842   1.336   4.354  0.5509 -0.4998  1.4791
  590MOL0     H81352   1.801   1.357   4.597  0.5428  0.0794  0.1639
  590MOL0     H81353   1.692   1.788   4.771  4.1935  1.0762 -1.2938
  590MOL0     H81354   1.842   1.711   4.794 -0.9267 -1.5662 -3.6377
  590MOL0     H81355   1.597   1.639   4.951  0.1787 -0.7706  0.8386
  590MOL0     H81356   1.763   1.577   4.971  1.2931  0.9175 -1.0136
  590MOL0     H81357   1.652   1.873   5.024 -2.5881 -0.8901  2.5927
  590MOL0     H81358   1.685   1.762   5.145  1.3036 -0.0413  0.8152
  590MOL0     H81359   1.932   1.749   5.086 -1.3525 -1.2306  3.3446
  590MOL0     H81360   1.909   1.895   4.992 -1.8599  0.4564  0.1953
  590MOL0     H81361   1.787   1.989   5.197  1.0217  1.3244  1.1981
  590MOL0     H81362   1.968   1.978   5.195 -0.1209  1.7379  1.2992
  590MOL0     H81363   1.803   1.743   5.313 -1.6160 -0.3762 -0.3248
  590MOL0     H81364   1.974   1.781   5.323  0.7642  1.0771  0.5771
  590MOL0     H81365   1.877   2.011   5.418 -0.3680 -1.5471 -4.5427
  590MOL0     H81366   1.902   1.881   5.519 -1.4643  2.2757  2.1015
  590MOL0     H81367   1.624   1.931   5.398  1.4753 -2.2743 -1.3861
  590MOL0     H81368   1.668   1.796   5.488 -1.2159  0.2820 -2.6845
  590MOL0     H81369   1.462   1.843   5.628 -1.2574 -0.9894  2.0786
  590MOL0     H81370   1.301   1.966   5.791 -3.7007  2.4583 -1.4271
  590MOL0     H81371   1.298   2.136   5.769  0.7957 -0.0885  0.5024
  590MOL0     H81372   1.426   1.983   6.009  1.5236  0.0698 -1.6398
  590MOL0     H81373   1.444   2.155   5.986 -2.5884  2.2423  0.8716
  590MOL0     H81374   1.213   2.219   6.011 -1.2549  0.5910  2.7173
  590MOL0     H81375   1.157   2.063   5.996  0.0892  0.4211 -1.5661
  590MOL0     H81376   1.354   2.173   6.214 -0.5520  0.5394  1.2266
  590MOL0     H81377   1.179   2.166   6.218 -1.4251 -1.3269  0.5508
  590MOL0     H81378   1.024   2.058   6.285 -2.4373 -0.3138  1.9545
  590MOL0     H81379   0.727   1.867   6.309  0.0941 -0.5755  1.2851
  590MOL0     H81380   0.792   2.031   6.331  0.3759  0.1963 -0.5878
  590MOL0     H81381   0.818   1.930   6.455  1.9530 -2.4003  0.6835
  590MOL0     H81382   0.803   1.523   6.650 -0.8667 -2.0468  1.5381
  590MOL0     H81383   0.668   1.352   6.740  2.3594  1.9801 -0.8499
  590MOL0     H81384   0.305   1.178   6.741  2.1586 -2.9461 -2.2404
  590MOL0     H81385   0.468   1.207   6.799 -0.4671 -2.9299 -1.1343
  590MOL0     H81386   0.308   1.370   6.913  2.2861  5.0745  2.1866
  590MOL0     H81387   0.424   1.451   6.818  0.8393 -1.9886 -1.2450
  590MOL0     H81388   0.169   1.383   6.670 -1.6715 -2.3086  3.1078
  590MOL0     H81389   0.271   1.529   6.661  2.9828  1.1731  3.2647
  590MOL0     H81390   0.105   1.455   6.903 -1.2458 -3.0294 -2.3778
  590MOL0     H81391   0.040   1.546   6.766  1.9313  1.2984 -1.9887
  590MOL0     H81392   0.176   1.743   6.787  2.5332  1.0051  0.6668
  590MOL0     H81393   0.097   1.706   6.941 -2.4990 -2.3634 -0.8566
  590MOL0     H81394   0.380   1.648   6.857 -0.9418 -1.3184  0.0791
  590MOL0     H81395   0.297   1.590   7.010  2.9339 -1.6219 -1.5568
  590MOL0     H81396   0.280   1.815   7.091 -1.5906 -1.1061 -0.3108
  590MOL0     H81397   0.315   1.886   6.940  2.9700  0.9805  0.2476
  590MOL0     H81398   0.551   1.794   6.948 -0.8962  1.9516 -1.1186
  590MOL0     H81399   0.509   1.741   7.117 -0.3867  2.0358  1.8754
  590MOL0     H81400   0.423   1.357   6.392 -2.2848  4.5472  0.5903
  590MOL0     H81401   0.579   1.515   6.278 -1.6152 -0.7594 -0.8306
  590MOL0     H81402   1.089   1.586   6.208 -1.3302  0.1591  2.7252
  590MOL0     H81403   1.287   1.727   6.186 -0.2284  1.0349 -0.0386
  590MOL0     H81404   1.696   1.786   4.530  2.5191  1.4043  0.9997
  590MOL0     H81405   1.743   1.744   4.291 -0.7984 -1.2820 -1.1905
  590MOL0     H81406   2.123   1.299   4.029  0.5337 -1.8354  0.2159
  590MOL0     H81407   2.209   1.312   3.806 -1.9175 -1.0847 -1.6064
  590MOL0     H81408   2.277   1.342   3.557 -0.9321 -2.0329  1.6993
  590MOL0     H81409   2.102   1.314   3.588 -2.4185  1.0550 -0.4505
  590MOL0     H81410   2.224   1.506   3.366 -0.0778 -0.0115  0.5960
  590MOL0     H81411   2.053   1.469   3.383  0.7894  3.3718  0.4898
  590MOL0     H81412   2.116   1.218   3.363  1.6695 -0.7232  0.2805
  590MOL0     H81413   2.094   1.324   3.224  2.4873 -1.1817  0.0067
  590MOL0     H81414   2.367   1.259   3.352  0.0881  2.0562 -0.2739
  590MOL0     H81415   2.344   1.327   3.195  2.7896  1.5446  2.3113
  590MOL0     H81416   2.293   0.925   3.120  5.8812  0.8685 -0.3970
  590MOL0     H81417   2.011   1.669   3.725  4.1521  1.5428  0.1171
  590MOL0     H81418   1.929   1.727   4.081 -1.9973  4.0757  1.6374
  590MOL0     H81419   1.918   1.803   3.918  0.2066  0.8192  2.3064
  590MOL0     H81420   1.789   1.685   3.977  0.8926 -0.7211 -0.7793
  591MOL0     O81421   7.956   5.478   3.590  0.2043  0.0905 -0.4932
  591MOL0     C81422   8.014   5.426   3.502  0.5143  0.1304 -0.7774
  591MOL0     O81423   8.121   5.346   3.524  0.6820 -0.3640 -0.2444
  591MOL0     C81424   8.179   5.339   3.650 -0.5004 -0.4646 -0.1887
  591MOL0     C81425   8.208   5.458   3.724  0.6283  0.3905 -0.6496
  591MOL0     C81426   8.258   5.444   3.852 -0.7890  0.0172 -0.1318
  591MOL0     C81427   8.291   5.318   3.907 -0.0702 -0.7717 -0.2040
  591MOL0     O81428   8.353   5.297   4.024 -0.3330  0.6464  0.0304
  591MOL0     C81429   8.346   5.403   4.122  0.2515 -1.2840  0.0212
  591MOL0     C81430   8.417   5.373   4.251  0.1359 -0.2494 -0.3659
  591MOL0     C81431   8.434   5.495   4.344 -0.3960 -0.4414  0.3175
  591MOL0     C81432   8.587   5.540   4.359 -0.2602 -0.7088  0.2029
  591MOL0     C81433   8.625   5.650   4.455 -0.4274 -0.7742  0.2348
  591MOL0     C81434   8.750   5.734   4.409  0.1478  0.2309 -0.8168
  591MOL0     C81435   8.785   5.846   4.511  0.0889 -0.7992  0.1680
  591MOL0     C81436   8.886   5.805   4.613 -0.2373  0.0939 -0.4200
  591MOL0     N81437   8.908   5.904   4.716  0.0095 -0.2891 -0.1148
  591MOL0     C81438   8.849   5.896   4.838  0.6120 -0.8759 -0.6096
  591MOL0     C81439   8.899   5.999   4.900 -0.6395  0.1772 -0.9477
  591MOL0     C81440   8.858   6.044   5.035  0.0557  0.5733  0.0350
  591MOL0     C81441   8.752   6.155   5.022 -0.2131  0.6968  0.3452
  591MOL0     C81442   8.741   6.219   5.162 -0.4908  0.0425  0.3250
  591MOL0     C81443   8.680   6.140   5.272  0.6204  0.2954 -0.2289
  591MOL0     O81444   8.543   6.102   5.252 -0.4399  0.5310  0.0194
  591MOL0     C81445   8.476   6.015   5.339 -0.0927 -1.2599  0.1395
  591MOL0     C81446   8.497   6.024   5.473 -0.1275  0.2922  0.0612
  591MOL0     C81447   8.420   5.957   5.561 -0.4506  0.3903  0.1831
  591MOL0     C81448   8.452   5.981   5.706  0.2634  0.1305 -0.3811
  591MOL0     C81449   8.310   5.875   5.512  0.6599  0.3993 -0.3137
  591MOL0     C81450   8.203   5.800   5.596 -0.1933 -1.4464 -0.1482
  591MOL0     O81451   8.127   5.703   5.545  0.3674 -0.6998  0.0088
  591MOL0     C81452   7.991   5.709   5.566 -0.4335 -0.3022 -0.0195
  591MOL0     C81453   7.944   5.672   5.696 -0.4037  0.1902  0.4107
  591MOL0     C81454   7.811   5.677   5.718  0.8311  0.0100  0.1041
  591MOL0     C81455   7.717   5.727   5.628  0.9854 -1.0523 -0.4033
  591MOL0     O81456   7.582   5.714   5.643  0.1247  0.0320  0.4173
  591MOL0     C81457   7.518   5.719   5.764  0.0031  0.8700 -0.4441
  591MOL0     C81458   7.523   5.856   5.826  0.5062 -0.4271 -0.0683
  591MOL0     C81459   7.406   5.877   5.930 -0.1168  0.8636 -0.2916
  591MOL0     C81460   7.448   5.972   6.041  0.0188  0.7610 -0.8242
  591MOL0     C81461   7.375   6.114   6.036 -0.9409  0.4349 -0.5096
  591MOL0     C81462   7.367   6.173   5.897  1.3982 -0.2287 -0.0849
  591MOL0     C81463   7.326   6.322   5.898  0.0515  0.4475 -0.1174
  591MOL0     C81464   7.180   6.347   5.870 -0.4610  0.1183 -0.4933
  591MOL0    Cl81465   7.072   6.229   5.954  0.1673 -0.0569 -0.0507
  591MOL0     C81466   7.758   5.767   5.504 -0.8522 -0.0326 -0.0578
  591MOL0     C81467   7.902   5.756   5.471  0.1033 -1.1522  0.1606
  591MOL0     O81468   8.193   5.845   5.707  0.0866  0.8186 -0.4345
  591MOL0     C81469   8.294   5.871   5.367  0.3956 -0.8806 -0.3205
  591MOL0     C81470   8.377   5.940   5.288 -0.5223  0.2376 -0.5064
  591MOL0     N81471   9.001   6.061   4.831  0.0537  0.0171 -0.1739
  591MOL0     N81472   8.995   6.014   4.711 -0.4173  0.2139 -0.1873
  591MOL0     C81473   8.292   5.204   3.822  0.1058 -0.3510 -0.3332
  591MOL0     C81474   8.232   5.217   3.697 -0.1307 -0.4568  0.4870
  591MOL0     C81475   7.996   5.460   3.358 -0.1038  0.1335 -0.3141
  591MOL0     C81476   8.023   5.363   3.256  0.3119 -0.1544 -0.7441
  591MOL0     C81477   8.002   5.396   3.124 -0.0763 -0.2535 -0.2598
  591MOL0     C81478   7.951   5.522   3.091 -0.2679 -0.3165  0.4098
  591MOL0     O81479   7.918   5.537   2.959  0.1334  0.0455 -0.0443
  591MOL0     C81480   7.898   5.677   2.914  0.1026 -1.3395  0.3870
  591MOL0     C81481   7.949   5.687   2.766 -0.4752 -0.6306  0.2168
  591MOL0     C81482   7.906   5.573   2.679 -0.4432  0.8720  0.3175
  591MOL0     C81483   7.956   5.588   2.529  0.5468  0.0598  0.4558
  591MOL0     C81484   7.921   5.719   2.468  0.3667 -0.6242 -0.5851
  591MOL0     C81485   7.905   5.834   2.449  0.2654  0.7112 -0.2654
  591MOL0     C81486   7.922   5.620   3.188 -0.1842 -0.4029 -0.3726
  591MOL0     C81487   7.948   5.586   3.320 -0.5915  0.3891 -0.7063
  591MOL0     C81488   7.917   5.701   3.413  0.6903 -0.2735  0.1470
  591MOL0     H81489   8.199   5.554   3.673  1.9278  1.6444  1.3397
  591MOL0     H81490   8.274   5.541   3.899  0.1990  0.5706 -1.5354
  591MOL0     H81491   8.241   5.427   4.142 -0.5726 -4.5144  0.1789
  591MOL0     H81492   8.403   5.485   4.077 -0.0357 -2.9027 -3.6477
  591MOL0     H81493   8.341   5.311   4.299  0.5069 -0.6607 -0.3078
  591MOL0     H81494   8.509   5.313   4.244  0.7062  0.5735 -0.0852
  591MOL0     H81495   8.378   5.581   4.304  0.1649 -0.5705 -0.7800
  591MOL0     H81496   8.404   5.484   4.448 -1.3598  2.6062  0.4890
  591MOL0     H81497   8.644   5.450   4.384  0.8030 -0.0596  0.1678
  591MOL0     H81498   8.637   5.572   4.268  0.5004 -1.7599  0.2310
  591MOL0     H81499   8.643   5.593   4.547 -0.3727 -1.2023 -0.0383
  591MOL0     H81500   8.544   5.722   4.465  1.3113  1.3280  0.0320
  591MOL0     H81501   8.835   5.668   4.392  1.7040  1.8858  0.1731
  591MOL0     H81502   8.737   5.782   4.312 -0.9565 -1.3374 -1.4747
  591MOL0     H81503   8.695   5.879   4.564  0.3619 -1.1867  0.8882
  591MOL0     H81504   8.835   5.923   4.453  1.5943 -1.9185 -0.0933
  591MOL0     H81505   8.849   5.711   4.657  0.0501 -0.7792 -1.9776
  591MOL0     H81506   8.977   5.776   4.560 -1.3237 -2.0217 -1.2636
  591MOL0     H81507   8.766   5.837   4.876 -0.2566 -0.1907 -1.3765
  591MOL0     H81508   8.953   6.081   5.074  0.9706 -0.7501 -0.8312
  591MOL0     H81509   8.813   5.964   5.095  0.0278  1.0318  0.6300
  591MOL0     H81510   8.807   6.225   4.958  4.3033 -2.3414  0.3820
  591MOL0     H81511   8.656   6.118   4.988 -0.3481  2.7874 -1.8313
  591MOL0     H81512   8.836   6.252   5.207 -0.4375  0.0681  0.1932
  591MOL0     H81513   8.679   6.308   5.152 -0.4165  0.2491  1.4992
  591MOL0     H81514   8.732   6.045   5.289  1.0389  0.8177  1.6336
  591MOL0     H81515   8.687   6.205   5.360 -1.3803  0.6604 -0.2835
  591MOL0     H81516   8.576   6.090   5.508  0.2086 -0.5381  0.9317
  591MOL0     H81517   8.364   6.019   5.757 -0.1886 -0.5032 -0.6852
  591MOL0     H81518   8.530   6.057   5.716 -0.6800  1.4847 -2.5129
  591MOL0     H81519   8.476   5.886   5.754 -2.8662 -0.3330  0.4848
  591MOL0     H81520   8.018   5.651   5.772 -1.8321 -0.2030  1.7558
  591MOL0     H81521   7.775   5.634   5.811 -0.2629 -3.6594 -1.8292
  591MOL0     H81522   7.414   5.690   5.750 -0.3780  1.5844  0.7411
  591MOL0     H81523   7.565   5.644   5.827  2.0434  2.8431  0.5262
  591MOL0     H81524   7.620   5.871   5.874  0.0250  1.6398  0.3275
  591MOL0     H81525   7.500   5.916   5.738 -3.0548 -2.2052 -0.5259
  591MOL0     H81526   7.375   5.783   5.976 -0.9670  1.2955  0.0539
  591MOL0     H81527   7.315   5.914   5.882  0.9547  2.4427 -1.1937
  591MOL0     H81528   7.556   5.985   6.055 -0.1065  0.2594  0.8255
  591MOL0     H81529   7.421   5.920   6.133  2.1817  0.9552 -0.0156
  591MOL0     H81530   7.283   6.110   6.094  0.8683 -1.0042  2.5100
  591MOL0     H81531   7.444   6.182   6.087  1.4508 -1.5415 -0.9306
  591MOL0     H81532   7.300   6.109   5.839 -1.1545 -1.7484  4.0680
  591MOL0     H81533   7.468   6.174   5.854  0.3501 -0.0953 -2.7114
  591MOL0     H81534   7.382   6.378   5.823 -1.8465  1.0850 -1.1246
  591MOL0     H81535   7.351   6.361   5.997  3.2891  1.1582 -1.0872
  591MOL0     H81536   7.161   6.340   5.763 -0.5691 -0.4267 -0.4421
  591MOL0     H81537   7.157   6.452   5.891 -0.8558 -0.1267  0.3528
  591MOL0     H81538   7.686   5.817   5.440  2.6998  3.3347 -1.8459
  591MOL0     H81539   7.938   5.781   5.372 -1.4314 -1.3942 -0.4879
  591MOL0     H81540   8.216   5.813   5.319  1.1431 -0.4847 -2.1031
  591MOL0     H81541   8.359   5.959   5.182 -0.4760 -1.3947 -0.8326
  591MOL0     H81542   8.320   5.103   3.851  0.4607  0.3450  1.9372
  591MOL0     H81543   8.217   5.122   3.646  1.5723 -0.8865  0.7290
  591MOL0     H81544   8.057   5.262   3.278  1.3882  0.2427 -0.5280
  591MOL0     H81545   8.007   5.326   3.041  0.5366  0.2201 -0.6297
  591MOL0     H81546   7.794   5.702   2.890  0.8050 -1.6823 -3.7727
  591MOL0     H81547   7.939   5.761   2.971 -0.3672  0.4559 -1.7473
  591MOL0     H81548   8.057   5.692   2.753 -0.2938 -1.8915  1.1225
  591MOL0     H81549   7.915   5.784   2.728 -1.8479 -0.4772  1.7092
  591MOL0     H81550   7.942   5.483   2.729  1.4510  0.3489 -1.8171
  591MOL0     H81551   7.797   5.588   2.681 -0.3730  1.3520  2.4898
  591MOL0     H81552   7.909   5.528   2.451 -1.0010  1.3661  0.3399
  591MOL0     H81553   8.061   5.565   2.506  0.5432 -0.7267  1.1934
  591MOL0     H81554   7.892   5.940   2.435  0.3949  0.6140 -1.1687
  591MOL0     H81555   7.890   5.721   3.165  0.9778  0.0686 -0.0183
  591MOL0     H81556   7.809   5.719   3.402  0.8323  0.8944  0.4785
  591MOL0     H81557   7.935   5.680   3.518  0.8479  0.9945  0.3944
  591MOL0     H81558   7.972   5.786   3.370 -0.2101 -0.6609 -1.9413
  592MOL0     O81559   9.183   5.372   2.336  0.8400 -0.0101  0.4265
  592MOL0     C81560   9.253   5.345   2.437 -0.3957 -0.5954  0.4547
  592MOL0     O81561   9.383   5.306   2.428 -0.5575  0.1034 -0.3508
  592MOL0     C81562   9.451   5.264   2.313 -0.1870  0.0160 -0.4694
  592MOL0     C81563   9.590   5.253   2.335 -0.7585 -0.3618 -0.2055
  592MOL0     C81564   9.667   5.210   2.224  0.6714 -0.1741  0.3530
  592MOL0     C81565   9.613   5.165   2.097  0.6754 -0.1595 -0.2177
  592MOL0     O81566   9.683   5.108   1.991 -0.1404  0.6560  0.7163
  592MOL0     C81567   9.820   5.072   2.012 -0.0336  0.4901 -0.6155
  592MOL0     C81568   9.846   4.996   1.889 -0.4973  1.1989  0.2100
  592MOL0     C81569   9.980   4.911   1.883  0.4221 -0.5934 -0.2098
  592MOL0     C81570  10.082   4.986   1.789 -0.5165  0.9988  0.0167
  592MOL0     C81571  10.209   4.898   1.766  1.4238 -0.9183 -0.0854
  592MOL0     C81572  10.327   4.965   1.690 -0.3912  0.5540 -0.3022
  592MOL0     C81573  10.413   5.058   1.771  0.2881  0.0269  0.4538
  592MOL0     C81574  10.498   4.989   1.879  0.4250  1.0846  0.0307
  592MOL0     N81575  10.617   4.938   1.807 -0.1904 -1.0401  0.0667
  592MOL0     C81576  10.621   4.808   1.748  0.6503 -0.0204 -0.2723
  592MOL0     C81577  10.753   4.782   1.747 -0.3292  0.1311  0.0026
  592MOL0     C81578  10.826   4.667   1.694  0.5256  0.1313 -1.3333
  592MOL0     C81579  10.930   4.610   1.785  0.0481  0.5531  0.0690
  592MOL0     C81580  11.056   4.690   1.810 -0.2134 -0.2544  0.5359
  592MOL0     C81581  11.172   4.600   1.841  0.3406  0.1649 -0.0749
  592MOL0     O81582  11.224   4.537   1.724 -0.5979  0.2791  0.1589
  592MOL0     C81583  11.324   4.443   1.747 -0.3754  0.1605  1.2975
  592MOL0     C81584  11.394   4.401   1.632  0.6741 -0.0387 -0.1594
  592MOL0     C81585  11.482   4.287   1.641 -0.0722 -0.3599 -0.5556
  592MOL0     C81586  11.525   4.218   1.508 -0.7524 -1.3251 -0.4715
  592MOL0     C81587  11.531   4.242   1.764 -0.3658 -0.8681  0.9934
  592MOL0     C81588  11.639   4.140   1.778  0.4168  0.0149 -0.9206
  592MOL0     O81589  11.707   4.146   1.890 -0.1051  0.2830 -0.6389
  592MOL0     C81590  11.818   4.070   1.912 -1.0958  0.3648  1.0730
  592MOL0     C81591  11.904   4.018   1.816  0.2389 -0.3650 -0.5481
  592MOL0     C81592  12.023   3.956   1.864 -0.2263  0.7710 -0.6141
  592MOL0     C81593  12.060   3.933   2.005 -1.1766 -0.2495  0.3368
  592MOL0     O81594  12.171   3.872   2.063 -0.0580 -0.4396  0.1749
  592MOL0     C81595  12.291   3.904   1.989 -0.9127  0.8486  0.2924
  592MOL0     C81596  12.405   3.870   2.084 -0.1253 -0.7971 -0.8439
  592MOL0     C81597  12.543   3.887   2.018  0.3659  0.5517 -0.0790
  592MOL0     C81598  12.653   3.881   2.124  0.0140 -0.3024 -0.9377
  592MOL0     C81599  12.775   3.838   2.062 -1.2250  0.1610  0.2365
  592MOL0     C81600  12.881   3.845   2.179  0.5684 -0.1050  0.1983
  592MOL0     C81601  13.032   3.801   2.131  0.4257 -0.2374  0.3870
  592MOL0     C81602  13.110   3.900   2.037 -0.3372 -0.2188 -0.3734
  592MOL0    Cl81603  13.059   3.903   1.878  0.0058 -0.1633  0.3660
  592MOL0     C81604  11.951   3.967   2.090 -0.9800  0.8230  0.1963
  592MOL0     C81605  11.844   4.036   2.049  0.5399  0.7373 -0.2389
  592MOL0     O81606  11.648   4.052   1.696 -0.2315  0.2185 -0.3078
  592MOL0     C81607  11.457   4.289   1.883 -0.8742  0.1117  0.2797
  592MOL0     C81608  11.364   4.393   1.873  0.0380  0.5926  0.1189
  592MOL0     N81609  10.811   4.898   1.787 -0.0774 -0.0625 -0.4536
  592MOL0     N81610  10.734   4.987   1.832 -0.5739 -0.3438 -0.1009
  592MOL0     C81611   9.475   5.175   2.081  0.4018 -0.4986 -0.5897
  592MOL0     C81612   9.398   5.221   2.190  0.4214  0.0506  0.1809
  592MOL0     C81613   9.211   5.386   2.570  0.3238 -0.4972 -0.1283
  592MOL0     C81614   9.086   5.341   2.612 -0.5731  0.0304  0.2895
  592MOL0     C81615   9.028   5.367   2.739  0.1541 -0.1618  0.3192
  592MOL0     C81616   9.105   5.428   2.833 -1.0727 -0.3023 -0.6489
  592MOL0     O81617   9.058   5.448   2.958  0.3775 -0.0782 -0.8659
  592MOL0     C81618   9.139   5.484   3.069 -0.5171 -0.5604 -0.0361
  592MOL0     C81619   9.196   5.358   3.139 -0.6066  0.5083 -0.9308
  592MOL0     C81620   9.259   5.373   3.278  0.3094 -0.1195 -0.0498
  592MOL0     C81621   9.407   5.416   3.284 -0.0427 -0.4036 -0.8326
  592MOL0     C81622   9.439   5.462   3.420 -1.0928 -0.5890  0.1250
  592MOL0     C81623   9.441   5.507   3.531  0.3113 -0.3814 -0.6090
  592MOL0     C81624   9.235   5.469   2.798  0.6298  0.0265 -0.0919
  592MOL0     C81625   9.291   5.445   2.673 -1.5560 -0.3046  0.1092
  592MOL0     C81626   9.439   5.478   2.642  0.0815  0.4741 -0.7475
  592MOL0     H81627   9.638   5.277   2.430 -0.6338 -1.1101 -0.0681
  592MOL0     H81628   9.775   5.208   2.233  1.5441  4.6677 -4.0355
  592MOL0     H81629   9.832   5.002   2.095  2.3132 -1.8783 -2.7670
  592MOL0     H81630   9.894   5.151   2.033  1.2327 -0.7500 -0.2704
  592MOL0     H81631   9.768   4.924   1.861  1.3474  0.0103 -2.3099
  592MOL0     H81632   9.851   5.068   1.806  1.1130  3.2745  1.9947
  592MOL0     H81633  10.033   4.908   1.979 -0.9267  2.2523  0.7437
  592MOL0     H81634   9.962   4.809   1.848 -3.2303 -0.4196  0.7056
  592MOL0     H81635  10.030   5.014   1.697  0.4347  0.3672 -0.7345
  592MOL0     H81636  10.102   5.080   1.843 -0.8213  1.5907 -0.8763
  592MOL0     H81637  10.172   4.821   1.698 -0.3971 -0.1818  0.0207
  592MOL0     H81638  10.246   4.863   1.863 -1.2482 -0.6168  1.1313
  592MOL0     H81639  10.382   4.885   1.640 -0.0375  0.6913 -0.1349
  592MOL0     H81640  10.291   5.030   1.610  1.5737  3.5061  1.0173
  592MOL0     H81641  10.359   5.143   1.813  1.9177  0.5342  1.5909
  592MOL0     H81642  10.476   5.110   1.699  0.6127  0.7915  1.2778
  592MOL0     H81643  10.536   5.060   1.954  4.0876 -1.4228  0.8193
  592MOL0     H81644  10.445   4.916   1.941 -3.2622  4.5533  1.4590
  592MOL0     H81645  10.533   4.751   1.721 -1.6763  2.7987  0.8305
  592MOL0     H81646  10.859   4.677   1.590  0.2397 -1.7575 -1.6263
  592MOL0     H81647  10.750   4.589   1.691  0.6255  0.0747 -2.7444
  592MOL0     H81648  10.874   4.594   1.877 -1.8186  0.7960 -0.9676
  592MOL0     H81649  10.952   4.511   1.746 -1.7881 -0.7725  2.1870
  592MOL0     H81650  11.066   4.749   1.719 -2.4883  0.4459  0.6751
  592MOL0     H81651  11.035   4.758   1.893  2.3700 -0.2685  1.2906
  592MOL0     H81652  11.250   4.667   1.880 -0.9184  1.7969 -0.2361
  592MOL0     H81653  11.140   4.528   1.917 -2.0771 -0.1653 -1.3156
  592MOL0     H81654  11.361   4.441   1.536 -0.9512  2.4390  1.3428
  592MOL0     H81655  11.470   4.126   1.487 -1.0506 -2.0642  2.9130
  592MOL0     H81656  11.632   4.195   1.504 -0.5281 -0.4335  0.0642
  592MOL0     H81657  11.503   4.290   1.428  1.2385  1.1557  1.0329
  592MOL0     H81658  11.895   4.050   1.713  0.3139 -1.7951 -1.0198
  592MOL0     H81659  12.086   3.916   1.785 -1.8906 -0.5648 -1.3373
  592MOL0     H81660  12.287   3.842   1.899 -3.1973 -0.0382  0.9405
  592MOL0     H81661  12.310   4.006   1.954  0.0449  0.4745 -0.3101
  592MOL0     H81662  12.405   3.937   2.170 -1.9285  0.5580 -1.8365
  592MOL0     H81663  12.405   3.765   2.116 -1.5368  0.5157  4.4027
  592MOL0     H81664  12.541   3.976   1.955 -1.8864  0.7469  0.1821
  592MOL0     H81665  12.551   3.812   1.939  0.6086  1.1203 -0.5999
  592MOL0     H81666  12.611   3.809   2.196 -0.0103  2.2865  1.8476
  592MOL0     H81667  12.660   3.972   2.185 -0.0693 -0.6723 -0.3628
  592MOL0     H81668  12.758   3.737   2.025 -1.9492  0.3914 -0.0708
  592MOL0     H81669  12.797   3.906   1.978  0.8856 -1.6488 -0.7764
  592MOL0     H81670  12.845   3.792   2.267 -1.9616 -2.4116 -2.0204
  592MOL0     H81671  12.867   3.950   2.206 -2.2005  0.2547 -2.1760
  592MOL0     H81672  13.028   3.704   2.080  1.3913 -1.1738  1.9832
  592MOL0     H81673  13.083   3.775   2.224 -0.6320  0.0243  1.0655
  592MOL0     H81674  13.212   3.864   2.046  0.4287  1.6654 -0.9869
  592MOL0     H81675  13.107   4.002   2.078 -3.2336 -0.3548 -0.0181
  592MOL0     H81676  11.955   3.947   2.197 -2.0455  0.0371  0.1093
  592MOL0     H81677  11.778   4.068   2.129  0.9933 -1.7429  1.2490
  592MOL0     H81678  11.482   4.253   1.982  0.2337 -1.1852 -0.4329
  592MOL0     H81679  11.319   4.437   1.962  0.8731  0.4631  0.6223
  592MOL0     H81680   9.423   5.133   1.996 -2.7322  3.7068 -1.0597
  592MOL0     H81681   9.290   5.227   2.178  0.3089 -1.7295  0.0358
  592MOL0     H81682   9.020   5.303   2.534  0.4658 -0.4149 -0.3825
  592MOL0     H81683   8.920   5.359   2.743  0.0935 -1.3758 -1.9691
  592MOL0     H81684   9.216   5.558   3.047 -1.8610  0.3630 -1.8639
  592MOL0     H81685   9.077   5.541   3.139 -0.1289  1.4869 -1.2656
  592MOL0     H81686   9.263   5.308   3.069 -3.7444 -2.0348 -2.3637
  592MOL0     H81687   9.116   5.286   3.156  1.2358 -1.0973  1.6336
  592MOL0     H81688   9.192   5.437   3.336  1.9778  1.9022 -0.2476
  592MOL0     H81689   9.264   5.283   3.341 -1.2254 -0.8566 -0.9110
  592MOL0     H81690   9.424   5.496   3.211  1.3962  1.4901  1.4268
  592MOL0     H81691   9.470   5.335   3.247 -1.0068 -0.9655 -1.3079
  592MOL0     H81692   9.440   5.556   3.626 -2.8731 -0.8742 -0.2618
  592MOL0     H81693   9.299   5.515   2.873 -0.0201  0.4351  0.2273
  592MOL0     H81694   9.481   5.542   2.720 -1.2980 -0.4389  0.8295
  592MOL0     H81695   9.498   5.385   2.646 -0.2081  0.3208  0.6301
  592MOL0     H81696   9.453   5.536   2.551  2.7674  1.5939  0.2812
  593MOL0     O81697   7.303   3.222   7.057  0.6094 -0.0265 -0.2432
  593MOL0     C81698   7.279   3.286   6.952 -0.6448 -0.1481  0.4037
  593MOL0     O81699   7.186   3.253   6.850 -0.0497  0.0238 -0.5459
  593MOL0     C81700   7.093   3.151   6.868 -0.1302  0.4984  0.3220
  593MOL0     C81701   7.035   3.116   6.990 -0.1041 -0.8319  0.9382
  593MOL0     C81702   6.951   3.001   6.996 -0.0033  0.0376  0.3259
  593MOL0     C81703   6.916   2.928   6.878  0.3176 -0.2830  0.0534
  593MOL0     O81704   6.824   2.826   6.873 -0.9724 -0.1725 -0.1575
  593MOL0     C81705   6.828   2.735   6.979 -0.0494  0.2117 -0.2538
  593MOL0     C81706   6.722   2.619   6.969 -0.1009  0.8385  0.6874
  593MOL0     C81707   6.734   2.505   7.075  0.0927  0.0405  0.6103
  593MOL0     C81708   6.608   2.420   7.063  0.6285  0.5496 -0.0778
  593MOL0     C81709   6.620   2.297   7.153  0.2799 -0.3887 -0.3025
  593MOL0     C81710   6.487   2.226   7.180  0.1038 -0.7346 -0.3876
  593MOL0     C81711   6.438   2.162   7.046  0.2732  0.0507 -0.3513
  593MOL0     C81712   6.303   2.096   7.046 -0.2729 -0.4418  0.2959
  593MOL0     N81713   6.286   1.979   7.131  0.0518  0.2809 -0.6503
  593MOL0     C81714   6.306   1.975   7.265 -0.5806 -0.0334 -0.1039
  593MOL0     C81715   6.324   1.849   7.297  0.8020  0.4508  1.0083
  593MOL0     C81716   6.370   1.776   7.419 -0.2379  0.5854 -0.1424
  593MOL0     C81717   6.268   1.716   7.517  0.5190  0.3210  1.2024
  593MOL0     C81718   6.164   1.617   7.466 -0.1118 -0.8167  0.4593
  593MOL0     C81719   6.222   1.481   7.437  0.1430  0.0189 -0.6076
  593MOL0     O81720   6.313   1.455   7.538 -0.3562  0.7952  0.4633
  593MOL0     C81721   6.391   1.341   7.529 -0.4919 -0.9786  0.3524
  593MOL0     C81722   6.494   1.350   7.625  0.6789 -0.0527  0.2538
  593MOL0     C81723   6.593   1.253   7.636 -0.4527  0.1732 -0.1572
  593MOL0     C81724   6.686   1.262   7.753 -0.6896 -0.5129 -0.2416
  593MOL0     C81725   6.588   1.137   7.547  0.3133 -0.2988 -0.9538
  593MOL0     C81726   6.686   1.020   7.553 -0.7792 -0.3479  0.2039
  593MOL0     O81727   6.804   1.034   7.623  0.1554  0.0178  0.2515
  593MOL0     C81728   6.914   0.958   7.597 -0.0714  0.4987  1.1207
  593MOL0     C81729   6.958   0.887   7.481  0.1333  0.4063 -0.6488
  593MOL0     C81730   7.077   0.810   7.486  0.5061 -0.1487 -0.0159
  593MOL0     C81731   7.159   0.807   7.603 -0.6859  0.7118  0.1147
  593MOL0     O81732   7.285   0.750   7.611 -0.1874 -0.4394 -0.5602
  593MOL0     C81733   7.339   0.690   7.500  0.1849  0.5980 -0.9114
  593MOL0     C81734   7.459   0.601   7.544 -0.5683  0.5598 -0.1737
  593MOL0     C81735   7.476   0.498   7.439 -0.5213  0.7137  0.7086
  593MOL0     C81736   7.504   0.564   7.292  1.1552 -0.0789 -0.8903
  593MOL0     C81737   7.573   0.455   7.210 -0.1983 -0.7789  0.1839
  593MOL0     C81738   7.611   0.506   7.071  0.7800  0.4134  0.4799
  593MOL0     C81739   7.481   0.488   6.983  1.0943  0.0407  0.0489
  593MOL0     C81740   7.499   0.517   6.835 -0.6555 -0.6654 -0.9012
  593MOL0    Cl81741   7.591   0.380   6.773 -0.2859  0.1629 -0.4362
  593MOL0     C81742   7.101   0.878   7.714  0.1407  0.7365 -0.3143
  593MOL0     C81743   6.988   0.950   7.714  0.8666 -0.2516 -0.1255
  593MOL0     O81744   6.651   0.927   7.488  0.3781  0.5895  0.2050
  593MOL0     C81745   6.476   1.127   7.459 -0.4977 -0.7480  0.4140
  593MOL0     C81746   6.370   1.231   7.448  0.6500  0.7565  0.0868
  593MOL0     N81747   6.305   1.775   7.178 -0.1635  0.3747  0.0932
  593MOL0     N81748   6.267   1.852   7.088 -0.1532 -0.4157  0.0506
  593MOL0     C81749   6.969   2.969   6.761 -0.9780 -0.2367  1.2635
  593MOL0     C81750   7.058   3.077   6.754 -1.0779  0.4268  0.7437
  593MOL0     C81751   7.341   3.425   6.924  0.7829  0.2114 -0.7882
  593MOL0     C81752   7.283   3.517   6.833 -0.8508  0.1014  0.0178
  593MOL0     C81753   7.333   3.649   6.814  0.1244  0.6839 -0.1837
  593MOL0     C81754   7.452   3.689   6.876 -0.8164 -0.3482 -0.2879
  593MOL0     O81755   7.512   3.807   6.854  0.2031 -0.2882 -0.4924
  593MOL0     C81756   7.445   3.921   6.782 -0.3847  0.0297 -0.1020
  593MOL0     C81757   7.525   4.047   6.766  0.9287 -0.1703 -0.6325
  593MOL0     C81758   7.567   4.111   6.898 -0.0350 -0.6777  0.6778
  593MOL0     C81759   7.437   4.174   6.962 -1.1240 -0.5788 -0.5987
  593MOL0     C81760   7.468   4.234   7.091  1.1320  0.7305 -0.3339
  593MOL0     C81761   7.488   4.279   7.204 -0.0910 -0.0740 -0.0636
  593MOL0     C81762   7.515   3.590   6.953  0.0892  0.1624 -0.7660
  593MOL0     C81763   7.460   3.468   6.979 -0.6209 -0.4602 -0.6797
  593MOL0     C81764   7.541   3.384   7.079 -0.6282  1.1200 -0.0923
  593MOL0     H81765   7.062   3.173   7.078 -0.1921  1.5064 -0.4558
  593MOL0     H81766   6.912   2.962   7.090 -0.3442 -0.1611  0.1033
  593MOL0     H81767   6.821   2.780   7.078  0.9793 -1.9162  0.8420
  593MOL0     H81768   6.930   2.696   6.969  0.4870  2.0888 -3.6966
  593MOL0     H81769   6.625   2.666   6.988  0.4881  2.2222  0.3453
  593MOL0     H81770   6.722   2.567   6.873  1.0445 -1.4203  1.8231
  593MOL0     H81771   6.823   2.448   7.048  0.3449  0.9468 -0.6178
  593MOL0     H81772   6.731   2.548   7.175  0.3446 -0.1785  0.7097
  593MOL0     H81773   6.519   2.481   7.081  0.6986  0.5194  0.3599
  593MOL0     H81774   6.609   2.386   6.958  2.3948 -0.9079  0.3619
  593MOL0     H81775   6.656   2.335   7.249  0.1349 -0.1769 -0.3318
  593MOL0     H81776   6.695   2.233   7.105 -1.2835 -0.4983 -2.7982
  593MOL0     H81777   6.494   2.161   7.268  0.1846 -2.4279 -1.5911
  593MOL0     H81778   6.413   2.302   7.207 -0.7627 -0.7731 -2.5019
  593MOL0     H81779   6.502   2.077   7.022 -0.9947 -2.3685  3.8122
  593MOL0     H81780   6.459   2.237   6.969  0.3253  1.2804  0.8107
  593MOL0     H81781   6.226   2.164   7.085  2.4563  2.9568  0.1931
  593MOL0     H81782   6.278   2.065   6.944 -1.1057  1.4035 -0.1144
  593MOL0     H81783   6.315   2.058   7.335 -2.2002 -0.8570  1.1701
  593MOL0     H81784   6.437   1.843   7.474  2.7750 -0.5829 -2.1201
  593MOL0     H81785   6.435   1.696   7.382  0.1012  1.7919 -2.3159
  593MOL0     H81786   6.335   1.678   7.594  0.1476  0.7390  1.7330
  593MOL0     H81787   6.221   1.808   7.552  0.4172  0.5276  0.5450
  593MOL0     H81788   6.090   1.592   7.543  0.3428 -0.1066  1.1332
  593MOL0     H81789   6.111   1.655   7.378  0.8068 -1.5740 -0.4503
  593MOL0     H81790   6.143   1.406   7.424  1.2587 -1.2708 -0.1323
  593MOL0     H81791   6.268   1.475   7.339  0.1600 -0.5876 -0.5672
  593MOL0     H81792   6.504   1.430   7.698 -0.6752  1.5135 -1.1839
  593MOL0     H81793   6.684   1.356   7.808  2.7626 -1.1092  1.1304
  593MOL0     H81794   6.790   1.233   7.740 -0.3710  1.6811 -3.6917
  593MOL0     H81795   6.635   1.197   7.825 -0.3309 -0.4536  0.0689
  593MOL0     H81796   6.897   0.889   7.392  2.4186 -2.4760 -2.4140
  593MOL0     H81797   7.109   0.756   7.398  0.3542 -1.4472  0.6979
  593MOL0     H81798   7.264   0.629   7.450 -0.7384  1.6901 -0.8995
  593MOL0     H81799   7.364   0.773   7.434  2.8634 -0.7733 -1.7778
  593MOL0     H81800   7.547   0.659   7.572  1.0444 -2.6125  1.7274
  593MOL0     H81801   7.427   0.546   7.632  0.5724  1.4664  0.8378
  593MOL0     H81802   7.390   0.430   7.437  0.9723 -1.2274 -0.2922
  593MOL0     H81803   7.562   0.443   7.477 -1.1214 -1.6541 -1.0972
  593MOL0     H81804   7.568   0.652   7.304 -0.7269  1.6526 -2.6069
  593MOL0     H81805   7.410   0.603   7.251  0.8854 -0.4213 -0.6013
  593MOL0     H81806   7.665   0.425   7.261 -0.8827 -0.3041  1.7499
  593MOL0     H81807   7.518   0.361   7.202 -1.8041  0.1639 -0.3842
  593MOL0     H81808   7.697   0.453   7.030 -1.3055 -2.0924 -0.9928
  593MOL0     H81809   7.639   0.611   7.085  0.9396  0.3955  0.2880
  593MOL0     H81810   7.398   0.554   7.011 -0.4840 -0.9020 -2.1190
  593MOL0     H81811   7.453   0.382   6.988  0.6320 -0.8455 -8.2418
  593MOL0     H81812   7.541   0.616   6.815 -0.1365 -0.8340 -0.6592
  593MOL0     H81813   7.407   0.516   6.776 -1.0031  0.7054 -0.4204
  593MOL0     H81814   7.163   0.862   7.802  2.0412 -0.1817 -1.7302
  593MOL0     H81815   6.943   0.992   7.804  0.1328  1.3704 -1.2016
  593MOL0     H81816   6.467   1.038   7.398  1.0784 -0.8001  0.2387
  593MOL0     H81817   6.283   1.219   7.385  2.0709 -1.0281 -1.6343
  593MOL0     H81818   6.927   2.915   6.677  0.9281  0.8554 -0.4798
  593MOL0     H81819   7.104   3.111   6.662 -0.4377  1.5814  1.4686
  593MOL0     H81820   7.203   3.475   6.772 -0.3040 -0.0636 -0.6018
  593MOL0     H81821   7.280   3.714   6.745  1.1060  2.4509  0.6406
  593MOL0     H81822   7.430   3.887   6.679  3.6593 -1.1057 -0.5039
  593MOL0     H81823   7.344   3.930   6.822 -0.8639 -1.8020 -0.7781
  593MOL0     H81824   7.474   4.115   6.697  0.2360  0.6477  0.6552
  593MOL0     H81825   7.617   4.022   6.712  0.0429  2.8481 -3.9410
  593MOL0     H81826   7.617   4.038   6.963 -0.1563 -0.5089  0.9592
  593MOL0     H81827   7.643   4.186   6.873 -1.0440  0.0742 -0.2209
  593MOL0     H81828   7.356   4.102   6.975 -0.6567 -0.9636  0.2843
  593MOL0     H81829   7.409   4.256   6.895 -1.0451  1.0953  1.3314
  593MOL0     H81830   7.500   4.333   7.296  2.5951  2.2282 -1.6073
  593MOL0     H81831   7.597   3.630   7.012 -0.4612 -1.6422  1.3631
  593MOL0     H81832   7.637   3.430   7.104  0.6448 -2.5690  2.6428
  593MOL0     H81833   7.490   3.358   7.172  3.9444 -3.7626  1.6072
  593MOL0     H81834   7.586   3.301   7.024 -2.3496 -0.1378  0.3346
  594MOL0     O81835   0.815   6.352  10.131 -0.0790 -0.4765  0.1287
  594MOL0     C81836   0.705   6.392  10.091  0.5315 -0.1359  0.3694
  594MOL0     O81837   0.620   6.476  10.153  0.4679 -0.0144 -0.4892
  594MOL0     C81838   0.625   6.486  10.290 -0.0486 -0.3952 -0.8146
  594MOL0     C81839   0.604   6.366  10.362 -0.4898 -0.5079 -0.3635
  594MOL0     C81840   0.614   6.377  10.502  0.0019 -0.3275 -0.0105
  594MOL0     C81841   0.643   6.492  10.572 -1.3185 -0.2836  0.8338
  594MOL0     O81842   0.649   6.473  10.707  0.1920  0.7373  0.2654
  594MOL0     C81843   0.706   6.592  10.772  0.6484 -0.0889 -0.2348
  594MOL0     C81844   0.735   6.580  10.924  0.8353  0.1904  0.4995
  594MOL0     C81845   0.639   6.481  11.002  0.3211  0.3139 -0.0412
  594MOL0     C81846   0.662   6.501  11.150 -1.2229  0.1351 -0.4073
  594MOL0     C81847   0.604   6.395  11.233 -0.0184  0.1780 -0.5161
  594MOL0     C81848   0.452   6.405  11.236  0.2944 -0.0813  1.1981
  594MOL0     C81849   0.372   6.278  11.279 -0.6271 -0.0364  0.8547
  594MOL0     C81850   0.220   6.319  11.262  0.2096 -0.5214  0.5965
  594MOL0     N81851   0.178   6.329  11.125  0.2227  0.1922  0.0977
  594MOL0     C81852   0.211   6.239  11.030  1.2292 -0.4701  0.7934
  594MOL0     C81853   0.192   6.302  10.906 -0.5268 -1.0838 -1.3721
  594MOL0     C81854   0.218   6.228  10.786 -0.3074  0.9960  1.4612
  594MOL0     C81855   0.118   6.246  10.665  0.3544  0.8760 -0.6246
  594MOL0     C81856  -0.016   6.181  10.711 -0.2024 -0.3924  0.4459
  594MOL0     C81857  -0.134   6.222  10.626 -0.5970 -0.3217  0.0676
  594MOL0     O81858  -0.152   6.367  10.630  0.0596 -0.4360  0.2836
  594MOL0     C81859  -0.272   6.422  10.594  0.4925  0.0120  0.2461
  594MOL0     C81860  -0.361   6.357  10.511 -0.0148  0.1686 -0.9356
  594MOL0     C81861  -0.494   6.391  10.498 -0.9303 -0.1782 -0.8331
  594MOL0     C81862  -0.581   6.317  10.403  0.1543  0.2257 -0.6076
  594MOL0     C81863  -0.540   6.508  10.570 -0.4859  0.7018 -0.0477
  594MOL0     C81864  -0.683   6.553  10.584 -0.6238 -0.1944  0.2169
  594MOL0     O81865  -0.707   6.686  10.610 -0.2291 -0.6364 -0.1104
  594MOL0     C81866  -0.839   6.726  10.613 -0.0395  0.3784  0.6570
  594MOL0     C81867  -0.907   6.732  10.494  1.1321  0.4348  0.5307
  594MOL0     C81868  -1.050   6.765  10.489 -0.1793 -0.4702  0.2324
  594MOL0     C81869  -1.120   6.792  10.608 -0.3010 -0.4723 -0.4329
  594MOL0     O81870  -1.251   6.810  10.618  0.3955 -0.1497 -0.2947
  594MOL0     C81871  -1.322   6.839  10.502 -1.2648 -0.5935 -0.1480
  594MOL0     C81872  -1.457   6.906  10.540 -0.2577  0.4194 -0.5062
  594MOL0     C81873  -1.550   6.907  10.422 -0.2492 -0.9754  1.4416
  594MOL0     C81874  -1.695   6.929  10.447  0.3095  0.3203  0.1805
  594MOL0     C81875  -1.784   6.942  10.321  0.0642 -0.0423  0.6712
  594MOL0     C81876  -1.748   7.037  10.210  0.7753 -0.8432 -0.6338
  594MOL0     C81877  -1.869   7.065  10.121 -0.1387  0.3044 -0.5377
  594MOL0     C81878  -1.835   7.112   9.982  0.8865  0.0324 -0.3042
  594MOL0    Cl81879  -1.779   7.287   9.993  0.0093 -0.0014  0.0673
  594MOL0     C81880  -1.047   6.780  10.731 -0.2293 -0.0236  0.5046
  594MOL0     C81881  -0.908   6.752  10.737 -1.3006 -0.1692 -0.3740
  594MOL0     O81882  -0.769   6.463  10.579 -0.1311  0.1325 -0.5876
  594MOL0     C81883  -0.444   6.592  10.626 -0.0833  0.2947 -0.6209
  594MOL0     C81884  -0.316   6.548  10.641 -0.1006 -0.5949  1.0469
  594MOL0     N81885   0.135   6.428  10.930  0.1689 -0.5090 -0.5488
  594MOL0     N81886   0.130   6.440  11.065  0.2396  0.0129 -0.4806
  594MOL0     C81887   0.680   6.610  10.495 -0.6281 -0.2909  0.7917
  594MOL0     C81888   0.668   6.601  10.352 -0.8425  0.1580 -0.1957
  594MOL0     C81889   0.636   6.331   9.978 -1.2198  0.2765  1.1495
  594MOL0     C81890   0.619   6.186   9.972  0.5986 -0.3171 -0.1942
  594MOL0     C81891   0.541   6.132   9.864  0.2319 -0.3807 -0.6707
  594MOL0     C81892   0.513   6.212   9.756 -0.1601 -0.2008  0.0923
  594MOL0     O81893   0.472   6.151   9.646  0.5139  0.1406  0.9270
  594MOL0     C81894   0.338   6.115   9.643 -0.7371 -0.6590 -0.2249
  594MOL0     C81895   0.297   6.093   9.495 -0.1570 -0.0208  0.9546
  594MOL0     C81896   0.314   6.227   9.412 -0.6587  0.6627 -0.1355
  594MOL0     C81897   0.281   6.197   9.266  0.1897 -0.7426  0.4354
  594MOL0     C81898   0.155   6.121   9.234 -1.6157 -0.0179  0.1366
  594MOL0     C81899   0.053   6.071   9.195 -0.1149  0.4789 -0.1672
  594MOL0     C81900   0.549   6.348   9.756  0.2676 -0.0970  0.5255
  594MOL0     C81901   0.613   6.405   9.862 -0.3371 -0.2383 -0.0127
  594MOL0     C81902   0.641   6.557   9.852 -0.1249  0.4693 -0.4837
  594MOL0     H81903   0.567   6.272  10.323  0.7294 -0.1062 -2.7154
  594MOL0     H81904   0.602   6.283  10.554  0.3493 -0.7770 -0.7286
  594MOL0     H81905   0.638   6.675  10.752 -0.4519 -1.5806 -3.1838
  594MOL0     H81906   0.798   6.621  10.721  0.3662  2.3608  0.4787
  594MOL0     H81907   0.841   6.554  10.930  0.2700 -2.6074 -0.2803
  594MOL0     H81908   0.718   6.674  10.978  0.3690  0.3245  0.1293
  594MOL0     H81909   0.533   6.485  10.978  0.3215 -0.7850 -0.2568
  594MOL0     H81910   0.668   6.383  10.964 -1.4899 -0.1956 -0.2010
  594MOL0     H81911   0.770   6.509  11.166 -1.3261  3.1127 -0.5535
  594MOL0     H81912   0.627   6.595  11.194 -1.1814 -0.1222  0.1918
  594MOL0     H81913   0.657   6.387  11.328  0.0090 -0.0322 -0.5505
  594MOL0     H81914   0.615   6.306  11.171 -0.9375  0.5704 -1.2694
  594MOL0     H81915   0.419   6.489  11.297 -0.0728  1.9205 -1.5610
  594MOL0     H81916   0.415   6.425  11.135 -0.9015 -2.8475  0.9750
  594MOL0     H81917   0.398   6.255  11.383  1.7770  1.0425  0.5739
  594MOL0     H81918   0.408   6.194  11.220  1.8992  0.4407  1.5805
  594MOL0     H81919   0.148   6.248  11.306 -3.6865  1.8759 -1.3836
  594MOL0     H81920   0.208   6.417  11.309 -0.5324 -1.0357  1.5277
  594MOL0     H81921   0.258   6.143  11.052  0.1651 -1.0260  0.7236
  594MOL0     H81922   0.222   6.121  10.808 -1.4000  0.7679  0.6108
  594MOL0     H81923   0.316   6.257  10.745 -1.1891  2.6984  0.4382
  594MOL0     H81924   0.102   6.351  10.639 -1.5474  0.4372 -1.3530
  594MOL0     H81925   0.147   6.182  10.582 -0.0046  0.4222 -0.4037
  594MOL0     H81926  -0.009   6.071  10.715 -1.2498 -0.4508  1.0505
  594MOL0     H81927  -0.043   6.211  10.813 -1.0545 -3.3593  1.1982
  594MOL0     H81928  -0.119   6.178  10.526 -1.8557  0.3786 -0.4466
  594MOL0     H81929  -0.217   6.163  10.665  0.7676 -1.5946  1.1856
  594MOL0     H81930  -0.333   6.266  10.459 -2.6847 -0.3011 -1.7373
  594MOL0     H81931  -0.660   6.376  10.356  0.2788  0.3490 -0.6606
  594MOL0     H81932  -0.615   6.223  10.448 -0.5180 -1.0499 -3.5714
  594MOL0     H81933  -0.524   6.288  10.315 -0.6626  0.5774 -1.2604
  594MOL0     H81934  -0.860   6.702  10.401 -1.2223 -0.5281 -0.4408
  594MOL0     H81935  -1.101   6.767  10.393  1.5228  2.0775 -0.7426
  594MOL0     H81936  -1.277   6.918  10.440 -4.7236  0.8637 -1.0042
  594MOL0     H81937  -1.337   6.742  10.455  1.4254 -0.8927 -0.5743
  594MOL0     H81938  -1.499   6.841  10.617 -1.3095  0.7458 -0.7942
  594MOL0     H81939  -1.427   7.008  10.567 -0.9361  0.6383 -0.5707
  594MOL0     H81940  -1.534   6.815  10.365  1.0100 -1.3101  2.3004
  594MOL0     H81941  -1.507   6.983  10.357 -0.9248 -1.5519  0.2888
  594MOL0     H81942  -1.701   7.023  10.503  0.5917  0.0738  0.6271
  594MOL0     H81943  -1.733   6.839  10.496 -0.3118  1.2349  1.4287
  594MOL0     H81944  -1.785   6.842  10.277 -1.3171  1.7512 -3.9067
  594MOL0     H81945  -1.883   6.970  10.358 -2.1236 -1.7752 -3.2182
  594MOL0     H81946  -1.659   7.004  10.156 -0.1128  0.5911 -3.1031
  594MOL0     H81947  -1.723   7.135  10.254 -0.5630 -0.8272  0.1343
  594MOL0     H81948  -1.923   7.143  10.176  2.3926  1.3391  0.6071
  594MOL0     H81949  -1.938   6.979  10.124 -3.0369  2.4414 -0.9775
  594MOL0     H81950  -1.919   7.116   9.912  1.4764  0.2519 -1.0040
  594MOL0     H81951  -1.755   7.049   9.942 -0.5729 -1.6369 -0.7163
  594MOL0     H81952  -1.106   6.789  10.822 -0.9494 -1.5138  0.2253
  594MOL0     H81953  -0.858   6.761  10.833  0.9435 -1.7388 -1.3204
  594MOL0     H81954  -0.459   6.687  10.674 -1.5694  0.6405 -1.6919
  594MOL0     H81955  -0.240   6.605  10.695  0.2757 -0.9815  0.9338
  594MOL0     H81956   0.708   6.704  10.539  2.4440 -0.7374  0.0517
  594MOL0     H81957   0.688   6.695  10.301  0.1345  0.6137  0.9784
  594MOL0     H81958   0.638   6.125  10.059  0.6888 -0.7161 -0.4908
  594MOL0     H81959   0.543   6.024   9.864 -1.1335 -0.4362 -2.1979
  594MOL0     H81960   0.323   6.021   9.696 -3.7069  0.7888  1.7588
  594MOL0     H81961   0.276   6.188   9.695 -0.2337  0.2491 -0.8619
  594MOL0     H81962   0.193   6.062   9.481  0.6113 -1.6657 -2.1245
  594MOL0     H81963   0.348   6.008   9.448  1.7943  2.1765 -1.1708
  594MOL0     H81964   0.242   6.302   9.445 -0.7225  0.1900  0.8477
  594MOL0     H81965   0.414   6.272   9.407 -1.5223  2.7183  0.1650
  594MOL0     H81966   0.363   6.147   9.213 -1.3374 -0.8786 -1.9469
  594MOL0     H81967   0.275   6.286   9.202  2.0332 -1.0165 -0.1724
  594MOL0     H81968  -0.036   6.023   9.159 -0.0151 -0.9284  1.3369
  594MOL0     H81969   0.529   6.403   9.664 -2.6316  1.6031  2.0052
  594MOL0     H81970   0.740   6.574   9.896 -1.4009  3.4372  1.5888
  594MOL0     H81971   0.640   6.585   9.747 -1.5657 -0.4503 -0.7443
  594MOL0     H81972   0.565   6.606   9.914  0.6036  1.0282 -0.0031
  595MOL0     O81973   8.087  11.401   1.238  0.0749 -0.1311 -0.3006
  595MOL0     C81974   8.180  11.382   1.156 -0.4674 -0.1272 -0.9719
  595MOL0     O81975   8.152  11.314   1.035 -0.4531 -0.3162  0.0660
  595MOL0     C81976   8.028  11.265   1.006 -0.0131 -0.1618 -0.4154
  595MOL0     C81977   7.964  11.304   0.889 -0.4422  1.5402 -0.7081
  595MOL0     C81978   7.832  11.263   0.865 -0.2822  0.4693 -0.8306
  595MOL0     C81979   7.760  11.201   0.962  0.1510 -0.3898  0.1125
  595MOL0     O81980   7.631  11.184   0.940  0.4921  0.1097  0.0019
  595MOL0     C81981   7.543  11.146   1.048 -0.7886 -0.1031 -0.2440
  595MOL0     C81982   7.420  11.083   0.978  0.8860 -0.1930 -0.3399
  595MOL0     C81983   7.429  10.929   0.976  0.3257 -0.2968 -1.2834
  595MOL0     C81984   7.296  10.859   0.974  0.9245  0.3908  0.8950
  595MOL0     C81985   7.307  10.703   0.951 -0.1197  0.5113  0.5281
  595MOL0     C81986   7.393  10.631   1.049 -0.5824  0.2540  0.0845
  595MOL0     C81987   7.365  10.478   1.025  0.3347  0.5162  0.5013
  595MOL0     C81988   7.435  10.373   1.119  0.5853 -0.8521  0.0455
  595MOL0     N81989   7.417  10.401   1.257 -0.9311 -0.6032 -0.6878
  595MOL0     C81990   7.322  10.353   1.339  0.5365 -0.2922  0.3216
  595MOL0     C81991   7.360  10.373   1.461  0.2772  0.5312 -1.2281
  595MOL0     C81992   7.294  10.332   1.590  1.1568 -0.2443 -0.4539
  595MOL0     C81993   7.379  10.226   1.658 -0.2779  0.0098 -1.1669
  595MOL0     C81994   7.338  10.081   1.603  0.8148  0.4318 -0.1399
  595MOL0     C81995   7.417   9.971   1.681 -0.0873 -0.0018 -0.4882
  595MOL0     O81996   7.412   9.973   1.828  0.4422 -0.9793 -0.4560
  595MOL0     C81997   7.288   9.945   1.889 -0.9302  0.0386  0.2426
  595MOL0     C81998   7.253  10.023   1.998  0.3343 -0.9034  0.0304
  595MOL0     C81999   7.141   9.994   2.074  0.2157 -0.1796  0.4226
  595MOL0     C82000   7.130  10.086   2.185 -0.5086 -0.5361 -0.5216
  595MOL0     C82001   7.067   9.871   2.043 -0.2193  0.9281 -0.6877
  595MOL0     C82002   6.950   9.822   2.123 -0.1614 -0.2525 -0.5329
  595MOL0     O82003   6.889   9.713   2.074 -0.4676  0.1944 -0.8734
  595MOL0     C82004   6.803   9.638   2.153  0.0550  0.2626  0.5247
  595MOL0     C82005   6.802   9.634   2.291  0.6737  0.7097 -0.2953
  595MOL0     C82006   6.731   9.532   2.354 -0.8741 -0.0081  0.4222
  595MOL0     C82007   6.631   9.466   2.286  0.0361  0.2834 -0.7213
  595MOL0     O82008   6.542   9.379   2.347 -0.0743  0.5328  0.1603
  595MOL0     C82009   6.540   9.359   2.489 -0.7078  0.1877  0.6234
  595MOL0     C82010   6.483   9.217   2.511  0.7805 -0.3948 -0.3328
  595MOL0     C82011   6.342   9.194   2.461 -0.5039 -0.4206  0.2205
  595MOL0     C82012   6.239   9.134   2.553  0.1704 -0.7440 -0.1749
  595MOL0     C82013   6.180   9.239   2.651  0.3365  0.5917 -0.0393
  595MOL0     C82014   6.109   9.154   2.753 -0.5712  0.5504 -0.4221
  595MOL0     C82015   6.048   9.229   2.872  0.1677  0.5751 -1.0564
  595MOL0     C82016   5.979   9.129   2.979 -0.2372  0.1099 -0.2237
  595MOL0    Cl82017   6.114   9.031   3.059  0.2130  0.1007  0.0324
  595MOL0     C82018   6.610   9.486   2.151  0.1508  0.3859  0.4695
  595MOL0     C82019   6.706   9.563   2.081  0.8876 -0.9092 -0.2383
  595MOL0     O82020   6.900   9.891   2.208 -0.8180  0.6061  0.0935
  595MOL0     C82021   7.103   9.796   1.930 -0.0456 -0.3184  0.5066
  595MOL0     C82022   7.211   9.844   1.849 -0.6783  0.0545 -0.1638
  595MOL0     N82023   7.486  10.422   1.450  0.3394  0.2380 -0.2918
  595MOL0     N82024   7.528  10.429   1.335  0.2644  0.0575  0.7779
  595MOL0     C82025   7.828  11.157   1.078  0.0674 -0.3376  0.1008
  595MOL0     C82026   7.962  11.187   1.094 -0.5749 -0.3327  0.2103
  595MOL0     C82027   8.322  11.415   1.202 -0.1404  0.4769  0.0946
  595MOL0     C82028   8.427  11.356   1.118  0.2038 -0.3908  0.1724
  595MOL0     C82029   8.558  11.389   1.139 -0.3475 -0.3206 -0.8029
  595MOL0     C82030   8.591  11.491   1.241  0.4929  1.2050 -0.0987
  595MOL0     O82031   8.720  11.513   1.274  0.3811  0.4458 -0.3842
  595MOL0     C82032   8.782  11.634   1.232  0.2273 -0.4093 -0.4493
  595MOL0     C82033   8.903  11.666   1.328  0.1340  0.0536 -0.0590
  595MOL0     C82034   8.991  11.761   1.254 -0.6453  0.0454  0.6919
  595MOL0     C82035   9.117  11.772   1.344  0.5502  0.7059  0.0492
  595MOL0     C82036   9.232  11.832   1.273  0.2612 -0.6237  0.7130
  595MOL0     C82037   9.318  11.878   1.201  1.0969 -0.9589  0.3790
  595MOL0     C82038   8.493  11.558   1.311  1.0445 -0.4126  0.0484
  595MOL0     C82039   8.358  11.524   1.293 -0.7604  0.2465  0.1706
  595MOL0     C82040   8.250  11.598   1.375 -0.4070  1.1993  0.1667
  595MOL0     H82041   8.012  11.366   0.814 -2.4779  4.3736  0.1752
  595MOL0     H82042   7.777  11.309   0.783 -3.6128 -0.7395  0.5335
  595MOL0     H82043   7.509  11.242   1.088  0.8471 -0.3459  1.9292
  595MOL0     H82044   7.584  11.087   1.130  0.0583  2.5560  1.3905
  595MOL0     H82045   7.327  11.106   1.031 -1.0396 -0.2635 -3.4452
  595MOL0     H82046   7.410  11.123   0.877  2.8545 -2.3610 -1.5043
  595MOL0     H82047   7.479  10.899   0.883 -0.3344  0.0848 -1.7724
  595MOL0     H82048   7.481  10.889   1.063 -2.2748  0.6123  0.8174
  595MOL0     H82049   7.244  10.871   1.070 -0.8616  3.5206 -0.3335
  595MOL0     H82050   7.225  10.904   0.905  1.6896  1.8444  1.0228
  595MOL0     H82051   7.333  10.690   0.846 -1.3943  2.4448 -0.0966
  595MOL0     H82052   7.206  10.661   0.961  1.1047 -2.5060  1.3903
  595MOL0     H82053   7.496  10.645   1.015 -0.2524 -0.3519  0.8215
  595MOL0     H82054   7.373  10.661   1.153  0.6219  2.2379 -0.2060
  595MOL0     H82055   7.395  10.443   0.926 -0.6875 -2.1689  1.0740
  595MOL0     H82056   7.259  10.476   1.048  0.0162 -1.1515 -0.9369
  595MOL0     H82057   7.410  10.271   1.087  0.9687 -0.3699 -1.9704
  595MOL0     H82058   7.542  10.389   1.110  0.2527  2.1554  0.4411
  595MOL0     H82059   7.236  10.293   1.312 -0.5716  1.1527  0.5542
  595MOL0     H82060   7.193  10.295   1.567  0.8397  2.0844 -3.3933
  595MOL0     H82061   7.291  10.422   1.652  1.4078 -1.3300  1.2153
  595MOL0     H82062   7.486  10.246   1.648 -0.4689  0.6012 -2.1225
  595MOL0     H82063   7.350  10.234   1.764 -1.7759 -3.2585 -1.2050
  595MOL0     H82064   7.230  10.067   1.605  0.8663  0.1065  0.7155
  595MOL0     H82065   7.354  10.087   1.495  0.6140  1.2811 -0.1275
  595MOL0     H82066   7.382   9.876   1.639 -0.0158 -2.3888  4.2165
  595MOL0     H82067   7.521   9.975   1.648 -0.4395 -1.8609 -2.0245
  595MOL0     H82068   7.323  10.103   2.017  1.0769 -1.7131  0.8529
  595MOL0     H82069   7.164  10.186   2.155  3.9199 -2.4479 -2.7412
  595MOL0     H82070   7.195  10.045   2.262 -0.1288 -0.7226 -0.9321
  595MOL0     H82071   7.035  10.108   2.236 -0.7172  0.1970 -1.1931
  595MOL0     H82072   6.876   9.690   2.348  0.5232  1.0582 -0.4393
  595MOL0     H82073   6.754   9.526   2.460 -1.1776  0.3047  0.5096
  595MOL0     H82074   6.641   9.374   2.529  0.0028  0.1574 -1.0638
  595MOL0     H82075   6.466   9.425   2.535  0.1723  1.7936 -0.1729
  595MOL0     H82076   6.538   9.134   2.467  0.0085 -1.7891  1.2494
  595MOL0     H82077   6.479   9.198   2.619 -1.7119  1.4931  0.0033
  595MOL0     H82078   6.351   9.123   2.378  3.1449 -0.7045  0.6774
  595MOL0     H82079   6.293   9.278   2.410  1.9538  0.3294 -1.0831
  595MOL0     H82080   6.284   9.056   2.614  2.7366  1.1388  0.5282
  595MOL0     H82081   6.160   9.093   2.490  0.7008 -0.2084 -1.2334
  595MOL0     H82082   6.256   9.307   2.692  0.8159  0.3721 -0.5480
  595MOL0     H82083   6.106   9.300   2.598 -0.6151 -1.2268 -0.9054
  595MOL0     H82084   6.188   9.106   2.810 -1.4699 -1.2426 -0.6217
  595MOL0     H82085   6.044   9.078   2.708 -0.4523 -0.1748  0.5915
  595MOL0     H82086   5.985   9.307   2.830 -1.5774  0.2074  0.6869
  595MOL0     H82087   6.137   9.262   2.927 -0.0439 -1.9519  1.0205
  595MOL0     H82088   5.901   9.062   2.939 -3.4761  2.7161  1.2624
  595MOL0     H82089   5.937   9.183   3.064  1.0361  1.1203 -0.2199
  595MOL0     H82090   6.525   9.438   2.105  0.4351 -0.5558  0.9077
  595MOL0     H82091   6.702   9.576   1.973 -1.3051  1.9373  0.0464
  595MOL0     H82092   7.047   9.711   1.892  2.8434 -1.9535 -0.4611
  595MOL0     H82093   7.238   9.799   1.754 -3.3979 -0.4178 -0.8000
  595MOL0     H82094   7.776  11.111   1.161 -3.0471  1.3776 -0.7486
  595MOL0     H82095   8.008  11.155   1.187 -1.7964 -2.9861 -0.0179
  595MOL0     H82096   8.414  11.273   1.050  0.8450 -1.9847  1.8977
  595MOL0     H82097   8.648  11.350   1.092  1.0092  0.9827  0.5949
  595MOL0     H82098   8.823  11.616   1.132 -3.3289 -3.1431 -1.6101
  595MOL0     H82099   8.715  11.719   1.216  1.8750  0.4441 -3.6714
  595MOL0     H82100   8.942  11.571   1.364 -2.0858  0.3246  3.5900
  595MOL0     H82101   8.865  11.716   1.418  3.9294 -0.3298  1.9402
  595MOL0     H82102   9.018  11.711   1.160 -0.5726  2.5370 -0.6935
  595MOL0     H82103   8.950  11.860   1.232 -0.1940  0.2966  0.9603
  595MOL0     H82104   9.148  11.670   1.368 -0.9690  0.3116  0.4670
  595MOL0     H82105   9.088  11.832   1.430 -1.9862  1.9149 -1.5161
  595MOL0     H82106   9.387  11.914   1.128  0.2466  4.2999  1.7809
  595MOL0     H82107   8.531  11.615   1.395 -2.6721 -1.2636  2.5274
  595MOL0     H82108   8.181  11.537   1.435 -0.8255  1.4799 -0.0216
  595MOL0     H82109   8.303  11.661   1.447  0.6546  0.9780 -0.3960
  595MOL0     H82110   8.181  11.653   1.310 -1.4455 -0.3163 -0.0779
  596MOL0     O82111   9.991   7.060  10.832  0.3703 -0.3836  0.3007
  596MOL0     C82112   9.928   7.129  10.912 -0.1529  0.5439 -0.4721
  596MOL0     O82113   9.878   7.254  10.894  0.7692 -0.8390 -0.3297
  596MOL0     C82114   9.919   7.308  10.774 -0.4010  0.4800 -0.6032
  596MOL0     C82115  10.010   7.413  10.773  0.7676  1.1196 -0.3314
  596MOL0     C82116  10.053   7.455  10.647  0.2029 -1.0567 -0.4092
  596MOL0     C82117   9.994   7.406  10.528  0.4747 -0.7181 -0.4785
  596MOL0     O82118  10.047   7.459  10.414  0.0367 -0.0941 -0.2968
  596MOL0     C82119   9.996   7.427  10.285  0.2446  0.8196 -0.1204
  596MOL0     C82120  10.071   7.511  10.182  0.4368  0.1798 -0.4073
  596MOL0     C82121  10.220   7.474  10.169  0.3529 -0.4922 -0.3316
  596MOL0     C82122  10.255   7.490  10.022 -0.5176 -1.0783 -0.9083
  596MOL0     C82123  10.300   7.634   9.979  0.0962  0.1127 -0.0741
  596MOL0     C82124  10.190   7.745   9.983 -0.3091 -1.6289  0.5302
  596MOL0     C82125  10.245   7.890   9.953 -0.1145 -0.1113  0.2931
  596MOL0     C82126  10.281   7.916   9.811 -0.3889 -0.3475  0.2129
  596MOL0     N82127  10.410   7.857   9.766  0.9557  0.2961 -0.5394
  596MOL0     C82128  10.423   7.757   9.673  0.1738  0.9818 -0.4895
  596MOL0     C82129  10.549   7.756   9.631 -0.1458 -0.6808 -0.7924
  596MOL0     C82130  10.606   7.664   9.531  0.5031 -0.1249 -0.2440
  596MOL0     C82131  10.596   7.739   9.401  0.2201  0.0442 -0.1992
  596MOL0     C82132  10.453   7.718   9.353 -0.2278  0.0809  0.5660
  596MOL0     C82133  10.454   7.670   9.208 -0.5280 -0.1776 -0.3345
  596MOL0     O82134  10.320   7.631   9.166 -0.6314 -0.3692  0.1462
  596MOL0     C82135  10.221   7.728   9.149  0.1563 -0.2701 -0.6783
  596MOL0     C82136  10.233   7.861   9.130  0.4050  0.1179 -0.0640
  596MOL0     C82137  10.130   7.948   9.107  0.2356 -0.6941  0.3910
  596MOL0     C82138  10.179   8.087   9.087 -0.5957 -0.7924  0.7296
  596MOL0     C82139  10.002   7.905   9.102  0.6289  0.2220 -0.3098
  596MOL0     C82140   9.874   7.988   9.086  0.3987 -0.4679  0.1140
  596MOL0     O82141   9.758   7.917   9.055 -0.0608 -0.8853  0.0081
  596MOL0     C82142   9.645   7.983   9.019  0.7699 -0.1745 -0.0906
  596MOL0     C82143   9.572   8.057   9.109  0.3721 -0.3358 -0.3105
  596MOL0     C82144   9.457   8.136   9.073  0.0280  0.2919 -0.7102
  596MOL0     C82145   9.403   8.128   8.953 -0.3979  0.2271  0.9638
  596MOL0     O82146   9.300   8.200   8.900  0.1974  0.1393  0.6695
  596MOL0     C82147   9.200   8.246   8.992 -0.2731 -0.0961 -0.1034
  596MOL0     C82148   9.072   8.279   8.922 -0.2376 -0.5198 -0.0456
  596MOL0     C82149   9.016   8.143   8.871 -0.2725 -0.5197 -0.2354
  596MOL0     C82150   8.855   8.145   8.871  0.2066  1.0354  0.3116
  596MOL0     C82151   8.796   8.229   8.756 -0.7768 -0.4662 -1.0492
  596MOL0     C82152   8.662   8.177   8.716  0.1894 -1.0630 -0.9466
  596MOL0     C82153   8.551   8.197   8.821  0.0040  0.4555 -0.0361
  596MOL0     C82154   8.422   8.111   8.794 -0.2750  0.0937 -0.2091
  596MOL0    Cl82155   8.442   7.940   8.828  0.3185 -0.1115  0.0472
  596MOL0     C82156   9.469   8.048   8.862 -0.1246  0.1861 -0.5539
  596MOL0     C82157   9.592   7.983   8.888 -0.3728  0.4381 -0.1915
  596MOL0     O82158   9.880   8.110   9.106  0.1321 -0.4613 -0.1539
  596MOL0     C82159   9.980   7.763   9.125 -0.1073 -0.2891 -0.2454
  596MOL0     C82160  10.086   7.674   9.145  0.5899  0.2656 -0.1051
  596MOL0     N82161  10.612   7.863   9.697 -0.2204  0.0998 -0.2263
  596MOL0     N82162  10.527   7.919   9.776  0.2151  0.6241  0.2488
  596MOL0     C82163   9.884   7.314  10.529  0.7251 -0.4964 -0.4232
  596MOL0     C82164   9.854   7.263  10.657  0.3479 -0.0405 -0.6148
  596MOL0     C82165   9.887   7.070  11.031 -0.2743  0.4840 -0.2043
  596MOL0     C82166   9.932   7.101  11.162 -0.3164 -0.3501  0.0787
  596MOL0     C82167   9.892   7.043  11.283  0.4733 -1.4893  0.7686
  596MOL0     C82168   9.791   6.947  11.277  0.4330 -0.7203  0.1413
  596MOL0     O82169   9.712   6.904  11.382 -0.1312  0.3853  0.5392
  596MOL0     C82170   9.787   6.876  11.494 -1.3977  0.3291  1.2330
  596MOL0     C82171   9.699   6.791  11.588 -0.2940 -0.7022 -0.5409
  596MOL0     C82172   9.565   6.866  11.624 -0.4802 -0.0358  0.3086
  596MOL0     C82173   9.568   7.004  11.683 -0.1042 -0.2926  1.0071
  596MOL0     C82174   9.629   7.009  11.815 -0.0870  0.4429  0.0010
  596MOL0     C82175   9.693   7.018  11.917 -0.3641 -0.1006  0.3605
  596MOL0     C82176   9.743   6.912  11.146  0.2356  0.2860 -0.2305
  596MOL0     C82177   9.790   6.964  11.020 -0.0467  0.2458  1.0104
  596MOL0     C82178   9.756   6.898  10.886  0.2624 -0.0808  0.5741
  596MOL0     H82179  10.059   7.439  10.867 -2.2384 -0.6694  1.9193
  596MOL0     H82180  10.125   7.536  10.646 -2.9082  1.9421 -1.8056
  596MOL0     H82181   9.887   7.434  10.291  0.2015 -0.6957  1.4826
  596MOL0     H82182  10.024   7.324  10.258 -0.0947  0.1653  1.8655
  596MOL0     H82183  10.016   7.507  10.087 -0.3194 -1.2753  0.0598
  596MOL0     H82184  10.052   7.617  10.204 -6.7497 -0.8319  0.8327
  596MOL0     H82185  10.285   7.533  10.234 -2.3041  0.1695  1.9086
  596MOL0     H82186  10.238   7.368  10.194  1.0394 -0.7801 -1.9424
  596MOL0     H82187  10.337   7.419  10.010  0.7824 -0.1657  1.8080
  596MOL0     H82188  10.168   7.455   9.966 -1.4782 -1.5555  0.7985
  596MOL0     H82189  10.341   7.623   9.878  0.3472 -0.2612  0.0652
  596MOL0     H82190  10.383   7.667  10.042  0.1642 -0.1818 -0.0081
  596MOL0     H82191  10.105   7.723   9.919 -1.6196  3.9645 -0.1443
  596MOL0     H82192  10.154   7.761  10.085 -5.0313  3.1990 -1.4382
  596MOL0     H82193  10.335   7.909  10.014 -0.9859 -1.1398  1.9833
  596MOL0     H82194  10.166   7.961   9.978  1.1128  1.0651  0.9800
  596MOL0     H82195  10.199   7.892   9.742 -2.0079 -2.4565  2.6669
  596MOL0     H82196  10.290   8.025   9.811  0.3548 -0.3971 -0.6809
  596MOL0     H82197  10.347   7.679   9.666  1.2825 -0.1521 -0.1684
  596MOL0     H82198  10.550   7.570   9.528 -3.0613  1.7178  1.5876
  596MOL0     H82199  10.707   7.638   9.561  0.0442 -0.8395  0.7504
  596MOL0     H82200  10.623   7.845   9.401  0.3374  0.1266  3.1086
  596MOL0     H82201  10.660   7.697   9.322 -3.5093 -1.1377 -2.8425
  596MOL0     H82202  10.399   7.640   9.407 -3.0126  0.4946 -1.4445
  596MOL0     H82203  10.407   7.817   9.348 -0.6961 -0.2080 -2.2975
  596MOL0     H82204  10.485   7.745   9.135 -1.0296  0.8153  0.4446
  596MOL0     H82205  10.523   7.586   9.199  1.2010  1.0795  0.5813
  596MOL0     H82206  10.336   7.896   9.130  0.4940 -0.1394 -0.3357
  596MOL0     H82207  10.145   8.125   8.990 -0.8935  2.1698  1.9096
  596MOL0     H82208  10.289   8.086   9.085 -0.6070 -1.2956  0.1612
  596MOL0     H82209  10.132   8.151   9.162 -2.9332  0.1824 -1.4200
  596MOL0     H82210   9.612   8.058   9.210  0.6350  1.2907 -0.4062
  596MOL0     H82211   9.399   8.196   9.143 -0.8884  1.4594 -2.4125
  596MOL0     H82212   9.180   8.176   9.074  0.0487  0.2821  0.2978
  596MOL0     H82213   9.241   8.338   9.034  0.7694  0.1556 -1.5832
  596MOL0     H82214   9.006   8.344   8.981  2.3392  1.6731  0.6289
  596MOL0     H82215   9.123   8.344   8.851 -0.9936  0.7387  0.5074
  596MOL0     H82216   9.044   8.067   8.944 -2.8197  2.7047  4.6588
  596MOL0     H82217   9.046   8.132   8.767  2.3243 -1.8757  0.5815
  596MOL0     H82218   8.824   8.173   8.971  0.2755  2.2176  0.0166
  596MOL0     H82219   8.814   8.046   8.852 -2.5890  2.4921 -1.9113
  596MOL0     H82220   8.797   8.337   8.774  0.1686 -0.6029 -0.2072
  596MOL0     H82221   8.859   8.215   8.667 -0.3971  1.0686 -1.0409
  596MOL0     H82222   8.685   8.071   8.700 -0.9506 -1.4570 -0.0885
  596MOL0     H82223   8.636   8.212   8.615  3.8399 -1.6037 -2.2330
  596MOL0     H82224   8.510   8.298   8.826 -2.3867 -0.4534  0.3985
  596MOL0     H82225   8.597   8.180   8.918 -0.1124  1.3758  0.1851
  596MOL0     H82226   8.392   8.125   8.689  1.2615  1.5007 -0.5032
  596MOL0     H82227   8.337   8.146   8.852  0.0469  0.3434  0.1102
  596MOL0     H82228   9.431   8.046   8.761 -0.2462 -0.1224 -0.5032
  596MOL0     H82229   9.632   7.922   8.807 -2.2535 -0.2687 -0.6237
  596MOL0     H82230   9.882   7.721   9.109 -1.7791  2.7919  1.1797
  596MOL0     H82231  10.067   7.567   9.144 -1.8708  0.6363  0.6001
  596MOL0     H82232   9.835   7.277  10.439  0.2536 -0.6114 -0.1253
  596MOL0     H82233   9.774   7.192  10.675 -0.0575 -0.6621 -4.1741
  596MOL0     H82234   9.994   7.189  11.179 -0.3825 -0.4631  0.9641
  596MOL0     H82235   9.921   7.082  11.380 -1.1031  1.4521  0.1714
  596MOL0     H82236   9.876   6.820  11.465 -0.4939  0.9456  2.7000
  596MOL0     H82237   9.824   6.970  11.537  3.7981 -1.0375  0.4081
  596MOL0     H82238   9.742   6.782  11.688 -4.2072  0.8183  1.4957
  596MOL0     H82239   9.685   6.693  11.541 -0.8843 -1.1996  0.6111
  596MOL0     H82240   9.495   6.880  11.540 -0.7596 -4.4363 -0.4247
  596MOL0     H82241   9.518   6.794  11.691 -0.4506 -1.8212 -1.4797
  596MOL0     H82242   9.466   7.031  11.711 -0.8369  2.1030 -3.1431
  596MOL0     H82243   9.612   7.079  11.616  0.6441 -1.1795  0.4679
  596MOL0     H82244   9.741   7.034  12.012 -0.3253 -0.4532  0.4027
  596MOL0     H82245   9.666   6.835  11.148 -1.4289  1.8733  1.4082
  596MOL0     H82246   9.682   6.821  10.911 -1.9389  1.8056  0.3043
  596MOL0     H82247   9.714   6.965  10.811  2.6472 -2.0725 -2.7933
  596MOL0     H82248   9.843   6.848  10.843 -0.3827 -1.5042  0.8527
  597MOL0     O82249   8.533   3.218   4.446 -0.0074 -0.4122  0.0787
  597MOL0     C82250   8.454   3.304   4.486 -0.2918 -0.5536  0.0282
  597MOL0     O82251   8.452   3.363   4.613 -0.3019 -0.0144 -0.1838
  597MOL0     C82252   8.565   3.369   4.684 -0.8808 -1.7436  0.0331
  597MOL0     C82253   8.563   3.347   4.822  0.3788 -0.6513 -0.3100
  597MOL0     C82254   8.678   3.345   4.908  0.3960 -0.0472  0.8468
  597MOL0     C82255   8.794   3.395   4.836 -0.5194  0.1459  0.2958
  597MOL0     O82256   8.923   3.411   4.888  0.1538  0.2623 -0.0334
  597MOL0     C82257   8.981   3.308   4.974  0.0619 -1.0044  0.2533
  597MOL0     C82258   8.963   3.177   4.910 -0.5403  0.2745  0.2529
  597MOL0     C82259   9.048   3.065   4.981 -0.0927 -0.7812  0.8789
  597MOL0     C82260   9.020   2.931   4.924  0.0840  0.4207  0.2509
  597MOL0     C82261   9.104   2.815   4.975  1.0748  0.2209 -0.5359
  597MOL0     C82262   9.094   2.797   5.121  0.1776 -0.2171  0.0171
  597MOL0     C82263   9.171   2.682   5.170 -1.4300  0.5397  1.0486
  597MOL0     C82264   9.094   2.549   5.185  0.2343  0.1911  0.1971
  597MOL0     N82265   8.979   2.562   5.285 -0.3259  0.6759  0.3452
  597MOL0     C82266   8.990   2.595   5.414  0.6975  0.4307  1.0021
  597MOL0     C82267   8.861   2.592   5.462 -0.5445 -0.4816 -0.3036
  597MOL0     C82268   8.824   2.646   5.598 -0.3984  0.7230 -0.6693
  597MOL0     C82269   8.802   2.546   5.718  0.5986 -0.2624 -0.1808
  597MOL0     C82270   8.688   2.447   5.693  0.0850 -0.5190 -0.4920
  597MOL0     C82271   8.674   2.326   5.784  0.8786 -0.7853 -0.2911
  597MOL0     O82272   8.635   2.351   5.914 -0.2621  0.5948  0.8753
  597MOL0     C82273   8.686   2.266   6.011 -0.6924 -0.2416  0.2357
  597MOL0     C82274   8.824   2.266   6.042 -0.0372  0.3181  1.1130
  597MOL0     C82275   8.879   2.189   6.139 -0.6376  0.7683 -0.3963
  597MOL0     C82276   9.028   2.220   6.178 -0.3763 -0.1677  0.6225
  597MOL0     C82277   8.791   2.114   6.221  0.3027  0.3525 -0.7703
  597MOL0     C82278   8.828   2.049   6.351  0.3424  0.7287  0.2314
  597MOL0     O82279   8.739   1.953   6.397  0.7548  0.0587 -0.5073
  597MOL0     C82280   8.777   1.879   6.509 -0.4228 -0.6257 -0.4114
  597MOL0     C82281   8.697   1.889   6.626  0.2949  0.0135  0.6675
  597MOL0     C82282   8.713   1.800   6.732  0.6370 -0.4554 -0.3742
  597MOL0     C82283   8.809   1.696   6.714  0.6154  0.4655  0.0649
  597MOL0     O82284   8.833   1.602   6.814 -0.3787  0.6097  0.2965
  597MOL0     C82285   8.789   1.607   6.949  0.0779  0.6873  0.2424
  597MOL0     C82286   8.647   1.553   6.968  1.0568  0.1514 -0.3887
  597MOL0     C82287   8.642   1.410   6.922  1.4092  0.6307 -0.7258
  597MOL0     C82288   8.505   1.348   6.961  0.0912  0.1705  0.0701
  597MOL0     C82289   8.499   1.191   6.966 -0.1353  1.1388  0.0505
  597MOL0     C82290   8.360   1.154   7.017  0.4499 -0.1499 -0.0882
  597MOL0     C82291   8.352   1.019   7.079  0.3072 -0.2508  0.5795
  597MOL0     C82292   8.198   0.986   7.122 -0.1557  0.1205 -0.1839
  597MOL0    Cl82293   8.190   0.801   7.153 -0.2314 -0.0092  0.5167
  597MOL0     C82294   8.898   1.695   6.608  0.8994  0.3977  0.4276
  597MOL0     C82295   8.879   1.786   6.501  0.7151 -0.4630  0.2652
  597MOL0     O82296   8.925   2.083   6.414 -0.1852 -0.0242 -0.0548
  597MOL0     C82297   8.650   2.114   6.184  0.2708  0.7092 -1.0787
  597MOL0     C82298   8.606   2.188   6.089 -0.2923  0.2842  0.0766
  597MOL0     N82299   8.777   2.547   5.358 -0.0063 -0.2853  0.3900
  597MOL0     N82300   8.851   2.533   5.253 -0.5227 -0.2559  0.4260
  597MOL0     C82301   8.797   3.428   4.699 -1.1086 -0.1493 -0.3899
  597MOL0     C82302   8.690   3.409   4.625  0.8549 -0.9514 -0.4949
  597MOL0     C82303   8.333   3.342   4.401  0.6868  0.2204  0.4365
  597MOL0     C82304   8.202   3.333   4.461 -0.2643 -0.1796 -0.0762
  597MOL0     C82305   8.089   3.367   4.390  0.4749  0.8440 -0.1871
  597MOL0     C82306   8.104   3.403   4.261  0.0769 -0.6468  0.8228
  597MOL0     O82307   8.001   3.468   4.206 -0.1047  0.0032 -0.4995
  597MOL0     C82308   8.004   3.547   4.093  0.1078 -0.0384  0.0867
  597MOL0     C82309   7.863   3.600   4.071 -0.2170 -0.0487 -0.3370
  597MOL0     C82310   7.760   3.492   4.026 -0.0317 -0.3630  0.0668
  597MOL0     C82311   7.617   3.493   4.108  0.4743 -1.2821 -0.1050
  597MOL0     C82312   7.566   3.636   4.131 -0.3691 -0.8011  0.1566
  597MOL0     C82313   7.534   3.755   4.135 -0.7642 -0.5033  1.0233
  597MOL0     C82314   8.229   3.408   4.201  0.4122  1.1712  0.0204
  597MOL0     C82315   8.342   3.374   4.267  0.2015  0.7773 -0.2779
  597MOL0     C82316   8.481   3.374   4.193 -0.2396  0.1879 -0.0602
  597MOL0     H82317   8.463   3.322   4.855  0.5425 -1.3399 -0.3169
  597MOL0     H82318   8.677   3.319   5.013  0.0404  3.7586  1.9269
  597MOL0     H82319   8.933   3.314   5.073  0.0118  0.6727  0.1629
  597MOL0     H82320   9.088   3.329   4.983 -0.2946  0.5776  1.2756
  597MOL0     H82321   8.858   3.149   4.915 -0.2586 -0.6223  1.4343
  597MOL0     H82322   8.999   3.191   4.807  1.3028  2.5146  1.1018
  597MOL0     H82323   9.153   3.085   4.961 -0.4958  3.1308  1.7025
  597MOL0     H82324   9.030   3.071   5.089 -0.3942 -1.7207  0.8886
  597MOL0     H82325   8.914   2.909   4.942  0.1263  0.0899  0.0974
  597MOL0     H82326   9.010   2.925   4.815  1.8664 -1.9140  0.1296
  597MOL0     H82327   9.210   2.828   4.953  1.4603  0.8146  1.5088
  597MOL0     H82328   9.073   2.720   4.930 -2.4219  1.5881 -1.3417
  597MOL0     H82329   9.136   2.887   5.167  0.4554  0.1645 -0.9398
  597MOL0     H82330   8.991   2.775   5.149 -0.4303  1.3541 -0.8449
  597MOL0     H82331   9.194   2.692   5.276  0.1304 -0.6764  0.8763
  597MOL0     H82332   9.258   2.671   5.105 -0.6732  1.8330  1.8049
  597MOL0     H82333   9.040   2.532   5.091  2.8223 -0.4425 -1.2895
  597MOL0     H82334   9.157   2.463   5.211  0.1813 -0.0657 -0.4930
  597MOL0     H82335   9.082   2.617   5.468  1.8414  1.4981 -1.2332
  597MOL0     H82336   8.727   2.696   5.584 -0.3873  1.8737  2.5265
  597MOL0     H82337   8.892   2.725   5.630 -2.2340  1.0253  3.0962
  597MOL0     H82338   8.895   2.493   5.742  0.8690 -0.9520 -2.4999
  597MOL0     H82339   8.763   2.605   5.802  4.1475 -1.2538  2.4017
  597MOL0     H82340   8.595   2.504   5.700  1.0570  0.9139  1.7561
  597MOL0     H82341   8.693   2.396   5.596 -0.7221 -3.2393  0.8172
  597MOL0     H82342   8.591   2.268   5.742 -0.6147  3.7152 -4.3870
  597MOL0     H82343   8.756   2.254   5.779  1.1969 -0.6231  1.7198
  597MOL0     H82344   8.891   2.307   5.967 -1.6778  1.7426  0.3537
  597MOL0     H82345   9.103   2.142   6.187  0.5386  0.5433 -0.4787
  597MOL0     H82346   9.021   2.276   6.272 -0.5949 -0.1542  0.5998
  597MOL0     H82347   9.074   2.283   6.101 -0.2902  0.4173  1.1448
  597MOL0     H82348   8.617   1.962   6.635  0.0480 -0.0376 -0.8920
  597MOL0     H82349   8.633   1.810   6.805  0.2913  2.0561 -0.9984
  597MOL0     H82350   8.863   1.556   7.011  0.1544  2.1310  1.4038
  597MOL0     H82351   8.788   1.711   6.983 -3.2771  0.7942  0.1415
  597MOL0     H82352   8.628   1.566   7.074 -4.0011  1.0158 -1.1523
  597MOL0     H82353   8.571   1.614   6.918  0.7985  0.1930  0.0481
  597MOL0     H82354   8.713   1.353   6.982  0.9799 -0.3689 -1.1446
  597MOL0     H82355   8.656   1.385   6.816  0.3490 -0.6081 -0.6022
  597MOL0     H82356   8.431   1.376   6.886  0.6720  0.1456 -0.5258
  597MOL0     H82357   8.485   1.389   7.060  1.8902  1.5868 -0.0977
  597MOL0     H82358   8.517   1.147   6.867  2.0743  0.3677  0.7280
  597MOL0     H82359   8.582   1.152   7.026  1.4175 -0.4338 -2.8903
  597MOL0     H82360   8.281   1.170   6.944 -0.9493 -2.0438  0.9249
  597MOL0     H82361   8.332   1.224   7.096 -0.8983  1.0581 -1.5922
  597MOL0     H82362   8.419   1.004   7.164  0.6119  0.4613  0.4724
  597MOL0     H82363   8.386   0.948   7.004  4.2071 -0.2039  2.0990
  597MOL0     H82364   8.129   1.017   7.043 -2.5959 -1.2059  1.3052
  597MOL0     H82365   8.189   1.033   7.220 -2.2272 -1.1470  0.2854
  597MOL0     H82366   8.978   1.623   6.596  1.6619  1.5032 -1.5330
  597MOL0     H82367   8.936   1.775   6.409 -0.8460 -0.2677 -0.7708
  597MOL0     H82368   8.570   2.066   6.238  1.1064 -0.0099 -0.4454
  597MOL0     H82369   8.500   2.187   6.066 -0.5807  1.2230  1.2374
  597MOL0     H82370   8.887   3.449   4.642 -1.9055  0.5872 -1.4091
  597MOL0     H82371   8.692   3.422   4.518 -0.8977 -1.1712 -0.5908
  597MOL0     H82372   8.187   3.293   4.560  1.7534  1.7787  1.1353
  597MOL0     H82373   7.995   3.348   4.440  0.7483 -4.3710 -1.0718
  597MOL0     H82374   8.068   3.634   4.105 -0.8921  0.3789  3.2247
  597MOL0     H82375   8.038   3.493   4.004 -3.5228  1.1463 -2.2576
  597MOL0     H82376   7.877   3.687   4.007  3.2575 -0.7849 -0.7298
  597MOL0     H82377   7.833   3.645   4.166  0.4365  1.0360 -0.6256
  597MOL0     H82378   7.739   3.525   3.924  1.3485  0.2422 -0.0306
  597MOL0     H82379   7.798   3.391   4.043 -0.5109 -0.6536 -0.5311
  597MOL0     H82380   7.633   3.455   4.209 -0.8486 -1.2660  0.1295
  597MOL0     H82381   7.545   3.424   4.063 -0.1797  2.0204 -4.9661
  597MOL0     H82382   7.498   3.856   4.139 -0.4399 -0.3937  1.2187
  597MOL0     H82383   8.245   3.436   4.097 -1.0562 -2.5253 -1.3576
  597MOL0     H82384   8.526   3.276   4.214 -0.0095  0.0412 -1.1765
  597MOL0     H82385   8.482   3.376   4.084 -1.6383 -0.9940 -0.1306
  597MOL0     H82386   8.554   3.450   4.221  0.5206 -1.2945  2.3516
  598MOL0     O82387   9.520   8.897   9.785  0.1127  0.5863 -0.3235
  598MOL0     C82388   9.470   8.785   9.749 -0.2798 -0.5009 -0.8382
  598MOL0     O82389   9.415   8.753   9.631  1.4245 -1.2209  0.9881
  598MOL0     C82390   9.423   8.842   9.525  1.4061  0.4901 -0.1456
  598MOL0     C82391   9.312   8.878   9.459  0.0212 -0.1266  0.7064
  598MOL0     C82392   9.319   8.947   9.343 -0.1151  0.1720  0.6577
  598MOL0     C82393   9.434   9.004   9.295  0.1464 -0.7678 -0.0314
  598MOL0     O82394   9.434   9.082   9.174  0.1311  0.4785  0.6153
  598MOL0     C82395   9.311   9.094   9.103  0.2679 -1.9911 -0.4157
  598MOL0     C82396   9.331   9.162   8.968 -0.3556  0.1832  0.4047
  598MOL0     C82397   9.366   9.308   8.975 -0.3516  0.6041 -0.2242
  598MOL0     C82398   9.419   9.351   8.835 -1.4706  0.0457  0.6815
  598MOL0     C82399   9.420   9.507   8.833 -0.8008  0.6801 -0.6546
  598MOL0     C82400   9.481   9.557   8.696  0.2506  0.4023 -1.2581
  598MOL0     C82401   9.472   9.703   8.667 -0.3594  0.4048 -0.0641
  598MOL0     C82402   9.563   9.722   8.551  0.0884 -0.8548  0.3856
  598MOL0     N82403   9.591   9.873   8.532  0.2713  0.1069  0.1013
  598MOL0     C82404   9.500   9.984   8.525 -0.7021  0.0794 -0.6241
  598MOL0     C82405   9.564  10.091   8.493 -0.1446  0.7940  0.2753
  598MOL0     C82406   9.506  10.228   8.502 -0.0798  0.5235 -0.0527
  598MOL0     C82407   9.538  10.325   8.390  0.0292 -0.0730 -0.1910
  598MOL0     C82408   9.668  10.306   8.327  0.2422 -0.5189 -0.6372
  598MOL0     C82409   9.697  10.422   8.248  0.5565  0.2452  0.5722
  598MOL0     O82410   9.828  10.405   8.186  0.5825 -0.2934  0.3310
  598MOL0     C82411   9.861  10.500   8.091 -0.1006  0.5928 -0.3998
  598MOL0     C82412   9.797  10.627   8.081 -0.6458  0.0999 -0.7749
  598MOL0     C82413   9.827  10.710   7.968 -0.4211 -0.5668  0.0450
  598MOL0     C82414   9.770  10.850   7.962  0.0684  0.3433 -0.4629
  598MOL0     C82415   9.902  10.654   7.859  0.6673 -0.3407 -0.0560
  598MOL0     C82416   9.936  10.706   7.726  0.8866 -0.3906 -0.1742
  598MOL0     O82417  10.068  10.727   7.697  0.1062 -0.8463 -0.4108
  598MOL0     C82418  10.093  10.820   7.601 -1.0179 -0.2023 -0.6562
  598MOL0     C82419  10.128  10.947   7.654  0.1141  0.0692  0.0924
  598MOL0     C82420  10.161  11.051   7.568 -0.6736 -0.3051  0.8079
  598MOL0     C82421  10.158  11.032   7.433 -0.3744  0.5977 -0.1983
  598MOL0     O82422  10.196  11.142   7.358  0.1486 -0.1495  0.7104
  598MOL0     C82423  10.209  11.125   7.218 -0.6327  0.2864  1.2559
  598MOL0     C82424  10.240  11.265   7.168 -0.1309 -0.6024  0.5119
  598MOL0     C82425  10.375  11.312   7.199 -0.4047  0.7345  0.2391
  598MOL0     C82426  10.397  11.449   7.150 -0.8229 -1.2854 -0.0784
  598MOL0     C82427  10.527  11.501   7.193  0.5546  0.6849 -0.3581
  598MOL0     C82428  10.545  11.653   7.170 -0.1506 -0.5520  0.6088
  598MOL0     C82429  10.684  11.689   7.208 -0.3153  0.5226 -0.0648
  598MOL0     C82430  10.683  11.826   7.274 -0.0422 -0.3523  0.1285
  598MOL0    Cl82431  10.680  11.815   7.451  0.2600  0.5374 -0.1792
  598MOL0     C82432  10.132  10.906   7.383  0.0076 -0.3964  0.4278
  598MOL0     C82433  10.089  10.799   7.468  0.4145  0.9720  0.8768
  598MOL0     O82434   9.838  10.729   7.654 -0.7085  0.1640 -0.5032
  598MOL0     C82435   9.968  10.528   7.871 -0.6279 -0.4854  0.1724
  598MOL0     C82436   9.936  10.455   7.984 -1.2326  0.0501 -0.3798
  598MOL0     N82437   9.698  10.055   8.499 -0.1368 -0.0652 -0.3333
  598MOL0     N82438   9.714   9.930   8.521  0.2578 -0.3865 -0.6911
  598MOL0     C82439   9.553   8.977   9.366  0.9222  0.3561 -0.8420
  598MOL0     C82440   9.546   8.898   9.484  0.8831 -0.2091 -0.0590
  598MOL0     C82441   9.456   8.674   9.852  0.5281 -0.6666 -0.5026
  598MOL0     C82442   9.349   8.583   9.830 -0.1957 -0.9051 -0.2667
  598MOL0     C82443   9.345   8.461   9.894  0.6038 -0.8742 -0.9096
  598MOL0     C82444   9.440   8.432   9.997  0.1485 -0.0612  0.2103
  598MOL0     O82445   9.411   8.316  10.070 -0.0948 -0.0669  0.5068
  598MOL0     C82446   9.521   8.243  10.131 -0.8241 -0.2397 -1.2745
  598MOL0     C82447   9.471   8.116  10.181  0.6657  0.7649  0.7830
  598MOL0     C82448   9.431   8.042  10.058  1.9916  0.0573 -0.3087
  598MOL0     C82449   9.383   7.890  10.089  0.2828 -0.1356 -1.0935
  598MOL0     C82450   9.309   7.837   9.979 -0.4723 -0.2579 -1.3525
  598MOL0     C82451   9.254   7.767   9.894  0.1201 -0.3241  0.5402
  598MOL0     C82452   9.543   8.521  10.020  0.2651 -0.0620 -0.0409
  598MOL0     C82453   9.562   8.639   9.945  0.3345 -0.3028 -0.3532
  598MOL0     C82454   9.682   8.724   9.968 -0.3215  0.2840  0.2223
  598MOL0     H82455   9.218   8.832   9.490 -0.4616  1.8713  2.4495
  598MOL0     H82456   9.221   8.952   9.295 -0.2164 -0.6076  0.7667
  598MOL0     H82457   9.251   9.156   9.170  0.9840  0.4089 -1.9083
  598MOL0     H82458   9.253   9.002   9.091 -2.5275 -0.1698 -1.7245
  598MOL0     H82459   9.410   9.098   8.928 -2.0417 -1.2842 -0.7816
  598MOL0     H82460   9.240   9.148   8.909 -1.2014  1.2843  1.3868
  598MOL0     H82461   9.276   9.364   8.998 -1.5386  0.2721 -3.4990
  598MOL0     H82462   9.436   9.330   9.057 -0.5315 -1.5381  0.5860
  598MOL0     H82463   9.525   9.325   8.825 -1.8454 -0.9637 -0.9837
  598MOL0     H82464   9.378   9.294   8.751 -0.1355 -0.2937  0.2279
  598MOL0     H82465   9.468   9.541   8.926  1.4485 -0.0613 -1.4858
  598MOL0     H82466   9.319   9.551   8.832 -0.5647  1.2168 -1.5231
  598MOL0     H82467   9.586   9.536   8.717  0.0901 -0.6562 -1.4424
  598MOL0     H82468   9.446   9.487   8.619  1.8421  1.0517 -2.6183
  598MOL0     H82469   9.506   9.770   8.746  2.1290  1.0997 -1.6402
  598MOL0     H82470   9.368   9.733   8.646 -0.6284  0.1614  0.8478
  598MOL0     H82471   9.664   9.684   8.570  1.2200  0.2369 -2.7500
  598MOL0     H82472   9.527   9.680   8.456  2.7659 -3.3225  0.3174
  598MOL0     H82473   9.392   9.977   8.526 -0.7411 -4.5407 -3.7690
  598MOL0     H82474   9.542  10.263   8.599 -0.3890  0.2534  0.1610
  598MOL0     H82475   9.398  10.210   8.505 -0.4510  2.6176  0.4840
  598MOL0     H82476   9.457  10.315   8.317  1.2582  4.0014 -2.4835
  598MOL0     H82477   9.523  10.426   8.431 -0.2779  0.4831 -1.6112
  598MOL0     H82478   9.737  10.302   8.411 -0.9578 -2.3504  0.3475
  598MOL0     H82479   9.685  10.219   8.264  1.4943 -1.9886  1.5762
  598MOL0     H82480   9.612  10.436   8.181  1.3436  1.9793 -0.1257
  598MOL0     H82481   9.715  10.513   8.305 -1.7592  2.4556 -1.9639
  598MOL0     H82482   9.732  10.660   8.161  0.7526 -2.4813  1.5739
  598MOL0     H82483   9.852  10.914   7.998  1.2511 -1.9899  1.3281
  598MOL0     H82484   9.690  10.873   8.033 -1.6268  0.2433 -2.2752
  598MOL0     H82485   9.737  10.881   7.863  1.9163  1.2617 -0.8504
  598MOL0     H82486  10.122  10.966   7.761  2.0401 -0.2564  0.2906
  598MOL0     H82487  10.202  11.141   7.613 -2.3532  1.4617 -0.9679
  598MOL0     H82488  10.287  11.054   7.188 -1.8015  0.5007 -2.8934
  598MOL0     H82489  10.112  11.103   7.173  0.9738 -3.2195 -0.9469
  598MOL0     H82490  10.222  11.258   7.061  0.8563 -0.0539  0.3051
  598MOL0     H82491  10.181  11.344   7.216 -0.2300 -0.1517 -0.3437
  598MOL0     H82492  10.445  11.238   7.158 -3.3924 -2.4030  0.3112
  598MOL0     H82493  10.385  11.308   7.308 -3.4996 -0.6399  0.5988
  598MOL0     H82494  10.338  11.532   7.191  0.0033 -0.0577 -1.2736
  598MOL0     H82495  10.392  11.447   7.041  0.7222 -0.8416 -0.1913
  598MOL0     H82496  10.531  11.487   7.301 -3.9314 -1.2391 -0.1980
  598MOL0     H82497  10.608  11.449   7.140  2.3197  0.5855  2.2806
  598MOL0     H82498  10.474  11.706   7.233  0.3522 -1.8007  2.3048
  598MOL0     H82499  10.518  11.686   7.069 -3.3834 -2.2433  0.7964
  598MOL0     H82500  10.758  11.689   7.127  0.4864 -1.3040  0.6065
  598MOL0     H82501  10.712  11.611   7.280  0.4363 -0.4760 -1.3951
  598MOL0     H82502  10.601  11.880   7.225 -0.0137 -1.4849 -1.2247
  598MOL0     H82503  10.769  11.883   7.237  0.5374  0.3632  2.4449
  598MOL0     H82504  10.120  10.902   7.275 -1.5919  2.3460  0.4069
  598MOL0     H82505  10.042  10.713   7.422 -1.7974  2.1549  0.7842
  598MOL0     H82506  10.033  10.496   7.790 -3.4625 -0.1049 -2.4611
  598MOL0     H82507   9.982  10.358   7.993 -0.5216  0.5068  1.2799
  598MOL0     H82508   9.647   9.010   9.325  1.9052 -1.1583  0.1027
  598MOL0     H82509   9.637   8.888   9.542 -0.2952 -1.4407  1.6817
  598MOL0     H82510   9.264   8.609   9.768  0.2355 -0.9263 -0.8795
  598MOL0     H82511   9.262   8.393   9.881  2.5544 -3.2705 -1.6254
  598MOL0     H82512   9.616   8.242  10.077  0.8312  0.1528  1.4186
  598MOL0     H82513   9.551   8.295  10.223 -1.1821 -0.5583 -0.9784
  598MOL0     H82514   9.400   8.107  10.264 -0.7802 -4.0513 -0.6625
  598MOL0     H82515   9.557   8.062  10.220  0.4993 -0.0948  0.0135
  598MOL0     H82516   9.352   8.100  10.009  2.9106  2.6132  1.0092
  598MOL0     H82517   9.523   8.048   9.999  3.4309  3.1990  1.9325
  598MOL0     H82518   9.323   7.891  10.180  0.4008  0.1576 -1.0182
  598MOL0     H82519   9.469   7.824  10.102 -0.5323 -0.9119  0.5480
  598MOL0     H82520   9.198   7.699   9.833  1.5543 -0.5954 -0.5215
  598MOL0     H82521   9.628   8.502  10.085  1.0232 -0.2324 -1.0666
  598MOL0     H82522   9.747   8.671  10.038 -2.3083 -0.8642  1.2937
  598MOL0     H82523   9.729   8.755   9.874 -2.1607  3.4864  0.2052
  598MOL0     H82524   9.647   8.817  10.015 -2.3502  0.4888 -1.5600
  599MOL0     O82525   6.392   8.230   7.280  0.5817  1.0466 -0.6370
  599MOL0     C82526   6.383   8.112   7.248  0.2183  0.5172 -0.5680
  599MOL0     O82527   6.444   8.049   7.145  0.0073  0.3191  0.5330
  599MOL0     C82528   6.536   8.127   7.075  0.9810  0.4487  0.0026
  599MOL0     C82529   6.634   8.197   7.147 -1.3429 -0.9321  0.1783
  599MOL0     C82530   6.723   8.280   7.081 -0.4895  1.0249  0.4601
  599MOL0     C82531   6.719   8.298   6.942 -0.4145 -0.7545 -0.4725
  599MOL0     O82532   6.801   8.392   6.886 -0.0634 -0.4858 -0.0967
  599MOL0     C82533   6.832   8.521   6.956 -0.1090  0.4558 -0.1190
  599MOL0     C82534   6.891   8.623   6.858 -0.3758 -0.0183 -0.4851
  599MOL0     C82535   6.801   8.687   6.751 -0.4786  0.1182  0.9136
  599MOL0     C82536   6.720   8.800   6.820  0.6509 -0.0921  0.5766
  599MOL0     C82537   6.638   8.883   6.717 -0.1417 -0.7462  1.1897
  599MOL0     C82538   6.556   8.984   6.789  0.7012 -0.1246 -0.5249
  599MOL0     C82539   6.641   9.090   6.849  0.5048 -0.0438 -0.3742
  599MOL0     C82540   6.537   9.209   6.879 -0.0752  0.1791  0.7325
  599MOL0     N82541   6.600   9.329   6.935 -0.1617  0.5863 -0.7012
  599MOL0     C82542   6.548   9.412   7.036 -0.6509  0.7801  0.2938
  599MOL0     C82543   6.647   9.500   7.062 -0.0472 -0.1203 -0.5904
  599MOL0     C82544   6.642   9.600   7.171  1.0869  0.0516  0.1034
  599MOL0     C82545   6.691   9.741   7.128  0.3614 -0.0068 -0.7655
  599MOL0     C82546   6.583   9.797   7.032  0.3102 -0.0240  0.4386
  599MOL0     C82547   6.648   9.910   6.952 -0.4136 -0.1706  0.4864
  599MOL0     O82548   6.688  10.026   7.035  0.0792 -0.5950  0.7227
  599MOL0     C82549   6.799  10.095   6.989 -0.5240 -0.9827 -0.3020
  599MOL0     C82550   6.772  10.181   6.887  0.3144  0.6373  1.0717
  599MOL0     C82551   6.870  10.267   6.829 -0.5302 -0.1801 -0.2913
  599MOL0     C82552   6.832  10.373   6.721  0.0237 -0.2918 -1.1582
  599MOL0     C82553   7.002  10.266   6.892  0.5112 -0.1779 -0.0036
  599MOL0     C82554   7.110  10.354   6.842 -0.2184  0.2365  0.8090
  599MOL0     O82555   7.137  10.357   6.708  0.7846 -1.2832 -0.0491
  599MOL0     C82556   7.221  10.455   6.658 -0.1548  0.1785  0.5263
  599MOL0     C82557   7.355  10.422   6.632 -0.0537  0.8088 -0.5777
  599MOL0     C82558   7.437  10.525   6.578  0.7609  0.7178 -0.0329
  599MOL0     C82559   7.393  10.659   6.560 -0.0762  0.0991 -0.0106
  599MOL0     O82560   7.482  10.758   6.511  0.7383 -0.7894 -0.5222
  599MOL0     C82561   7.606  10.784   6.583 -0.0844 -0.0229  0.0966
  599MOL0     C82562   7.643  10.930   6.568  0.3611 -0.5072  0.7259
  599MOL0     C82563   7.563  11.031   6.639  0.3382 -0.3586  0.2051
  599MOL0     C82564   7.561  11.018   6.801 -0.8064 -0.8006 -0.8323
  599MOL0     C82565   7.506  11.149   6.856 -0.0212 -0.0466  0.3104
  599MOL0     C82566   7.486  11.142   7.008 -0.0985 -0.5825 -0.4739
  599MOL0     C82567   7.447  11.272   7.079 -0.2054  0.7415 -0.7217
  599MOL0     C82568   7.447  11.235   7.230  0.2875  0.0492  0.2835
  599MOL0    Cl82569   7.606  11.205   7.297  0.1023 -0.0288 -0.4233
  599MOL0     C82570   7.260  10.684   6.577  0.6271  0.8863 -0.0447
  599MOL0     C82571   7.172  10.587   6.620  0.1041  0.9731  0.0055
  599MOL0     O82572   7.165  10.428   6.924 -0.2007  0.5010 -0.0971
  599MOL0     C82573   7.026  10.175   6.998 -0.6319 -0.3491 -0.0625
  599MOL0     C82574   6.928  10.092   7.050  0.1551  0.6697  0.4018
  599MOL0     N82575   6.757   9.468   6.985 -0.0740  0.3815 -0.9434
  599MOL0     N82576   6.722   9.371   6.908 -0.7695  0.0915  0.4440
  599MOL0     C82577   6.628   8.224   6.874  0.7294 -0.1337  0.0840
  599MOL0     C82578   6.534   8.139   6.940 -0.6329 -0.0764  0.0241
  599MOL0     C82579   6.263   8.038   7.309  0.7349  0.0203  0.9976
  599MOL0     C82580   6.227   8.074   7.436 -0.1452 -0.2318 -1.2244
  599MOL0     C82581   6.118   8.015   7.502  0.3829  0.1011  1.0649
  599MOL0     C82582   6.038   7.925   7.440 -0.2177  0.4222 -0.5581
  599MOL0     O82583   5.931   7.879   7.509  0.4314  0.2095  0.8956
  599MOL0     C82584   5.836   7.792   7.442 -0.7519  0.2494  0.1847
  599MOL0     C82585   5.725   7.867   7.362 -0.5775  0.1493 -0.5947
  599MOL0     C82586   5.590   7.801   7.385 -0.3138 -0.5084 -0.0361
  599MOL0     C82587   5.478   7.880   7.315  0.5790 -0.1227 -0.0227
  599MOL0     C82588   5.478   8.025   7.350  0.2380  0.4852  0.1755
  599MOL0     C82589   5.473   8.138   7.399  0.0110 -0.3910 -0.1972
  599MOL0     C82590   6.062   7.908   7.307  0.9376  0.1751  0.1168
  599MOL0     C82591   6.174   7.959   7.234  0.0037  0.9950  0.9898
  599MOL0     C82592   6.203   7.914   7.097 -0.6229 -0.2509 -0.3057
  599MOL0     H82593   6.660   8.182   7.251  2.1413  1.2224 -0.2124
  599MOL0     H82594   6.793   8.331   7.147 -0.3254 -0.6628  1.6370
  599MOL0     H82595   6.902   8.490   7.034  0.4362 -1.9059 -1.4478
  599MOL0     H82596   6.741   8.561   7.003  1.2168  0.6192  2.5286
  599MOL0     H82597   6.940   8.698   6.922  0.6190 -1.5731  0.6381
  599MOL0     H82598   6.973   8.574   6.806 -0.0101 -1.1381  1.0705
  599MOL0     H82599   6.856   8.728   6.666 -1.2890  2.3043  1.3747
  599MOL0     H82600   6.736   8.607   6.715  2.1223 -1.6511 -0.1608
  599MOL0     H82601   6.647   8.751   6.885  1.7067  0.9609  2.6467
  599MOL0     H82602   6.786   8.864   6.878  1.9396  1.0638 -1.9954
  599MOL0     H82603   6.556   8.831   6.668 -2.0111  2.7270  0.2444
  599MOL0     H82604   6.700   8.924   6.637 -0.8461  1.2395  1.5945
  599MOL0     H82605   6.475   9.023   6.728 -1.4021 -3.2992 -0.0331
  599MOL0     H82606   6.501   8.936   6.871 -0.2789 -3.1468 -2.7720
  599MOL0     H82607   6.710   9.124   6.771  2.4577  1.8345  2.0020
  599MOL0     H82608   6.700   9.057   6.934  0.0679  1.5164  0.5710
  599MOL0     H82609   6.491   9.228   6.782  0.6968 -3.9937 -0.6502
  599MOL0     H82610   6.468   9.173   6.955  0.9810  0.4093  1.8421
  599MOL0     H82611   6.449   9.410   7.080 -0.2694  0.4539  1.1589
  599MOL0     H82612   6.718   9.568   7.243  1.5939 -0.5571 -0.6789
  599MOL0     H82613   6.540   9.602   7.210  0.7674  0.3336 -0.7303
  599MOL0     H82614   6.692   9.805   7.216  0.1836 -0.8677 -0.1283
  599MOL0     H82615   6.795   9.743   7.095  1.0033 -1.9872  0.9461
  599MOL0     H82616   6.552   9.719   6.961  4.0815 -1.1549 -0.1848
  599MOL0     H82617   6.502   9.837   7.093  1.9265  1.2279  1.8649
  599MOL0     H82618   6.737   9.871   6.900  0.5590 -0.9271  2.6033
  599MOL0     H82619   6.573   9.950   6.884 -0.8911 -0.4124  0.8710
  599MOL0     H82620   6.673  10.173   6.844  0.8887 -2.5445  0.0611
  599MOL0     H82621   6.731  10.412   6.736  0.6167  1.0740 -0.5858
  599MOL0     H82622   6.829  10.323   6.623 -1.6349 -0.3041 -1.1342
  599MOL0     H82623   6.902  10.456   6.710 -1.6920  1.2875 -0.7275
  599MOL0     H82624   7.398  10.328   6.664  1.9564  1.5306 -1.0085
  599MOL0     H82625   7.540  10.503   6.550  0.7419 -1.9487  1.6140
  599MOL0     H82626   7.594  10.776   6.692 -3.1955 -1.5139 -0.2494
  599MOL0     H82627   7.680  10.708   6.556  1.8288  0.1520  4.0038
  599MOL0     H82628   7.747  10.943   6.600  0.3280 -1.9853  1.4873
  599MOL0     H82629   7.633  10.959   6.463 -3.4436  0.1828  1.1495
  599MOL0     H82630   7.461  11.027   6.599 -0.7531 -1.7250  2.8369
  599MOL0     H82631   7.612  11.125   6.615 -0.0850  0.1461  1.2695
  599MOL0     H82632   7.654  10.982   6.846 -0.6923  1.6588  1.1068
  599MOL0     H82633   7.478  10.958   6.839 -2.1833  1.7514  0.4534
  599MOL0     H82634   7.582  11.220   6.820  0.9735 -1.2046  0.0624
  599MOL0     H82635   7.417  11.172   6.796  0.5196 -1.2468 -1.0014
  599MOL0     H82636   7.588  11.120   7.040  0.9326  2.8049 -1.0424
  599MOL0     H82637   7.415  11.058   7.015  0.8843 -1.4324 -0.4834
  599MOL0     H82638   7.342  11.291   7.059 -0.3653  2.8979  1.6215
  599MOL0     H82639   7.508  11.360   7.055 -2.3289  1.3701 -4.5736
  599MOL0     H82640   7.373  11.160   7.261  1.2045  0.7165  4.9214
  599MOL0     H82641   7.409  11.318   7.291 -1.6751  0.9327 -1.9729
  599MOL0     H82642   7.224  10.781   6.546 -2.0289 -0.3353 -1.0620
  599MOL0     H82643   7.066  10.612   6.627  0.8538  4.1691  2.6338
  599MOL0     H82644   7.118  10.171   7.055 -1.0442 -0.3508  0.6221
  599MOL0     H82645   6.938  10.029   7.138 -2.4757 -0.2349  0.1454
  599MOL0     H82646   6.621   8.251   6.769  1.6820  2.2757  0.5628
  599MOL0     H82647   6.452   8.095   6.884 -0.0818 -2.0916  0.6950
  599MOL0     H82648   6.283   8.143   7.499 -2.3524 -2.8542  4.2396
  599MOL0     H82649   6.104   8.046   7.606  0.9512  2.0815  0.5907
  599MOL0     H82650   5.873   7.716   7.373  2.1929  0.9367  0.8499
  599MOL0     H82651   5.784   7.740   7.523 -3.6381  3.0903  0.3852
  599MOL0     H82652   5.744   7.852   7.256  2.0124 -2.2465  0.0758
  599MOL0     H82653   5.736   7.973   7.388 -0.8420 -0.2592  1.3760
  599MOL0     H82654   5.583   7.699   7.346  1.7910 -0.6414 -0.1735
  599MOL0     H82655   5.561   7.811   7.491  0.3407 -0.3112  0.1286
  599MOL0     H82656   5.390   7.832   7.358  2.3256 -0.3399  3.6782
  599MOL0     H82657   5.466   7.877   7.206 -2.1984 -2.9310  0.2188
  599MOL0     H82658   5.466   8.226   7.460  0.2223 -0.1278 -0.5502
  599MOL0     H82659   5.996   7.836   7.260  2.0152 -0.3081 -0.7292
  599MOL0     H82660   6.116   7.858   7.059 -1.0942  0.3580 -0.1421
  599MOL0     H82661   6.211   8.004   7.036 -0.4354 -0.2008 -0.2051
  599MOL0     H82662   6.293   7.852   7.085  0.9767  1.9007  0.1110
  600MOL0     O82663   3.636   3.586   1.125 -0.4022 -0.1791 -0.7027
  600MOL0     C82664   3.741   3.521   1.134  0.0774  0.1275 -0.2559
  600MOL0     O82665   3.802   3.489   1.249  0.1973 -0.3132 -0.0235
  600MOL0     C82666   3.756   3.527   1.370 -0.1418 -1.2168  0.8346
  600MOL0     C82667   3.855   3.537   1.469  0.4681 -0.0430 -0.7108
  600MOL0     C82668   3.836   3.595   1.596 -0.0659  0.3031 -0.1559
  600MOL0     C82669   3.705   3.638   1.634  0.9480 -0.1442  0.5954
  600MOL0     O82670   3.675   3.707   1.750 -0.0867  0.2334  0.5742
  600MOL0     C82671   3.780   3.723   1.847 -0.1498  0.2448 -0.0035
  600MOL0     C82672   3.735   3.830   1.935  0.2471  0.4813 -0.4294
  600MOL0     C82673   3.637   3.783   2.045  0.8844 -0.2825  0.7441
  600MOL0     C82674   3.578   3.898   2.120  0.0580 -0.4344 -0.6973
  600MOL0     C82675   3.445   3.894   2.195  0.3558 -0.0757 -0.4843
  600MOL0     C82676   3.316   3.968   2.126  0.0010 -0.9193 -1.1128
  600MOL0     C82677   3.327   4.121   2.154  0.7044  0.2503  0.1572
  600MOL0     C82678   3.192   4.195   2.153  0.4530  0.0227 -0.5721
  600MOL0     N82679   3.214   4.340   2.156 -1.1677  0.4252  0.0857
  600MOL0     C82680   3.302   4.410   2.243  0.0438  0.3992 -0.3293
  600MOL0     C82681   3.270   4.542   2.224  0.1759 -0.4382  0.2399
  600MOL0     C82682   3.351   4.647   2.285  0.0345  0.0612  0.2365
  600MOL0     C82683   3.346   4.639   2.440  0.5895 -0.6659  0.3065
  600MOL0     C82684   3.233   4.725   2.508 -0.1600 -0.6418 -0.4317
  600MOL0     C82685   3.227   4.694   2.654 -0.0933  0.2638  0.8897
  600MOL0     O82686   3.119   4.774   2.701 -0.5976 -0.6820 -0.0930
  600MOL0     C82687   3.092   4.785   2.831 -0.2056 -0.4648  0.0086
  600MOL0     C82688   3.166   4.734   2.939  0.9547 -0.1134  0.6471
  600MOL0     C82689   3.131   4.791   3.067 -0.0822 -0.7923  0.1624
  600MOL0     C82690   3.223   4.760   3.183 -0.2240 -0.5524 -0.1054
  600MOL0     C82691   3.020   4.881   3.087 -0.4964  1.2789  0.1238
  600MOL0     C82692   2.978   4.939   3.208  0.0407  0.1881  0.2648
  600MOL0     O82693   2.997   4.850   3.311 -0.5368 -0.3270  0.6054
  600MOL0     C82694   2.990   4.896   3.438 -0.2306 -0.7333 -0.0921
  600MOL0     C82695   3.053   5.012   3.485  0.2804 -0.1315 -0.5160
  600MOL0     C82696   3.056   5.027   3.627  0.1374  0.1614  0.9747
  600MOL0     C82697   2.997   4.945   3.724 -0.1920  0.7930 -0.1729
  600MOL0     O82698   3.015   4.955   3.855 -0.2768 -0.3622  0.2628
  600MOL0     C82699   2.883   4.963   3.924  1.3484  0.4328 -0.0492
  600MOL0     C82700   2.903   5.059   4.043  0.2089 -0.3841 -0.0361
  600MOL0     C82701   2.937   5.205   4.017 -0.7608 -0.2703 -0.4353
  600MOL0     C82702   2.807   5.281   3.983 -0.5000  0.2591 -0.3403
  600MOL0     C82703   2.830   5.438   3.964  0.8350  0.3010  0.0885
  600MOL0     C82704   2.939   5.471   3.872  0.5677 -1.1752  0.3245
  600MOL0     C82705   2.943   5.622   3.861  0.9864 -0.5673 -0.2805
  600MOL0     C82706   3.048   5.667   3.765  0.8028  0.1907 -0.2210
  600MOL0    Cl82707   3.003   5.609   3.605 -0.4283 -0.0213 -0.1395
  600MOL0     C82708   2.915   4.844   3.673  0.4487  0.3754  0.3424
  600MOL0     C82709   2.926   4.814   3.535 -0.4223  0.4120 -0.1653
  600MOL0     O82710   2.915   5.047   3.223 -0.5816 -0.0535 -0.6071
  600MOL0     C82711   2.949   4.911   2.979  0.3055 -0.0025 -0.1663
  600MOL0     C82712   2.975   4.877   2.849 -0.4375  1.0879 -0.4731
  600MOL0     N82713   3.178   4.548   2.125 -0.3052 -0.6066 -0.1191
  600MOL0     N82714   3.141   4.426   2.085  0.2000 -0.5329 -0.3360
  600MOL0     C82715   3.600   3.621   1.542 -0.1302  0.3284 -0.4299
  600MOL0     C82716   3.626   3.568   1.416  0.3121  0.4320  0.3816
  600MOL0     C82717   3.806   3.481   1.008 -0.0196  0.7369 -0.2054
  600MOL0     C82718   3.723   3.409   0.922 -0.4974  0.0599 -0.2521
  600MOL0     C82719   3.782   3.341   0.814  0.4726 -0.1828  0.5737
  600MOL0     C82720   3.916   3.375   0.776 -0.4035  0.7323 -0.1784
  600MOL0     O82721   3.963   3.318   0.651  0.1896 -0.6154 -0.4504
  600MOL0     C82722   4.096   3.280   0.628 -0.4959 -0.0668  0.2346
  600MOL0     C82723   4.116   3.123   0.631  0.8340 -0.9519 -0.1334
  600MOL0     C82724   4.064   3.050   0.757 -0.0807  0.5307  0.0072
  600MOL0     C82725   3.916   3.003   0.750 -0.8382  0.2349  0.3405
  600MOL0     C82726   3.894   2.892   0.849 -1.2618 -0.7407 -0.1307
  600MOL0     C82727   3.885   2.816   0.939  0.4929  0.1677  0.7887
  600MOL0     C82728   4.000   3.447   0.856 -1.5001 -0.8486 -0.2214
  600MOL0     C82729   3.940   3.503   0.980 -0.1946 -0.0082 -0.1965
  600MOL0     C82730   4.029   3.585   1.074 -0.1231 -0.1605  0.0763
  600MOL0     H82731   3.961   3.522   1.450  0.4481  0.1027 -0.9488
  600MOL0     H82732   3.926   3.591   1.656 -0.1969 -0.6279 -0.0082
  600MOL0     H82733   3.868   3.756   1.793 -0.0443  2.2021  1.2722
  600MOL0     H82734   3.811   3.634   1.903 -2.5467 -2.4212 -2.5193
  600MOL0     H82735   3.830   3.850   1.984 -0.5245 -0.7854  1.7252
  600MOL0     H82736   3.706   3.925   1.889  0.1134  2.5532  3.4727
  600MOL0     H82737   3.561   3.726   1.992 -1.8987  2.5748  1.3912
  600MOL0     H82738   3.690   3.713   2.111  0.3910  0.7795  2.3296
  600MOL0     H82739   3.659   3.914   2.193  1.3871 -3.5965 -1.3241
  600MOL0     H82740   3.577   3.984   2.053 -1.6131  1.1914  1.2514
  600MOL0     H82741   3.471   3.941   2.290  0.9497 -0.9547 -0.2022
  600MOL0     H82742   3.415   3.791   2.215  1.2501 -0.0387  1.2454
  600MOL0     H82743   3.304   3.931   2.024 -3.8025 -3.0254 -0.1018
  600MOL0     H82744   3.226   3.934   2.180 -0.5540 -0.6788 -1.8774
  600MOL0     H82745   3.397   4.156   2.078  1.6923 -0.0106  0.9178
  600MOL0     H82746   3.389   4.139   2.243  0.4287 -0.1082  0.4252
  600MOL0     H82747   3.144   4.177   2.056 -1.5146  1.6359  0.0462
  600MOL0     H82748   3.116   4.170   2.227  3.1685 -3.8860  1.2420
  600MOL0     H82749   3.374   4.373   2.315 -0.3962  1.3262  0.6048
  600MOL0     H82750   3.319   4.747   2.253  1.6945 -0.1561 -2.4130
  600MOL0     H82751   3.455   4.653   2.254 -0.1799  3.0301 -0.1856
  600MOL0     H82752   3.333   4.533   2.465  0.0935 -1.2798 -2.2315
  600MOL0     H82753   3.439   4.681   2.479  0.3892 -1.2713  1.4929
  600MOL0     H82754   3.251   4.832   2.498 -1.2337 -0.3964  0.0997
  600MOL0     H82755   3.133   4.699   2.472 -0.3897  0.4630 -0.6285
  600MOL0     H82756   3.192   4.592   2.666 -1.8092  0.8715  1.3082
  600MOL0     H82757   3.326   4.707   2.700 -0.4546  2.8523  1.1326
  600MOL0     H82758   3.247   4.664   2.923  0.7017 -0.1280 -0.6205
  600MOL0     H82759   3.185   4.678   3.245 -2.7320  1.6493  1.5008
  600MOL0     H82760   3.248   4.841   3.252 -0.2471 -0.1158 -0.6102
  600MOL0     H82761   3.312   4.715   3.138 -0.5203 -1.5211  0.2356
  600MOL0     H82762   3.118   5.083   3.436  2.9621  0.4687  3.4849
  600MOL0     H82763   3.112   5.110   3.669  1.4612 -0.7401  1.0678
  600MOL0     H82764   2.804   5.005   3.861 -0.7380 -0.6079  1.7179
  600MOL0     H82765   2.848   4.865   3.960  2.0053  0.4083  0.5599
  600MOL0     H82766   2.825   5.050   4.119  2.0465 -0.1184  1.9559
  600MOL0     H82767   2.984   5.000   4.086 -0.6622 -1.1884  0.5596
  600MOL0     H82768   3.013   5.204   3.939 -0.0939 -1.1779  0.1983
  600MOL0     H82769   2.985   5.240   4.109 -0.3859 -1.8125 -0.0118
  600MOL0     H82770   2.741   5.271   4.070  0.0154  0.6407  0.1096
  600MOL0     H82771   2.754   5.236   3.898 -1.9001  0.4666  0.3923
  600MOL0     H82772   2.736   5.486   3.933 -0.2510 -2.5024 -1.2997
  600MOL0     H82773   2.852   5.488   4.059  1.0598 -0.1276  0.2647
  600MOL0     H82774   2.917   5.430   3.773  0.0429  2.2593 -1.1196
  600MOL0     H82775   3.038   5.437   3.907 -0.0386  0.9646  4.7988
  600MOL0     H82776   2.959   5.678   3.954 -0.1579  3.5680 -2.3170
  600MOL0     H82777   2.848   5.655   3.819  0.1251 -3.9134 -1.2206
  600MOL0     H82778   3.143   5.626   3.799 -0.0217  0.7285  3.1344
  600MOL0     H82779   3.054   5.776   3.762  0.9265  0.2448  1.0638
  600MOL0     H82780   2.841   4.791   3.731 -1.6156  2.8667  0.1886
  600MOL0     H82781   2.868   4.726   3.508  0.3924 -0.2538  0.1755
  600MOL0     H82782   2.860   4.974   2.985 -1.0066 -1.7349 -0.4988
  600MOL0     H82783   2.928   4.905   2.755  4.7340 -0.6728 -3.9786
  600MOL0     H82784   3.504   3.648   1.582  0.2505 -0.3778  1.0232
  600MOL0     H82785   3.540   3.554   1.353 -0.7740 -0.1390  1.9270
  600MOL0     H82786   3.625   3.367   0.943 -0.6765 -0.0569 -1.2356
  600MOL0     H82787   3.725   3.274   0.750  0.7558 -0.9849  1.1476
  600MOL0     H82788   4.116   3.311   0.525 -2.0818 -0.8456 -0.3390
  600MOL0     H82789   4.170   3.317   0.700 -0.7763  3.1947 -1.0136
  600MOL0     H82790   4.223   3.101   0.633  1.4609  1.6994  0.0146
  600MOL0     H82791   4.067   3.076   0.546 -2.5634 -3.4694  2.9175
  600MOL0     H82792   4.134   2.971   0.784  1.9051  2.8139  1.9896
  600MOL0     H82793   4.083   3.104   0.850  1.8572  0.1314 -0.1136
  600MOL0     H82794   3.890   2.955   0.655 -0.8135 -0.0240  0.4637
  600MOL0     H82795   3.863   3.097   0.772  0.0133  0.0850  3.4219
  600MOL0     H82796   3.871   2.746   1.019 -3.1764 -2.1276 -1.5804
  600MOL0     H82797   4.099   3.482   0.830 -0.4842 -1.6593  2.2359
  600MOL0     H82798   3.981   3.666   1.128  0.7151  2.5238 -2.9042
  600MOL0     H82799   4.096   3.531   1.142  0.1051  1.8471  1.5072
  600MOL0     H82800   4.082   3.649   1.003 -2.7604  2.7956  0.5815
  601MOL0     O82801   9.041   3.256   5.415 -0.2221  0.3463  0.0243
  601MOL0     C82802   8.926   3.283   5.377 -0.0652 -0.2740  0.5651
  601MOL0     O82803   8.873   3.405   5.380  0.5722  0.0463 -0.2010
  601MOL0     C82804   8.940   3.516   5.393  0.6988 -0.3380  0.4627
  601MOL0     C82805   9.030   3.549   5.503  0.4889 -0.8767  0.2371
  601MOL0     C82806   9.100   3.666   5.499 -0.7855  0.1798 -0.0457
  601MOL0     C82807   9.082   3.766   5.402  0.8825  0.9284 -0.4146
  601MOL0     O82808   9.154   3.885   5.395  1.3532  0.0305 -0.4005
  601MOL0     C82809   9.194   3.934   5.527  0.4243 -0.1280  0.3577
  601MOL0     C82810   9.350   3.926   5.525 -0.6281  1.0594  0.2990
  601MOL0     C82811   9.404   3.957   5.670  0.4215  0.7552  0.1002
  601MOL0     C82812   9.556   3.942   5.672  0.1658  0.8100 -0.4568
  601MOL0     C82813   9.619   3.972   5.814 -0.8407  0.3091 -0.0456
  601MOL0     C82814   9.624   4.126   5.835 -0.1775  0.0936 -0.1407
  601MOL0     C82815   9.627   4.178   5.988 -1.6071 -0.1461 -0.4164
  601MOL0     C82816   9.497   4.167   6.062  0.4256 -0.0791 -1.0561
  601MOL0     N82817   9.380   4.235   6.000 -0.0672  0.6415  0.3803
  601MOL0     C82818   9.359   4.365   5.997 -0.2489  0.5451  0.1744
  601MOL0     C82819   9.240   4.380   5.920  0.1894  0.6901  1.1456
  601MOL0     C82820   9.175   4.507   5.882  0.2597 -0.7543 -0.2918
  601MOL0     C82821   9.114   4.563   6.012  0.8555  0.4002  0.2325
  601MOL0     C82822   8.970   4.620   5.991  0.9743  0.3512  0.3945
  601MOL0     C82823   8.949   4.732   6.085  0.8134  0.2607  1.0049
  601MOL0     O82824   8.816   4.761   6.082  0.5688  0.8453 -0.4260
  601MOL0     C82825   8.770   4.882   6.137  0.1718 -1.2972 -1.1256
  601MOL0     C82826   8.637   4.903   6.114 -0.7579 -0.0328  0.2788
  601MOL0     C82827   8.565   5.013   6.164 -0.7507 -0.3454  0.6847
  601MOL0     C82828   8.417   5.023   6.148 -0.2763  0.5029  0.1587
  601MOL0     C82829   8.634   5.108   6.248  0.4900  0.3422 -0.1201
  601MOL0     C82830   8.571   5.220   6.325  0.1513 -0.3838 -0.5232
  601MOL0     O82831   8.667   5.283   6.404  0.2581  0.9573  0.6067
  601MOL0     C82832   8.658   5.414   6.431 -0.7352  0.5725 -0.4048
  601MOL0     C82833   8.733   5.509   6.349  0.2800 -1.7653 -1.0105
  601MOL0     C82834   8.725   5.647   6.386  0.6801 -0.2195  1.4115
  601MOL0     C82835   8.643   5.683   6.498 -1.5616  0.3664  0.5251
  601MOL0     O82836   8.623   5.814   6.547  0.5021  0.3867 -0.1529
  601MOL0     C82837   8.743   5.900   6.542  0.8796 -0.1530 -0.6446
  601MOL0     C82838   8.814   5.875   6.661  0.0494  0.0310 -0.1114
  601MOL0     C82839   8.947   5.948   6.664  1.2123  1.3610  0.6262
  601MOL0     C82840   8.928   6.102   6.680 -0.3341 -0.0985 -0.4046
  601MOL0     C82841   9.057   6.178   6.632  0.6423  0.6950  0.3818
  601MOL0     C82842   9.065   6.210   6.484 -0.7228 -0.0509 -0.6543
  601MOL0     C82843   8.978   6.310   6.428  0.8768 -0.5478  0.8279
  601MOL0     C82844   9.054   6.394   6.317 -0.9564  1.2155 -0.6123
  601MOL0    Cl82845   8.950   6.542   6.299  0.6237  0.0061  0.3031
  601MOL0     C82846   8.576   5.588   6.571  0.1348  0.9266  0.0520
  601MOL0     C82847   8.581   5.451   6.539  0.7298  0.3187 -0.0772
  601MOL0     O82848   8.458   5.266   6.295  0.2293 -0.0151  0.2053
  601MOL0     C82849   8.770   5.086   6.270  0.1097  0.1735  0.0422
  601MOL0     C82850   8.841   4.975   6.218 -0.2658 -0.1024  0.1136
  601MOL0     N82851   9.209   4.254   5.872 -0.0084  0.4598 -0.0399
  601MOL0     N82852   9.285   4.166   5.924 -0.1880 -0.5160 -0.0322
  601MOL0     C82853   8.977   3.746   5.306 -0.4519 -0.5614 -0.1210
  601MOL0     C82854   8.905   3.622   5.307  0.8611  0.2738 -0.6267
  601MOL0     C82855   8.829   3.177   5.332  0.0433 -0.4422  0.0811
  601MOL0     C82856   8.707   3.223   5.274  0.0258 -0.9367 -1.0157
  601MOL0     C82857   8.603   3.143   5.220  1.3881  0.4458  0.8783
  601MOL0     C82858   8.623   3.007   5.225 -0.2514  0.7699 -0.5819
  601MOL0     O82859   8.524   2.926   5.166  0.0666  0.1383  0.9240
  601MOL0     C82860   8.527   2.780   5.153  0.1822 -0.0636 -0.5887
  601MOL0     C82861   8.621   2.737   5.037  0.2585 -0.7079  0.4752
  601MOL0     C82862   8.602   2.807   4.891  0.0974 -0.5881 -0.1977
  601MOL0     C82863   8.629   2.963   4.890 -0.9790  0.5704  0.1671
  601MOL0     C82864   8.688   3.005   4.764  0.4416  0.2259 -0.8308
  601MOL0     C82865   8.728   3.037   4.653  0.9481  0.6414  0.8288
  601MOL0     C82866   8.742   2.956   5.279 -0.0928  0.7421  0.0842
  601MOL0     C82867   8.841   3.035   5.330  0.6558 -0.4551 -0.3161
  601MOL0     C82868   8.958   2.964   5.385 -0.7197  0.3495  0.6232
  601MOL0     H82869   9.049   3.468   5.573  0.4671 -1.9014 -0.9122
  601MOL0     H82870   9.161   3.675   5.588 -0.2839 -1.3647 -0.1990
  601MOL0     H82871   9.153   3.882   5.614  1.2337  0.6846  1.2552
  601MOL0     H82872   9.162   4.039   5.526 -0.0330 -0.2575 -1.9339
  601MOL0     H82873   9.383   3.827   5.490 -2.1912 -0.9016  3.8757
  601MOL0     H82874   9.395   3.995   5.453 -0.2815  0.2499 -0.2806
  601MOL0     H82875   9.372   4.055   5.704 -2.5589 -0.7912  2.1317
  601MOL0     H82876   9.363   3.876   5.731  1.7312  1.8997  2.6155
  601MOL0     H82877   9.576   3.836   5.655 -0.1027  0.8509 -1.0697
  601MOL0     H82878   9.594   4.004   5.591 -2.0606  1.3383 -1.1638
  601MOL0     H82879   9.720   3.933   5.827 -1.3789 -0.8847  0.8024
  601MOL0     H82880   9.556   3.920   5.888 -0.1266 -0.5500 -0.0219
  601MOL0     H82881   9.709   4.160   5.775  0.3313 -1.1746 -0.1798
  601MOL0     H82882   9.530   4.159   5.791 -0.8882 -1.9035 -0.2086
  601MOL0     H82883   9.632   4.288   5.986 -1.4061 -0.1550 -0.4523
  601MOL0     H82884   9.716   4.151   6.046 -0.6712  2.6871 -0.3497
  601MOL0     H82885   9.475   4.060   6.068 -2.5807  0.5429  0.7242
  601MOL0     H82886   9.510   4.192   6.167  0.4050 -0.8331 -0.8718
  601MOL0     H82887   9.419   4.439   6.049 -0.2591 -1.3384  3.1075
  601MOL0     H82888   9.093   4.486   5.811 -0.4678  0.5430  0.1331
  601MOL0     H82889   9.243   4.581   5.840  0.6030  0.7450  2.6951
  601MOL0     H82890   9.117   4.482   6.086  0.7905 -0.1236 -0.3292
  601MOL0     H82891   9.180   4.640   6.054 -0.8376  2.9476 -1.5260
  601MOL0     H82892   8.955   4.657   5.889  0.3209  1.2376  0.7885
  601MOL0     H82893   8.895   4.542   6.000 -1.4105  2.5110  0.4625
  601MOL0     H82894   8.973   4.689   6.183  0.8427 -3.8292 -0.6114
  601MOL0     H82895   9.005   4.819   6.048 -0.2784 -0.6980 -3.5514
  601MOL0     H82896   8.602   4.828   6.043  0.5157  1.4787 -2.0940
  601MOL0     H82897   8.366   5.049   6.241  1.8947  0.3180  1.4784
  601MOL0     H82898   8.366   4.934   6.111  1.3341  0.6866 -2.8365
  601MOL0     H82899   8.401   5.097   6.070 -1.2106 -2.6298 -2.8669
  601MOL0     H82900   8.774   5.462   6.260 -0.1293 -0.6016 -1.8361
  601MOL0     H82901   8.764   5.730   6.328  3.0475 -0.3141  2.7295
  601MOL0     H82902   8.801   5.878   6.452  5.7266  4.0755  0.9494
  601MOL0     H82903   8.709   6.004   6.540  0.5333 -0.1918  1.2551
  601MOL0     H82904   8.751   5.889   6.749  0.6802 -0.0626  0.3687
  601MOL0     H82905   8.840   5.770   6.679  2.4244  0.8371  1.8625
  601MOL0     H82906   9.005   5.923   6.575 -0.9440  0.7482 -0.6831
  601MOL0     H82907   8.999   5.908   6.752 -1.3542  1.1392  2.1239
  601MOL0     H82908   8.909   6.112   6.787  0.1513 -3.6904  0.1525
  601MOL0     H82909   8.841   6.139   6.625  0.4136  0.2770 -1.3605
  601MOL0     H82910   9.058   6.275   6.682  2.3592  4.2866 -5.5132
  601MOL0     H82911   9.149   6.129   6.667  0.1827  0.6157  1.5101
  601MOL0     H82912   9.055   6.111   6.439  0.3771 -1.7590  2.5363
  601MOL0     H82913   9.167   6.239   6.459  0.7183 -2.5373  1.7657
  601MOL0     H82914   8.943   6.391   6.493  0.2999  1.6433 -2.0098
  601MOL0     H82915   8.885   6.273   6.383 -0.5957  2.1446  1.4133
  601MOL0     H82916   9.066   6.325   6.233  1.8614  0.6554  0.1553
  601MOL0     H82917   9.152   6.417   6.359 -0.7605 -0.9938  0.2661
  601MOL0     H82918   8.514   5.622   6.654  1.4785  1.0224  1.0444
  601MOL0     H82919   8.538   5.376   6.604 -0.1327 -1.2672 -2.3699
  601MOL0     H82920   8.836   5.155   6.322 -1.3190  2.7259 -1.3516
  601MOL0     H82921   8.947   4.959   6.235 -0.0084 -1.1587 -2.0738
  601MOL0     H82922   8.965   3.808   5.217  3.2754  0.6825  0.0460
  601MOL0     H82923   8.833   3.620   5.226 -0.8178  2.9301  0.6514
  601MOL0     H82924   8.680   3.328   5.266  2.2159 -0.2093  0.3197
  601MOL0     H82925   8.514   3.176   5.169  1.0661 -0.1262  1.0579
  601MOL0     H82926   8.560   2.731   5.245 -1.5808 -0.1278  0.0528
  601MOL0     H82927   8.428   2.739   5.132 -1.0508  1.5637  1.5986
  601MOL0     H82928   8.625   2.628   5.027 -1.8332 -0.7774  0.0700
  601MOL0     H82929   8.723   2.762   5.068 -0.1144 -2.2487  3.2103
  601MOL0     H82930   8.667   2.747   4.827  3.7543  0.6161  2.1119
  601MOL0     H82931   8.501   2.782   4.855 -1.2001 -1.6558  3.6586
  601MOL0     H82932   8.695   2.978   4.975 -1.5530 -0.0839  0.7446
  601MOL0     H82933   8.540   3.021   4.915 -0.8125  1.3511 -0.9808
  601MOL0     H82934   8.751   3.059   4.551 -0.4960  0.5618  0.4607
  601MOL0     H82935   8.757   2.848   5.287 -2.8441  0.2640 -0.1152
  601MOL0     H82936   8.972   2.868   5.334  0.0490  0.1180  1.2494
  601MOL0     H82937   9.051   3.019   5.366 -0.0505 -0.7735  0.5541
  601MOL0     H82938   8.942   2.945   5.491  0.1344  0.4686  0.7765
  602MOL0     O82939  10.649   5.031   3.867  0.3094 -0.0965 -0.3864
  602MOL0     C82940  10.623   4.916   3.836 -0.7229 -1.3802  0.2545
  602MOL0     O82941  10.716   4.831   3.782  0.3246  0.3589  0.4749
  602MOL0     C82942  10.857   4.843   3.814  0.1896 -0.2741  0.0269
  602MOL0     C82943  10.926   4.948   3.886  0.3391  0.7344 -0.2805
  602MOL0     C82944  11.069   4.957   3.898  0.2115 -0.4182 -0.3161
  602MOL0     C82945  11.151   4.856   3.842 -0.3122 -0.4379 -0.2587
  602MOL0     O82946  11.289   4.856   3.841  0.5839  0.2067 -0.5711
  602MOL0     C82947  11.381   4.942   3.906 -0.3992 -0.1227 -0.2659
  602MOL0     C82948  11.530   4.904   3.855  0.3362 -0.3697  0.5105
  602MOL0     C82949  11.566   4.760   3.878 -0.4779  0.3086  0.7522
  602MOL0     C82950  11.695   4.729   3.789 -0.8639  0.5938  0.2026
  602MOL0     C82951  11.802   4.638   3.834 -0.0603  0.4591 -0.7558
  602MOL0     C82952  11.732   4.501   3.851  0.0897 -0.5196 -0.0826
  602MOL0     C82953  11.813   4.411   3.950 -0.6540 -0.8646 -0.1735
  602MOL0     C82954  11.944   4.350   3.892 -0.4585 -0.7866  0.3665
  602MOL0     N82955  12.017   4.272   3.998  0.3260  0.2036 -0.2612
  602MOL0     C82956  11.992   4.143   4.037 -0.0013 -0.0011  0.5143
  602MOL0     C82957  12.102   4.102   4.115  0.4772 -0.5479  0.2480
  602MOL0     C82958  12.125   3.975   4.196 -0.7288 -0.1859 -0.3161
  602MOL0     C82959  12.149   3.854   4.103  0.2882 -0.0696  0.1731
  602MOL0     C82960  12.229   3.748   4.177  0.6649 -0.7442 -0.1628
  602MOL0     C82961  12.248   3.624   4.100 -0.7992 -0.4402 -0.1525
  602MOL0     O82962  12.297   3.639   3.966 -0.3337 -0.0735 -0.3661
  602MOL0     C82963  12.283   3.541   3.879  0.5312  0.0141 -0.2671
  602MOL0     C82964  12.320   3.576   3.752 -1.1876 -0.8971 -0.1932
  602MOL0     C82965  12.308   3.502   3.635  0.9434  0.0722 -0.6965
  602MOL0     C82966  12.347   3.562   3.507 -0.5697 -0.0608 -0.2463
  602MOL0     C82967  12.246   3.368   3.658  0.1918  0.0517 -0.0628
  602MOL0     C82968  12.227   3.254   3.558 -0.1780  0.4359 -0.4533
  602MOL0     O82969  12.158   3.144   3.596 -0.5634  0.2693  0.2125
  602MOL0     C82970  12.144   3.042   3.507 -0.1740  0.4132 -0.1412
  602MOL0     C82971  12.181   2.914   3.543 -0.8049  0.9393 -0.0830
  602MOL0     C82972  12.173   2.804   3.451  0.2871 -0.5240 -0.5340
  602MOL0     C82973  12.123   2.821   3.328 -0.0342 -0.3275 -0.3654
  602MOL0     O82974  12.120   2.710   3.245  0.8183 -0.0764 -0.1754
  602MOL0     C82975  11.998   2.686   3.181  0.7120 -0.0732 -1.0721
  602MOL0     C82976  12.015   2.541   3.138 -1.0454 -0.4553  0.0599
  602MOL0     C82977  11.901   2.448   3.158  0.9141 -0.8007  0.9222
  602MOL0     C82978  11.943   2.302   3.121  0.5202  1.6085  0.3352
  602MOL0     C82979  11.823   2.211   3.104  0.5288 -0.9607 -0.2728
  602MOL0     C82980  11.740   2.250   2.981 -0.1521 -0.9938  1.5148
  602MOL0     C82981  11.611   2.168   2.953 -0.9972  0.1906  0.1766
  602MOL0     C82982  11.487   2.255   2.996 -0.7347  0.8837 -0.4045
  602MOL0    Cl82983  11.352   2.143   3.008 -0.1632 -0.0964  0.9087
  602MOL0     C82984  12.088   2.951   3.286 -0.0012 -0.3461  0.0783
  602MOL0     C82985  12.097   3.065   3.378 -0.2865  0.1859  0.0015
  602MOL0     O82986  12.270   3.279   3.441  0.2517  0.4712 -0.6991
  602MOL0     C82987  12.196   3.332   3.786  0.4607  0.4206  0.3056
  602MOL0     C82988  12.219   3.420   3.891  0.2671  0.4437 -0.1844
  602MOL0     N82989  12.182   4.216   4.128 -0.1158  0.4444  0.7955
  602MOL0     N82990  12.136   4.306   4.047  0.7097  0.3971  0.8278
  602MOL0     C82991  11.081   4.745   3.779 -0.5587  0.1419 -0.9377
  602MOL0     C82992  10.941   4.739   3.767 -0.7880 -0.2212  0.1833
  602MOL0     C82993  10.476   4.864   3.828  0.5668 -0.2097  0.4616
  602MOL0     C82994  10.441   4.752   3.744  1.2491 -0.2239  0.1893
  602MOL0     C82995  10.298   4.719   3.731  0.7302  0.4217 -0.5862
  602MOL0     C82996  10.206   4.771   3.818 -0.0399 -0.2408  0.3296
  602MOL0     O82997  10.080   4.725   3.801  0.3101  0.4038  0.2399
  602MOL0     C82998   9.989   4.748   3.905 -0.2383  0.1684 -1.1097
  602MOL0     C82999   9.936   4.899   3.911  0.3145  0.4078  0.5120
  602MOL0     C83000   9.895   4.952   3.768  0.3595 -0.9907 -0.2551
  602MOL0     C83001   9.760   4.900   3.719 -0.4114 -0.6358 -0.4748
  602MOL0     C83002   9.653   4.893   3.819 -0.0334  0.4313 -0.3282
  602MOL0     C83003   9.568   4.876   3.904  0.3179 -0.1155 -0.3315
  602MOL0     C83004  10.257   4.850   3.925 -0.6481 -0.5580  1.0595
  602MOL0     C83005  10.385   4.911   3.919  0.2322  0.3966  0.6358
  602MOL0     C83006  10.427   5.014   4.028  0.1072 -0.0077  0.6029
  602MOL0     H83007  10.873   5.035   3.927  3.3347  1.8316  1.6335
  602MOL0     H83008  11.119   5.042   3.942  2.4485 -1.6187 -0.3778
  602MOL0     H83009  11.375   4.945   4.015  1.4471 -1.0107 -0.1049
  602MOL0     H83010  11.339   5.037   3.871 -1.4738 -0.3330  0.4323
  602MOL0     H83011  11.532   4.920   3.747  1.9524  0.4515  0.6203
  602MOL0     H83012  11.599   4.973   3.905  0.2596 -0.4682  0.7567
  602MOL0     H83013  11.587   4.739   3.984  1.3115 -0.6070  0.2523
  602MOL0     H83014  11.489   4.689   3.844 -0.6317  1.9079 -2.6027
  602MOL0     H83015  11.665   4.695   3.690 -1.0688 -0.6023  0.6575
  602MOL0     H83016  11.749   4.823   3.776  3.0028 -1.1916  1.7490
  602MOL0     H83017  11.838   4.671   3.932 -2.2127  0.7224  0.0070
  602MOL0     H83018  11.875   4.630   3.753 -1.7011  1.6347 -2.4378
  602MOL0     H83019  11.630   4.518   3.885 -0.0287 -0.1556 -0.6126
  602MOL0     H83020  11.724   4.450   3.754  0.1175  0.0347 -0.3776
  602MOL0     H83021  11.750   4.329   3.986 -1.6678 -0.0114  0.0364
  602MOL0     H83022  11.845   4.459   4.042  2.2854  1.6561 -2.3214
  602MOL0     H83023  11.929   4.289   3.803 -2.8758  2.8061 -1.9685
  602MOL0     H83024  12.010   4.428   3.852  0.6532 -1.8296  0.1274
  602MOL0     H83025  11.896   4.095   4.022 -0.1700  0.8798 -1.5980
  602MOL0     H83026  12.032   3.954   4.249 -0.2971 -0.6997  0.2486
  602MOL0     H83027  12.214   3.986   4.259  0.7110 -2.0895 -1.8910
  602MOL0     H83028  12.050   3.822   4.067  0.6346  0.1400 -1.0016
  602MOL0     H83029  12.206   3.884   4.014 -0.2033 -1.7513 -0.7460
  602MOL0     H83030  12.324   3.783   4.219  0.3162  2.2048 -1.5405
  602MOL0     H83031  12.168   3.707   4.258 -0.1111  0.0917 -0.3141
  602MOL0     H83032  12.320   3.559   4.151  0.6562  0.4124 -1.0360
  602MOL0     H83033  12.157   3.564   4.104  0.8857 -3.0849  1.3109
  602MOL0     H83034  12.347   3.680   3.733  0.0009 -1.4459 -1.5937
  602MOL0     H83035  12.258   3.583   3.447 -0.1589  4.6444  0.4242
  602MOL0     H83036  12.427   3.506   3.457  1.5923  1.9083  0.8346
  602MOL0     H83037  12.398   3.655   3.532 -0.7439  0.0554 -0.3218
  602MOL0     H83038  12.212   2.907   3.647 -1.1025  0.0081 -0.0471
  602MOL0     H83039  12.211   2.704   3.468  0.5893 -0.4840 -0.9605
  602MOL0     H83040  11.908   2.690   3.243  0.6426 -0.8468 -1.1108
  602MOL0     H83041  11.985   2.746   3.091 -0.4981  0.8431 -0.3176
  602MOL0     H83042  12.053   2.532   3.036 -2.5259  0.6127 -0.6349
  602MOL0     H83043  12.088   2.498   3.207 -0.4921 -0.3079 -0.4288
  602MOL0     H83044  11.827   2.496   3.093  2.2689 -0.9267 -0.7823
  602MOL0     H83045  11.862   2.460   3.260  0.1662 -0.5079  0.6094
  602MOL0     H83046  11.996   2.264   3.209  0.8993  1.5233  0.0739
  602MOL0     H83047  12.009   2.278   3.037 -0.0140 -1.1297  0.6020
  602MOL0     H83048  11.851   2.105   3.101 -3.7859 -2.3038  0.3743
  602MOL0     H83049  11.767   2.218   3.198  1.0996  3.4282 -0.0660
  602MOL0     H83050  11.807   2.242   2.895 -1.6161  1.2407  0.0789
  602MOL0     H83051  11.712   2.356   2.987 -4.8679 -1.9024 -0.2829
  602MOL0     H83052  11.601   2.072   3.005 -2.7163 -1.6375 -3.2105
  602MOL0     H83053  11.613   2.136   2.848 -1.2621 -1.4892  0.6546
  602MOL0     H83054  11.467   2.335   2.923 -0.4174  3.0213  1.7346
  602MOL0     H83055  11.510   2.299   3.093  3.9116  1.8459 -1.7215
  602MOL0     H83056  12.044   2.977   3.191 -2.9002 -0.1480  1.3906
  602MOL0     H83057  12.084   3.169   3.349  1.7745  1.7673  4.0288
  602MOL0     H83058  12.142   3.238   3.799  0.2758  0.4704 -0.0760
  602MOL0     H83059  12.179   3.394   3.989  3.4983 -1.0197  0.9106
  602MOL0     H83060  11.144   4.666   3.741 -0.6909 -1.1094  1.2724
  602MOL0     H83061  10.905   4.652   3.712  1.2969  0.5879 -2.7105
  602MOL0     H83062  10.507   4.695   3.679  2.3222  1.0708  0.1116
  602MOL0     H83063  10.279   4.637   3.662 -2.0084  0.7967 -0.3692
  602MOL0     H83064   9.905   4.679   3.889  0.5286 -1.1653  0.3544
  602MOL0     H83065  10.017   4.730   4.009 -1.9516  3.5966  0.0967
  602MOL0     H83066  10.011   4.971   3.945  0.2150  1.9231 -2.2030
  602MOL0     H83067   9.851   4.907   3.980 -2.2437 -1.8593 -2.1037
  602MOL0     H83068   9.894   5.061   3.767  2.5133 -0.8942  1.5901
  602MOL0     H83069   9.978   4.916   3.707 -1.3643  0.8732 -4.0142
  602MOL0     H83070   9.779   4.795   3.695  0.2856 -1.0698  1.7263
  602MOL0     H83071   9.724   4.968   3.641  1.1830  3.9518  2.4009
  602MOL0     H83072   9.490   4.862   3.976 -1.7245  1.6879 -2.0445
  602MOL0     H83073  10.194   4.880   4.008 -1.0360  0.2080  0.5021
  602MOL0     H83074  10.514   4.981   4.086  0.8087 -1.1903 -1.0111
  602MOL0     H83075  10.449   5.113   3.989 -0.3021 -0.5982 -1.2283
  602MOL0     H83076  10.342   5.031   4.094 -1.0289 -1.8692 -0.2658
  603MOL0     O83077  11.251   2.365   4.387 -0.0294 -0.8052 -0.6339
  603MOL0     C83078  11.198   2.330   4.494  0.3501  0.3091  0.9352
  603MOL0     O83079  11.161   2.420   4.590  0.5024  0.1024  0.6998
  603MOL0     C83080  11.176   2.555   4.568  0.4965 -0.3732 -0.7985
  603MOL0     C83081  11.069   2.638   4.593 -1.3678  0.4867  0.3360
  603MOL0     C83082  11.100   2.780   4.588  0.1322  0.2059  0.2670
  603MOL0     C83083  11.233   2.831   4.587  0.1581 -0.3488 -0.9512
  603MOL0     O83084  11.270   2.964   4.602 -0.4190 -0.2943  0.1368
  603MOL0     C83085  11.214   3.038   4.708  0.0341  0.1313 -0.8752
  603MOL0     C83086  11.316   3.058   4.815  0.7804 -0.0185  0.4990
  603MOL0     C83087  11.268   3.082   4.963  0.0428  0.9466  0.6052
  603MOL0     C83088  11.182   3.213   4.979 -0.0743  0.1020 -0.3089
  603MOL0     C83089  11.132   3.231   5.132 -0.0162  0.5052  0.5478
  603MOL0     C83090  11.161   3.368   5.188  0.0005 -0.0213 -0.0531
  603MOL0     C83091  11.313   3.413   5.212 -0.2365  0.7517  0.5026
  603MOL0     C83092  11.329   3.542   5.283  0.6648  0.5509 -0.3027
  603MOL0     N83093  11.453   3.615   5.261 -0.4472 -0.4529  0.8865
  603MOL0     C83094  11.512   3.704   5.340  0.4698 -0.1700  0.1483
  603MOL0     C83095  11.596   3.777   5.261  0.4090  0.4355  0.1008
  603MOL0     C83096  11.675   3.898   5.308 -0.2432 -0.0308  0.3336
  603MOL0     C83097  11.614   4.021   5.248  0.0343 -0.7537 -0.0788
  603MOL0     C83098  11.648   4.033   5.101 -0.2095 -0.0837  0.6857
  603MOL0     C83099  11.558   4.140   5.028  0.3581  0.0697 -0.2448
  603MOL0     O83100  11.568   4.268   5.085  0.2971  0.3171  0.5411
  603MOL0     C83101  11.528   4.383   5.013  1.1559  0.2007  0.1184
  603MOL0     C83102  11.470   4.380   4.887 -0.3207  0.6557  0.3583
  603MOL0     C83103  11.417   4.506   4.831  0.2986  0.7133  0.8635
  603MOL0     C83104  11.347   4.496   4.690  0.2261 -0.0760  0.3142
  603MOL0     C83105  11.428   4.627   4.909  1.4222 -0.3539  0.2589
  603MOL0     C83106  11.366   4.758   4.877  0.0872 -0.1490 -0.7442
  603MOL0     O83107  11.374   4.803   4.745  0.6459  0.1126  0.3607
  603MOL0     C83108  11.349   4.933   4.723 -0.5096 -0.4166  0.5639
  603MOL0     C83109  11.442   5.013   4.646 -0.5284  0.0406  0.2165
  603MOL0     C83110  11.418   5.144   4.625 -0.1800  0.4739 -0.4191
  603MOL0     C83111  11.303   5.203   4.659 -0.1217 -0.0190  0.2106
  603MOL0     O83112  11.280   5.331   4.636  0.3769 -0.0372 -0.2593
  603MOL0     C83113  11.313   5.407   4.757  0.1323 -0.3836 -0.7242
  603MOL0     C83114  11.323   5.553   4.730 -0.2138  0.0619  0.4156
  603MOL0     C83115  11.339   5.631   4.865  0.3503  0.5752  0.6616
  603MOL0     C83116  11.461   5.590   4.947  0.5586 -0.2468 -0.4417
  603MOL0     C83117  11.485   5.699   5.037  0.3260 -0.6693 -0.1978
  603MOL0     C83118  11.371   5.736   5.135 -0.9326 -0.1674 -0.7165
  603MOL0     C83119  11.366   5.645   5.259 -0.3600  0.6127 -0.4638
  603MOL0     C83120  11.255   5.663   5.360 -0.4248  0.5307  0.9080
  603MOL0    Cl83121  11.099   5.645   5.278  0.0204 -0.6437  0.0373
  603MOL0     C83122  11.201   5.121   4.719 -0.1295  0.0673  0.5626
  603MOL0     C83123  11.224   4.985   4.742  0.0990  0.0412 -0.5275
  603MOL0     O83124  11.315   4.821   4.965 -0.0872  0.2803  0.5775
  603MOL0     C83125  11.495   4.623   5.038  0.1236  0.5170 -0.2365
  603MOL0     C83126  11.540   4.499   5.079 -0.0091  0.4103 -0.4998
  603MOL0     N83127  11.596   3.722   5.133  0.3475 -0.2222 -0.6846
  603MOL0     N83128  11.519   3.619   5.142  0.2821  0.3006  0.4827
  603MOL0     C83129  11.336   2.746   4.580 -0.1619  1.0141  0.2982
  603MOL0     C83130  11.304   2.607   4.572 -0.2776 -0.1102  1.0413
  603MOL0     C83131  11.160   2.187   4.517 -0.6659 -0.1953  0.4102
  603MOL0     C83132  11.173   2.102   4.405  0.1975 -0.8913 -0.1895
  603MOL0     C83133  11.141   1.964   4.423 -0.2827 -0.5549  0.1352
  603MOL0     C83134  11.088   1.919   4.538 -0.9204  0.5655 -0.2078
  603MOL0     O83135  11.068   1.778   4.562 -0.3145 -1.0462 -0.1046
  603MOL0     C83136  11.088   1.682   4.458  0.0890 -0.3754 -0.0095
  603MOL0     C83137  11.107   1.550   4.520 -0.7918  0.6316 -0.3579
  603MOL0     C83138  10.982   1.486   4.587  0.6436  0.3821  0.5591
  603MOL0     C83139  10.860   1.455   4.485 -0.7987  0.7943 -0.2505
  603MOL0     C83140  10.764   1.357   4.548 -0.3892  0.8971  0.2821
  603MOL0     C83141  10.689   1.269   4.599  0.4320  0.1237 -0.7558
  603MOL0     C83142  11.069   2.008   4.647 -0.4566 -0.3725 -0.2482
  603MOL0     C83143  11.115   2.136   4.643  0.2704  0.0035 -1.1360
  603MOL0     C83144  11.084   2.219   4.764  0.0510 -0.4875  0.0084
  603MOL0     H83145  10.972   2.589   4.599 -0.3664 -2.9380 -4.7392
  603MOL0     H83146  11.018   2.852   4.589  0.9382  1.1435  0.0250
  603MOL0     H83147  11.121   2.997   4.748 -0.0725 -0.2989 -1.5430
  603MOL0     H83148  11.186   3.138   4.674  0.2152  0.3274 -0.4508
  603MOL0     H83149  11.373   2.965   4.814 -1.2581 -1.3160 -0.3686
  603MOL0     H83150  11.385   3.136   4.781  2.5307 -1.2792  1.0295
  603MOL0     H83151  11.219   2.990   4.993 -2.1231  1.3034 -1.5357
  603MOL0     H83152  11.355   3.095   5.029  2.2301 -0.1938 -1.8422
  603MOL0     H83153  11.213   3.315   4.953 -1.2536  1.0581  1.7956
  603MOL0     H83154  11.095   3.199   4.914 -0.8093 -0.2217  0.7237
  603MOL0     H83155  11.182   3.155   5.193  1.2613  1.3108  0.5417
  603MOL0     H83156  11.029   3.196   5.141  0.2147 -0.3768 -0.0848
  603MOL0     H83157  11.119   3.433   5.110 -1.5759  0.2389  0.9783
  603MOL0     H83158  11.108   3.402   5.277  2.6390  2.9173  0.5874
  603MOL0     H83159  11.363   3.427   5.116  1.5302  2.5219  1.6090
  603MOL0     H83160  11.375   3.345   5.272  1.7842  1.2421 -0.9234
  603MOL0     H83161  11.236   3.592   5.253 -0.2750  0.7690  2.6924
  603MOL0     H83162  11.319   3.505   5.385 -2.8335 -3.0726 -1.7024
  603MOL0     H83163  11.490   3.719   5.446  1.3410 -2.4010  0.7090
  603MOL0     H83164  11.779   3.887   5.275  0.2520  1.8191  1.1316
  603MOL0     H83165  11.688   3.920   5.414  0.1937 -1.1116  0.5179
  603MOL0     H83166  11.505   4.016   5.246 -0.3089  3.2287 -0.6972
  603MOL0     H83167  11.647   4.112   5.300  1.9522 -0.8059 -1.1000
  603MOL0     H83168  11.755   4.055   5.092 -0.2033 -0.6467 -1.0391
  603MOL0     H83169  11.623   3.942   5.046  1.5877 -0.4634  0.4221
  603MOL0     H83170  11.596   4.146   4.926 -2.0969 -4.0259 -1.6676
  603MOL0     H83171  11.453   4.108   5.022  0.5824 -0.5039 -1.5067
  603MOL0     H83172  11.473   4.290   4.827  2.1843  0.2330  1.0437
  603MOL0     H83173  11.388   4.572   4.622 -0.7994 -1.1437 -1.5878
  603MOL0     H83174  11.239   4.511   4.702  0.0149 -0.2960 -1.1257
  603MOL0     H83175  11.374   4.402   4.642  0.0010 -0.2287  0.4819
  603MOL0     H83176  11.541   4.976   4.620  0.1600  1.2451  1.0000
  603MOL0     H83177  11.497   5.198   4.573  1.0739 -0.7772  0.1406
  603MOL0     H83178  11.230   5.386   4.826 -0.3015 -2.5028 -1.8010
  603MOL0     H83179  11.413   5.382   4.792 -0.2563  0.0375  0.7434
  603MOL0     H83180  11.415   5.570   4.673  0.3063 -1.6379  0.6792
  603MOL0     H83181  11.237   5.592   4.675  0.1649  3.8944  2.2622
  603MOL0     H83182  11.244   5.620   4.918 -1.9753 -1.1882 -3.3602
  603MOL0     H83183  11.340   5.737   4.841  1.6121  0.5510  0.5703
  603MOL0     H83184  11.532   5.577   4.865 -2.7371 -1.8779 -3.2668
  603MOL0     H83185  11.457   5.491   4.993  0.0492 -0.1943 -0.3740
  603MOL0     H83186  11.572   5.665   5.094  0.9415 -1.4742 -1.5796
  603MOL0     H83187  11.520   5.789   4.987  3.9887  0.1744  3.3818
  603MOL0     H83188  11.273   5.753   5.089 -0.2563  1.4216 -1.6817
  603MOL0     H83189  11.410   5.833   5.169  1.9672 -1.0176 -1.3869
  603MOL0     H83190  11.460   5.664   5.312 -1.3304  1.3902  1.0585
  603MOL0     H83191  11.357   5.541   5.227  0.5788 -0.4381  2.3664
  603MOL0     H83192  11.261   5.770   5.384 -1.0213  1.8849 -3.9917
  603MOL0     H83193  11.248   5.591   5.442 -0.6887  0.7097  1.0452
  603MOL0     H83194  11.100   5.160   4.719 -0.0554  0.6108 -3.1374
  603MOL0     H83195  11.141   4.926   4.778  1.4203 -0.7490  1.4256
  603MOL0     H83196  11.501   4.711   5.099 -1.2570 -0.3152  1.1761
  603MOL0     H83197  11.597   4.489   5.171 -0.4419 -0.7007 -0.3396
  603MOL0     H83198  11.438   2.775   4.605 -0.0880 -1.0596  2.8305
  603MOL0     H83199  11.388   2.539   4.561  0.8369  0.4223  4.7984
  603MOL0     H83200  11.205   2.140   4.308 -0.5190 -1.9480 -0.8681
  603MOL0     H83201  11.136   1.901   4.335 -1.0986  0.1475 -0.3512
  603MOL0     H83202  11.007   1.679   4.385  0.9573 -1.1627 -0.9639
  603MOL0     H83203  11.178   1.719   4.408 -0.0516  1.3259  0.9393
  603MOL0     H83204  11.162   1.571   4.612  0.6261  0.7779 -1.2022
  603MOL0     H83205  11.169   1.479   4.466 -2.2096  1.8219 -3.8765
  603MOL0     H83206  11.006   1.388   4.628 -3.8210  0.5921  4.5209
  603MOL0     H83207  10.951   1.553   4.668 -1.3014 -0.6194  0.6891
  603MOL0     H83208  10.907   1.420   4.393 -0.6956  0.7338 -0.1752
  603MOL0     H83209  10.802   1.546   4.465 -2.4298 -0.2139 -0.2786
  603MOL0     H83210  10.610   1.217   4.648  1.1641 -1.0748 -0.8213
  603MOL0     H83211  11.011   1.970   4.731  0.9583  0.2165  1.0346
  603MOL0     H83212  11.044   2.165   4.850  1.0637  0.6220  1.2117
  603MOL0     H83213  11.173   2.279   4.784 -0.8228  0.4592  1.2354
  603MOL0     H83214  10.999   2.288   4.752 -1.3652 -1.4040  3.4682
  604MOL0     O83215   0.554   3.667   7.523 -0.0055 -0.9572 -0.8847
  604MOL0     C83216   0.565   3.771   7.455  0.6860  1.0986  0.0955
  604MOL0     O83217   0.482   3.796   7.351 -0.1641  0.0755 -0.4810
  604MOL0     C83218   0.429   3.689   7.291  0.0361  0.5905 -0.2559
  604MOL0     C83219   0.295   3.699   7.261  1.4334 -0.9357  1.0071
  604MOL0     C83220   0.226   3.596   7.195 -0.0606 -0.3078 -0.0715
  604MOL0     C83221   0.295   3.479   7.171 -0.0264  0.3086 -0.1662
  604MOL0     O83222   0.231   3.366   7.115 -0.0425 -0.6242 -0.4891
  604MOL0     C83223   0.099   3.334   7.164  0.7144  0.6227  0.3398
  604MOL0     C83224   0.026   3.303   7.036 -0.0431  0.0861  0.4744
  604MOL0     C83225  -0.122   3.266   7.061 -0.5798  0.1504 -0.4128
  604MOL0     C83226  -0.182   3.207   6.941 -0.2727 -0.3508 -0.1610
  604MOL0     C83227  -0.332   3.191   6.955 -0.3114 -0.4123 -0.3165
  604MOL0     C83228  -0.399   3.111   7.071 -0.4382 -0.2140  0.3342
  604MOL0     C83229  -0.551   3.107   7.068 -0.4856  0.1132  0.4657
  604MOL0     C83230  -0.606   3.252   7.090 -0.3290 -0.1280  0.6250
  604MOL0     N83231  -0.752   3.253   7.093  0.0753 -0.5078 -0.1555
  604MOL0     C83232  -0.828   3.158   7.035  0.1182  1.1005 -0.8120
  604MOL0     C83233  -0.954   3.190   7.070  0.7819  0.4373 -0.7005
  604MOL0     C83234  -1.088   3.120   7.035 -0.1102 -0.6318 -0.3887
  604MOL0     C83235  -1.170   3.210   6.948 -0.1379  0.9728  0.2472
  604MOL0     C83236  -1.302   3.135   6.922  0.4891 -0.6505  0.8601
  604MOL0     C83237  -1.384   3.210   6.817 -0.0889 -0.4523  0.1256
  604MOL0     O83238  -1.307   3.232   6.695  0.0776  0.3277 -0.6860
  604MOL0     C83239  -1.381   3.248   6.587  0.4988  0.1533 -0.0948
  604MOL0     C83240  -1.493   3.334   6.585 -0.1958 -0.1131 -0.2787
  604MOL0     C83241  -1.556   3.369   6.462 -0.5061  0.4729 -0.0864
  604MOL0     C83242  -1.672   3.458   6.473  0.7576 -0.7691 -0.4683
  604MOL0     C83243  -1.510   3.304   6.338 -0.5344  0.5552  0.3152
  604MOL0     C83244  -1.562   3.316   6.209  0.4970  0.3126  0.9275
  604MOL0     O83245  -1.531   3.225   6.109  0.0281 -0.0910 -0.0679
  604MOL0     C83246  -1.605   3.217   5.988  0.0126  0.1994 -0.6237
  604MOL0     C83247  -1.737   3.261   5.973  0.6145  0.1848 -0.2659
  604MOL0     C83248  -1.800   3.260   5.847  0.2190  0.0283 -1.7815
  604MOL0     C83249  -1.725   3.202   5.749  0.7867  0.1999  0.3658
  604MOL0     O83250  -1.790   3.181   5.629 -0.0022  0.0163 -0.8537
  604MOL0     C83251  -1.762   3.051   5.565  0.0276  0.0201  0.3323
  604MOL0     C83252  -1.840   3.031   5.435  0.0206  0.3218  0.8815
  604MOL0     C83253  -1.995   3.045   5.459  0.3549  0.1895 -0.7235
  604MOL0     C83254  -2.072   3.026   5.323 -1.0891  0.7509 -0.0788
  604MOL0     C83255  -2.075   3.148   5.235 -0.0299 -0.6557  0.6197
  604MOL0     C83256  -2.173   3.271   5.278  0.2774 -0.1181 -0.2560
  604MOL0     C83257  -2.147   3.385   5.177  0.0792  0.2130 -0.3375
  604MOL0     C83258  -2.236   3.504   5.219 -0.2444  0.2371  0.0104
  604MOL0    Cl83259  -2.156   3.653   5.188  0.0141  0.0273  0.5336
  604MOL0     C83260  -1.596   3.144   5.768 -0.5943  0.3996  0.3866
  604MOL0     C83261  -1.537   3.161   5.886  0.1416 -0.2880  0.5463
  604MOL0     O83262  -1.628   3.416   6.188 -0.0518 -0.1445  0.0618
  604MOL0     C83263  -1.405   3.219   6.347  0.8212  0.5666 -0.7993
  604MOL0     C83264  -1.347   3.188   6.465  0.4675 -0.4313  0.8145
  604MOL0     N83265  -0.953   3.313   7.138 -0.3575 -0.1982 -0.8152
  604MOL0     N83266  -0.832   3.348   7.150  0.6331  0.7224  0.0283
  604MOL0     C83267   0.435   3.467   7.195  1.0180 -0.0755 -0.3636
  604MOL0     C83268   0.504   3.576   7.250 -0.1665 -0.0056  0.2699
  604MOL0     C83269   0.656   3.875   7.496 -0.3813 -0.3004 -0.2065
  604MOL0     C83270   0.643   3.996   7.435  0.0391  0.5816  0.3871
  604MOL0     C83271   0.716   4.108   7.470  0.1885 -0.0150  0.4647
  604MOL0     C83272   0.802   4.106   7.574 -0.1964  0.7082 -0.6027
  604MOL0     O83273   0.864   4.224   7.605 -0.3852 -0.5133  0.2650
  604MOL0     C83274   1.000   4.205   7.644 -0.9587  0.2066  0.0863
  604MOL0     C83275   1.090   4.333   7.617 -0.3072  0.2366 -0.6614
  604MOL0     C83276   1.233   4.328   7.656 -0.6027 -0.4570 -0.4894
  604MOL0     C83277   1.232   4.358   7.813 -0.2455 -0.9050  0.3415
  604MOL0     C83278   1.362   4.414   7.851  0.8428 -1.1242 -0.8950
  604MOL0     C83279   1.468   4.471   7.875  0.2514 -0.6990 -1.1030
  604MOL0     C83280   0.818   3.992   7.641  0.3445  1.3840 -0.7657
  604MOL0     C83281   0.744   3.875   7.604 -0.9564  0.5023 -0.7310
  604MOL0     C83282   0.775   3.756   7.692 -0.1353  0.5576 -0.0705
  604MOL0     H83283   0.244   3.789   7.294 -0.0651 -1.2064 -0.4750
  604MOL0     H83284   0.127   3.612   7.152  1.8665  1.2376 -4.4519
  604MOL0     H83285   0.046   3.419   7.209 -0.7051  0.3482 -0.7455
  604MOL0     H83286   0.094   3.250   7.234  1.3903  0.0622 -0.2683
  604MOL0     H83287   0.027   3.396   6.979 -0.6413 -0.3648 -0.3027
  604MOL0     H83288   0.078   3.225   6.979 -0.8475 -0.0802 -0.0507
  604MOL0     H83289  -0.118   3.194   7.144  1.7239 -0.4682 -0.9958
  604MOL0     H83290  -0.190   3.345   7.094 -1.7572 -0.8655 -0.2890
  604MOL0     H83291  -0.160   3.264   6.851  1.1739 -0.7015 -0.0493
  604MOL0     H83292  -0.136   3.111   6.917 -1.9192 -1.3452  0.4787
  604MOL0     H83293  -0.367   3.150   6.860 -2.4941  0.5954 -0.0138
  604MOL0     H83294  -0.375   3.291   6.969 -1.2090 -1.0010  1.3750
  604MOL0     H83295  -0.362   3.008   7.066 -0.0154 -0.0274 -1.0593
  604MOL0     H83296  -0.370   3.154   7.167  0.8024  1.1071 -0.5735
  604MOL0     H83297  -0.587   3.048   7.153 -1.7195  0.7396  0.3940
  604MOL0     H83298  -0.581   3.068   6.970 -1.2019  2.6354 -0.3959
  604MOL0     H83299  -0.565   3.295   7.181 -1.7293  0.2447  1.1144
  604MOL0     H83300  -0.566   3.322   7.016  0.4519  0.1958  1.3439
  604MOL0     H83301  -0.800   3.063   6.990  1.4192  0.0455  2.0076
  604MOL0     H83302  -1.141   3.102   7.129  1.4640  1.4628  0.9791
  604MOL0     H83303  -1.068   3.026   6.983 -2.3554 -1.5260  0.2464
  604MOL0     H83304  -1.175   3.307   6.999  1.1253  0.6456  1.0404
  604MOL0     H83305  -1.105   3.222   6.860 -0.0348  0.4592  0.2472
  604MOL0     H83306  -1.296   3.035   6.879 -1.7608 -0.3026 -0.4096
  604MOL0     H83307  -1.365   3.144   7.011 -0.0622  3.0206  0.2415
  604MOL0     H83308  -1.485   3.171   6.804  0.8438 -2.5398 -1.7340
  604MOL0     H83309  -1.398   3.304   6.870 -0.0565 -0.4056  0.0527
  604MOL0     H83310  -1.514   3.363   6.688  3.2763 -0.7636  0.7536
  604MOL0     H83311  -1.646   3.556   6.433 -1.8012  0.9579  1.7312
  604MOL0     H83312  -1.708   3.462   6.577  0.1103  1.3597 -0.7282
  604MOL0     H83313  -1.753   3.427   6.407  0.9416  2.6039 -2.4729
  604MOL0     H83314  -1.786   3.299   6.062 -0.7466  0.4037 -1.0890
  604MOL0     H83315  -1.888   3.323   5.835 -0.8731 -0.1999  3.0207
  604MOL0     H83316  -1.661   3.042   5.522 -0.5735 -2.8815 -0.7265
  604MOL0     H83317  -1.778   2.955   5.614 -4.0806 -0.6781 -1.9522
  604MOL0     H83318  -1.812   3.109   5.364  0.0084 -1.4668 -1.2011
  604MOL0     H83319  -1.825   2.929   5.399 -2.0827  0.1009  0.4739
  604MOL0     H83320  -2.007   3.145   5.499 -0.0262  0.4802 -1.5355
  604MOL0     H83321  -2.023   2.977   5.540 -0.7805  1.2039 -0.2327
  604MOL0     H83322  -2.171   2.987   5.346 -1.4578  0.2467 -2.3175
  604MOL0     H83323  -2.026   2.940   5.273 -1.7691  0.9622 -1.0891
  604MOL0     H83324  -1.976   3.193   5.220 -1.5395  2.4165 -1.1209
  604MOL0     H83325  -2.089   3.112   5.133 -0.5542 -1.2070  0.8799
  604MOL0     H83326  -2.148   3.315   5.375  2.8121 -0.4212 -0.6999
  604MOL0     H83327  -2.276   3.234   5.268  0.6006 -0.9243 -0.6660
  604MOL0     H83328  -2.159   3.355   5.073  1.1526 -1.9530  0.1191
  604MOL0     H83329  -2.041   3.412   5.184  1.2305 -3.9863  1.3926
  604MOL0     H83330  -2.258   3.493   5.326  0.7941  3.7222  0.7195
  604MOL0     H83331  -2.333   3.496   5.170  0.7475  0.3400 -2.0529
  604MOL0     H83332  -1.539   3.097   5.688 -0.8393  0.7402  0.0105
  604MOL0     H83333  -1.435   3.129   5.905 -0.4336 -1.8790  1.0922
  604MOL0     H83334  -1.371   3.164   6.260 -1.7230 -1.8563 -0.4105
  604MOL0     H83335  -1.271   3.111   6.457  0.3409 -0.4975  0.2498
  604MOL0     H83336   0.476   3.370   7.170  2.5761  0.6682 -0.8101
  604MOL0     H83337   0.612   3.575   7.248 -0.0928 -1.4479  2.3390
  604MOL0     H83338   0.573   4.016   7.354 -0.0844 -1.7830 -0.1544
  604MOL0     H83339   0.694   4.201   7.418  0.0251  0.1173  0.7616
  604MOL0     H83340   0.998   4.172   7.748  0.0979  1.8338  0.6690
  604MOL0     H83341   1.054   4.126   7.592 -0.6288  0.1646  0.4902
  604MOL0     H83342   1.039   4.420   7.660  0.7164 -0.3335  1.8387
  604MOL0     H83343   1.099   4.344   7.508  0.2550 -3.1040 -1.0689
  604MOL0     H83344   1.279   4.231   7.635 -2.0350 -1.5449  1.1074
  604MOL0     H83345   1.278   4.411   7.602 -1.6093  0.2998 -0.1845
  604MOL0     H83346   1.216   4.281   7.889 -0.5744  1.5784  2.9761
  604MOL0     H83347   1.163   4.441   7.829  0.5314 -0.3156  0.7319
  604MOL0     H83348   1.564   4.517   7.888  0.9138 -2.4571  0.8150
  604MOL0     H83349   0.874   3.982   7.733 -0.5978 -0.6535 -0.3556
  604MOL0     H83350   0.709   3.768   7.779 -2.2148 -0.7220 -1.3864
  604MOL0     H83351   0.760   3.655   7.652 -1.6794 -0.1289  2.0509
  604MOL0     H83352   0.880   3.763   7.720  0.0561  2.5644 -1.1112
  605MOL0     O83353   8.605   6.687   7.540 -0.5003  0.1214  0.4640
  605MOL0     C83354   8.627   6.702   7.658  0.0371 -0.0906 -0.0774
  605MOL0     O83355   8.534   6.658   7.754 -0.7850  0.3308 -0.3625
  605MOL0     C83356   8.454   6.553   7.716 -0.6621 -0.1460 -0.2799
  605MOL0     C83357   8.502   6.425   7.699 -0.2703  0.5310 -0.6256
  605MOL0     C83358   8.415   6.321   7.665  0.1422 -0.5301 -0.3139
  605MOL0     C83359   8.279   6.340   7.650 -0.2344  0.3118  0.6115
  605MOL0     O83360   8.185   6.245   7.607 -0.1372 -0.0204  0.5140
  605MOL0     C83361   8.224   6.119   7.564 -0.3269 -1.1189 -0.2631
  605MOL0     C83362   8.135   6.075   7.444 -0.4247  0.1016 -0.4841
  605MOL0     C83363   8.160   5.934   7.398 -0.2028  0.2162  0.2634
  605MOL0     C83364   8.065   5.879   7.287 -0.2374 -0.1094 -1.1408
  605MOL0     C83365   8.138   5.774   7.205 -0.0393 -0.3016 -0.0391
  605MOL0     C83366   8.069   5.735   7.073  0.8626 -0.1459  0.2250
  605MOL0     C83367   8.142   5.606   7.006 -0.1760 -0.4703 -0.2253
  605MOL0     C83368   8.273   5.639   6.931  0.5703  0.7210 -0.2514
  605MOL0     N83369   8.230   5.710   6.806  0.3792 -0.2278  0.2394
  605MOL0     C83370   8.217   5.649   6.683  0.1428  0.3865  0.4193
  605MOL0     C83371   8.221   5.754   6.599 -0.0995  0.6902 -0.1443
  605MOL0     C83372   8.212   5.751   6.456 -1.0171  0.3192  0.5850
  605MOL0     C83373   8.332   5.822   6.396 -0.3342 -1.0807 -0.5670
  605MOL0     C83374   8.366   5.762   6.257 -0.2606 -0.3608 -0.0938
  605MOL0     C83375   8.478   5.830   6.184 -0.8360 -0.4718  0.2600
  605MOL0     O83376   8.465   5.816   6.040  0.5069 -0.4894  0.2522
  605MOL0     C83377   8.498   5.691   5.994 -0.4066  0.1377 -0.4019
  605MOL0     C83378   8.423   5.627   5.898 -0.0525 -0.5298  0.4158
  605MOL0     C83379   8.455   5.505   5.837  0.0222 -0.6193 -0.5002
  605MOL0     C83380   8.352   5.446   5.747  1.2364 -0.0074 -1.7740
  605MOL0     C83381   8.583   5.452   5.858 -0.5243 -0.1689 -0.3911
  605MOL0     C83382   8.616   5.327   5.782  0.4023 -0.2129  1.0237
  605MOL0     O83383   8.700   5.242   5.844 -0.0439 -1.1016  0.3698
  605MOL0     C83384   8.702   5.112   5.795  0.0407 -0.4440 -0.2750
  605MOL0     C83385   8.827   5.037   5.793 -0.4068  0.4081 -0.3821
  605MOL0     C83386   8.825   4.904   5.745  0.3221 -0.1535 -0.2600
  605MOL0     C83387   8.706   4.841   5.715 -1.0511  0.4380 -0.0743
  605MOL0     O83388   8.723   4.707   5.698  0.4272  0.0739 -0.3435
  605MOL0     C83389   8.708   4.647   5.568 -0.4080 -1.8042 -0.2163
  605MOL0     C83390   8.791   4.518   5.568  0.1871 -0.7098  0.0433
  605MOL0     C83391   8.764   4.421   5.687  0.4692  0.5927  0.1306
  605MOL0     C83392   8.843   4.292   5.656  0.0480 -0.0793  0.5364
  605MOL0     C83393   8.820   4.166   5.742  0.6546 -0.2260 -0.2326
  605MOL0     C83394   8.849   4.184   5.892 -0.5012  0.0164  0.1899
  605MOL0     C83395   8.875   4.061   5.966 -0.1386 -0.0352  0.7158
  605MOL0     C83396   8.742   4.014   6.040  0.8726 -0.0686 -0.0113
  605MOL0    Cl83397   8.608   4.010   5.928  0.2520  0.0907 -0.0425
  605MOL0     C83398   8.587   4.903   5.731 -0.2504 -0.0441  0.9187
  605MOL0     C83399   8.584   5.042   5.762 -0.9249 -0.3170 -0.4162
  605MOL0     O83400   8.585   5.319   5.661 -0.0576 -0.2295  0.3412
  605MOL0     C83401   8.663   5.508   5.960  0.1471 -0.4455  0.4960
  605MOL0     C83402   8.622   5.625   6.028  0.1373 -0.4494  0.6450
  605MOL0     N83403   8.226   5.876   6.669  0.2918 -0.2818 -0.3897
  605MOL0     N83404   8.219   5.843   6.798 -0.2557 -0.3896  0.2203
  605MOL0     C83405   8.234   6.468   7.666 -0.7439 -0.0933  0.6207
  605MOL0     C83406   8.313   6.568   7.708 -0.6249 -0.9880 -0.2612
  605MOL0     C83407   8.750   6.779   7.714  0.0851 -0.0506  0.2924
  605MOL0     C83408   8.830   6.851   7.619  0.3481  1.0621 -0.6149
  605MOL0     C83409   8.945   6.918   7.652 -0.8341  0.4572 -0.2728
  605MOL0     C83410   8.985   6.912   7.783  0.0202  0.1968 -0.4674
  605MOL0     O83411   9.104   6.979   7.817 -0.1697 -1.1369  0.1873
  605MOL0     C83412   9.135   7.026   7.950  0.2905 -0.4471  0.1484
  605MOL0     C83413   9.045   7.143   8.005 -0.3482  0.4032  0.1295
  605MOL0     C83414   9.039   7.252   7.903 -0.7951  1.4658 -0.3424
  605MOL0     C83415   8.914   7.347   7.928 -0.0034  0.1453 -0.1340
  605MOL0     C83416   8.908   7.419   8.051  0.3075 -0.9721 -0.0608
  605MOL0     C83417   8.896   7.481   8.156 -0.8530 -0.3913 -1.1057
  605MOL0     C83418   8.924   6.829   7.873  0.2229 -0.4597  0.3571
  605MOL0     C83419   8.809   6.761   7.846 -0.3901 -0.5524 -0.0124
  605MOL0     C83420   8.782   6.650   7.941  0.0098  0.0407  0.7744
  605MOL0     H83421   8.608   6.406   7.711  0.5369  4.3287 -0.4062
  605MOL0     H83422   8.467   6.228   7.645  0.9573  0.5047 -3.5483
  605MOL0     H83423   8.214   6.049   7.647  1.6792  1.0795  2.0288
  605MOL0     H83424   8.329   6.119   7.534 -0.5937  1.1815 -1.4193
  605MOL0     H83425   8.027   6.088   7.459 -0.7361 -0.9313 -1.6269
  605MOL0     H83426   8.161   6.140   7.360  0.2469  0.7871  0.2461
  605MOL0     H83427   8.267   5.926   7.375  0.1719  2.0676  1.2114
  605MOL0     H83428   8.134   5.869   7.481 -3.9673  1.3625  0.1595
  605MOL0     H83429   7.976   5.838   7.336  1.2392 -0.8124  1.0741
  605MOL0     H83430   8.030   5.955   7.216 -2.3784  0.4032  0.3422
  605MOL0     H83431   8.165   5.688   7.268 -3.6147 -1.4292  0.1924
  605MOL0     H83432   8.232   5.824   7.183 -0.2317  1.4255  2.6663
  605MOL0     H83433   7.966   5.714   7.101  1.0736 -0.7436  0.5595
  605MOL0     H83434   8.059   5.821   7.005  0.7040 -1.1204 -1.0271
  605MOL0     H83435   8.072   5.550   6.944 -1.0113  1.1662 -0.8039
  605MOL0     H83436   8.175   5.539   7.085  1.2840 -1.3918 -1.5624
  605MOL0     H83437   8.333   5.708   6.990 -2.4726  2.4689  0.9928
  605MOL0     H83438   8.339   5.552   6.918  0.4311  0.5799 -0.0260
  605MOL0     H83439   8.218   5.547   6.644  1.8124 -0.8954  3.4694
  605MOL0     H83440   8.122   5.802   6.422  0.1244  1.2179 -1.2363
  605MOL0     H83441   8.198   5.646   6.427 -1.8267  0.5844 -0.0163
  605MOL0     H83442   8.311   5.929   6.392  0.0627 -1.0363 -2.8214
  605MOL0     H83443   8.412   5.794   6.465 -0.2303 -3.1701 -1.4452
  605MOL0     H83444   8.371   5.653   6.259 -2.3358 -0.5200  2.7610
  605MOL0     H83445   8.276   5.777   6.197 -1.1871 -3.7114  0.2528
  605MOL0     H83446   8.481   5.939   6.196 -2.3068  0.1800 -3.8208
  605MOL0     H83447   8.571   5.787   6.222 -0.9955 -1.7192 -0.7051
  605MOL0     H83448   8.334   5.672   5.856 -0.9405 -2.2200  0.3853
  605MOL0     H83449   8.367   5.484   5.645  0.9431 -0.4654 -1.9901
  605MOL0     H83450   8.249   5.466   5.775  1.0560 -0.3144 -2.2054
  605MOL0     H83451   8.359   5.337   5.740 -0.0782 -0.3769  1.3884
  605MOL0     H83452   8.923   5.086   5.799 -0.6870  1.0245 -0.7770
  605MOL0     H83453   8.913   4.844   5.726  2.2770  2.8046 -1.3805
  605MOL0     H83454   8.599   4.642   5.574 -0.5141  0.6562  1.5080
  605MOL0     H83455   8.749   4.709   5.488  1.5654 -2.5943  0.1303
  605MOL0     H83456   8.762   4.467   5.476  0.9969 -1.2746  0.0883
  605MOL0     H83457   8.897   4.544   5.556  0.4257 -2.6485 -3.5243
  605MOL0     H83458   8.661   4.385   5.688  1.1135 -1.7576 -2.7027
  605MOL0     H83459   8.791   4.470   5.781  4.4978  1.0751 -1.0637
  605MOL0     H83460   8.949   4.313   5.670  0.0256  1.8649 -1.6316
  605MOL0     H83461   8.826   4.275   5.549  1.6843  1.1562  0.0412
  605MOL0     H83462   8.722   4.123   5.722 -1.1049  2.6772  1.4195
  605MOL0     H83463   8.895   4.093   5.709  0.6158 -0.4377  0.1411
  605MOL0     H83464   8.765   4.230   5.944 -1.2508  2.0286 -2.5543
  605MOL0     H83465   8.935   4.249   5.913 -0.4883 -0.0018  0.1949
  605MOL0     H83466   8.956   4.069   6.040 -0.4135  2.5726  0.8386
  605MOL0     H83467   8.911   3.978   5.905 -0.7434  0.5498 -0.4682
  605MOL0     H83468   8.714   4.079   6.123  2.7780 -3.1068  3.3189
  605MOL0     H83469   8.748   3.917   6.091  0.6836 -1.2066 -2.0585
  605MOL0     H83470   8.491   4.853   5.720  0.1182 -0.3689 -1.2928
  605MOL0     H83471   8.488   5.091   5.772 -1.7121 -2.2620  3.1065
  605MOL0     H83472   8.765   5.472   5.974 -0.6372 -2.0363  2.8036
  605MOL0     H83473   8.689   5.676   6.096  2.8706  1.2805 -2.9824
  605MOL0     H83474   8.133   6.502   7.644 -0.5467 -0.2902 -0.7079
  605MOL0     H83475   8.260   6.663   7.713 -2.6541 -2.1079  1.3611
  605MOL0     H83476   8.794   6.861   7.517  4.2078 -0.2116 -2.3003
  605MOL0     H83477   8.981   6.985   7.575 -1.3763  0.1866 -0.7637
  605MOL0     H83478   9.132   6.939   8.016 -1.3566 -1.7770 -1.5725
  605MOL0     H83479   9.240   7.055   7.944  0.9991 -2.3951  1.9581
  605MOL0     H83480   9.096   7.194   8.088 -2.5292  3.2464 -0.0969
  605MOL0     H83481   8.941   7.118   8.024 -0.2838 -1.3735 -1.5623
  605MOL0     H83482   9.141   7.291   7.903  0.9545 -2.4816 -2.5600
  605MOL0     H83483   9.024   7.205   7.805 -0.6985  0.8671 -0.0740
  605MOL0     H83484   8.820   7.295   7.909  1.7951 -3.3667 -0.1174
  605MOL0     H83485   8.922   7.417   7.844  0.3318 -0.3421 -0.5126
  605MOL0     H83486   8.872   7.527   8.249  0.7360  0.2179 -0.9496
  605MOL0     H83487   8.990   6.814   7.958 -0.5901 -1.4057  0.8454
  605MOL0     H83488   8.676   6.669   7.962 -0.4817 -0.2482 -1.2414
  605MOL0     H83489   8.810   6.554   7.898  2.0826  1.4117 -1.1153
  605MOL0     H83490   8.849   6.639   8.027  0.4945 -3.7044  0.0784
  606MOL0     O83491   3.517   8.958   0.337  0.2616  0.1143 -0.4195
  606MOL0     C83492   3.588   8.886   0.415  0.7617 -0.6160  0.0638
  606MOL0     O83493   3.725   8.888   0.420  0.3291  0.3357  0.3584
  606MOL0     C83494   3.794   8.979   0.352 -1.0839 -0.8068  0.1787
  606MOL0     C83495   3.765   9.115   0.348 -0.6477 -0.6782 -0.1292
  606MOL0     C83496   3.852   9.217   0.291 -0.6575  0.6510  0.7342
  606MOL0     C83497   3.986   9.179   0.244  0.6204 -0.2011 -0.0811
  606MOL0     O83498   4.071   9.271   0.188  0.8197  0.0352 -0.2537
  606MOL0     C83499   4.045   9.413   0.208 -0.2020  0.8682 -0.7173
  606MOL0     C83500   4.160   9.504   0.154  0.1636 -0.5840 -0.0713
  606MOL0     C83501   4.109   9.630   0.082 -0.1333  0.0495 -0.5924
  606MOL0     C83502   4.231   9.711   0.023 -0.4940 -0.0595 -0.5043
  606MOL0     C83503   4.202   9.866  -0.012 -0.8301 -0.3743 -0.4691
  606MOL0     C83504   4.134   9.867  -0.147  0.6251  0.4884  0.4587
  606MOL0     C83505   4.078  10.005  -0.190 -0.9834  0.2465  0.2821
  606MOL0     C83506   4.090  10.033  -0.339 -0.5767 -0.6470  0.0064
  606MOL0     N83507   4.038  10.171  -0.363  0.1174  0.4119  0.2409
  606MOL0     C83508   4.116  10.287  -0.363 -0.1379  0.0883  0.7284
  606MOL0     C83509   4.031  10.381  -0.348  0.1271 -0.5612  0.2968
  606MOL0     C83510   4.043  10.526  -0.314 -0.5969 -0.0775  0.1049
  606MOL0     C83511   4.004  10.562  -0.164 -0.3133  0.0886  0.8321
  606MOL0     C83512   4.042  10.459  -0.055  0.0289 -0.2940  0.9940
  606MOL0     C83513   4.188  10.460  -0.011  0.5447 -0.1065  0.8263
  606MOL0     O83514   4.212  10.360   0.087  0.6404 -0.2400 -0.7668
  606MOL0     C83515   4.297  10.258   0.075  1.0368  0.7431 -0.4528
  606MOL0     C83516   4.379  10.231  -0.033  0.3389 -0.8514  0.6531
  606MOL0     C83517   4.472  10.134  -0.032 -0.5531  0.2172  0.0115
  606MOL0     C83518   4.540  10.119  -0.164 -0.2733  0.1530  0.1541
  606MOL0     C83519   4.493  10.053   0.079 -0.2769  0.5965 -0.1051
  606MOL0     C83520   4.599   9.946   0.099  0.5043  0.4567  0.6659
  606MOL0     O83521   4.711   9.960   0.021  0.6987 -0.4862 -0.1511
  606MOL0     C83522   4.822   9.874   0.052  0.7701 -0.6222  0.0021
  606MOL0     C83523   4.879   9.803  -0.050 -0.4797 -0.1740 -0.0689
  606MOL0     C83524   4.981   9.711  -0.036  0.3749  0.3348 -0.8550
  606MOL0     C83525   5.020   9.682   0.094 -0.2771  0.8914  0.0429
  606MOL0     O83526   5.117   9.598   0.135 -0.6333  0.6323 -0.2698
  606MOL0     C83527   5.182   9.509   0.037  0.2809  0.1502  0.4711
  606MOL0     C83528   5.212   9.369   0.105  0.4435  0.9703 -0.4910
  606MOL0     C83529   5.306   9.378   0.228  0.1299  0.7925 -0.1435
  606MOL0     C83530   5.373   9.235   0.235  1.1531  0.7206 -0.7984
  606MOL0     C83531   5.489   9.238   0.340  0.3079  0.5299  1.3577
  606MOL0     C83532   5.597   9.348   0.329 -0.5497 -1.1875  0.1040
  606MOL0     C83533   5.699   9.341   0.441 -0.0179 -0.8370 -0.0623
  606MOL0     C83534   5.820   9.410   0.388  0.3789 -0.2075 -0.7787
  606MOL0    Cl83535   5.800   9.594   0.378  0.2967  0.1091  0.2002
  606MOL0     C83536   4.955   9.742   0.197 -0.0224 -0.0615 -0.2921
  606MOL0     C83537   4.861   9.844   0.183 -0.2370  0.3787 -0.0568
  606MOL0     O83538   4.571   9.844   0.170  0.3189 -0.0210 -0.2215
  606MOL0     C83539   4.404  10.073   0.188  0.0366 -0.6116 -0.3635
  606MOL0     C83540   4.307  10.171   0.189 -0.1533 -0.1882  0.7370
  606MOL0     N83541   3.907  10.329  -0.346  1.4463  0.4400  0.0763
  606MOL0     N83542   3.909  10.202  -0.364  0.8757  0.6160 -0.8020
  606MOL0     C83543   4.014   9.039   0.252 -0.3732 -0.3418  0.4971
  606MOL0     C83544   3.921   8.945   0.298  0.7427  0.5915 -0.6673
  606MOL0     C83545   3.511   8.815   0.522 -0.1809  0.2229 -1.1191
  606MOL0     C83546   3.592   8.764   0.627 -0.3803  0.4818 -0.8494
  606MOL0     C83547   3.538   8.709   0.740  1.0941  0.7638  0.0980
  606MOL0     C83548   3.392   8.691   0.747 -0.5506  0.3112 -0.6524
  606MOL0     O83549   3.329   8.640   0.859 -0.0520  0.8050 -0.5174
  606MOL0     C83550   3.391   8.639   0.989  0.5340  0.5293 -0.0044
  606MOL0     C83551   3.293   8.612   1.095  0.6865 -0.1053 -0.3619
  606MOL0     C83552   3.363   8.586   1.234 -0.1979 -0.0943  0.5819
  606MOL0     C83553   3.264   8.546   1.339 -0.3257  0.1037 -0.6340
  606MOL0     C83554   3.257   8.399   1.349  0.8767 -0.2824 -0.2588
  606MOL0     C83555   3.243   8.280   1.351 -0.1905  0.6671  0.5923
  606MOL0     C83556   3.318   8.730   0.641  0.9933 -0.1582 -0.0666
  606MOL0     C83557   3.369   8.790   0.528 -0.0290 -0.2295  0.2174
  606MOL0     C83558   3.267   8.838   0.435  0.3583  0.1568  0.6837
  606MOL0     H83559   3.671   9.157   0.381  0.9005  2.8317  0.1835
  606MOL0     H83560   3.813   9.318   0.280  1.5452  1.4635 -0.0266
  606MOL0     H83561   4.025   9.429   0.314 -0.8360 -0.6229 -0.5899
  606MOL0     H83562   3.952   9.440   0.157 -1.5304  0.3247  1.3032
  606MOL0     H83563   4.224   9.535   0.237  1.0843  0.8579 -1.2686
  606MOL0     H83564   4.221   9.448   0.082  1.7659  0.1640  0.6607
  606MOL0     H83565   4.030   9.595   0.015 -0.7119  1.4854 -0.7054
  606MOL0     H83566   4.064   9.697   0.156 -0.7933 -1.8681  0.8059
  606MOL0     H83567   4.310   9.715   0.098  0.8201  0.9724 -1.8864
  606MOL0     H83568   4.253   9.656  -0.068  0.4889  1.7140 -1.3978
  606MOL0     H83569   4.290   9.930  -0.020  0.1399 -1.5502  0.3103
  606MOL0     H83570   4.131   9.910   0.058  0.0186  0.9922 -0.4298
  606MOL0     H83571   4.206   9.829  -0.221  0.3367  1.7384 -0.5065
  606MOL0     H83572   4.054   9.793  -0.136  0.8377  0.5183  2.6131
  606MOL0     H83573   4.150  10.077  -0.149  1.0268 -1.2097 -0.5389
  606MOL0     H83574   3.976  10.017  -0.152  0.0820 -1.7032  4.3077
  606MOL0     H83575   4.192  10.031  -0.379 -0.6224 -0.5054 -0.1193
  606MOL0     H83576   4.042   9.953  -0.395 -1.3709 -0.5450  0.5317
  606MOL0     H83577   4.224  10.290  -0.360 -0.1463 -0.1750  3.0054
  606MOL0     H83578   3.976  10.573  -0.387 -0.7744  0.6038  0.6968
  606MOL0     H83579   4.141  10.570  -0.335 -0.7729  0.4011  0.2717
  606MOL0     H83580   4.037  10.664  -0.140  0.0087  0.4841 -1.1362
  606MOL0     H83581   3.895  10.565  -0.167 -0.4221 -0.5756 -4.2009
  606MOL0     H83582   3.974  10.481   0.028  2.2112  1.8741  2.3551
  606MOL0     H83583   4.019  10.355  -0.083 -2.2808  0.4082  0.0089
  606MOL0     H83584   4.256  10.465  -0.097  0.7028 -0.7557  0.9056
  606MOL0     H83585   4.202  10.557   0.038  1.2259  0.5469 -0.6047
  606MOL0     H83586   4.361  10.284  -0.126 -1.3604 -2.2636  0.1271
  606MOL0     H83587   4.491  10.166  -0.249  1.2395  0.0903 -0.7998
  606MOL0     H83588   4.550  10.015  -0.196  0.1565  0.4375 -0.6708
  606MOL0     H83589   4.637  10.170  -0.159 -1.3921  2.3102  2.0306
  606MOL0     H83590   4.840   9.832  -0.147 -0.5949 -0.6219 -0.1581
  606MOL0     H83591   5.027   9.662  -0.121  1.9993  1.3513 -0.6005
  606MOL0     H83592   5.118   9.484  -0.048  0.3284  0.2398  0.4086
  606MOL0     H83593   5.270   9.559  -0.007  1.0462 -0.7252  0.9710
  606MOL0     H83594   5.123   9.319   0.143  2.6289 -1.4886  1.8554
  606MOL0     H83595   5.258   9.294   0.040  0.1538 -2.2552  2.7120
  606MOL0     H83596   5.233   9.393   0.308 -0.7422  1.2792 -0.9990
  606MOL0     H83597   5.377   9.461   0.228  0.6905  0.3662  1.8390
  606MOL0     H83598   5.414   9.213   0.136  0.2397  3.2222 -1.8264
  606MOL0     H83599   5.292   9.170   0.270 -0.4964  4.4197  3.1128
  606MOL0     H83600   5.453   9.262   0.441 -0.0169 -1.8900  1.8975
  606MOL0     H83601   5.526   9.135   0.343 -0.3396  0.2898  4.3072
  606MOL0     H83602   5.557   9.448   0.311 -3.6143 -2.1211  1.1189
  606MOL0     H83603   5.644   9.315   0.235  0.6235  1.1485 -0.1859
  606MOL0     H83604   5.734   9.241   0.467 -1.3737 -0.6874  2.7722
  606MOL0     H83605   5.654   9.381   0.533 -0.1460 -0.0098 -0.4695
  606MOL0     H83606   5.853   9.368   0.293 -1.2069 -0.0997 -1.4086
  606MOL0     H83607   5.901   9.396   0.460  1.3582 -0.2754 -1.8534
  606MOL0     H83608   4.959   9.695   0.294 -1.1061 -2.3872 -1.2906
  606MOL0     H83609   4.817   9.893   0.269 -1.3752 -1.8373  0.6904
  606MOL0     H83610   4.420  10.025   0.283 -2.4053  1.4394  1.2244
  606MOL0     H83611   4.227  10.178   0.261 -1.1120 -2.3364 -0.0306
  606MOL0     H83612   4.110   9.019   0.205 -0.4524 -0.0005  0.1871
  606MOL0     H83613   3.951   8.842   0.289 -2.5893 -0.3635 -3.0994
  606MOL0     H83614   3.698   8.786   0.631  0.1286 -1.7897 -0.5423
  606MOL0     H83615   3.604   8.696   0.825 -1.5786 -2.1615  1.9790
  606MOL0     H83616   3.467   8.561   0.976 -1.4980 -0.9962 -5.0763
  606MOL0     H83617   3.451   8.726   1.016  1.1428  0.3814 -0.8338
  606MOL0     H83618   3.242   8.518   1.071  0.7280 -0.8496  2.2471
  606MOL0     H83619   3.224   8.697   1.092  1.1381  0.4155  2.3095
  606MOL0     H83620   3.441   8.511   1.223 -2.1199 -2.4065  1.9048
  606MOL0     H83621   3.405   8.676   1.278  2.0559 -0.8819  0.1510
  606MOL0     H83622   3.170   8.583   1.298  0.1646  2.9687  0.6203
  606MOL0     H83623   3.279   8.591   1.438  2.6428 -2.3462  0.1964
  606MOL0     H83624   3.240   8.173   1.347 -2.0495  0.6982 -0.4811
  606MOL0     H83625   3.213   8.711   0.658  0.6864 -1.8099 -3.1245
  606MOL0     H83626   3.168   8.828   0.479  0.2369 -0.1407  0.3425
  606MOL0     H83627   3.290   8.944   0.415  1.8660 -0.4746 -1.2436
  606MOL0     H83628   3.272   8.766   0.353 -1.9413 -3.1009  3.1634
  607MOL0     O83629   1.752   2.337   4.468  0.2879 -0.4257  0.4578
  607MOL0     C83630   1.760   2.249   4.549 -0.2129  0.4180  0.8463
  607MOL0     O83631   1.766   2.115   4.519  0.5805 -0.1360 -0.0696
  607MOL0     C83632   1.737   2.072   4.387 -0.1893  0.5903 -0.2408
  607MOL0     C83633   1.602   2.050   4.336  0.2506  0.6629 -0.6224
  607MOL0     C83634   1.571   2.008   4.202  0.2991 -0.8665  0.0331
  607MOL0     C83635   1.678   2.008   4.110 -0.0645  0.2146 -0.3643
  607MOL0     O83636   1.650   1.959   3.993 -0.7808 -0.2730  0.5823
  607MOL0     C83637   1.651   2.068   3.892  0.0680 -0.3016 -0.4634
  607MOL0     C83638   1.582   2.016   3.757  0.1196  0.0256 -0.2572
  607MOL0     C83639   1.658   1.895   3.697  0.3068  0.4932  1.3605
  607MOL0     C83640   1.607   1.839   3.564 -0.0551 -0.5799  0.6695
  607MOL0     C83641   1.707   1.742   3.489 -0.5560 -1.1820 -0.2521
  607MOL0     C83642   1.743   1.620   3.575 -0.8016  0.3824  0.1129
  607MOL0     C83643   1.623   1.533   3.604 -0.0093  0.8240  0.5536
  607MOL0     C83644   1.673   1.385   3.607  0.1320 -0.4501 -0.3150
  607MOL0     N83645   1.727   1.337   3.478  0.0592 -0.2360  1.0303
  607MOL0     C83646   1.713   1.407   3.358  0.0876  0.5272  0.6615
  607MOL0     C83647   1.786   1.341   3.266 -0.0287  0.8426 -0.0494
  607MOL0     C83648   1.801   1.362   3.119  0.6418  0.2138  1.0008
  607MOL0     C83649   1.799   1.238   3.025  0.1201 -0.8646  0.3567
  607MOL0     C83650   1.675   1.150   3.040 -0.1011  0.5918 -0.4641
  607MOL0     C83651   1.544   1.212   2.997 -0.1344 -0.0639 -0.0717
  607MOL0     O83652   1.468   1.250   3.108  0.1887  0.5435  0.3458
  607MOL0     C83653   1.350   1.319   3.097  0.7428 -0.0242 -0.2442
  607MOL0     C83654   1.298   1.354   2.963  0.3148  0.3070 -0.6319
  607MOL0     C83655   1.192   1.440   2.943  0.7814 -1.2385  0.9070
  607MOL0     C83656   1.144   1.482   2.806  1.1212 -0.2700 -0.0014
  607MOL0     C83657   1.130   1.499   3.058  0.3141 -0.9222 -0.0693
  607MOL0     C83658   1.041   1.610   3.059 -0.1337  0.3701  0.1265
  607MOL0     O83659   1.075   1.727   2.995  0.1905  0.3005 -0.4078
  607MOL0     C83660   0.986   1.839   3.001 -0.8616  0.1860 -0.1677
  607MOL0     C83661   0.851   1.843   3.029 -0.2316 -0.3068 -0.1211
  607MOL0     C83662   0.777   1.956   3.037 -0.5079 -0.5655  0.4861
  607MOL0     C83663   0.832   2.074   2.986 -0.4948  0.0408 -0.4078
  607MOL0     O83664   0.745   2.184   2.983  0.8206  0.1879  0.3811
  607MOL0     C83665   0.802   2.306   3.039 -0.5320  0.3499  0.6169
  607MOL0     C83666   0.819   2.303   3.191 -0.2312 -0.0121 -0.1329
  607MOL0     C83667   0.848   2.440   3.247  0.3561  1.2037  0.5262
  607MOL0     C83668   0.982   2.502   3.205  1.1516  0.8179 -0.2823
  607MOL0     C83669   1.020   2.613   3.291  0.8067 -1.2509  0.8609
  607MOL0     C83670   0.974   2.740   3.231 -0.4959  0.6229  0.7820
  607MOL0     C83671   1.014   2.862   3.318 -0.6967  0.0823 -0.5279
  607MOL0     C83672   0.968   2.993   3.248 -0.3324 -0.6356 -0.3503
  607MOL0    Cl83673   1.024   3.146   3.319  0.0222  0.2793 -0.2197
  607MOL0     C83674   0.974   2.081   2.950  0.3330 -0.4194  0.0216
  607MOL0     C83675   1.042   1.962   2.956 -0.1049  0.2657  0.0717
  607MOL0     O83676   0.957   1.591   3.146  0.3391  0.0359 -0.1013
  607MOL0     C83677   1.178   1.462   3.186  0.6508 -0.5301  0.0770
  607MOL0     C83678   1.289   1.387   3.198 -0.1962  0.2614 -1.0395
  607MOL0     N83679   1.865   1.246   3.333  0.2858 -0.2162 -0.5791
  607MOL0     N83680   1.834   1.250   3.457 -0.1980  0.4105 -0.4046
  607MOL0     C83681   1.809   2.035   4.156 -0.7037  0.2659 -1.0062
  607MOL0     C83682   1.838   2.064   4.289  0.7957  0.0801 -0.2179
  607MOL0     C83683   1.765   2.280   4.695  0.1344  1.0745  0.7238
  607MOL0     C83684   1.684   2.376   4.752 -0.5308 -0.6379  0.6041
  607MOL0     C83685   1.664   2.396   4.884 -0.2718 -0.7176  0.0945
  607MOL0     C83686   1.730   2.311   4.976 -0.3028  1.1077 -0.1056
  607MOL0     O83687   1.693   2.313   5.113 -0.0764  0.4795 -1.0803
  607MOL0     C83688   1.705   2.450   5.173  0.6090  0.0824  0.3251
  607MOL0     C83689   1.853   2.493   5.166 -1.0930 -0.3607 -0.0421
  607MOL0     C83690   1.879   2.640   5.223  0.1072  0.0547  0.2177
  607MOL0     C83691   1.982   2.712   5.140  0.0121 -0.2153 -0.6029
  607MOL0     C83692   2.016   2.850   5.185 -0.1837  0.6070 -0.0242
  607MOL0     C83693   2.054   2.959   5.221  0.1768  0.3365  0.0157
  607MOL0     C83694   1.811   2.207   4.926 -0.1830 -0.4177 -0.0833
  607MOL0     C83695   1.831   2.196   4.787 -0.6604 -0.6026 -0.1821
  607MOL0     C83696   1.929   2.089   4.744 -0.0322 -0.0517  0.2014
  607MOL0     H83697   1.532   2.045   4.418 -0.7693 -0.0103 -1.5064
  607MOL0     H83698   1.471   1.985   4.165  1.3217 -0.9115 -2.9828
  607MOL0     H83699   1.750   2.109   3.873  0.8240 -0.5387  2.4494
  607MOL0     H83700   1.592   2.153   3.927  2.4077  1.6462 -1.0284
  607MOL0     H83701   1.477   1.986   3.762  0.3366 -0.5999  0.9173
  607MOL0     H83702   1.594   2.098   3.686  2.8378  2.0928  2.3309
  607MOL0     H83703   1.755   1.938   3.671 -0.3765  0.0915 -2.3652
  607MOL0     H83704   1.668   1.815   3.771  0.0484 -0.2265  0.6318
  607MOL0     H83705   1.505   1.801   3.573 -1.3329  2.1482 -0.9215
  607MOL0     H83706   1.609   1.928   3.501  3.0951 -0.9704  0.0411
  607MOL0     H83707   1.798   1.798   3.467 -1.3060  1.7000  2.9699
  607MOL0     H83708   1.665   1.714   3.392 -1.7447  2.1995 -0.8693
  607MOL0     H83709   1.815   1.563   3.515  1.4557  0.7124  2.3333
  607MOL0     H83710   1.798   1.658   3.662 -0.4077 -2.3467  1.1285
  607MOL0     H83711   1.540   1.540   3.534  1.4028 -2.1196 -1.5864
  607MOL0     H83712   1.580   1.569   3.698  1.5582 -0.1780  1.7037
  607MOL0     H83713   1.749   1.363   3.683 -0.2074 -0.6955 -0.0413
  607MOL0     H83714   1.591   1.321   3.643  1.1139 -0.1750  2.7608
  607MOL0     H83715   1.644   1.490   3.344 -0.4546  0.3506  2.1194
  607MOL0     H83716   1.907   1.389   3.112  0.1143  2.9290  2.1880
  607MOL0     H83717   1.732   1.434   3.075  1.4369 -1.4672 -3.5394
  607MOL0     H83718   1.803   1.288   2.927 -0.8628 -1.6497 -0.1052
  607MOL0     H83719   1.891   1.182   3.046  0.2365 -1.0207 -0.5200
  607MOL0     H83720   1.690   1.064   2.975  2.8677  0.9259 -0.4000
  607MOL0     H83721   1.666   1.120   3.145  2.6224 -1.4973 -0.7077
  607MOL0     H83722   1.569   1.297   2.934 -1.8438  0.3512 -0.2414
  607MOL0     H83723   1.499   1.140   2.928 -1.0981 -1.2270  1.6737
  607MOL0     H83724   1.343   1.313   2.874  5.0035  0.4894  1.3715
  607MOL0     H83725   1.038   1.508   2.810  1.5309  1.7002 -0.5700
  607MOL0     H83726   1.177   1.417   2.724  0.1868 -1.9113  0.8637
  607MOL0     H83727   1.193   1.578   2.786  0.4908  0.2423  0.8350
  607MOL0     H83728   0.800   1.758   3.071  0.4639  0.1870  1.8024
  607MOL0     H83729   0.676   1.952   3.077  0.4252 -1.7896  2.9572
  607MOL0     H83730   0.896   2.320   2.986 -0.5502 -2.4302 -0.3354
  607MOL0     H83731   0.731   2.387   3.019  0.7245  2.2973  3.5050
  607MOL0     H83732   0.731   2.268   3.245 -0.7275  2.8265  1.0744
  607MOL0     H83733   0.894   2.228   3.219  0.1453  0.9087  1.4179
  607MOL0     H83734   0.832   2.434   3.355  0.0651  2.7539  0.5810
  607MOL0     H83735   0.762   2.497   3.212  0.0239 -0.9005 -2.5262
  607MOL0     H83736   0.977   2.545   3.105  0.0292 -0.0647 -0.6294
  607MOL0     H83737   1.056   2.421   3.199 -1.7097 -2.1834  1.4937
  607MOL0     H83738   0.956   2.600   3.379 -0.7657  1.2662  0.1960
  607MOL0     H83739   1.123   2.616   3.326 -0.4123  2.7544  5.1054
  607MOL0     H83740   0.867   2.730   3.212  0.1018 -2.3526 -1.9265
  607MOL0     H83741   1.020   2.754   3.132  1.1285 -0.5226  1.3323
  607MOL0     H83742   1.123   2.854   3.317 -0.7983 -2.7948  0.6538
  607MOL0     H83743   0.978   2.846   3.420  0.4412 -2.8530 -0.4728
  607MOL0     H83744   0.859   2.985   3.245 -0.4649  0.8688 -3.0208
  607MOL0     H83745   1.002   3.000   3.144  2.7442  0.0035  0.5950
  607MOL0     H83746   1.026   2.168   2.910  0.6889 -0.9852 -0.7885
  607MOL0     H83747   1.144   1.967   2.918  0.2635  1.1554  1.1299
  607MOL0     H83748   1.155   1.498   3.285  1.5479 -3.2834  1.4048
  607MOL0     H83749   1.326   1.353   3.295 -1.3254  0.5914 -0.4767
  607MOL0     H83750   1.889   2.014   4.086  1.5662 -0.8125  1.7666
  607MOL0     H83751   1.939   2.095   4.313  0.3053  3.1264 -1.5644
  607MOL0     H83752   1.627   2.434   4.681  2.8588  2.3018 -0.0492
  607MOL0     H83753   1.595   2.471   4.922  0.4942 -1.2411  2.7515
  607MOL0     H83754   1.639   2.519   5.119  1.8422  0.1107 -1.2283
  607MOL0     H83755   1.681   2.457   5.279  0.3793  3.5760  0.1572
  607MOL0     H83756   1.904   2.485   5.069 -2.1131  3.1205 -1.0426
  607MOL0     H83757   1.899   2.427   5.240  0.9007  0.7441 -0.2245
  607MOL0     H83758   1.798   2.713   5.224  0.1563  0.1570  2.1619
  607MOL0     H83759   1.908   2.633   5.329 -2.7368 -2.8006  0.9648
  607MOL0     H83760   1.945   2.714   5.037  0.5766  0.1055 -0.8035
  607MOL0     H83761   2.072   2.651   5.151  1.9003  2.1708 -1.6832
  607MOL0     H83762   2.081   3.059   5.248 -2.0992  1.2392 -0.7743
  607MOL0     H83763   1.861   2.130   4.984 -0.0951  0.6971  1.3871
  607MOL0     H83764   1.999   2.070   4.826 -2.2316 -0.4181  2.0887
  607MOL0     H83765   1.881   1.994   4.717  0.7161 -1.3166  2.9589
  607MOL0     H83766   1.986   2.116   4.654 -0.9962 -2.4519 -1.2466
  608MOL0     O83767   3.313   8.675   6.475  0.1288  0.2182 -0.1151
  608MOL0     C83768   3.325   8.585   6.562  1.0696 -0.0092  0.3052
  608MOL0     O83769   3.433   8.572   6.647 -0.3921  0.0174  0.0259
  608MOL0     C83770   3.556   8.614   6.624  0.2118 -0.1757 -0.5842
  608MOL0     C83771   3.644   8.665   6.721 -0.1326 -0.9860 -0.0488
  608MOL0     C83772   3.772   8.718   6.692  0.9429 -0.1056  1.1559
  608MOL0     C83773   3.818   8.731   6.560 -0.1217  1.1527  0.9095
  608MOL0     O83774   3.942   8.784   6.534 -0.0000 -0.2561 -0.0920
  608MOL0     C83775   3.974   8.823   6.400  0.7909  1.5386  0.0154
  608MOL0     C83776   4.056   8.944   6.406  0.3431  0.8104 -0.7146
  608MOL0     C83777   4.099   8.993   6.264  0.1828  0.5154  0.0428
  608MOL0     C83778   4.186   9.122   6.267  0.4530 -0.2279 -0.0214
  608MOL0     C83779   4.314   9.112   6.358  0.1035  0.7156  1.2227
  608MOL0     C83780   4.424   9.207   6.314 -0.1197  0.8604 -0.1423
  608MOL0     C83781   4.401   9.361   6.347 -0.1368  0.1651  0.0524
  608MOL0     C83782   4.534   9.435   6.349  0.6825  0.0935  0.1848
  608MOL0     N83783   4.523   9.579   6.397  0.2526  0.1237  0.3097
  608MOL0     C83784   4.422   9.673   6.383 -0.5837 -0.1874 -0.2686
  608MOL0     C83785   4.465   9.783   6.449 -0.1420  0.1896 -0.2183
  608MOL0     C83786   4.400   9.915   6.461  0.3874 -0.6720 -0.5051
  608MOL0     C83787   4.455  10.020   6.367  0.2438 -0.3292  0.6144
  608MOL0     C83788   4.436  10.001   6.216  0.8764 -1.2589  1.1242
  608MOL0     C83789   4.292  10.048   6.185  0.2328  0.1196 -0.0063
  608MOL0     O83790   4.189   9.950   6.226 -0.3120 -0.0643  0.4071
  608MOL0     C83791   4.061   9.976   6.209  0.6999  0.0323 -0.6589
  608MOL0     C83792   3.966   9.873   6.229 -0.1831  0.6544 -0.1935
  608MOL0     C83793   3.829   9.901   6.225  0.3906 -0.8474 -0.5813
  608MOL0     C83794   3.739   9.792   6.272 -0.9422 -0.0903  0.3086
  608MOL0     C83795   3.785  10.028   6.179 -0.7115 -0.0736 -0.4954
  608MOL0     C83796   3.649  10.070   6.157 -0.2246  0.1254  0.3020
  608MOL0     O83797   3.620  10.200   6.146  0.2623 -0.2049  0.6507
  608MOL0     C83798   3.508  10.251   6.095  0.1950 -0.5473 -1.4992
  608MOL0     C83799   3.388  10.230   6.150  0.1125 -0.8223  0.0723
  608MOL0     C83800   3.257  10.280   6.095 -1.0762  0.3119 -0.8829
  608MOL0     C83801   3.269  10.362   5.992  0.2008  0.0274  0.6097
  608MOL0     O83802   3.149  10.420   5.944  0.6792 -0.2394 -0.0039
  608MOL0     C83803   3.111  10.543   6.008  0.6386 -1.4289 -0.2436
  608MOL0     C83804   3.054  10.646   5.915  0.5979  0.4130  1.2936
  608MOL0     C83805   2.936  10.591   5.822  0.4362 -0.9535 -0.6882
  608MOL0     C83806   2.803  10.581   5.902  0.4925 -0.9156  0.0528
  608MOL0     C83807   2.698  10.500   5.824  0.6218 -0.4335 -0.2572
  608MOL0     C83808   2.554  10.476   5.879  0.1180 -0.6193  0.5433
  608MOL0     C83809   2.478  10.600   5.932 -0.0517 -1.3278  0.1411
  608MOL0     C83810   2.331  10.598   5.918 -0.5000 -0.2885  0.1681
  608MOL0    Cl83811   2.269  10.475   6.019 -0.2267  0.1851  0.6480
  608MOL0     C83812   3.394  10.396   5.932 -0.2831 -0.3146 -0.8037
  608MOL0     C83813   3.514  10.346   5.988  0.0779  0.2231 -0.2344
  608MOL0     O83814   3.565   9.981   6.136 -0.1096  0.4488  0.3894
  608MOL0     C83815   3.885  10.130   6.165  0.6101 -0.3055 -0.0812
  608MOL0     C83816   4.021  10.103   6.174  0.2118 -0.0612 -0.7272
  608MOL0     N83817   4.591   9.751   6.512 -0.6146 -0.3979  0.9360
  608MOL0     N83818   4.613   9.631   6.483  0.2508  0.4959 -0.1050
  608MOL0     C83819   3.732   8.677   6.458  0.6829  1.3984 -1.1777
  608MOL0     C83820   3.608   8.611   6.490  0.1878  0.0224 -0.1512
  608MOL0     C83821   3.211   8.494   6.597  0.1760  0.3351 -0.1562
  608MOL0     C83822   3.234   8.385   6.675 -0.4178 -0.0608 -0.2980
  608MOL0     C83823   3.128   8.297   6.720 -0.4788  0.1643  0.7131
  608MOL0     C83824   2.996   8.326   6.673  0.5271 -0.0349 -0.5836
  608MOL0     O83825   2.891   8.251   6.715 -0.1415  0.3953  0.0509
  608MOL0     C83826   2.755   8.260   6.665  0.5233  0.0303  0.6023
  608MOL0     C83827   2.698   8.123   6.716 -0.4726 -0.5756  0.1537
  608MOL0     C83828   2.754   8.001   6.622  0.0522 -0.0125 -0.3134
  608MOL0     C83829   2.712   7.857   6.661 -0.4728 -0.3881 -0.0816
  608MOL0     C83830   2.685   7.776   6.544  0.1950 -0.2173 -0.5068
  608MOL0     C83831   2.681   7.708   6.444 -0.0882  0.0866 -0.4391
  608MOL0     C83832   2.967   8.443   6.599 -0.3064 -0.1478 -0.1208
  608MOL0     C83833   3.075   8.526   6.568 -0.4950 -0.4518 -0.5276
  608MOL0     C83834   3.025   8.653   6.508 -0.0042 -0.4124  0.1685
  608MOL0     H83835   3.606   8.668   6.823  1.0838  1.1586  0.4158
  608MOL0     H83836   3.836   8.738   6.777  3.2999 -2.3987  0.0807
  608MOL0     H83837   3.890   8.851   6.336  1.9772  0.2629 -2.2359
  608MOL0     H83838   4.030   8.741   6.355 -0.2627  0.5238  0.4798
  608MOL0     H83839   3.983   9.016   6.443 -0.2108 -0.6137  1.0770
  608MOL0     H83840   4.148   8.934   6.465  1.9007 -0.2915 -3.1106
  608MOL0     H83841   4.148   8.906   6.218 -0.8056  0.4651 -0.9803
  608MOL0     H83842   4.008   9.011   6.206 -1.5774 -1.4210  2.0161
  608MOL0     H83843   4.217   9.146   6.165  0.8580  0.0164  0.1549
  608MOL0     H83844   4.129   9.207   6.304 -1.3918 -2.2543  2.0711
  608MOL0     H83845   4.343   9.008   6.344 -4.5097 -0.8379  1.3806
  608MOL0     H83846   4.297   9.128   6.465 -1.4999  1.1128  0.9394
  608MOL0     H83847   4.520   9.168   6.349 -1.2080 -1.6517  0.2506
  608MOL0     H83848   4.429   9.201   6.204  0.1744 -0.8415 -0.0686
  608MOL0     H83849   4.346   9.375   6.441  0.3630 -3.1959  0.9648
  608MOL0     H83850   4.344   9.392   6.259 -1.8717 -2.6943  0.0107
  608MOL0     H83851   4.593   9.392   6.431 -0.8868  0.8090  1.7576
  608MOL0     H83852   4.588   9.436   6.254  1.5719 -2.2045  0.6085
  608MOL0     H83853   4.323   9.654   6.344 -0.0789 -0.4160 -1.4896
  608MOL0     H83854   4.407   9.968   6.557 -0.0401 -2.6111  0.6599
  608MOL0     H83855   4.295   9.888   6.456  0.7267 -2.3338  0.5849
  608MOL0     H83856   4.411  10.113   6.406 -0.1621 -0.5206  0.6177
  608MOL0     H83857   4.563  10.026   6.383  0.8366  3.0064 -2.9813
  608MOL0     H83858   4.504  10.068   6.163  1.2454 -2.5755 -0.1639
  608MOL0     H83859   4.465   9.901   6.180  1.7646 -1.4705  2.3662
  608MOL0     H83860   4.281  10.148   6.228 -0.1569 -0.6247  1.6983
  608MOL0     H83861   4.285  10.072   6.078  0.7788 -1.2962 -0.3830
  608MOL0     H83862   4.016   9.776   6.235  0.2872  0.5798 -3.4868
  608MOL0     H83863   3.676   9.754   6.192  0.3529  2.6034 -2.1709
  608MOL0     H83864   3.680   9.838   6.352  0.2294  1.4908  0.3177
  608MOL0     H83865   3.791   9.705   6.314 -2.0213 -2.2721 -2.5425
  608MOL0     H83866   3.380  10.162   6.234  1.4164 -1.5445 -0.3574
  608MOL0     H83867   3.165  10.241   6.138 -1.4987 -0.1394 -2.1566
  608MOL0     H83868   3.051  10.525   6.098  2.4153 -1.1899  1.0478
  608MOL0     H83869   3.197  10.598   6.047 -0.4152  0.1863 -0.1068
  608MOL0     H83870   3.027  10.740   5.965  1.0439  0.0284  2.2774
  608MOL0     H83871   3.144  10.662   5.854  0.2948 -1.1447  0.4022
  608MOL0     H83872   2.965  10.494   5.782 -1.5276 -0.8163 -2.6729
  608MOL0     H83873   2.910  10.656   5.737 -0.2406  1.5656  1.3289
  608MOL0     H83874   2.769  10.682   5.927  1.7557 -1.2555  3.7906
  608MOL0     H83875   2.816  10.519   5.991  1.6330 -1.5548 -0.5402
  608MOL0     H83876   2.665  10.544   5.730 -0.3273 -0.1955  0.1700
  608MOL0     H83877   2.739  10.402   5.800 -1.9570 -1.1834 -2.0650
  608MOL0     H83878   2.572  10.405   5.961  0.2842  2.9172  3.8772
  608MOL0     H83879   2.477  10.438   5.812  1.3778 -3.0929  0.4075
  608MOL0     H83880   2.500  10.692   5.876 -1.2136  0.3932  2.3203
  608MOL0     H83881   2.503  10.615   6.037  0.3106 -0.1813 -0.0892
  608MOL0     H83882   2.298  10.582   5.815 -0.0234  1.4329 -0.2777
  608MOL0     H83883   2.297  10.698   5.946 -0.9849 -0.6986  1.1141
  608MOL0     H83884   3.388  10.454   5.841  1.3721  2.0584  0.5084
  608MOL0     H83885   3.606  10.376   5.939  1.1413 -0.8381  1.0245
  608MOL0     H83886   3.855  10.224   6.121 -0.8968 -1.3849 -1.4577
  608MOL0     H83887   4.085  10.188   6.153  0.8018 -0.4544 -0.5507
  608MOL0     H83888   3.773   8.658   6.359  0.8033 -2.1043 -0.5758
  608MOL0     H83889   3.549   8.564   6.412 -1.0248  0.1922  0.6416
  608MOL0     H83890   3.335   8.354   6.701  0.2461  1.1248 -1.3751
  608MOL0     H83891   3.153   8.209   6.779  0.8795  0.4784  0.6389
  608MOL0     H83892   2.704   8.352   6.697 -3.1751 -1.5168 -0.3007
  608MOL0     H83893   2.759   8.264   6.556 -0.0769  0.4963  0.5875
  608MOL0     H83894   2.588   8.127   6.717 -0.5305 -0.9293  2.5650
  608MOL0     H83895   2.720   8.110   6.822 -1.4713  1.6838  0.6983
  608MOL0     H83896   2.715   8.021   6.522  0.5480  0.8298 -0.3542
  608MOL0     H83897   2.863   8.009   6.620  0.0149  2.2669  1.5726
  608MOL0     H83898   2.615   7.868   6.710  0.2270 -1.5220  1.6657
  608MOL0     H83899   2.781   7.821   6.737 -1.0521  0.5125  0.9023
  608MOL0     H83900   2.700   7.654   6.353  2.3799 -3.0939  1.7535
  608MOL0     H83901   2.872   8.477   6.559  1.1605  1.9645 -2.1068
  608MOL0     H83902   2.922   8.682   6.533  0.3457  2.6506 -1.5177
  608MOL0     H83903   3.093   8.730   6.545  0.6371 -1.5989  1.5936
  608MOL0     H83904   3.032   8.655   6.399 -1.5378  1.4376  0.0506
  609MOL0     O83905   2.956  10.010   0.548  0.8645  0.3347  0.3436
  609MOL0     C83906   2.981  10.009   0.426  0.8118  0.3045  0.0219
  609MOL0     O83907   2.927   9.930   0.335 -0.5392 -0.1487 -0.5622
  609MOL0     C83908   2.857   9.820   0.382 -0.0699  0.4159  0.1217
  609MOL0     C83909   2.766   9.765   0.290 -0.1839 -0.4275  0.4376
  609MOL0     C83910   2.704   9.647   0.304  0.2182  0.5888  0.7742
  609MOL0     C83911   2.737   9.559   0.403 -0.0719  0.0616  0.0351
  609MOL0     O83912   2.688   9.433   0.415  0.5402 -0.7300  0.0329
  609MOL0     C83913   2.663   9.357   0.296 -0.2959  0.2691  0.0164
  609MOL0     C83914   2.686   9.220   0.372  0.5674 -0.7876  0.3779
  609MOL0     C83915   2.678   9.108   0.271  0.3825 -0.0285  0.1875
  609MOL0     C83916   2.667   8.966   0.332  0.3522 -0.8096 -0.3688
  609MOL0     C83917   2.773   8.852   0.289 -0.8141  0.9345  0.4667
  609MOL0     C83918   2.734   8.710   0.338 -0.3558  0.6206  1.3716
  609MOL0     C83919   2.748   8.682   0.487  0.0092  0.5472  0.5326
  609MOL0     C83920   2.900   8.673   0.536  0.3596 -0.4931 -0.9563
  609MOL0     N83921   2.907   8.626   0.671 -0.4300 -0.5213 -0.3002
  609MOL0     C83922   2.812   8.650   0.767 -0.0397  0.2387 -0.7160
  609MOL0     C83923   2.856   8.590   0.878  0.1272  0.9841 -1.0851
  609MOL0     C83924   2.789   8.594   1.013 -0.6741 -0.3981 -0.0733
  609MOL0     C83925   2.714   8.727   1.045 -0.0730 -0.6065 -0.3315
  609MOL0     C83926   2.707   8.745   1.199 -0.2505  0.0833  0.5949
  609MOL0     C83927   2.660   8.890   1.220  0.7264 -0.2028 -1.1349
  609MOL0     O83928   2.528   8.926   1.171 -0.2880 -0.3201  0.5148
  609MOL0     C83929   2.478   9.059   1.180 -0.5022  0.7164 -0.2810
  609MOL0     C83930   2.343   9.067   1.162  1.0191 -0.1395 -0.7978
  609MOL0     C83931   2.265   9.196   1.173 -0.6076 -0.4499 -0.1017
  609MOL0     C83932   2.113   9.203   1.138 -0.5625 -0.4593  0.0699
  609MOL0     C83933   2.343   9.308   1.215  0.8975 -0.7878 -0.2200
  609MOL0     C83934   2.282   9.436   1.220  0.7591 -1.5249 -0.6764
  609MOL0     O83935   2.325   9.530   1.132  0.7994 -0.2197 -0.0065
  609MOL0     C83936   2.251   9.646   1.129  0.8214  0.2908  0.2992
  609MOL0     C83937   2.114   9.641   1.117 -0.8433  0.5934 -0.8663
  609MOL0     C83938   2.035   9.752   1.098 -0.0595  0.2908  0.5009
  609MOL0     C83939   2.094   9.883   1.089 -0.1929 -0.1321  0.8010
  609MOL0     O83940   2.022   9.994   1.070 -1.1743 -0.0659 -0.3770
  609MOL0     C83941   2.068  10.084   0.970  0.5007  0.3479  0.1724
  609MOL0     C83942   2.073  10.005   0.833 -0.0617 -0.1287  0.1418
  609MOL0     C83943   1.950   9.933   0.788  0.0316 -0.6779  0.1721
  609MOL0     C83944   1.955   9.879   0.646  0.1647 -0.3037  0.3576
  609MOL0     C83945   1.823   9.818   0.614 -0.0081  0.4290 -0.0591
  609MOL0     C83946   1.820   9.755   0.477 -0.0422 -1.2001  1.2439
  609MOL0     C83947   1.678   9.750   0.415  0.4385  0.1426  0.8092
  609MOL0     C83948   1.632   9.890   0.350 -0.8323  0.9759 -0.3837
  609MOL0    Cl83949   1.571   9.875   0.185  0.1833  0.1814  0.0213
  609MOL0     C83950   2.232   9.890   1.107 -0.1667  0.6460  0.0032
  609MOL0     C83951   2.304   9.771   1.116 -0.4217  0.5748 -0.5659
  609MOL0     O83952   2.190   9.445   1.304  0.8166 -0.0315  0.2665
  609MOL0     C83953   2.482   9.297   1.246  0.2936 -0.5171 -0.2265
  609MOL0     C83954   2.545   9.177   1.225 -0.4335  0.9564  0.2323
  609MOL0     N83955   2.983   8.531   0.852  0.1159  0.2392 -0.0775
  609MOL0     N83956   3.012   8.552   0.727 -0.3609  0.2690 -0.0738
  609MOL0     C83957   2.831   9.609   0.493  0.1718 -0.1613  0.1514
  609MOL0     C83958   2.898   9.729   0.483  0.0709 -0.2135 -0.1028
  609MOL0     C83959   3.083  10.101   0.375 -0.1034  0.0776 -0.0239
  609MOL0     C83960   3.123  10.079   0.238 -0.2969  0.4742  0.5530
  609MOL0     C83961   3.218  10.163   0.175  1.7490  0.2285 -0.4043
  609MOL0     C83962   3.264  10.276   0.248  0.3675 -0.6302  0.5020
  609MOL0     O83963   3.348  10.373   0.197 -0.1629  0.0764 -0.3122
  609MOL0     C83964   3.417  10.353   0.074  0.7473  0.1976  0.5314
  609MOL0     C83965   3.527  10.246   0.075 -0.5398 -0.1324  0.8943
  609MOL0     C83966   3.638  10.277   0.180  0.1699  0.1044  0.1035
  609MOL0     C83967   3.709  10.413   0.158  0.2784 -0.3656  0.5063
  609MOL0     C83968   3.841  10.403   0.219 -1.2387 -0.5474 -0.6785
  609MOL0     C83969   3.955  10.386   0.273 -0.3559  0.2462  0.3478
  609MOL0     C83970   3.226  10.292   0.381  0.6735  0.1160  0.3796
  609MOL0     C83971   3.154  10.200   0.441  0.0521 -0.1618 -0.3517
  609MOL0     C83972   3.125  10.221   0.590 -0.3544  0.3209  0.1597
  609MOL0     H83973   2.734   9.830   0.209 -0.7399  0.5809  1.4427
  609MOL0     H83974   2.623   9.617   0.238 -0.0700  0.2349  1.2781
  609MOL0     H83975   2.742   9.367   0.221 -1.2300  3.3547 -0.7031
  609MOL0     H83976   2.566   9.359   0.245 -0.7893  0.3937  0.9362
  609MOL0     H83977   2.782   9.224   0.424  0.6785  2.1460  0.1292
  609MOL0     H83978   2.606   9.220   0.446 -0.3752  1.4861 -0.5441
  609MOL0     H83979   2.586   9.116   0.212 -0.2142 -3.0270  0.5555
  609MOL0     H83980   2.761   9.103   0.200  0.4071 -1.4512  0.2910
  609MOL0     H83981   2.660   8.972   0.441  0.3750 -1.3256 -0.3366
  609MOL0     H83982   2.575   8.921   0.293  0.7476  0.3339 -2.8058
  609MOL0     H83983   2.874   8.873   0.327  1.0110  0.0117 -3.3396
  609MOL0     H83984   2.785   8.846   0.180 -0.4483 -1.8547  0.5895
  609MOL0     H83985   2.634   8.691   0.297 -0.0300  0.7389  0.5044
  609MOL0     H83986   2.800   8.630   0.302 -1.8935 -0.2253  0.3315
  609MOL0     H83987   2.712   8.580   0.502  1.4548 -0.0899 -0.1629
  609MOL0     H83988   2.694   8.752   0.552 -1.2363 -0.3613  0.5160
  609MOL0     H83989   2.949   8.589   0.485  1.2325 -0.5795 -0.0162
  609MOL0     H83990   2.952   8.767   0.513 -2.0023  2.2018  3.3950
  609MOL0     H83991   2.725   8.714   0.775 -0.0615 -0.0011  1.9652
  609MOL0     H83992   2.866   8.586   1.091 -0.9546  2.8251  0.7119
  609MOL0     H83993   2.720   8.509   1.016 -1.2137 -0.0839 -2.0643
  609MOL0     H83994   2.773   8.801   0.989  1.9917 -0.6934  1.5915
  609MOL0     H83995   2.611   8.724   1.008 -0.4078  0.6118  0.4257
  609MOL0     H83996   2.648   8.671   1.253 -1.5998  1.8534  1.6403
  609MOL0     H83997   2.809   8.741   1.240  0.0481 -2.0231 -0.2582
  609MOL0     H83998   2.669   8.909   1.327 -0.7274 -0.4901 -0.9309
  609MOL0     H83999   2.719   8.967   1.169  1.9422  0.1973  0.7902
  609MOL0     H84000   2.277   8.984   1.141 -1.8786  2.2511 -1.8233
  609MOL0     H84001   2.062   9.212   1.234 -0.1484  1.6012  0.1403
  609MOL0     H84002   2.087   9.113   1.081  3.2416 -1.6196 -0.1221
  609MOL0     H84003   2.100   9.285   1.066 -1.0065 -0.5463  0.0514
  609MOL0     H84004   2.082   9.540   1.091  3.3708 -0.9400 -0.9668
  609MOL0     H84005   1.934   9.729   1.068  0.0675 -0.4510  0.6073
  609MOL0     H84006   2.001  10.171   0.964  0.2357  0.1501  0.2091
  609MOL0     H84007   2.161  10.136   0.992 -0.5232  2.7808 -0.9445
  609MOL0     H84008   2.108  10.071   0.753 -1.8401  1.5495  0.6463
  609MOL0     H84009   2.154   9.932   0.840  1.7928  1.9198  1.4477
  609MOL0     H84010   1.873  10.010   0.792  1.7162  1.5290 -3.9897
  609MOL0     H84011   1.920   9.848   0.850 -1.6268 -0.9760 -0.9842
  609MOL0     H84012   2.035   9.804   0.640 -0.5410 -0.9325 -3.1653
  609MOL0     H84013   1.976   9.960   0.575 -2.4511 -0.0056 -0.1506
  609MOL0     H84014   1.796   9.754   0.699 -1.6637  0.2459 -0.6799
  609MOL0     H84015   1.751   9.901   0.612 -0.5301 -0.0122 -2.3622
  609MOL0     H84016   1.851   9.651   0.485  1.8136 -0.9048 -1.0207
  609MOL0     H84017   1.891   9.805   0.410 -0.6344 -1.9472  0.0262
  609MOL0     H84018   1.600   9.722   0.486  1.8756 -2.5805  1.4774
  609MOL0     H84019   1.672   9.673   0.338 -0.4180 -0.2378  1.2453
  609MOL0     H84020   1.717   9.958   0.341  1.1582 -1.1528  1.0020
  609MOL0     H84021   1.550   9.931   0.409  0.8527 -0.0215  2.8627
  609MOL0     H84022   2.295   9.977   1.091  0.5077  0.1898  0.1374
  609MOL0     H84023   2.412   9.785   1.117 -0.2294 -0.6539 -1.5327
  609MOL0     H84024   2.551   9.376   1.273 -3.9941  2.8778  2.1787
  609MOL0     H84025   2.652   9.169   1.246 -0.6115  0.6280  1.0436
  609MOL0     H84026   2.862   9.540   0.571 -0.4762  0.7489  1.2313
  609MOL0     H84027   2.962   9.767   0.561  0.5094  0.8930 -0.9808
  609MOL0     H84028   3.090  10.011   0.160  2.8831  0.7702 -1.2065
  609MOL0     H84029   3.247  10.134   0.075  1.2414 -0.5066 -0.3477
  609MOL0     H84030   3.342  10.322   0.000  0.4478  1.9949  0.0354
  609MOL0     H84031   3.468  10.447   0.050  1.6856 -0.2876  0.5522
  609MOL0     H84032   3.571  10.243  -0.025 -2.2619  0.3146  0.0875
  609MOL0     H84033   3.474  10.152   0.092  1.3290 -0.8471  3.2954
  609MOL0     H84034   3.597  10.258   0.279 -0.2928 -0.0086 -0.1071
  609MOL0     H84035   3.725  10.211   0.166 -0.7562 -1.5038  1.5358
  609MOL0     H84036   3.642  10.481   0.213  1.8353  1.2787  0.4606
  609MOL0     H84037   3.716  10.444   0.053  0.9440  1.7490  1.1282
  609MOL0     H84038   4.042  10.376   0.335  1.1400  0.2369 -1.6662
  609MOL0     H84039   3.250  10.384   0.434  0.3875 -1.2136  2.9901
  609MOL0     H84040   3.017  10.240   0.589 -0.2378  0.9953 -0.7839
  609MOL0     H84041   3.153  10.137   0.654  1.6336  2.7915  2.8389
  609MOL0     H84042   3.186  10.304   0.627  4.5080 -1.9987 -1.7889
  610MOL0     O84043   1.091   6.261   7.807 -0.0995  0.4200 -0.1259
  610MOL0     C84044   1.069   6.325   7.709  0.1272 -0.0405 -0.7114
  610MOL0     O84045   0.954   6.387   7.685  0.5927 -0.0499 -0.1455
  610MOL0     C84046   0.844   6.392   7.763  0.2370 -0.4106 -0.7055
  610MOL0     C84047   0.825   6.369   7.899 -0.1038 -0.0620  0.1301
  610MOL0     C84048   0.703   6.379   7.960 -0.0879  0.1460  0.2967
  610MOL0     C84049   0.581   6.393   7.889  0.4280 -0.1928 -0.1235
  610MOL0     O84050   0.453   6.378   7.937  0.4341  0.5438 -0.2499
  610MOL0     C84051   0.442   6.342   8.077 -0.6618 -0.7056 -0.1312
  610MOL0     C84052   0.302   6.300   8.109 -0.4164 -0.1026  1.0679
  610MOL0     C84053   0.279   6.253   8.254 -0.0904 -0.0744  0.8507
  610MOL0     C84054   0.135   6.180   8.250 -1.0131 -0.4235  0.7414
  610MOL0     C84055   0.077   6.148   8.392  1.1872 -0.3000  0.3818
  610MOL0     C84056   0.173   6.060   8.483 -0.3169 -0.3921 -0.1360
  610MOL0     C84057   0.104   5.943   8.553  0.0656  1.0687  0.2835
  610MOL0     C84058   0.049   5.995   8.684  0.3870  0.0522  0.1994
  610MOL0     N84059  -0.031   5.904   8.764 -0.4766  0.1554  0.8805
  610MOL0     C84060   0.005   5.780   8.798  0.0274  0.3679  0.4236
  610MOL0     C84061  -0.101   5.741   8.867  0.4747  0.3603  0.6264
  610MOL0     C84062  -0.118   5.611   8.943 -0.2994 -0.2617 -0.3055
  610MOL0     C84063  -0.131   5.475   8.860  1.0301  0.0996  0.2683
  610MOL0     C84064  -0.255   5.395   8.896 -0.1555 -0.7407 -0.8415
  610MOL0     C84065  -0.255   5.254   8.858 -0.4135  0.7424 -0.1621
  610MOL0     O84066  -0.149   5.183   8.917  0.2991 -0.2067  0.1986
  610MOL0     C84067  -0.126   5.067   8.850 -0.2143  0.2606  0.2674
  610MOL0     C84068   0.006   5.048   8.812  0.2538  0.3696  1.5368
  610MOL0     C84069   0.055   4.928   8.749 -0.7755  0.8767  0.4007
  610MOL0     C84070   0.197   4.929   8.691 -0.0959  0.3496 -0.5520
  610MOL0     C84071  -0.031   4.818   8.750  0.1882  0.6596 -0.2027
  610MOL0     C84072   0.022   4.686   8.693  0.3864 -0.1277 -0.8169
  610MOL0     O84073  -0.072   4.611   8.626 -0.7185  0.1322 -0.0176
  610MOL0     C84074  -0.042   4.479   8.610 -0.4473 -0.4766  0.0442
  610MOL0     C84075  -0.078   4.435   8.479 -0.6163  0.0408  0.0219
  610MOL0     C84076  -0.052   4.310   8.446  0.5994 -0.3655  0.3219
  610MOL0     C84077  -0.009   4.215   8.541  0.6181 -0.4227  0.0988
  610MOL0     O84078   0.006   4.085   8.490 -0.0563  0.2680  0.2025
  610MOL0     C84079  -0.018   3.973   8.581  0.2265  0.3786  0.1140
  610MOL0     C84080  -0.169   3.975   8.614 -0.6470  0.2178 -0.1965
  610MOL0     C84081  -0.258   3.967   8.485 -0.8495  0.4492  0.8077
  610MOL0     C84082  -0.372   3.868   8.516 -0.2473  0.4295  0.5711
  610MOL0     C84083  -0.462   3.912   8.634 -0.5005  0.0664  0.0011
  610MOL0     C84084  -0.547   3.795   8.678  1.0190  0.5813 -0.4424
  610MOL0     C84085  -0.616   3.837   8.822 -0.5854 -0.0384  0.2454
  610MOL0     C84086  -0.681   3.727   8.898 -0.3059 -0.1218 -0.8287
  610MOL0    Cl84087  -0.769   3.613   8.794  0.0596  0.2302  0.0078
  610MOL0     C84088   0.022   4.256   8.672  0.5712 -0.0412  0.3073
  610MOL0     C84089   0.003   4.390   8.706  0.0102  0.5637 -0.5326
  610MOL0     O84090   0.132   4.649   8.721 -1.2469  0.4445 -0.0953
  610MOL0     C84091  -0.166   4.833   8.792 -0.1744 -0.3242 -0.1618
  610MOL0     C84092  -0.209   4.955   8.852 -0.4027  0.2689  0.1834
  610MOL0     N84093  -0.202   5.838   8.883 -0.2724  1.4432  0.0435
  610MOL0     N84094  -0.151   5.938   8.810  0.2866 -0.5914  0.1359
  610MOL0     C84095   0.590   6.415   7.754 -0.7086 -0.3898 -0.3099
  610MOL0     C84096   0.718   6.411   7.693 -0.2425  0.6479 -1.1397
  610MOL0     C84097   1.186   6.340   7.619  0.2313 -0.4307 -0.8384
  610MOL0     C84098   1.171   6.443   7.520  0.1653 -0.0472  0.2453
  610MOL0     C84099   1.268   6.478   7.435 -1.0563  0.4824 -0.1619
  610MOL0     C84100   1.387   6.402   7.430 -1.0896  0.2633 -0.7320
  610MOL0     O84101   1.475   6.443   7.335  0.3816 -0.3693  0.2717
  610MOL0     C84102   1.607   6.384   7.316  0.7489  0.1935 -0.1788
  610MOL0     C84103   1.706   6.471   7.239  0.7514  0.5231  0.1603
  610MOL0     C84104   1.636   6.528   7.120  0.0564 -0.5470 -0.7010
  610MOL0     C84105   1.734   6.569   7.003 -0.2270 -0.2108  0.4977
  610MOL0     C84106   1.824   6.685   7.033 -0.2677  0.4408  0.0444
  610MOL0     C84107   1.891   6.791   7.060 -1.2555 -0.0814  0.8736
  610MOL0     C84108   1.400   6.286   7.519 -0.7072  0.2769  0.2876
  610MOL0     C84109   1.303   6.257   7.612 -0.1643 -0.1739 -0.5207
  610MOL0     C84110   1.329   6.139   7.701 -0.2051 -0.1336  0.3065
  610MOL0     H84111   0.907   6.354   7.968 -3.0339  0.2392  3.9961
  610MOL0     H84112   0.712   6.364   8.068  3.1463 -0.3401  0.0633
  610MOL0     H84113   0.486   6.417   8.142  1.0603 -1.3700 -0.4534
  610MOL0     H84114   0.499   6.249   8.087 -0.0161 -0.2843  0.2111
  610MOL0     H84115   0.237   6.385   8.094  1.7651  1.2207 -1.8186
  610MOL0     H84116   0.281   6.216   8.043 -2.7592  1.0946  0.2136
  610MOL0     H84117   0.352   6.175   8.277 -0.5851 -0.8454 -0.1025
  610MOL0     H84118   0.279   6.343   8.316  2.5452  1.9396 -1.7832
  610MOL0     H84119   0.070   6.247   8.192  1.9393  1.4422 -0.7019
  610MOL0     H84120   0.135   6.095   8.181  0.8186 -0.5208  0.8041
  610MOL0     H84121  -0.022   6.106   8.373  0.6780  0.8439  0.4456
  610MOL0     H84122   0.058   6.244   8.440 -4.4003 -0.2250 -1.2724
  610MOL0     H84123   0.251   6.010   8.425  0.4649 -2.6373  2.6503
  610MOL0     H84124   0.219   6.124   8.559 -1.5510 -0.1702  0.4628
  610MOL0     H84125   0.172   5.858   8.560 -1.7751 -0.5048 -0.2225
  610MOL0     H84126   0.028   5.911   8.480  0.1064 -0.5255  0.9042
  610MOL0     H84127   0.123   6.035   8.754 -0.4430 -0.4659  1.4149
  610MOL0     H84128  -0.026   6.073   8.665 -2.0628 -2.4457 -1.0890
  610MOL0     H84129   0.091   5.727   8.759 -0.5832 -0.1638 -0.2240
  610MOL0     H84130  -0.207   5.613   9.007 -0.6314  0.8094 -0.7745
  610MOL0     H84131  -0.023   5.593   8.994 -0.2927 -0.7993 -0.5022
  610MOL0     H84132  -0.140   5.511   8.757  1.2220 -0.5044  0.0347
  610MOL0     H84133  -0.038   5.419   8.867  2.3111  2.1949  0.7027
  610MOL0     H84134  -0.262   5.385   9.005  3.7457 -0.4251 -0.4303
  610MOL0     H84135  -0.349   5.436   8.856 -0.7898 -1.2109  0.1327
  610MOL0     H84136  -0.347   5.211   8.898  0.2607 -0.5112  0.0741
  610MOL0     H84137  -0.267   5.249   8.749 -0.9703  3.9941 -0.3464
  610MOL0     H84138   0.066   5.138   8.803  0.0641  0.3424 -0.3955
  610MOL0     H84139   0.181   4.920   8.583 -1.3376  1.2201 -0.4626
  610MOL0     H84140   0.275   4.862   8.728  0.2385 -1.1690 -3.6919
  610MOL0     H84141   0.233   5.031   8.701 -0.7298  0.5483 -0.2450
  610MOL0     H84142  -0.123   4.495   8.400 -0.5365 -0.8266 -0.7050
  610MOL0     H84143  -0.080   4.267   8.351 -3.0627  3.8146 -0.8499
  610MOL0     H84144   0.026   3.880   8.544 -0.1715 -0.1897  1.0569
  610MOL0     H84145   0.019   3.991   8.682 -1.6121  2.4484  0.5099
  610MOL0     H84146  -0.193   3.883   8.668 -3.3542  0.9084 -0.0778
  610MOL0     H84147  -0.200   4.052   8.685 -0.7192  1.0425 -1.0978
  610MOL0     H84148  -0.184   3.936   8.411 -0.7299 -3.4343  2.3199
  610MOL0     H84149  -0.302   4.065   8.465  0.3579  0.8685  0.1087
  610MOL0     H84150  -0.336   3.766   8.532 -0.1052  0.2856 -0.6292
  610MOL0     H84151  -0.453   3.870   8.442  0.0623  1.6122  0.2391
  610MOL0     H84152  -0.402   3.934   8.723 -1.6864 -1.4819  1.2580
  610MOL0     H84153  -0.518   4.000   8.601 -0.0791 -0.6652 -2.9418
  610MOL0     H84154  -0.487   3.704   8.683  1.9037  1.1168 -1.1530
  610MOL0     H84155  -0.627   3.785   8.605  1.3624 -1.4906 -0.5867
  610MOL0     H84156  -0.689   3.915   8.798  1.3892  1.6387 -0.6672
  610MOL0     H84157  -0.535   3.874   8.886 -0.4517 -0.6723  0.4470
  610MOL0     H84158  -0.741   3.763   8.982  3.3777  4.8565  0.1166
  610MOL0     H84159  -0.602   3.672   8.950 -0.8264 -2.2406 -2.1714
  610MOL0     H84160   0.065   4.183   8.739 -0.1656 -1.7579 -0.9986
  610MOL0     H84161   0.035   4.420   8.806 -1.4201  1.3434 -0.2831
  610MOL0     H84162  -0.234   4.750   8.774  2.9745 -2.3901 -4.2037
  610MOL0     H84163  -0.302   4.974   8.904  1.4035  1.1900  3.4019
  610MOL0     H84164   0.492   6.430   7.710 -2.5945  2.2765  4.0917
  610MOL0     H84165   0.724   6.436   7.587  2.5382  1.6801 -0.8150
  610MOL0     H84166   1.072   6.485   7.505 -1.7838 -4.5648 -1.1068
  610MOL0     H84167   1.260   6.562   7.368  0.7967 -0.1799 -1.2810
  610MOL0     H84168   1.653   6.367   7.414  0.4078 -0.6236 -0.1506
  610MOL0     H84169   1.584   6.290   7.265  0.0481  0.3055 -0.0772
  610MOL0     H84170   1.776   6.400   7.194  1.3487  1.9118 -1.1940
  610MOL0     H84171   1.763   6.536   7.305 -1.1061  2.7000 -0.2561
  610MOL0     H84172   1.572   6.459   7.066 -3.2325  3.6076 -2.6575
  610MOL0     H84173   1.570   6.611   7.148  0.5736 -0.3518 -0.0217
  610MOL0     H84174   1.677   6.584   6.911 -0.9404  1.9816  1.2171
  610MOL0     H84175   1.804   6.487   6.986 -0.5340 -0.2988 -0.3996
  610MOL0     H84176   1.958   6.874   7.073  0.0999 -0.6659 -1.6807
  610MOL0     H84177   1.487   6.223   7.504 -1.5549 -1.2810  1.6026
  610MOL0     H84178   1.425   6.091   7.679  1.3025  0.9574  3.8494
  610MOL0     H84179   1.327   6.169   7.806  1.2325 -3.5704  1.4680
  610MOL0     H84180   1.246   6.068   7.700  1.4751 -2.2091 -1.0360
  611MOL0     O84181  11.356   5.185   8.338  0.4517  0.4240  0.1722
  611MOL0     C84182  11.302   5.219   8.440  0.6729  0.3720 -0.0890
  611MOL0     O84183  11.295   5.348   8.490 -0.3053 -0.0277  0.6803
  611MOL0     C84184  11.394   5.437   8.454 -0.6397 -0.2041 -0.2783
  611MOL0     C84185  11.522   5.439   8.513  0.4354  0.1977 -1.2925
  611MOL0     C84186  11.625   5.524   8.468  0.3991 -0.3666 -0.5456
  611MOL0     C84187  11.617   5.594   8.344  0.4520  0.3152 -0.5282
  611MOL0     O84188  11.720   5.672   8.292  0.6677  0.1745 -0.7631
  611MOL0     C84189  11.752   5.658   8.144 -0.6062 -0.3745 -0.6791
  611MOL0     C84190  11.768   5.787   8.080  1.0511 -0.2969  0.8241
  611MOL0     C84191  11.836   5.797   7.944  0.3574 -0.5777 -1.1691
  611MOL0     C84192  11.840   5.940   7.910 -0.9645  0.6052  0.1099
  611MOL0     C84193  11.764   5.980   7.782  0.2471 -0.0099 -0.5166
  611MOL0     C84194  11.820   5.917   7.651  1.2828 -0.6862 -1.2071
  611MOL0     C84195  11.956   5.960   7.606  0.3587  0.0321 -0.4001
  611MOL0     C84196  11.970   6.119   7.584  0.1605  0.1904 -0.2221
  611MOL0     N84197  11.896   6.168   7.465  0.6850  0.2918  0.8734
  611MOL0     C84198  11.805   6.274   7.452  0.5031 -0.6994  0.1254
  611MOL0     C84199  11.765   6.263   7.321  1.2697 -0.5910 -0.4481
  611MOL0     C84200  11.681   6.367   7.260  0.1533 -0.7384 -1.1974
  611MOL0     C84201  11.553   6.308   7.188  0.8333 -0.3642  0.5663
  611MOL0     C84202  11.588   6.230   7.062 -0.9568  0.4768 -0.8128
  611MOL0     C84203  11.468   6.144   7.032 -0.0357 -0.3326 -0.2125
  611MOL0     O84204  11.432   6.065   7.144 -0.5111  0.4197 -0.3290
  611MOL0     C84205  11.524   5.972   7.180 -0.5022 -0.4246  0.3479
  611MOL0     C84206  11.617   5.899   7.106 -0.2340 -0.6779  0.3619
  611MOL0     C84207  11.706   5.805   7.159  0.1889  0.5299  0.5130
  611MOL0     C84208  11.823   5.753   7.076 -0.2145 -0.5390  0.0254
  611MOL0     C84209  11.665   5.740   7.282  0.6971 -0.2163 -0.1780
  611MOL0     C84210  11.730   5.620   7.341 -0.5920  0.1109 -0.8564
  611MOL0     O84211  11.708   5.595   7.476 -0.0442  0.1069  0.8184
  611MOL0     C84212  11.780   5.487   7.521  0.7803  0.6819 -0.2113
  611MOL0     C84213  11.711   5.368   7.527  0.7342 -0.8442  1.0182
  611MOL0     C84214  11.777   5.251   7.570  0.2104  0.5828  0.0273
  611MOL0     C84215  11.914   5.255   7.597 -0.4511  0.7580 -1.4367
  611MOL0     O84216  11.995   5.150   7.643  0.1260  0.2216 -0.0337
  611MOL0     C84217  11.943   5.029   7.689  0.7391 -0.3903  0.4427
  611MOL0     C84218  12.057   4.947   7.735 -0.4456 -0.2051  0.8811
  611MOL0     C84219  12.018   4.795   7.760  0.0669  0.2950  0.2715
  611MOL0     C84220  12.139   4.740   7.830  0.8582 -0.6161  0.1958
  611MOL0     C84221  12.155   4.590   7.791 -0.4364 -0.9054 -0.2227
  611MOL0     C84222  12.048   4.502   7.852 -0.2844 -0.5540 -0.3511
  611MOL0     C84223  12.091   4.355   7.845 -0.9152  0.2132  0.0287
  611MOL0     C84224  11.972   4.272   7.863 -0.3487  0.1777 -0.0623
  611MOL0    Cl84225  12.024   4.094   7.880 -0.1166 -0.2774 -0.2301
  611MOL0     C84226  11.986   5.367   7.578 -0.2814 -0.9239 -0.7446
  611MOL0     C84227  11.917   5.487   7.551  0.4731  0.4964  0.2495
  611MOL0     O84228  11.810   5.559   7.279  0.2542  1.0423  0.0013
  611MOL0     C84229  11.555   5.802   7.354 -0.2360 -0.0777 -0.2283
  611MOL0     C84230  11.494   5.918   7.308 -0.4486  0.8300 -0.6204
  611MOL0     N84231  11.845   6.173   7.264  0.1516  0.0204  0.3700
  611MOL0     N84232  11.926   6.122   7.344  0.7261 -0.6013 -0.2060
  611MOL0     C84233  11.486   5.600   8.283 -0.3362 -0.4053  0.7819
  611MOL0     C84234  11.383   5.518   8.340 -1.0802 -0.9830  0.1411
  611MOL0     C84235  11.202   5.109   8.497 -0.3067  0.8519  0.3587
  611MOL0     C84236  11.093   5.160   8.568 -0.5047  0.0920 -0.3489
  611MOL0     C84237  11.003   5.066   8.632 -0.0505 -0.9872  0.7380
  611MOL0     C84238  11.019   4.929   8.632 -0.3171  0.2060  0.2922
  611MOL0     O84239  10.918   4.849   8.683 -0.4413 -0.2331  0.7281
  611MOL0     C84240  10.926   4.702   8.657  0.0389  0.2299 -0.1850
  611MOL0     C84241  10.973   4.622   8.772  0.2479 -0.4323 -0.3008
  611MOL0     C84242  10.967   4.471   8.760  0.4604  0.0455 -0.5823
  611MOL0     C84243  11.100   4.397   8.727 -0.4327  0.5735 -0.2032
  611MOL0     C84244  11.133   4.417   8.587  0.7225  0.8440 -0.1363
  611MOL0     C84245  11.160   4.434   8.469 -0.6012  0.3636 -0.1944
  611MOL0     C84246  11.130   4.875   8.561  0.4024 -0.5013  0.3221
  611MOL0     C84247  11.222   4.965   8.498 -0.3581 -0.0756 -0.0780
  611MOL0     C84248  11.330   4.885   8.422  0.4350  0.0505  0.5981
  611MOL0     H84249  11.530   5.389   8.609  0.9969  0.4352 -1.2117
  611MOL0     H84250  11.716   5.510   8.526 -1.2886 -1.6482  1.9840
  611MOL0     H84251  11.681   5.595   8.089 -0.6156  0.4861 -1.7072
  611MOL0     H84252  11.850   5.611   8.140 -1.4220 -2.1065 -1.4063
  611MOL0     H84253  11.664   5.819   8.069  1.0663 -0.9387 -1.5540
  611MOL0     H84254  11.805   5.849   8.163  2.0238 -0.3391  0.4368
  611MOL0     H84255  11.937   5.757   7.940  0.5939  0.0276 -1.4202
  611MOL0     H84256  11.766   5.744   7.879 -1.2219 -0.9563  0.7608
  611MOL0     H84257  11.784   6.004   7.979 -3.6368 -0.2145 -1.1661
  611MOL0     H84258  11.945   5.967   7.917 -0.5565 -1.2422  2.3027
  611MOL0     H84259  11.759   6.089   7.775 -0.9523 -0.1255 -2.2494
  611MOL0     H84260  11.660   5.948   7.782  1.1452 -3.2533  0.1780
  611MOL0     H84261  11.819   5.808   7.661 -1.7666 -0.5701  1.2708
  611MOL0     H84262  11.750   5.952   7.574 -0.0661 -0.0501  0.2461
  611MOL0     H84263  12.002   5.897   7.529 -1.5944 -1.5744 -0.3309
  611MOL0     H84264  12.020   5.946   7.694  0.9558  1.3599 -0.5998
  611MOL0     H84265  11.920   6.147   7.677  1.0227  2.6402 -0.4272
  611MOL0     H84266  12.075   6.151   7.589 -0.0704  1.1023 -0.9730
  611MOL0     H84267  11.772   6.350   7.522  4.3877  0.1843  1.2231
  611MOL0     H84268  11.727   6.446   7.200 -0.0225  0.6965  0.4573
  611MOL0     H84269  11.644   6.425   7.346 -0.4893 -2.1515 -0.4864
  611MOL0     H84270  11.516   6.241   7.266  4.5489 -1.6211  1.4558
  611MOL0     H84271  11.480   6.383   7.156  2.1431 -0.9836 -4.8085
  611MOL0     H84272  11.609   6.301   6.981  0.4893  0.2921 -0.6289
  611MOL0     H84273  11.674   6.163   7.058  0.0434  1.6864 -0.2033
  611MOL0     H84274  11.387   6.209   6.997  0.1644 -0.8199 -1.6765
  611MOL0     H84275  11.483   6.083   6.942 -0.7582 -1.0075  0.1148
  611MOL0     H84276  11.626   5.917   6.999 -0.7310 -0.8692  0.2886
  611MOL0     H84277  11.860   5.836   7.015  3.4073  0.0884  2.7515
  611MOL0     H84278  11.784   5.671   7.015 -3.6767  1.0138 -0.0387
  611MOL0     H84279  11.910   5.719   7.134  0.4504 -0.7592 -1.0679
  611MOL0     H84280  11.604   5.352   7.514  0.9272  0.0570 -2.7515
  611MOL0     H84281  11.721   5.158   7.577  0.4335  0.5069  1.0068
  611MOL0     H84282  11.871   5.045   7.771  2.6338  1.2819  1.8887
  611MOL0     H84283  11.886   4.973   7.614  0.8957 -2.0427  1.5102
  611MOL0     H84284  12.135   4.948   7.659  1.6427 -6.3671  2.3262
  611MOL0     H84285  12.088   4.990   7.831 -0.3819 -0.2203  0.8670
  611MOL0     H84286  12.006   4.743   7.664 -0.0932  1.6526 -0.4684
  611MOL0     H84287  11.928   4.790   7.821 -0.9089  1.2851 -1.0208
  611MOL0     H84288  12.126   4.755   7.938  2.3170  1.6374  0.1237
  611MOL0     H84289  12.231   4.791   7.798  0.1089  0.1274 -0.8549
  611MOL0     H84290  12.162   4.583   7.682 -1.5154 -2.0044 -0.2409
  611MOL0     H84291  12.253   4.561   7.829 -0.4365  1.8066  2.1212
  611MOL0     H84292  11.964   4.522   7.784  1.8482  1.6800 -2.5591
  611MOL0     H84293  12.014   4.527   7.953 -1.5984 -3.6809  0.0987
  611MOL0     H84294  12.169   4.343   7.921 -0.2150  2.0021 -0.3538
  611MOL0     H84295  12.123   4.346   7.741 -2.7522  1.5465 -0.7214
  611MOL0     H84296  11.912   4.287   7.773 -1.8254  3.2497  1.2952
  611MOL0     H84297  11.908   4.306   7.945  2.3140  2.4513  1.2354
  611MOL0     H84298  12.091   5.364   7.603 -0.5936 -2.8906  0.5209
  611MOL0     H84299  11.978   5.574   7.528  1.2142 -0.2264 -0.6136
  611MOL0     H84300  11.526   5.771   7.454 -1.1441  2.5628  0.4183
  611MOL0     H84301  11.422   5.967   7.372  0.3544 -0.4697  1.3617
  611MOL0     H84302  11.478   5.647   8.185 -0.3689 -0.1545  0.9054
  611MOL0     H84303  11.293   5.497   8.284  0.6955 -2.5596 -2.3330
  611MOL0     H84304  11.080   5.267   8.581 -1.9803 -0.1640  0.5337
  611MOL0     H84305  10.919   5.105   8.689 -1.5253 -1.2549 -1.1251
  611MOL0     H84306  10.830   4.663   8.622 -0.7946  0.7464  1.4409
  611MOL0     H84307  10.991   4.669   8.575  0.0882  1.6155 -0.7282
  611MOL0     H84308  10.909   4.648   8.856 -0.0954 -1.8187 -0.1116
  611MOL0     H84309  11.074   4.657   8.798 -0.0441 -0.5588  1.0821
  611MOL0     H84310  10.943   4.418   8.853  2.5000  2.6897  1.6499
  611MOL0     H84311  10.890   4.438   8.690 -0.5216  1.3821 -0.1713
  611MOL0     H84312  11.107   4.292   8.756 -1.8659  0.6369  0.4380
  611MOL0     H84313  11.174   4.452   8.786 -1.4690  0.0636  1.6469
  611MOL0     H84314  11.192   4.434   8.367  1.5091  1.0184  0.4152
  611MOL0     H84315  11.161   4.772   8.548  2.4653 -0.0818  1.4809
  611MOL0     H84316  11.423   4.943   8.420  0.1569  0.4823 -0.1381
  611MOL0     H84317  11.346   4.788   8.471 -3.2745  0.5311  3.1060
  611MOL0     H84318  11.304   4.863   8.318  0.3269  0.1370  0.6079
  612MOL0     O84319   3.093   1.990   7.125 -0.2882 -0.1596  0.4693
  612MOL0     C84320   3.149   1.921   7.212  0.0806  1.0218 -0.2341
  612MOL0     O84321   3.238   1.821   7.186 -1.2257  0.5088 -0.1633
  612MOL0     C84322   3.254   1.778   7.056 -0.1706  0.6195  0.2657
  612MOL0     C84323   3.142   1.728   6.976 -0.2132  0.3527  0.4317
  612MOL0     C84324   3.167   1.679   6.851 -0.7690  0.4000  0.2777
  612MOL0     C84325   3.290   1.679   6.791 -0.5769  0.7023 -0.5534
  612MOL0     O84326   3.319   1.618   6.674 -0.7694 -0.3191 -0.8629
  612MOL0     C84327   3.230   1.554   6.590  0.1013  0.3955 -0.7600
  612MOL0     C84328   3.221   1.398   6.634 -0.3103 -0.3929 -0.2383
  612MOL0     C84329   3.125   1.321   6.543 -0.2770 -0.1429  0.5036
  612MOL0     C84330   3.183   1.320   6.407  0.5617 -0.7910  0.3589
  612MOL0     C84331   3.115   1.222   6.308  0.6326  0.1842 -0.1558
  612MOL0     C84332   3.205   1.215   6.181 -0.4373  0.0172 -0.0581
  612MOL0     C84333   3.152   1.117   6.074  0.1663  0.9531  0.1341
  612MOL0     C84334   3.261   1.098   5.971 -0.0123  0.0096 -0.4034
  612MOL0     N84335   3.227   1.020   5.852 -1.3815 -0.2170 -0.1734
  612MOL0     C84336   3.103   1.014   5.796  0.3336  0.6790 -1.1180
  612MOL0     C84337   3.131   0.955   5.679 -0.8298 -0.0659 -0.7686
  612MOL0     C84338   3.025   0.909   5.586 -1.0777 -0.3194  1.2565
  612MOL0     C84339   3.075   0.936   5.441 -0.0656 -0.0035 -0.0517
  612MOL0     C84340   3.087   1.080   5.387 -0.6838  0.0614 -0.9241
  612MOL0     C84341   2.963   1.164   5.410 -1.5008  0.4475  0.2771
  612MOL0     O84342   2.851   1.096   5.348  0.3380 -0.7538  0.4694
  612MOL0     C84343   2.761   1.173   5.282  0.9036  0.8408  0.0798
  612MOL0     C84344   2.664   1.245   5.352  0.0340 -0.4374  0.2844
  612MOL0     C84345   2.581   1.337   5.289 -0.0150  0.5258  0.1394
  612MOL0     C84346   2.471   1.402   5.380  0.4519 -0.3347 -0.0584
  612MOL0     C84347   2.590   1.349   5.148 -0.3661  0.8451 -0.1106
  612MOL0     C84348   2.503   1.427   5.070 -0.1807  0.2255 -0.5870
  612MOL0     O84349   2.385   1.469   5.129 -0.6338  0.0256  0.5830
  612MOL0     C84350   2.299   1.539   5.051 -0.0598  0.1765 -0.2613
  612MOL0     C84351   2.188   1.480   5.003  0.2316 -0.5646  0.0367
  612MOL0     C84352   2.110   1.553   4.910  0.4654 -0.2506 -0.5257
  612MOL0     C84353   2.165   1.665   4.844  0.0915  1.2589  0.5533
  612MOL0     O84354   2.105   1.703   4.732  0.2439  0.5733  0.4044
  612MOL0     C84355   2.165   1.656   4.608 -0.4277 -0.0142  0.1820
  612MOL0     C84356   2.153   1.762   4.493 -0.3160 -0.5095  0.6018
  612MOL0     C84357   2.239   1.881   4.537 -0.3420 -0.0364  0.9962
  612MOL0     C84358   2.251   1.980   4.410  0.2648 -0.2356 -0.4531
  612MOL0     C84359   2.301   2.122   4.451  0.7335 -0.6450  0.8061
  612MOL0     C84360   2.444   2.133   4.493  0.0546  0.1626 -0.7545
  612MOL0     C84361   2.499   2.289   4.524 -0.6848  0.2181 -0.3343
  612MOL0     C84362   2.600   2.310   4.632  0.1854 -1.1358  0.4018
  612MOL0    Cl84363   2.611   2.480   4.677 -0.0903 -0.5238  0.1349
  612MOL0     C84364   2.278   1.722   4.906 -0.8414  0.6091 -0.6496
  612MOL0     C84365   2.333   1.664   5.017  0.0738 -0.0755 -1.0087
  612MOL0     O84366   2.541   1.446   4.950 -0.0096 -0.5917 -0.2105
  612MOL0     C84367   2.696   1.278   5.082  0.0584  0.2001  0.4515
  612MOL0     C84368   2.768   1.180   5.145 -0.6198  0.3468 -0.0758
  612MOL0     N84369   3.265   0.951   5.653 -0.1988  0.0347 -0.2849
  612MOL0     N84370   3.323   0.980   5.761  0.6517 -0.8138  0.6898
  612MOL0     C84371   3.402   1.733   6.862 -0.9463 -0.3119  0.3377
  612MOL0     C84372   3.383   1.773   6.993  0.7072  0.5362 -0.3186
  612MOL0     C84373   3.145   1.968   7.357 -0.5099  1.0454  0.3131
  612MOL0     C84374   3.228   1.888   7.443 -0.2387  0.1801 -0.7326
  612MOL0     C84375   3.244   1.920   7.578 -0.7246  0.2495  0.2710
  612MOL0     C84376   3.176   2.031   7.632  0.3117 -0.6593  0.1148
  612MOL0     O84377   3.188   2.046   7.765 -0.7697  0.6057 -0.3549
  612MOL0     C84378   3.097   2.135   7.830  0.0518  0.2525  0.0573
  612MOL0     C84379   3.095   2.104   7.987  0.3415  0.3838  0.6658
  612MOL0     C84380   3.039   2.221   8.066 -0.0030 -1.1317 -0.3187
  612MOL0     C84381   3.023   2.177   8.209 -0.6829 -0.4642 -0.8054
  612MOL0     C84382   2.970   2.281   8.292 -0.3588 -0.0477 -0.1641
  612MOL0     C84383   2.939   2.386   8.321 -0.4364 -0.3627  0.1440
  612MOL0     C84384   3.088   2.109   7.552  0.6085  0.9337  0.0001
  612MOL0     C84385   3.084   2.079   7.415 -0.1932 -0.4007 -0.5273
  612MOL0     C84386   3.011   2.182   7.328  0.6194  0.1327  0.5113
  612MOL0     H84387   3.045   1.720   7.023 -0.9643 -1.2486 -1.2744
  612MOL0     H84388   3.087   1.622   6.804 -1.2465  0.1878  1.3251
  612MOL0     H84389   3.271   1.551   6.489  0.2706  0.2110 -0.6878
  612MOL0     H84390   3.131   1.599   6.591  1.0431  2.6080  0.8087
  612MOL0     H84391   3.321   1.354   6.639 -0.0655  0.0141 -1.2698
  612MOL0     H84392   3.168   1.394   6.730 -2.3585 -0.8462 -1.3294
  612MOL0     H84393   3.118   1.218   6.578 -0.2770  0.1650  1.4432
  612MOL0     H84394   3.027   1.369   6.545  0.2383  0.9557  0.4027
  612MOL0     H84395   3.176   1.417   6.357  0.1692  0.6509  3.0025
  612MOL0     H84396   3.290   1.297   6.415  0.8983  1.0519  1.8958
  612MOL0     H84397   3.009   1.246   6.293  0.0895 -2.3922 -1.0661
  612MOL0     H84398   3.117   1.125   6.358 -0.0230 -0.0364 -0.5334
  612MOL0     H84399   3.205   1.319   6.146  0.2773  0.7848  2.0365
  612MOL0     H84400   3.306   1.188   6.214 -0.7785 -0.1973  0.8386
  612MOL0     H84401   3.059   1.154   6.031 -0.6486 -0.8453  0.2710
  612MOL0     H84402   3.135   1.022   6.126 -0.5646  0.1128 -1.5786
  612MOL0     H84403   3.293   1.195   5.931 -0.6167  1.1038  1.6251
  612MOL0     H84404   3.341   1.038   6.015 -0.5455 -1.3412 -1.2147
  612MOL0     H84405   3.004   1.034   5.836  2.0153  1.6759  3.1043
  612MOL0     H84406   2.928   0.949   5.614 -2.4355 -3.5297  1.6172
  612MOL0     H84407   2.999   0.803   5.584 -3.4374  0.0933 -3.5723
  612MOL0     H84408   3.170   0.885   5.428  0.3943  0.7575  0.2276
  612MOL0     H84409   2.999   0.896   5.373 -0.5071 -0.7414  0.8601
  612MOL0     H84410   3.175   1.128   5.431 -0.1970  1.7391 -3.5149
  612MOL0     H84411   3.103   1.082   5.279 -1.0049  3.3689 -1.0208
  612MOL0     H84412   2.944   1.155   5.517  1.6733 -1.7584  0.8103
  612MOL0     H84413   2.983   1.266   5.379  2.1996 -0.3771 -0.5254
  612MOL0     H84414   2.656   1.235   5.460 -1.4852 -1.6643  0.0874
  612MOL0     H84415   2.375   1.354   5.362 -1.1580  2.0614  1.6229
  612MOL0     H84416   2.453   1.508   5.362 -1.4772 -0.8850 -1.7688
  612MOL0     H84417   2.495   1.405   5.486 -0.5961  0.6439  0.1692
  612MOL0     H84418   2.159   1.381   5.037  1.1501 -1.3537 -1.4261
  612MOL0     H84419   2.017   1.503   4.885  1.0270 -1.5226 -0.1434
  612MOL0     H84420   2.270   1.627   4.605 -0.3834  0.1781 -2.4943
  612MOL0     H84421   2.105   1.567   4.584 -2.0171  0.8858  0.6398
  612MOL0     H84422   2.187   1.727   4.395  0.3927 -0.7210  0.9193
  612MOL0     H84423   2.051   1.797   4.475 -0.3581 -1.4134 -1.0740
  612MOL0     H84424   2.340   1.846   4.561  0.5310  0.7563 -1.3180
  612MOL0     H84425   2.199   1.932   4.626  1.5934  1.2606  1.1898
  612MOL0     H84426   2.153   2.006   4.370 -0.5185  1.9136  2.5481
  612MOL0     H84427   2.322   1.942   4.335  2.2908 -2.2263  2.2381
  612MOL0     H84428   2.297   2.178   4.357  3.5916  1.8204  1.9728
  612MOL0     H84429   2.226   2.156   4.523 -1.8082 -2.3472 -0.8624
  612MOL0     H84430   2.512   2.085   4.423  0.2685 -0.5283 -0.0882
  612MOL0     H84431   2.463   2.078   4.586 -0.5530  0.5880 -0.3731
  612MOL0     H84432   2.409   2.351   4.532 -0.5219  0.1746  2.8024
  612MOL0     H84433   2.543   2.327   4.431 -1.7092  2.4455  0.0402
  612MOL0     H84434   2.696   2.276   4.592 -0.4495  0.1659 -2.5189
  612MOL0     H84435   2.573   2.254   4.722  1.3296 -2.0554  0.2001
  612MOL0     H84436   2.315   1.817   4.869 -0.6995  1.2271  1.0120
  612MOL0     H84437   2.410   1.715   5.073 -0.9067  0.5732 -0.2201
  612MOL0     H84438   2.717   1.275   4.976 -0.2037  0.6569  0.3882
  612MOL0     H84439   2.846   1.122   5.096  1.0668  0.9933  1.7186
  612MOL0     H84440   3.501   1.727   6.820 -1.4057 -1.7790 -0.6355
  612MOL0     H84441   3.470   1.811   7.045  3.1802 -1.9917 -2.3076
  612MOL0     H84442   3.285   1.803   7.407  0.3313  0.4267 -0.4316
  612MOL0     H84443   3.314   1.859   7.634  1.1839  2.4513  0.4078
  612MOL0     H84444   3.136   2.236   7.810 -3.5242  1.6422 -0.7089
  612MOL0     H84445   2.998   2.136   7.783 -0.0025 -1.2837  0.1033
  612MOL0     H84446   3.201   2.108   8.013  1.3695  2.6577 -3.0739
  612MOL0     H84447   3.056   2.005   8.014  1.3291  0.0346  0.8412
  612MOL0     H84448   3.100   2.310   8.050  1.5365 -1.1807  4.0822
  612MOL0     H84449   2.935   2.236   8.036  0.2552  0.5881 -0.4222
  612MOL0     H84450   3.121   2.154   8.251 -2.2211  0.0892  3.6375
  612MOL0     H84451   2.967   2.084   8.222 -0.0574 -0.7213  0.1285
  612MOL0     H84452   2.899   2.482   8.345  0.3786 -0.3843  1.7231
  612MOL0     H84453   3.043   2.200   7.588  0.1367  0.4875  0.5537
  612MOL0     H84454   2.915   2.146   7.289  1.1001 -0.0914 -0.4830
  612MOL0     H84455   2.987   2.274   7.382 -2.1426  0.1072 -0.4897
  612MOL0     H84456   3.071   2.215   7.243  0.4812  0.7693  0.6611
  613MOL0     O84457   8.194   9.596   5.606 -0.3185 -0.0075  0.6266
  613MOL0     C84458   8.176   9.490   5.561  0.0659  1.3878  0.3878
  613MOL0     O84459   8.067   9.457   5.480 -0.1388 -0.0814 -0.5688
  613MOL0     C84460   7.981   9.558   5.456  0.0450  0.4368 -0.3680
  613MOL0     C84461   7.904   9.610   5.560 -0.3819 -1.5531  0.1669
  613MOL0     C84462   7.816   9.725   5.542 -0.3378  0.2607  0.7416
  613MOL0     C84463   7.819   9.787   5.407 -0.2743 -0.1855  0.3102
  613MOL0     O84464   7.738   9.892   5.372  0.6283 -0.8447 -0.0329
  613MOL0     C84465   7.618   9.910   5.450 -1.1868  0.1883  0.6749
  613MOL0     C84466   7.522  10.008   5.369  0.5502 -0.4928 -0.1192
  613MOL0     C84467   7.573  10.155   5.377  0.8548  1.5388  0.3587
  613MOL0     C84468   7.544  10.240   5.251 -0.6598  0.0943  0.2559
  613MOL0     C84469   7.566  10.387   5.273  0.4615 -0.3792 -0.0736
  613MOL0     C84470   7.710  10.427   5.308  0.3553 -0.3537 -0.3341
  613MOL0     C84471   7.720  10.580   5.324  0.0160  0.9666  0.7540
  613MOL0     C84472   7.865  10.635   5.339  0.1740 -0.4646 -0.1480
  613MOL0     N84473   7.912  10.639   5.470 -0.1322  0.4130 -0.5005
  613MOL0     C84474   7.843  10.674   5.588 -0.2853  0.0021 -0.2461
  613MOL0     C84475   7.933  10.679   5.687 -0.2590 -0.6852  0.1959
  613MOL0     C84476   7.902  10.707   5.833  0.5650 -0.6631  0.6450
  613MOL0     C84477   7.887  10.853   5.884  0.7877  0.1925  0.1467
  613MOL0     C84478   8.012  10.941   5.845  0.0662  0.1202 -0.4369
  613MOL0     C84479   8.008  11.086   5.880  0.6521  0.0387  0.0675
  613MOL0     O84480   7.930  11.153   5.778 -0.4053  0.4833 -0.3128
  613MOL0     C84481   7.956  11.285   5.749 -0.6599  1.2161 -1.0709
  613MOL0     C84482   7.870  11.328   5.657 -0.2804 -0.0558  0.0741
  613MOL0     C84483   7.872  11.460   5.616  1.2060  0.5653  1.1138
  613MOL0     C84484   7.770  11.494   5.491  0.8738  0.2148 -0.2652
  613MOL0     C84485   7.955  11.552   5.681  0.1658 -0.0934  0.3518
  613MOL0     C84486   7.966  11.694   5.644 -0.5555 -0.2036  0.4162
  613MOL0     O84487   8.012  11.773   5.745 -0.3310 -0.6503  0.3068
  613MOL0     C84488   8.043  11.904   5.713  0.0704 -0.6534 -0.8342
  613MOL0     C84489   7.937  11.989   5.679 -0.5433  0.3035  1.3980
  613MOL0     C84490   7.969  12.126   5.656  0.3124 -0.3351 -0.3323
  613MOL0     C84491   8.097  12.175   5.674 -0.5708  0.1597  1.1317
  613MOL0     O84492   8.108  12.308   5.677 -0.8300 -0.1239  0.8276
  613MOL0     C84493   8.156  12.358   5.801 -0.3436  0.0285 -0.0127
  613MOL0     C84494   8.045  12.367   5.909 -0.1720 -0.1055  0.2526
  613MOL0     C84495   8.106  12.456   6.018 -0.5559  0.2183 -0.7087
  613MOL0     C84496   8.010  12.458   6.142  0.0662  0.0530  0.3758
  613MOL0     C84497   8.044  12.550   6.245  0.1972 -0.4639 -0.6363
  613MOL0     C84498   8.170  12.525   6.311 -1.2543  0.9251 -0.2399
  613MOL0     C84499   8.209  12.604   6.434 -0.3820  0.1810  0.0420
  613MOL0     C84500   8.340  12.686   6.418  1.0252  0.4025 -0.2794
  613MOL0    Cl84501   8.354  12.790   6.553  0.1629 -0.1595  0.0823
  613MOL0     C84502   8.208  12.085   5.706  0.9097  0.0239  1.2259
  613MOL0     C84503   8.173  11.949   5.730 -0.1239  0.2376 -0.6872
  613MOL0     O84504   7.955  11.724   5.530  0.0545 -0.5582  0.0456
  613MOL0     C84505   8.028  11.513   5.791  0.4414  0.4166 -0.0604
  613MOL0     C84506   8.031  11.369   5.823 -0.2831 -0.9242  0.9134
  613MOL0     N84507   8.051  10.647   5.635 -0.1831 -0.0682 -0.2652
  613MOL0     N84508   8.039  10.631   5.506 -0.5330  0.1261  0.2395
  613MOL0     C84509   7.884   9.724   5.299 -0.4903 -0.2596 -0.2031
  613MOL0     C84510   7.974   9.615   5.333  0.4987  0.1934 -0.1059
  613MOL0     C84511   8.257   9.366   5.590  0.0483  0.1234 -0.1267
  613MOL0     C84512   8.272   9.270   5.493 -0.7576 -0.4925  0.7900
  613MOL0     C84513   8.343   9.146   5.514  0.1435 -0.4204 -0.1526
  613MOL0     C84514   8.422   9.124   5.627  0.1386  0.2933 -0.2669
  613MOL0     O84515   8.478   9.002   5.643 -0.1072  0.3715  0.3264
  613MOL0     C84516   8.625   9.015   5.669 -0.2919  0.4552 -0.3942
  613MOL0     C84517   8.699   8.988   5.544 -0.1993 -0.1345 -0.2801
  613MOL0     C84518   8.845   8.983   5.585  0.9524  0.6354  1.4614
  613MOL0     C84519   8.901   8.852   5.536  0.6649 -0.1208  0.2212
  613MOL0     C84520   9.040   8.844   5.578 -0.7879 -0.2649  0.7418
  613MOL0     C84521   9.155   8.846   5.621 -0.1361 -0.2415 -0.0807
  613MOL0     C84522   8.404   9.220   5.732 -0.1956  0.4447 -0.0806
  613MOL0     C84523   8.327   9.342   5.708  0.1838 -0.4797 -0.4602
  613MOL0     C84524   8.321   9.425   5.833  0.0446 -0.4884 -0.4406
  613MOL0     H84525   7.914   9.573   5.662  0.8921 -3.4692 -0.6008
  613MOL0     H84526   7.778   9.769   5.633  0.1352  1.7368  0.2514
  613MOL0     H84527   7.625   9.946   5.553 -0.7433  1.3907  0.2394
  613MOL0     H84528   7.557   9.819   5.444 -1.6299  0.2896  2.8671
  613MOL0     H84529   7.518   9.974   5.265  1.7538  1.4672 -0.8629
  613MOL0     H84530   7.416  10.000   5.391  0.7889 -1.4582  0.7898
  613MOL0     H84531   7.519  10.197   5.462 -2.6927  2.2252 -2.0260
  613MOL0     H84532   7.680  10.148   5.396  0.6958 -1.7938  0.6691
  613MOL0     H84533   7.614  10.208   5.173 -1.8496 -0.7381 -0.4922
  613MOL0     H84534   7.445  10.228   5.206 -0.3071  0.6252 -0.7005
  613MOL0     H84535   7.507  10.425   5.357  2.3829  0.3125  1.0231
  613MOL0     H84536   7.545  10.441   5.180 -0.6411 -0.5386  0.0686
  613MOL0     H84537   7.736  10.376   5.401  0.5414 -1.7947 -1.1335
  613MOL0     H84538   7.781  10.402   5.228  1.2285 -3.1424  1.1829
  613MOL0     H84539   7.644  10.614   5.394 -1.1883 -0.1990  0.0620
  613MOL0     H84540   7.692  10.609   5.222 -1.5161  0.3311  0.9789
  613MOL0     H84541   7.940  10.575   5.287  0.3192 -1.1163  0.7831
  613MOL0     H84542   7.866  10.735   5.296 -1.9269 -0.9450 -1.5245
  613MOL0     H84543   7.737  10.693   5.588 -0.2231  0.3537 -0.4049
  613MOL0     H84544   7.977  10.657   5.896 -0.4085 -0.3820  2.0871
  613MOL0     H84545   7.802  10.662   5.842  0.1386  0.0899 -0.2170
  613MOL0     H84546   7.795  10.892   5.839 -0.0018 -0.7977  0.8667
  613MOL0     H84547   7.872  10.853   5.992  0.9037 -3.9876  0.3261
  613MOL0     H84548   8.111  10.904   5.876 -0.1754  2.9356  4.9591
  613MOL0     H84549   7.996  10.938   5.737 -1.6297  1.6416 -0.2713
  613MOL0     H84550   7.961  11.107   5.976 -1.5001 -1.0457 -0.6942
  613MOL0     H84551   8.112  11.119   5.877  0.9604 -0.7515  1.3088
  613MOL0     H84552   7.795  11.259   5.622  2.3047 -1.8086 -2.4991
  613MOL0     H84553   7.748  11.601   5.483 -0.4020 -0.0437 -0.3573
  613MOL0     H84554   7.669  11.455   5.502  1.5360 -2.0049 -1.3873
  613MOL0     H84555   7.811  11.455   5.397 -0.4120  0.1977 -0.8420
  613MOL0     H84556   7.834  11.958   5.669 -0.1578 -1.6222  2.8432
  613MOL0     H84557   7.900  12.203   5.623  1.8978  1.3850  0.1845
  613MOL0     H84558   8.241  12.294   5.825  0.2114 -0.0488 -2.0141
  613MOL0     H84559   8.195  12.459   5.782 -1.9852  0.6536 -0.2617
  613MOL0     H84560   7.951  12.404   5.867 -0.3777 -0.5275  0.3327
  613MOL0     H84561   8.016  12.266   5.941 -0.6970 -0.1649 -0.3779
  613MOL0     H84562   8.125  12.558   5.985  1.0467  0.4843  0.8875
  613MOL0     H84563   8.205  12.428   6.054 -0.3904 -0.9128 -1.9528
  613MOL0     H84564   8.001  12.362   6.195 -2.0715  0.2935  0.5391
  613MOL0     H84565   7.912  12.488   6.103  1.0102 -0.5124 -2.7072
  613MOL0     H84566   8.060  12.649   6.201  2.4129 -0.2278  0.5948
  613MOL0     H84567   7.957  12.562   6.311 -0.2038 -0.8375 -1.0843
  613MOL0     H84568   8.251  12.538   6.239 -2.4096  2.8111 -1.2941
  613MOL0     H84569   8.155  12.422   6.346 -1.3846  1.5246  1.5465
  613MOL0     H84570   8.230  12.543   6.522  0.0166  0.7912  0.3796
  613MOL0     H84571   8.127  12.665   6.472 -1.3408 -1.6471  1.0144
  613MOL0     H84572   8.338  12.754   6.333  0.8852  0.9918  0.1846
  613MOL0     H84573   8.424  12.619   6.395  0.9318  0.1608  0.0704
  613MOL0     H84574   8.308  12.125   5.711 -0.2010  3.2539  0.1605
  613MOL0     H84575   8.242  11.881   5.778 -0.4691  1.5445  1.8607
  613MOL0     H84576   8.079  11.585   5.855 -0.8540  0.6068  0.8051
  613MOL0     H84577   8.085  11.336   5.911 -0.9434 -0.4330  1.5211
  613MOL0     H84578   7.868   9.756   5.197 -1.5645  0.3671  0.1387
  613MOL0     H84579   8.038   9.562   5.264  2.7747 -0.5941  2.4322
  613MOL0     H84580   8.233   9.286   5.393  0.8643  2.2922  0.5101
  613MOL0     H84581   8.347   9.067   5.440 -0.1235 -0.3081 -0.2866
  613MOL0     H84582   8.644   9.114   5.711 -1.1961 -0.5662  2.7662
  613MOL0     H84583   8.661   8.956   5.754  1.6193  2.2772  0.1521
  613MOL0     H84584   8.683   9.066   5.469  1.5355  1.1385  0.5989
  613MOL0     H84585   8.663   8.894   5.503 -0.5761 -0.3127  0.4418
  613MOL0     H84586   8.894   9.062   5.528 -0.0009  0.0449 -0.2563
  613MOL0     H84587   8.860   8.989   5.694  0.5383  3.5596  1.4439
  613MOL0     H84588   8.893   8.845   5.427  2.2088  1.5141 -0.0319
  613MOL0     H84589   8.842   8.773   5.585 -0.6617  0.8703  0.2843
  613MOL0     H84590   9.256   8.828   5.652  0.4471  0.2554 -1.6398
  613MOL0     H84591   8.456   9.195   5.824 -2.4426 -2.5848  0.5166
  613MOL0     H84592   8.343   9.530   5.811 -2.3050 -0.1339 -1.3728
  613MOL0     H84593   8.222   9.427   5.880  1.2403  1.0499  2.2210
  613MOL0     H84594   8.376   9.396   5.922  0.1325 -0.4113 -0.4697
  614MOL0     O84595   5.576   2.869   5.726  0.3320  0.1858  0.4291
  614MOL0     C84596   5.483   2.889   5.806  0.2724  0.4332 -0.0137
  614MOL0     O84597   5.387   2.800   5.844  0.3067 -0.7176  0.1337
  614MOL0     C84598   5.397   2.674   5.796  0.8143  0.8255 -0.4441
  614MOL0     C84599   5.272   2.630   5.730 -0.1512  0.0435  0.1633
  614MOL0     C84600   5.274   2.511   5.665 -0.7193 -0.3028  0.2912
  614MOL0     C84601   5.383   2.421   5.656 -0.0855 -0.7107 -0.0683
  614MOL0     O84602   5.367   2.290   5.613  0.8146 -0.8254 -0.0309
  614MOL0     C84603   5.286   2.274   5.498 -0.2137  0.3217 -0.8839
  614MOL0     C84604   5.336   2.158   5.412  0.2049  0.3691  0.3150
  614MOL0     C84605   5.451   2.200   5.324  1.2052  1.1719  1.7070
  614MOL0     C84606   5.594   2.203   5.397  0.8876  0.5804 -0.2026
  614MOL0     C84607   5.639   2.351   5.422 -0.5959 -1.5416  0.7872
  614MOL0     C84608   5.781   2.334   5.477 -0.5837 -0.3718 -0.0427
  614MOL0     C84609   5.877   2.448   5.445 -0.4112  0.8991  0.2442
  614MOL0     C84610   5.827   2.576   5.499  0.2186  0.7495 -1.4296
  614MOL0     N84611   5.744   2.644   5.402  0.3516 -0.8091 -0.9052
  614MOL0     C84612   5.615   2.686   5.427 -0.4662  0.2776 -0.3746
  614MOL0     C84613   5.580   2.760   5.319 -0.0193 -0.4770 -0.5786
  614MOL0     C84614   5.448   2.836   5.320  0.5279  1.1356  0.6383
  614MOL0     C84615   5.333   2.736   5.311 -0.0752  0.9312  0.5666
  614MOL0     C84616   5.191   2.803   5.329  0.1354 -0.2768 -0.1203
  614MOL0     C84617   5.172   2.938   5.261 -0.1604  0.4907  1.3149
  614MOL0     O84618   5.198   2.921   5.112  0.2924 -0.3112  0.1725
  614MOL0     C84619   5.104   2.863   5.026 -0.6429  0.0572 -0.1911
  614MOL0     C84620   4.987   2.919   4.999 -0.4309  0.0026 -0.0395
  614MOL0     C84621   4.900   2.855   4.905  0.8645 -0.3404 -0.8206
  614MOL0     C84622   4.769   2.925   4.895 -0.0744 -0.1471  0.0941
  614MOL0     C84623   4.943   2.753   4.825  0.8466  0.7981  0.7234
  614MOL0     C84624   4.868   2.683   4.710 -0.1221  0.5943 -0.3684
  614MOL0     O84625   4.911   2.561   4.666  0.0593  0.3841 -0.0675
  614MOL0     C84626   4.843   2.446   4.694  0.5419  0.5027  0.9560
  614MOL0     C84627   4.909   2.327   4.698 -0.2382  0.1451  1.0963
  614MOL0     C84628   4.843   2.201   4.729 -0.7946  0.2452  0.4558
  614MOL0     C84629   4.709   2.192   4.764  0.1191 -0.0964  0.0272
  614MOL0     O84630   4.657   2.082   4.829 -0.0707  0.3405  0.2509
  614MOL0     C84631   4.524   2.088   4.876  0.4561 -0.2828 -0.0183
  614MOL0     C84632   4.472   1.977   4.960  0.3669 -0.3906 -0.2688
  614MOL0     C84633   4.359   2.001   5.052 -0.3301 -0.3474 -0.7504
  614MOL0     C84634   4.244   2.073   4.975 -0.0926 -0.3641 -0.0332
  614MOL0     C84635   4.106   2.059   5.027 -0.0694  0.3562  0.4268
  614MOL0     C84636   4.092   2.072   5.181  0.4234 -1.1250  0.6322
  614MOL0     C84637   4.059   2.216   5.227 -0.2212 -0.0651  0.4526
  614MOL0     C84638   4.015   2.214   5.374  0.1529 -0.1313  0.7510
  614MOL0    Cl84639   3.981   2.379   5.436  0.3777  0.2623 -0.4131
  614MOL0     C84640   4.647   2.319   4.766  0.2393 -0.2563 -0.2081
  614MOL0     C84641   4.699   2.441   4.718 -0.1647 -0.3820  0.0059
  614MOL0     O84642   4.762   2.738   4.679  1.0294  0.7224 -0.2329
  614MOL0     C84643   5.066   2.700   4.857  0.2226  0.7389 -0.1402
  614MOL0     C84644   5.146   2.754   4.952 -0.1634  0.1631  0.5330
  614MOL0     N84645   5.690   2.765   5.232 -0.3538  0.5731  0.3364
  614MOL0     N84646   5.793   2.699   5.291 -0.0681 -0.1276  0.9051
  614MOL0     C84647   5.498   2.466   5.722  0.2641  0.4815 -0.6984
  614MOL0     C84648   5.506   2.587   5.794  0.1857  0.4430 -0.8165
  614MOL0     C84649   5.482   3.011   5.884  0.7757 -0.9742  0.8270
  614MOL0     C84650   5.435   3.018   6.019 -0.0272  0.5478 -1.0293
  614MOL0     C84651   5.439   3.134   6.086 -0.9121 -0.2870  0.2684
  614MOL0     C84652   5.465   3.258   6.021 -0.7805  0.5120  0.0617
  614MOL0     O84653   5.453   3.373   6.090  0.1940 -0.3767 -0.1262
  614MOL0     C84654   5.481   3.496   6.024 -0.6504  0.1250 -0.2312
  614MOL0     C84655   5.460   3.609   6.129  0.5699  0.1215  0.1664
  614MOL0     C84656   5.558   3.582   6.243  0.5594 -0.2111  0.4588
  614MOL0     C84657   5.698   3.632   6.205 -0.6529  0.3842  0.8248
  614MOL0     C84658   5.783   3.654   6.320 -1.1652  1.3677  0.1339
  614MOL0     C84659   5.847   3.694   6.408 -0.4270 -0.3660 -0.0596
  614MOL0     C84660   5.513   3.254   5.891 -0.3985 -0.3266  0.0215
  614MOL0     C84661   5.524   3.135   5.821  0.0506  0.1928 -0.2185
  614MOL0     C84662   5.568   3.146   5.677 -0.4824  0.3020 -0.2720
  614MOL0     H84663   5.195   2.704   5.716 -0.0574  0.3841  1.3357
  614MOL0     H84664   5.177   2.482   5.627 -0.9161  1.0460 -0.3016
  614MOL0     H84665   5.282   2.374   5.454 -0.3648  0.7796  0.1375
  614MOL0     H84666   5.191   2.245   5.544  1.2550 -1.5319  1.2215
  614MOL0     H84667   5.367   2.072   5.473  0.1434 -0.0283 -0.2083
  614MOL0     H84668   5.257   2.131   5.342  1.8769  2.4931 -2.6017
  614MOL0     H84669   5.461   2.134   5.238 -0.2702  2.5234  0.4312
  614MOL0     H84670   5.420   2.288   5.268  0.4363 -0.0997  0.0582
  614MOL0     H84671   5.597   2.152   5.494  2.5045  2.8385  1.0164
  614MOL0     H84672   5.670   2.168   5.326  0.2423 -0.0072 -0.6091
  614MOL0     H84673   5.576   2.406   5.492 -0.7180 -2.1183  1.1330
  614MOL0     H84674   5.631   2.407   5.328 -0.5514 -2.1151  0.4370
  614MOL0     H84675   5.777   2.322   5.586 -0.4664 -3.6696 -0.2848
  614MOL0     H84676   5.827   2.239   5.448 -3.6000 -1.2557 -2.3930
  614MOL0     H84677   5.891   2.450   5.337 -2.5376  2.8438 -0.0784
  614MOL0     H84678   5.976   2.425   5.484 -0.6265 -0.8179 -0.1492
  614MOL0     H84679   5.790   2.571   5.601  0.8433 -1.4781 -1.2499
  614MOL0     H84680   5.918   2.635   5.516  1.4213 -1.8382  2.8216
  614MOL0     H84681   5.559   2.657   5.516 -1.5862  1.7437 -0.5661
  614MOL0     H84682   5.467   2.901   5.234 -0.1317 -2.8717 -2.9029
  614MOL0     H84683   5.433   2.893   5.412 -3.0124 -0.9900  1.5518
  614MOL0     H84684   5.334   2.679   5.218 -0.0890 -0.9345  1.6586
  614MOL0     H84685   5.349   2.673   5.399 -2.0394  1.0811  1.0845
  614MOL0     H84686   5.109   2.732   5.317 -2.9066  2.1052  3.7490
  614MOL0     H84687   5.163   2.832   5.431 -0.0379 -4.0130  1.0573
  614MOL0     H84688   5.067   2.958   5.288 -0.7557 -1.9296  1.0613
  614MOL0     H84689   5.241   3.012   5.301  2.5958 -0.4787 -1.3199
  614MOL0     H84690   4.949   2.996   5.066  0.5741 -0.6481  1.3318
  614MOL0     H84691   4.749   2.955   4.791  1.5826  3.3391  0.6244
  614MOL0     H84692   4.774   3.020   4.950 -1.1370 -0.9407  1.6299
  614MOL0     H84693   4.698   2.856   4.941  0.0405  1.6207  3.1650
  614MOL0     H84694   5.016   2.322   4.682  0.0437  1.5845  2.2734
  614MOL0     H84695   4.916   2.122   4.737  1.7917  2.3421 -0.6196
  614MOL0     H84696   4.506   2.175   4.939 -0.3752 -2.7708  3.4452
  614MOL0     H84697   4.466   2.103   4.784 -0.5308 -0.9985  0.4603
  614MOL0     H84698   4.442   1.896   4.894 -3.1801  0.1240  0.5047
  614MOL0     H84699   4.556   1.952   5.026  1.3193  2.1582 -0.3730
  614MOL0     H84700   4.402   2.047   5.141  1.6622 -4.4773  0.6758
  614MOL0     H84701   4.333   1.898   5.076  1.6565 -1.0811 -1.5437
  614MOL0     H84702   4.252   2.051   4.868  2.6979  3.8296 -0.9746
  614MOL0     H84703   4.276   2.178   4.973  2.9528 -1.1955 -1.6113
  614MOL0     H84704   4.034   2.127   4.980 -0.4051 -0.3771 -0.1620
  614MOL0     H84705   4.058   1.965   4.994 -1.0035  1.3590 -1.2445
  614MOL0     H84706   4.181   2.033   5.232  0.0535 -1.8679  0.7114
  614MOL0     H84707   4.013   1.999   5.198  1.4951 -3.4125 -3.1053
  614MOL0     H84708   3.975   2.254   5.167 -0.1212  3.6369  2.3547
  614MOL0     H84709   4.148   2.278   5.209  0.1905 -1.4128 -3.0004
  614MOL0     H84710   4.095   2.175   5.438  0.5246 -1.0289 -0.2323
  614MOL0     H84711   3.923   2.155   5.373 -0.7462  1.1325  2.5941
  614MOL0     H84712   4.546   2.328   4.804  1.3386  1.2670  2.6673
  614MOL0     H84713   4.636   2.529   4.719 -0.5190 -0.6278  0.6738
  614MOL0     H84714   5.115   2.615   4.811  1.4429  0.3995  1.6883
  614MOL0     H84715   5.233   2.695   4.980 -0.6786 -0.0397  1.7780
  614MOL0     H84716   5.576   2.394   5.746  1.0413  2.2247  2.5714
  614MOL0     H84717   5.590   2.603   5.862 -0.6538 -1.3224  0.7220
  614MOL0     H84718   5.394   2.928   6.064  1.7826  0.0649 -0.2978
  614MOL0     H84719   5.416   3.166   6.187 -0.4176  3.1668 -0.5676
  614MOL0     H84720   5.583   3.502   5.986 -0.3576  0.9034  0.6549
  614MOL0     H84721   5.412   3.516   5.941 -1.1485 -0.2294  0.0920
  614MOL0     H84722   5.363   3.593   6.177 -0.9121  1.1970 -2.2740
  614MOL0     H84723   5.461   3.708   6.083  0.9661  0.5855  1.1378
  614MOL0     H84724   5.537   3.649   6.327  0.2238 -0.4564  0.5733
  614MOL0     H84725   5.557   3.475   6.266  1.3823 -0.1900  0.6332
  614MOL0     H84726   5.696   3.726   6.150  2.2161 -0.3537 -0.7173
  614MOL0     H84727   5.741   3.560   6.135 -1.0708  2.6365 -1.9328
  614MOL0     H84728   5.913   3.739   6.479  2.0313 -3.7976  0.0624
  614MOL0     H84729   5.525   3.346   5.835 -1.6125  0.5055  1.0606
  614MOL0     H84730   5.499   3.084   5.619 -1.1632  1.8487 -1.1688
  614MOL0     H84731   5.557   3.250   5.645 -3.5087  0.5447  1.1547
  614MOL0     H84732   5.670   3.108   5.673 -0.6699 -0.1595 -0.7548
  615MOL0     O84733   9.613   6.804   3.806 -0.5006  0.0944  0.5160
  615MOL0     C84734   9.703   6.842   3.730  0.0345 -0.2910  0.4293
  615MOL0     O84735   9.835   6.864   3.764 -0.3017  0.4378  0.2279
  615MOL0     C84736   9.867   6.812   3.884 -0.9033  1.4104 -0.4163
  615MOL0     C84737   9.945   6.895   3.976  0.2563 -0.3220  0.8299
  615MOL0     C84738   9.997   6.841   4.089  0.3496 -0.1705 -0.3387
  615MOL0     C84739   9.957   6.713   4.131  0.3574 -0.0349  0.6591
  615MOL0     O84740   9.999   6.663   4.251  0.7204 -0.2596 -0.0086
  615MOL0     C84741   9.953   6.748   4.364 -0.1172  0.4688  0.5017
  615MOL0     C84742   9.923   6.664   4.493 -0.2521  0.4424  1.2084
  615MOL0     C84743   9.857   6.748   4.606 -0.4654 -0.2654 -0.4911
  615MOL0     C84744   9.887   6.689   4.747  0.0164  0.1714  0.6644
  615MOL0     C84745   9.839   6.780   4.866 -0.7804 -0.5619 -1.0966
  615MOL0     C84746   9.931   6.770   4.986 -0.4120 -0.4001  0.6023
  615MOL0     C84747  10.033   6.893   4.999  1.0101  0.3136 -0.1431
  615MOL0     C84748   9.960   7.024   5.058 -0.5786  0.1496  0.6570
  615MOL0     N84749   9.937   7.026   5.200 -1.4290 -1.0403 -0.1259
  615MOL0     C84750   9.823   7.073   5.252  0.6295  0.7518 -1.0016
  615MOL0     C84751   9.838   7.066   5.390 -0.6104 -0.7683 -0.6336
  615MOL0     C84752   9.743   7.099   5.495 -0.6477 -0.3850 -0.4319
  615MOL0     C84753   9.712   7.249   5.503  0.1582  0.7182 -0.3010
  615MOL0     C84754   9.819   7.350   5.523  0.7377  0.2308  0.0456
  615MOL0     C84755   9.921   7.301   5.619 -0.0586 -0.1466  0.2266
  615MOL0     O84756   9.884   7.327   5.751  0.5803  0.5357 -1.1227
  615MOL0     C84757   9.997   7.323   5.840  0.4923  0.2033 -0.1098
  615MOL0     C84758   9.952   7.330   5.978 -0.1059 -0.4874 -0.6709
  615MOL0     C84759  10.040   7.327   6.086 -1.0133 -0.3963 -0.2925
  615MOL0     C84760   9.977   7.303   6.221  0.0936  0.2067 -0.2537
  615MOL0     C84761  10.181   7.324   6.061  0.4420 -0.2016  0.0916
  615MOL0     C84762  10.282   7.314   6.165 -0.3450  0.4033 -0.1452
  615MOL0     O84763  10.401   7.252   6.144 -0.2587 -0.1465  0.1874
  615MOL0     C84764  10.507   7.243   6.231  0.6227 -0.7799  0.1661
  615MOL0     C84765  10.531   7.301   6.354  0.0380  0.0937 -0.1380
  615MOL0     C84766  10.658   7.289   6.425  0.1038  0.2150 -0.3599
  615MOL0     C84767  10.766   7.227   6.366 -0.4881 -0.3677  0.0334
  615MOL0     O84768  10.886   7.226   6.425  0.1116  0.5713 -0.1611
  615MOL0     C84769  10.918   7.094   6.493  0.2426 -0.8124 -0.1048
  615MOL0     C84770  10.877   7.107   6.646 -0.7794  0.6836  0.2656
  615MOL0     C84771  10.862   6.967   6.709  0.8527 -0.4893 -0.3833
  615MOL0     C84772  10.987   6.888   6.733 -0.6915  0.0920 -1.0280
  615MOL0     C84773  10.970   6.757   6.814  0.6357 -0.8363  0.5170
  615MOL0     C84774  11.088   6.671   6.777  0.4458  0.4540  0.6575
  615MOL0     C84775  11.102   6.541   6.876  1.5579 -1.1449 -0.1623
  615MOL0     C84776  11.242   6.475   6.876  0.0293 -0.5440 -0.0201
  615MOL0    Cl84777  11.350   6.595   6.935 -0.3057 -0.6532  0.4167
  615MOL0     C84778  10.745   7.155   6.259 -0.0844 -0.1276 -0.9957
  615MOL0     C84779  10.624   7.167   6.183  0.0947 -0.7577 -0.3864
  615MOL0     O84780  10.254   7.368   6.275  0.0678 -0.0094 -0.6679
  615MOL0     C84781  10.220   7.327   5.925  0.1741  0.6870  0.0985
  615MOL0     C84782  10.132   7.329   5.817  0.3956  0.2792 -0.6210
  615MOL0     N84783   9.963   7.006   5.411  0.3255 -0.5056  0.2401
  615MOL0     N84784  10.019   6.992   5.302 -0.4766  0.4282 -0.2343
  615MOL0     C84785   9.882   6.627   4.048  0.0531 -1.0395  0.0608
  615MOL0     C84786   9.834   6.676   3.925  0.7337  0.5718 -0.1398
  615MOL0     C84787   9.677   6.894   3.593  0.5815  0.0783 -0.5644
  615MOL0     C84788   9.776   6.933   3.504 -0.6500 -0.2492  0.3553
  615MOL0     C84789   9.748   6.963   3.363 -0.3329 -0.5458 -0.3618
  615MOL0     C84790   9.619   6.965   3.320 -0.2009 -0.3983  0.4037
  615MOL0     O84791   9.591   6.999   3.200  0.2444  0.1406  0.0721
  615MOL0     C84792   9.673   7.021   3.086 -0.4777  0.3627 -0.3451
  615MOL0     C84793   9.592   7.051   2.961  0.6787 -0.2583 -0.5785
  615MOL0     C84794   9.475   6.952   2.933 -0.0824 -0.1560  1.3152
  615MOL0     C84795   9.404   6.975   2.802  1.2993  0.3706 -0.2128
  615MOL0     C84796   9.316   6.853   2.776 -0.3883 -0.3222 -0.2909
  615MOL0     C84797   9.242   6.762   2.752 -0.1968 -0.7474 -0.0150
  615MOL0     C84798   9.519   6.936   3.408  1.5050  0.3478  0.1747
  615MOL0     C84799   9.542   6.900   3.537  1.1183 -0.2867 -0.5426
  615MOL0     C84800   9.414   6.879   3.620 -0.1884  0.6604  0.1391
  615MOL0     H84801   9.981   6.991   3.939  1.6577 -0.4907  1.6817
  615MOL0     H84802  10.058   6.907   4.149  1.0568  2.0711 -3.2489
  615MOL0     H84803   9.871   6.816   4.340  0.4332  1.0934  0.3384
  615MOL0     H84804  10.036   6.818   4.380  0.6117  0.8749 -3.7612
  615MOL0     H84805   9.859   6.582   4.461 -2.1869  3.1213 -2.6812
  615MOL0     H84806  10.016   6.616   4.525  0.2612 -1.4767 -2.6252
  615MOL0     H84807   9.907   6.846   4.605  0.1935 -0.4263  3.0234
  615MOL0     H84808   9.751   6.768   4.591 -0.1687 -0.1778 -2.8960
  615MOL0     H84809   9.834   6.595   4.768 -3.5470  1.4801 -1.4818
  615MOL0     H84810   9.993   6.663   4.749 -0.0879 -0.3445  0.0836
  615MOL0     H84811   9.741   6.744   4.899 -0.4051  1.0414  2.1241
  615MOL0     H84812   9.831   6.887   4.843  0.8696 -0.5153 -1.6124
  615MOL0     H84813   9.861   6.773   5.071  1.4463 -1.7067  2.2682
  615MOL0     H84814   9.977   6.671   4.989  0.6402 -0.0371  5.3503
  615MOL0     H84815  10.077   6.915   4.901  1.5694 -0.7633 -0.1467
  615MOL0     H84816  10.113   6.860   5.066  3.6481  1.7790 -2.3279
  615MOL0     H84817  10.019   7.110   5.024 -1.0143  0.6750  1.2013
  615MOL0     H84818   9.861   7.037   5.013  0.1171  1.3943 -0.6461
  615MOL0     H84819   9.730   7.097   5.201 -0.7451  1.7001  1.7540
  615MOL0     H84820   9.792   7.066   5.587 -1.1961 -2.0428 -0.7058
  615MOL0     H84821   9.646   7.049   5.489  0.2968 -2.4560  0.4948
  615MOL0     H84822   9.666   7.282   5.409 -0.9503  1.3675  0.4518
  615MOL0     H84823   9.637   7.262   5.581  2.6152 -0.2076  2.3876
  615MOL0     H84824   9.863   7.387   5.430  3.1444 -1.6687  0.3217
  615MOL0     H84825   9.771   7.437   5.567  0.3939 -0.4008  0.9467
  615MOL0     H84826   9.961   7.201   5.597 -0.6927  0.3134 -3.6640
  615MOL0     H84827   9.994   7.375   5.586 -2.9519  1.2771 -3.7179
  615MOL0     H84828   9.845   7.315   5.990 -1.5873  6.2824 -1.5627
  615MOL0     H84829   9.893   7.232   6.217  1.4112 -1.3882 -1.0978
  615MOL0     H84830   9.957   7.405   6.254  1.0597  1.0818 -2.2472
  615MOL0     H84831  10.049   7.247   6.282  1.4284 -0.0676 -2.0091
  615MOL0     H84832  10.446   7.349   6.401  1.6652  1.5821  1.3918
  615MOL0     H84833  10.660   7.342   6.519  0.8873 -1.0932  0.3825
  615MOL0     H84834  10.860   7.013   6.449  1.6192 -0.9361 -1.8299
  615MOL0     H84835  11.024   7.067   6.485 -0.0763 -1.6907 -2.1512
  615MOL0     H84836  10.967   7.157   6.685 -1.2331  1.2593  0.5912
  615MOL0     H84837  10.800   7.184   6.654 -1.1526  0.3836 -0.3280
  615MOL0     H84838  10.799   6.915   6.636  2.0416  0.0621 -1.8608
  615MOL0     H84839  10.804   6.960   6.802 -1.2455  0.2707 -1.5611
  615MOL0     H84840  11.055   6.956   6.784 -2.0367  0.8042 -0.1085
  615MOL0     H84841  11.031   6.872   6.635  0.4859 -0.2456 -0.4574
  615MOL0     H84842  10.956   6.781   6.920 -1.9796  1.7448 -0.3073
  615MOL0     H84843  10.876   6.712   6.782 -1.4698  3.1472  0.5778
  615MOL0     H84844  11.179   6.730   6.770  0.0762  1.1880  1.7759
  615MOL0     H84845  11.051   6.634   6.681  0.0535  2.6704 -0.1127
  615MOL0     H84846  11.026   6.472   6.839 -0.2824  0.6302  0.1671
  615MOL0     H84847  11.069   6.574   6.975 -0.3192  2.1496 -1.7062
  615MOL0     H84848  11.260   6.445   6.773 -0.0743  0.5919 -0.3836
  615MOL0     H84849  11.259   6.387   6.938 -0.8736 -1.1216 -0.5918
  615MOL0     H84850  10.819   7.088   6.217 -1.2848 -2.7313  0.7939
  615MOL0     H84851  10.608   7.116   6.089 -0.8884 -3.4341  1.1045
  615MOL0     H84852  10.325   7.326   5.897  0.1333 -0.6918 -0.0748
  615MOL0     H84853  10.169   7.337   5.715  1.7802 -0.9591 -0.2424
  615MOL0     H84854   9.869   6.523   4.076 -1.7424 -0.8319  0.0963
  615MOL0     H84855   9.769   6.611   3.866 -2.4602  1.7983  1.7589
  615MOL0     H84856   9.877   6.950   3.541 -0.4339 -1.3977  0.3304
  615MOL0     H84857   9.830   6.988   3.295  1.3527 -1.4209  1.2488
  615MOL0     H84858   9.737   7.108   3.100  0.3383 -0.2476 -0.1451
  615MOL0     H84859   9.734   6.933   3.062 -2.1826 -1.2787  0.9476
  615MOL0     H84860   9.651   7.048   2.869 -0.8008 -0.0066 -1.5630
  615MOL0     H84861   9.533   7.140   2.984  0.4736 -0.5745  0.1686
  615MOL0     H84862   9.504   6.847   2.941 -0.4737 -0.5702 -1.5744
  615MOL0     H84863   9.408   6.956   3.020 -0.2577 -0.4832  1.1965
  615MOL0     H84864   9.471   6.979   2.716  0.5406  2.6190 -0.7845
  615MOL0     H84865   9.346   7.068   2.796  1.3902  0.3685 -1.3187
  615MOL0     H84866   9.181   6.674   2.742 -0.0925 -0.9642  1.1870
  615MOL0     H84867   9.420   6.945   3.366  1.4264 -0.2267  0.2310
  615MOL0     H84868   9.414   6.783   3.672 -1.3259 -1.2941 -3.2068
  615MOL0     H84869   9.408   6.959   3.694 -3.7479 -0.5196  1.3310
  615MOL0     H84870   9.328   6.883   3.553  0.3160 -0.5186 -0.6060
  616MOL0     O84871   5.839   2.584   6.696  0.1082  0.5946  0.0516
  616MOL0     C84872   5.715   2.611   6.696 -0.2095 -0.3621  0.4287
  616MOL0     O84873   5.660   2.728   6.738  0.3883  0.2227  0.0055
  616MOL0     C84874   5.735   2.793   6.839  0.6478  0.1379  0.2848
  616MOL0     C84875   5.764   2.932   6.836  0.9495 -0.5501 -0.5531
  616MOL0     C84876   5.851   3.003   6.925 -0.2322 -0.2248 -0.3910
  616MOL0     C84877   5.915   2.924   7.017  0.6232  0.5605  1.1137
  616MOL0     O84878   5.997   2.969   7.115  0.1497 -0.5045  0.1009
  616MOL0     C84879   5.940   3.054   7.214  0.0912 -0.5396 -0.1204
  616MOL0     C84880   6.019   3.079   7.346  0.2001 -0.3018  0.1413
  616MOL0     C84881   6.160   3.103   7.307 -0.9391 -0.4160 -0.2964
  616MOL0     C84882   6.237   3.180   7.419 -0.1624  0.3800  0.3502
  616MOL0     C84883   6.337   3.292   7.384  0.0663  0.2335  1.1079
  616MOL0     C84884   6.471   3.243   7.358  0.0232  0.0279 -0.0341
  616MOL0     C84885   6.482   3.205   7.210  0.3490 -0.4738 -0.7768
  616MOL0     C84886   6.579   3.087   7.189  0.3162  0.1846 -0.4281
  616MOL0     N84887   6.528   2.953   7.222  0.0617  0.0842  0.1798
  616MOL0     C84888   6.446   2.877   7.146  0.1366 -0.3299 -0.2087
  616MOL0     C84889   6.431   2.760   7.215  0.7808  0.3326  0.1635
  616MOL0     C84890   6.335   2.653   7.176 -0.4399  0.2479 -1.0444
  616MOL0     C84891   6.188   2.689   7.196 -0.2894 -0.2066  0.0653
  616MOL0     C84892   6.136   2.705   7.343 -0.5062  0.0612 -0.0872
  616MOL0     C84893   6.143   2.583   7.430 -0.0627 -0.6284 -0.5911
  616MOL0     O84894   6.086   2.597   7.563  0.0722  0.0996  0.2037
  616MOL0     C84895   6.170   2.603   7.669  0.1970  0.3618 -0.3638
  616MOL0     C84896   6.127   2.531   7.774 -0.1941  0.6483  0.1611
  616MOL0     C84897   6.210   2.527   7.891  0.1703  0.1391 -1.3101
  616MOL0     C84898   6.186   2.422   8.004 -0.5734 -0.8574 -0.3692
  616MOL0     C84899   6.329   2.596   7.890 -0.4422 -0.4068  1.1840
  616MOL0     C84900   6.436   2.581   7.992  0.0375  0.6173 -0.7897
  616MOL0     O84901   6.497   2.695   8.033  0.2784  0.8462  0.1489
  616MOL0     C84902   6.540   2.709   8.166  0.1203  0.0791 -0.0478
  616MOL0     C84903   6.673   2.686   8.207 -0.7240  0.0707 -0.4919
  616MOL0     C84904   6.707   2.697   8.341  0.0506 -0.2725  0.0844
  616MOL0     C84905   6.611   2.741   8.444 -0.4399 -0.0846 -0.0862
  616MOL0     O84906   6.633   2.760   8.574 -0.9863 -0.3845  1.1825
  616MOL0     C84907   6.768   2.741   8.622  0.0245 -0.2079 -0.1005
  616MOL0     C84908   6.764   2.795   8.759 -0.0257 -0.0795  0.2962
  616MOL0     C84909   6.906   2.772   8.819  0.1275  0.1564 -0.2080
  616MOL0     C84910   7.009   2.883   8.820 -0.0874 -0.8268  1.1832
  616MOL0     C84911   7.134   2.837   8.902 -0.7166 -0.5387  0.2112
  616MOL0     C84912   7.225   2.955   8.936 -0.2639  0.0378 -0.0210
  616MOL0     C84913   7.184   3.016   9.068  0.4731  0.1528  1.0340
  616MOL0     C84914   7.236   2.945   9.188  0.2861  0.4297 -0.4844
  616MOL0    Cl84915   7.207   3.044   9.336 -0.0450  0.2965 -0.4584
  616MOL0     C84916   6.478   2.766   8.408  0.2287  0.0031  0.5434
  616MOL0     C84917   6.444   2.752   8.266 -1.1903 -0.1861 -0.0708
  616MOL0     O84918   6.475   2.472   8.010 -0.0021  0.8785  0.1114
  616MOL0     C84919   6.370   2.674   7.779 -0.6570  0.3437  0.2360
  616MOL0     C84920   6.287   2.683   7.667  0.3870  0.0796  0.5452
  616MOL0     N84921   6.501   2.771   7.340  0.1818 -0.8523  0.4597
  616MOL0     N84922   6.567   2.885   7.336  0.5276  0.5625 -0.6566
  616MOL0     C84923   5.884   2.795   7.028  0.5829  0.9882  0.1148
  616MOL0     C84924   5.790   2.729   6.945  0.3378 -0.1383 -0.9167
  616MOL0     C84925   5.617   2.523   6.634 -0.4060 -0.5932  0.7593
  616MOL0     C84926   5.492   2.575   6.584  0.3257  0.2007 -0.5310
  616MOL0     C84927   5.384   2.497   6.555  0.3520  0.3261  0.1724
  616MOL0     C84928   5.401   2.356   6.550 -0.2052 -0.1482 -0.3674
  616MOL0     O84929   5.297   2.282   6.507 -1.2343  0.3635 -0.1033
  616MOL0     C84930   5.301   2.138   6.537 -0.0698  0.0100  0.1099
  616MOL0     C84931   5.184   2.072   6.463 -0.1083 -0.1663  0.6942
  616MOL0     C84932   5.055   2.143   6.478  0.3056 -0.5285 -0.0708
  616MOL0     C84933   4.976   2.096   6.611 -0.1105 -0.9366  0.9475
  616MOL0     C84934   4.866   2.195   6.621  0.9674 -0.3411  0.1504
  616MOL0     C84935   4.758   2.260   6.618 -0.3003 -0.7992  0.1911
  616MOL0     C84936   5.526   2.304   6.588 -0.6482 -0.4242  0.4503
  616MOL0     C84937   5.641   2.386   6.624 -0.7271 -0.4866 -0.1431
  616MOL0     C84938   5.772   2.319   6.636 -0.8095 -0.1089  0.2728
  616MOL0     H84939   5.722   2.995   6.758  1.6384  0.9564  0.2432
  616MOL0     H84940   5.872   3.109   6.925 -0.5833 -0.1042  2.1607
  616MOL0     H84941   5.842   3.017   7.245  0.0023  0.7998  1.3638
  616MOL0     H84942   5.911   3.151   7.171 -2.1735 -1.0311  0.1644
  616MOL0     H84943   5.974   3.154   7.412 -3.0943 -2.8146  0.9529
  616MOL0     H84944   6.023   2.985   7.401  0.7167 -0.4330 -0.1168
  616MOL0     H84945   6.200   3.007   7.271 -1.5355 -0.3105 -1.2466
  616MOL0     H84946   6.153   3.167   7.219  0.5330 -1.3843 -1.1873
  616MOL0     H84947   6.165   3.218   7.493 -1.8233  0.9696 -1.4918
  616MOL0     H84948   6.291   3.115   7.489 -1.3578 -2.3488 -1.1181
  616MOL0     H84949   6.340   3.357   7.472  2.6722  0.6262  0.8101
  616MOL0     H84950   6.298   3.351   7.300 -1.2649 -3.5852 -1.1900
  616MOL0     H84951   6.544   3.323   7.379  0.2920  0.1068 -1.1694
  616MOL0     H84952   6.491   3.159   7.425  0.1673  0.5415  0.5771
  616MOL0     H84953   6.502   3.298   7.156 -0.0187  1.3445  1.9927
  616MOL0     H84954   6.385   3.174   7.170  0.2544 -0.0648 -0.8707
  616MOL0     H84955   6.601   3.089   7.082  0.3646 -2.2123 -0.5118
  616MOL0     H84956   6.678   3.098   7.234  0.7627  2.2007 -1.7962
  616MOL0     H84957   6.396   2.895   7.052  0.9563  3.1144 -0.1164
  616MOL0     H84958   6.370   2.575   7.244  0.9485  0.9532 -0.9203
  616MOL0     H84959   6.357   2.613   7.077  5.6654  1.6854 -0.6357
  616MOL0     H84960   6.175   2.783   7.142  2.0730 -0.9354 -1.9608
  616MOL0     H84961   6.116   2.614   7.162 -0.1796  0.3616 -1.5150
  616MOL0     H84962   6.202   2.781   7.386 -1.6521  0.5096  0.9258
  616MOL0     H84963   6.040   2.755   7.353  0.0098  1.3526 -1.2075
  616MOL0     H84964   6.094   2.498   7.382 -1.8128 -0.2392  0.4214
  616MOL0     H84965   6.248   2.555   7.445 -0.0233 -0.6212 -0.8516
  616MOL0     H84966   6.042   2.466   7.757 -0.4332  0.9560  0.1659
  616MOL0     H84967   6.080   2.393   8.006 -1.1170  0.8142 -1.9989
  616MOL0     H84968   6.233   2.461   8.095 -1.2102 -0.7378 -0.0850
  616MOL0     H84969   6.250   2.336   7.986 -2.0129 -2.9126  3.2457
  616MOL0     H84970   6.760   2.655   8.149  0.9105 -1.2835  2.4440
  616MOL0     H84971   6.806   2.663   8.370  0.4570  1.4839  0.8701
  616MOL0     H84972   6.779   2.632   8.626 -3.5367 -0.6523  1.3393
  616MOL0     H84973   6.837   2.797   8.559 -2.4428  0.3742 -2.4778
  616MOL0     H84974   6.712   2.891   8.760 -0.4351 -0.2940  0.2439
  616MOL0     H84975   6.695   2.750   8.832 -1.0948 -0.3901 -0.8569
  616MOL0     H84976   6.965   2.696   8.769  0.9329 -0.1356  1.1518
  616MOL0     H84977   6.890   2.748   8.924 -0.1147 -0.0097 -0.2808
  616MOL0     H84978   6.969   2.974   8.866  0.1054 -0.3923  0.4986
  616MOL0     H84979   7.028   2.916   8.717 -2.5714 -2.4832  0.0715
  616MOL0     H84980   7.110   2.797   9.000  2.2616  0.3185  1.3895
  616MOL0     H84981   7.192   2.768   8.840  2.7215  0.4502  2.0691
  616MOL0     H84982   7.220   3.023   8.850 -4.1919 -2.8771 -2.4258
  616MOL0     H84983   7.326   2.916   8.950 -0.5590 -0.4905  0.6926
  616MOL0     H84984   7.077   3.035   9.066  0.4879  0.7391 -2.6979
  616MOL0     H84985   7.216   3.120   9.068  0.0945  0.2884 -0.1636
  616MOL0     H84986   7.342   2.920   9.178 -0.1972 -2.8571  1.2239
  616MOL0     H84987   7.181   2.853   9.213  4.8476 -2.1633  1.2739
  616MOL0     H84988   6.412   2.803   8.486 -3.8418  0.1991 -2.6786
  616MOL0     H84989   6.343   2.772   8.232 -0.2404  1.4107 -2.1342
  616MOL0     H84990   6.465   2.725   7.783 -0.4635 -0.0591  2.6304
  616MOL0     H84991   6.313   2.749   7.585 -3.1287 -0.3152 -1.0769
  616MOL0     H84992   5.925   2.729   7.104 -2.2957 -0.6004  0.4380
  616MOL0     H84993   5.776   2.623   6.965  1.2126 -0.0249  0.4732
  616MOL0     H84994   5.485   2.682   6.597 -0.7098 -0.0873  1.8048
  616MOL0     H84995   5.284   2.527   6.527  1.5946  3.9179 -0.8754
  616MOL0     H84996   5.390   2.090   6.497 -0.4276 -0.4503 -0.1463
  616MOL0     H84997   5.286   2.132   6.645 -1.8017  4.1136  0.2922
  616MOL0     H84998   5.176   1.970   6.503  1.8352 -1.1122 -1.1226
  616MOL0     H84999   5.212   2.050   6.360 -0.3315  1.5855  0.2362
  616MOL0     H85000   5.078   2.250   6.479 -3.8442  0.5425 -0.6706
  616MOL0     H85001   4.987   2.133   6.394 -0.5017  2.3140  0.1441
  616MOL0     H85002   5.026   2.111   6.707  1.5318  0.5074 -0.0729
  616MOL0     H85003   4.924   2.000   6.605 -1.8670  0.0899 -2.9599
  616MOL0     H85004   4.673   2.325   6.612  0.7800  0.8789  1.9136
  616MOL0     H85005   5.548   2.197   6.595  1.1665 -0.2009 -0.9037
  616MOL0     H85006   5.829   2.341   6.545 -1.8751 -1.6321 -0.8167
  616MOL0     H85007   5.808   2.354   6.733 -0.2751  0.0366  0.0234
  616MOL0     H85008   5.765   2.210   6.635  2.5348 -0.4338 -0.4422
  617MOL0     O85009   2.078   0.513   4.435  0.0878 -0.5418 -0.9338
  617MOL0     C85010   2.029   0.532   4.326  0.3931 -0.0167 -1.1430
  617MOL0     O85011   2.087   0.587   4.223  0.3589  1.1136 -0.0997
  617MOL0     C85012   2.223   0.605   4.227  0.0078 -0.3344 -1.0233
  617MOL0     C85013   2.313   0.508   4.191  0.1498  0.0319  0.3876
  617MOL0     C85014   2.451   0.546   4.194  0.1196 -0.7682 -0.6212
  617MOL0     C85015   2.490   0.676   4.220 -0.4930  0.0724  0.2786
  617MOL0     O85016   2.623   0.704   4.203 -0.3048 -0.4975  0.2754
  617MOL0     C85017   2.652   0.835   4.168  0.6281 -0.1383  1.1155
  617MOL0     C85018   2.792   0.840   4.126 -0.2466 -0.0162 -0.0064
  617MOL0     C85019   2.887   0.834   4.243 -0.2486 -0.3625 -0.3503
  617MOL0     C85020   3.043   0.847   4.210 -0.5039 -0.3616  0.2323
  617MOL0     C85021   3.085   0.984   4.178  0.0133 -0.8288 -0.3748
  617MOL0     C85022   3.245   1.003   4.136 -0.0884 -0.4271 -0.1237
  617MOL0     C85023   3.301   1.133   4.207 -0.1638 -0.4360  0.3260
  617MOL0     C85024   3.295   1.243   4.099 -0.1565 -0.1242  1.1353
  617MOL0     N85025   3.347   1.374   4.136 -0.5592  0.9699  0.4033
  617MOL0     C85026   3.278   1.472   4.182  1.0103 -0.3949  0.4901
  617MOL0     C85027   3.363   1.574   4.212 -0.1150  0.3876 -0.7357
  617MOL0     C85028   3.332   1.705   4.282  0.4095 -0.2697  0.1294
  617MOL0     C85029   3.351   1.824   4.188 -0.3664 -1.0206  1.2467
  617MOL0     C85030   3.493   1.855   4.135  0.7131  0.3353 -0.2304
  617MOL0     C85031   3.510   1.992   4.056  0.5232 -0.8257 -0.6577
  617MOL0     O85032   3.456   2.112   4.115 -0.6744 -0.0141  0.1161
  617MOL0     C85033   3.478   2.229   4.052 -0.5061 -0.4784  0.3210
  617MOL0     C85034   3.550   2.249   3.932 -0.6004  0.0693  0.4807
  617MOL0     C85035   3.555   2.380   3.882 -0.8836 -0.2507 -0.6547
  617MOL0     C85036   3.618   2.403   3.748  0.3631  0.2094  0.0933
  617MOL0     C85037   3.518   2.490   3.963  0.4876  0.3639  0.6061
  617MOL0     C85038   3.559   2.635   3.943  0.4655  0.7541  0.0012
  617MOL0     O85039   3.685   2.669   3.885  0.5627  0.2552 -0.0965
  617MOL0     C85040   3.723   2.802   3.867  0.3087  0.0454  0.4242
  617MOL0     C85041   3.766   2.879   3.982  0.5115  0.1703  0.0252
  617MOL0     C85042   3.793   3.023   3.966  0.3039  0.4572 -0.0059
  617MOL0     C85043   3.792   3.081   3.838 -0.8244 -0.5506 -0.6910
  617MOL0     O85044   3.824   3.216   3.821 -0.1919 -0.5295  0.2327
  617MOL0     C85045   3.713   3.305   3.870 -0.3792  0.3088 -0.5249
  617MOL0     C85046   3.745   3.447   3.826  0.5232 -0.2631 -0.5024
  617MOL0     C85047   3.654   3.556   3.893  0.0840 -0.2136  0.1462
  617MOL0     C85048   3.501   3.526   3.877  0.2886 -0.2748 -0.3473
  617MOL0     C85049   3.415   3.635   3.932 -0.8606 -0.3931 -0.0821
  617MOL0     C85050   3.267   3.631   3.920 -0.1452  1.0842 -0.2668
  617MOL0     C85051   3.219   3.499   3.966 -0.2099  0.2348 -0.5608
  617MOL0     C85052   3.065   3.488   3.954  0.8837 -0.8354 -0.9768
  617MOL0    Cl85053   3.011   3.498   3.778  0.0090  0.3493  0.0561
  617MOL0     C85054   3.751   3.007   3.723  0.0105 -0.3747 -0.0835
  617MOL0     C85055   3.713   2.872   3.748  0.5764 -1.3082 -0.1707
  617MOL0     O85056   3.467   2.710   3.975 -0.0843  0.2040 -0.7044
  617MOL0     C85057   3.436   2.462   4.072  0.0580 -0.0008  0.0432
  617MOL0     C85058   3.412   2.332   4.107 -0.7396  0.4986  0.0913
  617MOL0     N85059   3.490   1.529   4.172 -0.1010  0.5407  0.3459
  617MOL0     N85060   3.480   1.408   4.117  0.3522  0.8035 -0.0982
  617MOL0     C85061   2.395   0.769   4.263 -0.0280  0.2358 -0.6764
  617MOL0     C85062   2.255   0.730   4.271 -0.4154 -0.4181 -0.0644
  617MOL0     C85063   1.885   0.517   4.322  0.0700  0.4686 -0.2057
  617MOL0     C85064   1.839   0.388   4.346 -0.2511 -0.1633  0.2263
  617MOL0     C85065   1.702   0.365   4.339 -0.5554  0.1613 -0.9027
  617MOL0     C85066   1.615   0.469   4.290 -0.3607  1.2500  0.0608
  617MOL0     O85067   1.476   0.441   4.308  0.8842 -0.3080  0.2129
  617MOL0     C85068   1.387   0.548   4.257  0.0384  0.0467 -0.5523
  617MOL0     C85069   1.243   0.489   4.252  0.0473 -0.2086  0.1842
  617MOL0     C85070   1.234   0.399   4.129 -0.6983  0.0681 -0.1559
  617MOL0     C85071   1.102   0.327   4.111 -0.5705 -0.1790  0.6246
  617MOL0     C85072   1.069   0.294   3.973  0.1734  0.5236 -0.0167
  617MOL0     C85073   1.035   0.242   3.867  0.0236  0.1025  0.2404
  617MOL0     C85074   1.663   0.592   4.260  0.1670 -0.1538  1.2955
  617MOL0     C85075   1.792   0.619   4.278 -0.9444  0.1575  0.2975
  617MOL0     C85076   1.831   0.763   4.239 -0.1937  0.8128  0.7338
  617MOL0     H85077   2.288   0.408   4.156 -2.8400  1.6872 -2.7412
  617MOL0     H85078   2.533   0.483   4.161 -0.0832 -2.8066  2.3871
  617MOL0     H85079   2.628   0.908   4.245 -1.0528  4.1357 -3.0068
  617MOL0     H85080   2.585   0.869   4.089  2.1264  2.2277  0.7557
  617MOL0     H85081   2.810   0.762   4.052 -0.8847 -1.1516  1.0085
  617MOL0     H85082   2.815   0.934   4.075  2.1627 -0.5963 -0.1096
  617MOL0     H85083   2.864   0.921   4.305 -3.5328  1.0421 -3.2655
  617MOL0     H85084   2.877   0.741   4.301  1.2296  0.0403  0.6189
  617MOL0     H85085   3.106   0.804   4.288 -1.0605 -2.3516 -0.3547
  617MOL0     H85086   3.059   0.789   4.118 -0.3525 -0.6519  0.4378
  617MOL0     H85087   3.070   1.041   4.271 -0.8541 -0.2102 -0.8783
  617MOL0     H85088   3.023   1.035   4.103 -0.5537 -2.7943 -1.2872
  617MOL0     H85089   3.307   0.918   4.164  0.5997  0.7596  2.1805
  617MOL0     H85090   3.239   1.010   4.027  1.4631 -0.3820 -0.2219
  617MOL0     H85091   3.404   1.109   4.232 -0.0233 -0.1525  0.0232
  617MOL0     H85092   3.246   1.159   4.299  2.7449 -1.6888  2.5665
  617MOL0     H85093   3.362   1.209   4.019  3.3619  1.1305  3.2776
  617MOL0     H85094   3.192   1.251   4.064  0.1127 -2.4239 -0.3274
  617MOL0     H85095   3.171   1.481   4.198  0.8354  0.4122 -0.9412
  617MOL0     H85096   3.382   1.710   4.379  0.7413  0.8294 -0.0863
  617MOL0     H85097   3.225   1.700   4.304 -0.0195  2.1679 -1.0794
  617MOL0     H85098   3.277   1.812   4.108  0.5599 -4.3227  0.7202
  617MOL0     H85099   3.326   1.908   4.254  1.3480 -0.0706  0.7383
  617MOL0     H85100   3.569   1.849   4.214  0.8500 -0.9027 -0.4446
  617MOL0     H85101   3.514   1.780   4.059  1.3662  2.4006 -2.2240
  617MOL0     H85102   3.617   2.015   4.066 -0.1262  1.5299  3.6560
  617MOL0     H85103   3.473   1.986   3.953  0.9418  2.0972 -1.0787
  617MOL0     H85104   3.606   2.177   3.873  2.0195  0.7211  1.9937
  617MOL0     H85105   3.624   2.505   3.711  4.2057  0.6658  1.4950
  617MOL0     H85106   3.567   2.338   3.677 -0.5729  0.4218  0.5542
  617MOL0     H85107   3.720   2.363   3.744 -0.6527 -2.4752 -1.8136
  617MOL0     H85108   3.767   2.828   4.078 -0.9636  0.6908  0.3346
  617MOL0     H85109   3.820   3.083   4.052  0.9240  0.6696 -0.3421
  617MOL0     H85110   3.620   3.268   3.826  0.2591 -0.2634 -1.4560
  617MOL0     H85111   3.709   3.299   3.979  2.3263  0.3772 -0.3387
  617MOL0     H85112   3.847   3.476   3.854  0.0558 -0.4575  1.5851
  617MOL0     H85113   3.737   3.448   3.717  1.0244 -2.8791 -0.6208
  617MOL0     H85114   3.674   3.643   3.828  2.1671  1.7296  3.1222
  617MOL0     H85115   3.700   3.576   3.990  1.2290  1.6365 -0.7169
  617MOL0     H85116   3.482   3.426   3.919 -0.3591 -0.2218 -0.5167
  617MOL0     H85117   3.478   3.516   3.771  0.5784  0.5700 -0.4934
  617MOL0     H85118   3.442   3.637   4.038  0.2408 -1.0969 -0.3389
  617MOL0     H85119   3.444   3.727   3.881 -0.6883  1.2963  2.7906
  617MOL0     H85120   3.227   3.639   3.818 -0.9566 -3.5093 -0.5426
  617MOL0     H85121   3.223   3.713   3.977 -0.0580  0.1255  1.2259
  617MOL0     H85122   3.261   3.496   4.067 -0.4043  0.9900 -0.4486
  617MOL0     H85123   3.262   3.409   3.920  2.0365 -0.2762  2.2386
  617MOL0     H85124   3.028   3.576   4.007 -0.7309 -0.7139 -2.2061
  617MOL0     H85125   3.016   3.400   3.998 -2.5243  1.9129  1.2626
  617MOL0     H85126   3.770   3.054   3.627  1.4155 -1.4433 -0.3656
  617MOL0     H85127   3.682   2.816   3.660 -0.8727 -0.0024 -0.5265
  617MOL0     H85128   3.375   2.536   4.123  1.5573  1.1460  0.2726
  617MOL0     H85129   3.328   2.315   4.174  1.2401  1.3675  3.0312
  617MOL0     H85130   2.412   0.876   4.265 -1.7838  0.5406 -0.1239
  617MOL0     H85131   2.175   0.799   4.294 -2.8720 -2.3829 -2.1695
  617MOL0     H85132   1.903   0.308   4.384 -2.7610 -1.7942  1.3363
  617MOL0     H85133   1.673   0.262   4.358  0.7840 -0.3062 -1.2364
  617MOL0     H85134   1.382   0.631   4.327  2.6217  0.6269 -0.9693
  617MOL0     H85135   1.414   0.591   4.160 -1.3974  0.4746 -0.7945
  617MOL0     H85136   1.162   0.563   4.256 -1.6713 -1.7884 -2.0870
  617MOL0     H85137   1.244   0.436   4.347 -0.1996 -1.6457 -0.5807
  617MOL0     H85138   1.253   0.467   4.045 -0.6018 -1.2526 -1.2421
  617MOL0     H85139   1.320   0.332   4.126  1.3165  2.5333 -0.7557
  617MOL0     H85140   1.024   0.401   4.129 -1.2134 -0.6124 -0.3256
  617MOL0     H85141   1.086   0.248   4.184  1.5009  1.0949  2.6023
  617MOL0     H85142   1.026   0.189   3.774  1.1984 -0.6155  0.5163
  617MOL0     H85143   1.599   0.676   4.237  0.6820 -0.1069 -0.0239
  617MOL0     H85144   1.933   0.769   4.279  0.3330 -2.2850  0.1270
  617MOL0     H85145   1.840   0.782   4.132  3.2178  1.2308  0.9907
  617MOL0     H85146   1.759   0.828   4.289 -1.9321  0.9801 -1.7989
  618MOL0     O85147  10.831   7.188   4.032 -0.0989 -0.0439 -0.1634
  618MOL0     C85148  10.837   7.230   4.146  0.0518 -0.5494 -0.6714
  618MOL0     O85149  10.734   7.311   4.195 -0.2984 -0.5339  0.5589
  618MOL0     C85150  10.616   7.320   4.123  0.3236  0.4059 -0.7465
  618MOL0     C85151  10.547   7.208   4.066  0.5881 -0.2376  0.5816
  618MOL0     C85152  10.431   7.225   3.992 -0.0201  0.4872 -0.1612
  618MOL0     C85153  10.387   7.353   3.955  0.0178  0.0501  0.8617
  618MOL0     O85154  10.270   7.350   3.878 -0.0213  0.1301  0.0931
  618MOL0     C85155  10.208   7.480   3.853 -0.1190  0.7136 -0.2742
  618MOL0     C85156  10.093   7.463   3.750 -0.6720 -0.7385  0.6220
  618MOL0     C85157   9.991   7.576   3.754  0.0866 -0.2205 -0.7560
  618MOL0     C85158   9.878   7.566   3.654 -0.5899 -0.6970  0.0746
  618MOL0     C85159   9.809   7.704   3.637  0.3160 -0.4670 -0.5523
  618MOL0     C85160   9.675   7.676   3.557  0.3088  1.1916 -0.2851
  618MOL0     C85161   9.620   7.803   3.490 -0.4815 -0.5885  0.5425
  618MOL0     C85162   9.497   7.780   3.398 -0.1029 -0.8777 -0.2144
  618MOL0     N85163   9.392   7.683   3.438  0.0203  0.0963  0.1860
  618MOL0     C85164   9.389   7.541   3.435 -0.6623 -0.3803  0.5071
  618MOL0     C85165   9.272   7.505   3.485 -0.1653 -0.8112 -0.2566
  618MOL0     C85166   9.214   7.367   3.493  0.6757  0.0824 -0.0586
  618MOL0     C85167   9.147   7.352   3.359 -0.0930  0.2771 -0.3648
  618MOL0     C85168   9.092   7.206   3.352 -0.2261 -0.3732 -0.4456
  618MOL0     C85169   9.060   7.169   3.207  0.0278 -0.1804  0.0176
  618MOL0     O85170   8.985   7.271   3.137  0.6717  0.2094  0.1811
  618MOL0     C85171   8.855   7.275   3.172  1.3935  0.3415  0.2315
  618MOL0     C85172   8.802   7.402   3.199 -0.5945 -0.0546 -0.0735
  618MOL0     C85173   8.667   7.414   3.235  0.0146 -0.3865 -0.1296
  618MOL0     C85174   8.624   7.563   3.245  0.3111  0.4778 -0.0087
  618MOL0     C85175   8.577   7.317   3.233  0.2551 -0.0382 -1.1611
  618MOL0     C85176   8.439   7.333   3.276 -0.3960 -0.5287  0.2573
  618MOL0     O85177   8.404   7.426   3.368 -0.3664 -0.4721  0.0098
  618MOL0     C85178   8.277   7.431   3.412  0.5140 -0.0900  0.5334
  618MOL0     C85179   8.245   7.420   3.544  0.4444 -0.4288 -0.6479
  618MOL0     C85180   8.113   7.432   3.587  0.1873 -0.0371  1.1063
  618MOL0     C85181   8.011   7.451   3.500  0.0501 -0.2802  0.3423
  618MOL0     O85182   7.892   7.443   3.556  0.4007  0.6265  0.0943
  618MOL0     C85183   7.787   7.530   3.525 -0.9073 -0.7680 -0.2171
  618MOL0     C85184   7.802   7.660   3.617 -0.5558  0.6397  0.5650
  618MOL0     C85185   7.714   7.646   3.727  0.6833  0.7008  0.0473
  618MOL0     C85186   7.781   7.586   3.847  0.0900  0.1192  0.8248
  618MOL0     C85187   7.695   7.502   3.942  0.6907 -0.2554  0.2986
  618MOL0     C85188   7.781   7.435   4.047  0.1651  0.1562 -0.5268
  618MOL0     C85189   7.841   7.552   4.138  0.2217  0.6966 -0.1009
  618MOL0     C85190   7.892   7.497   4.273  0.5850  0.1240  0.2282
  618MOL0    Cl85191   7.749   7.418   4.361 -0.5669 -0.2603 -0.2292
  618MOL0     C85192   8.032   7.452   3.361  0.3936  0.9108 -0.0798
  618MOL0     C85193   8.168   7.446   3.319 -0.4686  0.1367 -0.5279
  618MOL0     O85194   8.369   7.241   3.235  0.2592 -0.3965 -0.5303
  618MOL0     C85195   8.626   7.189   3.211  0.8640 -0.3672 -0.0155
  618MOL0     C85196   8.763   7.170   3.179  0.3737  0.0237  0.6928
  618MOL0     N85197   9.199   7.618   3.510  0.4778  0.3488 -1.1971
  618MOL0     N85198   9.271   7.721   3.483 -0.4455  0.0995  0.5895
  618MOL0     C85199  10.449   7.470   4.010 -0.1506 -0.2332  0.1461
  618MOL0     C85200  10.561   7.447   4.090 -0.6684 -0.2250 -0.0734
  618MOL0     C85201  10.965   7.206   4.219 -0.4602 -0.1752  0.3384
  618MOL0     C85202  11.089   7.200   4.153 -0.1554 -0.7940  1.0262
  618MOL0     C85203  11.203   7.181   4.222  0.0537  0.0949  0.0036
  618MOL0     C85204  11.202   7.173   4.369  0.2441  0.1378 -0.1202
  618MOL0     O85205  11.306   7.150   4.448  0.1359 -0.3580 -0.1402
  618MOL0     C85206  11.437   7.121   4.380  0.4225 -0.6240  0.8504
  618MOL0     C85207  11.542   7.131   4.488  0.2788  0.5850 -0.1480
  618MOL0     C85208  11.526   7.014   4.595  1.0172  0.3314  0.7297
  618MOL0     C85209  11.569   7.044   4.730 -0.9840 -0.4258  0.5561
  618MOL0     C85210  11.528   6.942   4.826 -0.5576 -0.3899  0.2840
  618MOL0     C85211  11.484   6.861   4.895 -0.1459  0.6761 -1.0309
  618MOL0     C85212  11.080   7.169   4.435 -0.5619  0.6854 -0.1866
  618MOL0     C85213  10.959   7.197   4.364 -0.1525  0.0655  0.7946
  618MOL0     C85214  10.828   7.207   4.445  0.0821  0.4466 -0.0254
  618MOL0     H85215  10.582   7.105   4.073  2.3732  0.2914  0.0634
  618MOL0     H85216  10.387   7.135   3.952  1.7280 -0.6563  0.3669
  618MOL0     H85217  10.281   7.541   3.799 -1.6531 -1.2778 -5.1451
  618MOL0     H85218  10.172   7.518   3.949 -2.2795 -3.1608  0.6566
  618MOL0     H85219  10.121   7.446   3.646  1.0080  0.1432  0.9061
  618MOL0     H85220  10.054   7.365   3.781 -1.6870 -0.3758  0.5469
  618MOL0     H85221   9.952   7.584   3.856 -0.1967  0.8662 -0.9427
  618MOL0     H85222  10.025   7.675   3.723 -2.9293  0.1811 -3.3850
  618MOL0     H85223   9.914   7.538   3.554  1.6321  0.3858  0.5183
  618MOL0     H85224   9.805   7.492   3.686 -1.3493 -0.3117 -0.7266
  618MOL0     H85225   9.866   7.784   3.589  1.6347 -1.4079 -0.5944
  618MOL0     H85226   9.779   7.748   3.733  2.9913  0.9434 -0.2743
  618MOL0     H85227   9.688   7.595   3.484  0.8851  2.3108 -1.4674
  618MOL0     H85228   9.586   7.653   3.617  0.7105  0.4671  0.0390
  618MOL0     H85229   9.700   7.834   3.422 -2.1840 -0.6319 -1.5907
  618MOL0     H85230   9.589   7.875   3.566  0.3725  0.1467  0.2101
  618MOL0     H85231   9.450   7.879   3.389  2.6481  0.4827 -0.5114
  618MOL0     H85232   9.540   7.764   3.298  0.7336 -1.7062  0.2645
  618MOL0     H85233   9.458   7.473   3.385 -1.3303 -0.5480 -0.2097
  618MOL0     H85234   9.144   7.354   3.577  2.1759 -0.7660  1.1100
  618MOL0     H85235   9.288   7.290   3.515  0.8927  0.0913 -0.7558
  618MOL0     H85236   9.069   7.427   3.349 -0.8721  0.5499  4.8187
  618MOL0     H85237   9.222   7.366   3.281  0.7607 -1.1018  0.1678
  618MOL0     H85238   9.163   7.135   3.394 -1.2552 -1.5425 -0.6319
  618MOL0     H85239   9.007   7.194   3.419 -1.0774  0.7211 -1.2837
  618MOL0     H85240   9.159   7.160   3.163  0.4292  1.4681  0.5011
  618MOL0     H85241   9.012   7.071   3.214 -1.8150  0.7459  1.7212
  618MOL0     H85242   8.871   7.485   3.208 -0.1865 -0.4230  0.2958
  618MOL0     H85243   8.549   7.580   3.167 -0.7011  1.3145  1.1221
  618MOL0     H85244   8.709   7.633   3.250  2.2500 -1.8089  1.2799
  618MOL0     H85245   8.579   7.589   3.341  1.3337 -2.1188  1.2627
  618MOL0     H85246   8.326   7.403   3.615  0.6909  1.4084 -0.4362
  618MOL0     H85247   8.088   7.438   3.693 -2.3100  1.4133  0.4955
  618MOL0     H85248   7.802   7.553   3.419  2.1372 -2.5579 -0.3001
  618MOL0     H85249   7.692   7.476   3.533 -1.0732 -0.1544  3.9645
  618MOL0     H85250   7.903   7.690   3.644  0.6662 -2.4942 -0.0645
  618MOL0     H85251   7.767   7.752   3.569 -1.3366  0.0667 -0.0011
  618MOL0     H85252   7.621   7.601   3.694  1.3077  1.2166 -2.6072
  618MOL0     H85253   7.699   7.752   3.750  3.1908  1.3423 -0.9451
  618MOL0     H85254   7.831   7.667   3.902 -0.5278 -0.0100  1.5918
  618MOL0     H85255   7.849   7.505   3.820 -0.1520 -0.6930  2.5436
  618MOL0     H85256   7.617   7.565   3.986  2.1660  2.9576 -1.4332
  618MOL0     H85257   7.640   7.435   3.875  0.9362  1.4316 -1.6917
  618MOL0     H85258   7.865   7.377   4.008 -0.0566  0.5246 -1.5950
  618MOL0     H85259   7.715   7.369   4.103  0.3094 -0.5391 -1.1693
  618MOL0     H85260   7.761   7.625   4.156 -2.6506 -1.8334 -1.6142
  618MOL0     H85261   7.925   7.607   4.094  0.8547 -1.5786 -1.9625
  618MOL0     H85262   7.932   7.575   4.338  2.3392 -1.2064  0.8133
  618MOL0     H85263   7.984   7.440   4.258 -0.2262 -1.0598 -0.3459
  618MOL0     H85264   7.944   7.459   3.298  0.1998  3.1556  0.3676
  618MOL0     H85265   8.194   7.454   3.213  0.1627  0.8296 -0.3270
  618MOL0     H85266   8.556   7.106   3.208  1.5291 -0.9989  1.0487
  618MOL0     H85267   8.783   7.074   3.131 -0.9981  1.5038 -3.2826
  618MOL0     H85268  10.408   7.567   3.985  0.1812  0.9059  3.4963
  618MOL0     H85269  10.628   7.522   4.132  0.7053 -0.9081 -0.9684
  618MOL0     H85270  11.081   7.196   4.045 -1.1400 -0.2041  1.0641
  618MOL0     H85271  11.294   7.155   4.168  0.2400 -3.1805  1.6407
  618MOL0     H85272  11.431   7.020   4.340 -2.4483  0.7320 -2.6024
  618MOL0     H85273  11.447   7.204   4.309 -2.8102  1.5935  2.7424
  618MOL0     H85274  11.553   7.233   4.527  2.5587 -0.2569  1.6513
  618MOL0     H85275  11.633   7.111   4.432  0.5324 -0.7403  0.6749
  618MOL0     H85276  11.418   7.000   4.593  0.5679  2.4324 -4.5795
  618MOL0     H85277  11.572   6.920   4.563 -0.7699 -0.4441  0.3540
  618MOL0     H85278  11.532   7.145   4.750  2.3928  1.8250 -2.9797
  618MOL0     H85279  11.679   7.045   4.734 -0.9978 -1.4948  1.7418
  618MOL0     H85280  11.436   6.786   4.955  2.8475 -1.7370 -1.3985
  618MOL0     H85281  11.067   7.150   4.542 -5.2980  0.7699 -0.5097
  618MOL0     H85282  10.834   7.196   4.554 -0.9495  0.0484  0.0025
  618MOL0     H85283  10.788   7.308   4.433  1.8862  1.0095 -1.8281
  618MOL0     H85284  10.761   7.130   4.408 -0.3079  1.0352 -0.5688
  619MOL0     O85285   6.173   9.100   6.240  0.0629 -0.3950 -0.4159
  619MOL0     C85286   6.054   9.079   6.212 -0.2316 -0.2835  0.6792
  619MOL0     O85287   5.995   8.956   6.201 -0.0108  0.3969 -0.4466
  619MOL0     C85288   6.067   8.841   6.191 -0.5473  0.4393  0.1952
  619MOL0     C85289   6.117   8.805   6.057 -0.7805 -1.8318  0.0411
  619MOL0     C85290   6.200   8.693   6.048 -0.3427 -0.2909  0.3477
  619MOL0     C85291   6.238   8.619   6.162 -1.0186 -0.0618  0.4415
  619MOL0     O85292   6.321   8.504   6.157  0.1124 -0.4057  0.0906
  619MOL0     C85293   6.378   8.454   6.038  0.2492  0.8119  1.0258
  619MOL0     C85294   6.500   8.363   6.073  1.2790  0.6987 -0.2280
  619MOL0     C85295   6.463   8.235   6.143  0.2214 -0.1241  0.3726
  619MOL0     C85296   6.587   8.160   6.169  0.3334  0.9235 -1.1602
  619MOL0     C85297   6.553   8.013   6.211  1.0227  0.1735 -0.2487
  619MOL0     C85298   6.683   7.919   6.213 -0.2538  0.9404 -0.0269
  619MOL0     C85299   6.744   7.900   6.070 -0.0248  0.5412 -0.1817
  619MOL0     C85300   6.880   7.852   6.066  0.4900 -0.4604  0.8953
  619MOL0     N85301   6.973   7.965   6.042  0.0202 -1.0733  0.5112
  619MOL0     C85302   7.007   8.069   6.127 -0.2047 -0.0416 -0.2329
  619MOL0     C85303   7.113   8.132   6.071  0.3023  0.2967  0.8634
  619MOL0     C85304   7.172   8.256   6.140 -0.1350  0.2438  0.0412
  619MOL0     C85305   7.222   8.346   6.028  0.6689  0.1868 -0.3490
  619MOL0     C85306   7.313   8.475   6.059  0.1760  0.4781  1.1758
  619MOL0     C85307   7.218   8.589   6.057 -1.3760  0.3931 -0.0742
  619MOL0     O85308   7.275   8.721   6.081  0.7617  0.0044 -0.7703
  619MOL0     C85309   7.192   8.824   6.057 -0.3745 -0.6393 -0.8279
  619MOL0     C85310   7.260   8.954   6.053 -0.3377  0.7396  0.0000
  619MOL0     C85311   7.192   9.077   6.039  0.4726 -0.4110  1.0141
  619MOL0     C85312   7.274   9.204   6.063 -0.9521  0.4206 -0.3814
  619MOL0     C85313   7.044   9.080   6.027  0.5294  1.0019  0.3594
  619MOL0     C85314   6.975   9.211   6.029  0.1999 -0.7612 -0.1036
  619MOL0     O85315   7.034   9.309   5.954  0.3632  0.4396 -0.1989
  619MOL0     C85316   6.978   9.430   5.969 -0.1813 -0.6819  0.5854
  619MOL0     C85317   6.891   9.475   5.865 -0.3918 -0.1988 -0.5221
  619MOL0     C85318   6.847   9.604   5.872  0.4321 -0.0872 -0.4747
  619MOL0     C85319   6.902   9.695   5.961  0.3295 -0.2530 -1.0563
  619MOL0     O85320   6.851   9.824   5.983 -0.6313 -0.2265 -0.2223
  619MOL0     C85321   6.742   9.871   5.905  0.1472 -0.1080 -0.6553
  619MOL0     C85322   6.729  10.020   5.918  0.5870  0.1375  0.2960
  619MOL0     C85323   6.720  10.045   6.070  0.1102  0.1695 -0.2319
  619MOL0     C85324   6.849  10.094   6.133  0.3085  1.0505  1.4949
  619MOL0     C85325   6.875  10.247   6.107 -0.4324  0.8309 -0.1444
  619MOL0     C85326   7.001  10.295   6.191  0.5434 -0.2256  1.1696
  619MOL0     C85327   7.014  10.446   6.174  0.2361  0.1678 -0.2020
  619MOL0     C85328   6.913  10.535   6.246 -1.0934 -0.4050  0.0936
  619MOL0    Cl85329   6.855  10.677   6.148  0.2839  0.2759 -0.3378
  619MOL0     C85330   6.992   9.650   6.063 -0.9304 -0.0636  0.3895
  619MOL0     C85331   7.030   9.515   6.061 -0.1578  0.1240  0.3100
  619MOL0     O85332   6.859   9.218   6.080 -0.3044 -0.4024 -0.2628
  619MOL0     C85333   6.989   8.956   6.021  0.7993  0.0172 -1.0277
  619MOL0     C85334   7.054   8.833   6.034  0.5160 -0.3593  0.1644
  619MOL0     N85335   7.150   8.058   5.958 -0.0586  0.2107  0.6627
  619MOL0     N85336   7.065   7.950   5.950  0.0919  0.4614  0.0163
  619MOL0     C85337   6.180   8.651   6.281 -0.3121 -0.5584  0.0826
  619MOL0     C85338   6.100   8.764   6.301  0.2072  0.8592  0.3477
  619MOL0     C85339   5.956   9.191   6.197  0.7394  0.2274  0.4519
  619MOL0     C85340   5.839   9.172   6.121  0.7200 -0.5481  0.0668
  619MOL0     C85341   5.756   9.273   6.087 -0.1783 -0.7122  0.2824
  619MOL0     C85342   5.772   9.405   6.145  0.4849 -0.6805 -0.9864
  619MOL0     O85343   5.697   9.512   6.122 -0.6443  0.9367 -0.1702
  619MOL0     C85344   5.561   9.476   6.104  0.3480 -0.0063  0.1034
  619MOL0     C85345   5.495   9.484   5.959  0.3268  0.3686 -0.4082
  619MOL0     C85346   5.475   9.626   5.903  0.0003  0.2881 -0.6006
  619MOL0     C85347   5.332   9.676   5.926 -0.8497 -0.0018  0.2767
  619MOL0     C85348   5.247   9.641   5.810  0.3559  0.3534 -0.5218
  619MOL0     C85349   5.161   9.621   5.718  0.1768 -0.4268 -0.7017
  619MOL0     C85350   5.891   9.427   6.218 -0.1209 -0.1215  0.5202
  619MOL0     C85351   5.986   9.322   6.237  0.3238  0.1665 -0.8739
  619MOL0     C85352   6.101   9.346   6.338 -0.0818 -0.6449 -0.5172
  619MOL0     H85353   6.095   8.869   5.972 -0.3432 -1.1770  0.4065
  619MOL0     H85354   6.232   8.661   5.950 -3.1552  1.2261 -1.1847
  619MOL0     H85355   6.400   8.534   5.967 -1.9187  0.7842  0.2473
  619MOL0     H85356   6.314   8.384   5.985  3.7636 -1.1790 -0.9365
  619MOL0     H85357   6.550   8.337   5.979 -1.5810  1.4940 -2.1127
  619MOL0     H85358   6.566   8.414   6.143  0.9113  3.4962 -1.7529
  619MOL0     H85359   6.414   8.256   6.239  0.5107 -0.6733  0.6435
  619MOL0     H85360   6.401   8.178   6.073 -1.0023 -0.5412  1.7454
  619MOL0     H85361   6.654   8.160   6.083  2.6258 -2.0709  0.4231
  619MOL0     H85362   6.645   8.208   6.247  0.7618 -0.2462 -0.7438
  619MOL0     H85363   6.478   7.968   6.145  0.2756 -0.2261  0.8401
  619MOL0     H85364   6.493   7.999   6.302  0.5242 -1.2144 -0.7485
  619MOL0     H85365   6.748   7.970   6.284  1.5994 -1.4021  0.0800
  619MOL0     H85366   6.661   7.817   6.249  2.7835  0.7890  1.7137
  619MOL0     H85367   6.741   7.991   6.010  2.5728 -0.2049 -1.5790
  619MOL0     H85368   6.682   7.823   6.023  2.2244 -2.0762  0.8324
  619MOL0     H85369   6.912   7.808   6.161  0.5499  2.2828  2.2695
  619MOL0     H85370   6.892   7.782   5.983  1.5791 -0.9749  1.4600
  619MOL0     H85371   6.947   8.072   6.217  1.8557  0.4007  1.2105
  619MOL0     H85372   7.252   8.226   6.208 -2.2106 -0.7731  2.1405
  619MOL0     H85373   7.103   8.310   6.205  1.3409  0.4372  1.4993
  619MOL0     H85374   7.281   8.291   5.955 -1.6030  0.1177 -2.2650
  619MOL0     H85375   7.125   8.370   5.982 -2.1547 -1.5124  4.0445
  619MOL0     H85376   7.370   8.471   6.152 -2.8178 -1.6336  3.1042
  619MOL0     H85377   7.383   8.487   5.976 -0.2383 -1.1798  0.5461
  619MOL0     H85378   7.180   8.586   5.954 -1.0976 -0.6288 -0.1509
  619MOL0     H85379   7.137   8.573   6.129 -1.3066  1.4015  0.2514
  619MOL0     H85380   7.368   8.952   6.062 -0.5476 -0.3207  5.1553
  619MOL0     H85381   7.374   9.188   6.106 -0.0195  3.4166 -1.1705
  619MOL0     H85382   7.225   9.281   6.123  1.2971  0.0969  2.0327
  619MOL0     H85383   7.298   9.243   5.964 -1.7156  0.6544 -0.4762
  619MOL0     H85384   6.872   9.417   5.776 -3.5331  0.5966 -0.4801
  619MOL0     H85385   6.791   9.642   5.788  2.2401 -0.5871 -1.9547
  619MOL0     H85386   6.762   9.854   5.799 -0.8162  1.7377 -1.1752
  619MOL0     H85387   6.658   9.813   5.943  2.1128 -1.3302  2.1840
  619MOL0     H85388   6.814  10.069   5.869  0.6922 -1.4193 -1.1841
  619MOL0     H85389   6.640  10.055   5.864 -0.1037 -1.5762  0.2670
  619MOL0     H85390   6.679   9.960   6.126 -0.1409 -0.8720 -1.9253
  619MOL0     H85391   6.646  10.123   6.089  2.2266  2.2691 -0.2418
  619MOL0     H85392   6.931  10.036   6.090  0.5920  1.1767  1.8647
  619MOL0     H85393   6.841  10.065   6.238 -1.1339  0.2907  1.2074
  619MOL0     H85394   6.897  10.266   6.002  0.9625 -0.6035 -0.1583
  619MOL0     H85395   6.785  10.307   6.121 -0.2022  1.1980 -0.2278
  619MOL0     H85396   7.088  10.257   6.137 -0.9624 -1.9698 -0.1855
  619MOL0     H85397   6.994  10.258   6.294  1.4462 -2.2610  0.5619
  619MOL0     H85398   7.014  10.476   6.069 -3.7364  2.4123  0.2396
  619MOL0     H85399   7.114  10.468   6.212 -0.5324 -0.7039  2.6059
  619MOL0     H85400   6.959  10.568   6.341 -2.1408 -1.7550  1.1015
  619MOL0     H85401   6.821  10.482   6.272 -1.7581  0.6778  0.0142
  619MOL0     H85402   7.023   9.724   6.136 -2.2551  0.4666  0.4521
  619MOL0     H85403   7.098   9.481   6.138  0.6269  0.4756 -0.2137
  619MOL0     H85404   6.881   8.958   6.006  0.3490  1.5610  1.7699
  619MOL0     H85405   7.000   8.739   6.032  0.1942 -0.1787 -1.7904
  619MOL0     H85406   6.209   8.589   6.365 -1.4730  0.5902  1.3812
  619MOL0     H85407   6.059   8.784   6.400 -2.3297  0.8198 -0.6461
  619MOL0     H85408   5.812   9.074   6.085 -0.8902 -0.7786  1.7389
  619MOL0     H85409   5.668   9.260   6.025  0.3596 -1.8060 -0.2739
  619MOL0     H85410   5.534   9.376   6.141 -2.8450  0.1161 -1.5334
  619MOL0     H85411   5.514   9.558   6.159 -1.5921  2.9135 -5.1882
  619MOL0     H85412   5.401   9.429   5.959 -1.1324  2.5295 -4.3125
  619MOL0     H85413   5.567   9.430   5.897 -0.7445 -0.2076 -1.1697
  619MOL0     H85414   5.559   9.685   5.943 -0.3758  1.9564 -2.1622
  619MOL0     H85415   5.509   9.625   5.799  1.9331  0.2705 -0.0260
  619MOL0     H85416   5.341   9.784   5.940  0.4488 -0.1237  0.4924
  619MOL0     H85417   5.302   9.640   6.024 -0.6987 -4.1440 -1.0014
  619MOL0     H85418   5.094   9.575   5.649 -0.6756 -0.3038  0.0237
  619MOL0     H85419   5.909   9.522   6.266  1.9389 -0.4292  0.4405
  619MOL0     H85420   6.106   9.280   6.425  0.9638  0.5280  0.3486
  619MOL0     H85421   6.201   9.350   6.295 -0.3102  1.3611 -0.9208
  619MOL0     H85422   6.076   9.444   6.379 -1.0074 -0.8621 -0.5325
  620MOL0     O85423   1.270   7.997   8.346 -0.0110  0.0070  0.3020
  620MOL0     C85424   1.178   8.071   8.329 -1.0921 -0.6084 -0.1875
  620MOL0     O85425   1.128   8.103   8.210  0.5597 -0.0492  0.3997
  620MOL0     C85426   1.200   8.052   8.102 -1.1598  0.1838 -0.6627
  620MOL0     C85427   1.142   7.975   8.001  1.2198 -0.3282  0.2285
  620MOL0     C85428   1.217   7.929   7.882 -0.0799 -0.1125 -0.1777
  620MOL0     C85429   1.354   7.955   7.869  0.5279 -0.5010 -0.6959
  620MOL0     O85430   1.433   7.910   7.775 -0.2062 -0.2847 -0.4353
  620MOL0     C85431   1.393   7.852   7.653  0.6611  0.1640  0.0221
  620MOL0     C85432   1.506   7.816   7.565  0.3563 -0.0297 -0.1024
  620MOL0     C85433   1.600   7.712   7.636 -0.1923 -0.0524  0.3086
  620MOL0     C85434   1.717   7.695   7.535  0.2505  0.5066 -0.4280
  620MOL0     C85435   1.674   7.670   7.386 -0.4588  0.0220 -0.6569
  620MOL0     C85436   1.679   7.791   7.300  0.5102  0.1074  1.1183
  620MOL0     C85437   1.655   7.751   7.154  0.1768  0.4054  0.3854
  620MOL0     C85438   1.498   7.740   7.111  0.1932  0.0155  0.4405
  620MOL0     N85439   1.425   7.857   7.150 -0.7115 -0.4946  0.3683
  620MOL0     C85440   1.444   7.990   7.124  0.2307  0.1029  0.1617
  620MOL0     C85441   1.364   8.055   7.212 -0.9186  0.6191  0.4867
  620MOL0     C85442   1.354   8.196   7.240 -0.8544 -0.2908 -0.3774
  620MOL0     C85443   1.490   8.259   7.253 -1.2802 -1.1352  0.0744
  620MOL0     C85444   1.588   8.198   7.360 -0.1442  0.2821  0.2703
  620MOL0     C85445   1.518   8.195   7.498 -0.1888 -0.7603  0.2678
  620MOL0     O85446   1.464   8.325   7.521 -0.4328 -0.6881 -0.8276
  620MOL0     C85447   1.339   8.340   7.565  0.3152  0.2741  0.2534
  620MOL0     C85448   1.286   8.277   7.677  1.2058 -0.1101 -0.3519
  620MOL0     C85449   1.151   8.300   7.715 -0.0298  0.3620  0.3239
  620MOL0     C85450   1.102   8.249   7.856  0.3576 -0.5656 -0.0355
  620MOL0     C85451   1.075   8.389   7.634 -0.2493  0.0194 -0.4838
  620MOL0     C85452   0.929   8.385   7.648  1.4150  0.0839 -0.1378
  620MOL0     O85453   0.863   8.500   7.608 -0.7199 -0.4542 -0.1131
  620MOL0     C85454   0.733   8.523   7.647 -0.3406 -0.8774  0.0063
  620MOL0     C85455   0.696   8.519   7.784 -0.6122 -0.0389  0.6009
  620MOL0     C85456   0.558   8.528   7.818  0.2533  0.8649 -0.4713
  620MOL0     C85457   0.454   8.564   7.723 -0.5672  0.8802  0.0018
  620MOL0     O85458   0.327   8.585   7.752 -0.2126 -0.1895 -0.3300
  620MOL0     C85459   0.260   8.495   7.842 -0.2345  1.1662 -0.6422
  620MOL0     C85460   0.197   8.372   7.770 -0.9623 -0.6677 -0.6135
  620MOL0     C85461   0.115   8.287   7.862 -0.0200  0.1157 -0.6472
  620MOL0     C85462  -0.021   8.345   7.907 -0.5134 -0.3959 -0.1220
  620MOL0     C85463  -0.117   8.250   7.984 -0.6623 -0.3018 -0.5078
  620MOL0     C85464  -0.046   8.196   8.114 -0.2442 -0.1737 -0.0168
  620MOL0     C85465  -0.134   8.095   8.194  0.6674  0.8171  0.4992
  620MOL0     C85466  -0.105   8.108   8.349  0.7138  0.0593 -0.3074
  620MOL0    Cl85467   0.065   8.136   8.370 -0.1106 -0.4738  0.0382
  620MOL0     C85468   0.501   8.561   7.593 -0.4633 -0.4446  0.0189
  620MOL0     C85469   0.632   8.542   7.546 -0.3026 -0.9356 -0.0832
  620MOL0     O85470   0.872   8.284   7.689  0.1980  0.3577  0.2659
  620MOL0     C85471   1.132   8.464   7.527 -0.1569 -0.3357 -0.0139
  620MOL0     C85472   1.266   8.437   7.494  0.3305  0.7201  0.1900
  620MOL0     N85473   1.299   7.960   7.285  0.5871 -0.1737 -0.5085
  620MOL0     N85474   1.338   7.840   7.252 -0.7693  0.4722 -0.0687
  620MOL0     C85475   1.412   8.035   7.976  0.1316 -0.1731 -0.8495
  620MOL0     C85476   1.343   8.080   8.090  0.5732  1.2951 -0.6514
  620MOL0     C85477   1.130   8.157   8.454  0.8672 -0.0348 -0.3162
  620MOL0     C85478   1.017   8.241   8.429 -0.3595  0.2975 -0.6535
  620MOL0     C85479   0.978   8.326   8.523  0.3602 -1.2903  0.6850
  620MOL0     C85480   1.027   8.322   8.655 -0.3505 -0.5829  1.0818
  620MOL0     O85481   0.980   8.393   8.758  0.7408 -0.4642  0.0670
  620MOL0     C85482   0.881   8.499   8.743  0.3625  0.7057 -0.0254
  620MOL0     C85483   0.948   8.621   8.691  0.5129  0.6106 -0.5225
  620MOL0     C85484   0.869   8.696   8.585 -0.2729  0.2907 -0.0098
  620MOL0     C85485   0.751   8.782   8.642  0.2431 -0.2472  0.3840
  620MOL0     C85486   0.612   8.710   8.643 -0.6656 -0.0316  0.9425
  620MOL0     C85487   0.502   8.665   8.637 -0.2069  0.0010  0.2766
  620MOL0     C85488   1.121   8.228   8.680  0.3120  0.2324 -0.5072
  620MOL0     C85489   1.181   8.150   8.588 -0.1572  0.2561 -0.2232
  620MOL0     C85490   1.292   8.065   8.630  0.2573  0.0941 -0.6698
  620MOL0     H85491   1.036   7.954   8.013  1.0280 -1.1046 -2.1714
  620MOL0     H85492   1.169   7.860   7.814 -0.1886  0.0353 -0.2514
  620MOL0     H85493   1.314   7.919   7.615  0.8713  2.2395  2.8851
  620MOL0     H85494   1.343   7.760   7.682 -4.4792  1.9621 -1.9321
  620MOL0     H85495   1.462   7.765   7.479  1.2532 -2.3071  0.7027
  620MOL0     H85496   1.561   7.906   7.534 -2.0235  0.4607 -3.4351
  620MOL0     H85497   1.622   7.745   7.738  1.3481 -1.7971  0.5923
  620MOL0     H85498   1.557   7.612   7.644 -0.2194 -0.3028 -2.1663
  620MOL0     H85499   1.782   7.782   7.534  2.6298 -1.1745 -0.5697
  620MOL0     H85500   1.785   7.619   7.575  2.6868  3.4379  1.3825
  620MOL0     H85501   1.588   7.605   7.369  0.1982 -1.0420 -0.0279
  620MOL0     H85502   1.748   7.601   7.344 -0.0827  1.1468 -1.9300
  620MOL0     H85503   1.613   7.869   7.339 -0.9289 -0.9181  0.8253
  620MOL0     H85504   1.777   7.840   7.305 -0.0622  1.3935  0.1796
  620MOL0     H85505   1.720   7.666   7.129  1.8295  1.5816  0.4827
  620MOL0     H85506   1.691   7.840   7.101 -3.6411  0.1458 -3.0952
  620MOL0     H85507   1.482   7.722   7.004 -3.4511 -3.1753  1.2681
  620MOL0     H85508   1.444   7.659   7.162  0.3022  1.1740  2.5005
  620MOL0     H85509   1.522   8.030   7.059  0.7141 -3.8806 -2.0268
  620MOL0     H85510   1.294   8.216   7.330 -1.2765 -0.1939 -0.6778
  620MOL0     H85511   1.310   8.254   7.158  0.2528  2.5621  0.9154
  620MOL0     H85512   1.540   8.254   7.156  1.5065  0.7379  1.2889
  620MOL0     H85513   1.483   8.366   7.276  1.4070 -1.3273  2.2508
  620MOL0     H85514   1.615   8.097   7.327  0.8714  0.8650 -0.7552
  620MOL0     H85515   1.680   8.252   7.382  1.0985 -0.6767 -2.1936
  620MOL0     H85516   1.445   8.117   7.478  0.5445 -1.8453  1.7027
  620MOL0     H85517   1.591   8.177   7.577  0.5963  2.3754  0.4123
  620MOL0     H85518   1.337   8.207   7.743  1.1027 -0.3876 -0.5662
  620MOL0     H85519   1.025   8.313   7.898  0.6935 -0.0787 -0.1507
  620MOL0     H85520   1.179   8.251   7.933  1.1028  1.0960 -0.7576
  620MOL0     H85521   1.066   8.146   7.849 -2.4901  0.1395  2.3037
  620MOL0     H85522   0.763   8.474   7.856 -0.2673 -1.0467 -0.3206
  620MOL0     H85523   0.530   8.518   7.923 -2.6585  4.6115 -0.7071
  620MOL0     H85524   0.326   8.459   7.922  0.1196  3.1521  0.0192
  620MOL0     H85525   0.171   8.543   7.882  0.3213  1.9699 -0.3278
  620MOL0     H85526   0.138   8.398   7.682 -4.5126  0.1050  1.7935
  620MOL0     H85527   0.271   8.300   7.734 -0.7580 -1.5817  1.4476
  620MOL0     H85528   0.172   8.279   7.955 -1.1506 -2.9617 -0.0961
  620MOL0     H85529   0.116   8.189   7.814  0.6012  0.4317 -1.3026
  620MOL0     H85530  -0.074   8.375   7.815 -0.6439  3.0564  0.9371
  620MOL0     H85531  -0.028   8.441   7.958 -3.1135  0.0751 -1.2112
  620MOL0     H85532  -0.200   8.313   8.018  0.6452  2.9326 -2.7635
  620MOL0     H85533  -0.154   8.169   7.921  1.3111 -2.3217  0.8022
  620MOL0     H85534  -0.017   8.280   8.177  2.7054 -1.6102  0.6975
  620MOL0     H85535   0.050   8.149   8.090 -1.4888 -2.2439 -1.2727
  620MOL0     H85536  -0.120   7.989   8.170  3.9249  1.7048 -2.2034
  620MOL0     H85537  -0.238   8.125   8.178 -0.2468 -1.6491  1.2602
  620MOL0     H85538  -0.132   8.024   8.414  1.0893 -0.7109 -1.1128
  620MOL0     H85539  -0.173   8.181   8.393 -1.6775 -2.1510 -0.0988
  620MOL0     H85540   0.429   8.588   7.516  0.5615 -3.0892 -2.0529
  620MOL0     H85541   0.656   8.538   7.440 -1.8514 -1.2113 -0.4571
  620MOL0     H85542   1.099   8.555   7.478  0.1339  1.1164  2.3064
  620MOL0     H85543   1.317   8.508   7.429  0.8215  2.6984  2.5986
  620MOL0     H85544   1.520   8.046   7.977 -0.0069  1.5262  0.6423
  620MOL0     H85545   1.392   8.129   8.174  3.3844 -0.8533 -0.8983
  620MOL0     H85546   0.957   8.225   8.339  0.8905 -1.1499 -1.2620
  620MOL0     H85547   0.895   8.393   8.505  1.6987  0.5336  1.1105
  620MOL0     H85548   0.796   8.472   8.679  1.1449 -3.4867  0.4617
  620MOL0     H85549   0.832   8.521   8.838 -1.3293 -2.0795 -0.1559
  620MOL0     H85550   1.046   8.594   8.650  0.7829  0.5867  0.1317
  620MOL0     H85551   0.964   8.700   8.765  0.6567 -1.3075  1.5814
  620MOL0     H85552   0.927   8.772   8.532 -0.3038  0.0572 -0.3895
  620MOL0     H85553   0.844   8.626   8.505  0.0928 -1.8938  1.6876
  620MOL0     H85554   0.747   8.882   8.597 -1.2052  1.0297  3.1344
  620MOL0     H85555   0.772   8.800   8.747  0.0450  0.1889  0.3541
  620MOL0     H85556   0.406   8.617   8.627  0.1306 -0.4186 -1.2108
  620MOL0     H85557   1.161   8.229   8.781 -1.7969 -0.7703  0.4114
  620MOL0     H85558   1.312   8.084   8.736  0.5260 -1.7366 -0.3535
  620MOL0     H85559   1.252   7.963   8.635 -1.2437  0.6580 -0.6135
  620MOL0     H85560   1.383   8.071   8.569  0.3860  2.3492 -0.3349
  621MOL0     O85561  11.201   6.641   3.393  0.4017 -0.0352  0.6022
  621MOL0     C85562  11.095   6.603   3.336  0.4032  0.1795 -0.2244
  621MOL0     O85563  11.026   6.683   3.246 -0.8688 -0.1825 -0.4438
  621MOL0     C85564  11.075   6.807   3.208 -0.5349 -0.1178 -0.3316
  621MOL0     C85565  10.999   6.926   3.243 -0.4225 -1.1276  0.5577
  621MOL0     C85566  11.045   7.054   3.201  1.2861 -0.4175 -0.4363
  621MOL0     C85567  11.148   7.068   3.108  0.5571  0.6537 -1.2672
  621MOL0     O85568  11.185   7.199   3.079  0.2264  0.5527 -0.3952
  621MOL0     C85569  11.110   7.251   2.966 -0.1310  0.1913 -0.1598
  621MOL0     C85570  11.120   7.398   2.971  0.0076 -0.2425  0.0049
  621MOL0     C85571  11.026   7.450   3.086  0.5047  1.0163  0.1557
  621MOL0     C85572  11.029   7.593   3.104 -0.5182  0.2317 -0.2505
  621MOL0     C85573  10.968   7.662   2.978 -0.1232 -0.0633 -0.4687
  621MOL0     C85574  10.952   7.816   3.001  1.0334  0.1056  0.1141
  621MOL0     C85575  10.818   7.860   3.067  0.4211  0.1392 -0.6595
  621MOL0     C85576  10.818   8.003   3.117  0.0354  0.7235 -0.1212
  621MOL0     N85577  10.689   8.043   3.168  0.4985  0.1990 -0.3235
  621MOL0     C85578  10.599   8.101   3.081  0.2897 -0.7983  1.0326
  621MOL0     C85579  10.517   8.176   3.159  0.4172 -0.2624 -0.8019
  621MOL0     C85580  10.400   8.263   3.124 -0.4133  0.4160  0.4290
  621MOL0     C85581  10.377   8.357   3.241 -1.1972  0.2309 -0.3191
  621MOL0     C85582  10.289   8.478   3.212 -0.8388  0.3045 -0.8848
  621MOL0     C85583  10.206   8.529   3.336 -0.6902 -0.5339 -0.4388
  621MOL0     O85584  10.276   8.621   3.422 -0.9150 -0.0860 -0.3192
  621MOL0     C85585  10.235   8.625   3.556  0.6240 -0.2370 -0.1077
  621MOL0     C85586  10.102   8.662   3.586  0.3409 -0.4794  0.5672
  621MOL0     C85587  10.059   8.668   3.721 -0.3599  0.7554 -0.3025
  621MOL0     C85588   9.905   8.685   3.753 -0.2420  0.7496  0.1986
  621MOL0     C85589  10.154   8.643   3.826  0.6239  0.2011 -0.3806
  621MOL0     C85590  10.126   8.630   3.971  1.0881 -0.9260 -0.9579
  621MOL0     O85591  10.211   8.560   4.051  0.3573 -0.6720 -0.1281
  621MOL0     C85592  10.212   8.591   4.185 -0.1968  0.4429  0.1094
  621MOL0     C85593  10.142   8.512   4.272  0.5173  0.0912 -0.5460
  621MOL0     C85594  10.134   8.548   4.405 -0.0788 -0.6440  0.4906
  621MOL0     C85595  10.182   8.673   4.453 -0.2151  1.1967 -1.1708
  621MOL0     O85596  10.136   8.702   4.585 -0.7165 -0.1438 -0.5793
  621MOL0     C85597  10.170   8.828   4.648 -0.4710 -0.7908 -1.2640
  621MOL0     C85598  10.302   8.813   4.735  0.0257  0.1784 -0.2593
  621MOL0     C85599  10.384   8.940   4.755  0.3937  0.7721  0.4713
  621MOL0     C85600  10.445   8.971   4.620 -0.3498  0.1381  0.1665
  621MOL0     C85601  10.548   9.085   4.635  0.6343  0.2119 -0.6686
  621MOL0     C85602  10.615   9.108   4.501 -0.6821 -0.6366 -0.7979
  621MOL0     C85603  10.731   9.210   4.521  0.4347 -0.3269 -0.3806
  621MOL0     C85604  10.836   9.174   4.417  0.6436 -0.1795  0.1406
  621MOL0    Cl85605  10.768   9.200   4.259  0.1670 -0.1258 -0.0188
  621MOL0     C85606  10.260   8.753   4.367  0.4861 -0.5184 -0.1608
  621MOL0     C85607  10.272   8.707   4.240  0.2351 -0.0429  0.3352
  621MOL0     O85608  10.021   8.672   4.018 -0.4874  0.3621 -0.0704
  621MOL0     C85609  10.283   8.611   3.792  0.1088 -0.9474  0.0656
  621MOL0     C85610  10.323   8.607   3.659  0.7345 -0.0838  0.2604
  621MOL0     N85611  10.575   8.168   3.290  0.8544 -0.5452  0.5986
  621MOL0     N85612  10.678   8.095   3.296 -0.0462  0.0336  0.7177
  621MOL0     C85613  11.221   6.947   3.073  0.6091  0.7839  1.1181
  621MOL0     C85614  11.187   6.825   3.115 -0.5402  1.0530 -0.6791
  621MOL0     C85615  11.024   6.480   3.382  0.1606  0.1587 -0.3643
  621MOL0     C85616  10.916   6.440   3.304  0.8202 -0.5639 -0.1676
  621MOL0     C85617  10.834   6.330   3.348  0.4443 -0.1137  0.6602
  621MOL0     C85618  10.870   6.249   3.459 -0.8711  0.7288  0.0438
  621MOL0     O85619  10.785   6.143   3.486  0.1962  0.3802 -0.2496
  621MOL0     C85620  10.794   6.093   3.627  0.2292  0.3218  0.4221
  621MOL0     C85621  10.700   6.181   3.705  1.3003 -0.2955 -0.3163
  621MOL0     C85622  10.701   6.141   3.860  0.2732 -0.5845  0.6273
  621MOL0     C85623  10.591   6.207   3.948 -0.9523 -0.9172  0.3923
  621MOL0     C85624  10.581   6.349   3.913 -0.2927 -0.3571 -0.2395
  621MOL0     C85625  10.558   6.463   3.877 -0.0060  0.7998 -0.1864
  621MOL0     C85626  10.981   6.285   3.527  0.0238  1.0482 -0.3213
  621MOL0     C85627  11.059   6.403   3.492  0.0230  0.4129 -0.2916
  621MOL0     C85628  11.189   6.437   3.579  0.2168 -0.0265 -0.2049
  621MOL0     H85629  10.916   6.900   3.309 -2.6936  2.3049 -0.6679
  621MOL0     H85630  11.000   7.146   3.236  0.0775 -0.2961 -2.1967
  621MOL0     H85631  11.006   7.219   2.950  0.0532 -0.6531  0.2810
  621MOL0     H85632  11.156   7.209   2.876 -0.0313 -0.9766  0.4186
  621MOL0     H85633  11.221   7.429   2.999 -1.3136  2.6917  2.0672
  621MOL0     H85634  11.088   7.443   2.877 -1.9302  1.3553  1.3375
  621MOL0     H85635  10.927   7.414   3.057  2.1054 -2.2037 -1.8657
  621MOL0     H85636  11.058   7.403   3.180  2.5480  0.7500 -0.6296
  621MOL0     H85637  10.973   7.613   3.195  0.8022 -3.5933  1.6060
  621MOL0     H85638  11.134   7.625   3.111 -0.7201  0.8081  0.2880
  621MOL0     H85639  10.872   7.617   2.953 -1.3686  2.1690 -0.0421
  621MOL0     H85640  11.037   7.640   2.896 -0.1318  1.4623 -0.9159
  621MOL0     H85641  11.028   7.853   3.070  2.2599 -0.6155 -0.8177
  621MOL0     H85642  10.964   7.861   2.902 -0.9028 -2.9356 -1.6445
  621MOL0     H85643  10.801   7.797   3.155 -2.3675  0.7598 -0.6562
  621MOL0     H85644  10.742   7.849   2.989 -0.1611 -1.8806  0.1451
  621MOL0     H85645  10.897   8.013   3.192  0.8457 -2.0043 -0.4904
  621MOL0     H85646  10.845   8.064   3.030 -1.1436  1.0309 -0.2967
  621MOL0     H85647  10.603   8.098   2.973  1.0357  2.6962  0.8690
  621MOL0     H85648  10.311   8.203   3.104  0.3362 -1.1034  1.5018
  621MOL0     H85649  10.429   8.325   3.038  0.6858 -1.9969 -1.0559
  621MOL0     H85650  10.332   8.302   3.324  1.4965  0.3755  1.3369
  621MOL0     H85651  10.466   8.404   3.284 -0.7938 -1.7851  1.1688
  621MOL0     H85652  10.354   8.562   3.182 -0.5143 -0.3631 -2.1423
  621MOL0     H85653  10.221   8.459   3.128 -0.5117 -3.5233 -0.4413
  621MOL0     H85654  10.128   8.592   3.292  1.6241  2.7665 -0.1507
  621MOL0     H85655  10.154   8.453   3.395 -0.1853  0.7577  1.7608
  621MOL0     H85656  10.030   8.675   3.506  0.8176 -1.3150  0.0002
  621MOL0     H85657   9.853   8.621   3.824  1.6354 -0.9716  0.1101
  621MOL0     H85658   9.849   8.676   3.659 -1.6435  2.2434  0.8475
  621MOL0     H85659   9.900   8.786   3.795  0.5462  1.0652 -0.4427
  621MOL0     H85660  10.092   8.419   4.250  2.1223 -1.2937  1.3494
  621MOL0     H85661  10.060   8.490   4.460 -2.4718 -0.7832 -2.5776
  621MOL0     H85662  10.184   8.913   4.581 -0.0571  2.5102  2.6451
  621MOL0     H85663  10.096   8.854   4.725  3.9879  0.9962  2.9461
  621MOL0     H85664  10.269   8.782   4.834 -1.6117  1.1135 -0.4829
  621MOL0     H85665  10.373   8.737   4.700  0.5803  0.5480  0.0434
  621MOL0     H85666  10.465   8.927   4.828 -0.9832 -1.0042  1.7868
  621MOL0     H85667  10.319   9.017   4.798  0.1391  2.0541 -2.0299
  621MOL0     H85668  10.372   9.003   4.546 -0.6838 -0.8058  0.0760
  621MOL0     H85669  10.495   8.879   4.587  1.2343  0.6067  1.1464
  621MOL0     H85670  10.492   9.177   4.657 -1.8164 -1.0133 -1.4950
  621MOL0     H85671  10.628   9.074   4.709 -1.4016  0.5079  1.6948
  621MOL0     H85672  10.545   9.151   4.428  2.7144  2.6855 -2.4444
  621MOL0     H85673  10.655   9.016   4.459  0.8969  0.8481 -2.7004
  621MOL0     H85674  10.796   9.194   4.607  2.5349  1.0058 -1.6218
  621MOL0     H85675  10.696   9.312   4.504  1.1631 -0.1516 -0.8633
  621MOL0     H85676  10.859   9.068   4.420 -2.2626 -0.8766  1.0031
  621MOL0     H85677  10.928   9.233   4.431 -0.8501  2.4253 -0.2845
  621MOL0     H85678  10.301   8.848   4.402  2.9485 -1.0811 -1.2810
  621MOL0     H85679  10.329   8.765   4.169 -1.0100 -0.2733 -0.8873
  621MOL0     H85680  10.359   8.588   3.866  2.4363  1.0408 -1.5502
  621MOL0     H85681  10.429   8.591   3.644  0.4150 -1.0342 -1.1244
  621MOL0     H85682  11.311   6.963   3.015  1.2618 -3.4024  0.6295
  621MOL0     H85683  11.229   6.731   3.080 -0.9098 -0.5671  2.7182
  621MOL0     H85684  10.887   6.494   3.214  1.2151 -0.2453 -0.1067
  621MOL0     H85685  10.745   6.306   3.290  1.7419  0.9771 -1.9374
  621MOL0     H85686  10.762   5.989   3.622  1.3997 -0.0118 -2.5973
  621MOL0     H85687  10.894   6.090   3.672 -0.1117 -0.8351  1.1376
  621MOL0     H85688  10.596   6.173   3.671  0.0648  3.3898  1.9824
  621MOL0     H85689  10.733   6.285   3.708  2.3085 -0.5490 -1.5624
  621MOL0     H85690  10.689   6.033   3.866  0.3771 -0.8159 -2.0638
  621MOL0     H85691  10.805   6.157   3.887  0.5636  2.5182 -1.6713
  621MOL0     H85692  10.611   6.194   4.055  2.7629  2.0382  0.2703
  621MOL0     H85693  10.498   6.160   3.914 -0.5225  0.6895 -3.5797
  621MOL0     H85694  10.522   6.560   3.848 -0.1058  0.8761  0.1994
  621MOL0     H85695  11.028   6.233   3.610 -0.9482 -0.5039 -0.6940
  621MOL0     H85696  11.282   6.439   3.521  0.6950  2.0956  0.5127
  621MOL0     H85697  11.174   6.531   3.634 -3.7837 -0.0719 -0.9090
  621MOL0     H85698  11.202   6.362   3.657 -1.2446 -1.0067 -0.8597
  622MOL0     O85699  10.149  10.195   4.236  0.6205  0.3731  0.0030
  622MOL0     C85700  10.054  10.275   4.254  0.0388 -0.7085  0.5208
  622MOL0     O85701   9.993  10.307   4.374  0.6855 -0.2313  0.3813
  622MOL0     C85702  10.051  10.270   4.493 -0.8437  0.5842  0.4581
  622MOL0     C85703   9.993  10.161   4.554 -0.4482 -0.0282  0.2436
  622MOL0     C85704  10.031  10.118   4.682 -0.6555 -0.2778 -0.0285
  622MOL0     C85705  10.152  10.153   4.738 -0.1285  0.0195 -0.3315
  622MOL0     O85706  10.179  10.098   4.861 -0.0426 -0.8582  0.1958
  622MOL0     C85707  10.280  10.154   4.939  1.3715  0.4499 -0.8648
  622MOL0     C85708  10.287  10.074   5.062 -0.1037  0.2922 -0.4807
  622MOL0     C85709  10.172  10.116   5.150 -0.8159  0.1664 -0.8973
  622MOL0     C85710  10.160  10.011   5.262 -1.2969  0.1542  0.7090
  622MOL0     C85711  10.074  10.079   5.376 -0.2398 -0.3668  1.2163
  622MOL0     C85712  10.044   9.984   5.493  0.1962 -0.2004  0.2562
  622MOL0     C85713   9.970  10.051   5.606 -0.3926 -0.0764  0.1306
  622MOL0     C85714  10.046  10.165   5.691  0.3318 -0.8502  0.4229
  622MOL0     N85715   9.957  10.207   5.795 -0.0251 -0.7986 -0.6883
  622MOL0     C85716   9.926  10.137   5.913  0.7181  0.1170  0.0185
  622MOL0     C85717   9.844  10.218   5.992 -0.1723 -1.2928 -0.9738
  622MOL0     C85718   9.808  10.190   6.135 -0.3880 -0.1231 -0.5114
  622MOL0     C85719   9.757  10.310   6.212 -0.5564 -0.5156 -0.0999
  622MOL0     C85720   9.774  10.287   6.362 -0.0669 -0.0677  0.3559
  622MOL0     C85721   9.680  10.181   6.414  0.3919 -0.0568  0.9331
  622MOL0     O85722   9.705  10.143   6.549  0.5492  0.4309  0.4233
  622MOL0     C85723   9.788  10.041   6.583 -0.0139 -0.2501 -0.0435
  622MOL0     C85724   9.862   9.966   6.491 -0.1628  0.0071 -0.3828
  622MOL0     C85725   9.935   9.854   6.527 -0.2582 -0.2721 -0.7449
  622MOL0     C85726   9.988   9.777   6.411  0.0139 -0.5242 -0.1118
  622MOL0     C85727   9.941   9.818   6.663 -0.3025  0.5226  0.3117
  622MOL0     C85728  10.017   9.701   6.726 -0.0413 -0.0903  0.2373
  622MOL0     O85729  10.032   9.716   6.861 -0.0186 -0.0046  0.5370
  622MOL0     C85730  10.034   9.603   6.940  0.1804 -0.3222 -0.5055
  622MOL0     C85731  10.163   9.548   6.951 -0.1507  0.3057 -0.3197
  622MOL0     C85732  10.183   9.438   7.040  0.3971  0.7749  0.2739
  622MOL0     C85733  10.089   9.379   7.105  0.2274  0.3443  0.6403
  622MOL0     O85734  10.140   9.271   7.170 -0.0141  0.7933 -0.4634
  622MOL0     C85735  10.053   9.217   7.263 -0.5115  0.1898  1.0688
  622MOL0     C85736  10.123   9.091   7.304 -0.5367 -0.9081 -0.4267
  622MOL0     C85737  10.033   8.999   7.381 -0.0392  0.5921 -1.4689
  622MOL0     C85738  10.115   8.879   7.450 -0.0076  0.6916 -0.6202
  622MOL0     C85739  10.030   8.808   7.553  0.5845  0.9770 -0.7905
  622MOL0     C85740  10.094   8.704   7.642  0.1858  0.5082  0.2689
  622MOL0     C85741   9.987   8.626   7.720  0.6237  1.2099 -1.1985
  622MOL0     C85742  10.044   8.510   7.807  0.8820 -0.6696 -0.0855
  622MOL0    Cl85743  10.132   8.381   7.720  0.0978  0.3519  0.3083
  622MOL0     C85744   9.975   9.443   7.106  0.0154  0.1533 -0.2023
  622MOL0     C85745   9.939   9.556   7.024 -0.2579 -1.0917 -0.5226
  622MOL0     O85746  10.037   9.601   6.655  0.3478 -0.4424  0.1793
  622MOL0     C85747   9.878   9.909   6.755  0.1082  0.8742 -0.1117
  622MOL0     C85748   9.804  10.018   6.720 -0.5274 -0.4176 -0.4732
  622MOL0     N85749   9.842  10.335   5.917  0.0714  0.0451  0.7201
  622MOL0     N85750   9.905  10.336   5.807  0.1582 -0.8189  0.3873
  622MOL0     C85751  10.231  10.241   4.650 -0.1058 -0.0389  0.1117
  622MOL0     C85752  10.180  10.299   4.527 -0.8430  0.1527 -0.6524
  622MOL0     C85753  10.025  10.348   4.139  0.5570  0.7800  1.3102
  622MOL0     C85754   9.893  10.351   4.101 -0.1525  0.3891  0.8607
  622MOL0     C85755   9.852  10.419   3.989 -0.1250 -1.0435  0.4240
  622MOL0     C85756   9.944  10.486   3.912  0.5125 -0.7713  0.2431
  622MOL0     O85757   9.918  10.556   3.797 -0.1956  0.9063 -0.2394
  622MOL0     C85758   9.812  10.657   3.792 -0.1509 -0.4812  0.5582
  622MOL0     C85759   9.875  10.783   3.850  1.1151 -0.1038 -0.4924
  622MOL0     C85760   9.761  10.883   3.880 -0.3194 -0.6610  0.4584
  622MOL0     C85761   9.821  10.998   3.966  0.4861 -0.1463  0.8659
  622MOL0     C85762   9.714  11.104   3.968 -0.9132  0.5136 -1.1095
  622MOL0     C85763   9.628  11.188   3.968 -0.6141 -0.0820  0.2743
  622MOL0     C85764  10.078  10.500   3.960 -0.0736  0.2863  0.2296
  622MOL0     C85765  10.114  10.435   4.076  0.2143  0.6036  0.1130
  622MOL0     C85766  10.255  10.444   4.131 -0.3257  0.2991  0.1294
  622MOL0     H85767   9.908  10.111   4.509  0.1984  0.9590 -2.2797
  622MOL0     H85768   9.975  10.045   4.741 -3.7298 -1.3517 -3.8173
  622MOL0     H85769  10.257  10.256   4.972  4.4142  0.9684 -0.0578
  622MOL0     H85770  10.374  10.162   4.885  0.8691  0.7364 -1.7109
  622MOL0     H85771  10.284   9.966   5.045  2.6103 -0.8106  4.1376
  622MOL0     H85772  10.381  10.108   5.107 -0.5760  0.2123  0.5880
  622MOL0     H85773  10.196  10.215   5.193  0.1841 -0.8002  0.9180
  622MOL0     H85774  10.085  10.112   5.084 -1.5063  0.6296 -0.0388
  622MOL0     H85775  10.105   9.927   5.218  0.2106  0.7054 -2.5137
  622MOL0     H85776  10.247   9.972   5.315 -1.8418  0.5663  1.9244
  622MOL0     H85777   9.975  10.109   5.339  0.1989  0.8359  0.9829
  622MOL0     H85778  10.128  10.166   5.415 -0.5432 -0.2206  1.3204
  622MOL0     H85779   9.996   9.894   5.455  0.7225 -1.3670  2.2107
  622MOL0     H85780  10.137   9.938   5.529 -0.3155 -0.5704  1.1185
  622MOL0     H85781   9.936   9.967   5.666 -2.2916  1.1285  0.8281
  622MOL0     H85782   9.882  10.089   5.553 -0.9346 -2.2435 -0.6294
  622MOL0     H85783  10.143  10.130   5.730  0.2664 -3.0258 -1.1502
  622MOL0     H85784  10.076  10.252   5.633  3.0205  0.6135  3.6678
  622MOL0     H85785   9.943  10.038   5.954  1.1068  1.4216  3.2960
  622MOL0     H85786   9.894  10.155   6.194 -2.2291 -3.1982  0.5600
  622MOL0     H85787   9.736  10.108   6.128 -1.3677  0.6458  0.3088
  622MOL0     H85788   9.822  10.397   6.197 -1.9544  0.7335  0.7193
  622MOL0     H85789   9.653  10.340   6.198 -0.3155  1.5854  1.9034
  622MOL0     H85790   9.879  10.277   6.393 -0.0372 -0.1411  0.2358
  622MOL0     H85791   9.753  10.381   6.413 -0.6304 -0.3845  0.7163
  622MOL0     H85792   9.581  10.228   6.412 -0.4210 -1.5125  3.2464
  622MOL0     H85793   9.675  10.093   6.350 -2.0312  1.6297 -1.4442
  622MOL0     H85794   9.842   9.974   6.385 -1.9341 -1.3792 -0.2116
  622MOL0     H85795   9.923   9.689   6.403 -0.3957 -0.2591  0.2796
  622MOL0     H85796  10.084   9.736   6.444 -0.3138  0.9960  3.0277
  622MOL0     H85797  10.003   9.838   6.321  1.1871 -0.5551  0.0446
  622MOL0     H85798  10.244   9.594   6.896  0.9784  1.4281  2.1262
  622MOL0     H85799  10.286   9.405   7.048  0.4104  1.0242  1.3525
  622MOL0     H85800  10.029   9.292   7.339 -1.3599  1.8766 -0.7745
  622MOL0     H85801   9.967   9.181   7.206  0.5999 -1.6457  0.4752
  622MOL0     H85802  10.165   9.038   7.217  3.7795  1.9103 -0.3663
  622MOL0     H85803  10.211   9.112   7.366 -1.6152 -0.0652  0.8730
  622MOL0     H85804   9.952   8.961   7.317 -0.3592  2.8910 -2.5273
  622MOL0     H85805   9.990   9.051   7.467  0.3736  1.2123 -1.6285
  622MOL0     H85806  10.211   8.906   7.494 -0.1461 -0.7526  0.6787
  622MOL0     H85807  10.127   8.810   7.365 -0.7313  2.0466 -1.8741
  622MOL0     H85808   9.990   8.880   7.625  0.6300  0.7121 -0.4958
  622MOL0     H85809   9.941   8.766   7.505  0.3952  1.7633 -1.1417
  622MOL0     H85810  10.163   8.747   7.715  0.9273 -1.9331  1.1239
  622MOL0     H85811  10.156   8.629   7.592  1.7224 -0.2834  3.1120
  622MOL0     H85812   9.917   8.572   7.655 -0.0651  2.2770 -1.3669
  622MOL0     H85813   9.933   8.699   7.780  1.4873  2.7444 -2.2046
  622MOL0     H85814   9.961   8.470   7.865  1.3857  1.9743  2.7012
  622MOL0     H85815  10.113   8.555   7.879 -1.8012  0.0746  2.2269
  622MOL0     H85816   9.898   9.414   7.176 -0.4084 -0.5741 -0.9458
  622MOL0     H85817   9.841   9.602   7.031 -0.0143 -0.6968  0.4542
  622MOL0     H85818   9.878   9.894   6.862 -2.1877  0.5861 -0.1069
  622MOL0     H85819   9.744  10.068   6.796  2.5672 -0.3116  2.1312
  622MOL0     H85820  10.334  10.264   4.676 -0.0918 -0.9223  0.9398
  622MOL0     H85821  10.229  10.364   4.455 -1.8216  0.9904 -0.5846
  622MOL0     H85822   9.826  10.291   4.161  1.3627 -4.4123 -1.7134
  622MOL0     H85823   9.753  10.414   3.946 -0.1841  1.1465  0.2068
  622MOL0     H85824   9.782  10.679   3.689 -0.0691 -1.6757  0.2609
  622MOL0     H85825   9.720  10.631   3.845 -1.3420  1.0322 -0.6571
  622MOL0     H85826   9.950  10.822   3.781  0.8037  0.2123 -0.6572
  622MOL0     H85827   9.922  10.756   3.945  1.7211  1.3732 -0.3589
  622MOL0     H85828   9.734  10.914   3.779  1.8258 -0.1777 -0.0267
  622MOL0     H85829   9.673  10.846   3.934 -2.6380  3.9382  0.2885
  622MOL0     H85830   9.911  11.025   3.910 -0.9753 -0.1324 -1.6379
  622MOL0     H85831   9.849  10.973   4.069 -3.8905  2.2599  2.9312
  622MOL0     H85832   9.555  11.266   3.975 -2.9755 -2.2514  1.7652
  622MOL0     H85833  10.157  10.555   3.910  0.7264  0.5980  1.7815
  622MOL0     H85834  10.260  10.448   4.240  0.1035  0.1613  0.1182
  622MOL0     H85835  10.307  10.349   4.115 -0.3198  0.3936 -0.4234
  622MOL0     H85836  10.318  10.523   4.090 -0.3159  1.3676  2.0949
  623MOL0     O85837   2.446   0.502   7.016 -0.0933 -0.0952  0.4092
  623MOL0     C85838   2.493   0.389   6.993  0.8833  0.7059 -0.4257
  623MOL0     O85839   2.541   0.341   6.877  0.1772  0.2919  0.1550
  623MOL0     C85840   2.580   0.421   6.769  0.1275  0.9400 -0.5367
  623MOL0     C85841   2.570   0.360   6.635  0.2798 -1.4951  0.2456
  623MOL0     C85842   2.610   0.431   6.520  0.0404  0.0789 -0.2214
  623MOL0     C85843   2.633   0.575   6.539 -0.1016  0.8332  0.4160
  623MOL0     O85844   2.631   0.653   6.426  0.7838 -0.2724 -0.6066
  623MOL0     C85845   2.585   0.786   6.436  0.1319  0.2057 -0.2805
  623MOL0     C85846   2.570   0.836   6.290 -0.0616 -0.2933 -1.1442
  623MOL0     C85847   2.437   0.788   6.228  0.1508  0.6380 -1.0501
  623MOL0     C85848   2.423   0.860   6.092 -0.2711 -0.4106  0.1669
  623MOL0     C85849   2.294   0.823   6.034 -0.2100  1.2942  0.4689
  623MOL0     C85850   2.264   0.886   5.905 -0.5255  0.0903  1.0211
  623MOL0     C85851   2.142   0.830   5.826 -0.1073  0.0859 -0.2494
  623MOL0     C85852   2.079   0.929   5.731  0.3351  0.2693 -0.1424
  623MOL0     N85853   2.165   0.965   5.615  0.7363  0.3640 -0.5243
  623MOL0     C85854   2.149   0.916   5.490  0.0636  0.1341  0.4985
  623MOL0     C85855   2.192   1.021   5.412 -0.4241 -0.8857 -0.1333
  623MOL0     C85856   2.193   1.033   5.262 -0.4043  0.2929 -0.1404
  623MOL0     C85857   2.058   1.078   5.200 -0.4254  0.2278 -0.7140
  623MOL0     C85858   1.938   1.028   5.273 -0.0159  0.8248  0.4800
  623MOL0     C85859   1.806   1.096   5.231  1.5594  0.3616  0.9733
  623MOL0     O85860   1.690   1.040   5.296  0.0923 -0.6834  0.3250
  623MOL0     C85861   1.610   0.946   5.244 -0.0929  0.4552 -0.8264
  623MOL0     C85862   1.660   0.839   5.167 -0.0745 -0.1620  0.4743
  623MOL0     C85863   1.576   0.742   5.125  1.0395 -0.1031  0.5327
  623MOL0     C85864   1.644   0.628   5.036 -0.4848  0.7590  0.5916
  623MOL0     C85865   1.437   0.751   5.151 -0.2738 -0.7950 -0.9306
  623MOL0     C85866   1.341   0.661   5.099  0.7048 -0.6882  0.5984
  623MOL0     O85867   1.258   0.603   5.192 -1.0759 -0.6506  0.4131
  623MOL0     C85868   1.161   0.508   5.167 -1.2520  0.5509 -0.0785
  623MOL0     C85869   1.171   0.412   5.068  0.1105  0.2090 -0.2329
  623MOL0     C85870   1.075   0.309   5.066  0.4308  0.1743 -0.0282
  623MOL0     C85871   0.964   0.307   5.143  0.1290  0.2094 -0.4542
  623MOL0     O85872   0.871   0.207   5.168  0.6818  0.7013  0.0292
  623MOL0     C85873   0.904   0.074   5.136 -0.3349  0.2140  0.0300
  623MOL0     C85874   0.813  -0.020   5.214  0.7379  0.2351 -1.0818
  623MOL0     C85875   0.858  -0.159   5.213 -0.6386 -0.3225 -0.4587
  623MOL0     C85876   0.832  -0.228   5.083  0.1161  0.0199  0.2807
  623MOL0     C85877   0.925  -0.346   5.064  0.6332 -0.1478  0.5361
  623MOL0     C85878   0.895  -0.425   4.937  0.8551 -0.4330 -0.6040
  623MOL0     C85879   0.986  -0.541   4.928 -0.2671  0.8503  0.3794
  623MOL0     C85880   0.940  -0.659   4.833 -0.1690 -0.3851 -0.1181
  623MOL0    Cl85881   0.889  -0.605   4.666 -0.3473 -0.2018  0.1864
  623MOL0     C85882   0.946   0.421   5.228 -0.6676 -0.3199  0.0921
  623MOL0     C85883   1.051   0.515   5.245  0.9473  1.1778  0.5696
  623MOL0     O85884   1.355   0.623   4.987 -0.6079 -0.1940  0.0091
  623MOL0     C85885   1.385   0.854   5.238 -0.5828  0.9050 -1.0572
  623MOL0     C85886   1.474   0.953   5.289 -0.3751 -0.0077  0.4002
  623MOL0     N85887   2.234   1.123   5.490 -0.1712 -0.5220 -0.7579
  623MOL0     N85888   2.216   1.093   5.611  0.0599 -0.1710  0.4557
  623MOL0     C85889   2.634   0.634   6.670 -0.2859  0.2485 -0.5782
  623MOL0     C85890   2.625   0.552   6.782 -0.2709 -0.1032 -0.6159
  623MOL0     C85891   2.486   0.298   7.109 -0.3565 -0.8072 -0.5675
  623MOL0     C85892   2.530   0.352   7.224  0.7137  0.9459 -0.7788
  623MOL0     C85893   2.550   0.276   7.337  0.1288 -0.1547 -0.0526
  623MOL0     C85894   2.514   0.142   7.338 -0.2738 -0.8665  1.0953
  623MOL0     O85895   2.547   0.087   7.458  0.6493  0.3680  0.2151
  623MOL0     C85896   2.522  -0.053   7.482 -0.2177 -0.0454 -0.6882
  623MOL0     C85897   2.658  -0.130   7.464 -0.2287  0.7309 -0.6206
  623MOL0     C85898   2.770  -0.079   7.553 -0.0940 -0.0553 -0.0732
  623MOL0     C85899   2.901  -0.155   7.532 -0.7437  0.4303  0.0862
  623MOL0     C85900   3.015  -0.078   7.590  0.1485  0.4749 -0.4500
  623MOL0     C85901   3.114  -0.018   7.641 -0.0854  0.3919  0.1442
  623MOL0     C85902   2.461   0.081   7.221 -0.2842  0.3841 -0.3308
  623MOL0     C85903   2.448   0.162   7.105 -0.0124  0.5181 -0.7562
  623MOL0     C85904   2.423   0.093   6.973 -0.4014  0.3606 -0.4029
  623MOL0     H85905   2.528   0.261   6.630  0.9544 -1.8644  1.4761
  623MOL0     H85906   2.613   0.379   6.425  0.7017 -2.9225  1.3184
  623MOL0     H85907   2.659   0.846   6.490  0.4002  1.2044 -1.6856
  623MOL0     H85908   2.490   0.797   6.489 -0.3412 -2.4754 -0.4391
  623MOL0     H85909   2.568   0.945   6.278 -2.1440 -0.5701 -4.9148
  623MOL0     H85910   2.659   0.806   6.233  0.1812 -2.0030  0.0532
  623MOL0     H85911   2.431   0.679   6.221 -3.1819  0.4469  1.9744
  623MOL0     H85912   2.354   0.837   6.281  1.4312 -0.2319  1.9103
  623MOL0     H85913   2.423   0.965   6.120  2.8764  0.0240 -1.1385
  623MOL0     H85914   2.510   0.831   6.032  1.6587  1.4544  1.8940
  623MOL0     H85915   2.222   0.861   6.108  0.7463  0.5012  1.8716
  623MOL0     H85916   2.285   0.714   6.032  2.0360  1.0718 -0.6630
  623MOL0     H85917   2.259   0.995   5.909 -1.3721  0.2027 -1.5185
  623MOL0     H85918   2.351   0.870   5.841 -2.1960 -1.8244 -0.9162
  623MOL0     H85919   2.073   0.793   5.902  2.0223  1.2583  2.4012
  623MOL0     H85920   2.165   0.744   5.763  1.7364 -0.1295  0.6608
  623MOL0     H85921   1.992   0.887   5.680  0.9779  0.5759 -1.5172
  623MOL0     H85922   2.043   1.021   5.779 -0.4980 -1.7732  3.5356
  623MOL0     H85923   2.102   0.825   5.455  0.3907 -0.1275  0.7282
  623MOL0     H85924   2.211   0.931   5.227  0.5890  0.8898 -1.4497
  623MOL0     H85925   2.277   1.096   5.231  0.2561 -0.2824  0.4635
  623MOL0     H85926   2.052   1.187   5.197 -1.8699  0.1779 -0.7269
  623MOL0     H85927   2.054   1.037   5.099  0.0912  0.3181 -0.7698
  623MOL0     H85928   1.932   0.919   5.262 -0.0027  1.0131 -1.6637
  623MOL0     H85929   1.947   1.036   5.382  2.8700  1.0157  0.3007
  623MOL0     H85930   1.820   1.203   5.250 -1.7002  1.3935 -1.4389
  623MOL0     H85931   1.788   1.096   5.123  3.4641  0.2878  0.6274
  623MOL0     H85932   1.761   0.850   5.130 -0.0170 -3.3456 -0.6369
  623MOL0     H85933   1.752   0.638   5.049 -0.4354  3.1036 -0.9782
  623MOL0     H85934   1.617   0.629   4.930  2.7300 -2.0057 -0.4374
  623MOL0     H85935   1.612   0.526   5.061 -1.7729  0.7957 -0.7311
  623MOL0     H85936   1.255   0.405   5.000  0.2994  1.9030 -0.2178
  623MOL0     H85937   1.094   0.221   5.006  1.1057  0.5703 -0.4086
  623MOL0     H85938   0.888   0.068   5.028 -0.7718 -2.2773  0.1696
  623MOL0     H85939   1.008   0.047   5.157 -0.5789  0.3432  1.5086
  623MOL0     H85940   0.812   0.004   5.321 -1.3216  0.6839 -1.1572
  623MOL0     H85941   0.711  -0.003   5.178 -0.1588  1.3536  1.7538
  623MOL0     H85942   0.802  -0.216   5.287  1.2657 -1.4090  0.2193
  623MOL0     H85943   0.965  -0.154   5.234 -0.5453  0.1312 -1.0210
  623MOL0     H85944   0.862  -0.156   5.005 -1.2917  1.1606  0.7396
  623MOL0     H85945   0.725  -0.252   5.081  0.5155 -2.1871  1.8128
  623MOL0     H85946   1.029  -0.312   5.076  1.0814 -1.7933  1.7924
  623MOL0     H85947   0.918  -0.414   5.150  2.2143 -3.4019 -1.6707
  623MOL0     H85948   0.904  -0.366   4.845 -0.3309 -0.2413 -0.6114
  623MOL0     H85949   0.792  -0.458   4.954 -0.3230  3.0817 -0.1118
  623MOL0     H85950   1.030  -0.574   5.023  1.7782  2.8443  0.2337
  623MOL0     H85951   1.074  -0.502   4.875  0.5661 -1.5274 -0.1350
  623MOL0     H85952   0.863  -0.716   4.886 -0.7380  1.1071  0.7274
  623MOL0     H85953   1.018  -0.734   4.818 -0.8324 -0.8206 -1.6241
  623MOL0     H85954   0.858   0.426   5.292  1.0017 -0.7087  2.5282
  623MOL0     H85955   1.043   0.605   5.305  0.6863  1.5337  0.0083
  623MOL0     H85956   1.278   0.870   5.250 -0.4597  1.0838 -0.1196
  623MOL0     H85957   1.442   1.032   5.356  0.2356  0.1280  0.5302
  623MOL0     H85958   2.664   0.737   6.685 -2.0780  1.0727 -2.1398
  623MOL0     H85959   2.647   0.594   6.879  1.9984  2.9290 -2.2688
  623MOL0     H85960   2.562   0.455   7.239 -0.2843  1.0258  1.0543
  623MOL0     H85961   2.593   0.324   7.424 -0.8876 -2.5075  1.8608
  623MOL0     H85962   2.486  -0.052   7.586 -0.4136  1.5432 -0.7380
  623MOL0     H85963   2.436  -0.093   7.428  0.0607  1.1787 -2.0919
  623MOL0     H85964   2.694  -0.122   7.361  2.5264 -1.7592  0.0051
  623MOL0     H85965   2.640  -0.236   7.485 -2.2537  1.4636  1.7248
  623MOL0     H85966   2.784   0.029   7.546 -1.9156  0.4246  2.1972
  623MOL0     H85967   2.745  -0.092   7.659 -2.2903  1.9236 -0.2673
  623MOL0     H85968   2.926  -0.161   7.426  2.0227  1.7350  0.5714
  623MOL0     H85969   2.891  -0.249   7.586 -2.3207 -0.2590 -1.3263
  623MOL0     H85970   3.199   0.026   7.688  0.9211 -0.4776 -0.8292
  623MOL0     H85971   2.432  -0.023   7.208 -0.1035  0.0290  1.8522
  623MOL0     H85972   2.366   0.000   6.980 -0.4394  0.2787 -1.5771
  623MOL0     H85973   2.362   0.155   6.906 -1.3847 -2.8329 -2.7155
  623MOL0     H85974   2.518   0.072   6.924  0.3339  2.2477  0.1285
  624MOL0     O85975   9.488   1.912   6.906  0.1618 -0.3875 -0.4323
  624MOL0     C85976   9.369   1.919   6.938 -0.2244 -0.1560 -0.0006
  624MOL0     O85977   9.261   1.889   6.854  0.4622 -0.2167 -0.3873
  624MOL0     C85978   9.281   1.839   6.725 -0.6642 -0.9267  0.7880
  624MOL0     C85979   9.216   1.895   6.613 -0.0311 -0.1144  0.3507
  624MOL0     C85980   9.245   1.851   6.478 -0.1689  0.0034 -0.1608
  624MOL0     C85981   9.337   1.750   6.459  0.0514 -0.4301  0.3485
  624MOL0     O85982   9.392   1.735   6.334  0.0364  0.2115 -0.1366
  624MOL0     C85983   9.382   1.609   6.272 -0.5922  0.7240 -0.2663
  624MOL0     C85984   9.502   1.594   6.184  0.0147  0.2144 -1.0309
  624MOL0     C85985   9.506   1.450   6.133  0.3868 -0.9701 -0.4432
  624MOL0     C85986   9.632   1.416   6.051 -0.2103  0.9620  0.4545
  624MOL0     C85987   9.658   1.268   6.043  0.3137 -0.0294 -0.1811
  624MOL0     C85988   9.552   1.186   5.970 -0.0081  0.1841 -0.5351
  624MOL0     C85989   9.608   1.099   5.872 -1.1249  0.7007  0.4112
  624MOL0     C85990   9.636   0.956   5.915 -0.2616  0.0109 -0.3043
  624MOL0     N85991   9.756   0.951   5.992  0.7962  0.2208  0.2989
  624MOL0     C85992   9.888   0.914   5.957  0.0033  0.5386  1.4773
  624MOL0     C85993   9.963   0.911   6.073 -0.3541 -0.4805 -0.8591
  624MOL0     C85994  10.110   0.876   6.083  0.2108 -0.1706 -0.1901
  624MOL0     C85995  10.200   0.940   5.983  0.2794 -0.3684  0.5749
  624MOL0     C85996  10.345   0.970   6.029  0.8008 -0.0105  0.0952
  624MOL0     C85997  10.354   1.098   6.109 -0.3922  0.0970 -1.3168
  624MOL0     O85998  10.303   1.107   6.241 -0.1402 -0.1002 -0.1607
  624MOL0     C85999  10.333   1.223   6.311 -0.0424 -0.0581  0.0838
  624MOL0     C86000  10.410   1.336   6.269  0.4043  0.0122 -0.9526
  624MOL0     C86001  10.436   1.440   6.355  0.4005 -0.6329 -0.0332
  624MOL0     C86002  10.521   1.554   6.304 -0.5593  0.1575 -0.5302
  624MOL0     C86003  10.377   1.441   6.483  0.3088  0.5490 -1.1697
  624MOL0     C86004  10.379   1.559   6.586 -0.2727 -0.2037 -0.7875
  624MOL0     O86005  10.318   1.534   6.706  0.2676  0.4677  0.5610
  624MOL0     C86006  10.297   1.646   6.794  0.0685 -0.0540  1.0171
  624MOL0     C86007  10.249   1.763   6.744  1.0470 -0.2143 -0.4264
  624MOL0     C86008  10.229   1.871   6.830  1.0932  0.9290 -0.1148
  624MOL0     C86009  10.258   1.854   6.967  1.4679 -0.0433  0.4243
  624MOL0     O86010  10.248   1.950   7.057  1.0861  0.2591  0.2924
  624MOL0     C86011  10.244   2.085   7.010  0.3288  0.1955 -0.0593
  624MOL0     C86012  10.225   2.194   7.116  0.2049  0.4619 -0.2801
  624MOL0     C86013  10.070   2.219   7.140 -0.9193 -0.1879  0.1025
  624MOL0     C86014  10.055   2.342   7.234 -0.0157  0.2249 -0.2618
  624MOL0     C86015   9.916   2.365   7.276 -0.2153  0.4913 -0.2367
  624MOL0     C86016   9.900   2.475   7.376 -0.2408 -0.4198 -0.3251
  624MOL0     C86017   9.935   2.438   7.517  0.1555 -0.2046 -0.2206
  624MOL0     C86018   9.845   2.516   7.624 -0.3860  0.3843  0.6437
  624MOL0    Cl86019   9.888   2.685   7.613  0.5027  0.4454  0.1628
  624MOL0     C86020  10.290   1.725   7.018 -0.2246 -0.4342  1.4992
  624MOL0     C86021  10.311   1.626   6.932 -0.4810  0.3013  0.4484
  624MOL0     O86022  10.438   1.659   6.557 -0.6900  0.3977 -0.1225
  624MOL0     C86023  10.300   1.326   6.518  0.1877  0.0808  0.1630
  624MOL0     C86024  10.277   1.224   6.431  0.3873 -0.4821 -1.2011
  624MOL0     N86025   9.880   0.953   6.177  0.0459  0.0110 -0.4740
  624MOL0     N86026   9.758   0.966   6.131  0.9063  0.9134 -0.0662
  624MOL0     C86027   9.395   1.692   6.571 -1.5901 -0.5831  0.1585
  624MOL0     C86028   9.370   1.733   6.699 -0.4344 -0.5620  0.0629
  624MOL0     C86029   9.328   1.977   7.068 -0.8438 -0.4261  0.5378
  624MOL0     C86030   9.201   1.948   7.111  0.8536 -0.5614  0.2660
  624MOL0     C86031   9.153   2.008   7.228 -0.1656  0.0074 -0.0539
  624MOL0     C86032   9.233   2.085   7.315  0.5053  0.0242 -0.4214
  624MOL0     O86033   9.201   2.117   7.446 -0.4605 -0.4719  0.7216
  624MOL0     C86034   9.145   2.249   7.456  0.0890 -0.1281  0.8141
  624MOL0     C86035   9.237   2.360   7.462  0.2617  0.0457  0.1934
  624MOL0     C86036   9.349   2.345   7.563  0.2398  0.0695 -0.2450
  624MOL0     C86037   9.296   2.347   7.712  0.3794 -0.8197  0.5038
  624MOL0     C86038   9.402   2.343   7.809  0.5955 -0.6169 -0.8716
  624MOL0     C86039   9.495   2.336   7.891  0.6542  0.0995  1.1858
  624MOL0     C86040   9.371   2.097   7.281  0.1449  0.2169  0.0070
  624MOL0     C86041   9.419   2.062   7.149  0.5084 -0.6068 -0.7371
  624MOL0     C86042   9.566   2.100   7.112 -0.4902  0.0114  0.1000
  624MOL0     H86043   9.144   1.976   6.621  1.5491  1.3688  0.1062
  624MOL0     H86044   9.203   1.899   6.390 -0.8017  2.1490  1.2355
  624MOL0     H86045   9.291   1.598   6.213 -0.7025 -0.2161  0.0487
  624MOL0     H86046   9.382   1.526   6.344  0.1956  0.2853 -0.7488
  624MOL0     H86047   9.499   1.666   6.101  0.5492  2.1085  0.5231
  624MOL0     H86048   9.598   1.620   6.230 -0.1750 -0.1526 -0.4304
  624MOL0     H86049   9.502   1.374   6.211 -0.9933 -1.9572 -1.4244
  624MOL0     H86050   9.421   1.437   6.065  0.4368 -3.9191 -0.0851
  624MOL0     H86051   9.610   1.467   5.956  0.1738  1.5614  0.6855
  624MOL0     H86052   9.720   1.468   6.089  0.3157  1.4619 -1.3246
  624MOL0     H86053   9.669   1.215   6.139 -2.1856 -2.1527 -0.9514
  624MOL0     H86054   9.756   1.273   5.995  1.2850 -1.6703  1.4934
  624MOL0     H86055   9.500   1.129   6.047  1.5553  0.1385  0.5401
  624MOL0     H86056   9.484   1.258   5.925  0.6421 -0.5053 -2.7684
  624MOL0     H86057   9.698   1.148   5.835 -1.0714  0.8772  0.7667
  624MOL0     H86058   9.538   1.085   5.789  0.2378  0.6788 -0.7764
  624MOL0     H86059   9.553   0.912   5.972 -0.6118 -1.0643 -1.5978
  624MOL0     H86060   9.655   0.893   5.828  2.5023 -1.0627  0.9634
  624MOL0     H86061   9.922   0.879   5.861 -3.1231  1.5239 -0.1120
  624MOL0     H86062  10.119   0.767   6.073 -1.5900 -0.4547  0.8042
  624MOL0     H86063  10.135   0.901   6.186  2.2208 -5.9841  1.1701
  624MOL0     H86064  10.213   0.866   5.903  0.5114  0.2157  0.0582
  624MOL0     H86065  10.153   1.031   5.944 -1.1744 -0.1748  2.6626
  624MOL0     H86066  10.377   0.875   6.072  2.3170 -0.1553 -1.2967
  624MOL0     H86067  10.410   0.974   5.941  1.1927 -0.3681  0.3654
  624MOL0     H86068  10.463   1.110   6.099  0.2188 -4.3193 -2.2328
  624MOL0     H86069  10.300   1.170   6.048 -1.4674 -3.3148 -4.8031
  624MOL0     H86070  10.459   1.349   6.173  1.1821 -0.5036 -0.6394
  624MOL0     H86071  10.454   1.640   6.304  0.2599  0.8281 -1.9780
  624MOL0     H86072  10.558   1.556   6.201  3.3860  0.3670  0.6949
  624MOL0     H86073  10.602   1.571   6.376  0.6927  0.9558 -2.0616
  624MOL0     H86074  10.225   1.780   6.640  1.8660  0.0430 -0.5769
  624MOL0     H86075  10.187   1.960   6.785 -0.7454  0.4364  0.5198
  624MOL0     H86076  10.336   2.111   6.958  0.0254  3.5576  0.8260
  624MOL0     H86077  10.161   2.096   6.940  1.1453 -1.8345 -1.4321
  624MOL0     H86078  10.280   2.176   7.209 -0.3491  1.7933  0.3322
  624MOL0     H86079  10.258   2.288   7.072  1.1938 -0.6355 -2.0051
  624MOL0     H86080  10.028   2.129   7.185 -2.4603  1.2987  1.8151
  624MOL0     H86081  10.015   2.233   7.047  2.5286 -2.3271 -2.5105
  624MOL0     H86082  10.092   2.429   7.178 -1.4630  0.4973 -0.8232
  624MOL0     H86083  10.111   2.327   7.327 -1.0890 -0.9762  0.2204
  624MOL0     H86084   9.857   2.396   7.190  0.6544  1.6444 -0.4480
  624MOL0     H86085   9.859   2.279   7.312  0.1598  1.4052  2.8684
  624MOL0     H86086   9.797   2.509   7.365  0.6669  1.8935 -2.5248
  624MOL0     H86087   9.967   2.557   7.348 -0.4653 -0.4075 -0.8371
  624MOL0     H86088  10.038   2.468   7.538  0.0113  0.2387 -0.1185
  624MOL0     H86089   9.920   2.330   7.524 -0.6403 -0.3751 -3.1637
  624MOL0     H86090   9.849   2.488   7.730 -0.3321 -0.4911  0.4231
  624MOL0     H86091   9.736   2.514   7.613 -0.4075  2.3426  0.2544
  624MOL0     H86092  10.282   1.715   7.125  0.0819  1.2321  1.7004
  624MOL0     H86093  10.340   1.530   6.974  0.9984 -0.1117 -1.3888
  624MOL0     H86094  10.254   1.309   6.615  2.1288  0.7680  1.2580
  624MOL0     H86095  10.213   1.145   6.471 -0.5545  0.9430  0.2290
  624MOL0     H86096   9.481   1.628   6.553 -3.0906 -2.2111 -1.6298
  624MOL0     H86097   9.429   1.696   6.783 -0.4913  2.1181  1.3789
  624MOL0     H86098   9.125   1.888   7.062  0.4090 -1.9230  2.4600
  624MOL0     H86099   9.054   1.987   7.268  0.0917  1.7795  1.6807
  624MOL0     H86100   9.081   2.261   7.368  1.3229  0.1444 -0.0614
  624MOL0     H86101   9.089   2.245   7.550  1.1314  1.7398  1.5631
  624MOL0     H86102   9.175   2.445   7.493 -0.6149 -1.0575  1.5427
  624MOL0     H86103   9.274   2.379   7.360 -2.0627 -0.6341 -0.8357
  624MOL0     H86104   9.403   2.251   7.549 -0.0095 -0.2944  1.0962
  624MOL0     H86105   9.415   2.430   7.543  0.5714 -0.0719  0.2452
  624MOL0     H86106   9.224   2.276   7.754 -0.0545  0.0001  1.1904
  624MOL0     H86107   9.252   2.447   7.722 -0.9057 -1.2397 -0.5670
  624MOL0     H86108   9.585   2.312   7.944  0.7243 -0.8252  0.6796
  624MOL0     H86109   9.444   2.123   7.357 -1.0959  1.0527  0.9498
  624MOL0     H86110   9.562   2.140   7.011  1.0357  2.8736  1.0754
  624MOL0     H86111   9.599   2.174   7.186  0.0564 -0.2835  0.1506
  624MOL0     H86112   9.633   2.014   7.117 -3.2702 -2.2587  2.6133
  625MOL0     O86113   9.929   7.891   2.059  0.5512  0.6070  0.2352
  625MOL0     C86114   9.886   7.846   1.953  0.1091  0.3204  0.2265
  625MOL0     O86115   9.832   7.724   1.936  0.8519 -0.1304  0.3288
  625MOL0     C86116   9.829   7.642   2.052 -0.7339  0.2818  0.5412
  625MOL0     C86117   9.723   7.651   2.145 -0.8914 -0.2850  0.2795
  625MOL0     C86118   9.718   7.555   2.253  0.5949  0.2503  0.9102
  625MOL0     C86119   9.815   7.458   2.269 -0.0195  0.7305  0.6092
  625MOL0     O86120   9.784   7.371   2.371 -0.7227 -0.1728  0.4244
  625MOL0     C86121   9.886   7.332   2.459  0.3754 -0.0612  0.0098
  625MOL0     C86122   9.815   7.289   2.594 -0.7587  0.3112 -0.2093
  625MOL0     C86123   9.878   7.160   2.654  0.9423  0.6856 -0.2011
  625MOL0     C86124  10.019   7.210   2.714 -1.3188  1.2073 -0.1189
  625MOL0     C86125  10.088   7.101   2.812 -0.2958 -0.2627  1.0803
  625MOL0     C86126  10.006   7.084   2.946 -0.5064 -0.2909 -0.5236
  625MOL0     C86127  10.035   6.949   3.014  0.4706  0.5657 -0.1971
  625MOL0     C86128  10.179   6.932   3.053 -0.6027  0.1904  0.1458
  625MOL0     N86129  10.187   6.802   3.137  0.1291  0.1449  0.4893
  625MOL0     C86130  10.264   6.684   3.104 -0.0102 -1.0953  0.0485
  625MOL0     C86131  10.234   6.586   3.186 -0.1482 -0.1808  0.1519
  625MOL0     C86132  10.299   6.453   3.199  0.6273  0.7040 -0.3050
  625MOL0     C86133  10.410   6.444   3.306 -0.4094  0.3943  0.5309
  625MOL0     C86134  10.449   6.294   3.314 -0.0949  0.3788 -0.4053
  625MOL0     C86135  10.470   6.211   3.183 -0.7243  0.0013  0.1214
  625MOL0     O86136  10.562   6.289   3.114 -0.5771  0.3360  0.7215
  625MOL0     C86137  10.591   6.240   2.990  0.7474 -0.1798  0.5909
  625MOL0     C86138  10.585   6.342   2.886 -0.4480  0.3008 -0.0984
  625MOL0     C86139  10.575   6.299   2.749 -0.0746  0.4653  0.8365
  625MOL0     C86140  10.549   6.405   2.652  0.2433  0.6900  0.9152
  625MOL0     C86141  10.585   6.162   2.714  0.7384  0.8853  0.0146
  625MOL0     C86142  10.594   6.105   2.577 -1.0331 -0.1570  1.0363
  625MOL0     O86143  10.560   6.197   2.482  0.0163 -0.4566  0.5609
  625MOL0     C86144  10.535   6.150   2.358 -0.1444  0.4080  0.4395
  625MOL0     C86145  10.403   6.116   2.325  0.6814 -0.7728  0.0321
  625MOL0     C86146  10.363   6.091   2.189  0.5248 -0.2705  0.5840
  625MOL0     C86147  10.466   6.086   2.093  0.4302 -0.3967  0.0274
  625MOL0     O86148  10.425   6.091   1.960 -0.4126  0.1264 -0.2847
  625MOL0     C86149  10.496   6.004   1.874  0.1610  0.3709 -0.9518
  625MOL0     C86150  10.547   6.093   1.761 -0.1885 -0.2937  0.1805
  625MOL0     C86151  10.649   6.196   1.807  0.9661  0.6730  1.0224
  625MOL0     C86152  10.678   6.260   1.670 -0.1921  0.3458  0.0619
  625MOL0     C86153  10.778   6.378   1.678  0.1035 -0.9572  0.2273
  625MOL0     C86154  10.858   6.383   1.547 -1.1248  0.9740 -0.1696
  625MOL0     C86155  10.957   6.501   1.540 -1.0397  0.4469  0.4775
  625MOL0     C86156  11.037   6.512   1.406 -0.0766  0.1071 -0.2697
  625MOL0    Cl86157  10.937   6.539   1.265 -0.0967  0.1163  0.3550
  625MOL0     C86158  10.602   6.124   2.133  0.8263  0.6613 -0.5871
  625MOL0     C86159  10.627   6.153   2.263 -0.7718  0.7669  0.4954
  625MOL0     O86160  10.633   5.992   2.545 -0.1730  0.1753  0.0436
  625MOL0     C86161  10.605   6.067   2.824 -0.5270 -0.5543  0.8360
  625MOL0     C86162  10.610   6.103   2.960  0.4384 -0.4938 -0.5488
  625MOL0     N86163  10.135   6.634   3.265 -0.4243  0.0848 -0.1965
  625MOL0     N86164  10.110   6.765   3.237  0.3603  0.6980  0.4725
  625MOL0     C86165   9.926   7.457   2.181 -0.1251 -0.9450 -0.1362
  625MOL0     C86166   9.931   7.553   2.079  1.0794  0.6952 -0.3332
  625MOL0     C86167   9.894   7.934   1.829 -0.0151  0.2928  0.4250
  625MOL0     C86168   9.839   7.872   1.713  0.8875  0.6145 -0.5948
  625MOL0     C86169   9.820   7.942   1.600 -0.1310 -0.0187  0.2682
  625MOL0     C86170   9.883   8.069   1.575 -0.7125 -0.5920 -0.6921
  625MOL0     O86171   9.882   8.134   1.453  0.2608 -0.2160 -0.9169
  625MOL0     C86172   9.838   8.072   1.335  0.6838  0.5056  0.2828
  625MOL0     C86173   9.835   8.182   1.224 -0.3014  0.0590 -0.9293
  625MOL0     C86174   9.808   8.122   1.085  0.0709 -0.1925 -0.9449
  625MOL0     C86175   9.809   8.227   0.970 -0.8652  0.5784  0.0694
  625MOL0     C86176   9.707   8.329   0.988  0.3806  0.0570 -0.3802
  625MOL0     C86177   9.624   8.420   1.011 -0.4772 -0.8485  0.1222
  625MOL0     C86178   9.939   8.129   1.689 -0.2414 -0.0338  0.5208
  625MOL0     C86179   9.946   8.066   1.814  0.0662 -0.4455 -0.3353
  625MOL0     C86180   9.992   8.155   1.923 -0.1487  0.0675 -0.5486
  625MOL0     H86181   9.641   7.719   2.126  0.7111  2.3061  2.0686
  625MOL0     H86182   9.635   7.547   2.323 -0.1613 -2.1726 -0.1757
  625MOL0     H86183   9.956   7.415   2.473  2.4236 -1.8959  1.2990
  625MOL0     H86184   9.954   7.254   2.424  0.4047  0.3386 -0.8543
  625MOL0     H86185   9.841   7.369   2.663 -0.8132  0.4103 -0.3038
  625MOL0     H86186   9.707   7.271   2.582  0.0463 -3.6006 -4.4548
  625MOL0     H86187   9.819   7.123   2.738  0.6407  0.7625 -0.3766
  625MOL0     H86188   9.889   7.083   2.578 -1.5327  1.4248 -1.3961
  625MOL0     H86189  10.085   7.239   2.632 -1.7224  0.6701 -0.6433
  625MOL0     H86190  10.014   7.300   2.776  0.3418  0.6105  0.9483
  625MOL0     H86191  10.192   7.127   2.835  0.5258 -2.0786 -0.3066
  625MOL0     H86192  10.090   7.006   2.757  2.3324  0.0457  0.5252
  625MOL0     H86193  10.036   7.169   3.009 -0.6310 -0.8332  0.2922
  625MOL0     H86194   9.897   7.081   2.940 -0.4172 -0.6412 -2.2577
  625MOL0     H86195  10.011   6.870   2.942 -0.3047 -1.0324  1.7239
  625MOL0     H86196   9.972   6.930   3.101 -3.0734 -3.5880 -3.1957
  625MOL0     H86197  10.239   6.920   2.962  1.0714  0.4960  1.1683
  625MOL0     H86198  10.218   7.014   3.112 -1.3900  2.1431 -1.8874
  625MOL0     H86199  10.336   6.678   3.023  0.0170  0.3097 -0.0463
  625MOL0     H86200  10.347   6.419   3.107 -0.2028 -1.6559  0.0731
  625MOL0     H86201  10.212   6.395   3.232  1.7652  0.0181  1.6371
  625MOL0     H86202  10.491   6.512   3.276 -0.8044  0.5118 -0.2852
  625MOL0     H86203  10.376   6.475   3.405  1.5830 -1.4664  1.9097
  625MOL0     H86204  10.541   6.284   3.373 -2.6075 -1.6594  3.6307
  625MOL0     H86205  10.372   6.237   3.367  2.3778 -2.0376  0.8209
  625MOL0     H86206  10.504   6.110   3.209 -1.0173 -0.0750  0.2148
  625MOL0     H86207  10.375   6.187   3.134  0.6839 -0.8963 -2.2792
  625MOL0     H86208  10.587   6.446   2.916 -0.6020  0.2300  0.1572
  625MOL0     H86209  10.536   6.503   2.699  2.9492  1.2743  0.6343
  625MOL0     H86210  10.463   6.382   2.589  1.4643 -0.4119 -0.4130
  625MOL0     H86211  10.630   6.421   2.580 -2.6128  0.0293 -2.7774
  625MOL0     H86212  10.330   6.122   2.405 -1.5596 -1.3628 -1.8361
  625MOL0     H86213  10.260   6.075   2.157  1.6823 -2.9279 -2.4287
  625MOL0     H86214  10.581   5.958   1.926 -0.6143  1.4461  1.4168
  625MOL0     H86215  10.426   5.926   1.844 -1.2354  0.3053  2.0756
  625MOL0     H86216  10.582   6.012   1.697 -0.8491 -0.7294  0.3630
  625MOL0     H86217  10.463   6.143   1.712  0.0127  0.9424  1.0492
  625MOL0     H86218  10.741   6.146   1.839  0.5016 -1.2427 -0.4427
  625MOL0     H86219  10.604   6.270   1.874  2.3388  1.5455  1.0343
  625MOL0     H86220  10.584   6.296   1.627 -0.3420 -1.0598 -0.8509
  625MOL0     H86221  10.721   6.184   1.604 -2.3822  0.0238 -1.0782
  625MOL0     H86222  10.726   6.470   1.702  0.1772 -0.8715  0.0623
  625MOL0     H86223  10.847   6.364   1.762 -0.5743 -1.6679  0.6852
  625MOL0     H86224  10.792   6.376   1.460  0.5445 -1.5199 -1.3660
  625MOL0     H86225  10.920   6.294   1.540  1.0948  2.5572 -4.2172
  625MOL0     H86226  11.031   6.506   1.620  1.8232 -2.2749 -1.7472
  625MOL0     H86227  10.895   6.591   1.547 -0.6773  0.8362 -0.9159
  625MOL0     H86228  11.098   6.425   1.382 -1.0755 -0.3055 -1.4056
  625MOL0     H86229  11.101   6.601   1.418  0.0933 -0.2814  1.9670
  625MOL0     H86230  10.679   6.151   2.062  0.5886  1.0305 -0.7071
  625MOL0     H86231  10.724   6.187   2.299 -1.0295  0.0333  1.9891
  625MOL0     H86232  10.636   5.967   2.797 -3.1589 -0.9556 -1.1595
  625MOL0     H86233  10.634   6.029   3.035 -2.1226  0.4218  1.3208
  625MOL0     H86234  10.008   7.387   2.184  3.4313  2.7281 -2.1869
  625MOL0     H86235  10.016   7.536   2.015  0.4988 -1.8156 -0.5465
  625MOL0     H86236   9.810   7.768   1.723 -1.5788  1.3581  0.4624
  625MOL0     H86237   9.777   7.888   1.515 -0.5744 -0.8976  1.0353
  625MOL0     H86238   9.901   7.986   1.311 -0.2280 -0.4430  1.1188
  625MOL0     H86239   9.734   8.042   1.356  0.7432  1.5692  2.3373
  625MOL0     H86240   9.929   8.235   1.212 -2.3727  3.9425 -1.3710
  625MOL0     H86241   9.756   8.250   1.256 -1.2257 -2.2105  2.1767
  625MOL0     H86242   9.879   8.039   1.075 -0.6838 -1.2302  1.4995
  625MOL0     H86243   9.711   8.072   1.084 -0.6470  0.9365  2.0720
  625MOL0     H86244   9.792   8.172   0.877  0.5398  1.0955 -0.5199
  625MOL0     H86245   9.913   8.261   0.971 -1.2625  1.8261  0.6347
  625MOL0     H86246   9.562   8.507   1.002  0.5724 -0.2515 -2.1010
  625MOL0     H86247   9.980   8.230   1.679 -0.7324  0.2479  1.2989
  625MOL0     H86248   9.965   8.111   2.020  1.7162 -2.3006 -1.0097
  625MOL0     H86249  10.100   8.168   1.913 -0.2020  1.5902  0.5554
  625MOL0     H86250   9.954   8.257   1.919  0.5016  0.2784 -1.6341
  626MOL0     O86251   7.190   7.283   2.400 -0.0553  0.7573 -0.5907
  626MOL0     C86252   7.241   7.225   2.494  0.3921  0.3215 -0.0445
  626MOL0     O86253   7.233   7.093   2.522  0.0568  0.6489 -0.2064
  626MOL0     C86254   7.169   7.005   2.438 -0.0008  0.0824  1.1446
  626MOL0     C86255   7.044   7.032   2.378 -0.1506  0.1864 -0.4424
  626MOL0     C86256   7.001   6.958   2.273  0.4437 -0.7818  0.2629
  626MOL0     C86257   7.066   6.839   2.226  0.1457  0.3407 -0.0328
  626MOL0     O86258   7.001   6.776   2.123  0.2760 -0.2955 -0.3183
  626MOL0     C86259   7.056   6.661   2.060 -0.0290 -0.0724  0.6989
  626MOL0     C86260   6.984   6.644   1.927 -0.2012 -0.2836 -0.6322
  626MOL0     C86261   7.049   6.535   1.847  0.6805 -0.9757  0.6399
  626MOL0     C86262   6.978   6.507   1.715  0.3256  0.5294  0.3982
  626MOL0     C86263   7.043   6.396   1.638  0.4773  0.8844 -0.2398
  626MOL0     C86264   7.149   6.449   1.542 -0.8493 -0.1905 -0.6287
  626MOL0     C86265   7.213   6.335   1.469 -0.8800 -0.1231  0.5606
  626MOL0     C86266   7.326   6.254   1.538  1.2322  0.1795 -0.1788
  626MOL0     N86267   7.339   6.123   1.468  0.1895 -0.3444 -0.2846
  626MOL0     C86268   7.401   6.134   1.346  0.1355  0.1205  0.0350
  626MOL0     C86269   7.380   6.013   1.296  0.5073 -0.7327 -0.4555
  626MOL0     C86270   7.414   5.971   1.153  0.6098  0.0391 -0.4749
  626MOL0     C86271   7.495   6.063   1.058  0.5566  0.7474 -0.3509
  626MOL0     C86272   7.637   6.100   1.113  0.5670  0.5285 -0.2896
  626MOL0     C86273   7.731   5.984   1.109 -1.0624 -0.2616  0.9485
  626MOL0     O86274   7.723   5.889   1.214 -0.6479  0.4795  0.1162
  626MOL0     C86275   7.815   5.794   1.219 -0.7971  0.5271 -0.4065
  626MOL0     C86276   7.815   5.698   1.328  0.4126 -0.1726 -0.9520
  626MOL0     C86277   7.918   5.599   1.342  0.0817  0.2062  0.2561
  626MOL0     C86278   7.909   5.521   1.462 -0.1558  0.2040 -1.0074
  626MOL0     C86279   8.018   5.587   1.242  0.4529 -0.5608  0.8320
  626MOL0     C86280   8.129   5.488   1.252  0.6032 -0.6587  0.0244
  626MOL0     O86281   8.178   5.447   1.136 -0.4146 -0.1010  0.3964
  626MOL0     C86282   8.269   5.346   1.130 -0.2399 -0.2335 -0.6513
  626MOL0     C86283   8.397   5.349   1.201 -1.0381  0.7895  0.5450
  626MOL0     C86284   8.474   5.227   1.199 -1.0988 -0.1556  0.4951
  626MOL0     C86285   8.427   5.122   1.118  0.7031  0.3941 -0.2268
  626MOL0     O86286   8.495   5.005   1.107  0.3620 -0.1300  0.1981
  626MOL0     C86287   8.517   4.927   1.226 -0.1696 -0.3280 -0.2470
  626MOL0     C86288   8.618   4.818   1.197 -0.2115  0.6627  0.7434
  626MOL0     C86289   8.661   4.743   1.324 -0.4036 -0.5159 -0.0810
  626MOL0     C86290   8.763   4.637   1.301  0.3563  0.2557 -0.0861
  626MOL0     C86291   8.819   4.584   1.432  1.0617  0.2018 -0.0678
  626MOL0     C86292   8.923   4.476   1.403 -1.0630 -0.3255 -0.8225
  626MOL0     C86293   8.981   4.406   1.529 -0.0025 -0.2648 -0.5615
  626MOL0     C86294   9.113   4.319   1.510  0.8676 -0.5882  1.2929
  626MOL0    Cl86295   9.251   4.417   1.453  0.0417  0.0408  0.0358
  626MOL0     C86296   8.308   5.132   1.034 -0.3709  0.4741  0.1413
  626MOL0     C86297   8.237   5.246   1.041  0.0557  0.0021 -0.5441
  626MOL0     O86298   8.178   5.467   1.362 -0.1711 -0.4262  0.2510
  626MOL0     C86299   8.013   5.678   1.124  0.7701  0.4423  0.1942
  626MOL0     C86300   7.902   5.772   1.117 -0.2534  0.3754 -0.3269
  626MOL0     N86301   7.318   5.930   1.381  0.1056  0.2182  0.3125
  626MOL0     N86302   7.287   6.001   1.493  0.0458 -0.8840 -0.8895
  626MOL0     C86303   7.187   6.800   2.291  0.0294 -0.0454 -0.0510
  626MOL0     C86304   7.238   6.893   2.391 -0.6514 -0.0665 -0.1434
  626MOL0     C86305   7.289   7.324   2.591 -1.0171 -0.0283  0.2037
  626MOL0     C86306   7.237   7.455   2.593  1.0325  0.3844  0.4791
  626MOL0     C86307   7.274   7.543   2.696 -0.1107 -0.7807 -0.3778
  626MOL0     C86308   7.375   7.511   2.790  0.3014 -0.4643  0.2870
  626MOL0     O86309   7.425   7.595   2.893  0.1926 -0.3551 -0.0702
  626MOL0     C86310   7.353   7.717   2.916 -0.5173 -0.2005  0.1410
  626MOL0     C86311   7.224   7.696   2.991  0.1368 -1.0586 -0.7411
  626MOL0     C86312   7.251   7.706   3.139  0.1877 -0.9975  0.0975
  626MOL0     C86313   7.126   7.703   3.221  0.1664  0.4124  0.8009
  626MOL0     C86314   7.069   7.570   3.220  0.1831  0.2508 -0.6768
  626MOL0     C86315   7.013   7.462   3.227  0.2752  0.4026  0.6280
  626MOL0     C86316   7.433   7.393   2.779 -0.4932 -0.0750  0.4927
  626MOL0     C86317   7.394   7.301   2.683  0.4791  0.7429 -0.0395
  626MOL0     C86318   7.487   7.181   2.674 -0.2759  0.1859 -0.1954
  626MOL0     H86319   6.987   7.117   2.413  0.8979  1.2479 -1.2375
  626MOL0     H86320   6.907   6.983   2.224  0.8025  0.4808  0.1624
  626MOL0     H86321   7.047   6.579   2.131  2.0963  0.9063  2.1920
  626MOL0     H86322   7.162   6.680   2.042  0.2329  0.7832  2.9060
  626MOL0     H86323   6.880   6.631   1.958  1.1748  0.4465  5.6134
  626MOL0     H86324   6.987   6.737   1.871 -1.5168  0.8732  1.1135
  626MOL0     H86325   7.152   6.559   1.819  0.2633 -2.2773 -2.4487
  626MOL0     H86326   7.049   6.451   1.916  0.7658 -0.4170  1.3306
  626MOL0     H86327   6.880   6.471   1.748  1.2751 -2.5888  0.0988
  626MOL0     H86328   6.982   6.593   1.648  4.3114 -1.2517 -2.0026
  626MOL0     H86329   6.972   6.332   1.584  0.9187 -1.0897  1.3754
  626MOL0     H86330   7.094   6.334   1.714  1.2675  0.8146 -0.8173
  626MOL0     H86331   7.099   6.503   1.461 -0.3235 -1.3545 -1.7599
  626MOL0     H86332   7.218   6.517   1.592 -0.7299 -0.4110 -0.4933
  626MOL0     H86333   7.257   6.361   1.372  0.2410 -2.9831  0.2118
  626MOL0     H86334   7.145   6.258   1.433  0.3018 -2.1187  2.3419
  626MOL0     H86335   7.427   6.297   1.542  1.3576  0.0700 -1.5352
  626MOL0     H86336   7.291   6.237   1.640  0.1947  0.6414 -0.4446
  626MOL0     H86337   7.465   6.218   1.321  3.2500 -1.3085  2.4942
  626MOL0     H86338   7.324   5.947   1.096  0.5047 -0.8453  0.0483
  626MOL0     H86339   7.460   5.872   1.151  0.2184 -0.2113 -4.2081
  626MOL0     H86340   7.506   6.010   0.963  0.1808  0.9355 -0.4988
  626MOL0     H86341   7.438   6.154   1.040 -0.6668  0.2485  0.8917
  626MOL0     H86342   7.664   6.181   1.045 -0.0392 -0.0241 -1.2070
  626MOL0     H86343   7.627   6.149   1.211  0.5616 -2.5757  1.3727
  626MOL0     H86344   7.706   5.932   1.016  0.8343  1.4679 -0.6062
  626MOL0     H86345   7.832   6.026   1.103 -0.5130 -1.5300  1.0377
  626MOL0     H86346   7.750   5.704   1.415  2.2884 -0.8948  0.5819
  626MOL0     H86347   7.807   5.518   1.501 -0.1399 -0.6409 -1.0131
  626MOL0     H86348   7.980   5.559   1.535  1.5550 -1.0511 -1.9324
  626MOL0     H86349   7.941   5.419   1.438 -1.0555  0.3815 -3.1856
  626MOL0     H86350   8.432   5.435   1.257 -2.6239  0.8919  1.4389
  626MOL0     H86351   8.561   5.217   1.263  0.1632 -1.8144 -1.3808
  626MOL0     H86352   8.545   4.992   1.309  0.9869  0.7117 -1.3984
  626MOL0     H86353   8.423   4.879   1.253 -1.1950  0.6187 -1.9713
  626MOL0     H86354   8.573   4.745   1.130 -1.4766  0.7758  1.4434
  626MOL0     H86355   8.711   4.855   1.154  1.6036 -2.2558  1.7989
  626MOL0     H86356   8.578   4.691   1.373  0.2679 -0.1444  1.5156
  626MOL0     H86357   8.713   4.814   1.388  0.6090 -1.9742  0.7816
  626MOL0     H86358   8.844   4.684   1.244  0.2588  0.2123 -0.2618
  626MOL0     H86359   8.720   4.552   1.247  2.0476 -1.0789  0.5450
  626MOL0     H86360   8.853   4.674   1.485  3.4226 -0.0697 -0.9745
  626MOL0     H86361   8.741   4.530   1.486 -0.5867  2.3111 -0.1970
  626MOL0     H86362   9.005   4.520   1.345 -1.2578  0.6876 -0.3669
  626MOL0     H86363   8.876   4.402   1.339 -2.0277  0.2002 -0.7408
  626MOL0     H86364   8.907   4.344   1.581  0.3851 -1.5867 -1.5290
  626MOL0     H86365   9.009   4.490   1.593  1.5156  0.4787 -2.1241
  626MOL0     H86366   9.104   4.243   1.432 -0.3685  0.5053  0.3332
  626MOL0     H86367   9.137   4.261   1.600  0.7393  0.4205  1.9936
  626MOL0     H86368   8.284   5.064   0.953  1.4402 -2.5014  1.9391
  626MOL0     H86369   8.160   5.250   0.964  2.1374  0.1410 -2.7623
  626MOL0     H86370   8.097   5.670   1.055  0.6662 -1.8288  0.2369
  626MOL0     H86371   7.912   5.843   1.036  3.5235  3.6869  2.6342
  626MOL0     H86372   7.242   6.709   2.268  0.0286 -0.5646  1.8401
  626MOL0     H86373   7.338   6.871   2.428 -1.8556  0.7554  4.1048
  626MOL0     H86374   7.167   7.494   2.520  0.1366  1.5346  1.9173
  626MOL0     H86375   7.224   7.640   2.700 -0.1840 -0.8291 -0.0502
  626MOL0     H86376   7.424   7.781   2.969 -0.1850 -0.3002 -0.1786
  626MOL0     H86377   7.336   7.768   2.821  0.4078 -1.2996 -0.6573
  626MOL0     H86378   7.175   7.602   2.966 -3.6050 -0.1003  2.0210
  626MOL0     H86379   7.164   7.783   2.963 -1.1170 -0.0498  4.0258
  626MOL0     H86380   7.316   7.621   3.162 -0.2157 -0.4630  3.7805
  626MOL0     H86381   7.304   7.796   3.169 -0.3162 -1.1614  1.5455
  626MOL0     H86382   7.048   7.769   3.183  2.6961  1.5004 -3.0232
  626MOL0     H86383   7.156   7.736   3.321  0.7810  3.7386 -0.3357
  626MOL0     H86384   6.986   7.358   3.225  3.0545 -0.4067  1.0525
  626MOL0     H86385   7.515   7.378   2.849  2.2304  2.0977 -1.9729
  626MOL0     H86386   7.590   7.208   2.696 -0.8328  1.9464  0.4125
  626MOL0     H86387   7.456   7.103   2.744 -3.0085  2.0013  0.7878
  626MOL0     H86388   7.477   7.145   2.571 -2.4055  2.9609 -1.0943
  627MOL0     O86389   6.292   0.231   0.892  0.1945  0.6897  0.4234
  627MOL0     C86390   6.283   0.262   1.005 -0.1484  0.7728  0.8992
  627MOL0     O86391   6.375   0.271   1.098 -0.2751 -0.1705 -0.1907
  627MOL0     C86392   6.505   0.246   1.078 -1.7654  0.0708  0.4733
  627MOL0     C86393   6.546   0.111   1.053  0.2798 -0.1913  0.0084
  627MOL0     C86394   6.677   0.075   1.033 -0.5661 -0.4912  0.7663
  627MOL0     C86395   6.777   0.162   1.014 -0.4709  0.4863  0.2136
  627MOL0     O86396   6.907   0.113   0.991  0.4703 -0.1925 -0.6510
  627MOL0     C86397   6.995   0.197   0.922 -0.5495  0.1222  0.0728
  627MOL0     C86398   7.116   0.120   0.878 -0.0681  0.8865  0.7612
  627MOL0     C86399   7.219   0.215   0.818 -0.4400  0.2077 -0.2631
  627MOL0     C86400   7.308   0.279   0.935  0.0330 -0.2438 -0.4139
  627MOL0     C86401   7.405   0.388   0.892 -0.1292  0.3251  0.6752
  627MOL0     C86402   7.523   0.323   0.811 -0.6388 -0.6005  0.5029
  627MOL0     C86403   7.631   0.428   0.772  0.4392  0.1545 -0.0917
  627MOL0     C86404   7.693   0.379   0.646  0.7084  0.8156  0.4120
  627MOL0     N86405   7.803   0.471   0.604 -0.6579 -0.9002 -0.0912
  627MOL0     C86406   7.803   0.572   0.511  0.1473  1.1598 -0.1988
  627MOL0     C86407   7.926   0.622   0.526 -0.5960 -0.5807  0.2724
  627MOL0     C86408   7.984   0.732   0.448  0.5274  0.9705  1.2816
  627MOL0     C86409   7.921   0.758   0.305  0.4316  0.0598 -0.1599
  627MOL0     C86410   7.916   0.630   0.217  1.0164  0.8604 -0.3506
  627MOL0     C86411   7.907   0.670   0.066  0.3836 -0.4017 -0.6604
  627MOL0     O86412   7.808   0.778   0.050 -0.7429 -0.0914 -0.3256
  627MOL0     C86413   7.676   0.738   0.053  0.3637  0.3077 -0.1110
  627MOL0     C86414   7.586   0.836   0.051  0.8606 -0.0352  0.2883
  627MOL0     C86415   7.445   0.817   0.048 -0.6465 -0.5425 -1.4249
  627MOL0     C86416   7.356   0.941   0.060  0.6602 -0.2300 -0.4096
  627MOL0     C86417   7.397   0.686   0.049  0.0915 -0.3303  0.1608
  627MOL0     C86418   7.249   0.651   0.049 -0.3967 -1.1314  0.8510
  627MOL0     O86419   7.213   0.524   0.023 -0.0832 -0.4678  0.4250
  627MOL0     C86420   7.082   0.484   0.067  0.8246  0.1686  0.7302
  627MOL0     C86421   7.011   0.385  -0.006  0.4248 -1.2367 -0.1207
  627MOL0     C86422   6.890   0.337   0.031 -0.2131 -0.2718  0.6071
  627MOL0     C86423   6.822   0.400   0.146  0.0728 -0.2337 -0.7216
  627MOL0     O86424   6.704   0.359   0.200  0.1866 -1.4880 -0.1034
  627MOL0     C86425   6.657   0.227   0.175  0.0635 -0.0894  0.2301
  627MOL0     C86426   6.567   0.168   0.284 -0.6953  0.2579 -0.5181
  627MOL0     C86427   6.438   0.243   0.317  0.6466 -0.5517  0.5432
  627MOL0     C86428   6.363   0.190   0.440 -0.2194 -0.5941  0.1617
  627MOL0     C86429   6.210   0.214   0.443 -0.9809 -0.6662 -0.2421
  627MOL0     C86430   6.179   0.358   0.397 -0.5790 -0.8340 -1.0475
  627MOL0     C86431   6.030   0.387   0.409  0.8845  0.7620  0.2622
  627MOL0     C86432   5.982   0.388   0.550  0.2899  0.1438 -0.6620
  627MOL0    Cl86433   5.817   0.468   0.545  0.2634 -0.1882  0.5289
  627MOL0     C86434   6.889   0.486   0.232 -0.2809 -0.8673  0.2155
  627MOL0     C86435   7.021   0.537   0.193 -0.2853  0.5272  1.2419
  627MOL0     O86436   7.165   0.741   0.056 -0.4755  0.3918  0.9606
  627MOL0     C86437   7.487   0.579   0.068  0.1490  0.0863 -0.6909
  627MOL0     C86438   7.624   0.611   0.075  0.7274  0.0901 -0.0867
  627MOL0     N86439   8.007   0.559   0.615  0.6978  0.9347 -0.8025
  627MOL0     N86440   7.930   0.451   0.654 -0.3109  0.5501  0.4480
  627MOL0     C86441   6.744   0.297   1.038  0.3873  0.7495  0.2443
  627MOL0     C86442   6.612   0.342   1.066  0.0388 -0.0980  0.5958
  627MOL0     C86443   6.150   0.288   1.056 -0.0648  0.6522 -0.4303
  627MOL0     C86444   6.139   0.373   1.161 -0.5474  0.3564 -0.5625
  627MOL0     C86445   6.017   0.390   1.232  0.0846  0.8098  0.2366
  627MOL0     C86446   5.898   0.323   1.186  0.0472  1.3786  0.2173
  627MOL0     O86447   5.783   0.358   1.255  0.0958  0.2031 -0.2218
  627MOL0     C86448   5.654   0.322   1.196  0.0027  0.2298  0.5183
  627MOL0     C86449   5.548   0.356   1.307 -0.0427  0.6381 -0.8835
  627MOL0     C86450   5.405   0.300   1.293 -0.7192 -0.4303 -0.4930
  627MOL0     C86451   5.312   0.309   1.413 -0.6067 -0.3112 -0.6026
  627MOL0     C86452   5.268   0.447   1.446 -0.2432 -0.7524  1.0291
  627MOL0     C86453   5.228   0.554   1.471 -0.9084 -0.3894 -0.4028
  627MOL0     C86454   5.900   0.258   1.061  0.1935  0.6226  0.1229
  627MOL0     C86455   6.031   0.234   1.000 -0.2862  0.5680  1.0960
  627MOL0     C86456   6.026   0.133   0.888 -0.6207 -0.4249 -0.3319
  627MOL0     H86457   6.462   0.042   1.047 -2.0424  2.5970 -2.6452
  627MOL0     H86458   6.694  -0.031   1.018  0.8857 -0.3423  1.2660
  627MOL0     H86459   7.016   0.283   0.986  2.0139 -2.0450  2.4556
  627MOL0     H86460   6.939   0.234   0.836 -3.1204 -1.1689  1.1001
  627MOL0     H86461   7.168   0.059   0.952 -1.4845 -3.6151 -1.5788
  627MOL0     H86462   7.084   0.050   0.801 -3.7247  2.9300  0.1698
  627MOL0     H86463   7.283   0.159   0.749 -0.9565  0.3739 -0.8879
  627MOL0     H86464   7.169   0.293   0.759 -0.2892 -0.3311 -1.1278
  627MOL0     H86465   7.251   0.323   1.018  1.9463  0.1477  0.7627
  627MOL0     H86466   7.360   0.192   0.975 -1.8007 -1.1962 -0.0025
  627MOL0     H86467   7.445   0.437   0.981  2.0551  2.5797 -1.3568
  627MOL0     H86468   7.362   0.464   0.825  1.0277 -0.4782 -1.0596
  627MOL0     H86469   7.570   0.245   0.871  0.0649 -2.0777 -1.8122
  627MOL0     H86470   7.485   0.268   0.724  1.2882 -4.0015  1.6186
  627MOL0     H86471   7.701   0.434   0.856 -2.6076  2.0931  2.5232
  627MOL0     H86472   7.594   0.530   0.756  1.5704  0.4646 -0.8173
  627MOL0     H86473   7.743   0.285   0.670 -0.1585  0.3824  0.5511
  627MOL0     H86474   7.619   0.365   0.566  0.1628  0.5556  0.9525
  627MOL0     H86475   7.726   0.592   0.438 -0.0323 -0.4381 -0.4872
  627MOL0     H86476   8.091   0.714   0.432  0.2630 -0.9828  1.4663
  627MOL0     H86477   7.969   0.822   0.508 -0.0508  1.8046 -0.0791
  627MOL0     H86478   7.823   0.803   0.326  1.6988  2.3198  1.3302
  627MOL0     H86479   7.984   0.828   0.250 -0.3103 -0.1938 -1.3576
  627MOL0     H86480   8.015   0.587   0.235  1.2336  0.8086 -1.5848
  627MOL0     H86481   7.840   0.553   0.235  1.9798 -0.0724 -0.2078
  627MOL0     H86482   8.003   0.711   0.034 -0.6428  1.4050 -1.5436
  627MOL0     H86483   7.889   0.583   0.002  0.7731  0.4601 -1.9775
  627MOL0     H86484   7.624   0.937   0.058 -1.7695  0.9116  2.6072
  627MOL0     H86485   7.418   1.030   0.075  2.8427 -1.3982 -1.9437
  627MOL0     H86486   7.286   0.948   0.144 -1.7182  1.7922 -2.3568
  627MOL0     H86487   7.310   0.969  -0.036 -0.2786  2.1196  0.6191
  627MOL0     H86488   7.052   0.352  -0.101  0.0052 -2.7733  0.2139
  627MOL0     H86489   6.842   0.263  -0.033 -0.9115  0.6519  0.0349
  627MOL0     H86490   6.610   0.230   0.076 -0.0933 -1.2168  0.2576
  627MOL0     H86491   6.739   0.160   0.150  0.5145 -1.5084  4.6903
  627MOL0     H86492   6.528   0.073   0.246 -1.5090 -0.4111  1.8024
  627MOL0     H86493   6.626   0.146   0.373  0.2615  1.8759 -0.7108
  627MOL0     H86494   6.381   0.221   0.227  3.9631  3.2525 -2.9170
  627MOL0     H86495   6.447   0.352   0.316 -4.3500  0.1055 -1.2250
  627MOL0     H86496   6.415   0.228   0.528 -1.2234  2.7918 -0.5632
  627MOL0     H86497   6.384   0.082   0.446  1.3882 -0.2596  1.2623
  627MOL0     H86498   6.161   0.146   0.373 -1.4084 -1.0778  0.4491
  627MOL0     H86499   6.171   0.202   0.544  0.3491  0.3634  0.4314
  627MOL0     H86500   6.215   0.383   0.296  2.4275  0.6242  0.2588
  627MOL0     H86501   6.234   0.423   0.466 -1.1556  0.2241 -1.5492
  627MOL0     H86502   5.972   0.311   0.356 -0.3743 -0.2785  2.9708
  627MOL0     H86503   6.009   0.482   0.359  2.4068  1.8192  1.5117
  627MOL0     H86504   6.041   0.461   0.606 -0.8196  0.0112  0.7180
  627MOL0     H86505   5.973   0.292   0.602 -2.3251  0.0358 -1.1771
  627MOL0     H86506   6.849   0.524   0.325  0.1786 -0.3083  0.1862
  627MOL0     H86507   7.073   0.611   0.254 -1.4639  0.6194  2.1649
  627MOL0     H86508   7.456   0.475   0.081  0.3781 -0.1605 -2.0519
  627MOL0     H86509   7.683   0.520   0.088 -0.2915 -0.3019  2.0778
  627MOL0     H86510   6.822   0.372   1.048 -0.5915  2.1497 -2.0697
  627MOL0     H86511   6.605   0.448   1.087  0.7502  0.0799 -0.0149
  627MOL0     H86512   6.231   0.424   1.189 -1.3855  1.6207 -0.0595
  627MOL0     H86513   6.003   0.452   1.320 -0.7823 -1.4490  1.7822
  627MOL0     H86514   5.647   0.385   1.107  1.5662  1.7242  1.3953
  627MOL0     H86515   5.649   0.215   1.172  1.0744 -0.2214  2.1630
  627MOL0     H86516   5.544   0.465   1.304  1.5156  0.7357 -4.2348
  627MOL0     H86517   5.595   0.320   1.399 -0.4180  2.9636  0.2844
  627MOL0     H86518   5.373   0.363   1.209 -0.3942  1.5626  0.8064
  627MOL0     H86519   5.405   0.197   1.257  1.3400  0.1915 -2.5337
  627MOL0     H86520   5.353   0.267   1.506 -0.5684  3.3147  1.2046
  627MOL0     H86521   5.218   0.261   1.385 -0.7063 -0.0105 -0.7811
  627MOL0     H86522   5.183   0.648   1.498  1.4905  0.3842  1.1360
  627MOL0     H86523   5.800   0.239   1.024 -0.6319  2.2328  1.4031
  627MOL0     H86524   5.923   0.095   0.884 -1.4143  1.5397  0.1109
  627MOL0     H86525   6.051   0.183   0.794 -1.7111  2.8629  0.9715
  627MOL0     H86526   6.105   0.061   0.913  0.4446  1.2045  1.2354
  628MOL0     O86527   1.087  11.527   3.391  0.5397 -1.4949  0.8689
  628MOL0     C86528   1.076  11.410   3.396 -0.2758 -0.0821 -0.3230
  628MOL0     O86529   1.026  11.335   3.296  0.1551  0.7082 -0.2382
  628MOL0     C86530   0.927  11.381   3.205 -1.0095  0.0234 -0.1757
  628MOL0     C86531   0.813  11.447   3.244 -0.0941 -0.7232 -0.6568
  628MOL0     C86532   0.726  11.510   3.142  0.6515 -0.3075  0.1105
  628MOL0     C86533   0.754  11.476   3.005  0.4735  0.3844 -0.5801
  628MOL0     O86534   0.667  11.508   2.897 -0.1753 -0.5568  0.5061
  628MOL0     C86535   0.552  11.586   2.927 -0.4071  0.2621 -0.6863
  628MOL0     C86536   0.601  11.733   2.940 -0.1507 -0.0782 -0.2431
  628MOL0     C86537   0.501  11.811   3.036 -0.5834 -0.0817  0.0067
  628MOL0     C86538   0.564  11.938   3.092  0.1830  0.3970  0.2232
  628MOL0     C86539   0.668  11.911   3.205  1.0988  0.5177 -0.7133
  628MOL0     C86540   0.741  12.038   3.255 -0.0743 -0.6430  0.7200
  628MOL0     C86541   0.662  12.157   3.323  0.1237  0.9091 -0.2051
  628MOL0     C86542   0.603  12.261   3.216 -0.5408 -0.6829 -0.1872
  628MOL0     N86543   0.583  12.388   3.284  0.5121 -0.7866  0.8120
  628MOL0     C86544   0.650  12.509   3.257  0.9965  0.3631 -0.8974
  628MOL0     C86545   0.586  12.597   3.339  0.5899  0.1308 -0.4545
  628MOL0     C86546   0.640  12.737   3.374 -0.3037  0.4840  0.3851
  628MOL0     C86547   0.745  12.746   3.489  0.3207 -0.5090 -0.2686
  628MOL0     C86548   0.676  12.743   3.622  0.4495 -0.2010 -0.6255
  628MOL0     C86549   0.771  12.803   3.730  0.9457  0.6082  0.3765
  628MOL0     O86550   0.878  12.716   3.768 -0.5373  0.2299  0.3691
  628MOL0     C86551   0.855  12.576   3.774 -0.0251 -0.6415  0.4383
  628MOL0     C86552   0.791  12.531   3.884 -0.4718 -0.3844  0.2077
  628MOL0     C86553   0.765  12.385   3.898  0.2149  0.5942  0.2126
  628MOL0     C86554   0.692  12.334   4.018 -0.2383  0.1398 -0.5224
  628MOL0     C86555   0.822  12.301   3.802 -0.2209  0.2388 -0.2816
  628MOL0     C86556   0.813  12.153   3.793 -0.2469  0.7118  0.0225
  628MOL0     O86557   0.819  12.100   3.668  0.2721  0.5978  0.2159
  628MOL0     C86558   0.775  11.973   3.655  0.7031  0.8999  1.0567
  628MOL0     C86559   0.646  11.926   3.689 -1.1176 -0.5200 -0.7837
  628MOL0     C86560   0.596  11.803   3.656  0.4707 -0.7475  0.0496
  628MOL0     C86561   0.680  11.719   3.574  1.5315 -0.9565 -0.3079
  628MOL0     O86562   0.632  11.593   3.546 -0.2257 -0.2688  0.0027
  628MOL0     C86563   0.490  11.567   3.533  0.3491  1.0910 -0.7537
  628MOL0     C86564   0.424  11.613   3.403  0.1240  0.1061 -0.1531
  628MOL0     C86565   0.276  11.563   3.392 -0.5698 -0.2800 -0.3223
  628MOL0     C86566   0.264  11.409   3.363 -0.0356 -0.1752  0.7694
  628MOL0     C86567   0.121  11.376   3.378  1.1544 -0.2372  0.3911
  628MOL0     C86568   0.085  11.232   3.340 -0.2744  0.4895 -2.0487
  628MOL0     C86569  -0.045  11.198   3.420  0.2394  0.3349  0.2137
  628MOL0     C86570  -0.109  11.062   3.391  0.1292  0.6322 -0.3946
  628MOL0    Cl86571   0.000  10.933   3.436 -0.2389 -0.4978  0.2089
  628MOL0     C86572   0.810  11.761   3.538  0.3491  0.4640 -0.5596
  628MOL0     C86573   0.859  11.889   3.576  0.7453  0.4727 -1.2314
  628MOL0     O86574   0.813  12.087   3.899 -0.1849  0.2749 -0.5205
  628MOL0     C86575   0.887  12.359   3.689 -0.0626  0.5393 -0.4298
  628MOL0     C86576   0.908  12.493   3.674 -0.0882  0.1535 -0.2383
  628MOL0     N86577   0.479  12.533   3.404  1.1450 -0.0219  1.1924
  628MOL0     N86578   0.484  12.407   3.371  0.0307  0.4763  0.0584
  628MOL0     C86579   0.858  11.391   2.970  0.9071  0.9901  0.0575
  628MOL0     C86580   0.946  11.350   3.073  0.8422 -0.3470 -1.0026
  628MOL0     C86581   1.110  11.325   3.521 -0.4320  0.4376  0.5943
  628MOL0     C86582   1.089  11.181   3.517  0.6443  0.3291 -0.0081
  628MOL0     C86583   1.091  11.111   3.637  0.0894  0.3582 -0.4231
  628MOL0     C86584   1.154  11.157   3.756 -0.0348 -0.7530 -0.0557
  628MOL0     O86585   1.181  11.085   3.875 -0.0017  0.2349 -0.2244
  628MOL0     C86586   1.147  10.958   3.884 -0.1487  0.1581  0.4538
  628MOL0     C86587   1.270  10.869   3.919  0.5407 -0.4471  0.1139
  628MOL0     C86588   1.226  10.717   3.922  0.0131 -0.2096 -0.8935
  628MOL0     C86589   1.262  10.632   4.042 -0.4638  0.1681 -0.2648
  628MOL0     C86590   1.195  10.667   4.168 -0.3168  0.3729  0.2147
  628MOL0     C86591   1.141  10.704   4.271  0.2681  0.0511  0.4317
  628MOL0     C86592   1.199  11.286   3.750 -0.3247  0.4478  0.3777
  628MOL0     C86593   1.160  11.377   3.646 -0.4819  0.0545 -0.2358
  628MOL0     C86594   1.182  11.517   3.678  0.3633 -0.7835  0.0510
  628MOL0     H86595   0.784  11.453   3.349 -2.7019 -3.1929 -1.1381
  628MOL0     H86596   0.635  11.560   3.173 -1.0230 -2.7715 -0.4866
  628MOL0     H86597   0.507  11.543   3.017  2.6405 -0.8478  0.4266
  628MOL0     H86598   0.471  11.586   2.853 -0.0119 -0.1112 -1.1184
  628MOL0     H86599   0.702  11.733   2.982  0.0553  1.8388 -0.6670
  628MOL0     H86600   0.601  11.778   2.841 -1.5959 -0.5427 -0.4881
  628MOL0     H86601   0.417  11.839   2.972 -0.0885  1.7539  0.1018
  628MOL0     H86602   0.471  11.740   3.114 -0.8070 -2.1546 -1.8579
  628MOL0     H86603   0.618  11.989   3.011 -1.7071 -0.0384 -1.3788
  628MOL0     H86604   0.487  12.009   3.125 -1.0145 -2.5223  4.3997
  628MOL0     H86605   0.736  11.832   3.170 -1.7023 -1.4372 -2.1427
  628MOL0     H86606   0.610  11.870   3.288 -1.5702  2.7924 -1.3075
  628MOL0     H86607   0.810  11.999   3.330 -0.4378  0.9273  1.9328
  628MOL0     H86608   0.801  12.073   3.170  0.5080 -0.1729  1.3175
  628MOL0     H86609   0.732  12.202   3.393  0.0049 -3.4140  3.1403
  628MOL0     H86610   0.572  12.120   3.374  0.3981  2.0932  1.1822
  628MOL0     H86611   0.674  12.275   3.134  1.5487 -0.2014  1.6078
  628MOL0     H86612   0.506  12.231   3.176 -0.8096  1.5361 -1.3149
  628MOL0     H86613   0.742  12.520   3.202  2.9541 -1.8554  1.6672
  628MOL0     H86614   0.558  12.808   3.387  0.5172  2.1316 -2.6171
  628MOL0     H86615   0.689  12.778   3.286  0.9646 -0.3076  0.6968
  628MOL0     H86616   0.807  12.657   3.473 -2.1713 -2.6671  1.2026
  628MOL0     H86617   0.802  12.838   3.476 -0.6834  0.3450  1.0204
  628MOL0     H86618   0.586  12.805   3.621  0.5227 -0.0806  0.0487
  628MOL0     H86619   0.641  12.643   3.650  0.6799  0.3339  1.8082
  628MOL0     H86620   0.813  12.901   3.707  4.3970 -0.4239  1.6693
  628MOL0     H86621   0.703  12.807   3.816 -0.8852 -0.9595 -0.9190
  628MOL0     H86622   0.747  12.606   3.949  1.3719  0.0937  0.9434
  628MOL0     H86623   0.750  12.266   4.081 -0.3699  0.5503  0.0526
  628MOL0     H86624   0.598  12.290   3.984 -0.7378  1.2559 -0.6162
  628MOL0     H86625   0.668  12.421   4.080  3.5383  2.7758 -2.3390
  628MOL0     H86626   0.605  11.994   3.762  1.6987 -0.5875  0.9832
  628MOL0     H86627   0.496  11.787   3.694 -0.1094  1.8629 -0.1362
  628MOL0     H86628   0.488  11.458   3.540  0.8656  0.9804 -2.0977
  628MOL0     H86629   0.436  11.610   3.619  1.0511 -0.4312  0.5091
  628MOL0     H86630   0.426  11.722   3.406  1.8359  0.2328 -2.7135
  628MOL0     H86631   0.488  11.597   3.316 -0.4480  1.7673 -0.9329
  628MOL0     H86632   0.226  11.621   3.313  1.3474  1.4075 -0.3843
  628MOL0     H86633   0.231  11.584   3.489  0.9513 -3.2427  1.1731
  628MOL0     H86634   0.323  11.358   3.439  1.8479  0.3450 -0.2898
  628MOL0     H86635   0.304  11.393   3.263 -2.5678  0.7190 -0.4653
  628MOL0     H86636   0.099  11.403   3.482  2.3420 -0.6064  0.7422
  628MOL0     H86637   0.061  11.442   3.314  1.1200 -1.2152 -0.6343
  628MOL0     H86638   0.154  11.156   3.375  0.0388  0.7890 -2.0135
  628MOL0     H86639   0.069  11.225   3.232  1.8796  1.1689 -2.4434
  628MOL0     H86640  -0.119  11.273   3.389 -0.8997 -1.0256 -0.4364
  628MOL0     H86641  -0.034  11.201   3.529 -0.6059  0.7428  0.2965
  628MOL0     H86642  -0.139  11.052   3.287 -1.7863  2.0030 -0.0211
  628MOL0     H86643  -0.204  11.058   3.445  0.8901 -0.9819  0.8982
  628MOL0     H86644   0.874  11.688   3.490  0.6403 -0.2505  0.8439
  628MOL0     H86645   0.961  11.927   3.569  0.6868  0.8890 -0.0346
  628MOL0     H86646   0.917  12.300   3.603 -0.8230  2.9461 -2.4796
  628MOL0     H86647   0.965  12.530   3.589  0.7524 -1.1653 -0.2769
  628MOL0     H86648   0.866  11.362   2.866  2.5864  1.9023 -0.1149
  628MOL0     H86649   1.026  11.283   3.043  3.3446  2.2826 -0.6551
  628MOL0     H86650   1.037  11.137   3.432 -1.1592 -1.2704  1.8074
  628MOL0     H86651   1.039  11.016   3.629  0.2006  0.1836  0.7563
  628MOL0     H86652   1.067  10.956   3.958  0.1108 -1.3276  0.7256
  628MOL0     H86653   1.110  10.917   3.790  0.4783 -3.5510  1.6586
  628MOL0     H86654   1.327  10.897   4.009 -0.4144 -0.5620  0.7644
  628MOL0     H86655   1.347  10.885   3.842  0.7761  4.7224  1.0558
  628MOL0     H86656   1.118  10.701   3.909 -0.0358  1.3519 -2.9119
  628MOL0     H86657   1.269  10.686   3.826 -1.1102  0.6710 -1.7136
  628MOL0     H86658   1.370  10.629   4.058  0.0729  0.8983 -3.1892
  628MOL0     H86659   1.231  10.528   4.025  0.9611 -0.4371  0.6424
  628MOL0     H86660   1.106  10.740   4.365 -1.9636 -0.0360 -0.2987
  628MOL0     H86661   1.246  11.319   3.842 -3.2255  0.1898  2.0927
  628MOL0     H86662   1.097  11.584   3.665  1.0533  0.8729  3.0106
  628MOL0     H86663   1.211  11.548   3.779  1.5887  0.8394 -0.7616
  628MOL0     H86664   1.254  11.557   3.605  0.4566  1.6436  1.3567
  629MOL0     O86665   4.028   5.215   1.418 -0.7319 -0.1025  0.2606
  629MOL0     C86666   4.046   5.193   1.541  0.6021 -0.2578  0.1593
  629MOL0     O86667   4.162   5.183   1.605 -0.8194  0.8150 -0.4460
  629MOL0     C86668   4.274   5.173   1.521 -0.1872 -0.8241  0.7834
  629MOL0     C86669   4.345   5.060   1.518  0.4253  0.1713  0.5193
  629MOL0     C86670   4.446   5.032   1.429 -0.0019 -0.2298 -0.9394
  629MOL0     C86671   4.482   5.118   1.330  0.4950  0.0323 -0.2443
  629MOL0     O86672   4.597   5.079   1.266  0.2617 -0.6379  0.4343
  629MOL0     C86673   4.647   5.161   1.153 -0.0971 -0.3113  0.1204
  629MOL0     C86674   4.759   5.099   1.069 -0.3836 -0.1521  0.4601
  629MOL0     C86675   4.902   5.087   1.142  0.5910 -0.7207 -0.5454
  629MOL0     C86676   5.003   5.024   1.051 -0.7544 -0.6487  0.1631
  629MOL0     C86677   5.138   5.045   1.113  0.3113  0.3101  1.0417
  629MOL0     C86678   5.234   4.973   1.021 -0.8861 -0.1529  0.9700
  629MOL0     C86679   5.378   4.998   1.064  0.0564  0.1304 -0.6285
  629MOL0     C86680   5.467   4.903   0.976 -0.7022  0.9010 -0.2726
  629MOL0     N86681   5.609   4.938   0.990  0.0765  0.4218  0.3804
  629MOL0     C86682   5.658   5.052   0.944 -0.9440 -0.2443 -0.0640
  629MOL0     C86683   5.783   5.068   0.993 -0.6148 -0.3741  1.0936
  629MOL0     C86684   5.874   5.188   0.971  0.2918 -1.5539  0.2561
  629MOL0     C86685   5.953   5.227   1.100  0.3357 -0.1173 -0.4894
  629MOL0     C86686   5.855   5.297   1.208  0.0493  1.2402 -0.0587
  629MOL0     C86687   5.823   5.433   1.169 -0.4865 -0.4592 -0.4421
  629MOL0     O86688   5.795   5.509   1.285 -0.0605  0.1056  0.1436
  629MOL0     C86689   5.666   5.538   1.316 -0.8535 -0.1884  0.0035
  629MOL0     C86690   5.553   5.464   1.277  0.0751 -0.4080  1.3212
  629MOL0     C86691   5.418   5.501   1.286 -1.5455 -0.3675  0.5015
  629MOL0     C86692   5.315   5.399   1.249  0.1874  0.0012 -0.2342
  629MOL0     C86693   5.391   5.603   1.378 -0.0775 -0.1496 -0.1945
  629MOL0     C86694   5.247   5.641   1.419 -0.1713 -0.0217  0.4711
  629MOL0     O86695   5.148   5.605   1.337 -0.2394  0.2621 -0.1757
  629MOL0     C86696   5.023   5.610   1.390 -0.0270  0.0662  0.2245
  629MOL0     C86697   4.955   5.729   1.403  0.4522 -0.0822 -0.9168
  629MOL0     C86698   4.823   5.739   1.439  0.0682  0.4350  0.4099
  629MOL0     C86699   4.748   5.622   1.463  0.5506 -0.1920 -0.2072
  629MOL0     O86700   4.619   5.622   1.504 -0.3981 -0.2130  0.3062
  629MOL0     C86701   4.576   5.695   1.620  0.4777 -0.3064  0.6990
  629MOL0     C86702   4.432   5.743   1.611 -0.4846 -0.0708  0.0567
  629MOL0     C86703   4.341   5.624   1.628 -0.1410 -0.1758 -0.6153
  629MOL0     C86704   4.213   5.659   1.703 -0.2927  0.6998 -0.2868
  629MOL0     C86705   4.156   5.540   1.768  1.3164  0.2226 -0.0577
  629MOL0     C86706   4.008   5.559   1.834 -0.6698 -0.4436 -0.1017
  629MOL0     C86707   3.917   5.435   1.869 -0.0510  0.6204 -0.5645
  629MOL0     C86708   3.781   5.464   1.936 -0.3944 -0.1305 -0.2314
  629MOL0    Cl86709   3.692   5.584   1.857  0.3431  0.1040  0.1486
  629MOL0     C86710   4.818   5.505   1.437 -0.3997  0.6922 -0.0870
  629MOL0     C86711   4.951   5.489   1.404 -0.3401  0.4265 -0.5013
  629MOL0     O86712   5.229   5.683   1.532  0.1731 -0.9076  0.3801
  629MOL0     C86713   5.499   5.686   1.419 -0.1285 -0.8396  0.2958
  629MOL0     C86714   5.632   5.655   1.393 -0.1804  1.0369  0.1928
  629MOL0     N86715   5.806   4.963   1.076 -0.0044  0.5397  0.0972
  629MOL0     N86716   5.700   4.893   1.081  0.4715 -0.2757 -0.6303
  629MOL0     C86717   4.403   5.235   1.318 -0.2757 -1.3359 -0.7075
  629MOL0     C86718   4.302   5.265   1.415 -1.1475  0.2220 -0.7778
  629MOL0     C86719   3.928   5.153   1.617  0.1387  0.2487  0.9329
  629MOL0     C86720   3.934   5.054   1.709  0.1572  0.8789  0.8819
  629MOL0     C86721   3.821   5.011   1.780 -0.0114 -0.1400  1.0314
  629MOL0     C86722   3.700   5.073   1.759  0.6247 -0.2832  0.5340
  629MOL0     O86723   3.598   5.019   1.833 -0.3194  0.4230  0.6521
  629MOL0     C86724   3.471   5.019   1.768  0.3231 -0.9364 -0.0472
  629MOL0     C86725   3.363   4.986   1.877  0.6197  0.2539 -0.3050
  629MOL0     C86726   3.345   5.095   1.982  0.4781 -0.6803 -0.5696
  629MOL0     C86727   3.249   5.068   2.104 -0.3573 -0.5066 -0.2097
  629MOL0     C86728   3.117   5.034   2.055  0.1183  0.7480  0.5429
  629MOL0     C86729   3.000   5.004   2.026 -0.8134 -0.1708 -0.8436
  629MOL0     C86730   3.687   5.180   1.666  0.3937  0.0128  0.5398
  629MOL0     C86731   3.797   5.218   1.590  0.6482  0.6983 -0.4444
  629MOL0     C86732   3.776   5.327   1.501 -0.0143 -0.6660 -1.0139
  629MOL0     H86733   4.315   4.991   1.597 -2.6408  1.9143  1.0526
  629MOL0     H86734   4.502   4.940   1.441 -1.1844 -1.3360 -3.2855
  629MOL0     H86735   4.683   5.258   1.188 -0.5184  0.1486 -0.6822
  629MOL0     H86736   4.562   5.181   1.087 -2.5289 -1.1753  2.7806
  629MOL0     H86737   4.738   4.995   1.044 -0.6162 -0.0752  0.3279
  629MOL0     H86738   4.764   5.165   0.982  0.3325  0.1317  0.7092
  629MOL0     H86739   4.950   5.183   1.164  0.5861 -0.3732 -1.9225
  629MOL0     H86740   4.890   5.021   1.228 -4.1806  0.9363  0.3923
  629MOL0     H86741   4.984   4.919   1.030 -2.1953 -0.0891 -1.6431
  629MOL0     H86742   5.008   5.068   0.951  3.2827 -5.0623 -1.9821
  629MOL0     H86743   5.152   5.003   1.213 -1.1048 -0.5148  0.9125
  629MOL0     H86744   5.165   5.151   1.112  2.1878 -0.1213  1.1027
  629MOL0     H86745   5.210   4.866   1.027 -1.1239 -0.1366  0.3923
  629MOL0     H86746   5.232   5.018   0.921  0.1159  2.7073  2.1335
  629MOL0     H86747   5.399   4.973   1.169 -1.4537 -2.5621 -0.8640
  629MOL0     H86748   5.398   5.102   1.038  2.1498  0.3602  1.5703
  629MOL0     H86749   5.450   4.802   1.013 -1.0055 -0.1451 -3.0339
  629MOL0     H86750   5.434   4.916   0.872  1.9943  2.1110 -1.0744
  629MOL0     H86751   5.624   5.126   0.872 -0.1109  2.5250  2.2061
  629MOL0     H86752   5.830   5.270   0.912 -0.6045 -3.1123 -1.3335
  629MOL0     H86753   5.952   5.167   0.897  1.1354  1.6731  0.0766
  629MOL0     H86754   5.989   5.135   1.147  1.9185  0.3513 -0.7344
  629MOL0     H86755   6.025   5.305   1.077 -1.1500  1.1488 -1.0533
  629MOL0     H86756   5.769   5.239   1.242  2.2344 -1.6363  1.0835
  629MOL0     H86757   5.916   5.316   1.297  1.3280  3.2964 -1.2828
  629MOL0     H86758   5.899   5.500   1.126 -0.6096  0.0112  0.0574
  629MOL0     H86759   5.748   5.427   1.089 -0.2991  0.0718 -0.6645
  629MOL0     H86760   5.562   5.378   1.212  0.4518  1.9516 -1.9808
  629MOL0     H86761   5.358   5.305   1.212 -1.6129 -1.7415  1.8134
  629MOL0     H86762   5.244   5.437   1.175  1.7729  1.9300 -0.8563
  629MOL0     H86763   5.247   5.375   1.331  1.5323 -0.0664  0.9001
  629MOL0     H86764   5.007   5.824   1.409 -1.2931  0.8965 -0.7445
  629MOL0     H86765   4.768   5.829   1.461  0.9848  0.4611  2.9127
  629MOL0     H86766   4.597   5.629   1.706  2.5902 -2.4206 -1.2720
  629MOL0     H86767   4.637   5.783   1.640  1.3549 -1.3993  3.3583
  629MOL0     H86768   4.429   5.803   1.703  2.3924 -0.5134  0.5292
  629MOL0     H86769   4.416   5.802   1.520 -0.6280  1.0265  0.7774
  629MOL0     H86770   4.392   5.561   1.702 -2.8366  0.6535  2.1629
  629MOL0     H86771   4.330   5.573   1.532  0.2446 -0.7595 -0.3576
  629MOL0     H86772   4.153   5.709   1.626 -1.3568 -1.1425 -0.7147
  629MOL0     H86773   4.244   5.724   1.785  0.6056  0.9463 -0.8075
  629MOL0     H86774   4.151   5.460   1.692  0.6982 -1.1325  1.3561
  629MOL0     H86775   4.221   5.494   1.843 -2.0261  0.0478  3.0083
  629MOL0     H86776   3.954   5.615   1.758  2.0590  3.5239  0.5957
  629MOL0     H86777   4.024   5.615   1.927  1.4502 -4.1487  2.0396
  629MOL0     H86778   3.986   5.376   1.931  0.5427 -0.8975 -2.5876
  629MOL0     H86779   3.908   5.373   1.780  0.9639  1.5238 -1.3335
  629MOL0     H86780   3.789   5.492   2.041  1.0646 -0.2435 -0.2912
  629MOL0     H86781   3.720   5.374   1.938 -0.2721 -0.2071  0.0680
  629MOL0     H86782   4.772   5.407   1.440  2.1110 -0.5939 -0.3978
  629MOL0     H86783   4.996   5.395   1.375  0.2808  0.8217 -0.8372
  629MOL0     H86784   5.481   5.772   1.483  2.6412  1.0687 -1.3171
  629MOL0     H86785   5.713   5.724   1.418 -0.4052  1.9990 -1.5694
  629MOL0     H86786   4.418   5.298   1.231 -0.5805 -4.4042 -3.1306
  629MOL0     H86787   4.253   5.359   1.392  0.3196  0.9350 -1.1609
  629MOL0     H86788   4.029   5.008   1.733 -0.2900  0.2723  1.5211
  629MOL0     H86789   3.837   4.934   1.855  1.5318  1.0536  1.9947
  629MOL0     H86790   3.446   5.113   1.719  2.6782  1.1287  2.4304
  629MOL0     H86791   3.479   4.937   1.696  0.6705 -1.9121  1.0656
  629MOL0     H86792   3.393   4.896   1.933 -0.6783  1.7006  2.9870
  629MOL0     H86793   3.266   4.981   1.828  0.5075 -1.1473  0.0223
  629MOL0     H86794   3.451   5.101   2.011  0.4091 -3.8346  0.6877
  629MOL0     H86795   3.312   5.191   1.939  1.4655  0.9704  2.0932
  629MOL0     H86796   3.241   5.159   2.164  1.3413  0.2152 -1.0103
  629MOL0     H86797   3.280   4.982   2.164 -1.4850 -2.0554 -1.7626
  629MOL0     H86798   2.898   4.974   2.019 -0.6516 -2.1756  2.5882
  629MOL0     H86799   3.592   5.222   1.636  1.8064  1.6221 -2.0737
  629MOL0     H86800   3.750   5.282   1.405  0.2796 -1.2065 -0.8484
  629MOL0     H86801   3.692   5.386   1.539  0.2939 -0.4432 -0.6820
  629MOL0     H86802   3.858   5.398   1.508  0.6630 -1.1842 -3.0491
  630MOL0     O86803   7.474   3.319   9.235 -0.0315  0.1155  0.9235
  630MOL0     C86804   7.530   3.286   9.335 -0.9718 -0.0598 -0.3964
  630MOL0     O86805   7.634   3.201   9.340 -0.5260  0.2644  0.5339
  630MOL0     C86806   7.700   3.180   9.219 -0.5549  0.6640 -0.3288
  630MOL0     C86807   7.835   3.210   9.193 -0.0273 -0.1889 -0.6463
  630MOL0     C86808   7.903   3.158   9.087 -0.4264  0.9233  1.3382
  630MOL0     C86809   7.847   3.066   9.001  0.2792  0.2813 -0.1053
  630MOL0     O86810   7.927   2.999   8.918 -0.0116 -0.2769  0.7003
  630MOL0     C86811   7.890   2.995   8.779  0.4379 -0.5898 -0.5603
  630MOL0     C86812   8.014   2.980   8.703 -0.5876  0.7966  0.1690
  630MOL0     C86813   8.108   3.101   8.707 -0.5161 -0.8917  0.4369
  630MOL0     C86814   8.071   3.194   8.578 -0.2695 -0.0241  0.1589
  630MOL0     C86815   8.150   3.141   8.441  1.0296  0.3212 -0.2509
  630MOL0     C86816   8.121   3.246   8.339  0.2507 -0.3660  0.6842
  630MOL0     C86817   8.180   3.217   8.195 -0.0358 -0.6634  0.5184
  630MOL0     C86818   8.199   3.347   8.111  1.2446  0.3963 -0.2834
  630MOL0     N86819   8.223   3.309   7.969  0.6817 -0.0702 -0.3175
  630MOL0     C86820   8.316   3.230   7.912  0.0848  0.6579  0.6307
  630MOL0     C86821   8.263   3.201   7.793  0.5857 -1.4337 -0.1952
  630MOL0     C86822   8.324   3.099   7.704  0.3836 -0.3561  0.1557
  630MOL0     C86823   8.412   3.177   7.599 -0.0814  0.4927  0.6797
  630MOL0     C86824   8.455   3.082   7.486 -0.0303 -0.1634  0.1119
  630MOL0     C86825   8.510   2.945   7.534  0.0834 -0.0621 -0.0513
  630MOL0     O86826   8.563   2.872   7.421  0.4031 -0.4461  0.1085
  630MOL0     C86827   8.694   2.825   7.428  0.7153 -0.2062  0.5886
  630MOL0     C86828   8.759   2.773   7.542  0.2435 -0.2342 -0.0045
  630MOL0     C86829   8.899   2.748   7.554 -0.3596 -0.2934 -0.0930
  630MOL0     C86830   8.934   2.670   7.677 -0.1056  0.4185 -0.0032
  630MOL0     C86831   8.982   2.779   7.442 -0.3204 -0.7171 -0.4744
  630MOL0     C86832   9.125   2.742   7.430 -0.1431 -0.0041  0.1334
  630MOL0     O86833   9.185   2.772   7.307  0.8468  0.7835  0.1551
  630MOL0     C86834   9.312   2.795   7.294  0.6825  0.5671 -0.0979
  630MOL0     C86835   9.401   2.701   7.342 -0.9485 -0.4729 -0.2509
  630MOL0     C86836   9.543   2.712   7.317  1.7656  0.4755 -1.0257
  630MOL0     C86837   9.591   2.812   7.230  0.3355 -0.2201  0.3724
  630MOL0     O86838   9.728   2.816   7.202  0.5487  0.9129  0.3502
  630MOL0     C86839   9.800   2.933   7.164  0.9104 -0.4286 -0.1397
  630MOL0     C86840   9.944   2.897   7.140  0.2809 -0.6657  0.6503
  630MOL0     C86841  10.014   2.865   7.270  0.1347 -0.5529 -0.7038
  630MOL0     C86842  10.142   2.790   7.246 -0.5821 -0.4500 -0.2115
  630MOL0     C86843  10.221   2.739   7.357 -0.0289 -0.2455  0.6872
  630MOL0     C86844  10.346   2.659   7.299  0.1105  0.6962 -0.8339
  630MOL0     C86845  10.412   2.563   7.407 -0.7807  0.3562 -0.3972
  630MOL0     C86846  10.552   2.504   7.357  0.9320 -0.1360 -0.3171
  630MOL0    Cl86847  10.518   2.347   7.270  0.1950  0.0828  0.3379
  630MOL0     C86848   9.495   2.907   7.182 -0.1607  0.3330 -0.3660
  630MOL0     C86849   9.358   2.887   7.202  0.7267  1.1413 -0.6843
  630MOL0     O86850   9.178   2.699   7.534 -0.1639 -0.1379  0.1590
  630MOL0     C86851   8.919   2.839   7.332 -0.0404  0.2369 -0.7929
  630MOL0     C86852   8.780   2.863   7.326 -0.0149 -0.2771 -0.4451
  630MOL0     N86853   8.144   3.265   7.768  0.0143  0.2885  0.2146
  630MOL0     N86854   8.122   3.333   7.877 -0.0580  0.8912  0.1118
  630MOL0     C86855   7.712   3.045   9.013 -0.6778 -0.7723  0.3231
  630MOL0     C86856   7.643   3.088   9.124 -0.3468  0.3322 -0.6179
  630MOL0     C86857   7.467   3.316   9.466  0.1164 -0.9966 -0.2109
  630MOL0     C86858   7.430   3.205   9.552 -0.2303 -0.5487  1.1886
  630MOL0     C86859   7.372   3.239   9.669  0.0270  0.7017 -0.2816
  630MOL0     C86860   7.357   3.365   9.714  0.3977 -0.3751 -0.2653
  630MOL0     O86861   7.314   3.413   9.841 -0.6389  0.6876  0.0172
  630MOL0     C86862   7.236   3.315   9.920 -0.7932 -0.7768  0.8821
  630MOL0     C86863   7.089   3.299   9.869 -0.4138 -0.6811  0.2111
  630MOL0     C86864   7.002   3.216   9.972 -0.7159  0.3157 -0.0040
  630MOL0     C86865   6.946   3.311  10.073 -0.6225  0.1068 -0.1724
  630MOL0     C86866   6.889   3.232  10.186 -0.5521 -0.3761 -0.3643
  630MOL0     C86867   6.851   3.162  10.278  0.2587 -0.4638  0.0961
  630MOL0     C86868   7.406   3.472   9.632  1.2935  0.3774 -0.1784
  630MOL0     C86869   7.458   3.451   9.505 -0.0168 -0.2807  0.6650
  630MOL0     C86870   7.503   3.563   9.415 -0.8412 -0.1269  0.2964
  630MOL0     H86871   7.884   3.280   9.260 -1.9426  2.1446 -1.5157
  630MOL0     H86872   8.008   3.173   9.062 -1.1158  2.9171 -0.6416
  630MOL0     H86873   7.824   3.077   8.747  1.1417 -0.4589 -1.7435
  630MOL0     H86874   7.834   2.902   8.770 -0.3091 -0.4957  2.1743
  630MOL0     H86875   8.065   2.892   8.744 -0.2293  0.2574 -1.3565
  630MOL0     H86876   7.996   2.962   8.597 -1.8507  1.2414  0.2977
  630MOL0     H86877   8.093   3.166   8.793 -1.4961  2.2596 -1.9549
  630MOL0     H86878   8.214   3.073   8.696  0.6637  3.2726 -0.2663
  630MOL0     H86879   7.963   3.194   8.561  0.0722 -1.1039 -2.5427
  630MOL0     H86880   8.097   3.295   8.609  1.8973 -0.7261  0.8147
  630MOL0     H86881   8.108   3.041   8.428  0.2790  0.5225  0.5014
  630MOL0     H86882   8.254   3.130   8.475  0.3511 -0.1347  1.8185
  630MOL0     H86883   8.016   3.276   8.332  1.0526  2.2880 -2.1494
  630MOL0     H86884   8.183   3.331   8.370  1.3232  0.0615 -2.2271
  630MOL0     H86885   8.105   3.162   8.137 -1.9180  1.6093  0.6488
  630MOL0     H86886   8.273   3.161   8.213  0.8515 -0.7129 -3.4278
  630MOL0     H86887   8.128   3.431   8.120 -0.4485 -1.0246  0.1756
  630MOL0     H86888   8.293   3.388   8.148  0.4999 -1.2623  4.0507
  630MOL0     H86889   8.408   3.192   7.955  0.9561  1.9337 -0.0285
  630MOL0     H86890   8.249   3.048   7.641  1.9630 -4.2281  1.1174
  630MOL0     H86891   8.384   3.026   7.758 -3.3828 -2.0022  2.5722
  630MOL0     H86892   8.372   3.268   7.554  2.6726  2.7564  2.4255
  630MOL0     H86893   8.500   3.205   7.658 -0.6373 -4.5928  4.6519
  630MOL0     H86894   8.365   3.058   7.428  0.9133 -2.4396 -0.5042
  630MOL0     H86895   8.527   3.123   7.414 -1.1307 -2.2985 -2.3498
  630MOL0     H86896   8.585   2.950   7.614  0.0922  1.5056 -0.1096
  630MOL0     H86897   8.422   2.889   7.566  0.7751  0.2195  2.5941
  630MOL0     H86898   8.689   2.741   7.619 -2.6743  0.8708 -2.0200
  630MOL0     H86899   8.849   2.619   7.723  0.9083  0.2679  1.8001
  630MOL0     H86900   8.959   2.736   7.761 -1.2909  0.0337  0.6774
  630MOL0     H86901   9.003   2.588   7.661 -2.0882 -1.0709 -1.3651
  630MOL0     H86902   9.364   2.620   7.405 -2.9371  1.6388  1.4385
  630MOL0     H86903   9.612   2.642   7.365  1.4913  1.3415  0.7370
  630MOL0     H86904   9.762   2.958   7.064  0.5613 -1.0260 -0.1640
  630MOL0     H86905   9.777   3.016   7.232 -0.3924 -1.2268  0.4223
  630MOL0     H86906   9.946   2.802   7.086  0.0284 -0.4727  0.3082
  630MOL0     H86907   9.989   2.984   7.091 -0.8547  1.3541  2.9895
  630MOL0     H86908   9.954   2.795   7.329  0.5591 -1.0255 -0.8347
  630MOL0     H86909  10.025   2.955   7.331 -2.1925  0.8998 -2.2355
  630MOL0     H86910  10.213   2.846   7.185  3.8548 -3.4087  1.6383
  630MOL0     H86911  10.099   2.700   7.200 -2.6536 -0.0343  0.7893
  630MOL0     H86912  10.238   2.823   7.425  0.6282 -0.2060  0.4712
  630MOL0     H86913  10.160   2.672   7.419  0.0913  1.0080  2.2452
  630MOL0     H86914  10.420   2.739   7.287  1.3092 -0.0989  0.7560
  630MOL0     H86915  10.320   2.599   7.211 -2.1197 -0.8979  0.7990
  630MOL0     H86916  10.347   2.478   7.431  2.8490 -2.4953  0.2099
  630MOL0     H86917  10.421   2.624   7.498 -2.8544 -0.1519  0.2158
  630MOL0     H86918  10.609   2.469   7.444 -1.6133 -1.5454  0.9040
  630MOL0     H86919  10.607   2.575   7.295 -0.1212 -1.0383 -2.3905
  630MOL0     H86920   9.510   2.993   7.118 -0.8665  0.8597  0.1662
  630MOL0     H86921   9.289   2.961   7.164 -2.0708 -0.4846  0.8920
  630MOL0     H86922   8.971   2.900   7.258 -0.8506  1.3320 -0.4860
  630MOL0     H86923   8.728   2.928   7.257 -0.4426  2.7433  2.5222
  630MOL0     H86924   7.668   2.969   8.949 -0.6120 -0.3282 -0.2608
  630MOL0     H86925   7.541   3.063   9.149  0.0638 -0.3836  0.3898
  630MOL0     H86926   7.435   3.104   9.515 -1.2117 -0.4492  0.7494
  630MOL0     H86927   7.354   3.158   9.739  5.5334  0.0978  0.8847
  630MOL0     H86928   7.274   3.212   9.925 -2.1652 -1.3037  0.7869
  630MOL0     H86929   7.237   3.342  10.025 -3.6374  0.5794  0.6402
  630MOL0     H86930   7.089   3.261   9.766  0.1769  0.5106 -0.2574
  630MOL0     H86931   7.045   3.399   9.862 -0.8781 -0.9789 -1.9889
  630MOL0     H86932   6.917   3.158   9.933 -0.8303 -0.9282  1.9639
  630MOL0     H86933   7.066   3.140  10.017  0.3598 -1.1247 -3.5782
  630MOL0     H86934   6.871   3.374  10.023 -2.5088 -3.3824 -2.1597
  630MOL0     H86935   7.030   3.369  10.110 -0.7120  0.9244 -1.2047
  630MOL0     H86936   6.824   3.106  10.365 -3.3046 -0.3424 -0.7779
  630MOL0     H86937   7.398   3.575   9.664  0.6390 -0.0827  1.2670
  630MOL0     H86938   7.444   3.559   9.323 -1.8736  1.7405  0.8295
  630MOL0     H86939   7.487   3.664   9.455  0.6362  0.2852 -0.0997
  630MOL0     H86940   7.604   3.537   9.384 -1.0472 -0.0988 -0.4121
  631MOL0     O86941   6.651   7.714  10.454 -0.5540 -0.3577  0.6987
  631MOL0     C86942   6.693   7.688  10.561  1.0268 -0.1345  0.2090
  631MOL0     O86943   6.757   7.565  10.599 -0.2826 -0.1650  0.5042
  631MOL0     C86944   6.835   7.483  10.509  0.8615 -0.0571  0.2946
  631MOL0     C86945   6.797   7.460  10.387 -0.0182 -0.5340  0.0293
  631MOL0     C86946   6.863   7.376  10.304 -0.0091 -0.4315 -0.7599
  631MOL0     C86947   6.979   7.302  10.341  0.0399  0.9468 -0.1246
  631MOL0     O86948   7.049   7.222  10.262 -0.1308  0.4852  0.1604
  631MOL0     C86949   6.980   7.160  10.156 -0.6661  0.5779  0.2224
  631MOL0     C86950   7.041   7.024  10.107 -0.6247 -0.9272  0.7421
  631MOL0     C86951   7.170   7.039  10.022 -1.1492 -1.1107  0.0133
  631MOL0     C86952   7.212   6.909   9.951 -0.3117 -1.1480  0.5893
  631MOL0     C86953   7.360   6.886   9.912 -0.4438  0.1233  0.1546
  631MOL0     C86954   7.361   6.743   9.842 -0.2418 -0.0965 -0.0457
  631MOL0     C86955   7.503   6.712   9.794 -0.2551  0.4562  0.1867
  631MOL0     C86956   7.586   6.620   9.892 -0.2111  1.1181  0.0676
  631MOL0     N86957   7.663   6.695   9.993 -0.3815 -0.1530 -0.1390
  631MOL0     C86958   7.733   6.810   9.978  0.1569  0.4661  0.9523
  631MOL0     C86959   7.793   6.830  10.095 -0.5821 -0.4181  0.7812
  631MOL0     C86960   7.899   6.942  10.112 -0.0940  1.1977  1.0016
  631MOL0     C86961   7.890   7.070  10.024 -0.3816  0.6518  0.6796
  631MOL0     C86962   7.980   7.185  10.078  0.0619 -0.2337  0.5663
  631MOL0     C86963   7.918   7.273  10.185  0.3602  0.6037  0.3322
  631MOL0     O86964   7.893   7.184  10.302  0.1504 -0.1367  0.4842
  631MOL0     C86965   7.888   7.236  10.428  0.4931 -1.0088 -0.7742
  631MOL0     C86966   7.871   7.152  10.537 -0.5922 -0.2659 -0.2356
  631MOL0     C86967   7.854   7.206  10.671  0.2955  0.9773 -0.7817
  631MOL0     C86968   7.836   7.111  10.784 -0.6369  0.2234 -0.6218
  631MOL0     C86969   7.869   7.340  10.688  0.2329 -0.8101 -0.4952
  631MOL0     C86970   7.873   7.406  10.825 -0.1930  0.4026  0.1270
  631MOL0     O86971   7.923   7.333  10.933  0.5284  0.7937 -0.9012
  631MOL0     C86972   7.949   7.431  11.039 -0.1040  0.5954 -0.4681
  631MOL0     C86973   8.081   7.450  11.072 -0.5623  0.7244 -0.7794
  631MOL0     C86974   8.119   7.526  11.182 -0.7903  1.5414  0.3814
  631MOL0     C86975   8.019   7.579  11.266  0.2295  0.3390 -0.4495
  631MOL0     O86976   8.066   7.667  11.363 -0.5548  0.4950  0.3942
  631MOL0     C86977   7.975   7.772  11.391 -0.1120  0.4808  0.8340
  631MOL0     C86978   8.036   7.875  11.497 -0.4053 -0.0657 -1.0158
  631MOL0     C86979   8.116   7.799  11.612  0.0674 -0.0934  0.0033
  631MOL0     C86980   8.173   7.896  11.712  0.8617  0.0689  0.5815
  631MOL0     C86981   8.190   7.854  11.854 -0.4630  0.0830  0.3975
  631MOL0     C86982   8.309   7.766  11.878 -0.8543  0.8358 -0.5972
  631MOL0     C86983   8.450   7.827  11.866 -0.4181  0.1742 -0.4159
  631MOL0     C86984   8.539   7.748  11.769 -0.4321 -0.1876  0.3035
  631MOL0    Cl86985   8.570   7.579  11.842 -0.3001 -0.1666  0.0086
  631MOL0     C86986   7.886   7.547  11.240  0.4970 -0.3094  0.3116
  631MOL0     C86987   7.854   7.478  11.125  0.0703 -0.0924  0.2777
  631MOL0     O86988   7.832   7.521  10.823  0.0215  0.4348  0.3976
  631MOL0     C86989   7.872   7.424  10.577 -1.4327 -0.5325 -0.1700
  631MOL0     C86990   7.899   7.372  10.458  1.2180  0.1735  0.1784
  631MOL0     N86991   7.750   6.733  10.187 -0.1659  0.1770 -0.4517
  631MOL0     N86992   7.695   6.647  10.117 -0.1369 -0.9066 -0.1002
  631MOL0     C86993   7.032   7.352  10.463  0.2631  0.7650  0.3491
  631MOL0     C86994   6.954   7.428  10.547  0.2317 -0.6423 -0.7201
  631MOL0     C86995   6.663   7.784  10.664 -0.8861 -0.5793 -0.3816
  631MOL0     C86996   6.718   7.754  10.790 -0.5421 -0.0730  0.4139
  631MOL0     C86997   6.700   7.830  10.905 -0.7869 -0.4114 -1.2651
  631MOL0     C86998   6.633   7.952  10.887 -0.8218 -0.1960  0.4562
  631MOL0     O86999   6.611   8.035  11.003  0.0616  0.9255 -0.1389
  631MOL0     C87000   6.639   8.173  10.985  0.0219  0.1793 -0.0918
  631MOL0     C87001   6.596   8.245  11.112  0.3346 -0.4648 -0.3586
  631MOL0     C87002   6.435   8.258  11.123  0.6042 -0.3659 -0.0855
  631MOL0     C87003   6.389   8.352  11.228 -0.8500 -0.1798 -0.3916
  631MOL0     C87004   6.385   8.486  11.169  0.5030 -0.2351  0.0049
  631MOL0     C87005   6.351   8.593  11.121  0.1439 -0.4971 -0.3149
  631MOL0     C87006   6.583   7.987  10.761 -0.0312  0.5021  0.3236
  631MOL0     C87007   6.589   7.903  10.653  0.0900  0.2676  0.5108
  631MOL0     C87008   6.533   7.961  10.525  0.3807  0.4133  0.0764
  631MOL0     H87009   6.706   7.503  10.345  0.9998 -0.5679 -2.3720
  631MOL0     H87010   6.825   7.374  10.202 -0.8150 -1.6490 -0.4682
  631MOL0     H87011   6.971   7.229  10.071  1.4235  2.2559  1.2646
  631MOL0     H87012   6.880   7.129  10.187 -2.1515  1.1582 -3.4736
  631MOL0     H87013   7.040   6.934  10.169 -3.1133 -2.7427 -1.6694
  631MOL0     H87014   6.966   6.996  10.033  0.9427 -0.6942 -1.0171
  631MOL0     H87015   7.149   7.114   9.945 -2.1944  0.3121  1.5951
  631MOL0     H87016   7.247   7.082  10.086  1.0197 -1.2219 -2.4051
  631MOL0     H87017   7.191   6.827  10.019  1.2084 -0.9507  1.3422
  631MOL0     H87018   7.148   6.898   9.863 -0.1040 -2.1764  0.5551
  631MOL0     H87019   7.432   6.877   9.993 -1.4342 -1.5183  0.9037
  631MOL0     H87020   7.399   6.966   9.848 -1.1376  0.7649  0.5229
  631MOL0     H87021   7.333   6.657   9.903  2.7703 -2.3338 -1.5466
  631MOL0     H87022   7.298   6.744   9.753  1.7876  2.2517 -1.5988
  631MOL0     H87023   7.556   6.795   9.748  1.5169 -0.9776 -0.4919
  631MOL0     H87024   7.483   6.648   9.708 -2.3060  0.6038  0.4892
  631MOL0     H87025   7.520   6.544   9.933  0.1056  1.6778  1.7185
  631MOL0     H87026   7.663   6.570   9.833 -1.2641 -0.1085 -0.3118
  631MOL0     H87027   7.734   6.881   9.895 -2.1232  1.0036  1.3068
  631MOL0     H87028   7.994   6.902  10.075 -0.0416  2.9810 -0.9607
  631MOL0     H87029   7.904   6.972  10.217 -0.2083  1.4010  0.9486
  631MOL0     H87030   7.921   7.049   9.921  0.5308  1.1791  0.8347
  631MOL0     H87031   7.787   7.102  10.010 -0.5299 -0.0330  0.1599
  631MOL0     H87032   8.082   7.159  10.106  0.4417  3.0988  2.9308
  631MOL0     H87033   7.991   7.258   9.998  1.0892 -1.8915 -0.8755
  631MOL0     H87034   7.987   7.356  10.207 -2.7807  3.1448  1.3812
  631MOL0     H87035   7.826   7.323  10.153 -0.1378  1.7373  3.2503
  631MOL0     H87036   7.870   7.044  10.523  2.6489 -0.6571  1.6612
  631MOL0     H87037   7.937   7.096  10.822 -0.4337  1.3905 -0.6455
  631MOL0     H87038   7.799   7.013  10.754 -1.0349  0.4562 -0.9108
  631MOL0     H87039   7.778   7.155  10.866 -0.5907  1.3120 -1.1449
  631MOL0     H87040   8.159   7.409  11.009 -3.1360  0.0056 -3.7390
  631MOL0     H87041   8.220   7.537  11.219  0.0777  0.1744 -1.3907
  631MOL0     H87042   7.960   7.832  11.301 -0.0602  0.6970  0.9683
  631MOL0     H87043   7.874   7.741  11.420  0.6864 -4.2429 -0.5162
  631MOL0     H87044   8.102   7.950  11.452 -0.6171  0.2926 -0.7307
  631MOL0     H87045   7.957   7.937  11.539  0.7874  2.0596 -1.7699
  631MOL0     H87046   8.203   7.737  11.587  0.5985  0.0622  1.3897
  631MOL0     H87047   8.029   7.746  11.653 -2.0887  2.4581 -1.0132
  631MOL0     H87048   8.109   7.985  11.717  0.1042 -0.3944 -0.4144
  631MOL0     H87049   8.270   7.931  11.674  1.0096 -0.5370  0.3836
  631MOL0     H87050   8.203   7.947  11.909  1.5110  0.8243 -1.2135
  631MOL0     H87051   8.105   7.798  11.896 -0.4711 -3.5840 -3.7599
  631MOL0     H87052   8.299   7.686  11.804  1.6537  1.2209 -1.4293
  631MOL0     H87053   8.305   7.733  11.983  0.2556  0.2376 -0.7276
  631MOL0     H87054   8.499   7.828  11.964 -0.2056  1.9022 -0.5090
  631MOL0     H87055   8.447   7.932  11.836 -1.2497 -0.0924 -1.3110
  631MOL0     H87056   8.639   7.792  11.760 -0.8462  0.5886 -0.6413
  631MOL0     H87057   8.488   7.734  11.674 -1.3579 -0.5452  0.8432
  631MOL0     H87058   7.808   7.580  11.308  0.7288 -1.0729  0.9559
  631MOL0     H87059   7.750   7.457  11.099  0.1309 -1.6048  1.1867
  631MOL0     H87060   7.874   7.532  10.584 -1.6831 -0.4952 -0.6265
  631MOL0     H87061   7.902   7.441  10.373 -0.4753  0.9510  0.7125
  631MOL0     H87062   7.123   7.308  10.502 -0.3833 -0.5254  0.4474
  631MOL0     H87063   6.996   7.440  10.646  3.0666 -0.7083 -1.8379
  631MOL0     H87064   6.771   7.660  10.803  2.1232  1.1162 -1.0797
  631MOL0     H87065   6.748   7.816  11.001 -1.1042  1.0354 -0.8730
  631MOL0     H87066   6.747   8.189  10.972  0.0993  1.1344  1.4087
  631MOL0     H87067   6.595   8.222  10.898  3.5790  0.0543 -2.1864
  631MOL0     H87068   6.643   8.343  11.106  1.7297 -0.9062  1.8019
  631MOL0     H87069   6.625   8.181  11.197 -2.8870  0.4547  1.6041
  631MOL0     H87070   6.393   8.284  11.025  0.9451 -1.1589 -0.4469
  631MOL0     H87071   6.395   8.161  11.155  1.5841 -0.3857  1.1360
  631MOL0     H87072   6.455   8.358  11.316  0.2968  2.6649 -1.3201
  631MOL0     H87073   6.286   8.323  11.249 -0.7042  0.5518  1.5268
  631MOL0     H87074   6.337   8.676  11.056  2.5236 -1.5347 -2.3480
  631MOL0     H87075   6.532   8.082  10.750  0.1416  0.3139 -2.7517
  631MOL0     H87076   6.428   7.988  10.543 -0.1758 -0.5854 -1.4439
  631MOL0     H87077   6.575   8.059  10.502 -2.0516  2.3438  3.0532
  631MOL0     H87078   6.522   7.904  10.432 -1.5086 -1.5446  1.3681
  632MOL0     O87079   6.665   7.009   6.082  0.1809 -0.0283 -0.0639
  632MOL0     C87080   6.634   7.064   6.192 -0.0585  0.0723 -0.4036
  632MOL0     O87081   6.703   7.050   6.308 -0.3314 -0.3751  0.1701
  632MOL0     C87082   6.782   6.943   6.321  0.5922 -0.8175 -0.3526
  632MOL0     C87083   6.737   6.815   6.361  0.9176 -0.5044  0.0493
  632MOL0     C87084   6.823   6.708   6.353 -1.4342 -0.6919 -1.6119
  632MOL0     C87085   6.956   6.721   6.292  0.2804 -0.1099  0.0129
  632MOL0     O87086   7.047   6.619   6.275  0.3774 -0.1702 -0.2801
  632MOL0     C87087   7.025   6.492   6.334 -0.3613 -0.1567 -0.4613
  632MOL0     C87088   7.118   6.381   6.294 -0.8325 -0.3858  0.3154
  632MOL0     C87089   7.264   6.390   6.327 -0.3328 -0.6302  0.7370
  632MOL0     C87090   7.275   6.388   6.489 -1.0982  0.7160  0.0642
  632MOL0     C87091   7.419   6.384   6.536 -0.2543  0.2883  0.6084
  632MOL0     C87092   7.440   6.368   6.681 -0.5823 -0.0185  0.0234
  632MOL0     C87093   7.589   6.358   6.721 -0.9182  0.4864 -0.4581
  632MOL0     C87094   7.677   6.253   6.646  0.1700 -0.5340  0.6400
  632MOL0     N87095   7.625   6.121   6.688 -0.1533  0.1075 -0.3464
  632MOL0     C87096   7.685   6.045   6.780  0.0572 -0.6227 -0.1104
  632MOL0     C87097   7.628   5.926   6.768 -0.7191 -1.3486 -0.0395
  632MOL0     C87098   7.640   5.812   6.865  0.2113  0.2765 -0.4675
  632MOL0     C87099   7.769   5.745   6.884  0.1132  0.0592 -0.8686
  632MOL0     C87100   7.830   5.683   6.747  0.5360 -1.1115 -0.0483
  632MOL0     C87101   7.876   5.795   6.646  0.8691  1.0406 -0.6226
  632MOL0     O87102   7.788   5.831   6.537 -0.4156 -0.0921  0.0806
  632MOL0     C87103   7.805   5.949   6.464  0.2316 -0.4785 -0.1415
  632MOL0     C87104   7.917   6.038   6.472 -0.1219 -0.8679  0.1513
  632MOL0     C87105   7.922   6.148   6.391 -0.2336 -0.6412 -0.8450
  632MOL0     C87106   8.050   6.234   6.395 -0.3378  0.0700  0.8527
  632MOL0     C87107   7.811   6.187   6.310 -0.2153 -0.0795 -0.6961
  632MOL0     C87108   7.797   6.317   6.228 -0.7050  1.1326 -0.8425
  632MOL0     O87109   7.676   6.383   6.237 -0.4826  0.4318  0.3227
  632MOL0     C87110   7.660   6.507   6.170  0.5292  0.8401 -0.2707
  632MOL0     C87111   7.631   6.509   6.027  1.2345 -0.1603  0.5013
  632MOL0     C87112   7.600   6.619   5.951 -0.5334 -0.4069 -0.1137
  632MOL0     C87113   7.598   6.741   6.019  0.1027  0.4385 -0.1060
  632MOL0     O87114   7.570   6.858   5.962 -0.1373  0.2690 -0.3546
  632MOL0     C87115   7.428   6.883   5.976 -0.0614  0.1661 -0.2206
  632MOL0     C87116   7.383   6.986   5.863  1.0985  0.4438  0.1961
  632MOL0     C87117   7.238   7.020   5.890  0.3630 -0.0866  0.2862
  632MOL0     C87118   7.197   7.155   5.809  0.0602 -0.2600 -0.6198
  632MOL0     C87119   7.052   7.165   5.795  1.4381  0.3558  0.3083
  632MOL0     C87120   7.014   7.287   5.721  1.0982 -0.9414 -1.0463
  632MOL0     C87121   6.863   7.278   5.691 -0.4531 -0.0582  0.1983
  632MOL0     C87122   6.820   7.382   5.586 -0.2058 -0.7539  0.4080
  632MOL0    Cl87123   6.655   7.437   5.634  0.4527  0.2015  0.2352
  632MOL0     C87124   7.634   6.752   6.151  0.1181 -0.2791  0.0309
  632MOL0     C87125   7.661   6.637   6.229  0.2891 -0.7426  0.3468
  632MOL0     O87126   7.895   6.361   6.179 -0.9435 -0.1997  0.1077
  632MOL0     C87127   7.703   6.111   6.318 -0.2779 -0.3800  0.2216
  632MOL0     C87128   7.695   5.997   6.388  0.1806  0.0676  0.1255
  632MOL0     N87129   7.521   5.933   6.678 -0.4133 -0.3985  0.7012
  632MOL0     N87130   7.521   6.055   6.628  0.7430  0.3551 -0.0356
  632MOL0     C87131   6.995   6.846   6.250 -0.2307  0.0630 -0.8692
  632MOL0     C87132   6.910   6.956   6.274 -0.0270 -0.2726  0.0593
  632MOL0     C87133   6.516   7.157   6.200 -0.4775 -0.2856 -0.0992
  632MOL0     C87134   6.463   7.172   6.329  0.0091  0.4074  0.3400
  632MOL0     C87135   6.334   7.219   6.356 -0.0212  0.0198  0.1437
  632MOL0     C87136   6.247   7.261   6.249  0.2570  0.8575  0.5230
  632MOL0     O87137   6.119   7.302   6.272  0.1895 -0.2128 -0.5545
  632MOL0     C87138   6.047   7.253   6.398  0.1216  0.0122  0.4305
  632MOL0     C87139   5.918   7.338   6.405 -0.1030 -0.3453 -0.7287
  632MOL0     C87140   5.809   7.302   6.515 -0.2528  0.2050  0.2652
  632MOL0     C87141   5.711   7.415   6.558 -0.4836  0.7503  0.1079
  632MOL0     C87142   5.608   7.445   6.453  0.7829 -1.2042  0.4415
  632MOL0     C87143   5.516   7.443   6.368  1.1161  0.6067 -0.1104
  632MOL0     C87144   6.307   7.258   6.124  0.2237 -0.2083 -0.0614
  632MOL0     C87145   6.441   7.214   6.094 -0.2405  0.5355 -0.1186
  632MOL0     C87146   6.491   7.208   5.948  0.2535  0.7268  0.9327
  632MOL0     H87147   6.642   6.820   6.412  1.5199 -0.3681  1.1981
  632MOL0     H87148   6.782   6.616   6.395  1.9450 -2.0866 -1.0060
  632MOL0     H87149   6.924   6.452   6.330 -0.1368 -0.7643 -0.1952
  632MOL0     H87150   7.043   6.503   6.441 -1.8140 -0.8114 -0.1369
  632MOL0     H87151   7.078   6.294   6.346 -2.1773  1.2814  2.2355
  632MOL0     H87152   7.118   6.359   6.187  0.5268 -1.2495  0.4700
  632MOL0     H87153   7.308   6.299   6.286 -0.4079  0.2825 -1.4872
  632MOL0     H87154   7.294   6.482   6.276  1.1925 -1.6765 -0.3537
  632MOL0     H87155   7.226   6.469   6.544  0.2618  1.6485 -0.0296
  632MOL0     H87156   7.223   6.296   6.515 -0.1429  0.3339  0.6655
  632MOL0     H87157   7.465   6.470   6.486 -1.5990 -0.3836 -1.9764
  632MOL0     H87158   7.465   6.301   6.482  0.7679  1.9570 -1.2037
  632MOL0     H87159   7.412   6.460   6.733  0.2252 -1.6158  3.5542
  632MOL0     H87160   7.379   6.288   6.723  1.5327 -1.3247  0.7762
  632MOL0     H87161   7.592   6.329   6.827 -1.3929  1.6715 -0.1009
  632MOL0     H87162   7.631   6.459   6.718  0.0418  0.1504  0.8212
  632MOL0     H87163   7.656   6.273   6.541 -0.0655  0.8479  0.9338
  632MOL0     H87164   7.783   6.269   6.667  0.0940  3.3144 -1.0974
  632MOL0     H87165   7.769   6.059   6.847  1.7296 -3.0402 -1.5507
  632MOL0     H87166   7.558   5.745   6.834  0.9431 -2.4585  2.8545
  632MOL0     H87167   7.610   5.865   6.956  3.7735 -0.5746  1.4008
  632MOL0     H87168   7.840   5.816   6.929  2.6062 -2.2761 -0.9020
  632MOL0     H87169   7.744   5.660   6.948  2.6403 -0.0624  0.0730
  632MOL0     H87170   7.912   5.627   6.791  1.3704 -0.0053 -0.1304
  632MOL0     H87171   7.769   5.610   6.693 -2.2764  2.5232 -2.2981
  632MOL0     H87172   7.912   5.881   6.704 -1.9145  0.6798  1.8520
  632MOL0     H87173   7.970   5.759   6.602  1.4687  2.1750 -0.3158
  632MOL0     H87174   8.008   6.014   6.526  1.3331  0.3236 -1.6629
  632MOL0     H87175   8.109   6.213   6.305 -2.8147 -1.1451 -0.6100
  632MOL0     H87176   8.107   6.218   6.487  4.2609  1.0020 -1.5482
  632MOL0     H87177   8.018   6.339   6.394  1.8333  0.8008  1.3175
  632MOL0     H87178   7.625   6.415   5.972 -1.7865 -0.1969  0.6821
  632MOL0     H87179   7.590   6.611   5.843  0.7992  3.4875 -0.6844
  632MOL0     H87180   7.376   6.787   5.971  2.2281 -1.3323  2.0894
  632MOL0     H87181   7.405   6.935   6.069 -2.1044 -2.5400  0.9198
  632MOL0     H87182   7.443   7.077   5.874  2.5884 -0.5203  0.3688
  632MOL0     H87183   7.403   6.959   5.759  0.6793  0.6148  0.0677
  632MOL0     H87184   7.230   7.049   5.996  0.0753 -0.0697  0.2604
  632MOL0     H87185   7.182   6.928   5.871  0.3406 -0.5420  2.2908
  632MOL0     H87186   7.253   7.163   5.715 -1.3285 -1.9487 -1.6693
  632MOL0     H87187   7.225   7.244   5.865  2.6712 -1.9180  0.9694
  632MOL0     H87188   7.016   7.072   5.751  0.8866 -0.5630  2.5217
  632MOL0     H87189   7.009   7.178   5.895 -0.1202  1.6763 -0.4986
  632MOL0     H87190   7.066   7.299   5.625  1.4758  0.0781 -0.7197
  632MOL0     H87191   7.030   7.381   5.774  0.2343 -0.0982 -2.2413
  632MOL0     H87192   6.810   7.300   5.784 -0.7805  0.7651 -0.1791
  632MOL0     H87193   6.838   7.183   5.642 -2.7740  0.3296  0.5289
  632MOL0     H87194   6.821   7.334   5.488 -2.3863  2.3429 -1.3144
  632MOL0     H87195   6.892   7.464   5.585  0.7084 -1.5295  0.7796
  632MOL0     H87196   7.641   6.849   6.199  0.4727 -0.8438  1.1470
  632MOL0     H87197   7.662   6.633   6.338 -2.5888 -3.2351  0.4364
  632MOL0     H87198   7.616   6.136   6.258 -0.1849 -1.2101 -0.2721
  632MOL0     H87199   7.607   5.935   6.402  0.2244 -0.4603 -1.7075
  632MOL0     H87200   7.090   6.857   6.199  0.5841 -1.1256  0.3298
  632MOL0     H87201   6.950   7.055   6.253  2.0985 -0.3547  2.9878
  632MOL0     H87202   6.528   7.140   6.410 -0.3958 -3.4123 -0.6200
  632MOL0     H87203   6.304   7.212   6.460  2.5905  1.8439  1.1220
  632MOL0     H87204   6.011   7.150   6.386 -0.2169  0.2279 -0.5112
  632MOL0     H87205   6.105   7.267   6.489 -0.2222  0.2927  0.6063
  632MOL0     H87206   5.866   7.347   6.309  2.0237  0.9376 -1.8440
  632MOL0     H87207   5.937   7.445   6.420 -1.6051 -0.3916  2.3662
  632MOL0     H87208   5.750   7.216   6.478 -1.0571  0.5190  0.7904
  632MOL0     H87209   5.862   7.267   6.604 -0.5398  0.3199  0.4849
  632MOL0     H87210   5.767   7.505   6.585 -1.2754  1.4988 -0.6713
  632MOL0     H87211   5.657   7.391   6.650  1.3508  0.3358  1.1186
  632MOL0     H87212   5.443   7.445   6.290  1.6557  0.8592 -0.6186
  632MOL0     H87213   6.245   7.292   6.042 -0.8886 -0.6274  0.5899
  632MOL0     H87214   6.443   7.295   5.902 -2.2044 -0.0082  1.9245
  632MOL0     H87215   6.599   7.194   5.939 -0.2008 -2.6722 -0.5253
  632MOL0     H87216   6.447   7.123   5.896 -1.4385  0.7146  2.2825
  633MOL0     O87217   1.702   4.002   0.887  0.0191 -0.3471 -0.4305
  633MOL0     C87218   1.816   3.958   0.889 -0.0395 -0.2991  0.5446
  633MOL0     O87219   1.874   3.863   0.795  0.1093  0.3468  0.0971
  633MOL0     C87220   1.803   3.845   0.678 -1.0262 -0.5994  0.2925
  633MOL0     C87221   1.863   3.889   0.557  0.4749 -1.1730 -1.1699
  633MOL0     C87222   1.789   3.880   0.435 -0.3839  0.6427  0.0183
  633MOL0     C87223   1.660   3.822   0.428  0.2343  1.0076  0.5330
  633MOL0     O87224   1.582   3.811   0.312 -0.0399 -0.3827 -0.1043
  633MOL0     C87225   1.625   3.887   0.197  0.4236 -0.2322  0.1263
  633MOL0     C87226   1.530   3.887   0.082  0.5751 -0.0375  0.2476
  633MOL0     C87227   1.545   3.754   0.006 -0.0978  0.8106  1.1369
  633MOL0     C87228   1.450   3.727  -0.114  1.1821  0.0728  1.0638
  633MOL0     C87229   1.435   3.577  -0.139 -0.8165 -0.9188 -0.2300
  633MOL0     C87230   1.554   3.521  -0.218  0.1486  0.4685  0.3076
  633MOL0     C87231   1.577   3.366  -0.192  0.4298  0.0956  0.4031
  633MOL0     C87232   1.695   3.318  -0.279 -0.1546  0.2644  0.5142
  633MOL0     N87233   1.831   3.363  -0.242  0.1225  0.0950  0.0065
  633MOL0     C87234   1.908   3.299  -0.149 -0.4530  0.8329 -0.5104
  633MOL0     C87235   2.022   3.373  -0.140 -0.4210  0.4364  0.4366
  633MOL0     C87236   2.136   3.363  -0.051 -0.0499 -0.1203 -0.9275
  633MOL0     C87237   2.129   3.241   0.046 -0.3152 -0.0910 -0.2247
  633MOL0     C87238   2.239   3.240   0.151  0.2153 -0.5037 -0.3665
  633MOL0     C87239   2.221   3.141   0.260  0.5273 -0.6020 -0.1185
  633MOL0     O87240   2.340   3.057   0.276  0.1856 -0.2302  0.0509
  633MOL0     C87241   2.321   2.920   0.323  0.4509  0.0194 -0.2404
  633MOL0     C87242   2.426   2.826   0.304  0.7347 -0.1439 -0.4236
  633MOL0     C87243   2.422   2.694   0.342  0.0678 -0.2488  0.4153
  633MOL0     C87244   2.540   2.607   0.339  0.6295  0.2837  0.3623
  633MOL0     C87245   2.294   2.648   0.391  1.3688 -1.0263  0.1812
  633MOL0     C87246   2.279   2.521   0.459 -0.3878 -0.4764 -0.3138
  633MOL0     O87247   2.295   2.508   0.591 -0.4348  0.1487 -0.7970
  633MOL0     C87248   2.276   2.388   0.663  0.6777  0.7599  0.3390
  633MOL0     C87249   2.198   2.274   0.618  0.0439 -0.5984 -0.3096
  633MOL0     C87250   2.205   2.158   0.676  0.1942  0.1982 -0.3277
  633MOL0     C87251   2.267   2.144   0.801 -0.5640  0.9569 -0.6033
  633MOL0     O87252   2.273   2.022   0.861  0.5845 -0.1511 -0.0914
  633MOL0     C87253   2.165   1.926   0.849 -0.6042 -0.0254  0.4610
  633MOL0     C87254   2.101   1.912   0.986 -0.2012  0.1260  0.0952
  633MOL0     C87255   1.963   1.845   0.991 -0.2506  0.7153  0.0222
  633MOL0     C87256   1.920   1.839   1.136  0.5449  0.3232  0.2230
  633MOL0     C87257   1.786   1.904   1.153 -0.7500  0.1094 -0.2279
  633MOL0     C87258   1.673   1.827   1.090  0.5318 -0.6421  0.6083
  633MOL0     C87259   1.625   1.718   1.195  0.1085  1.4603  0.2760
  633MOL0     C87260   1.549   1.598   1.152 -0.4905  0.3185  1.0952
  633MOL0    Cl87261   1.490   1.524   1.293  0.7009  0.0389 -0.1624
  633MOL0     C87262   2.334   2.249   0.862  0.0372  0.4065  0.3641
  633MOL0     C87263   2.341   2.370   0.787  0.0105 -0.4458 -1.3665
  633MOL0     O87264   2.262   2.430   0.374 -0.4612 -0.2243 -0.3249
  633MOL0     C87265   2.185   2.733   0.399  0.6142 -0.3831 -1.0000
  633MOL0     C87266   2.200   2.870   0.377  0.4510  0.9806  1.0820
  633MOL0     N87267   2.016   3.478  -0.221 -0.9170 -0.4530 -1.2018
  633MOL0     N87268   1.898   3.476  -0.274 -0.0464 -0.7736 -0.5172
  633MOL0     C87269   1.600   3.784   0.548  0.3303 -0.0788 -0.1366
  633MOL0     C87270   1.674   3.788   0.675  0.1581  0.1646  0.0148
  633MOL0     C87271   1.910   3.990   1.002 -0.0359 -0.5741 -0.0681
  633MOL0     C87272   2.039   3.934   0.994  0.2383  0.2230  0.2482
  633MOL0     C87273   2.135   3.967   1.080 -0.9430  0.3388 -0.2458
  633MOL0     C87274   2.108   4.043   1.194 -0.6602  0.3326  0.5038
  633MOL0     O87275   2.213   4.064   1.275 -0.2484 -0.7823 -0.3752
  633MOL0     C87276   2.265   4.196   1.273  0.7803  0.1597 -1.2983
  633MOL0     C87277   2.334   4.220   1.144  0.5724  0.7000 -0.0588
  633MOL0     C87278   2.400   4.356   1.134 -0.0152 -0.5697  0.8905
  633MOL0     C87279   2.434   4.395   0.981 -0.4893 -0.4812  0.0884
  633MOL0     C87280   2.575   4.375   0.949  0.7831 -0.9448  0.0659
  633MOL0     C87281   2.696   4.359   0.953 -0.9830  0.3224  0.1224
  633MOL0     C87282   1.980   4.098   1.211  0.2286  0.5812 -0.3695
  633MOL0     C87283   1.874   4.075   1.117  0.1595 -0.3843 -0.0505
  633MOL0     C87284   1.743   4.143   1.153 -1.0723  0.2463 -1.1248
  633MOL0     H87285   1.947   3.954   0.577  1.3587 -2.7510  0.6190
  633MOL0     H87286   1.834   3.929   0.348 -1.8242  4.0164  0.9865
  633MOL0     H87287   1.729   3.863   0.174  0.7204  1.2850 -0.2445
  633MOL0     H87288   1.626   3.990   0.234  0.5418 -0.6077  1.2209
  633MOL0     H87289   1.425   3.909   0.105  1.2581  1.1944  2.4572
  633MOL0     H87290   1.560   3.964   0.011 -1.2523  0.4766 -0.0292
  633MOL0     H87291   1.640   3.752  -0.048 -0.3021 -0.4346  0.7921
  633MOL0     H87292   1.536   3.674   0.080  2.9204 -1.9334 -1.1821
  633MOL0     H87293   1.355   3.764  -0.075 -1.0838 -1.9897 -2.0301
  633MOL0     H87294   1.473   3.779  -0.208 -0.2737 -0.6989  0.2364
  633MOL0     H87295   1.344   3.563  -0.199 -0.8503  0.4395 -0.5282
  633MOL0     H87296   1.434   3.531  -0.040  1.5751 -4.2977 -1.5823
  633MOL0     H87297   1.540   3.550  -0.323 -2.3319  3.8909  1.4022
  633MOL0     H87298   1.644   3.574  -0.186  0.2132  1.3687 -1.2734
  633MOL0     H87299   1.479   3.328  -0.220 -2.1919  4.7449  2.1538
  633MOL0     H87300   1.595   3.325  -0.093  0.3579 -0.2000  0.2939
  633MOL0     H87301   1.713   3.210  -0.285  0.4619  0.3319  1.0527
  633MOL0     H87302   1.682   3.351  -0.382  0.0937 -0.1855  0.3374
  633MOL0     H87303   1.874   3.215  -0.090 -2.3728  1.2704 -0.9226
  633MOL0     H87304   2.152   3.462  -0.006 -1.3700  0.6319 -2.0516
  633MOL0     H87305   2.221   3.346  -0.118  1.1233  2.2541 -0.1738
  633MOL0     H87306   2.028   3.233   0.089 -1.0801 -0.4060 -1.9905
  633MOL0     H87307   2.135   3.153  -0.018  2.6712 -1.2215  1.4509
  633MOL0     H87308   2.331   3.225   0.095  1.3830  0.4823  1.1890
  633MOL0     H87309   2.252   3.338   0.200  0.5446 -1.5163  1.6704
  633MOL0     H87310   2.190   3.187   0.354  0.1482 -1.0397 -0.0257
  633MOL0     H87311   2.137   3.073   0.244 -0.1844  0.0968  0.5966
  633MOL0     H87312   2.516   2.869   0.261  1.2051  1.8106  2.2903
  633MOL0     H87313   2.598   2.607   0.246 -2.4101  2.8135 -1.7711
  633MOL0     H87314   2.518   2.501   0.354  1.6442  0.2299  1.5607
  633MOL0     H87315   2.618   2.635   0.410 -0.3463  1.0142  1.1857
  633MOL0     H87316   2.149   2.286   0.522  0.8368  2.4576 -0.4219
  633MOL0     H87317   2.154   2.073   0.632  1.6517 -0.6084 -0.5294
  633MOL0     H87318   2.078   1.961   0.792 -0.3089  3.8967  2.1276
  633MOL0     H87319   2.210   1.831   0.821  0.4497 -0.1668  2.4384
  633MOL0     H87320   2.172   1.853   1.044 -2.1622 -1.5573  0.9307
  633MOL0     H87321   2.096   2.010   1.034  2.1764 -0.5200  1.8256
  633MOL0     H87322   1.972   1.744   0.950 -2.6366  1.3463 -2.3192
  633MOL0     H87323   1.893   1.889   0.919 -3.2965  0.1928  2.4349
  633MOL0     H87324   1.995   1.892   1.197  0.2575  1.2793 -0.2318
  633MOL0     H87325   1.934   1.736   1.171  0.5936  0.2467 -0.0242
  633MOL0     H87326   1.767   1.924   1.259 -1.8598  0.1109 -0.4146
  633MOL0     H87327   1.802   1.999   1.102  0.3644  0.4256  0.6794
  633MOL0     H87328   1.700   1.787   0.992 -0.3822 -1.0685  0.5171
  633MOL0     H87329   1.596   1.900   1.065  3.3113  1.2567 -3.4765
  633MOL0     H87330   1.568   1.765   1.276  0.8222  0.9033  1.1187
  633MOL0     H87331   1.719   1.680   1.237 -0.8795  0.3305  1.5562
  633MOL0     H87332   1.619   1.530   1.102  0.1615  1.3676  0.5455
  633MOL0     H87333   1.474   1.630   1.078  1.6064 -3.8415 -3.4286
  633MOL0     H87334   2.378   2.231   0.960 -2.3426 -0.8143  1.2814
  633MOL0     H87335   2.412   2.447   0.816  1.1185 -1.2109 -1.9694
  633MOL0     H87336   2.096   2.695   0.449 -1.4686  0.5678 -3.7058
  633MOL0     H87337   2.109   2.928   0.386 -1.2997 -1.1237 -1.4271
  633MOL0     H87338   1.498   3.746   0.541  1.2746 -2.4509 -3.0312
  633MOL0     H87339   1.636   3.743   0.766  0.3128 -0.9734 -0.4667
  633MOL0     H87340   2.069   3.870   0.912 -1.3591  2.1174 -1.9544
  633MOL0     H87341   2.228   3.914   1.064 -2.3012 -1.3885 -3.1845
  633MOL0     H87342   2.182   4.268   1.282  1.0605  0.8700 -3.6321
  633MOL0     H87343   2.324   4.210   1.363 -0.3158 -2.1291 -0.1407
  633MOL0     H87344   2.260   4.211   1.064  0.9739 -0.3074 -0.3342
  633MOL0     H87345   2.401   4.137   1.118  0.8004  1.1346 -0.8908
  633MOL0     H87346   2.341   4.436   1.179 -1.5277 -1.3594  0.3724
  633MOL0     H87347   2.488   4.351   1.199 -0.5850  1.2062  1.8441
  633MOL0     H87348   2.388   4.491   0.956 -1.8377 -1.0781  0.2076
  633MOL0     H87349   2.379   4.319   0.926  0.4859 -1.1987  0.0644
  633MOL0     H87350   2.797   4.324   0.947 -1.2218 -0.4371  0.3324
  633MOL0     H87351   1.964   4.159   1.299 -0.8123 -1.4781  0.9597
  633MOL0     H87352   1.684   4.073   1.212 -1.7785  0.6429 -1.3450
  633MOL0     H87353   1.749   4.233   1.215 -1.3746 -0.6776  0.2982
  633MOL0     H87354   1.677   4.172   1.070 -1.2530  1.2492 -0.6496
  634MOL0     O87355   9.999   6.143   4.277 -0.3051 -0.3239 -0.1654
  634MOL0     C87356  10.060   6.253   4.269 -0.2082 -0.2463  0.4591
  634MOL0     O87357  10.060   6.344   4.172  0.2085 -0.4950  0.6484
  634MOL0     C87358   9.994   6.316   4.044 -0.3797 -0.2785  1.0145
  634MOL0     C87359  10.044   6.365   3.920  1.0163  0.4991  0.1225
  634MOL0     C87360   9.981   6.333   3.798  0.9137 -0.4551  0.3267
  634MOL0     C87361   9.851   6.285   3.798  0.2066  0.8997  0.2592
  634MOL0     O87362   9.777   6.271   3.680  0.4803  0.1334 -0.4663
  634MOL0     C87363   9.807   6.367   3.579  0.4070  0.5409 -0.3266
  634MOL0     C87364   9.668   6.408   3.523 -0.5678 -0.6305  0.3303
  634MOL0     C87365   9.658   6.463   3.381  0.2886 -0.3702 -0.0075
  634MOL0     C87366   9.731   6.591   3.356 -0.4422 -0.5148 -0.1130
  634MOL0     C87367   9.728   6.634   3.210  0.4457 -0.1737 -0.6174
  634MOL0     C87368   9.762   6.523   3.110  0.5902 -0.0332  0.8985
  634MOL0     C87369   9.817   6.575   2.983  0.3028  0.2332 -0.4467
  634MOL0     C87370   9.704   6.616   2.886  0.1594  0.4488 -0.2273
  634MOL0     N87371   9.740   6.690   2.765  0.4527 -0.4383  0.2994
  634MOL0     C87372   9.667   6.690   2.648 -0.3600 -0.8236 -0.5380
  634MOL0     C87373   9.737   6.769   2.568  1.1700 -0.2815  0.0464
  634MOL0     C87374   9.697   6.801   2.420 -0.3191 -0.7595 -0.1328
  634MOL0     C87375   9.670   6.958   2.392 -0.5430  0.0799  0.2189
  634MOL0     C87376   9.649   6.993   2.237  0.7597  0.2408  0.3282
  634MOL0     C87377   9.781   7.043   2.185  1.1083  0.1999 -0.7437
  634MOL0     O87378   9.777   7.055   2.043 -0.1497 -0.2184  0.1879
  634MOL0     C87379   9.896   7.065   1.970  0.3852  0.0692  0.0514
  634MOL0     C87380  10.021   7.081   2.031 -0.2811 -0.1493 -0.3165
  634MOL0     C87381  10.130   7.103   1.953  0.4852 -0.8123  0.3035
  634MOL0     C87382  10.264   7.087   2.023  0.1231  0.0638  0.3431
  634MOL0     C87383  10.121   7.137   1.814 -0.3085 -0.1730  0.2315
  634MOL0     C87384  10.234   7.183   1.734 -0.0594  0.4207 -0.4213
  634MOL0     O87385  10.247   7.141   1.609 -0.7551  0.1233  0.3441
  634MOL0     C87386  10.344   7.203   1.536 -0.7980  0.2985 -1.2850
  634MOL0     C87387  10.326   7.309   1.455 -0.2973  0.0116  0.2662
  634MOL0     C87388  10.427   7.372   1.390  0.1338 -0.5066 -0.3599
  634MOL0     C87389  10.555   7.327   1.405 -0.4761 -0.5722  0.1235
  634MOL0     O87390  10.675   7.375   1.350 -0.0608  0.1997 -0.6066
  634MOL0     C87391  10.679   7.491   1.259  0.6098  0.1641  0.6778
  634MOL0     C87392  10.660   7.449   1.113 -0.2401  0.4255  0.1271
  634MOL0     C87393  10.672   7.559   1.011 -0.6560  0.0450  0.0426
  634MOL0     C87394  10.552   7.652   1.029  0.9068  0.1538  0.4043
  634MOL0     C87395  10.560   7.791   0.968 -1.0231  0.6287 -0.5286
  634MOL0     C87396  10.606   7.781   0.830  0.1211 -0.2810 -0.2577
  634MOL0     C87397  10.593   7.918   0.755  0.6114 -0.1514 -0.2075
  634MOL0     C87398  10.451   7.956   0.729 -0.9451  0.1360  0.2531
  634MOL0    Cl87399  10.439   8.104   0.622  0.0736 -0.2140  0.5579
  634MOL0     C87400  10.583   7.217   1.486 -0.2092 -0.2912  0.2081
  634MOL0     C87401  10.476   7.156   1.555  0.1739 -1.3959 -0.5780
  634MOL0     O87402  10.306   7.275   1.788  0.4409 -0.0509 -0.6694
  634MOL0     C87403   9.995   7.124   1.754  0.1233  0.0912  0.8465
  634MOL0     C87404   9.885   7.080   1.832 -0.9751  1.1868  1.0122
  634MOL0     N87405   9.841   6.826   2.633 -0.0087 -0.5012  0.0443
  634MOL0     N87406   9.839   6.782   2.756  0.0613  0.4607 -0.2943
  634MOL0     C87407   9.798   6.241   3.922  0.7068 -0.1571 -0.3744
  634MOL0     C87408   9.872   6.251   4.043 -0.0111 -0.0740  0.5384
  634MOL0     C87409  10.131   6.296   4.387  0.3011 -0.2983 -0.0133
  634MOL0     C87410  10.058   6.270   4.506  1.1345  0.7473  1.4526
  634MOL0     C87411  10.113   6.316   4.625  0.3696 -0.0026 -1.0467
  634MOL0     C87412  10.226   6.398   4.636  0.4763 -0.7474 -0.0678
  634MOL0     O87413  10.251   6.451   4.760  0.5006  0.0833 -0.2003
  634MOL0     C87414  10.376   6.521   4.769 -0.3135 -0.0941 -0.0719
  634MOL0     C87415  10.396   6.538   4.922 -0.2893  1.0016  1.1401
  634MOL0     C87416  10.520   6.613   4.951 -0.4656 -0.5024 -0.3365
  634MOL0     C87417  10.549   6.650   5.097 -0.2626  0.7422  0.4958
  634MOL0     C87418  10.457   6.754   5.145 -0.3517  0.2373 -1.0617
  634MOL0     C87419  10.374   6.834   5.187 -0.8618 -0.3205 -0.1834
  634MOL0     C87420  10.295   6.427   4.519  0.2042  1.1066 -0.3209
  634MOL0     C87421  10.249   6.376   4.395 -0.6465 -0.1897 -0.0932
  634MOL0     C87422  10.332   6.378   4.269 -0.0394 -0.0440  0.3155
  634MOL0     H87423  10.144   6.409   3.921  1.5681 -0.6931  1.6651
  634MOL0     H87424  10.022   6.347   3.698  0.0250  0.1282  0.0318
  634MOL0     H87425   9.872   6.323   3.503  0.1327 -1.6635  0.6410
  634MOL0     H87426   9.851   6.459   3.620  2.5064 -0.3192 -0.4887
  634MOL0     H87427   9.603   6.320   3.526 -2.3420  0.5080 -2.1238
  634MOL0     H87428   9.632   6.490   3.585  0.9917  0.2197  0.1691
  634MOL0     H87429   9.711   6.390   3.319 -1.0077  0.8812 -2.7276
  634MOL0     H87430   9.554   6.467   3.345  0.8863 -0.5661 -1.8412
  634MOL0     H87431   9.680   6.671   3.411 -1.6333 -0.8677 -0.6650
  634MOL0     H87432   9.829   6.586   3.405 -1.8641  0.6260  3.0681
  634MOL0     H87433   9.792   6.722   3.197  2.0609 -1.4860 -2.1020
  634MOL0     H87434   9.623   6.656   3.191  0.7069  0.8817 -0.9022
  634MOL0     H87435   9.838   6.461   3.158 -0.4040  0.6178  3.4567
  634MOL0     H87436   9.673   6.460   3.100  1.4582 -1.0771 -0.8041
  634MOL0     H87437   9.881   6.504   2.930  1.9555  2.0148 -0.9515
  634MOL0     H87438   9.874   6.666   3.003 -1.9291  1.5422  0.3209
  634MOL0     H87439   9.648   6.524   2.867 -0.6324  0.8465  0.1511
  634MOL0     H87440   9.630   6.675   2.940 -0.0887 -0.6114  0.6120
  634MOL0     H87441   9.587   6.617   2.634  0.1187 -1.3449 -0.5985
  634MOL0     H87442   9.602   6.750   2.404 -1.2397  0.7448  0.3006
  634MOL0     H87443   9.781   6.772   2.356  0.4911 -1.4179  1.2060
  634MOL0     H87444   9.571   6.966   2.439 -1.4749 -0.9426 -1.4743
  634MOL0     H87445   9.740   7.033   2.429  0.8560 -0.6067 -0.9682
  634MOL0     H87446   9.613   6.906   2.180 -0.5286 -0.5398  2.2317
  634MOL0     H87447   9.586   7.080   2.216  1.5173  0.5880 -0.5688
  634MOL0     H87448   9.807   7.140   2.229 -0.2600  1.0134 -1.6653
  634MOL0     H87449   9.842   6.959   2.221 -0.9733 -1.5396 -1.0636
  634MOL0     H87450  10.027   7.055   2.136 -2.8777  0.5188  0.0820
  634MOL0     H87451  10.263   6.983   2.057 -1.4467 -0.6551 -1.7067
  634MOL0     H87452  10.285   7.158   2.103  3.3368 -0.4253  0.0553
  634MOL0     H87453  10.351   7.101   1.959  0.6296  1.0174  1.2245
  634MOL0     H87454  10.229   7.348   1.428 -0.5664 -0.1203  1.0203
  634MOL0     H87455  10.406   7.458   1.327 -0.9666 -1.4781 -1.3874
  634MOL0     H87456  10.614   7.573   1.292  0.0623 -0.6047  1.5641
  634MOL0     H87457  10.784   7.515   1.272  0.2531  1.1767  1.9281
  634MOL0     H87458  10.724   7.367   1.079 -0.6247  0.6266 -1.1196
  634MOL0     H87459  10.559   7.407   1.107 -1.1760  2.5635  0.0225
  634MOL0     H87460  10.676   7.517   0.910 -0.2489 -1.7736  0.7808
  634MOL0     H87461  10.767   7.611   1.023 -0.1788 -0.1549 -2.3886
  634MOL0     H87462  10.521   7.661   1.133 -1.7141 -4.6518  0.3180
  634MOL0     H87463  10.471   7.591   0.987  0.4488 -0.2766  1.8667
  634MOL0     H87464  10.465   7.844   0.978 -0.3832  1.5266  1.1801
  634MOL0     H87465  10.635   7.850   1.022 -1.4218  0.7366 -0.0855
  634MOL0     H87466  10.556   7.701   0.775 -0.4915 -1.6356  2.1072
  634MOL0     H87467  10.711   7.748   0.832  0.8309  1.6112 -2.4958
  634MOL0     H87468  10.655   7.922   0.665  0.7203  1.3548 -0.0897
  634MOL0     H87469  10.642   7.992   0.819  0.5866  0.7220 -1.1626
  634MOL0     H87470  10.406   7.983   0.825  1.8048 -2.1348  2.3632
  634MOL0     H87471  10.390   7.874   0.690 -0.4746  0.5713 -1.4460
  634MOL0     H87472  10.685   7.184   1.503  0.5867  2.1678  0.7094
  634MOL0     H87473  10.494   7.078   1.629  1.7439 -0.3664  0.1863
  634MOL0     H87474   9.982   7.158   1.652 -1.0219  0.4974  1.1075
  634MOL0     H87475   9.791   7.077   1.778  0.0045 -1.1693 -0.7374
  634MOL0     H87476   9.695   6.208   3.916  1.2254 -1.5273 -2.5149
  634MOL0     H87477   9.836   6.208   4.136 -0.3173 -0.5469  0.2064
  634MOL0     H87478   9.966   6.213   4.500  1.6901 -0.3367  2.7419
  634MOL0     H87479  10.057   6.316   4.718  2.0187  4.6315  0.2719
  634MOL0     H87480  10.462   6.463   4.733  0.9616 -0.9132  3.7544
  634MOL0     H87481  10.367   6.613   4.712  4.8459  0.9287  0.2432
  634MOL0     H87482  10.405   6.438   4.966 -4.4236 -0.2244 -0.3097
  634MOL0     H87483  10.310   6.591   4.965 -3.7144 -3.7987  0.9543
  634MOL0     H87484  10.611   6.562   4.917  2.3891  3.7478  0.1780
  634MOL0     H87485  10.510   6.704   4.892  1.7494  0.4298  0.6147
  634MOL0     H87486  10.654   6.680   5.098 -0.3005  1.1384 -2.1111
  634MOL0     H87487  10.541   6.561   5.160  1.2055 -0.7076 -1.2589
  634MOL0     H87488  10.293   6.903   5.200 -0.6902  0.3924 -2.4503
  634MOL0     H87489  10.375   6.501   4.516  0.0660  1.2189 -2.4229
  634MOL0     H87490  10.436   6.407   4.290 -0.1969  0.8869 -0.1043
  634MOL0     H87491  10.336   6.282   4.218 -2.7917  0.5587 -1.2418
  634MOL0     H87492  10.301   6.460   4.202 -2.2039 -2.1456 -1.4566
  635MOL0     O87493   3.064   6.037   2.672 -0.1647  0.0404  0.0541
  635MOL0     C87494   3.133   5.997   2.761 -1.5563  0.9819  0.6462
  635MOL0     O87495   3.253   5.937   2.745  0.0052  0.5726 -0.0846
  635MOL0     C87496   3.300   5.903   2.619  0.3322 -0.2158 -0.6144
  635MOL0     C87497   3.228   5.853   2.509 -0.2531  0.9902 -0.7240
  635MOL0     C87498   3.290   5.811   2.394 -0.2249 -0.4450  0.6737
  635MOL0     C87499   3.432   5.819   2.380  1.1823  0.9581  0.3844
  635MOL0     O87500   3.475   5.771   2.255 -0.4046 -0.2635 -0.0621
  635MOL0     C87501   3.607   5.738   2.229 -0.4379  0.4513  0.7695
  635MOL0     C87502   3.686   5.872   2.219 -0.3787  0.0589 -0.1309
  635MOL0     C87503   3.769   5.877   2.090 -0.0074 -0.3555  0.4278
  635MOL0     C87504   3.697   5.936   1.973  0.1108  0.3760  0.1161
  635MOL0     C87505   3.666   6.089   1.978 -0.6290 -0.2914  0.7828
  635MOL0     C87506   3.619   6.134   1.840  0.0506 -0.1968  0.8993
  635MOL0     C87507   3.520   6.258   1.849  0.4223 -0.2439 -1.0495
  635MOL0     C87508   3.413   6.266   1.745  0.0328 -0.2354 -0.4244
  635MOL0     N87509   3.321   6.145   1.745  0.3231 -0.0352 -0.2235
  635MOL0     C87510   3.283   6.079   1.865  0.0111 -0.2820 -0.4765
  635MOL0     C87511   3.241   5.959   1.820 -0.1830 -0.4681 -0.8782
  635MOL0     C87512   3.183   5.838   1.891 -0.3147 -0.7216 -0.2601
  635MOL0     C87513   3.293   5.745   1.939 -0.0123 -0.1539 -0.5398
  635MOL0     C87514   3.220   5.635   2.029 -0.2901 -0.4091  0.4358
  635MOL0     C87515   3.327   5.520   2.069  0.4402  0.8452 -0.9882
  635MOL0     O87516   3.261   5.422   2.160  0.6786  0.0142  0.4002
  635MOL0     C87517   3.241   5.459   2.283 -0.4717 -0.6135 -0.0093
  635MOL0     C87518   3.348   5.466   2.371  0.5073 -0.4848 -0.8459
  635MOL0     C87519   3.332   5.491   2.513 -0.3418  1.1253  0.3472
  635MOL0     C87520   3.456   5.524   2.582  0.5720 -0.0609 -0.9514
  635MOL0     C87521   3.206   5.505   2.574  0.5152  1.3782 -0.3000
  635MOL0     C87522   3.178   5.507   2.721 -0.3141 -0.2288  0.2055
  635MOL0     O87523   3.043   5.517   2.748 -0.1454  0.0511  0.8158
  635MOL0     C87524   3.004   5.526   2.881 -0.1868 -0.1261 -1.1071
  635MOL0     C87525   2.942   5.635   2.938  0.6227  0.2005 -0.2203
  635MOL0     C87526   2.884   5.624   3.064 -1.0637 -0.0355  0.1094
  635MOL0     C87527   2.893   5.503   3.143  0.3952 -1.1627 -0.5624
  635MOL0     O87528   2.854   5.501   3.276  0.1283 -0.2487  1.3764
  635MOL0     C87529   2.817   5.377   3.335  0.5230 -0.2060  0.2832
  635MOL0     C87530   2.750   5.405   3.478 -0.4749 -0.1120  0.1347
  635MOL0     C87531   2.603   5.442   3.486 -0.4746 -0.0126  0.1973
  635MOL0     C87532   2.563   5.466   3.638 -0.0959 -0.0227  0.2084
  635MOL0     C87533   2.413   5.500   3.639 -0.8338  0.1172 -0.1657
  635MOL0     C87534   2.339   5.482   3.767 -0.3726  0.2969 -1.0853
  635MOL0     C87535   2.399   5.565   3.884 -0.0275  0.3190  0.6614
  635MOL0     C87536   2.445   5.481   4.010  0.5631  0.2191 -0.8143
  635MOL0    Cl87537   2.538   5.580   4.137 -0.4499 -0.2255  0.4486
  635MOL0     C87538   2.961   5.399   3.091  0.1809 -0.2187  0.0533
  635MOL0     C87539   3.016   5.410   2.961  0.0498 -0.3369  0.4953
  635MOL0     O87540   3.263   5.496   2.811  0.2198  0.3450  0.1528
  635MOL0     C87541   3.102   5.503   2.481  0.2185  1.0937  1.1046
  635MOL0     C87542   3.113   5.476   2.343 -1.0089  0.9071 -0.2984
  635MOL0     N87543   3.261   5.955   1.682  0.4628  0.1636 -0.3749
  635MOL0     N87544   3.300   6.066   1.637 -0.8277  0.1761  0.3430
  635MOL0     C87545   3.501   5.861   2.489 -0.6444  0.3671  0.3952
  635MOL0     C87546   3.439   5.914   2.610  0.2435 -0.3298 -0.3282
  635MOL0     C87547   3.083   6.013   2.895  0.7911 -0.2774  0.0626
  635MOL0     C87548   3.122   5.934   3.003  0.1728 -0.2323  0.5587
  635MOL0     C87549   3.094   5.964   3.141  0.0381 -0.2211 -0.3391
  635MOL0     C87550   3.007   6.066   3.166  0.7019 -1.5521 -0.1421
  635MOL0     O87551   2.992   6.093   3.295 -0.1057 -0.3976 -0.3052
  635MOL0     C87552   2.855   6.131   3.335  0.3754  0.1862  0.6890
  635MOL0     C87553   2.779   6.014   3.402 -0.3529 -0.8053 -0.6314
  635MOL0     C87554   2.831   5.986   3.539  0.0127  0.0121 -0.3530
  635MOL0     C87555   2.736   5.892   3.610  0.8076 -1.2715 -0.4885
  635MOL0     C87556   2.594   5.928   3.608 -0.4016 -0.6086  0.3801
  635MOL0     C87557   2.481   5.973   3.615  0.0691 -1.2813 -0.6882
  635MOL0     C87558   2.955   6.137   3.058  1.4971 -0.5092  0.9044
  635MOL0     C87559   2.989   6.116   2.923 -0.1036  0.0517 -0.6696
  635MOL0     C87560   2.943   6.230   2.827  0.0217  1.1151  0.2047
  635MOL0     H87561   3.120   5.848   2.508 -0.2738  0.6751 -3.2471
  635MOL0     H87562   3.229   5.782   2.309 -2.0170  1.8853  1.0572
  635MOL0     H87563   3.620   5.660   2.154 -1.5739  0.2331  0.7943
  635MOL0     H87564   3.633   5.679   2.318 -1.9517 -2.1484 -0.3918
  635MOL0     H87565   3.621   5.960   2.221 -2.4465 -1.4159  0.5816
  635MOL0     H87566   3.756   5.852   2.301  2.1671  0.6088 -2.0283
  635MOL0     H87567   3.863   5.932   2.099  1.3016 -1.7023 -3.2655
  635MOL0     H87568   3.796   5.783   2.042 -1.2617 -0.8795  0.7198
  635MOL0     H87569   3.759   5.911   1.886 -0.3640  0.5228 -0.2736
  635MOL0     H87570   3.597   5.892   1.963 -0.6888  1.8064  1.3678
  635MOL0     H87571   3.754   6.141   2.016  0.0468 -1.7302  1.2537
  635MOL0     H87572   3.585   6.104   2.050  0.9450  3.4253  2.0448
  635MOL0     H87573   3.704   6.154   1.775 -0.3166 -0.3963  0.3489
  635MOL0     H87574   3.562   6.057   1.787  2.4893 -0.2914 -1.8403
  635MOL0     H87575   3.586   6.344   1.833  2.3516 -0.4902  3.8387
  635MOL0     H87576   3.485   6.265   1.953  0.6151 -2.9208 -0.7368
  635MOL0     H87577   3.353   6.357   1.741  2.0669  1.1194 -1.1160
  635MOL0     H87578   3.468   6.267   1.651  1.7821 -2.6434  0.4720
  635MOL0     H87579   3.287   6.115   1.967  0.3054  0.8948 -0.8880
  635MOL0     H87580   3.118   5.784   1.821 -1.5399 -0.9933  1.0277
  635MOL0     H87581   3.103   5.868   1.960 -1.7693  2.3285 -2.9798
  635MOL0     H87582   3.349   5.707   1.852  0.3598 -1.2244  0.1471
  635MOL0     H87583   3.370   5.798   1.996  2.7452 -2.2508 -2.0390
  635MOL0     H87584   3.186   5.687   2.119  0.0698  1.2460 -0.3477
  635MOL0     H87585   3.137   5.587   1.975 -0.9628  1.3246 -0.1675
  635MOL0     H87586   3.345   5.467   1.975 -1.3462  0.2279 -1.0288
  635MOL0     H87587   3.419   5.565   2.108 -0.5989  1.5902  0.7124
  635MOL0     H87588   3.448   5.474   2.330  1.1628  1.0031  0.9139
  635MOL0     H87589   3.525   5.572   2.512  1.8007  1.5792  1.2313
  635MOL0     H87590   3.509   5.440   2.629  0.8955 -0.2030 -1.5596
  635MOL0     H87591   3.429   5.592   2.664 -4.6591 -2.6916 -0.0902
  635MOL0     H87592   2.917   5.728   2.888 -0.2034 -0.3146 -0.7984
  635MOL0     H87593   2.819   5.706   3.094 -2.4586 -0.3804 -1.8038
  635MOL0     H87594   2.749   5.316   3.275 -0.6301  0.2971  1.0324
  635MOL0     H87595   2.906   5.315   3.347  1.0952  0.5520  0.0438
  635MOL0     H87596   2.764   5.320   3.546 -1.2404 -0.0961  0.3173
  635MOL0     H87597   2.803   5.489   3.522  2.3144 -1.7804  0.2131
  635MOL0     H87598   2.541   5.373   3.429 -1.5695  1.6503 -0.7186
  635MOL0     H87599   2.588   5.543   3.447  2.6800  0.7565  0.6515
  635MOL0     H87600   2.619   5.552   3.676  2.2898 -0.7370 -1.4609
  635MOL0     H87601   2.592   5.372   3.686 -0.8164 -0.6770 -0.5898
  635MOL0     H87602   2.404   5.606   3.611 -0.7780 -0.6137 -3.3470
  635MOL0     H87603   2.363   5.446   3.558  0.7978  0.5042 -1.5048
  635MOL0     H87604   2.346   5.375   3.789  1.0740 -0.0772 -3.0694
  635MOL0     H87605   2.232   5.500   3.755 -0.7279 -1.9087 -1.6534
  635MOL0     H87606   2.323   5.637   3.916  0.8409  1.2127  0.7580
  635MOL0     H87607   2.484   5.625   3.850 -0.1749 -0.1113 -0.5112
  635MOL0     H87608   2.510   5.406   3.964  2.4166  0.9394  0.5447
  635MOL0     H87609   2.356   5.447   4.064  0.6881  2.5026  0.9615
  635MOL0     H87610   2.974   5.304   3.142  0.2358  0.5499  1.5578
  635MOL0     H87611   3.070   5.321   2.930 -0.7198  0.2638 -3.1345
  635MOL0     H87612   3.007   5.521   2.531  0.5210  0.1574  2.0447
  635MOL0     H87613   3.028   5.480   2.276 -2.2310  2.7505  1.2405
  635MOL0     H87614   3.609   5.853   2.477 -0.8272  2.0790 -6.8195
  635MOL0     H87615   3.492   5.956   2.695 -2.7824  1.6037  0.7785
  635MOL0     H87616   3.194   5.856   2.981  2.6889  1.7758  1.0607
  635MOL0     H87617   3.127   5.917   3.233  1.9348  0.6910 -0.4925
  635MOL0     H87618   2.864   6.214   3.406  1.8142 -2.7959  4.3270
  635MOL0     H87619   2.789   6.164   3.254 -1.4403 -0.3349  1.8778
  635MOL0     H87620   2.780   5.925   3.338 -1.5737 -0.6774 -0.8555
  635MOL0     H87621   2.675   6.048   3.403 -0.1101 -0.0399 -0.9901
  635MOL0     H87622   2.926   5.933   3.525 -1.2077 -2.4014  0.0568
  635MOL0     H87623   2.840   6.077   3.600 -2.0696  0.8996 -1.2756
  635MOL0     H87624   2.765   5.884   3.715  0.4632 -3.0114 -0.5009
  635MOL0     H87625   2.736   5.793   3.563  0.0066 -0.5486 -2.0892
  635MOL0     H87626   2.386   6.023   3.627  0.5152 -0.4157 -0.7139
  635MOL0     H87627   2.892   6.225   3.062 -0.7940 -2.1147  1.9021
  635MOL0     H87628   3.030   6.266   2.771  0.8052 -0.5588  0.2786
  635MOL0     H87629   2.872   6.187   2.757  0.8509  0.6670 -0.3827
  635MOL0     H87630   2.898   6.320   2.871 -0.8701  1.0979 -0.6439
  636MOL0     O87631   3.164   2.148  11.201 -0.5178 -0.8213  0.1139
  636MOL0     C87632   3.070   2.175  11.118  0.3056  1.3177 -0.0098
  636MOL0     O87633   2.974   2.264  11.134  0.1798 -0.2044  0.0726
  636MOL0     C87634   2.956   2.317  11.255 -0.2462 -0.0482 -0.3845
  636MOL0     C87635   2.975   2.244  11.376  0.3752 -0.4206  1.2394
  636MOL0     C87636   2.964   2.308  11.498 -0.3029 -0.1085 -0.8249
  636MOL0     C87637   2.923   2.435  11.507  0.8505  0.4684 -0.8026
  636MOL0     O87638   2.903   2.488  11.639 -0.7331 -0.6474  0.1874
  636MOL0     C87639   2.981   2.607  11.678  0.0391 -0.6282 -0.5594
  636MOL0     C87640   2.946   2.642  11.826  0.1655 -0.1425 -1.0210
  636MOL0     C87641   2.993   2.780  11.871 -0.3188 -0.1510  0.5447
  636MOL0     C87642   2.944   2.817  12.007  0.7425 -0.9860 -0.7399
  636MOL0     C87643   3.049   2.909  12.082  0.0704 -0.6379  0.8151
  636MOL0     C87644   3.020   2.926  12.229  0.1164 -0.6628  0.2472
  636MOL0     C87645   3.143   2.938  12.315 -0.5244 -0.5432  0.1401
  636MOL0     C87646   3.216   3.070  12.293  0.1813  0.5756  0.4718
  636MOL0     N87647   3.334   3.070  12.376  0.2751 -0.1306 -0.5232
  636MOL0     C87648   3.337   3.021  12.506  0.4573  0.1394 -0.0466
  636MOL0     C87649   3.461   3.036  12.543 -0.9887 -0.0280 -0.8173
  636MOL0     C87650   3.503   2.967  12.668 -0.1545 -1.0447 -0.0121
  636MOL0     C87651   3.538   3.065  12.785  1.1972  0.9141  0.1679
  636MOL0     C87652   3.627   3.180  12.760 -0.0421 -0.5083 -0.4248
  636MOL0     C87653   3.772   3.145  12.735 -0.7420 -0.4124 -0.1872
  636MOL0     O87654   3.852   3.164  12.848 -0.0742  1.3245 -0.6106
  636MOL0     C87655   3.973   3.103  12.873 -0.6532  0.1291  0.0750
  636MOL0     C87656   4.048   3.039  12.768  0.7414 -0.2725 -1.0772
  636MOL0     C87657   4.185   2.997  12.791  0.5303  1.1053 -0.1307
  636MOL0     C87658   4.257   2.928  12.670  0.5994  0.7089  0.0004
  636MOL0     C87659   4.241   3.037  12.912  0.3162  0.5229 -0.4951
  636MOL0     C87660   4.381   3.005  12.951  0.2291 -1.1595  0.2316
  636MOL0     O87661   4.405   3.006  13.082  0.0882  0.5442 -0.4097
  636MOL0     C87662   4.534   3.031  13.133  0.2641 -0.0788 -0.0821
  636MOL0     C87663   4.572   2.962  13.249  0.0573 -0.2298  0.9234
  636MOL0     C87664   4.699   2.986  13.317  0.2718 -0.2499  0.3579
  636MOL0     C87665   4.790   3.083  13.260  0.0789  0.4527 -0.8880
  636MOL0     O87666   4.916   3.110  13.310 -0.2831 -0.2783  0.8859
  636MOL0     C87667   4.909   3.131  13.451 -0.1889 -0.1284 -0.6751
  636MOL0     C87668   4.827   3.263  13.493 -0.0988 -0.2706  0.8051
  636MOL0     C87669   4.916   3.385  13.467  0.4157 -0.4386  0.3858
  636MOL0     C87670   4.880   3.509  13.561  0.4618  0.8382 -0.3313
  636MOL0     C87671   4.828   3.628  13.493  0.6264 -0.6747  0.7568
  636MOL0     C87672   4.725   3.615  13.374  0.0944  0.9923 -0.1257
  636MOL0     C87673   4.767   3.657  13.235 -0.1544  0.2982  0.2920
  636MOL0     C87674   4.657   3.638  13.128 -0.3507 -0.3726 -0.4398
  636MOL0    Cl87675   4.716   3.737  12.990  0.3357  0.4953  0.0509
  636MOL0     C87676   4.755   3.138  13.131 -0.9439 -0.5087  0.7461
  636MOL0     C87677   4.631   3.112  13.074 -0.2006 -0.0568  0.5848
  636MOL0     O87678   4.465   2.984  12.862 -0.3187  0.1594  0.2073
  636MOL0     C87679   4.162   3.103  13.009 -0.3136  0.6984 -1.0907
  636MOL0     C87680   4.027   3.135  12.993  0.1050  0.1271  0.6764
  636MOL0     N87681   3.528   3.103  12.444 -0.0943 -0.0840 -0.7989
  636MOL0     N87682   3.455   3.115  12.340 -0.2184 -0.1226 -0.0871
  636MOL0     C87683   2.894   2.507  11.391 -0.3842 -0.2346 -0.5472
  636MOL0     C87684   2.912   2.454  11.265  0.7106  0.6859 -0.2038
  636MOL0     C87685   3.073   2.075  11.005 -0.5281 -0.5260  1.0246
  636MOL0     C87686   2.946   2.044  10.962  0.8010  0.0980 -0.3070
  636MOL0     C87687   2.930   1.957  10.861 -0.7959  0.0425  1.2782
  636MOL0     C87688   3.032   1.902  10.789  0.2442  0.8049  0.2263
  636MOL0     O87689   3.015   1.810  10.687  0.1655  0.3702 -0.0604
  636MOL0     C87690   2.885   1.762  10.652  0.5896 -0.9049 -1.4250
  636MOL0     C87691   2.905   1.671  10.537 -0.0003  0.3642 -0.3445
  636MOL0     C87692   2.845   1.744  10.411 -0.2198 -0.6428 -0.4197
  636MOL0     C87693   2.894   1.687  10.276  0.5650  0.2471  0.3895
  636MOL0     C87694   2.804   1.744  10.173 -0.1899  0.1971  0.2573
  636MOL0     C87695   2.761   1.787  10.071 -0.1192  0.9267 -0.1623
  636MOL0     C87696   3.160   1.928  10.838 -1.0085  0.0838 -0.0983
  636MOL0     C87697   3.188   2.006  10.948  0.2564  0.4899 -0.6992
  636MOL0     C87698   3.337   2.028  10.997  0.5544  0.5432 -0.8410
  636MOL0     H87699   3.008   2.140  11.378  0.9133 -0.2478  1.7334
  636MOL0     H87700   2.970   2.263  11.596  1.1907  1.0594 -0.3469
  636MOL0     H87701   2.961   2.698  11.622 -1.7498  0.8826  2.3103
  636MOL0     H87702   3.086   2.576  11.676 -0.1573 -1.2848 -1.3559
  636MOL0     H87703   2.836   2.641  11.828 -0.2805  5.3779 -3.0926
  636MOL0     H87704   2.981   2.564  11.894 -2.6764 -0.6122  0.0571
  636MOL0     H87705   3.101   2.791  11.861 -0.1450 -1.0614  1.2844
  636MOL0     H87706   2.951   2.849  11.797 -3.2712  0.8761  2.9695
  636MOL0     H87707   2.844   2.861  11.995  0.8187 -1.1112 -1.8597
  636MOL0     H87708   2.931   2.727  12.067 -0.8138  0.2719  0.9532
  636MOL0     H87709   3.051   3.009  12.037  3.9860 -0.9679 -0.1681
  636MOL0     H87710   3.151   2.871  12.066  0.9723  2.0021 -0.3483
  636MOL0     H87711   2.956   3.014  12.242  1.3463 -0.0098  2.2896
  636MOL0     H87712   2.976   2.836  12.272 -2.2668  1.2383  2.0903
  636MOL0     H87713   3.211   2.857  12.285 -1.4085 -0.7741 -1.3337
  636MOL0     H87714   3.112   2.920  12.419  1.5929  3.1800  1.6219
  636MOL0     H87715   3.249   3.081  12.189 -0.0821 -1.7846  0.0943
  636MOL0     H87716   3.159   3.156  12.330 -0.2941 -0.4531  2.2215
  636MOL0     H87717   3.253   2.979  12.562  2.3069 -0.9872  2.0650
  636MOL0     H87718   3.585   2.899  12.642 -1.2331 -2.2066 -0.4925
  636MOL0     H87719   3.427   2.893  12.697 -1.6758  0.6002  0.3906
  636MOL0     H87720   3.450   3.106  12.835  1.6656 -0.0398  1.8475
  636MOL0     H87721   3.587   3.001  12.860  0.5990 -1.2240 -1.1678
  636MOL0     H87722   3.601   3.236  12.670 -0.4789 -2.3931 -1.5093
  636MOL0     H87723   3.628   3.253  12.842  1.9287 -2.9349  1.9136
  636MOL0     H87724   3.768   3.039  12.708 -0.2298  0.0637 -2.3613
  636MOL0     H87725   3.820   3.193  12.649  0.7830  0.5780  1.1660
  636MOL0     H87726   4.000   2.997  12.680 -0.1648 -2.5889  0.4381
  636MOL0     H87727   4.327   2.849  12.698  1.5735  1.1536 -1.0818
  636MOL0     H87728   4.320   3.005  12.624 -0.2093  1.1280 -0.4386
  636MOL0     H87729   4.193   2.918  12.582 -1.8196  0.6560  1.6729
  636MOL0     H87730   4.498   2.894  13.291 -2.5984  1.2355 -1.0550
  636MOL0     H87731   4.726   2.930  13.406  0.5219  3.2829  2.7063
  636MOL0     H87732   4.862   3.047  13.504 -0.3820  1.9360  2.7523
  636MOL0     H87733   5.014   3.146  13.479 -1.0462  0.5283  2.6633
  636MOL0     H87734   4.731   3.259  13.440  0.8377  0.7669 -1.0495
  636MOL0     H87735   4.805   3.262  13.601 -0.0686 -0.4907  0.8111
  636MOL0     H87736   4.901   3.415  13.363 -1.3438 -0.1982  0.6677
  636MOL0     H87737   5.021   3.365  13.490  1.5833  2.6497 -1.6164
  636MOL0     H87738   4.979   3.531  13.601  3.3302 -1.4871 -5.1907
  636MOL0     H87739   4.814   3.489  13.647 -0.2378 -2.0536 -1.4259
  636MOL0     H87740   4.785   3.695  13.568  0.0854 -1.6295  1.3180
  636MOL0     H87741   4.907   3.695  13.458  0.8152  0.1010  2.5778
  636MOL0     H87742   4.641   3.683  13.391 -1.1226 -0.6453  0.7223
  636MOL0     H87743   4.686   3.515  13.355 -1.2954  1.5790 -0.4941
  636MOL0     H87744   4.859   3.608  13.201 -0.0491  0.0883  0.8631
  636MOL0     H87745   4.796   3.762  13.239 -0.6685  0.4346  0.5127
  636MOL0     H87746   4.561   3.681  13.157  0.4300  0.8608  0.4093
  636MOL0     H87747   4.642   3.534  13.097 -0.6626 -0.4300 -0.1034
  636MOL0     H87748   4.824   3.213  13.093 -1.5287  0.1626  1.0064
  636MOL0     H87749   4.613   3.181  12.992  0.4218  0.6027  0.9963
  636MOL0     H87750   4.225   3.134  13.092  3.2192 -0.5598 -3.0967
  636MOL0     H87751   3.981   3.196  13.070  1.7109  0.6196  1.2957
  636MOL0     H87752   2.862   2.610  11.404 -0.1453 -0.0348 -1.4569
  636MOL0     H87753   2.886   2.503  11.172 -3.1097 -0.4082  0.1136
  636MOL0     H87754   2.863   2.090  11.015  1.9145  0.8516  0.8358
  636MOL0     H87755   2.826   1.952  10.829 -0.4422  2.4266 -0.5199
  636MOL0     H87756   2.844   1.702  10.734 -1.1632 -0.3000 -1.8261
  636MOL0     H87757   2.813   1.841  10.629 -1.6728 -2.8731 -1.4444
  636MOL0     H87758   2.859   1.575  10.559 -0.5035 -0.0205 -2.7630
  636MOL0     H87759   3.010   1.643  10.521  0.0965 -1.5947  2.9347
  636MOL0     H87760   2.737   1.733  10.425 -0.5079 -1.3781 -2.7594
  636MOL0     H87761   2.854   1.853  10.413  0.3033 -0.6896  0.0166
  636MOL0     H87762   2.875   1.580  10.273 -2.5957  0.5312  3.5110
  636MOL0     H87763   2.997   1.710  10.249  0.9932 -0.7439  1.1498
  636MOL0     H87764   2.723   1.834   9.982 -2.1766  0.3342  0.3588
  636MOL0     H87765   3.248   1.887  10.789  2.2523  2.8189  2.8986
  636MOL0     H87766   3.400   1.997  10.913  2.7709 -0.2513  1.0284
  636MOL0     H87767   3.358   2.129  11.033 -2.2229  0.7662  0.4501
  636MOL0     H87768   3.352   1.960  11.081 -0.5347  1.0449 -0.2139
  637MOL0     O87769   3.116  11.053   7.507  0.7778  0.2107 -0.0436
  637MOL0     C87770   3.107  11.073   7.633  0.8245 -0.4329  0.2002
  637MOL0     O87771   3.213  11.125   7.701 -0.4604  0.5528 -0.2262
  637MOL0     C87772   3.336  11.136   7.647 -0.7495 -0.7503  0.0279
  637MOL0     C87773   3.377  11.259   7.596 -0.6455  0.0840 -0.0620
  637MOL0     C87774   3.502  11.273   7.526  0.7932  0.6977  0.2774
  637MOL0     C87775   3.597  11.164   7.524  0.5167  0.7600 -0.4609
  637MOL0     O87776   3.715  11.167   7.457 -0.4805 -0.4493  0.6045
  637MOL0     C87777   3.791  11.275   7.515  0.8835 -0.3812  0.0514
  637MOL0     C87778   3.933  11.287   7.456  0.1238 -1.5273  0.1252
  637MOL0     C87779   4.028  11.183   7.528  0.3077 -0.8408 -0.1166
  637MOL0     C87780   4.159  11.149   7.455 -0.1413  0.4622  0.2155
  637MOL0     C87781   4.243  11.074   7.550 -0.6240 -0.5714 -0.3110
  637MOL0     C87782   4.367  11.004   7.491 -0.4632  0.1414  0.3702
  637MOL0     C87783   4.431  10.904   7.590 -0.2426 -0.1887 -0.3169
  637MOL0     C87784   4.562  10.962   7.657 -0.8053  0.8770  0.2150
  637MOL0     N87785   4.544  11.072   7.748 -0.7107  0.7293  0.1808
  637MOL0     C87786   4.475  11.061   7.859  0.1115 -0.2232  0.1252
  637MOL0     C87787   4.473  11.191   7.895 -0.7179  1.0149  0.4394
  637MOL0     C87788   4.414  11.246   8.025  1.2470 -0.2405  0.3401
  637MOL0     C87789   4.402  11.173   8.157 -0.2810  0.1745 -0.4812
  637MOL0     C87790   4.514  11.086   8.204 -0.3340 -0.4693 -0.4546
  637MOL0     C87791   4.629  11.180   8.226  0.3161  0.3802  0.3743
  637MOL0     O87792   4.617  11.243   8.357  0.0105  0.4555 -0.2780
  637MOL0     C87793   4.673  11.363   8.373  0.2626  0.0353 -1.6240
  637MOL0     C87794   4.635  11.458   8.475 -0.3806  1.3017  0.3655
  637MOL0     C87795   4.699  11.575   8.501  0.1415 -0.4399 -0.5604
  637MOL0     C87796   4.653  11.663   8.615 -0.0299 -0.3441 -0.2140
  637MOL0     C87797   4.793  11.619   8.410  0.9161 -0.2325  0.2184
  637MOL0     C87798   4.857  11.751   8.431 -0.6537  0.2413  0.9312
  637MOL0     O87799   5.002  11.747   8.430  1.4130  0.2016  0.2503
  637MOL0     C87800   5.077  11.864   8.436  0.7431  0.0605 -0.3936
  637MOL0     C87801   5.054  11.970   8.526 -0.5642 -0.2967  1.2362
  637MOL0     C87802   5.150  12.069   8.531 -0.3668  0.3067 -0.8140
  637MOL0     C87803   5.279  12.065   8.475 -0.1409 -0.6821 -0.1723
  637MOL0     O87804   5.380  12.162   8.486 -0.7587  0.5764 -0.1373
  637MOL0     C87805   5.339  12.287   8.528  0.0653 -0.3697  1.1596
  637MOL0     C87806   5.443  12.391   8.485  0.2683  0.5149  0.2351
  637MOL0     C87807   5.399  12.526   8.542 -0.5337  0.2798  0.0489
  637MOL0     C87808   5.483  12.643   8.491 -0.1835  0.1298 -1.1006
  637MOL0     C87809   5.457  12.771   8.573  0.1192  0.4555 -0.0807
  637MOL0     C87810   5.309  12.819   8.552 -0.3572  0.0860 -0.1239
  637MOL0     C87811   5.272  12.926   8.651 -0.6302 -0.4713  0.3713
  637MOL0     C87812   5.246  12.864   8.786 -0.2955 -0.4747  0.8885
  637MOL0    Cl87813   5.260  13.003   8.896 -0.1545 -0.1559 -0.1880
  637MOL0     C87814   5.310  11.957   8.394  1.0246 -0.7439 -0.8195
  637MOL0     C87815   5.208  11.863   8.379  0.0043 -0.4947  0.4250
  637MOL0     O87816   4.786  11.851   8.440 -0.8937  0.3405  0.4413
  637MOL0     C87817   4.840  11.537   8.307  0.0058 -0.0417  0.0524
  637MOL0     C87818   4.787  11.407   8.299  0.7191  0.4529 -0.3136
  637MOL0     N87819   4.526  11.278   7.795  0.6575 -0.7654 -0.5938
  637MOL0     N87820   4.565  11.198   7.706  0.1895 -0.2161 -0.0215
  637MOL0     C87821   3.547  11.040   7.571  0.9307  0.5055 -0.3151
  637MOL0     C87822   3.414  11.024   7.622 -0.1709  0.5015 -0.4843
  637MOL0     C87823   2.974  11.065   7.697  1.2821  1.0460 -0.3726
  637MOL0     C87824   2.970  11.106   7.835  0.7717  0.3091 -0.3336
  637MOL0     C87825   2.853  11.106   7.910  0.6337  0.4838  0.4616
  637MOL0     C87826   2.731  11.069   7.848 -0.6013  0.0799 -0.1356
  637MOL0     O87827   2.617  11.069   7.926 -0.0168 -0.0208 -0.7404
  637MOL0     C87828   2.546  10.950   7.963 -0.5637 -0.2788  0.0566
  637MOL0     C87829   2.413  11.008   8.016 -0.1320  0.5999 -0.8233
  637MOL0     C87830   2.312  10.908   8.075  0.4888  0.7531 -0.5922
  637MOL0     C87831   2.189  10.982   8.112  1.2477 -0.1807 -0.9338
  637MOL0     C87832   2.127  10.883   8.194 -0.6309  0.6119 -0.0056
  637MOL0     C87833   2.073  10.789   8.247  1.0381  0.5168 -0.3905
  637MOL0     C87834   2.742  11.005   7.727  0.4382  0.4743 -0.2663
  637MOL0     C87835   2.851  11.004   7.647 -0.2434 -0.5625  0.3072
  637MOL0     C87836   2.833  10.954   7.510 -0.1625  1.1917  0.3917
  637MOL0     H87837   3.327  11.351   7.625  0.8772  0.4933  1.4285
  637MOL0     H87838   3.518  11.355   7.457 -1.2452 -1.0550 -2.4648
  637MOL0     H87839   3.796  11.266   7.624 -1.2050  0.5473  0.2727
  637MOL0     H87840   3.745  11.371   7.491  0.5802 -1.3567 -3.9153
  637MOL0     H87841   3.934  11.302   7.348 -1.1898  2.4301  0.5074
  637MOL0     H87842   3.973  11.383   7.489  1.8166 -2.5859  1.3989
  637MOL0     H87843   4.055  11.230   7.623 -0.6849  0.2311 -0.3475
  637MOL0     H87844   3.968  11.098   7.562 -0.5945  0.4073  1.6063
  637MOL0     H87845   4.139  11.107   7.356  0.2757 -0.0585  0.3469
  637MOL0     H87846   4.212  11.243   7.439 -1.0340  1.1888  1.3580
  637MOL0     H87847   4.168  11.004   7.588 -1.3000 -0.1326 -0.7989
  637MOL0     H87848   4.273  11.144   7.629 -0.9356 -0.9673  0.1639
  637MOL0     H87849   4.338  10.944   7.405  2.2889 -4.7801  2.4544
  637MOL0     H87850   4.448  11.073   7.464  1.1230 -0.8368  2.2784
  637MOL0     H87851   4.456  10.816   7.531 -0.5393 -0.7136  0.3255
  637MOL0     H87852   4.354  10.875   7.662  0.2189 -0.9944 -0.1333
  637MOL0     H87853   4.607  10.893   7.729  3.0940  3.2122  0.2771
  637MOL0     H87854   4.637  10.962   7.578 -0.2938  0.6167  0.6956
  637MOL0     H87855   4.427  10.976   7.907 -1.7912  1.1489  0.8121
  637MOL0     H87856   4.314  11.285   8.006  2.5784  3.7873  0.7174
  637MOL0     H87857   4.469  11.340   8.034 -0.5679  1.2437 -2.5178
  637MOL0     H87858   4.376  11.247   8.233 -0.6104  0.3097 -0.7190
  637MOL0     H87859   4.315  11.106   8.156 -0.4555  0.3425  0.8807
  637MOL0     H87860   4.497  11.036   8.299 -1.5697 -1.7639 -1.3201
  637MOL0     H87861   4.547  11.012   8.131 -0.0492  0.0621 -0.8761
  637MOL0     H87862   4.722  11.122   8.227  2.2994  3.2015 -2.1286
  637MOL0     H87863   4.639  11.260   8.152 -0.8139  0.1594 -0.0406
  637MOL0     H87864   4.555  11.431   8.544  0.5752  2.0973  1.8539
  637MOL0     H87865   4.573  11.735   8.599  0.2595  0.4397  1.6207
  637MOL0     H87866   4.741  11.709   8.661 -0.1753  0.3162 -0.5857
  637MOL0     H87867   4.613  11.594   8.689 -1.0631 -1.5974 -1.8657
  637MOL0     H87868   4.960  11.981   8.580 -2.4544 -0.0467 -1.8526
  637MOL0     H87869   5.111  12.149   8.592 -1.1186 -1.3837  1.0442
  637MOL0     H87870   5.246  12.313   8.476  1.6679 -0.9331 -2.3046
  637MOL0     H87871   5.314  12.283   8.634 -1.4269 -2.9782  0.8152
  637MOL0     H87872   5.537  12.377   8.540  0.4280 -0.2745 -0.2276
  637MOL0     H87873   5.466  12.397   8.378 -0.6214 -0.3743 -0.0228
  637MOL0     H87874   5.409  12.534   8.651 -1.7573  2.7376  0.0471
  637MOL0     H87875   5.296  12.556   8.522  0.0961  4.2486  1.7524
  637MOL0     H87876   5.484  12.661   8.383  2.3243  1.0714 -0.9902
  637MOL0     H87877   5.583  12.608   8.517 -0.4068  0.8429  0.8619
  637MOL0     H87878   5.478  12.750   8.678 -1.5189  1.5384  0.5007
  637MOL0     H87879   5.523  12.857   8.553 -1.2830  2.2221  2.3635
  637MOL0     H87880   5.228  12.746   8.555 -0.9488  0.7542  0.4339
  637MOL0     H87881   5.323  12.872   8.457  0.8311 -0.7487 -0.4525
  637MOL0     H87882   5.198  12.994   8.609  1.8341  1.7347 -0.7161
  637MOL0     H87883   5.363  12.987   8.660 -0.9227  0.0965 -0.3864
  637MOL0     H87884   5.316  12.783   8.808  1.0017  0.1063 -0.8305
  637MOL0     H87885   5.144  12.826   8.794 -0.9993  1.5606  3.0658
  637MOL0     H87886   5.410  11.949   8.353  1.2994 -1.5396 -0.0333
  637MOL0     H87887   5.248  11.788   8.311  1.8360  0.9514 -0.1612
  637MOL0     H87888   4.910  11.582   8.237  0.0050 -1.3611 -0.8217
  637MOL0     H87889   4.823  11.348   8.216  1.5423 -2.7106  2.1234
  637MOL0     H87890   3.610  10.953   7.561 -1.9723 -1.7719 -0.0060
  637MOL0     H87891   3.375  10.926   7.649  0.9440  0.7173  2.2854
  637MOL0     H87892   3.059  11.132   7.892  0.4288  0.4600  0.1397
  637MOL0     H87893   2.858  11.133   8.015  1.2097  0.6513  0.3957
  637MOL0     H87894   2.518  10.895   7.872 -4.4131  1.6812 -0.1348
  637MOL0     H87895   2.607  10.890   8.030 -2.0191 -2.9246 -0.8181
  637MOL0     H87896   2.360  11.054   7.932 -1.4521  0.5328 -0.0556
  637MOL0     H87897   2.444  11.086   8.086 -0.1132 -1.4451  1.6049
  637MOL0     H87898   2.297  10.830   8.001 -2.1723  0.6852 -0.0670
  637MOL0     H87899   2.356  10.861   8.164 -0.5303  2.0462  0.6587
  637MOL0     H87900   2.123  10.993   8.026  0.8806  1.2635 -0.5017
  637MOL0     H87901   2.210  11.075   8.166  2.0342 -1.5716  1.3042
  637MOL0     H87902   2.019  10.710   8.295  1.7296  0.4778  0.3330
  637MOL0     H87903   2.661  10.945   7.686  0.4427 -0.4412  1.0134
  637MOL0     H87904   2.806  11.043   7.452  0.1589  1.9486  1.3890
  637MOL0     H87905   2.929  10.925   7.467  1.5300  4.7683  1.3809
  637MOL0     H87906   2.758  10.874   7.514  0.2463  0.8490  1.4813
  638MOL0     O87907  10.569  10.738   3.948  0.1863  0.3298 -0.8140
  638MOL0     C87908  10.554  10.654   3.859  0.3812  0.5851  0.2980
  638MOL0     O87909  10.474  10.663   3.754  0.2025 -0.3235 -0.4863
  638MOL0     C87910  10.416  10.784   3.722 -0.3984 -0.6837  0.9439
  638MOL0     C87911  10.286  10.803   3.759  0.9575  0.2447  0.5100
  638MOL0     C87912  10.224  10.925   3.717  0.0219 -0.4782  0.3754
  638MOL0     C87913  10.298  11.035   3.651  0.0648  0.8618 -0.2554
  638MOL0     O87914  10.254  11.159   3.601  0.3105  0.0132 -0.3748
  638MOL0     C87915  10.105  11.194   3.619 -0.3529  0.0031 -0.4230
  638MOL0     C87916  10.041  11.169   3.487 -0.6088 -0.5281 -0.3614
  638MOL0     C87917   9.893  11.194   3.457 -0.3148 -0.3647 -0.5731
  638MOL0     C87918   9.793  11.160   3.575 -0.2552 -1.1883  1.6513
  638MOL0     C87919   9.643  11.181   3.528  0.6050  0.2726 -0.4760
  638MOL0     C87920   9.548  11.216   3.644  0.3279  0.5129  0.1094
  638MOL0     C87921   9.417  11.262   3.593  1.3646  0.0933 -0.4244
  638MOL0     C87922   9.335  11.312   3.716  0.2022  1.0439  0.6161
  638MOL0     N87923   9.188  11.316   3.678 -0.2192  0.2816  0.2854
  638MOL0     C87924   9.139  11.386   3.570 -0.3843 -1.1036 -0.1634
  638MOL0     C87925   9.015  11.388   3.573  0.9507 -0.5113 -0.8473
  638MOL0     C87926   8.919  11.450   3.478  0.4657  0.7065 -0.1907
  638MOL0     C87927   8.845  11.333   3.409 -0.7756 -0.3285 -0.9610
  638MOL0     C87928   8.914  11.307   3.280  0.1900 -0.7963 -0.1353
  638MOL0     C87929   8.830  11.216   3.185  0.1913  0.3290  0.5168
  638MOL0     O87930   8.905  11.199   3.061  0.5030  0.8643 -0.3340
  638MOL0     C87931   8.849  11.114   2.973  0.7506 -0.7808 -0.7984
  638MOL0     C87932   8.889  10.984   2.977 -0.4757  0.5888 -0.6962
  638MOL0     C87933   8.827  10.880   2.909  0.6004  0.0041 -0.1061
  638MOL0     C87934   8.873  10.744   2.930 -0.4944 -0.3264  1.0311
  638MOL0     C87935   8.712  10.916   2.833 -0.0143  0.1021 -0.5178
  638MOL0     C87936   8.639  10.821   2.739 -0.5132  0.9938 -0.3862
  638MOL0     O87937   8.507  10.838   2.710  0.1902 -0.3090  0.1213
  638MOL0     C87938   8.458  10.751   2.615 -0.0995  0.6177 -1.6638
  638MOL0     C87939   8.398  10.632   2.659  0.4853  0.6228 -0.8640
  638MOL0     C87940   8.351  10.547   2.565  0.0870  1.7443  1.0198
  638MOL0     C87941   8.360  10.564   2.425  0.5344 -0.7547 -0.4097
  638MOL0     O87942   8.300  10.492   2.329  0.2619 -0.0183  0.6876
  638MOL0     C87943   8.300  10.346   2.344 -0.9854 -0.7262 -0.6525
  638MOL0     C87944   8.232  10.267   2.232  0.2687  0.5768  0.0075
  638MOL0     C87945   8.338  10.193   2.148  0.0978 -0.7007 -0.6656
  638MOL0     C87946   8.264  10.136   2.022 -0.7627 -0.0849  0.4196
  638MOL0     C87947   8.369  10.073   1.931  0.3953 -0.1533 -0.3608
  638MOL0     C87948   8.305  10.031   1.802  0.1676 -0.9496  0.2108
  638MOL0     C87949   8.203   9.922   1.825  0.2599  1.0132  1.3556
  638MOL0     C87950   8.197   9.852   1.695  0.3188  0.0352  0.3420
  638MOL0    Cl87951   8.076   9.729   1.728  0.2124  0.4556  0.3336
  638MOL0     C87952   8.417  10.687   2.381  0.2047 -0.6685 -0.1301
  638MOL0     C87953   8.470  10.776   2.480 -0.0580  0.8312  1.0103
  638MOL0     O87954   8.715  10.736   2.684  0.0580 -0.1079 -0.1708
  638MOL0     C87955   8.671  11.044   2.818 -0.7235  0.0865  0.1388
  638MOL0     C87956   8.743  11.149   2.889  0.8685 -0.5756  0.6869
  638MOL0     N87957   8.974  11.302   3.682 -0.9308  0.0922 -0.2791
  638MOL0     N87958   9.085  11.260   3.745  0.4009  0.6261  0.2543
  638MOL0     C87959  10.435  11.000   3.621 -0.0355 -0.9906 -0.0596
  638MOL0     C87960  10.494  10.887   3.667 -0.4583 -0.2378 -0.3946
  638MOL0     C87961  10.630  10.523   3.860 -0.1504 -0.2910 -0.2722
  638MOL0     C87962  10.753  10.525   3.934 -1.0852 -0.1515  0.0337
  638MOL0     C87963  10.840  10.416   3.945 -0.3822 -0.3858  0.5873
  638MOL0     C87964  10.816  10.293   3.898  0.9144  0.0864  0.4113
  638MOL0     O87965  10.888  10.173   3.904 -0.0951  0.4868 -0.5742
  638MOL0     C87966  11.001  10.183   4.004 -0.6000 -0.8978 -0.0435
  638MOL0     C87967  11.056  10.049   4.063  1.3623  1.1483 -0.4685
  638MOL0     C87968  11.141  10.062   4.178 -0.4137  0.1625 -0.1650
  638MOL0     C87969  11.219   9.936   4.212  0.2304 -0.1596 -0.3055
  638MOL0     C87970  11.267   9.935   4.346  0.1973 -0.2132  0.2554
  638MOL0     C87971  11.302   9.926   4.460  0.5025 -0.0550  0.7952
  638MOL0     C87972  10.691  10.283   3.837  1.3524  0.4076  0.1669
  638MOL0     C87973  10.595  10.393   3.820 -0.7057 -0.1251  0.3867
  638MOL0     C87974  10.465  10.356   3.751  0.3517  0.1903  0.5840
  638MOL0     H87975  10.242  10.716   3.807  0.4766 -0.7923 -1.6939
  638MOL0     H87976  10.117  10.944   3.726  0.3693  1.7820  0.3336
  638MOL0     H87977  10.089  11.296   3.657 -2.1674 -0.4529  0.1334
  638MOL0     H87978  10.051  11.136   3.694  0.9215 -1.3118 -0.4761
  638MOL0     H87979  10.094  11.239   3.422  1.8441  0.0154  2.0563
  638MOL0     H87980  10.070  11.067   3.460 -0.4170  0.2023 -3.1870
  638MOL0     H87981   9.887  11.302   3.441  3.4043 -0.2574 -2.2414
  638MOL0     H87982   9.858  11.149   3.364 -2.4042  0.8807 -0.4756
  638MOL0     H87983   9.804  11.054   3.602 -1.8868 -1.8751 -0.1547
  638MOL0     H87984   9.807  11.224   3.662 -0.5988 -0.2102  0.9976
  638MOL0     H87985   9.595  11.094   3.480  0.8893 -0.2544  0.1749
  638MOL0     H87986   9.646  11.249   3.443 -1.4467 -1.1500 -1.7850
  638MOL0     H87987   9.535  11.130   3.710  2.1727  0.8581  1.0019
  638MOL0     H87988   9.590  11.301   3.698  1.8346 -0.7978  1.0919
  638MOL0     H87989   9.356  11.180   3.554 -1.1694  1.5845  0.2280
  638MOL0     H87990   9.417  11.350   3.528 -0.0047  0.0234 -0.5406
  638MOL0     H87991   9.338  11.254   3.809 -1.0627 -0.1837 -0.0602
  638MOL0     H87992   9.374  11.408   3.749  3.6160  0.1654 -0.5047
  638MOL0     H87993   9.207  11.442   3.507 -1.5962  1.5391  0.7558
  638MOL0     H87994   8.963  11.524   3.410  0.9752  0.8605  0.3001
  638MOL0     H87995   8.847  11.506   3.538  0.4593  0.0758  0.3980
  638MOL0     H87996   8.829  11.247   3.475 -2.0637  1.5172  1.2601
  638MOL0     H87997   8.742  11.362   3.383 -0.8130 -0.7121 -1.2549
  638MOL0     H87998   8.935  11.399   3.226 -2.0713  3.3368  5.1637
  638MOL0     H87999   9.003  11.248   3.303  0.5304  0.1823  1.1741
  638MOL0     H88000   8.818  11.121   3.237 -1.0250  1.0099  1.5368
  638MOL0     H88001   8.737  11.268   3.161  0.7796  1.4721  0.6292
  638MOL0     H88002   8.977  10.950   3.030  1.6376  0.9645 -3.6822
  638MOL0     H88003   8.787  10.678   2.917  1.0353 -2.4270  1.0718
  638MOL0     H88004   8.920  10.726   3.027  1.9292  3.6429  0.8217
  638MOL0     H88005   8.941  10.725   2.846 -0.5992  5.0415 -0.6936
  638MOL0     H88006   8.374  10.620   2.764 -3.3948 -0.1650 -1.7040
  638MOL0     H88007   8.299  10.455   2.591 -0.6282  1.9006  0.1981
  638MOL0     H88008   8.404  10.315   2.352 -0.2299  1.9014  1.0824
  638MOL0     H88009   8.248  10.317   2.436  0.0924 -1.6879 -0.3394
  638MOL0     H88010   8.163  10.189   2.266 -1.1428  0.8816 -1.9295
  638MOL0     H88011   8.172  10.335   2.170  0.4866  0.6146 -0.1621
  638MOL0     H88012   8.384  10.114   2.207 -1.8506 -2.3073 -1.1899
  638MOL0     H88013   8.413  10.265   2.114 -0.1892 -0.2847 -0.4342
  638MOL0     H88014   8.213  10.213   1.962 -1.8524 -1.0840  0.0322
  638MOL0     H88015   8.192  10.062   2.057 -0.5640 -0.0130  0.9859
  638MOL0     H88016   8.459  10.130   1.906 -0.5618  0.6328 -2.1597
  638MOL0     H88017   8.403   9.989   1.993  0.0023  0.6414  0.9624
  638MOL0     H88018   8.377  10.020   1.719 -0.9739  5.2051 -2.0996
  638MOL0     H88019   8.257  10.121   1.765 -1.0291 -1.3139  0.8514
  638MOL0     H88020   8.103   9.964   1.842 -0.3710  0.9969 -1.7411
  638MOL0     H88021   8.218   9.854   1.909 -0.1242  0.6374  1.1250
  638MOL0     H88022   8.291   9.801   1.673  0.1430  0.1907 -0.8316
  638MOL0     H88023   8.168   9.905   1.604  1.5711  2.0721  1.0651
  638MOL0     H88024   8.421  10.730   2.281 -0.0132 -0.9429 -0.2580
  638MOL0     H88025   8.505  10.875   2.451 -2.0508  0.7181 -2.2491
  638MOL0     H88026   8.591  11.079   2.752 -2.3353 -2.7808  0.4063
  638MOL0     H88027   8.694  11.245   2.880 -0.8236 -1.5673 -2.9799
  638MOL0     H88028  10.498  11.083   3.588  1.0255 -1.6389  0.2849
  638MOL0     H88029  10.597  10.861   3.646 -0.5720 -2.3757  1.3335
  638MOL0     H88030  10.785  10.625   3.962 -0.1303 -0.3504 -0.2901
  638MOL0     H88031  10.935  10.426   3.996 -0.0590 -0.5546  0.0258
  638MOL0     H88032  11.086  10.222   3.947 -1.3141 -1.8029 -1.8098
  638MOL0     H88033  10.971  10.246   4.088 -0.6890 -1.2769  0.2139
  638MOL0     H88034  11.104   9.990   3.985  0.9667 -0.1387  0.2294
  638MOL0     H88035  10.970   9.985   4.087  1.7410 -0.9930 -4.1421
  638MOL0     H88036  11.200  10.153   4.168  0.5599 -0.4373 -0.0971
  638MOL0     H88037  11.090  10.103   4.266  0.1946 -0.7264  0.6302
  638MOL0     H88038  11.301   9.927   4.140  0.2401  0.3588 -0.3697
  638MOL0     H88039  11.151   9.851   4.203 -3.6035  2.5639  0.5602
  638MOL0     H88040  11.336   9.910   4.561  2.6775 -2.3560 -0.1875
  638MOL0     H88041  10.670  10.179   3.811  0.7691  0.1978  1.3972
  638MOL0     H88042  10.466  10.415   3.659 -2.9977  0.2712  0.4984
  638MOL0     H88043  10.448  10.252   3.723 -0.4324  0.2675  0.7377
  638MOL0     H88044  10.385  10.372   3.824  0.0518 -0.8320  0.4864
  639MOL0     O88045   8.421  10.906   3.140 -0.4509 -0.2322  0.1128
  639MOL0     C88046   8.451  10.976   3.240 -0.3640  0.2665  0.7832
  639MOL0     O88047   8.548  10.942   3.330  1.0478  0.2253  0.3747
  639MOL0     C88048   8.588  10.810   3.322 -0.1620  0.0347 -0.1772
  639MOL0     C88049   8.696  10.770   3.244  0.5213  0.0800  0.2306
  639MOL0     C88050   8.746  10.639   3.258 -0.4538 -0.5677 -0.4072
  639MOL0     C88051   8.685  10.543   3.344 -0.4526  0.3622  0.3537
  639MOL0     O88052   8.731  10.414   3.351 -0.7426  0.2943 -0.3353
  639MOL0     C88053   8.707  10.347   3.473  0.8422 -0.4298 -0.0361
  639MOL0     C88054   8.795  10.227   3.487 -0.5812 -0.0257  0.7638
  639MOL0     C88055   8.750  10.140   3.598 -0.1327 -0.1824  0.0022
  639MOL0     C88056   8.836  10.006   3.612  0.0678  0.2875  0.7706
  639MOL0     C88057   8.978  10.024   3.658  0.2662  0.0502  0.6754
  639MOL0     C88058   9.054   9.897   3.625  0.4623  0.1906 -0.1993
  639MOL0     C88059   9.204   9.903   3.674  0.5483 -0.1723  1.0085
  639MOL0     C88060   9.232   9.906   3.827 -0.6601 -0.4115 -0.8877
  639MOL0     N88061   9.167   9.786   3.889 -0.7747 -0.1393 -0.7505
  639MOL0     C88062   9.041   9.780   3.939  0.1673 -0.1497  0.3031
  639MOL0     C88063   9.030   9.649   3.980 -0.0614 -0.5871 -0.4217
  639MOL0     C88064   8.907   9.576   4.041 -0.4736 -0.7178 -0.3967
  639MOL0     C88065   8.830   9.667   4.141 -0.1547  0.3205  1.0923
  639MOL0     C88066   8.913   9.698   4.257  0.8165  0.3758 -0.8863
  639MOL0     C88067   8.813   9.721   4.377 -0.4741  0.0894 -0.2425
  639MOL0     O88068   8.891   9.753   4.492  0.9098 -0.1693  0.1077
  639MOL0     C88069   8.939   9.656   4.588 -0.6852 -0.0409  0.0594
  639MOL0     C88070   8.902   9.526   4.604  0.4242  1.3944 -0.4400
  639MOL0     C88071   8.936   9.443   4.721  1.1936 -0.1099 -0.6843
  639MOL0     C88072   8.868   9.306   4.745 -0.2253 -0.2663 -0.1152
  639MOL0     C88073   9.054   9.490   4.798 -0.5481 -0.5642 -0.1378
  639MOL0     C88074   9.118   9.421   4.909  0.1215 -0.1266 -0.4081
  639MOL0     O88075   9.170   9.498   5.014  0.9394  0.3909  0.5143
  639MOL0     C88076   9.255   9.440   5.105  1.1215 -0.2176  0.3034
  639MOL0     C88077   9.224   9.407   5.241  0.0422 -0.1472  0.8556
  639MOL0     C88078   9.314   9.342   5.322  0.5488  0.3443  0.6045
  639MOL0     C88079   9.447   9.340   5.279  0.4642  0.8674  1.1425
  639MOL0     O88080   9.542   9.288   5.366  0.2094 -0.1594  0.8133
  639MOL0     C88081   9.518   9.185   5.459  0.2317  0.2755  0.7185
  639MOL0     C88082   9.493   9.258   5.589 -0.0574 -0.6323 -0.0901
  639MOL0     C88083   9.453   9.152   5.695 -0.2389  0.1347  0.3760
  639MOL0     C88084   9.431   9.225   5.824 -0.8661 -0.2865 -0.6077
  639MOL0     C88085   9.368   9.145   5.935 -1.1156 -0.2168  0.4664
  639MOL0     C88086   9.317   9.243   6.037 -0.2210  0.5805  0.2532
  639MOL0     C88087   9.229   9.176   6.151  0.7126  0.0050  0.2973
  639MOL0     C88088   9.203   9.277   6.264 -0.6340 -0.2852 -0.4687
  639MOL0    Cl88089   9.351   9.295   6.373  0.3652  0.5661  0.4280
  639MOL0     C88090   9.480   9.388   5.153  0.1200  0.1503  0.1650
  639MOL0     C88091   9.383   9.432   5.062 -0.4897 -0.5980 -0.3277
  639MOL0     O88092   9.117   9.296   4.909  0.2752 -0.2454  0.4849
  639MOL0     C88093   9.102   9.619   4.759 -0.1438  0.7185 -0.5997
  639MOL0     C88094   9.046   9.707   4.659  0.2421  0.5091  0.4063
  639MOL0     N88095   9.149   9.581   3.955  0.6495 -0.1241  0.2826
  639MOL0     N88096   9.231   9.666   3.896 -0.6159 -0.0802  1.0671
  639MOL0     C88097   8.573  10.587   3.417  0.1928  1.1948 -0.3397
  639MOL0     C88098   8.524  10.719   3.410 -0.5125  0.3659  0.1716
  639MOL0     C88099   8.386  11.101   3.260 -0.0843 -0.3110  0.7439
  639MOL0     C88100   8.275  11.138   3.179  0.1938  0.1047  0.4577
  639MOL0     C88101   8.210  11.265   3.185  0.0789  0.9461  0.0213
  639MOL0     C88102   8.243  11.359   3.294  1.0439  0.2233  0.1301
  639MOL0     O88103   8.187  11.482   3.316  0.0791 -0.5723 -0.0258
  639MOL0     C88104   8.088  11.519   3.221  0.0260  0.5561  0.2204
  639MOL0     C88105   8.036  11.663   3.237 -0.8771 -0.7428 -0.4249
  639MOL0     C88106   8.159  11.773   3.250 -0.4209 -0.4022  0.1631
  639MOL0     C88107   8.132  11.919   3.217 -0.0408 -0.5561 -0.2366
  639MOL0     C88108   8.024  11.980   3.300 -0.2504  1.0295 -0.4628
  639MOL0     C88109   7.943  12.037   3.367 -0.1437  0.8434 -0.0693
  639MOL0     C88110   8.341  11.321   3.377  0.7220 -0.4425 -0.0024
  639MOL0     C88111   8.420  11.201   3.358  0.5581 -0.7260  0.1312
  639MOL0     C88112   8.538  11.191   3.439  0.7104  0.2894 -0.2837
  639MOL0     H88113   8.740  10.847   3.182 -0.4231 -0.4338 -1.1280
  639MOL0     H88114   8.828  10.604   3.196  3.5845  3.0220  2.3279
  639MOL0     H88115   8.607  10.307   3.492  0.6040  0.9788  2.0454
  639MOL0     H88116   8.729  10.411   3.560 -2.1130  1.4302 -0.5255
  639MOL0     H88117   8.801  10.183   3.387 -0.3736 -0.5898  1.0214
  639MOL0     H88118   8.898  10.259   3.504 -0.2853 -0.5212 -0.0644
  639MOL0     H88119   8.733  10.184   3.697 -0.7490 -0.0225 -0.1689
  639MOL0     H88120   8.647  10.108   3.575 -0.5006 -0.3455  1.7171
  639MOL0     H88121   8.787   9.943   3.687 -0.9971  1.0472  0.7307
  639MOL0     H88122   8.833   9.954   3.516  0.9242  2.0938 -0.2875
  639MOL0     H88123   8.964  10.038   3.765 -3.7600 -0.3113  0.3528
  639MOL0     H88124   9.025  10.104   3.600  0.5704 -1.6699 -1.6346
  639MOL0     H88125   9.004   9.806   3.658  1.6091 -2.0601 -3.9605
  639MOL0     H88126   9.044   9.886   3.516 -2.9526  1.0210 -0.0800
  639MOL0     H88127   9.249   9.988   3.621 -1.5137  1.0247  1.0885
  639MOL0     H88128   9.251   9.812   3.635 -0.8627 -0.0017 -1.2721
  639MOL0     H88129   9.341   9.899   3.836 -0.3268  0.2214 -3.5461
  639MOL0     H88130   9.205  10.003   3.869 -3.0413 -1.6795  0.7542
  639MOL0     H88131   8.960   9.852   3.942  2.1080  2.1785  3.4146
  639MOL0     H88132   8.946   9.483   4.083 -1.6040 -1.6277 -1.3076
  639MOL0     H88133   8.845   9.545   3.956 -1.7165 -0.1669  0.2824
  639MOL0     H88134   8.800   9.757   4.087  0.1486 -1.0209 -1.4498
  639MOL0     H88135   8.733   9.623   4.165 -1.0730  2.2022  0.9656
  639MOL0     H88136   8.979   9.613   4.278  0.4226  0.3213  0.1998
  639MOL0     H88137   8.967   9.790   4.234  0.0739  0.4788 -2.3412
  639MOL0     H88138   8.737   9.796   4.357  0.6908  1.9448  1.7534
  639MOL0     H88139   8.749   9.638   4.407 -3.3608  2.2151 -0.1741
  639MOL0     H88140   8.828   9.492   4.532  0.9118  1.6512 -1.0699
  639MOL0     H88141   8.812   9.327   4.837  0.2247 -3.7963  1.0957
  639MOL0     H88142   8.936   9.227   4.775  0.8759 -0.3537 -2.5599
  639MOL0     H88143   8.814   9.272   4.656 -2.4133  2.0117  0.2249
  639MOL0     H88144   9.125   9.409   5.285 -0.2002 -0.2325  0.3235
  639MOL0     H88145   9.285   9.307   5.421  1.3927  0.8539  1.0438
  639MOL0     H88146   9.443   9.114   5.424 -0.0195  1.6114 -1.6084
  639MOL0     H88147   9.606   9.120   5.462 -3.1266 -4.8774 -0.6998
  639MOL0     H88148   9.585   9.313   5.613 -0.7345  1.6492 -2.2721
  639MOL0     H88149   9.412   9.331   5.584 -0.9060 -1.6031 -1.0260
  639MOL0     H88150   9.534   9.079   5.703  0.9970  1.5174  1.1481
  639MOL0     H88151   9.357   9.104   5.679 -1.3391  1.4141  2.6574
  639MOL0     H88152   9.385   9.324   5.816 -0.9015 -0.1462  0.9237
  639MOL0     H88153   9.526   9.256   5.870 -0.6836  0.7830 -1.6733
  639MOL0     H88154   9.286   9.081   5.898 -0.0981 -0.3427 -1.7081
  639MOL0     H88155   9.443   9.077   5.975  3.4156  1.3797 -4.1494
  639MOL0     H88156   9.258   9.316   5.981 -1.7447  1.0772  2.3576
  639MOL0     H88157   9.399   9.296   6.087  0.2179  2.5100 -2.3047
  639MOL0     H88158   9.266   9.084   6.196 -0.8831 -0.2013  1.2273
  639MOL0     H88159   9.133   9.157   6.102 -0.3489  0.1209  2.2268
  639MOL0     H88160   9.129   9.231   6.330 -0.1067  1.5294  1.4527
  639MOL0     H88161   9.171   9.375   6.230  1.5227  0.6764  0.1061
  639MOL0     H88162   9.583   9.376   5.121 -0.6095 -1.4018 -1.8016
  639MOL0     H88163   9.412   9.459   4.961 -1.3943  0.3665 -0.3520
  639MOL0     H88164   9.181   9.654   4.825 -1.4400 -0.1041  1.4926
  639MOL0     H88165   9.075   9.807   4.629 -0.5171  0.4046 -0.7603
  639MOL0     H88166   8.524  10.516   3.483 -0.0946 -0.4502 -2.2363
  639MOL0     H88167   8.446  10.762   3.471 -3.4457 -1.7321 -1.8159
  639MOL0     H88168   8.229  11.070   3.109 -2.7544  2.8216 -0.4937
  639MOL0     H88169   8.115  11.269   3.134 -1.3094 -0.1524  2.3544
  639MOL0     H88170   8.130  11.498   3.122 -2.0948 -2.9111 -0.1369
  639MOL0     H88171   7.998  11.456   3.226 -0.9664  1.6864 -2.0259
  639MOL0     H88172   7.966  11.672   3.320 -3.9894 -0.5112 -2.9137
  639MOL0     H88173   7.964  11.682   3.157 -0.6248 -0.3400 -0.5617
  639MOL0     H88174   8.196  11.767   3.353  1.3510  1.5423 -0.3018
  639MOL0     H88175   8.236  11.746   3.178  0.4156  2.1537  0.0121
  639MOL0     H88176   8.110  11.928   3.110  0.4723 -0.0224 -0.3006
  639MOL0     H88177   8.219  11.981   3.239  0.5630 -0.6410 -2.1771
  639MOL0     H88178   7.868  12.085   3.427 -0.8946  0.1680 -0.4490
  639MOL0     H88179   8.380  11.402   3.438  0.8501 -1.2144  0.9808
  639MOL0     H88180   8.518  11.111   3.510 -1.1303  0.4720 -0.5523
  639MOL0     H88181   8.631  11.152   3.395  0.3780 -1.1686  0.2549
  639MOL0     H88182   8.561  11.286   3.488  3.2528  1.4893 -3.4219
  640MOL0     O88183   7.778   2.649  11.474 -0.6583 -0.0209  0.2418
  640MOL0     C88184   7.893   2.610  11.464 -0.4988 -0.3754  1.1216
  640MOL0     O88185   8.003   2.692  11.468 -0.2547  0.9736  0.2006
  640MOL0     C88186   7.979   2.824  11.436  0.8268 -0.1008  0.3921
  640MOL0     C88187   8.028   2.923  11.531  1.0630  0.2272  0.0230
  640MOL0     C88188   8.000   3.058  11.506 -0.2490 -0.1147 -0.5305
  640MOL0     C88189   7.943   3.104  11.395 -0.3492  0.1212 -0.2902
  640MOL0     O88190   7.934   3.243  11.384  0.5386 -0.5084 -0.6585
  640MOL0     C88191   7.926   3.300  11.250  0.1863  1.1993  0.1921
  640MOL0     C88192   7.920   3.449  11.256 -1.2405 -0.1644  0.0651
  640MOL0     C88193   7.884   3.505  11.113 -0.2831  0.3331 -0.1709
  640MOL0     C88194   7.888   3.657  11.119  0.2736  0.2152 -0.3426
  640MOL0     C88195   7.895   3.720  10.979 -0.1608 -0.3636 -0.6307
  640MOL0     C88196   7.866   3.872  10.967 -0.4883 -0.0801 -0.6885
  640MOL0     C88197   7.984   3.960  11.016 -0.6373  0.3799  0.9731
  640MOL0     C88198   7.947   4.111  11.040  0.4073 -0.3291  0.1801
  640MOL0     N88199   7.830   4.145  10.965 -0.2677  0.4081  0.0825
  640MOL0     C88200   7.828   4.204  10.841 -0.0564  0.8296 -0.0662
  640MOL0     C88201   7.700   4.238  10.833  0.3542  0.7988  0.1397
  640MOL0     C88202   7.638   4.292  10.707  0.1612 -0.0728 -0.5708
  640MOL0     C88203   7.524   4.212  10.650 -0.6017 -0.5111 -0.0953
  640MOL0     C88204   7.567   4.064  10.623 -0.1352 -0.0067 -1.3078
  640MOL0     C88205   7.550   3.962  10.744 -0.6917 -0.8632  0.7739
  640MOL0     O88206   7.550   3.822  10.686  0.1570  0.1979 -0.0581
  640MOL0     C88207   7.529   3.718  10.780 -0.2492  0.2901 -0.1391
  640MOL0     C88208   7.496   3.593  10.723 -0.7142  0.0946  0.4271
  640MOL0     C88209   7.484   3.480  10.800  0.7812 -0.5647 -0.2906
  640MOL0     C88210   7.442   3.349  10.737 -0.5178 -0.7329 -1.3709
  640MOL0     C88211   7.509   3.489  10.942  0.5072  0.4776  0.9374
  640MOL0     C88212   7.479   3.382  11.035  0.5436 -0.2490  1.3085
  640MOL0     O88213   7.571   3.324  11.102  0.4536  0.4154 -0.0361
  640MOL0     C88214   7.533   3.252  11.215  0.1308 -0.1713  0.4284
  640MOL0     C88215   7.498   3.328  11.331 -0.3785 -0.1368  0.1264
  640MOL0     C88216   7.461   3.254  11.442  0.7067  0.1346  0.6905
  640MOL0     C88217   7.454   3.116  11.440  0.3597 -0.8678  0.0945
  640MOL0     O88218   7.418   3.066  11.567 -0.6213  0.1977 -0.5661
  640MOL0     C88219   7.414   2.923  11.580  0.0217 -1.2118  0.4864
  640MOL0     C88220   7.288   2.867  11.523 -0.0481  0.4013  0.5561
  640MOL0     C88221   7.294   2.717  11.498  0.2458 -0.6320 -0.0544
  640MOL0     C88222   7.322   2.634  11.614 -0.5178  0.6420  0.3851
  640MOL0     C88223   7.325   2.485  11.581 -0.3483 -0.0226  0.3067
  640MOL0     C88224   7.342   2.388  11.697  0.1917  0.4273 -0.2458
  640MOL0     C88225   7.457   2.413  11.784 -0.6082 -0.1551 -0.3266
  640MOL0     C88226   7.495   2.288  11.864  0.2967  0.1232 -0.6131
  640MOL0    Cl88227   7.558   2.151  11.760 -0.3200  0.5222 -0.0021
  640MOL0     C88228   7.475   3.045  11.326 -0.4876  0.3801  0.5599
  640MOL0     C88229   7.510   3.114  11.208 -0.8527  0.1251 -0.2050
  640MOL0     O88230   7.357   3.354  11.041 -0.2704  0.0719  0.1027
  640MOL0     C88231   7.534   3.619  11.000  0.6093 -0.1284  0.2800
  640MOL0     C88232   7.551   3.731  10.922  0.1862  0.0262 -0.2316
  640MOL0     N88233   7.634   4.204  10.946 -0.1991 -0.2585 -0.7638
  640MOL0     N88234   7.714   4.159  11.033 -1.1884  0.0277 -0.0918
  640MOL0     C88235   7.889   3.010  11.303 -0.5575  0.0702  0.9471
  640MOL0     C88236   7.907   2.872  11.324 -0.1523  0.0516 -1.7590
  640MOL0     C88237   7.924   2.466  11.503  0.5318 -0.3525  0.1077
  640MOL0     C88238   8.055   2.424  11.546  1.0462 -0.9380 -0.0303
  640MOL0     C88239   8.086   2.293  11.576  0.1916  0.6013  0.9030
  640MOL0     C88240   7.992   2.198  11.561  0.2318 -0.6552 -0.8635
  640MOL0     O88241   8.014   2.066  11.591  0.1503 -0.5372 -0.4047
  640MOL0     C88242   8.138   2.006  11.637 -0.5503  0.0367  0.0394
  640MOL0     C88243   8.227   1.958  11.523 -0.5575  0.1378  0.3627
  640MOL0     C88244   8.295   2.072  11.455 -0.5775  0.1762 -0.1763
  640MOL0     C88245   8.414   2.018  11.376  0.3136  0.1003  0.3178
  640MOL0     C88246   8.480   2.123  11.293  0.0389  0.4057 -0.4092
  640MOL0     C88247   8.524   2.214  11.223 -0.8612 -0.6022 -0.0124
  640MOL0     C88248   7.868   2.230  11.517 -0.0724  0.8507 -0.1926
  640MOL0     C88249   7.831   2.360  11.487 -0.6511 -0.5699  0.2097
  640MOL0     C88250   7.705   2.380  11.418 -0.7004 -1.1546  0.0634
  640MOL0     H88251   8.083   2.881  11.614 -1.3582 -0.8754  1.1809
  640MOL0     H88252   8.041   3.119  11.586  1.0582 -2.7349  0.9205
  640MOL0     H88253   7.834   3.254  11.213 -0.8006  1.0827  2.5850
  640MOL0     H88254   8.021   3.277  11.201 -0.0081  0.5924  0.0996
  640MOL0     H88255   7.844   3.487  11.324  0.4016  2.0065  0.7698
  640MOL0     H88256   8.022   3.485  11.271 -1.1404  1.1922 -3.0705
  640MOL0     H88257   7.952   3.467  11.036 -0.8402 -0.5778 -0.2236
  640MOL0     H88258   7.781   3.475  11.093 -0.4363  0.4379  0.4299
  640MOL0     H88259   7.801   3.696  11.173  0.2059  3.2422 -2.4244
  640MOL0     H88260   7.972   3.700  11.174 -0.5231 -1.0906  2.0862
  640MOL0     H88261   7.837   3.655  10.913 -1.1241 -0.5689  0.3941
  640MOL0     H88262   7.995   3.715  10.935  1.6012  3.5310  2.3053
  640MOL0     H88263   7.843   3.907  10.866 -2.7172 -2.7417 -1.2081
  640MOL0     H88264   7.779   3.893  11.031 -1.9140 -1.5913 -2.0457
  640MOL0     H88265   8.062   3.957  10.939  1.2219  2.8330  2.6069
  640MOL0     H88266   8.023   3.914  11.108 -0.1853 -1.2975 -0.0119
  640MOL0     H88267   7.923   4.135  11.144  1.9777  2.1513  0.0565
  640MOL0     H88268   8.019   4.186  11.006 -1.6720  1.0325 -1.4636
  640MOL0     H88269   7.907   4.205  10.767  2.5488 -0.0429  2.5089
  640MOL0     H88270   7.723   4.293  10.637  2.4485 -2.9115  1.8645
  640MOL0     H88271   7.610   4.397  10.721 -2.9251 -1.0723  2.0002
  640MOL0     H88272   7.432   4.212  10.709 -0.2253  0.2469  0.4975
  640MOL0     H88273   7.499   4.248  10.550 -0.0094 -2.6794 -1.0776
  640MOL0     H88274   7.514   4.023  10.537  0.0905  0.1652 -1.5298
  640MOL0     H88275   7.672   4.061  10.593 -0.3179 -1.0296 -1.9012
  640MOL0     H88276   7.638   3.973  10.808  1.4462  0.4291 -2.1854
  640MOL0     H88277   7.458   3.980  10.800 -0.7057 -0.7207  0.7038
  640MOL0     H88278   7.500   3.589  10.615  2.1827 -1.9607  0.4948
  640MOL0     H88279   7.333   3.341  10.731 -0.3195 -5.6888 -2.9126
  640MOL0     H88280   7.469   3.257  10.790 -0.1571  0.6991  1.1075
  640MOL0     H88281   7.484   3.339  10.637  1.6443  0.6385 -0.6599
  640MOL0     H88282   7.493   3.436  11.336 -3.1225 -0.2328  2.2766
  640MOL0     H88283   7.435   3.312  11.530 -0.1507 -0.8182  1.0904
  640MOL0     H88284   7.497   2.888  11.518  1.0857  3.1879 -0.9376
  640MOL0     H88285   7.420   2.885  11.682  1.8861  0.5803  1.1173
  640MOL0     H88286   7.206   2.897  11.588 -1.1603 -0.0712 -0.5914
  640MOL0     H88287   7.269   2.919  11.429  1.1778 -0.7806 -0.3969
  640MOL0     H88288   7.374   2.718  11.424 -1.1636  0.3456 -1.6633
  640MOL0     H88289   7.200   2.692  11.447  0.2418  0.7102 -0.7628
  640MOL0     H88290   7.237   2.659  11.678  1.6001 -0.2006  3.7351
  640MOL0     H88291   7.407   2.671  11.670 -0.7188  2.8284 -0.6440
  640MOL0     H88292   7.235   2.471  11.520 -0.1587 -0.4406  0.1203
  640MOL0     H88293   7.407   2.482  11.509 -1.8639 -1.0512 -1.4306
  640MOL0     H88294   7.347   2.284  11.662 -0.8284 -0.6235  2.4515
  640MOL0     H88295   7.251   2.395  11.757  0.4525  1.9490  0.0037
  640MOL0     H88296   7.426   2.500  11.842 -0.4532 -0.6816  0.5588
  640MOL0     H88297   7.545   2.433  11.723  1.6239 -2.0183  2.0581
  640MOL0     H88298   7.405   2.252  11.916  0.2932 -0.7909 -1.2247
  640MOL0     H88299   7.567   2.295  11.946 -1.8317 -1.2779  1.5232
  640MOL0     H88300   7.449   2.940  11.311 -2.6261  0.7918  0.9804
  640MOL0     H88301   7.521   3.060  11.115 -2.4375  0.8860 -0.8673
  640MOL0     H88302   7.553   3.642  11.105 -2.0982  2.2603  0.3548
  640MOL0     H88303   7.575   3.825  10.972  0.5828 -0.2412  0.0804
  640MOL0     H88304   7.820   3.040  11.225 -1.5280 -4.4106 -0.2545
  640MOL0     H88305   7.882   2.800  11.246  4.4701 -0.8843 -2.6785
  640MOL0     H88306   8.140   2.491  11.538  1.0219 -1.0205 -1.1000
  640MOL0     H88307   8.190   2.274  11.603  0.0191 -2.7162 -0.2697
  640MOL0     H88308   8.204   2.070  11.696 -1.2462  1.8243 -1.0428
  640MOL0     H88309   8.112   1.916  11.693  3.0075 -1.1884 -0.0337
  640MOL0     H88310   8.172   1.891  11.458  1.9096  0.6837 -2.4945
  640MOL0     H88311   8.295   1.893  11.578 -4.4260 -3.7503  1.0482
  640MOL0     H88312   8.235   2.135  11.389  1.8473  1.1350 -1.5753
  640MOL0     H88313   8.319   2.138  11.538  0.3968  1.3869 -1.3793
  640MOL0     H88314   8.371   1.950  11.302 -3.2807  0.2807  2.0314
  640MOL0     H88315   8.476   1.954  11.438 -1.3894  2.7880  5.3627
  640MOL0     H88316   8.558   2.289  11.155  0.4851  0.1598  1.4324
  640MOL0     H88317   7.797   2.151  11.494  0.9355  0.5184 -2.4241
  640MOL0     H88318   7.671   2.283  11.382 -1.0739 -0.9421 -0.1658
  640MOL0     H88319   7.639   2.430  11.489 -2.0706 -0.8707 -1.3445
  640MOL0     H88320   7.725   2.453  11.339  3.0588 -2.0021  0.0486
  641MOL0     O88321   4.024   6.852   1.370  0.5826  0.1863  0.3765
  641MOL0     C88322   3.945   6.920   1.308  0.5528 -0.2548 -0.1424
  641MOL0     O88323   3.918   6.898   1.180 -0.9125 -0.3314  0.1815
  641MOL0     C88324   3.967   6.781   1.118  0.0159  0.5470 -0.1630
  641MOL0     C88325   3.873   6.682   1.086  0.2585 -0.5748 -0.2453
  641MOL0     C88326   3.905   6.557   1.034 -0.5702 -0.6878  0.0398
  641MOL0     C88327   4.040   6.545   0.989  1.0001  0.3606 -0.0629
  641MOL0     O88328   4.078   6.422   0.943 -0.7857 -0.4460  0.5614
  641MOL0     C88329   4.144   6.428   0.813  0.7446  0.1831 -0.0374
  641MOL0     C88330   4.049   6.379   0.705 -0.3612  0.3866  0.3931
  641MOL0     C88331   4.056   6.233   0.658 -0.3846 -0.3010 -0.3595
  641MOL0     C88332   4.010   6.159   0.778  0.3353  0.5961  0.3670
  641MOL0     C88333   4.034   6.013   0.758 -0.2932  0.3870  0.0690
  641MOL0     C88334   4.176   5.964   0.742 -0.1052  0.7058  0.6993
  641MOL0     C88335   4.200   5.814   0.767 -0.3742 -1.0679  0.0380
  641MOL0     C88336   4.342   5.764   0.740  0.0075  0.3723  0.0871
  641MOL0     N88337   4.368   5.779   0.594 -0.3629 -0.3844 -0.2978
  641MOL0     C88338   4.301   5.707   0.495  0.4296 -0.6470 -0.2332
  641MOL0     C88339   4.330   5.775   0.381 -0.2806 -0.3941  0.2553
  641MOL0     C88340   4.264   5.747   0.246  0.0073 -0.4110  0.0507
  641MOL0     C88341   4.236   5.883   0.179 -0.1434  0.9954  0.2242
  641MOL0     C88342   4.139   5.980   0.258 -0.4170  0.3792 -0.9371
  641MOL0     C88343   4.111   6.096   0.165 -0.3011 -0.7298 -0.3724
  641MOL0     O88344   4.228   6.177   0.161  0.4939  0.7384 -0.0797
  641MOL0     C88345   4.231   6.288   0.247  0.3386  0.9457  0.5720
  641MOL0     C88346   4.345   6.293   0.330 -1.1930 -0.7431  0.2243
  641MOL0     C88347   4.362   6.398   0.427  0.3342 -0.0822 -0.3685
  641MOL0     C88348   4.467   6.397   0.530  0.2549  0.7118 -0.1778
  641MOL0     C88349   4.273   6.511   0.416  0.2175  0.3477 -0.7849
  641MOL0     C88350   4.283   6.636   0.495 -0.1282 -0.0600  0.4574
  641MOL0     O88351   4.164   6.702   0.516  0.6255 -0.8581 -0.9273
  641MOL0     C88352   4.165   6.812   0.595  0.5821 -1.5685  0.3233
  641MOL0     C88353   4.065   6.828   0.690 -0.3980 -0.0789  0.5407
  641MOL0     C88354   4.043   6.944   0.773  0.3236 -0.5466 -0.0084
  641MOL0     C88355   4.128   7.058   0.752 -1.6703 -0.2240  0.1774
  641MOL0     O88356   4.115   7.187   0.803  0.4201  1.0200  0.7495
  641MOL0     C88357   4.033   7.197   0.925  0.7391  0.1435  0.1861
  641MOL0     C88358   4.030   7.348   0.954 -0.4623  0.4489 -0.2729
  641MOL0     C88359   3.968   7.392   1.080 -0.6097  0.6021  0.3097
  641MOL0     C88360   3.985   7.540   1.112  0.1628 -0.2959  0.8958
  641MOL0     C88361   3.935   7.583   1.254  0.0274  0.1030  0.4156
  641MOL0     C88362   4.019   7.709   1.292  1.5919 -0.9118  0.1031
  641MOL0     C88363   4.006   7.764   1.434 -0.3197  0.2201  0.0359
  641MOL0     C88364   4.054   7.913   1.452  0.4720 -0.6195 -0.1910
  641MOL0    Cl88365   3.906   8.014   1.483 -0.2075  0.0006  0.0130
  641MOL0     C88366   4.233   7.043   0.661 -0.5765 -0.3737  0.0497
  641MOL0     C88367   4.254   6.920   0.584  0.7060 -0.3754  0.0566
  641MOL0     O88368   4.393   6.673   0.524 -0.4847 -0.8809 -0.5810
  641MOL0     C88369   4.160   6.507   0.326  0.0195 -0.4941 -0.4419
  641MOL0     C88370   4.131   6.388   0.257  0.0742 -0.8445  0.7170
  641MOL0     N88371   4.425   5.875   0.410  0.1946 -0.2924 -0.5166
  641MOL0     N88372   4.445   5.877   0.536 -0.4946  0.1247 -0.7986
  641MOL0     C88373   4.131   6.647   1.001 -0.2651 -0.6348 -0.0955
  641MOL0     C88374   4.101   6.769   1.074  0.5870 -0.0527  0.2411
  641MOL0     C88375   3.885   7.045   1.366 -1.3296 -0.4434 -0.6489
  641MOL0     C88376   3.766   7.092   1.320 -0.4584 -0.2528  1.0220
  641MOL0     C88377   3.708   7.209   1.366  0.6850 -0.3511  1.0686
  641MOL0     C88378   3.767   7.289   1.473  0.3651 -0.1037 -0.0936
  641MOL0     O88379   3.730   7.417   1.518 -0.2067  0.2668 -1.0548
  641MOL0     C88380   3.581   7.448   1.528  0.0083  0.3246 -0.2058
  641MOL0     C88381   3.562   7.534   1.651  0.6890 -0.0023  0.2450
  641MOL0     C88382   3.649   7.660   1.647  0.1130  0.1531 -0.8056
  641MOL0     C88383   3.669   7.712   1.792 -0.0053 -0.0787  0.6883
  641MOL0     C88384   3.546   7.733   1.869 -0.2209  0.0337  0.5586
  641MOL0     C88385   3.446   7.764   1.927  0.4139  0.3018  0.3939
  641MOL0     C88386   3.887   7.239   1.512 -0.2080 -0.6600  0.2994
  641MOL0     C88387   3.946   7.121   1.471  0.5362  0.1159 -0.0872
  641MOL0     C88388   4.082   7.088   1.539  0.2915 -0.2854 -0.9451
  641MOL0     H88389   3.773   6.697   1.125  0.5550 -0.6041  0.5464
  641MOL0     H88390   3.836   6.480   1.003 -2.0242  0.4874  0.2299
  641MOL0     H88391   4.239   6.372   0.815  0.6381  0.0073  0.1449
  641MOL0     H88392   4.170   6.530   0.785 -1.4310  1.0324  0.8875
  641MOL0     H88393   3.947   6.385   0.745  0.5036  0.7846  2.7422
  641MOL0     H88394   4.063   6.444   0.618  0.1244  0.7235  0.7155
  641MOL0     H88395   3.981   6.224   0.578  0.4601  1.8616 -1.4995
  641MOL0     H88396   4.158   6.205   0.629 -0.6647 -0.9319 -0.7646
  641MOL0     H88397   4.076   6.187   0.861  1.4967 -2.1945  0.5161
  641MOL0     H88398   3.905   6.173   0.806  0.0985 -0.2180 -0.0743
  641MOL0     H88399   3.991   5.991   0.660  1.0931 -1.9292 -0.0733
  641MOL0     H88400   3.983   5.940   0.822 -0.1232  0.7513  0.6344
  641MOL0     H88401   4.225   5.995   0.649 -2.7708 -3.7166 -2.5317
  641MOL0     H88402   4.232   6.009   0.825  1.1964  1.4423 -0.5325
  641MOL0     H88403   4.126   5.759   0.708 -1.5737 -0.5337  0.9998
  641MOL0     H88404   4.167   5.785   0.867 -0.9294 -0.2913  0.0837
  641MOL0     H88405   4.413   5.827   0.794  0.8397 -0.3887 -0.0992
  641MOL0     H88406   4.347   5.657   0.762 -2.3288  0.6188  2.3206
  641MOL0     H88407   4.232   5.624   0.502  1.1832 -1.3601 -0.9531
  641MOL0     H88408   4.183   5.675   0.260  2.5625 -3.9241 -1.6251
  641MOL0     H88409   4.338   5.691   0.188  0.0604  0.0584 -0.3473
  641MOL0     H88410   4.327   5.932   0.144 -0.8463  1.9599 -0.2781
  641MOL0     H88411   4.183   5.858   0.087  0.9618  1.9038 -0.6913
  641MOL0     H88412   4.044   5.942   0.296 -0.7612  2.5311  0.5529
  641MOL0     H88413   4.192   6.027   0.341 -1.4721  0.9148 -0.5407
  641MOL0     H88414   4.090   6.065   0.062 -0.9282  0.0328 -0.4827
  641MOL0     H88415   4.022   6.139   0.210 -0.3001 -0.2144 -0.8601
  641MOL0     H88416   4.429   6.224   0.326  1.8027  2.6171 -2.0434
  641MOL0     H88417   4.430   6.439   0.624  1.7438  2.2788 -0.2437
  641MOL0     H88418   4.551   6.462   0.504  1.7952 -1.6303 -1.4401
  641MOL0     H88419   4.508   6.296   0.542  4.0296  2.2636  2.2602
  641MOL0     H88420   3.992   6.748   0.691 -1.7291  1.0949  0.3961
  641MOL0     H88421   3.958   6.952   0.841  0.9578 -1.2053  0.8821
  641MOL0     H88422   3.935   7.148   0.922  0.1096  1.2365  1.5581
  641MOL0     H88423   4.089   7.162   1.012  4.7048  2.6081 -1.0965
  641MOL0     H88424   4.133   7.385   0.952  0.1710 -1.1991 -1.6284
  641MOL0     H88425   3.982   7.403   0.873  1.6957  1.1893 -1.1386
  641MOL0     H88426   4.016   7.329   1.155  1.6099  0.8608 -0.8054
  641MOL0     H88427   3.860   7.375   1.087 -0.8097  0.5887 -1.9891
  641MOL0     H88428   3.930   7.598   1.037 -0.3466  0.2614  1.6897
  641MOL0     H88429   4.091   7.561   1.092  0.4870 -0.8790  1.9445
  641MOL0     H88430   3.829   7.612   1.251  0.6018  2.3776 -0.5996
  641MOL0     H88431   3.948   7.503   1.327  2.3600 -1.2295 -1.3416
  641MOL0     H88432   3.981   7.791   1.230  0.2375 -0.3167  1.6487
  641MOL0     H88433   4.124   7.703   1.263  1.1700  1.6632 -2.3774
  641MOL0     H88434   4.080   7.701   1.485 -0.2985 -0.6087 -0.9903
  641MOL0     H88435   3.910   7.738   1.478  0.5715 -2.4567  0.5558
  641MOL0     H88436   4.119   7.947   1.371 -1.1793 -1.5399 -1.9717
  641MOL0     H88437   4.112   7.918   1.545  0.1130 -1.3413  0.0816
  641MOL0     H88438   4.293   7.132   0.644 -0.5391 -0.7434 -2.0367
  641MOL0     H88439   4.316   6.901   0.497 -0.5506 -2.6602 -0.4247
  641MOL0     H88440   4.089   6.589   0.316 -0.2761 -0.1853  2.8977
  641MOL0     H88441   4.040   6.399   0.198  0.6463  1.6055  0.1592
  641MOL0     H88442   4.227   6.641   0.950 -0.0550 -1.2129  0.3701
  641MOL0     H88443   4.176   6.847   1.085 -0.4426  0.9468  0.2781
  641MOL0     H88444   3.709   7.043   1.242  0.0496  0.4818  0.1673
  641MOL0     H88445   3.605   7.235   1.345  0.7230  0.2098  1.5610
  641MOL0     H88446   3.554   7.507   1.439  2.7305  0.8611 -0.7884
  641MOL0     H88447   3.524   7.355   1.533  2.1313 -1.0074  3.5598
  641MOL0     H88448   3.590   7.467   1.733 -0.2663 -0.5609  0.1330
  641MOL0     H88449   3.459   7.567   1.668  1.0408  0.9914  0.5499
  641MOL0     H88450   3.745   7.648   1.596 -0.0570  0.4753 -1.2057
  641MOL0     H88451   3.594   7.736   1.591  3.0985  0.1021 -4.1266
  641MOL0     H88452   3.731   7.802   1.790  1.0974 -0.8163  0.7379
  641MOL0     H88453   3.725   7.639   1.851  2.7079 -0.6639 -2.3249
  641MOL0     H88454   3.358   7.806   1.971 -1.1133  1.4009 -3.3379
  641MOL0     H88455   3.934   7.300   1.589 -1.0624  0.9998 -0.4265
  641MOL0     H88456   4.155   7.033   1.479  1.1329 -2.1384  1.5858
  641MOL0     H88457   4.126   7.180   1.578 -2.3173  0.9025 -0.5951
  641MOL0     H88458   4.078   7.018   1.624 -0.3709 -0.1380 -0.8462
  642MOL0     O88459   0.922   3.294   1.073  0.0545  0.9085 -0.1363
  642MOL0     C88460   0.816   3.310   1.133 -0.4383 -0.8217 -0.4593
  642MOL0     O88461   0.774   3.431   1.192  0.4887 -0.5425 -0.2306
  642MOL0     C88462   0.872   3.506   1.235  0.1037 -0.3066 -0.7019
  642MOL0     C88463   0.899   3.628   1.172 -0.4341  0.0001  1.7438
  642MOL0     C88464   1.003   3.717   1.213  0.0288 -1.1129 -1.2817
  642MOL0     C88465   1.090   3.672   1.315  0.4733  0.6455  0.3239
  642MOL0     O88466   1.179   3.751   1.373  0.5498 -0.2008  0.1155
  642MOL0     C88467   1.138   3.883   1.427  0.5866 -0.0360  0.7475
  642MOL0     C88468   1.256   3.962   1.490 -0.0674  0.0220 -0.2227
  642MOL0     C88469   1.232   4.107   1.526  0.0846  0.9249 -0.1891
  642MOL0     C88470   1.179   4.122   1.674 -0.1380 -0.1810 -0.6356
  642MOL0     C88471   1.141   4.263   1.701 -0.3900  0.3898  0.0435
  642MOL0     C88472   1.055   4.291   1.822 -0.7714 -0.1610 -0.4070
  642MOL0     C88473   1.035   4.446   1.838  0.3231  0.0052 -0.6172
  642MOL0     C88474   0.982   4.490   1.977  0.7480 -0.0066 -0.6734
  642MOL0     N88475   0.922   4.619   1.967 -0.2376 -0.7951 -0.2789
  642MOL0     C88476   0.821   4.654   1.885 -0.0231  0.4280  0.2369
  642MOL0     C88477   0.818   4.785   1.900  0.1074 -0.1018  0.7557
  642MOL0     C88478   0.735   4.884   1.828 -0.3545 -0.0459 -0.0188
  642MOL0     C88479   0.801   4.949   1.714 -0.2300  0.1374 -0.5574
  642MOL0     C88480   0.696   5.026   1.639  0.4089 -0.0135 -0.3583
  642MOL0     C88481   0.696   5.021   1.490 -0.8523  0.4564  0.4740
  642MOL0     O88482   0.690   4.886   1.435  0.0994 -0.5081  0.1351
  642MOL0     C88483   0.577   4.818   1.421 -0.6973  0.5905  0.0617
  642MOL0     C88484   0.453   4.867   1.434  0.3918 -0.1613 -0.1387
  642MOL0     C88485   0.340   4.794   1.412 -0.2157  0.8455 -0.0473
  642MOL0     C88486   0.216   4.864   1.449 -0.2551  0.2540 -0.4437
  642MOL0     C88487   0.361   4.653   1.371 -0.6284 -0.7818  0.8002
  642MOL0     C88488   0.246   4.565   1.329 -0.5603  0.1303 -0.6029
  642MOL0     O88489   0.280   4.443   1.299 -0.3647  0.4202  0.4373
  642MOL0     C88490   0.217   4.361   1.203 -0.0381  0.2196 -0.4784
  642MOL0     C88491   0.220   4.219   1.223 -0.2322 -0.8548 -0.5022
  642MOL0     C88492   0.169   4.131   1.131 -0.5395  0.0597 -0.2345
  642MOL0     C88493   0.120   4.180   1.008 -0.6728  0.5885  0.4031
  642MOL0     O88494   0.082   4.108   0.897 -0.4895 -0.9310  0.0950
  642MOL0     C88495   0.119   3.968   0.918  0.7198  0.9052 -0.2981
  642MOL0     C88496   0.080   3.874   0.802  0.2105  0.5540 -0.7662
  642MOL0     C88497   0.080   3.946   0.660 -0.6597  0.3523  1.5186
  642MOL0     C88498   0.063   3.858   0.534 -0.4770  0.2987 -0.6152
  642MOL0     C88499   0.057   3.935   0.409  0.3401 -0.3995 -0.8116
  642MOL0     C88500   0.008   3.831   0.300  0.0151 -0.5905 -0.4168
  642MOL0     C88501  -0.085   3.890   0.197 -0.1365  0.4166 -0.1078
  642MOL0     C88502  -0.044   4.033   0.144  0.1837 -0.2210  0.3403
  642MOL0    Cl88503  -0.151   4.163   0.213  0.1959  0.5432  0.1695
  642MOL0     C88504   0.129   4.320   0.977  0.2752  0.1012 -0.0349
  642MOL0     C88505   0.182   4.414   1.080 -0.0699  0.3030  0.5525
  642MOL0     O88506   0.130   4.610   1.316  1.3240  0.5342 -0.0421
  642MOL0     C88507   0.499   4.600   1.361  0.1774 -0.5446  0.9819
  642MOL0     C88508   0.605   4.682   1.380 -0.3797 -1.4007  0.3634
  642MOL0     N88509   0.905   4.832   1.988 -0.2395 -0.5242  0.4374
  642MOL0     N88510   0.972   4.736   2.028 -0.9324  0.0099  0.6481
  642MOL0     C88511   1.073   3.544   1.368 -0.1285 -0.0451  0.2014
  642MOL0     C88512   0.968   3.464   1.326 -0.5769 -0.8920  0.4204
  642MOL0     C88513   0.707   3.196   1.121 -0.3140  0.1284 -0.1301
  642MOL0     C88514   0.581   3.231   1.165 -0.2364 -1.1712  0.0712
  642MOL0     C88515   0.475   3.144   1.156  0.2346  0.2253 -0.3234
  642MOL0     C88516   0.494   3.014   1.116  0.7679 -0.3275 -0.1176
  642MOL0     O88517   0.379   2.939   1.124 -0.9914  0.9575  0.1308
  642MOL0     C88518   0.376   2.814   1.044  0.8845 -1.0762  0.6517
  642MOL0     C88519   0.348   2.862   0.897 -0.5065 -0.6766  0.8664
  642MOL0     C88520   0.287   2.755   0.810 -0.2229  0.9262  1.3221
  642MOL0     C88521   0.342   2.752   0.670  0.9863  0.4249 -0.0505
  642MOL0     C88522   0.486   2.744   0.659 -0.3542  0.3978 -0.6962
  642MOL0     C88523   0.611   2.730   0.668  0.2537 -0.6268  1.0158
  642MOL0     C88524   0.620   2.980   1.061 -0.3065  0.2292 -0.6030
  642MOL0     C88525   0.730   3.066   1.073  0.9624  0.1700  0.2622
  642MOL0     C88526   0.857   3.025   1.004  0.5792  0.2685 -0.0839
  642MOL0     H88527   0.830   3.668   1.098 -0.0171 -0.6345  0.9990
  642MOL0     H88528   1.021   3.814   1.168  1.1161 -1.0467 -0.7272
  642MOL0     H88529   1.063   3.856   1.502 -1.2119  0.0500 -0.9451
  642MOL0     H88530   1.090   3.947   1.352  0.6946 -1.5656 -0.6931
  642MOL0     H88531   1.281   3.902   1.578 -2.6549 -0.4782  0.2326
  642MOL0     H88532   1.338   3.957   1.417 -0.0038 -2.2375 -0.0601
  642MOL0     H88533   1.323   4.168   1.518 -1.1254  2.9588  0.7977
  642MOL0     H88534   1.155   4.147   1.460 -2.2572 -4.5555 -1.3191
  642MOL0     H88535   1.092   4.057   1.688  1.0884 -1.9481 -0.8094
  642MOL0     H88536   1.246   4.089   1.754  0.6853  0.9723 -0.8222
  642MOL0     H88537   1.075   4.305   1.624 -0.8709 -0.9478 -0.2967
  642MOL0     H88538   1.238   4.313   1.693 -0.3852  0.5982  1.2924
  642MOL0     H88539   0.956   4.244   1.824 -1.0292  0.3044  3.0546
  642MOL0     H88540   1.103   4.243   1.908  0.5076  0.1868 -0.9095
  642MOL0     H88541   0.968   4.481   1.759 -1.4378  1.2073  1.2761
  642MOL0     H88542   1.132   4.496   1.829  0.4650 -0.3069 -0.8470
  642MOL0     H88543   0.921   4.406   2.013  1.7728 -0.9071 -0.9690
  642MOL0     H88544   1.057   4.507   2.055  0.3468  2.6703 -0.7906
  642MOL0     H88545   0.760   4.606   1.809 -1.8592  1.1321  1.1858
  642MOL0     H88546   0.717   4.963   1.902  0.9672  0.9509 -0.7058
  642MOL0     H88547   0.640   4.840   1.797  1.1023 -2.0888 -1.8899
  642MOL0     H88548   0.886   5.016   1.732  0.3037 -0.4292 -0.9283
  642MOL0     H88549   0.841   4.867   1.653 -1.4729 -2.9635  2.4889
  642MOL0     H88550   0.596   5.001   1.675 -0.7986 -0.1328 -3.5368
  642MOL0     H88551   0.717   5.129   1.671  0.1957  0.0845 -0.5303
  642MOL0     H88552   0.616   5.075   1.438 -0.4959  2.1718  1.6388
  642MOL0     H88553   0.791   5.067   1.461  0.2122 -1.1861  1.1704
  642MOL0     H88554   0.440   4.974   1.451  0.2709  0.1422 -1.9016
  642MOL0     H88555   0.221   4.962   1.497  1.2307  1.1635 -2.3231
  642MOL0     H88556   0.143   4.796   1.495 -0.7736  1.4908  0.6446
  642MOL0     H88557   0.169   4.873   1.351 -0.6785 -2.1856 -0.5453
  642MOL0     H88558   0.259   4.182   1.318 -1.3291  1.9797  1.1834
  642MOL0     H88559   0.178   4.025   1.152 -2.8083 -0.0177  0.7224
  642MOL0     H88560   0.214   3.950   0.970 -0.7263  1.8956  2.9732
  642MOL0     H88561   0.046   3.947   0.997 -0.3338  0.6665 -1.3118
  642MOL0     H88562   0.156   3.795   0.807  1.0202  1.3394 -0.1956
  642MOL0     H88563  -0.017   3.828   0.821 -0.2414  2.2636  1.5487
  642MOL0     H88564   0.174   3.998   0.643 -0.5978 -0.2472 -0.2504
  642MOL0     H88565  -0.008   4.011   0.657 -0.5608  0.4879  1.5746
  642MOL0     H88566  -0.022   3.791   0.555  0.2037  0.0948  1.7767
  642MOL0     H88567   0.158   3.803   0.534  0.7642  2.3509 -1.2589
  642MOL0     H88568  -0.016   4.011   0.437  1.5840 -0.7521  4.2995
  642MOL0     H88569   0.160   3.969   0.395  1.2619 -2.3436  0.7242
  642MOL0     H88570  -0.048   3.753   0.353 -0.8416 -0.2624 -0.8154
  642MOL0     H88571   0.100   3.802   0.248  0.3370  0.1862 -0.2928
  642MOL0     H88572  -0.192   3.892   0.221  0.2315 -2.5154  2.4662
  642MOL0     H88573  -0.089   3.831   0.105  1.5461 -0.4861  0.3499
  642MOL0     H88574  -0.047   4.034   0.035 -2.6133  2.8134  0.3059
  642MOL0     H88575   0.061   4.055   0.167 -0.0386  0.9056  0.3090
  642MOL0     H88576   0.111   4.369   0.882 -0.4372 -0.7576 -0.3653
  642MOL0     H88577   0.198   4.519   1.060  0.6587  0.4105  1.6512
  642MOL0     H88578   0.507   4.496   1.332  0.5882 -0.9246  2.4149
  642MOL0     H88579   0.709   4.652   1.370 -0.5638 -2.2915  1.0040
  642MOL0     H88580   1.144   3.512   1.443  0.6167 -0.6093 -0.7281
  642MOL0     H88581   0.963   3.362   1.362  0.3345 -0.7141  1.0679
  642MOL0     H88582   0.560   3.331   1.202 -1.2870 -2.0178  1.9069
  642MOL0     H88583   0.382   3.186   1.195 -0.1664 -0.5653 -0.4058
  642MOL0     H88584   0.462   2.747   1.051 -0.0239 -2.1219  2.5820
  642MOL0     H88585   0.279   2.773   1.074  1.8493 -4.4340 -0.4141
  642MOL0     H88586   0.443   2.899   0.858 -1.6804 -0.0019 -1.5769
  642MOL0     H88587   0.270   2.939   0.892 -2.3255 -2.4797 -0.1707
  642MOL0     H88588   0.301   2.658   0.857 -1.8929  1.4189  2.9828
  642MOL0     H88589   0.179   2.758   0.793  0.2266 -0.9218 -2.9442
  642MOL0     H88590   0.311   2.838   0.609 -0.0700 -1.9675 -3.1309
  642MOL0     H88591   0.289   2.671   0.620 -3.0693  2.6860  0.1037
  642MOL0     H88592   0.717   2.714   0.667  0.5078  0.9119  0.7722
  642MOL0     H88593   0.637   2.892   1.001 -2.0536  1.4034 -2.9688
  642MOL0     H88594   0.870   2.917   1.005  0.8619  0.2715 -1.6202
  642MOL0     H88595   0.875   3.075   0.908  0.2002 -2.8348 -1.8979
  642MOL0     H88596   0.950   3.062   1.049 -0.3932 -2.2114  4.5341
  643MOL0     O88597   4.415   7.225   8.063  0.4878  0.0593 -0.5152
  643MOL0     C88598   4.314   7.267   8.005  0.7474 -0.1081 -1.1527
  643MOL0     O88599   4.289   7.400   7.978  0.3853  0.2454  0.1928
  643MOL0     C88600   4.391   7.486   7.999  0.0816 -0.0791  0.1219
  643MOL0     C88601   4.518   7.461   7.957  0.4470  0.0241  0.9664
  643MOL0     C88602   4.614   7.555   7.969 -1.4229 -0.8384 -0.7476
  643MOL0     C88603   4.596   7.679   8.025  1.0799  0.6308  0.5285
  643MOL0     O88604   4.691   7.779   8.028 -0.0440  0.4203  0.3177
  643MOL0     C88605   4.712   7.836   8.161 -0.2665  0.4819  0.2321
  643MOL0     C88606   4.727   7.987   8.154  0.4466 -0.8530  0.6720
  643MOL0     C88607   4.795   8.044   8.276 -0.1775 -0.7768 -0.8819
  643MOL0     C88608   4.813   8.202   8.267  0.8458  0.3695 -0.7224
  643MOL0     C88609   4.870   8.261   8.403 -0.1864 -0.1415  0.1256
  643MOL0     C88610   4.913   8.407   8.389 -0.1705 -0.1303 -1.0170
  643MOL0     C88611   4.937   8.458   8.534 -0.7553 -0.3849 -0.0971
  643MOL0     C88612   4.980   8.609   8.518  0.7534 -0.3055 -0.4773
  643MOL0     N88613   4.976   8.676   8.645  0.3276 -0.0716  0.3179
  643MOL0     C88614   4.971   8.626   8.771  0.4901  0.8674  0.5699
  643MOL0     C88615   4.936   8.724   8.857  0.1752 -0.4877  0.8155
  643MOL0     C88616   4.889   8.710   9.000  0.6325  0.0333 -0.0136
  643MOL0     C88617   5.015   8.720   9.095  0.0539 -0.5476  0.4987
  643MOL0     C88618   5.105   8.589   9.093  0.7891  0.7698  0.3386
  643MOL0     C88619   5.213   8.602   9.194 -0.2270  0.0012 -0.2563
  643MOL0     O88620   5.318   8.512   9.150 -1.2270  0.1937 -0.0260
  643MOL0     C88621   5.402   8.468   9.251 -1.0025 -0.2860 -0.1370
  643MOL0     C88622   5.434   8.529   9.374 -0.0290  1.2700 -0.5623
  643MOL0     C88623   5.512   8.458   9.467  0.3900  0.0526 -0.0346
  643MOL0     C88624   5.556   8.515   9.593 -0.0376 -0.4099  0.3113
  643MOL0     C88625   5.550   8.326   9.432  0.1669 -0.9705 -0.2953
  643MOL0     C88626   5.626   8.239   9.520  0.4538  0.3535  0.2791
  643MOL0     O88627   5.591   8.107   9.525  0.0882  0.5298 -0.1916
  643MOL0     C88628   5.668   8.009   9.587  0.1522  0.1925  0.1790
  643MOL0     C88629   5.633   7.874   9.566 -0.4648  0.8120 -0.0580
  643MOL0     C88630   5.693   7.760   9.626  0.4064 -0.1385  0.1004
  643MOL0     C88631   5.784   7.778   9.725 -0.2830  0.2695 -0.0343
  643MOL0     O88632   5.842   7.676   9.793 -0.2964  0.3582 -0.1581
  643MOL0     C88633   5.761   7.646   9.909  0.4306 -0.5797  0.8063
  643MOL0     C88634   5.835   7.581  10.020 -0.5307  0.6406  0.4422
  643MOL0     C88635   5.957   7.659  10.044 -0.0329 -1.0030 -0.1829
  643MOL0     C88636   6.003   7.632  10.187 -0.1416 -0.6006 -0.2239
  643MOL0     C88637   6.088   7.753  10.223  0.3882 -0.2050 -0.4895
  643MOL0     C88638   6.133   7.758  10.369  0.2152  0.0406 -0.0589
  643MOL0     C88639   6.213   7.649  10.426  0.5359  0.7507 -0.4881
  643MOL0     C88640   6.351   7.640  10.375  0.1097 -0.0717  0.2852
  643MOL0    Cl88641   6.419   7.480  10.425  0.0932 -0.0098 -0.0656
  643MOL0     C88642   5.826   7.910   9.750 -0.2149  0.2879  0.5850
  643MOL0     C88643   5.770   8.027   9.688 -0.3063 -0.3588  0.5285
  643MOL0     O88644   5.713   8.289   9.587 -0.0196 -0.3169 -0.4285
  643MOL0     C88645   5.513   8.268   9.310  1.0459  0.5829 -1.4662
  643MOL0     C88646   5.446   8.341   9.224 -0.7102  0.4460  0.6253
  643MOL0     N88647   4.942   8.841   8.774 -0.1325  0.1506 -0.6703
  643MOL0     N88648   4.954   8.819   8.649  0.0788  0.3932  0.4828
  643MOL0     C88649   4.471   7.707   8.070  0.4637  0.7423  0.1224
  643MOL0     C88650   4.366   7.609   8.062 -0.0948  0.5128 -0.8198
  643MOL0     C88651   4.221   7.168   7.964  0.3705  0.2868  1.0792
  643MOL0     C88652   4.201   7.050   8.046  0.3580  0.5623 -0.1574
  643MOL0     C88653   4.108   6.952   8.014  0.1607  0.0787 -1.1815
  643MOL0     C88654   4.024   6.973   7.899  0.7414 -0.5982 -0.7662
  643MOL0     O88655   3.927   6.884   7.873  0.0796  0.0886 -0.1666
  643MOL0     C88656   3.969   6.790   7.780  0.5698  0.1522  0.2367
  643MOL0     C88657   3.893   6.821   7.645 -0.1684 -0.7072  0.0738
  643MOL0     C88658   3.927   6.723   7.537 -0.0309  1.1973  0.6273
  643MOL0     C88659   3.820   6.603   7.517 -0.2138  0.0172 -0.4973
  643MOL0     C88660   3.817   6.574   7.370  0.1491  0.0034 -0.2120
  643MOL0     C88661   3.837   6.562   7.249 -0.4447  0.2847  0.1939
  643MOL0     C88662   4.044   7.081   7.832  1.0126 -0.4784 -0.1034
  643MOL0     C88663   4.143   7.173   7.851 -0.7703 -1.0008  0.6291
  643MOL0     C88664   4.162   7.291   7.758 -0.3585  0.5556  0.2295
  643MOL0     H88665   4.549   7.366   7.915  0.3752 -0.4519  1.9458
  643MOL0     H88666   4.712   7.535   7.928 -0.7071  1.3519 -0.2535
  643MOL0     H88667   4.811   7.810   8.201  0.2296  1.6765 -0.1989
  643MOL0     H88668   4.639   7.807   8.238 -2.1784  0.6653 -1.4142
  643MOL0     H88669   4.784   8.016   8.065 -1.5746 -1.2400 -0.8354
  643MOL0     H88670   4.629   8.034   8.141  1.9540  1.6769 -4.1173
  643MOL0     H88671   4.740   8.022   8.368 -1.8451  1.9840 -1.0925
  643MOL0     H88672   4.896   8.004   8.288  1.0195  1.4825 -2.5429
  643MOL0     H88673   4.883   8.227   8.187  3.1621  0.2826  1.1684
  643MOL0     H88674   4.721   8.261   8.258  1.0412  1.2116  1.9606
  643MOL0     H88675   4.959   8.205   8.434  0.5621  0.1994 -1.3003
  643MOL0     H88676   4.806   8.228   8.485  2.6880 -2.8914  1.4892
  643MOL0     H88677   5.005   8.420   8.332 -0.3157 -0.6246 -1.3735
  643MOL0     H88678   4.840   8.469   8.336  1.4202  1.8065 -1.0198
  643MOL0     H88679   5.026   8.407   8.573 -1.9278 -1.5802  1.1612
  643MOL0     H88680   4.846   8.439   8.592 -2.2830 -1.8235 -2.7445
  643MOL0     H88681   5.072   8.637   8.465  1.2247  0.0949  0.5210
  643MOL0     H88682   4.906   8.662   8.457 -0.9344 -0.7574  1.0809
  643MOL0     H88683   4.955   8.521   8.792 -1.4235  0.8798 -0.5116
  643MOL0     H88684   4.840   8.613   8.997 -0.0908  0.3616  0.7843
  643MOL0     H88685   4.819   8.793   9.012 -0.1339  0.2236 -4.2539
  643MOL0     H88686   5.069   8.812   9.072  0.3241 -1.5570 -3.6661
  643MOL0     H88687   4.986   8.724   9.201  0.0675 -0.9187  0.5200
  643MOL0     H88688   5.063   8.492   9.122  2.4488  0.4106  1.7938
  643MOL0     H88689   5.138   8.573   8.990 -0.4014 -1.4181  0.2470
  643MOL0     H88690   5.249   8.705   9.198  1.7719 -0.6856  2.6983
  643MOL0     H88691   5.172   8.567   9.290  0.0159 -0.3867 -0.2908
  643MOL0     H88692   5.398   8.630   9.392 -3.2395 -0.2184  2.5261
  643MOL0     H88693   5.503   8.610   9.604 -0.7570 -0.8045  0.3394
  643MOL0     H88694   5.661   8.545   9.601 -0.9238  2.8003  1.4954
  643MOL0     H88695   5.523   8.452   9.677 -1.2645  1.6248  1.4326
  643MOL0     H88696   5.551   7.864   9.496 -3.9028  1.1380  3.5324
  643MOL0     H88697   5.660   7.657   9.612  2.2890 -0.7984  0.3513
  643MOL0     H88698   5.714   7.738   9.947  0.9615  0.1581 -0.2709
  643MOL0     H88699   5.675   7.590   9.873 -1.0412  3.0880 -2.0953
  643MOL0     H88700   5.776   7.563  10.110  0.3424  0.2227  0.9454
  643MOL0     H88701   5.852   7.478   9.987 -1.4129  1.0537 -1.4103
  643MOL0     H88702   5.928   7.764  10.031 -0.6860 -1.2768 -1.0200
  643MOL0     H88703   6.048   7.647   9.984 -0.3042  0.3194 -0.8949
  643MOL0     H88704   6.048   7.532  10.192  0.0309 -0.6416 -1.9333
  643MOL0     H88705   5.922   7.627  10.261  1.7732 -0.7517  1.9483
  643MOL0     H88706   6.167   7.773  10.150  0.4904  0.2490 -0.2617
  643MOL0     H88707   6.020   7.838  10.211  1.1274  0.2830 -1.3259
  643MOL0     H88708   6.046   7.767  10.434  2.0458 -1.5881  2.8101
  643MOL0     H88709   6.186   7.851  10.392 -0.3416  0.2247  0.4930
  643MOL0     H88710   6.172   7.555  10.390  2.2561 -0.1130 -0.3061
  643MOL0     H88711   6.213   7.641  10.536 -0.9211  0.2173 -0.5013
  643MOL0     H88712   6.406   7.720  10.425  1.5105 -2.9631  3.7984
  643MOL0     H88713   6.353   7.652  10.266  1.1047 -0.6608  0.2253
  643MOL0     H88714   5.904   7.917   9.825  1.5495 -1.2988 -1.0037
  643MOL0     H88715   5.795   8.126   9.726  1.0072 -0.8971  1.1294
  643MOL0     H88716   5.552   8.169   9.291  0.0774 -0.2608  0.5245
  643MOL0     H88717   5.432   8.302   9.123 -0.7162 -2.6303  1.7273
  643MOL0     H88718   4.462   7.813   8.094  5.3829  1.8756 -1.7232
  643MOL0     H88719   4.264   7.628   8.094  0.7080  1.1864  1.5720
  643MOL0     H88720   4.267   7.032   8.130  0.1226  0.6483  0.0473
  643MOL0     H88721   4.110   6.855   8.063  0.1611 -1.4355 -3.9336
  643MOL0     H88722   4.075   6.791   7.757  0.6970 -0.6898  0.7424
  643MOL0     H88723   3.930   6.698   7.825  0.4416  0.7653  1.4128
  643MOL0     H88724   3.912   6.924   7.613 -1.3744  1.1595  4.6278
  643MOL0     H88725   3.786   6.813   7.668 -0.1732  1.6969  1.1813
  643MOL0     H88726   3.926   6.769   7.438  0.2188  0.8817  0.4760
  643MOL0     H88727   4.031   6.692   7.541  0.2320  2.0636  0.6192
  643MOL0     H88728   3.723   6.645   7.546  0.3566  1.4566 -0.5924
  643MOL0     H88729   3.840   6.518   7.582  1.5086  0.2880 -0.6146
  643MOL0     H88730   3.876   6.556   7.149  3.7668 -3.0151  1.6991
  643MOL0     H88731   3.982   7.099   7.745  1.6443  0.2629 -0.4079
  643MOL0     H88732   4.262   7.310   7.718 -0.1372  1.4667  1.1806
  643MOL0     H88733   4.106   7.267   7.667  0.3120  1.7893 -0.5363
  643MOL0     H88734   4.124   7.386   7.797 -1.2239 -0.0663  0.9476
  644MOL0     O88735   4.060   8.827   1.716  0.3411 -0.5963  0.3819
  644MOL0     C88736   4.146   8.898   1.666 -0.4006  0.4938 -0.4322
  644MOL0     O88737   4.121   9.004   1.574 -0.2119 -0.5720 -0.3118
  644MOL0     C88738   3.997   9.052   1.563  0.2940  0.3631 -0.1762
  644MOL0     C88739   3.898   9.055   1.663 -0.2081 -0.9110  0.5991
  644MOL0     C88740   3.773   9.113   1.633  0.6102  0.2852 -0.5328
  644MOL0     C88741   3.747   9.199   1.522  0.7420 -0.2427  0.2946
  644MOL0     O88742   3.626   9.261   1.520  0.1839 -0.1477 -0.4180
  644MOL0     C88743   3.561   9.308   1.399 -0.0691  0.7902  0.3115
  644MOL0     C88744   3.610   9.450   1.351  1.2798 -0.0564 -0.1053
  644MOL0     C88745   3.553   9.491   1.217  0.2914 -0.4644  0.2958
  644MOL0     C88746   3.593   9.638   1.190 -0.0079  0.2017  0.0492
  644MOL0     C88747   3.570   9.679   1.041  0.4919  0.2956 -0.3516
  644MOL0     C88748   3.688   9.650   0.949  0.4503 -0.1392  0.2781
  644MOL0     C88749   3.654   9.683   0.808 -0.5358 -0.8436 -0.2908
  644MOL0     C88750   3.651   9.833   0.786 -0.7449  0.2085 -0.7759
  644MOL0     N88751   3.758   9.916   0.856 -0.2368  0.2202  0.4485
  644MOL0     C88752   3.722  10.002   0.961 -0.2049  0.0399 -0.5883
  644MOL0     C88753   3.841  10.080   0.981  0.0064  0.1471 -0.4469
  644MOL0     C88754   3.856  10.199   1.074 -0.0217  0.2610  0.2203
  644MOL0     C88755   3.885  10.320   1.003  0.5977  0.7185 -0.3553
  644MOL0     C88756   3.940  10.435   1.089 -0.1737  0.3330 -0.3485
  644MOL0     C88757   3.848  10.467   1.203  1.1199 -0.5066 -0.9166
  644MOL0     O88758   3.923  10.502   1.327  0.5475 -0.6655  0.1843
  644MOL0     C88759   4.005  10.616   1.331 -0.5080 -0.0643  0.4649
  644MOL0     C88760   4.110  10.621   1.423 -0.3740  1.1674 -0.1991
  644MOL0     C88761   4.199  10.730   1.427 -0.1437  0.9490 -0.6228
  644MOL0     C88762   4.329  10.712   1.519 -0.1950 -0.0354 -0.0447
  644MOL0     C88763   4.173  10.845   1.348 -0.5308 -0.6465  0.1633
  644MOL0     C88764   4.261  10.973   1.333  0.3871  0.1367 -0.5970
  644MOL0     O88765   4.388  10.962   1.350 -0.4340  0.3903 -0.1544
  644MOL0     C88766   4.474  11.065   1.318 -0.0013  0.5895  0.4238
  644MOL0     C88767   4.551  11.127   1.415  1.1001 -0.3680  0.8635
  644MOL0     C88768   4.644  11.231   1.386 -0.4456  0.0825  0.8321
  644MOL0     C88769   4.661  11.264   1.244  0.5340 -0.5735  0.0675
  644MOL0     O88770   4.746  11.360   1.203  0.0006  0.1440  0.1635
  644MOL0     C88771   4.833  11.424   1.288 -0.4356 -0.4470  0.1166
  644MOL0     C88772   4.949  11.499   1.206  0.7340  0.7864  0.3398
  644MOL0     C88773   5.044  11.385   1.163 -0.1637  0.4511 -0.1162
  644MOL0     C88774   5.163  11.450   1.100 -1.0330  0.1661  0.6951
  644MOL0     C88775   5.259  11.337   1.036  0.2842  0.3405 -0.3007
  644MOL0     C88776   5.203  11.234   0.941  0.3402  0.6032  0.3019
  644MOL0     C88777   5.144  11.308   0.818  0.2286  0.3294  0.7138
  644MOL0     C88778   5.030  11.233   0.740  0.9518  0.0532 -0.3130
  644MOL0    Cl88779   4.976  11.321   0.601 -0.5311 -0.6406  0.3859
  644MOL0     C88780   4.578  11.204   1.152 -0.2177  0.8406 -0.1117
  644MOL0     C88781   4.502  11.092   1.182 -0.0691 -0.2929 -0.4876
  644MOL0     O88782   4.210  11.078   1.291 -0.1481 -0.5400 -0.4017
  644MOL0     C88783   4.063  10.840   1.261 -0.4809 -0.1440  0.8236
  644MOL0     C88784   3.982  10.733   1.249 -0.6453  0.3008 -0.1820
  644MOL0     N88785   3.934  10.036   0.885 -0.2643  0.2996 -0.1903
  644MOL0     N88786   3.885   9.941   0.819  0.4935  0.1554  0.2460
  644MOL0     C88787   3.855   9.207   1.422 -0.5701  0.5500 -0.3531
  644MOL0     C88788   3.971   9.136   1.446  0.3154  0.3252  0.4593
  644MOL0     C88789   4.293   8.853   1.702  1.0857 -0.3407  0.1111
  644MOL0     C88790   4.324   8.714   1.679 -0.8086 -0.0473  0.8823
  644MOL0     C88791   4.460   8.660   1.693  1.3444 -0.3734  1.0589
  644MOL0     C88792   4.557   8.755   1.729  0.8806 -0.1534 -0.7696
  644MOL0     O88793   4.690   8.721   1.759  0.0296  0.4417  0.6250
  644MOL0     C88794   4.723   8.584   1.774 -0.4709  0.0109  0.5229
  644MOL0     C88795   4.857   8.572   1.830  0.4575  0.0503 -0.1206
  644MOL0     C88796   4.963   8.614   1.731 -1.3909 -0.0339  0.0627
  644MOL0     C88797   4.975   8.762   1.691 -0.9970 -0.6347 -0.3591
  644MOL0     C88798   5.097   8.778   1.606  1.2646 -0.6490  0.1435
  644MOL0     C88799   5.191   8.792   1.537 -0.4891 -0.3911  0.3332
  644MOL0     C88800   4.523   8.887   1.753  0.3051 -0.0829  0.5318
  644MOL0     C88801   4.397   8.940   1.720 -0.4602 -0.4422 -0.1545
  644MOL0     C88802   4.372   9.093   1.720 -0.2988  0.9900 -0.0764
  644MOL0     H88803   3.913   9.008   1.760 -0.1836 -1.3354  0.3903
  644MOL0     H88804   3.689   9.100   1.700 -0.2137 -1.0542 -1.7560
  644MOL0     H88805   3.452   9.300   1.412 -0.3036 -1.8096 -2.3013
  644MOL0     H88806   3.589   9.235   1.322 -3.6758 -0.5237  0.0352
  644MOL0     H88807   3.566   9.522   1.421 -3.1861  1.7504 -4.2155
  644MOL0     H88808   3.719   9.448   1.347  1.2563 -1.1790 -0.4296
  644MOL0     H88809   3.577   9.422   1.136  0.1979 -0.0995 -0.0458
  644MOL0     H88810   3.444   9.494   1.226  0.3560  0.2345  0.9175
  644MOL0     H88811   3.520   9.695   1.248  0.1725 -0.9885  1.5112
  644MOL0     H88812   3.700   9.653   1.206  0.0180  1.4857 -1.1509
  644MOL0     H88813   3.547   9.786   1.038 -0.3002  0.1060 -2.4326
  644MOL0     H88814   3.479   9.635   1.000  1.4314  0.3843 -2.6602
  644MOL0     H88815   3.783   9.693   0.981  0.8273 -0.0052 -0.9643
  644MOL0     H88816   3.699   9.541   0.948  1.2507 -0.3873  5.8500
  644MOL0     H88817   3.561   9.628   0.791 -0.3913 -1.2002  0.0487
  644MOL0     H88818   3.738   9.635   0.757  0.1517  0.5883 -0.5592
  644MOL0     H88819   3.650   9.848   0.678 -1.6071  1.1712 -0.6420
  644MOL0     H88820   3.559   9.873   0.829 -0.3227 -1.4179  1.8599
  644MOL0     H88821   3.622  10.012   1.003  0.0343 -1.8339  0.5546
  644MOL0     H88822   3.924  10.182   1.158 -0.6967 -0.7808  0.5733
  644MOL0     H88823   3.754  10.210   1.114 -0.3949  0.9401 -0.8731
  644MOL0     H88824   3.950  10.293   0.918  0.1223 -0.2262 -0.4297
  644MOL0     H88825   3.790  10.351   0.960  0.5924  4.0191  1.7389
  644MOL0     H88826   4.037  10.412   1.134  0.9186 -0.8191 -3.0848
  644MOL0     H88827   3.959  10.518   1.020  0.8327  0.3341 -0.0853
  644MOL0     H88828   3.787  10.552   1.171 -0.2763 -0.6639  1.2083
  644MOL0     H88829   3.788  10.380   1.230  0.2132 -0.4750 -2.6811
  644MOL0     H88830   4.132  10.529   1.478  0.7613  1.1736 -0.6295
  644MOL0     H88831   4.416  10.667   1.472 -1.8953 -1.2219 -2.2385
  644MOL0     H88832   4.301  10.653   1.607  1.4061 -0.5543  0.1411
  644MOL0     H88833   4.365  10.804   1.565  2.1023 -0.0303 -1.7443
  644MOL0     H88834   4.539  11.092   1.516 -0.3145  0.9468  1.1745
  644MOL0     H88835   4.692  11.284   1.468  0.6478  0.9590 -0.3322
  644MOL0     H88836   4.775  11.497   1.346 -1.0812  1.4706 -2.7595
  644MOL0     H88837   4.872  11.351   1.360 -0.4773 -3.4002 -2.6388
  644MOL0     H88838   4.912  11.557   1.121  3.5979  3.5729  0.7908
  644MOL0     H88839   4.997  11.576   1.268  0.2505  0.7477  0.7727
  644MOL0     H88840   5.005  11.312   1.091  0.5436 -0.1258  0.0744
  644MOL0     H88841   5.076  11.325   1.248 -1.6330 -0.8345 -0.4337
  644MOL0     H88842   5.228  11.488   1.179  2.7423 -1.6803 -1.2360
  644MOL0     H88843   5.148  11.531   1.027 -0.6899  0.3527  0.8310
  644MOL0     H88844   5.341  11.394   0.992 -1.6343  1.2073 -3.0251
  644MOL0     H88845   5.302  11.276   1.115 -1.5015 -2.0036 -1.0018
  644MOL0     H88846   5.127  11.173   0.992  0.3616 -0.9621 -1.4219
  644MOL0     H88847   5.285  11.172   0.904 -0.4947  0.5861 -1.6592
  644MOL0     H88848   5.230  11.344   0.761 -0.2349  1.9790  1.0046
  644MOL0     H88849   5.091  11.396   0.853 -1.8541 -0.5556 -0.0720
  644MOL0     H88850   4.952  11.234   0.817  3.2825  1.3772  2.2235
  644MOL0     H88851   5.064  11.131   0.723  1.1379 -0.3822  2.3071
  644MOL0     H88852   4.580  11.228   1.046  0.1916  0.8662 -0.0972
  644MOL0     H88853   4.452  11.038   1.102  3.2889 -3.1383 -0.9008
  644MOL0     H88854   4.038  10.919   1.191  1.1541 -1.0254 -0.8234
  644MOL0     H88855   3.899  10.754   1.183  0.7175 -1.9909 -2.7776
  644MOL0     H88856   3.851   9.274   1.337 -0.5500 -0.3434 -1.0753
  644MOL0     H88857   4.047   9.136   1.369  1.3574 -0.9162  1.4365
  644MOL0     H88858   4.256   8.639   1.641  1.3933 -1.9283  0.4200
  644MOL0     H88859   4.495   8.558   1.682  0.2745 -0.4830 -3.4108
  644MOL0     H88860   4.654   8.542   1.848  0.7138 -0.6497  1.2895
  644MOL0     H88861   4.722   8.535   1.676  3.6651  2.8453 -1.2082
  644MOL0     H88862   4.867   8.467   1.856  0.0848 -0.0805 -0.4909
  644MOL0     H88863   4.875   8.632   1.919  1.8457 -0.3834 -0.0816
  644MOL0     H88864   5.061   8.609   1.782  0.6262 -3.0196 -3.6107
  644MOL0     H88865   4.958   8.549   1.644 -2.5623 -0.1901  0.2320
  644MOL0     H88866   4.990   8.802   1.792 -2.1382 -4.3990  1.4648
  644MOL0     H88867   4.888   8.808   1.645 -0.3127  0.9481 -0.1368
  644MOL0     H88868   5.282   8.792   1.481 -1.4063 -1.8327 -1.2397
  644MOL0     H88869   4.598   8.954   1.795  0.9348 -1.2602  1.3447
  644MOL0     H88870   4.423   9.142   1.803  0.7512  2.0418 -1.3087
  644MOL0     H88871   4.387   9.160   1.635 -0.2687  2.1390  0.8075
  644MOL0     H88872   4.273   9.109   1.764 -0.0998 -0.2139  0.8638
  645MOL0     O88873   6.090   5.904   1.483  0.2754 -1.3113  0.1559
  645MOL0     C88874   6.081   5.802   1.550  0.0574 -0.2159 -0.5377
  645MOL0     O88875   5.976   5.774   1.633  0.0540  0.3804  0.5774
  645MOL0     C88876   5.854   5.841   1.650 -0.0954  0.6775 -0.1138
  645MOL0     C88877   5.779   5.792   1.751 -0.4453  0.6675  1.1082
  645MOL0     C88878   5.649   5.835   1.781 -0.7053  0.1221  0.5935
  645MOL0     C88879   5.595   5.932   1.688 -0.0118 -0.5189 -0.7322
  645MOL0     O88880   5.463   5.977   1.698  0.3287 -0.4663 -0.2724
  645MOL0     C88881   5.360   5.892   1.751  0.6359 -0.4322  0.3627
  645MOL0     C88882   5.213   5.941   1.707 -1.0239  0.3311  0.3015
  645MOL0     C88883   5.099   5.849   1.763  0.0145  0.0186 -0.7019
  645MOL0     C88884   5.074   5.898   1.908  0.6847  0.1236 -0.7000
  645MOL0     C88885   4.932   5.852   1.967  0.9907 -0.2855 -0.9542
  645MOL0     C88886   4.818   5.948   1.942  0.8994 -0.3593  0.3236
  645MOL0     C88887   4.686   5.924   2.021 -0.0787 -0.4938  0.9770
  645MOL0     C88888   4.616   5.799   1.972 -0.4430  0.1825  0.0643
  645MOL0     N88889   4.539   5.723   2.076  0.7983 -0.1974  0.6338
  645MOL0     C88890   4.404   5.714   2.077  0.6011  0.7406  0.0929
  645MOL0     C88891   4.369   5.629   2.174  0.5167  1.1400  0.6799
  645MOL0     C88892   4.235   5.595   2.221  0.5847 -1.2545 -1.5251
  645MOL0     C88893   4.170   5.712   2.292 -0.2198 -0.5590 -0.4938
  645MOL0     C88894   4.231   5.731   2.436  0.5770  0.0808  0.1095
  645MOL0     C88895   4.208   5.617   2.528 -0.6440 -0.2841  0.2088
  645MOL0     O88896   4.068   5.583   2.537  0.3325 -0.5333 -0.1699
  645MOL0     C88897   4.031   5.467   2.601  0.0503  1.0006 -0.0659
  645MOL0     C88898   4.115   5.382   2.677  0.4369 -0.3791  0.1426
  645MOL0     C88899   4.078   5.258   2.730 -0.3592  0.3094 -0.6427
  645MOL0     C88900   4.183   5.194   2.818  0.4193  0.0254 -0.6996
  645MOL0     C88901   3.938   5.218   2.708 -0.3352  0.5493 -0.0248
  645MOL0     C88902   3.883   5.093   2.760 -0.0986  1.0864 -0.6377
  645MOL0     O88903   3.744   5.079   2.753 -0.2078 -0.5063  0.6184
  645MOL0     C88904   3.697   4.964   2.812 -0.2707 -0.1895 -0.4833
  645MOL0     C88905   3.650   4.970   2.941  0.0442  0.0349  0.2628
  645MOL0     C88906   3.593   4.857   2.990 -0.1689 -0.3260  0.1576
  645MOL0     C88907   3.564   4.747   2.909  0.1603  0.7288  0.2386
  645MOL0     O88908   3.513   4.639   2.969 -0.6319  0.0458  0.3886
  645MOL0     C88909   3.621   4.540   2.983 -0.3952  0.1041  0.1222
  645MOL0     C88910   3.566   4.400   2.988 -0.1267  0.0953  0.3210
  645MOL0     C88911   3.449   4.367   2.887 -0.7788  0.2851 -0.2249
  645MOL0     C88912   3.499   4.299   2.764  0.2012 -0.5348 -0.3008
  645MOL0     C88913   3.566   4.405   2.669  0.7795  0.1288  0.4426
  645MOL0     C88914   3.590   4.349   2.522 -0.6637 -1.6642 -0.7458
  645MOL0     C88915   3.712   4.253   2.515 -0.0815  0.1170  0.1430
  645MOL0     C88916   3.731   4.187   2.377  0.1249  0.3273  0.9229
  645MOL0    Cl88917   3.743   4.307   2.246 -0.2647  0.2656  0.4324
  645MOL0     C88918   3.607   4.743   2.776  0.2877 -0.3187 -1.5377
  645MOL0     C88919   3.676   4.856   2.726  0.9961 -0.2172 -0.6949
  645MOL0     O88920   3.966   5.005   2.794  0.0562 -0.2559 -1.0818
  645MOL0     C88921   3.858   5.307   2.630  0.6797 -0.4942 -0.3920
  645MOL0     C88922   3.909   5.433   2.587  0.4523 -0.3084 -0.0710
  645MOL0     N88923   4.479   5.581   2.233 -0.5479  0.6629  0.0863
  645MOL0     N88924   4.587   5.640   2.178 -0.6538 -0.8997 -0.3601
  645MOL0     C88925   5.684   5.992   1.596  0.7582 -0.2894 -0.3635
  645MOL0     C88926   5.817   5.947   1.576  0.1652  0.4623 -0.0728
  645MOL0     C88927   6.183   5.697   1.529 -0.9230 -0.5890  0.6887
  645MOL0     C88928   6.315   5.744   1.490  0.6263  0.3086  0.2149
  645MOL0     C88929   6.420   5.648   1.483  0.4823 -0.5573 -0.4641
  645MOL0     C88930   6.394   5.513   1.469 -0.7963  0.0393 -0.2447
  645MOL0     O88931   6.485   5.413   1.438 -0.2977  0.3034 -0.5657
  645MOL0     C88932   6.625   5.454   1.445  0.9145  0.1296  0.5028
  645MOL0     C88933   6.670   5.514   1.322 -0.0220  0.2990 -0.0131
  645MOL0     C88934   6.814   5.557   1.330 -0.0646  0.5820  0.3293
  645MOL0     C88935   6.874   5.589   1.199 -0.6531  0.2612  0.6612
  645MOL0     C88936   7.018   5.629   1.219 -0.0775 -0.1612  0.3835
  645MOL0     C88937   7.136   5.660   1.237  1.2376 -0.3220 -0.4892
  645MOL0     C88938   6.262   5.469   1.494 -0.1504  0.2447  0.4388
  645MOL0     C88939   6.160   5.555   1.521  0.4531 -0.7951 -0.0855
  645MOL0     C88940   6.030   5.485   1.553 -0.5612 -0.7139 -0.8096
  645MOL0     H88941   5.823   5.711   1.808  1.6206  1.8361  1.2550
  645MOL0     H88942   5.594   5.788   1.863  0.8963 -0.1158  1.5753
  645MOL0     H88943   5.368   5.892   1.860  2.5517  0.0011  0.2621
  645MOL0     H88944   5.372   5.787   1.722  1.3599 -0.9692  2.4420
  645MOL0     H88945   5.202   6.044   1.743 -0.5078  1.6366 -2.8775
  645MOL0     H88946   5.212   5.950   1.598 -1.7508 -0.5037  0.2280
  645MOL0     H88947   5.002   5.855   1.713  0.0951  0.4123 -0.8214
  645MOL0     H88948   5.128   5.745   1.752 -1.4053 -0.5182  0.3734
  645MOL0     H88949   5.162   5.861   1.963 -0.0386 -2.1869 -1.0064
  645MOL0     H88950   5.067   6.007   1.907  0.3910  0.1004 -1.1528
  645MOL0     H88951   4.939   5.870   2.075  2.0797  0.6775 -1.1649
  645MOL0     H88952   4.906   5.747   1.950  0.1145 -0.5912  1.7350
  645MOL0     H88953   4.859   6.040   1.985 -0.4185 -0.4287  1.8055
  645MOL0     H88954   4.792   5.953   1.836 -1.1059 -0.3043  0.7792
  645MOL0     H88955   4.621   6.009   1.999  0.7465 -0.0134  0.3108
  645MOL0     H88956   4.706   5.932   2.128 -0.0858 -2.1263  1.1246
  645MOL0     H88957   4.556   5.822   1.884  3.6388  1.5763 -2.6570
  645MOL0     H88958   4.694   5.727   1.942 -0.7615 -0.2667  0.3076
  645MOL0     H88959   4.335   5.770   2.015  0.9389  2.0706  0.8730
  645MOL0     H88960   4.253   5.515   2.293  0.8056 -1.4212 -1.7636
  645MOL0     H88961   4.163   5.560   2.147 -1.3290  0.2743 -0.4609
  645MOL0     H88962   4.190   5.801   2.232  3.1914  0.6815  2.1666
  645MOL0     H88963   4.062   5.704   2.309 -0.2766 -0.8326 -0.9748
  645MOL0     H88964   4.335   5.763   2.424 -0.3635  2.7049 -2.0260
  645MOL0     H88965   4.185   5.818   2.483  3.5092  0.2163  3.1169
  645MOL0     H88966   4.275   5.536   2.498  1.2426  0.4410  2.1516
  645MOL0     H88967   4.244   5.641   2.629 -0.0741  0.6080 -0.2024
  645MOL0     H88968   4.223   5.388   2.684  0.5772 -2.1785  0.0584
  645MOL0     H88969   4.282   5.235   2.796  0.1863  2.1686  1.7654
  645MOL0     H88970   4.186   5.084   2.816  2.3913 -0.1321  2.9039
  645MOL0     H88971   4.146   5.203   2.921 -1.8599 -0.6101 -1.4159
  645MOL0     H88972   3.666   5.050   3.013 -0.0482 -0.5493  0.9399
  645MOL0     H88973   3.576   4.862   3.097  4.0464  2.0311  0.9588
  645MOL0     H88974   3.690   4.535   2.899 -1.0499 -1.3072 -0.3601
  645MOL0     H88975   3.675   4.558   3.076  0.4880  1.8250 -0.6739
  645MOL0     H88976   3.641   4.320   2.983 -2.0278 -1.7881  0.3933
  645MOL0     H88977   3.523   4.390   3.088 -1.6916  2.3027 -0.0667
  645MOL0     H88978   3.382   4.452   2.866 -0.8823  0.0120 -1.0228
  645MOL0     H88979   3.381   4.301   2.941 -0.1926  0.5902  0.9362
  645MOL0     H88980   3.421   4.254   2.702  1.0817 -2.1648 -0.3110
  645MOL0     H88981   3.573   4.225   2.797 -0.5614 -0.8499  0.7248
  645MOL0     H88982   3.498   4.491   2.660  0.5649 -0.0724  0.1242
  645MOL0     H88983   3.663   4.435   2.709  2.1352  1.1973 -3.2445
  645MOL0     H88984   3.602   4.438   2.460  2.5529 -0.9802  0.6292
  645MOL0     H88985   3.503   4.297   2.480 -0.3107 -0.4197 -3.2064
  645MOL0     H88986   3.680   4.166   2.573  2.1421  0.1811  1.5503
  645MOL0     H88987   3.813   4.280   2.546  1.2491 -2.5042 -1.5630
  645MOL0     H88988   3.652   4.118   2.346  1.6795 -0.2663 -1.9941
  645MOL0     H88989   3.816   4.119   2.380 -1.7500 -2.2893 -0.7019
  645MOL0     H88990   3.585   4.663   2.706 -0.2249  1.7453 -3.8521
  645MOL0     H88991   3.708   4.849   2.623  0.1386  3.3885 -1.3605
  645MOL0     H88992   3.754   5.282   2.608  1.2161 -2.3967 -0.9413
  645MOL0     H88993   3.846   5.504   2.534  1.7682  1.5475  0.7843
  645MOL0     H88994   5.649   6.065   1.524 -0.4630 -0.2787  0.2182
  645MOL0     H88995   5.883   5.991   1.501 -0.2185  3.5860  1.2480
  645MOL0     H88996   6.324   5.850   1.470 -0.1229  0.4440  0.5904
  645MOL0     H88997   6.518   5.689   1.460  0.2856 -0.0868 -0.4834
  645MOL0     H88998   6.643   5.515   1.533  1.4048 -1.8397  1.8345
  645MOL0     H88999   6.685   5.363   1.454  0.0096 -0.8033 -1.9852
  645MOL0     H89000   6.619   5.602   1.280 -0.0540 -0.8002 -2.4816
  645MOL0     H89001   6.672   5.437   1.244  1.2052  0.0241  0.2791
  645MOL0     H89002   6.817   5.632   1.410 -1.0466 -1.2940  2.2111
  645MOL0     H89003   6.870   5.472   1.371  0.7983  0.2974 -1.3559
  645MOL0     H89004   6.834   5.673   1.143  2.8090  0.7973 -1.2930
  645MOL0     H89005   6.859   5.510   1.125 -1.6828  1.9916 -1.0684
  645MOL0     H89006   7.230   5.706   1.261  0.2323  2.4601 -1.5446
  645MOL0     H89007   6.251   5.361   1.486  1.4556  0.1457 -0.8828
  645MOL0     H89008   5.940   5.541   1.524  0.7405  2.1889  0.2791
  645MOL0     H89009   6.039   5.392   1.497  0.9896  0.5891 -2.8860
  645MOL0     H89010   6.017   5.473   1.661 -3.5115  0.1316 -0.9634
  646MOL0     O89011   4.844   2.796   3.995  0.1862  0.5900 -0.9127
  646MOL0     C89012   4.852   2.687   3.938  0.9475  0.3464  0.6812
  646MOL0     O89013   4.968   2.646   3.870  0.1128 -0.0387  1.1576
  646MOL0     C89014   5.050   2.752   3.835  1.4614  0.3392 -0.6765
  646MOL0     C89015   5.155   2.804   3.914 -0.0642 -0.9772  0.0048
  646MOL0     C89016   5.244   2.909   3.874 -0.9958  0.1720 -0.4795
  646MOL0     C89017   5.234   2.961   3.750  1.1900 -0.3224 -0.8200
  646MOL0     O89018   5.307   3.061   3.690 -0.1590 -0.2476 -0.1452
  646MOL0     C89019   5.367   3.165   3.768  0.7583  0.7204  0.2724
  646MOL0     C89020   5.430   3.272   3.676  0.5103  0.0301 -0.3650
  646MOL0     C89021   5.321   3.372   3.612 -0.8836 -0.2454 -0.7383
  646MOL0     C89022   5.195   3.312   3.544 -0.0959  0.5406 -0.9589
  646MOL0     C89023   5.226   3.232   3.414  0.2647 -0.2768 -0.2611
  646MOL0     C89024   5.328   3.299   3.317 -0.3365  0.3826  0.1115
  646MOL0     C89025   5.331   3.212   3.193  0.0338  0.2424  0.0149
  646MOL0     C89026   5.464   3.198   3.138  0.2446 -0.3536 -0.2174
  646MOL0     N89027   5.473   3.140   3.007  0.4346 -0.2794  0.1374
  646MOL0     C89028   5.390   3.180   2.898 -0.1993  0.3455 -0.2838
  646MOL0     C89029   5.423   3.094   2.795 -0.1742  0.1583 -0.7145
  646MOL0     C89030   5.357   3.090   2.661 -0.0427 -0.6348 -0.5197
  646MOL0     C89031   5.260   2.976   2.658 -0.3951  0.2451  0.0466
  646MOL0     C89032   5.223   2.937   2.521 -1.0429 -0.4879 -0.0746
  646MOL0     C89033   5.137   2.817   2.517  0.1916  1.0466  0.0437
  646MOL0     O89034   5.018   2.821   2.594 -0.8503 -0.0000 -0.7576
  646MOL0     C89035   4.912   2.891   2.544  0.9028 -0.6447 -0.1693
  646MOL0     C89036   4.799   2.912   2.627 -0.3631 -0.7650 -0.0275
  646MOL0     C89037   4.682   2.971   2.586 -0.2236 -0.6840 -0.0839
  646MOL0     C89038   4.577   2.985   2.701 -0.3534  0.5579 -0.1411
  646MOL0     C89039   4.671   3.009   2.449 -0.0223  0.2320 -0.9179
  646MOL0     C89040   4.538   3.068   2.390 -0.1120  0.0966 -0.0931
  646MOL0     O89041   4.544   3.098   2.260  0.1466 -0.9519 -0.2835
  646MOL0     C89042   4.433   3.114   2.187  0.7817 -0.0941  0.4595
  646MOL0     C89043   4.316   3.177   2.235  0.5588  0.3040  0.7906
  646MOL0     C89044   4.217   3.211   2.142  0.1408 -0.1798 -0.1138
  646MOL0     C89045   4.233   3.176   2.002  0.3329 -0.3767 -0.1847
  646MOL0     O89046   4.149   3.216   1.896  0.5674  0.9976  0.4551
  646MOL0     C89047   4.015   3.239   1.925 -0.4059  0.2100 -0.1922
  646MOL0     C89048   3.942   3.215   1.794 -0.6940 -0.9611  0.3975
  646MOL0     C89049   3.803   3.268   1.805  0.1338 -1.1521  0.2875
  646MOL0     C89050   3.710   3.198   1.702  0.0772  0.9211 -0.5712
  646MOL0     C89051   3.571   3.246   1.714  0.1736 -0.4188  0.8139
  646MOL0     C89052   3.469   3.178   1.627 -0.9352  0.1892  0.8788
  646MOL0     C89053   3.338   3.259   1.608 -0.3100  1.1557  0.0224
  646MOL0     C89054   3.248   3.238   1.722 -0.0818 -0.1576 -0.6077
  646MOL0    Cl89055   3.198   3.061   1.707 -0.0615 -0.0524 -0.0557
  646MOL0     C89056   4.343   3.103   1.963 -0.2466  0.6374  0.6762
  646MOL0     C89057   4.438   3.070   2.051  0.6581 -0.1594 -0.9263
  646MOL0     O89058   4.440   3.086   2.462  0.1390  0.1464  0.2159
  646MOL0     C89059   4.773   2.989   2.357 -0.3759 -0.4287 -0.7321
  646MOL0     C89060   4.887   2.923   2.404 -0.3916 -0.5374 -0.9588
  646MOL0     N89061   5.513   3.003   2.845 -0.2828 -0.7330 -0.8607
  646MOL0     N89062   5.553   3.041   2.967  0.2636  0.5934  0.7378
  646MOL0     C89063   5.131   2.901   3.665  0.4705  0.0451  0.2959
  646MOL0     C89064   5.034   2.808   3.705  0.3387 -0.5253  0.4273
  646MOL0     C89065   4.733   2.596   3.958 -0.0545  0.4911  0.6296
  646MOL0     C89066   4.625   2.634   4.031 -0.0037 -0.5143 -0.0939
  646MOL0     C89067   4.519   2.551   4.066  1.1574 -0.0214 -1.5701
  646MOL0     C89068   4.517   2.420   4.024 -0.0657 -0.7695 -0.7333
  646MOL0     O89069   4.426   2.325   4.061  0.7186 -0.3358 -0.0381
  646MOL0     C89070   4.335   2.365   4.164 -0.1792  0.8251 -0.2605
  646MOL0     C89071   4.236   2.252   4.187  0.1814 -0.4771 -0.7623
  646MOL0     C89072   4.120   2.220   4.090  0.8000  0.2304  0.1133
  646MOL0     C89073   4.000   2.147   4.157  0.1910  0.1801 -0.3426
  646MOL0     C89074   4.049   2.030   4.233  0.5227 -0.1346  0.3586
  646MOL0     C89075   4.101   1.925   4.272 -0.1199 -1.2574  0.3958
  646MOL0     C89076   4.620   2.384   3.934  0.0554 -0.1155  0.5287
  646MOL0     C89077   4.729   2.465   3.910 -0.2537 -0.3204  1.6896
  646MOL0     C89078   4.820   2.409   3.799  0.5707 -1.1915 -0.9995
  646MOL0     H89079   5.176   2.763   4.013  2.3910  1.1364  0.4663
  646MOL0     H89080   5.331   2.935   3.933  0.5294  1.0871 -2.9964
  646MOL0     H89081   5.451   3.111   3.813  0.9296 -0.9438 -1.8535
  646MOL0     H89082   5.305   3.210   3.846  0.3476  1.9843 -0.7360
  646MOL0     H89083   5.496   3.331   3.740 -0.1472  1.2161 -0.7641
  646MOL0     H89084   5.492   3.221   3.602  0.6044  0.3033 -0.4734
  646MOL0     H89085   5.277   3.447   3.678  0.4838  0.0526 -0.1355
  646MOL0     H89086   5.376   3.431   3.538 -1.1893  1.2720  0.2247
  646MOL0     H89087   5.145   3.239   3.607 -2.8579  1.3294 -2.0962
  646MOL0     H89088   5.124   3.395   3.543 -0.2626  0.4042 -1.9956
  646MOL0     H89089   5.132   3.226   3.358  0.5187 -0.4610 -0.6830
  646MOL0     H89090   5.260   3.129   3.429  3.8125  0.2969 -2.9376
  646MOL0     H89091   5.310   3.406   3.302  1.5951  0.5671 -1.3190
  646MOL0     H89092   5.424   3.297   3.369 -0.3692  2.0998  0.3006
  646MOL0     H89093   5.260   3.248   3.118  1.9705 -0.0193 -2.0401
  646MOL0     H89094   5.289   3.113   3.213  2.5317 -0.6246  1.4677
  646MOL0     H89095   5.512   3.296   3.133  1.0696 -0.6839  0.7649
  646MOL0     H89096   5.528   3.136   3.202  1.1316 -0.2471 -0.9828
  646MOL0     H89097   5.305   3.248   2.893 -1.3254 -0.9857  0.1345
  646MOL0     H89098   5.436   3.072   2.588  0.8697  0.5668  0.1367
  646MOL0     H89099   5.313   3.189   2.643  1.9040 -0.0727 -2.6577
  646MOL0     H89100   5.300   2.890   2.712  1.7315  0.1919 -1.5007
  646MOL0     H89101   5.166   3.005   2.707 -2.0056 -0.4270 -2.4839
  646MOL0     H89102   5.157   3.014   2.480 -1.1181 -0.1011  0.7452
  646MOL0     H89103   5.314   2.919   2.463  0.0151  0.4988  1.2206
  646MOL0     H89104   5.129   2.785   2.412  3.5565 -2.8156  0.7294
  646MOL0     H89105   5.190   2.730   2.555  0.2938  1.9258  2.0524
  646MOL0     H89106   4.792   2.873   2.728  0.9642  0.5487  0.6109
  646MOL0     H89107   4.498   2.910   2.698  0.5050 -0.3370 -1.8958
  646MOL0     H89108   4.532   3.085   2.699  2.4219  2.0173  1.6868
  646MOL0     H89109   4.621   2.987   2.801  0.2566  3.0968 -0.3929
  646MOL0     H89110   4.298   3.204   2.339 -3.9579  0.7687  0.0519
  646MOL0     H89111   4.128   3.270   2.158  0.3317  1.2314 -3.5407
  646MOL0     H89112   3.973   3.181   2.007  0.3452  1.0589  0.8289
  646MOL0     H89113   4.007   3.343   1.957  1.1797 -0.2785  2.0013
  646MOL0     H89114   3.998   3.258   1.711  0.8182 -0.6130  1.5451
  646MOL0     H89115   3.935   3.107   1.774  0.0850 -0.5993 -2.2292
  646MOL0     H89116   3.811   3.377   1.793 -4.5044 -0.5624  0.9917
  646MOL0     H89117   3.768   3.252   1.907  0.2749  2.0555  0.9284
  646MOL0     H89118   3.705   3.089   1.707  1.1329  0.6060 -4.0875
  646MOL0     H89119   3.755   3.211   1.604  0.3531 -1.9834 -0.9232
  646MOL0     H89120   3.541   3.242   1.819  1.6849 -1.9493  1.2457
  646MOL0     H89121   3.577   3.351   1.683  0.8325  0.7538  4.4282
  646MOL0     H89122   3.446   3.075   1.656  1.0325 -1.1496 -1.8608
  646MOL0     H89123   3.519   3.177   1.530  1.6049  1.3506  2.0916
  646MOL0     H89124   3.294   3.214   1.519  0.8859 -2.0502  0.8752
  646MOL0     H89125   3.359   3.365   1.591 -1.1267  1.6242  1.6905
  646MOL0     H89126   3.162   3.305   1.720 -1.7111 -2.1236 -0.5202
  646MOL0     H89127   3.299   3.242   1.818 -1.1015 -3.6329  0.2383
  646MOL0     H89128   4.360   3.061   1.864  0.1003 -1.5111  1.5923
  646MOL0     H89129   4.527   3.017   2.018 -1.3298 -3.8543 -0.9403
  646MOL0     H89130   4.769   3.016   2.252 -1.0514  2.4896 -0.0393
  646MOL0     H89131   4.967   2.920   2.331  2.6662  0.9848  2.0253
  646MOL0     H89132   5.124   2.952   3.569  0.3724 -0.1226  0.2141
  646MOL0     H89133   4.948   2.788   3.642  0.6460  0.2902 -0.2834
  646MOL0     H89134   4.610   2.729   4.081 -4.2733 -1.0673  0.1140
  646MOL0     H89135   4.443   2.591   4.131 -0.0666 -0.8008 -2.4823
  646MOL0     H89136   4.390   2.376   4.259 -2.0369 -1.0583  1.1154
  646MOL0     H89137   4.275   2.455   4.147 -3.2102 -1.2738 -1.5655
  646MOL0     H89138   4.196   2.282   4.284  0.8594  2.4537 -1.2971
  646MOL0     H89139   4.291   2.159   4.199 -0.7530 -0.8010  1.6690
  646MOL0     H89140   4.075   2.318   4.070  0.8252  0.0931 -0.6456
  646MOL0     H89141   4.157   2.171   4.000  2.0552  2.2205 -0.5326
  646MOL0     H89142   3.930   2.112   4.081  1.3771  0.7794 -1.7593
  646MOL0     H89143   3.959   2.222   4.225 -0.3776 -2.1794  2.0648
  646MOL0     H89144   4.151   1.840   4.314 -1.3930 -1.7465  0.9510
  646MOL0     H89145   4.606   2.281   3.903 -1.5910  0.4107 -0.6798
  646MOL0     H89146   4.839   2.492   3.730 -3.1623  0.6366 -0.0735
  646MOL0     H89147   4.918   2.379   3.837  1.6652 -0.7539 -3.2591
  646MOL0     H89148   4.774   2.330   3.740  0.8901 -0.8942 -1.6683
  647MOL0     O89149   8.475   7.758  10.921 -0.3616 -0.4626  0.0170
  647MOL0     C89150   8.462   7.845  10.836 -0.3225 -0.0775  0.3715
  647MOL0     O89151   8.543   7.953  10.816 -1.2535 -0.0017 -0.0588
  647MOL0     C89152   8.659   7.981  10.881  0.2746 -0.0838  0.8310
  647MOL0     C89153   8.745   7.893  10.950  0.7276 -0.7917  0.4646
  647MOL0     C89154   8.871   7.938  10.988  0.6933  0.0008  0.5198
  647MOL0     C89155   8.912   8.063  10.960  0.2099  0.2310  0.3955
  647MOL0     O89156   9.025   8.098  11.020  1.5858 -0.0508 -0.0084
  647MOL0     C89157   8.994   8.209  11.119 -0.7387  0.0492  0.2673
  647MOL0     C89158   9.041   8.169  11.256 -1.1293  0.4708  0.3503
  647MOL0     C89159   8.956   8.059  11.332  0.5511 -1.1658 -1.1822
  647MOL0     C89160   8.844   8.107  11.422 -0.1919  1.3667 -0.4798
  647MOL0     C89161   8.742   7.998  11.454 -0.1984  0.0327 -0.2400
  647MOL0     C89162   8.652   7.962  11.340  0.3302  0.0226  0.2981
  647MOL0     C89163   8.522   7.905  11.394  0.0119 -0.1898  0.2578
  647MOL0     C89164   8.421   7.857  11.279  0.0469  0.6785  1.1574
  647MOL0     N89165   8.345   7.973  11.212  0.4176 -0.1207  0.2663
  647MOL0     C89166   8.408   8.067  11.132 -0.8370  0.8305 -0.0183
  647MOL0     C89167   8.307   8.157  11.112  0.9130  0.0655  0.0034
  647MOL0     C89168   8.307   8.288  11.048  0.1522  0.2372  0.2812
  647MOL0     C89169   8.338   8.279  10.897 -0.8518 -0.6159  0.7438
  647MOL0     C89170   8.237   8.190  10.829  0.5252 -0.5213 -0.2807
  647MOL0     C89171   8.217   8.195  10.677  0.2088 -0.1850  0.1621
  647MOL0     O89172   8.159   8.325  10.650  0.0287  0.4150  0.6471
  647MOL0     C89173   8.149   8.351  10.516  1.2414  0.1075  0.2291
  647MOL0     C89174   8.072   8.466  10.490 -0.4757  0.0834  0.2260
  647MOL0     C89175   8.064   8.514  10.360 -0.7682  0.5018  0.0880
  647MOL0     C89176   7.972   8.631  10.343 -0.4860  0.8880 -0.1599
  647MOL0     C89177   8.120   8.444  10.252 -0.4967  0.3873 -0.0867
  647MOL0     C89178   8.098   8.480  10.107 -0.5358 -0.0740  0.1722
  647MOL0     O89179   7.997   8.566  10.068 -1.3456  0.8209  0.1018
  647MOL0     C89180   8.007   8.620   9.938 -0.4579  0.4382  1.1204
  647MOL0     C89181   7.890   8.641   9.869  0.0019  0.4788 -0.6610
  647MOL0     C89182   7.892   8.706   9.747 -0.3755 -0.0376  0.2450
  647MOL0     C89183   8.009   8.750   9.681 -0.1167 -0.5678 -0.5586
  647MOL0     O89184   7.991   8.820   9.568 -0.3174 -0.4758  0.0058
  647MOL0     C89185   8.109   8.863   9.500  0.9840 -0.0837  0.0356
  647MOL0     C89186   8.061   8.928   9.376  1.1372 -0.6646  1.4501
  647MOL0     C89187   8.160   8.922   9.266 -0.3830  0.3225  0.3318
  647MOL0     C89188   8.127   9.019   9.156  0.3451  0.3767  0.4655
  647MOL0     C89189   8.194   8.970   9.020 -0.0333  0.2470 -0.4996
  647MOL0     C89190   8.111   8.860   8.951 -0.2967  0.4160 -0.4535
  647MOL0     C89191   8.207   8.767   8.874 -1.2611 -0.3623  0.1129
  647MOL0     C89192   8.133   8.636   8.827  0.2228  0.2268  0.8613
  647MOL0    Cl89193   8.247   8.516   8.740  0.0269  0.1735 -0.0752
  647MOL0     C89194   8.133   8.732   9.747 -0.4488 -0.0604 -0.1670
  647MOL0     C89195   8.126   8.665   9.875  0.7777  0.0270 -0.0752
  647MOL0     O89196   8.172   8.433  10.022 -0.3456  0.2696 -0.8148
  647MOL0     C89197   8.193   8.325  10.276 -0.6245  0.0241  0.3835
  647MOL0     C89198   8.202   8.269  10.412  0.5435 -0.8494  0.1670
  647MOL0     N89199   8.196   8.114  11.186 -0.4508 -0.8553 -0.0462
  647MOL0     N89200   8.219   8.002  11.241  0.1869  0.1526  0.6410
  647MOL0     C89201   8.827   8.155  10.905  0.0613 -0.1081  1.1307
  647MOL0     C89202   8.701   8.110  10.860  0.0067 -0.0097 -0.2252
  647MOL0     C89203   8.338   7.845  10.747  0.1454 -0.3400  0.1839
  647MOL0     C89204   8.357   7.896  10.617  0.3418 -0.1003 -0.3149
  647MOL0     C89205   8.248   7.897  10.524  0.2825 -2.0171 -1.4061
  647MOL0     C89206   8.131   7.830  10.565 -0.1126 -0.0786  0.4286
  647MOL0     O89207   8.017   7.840  10.487  0.1616  0.2442  0.3601
  647MOL0     C89208   8.047   7.871  10.350  0.2481 -0.3048 -0.3846
  647MOL0     C89209   7.921   7.844  10.286 -0.6878  0.3025  0.0823
  647MOL0     C89210   7.876   7.701  10.289 -0.0492  0.0819 -0.0791
  647MOL0     C89211   7.763   7.694  10.186  0.3565 -0.0529 -0.2436
  647MOL0     C89212   7.676   7.579  10.220  0.5180 -0.3248  0.1211
  647MOL0     C89213   7.607   7.488  10.253 -0.2252  0.2510  0.2931
  647MOL0     C89214   8.120   7.756  10.686  0.1822 -0.2480 -0.8655
  647MOL0     C89215   8.224   7.772  10.785  0.3541  0.4694 -0.2162
  647MOL0     C89216   8.206   7.706  10.919  0.0944 -0.3346  0.6225
  647MOL0     H89217   8.709   7.791  10.961  0.3575 -0.5400  1.9064
  647MOL0     H89218   8.941   7.863  11.024 -2.1685 -3.6508 -0.8867
  647MOL0     H89219   8.889   8.231  11.138 -0.2347  3.1751  0.0512
  647MOL0     H89220   9.038   8.303  11.084 -1.5581  0.5367  0.5315
  647MOL0     H89221   9.140   8.125  11.247 -1.9681 -1.7798  1.5012
  647MOL0     H89222   9.062   8.251  11.326 -0.2710 -0.8726  1.7238
  647MOL0     H89223   8.912   7.996  11.254  0.3570 -1.3223 -0.9467
  647MOL0     H89224   9.033   8.000  11.383  0.0027 -0.6966  0.2387
  647MOL0     H89225   8.886   8.138  11.518 -0.0887  0.4866 -0.2356
  647MOL0     H89226   8.790   8.193  11.380 -0.9067  0.7454 -0.8568
  647MOL0     H89227   8.682   8.034  11.538 -0.7581  2.8050 -1.7067
  647MOL0     H89228   8.798   7.910  11.488  0.9935  0.5657 -0.7381
  647MOL0     H89229   8.628   8.049  11.279 -0.4690 -1.2399 -1.2550
  647MOL0     H89230   8.683   7.871  11.286 -0.7187 -1.7877  2.5627
  647MOL0     H89231   8.464   7.974  11.456  1.9237  0.5846  1.2713
  647MOL0     H89232   8.561   7.820  11.450  1.2306 -0.2672 -0.6657
  647MOL0     H89233   8.480   7.808  11.201 -2.2241  2.2445 -1.7636
  647MOL0     H89234   8.353   7.783  11.322  0.9681 -0.9694 -0.1218
  647MOL0     H89235   8.511   8.062  11.098 -0.5472 -1.5502  0.9658
  647MOL0     H89236   8.388   8.348  11.092  4.8020 -4.2741 -1.1073
  647MOL0     H89237   8.209   8.334  11.061  1.0298  1.7124  2.2432
  647MOL0     H89238   8.334   8.378  10.850  0.6061 -1.0023 -0.2729
  647MOL0     H89239   8.436   8.231  10.900 -0.4826  0.1419  3.7173
  647MOL0     H89240   8.259   8.087  10.858  1.2713 -0.8927 -2.0175
  647MOL0     H89241   8.141   8.224  10.869  0.4041  0.6011 -1.4743
  647MOL0     H89242   8.316   8.173  10.636  0.0097 -3.5545  1.1996
  647MOL0     H89243   8.148   8.116  10.646 -1.9491  1.0965  1.4110
  647MOL0     H89244   8.023   8.524  10.568  0.4371  1.5793 -0.2690
  647MOL0     H89245   7.927   8.670  10.435  0.1852 -1.7584  1.4188
  647MOL0     H89246   7.884   8.591  10.291 -2.0151  0.9158  2.2746
  647MOL0     H89247   8.005   8.712  10.277 -1.5434  1.5327  0.0767
  647MOL0     H89248   7.795   8.619   9.918 -0.0118 -3.4273 -2.0971
  647MOL0     H89249   7.796   8.717   9.698 -3.2618 -3.3740  4.3798
  647MOL0     H89250   8.148   8.951   9.552  0.8689 -0.6894  1.1816
  647MOL0     H89251   8.189   8.788   9.499  0.9423 -0.1626  1.2714
  647MOL0     H89252   7.979   8.872   9.330 -1.0722  1.2466  2.8527
  647MOL0     H89253   8.028   9.030   9.395 -0.0369 -0.7629  0.1376
  647MOL0     H89254   8.177   8.821   9.227  2.9468  0.6636  0.6014
  647MOL0     H89255   8.255   8.953   9.309  0.7056 -2.5534  0.2159
  647MOL0     H89256   8.153   9.117   9.196 -2.4857  0.4684  2.3901
  647MOL0     H89257   8.019   9.020   9.138 -0.1837  2.6823  3.1238
  647MOL0     H89258   8.211   9.042   8.939  3.0557 -0.0125 -0.2002
  647MOL0     H89259   8.300   8.946   9.025  0.1646  1.1851 -0.0795
  647MOL0     H89260   8.032   8.895   8.885 -2.9212 -1.9755  1.1893
  647MOL0     H89261   8.050   8.795   9.015 -2.1926  1.0479 -1.5516
  647MOL0     H89262   8.296   8.746   8.934 -1.6279 -1.2546  0.3572
  647MOL0     H89263   8.230   8.827   8.785 -1.7575 -2.4962 -1.5445
  647MOL0     H89264   8.060   8.652   8.747  3.4557 -1.3061 -2.6926
  647MOL0     H89265   8.092   8.575   8.909 -0.3035 -1.3473 -0.5219
  647MOL0     H89266   8.226   8.775   9.710 -0.4889  1.7491  1.6548
  647MOL0     H89267   8.210   8.673   9.943 -0.8742 -0.7287  2.1435
  647MOL0     H89268   8.243   8.266  10.200 -3.0843 -1.0884 -0.5042
  647MOL0     H89269   8.270   8.185  10.422 -0.7191 -1.6541  3.1561
  647MOL0     H89270   8.851   8.261  10.906  2.5408 -0.4454 -2.5156
  647MOL0     H89271   8.648   8.195  10.821 -0.8072 -0.3384  0.1298
  647MOL0     H89272   8.437   7.964  10.590 -1.8471  1.3884 -3.7993
  647MOL0     H89273   8.258   7.955  10.433 -3.1239  0.5779 -0.3157
  647MOL0     H89274   8.075   7.975  10.332 -0.7325 -0.5951 -4.3322
  647MOL0     H89275   8.127   7.811  10.306 -1.1496  0.4605 -4.3306
  647MOL0     H89276   7.938   7.881  10.185  1.0189 -1.8550 -0.4795
  647MOL0     H89277   7.843   7.893  10.346 -3.2368 -3.0370 -0.2357
  647MOL0     H89278   7.960   7.633  10.270 -0.1694  0.4195 -1.9530
  647MOL0     H89279   7.845   7.682  10.392 -0.3255  4.0446  0.7090
  647MOL0     H89280   7.807   7.679  10.087 -3.7678 -1.7167 -2.0123
  647MOL0     H89281   7.705   7.786  10.197 -1.2982 -1.0375 -0.5139
  647MOL0     H89282   7.534   7.412  10.270  1.6532 -1.6664  0.2624
  647MOL0     H89283   8.035   7.692  10.709  0.6546 -1.5866 -2.6087
  647MOL0     H89284   8.105   7.669  10.937  0.2133 -0.5048  0.9489
  647MOL0     H89285   8.280   7.625  10.915  0.3461 -0.1302 -3.7096
  647MOL0     H89286   8.230   7.780  10.996 -1.7178 -0.3499  1.2360
  648MOL0     O89287   8.653   5.692   7.093 -0.3001 -0.1228  0.7590
  648MOL0     C89288   8.733   5.686   7.188 -0.0275 -0.5423 -0.1245
  648MOL0     O89289   8.724   5.623   7.315 -0.4546  0.3905  0.1063
  648MOL0     C89290   8.597   5.568   7.351 -0.7789 -0.1720  0.8600
  648MOL0     C89291   8.568   5.422   7.354 -0.7110 -0.4787 -0.1463
  648MOL0     C89292   8.439   5.383   7.392  0.0954  0.3420 -0.3692
  648MOL0     C89293   8.342   5.472   7.442 -0.4069  0.6990 -0.0564
  648MOL0     O89294   8.229   5.436   7.499  0.1804 -0.5344 -0.8556
  648MOL0     C89295   8.219   5.327   7.591 -0.2061 -0.2716  0.7015
  648MOL0     C89296   8.284   5.371   7.720 -0.5811  0.7175  0.3949
  648MOL0     C89297   8.289   5.255   7.826 -0.1966  0.7031 -0.1734
  648MOL0     C89298   8.382   5.130   7.791  0.0358  0.7720 -0.3423
  648MOL0     C89299   8.395   5.034   7.911  0.0241  0.0163  0.1865
  648MOL0     C89300   8.468   4.908   7.871  0.9870 -0.0403 -0.5738
  648MOL0     C89301   8.427   4.784   7.959  0.3231  0.4541 -0.2503
  648MOL0     C89302   8.441   4.641   7.912 -0.2604  0.8839 -0.4101
  648MOL0     N89303   8.351   4.604   7.798  0.4645 -0.3918 -0.5440
  648MOL0     C89304   8.243   4.524   7.829 -1.3388 -0.5453 -0.3846
  648MOL0     C89305   8.197   4.479   7.708 -0.0013 -0.0597 -0.3007
  648MOL0     C89306   8.075   4.385   7.689 -0.2352 -0.8225  0.6183
  648MOL0     C89307   7.985   4.377   7.815  0.1690  0.4178  0.7732
  648MOL0     C89308   7.904   4.506   7.844 -0.3988  1.2752  0.0566
  648MOL0     C89309   7.867   4.505   7.985  0.4443  0.5193  0.0964
  648MOL0     O89310   7.977   4.538   8.072  0.4289 -0.7536 -0.1521
  648MOL0     C89311   7.972   4.488   8.202 -0.2817  1.3480 -0.5448
  648MOL0     C89312   8.093   4.458   8.273  0.1884  0.1078  0.3911
  648MOL0     C89313   8.095   4.427   8.410 -0.5269 -0.4792 -0.2795
  648MOL0     C89314   8.237   4.409   8.458 -0.8252  0.2784 -0.4922
  648MOL0     C89315   7.974   4.417   8.486  0.2849 -0.0011 -0.8034
  648MOL0     C89316   7.979   4.367   8.618 -0.1937  0.3857 -0.2219
  648MOL0     O89317   7.890   4.418   8.703 -0.6026 -0.6874  0.1575
  648MOL0     C89318   7.895   4.401   8.840  0.9661 -0.2874  0.4023
  648MOL0     C89319   8.007   4.376   8.921 -0.4911 -0.2348 -0.3221
  648MOL0     C89320   8.008   4.364   9.060  0.2250 -0.4746  1.0060
  648MOL0     C89321   7.884   4.367   9.124  0.1870 -0.3230  0.1625
  648MOL0     O89322   7.863   4.367   9.261  0.0610  0.2499  0.1406
  648MOL0     C89323   7.979   4.340   9.345  0.4190  0.5502 -0.6627
  648MOL0     C89324   7.965   4.297   9.486 -0.0949  0.1593 -0.7264
  648MOL0     C89325   7.829   4.234   9.509  0.3517 -0.5824  0.0734
  648MOL0     C89326   7.806   4.187   9.655  0.5977 -0.1847  0.2528
  648MOL0     C89327   7.683   4.096   9.648  1.1784  0.8707 -0.4960
  648MOL0     C89328   7.674   4.031   9.790  0.2133 -0.4859 -1.0533
  648MOL0     C89329   7.545   3.971   9.826 -0.3949 -0.6913 -0.5238
  648MOL0     C89330   7.560   3.848   9.921  0.6667 -0.3267 -0.8757
  648MOL0    Cl89331   7.648   3.705   9.855 -0.0947 -0.0041  0.0585
  648MOL0     C89332   7.773   4.399   9.046  0.3439  0.5775 -0.1904
  648MOL0     C89333   7.773   4.408   8.908  0.3190  0.6351  0.3273
  648MOL0     O89334   8.053   4.271   8.643  0.4177  0.2538 -0.4761
  648MOL0     C89335   7.851   4.444   8.422 -1.1639  0.2539 -0.1573
  648MOL0     C89336   7.850   4.480   8.287 -0.8396 -0.2319  0.3898
  648MOL0     N89337   8.280   4.513   7.610  0.8915 -0.4850  0.5257
  648MOL0     N89338   8.371   4.584   7.663 -0.3829 -0.0973  0.6301
  648MOL0     C89339   8.374   5.604   7.435 -0.9691 -0.8123  0.3951
  648MOL0     C89340   8.494   5.653   7.389  0.4521 -0.9774  0.0371
  648MOL0     C89341   8.868   5.748   7.170 -1.1308 -0.2981  0.4489
  648MOL0     C89342   8.872   5.861   7.090 -0.5009 -0.2086 -0.0494
  648MOL0     C89343   8.978   5.939   7.101 -0.4440  0.4460 -0.8096
  648MOL0     C89344   9.091   5.912   7.183  0.9933 -0.2427 -0.0249
  648MOL0     O89345   9.185   6.004   7.193 -1.0207  0.3628  0.0784
  648MOL0     C89346   9.160   6.126   7.264 -0.4479  0.3079  0.2328
  648MOL0     C89347   9.209   6.137   7.410 -0.8798 -0.4873  0.4387
  648MOL0     C89348   9.114   6.083   7.514  0.6415 -0.5765  0.0010
  648MOL0     C89349   9.170   6.083   7.660 -0.4048  0.3511  0.5945
  648MOL0     C89350   9.312   6.052   7.678 -0.4799 -1.4935  0.4476
  648MOL0     C89351   9.423   6.009   7.704  0.4523  0.8035 -0.1571
  648MOL0     C89352   9.098   5.789   7.249 -0.1754  0.1358  0.5706
  648MOL0     C89353   8.986   5.709   7.248  0.7643  0.4917 -0.5912
  648MOL0     C89354   9.004   5.574   7.317  0.5822 -1.1001 -0.2970
  648MOL0     H89355   8.650   5.354   7.333 -0.3512 -0.2034  0.3553
  648MOL0     H89356   8.426   5.276   7.409 -0.8100  0.7606  1.9541
  648MOL0     H89357   8.276   5.248   7.541 -1.2520  0.4117 -1.7286
  648MOL0     H89358   8.114   5.299   7.608 -0.5267  0.5057  0.1218
  648MOL0     H89359   8.388   5.391   7.694 -0.1227  4.2748  3.9920
  648MOL0     H89360   8.229   5.459   7.755 -1.0675  0.2946  0.6990
  648MOL0     H89361   8.320   5.309   7.916  1.6613  1.5235 -1.2359
  648MOL0     H89362   8.186   5.224   7.842 -0.4276  0.5208 -1.8136
  648MOL0     H89363   8.351   5.081   7.699 -2.3041  0.5998  0.4754
  648MOL0     H89364   8.480   5.175   7.771 -0.5671  1.4676 -1.8954
  648MOL0     H89365   8.296   5.007   7.947 -1.4122  0.2593 -3.2949
  648MOL0     H89366   8.447   5.087   7.992 -2.1607  4.5551 -1.0298
  648MOL0     H89367   8.448   4.899   7.764 -1.5644  0.1632 -0.1658
  648MOL0     H89368   8.577   4.921   7.872  0.8760  1.4931  2.2087
  648MOL0     H89369   8.322   4.795   7.986  0.2509 -0.9861  0.1313
  648MOL0     H89370   8.480   4.793   8.055  2.1580  2.6674 -1.3581
  648MOL0     H89371   8.546   4.626   7.883  0.5692  1.6177  2.0026
  648MOL0     H89372   8.417   4.582   8.000  3.4962  5.0772  4.0562
  648MOL0     H89373   8.194   4.504   7.924  0.7697  0.5550  1.0043
  648MOL0     H89374   8.120   4.292   7.653 -0.4952 -0.7053 -0.0203
  648MOL0     H89375   8.012   4.428   7.610 -1.0732 -0.9736  1.1951
  648MOL0     H89376   7.905   4.306   7.796  0.0293  0.6604  0.4491
  648MOL0     H89377   8.037   4.329   7.899  2.1823 -1.9743 -1.6682
  648MOL0     H89378   7.960   4.596   7.815  2.0895  0.1936  1.1887
  648MOL0     H89379   7.815   4.491   7.783 -1.2708  3.1279  0.8126
  648MOL0     H89380   7.795   4.587   7.991  2.5864  2.3870  1.7710
  648MOL0     H89381   7.812   4.412   8.003 -0.9506  1.3154  0.0693
  648MOL0     H89382   8.187   4.475   8.222 -0.0535 -1.2683 -0.5590
  648MOL0     H89383   8.270   4.306   8.440  1.5768  0.4037  2.5779
  648MOL0     H89384   8.248   4.425   8.565  2.3171 -1.4434 -0.4482
  648MOL0     H89385   8.306   4.475   8.405 -3.4267  2.1461 -1.7965
  648MOL0     H89386   8.102   4.377   8.868  0.8733  0.3487  1.9969
  648MOL0     H89387   8.097   4.366   9.122 -1.5290  2.6220  3.7563
  648MOL0     H89388   8.041   4.268   9.290 -2.3643 -0.0302 -3.2706
  648MOL0     H89389   8.041   4.430   9.344  0.8732  0.2870  0.7502
  648MOL0     H89390   8.048   4.237   9.524  0.0145  1.4357  1.1767
  648MOL0     H89391   7.978   4.383   9.552 -1.8556  0.2217 -0.4090
  648MOL0     H89392   7.824   4.149   9.439 -0.5566  3.1746 -4.9869
  648MOL0     H89393   7.752   4.307   9.485  0.7525  0.2197  1.1658
  648MOL0     H89394   7.779   4.273   9.717  0.2211 -0.6892  0.8019
  648MOL0     H89395   7.890   4.136   9.703  1.6649  0.7346 -0.5810
  648MOL0     H89396   7.594   4.156   9.623  1.9365  2.2036 -0.0721
  648MOL0     H89397   7.698   4.027   9.565 -0.1929  2.9683 -2.6267
  648MOL0     H89398   7.688   4.111   9.863  2.2499 -0.6606 -1.1937
  648MOL0     H89399   7.757   3.962   9.803 -1.2484 -2.0890  0.2833
  648MOL0     H89400   7.489   3.941   9.737 -2.1783 -3.2012  1.3166
  648MOL0     H89401   7.489   4.043   9.888  3.2867  0.3846  1.9230
  648MOL0     H89402   7.461   3.823   9.961  1.6913 -2.2249  0.6470
  648MOL0     H89403   7.616   3.879  10.010  0.1512  0.7538 -0.9139
  648MOL0     H89404   7.677   4.421   9.091  0.6052  2.0388 -0.2964
  648MOL0     H89405   7.682   4.422   8.851 -1.1499  0.4586  2.5333
  648MOL0     H89406   7.756   4.446   8.474 -2.8557 -2.8364 -2.7193
  648MOL0     H89407   7.758   4.518   8.242  0.4411  1.6781 -0.7621
  648MOL0     H89408   8.317   5.684   7.481  1.9135  0.6662  1.6806
  648MOL0     H89409   8.522   5.758   7.384  0.0691 -0.9422 -2.2706
  648MOL0     H89410   8.787   5.899   7.035 -0.0497 -1.1279 -1.4443
  648MOL0     H89411   8.981   6.034   7.048  0.0990  0.5692 -0.5696
  648MOL0     H89412   9.216   6.211   7.224 -1.2012  0.7015 -0.0015
  648MOL0     H89413   9.057   6.162   7.252 -0.3852  0.5051  0.2798
  648MOL0     H89414   9.222   6.239   7.448  1.5702 -0.4770 -0.2686
  648MOL0     H89415   9.310   6.098   7.400  0.6887  2.3750  3.1563
  648MOL0     H89416   9.025   6.146   7.506  1.7916  1.0669 -0.3034
  648MOL0     H89417   9.085   5.979   7.495 -3.2395  0.1107  1.2065
  648MOL0     H89418   9.120   6.013   7.727  2.7559 -2.2580  0.4923
  648MOL0     H89419   9.160   6.181   7.707 -1.6046 -0.0571  1.2368
  648MOL0     H89420   9.511   5.957   7.734 -0.5130  0.4510  2.3865
  648MOL0     H89421   9.180   5.756   7.311  1.7889 -0.0688 -1.9757
  648MOL0     H89422   9.020   5.571   7.425 -1.0814 -2.5493 -0.0279
  648MOL0     H89423   8.916   5.514   7.288 -0.6616  0.4160  0.2168
  648MOL0     H89424   9.095   5.535   7.272  3.0902 -1.3023  4.3363
  649MOL0     O89425   1.581   8.801   5.142  0.4639  1.1045 -0.1065
  649MOL0     C89426   1.488   8.877   5.161  0.3173  0.5250 -0.3318
  649MOL0     O89427   1.407   8.923   5.066 -0.5079 -0.1081  0.8253
  649MOL0     C89428   1.437   8.903   4.939 -0.3823  0.7376  0.0163
  649MOL0     C89429   1.368   8.800   4.866  0.0943  0.7645 -0.1186
  649MOL0     C89430   1.394   8.764   4.730  0.5039 -0.3769 -0.8537
  649MOL0     C89431   1.484   8.835   4.654 -0.3069 -0.0978  0.1134
  649MOL0     O89432   1.502   8.832   4.521  0.1771 -0.3606  0.1064
  649MOL0     C89433   1.417   8.755   4.441  0.5157  0.5381  0.1196
  649MOL0     C89434   1.280   8.814   4.402 -0.3386  0.3114 -1.3101
  649MOL0     C89435   1.192   8.722   4.313 -0.2487 -0.0944 -0.1697
  649MOL0     C89436   1.052   8.776   4.290 -0.3365 -0.2898 -0.0425
  649MOL0     C89437   0.981   8.707   4.173  1.0893  0.8141  1.0710
  649MOL0     C89438   0.916   8.571   4.209  0.1146 -0.2470 -0.3615
  649MOL0     C89439   0.885   8.480   4.084 -0.0679  0.1414  0.1798
  649MOL0     C89440   0.766   8.531   3.990 -0.0647 -1.0999  0.6557
  649MOL0     N89441   0.643   8.549   4.080 -0.3492  0.5143  0.0607
  649MOL0     C89442   0.591   8.439   4.148 -0.1755 -0.0255  0.5995
  649MOL0     C89443   0.491   8.491   4.226 -1.0057  0.4438  0.3845
  649MOL0     C89444   0.392   8.427   4.306  0.2083 -0.0518 -0.6981
  649MOL0     C89445   0.265   8.375   4.223  0.0364 -0.3269 -0.8631
  649MOL0     C89446   0.175   8.481   4.177 -0.9406 -1.1267  0.0197
  649MOL0     C89447   0.123   8.585   4.276 -0.2951  0.1711 -0.7570
  649MOL0     O89448   0.019   8.657   4.229 -0.2457 -0.1505  0.7575
  649MOL0     C89449  -0.110   8.627   4.258 -0.0901 -0.4916  0.9130
  649MOL0     C89450  -0.150   8.493   4.294  1.2682 -0.5358  0.8990
  649MOL0     C89451  -0.284   8.467   4.320 -0.3946  1.2034  0.1787
  649MOL0     C89452  -0.315   8.320   4.362 -0.0343 -0.3825  0.0487
  649MOL0     C89453  -0.384   8.570   4.324 -0.3325 -0.3325 -1.2082
  649MOL0     C89454  -0.528   8.540   4.355 -0.0545 -0.2975 -0.8055
  649MOL0     O89455  -0.588   8.425   4.308  0.2428 -0.1524  0.1267
  649MOL0     C89456  -0.704   8.384   4.371  0.5517 -0.0559  1.0386
  649MOL0     C89457  -0.701   8.296   4.475 -0.1141  0.5373 -0.5422
  649MOL0     C89458  -0.818   8.245   4.528 -0.4727  0.2892  0.0531
  649MOL0     C89459  -0.937   8.281   4.477  0.7896 -0.0508 -0.4275
  649MOL0     O89460  -1.042   8.231   4.548 -0.0550 -0.0495  0.7499
  649MOL0     C89461  -1.178   8.284   4.531 -0.5429  0.2287 -0.7420
  649MOL0     C89462  -1.264   8.257   4.657 -0.2585  0.4361 -0.4453
  649MOL0     C89463  -1.213   8.345   4.780 -0.3476 -0.4090 -0.0570
  649MOL0     C89464  -1.293   8.298   4.900  0.0842 -0.8385 -0.1953
  649MOL0     C89465  -1.268   8.373   5.022 -0.2842 -0.0983 -0.6514
  649MOL0     C89466  -1.117   8.377   5.071  1.0310  0.7020  0.1417
  649MOL0     C89467  -1.099   8.476   5.189  1.1976 -0.7441 -0.4411
  649MOL0     C89468  -1.002   8.426   5.295 -0.7167  0.5213 -0.2222
  649MOL0    Cl89469  -0.998   8.525   5.445  0.0681 -0.4413  0.3912
  649MOL0     C89470  -0.943   8.373   4.364  1.4878  1.0781  0.3808
  649MOL0     C89471  -0.824   8.426   4.314  0.0897  0.2980 -0.7035
  649MOL0     O89472  -0.585   8.632   4.414  0.0260 -0.1831  0.2655
  649MOL0     C89473  -0.343   8.704   4.290 -1.1523  0.0647 -0.9300
  649MOL0     C89474  -0.209   8.730   4.256 -0.6325 -0.2514 -0.0901
  649MOL0     N89475   0.494   8.625   4.219 -0.3790 -1.0846  0.7717
  649MOL0     N89476   0.572   8.659   4.119  0.4184  0.1035  0.1264
  649MOL0     C89477   1.547   8.940   4.727 -0.4860  0.6574  0.3219
  649MOL0     C89478   1.531   8.968   4.866 -0.3396 -1.1542 -0.0454
  649MOL0     C89479   1.458   8.934   5.292  0.6243  0.5321 -0.2082
  649MOL0     C89480   1.335   8.903   5.354 -0.2726 -0.1273  0.4940
  649MOL0     C89481   1.316   8.959   5.481  1.0043  0.1081  0.2065
  649MOL0     C89482   1.401   9.054   5.545 -0.3571  1.0176  0.4317
  649MOL0     O89483   1.368   9.125   5.653 -0.1254 -0.4085 -0.1724
  649MOL0     C89484   1.353   9.061   5.778  0.0474 -0.2670  0.7053
  649MOL0     C89485   1.330   9.169   5.889 -0.5702  1.2654  1.1177
  649MOL0     C89486   1.455   9.258   5.901 -0.5046  0.5854 -0.3428
  649MOL0     C89487   1.423   9.407   5.905  0.0522 -0.4051 -0.1573
  649MOL0     C89488   1.377   9.452   6.034 -0.4519  0.1905 -0.5665
  649MOL0     C89489   1.315   9.476   6.139 -0.2733 -0.2276  0.0437
  649MOL0     C89490   1.511   9.093   5.468  0.5032 -0.4659  0.1301
  649MOL0     C89491   1.543   9.029   5.347 -0.6660  0.9359  0.5506
  649MOL0     C89492   1.678   9.051   5.283 -0.0254 -0.6143  0.1271
  649MOL0     H89493   1.294   8.748   4.926  1.6953 -0.2516  1.0741
  649MOL0     H89494   1.324   8.691   4.690 -3.0333 -1.6906  6.1049
  649MOL0     H89495   1.400   8.658   4.488  1.6888  0.1007 -0.3202
  649MOL0     H89496   1.484   8.738   4.356  0.8632  1.9334  0.0925
  649MOL0     H89497   1.217   8.820   4.491 -1.4774 -1.6459 -1.9064
  649MOL0     H89498   1.292   8.910   4.350 -3.2595  0.8464 -1.1783
  649MOL0     H89499   1.248   8.711   4.220 -2.9385 -4.3398 -1.5727
  649MOL0     H89500   1.187   8.619   4.351  1.7127 -0.5493 -1.0179
  649MOL0     H89501   0.998   8.766   4.385  2.6155 -1.9479  1.6176
  649MOL0     H89502   1.054   8.882   4.262 -0.2086  0.0618  1.2314
  649MOL0     H89503   1.053   8.688   4.092 -0.5067  0.8488 -0.4105
  649MOL0     H89504   0.907   8.779   4.137  0.1579 -0.7023 -0.2265
  649MOL0     H89505   0.993   8.510   4.257 -0.5759 -1.9287 -1.3319
  649MOL0     H89506   0.829   8.582   4.275 -0.0487 -1.2204 -0.4109
  649MOL0     H89507   0.869   8.375   4.109  1.9468 -0.1783  0.3641
  649MOL0     H89508   0.968   8.478   4.012 -0.8350  0.9490 -0.7566
  649MOL0     H89509   0.793   8.624   3.940 -2.8579 -0.1435  0.7601
  649MOL0     H89510   0.741   8.449   3.923 -0.7590  0.3179 -0.8744
  649MOL0     H89511   0.597   8.332   4.131 -0.7464 -0.0774  0.7034
  649MOL0     H89512   0.362   8.491   4.390  0.6811 -2.0910  1.1504
  649MOL0     H89513   0.435   8.345   4.365  0.2434  0.9770  0.7528
  649MOL0     H89514   0.295   8.318   4.135 -0.4371 -0.5295 -0.8997
  649MOL0     H89515   0.204   8.306   4.283 -2.1652  1.8936 -0.3821
  649MOL0     H89516   0.218   8.531   4.089  0.0727 -0.2187  0.9996
  649MOL0     H89517   0.089   8.426   4.137 -0.0936 -1.4295 -1.4869
  649MOL0     H89518   0.087   8.534   4.366 -1.5271  1.8325 -0.2517
  649MOL0     H89519   0.197   8.656   4.313 -1.5532  1.7142 -1.1065
  649MOL0     H89520  -0.087   8.405   4.293 -0.7025 -2.0730 -2.3831
  649MOL0     H89521  -0.375   8.319   4.453 -2.9623 -0.8072 -1.7411
  649MOL0     H89522  -0.224   8.267   4.392 -0.7099  0.5079  4.3044
  649MOL0     H89523  -0.370   8.255   4.293 -1.6342 -0.2235  1.1216
  649MOL0     H89524  -0.604   8.270   4.518 -0.5016  2.4080  1.6330
  649MOL0     H89525  -0.812   8.178   4.613 -0.6645 -0.0315 -0.1854
  649MOL0     H89526  -1.172   8.392   4.520 -1.8662  0.2177 -1.8284
  649MOL0     H89527  -1.238   8.245   4.449 -0.8261  2.0030 -1.4099
  649MOL0     H89528  -1.369   8.282   4.643 -1.2599 -2.6069  0.8148
  649MOL0     H89529  -1.264   8.151   4.687 -0.7306  0.1099 -1.5403
  649MOL0     H89530  -1.242   8.451   4.777 -2.2775 -0.6832  3.5826
  649MOL0     H89531  -1.104   8.339   4.792 -0.1249  0.1681 -1.5679
  649MOL0     H89532  -1.260   8.196   4.923 -1.5067 -1.3299  0.0226
  649MOL0     H89533  -1.400   8.291   4.882  0.4388 -1.0742 -2.4504
  649MOL0     H89534  -1.285   8.478   4.996  2.6501  0.1967 -1.7986
  649MOL0     H89535  -1.344   8.342   5.095 -2.6022  0.7178 -2.5890
  649MOL0     H89536  -1.046   8.399   4.992  1.8439 -3.4530 -0.4871
  649MOL0     H89537  -1.098   8.276   5.107 -1.3996 -0.1146 -0.6413
  649MOL0     H89538  -1.193   8.492   5.242  3.8951 -0.1464  4.7533
  649MOL0     H89539  -1.070   8.575   5.152  2.5011  0.7681  3.9878
  649MOL0     H89540  -0.899   8.426   5.257 -0.1989  0.4090  1.1166
  649MOL0     H89541  -1.020   8.320   5.316 -1.3802  0.4823 -0.9509
  649MOL0     H89542  -1.037   8.400   4.318  1.0252 -0.8746  0.0716
  649MOL0     H89543  -0.830   8.504   4.239 -0.6044  0.2612 -0.6970
  649MOL0     H89544  -0.421   8.775   4.313 -1.2945 -0.2947 -0.2622
  649MOL0     H89545  -0.200   8.836   4.235 -3.1701  0.2906  1.1554
  649MOL0     H89546   1.611   9.011   4.674 -1.9576  1.7565 -0.0368
  649MOL0     H89547   1.578   9.054   4.911  0.2823 -1.0777 -0.8155
  649MOL0     H89548   1.271   8.840   5.293 -0.4894  0.1709  0.4149
  649MOL0     H89549   1.238   8.914   5.543  3.8761 -4.3079  1.0755
  649MOL0     H89550   1.272   8.988   5.771  1.3098 -1.7528  1.1928
  649MOL0     H89551   1.445   9.003   5.787  1.6656  0.7743 -5.0400
  649MOL0     H89552   1.303   9.114   5.980  3.1786 -2.3623  0.3258
  649MOL0     H89553   1.252   9.233   5.847 -1.6851 -2.2211 -2.8449
  649MOL0     H89554   1.514   9.224   5.987  1.2233  3.3653 -0.3110
  649MOL0     H89555   1.528   9.244   5.821 -0.1591 -0.5263  0.1514
  649MOL0     H89556   1.347   9.441   5.834 -1.2771  1.5958  2.0592
  649MOL0     H89557   1.514   9.464   5.886  1.4688 -1.1091  3.5745
  649MOL0     H89558   1.275   9.498   6.236 -1.8981 -0.6879 -0.4876
  649MOL0     H89559   1.578   9.168   5.508 -1.6773  0.5764  2.0636
  649MOL0     H89560   1.727   9.139   5.324 -3.1219  1.5006 -0.3496
  649MOL0     H89561   1.741   8.962   5.288 -0.6124 -1.1841 -1.6433
  649MOL0     H89562   1.675   9.093   5.182  0.5004 -0.4201  0.1929
  650MOL0     O89563   7.825   5.519   4.269  0.2427  0.4294 -0.6731
  650MOL0     C89564   7.926   5.588   4.275  0.1224 -1.3449  0.6962
  650MOL0     O89565   8.023   5.597   4.377  0.6909  0.1513  0.1199
  650MOL0     C89566   7.999   5.533   4.495  0.6072  0.1924  0.5413
  650MOL0     C89567   7.978   5.605   4.613  0.4681  0.3901 -0.9704
  650MOL0     C89568   7.947   5.560   4.742 -0.2452  0.3711  0.2705
  650MOL0     C89569   7.939   5.420   4.747  1.2740  0.0401 -0.3063
  650MOL0     O89570   7.896   5.365   4.863  0.1572 -0.0591  0.1225
  650MOL0     C89571   8.003   5.340   4.962 -0.0055 -0.5116  0.2519
  650MOL0     C89572   7.948   5.258   5.085 -0.1039  1.1782  0.0803
  650MOL0     C89573   7.883   5.127   5.041  0.4322 -0.3852 -0.5892
  650MOL0     C89574   7.970   5.001   5.047 -0.1675 -0.5812 -0.0204
  650MOL0     C89575   7.907   4.871   4.980 -0.3826  0.3752  0.2585
  650MOL0     C89576   7.866   4.887   4.839 -0.9913  0.0958  0.1018
  650MOL0     C89577   7.813   4.763   4.776  0.7867  0.0503  0.6808
  650MOL0     C89578   7.773   4.780   4.628  0.5141  0.2403 -0.2851
  650MOL0     N89579   7.704   4.653   4.585  0.2319  0.0530 -0.1562
  650MOL0     C89580   7.567   4.637   4.566 -0.3277  0.4910  0.0680
  650MOL0     C89581   7.538   4.504   4.553 -0.2215  0.1178 -0.5576
  650MOL0     C89582   7.398   4.453   4.529 -0.1751 -0.2177 -0.2795
  650MOL0     C89583   7.310   4.525   4.430  0.2066 -0.4214 -0.2703
  650MOL0     C89584   7.157   4.527   4.448 -1.0867 -0.0032 -0.4813
  650MOL0     C89585   7.105   4.382   4.414  0.3535 -0.7694 -0.5257
  650MOL0     O89586   6.965   4.385   4.435  0.1944  0.2743 -1.2144
  650MOL0     C89587   6.884   4.364   4.323 -0.4985  0.2044  0.3998
  650MOL0     C89588   6.761   4.300   4.335 -0.6937 -0.0766 -0.2503
  650MOL0     C89589   6.682   4.295   4.228 -0.0013 -0.7325  0.0885
  650MOL0     C89590   6.548   4.227   4.253 -0.4271 -0.1812  0.0801
  650MOL0     C89591   6.727   4.340   4.097 -0.3734  0.2005 -0.9816
  650MOL0     C89592   6.641   4.339   3.978  0.6185 -0.4908 -0.4823
  650MOL0     O89593   6.505   4.335   3.996  0.4885  0.3970 -0.4059
  650MOL0     C89594   6.411   4.348   3.894  0.4405  0.2735  0.2285
  650MOL0     C89595   6.390   4.239   3.814 -0.4792  0.8997  0.3833
  650MOL0     C89596   6.310   4.249   3.701 -0.1983 -0.1786 -0.0965
  650MOL0     C89597   6.252   4.367   3.663  0.0271  0.4295 -0.1644
  650MOL0     O89598   6.159   4.356   3.569  0.1470 -0.1548  0.1421
  650MOL0     C89599   6.170   4.451   3.454 -0.3297  0.1618 -0.8842
  650MOL0     C89600   6.048   4.445   3.365  0.8310 -0.0740  0.5045
  650MOL0     C89601   6.015   4.313   3.292 -0.3044  0.3478 -0.2460
  650MOL0     C89602   6.076   4.302   3.155 -0.4980 -0.4882 -0.1328
  650MOL0     C89603   6.055   4.171   3.081 -0.2776  0.5666 -0.0095
  650MOL0     C89604   6.138   4.056   3.146  0.1976 -0.5539  0.3753
  650MOL0     C89605   6.128   3.938   3.058 -0.5282  1.2729  0.6326
  650MOL0     C89606   6.220   3.835   3.108 -0.0091 -0.0078  0.3741
  650MOL0    Cl89607   6.176   3.768   3.274  0.6307  0.3492 -0.2494
  650MOL0     C89608   6.269   4.483   3.744  0.3728  0.1351  0.3910
  650MOL0     C89609   6.350   4.474   3.857 -0.9426  0.7992 -0.0043
  650MOL0     O89610   6.690   4.373   3.864  0.5122  0.2479 -0.4536
  650MOL0     C89611   6.850   4.394   4.081  0.6941 -0.4408  0.5868
  650MOL0     C89612   6.922   4.412   4.199 -0.4592  0.5690  0.1858
  650MOL0     N89613   7.654   4.439   4.557 -0.5069 -0.3207 -0.8997
  650MOL0     N89614   7.751   4.523   4.587  0.3821  0.4275  0.1696
  650MOL0     C89615   7.948   5.340   4.632 -1.0741 -0.5232 -0.5937
  650MOL0     C89616   7.988   5.397   4.508  0.5410  0.0559 -0.2689
  650MOL0     C89617   7.953   5.670   4.157  0.1091  0.8514 -0.3617
  650MOL0     C89618   7.975   5.804   4.180 -0.7771 -0.0925 -0.6136
  650MOL0     C89619   8.008   5.899   4.080  0.4111  0.5356  0.1311
  650MOL0     C89620   7.977   5.865   3.944 -0.2166 -1.4655  0.2444
  650MOL0     O89621   8.004   5.967   3.855  0.5117  0.5169  0.0887
  650MOL0     C89622   7.936   5.956   3.723  0.5576 -0.1413  0.7662
  650MOL0     C89623   7.913   6.092   3.663 -0.3625  0.2915 -1.3292
  650MOL0     C89624   7.887   6.076   3.516  0.1015  0.0764  0.5276
  650MOL0     C89625   7.898   6.203   3.446 -0.1139 -0.2658 -1.0089
  650MOL0     C89626   8.041   6.230   3.415  0.1135 -0.2225  0.3266
  650MOL0     C89627   8.156   6.261   3.401 -0.0093  0.0940 -0.6907
  650MOL0     C89628   7.953   5.729   3.914  0.5538  0.3409  0.3709
  650MOL0     C89629   7.939   5.629   4.013  0.0090  0.9688 -0.2776
  650MOL0     C89630   7.907   5.487   3.972 -0.4052  0.5090  0.1068
  650MOL0     H89631   7.982   5.713   4.617 -1.2360  0.4447  1.2361
  650MOL0     H89632   7.917   5.619   4.828  0.4772 -0.7309  1.3094
  650MOL0     H89633   8.041   5.434   5.003  0.5412 -1.3577  1.7561
  650MOL0     H89634   8.094   5.293   4.923  3.0652  3.9928  1.1879
  650MOL0     H89635   8.023   5.244   5.163  1.0338  3.9113 -0.3805
  650MOL0     H89636   7.871   5.325   5.126 -1.1594  0.4139 -0.6140
  650MOL0     H89637   7.782   5.107   5.079  0.5340  0.4538  0.1365
  650MOL0     H89638   7.849   5.130   4.937  1.2450 -1.6460 -0.9106
  650MOL0     H89639   8.060   5.018   4.987 -0.6334 -2.9650 -1.5393
  650MOL0     H89640   7.988   4.975   5.152  0.0689 -1.8143 -0.3434
  650MOL0     H89641   7.832   4.817   5.038 -0.2353  2.9086  3.0367
  650MOL0     H89642   7.994   4.807   4.968 -1.1547 -1.1515  2.3361
  650MOL0     H89643   7.800   4.973   4.829  1.0579  1.5800 -1.4239
  650MOL0     H89644   7.953   4.917   4.779 -1.3898 -0.0946 -0.5778
  650MOL0     H89645   7.722   4.736   4.829 -0.3908  1.1128 -0.7314
  650MOL0     H89646   7.878   4.676   4.783 -1.0162 -1.4031 -0.0231
  650MOL0     H89647   7.705   4.862   4.599  0.6033 -0.3997 -2.5181
  650MOL0     H89648   7.864   4.807   4.573 -0.1527  2.4747 -0.4271
  650MOL0     H89649   7.490   4.712   4.551 -1.1809 -0.4770 -0.5854
  650MOL0     H89650   7.358   4.450   4.631  1.0933  0.0896  0.2541
  650MOL0     H89651   7.388   4.349   4.497 -4.5763  0.3782 -1.5310
  650MOL0     H89652   7.338   4.631   4.429 -0.9403 -0.1083 -0.9542
  650MOL0     H89653   7.329   4.479   4.333  0.6230 -0.4350 -0.1826
  650MOL0     H89654   7.143   4.567   4.549 -4.1675  1.9562 -1.5490
  650MOL0     H89655   7.116   4.601   4.379  1.2615  1.5820 -0.2765
  650MOL0     H89656   7.133   4.369   4.309 -2.2366  1.7159 -1.6680
  650MOL0     H89657   7.149   4.306   4.479 -0.8557 -0.2711  0.9349
  650MOL0     H89658   6.729   4.256   4.429  0.7232 -2.9407 -0.9907
  650MOL0     H89659   6.551   4.169   4.345  0.6862 -0.1569  0.0719
  650MOL0     H89660   6.529   4.160   4.169  3.0668  2.2838 -3.0070
  650MOL0     H89661   6.463   4.293   4.277 -0.5701  0.9775 -3.1202
  650MOL0     H89662   6.447   4.152   3.844  2.7101  3.7299  3.5142
  650MOL0     H89663   6.302   4.160   3.639 -0.1959 -0.5904  0.4792
  650MOL0     H89664   6.175   4.555   3.489 -1.2474 -0.3279  0.7822
  650MOL0     H89665   6.265   4.426   3.406  1.0415 -0.7427  2.0457
  650MOL0     H89666   5.958   4.482   3.415  2.2459  0.7241  2.5924
  650MOL0     H89667   6.063   4.517   3.283 -0.6591  1.1919  1.2816
  650MOL0     H89668   5.907   4.298   3.287 -0.8954  3.1353  1.6558
  650MOL0     H89669   6.056   4.232   3.353  1.7184  0.7686 -0.9739
  650MOL0     H89670   6.177   4.339   3.171 -1.6311  2.9101  0.1185
  650MOL0     H89671   6.034   4.382   3.093  0.5071  1.3772  1.4757
  650MOL0     H89672   5.949   4.147   3.096  0.2227 -0.5897  2.2935
  650MOL0     H89673   6.076   4.180   2.975 -0.7113  0.1278 -0.1392
  650MOL0     H89674   6.104   4.030   3.246  0.6096  2.4320  1.3771
  650MOL0     H89675   6.243   4.088   3.142 -0.0356  0.1124 -1.3776
  650MOL0     H89676   6.151   3.951   2.952  0.6241  1.5492  0.9022
  650MOL0     H89677   6.023   3.912   3.072 -0.9289  2.6673  0.3802
  650MOL0     H89678   6.323   3.872   3.100 -0.2674  1.0069  1.5379
  650MOL0     H89679   6.218   3.756   3.032  1.2716  1.7329 -1.6032
  650MOL0     H89680   6.208   4.570   3.722 -1.3659 -1.4214 -1.3960
  650MOL0     H89681   6.374   4.556   3.923  0.6219 -1.6473  2.6969
  650MOL0     H89682   6.894   4.433   3.990  0.4959  0.6760  0.9563
  650MOL0     H89683   7.017   4.462   4.187 -0.0961 -0.3978 -1.1015
  650MOL0     H89684   7.930   5.234   4.646 -3.3624 -0.2142 -0.8241
  650MOL0     H89685   7.980   5.336   4.418  1.7725 -1.1325  0.3935
  650MOL0     H89686   7.984   5.842   4.282 -1.6925  4.1090 -1.9039
  650MOL0     H89687   8.039   6.002   4.094  1.6104  0.0764  0.9756
  650MOL0     H89688   7.998   5.896   3.655  2.3245  0.1406  2.0503
  650MOL0     H89689   7.839   5.906   3.728  0.3966  0.0445 -0.3187
  650MOL0     H89690   7.997   6.161   3.675  0.1145 -0.1645 -1.9852
  650MOL0     H89691   7.830   6.140   3.716 -2.7117 -1.7654 -2.8986
  650MOL0     H89692   7.953   6.004   3.466 -1.2900 -0.7132 -0.2364
  650MOL0     H89693   7.790   6.032   3.492  0.0132 -0.4803  1.8447
  650MOL0     H89694   7.855   6.284   3.505  2.5957  0.7016 -0.1780
  650MOL0     H89695   7.841   6.212   3.353 -5.2399  3.6330  1.9896
  650MOL0     H89696   8.250   6.296   3.363 -0.1678  0.0136 -1.1573
  650MOL0     H89697   7.928   5.691   3.815 -0.0572 -4.6236  2.1404
  650MOL0     H89698   7.922   5.460   3.867 -2.2448 -0.0139 -0.0545
  650MOL0     H89699   7.976   5.436   4.039  0.1369  4.3805  2.8366
  650MOL0     H89700   7.809   5.450   4.004 -0.1317 -1.8068 -1.4857
  651MOL0     O89701   0.595   8.172   8.218  0.7090  0.7531  0.0762
  651MOL0     C89702   0.622   8.052   8.237 -0.5071  0.1255 -0.6781
  651MOL0     O89703   0.604   7.990   8.358  0.5673 -0.4435 -1.2299
  651MOL0     C89704   0.552   8.071   8.458 -0.1148  0.7182  0.6798
  651MOL0     C89705   0.638   8.111   8.563 -0.0716  1.0624  0.7194
  651MOL0     C89706   0.577   8.184   8.667 -0.3466 -0.2593  0.3243
  651MOL0     C89707   0.439   8.229   8.661 -0.3041  0.3486  0.2556
  651MOL0     O89708   0.377   8.317   8.753  0.1321  0.5878 -0.3350
  651MOL0     C89709   0.466   8.362   8.863 -0.2788 -1.2036  0.0511
  651MOL0     C89710   0.483   8.254   8.974  0.0652  0.0270 -0.2115
  651MOL0     C89711   0.433   8.321   9.105  0.1964 -1.0145  0.3082
  651MOL0     C89712   0.285   8.343   9.118  1.1612 -0.4431  0.2761
  651MOL0     C89713   0.247   8.492   9.126  0.0969  0.6582  0.2147
  651MOL0     C89714   0.094   8.508   9.139  1.2716 -0.1358  0.4101
  651MOL0     C89715   0.022   8.652   9.130 -0.4621 -0.0102 -0.2591
  651MOL0     C89716   0.056   8.732   8.999 -0.1023  0.3009 -0.1865
  651MOL0     N89717   0.022   8.669   8.877  0.1250  0.1511 -0.2364
  651MOL0     C89718   0.110   8.583   8.813  0.3558  0.5732  0.4527
  651MOL0     C89719   0.048   8.573   8.696  0.6935  0.2275 -0.2887
  651MOL0     C89720   0.074   8.461   8.594 -0.3767  0.6079 -0.2166
  651MOL0     C89721   0.048   8.502   8.447 -0.5186  0.7995  0.4221
  651MOL0     C89722   0.138   8.609   8.379 -0.5870 -0.4237 -0.2573
  651MOL0     C89723   0.271   8.549   8.323 -0.6151 -0.6661 -0.2390
  651MOL0     O89724   0.367   8.658   8.285  0.3378 -0.1588  0.8263
  651MOL0     C89725   0.501   8.634   8.289  1.1195  0.3574  0.5540
  651MOL0     C89726   0.568   8.744   8.259  0.0492  0.5669 -0.3733
  651MOL0     C89727   0.709   8.731   8.237  1.0638 -1.1237 -0.1350
  651MOL0     C89728   0.783   8.851   8.214  0.3132 -0.8950 -0.5333
  651MOL0     C89729   0.773   8.608   8.252  0.2802  0.3948 -0.1737
  651MOL0     C89730   0.917   8.591   8.208  0.0772 -0.3266  0.2045
  651MOL0     O89731   0.935   8.524   8.089 -0.1358 -0.0308  0.2919
  651MOL0     C89732   1.068   8.523   8.062 -0.4408 -0.2967  0.1970
  651MOL0     C89733   1.107   8.617   7.966  0.1075 -0.5012  0.5251
  651MOL0     C89734   1.234   8.633   7.924  0.2294 -0.0872 -0.2486
  651MOL0     C89735   1.335   8.561   7.983 -0.9964  0.6494  0.2933
  651MOL0     O89736   1.472   8.572   7.954  0.7166 -0.4063 -0.2507
  651MOL0     C89737   1.499   8.575   7.816 -0.6010 -0.1909  0.1443
  651MOL0     C89738   1.659   8.592   7.799 -0.0905  0.2864  0.7228
  651MOL0     C89739   1.717   8.449   7.831 -0.3624 -0.5227 -0.7143
  651MOL0     C89740   1.853   8.406   7.777 -0.7207 -0.3226  0.2936
  651MOL0     C89741   1.957   8.475   7.873  0.5466  0.3431  0.6428
  651MOL0     C89742   2.104   8.443   7.833  0.0657 -0.0899 -0.1786
  651MOL0     C89743   2.175   8.561   7.905  0.7033  0.0232 -0.2231
  651MOL0     C89744   2.317   8.519   7.955 -0.0696 -0.0837  0.6821
  651MOL0    Cl89745   2.406   8.465   7.807  0.2983 -0.9595 -0.2708
  651MOL0     C89746   1.298   8.464   8.085  1.2240 -0.1353 -0.3677
  651MOL0     C89747   1.167   8.455   8.137 -0.7334  0.9810 -0.2198
  651MOL0     O89748   1.001   8.617   8.290 -0.0967  0.5911 -0.2514
  651MOL0     C89749   0.692   8.489   8.279 -0.0235  0.4138 -0.1776
  651MOL0     C89750   0.559   8.510   8.297  0.2379  0.4913 -0.0292
  651MOL0     N89751  -0.071   8.638   8.707 -0.2213 -0.0227  0.4728
  651MOL0     N89752  -0.089   8.702   8.808 -0.1571  0.0669 -0.5212
  651MOL0     C89753   0.362   8.188   8.555  0.4367  1.1625  0.8439
  651MOL0     C89754   0.418   8.113   8.452 -0.0814 -0.5419 -0.3874
  651MOL0     C89755   0.664   7.971   8.122 -0.6483 -0.2707  0.4662
  651MOL0     C89756   0.625   7.837   8.118 -0.3125 -0.5485 -1.2553
  651MOL0     C89757   0.641   7.763   7.999 -1.1753 -0.0926  0.1142
  651MOL0     C89758   0.715   7.823   7.888 -0.6503  0.5748  0.2789
  651MOL0     O89759   0.735   7.745   7.781  0.0949 -0.6008  0.0135
  651MOL0     C89760   0.800   7.802   7.658 -0.0984  0.0598 -0.1060
  651MOL0     C89761   0.955   7.817   7.656 -0.1899 -1.0445  0.2998
  651MOL0     C89762   0.996   7.896   7.522 -0.2767  1.3993 -0.1888
  651MOL0     C89763   0.978   8.050   7.534  1.0920  1.1336  0.2115
  651MOL0     C89764   0.990   8.134   7.411 -0.1787 -0.0550  1.6888
  651MOL0     C89765   0.978   8.216   7.318  0.2479 -1.1253 -0.0476
  651MOL0     C89766   0.754   7.950   7.898  0.0301 -0.6412 -0.2937
  651MOL0     C89767   0.723   8.027   8.011  1.0382 -0.5728 -0.6543
  651MOL0     C89768   0.781   8.176   8.006  0.6629  0.3683 -0.5810
  651MOL0     H89769   0.741   8.079   8.575 -0.4042  0.0635  1.0200
  651MOL0     H89770   0.636   8.203   8.756 -0.4048  2.8133 -0.1653
  651MOL0     H89771   0.443   8.461   8.904 -1.7594 -0.8641 -1.4867
  651MOL0     H89772   0.564   8.387   8.821  1.7016 -1.8878  3.7892
  651MOL0     H89773   0.420   8.168   8.949  0.2447 -0.4692  0.9971
  651MOL0     H89774   0.591   8.241   8.986  0.0281  1.7991  3.7854
  651MOL0     H89775   0.455   8.261   9.194 -1.2814 -0.1579  1.3059
  651MOL0     H89776   0.489   8.413   9.125  1.5908 -2.2713  2.5831
  651MOL0     H89777   0.233   8.311   9.028  0.7789 -1.1554  0.7393
  651MOL0     H89778   0.245   8.302   9.211 -1.2109 -3.1405 -1.7720
  651MOL0     H89779   0.289   8.532   9.033  0.4912 -0.2513 -0.0061
  651MOL0     H89780   0.306   8.531   9.209  1.3257 -0.6421 -0.0213
  651MOL0     H89781   0.061   8.442   9.058  3.1538 -0.8276  0.1681
  651MOL0     H89782   0.060   8.467   9.234 -1.5860  0.3657 -0.2916
  651MOL0     H89783   0.064   8.695   9.221  2.9329 -0.1502 -1.5817
  651MOL0     H89784  -0.086   8.658   9.137 -0.7442 -1.5419 -2.2046
  651MOL0     H89785   0.014   8.833   9.008 -3.0108 -0.5406 -2.4958
  651MOL0     H89786   0.165   8.734   8.999 -0.0633 -0.3284  1.7482
  651MOL0     H89787   0.211   8.552   8.836  1.0480  2.8087  0.7578
  651MOL0     H89788   0.022   8.367   8.615 -0.2364 -0.2125 -3.0588
  651MOL0     H89789   0.182   8.443   8.590  0.0407  2.9235 -2.6527
  651MOL0     H89790   0.063   8.409   8.392  0.5704  2.8828 -3.1533
  651MOL0     H89791  -0.056   8.533   8.430 -0.6727 -0.9537 -2.4217
  651MOL0     H89792   0.074   8.652   8.301 -0.1186  0.6422 -0.0741
  651MOL0     H89793   0.173   8.679   8.455  0.6483 -0.7153 -0.5419
  651MOL0     H89794   0.311   8.502   8.413  4.0813  2.6326 -0.1855
  651MOL0     H89795   0.252   8.489   8.234  0.6744  1.0631 -1.7580
  651MOL0     H89796   0.509   8.834   8.264 -2.7639 -1.0916 -1.2353
  651MOL0     H89797   0.888   8.843   8.241  1.5378 -0.0435 -4.4073
  651MOL0     H89798   0.730   8.934   8.262  0.1236 -1.2579 -0.1025
  651MOL0     H89799   0.762   8.871   8.109 -2.2412  1.7657  0.3155
  651MOL0     H89800   1.034   8.685   7.923  0.1940 -1.0994 -0.5981
  651MOL0     H89801   1.258   8.699   7.842 -0.3096  1.6270  0.9133
  651MOL0     H89802   1.462   8.483   7.771 -2.5408  0.0429  1.1546
  651MOL0     H89803   1.442   8.652   7.764  0.2819  1.1598  1.1061
  651MOL0     H89804   1.676   8.626   7.696  0.8987 -1.0574  0.4142
  651MOL0     H89805   1.708   8.670   7.857 -3.2004  1.9268  1.4127
  651MOL0     H89806   1.659   8.372   7.779  0.2745  0.4657 -3.0022
  651MOL0     H89807   1.719   8.428   7.939  1.9508 -4.2509 -1.3022
  651MOL0     H89808   1.873   8.429   7.672 -0.3754 -0.1553  0.3945
  651MOL0     H89809   1.868   8.301   7.803 -0.4366 -0.3247  0.1302
  651MOL0     H89810   1.941   8.582   7.867  0.1765  0.2397 -0.5916
  651MOL0     H89811   1.941   8.445   7.977  2.1523  1.2585  1.1964
  651MOL0     H89812   2.127   8.430   7.727 -0.9638 -3.6621 -0.1147
  651MOL0     H89813   2.142   8.351   7.880 -0.5482  1.2611  3.3110
  651MOL0     H89814   2.119   8.597   7.992 -2.2388 -1.3956 -1.4098
  651MOL0     H89815   2.199   8.637   7.829 -0.1689 -1.3445 -1.9496
  651MOL0     H89816   2.314   8.428   8.014  2.2373 -1.1990 -0.7356
  651MOL0     H89817   2.374   8.597   8.008 -3.9473  1.8994  2.3078
  651MOL0     H89818   1.381   8.401   8.116 -0.3408 -1.7276  0.8078
  651MOL0     H89819   1.148   8.393   8.224 -1.5377  0.8893 -0.4472
  651MOL0     H89820   0.726   8.386   8.286 -2.8150 -0.4632  3.4154
  651MOL0     H89821   0.491   8.430   8.324 -0.8674  0.1815 -3.2878
  651MOL0     H89822   0.259   8.221   8.553 -1.0854 -3.0355  1.1631
  651MOL0     H89823   0.362   8.082   8.364  1.6104  0.4820 -1.8901
  651MOL0     H89824   0.573   7.787   8.199 -2.4130  1.7392 -1.0635
  651MOL0     H89825   0.595   7.665   7.989 -1.6755  0.1666 -0.1704
  651MOL0     H89826   0.771   7.734   7.577  0.8377 -0.1074 -0.3194
  651MOL0     H89827   0.752   7.892   7.620  1.0455  0.0626 -1.6832
  651MOL0     H89828   1.006   7.720   7.654  0.3088 -0.8089  0.9649
  651MOL0     H89829   0.988   7.867   7.748  1.8454 -1.0073 -0.3890
  651MOL0     H89830   1.099   7.869   7.495 -0.7979  0.1810 -1.0789
  651MOL0     H89831   0.937   7.856   7.439  1.0664 -0.7384 -0.2157
  651MOL0     H89832   1.047   8.093   7.607  0.4392  0.8435  1.0157
  651MOL0     H89833   0.880   8.072   7.578  0.6711  0.4192 -0.3572
  651MOL0     H89834   0.959   8.273   7.230  1.7524 -1.3782 -0.5536
  651MOL0     H89835   0.810   8.001   7.820  2.1339 -1.4642  0.5918
  651MOL0     H89836   0.705   8.249   8.034  1.0790  0.2798  0.8348
  651MOL0     H89837   0.860   8.178   8.081 -0.0779 -3.0445  0.5031
  651MOL0     H89838   0.817   8.201   7.905 -0.6685 -2.4878 -1.8860
  652MOL0     O89839   0.404   1.751   4.612  1.0307 -0.0752 -0.3361
  652MOL0     C89840   0.390   1.662   4.696 -0.6998  0.4548  0.5008
  652MOL0     O89841   0.441   1.538   4.683  0.1013  0.4873 -0.9006
  652MOL0     C89842   0.529   1.524   4.587 -0.4125  0.3952 -0.3636
  652MOL0     C89843   0.493   1.472   4.464  0.0251 -0.2839  0.8138
  652MOL0     C89844   0.583   1.447   4.368  0.5404  0.9515  0.3987
  652MOL0     C89845   0.720   1.478   4.385  0.4554 -0.6044  0.4465
  652MOL0     O89846   0.816   1.463   4.286  0.2579 -0.2590 -0.1938
  652MOL0     C89847   0.808   1.556   4.176 -0.1023 -0.7581 -0.5789
  652MOL0     C89848   0.921   1.546   4.082  0.1656 -0.7672  0.5797
  652MOL0     C89849   0.947   1.396   4.026 -0.2693  0.6343  0.6960
  652MOL0     C89850   0.991   1.288   4.130 -0.7565 -0.4641  0.6363
  652MOL0     C89851   1.079   1.180   4.059  0.2013  0.7000 -0.4133
  652MOL0     C89852   1.090   1.033   4.124  0.1377  0.1280  0.3498
  652MOL0     C89853   1.195   1.031   4.239 -0.4006  1.0879 -0.0754
  652MOL0     C89854   1.284   0.904   4.229  0.1282  0.2546 -0.8570
  652MOL0     N89855   1.361   0.895   4.354  0.2584  0.2301  0.2058
  652MOL0     C89856   1.324   0.930   4.482  0.0947  0.1429  0.3256
  652MOL0     C89857   1.430   0.888   4.548 -0.5550 -0.1239 -0.0449
  652MOL0     C89858   1.455   0.884   4.697 -0.1254 -1.0951 -1.1627
  652MOL0     C89859   1.413   1.008   4.774  1.0234 -0.6552  0.5449
  652MOL0     C89860   1.514   1.123   4.752  0.1397 -0.5714 -0.5036
  652MOL0     C89861   1.470   1.246   4.831  0.3124  0.1193  0.2144
  652MOL0     O89862   1.480   1.211   4.966 -0.3598 -0.1915 -0.3069
  652MOL0     C89863   1.443   1.309   5.061  0.2290  0.1175 -0.1765
  652MOL0     C89864   1.507   1.301   5.184  0.0714 -0.0343 -0.0689
  652MOL0     C89865   1.484   1.390   5.288  1.0406 -0.9533 -0.0807
  652MOL0     C89866   1.564   1.360   5.409  0.5943 -0.2527 -0.5171
  652MOL0     C89867   1.395   1.504   5.260 -0.7470 -1.3345  0.0640
  652MOL0     C89868   1.368   1.615   5.359  0.4379  0.8145 -0.2923
  652MOL0     O89869   1.307   1.730   5.312  0.0836  0.1899 -0.4448
  652MOL0     C89870   1.243   1.813   5.402  0.2648  0.2530 -0.1166
  652MOL0     C89871   1.273   1.953   5.403 -0.1057 -0.6859  0.5019
  652MOL0     C89872   1.213   2.040   5.495  0.0397 -0.0221 -0.7496
  652MOL0     C89873   1.116   1.986   5.584 -0.0002  0.4598 -0.0524
  652MOL0     O89874   1.065   2.058   5.687  0.5452 -0.8259 -0.1533
  652MOL0     C89875   0.991   2.181   5.653  0.1061  0.3145 -0.1791
  652MOL0     C89876   0.842   2.152   5.693 -0.3660 -0.0730 -0.7915
  652MOL0     C89877   0.782   2.035   5.614 -0.2127 -0.4779  0.6409
  652MOL0     C89878   0.637   2.014   5.644 -0.1388  0.9207 -0.0528
  652MOL0     C89879   0.550   2.138   5.611 -0.3666  0.1112  0.5395
  652MOL0     C89880   0.410   2.110   5.645  0.5936  0.1635  0.1790
  652MOL0     C89881   0.319   2.225   5.598  0.0045 -0.6742 -0.8130
  652MOL0     C89882   0.226   2.287   5.704 -0.2962  0.0429  0.3718
  652MOL0    Cl89883   0.298   2.322   5.865 -0.2895 -0.0126 -0.2256
  652MOL0     C89884   1.088   1.848   5.586 -0.2352 -0.8337  0.2405
  652MOL0     C89885   1.154   1.758   5.501  0.3280 -1.1909 -0.2283
  652MOL0     O89886   1.424   1.612   5.472  0.0444  0.1180 -0.4798
  652MOL0     C89887   1.331   1.506   5.135  0.0147  0.2692  0.0423
  652MOL0     C89888   1.359   1.415   5.035  0.2926 -0.3818  0.2797
  652MOL0     N89889   1.528   0.851   4.465  0.5069  0.9705  0.7874
  652MOL0     N89890   1.493   0.877   4.346  1.1674  0.1047  0.3039
  652MOL0     C89891   0.761   1.529   4.503 -0.4632  0.2674 -0.0580
  652MOL0     C89892   0.669   1.530   4.612  0.0547 -1.4274 -0.9270
  652MOL0     C89893   0.318   1.679   4.829 -0.0761  0.1946  0.6674
  652MOL0     C89894   0.341   1.596   4.944  0.0067 -0.1004  0.4503
  652MOL0     C89895   0.279   1.627   5.061 -0.9944  0.5586 -0.0958
  652MOL0     C89896   0.187   1.723   5.075  0.0516  0.7534  1.0100
  652MOL0     O89897   0.125   1.735   5.197  0.4379  0.0808  0.1893
  652MOL0     C89898  -0.013   1.703   5.200 -1.3588  0.0151  0.3786
  652MOL0     C89899  -0.039   1.556   5.185 -0.2291  0.7621  1.0107
  652MOL0     C89900   0.025   1.471   5.292 -0.8506  0.1102 -0.5574
  652MOL0     C89901  -0.023   1.501   5.438 -0.4020 -0.4004  0.6587
  652MOL0     C89902  -0.167   1.470   5.448  0.6761  0.5259 -0.7900
  652MOL0     C89903  -0.290   1.446   5.457  0.0009 -0.4464 -0.0253
  652MOL0     C89904   0.162   1.803   4.967 -0.6895 -0.6376  0.3974
  652MOL0     C89905   0.228   1.781   4.849  0.3213  0.2307 -0.5146
  652MOL0     C89906   0.198   1.895   4.753 -0.5418 -0.3202  0.0094
  652MOL0     H89907   0.389   1.446   4.445 -0.1306  1.0761 -0.4144
  652MOL0     H89908   0.550   1.391   4.281  2.7032 -0.5988  0.5029
  652MOL0     H89909   0.819   1.657   4.216  2.5064 -1.6197  1.1274
  652MOL0     H89910   0.718   1.561   4.114 -1.4828  4.2365  1.3126
  652MOL0     H89911   0.909   1.608   3.993  1.2921 -0.6868  0.4660
  652MOL0     H89912   1.010   1.587   4.131  0.5186  1.0348 -1.4311
  652MOL0     H89913   0.857   1.360   3.976  0.9553  0.5689 -1.6227
  652MOL0     H89914   1.024   1.404   3.948 -3.4677  1.1792 -2.7042
  652MOL0     H89915   1.042   1.321   4.221 -0.7629 -1.4999  1.0326
  652MOL0     H89916   0.900   1.237   4.162 -1.3687 -0.4116 -0.9495
  652MOL0     H89917   1.180   1.221   4.048  2.0672 -2.5557  2.3163
  652MOL0     H89918   1.033   1.165   3.961  0.5099 -1.5670 -0.2585
  652MOL0     H89919   0.990   1.012   4.163 -1.1436  3.3544 -0.8574
  652MOL0     H89920   1.123   0.959   4.050  0.9388 -1.8377  2.5447
  652MOL0     H89921   1.149   1.045   4.337  1.9363  1.9285  0.9713
  652MOL0     H89922   1.258   1.120   4.230  3.2468 -0.9662  2.3065
  652MOL0     H89923   1.221   0.817   4.210 -1.1737  0.9281  0.2442
  652MOL0     H89924   1.345   0.910   4.138  1.5549 -3.2028 -0.2942
  652MOL0     H89925   1.232   0.960   4.531  0.5987  2.2007  0.0759
  652MOL0     H89926   1.561   0.878   4.720 -0.0837  0.2480 -0.8868
  652MOL0     H89927   1.396   0.800   4.733 -0.1389 -0.3903  0.5432
  652MOL0     H89928   1.316   1.033   4.728  0.2356 -3.0207  0.8112
  652MOL0     H89929   1.410   0.987   4.882  1.7600 -2.0245  0.3059
  652MOL0     H89930   1.613   1.098   4.790 -1.4196 -0.8668  3.9753
  652MOL0     H89931   1.511   1.163   4.650 -0.9517 -0.2585 -0.3595
  652MOL0     H89932   1.527   1.335   4.802 -2.7939  1.6632 -1.6752
  652MOL0     H89933   1.367   1.264   4.799  0.5271  1.9117  0.4299
  652MOL0     H89934   1.561   1.209   5.205 -0.1633  0.5723  3.8941
  652MOL0     H89935   1.655   1.302   5.397  0.0143 -1.1667 -0.5885
  652MOL0     H89936   1.501   1.295   5.470  2.4845 -1.8779 -0.1903
  652MOL0     H89937   1.592   1.450   5.464  2.1391  0.5930 -2.5564
  652MOL0     H89938   1.340   2.000   5.332  0.9909 -0.8347  1.4114
  652MOL0     H89939   1.254   2.140   5.499  2.5836 -1.0032  1.1481
  652MOL0     H89940   1.039   2.273   5.689  0.4410 -0.8426  2.5893
  652MOL0     H89941   0.993   2.198   5.545 -1.3780 -0.9649 -0.4457
  652MOL0     H89942   0.835   2.124   5.799 -0.8589 -0.8219 -1.0187
  652MOL0     H89943   0.787   2.247   5.698 -0.2563 -0.0694  2.6047
  652MOL0     H89944   0.838   1.941   5.620 -0.3854 -0.5306  1.4502
  652MOL0     H89945   0.784   2.070   5.510  0.8271 -1.3029  0.3639
  652MOL0     H89946   0.618   1.998   5.751  0.0688  2.3123  0.2128
  652MOL0     H89947   0.614   1.918   5.597  0.3791  0.3807  0.7844
  652MOL0     H89948   0.597   2.227   5.653  0.9154 -0.3520  0.1525
  652MOL0     H89949   0.550   2.148   5.502 -0.9248  0.3384  0.5564
  652MOL0     H89950   0.399   2.089   5.752  0.4667  0.4420  0.2201
  652MOL0     H89951   0.372   2.019   5.598 -0.0810  0.4084  0.2465
  652MOL0     H89952   0.250   2.204   5.517 -0.8499  1.6865 -0.7938
  652MOL0     H89953   0.369   2.313   5.556 -3.1732  1.7898  0.1574
  652MOL0     H89954   0.147   2.212   5.714 -0.1406 -0.0040  1.3578
  652MOL0     H89955   0.184   2.377   5.657 -1.5249 -0.9709 -0.5245
  652MOL0     H89956   1.016   1.807   5.655  0.9674 -1.6790  1.0437
  652MOL0     H89957   1.128   1.652   5.500 -0.6262 -0.9955  0.9695
  652MOL0     H89958   1.268   1.586   5.100 -1.9618 -0.5954  1.4489
  652MOL0     H89959   1.309   1.419   4.939  2.4127 -0.1540 -0.8763
  652MOL0     H89960   0.868   1.545   4.513 -0.4325 -0.5270  1.0302
  652MOL0     H89961   0.706   1.564   4.708  0.1499  1.1785 -1.8038
  652MOL0     H89962   0.425   1.528   4.950  1.7985  1.9863  0.1639
  652MOL0     H89963   0.307   1.573   5.151 -4.1057  1.5449  1.6002
  652MOL0     H89964  -0.051   1.731   5.299  1.1672  0.1631  1.3951
  652MOL0     H89965  -0.060   1.770   5.127  0.6644 -1.3906 -2.4314
  652MOL0     H89966  -0.019   1.522   5.083  0.5445 -0.9611  1.6832
  652MOL0     H89967  -0.147   1.548   5.195 -0.3797 -1.2878 -1.2336
  652MOL0     H89968   0.021   1.363   5.271  1.0689 -0.1728  0.2871
  652MOL0     H89969   0.133   1.488   5.290 -0.3611 -2.2747  1.0597
  652MOL0     H89970  -0.008   1.607   5.461 -1.3343  0.2600 -1.4646
  652MOL0     H89971   0.031   1.444   5.513  2.1158  1.5474  0.4525
  652MOL0     H89972  -0.395   1.426   5.466  0.5057 -2.5309  2.7065
  652MOL0     H89973   0.089   1.884   4.970  0.2154  0.1981  0.2907
  652MOL0     H89974   0.291   1.940   4.717 -1.1681 -0.9228 -2.5987
  652MOL0     H89975   0.130   1.855   4.677 -1.4921 -2.4557  1.8649
  652MOL0     H89976   0.141   1.974   4.801  1.8986  1.4863  0.1048
  653MOL0     O89977  11.479   5.414   6.564  0.4220 -0.5468  0.8004
  653MOL0     C89978  11.463   5.529   6.588  0.1278 -0.5498  0.1708
  653MOL0     O89979  11.465   5.570   6.711  0.3305  0.6890  0.1690
  653MOL0     C89980  11.473   5.484   6.817 -0.5012 -0.3666 -0.8379
  653MOL0     C89981  11.371   5.381   6.837  0.1695 -0.4884  0.1911
  653MOL0     C89982  11.371   5.300   6.949  0.7458  0.2407 -0.0626
  653MOL0     C89983  11.477   5.308   7.038 -0.2665  1.0831 -0.5306
  653MOL0     O89984  11.459   5.212   7.143 -0.0885  0.0870  0.0544
  653MOL0     C89985  11.583   5.170   7.202 -0.2219 -0.1194  0.3540
  653MOL0     C89986  11.581   5.065   7.318  0.6749  0.3769  0.3797
  653MOL0     C89987  11.516   4.930   7.270 -0.1200 -0.1201 -0.1512
  653MOL0     C89988  11.624   4.853   7.203 -0.2016 -0.6549 -0.0992
  653MOL0     C89989  11.577   4.729   7.134  0.8653  0.0627 -0.2209
  653MOL0     C89990  11.508   4.631   7.230 -0.3459 -0.6759 -0.1741
  653MOL0     C89991  11.534   4.487   7.197  1.4191  0.0202 -0.6473
  653MOL0     C89992  11.534   4.443   7.058  0.0344  0.2511  0.6147
  653MOL0     N89993  11.401   4.399   7.021  0.1919  0.2810  0.1991
  653MOL0     C89994  11.369   4.265   7.030 -0.7877 -0.3321 -0.1563
  653MOL0     C89995  11.236   4.261   7.009 -0.0276 -0.5099 -0.4652
  653MOL0     C89996  11.148   4.138   7.022  0.1878  0.0974  0.6594
  653MOL0     C89997  11.079   4.162   7.161 -0.0865  0.8464 -0.3240
  653MOL0     C89998  11.014   4.033   7.218  0.1679 -0.0012  1.3948
  653MOL0     C89999  10.976   4.052   7.366 -0.3926  0.3847  0.2046
  653MOL0     O90000  10.857   4.132   7.380 -0.1655  0.0637  0.7936
  653MOL0     C90001  10.787   4.125   7.495  0.4672  0.7490  0.4541
  653MOL0     C90002  10.678   4.218   7.499 -0.4897  0.9146 -0.5964
  653MOL0     C90003  10.593   4.238   7.614 -0.3738 -0.5682 -0.3611
  653MOL0     C90004  10.491   4.354   7.593 -0.3893  0.3695  0.2544
  653MOL0     C90005  10.606   4.150   7.720  0.6076 -0.6386  0.5338
  653MOL0     C90006  10.518   4.154   7.834  0.3322 -0.7953 -0.1205
  653MOL0     O90007  10.422   4.246   7.850  0.2270 -0.3365 -0.6789
  653MOL0     C90008  10.424   4.311   7.971 -0.0142 -0.8506 -0.4173
  653MOL0     C90009  10.535   4.389   8.010  0.3895 -0.3505 -0.0764
  653MOL0     C90010  10.539   4.473   8.119  0.2000 -0.6409 -0.1515
  653MOL0     C90011  10.420   4.498   8.184 -0.0574  0.8073 -1.0321
  653MOL0     O90012  10.398   4.592   8.287 -0.7413 -0.6008  0.6720
  653MOL0     C90013  10.484   4.715   8.278  0.2673 -0.6340 -0.0748
  653MOL0     C90014  10.621   4.703   8.353  0.0618 -0.3041  0.4384
  653MOL0     C90015  10.717   4.811   8.290  1.0639  0.6750  0.7576
  653MOL0     C90016  10.695   4.955   8.340  0.0165 -0.4450  0.3880
  653MOL0     C90017  10.786   5.069   8.290 -0.5008  0.3896 -0.5541
  653MOL0     C90018  10.760   5.206   8.353  1.4084 -0.0742  0.4024
  653MOL0     C90019  10.816   5.322   8.268 -0.0901  0.4803  0.3733
  653MOL0     C90020  10.816   5.457   8.338  0.1414  0.1224  0.0143
  653MOL0    Cl90021  10.889   5.585   8.260 -0.3999 -0.3363 -0.6370
  653MOL0     C90022  10.310   4.440   8.138  0.0912  2.1111  0.1917
  653MOL0     C90023  10.311   4.335   8.045  0.6810  0.2468  0.9878
  653MOL0     O90024  10.540   4.064   7.916 -0.0654 -0.6668 -0.1901
  653MOL0     C90025  10.703   4.044   7.709 -0.6216 -0.2130  0.6916
  653MOL0     C90026  10.798   4.041   7.607  0.1176 -0.0243 -0.1310
  653MOL0     N90027  11.191   4.390   6.968  0.0886  0.7428 -0.2997
  653MOL0     N90028  11.293   4.469   6.977  0.1887 -0.0690 -0.2556
  653MOL0     C90029  11.577   5.398   7.022  0.2906 -0.5038 -1.0130
  653MOL0     C90030  11.570   5.494   6.918 -0.4261 -0.0663  0.5007
  653MOL0     C90031  11.448   5.630   6.476  0.7257  0.4067 -0.2099
  653MOL0     C90032  11.426   5.758   6.520 -0.0949 -0.0019  0.1692
  653MOL0     C90033  11.461   5.864   6.436  0.3209 -0.0551  0.1934
  653MOL0     C90034  11.502   5.844   6.304 -0.2503  0.3369 -0.6026
  653MOL0     O90035  11.524   5.953   6.224 -0.5181 -0.1135  0.1917
  653MOL0     C90036  11.525   5.946   6.086  0.8905 -0.4787  1.2220
  653MOL0     C90037  11.424   6.052   6.026  0.2376 -0.3970 -0.3412
  653MOL0     C90038  11.284   6.041   6.087 -1.0062 -0.2008 -0.7902
  653MOL0     C90039  11.238   6.145   6.182 -0.1507 -1.1735  0.6475
  653MOL0     C90040  11.232   6.284   6.124 -0.9688  0.1518 -0.5174
  653MOL0     C90041  11.224   6.398   6.090  0.5938  0.2896 -0.6014
  653MOL0     C90042  11.511   5.708   6.263 -0.9824  0.4668  1.2354
  653MOL0     C90043  11.488   5.602   6.341 -0.3657  0.1966 -0.7598
  653MOL0     C90044  11.527   5.464   6.276  0.3258  0.4262 -0.5216
  653MOL0     H90045  11.292   5.367   6.763  0.4212 -1.3883  0.0786
  653MOL0     H90046  11.288   5.231   6.960 -0.1199  1.0710 -1.1027
  653MOL0     H90047  11.636   5.259   7.238  2.3787 -2.1248  1.7490
  653MOL0     H90048  11.654   5.129   7.130  3.6466  4.8242  0.7830
  653MOL0     H90049  11.676   5.025   7.353  0.0744 -0.5746  0.9960
  653MOL0     H90050  11.521   5.092   7.405 -0.7245 -3.1679  0.7205
  653MOL0     H90051  11.486   4.883   7.364 -0.1380  0.4519  0.1366
  653MOL0     H90052  11.433   4.947   7.200  0.1631  2.2386 -0.0141
  653MOL0     H90053  11.678   4.917   7.133 -0.1998 -0.9348 -0.3565
  653MOL0     H90054  11.703   4.822   7.273 -0.3605  1.6178  1.1677
  653MOL0     H90055  11.663   4.672   7.099  0.1452 -1.4794  0.4058
  653MOL0     H90056  11.520   4.762   7.046  1.8739 -0.0121 -0.9210
  653MOL0     H90057  11.538   4.647   7.334 -1.1710  0.1395 -0.0444
  653MOL0     H90058  11.401   4.651   7.221  0.0793  2.1252  0.3140
  653MOL0     H90059  11.468   4.428   7.261 -0.2227  0.6979 -1.6506
  653MOL0     H90060  11.629   4.471   7.248  0.4257 -2.6245  0.5396
  653MOL0     H90061  11.581   4.522   6.999 -1.2237 -0.8640 -2.0711
  653MOL0     H90062  11.595   4.354   7.039  2.6749  2.3230 -1.5373
  653MOL0     H90063  11.434   4.182   7.057  1.2853  1.0798 -0.5039
  653MOL0     H90064  11.221   4.056   7.019 -1.5250 -1.6867  3.3046
  653MOL0     H90065  11.077   4.111   6.944  0.1052 -0.4715  0.9234
  653MOL0     H90066  11.144   4.203   7.239 -3.7811  4.1387  1.3876
  653MOL0     H90067  10.999   4.235   7.147 -2.5880 -0.8373  3.2799
  653MOL0     H90068  10.937   4.011   7.144  0.9478  2.9227 -0.4281
  653MOL0     H90069  11.091   3.955   7.214  1.2926  1.1009  0.5662
  653MOL0     H90070  10.943   3.954   7.401 -1.8805  0.7021 -0.2190
  653MOL0     H90071  11.061   4.077   7.430 -0.6756  1.1717  0.2881
  653MOL0     H90072  10.675   4.279   7.410 -3.6887 -0.8962 -1.8719
  653MOL0     H90073  10.500   4.422   7.677  0.5232  1.4312 -0.6627
  653MOL0     H90074  10.393   4.306   7.590 -0.6484  0.5181  3.3566
  653MOL0     H90075  10.509   4.397   7.494 -1.1287 -0.8983 -0.4593
  653MOL0     H90076  10.613   4.389   7.934 -2.6918  2.1987 -3.6097
  653MOL0     H90077  10.618   4.536   8.160 -1.1288  0.7626  0.3443
  653MOL0     H90078  10.499   4.732   8.171  1.4736 -3.0608 -0.3681
  653MOL0     H90079  10.426   4.802   8.310 -2.3441 -2.3662  0.1349
  653MOL0     H90080  10.599   4.728   8.458  0.6618 -1.8098  0.9519
  653MOL0     H90081  10.666   4.604   8.345  2.8998  0.8608  0.6262
  653MOL0     H90082  10.701   4.811   8.182 -1.2714  1.4336  1.0404
  653MOL0     H90083  10.819   4.779   8.313  0.5305 -1.9499 -0.1404
  653MOL0     H90084  10.707   4.954   8.449  3.0963  1.4546  0.1900
  653MOL0     H90085  10.598   4.993   8.307  1.8758  2.2992 -2.3836
  653MOL0     H90086  10.890   5.040   8.302 -1.4592 -2.5575  2.1420
  653MOL0     H90087  10.764   5.092   8.185 -3.3803  0.4049 -0.0253
  653MOL0     H90088  10.804   5.222   8.451 -0.0893 -1.2798  1.3203
  653MOL0     H90089  10.652   5.221   8.366  1.4983  1.2067 -0.1270
  653MOL0     H90090  10.771   5.331   8.169 -3.2014  0.9631  1.6909
  653MOL0     H90091  10.924   5.306   8.258  0.2308  0.5357  2.9686
  653MOL0     H90092  10.844   5.451   8.443 -2.9529  2.5763  1.1115
  653MOL0     H90093  10.713   5.491   8.353  1.1651  2.8201  1.6444
  653MOL0     H90094  10.221   4.468   8.193 -0.5099  2.6351 -1.0049
  653MOL0     H90095  10.215   4.296   8.012  1.2804 -0.1878 -0.3042
  653MOL0     H90096  10.710   3.965   7.784 -0.4535 -1.6240 -0.7725
  653MOL0     H90097  10.882   3.974   7.621 -0.5089 -0.5255  1.5009
  653MOL0     H90098  11.673   5.406   7.073  0.4997 -0.0945 -1.4607
  653MOL0     H90099  11.651   5.565   6.901  0.6458 -1.8840 -2.7542
  653MOL0     H90100  11.379   5.782   6.615 -0.0501 -0.6812  0.3614
  653MOL0     H90101  11.439   5.961   6.478  3.4914 -0.1530  2.4031
  653MOL0     H90102  11.629   5.959   6.054 -0.2465 -0.0735 -2.9111
  653MOL0     H90103  11.516   5.848   6.039  0.7405 -0.1909  0.6304
  653MOL0     H90104  11.414   6.027   5.920  0.6639  1.5918 -0.8789
  653MOL0     H90105  11.463   6.154   6.027 -1.1413  0.2441 -2.7512
  653MOL0     H90106  11.211   6.040   6.006 -0.2132  1.6090 -1.5871
  653MOL0     H90107  11.275   5.945   6.137 -2.0417 -0.4187 -1.3797
  653MOL0     H90108  11.301   6.154   6.271  0.9990  0.4525 -0.2852
  653MOL0     H90109  11.136   6.118   6.215 -1.0394  0.5446 -0.5500
  653MOL0     H90110  11.215   6.495   6.046 -0.8328  1.4138  1.9678
  653MOL0     H90111  11.559   5.693   6.167 -0.9913 -1.6551  1.5169
  653MOL0     H90112  11.621   5.433   6.322 -1.0614 -0.5219  1.8613
  653MOL0     H90113  11.453   5.385   6.291 -1.1998  1.8452 -0.1135
  653MOL0     H90114  11.540   5.475   6.168 -1.3190 -0.2633 -0.8280
  654MOL0     O90115   6.273   4.558  10.671  0.0360  0.6163 -0.3148
  654MOL0     C90116   6.183   4.574  10.589  0.6482  0.5013  0.0023
  654MOL0     O90117   6.076   4.490  10.573  0.4205  0.6333  0.0265
  654MOL0     C90118   6.075   4.384  10.652 -0.5800  0.3117  0.1711
  654MOL0     C90119   6.115   4.263  10.597 -0.0673 -0.3155  0.1766
  654MOL0     C90120   6.099   4.141  10.670  0.7464 -0.3951  0.8208
  654MOL0     C90121   6.069   4.148  10.807 -0.8441 -0.0239  0.7057
  654MOL0     O90122   6.048   4.044  10.893  0.0079 -0.6748 -0.5147
  654MOL0     C90123   6.059   3.914  10.844  0.3274  0.1515 -0.5460
  654MOL0     C90124   6.046   3.810  10.947  0.0776 -0.1013  0.4886
  654MOL0     C90125   5.903   3.780  10.986  0.5227  0.6918 -0.1605
  654MOL0     C90126   5.851   3.892  11.079  0.1677  0.3834 -0.0953
  654MOL0     C90127   5.713   3.851  11.123  0.7173 -0.0712  0.5068
  654MOL0     C90128   5.648   3.982  11.160  0.1561 -0.3698  0.4656
  654MOL0     C90129   5.508   3.957  11.219  0.9173  0.3336  0.2199
  654MOL0     C90130   5.403   3.917  11.114  0.2004  0.0501  0.2484
  654MOL0     N90131   5.374   3.774  11.095 -0.7870 -0.2111 -0.5536
  654MOL0     C90132   5.438   3.661  11.132  0.2225  0.4442  0.7460
  654MOL0     C90133   5.380   3.554  11.067 -0.6794 -0.4828 -0.0825
  654MOL0     C90134   5.408   3.406  11.069 -0.4579 -0.0411 -0.5006
  654MOL0     C90135   5.510   3.371  10.960  0.4853 -0.1933  0.8371
  654MOL0     C90136   5.527   3.226  10.933  1.4094  0.5709 -1.4437
  654MOL0     C90137   5.433   3.184  10.823 -0.3049  0.0182  0.5849
  654MOL0     O90138   5.434   3.037  10.801 -0.7530  0.2397  0.2922
  654MOL0     C90139   5.420   2.976  10.684 -1.2091 -1.1618  0.0671
  654MOL0     C90140   5.415   3.042  10.565 -0.0312  0.9131 -0.2708
  654MOL0     C90141   5.426   2.972  10.444  0.0585 -0.1912  0.3208
  654MOL0     C90142   5.447   3.057  10.324 -0.1650  1.0154 -0.1446
  654MOL0     C90143   5.428   2.827  10.442  0.5294  0.1038  0.5355
  654MOL0     C90144   5.423   2.750  10.320  0.1401 -0.3364 -0.2185
  654MOL0     O90145   5.379   2.822  10.214 -0.4531 -0.4517  0.7920
  654MOL0     C90146   5.403   2.760  10.095 -0.4617  0.5461  0.0116
  654MOL0     C90147   5.537   2.744  10.048  0.4497 -0.9094  0.2132
  654MOL0     C90148   5.549   2.711   9.911 -0.4547 -0.5565  0.2171
  654MOL0     C90149   5.440   2.695   9.830 -0.1469  0.8807  0.8110
  654MOL0     O90150   5.462   2.657   9.696  0.6160  0.7457 -0.5699
  654MOL0     C90151   5.395   2.743   9.607 -0.1477  0.7569 -0.6521
  654MOL0     C90152   5.486   2.751   9.487  0.2371  0.0013  1.1902
  654MOL0     C90153   5.399   2.771   9.362  0.1849 -0.1588  0.0621
  654MOL0     C90154   5.345   2.914   9.353 -0.1331 -0.5465  1.1644
  654MOL0     C90155   5.289   2.940   9.215 -0.0121  0.2380  0.2077
  654MOL0     C90156   5.149   2.873   9.187  0.3433 -1.1103 -0.4816
  654MOL0     C90157   5.125   2.872   9.032  0.5239 -0.2205 -0.7129
  654MOL0     C90158   5.109   3.024   8.988 -0.5246  0.1146  0.3471
  654MOL0    Cl90159   5.249   3.113   8.920 -0.2811  0.5609 -0.3433
  654MOL0     C90160   5.309   2.716   9.884  0.1771  0.3931  0.9876
  654MOL0     C90161   5.293   2.735  10.014  0.0751  0.0235  0.1537
  654MOL0     O90162   5.459   2.630  10.312 -0.1430 -0.1489 -0.2899
  654MOL0     C90163   5.416   2.759  10.564  0.0258  0.0153 -0.1543
  654MOL0     C90164   5.427   2.836  10.678  0.6801 -0.0382  0.2965
  654MOL0     N90165   5.275   3.618  11.001  0.5787 -0.1939  0.4690
  654MOL0     N90166   5.273   3.746  11.017  0.4457 -0.1552  0.4569
  654MOL0     C90167   6.042   4.276  10.862 -0.0202 -1.2694  0.6844
  654MOL0     C90168   6.048   4.397  10.787 -0.6265 -0.3696  0.0171
  654MOL0     C90169   6.165   4.699  10.517 -0.6393  0.5793  0.1111
  654MOL0     C90170   6.033   4.736  10.472 -0.9270 -0.5173  1.1116
  654MOL0     C90171   6.020   4.852  10.385 -0.4544 -0.0580 -0.3914
  654MOL0     C90172   6.127   4.941  10.359 -0.1720 -0.3989  0.4996
  654MOL0     O90173   6.094   5.050  10.283 -0.6427  0.1937 -0.5164
  654MOL0     C90174   6.187   5.156  10.254  1.2500 -0.1012  0.9000
  654MOL0     C90175   6.195   5.241  10.390  0.5012 -0.3079  0.0125
  654MOL0     C90176   6.063   5.288  10.452  0.4713 -0.0602 -0.2091
  654MOL0     C90177   5.997   5.407  10.374  0.0016 -0.1021  0.2269
  654MOL0     C90178   6.041   5.526  10.443 -0.3627 -0.0872 -0.3600
  654MOL0     C90179   6.086   5.631  10.496  0.9351 -0.3893  0.5151
  654MOL0     C90180   6.247   4.905  10.413 -0.2236  0.1766  1.3116
  654MOL0     C90181   6.268   4.786  10.491 -0.0455 -1.5907 -0.2822
  654MOL0     C90182   6.412   4.755  10.532 -0.5769  0.4316 -0.4374
  654MOL0     H90183   6.152   4.263  10.495 -0.4094 -2.2484  0.0062
  654MOL0     H90184   6.135   4.052  10.620  0.6296 -0.1308  0.2583
  654MOL0     H90185   6.152   3.899  10.787  0.0339  1.2613 -1.3484
  654MOL0     H90186   5.982   3.892  10.769 -0.3113 -0.6267  0.3238
  654MOL0     H90187   6.098   3.724  10.904  1.0945  1.2809 -1.1923
  654MOL0     H90188   6.094   3.843  11.040  1.3900  2.2486 -0.9301
  654MOL0     H90189   5.840   3.769  10.897  0.7679 -0.6816 -0.1877
  654MOL0     H90190   5.902   3.684  11.037  0.7288  1.3688  1.1578
  654MOL0     H90191   5.918   3.898  11.165  1.0284  3.2430 -0.8668
  654MOL0     H90192   5.851   3.989  11.028 -1.9905 -0.7801 -2.5775
  654MOL0     H90193   5.711   3.783  11.209 -1.5957  0.3112  0.8131
  654MOL0     H90194   5.654   3.799  11.047 -2.2062  2.0254  1.1554
  654MOL0     H90195   5.707   4.040  11.231 -2.2925  1.5284  1.1001
  654MOL0     H90196   5.647   4.038  11.065 -5.2307  1.3225  1.1373
  654MOL0     H90197   5.475   4.051  11.264 -0.9708  0.1997 -0.7679
  654MOL0     H90198   5.510   3.881  11.297  0.2206 -0.0813 -0.1535
  654MOL0     H90199   5.308   3.969  11.132 -0.4908  0.1342 -2.9908
  654MOL0     H90200   5.434   3.955  11.016  0.5537  2.3524  1.1931
  654MOL0     H90201   5.525   3.653  11.197 -0.6654  0.6031  1.9730
  654MOL0     H90202   5.318   3.347  11.047  0.2228 -1.3641  0.1535
  654MOL0     H90203   5.439   3.379  11.171 -2.1710 -2.3656 -0.4991
  654MOL0     H90204   5.478   3.417  10.865 -1.1972 -2.6739  0.0932
  654MOL0     H90205   5.604   3.417  10.991  0.8456 -1.7837  2.2705
  654MOL0     H90206   5.631   3.200  10.913  1.5168 -1.6731  1.3069
  654MOL0     H90207   5.496   3.166  11.019  2.1900 -1.3728 -2.4657
  654MOL0     H90208   5.328   3.199  10.849 -2.0405 -3.1908 -3.4624
  654MOL0     H90209   5.456   3.242  10.732  2.7174 -4.5587 -1.9668
  654MOL0     H90210   5.436   3.148  10.574  2.2196  0.6859 -2.0158
  654MOL0     H90211   5.356   3.095  10.276  0.6368 -0.4764 -3.1033
  654MOL0     H90212   5.507   2.998  10.254  0.3324  2.7763 -1.2778
  654MOL0     H90213   5.518   3.138  10.343 -0.2647  1.1781 -0.4663
  654MOL0     H90214   5.628   2.758  10.105  1.4758 -3.3266 -0.7170
  654MOL0     H90215   5.651   2.689   9.879 -0.4561 -4.5401  2.3648
  654MOL0     H90216   5.298   2.694   9.592  1.8097 -2.9608 -2.7705
  654MOL0     H90217   5.379   2.841   9.653 -1.9950 -0.1190  0.7240
  654MOL0     H90218   5.569   2.819   9.506  2.4321 -1.9651 -0.6977
  654MOL0     H90219   5.535   2.654   9.471  1.0322  0.8022 -2.1233
  654MOL0     H90220   5.321   2.695   9.369 -0.2563  0.3795  1.3765
  654MOL0     H90221   5.466   2.758   9.277  1.5768  1.8458  0.7850
  654MOL0     H90222   5.432   2.978   9.367 -2.5358  2.7448  2.2069
  654MOL0     H90223   5.271   2.926   9.432  0.9483  1.3377  1.9569
  654MOL0     H90224   5.277   3.048   9.203 -2.7105  0.0650  0.6298
  654MOL0     H90225   5.362   2.904   9.142  0.4627 -0.1448  0.8618
  654MOL0     H90226   5.065   2.921   9.237  1.4293  1.0599 -0.6083
  654MOL0     H90227   5.153   2.770   9.225 -1.2259 -1.8343 -2.1451
  654MOL0     H90228   5.032   2.818   9.010  0.3396 -0.1787 -0.0482
  654MOL0     H90229   5.198   2.815   8.974 -1.0422  0.4565 -3.5528
  654MOL0     H90230   5.057   3.081   9.066 -2.5000 -1.0865 -0.0112
  654MOL0     H90231   5.032   3.036   8.911 -0.8300 -1.3423  0.3917
  654MOL0     H90232   5.225   2.710   9.816  0.9043 -0.2874  0.1199
  654MOL0     H90233   5.191   2.750  10.048 -0.2232  1.3601 -1.1716
  654MOL0     H90234   5.394   2.653  10.563 -4.3059  0.7407 -1.3067
  654MOL0     H90235   5.426   2.779  10.770 -0.9622  2.7338  2.1600
  654MOL0     H90236   6.005   4.273  10.964  0.3030  0.2447  0.8724
  654MOL0     H90237   6.032   4.489  10.842  1.1010 -2.5369  4.6208
  654MOL0     H90238   5.949   4.672  10.495  0.9993 -2.9665  1.7214
  654MOL0     H90239   5.917   4.859  10.353 -0.9683 -2.6151  0.4452
  654MOL0     H90240   6.283   5.121  10.216  1.1947 -0.3556  0.9934
  654MOL0     H90241   6.129   5.216  10.183 -0.8118 -1.1702  1.5679
  654MOL0     H90242   6.257   5.328  10.365  2.4367 -1.5109  0.3902
  654MOL0     H90243   6.244   5.182  10.468 -2.2972  0.3812  2.4529
  654MOL0     H90244   5.986   5.211  10.459  1.1827 -0.6115  2.8768
  654MOL0     H90245   6.078   5.312  10.557  0.0982  1.0635 -0.4010
  654MOL0     H90246   5.890   5.388  10.377  0.2386 -1.4347  2.2073
  654MOL0     H90247   6.030   5.419  10.270  0.7640  0.1706  0.4925
  654MOL0     H90248   6.116   5.719  10.549  3.3851 -2.3952  2.7218
  654MOL0     H90249   6.329   4.976  10.403 -0.0780  0.0903  1.8570
  654MOL0     H90250   6.439   4.649  10.524  1.5174  0.9604 -0.8445
  654MOL0     H90251   6.476   4.815  10.467  1.2228  1.2912  1.9965
  654MOL0     H90252   6.428   4.796  10.632 -0.3387  0.8265 -0.6373
  655MOL0     O90253   9.850   3.609   3.600 -0.6921 -0.0237  0.1959
  655MOL0     C90254   9.802   3.680   3.518  0.2358  0.3960  1.1741
  655MOL0     O90255   9.855   3.698   3.395  0.0575  0.4174  0.4190
  655MOL0     C90256   9.942   3.599   3.350  0.4883 -0.7428  0.3383
  655MOL0     C90257   9.901   3.471   3.308 -1.1731 -0.3605 -0.4627
  655MOL0     C90258   9.989   3.392   3.238 -0.5126  0.1256 -0.2999
  655MOL0     C90259  10.123   3.429   3.204  0.9093  0.7656  0.9530
  655MOL0     O90260  10.205   3.350   3.121  0.7745  0.4941  0.8121
  655MOL0     C90261  10.156   3.239   3.053 -0.4065 -0.7620 -1.0237
  655MOL0     C90262  10.246   3.207   2.947 -0.7756  0.2928 -0.3906
  655MOL0     C90263  10.185   3.085   2.878 -0.0813 -0.7771 -0.3152
  655MOL0     C90264  10.273   3.053   2.750 -0.5716  0.3470 -0.1762
  655MOL0     C90265  10.219   2.945   2.652  0.3942 -0.0426 -0.9084
  655MOL0     C90266  10.145   2.831   2.716  0.4363 -0.4672  0.4746
  655MOL0     C90267  10.105   2.729   2.612  0.1873 -0.3459  0.2208
  655MOL0     C90268  10.038   2.778   2.487  0.3389  0.6970 -0.7419
  655MOL0     N90269   9.925   2.873   2.511  0.4381  1.3983  0.1316
  655MOL0     C90270   9.808   2.832   2.565  0.3048 -0.5201  0.0045
  655MOL0     C90271   9.717   2.924   2.513 -0.8273  0.7454 -0.3402
  655MOL0     C90272   9.581   2.951   2.565 -0.2209  0.2223  0.0242
  655MOL0     C90273   9.488   2.971   2.450 -0.4308 -0.5010  0.5162
  655MOL0     C90274   9.514   3.089   2.368  0.1102  0.5543  0.0529
  655MOL0     C90275   9.395   3.114   2.273 -0.1463  0.6073 -0.3060
  655MOL0     O90276   9.430   3.233   2.205 -1.0474 -0.0444 -0.0373
  655MOL0     C90277   9.369   3.269   2.086  0.2354  0.1461 -0.1391
  655MOL0     C90278   9.289   3.180   2.004  0.8957 -0.3921 -0.6421
  655MOL0     C90279   9.225   3.227   1.883  0.6413  0.4009  0.2927
  655MOL0     C90280   9.123   3.132   1.815 -0.3269 -0.7064  0.7429
  655MOL0     C90281   9.258   3.361   1.823  0.4417  1.4360 -0.2781
  655MOL0     C90282   9.202   3.417   1.696  1.1088  0.4890 -0.3540
  655MOL0     O90283   9.104   3.344   1.640 -0.9610 -0.5285 -0.1808
  655MOL0     C90284   9.085   3.361   1.507 -0.0292  0.3669  0.6842
  655MOL0     C90285   8.963   3.384   1.443 -0.1981  0.0612 -0.9708
  655MOL0     C90286   8.952   3.379   1.308 -0.1212 -0.4149  0.3147
  655MOL0     C90287   9.062   3.357   1.229  0.3370 -0.1436  0.7508
  655MOL0     O90288   9.041   3.349   1.089  0.1504 -0.1457  0.2598
  655MOL0     C90289   9.152   3.367   0.997 -0.1775 -0.1072  0.7057
  655MOL0     C90290   9.106   3.416   0.863  0.6079 -1.1557  0.2618
  655MOL0     C90291   9.117   3.573   0.852  0.1102 -0.0602 -0.4481
  655MOL0     C90292   9.028   3.630   0.742  0.4171  0.0226  0.6643
  655MOL0     C90293   9.008   3.779   0.756 -0.8555 -0.0938 -0.0002
  655MOL0     C90294   8.933   3.835   0.637  1.0300 -0.0862  0.7256
  655MOL0     C90295   8.785   3.774   0.625 -0.1593  0.3176 -0.2684
  655MOL0     C90296   8.685   3.865   0.548  0.1415  0.7441 -0.1696
  655MOL0    Cl90297   8.652   4.007   0.657  0.2478 -0.6846  0.1859
  655MOL0     C90298   9.183   3.329   1.288 -0.6841 -0.5607 -0.0598
  655MOL0     C90299   9.197   3.333   1.424 -0.5557  0.0956 -0.6037
  655MOL0     O90300   9.253   3.520   1.645 -0.1359  0.6802 -0.0940
  655MOL0     C90301   9.340   3.439   1.907  0.1368  0.4583 -0.1403
  655MOL0     C90302   9.391   3.398   2.034  0.4011 -0.4666  0.3636
  655MOL0     N90303   9.788   3.013   2.436 -0.5782  0.1746 -0.6280
  655MOL0     N90304   9.913   2.984   2.440 -0.7280 -0.3321 -0.0509
  655MOL0     C90305  10.156   3.552   3.246  0.3262  0.1310  0.3664
  655MOL0     C90306  10.070   3.646   3.307 -0.1739  0.1050  0.2387
  655MOL0     C90307   9.696   3.778   3.564  0.4451 -0.0747  1.1610
  655MOL0     C90308   9.685   3.893   3.481 -0.4170 -0.0984 -0.0997
  655MOL0     C90309   9.575   3.975   3.503  0.0008  1.0915  0.3877
  655MOL0     C90310   9.498   3.961   3.614 -0.1619 -0.6743  0.3422
  655MOL0     O90311   9.385   4.034   3.628 -0.0976  0.0051  0.8183
  655MOL0     C90312   9.255   3.980   3.613  0.1014  0.1928  0.8587
  655MOL0     C90313   9.229   3.958   3.467 -0.1165 -0.0710 -0.7066
  655MOL0     C90314   9.263   3.810   3.418 -0.3491 -0.5727 -0.4194
  655MOL0     C90315   9.144   3.742   3.354  0.4016 -0.2257 -0.0045
  655MOL0     C90316   9.067   3.676   3.456 -0.3709 -0.0770 -0.9570
  655MOL0     C90317   8.989   3.632   3.542 -0.2163 -0.0101  0.0908
  655MOL0     C90318   9.514   3.853   3.699  0.1628 -0.0599  0.2084
  655MOL0     C90319   9.612   3.763   3.672  0.0762 -0.0683 -0.6766
  655MOL0     C90320   9.601   3.646   3.763  0.8416  0.6752 -0.4993
  655MOL0     H90321   9.804   3.427   3.333 -0.7552 -2.1732 -1.8248
  655MOL0     H90322   9.963   3.287   3.224 -1.5551  0.0103  2.0215
  655MOL0     H90323  10.053   3.260   3.023 -0.8386  1.3315  1.6082
  655MOL0     H90324  10.168   3.161   3.129  3.2336  3.5742  3.5147
  655MOL0     H90325  10.251   3.286   2.872  0.4901 -1.2387 -2.0097
  655MOL0     H90326  10.348   3.173   2.969 -0.6877  0.6720 -0.1961
  655MOL0     H90327  10.178   3.004   2.951 -3.0394  1.3851  1.9946
  655MOL0     H90328  10.082   3.118   2.860  1.2247  3.9041 -0.5712
  655MOL0     H90329  10.286   3.139   2.683  0.2524  0.0940 -0.3478
  655MOL0     H90330  10.363   3.011   2.796 -0.4590 -0.9337 -1.5149
  655MOL0     H90331  10.306   2.899   2.603  0.6227 -1.6357  0.8859
  655MOL0     H90332  10.156   2.990   2.575  1.9521 -0.1838 -2.3189
  655MOL0     H90333  10.207   2.784   2.793  1.6944  1.5058  0.7410
  655MOL0     H90334  10.048   2.869   2.748  0.0741 -0.5442 -0.4938
  655MOL0     H90335  10.029   2.665   2.659 -3.0427  0.3813 -3.4351
  655MOL0     H90336  10.191   2.672   2.577 -1.4581 -3.6378  1.0362
  655MOL0     H90337  10.119   2.824   2.430  0.5453 -1.6971 -2.5261
  655MOL0     H90338   9.998   2.693   2.431  0.3405 -1.4363  2.1929
  655MOL0     H90339   9.794   2.745   2.629  0.6707 -0.1742  0.5661
  655MOL0     H90340   9.589   3.042   2.625 -1.0740 -1.6866  3.3357
  655MOL0     H90341   9.542   2.881   2.639  1.5339  0.7493  1.5233
  655MOL0     H90342   9.485   2.884   2.384 -2.1228 -2.4717  2.9800
  655MOL0     H90343   9.388   2.968   2.494 -0.3582 -1.0985  0.6546
  655MOL0     H90344   9.526   3.178   2.430  2.2411  2.0143 -2.2631
  655MOL0     H90345   9.599   3.087   2.298 -0.3187  2.1107 -0.5563
  655MOL0     H90346   9.403   3.038   2.194  1.3264  1.6961 -1.2630
  655MOL0     H90347   9.297   3.127   2.317 -0.4491  0.7422 -0.9990
  655MOL0     H90348   9.275   3.080   2.044  1.0886  0.5320  1.9329
  655MOL0     H90349   9.115   3.044   1.880 -0.0943 -1.3970 -0.1450
  655MOL0     H90350   9.147   3.083   1.720 -1.7137  0.1349 -0.0595
  655MOL0     H90351   9.025   3.180   1.808 -0.4951 -0.9689  1.2497
  655MOL0     H90352   8.870   3.403   1.496  0.4394  3.1696 -0.7892
  655MOL0     H90353   8.852   3.393   1.267  0.3581  0.1576 -0.6777
  655MOL0     H90354   9.215   3.448   1.037  0.4154  0.3624 -1.1092
  655MOL0     H90355   9.213   3.277   0.986 -0.6993 -0.5960  1.6614
  655MOL0     H90356   9.160   3.375   0.778 -0.1056  1.5716 -1.6399
  655MOL0     H90357   9.003   3.383   0.847  1.3300 -3.7641  0.4391
  655MOL0     H90358   9.221   3.606   0.852 -0.4594  1.9051  0.7135
  655MOL0     H90359   9.083   3.607   0.950 -0.8792 -1.2018 -0.3713
  655MOL0     H90360   8.933   3.576   0.737  0.8024 -0.5542 -1.3538
  655MOL0     H90361   9.080   3.607   0.648 -0.0181 -1.1878  0.6999
  655MOL0     H90362   8.963   3.793   0.855  1.3914  0.7394  0.9777
  655MOL0     H90363   9.101   3.835   0.769  1.0127 -3.0676  0.4360
  655MOL0     H90364   8.995   3.825   0.548  0.8611  2.2135  0.2966
  655MOL0     H90365   8.915   3.940   0.661 -2.6256 -0.8096  1.9573
  655MOL0     H90366   8.749   3.746   0.724  0.3545 -0.7096 -0.3612
  655MOL0     H90367   8.814   3.683   0.572  4.0348  0.0041  2.1014
  655MOL0     H90368   8.591   3.811   0.537  0.2784  0.2587  0.9362
  655MOL0     H90369   8.727   3.903   0.454  0.0401 -0.1224 -0.5752
  655MOL0     H90370   9.270   3.317   1.224 -0.4768  0.3934  0.0275
  655MOL0     H90371   9.294   3.317   1.471 -1.9192 -0.4756  2.2021
  655MOL0     H90372   9.368   3.538   1.876  2.5542 -0.8036 -2.3638
  655MOL0     H90373   9.442   3.478   2.087 -0.8864  0.2803  0.5251
  655MOL0     H90374  10.259   3.569   3.216 -0.3911  0.1499 -2.3777
  655MOL0     H90375  10.117   3.744   3.318 -1.1346  0.3148  4.5256
  655MOL0     H90376   9.763   3.914   3.409  0.2628 -0.2027  0.5861
  655MOL0     H90377   9.543   4.039   3.421 -0.1004 -0.5646 -0.9057
  655MOL0     H90378   9.254   3.884   3.665  3.0408 -0.7351 -0.5256
  655MOL0     H90379   9.184   4.046   3.664  0.2342  0.1102  1.1507
  655MOL0     H90380   9.286   4.034   3.414  0.7922  0.1256  0.5083
  655MOL0     H90381   9.125   3.987   3.457  0.5549  2.8643  0.0163
  655MOL0     H90382   9.335   3.825   3.338  1.4993  4.6554  1.8068
  655MOL0     H90383   9.300   3.751   3.502  0.1457  1.1174  0.6012
  655MOL0     H90384   9.180   3.665   3.286 -1.1631  0.7893 -2.0986
  655MOL0     H90385   9.077   3.817   3.311  0.9819  1.8079  2.3922
  655MOL0     H90386   8.921   3.598   3.618  1.6705  2.3918  3.1165
  655MOL0     H90387   9.440   3.848   3.779  1.0010  0.9369  1.0896
  655MOL0     H90388   9.701   3.628   3.803  0.0477  0.3010  1.4134
  655MOL0     H90389   9.527   3.647   3.843 -3.0096  1.0310 -3.7672
  655MOL0     H90390   9.581   3.559   3.700 -1.2419  0.3073  0.5945
  656MOL0     O90391   7.394   1.091   8.229 -0.6343  0.5295 -0.1386
  656MOL0     C90392   7.435   1.038   8.329  0.0063 -0.0678 -1.5934
  656MOL0     O90393   7.387   0.929   8.387  0.0861 -0.4420 -0.3550
  656MOL0     C90394   7.317   0.843   8.311  0.7077 -0.0576 -0.4636
  656MOL0     C90395   7.190   0.782   8.366  0.9205 -0.7617  0.2564
  656MOL0     C90396   7.123   0.684   8.289  0.0898 -0.8575 -0.3297
  656MOL0     C90397   7.154   0.660   8.153  0.1178 -0.1756  0.4091
  656MOL0     O90398   7.069   0.570   8.090  0.2555 -0.1707 -0.4421
  656MOL0     C90399   7.047   0.598   7.954 -0.1604  0.1687  0.4324
  656MOL0     C90400   6.936   0.497   7.903 -0.6682 -0.1317 -0.4081
  656MOL0     C90401   6.885   0.547   7.766 -0.1500 -0.4719 -0.2368
  656MOL0     C90402   6.799   0.443   7.701  0.6897  0.3576  0.0593
  656MOL0     C90403   6.732   0.482   7.566 -0.1211  0.4023 -0.1118
  656MOL0     C90404   6.664   0.373   7.484 -0.5034 -0.0009 -0.0727
  656MOL0     C90405   6.737   0.245   7.465 -0.8335 -0.4928 -0.0231
  656MOL0     C90406   6.667   0.135   7.378 -0.4044  0.2103  0.0131
  656MOL0     N90407   6.534   0.093   7.421  1.1323 -0.3509 -0.3867
  656MOL0     C90408   6.487   0.047   7.550 -0.1629  0.8887 -0.0480
  656MOL0     C90409   6.353   0.062   7.543  0.1575  0.2406  0.3132
  656MOL0     C90410   6.264   0.004   7.650  0.2501  0.0821  0.6144
  656MOL0     C90411   6.197  -0.128   7.603 -0.3339 -0.7506 -0.2360
  656MOL0     C90412   6.104  -0.216   7.684  0.6581  0.8149  0.7631
  656MOL0     C90413   6.094  -0.175   7.828  0.6720  1.2050 -0.1065
  656MOL0     O90414   5.962  -0.217   7.879 -1.1353 -0.2619  0.6878
  656MOL0     C90415   5.940  -0.348   7.917  0.3143 -0.3900  0.1529
  656MOL0     C90416   6.034  -0.451   7.908  0.2604 -0.1453 -0.2057
  656MOL0     C90417   5.994  -0.591   7.929  0.0688  0.1464  0.5417
  656MOL0     C90418   6.109  -0.695   7.923 -0.8052  0.3559 -0.9430
  656MOL0     C90419   5.867  -0.624   7.964 -0.3093 -0.4164  0.2720
  656MOL0     C90420   5.819  -0.762   8.008  0.0331  0.4832  0.2586
  656MOL0     O90421   5.685  -0.783   8.005 -0.2935 -0.0414  0.0698
  656MOL0     C90422   5.636  -0.912   8.003 -0.6765 -0.5447  0.3167
  656MOL0     C90423   5.605  -0.975   8.128 -0.0187  0.0477 -0.3649
  656MOL0     C90424   5.553  -1.104   8.137 -0.9007 -0.3254 -0.6079
  656MOL0     C90425   5.525  -1.169   8.019  0.2229  0.5407 -0.1249
  656MOL0     O90426   5.463  -1.293   8.035  0.4637  0.0136 -0.1727
  656MOL0     C90427   5.403  -1.345   7.916 -0.9822 -1.1671 -0.5337
  656MOL0     C90428   5.286  -1.435   7.949  0.4381  0.4589 -0.1761
  656MOL0     C90429   5.337  -1.580   7.972 -0.6443 -0.6381  0.0780
  656MOL0     C90430   5.235  -1.683   8.011 -0.2542  0.4034 -0.3380
  656MOL0     C90431   5.186  -1.673   8.160  0.2298 -0.6467 -0.7353
  656MOL0     C90432   5.087  -1.780   8.207  0.3367 -0.1086 -0.4972
  656MOL0     C90433   5.084  -1.795   8.364  0.3566 -0.1707  0.2450
  656MOL0     C90434   4.997  -1.911   8.404  0.1324 -0.4988 -0.8537
  656MOL0    Cl90435   4.837  -1.890   8.325 -0.3143  0.0047  0.4670
  656MOL0     C90436   5.567  -1.119   7.901  0.9485 -0.4419  0.3767
  656MOL0     C90437   5.620  -0.993   7.894 -0.1963  0.0167  0.9078
  656MOL0     O90438   5.901  -0.846   8.057 -1.0775 -1.3091  0.8191
  656MOL0     C90439   5.769  -0.523   7.971 -0.0844  0.6295 -0.0286
  656MOL0     C90440   5.803  -0.389   7.948 -0.3527  0.5583  0.4895
  656MOL0     N90441   6.313   0.102   7.417 -0.0977  0.1973 -0.1638
  656MOL0     N90442   6.424   0.132   7.354  0.7260  0.1754  0.5368
  656MOL0     C90443   7.277   0.729   8.101  1.3474  0.5581  0.6983
  656MOL0     C90444   7.348   0.811   8.174 -0.5318 -0.4117 -0.4629
  656MOL0     C90445   7.529   1.129   8.408  0.1086 -0.3255  0.5358
  656MOL0     C90446   7.572   1.088   8.541 -0.9621 -0.7360  0.6222
  656MOL0     C90447   7.660   1.160   8.617 -0.3157  0.0820  0.4831
  656MOL0     C90448   7.721   1.275   8.576  0.8856  0.6071  0.5719
  656MOL0     O90449   7.820   1.335   8.648  0.2537 -0.3422 -0.3842
  656MOL0     C90450   7.845   1.299   8.783 -0.5390  0.4734  0.1694
  656MOL0     C90451   7.949   1.389   8.838  0.3290  0.4482 -0.2186
  656MOL0     C90452   8.092   1.367   8.780 -0.7700 -0.2327 -0.4134
  656MOL0     C90453   8.184   1.472   8.836 -0.6618  0.4195  1.0980
  656MOL0     C90454   8.227   1.454   8.977  0.2352  0.3188 -0.0680
  656MOL0     C90455   8.246   1.425   9.091  0.1950  0.3903 -0.6558
  656MOL0     C90456   7.686   1.318   8.444 -0.3453 -0.2345  0.3030
  656MOL0     C90457   7.582   1.260   8.366 -0.3566  0.1187  0.1414
  656MOL0     C90458   7.557   1.331   8.241 -0.5231 -0.3512  0.6982
  656MOL0     H90459   7.153   0.817   8.462  0.6808 -0.1842 -0.0426
  656MOL0     H90460   7.038   0.638   8.336 -1.0181  1.5301  0.1443
  656MOL0     H90461   7.129   0.591   7.881 -0.7700  3.6545 -0.8103
  656MOL0     H90462   7.009   0.699   7.936  0.2315  0.5396  1.6095
  656MOL0     H90463   6.982   0.399   7.886  1.2843  1.0941 -2.7545
  656MOL0     H90464   6.850   0.470   7.965  0.7764 -0.2549  1.6347
  656MOL0     H90465   6.820   0.634   7.777 -2.7640 -2.3467 -0.0338
  656MOL0     H90466   6.970   0.577   7.704  0.6391 -0.6573  0.7295
  656MOL0     H90467   6.869   0.359   7.687  0.4031 -0.1539  1.5016
  656MOL0     H90468   6.723   0.408   7.771  1.0508  0.7125  0.6316
  656MOL0     H90469   6.807   0.535   7.506  0.1981 -0.2488 -0.2883
  656MOL0     H90470   6.659   0.561   7.588  1.6357  2.7157 -1.9200
  656MOL0     H90471   6.577   0.344   7.544  1.0558 -3.6257  0.7385
  656MOL0     H90472   6.630   0.413   7.388  0.5905  1.2273  0.0188
  656MOL0     H90473   6.752   0.198   7.563 -2.8543 -1.3778 -0.1017
  656MOL0     H90474   6.836   0.269   7.424 -0.3863 -0.5896  0.9631
  656MOL0     H90475   6.669   0.158   7.271  0.5443 -0.7993 -0.2071
  656MOL0     H90476   6.736   0.050   7.391 -2.8914 -1.7266  1.4976
  656MOL0     H90477   6.541   0.001   7.632 -0.6916  1.6106  0.7279
  656MOL0     H90478   6.182   0.070   7.680  1.1427  0.8938  1.3621
  656MOL0     H90479   6.327  -0.007   7.739  2.5860  4.3299 -0.2173
  656MOL0     H90480   6.165  -0.102   7.502  1.5301  4.1751  0.1899
  656MOL0     H90481   6.287  -0.187   7.585  0.6211  1.2043 -2.3560
  656MOL0     H90482   6.007  -0.197   7.638  0.7455 -2.3366 -1.0148
  656MOL0     H90483   6.126  -0.322   7.665 -0.7730  0.6201  0.0308
  656MOL0     H90484   6.178  -0.213   7.887  1.2077 -0.6630 -1.9552
  656MOL0     H90485   6.095  -0.066   7.832  0.8411  1.1540  2.3004
  656MOL0     H90486   6.135  -0.426   7.879 -0.3787  2.4219 -0.4454
  656MOL0     H90487   6.060  -0.784   7.882 -1.8033  0.1099  0.6786
  656MOL0     H90488   6.163  -0.715   8.016 -0.6333 -0.2705 -1.1711
  656MOL0     H90489   6.187  -0.675   7.848  0.4050 -2.0248 -0.4159
  656MOL0     H90490   5.621  -0.915   8.217 -3.1968  1.7742 -0.7924
  656MOL0     H90491   5.541  -1.148   8.236 -1.6387  1.6290  0.2148
  656MOL0     H90492   5.362  -1.263   7.855  0.0953 -1.2596 -1.4108
  656MOL0     H90493   5.490  -1.397   7.875  1.0998  1.9108 -0.3073
  656MOL0     H90494   5.219  -1.399   8.028  0.4316 -2.9570  1.5724
  656MOL0     H90495   5.226  -1.426   7.859  0.7753 -0.9027 -0.5569
  656MOL0     H90496   5.412  -1.566   8.051  0.3996  1.6608 -1.1934
  656MOL0     H90497   5.384  -1.615   7.879 -4.2727  2.7711 -3.4634
  656MOL0     H90498   5.261  -1.786   7.986 -1.2560 -0.2876  1.3326
  656MOL0     H90499   5.155  -1.674   7.937 -1.3368  0.9700  0.8580
  656MOL0     H90500   5.271  -1.692   8.227 -0.6122 -2.8124 -0.2351
  656MOL0     H90501   5.139  -1.577   8.183 -1.1083 -1.3669 -0.4096
  656MOL0     H90502   5.112  -1.874   8.158 -2.3309 -1.3183  0.2484
  656MOL0     H90503   4.985  -1.762   8.171 -0.0000  0.6396  0.7654
  656MOL0     H90504   5.038  -1.709   8.414 -0.6571 -0.1905 -0.6270
  656MOL0     H90505   5.179  -1.818   8.414 -0.3348  0.7661  2.1018
  656MOL0     H90506   4.988  -1.891   8.511  1.3972 -2.2572 -0.3678
  656MOL0     H90507   5.041  -2.011   8.393 -0.9912 -1.5410  2.7400
  656MOL0     H90508   5.562  -1.193   7.822  1.8725  1.5051 -1.6057
  656MOL0     H90509   5.655  -0.969   7.794 -0.1523 -1.5425  0.5265
  656MOL0     H90510   5.671  -0.556   8.006  0.2263 -3.2099 -2.2661
  656MOL0     H90511   5.726  -0.313   7.960 -0.4270  0.8054 -1.2639
  656MOL0     H90512   7.327   0.705   8.008 -0.8830  0.1527 -0.4667
  656MOL0     H90513   7.441   0.859   8.145 -1.0738  1.1078  0.2143
  656MOL0     H90514   7.525   0.997   8.577 -1.2431 -0.0420  2.0500
  656MOL0     H90515   7.662   1.119   8.718  0.0424 -0.6395  0.1886
  656MOL0     H90516   7.758   1.317   8.847  2.1366  0.4535  4.1568
  656MOL0     H90517   7.870   1.196   8.809  1.7149 -0.3648 -4.2904
  656MOL0     H90518   7.957   1.365   8.944  1.8219 -0.9417 -0.5908
  656MOL0     H90519   7.914   1.491   8.823 -1.6180 -0.0202  0.7879
  656MOL0     H90520   8.131   1.265   8.793 -0.7880 -0.3390 -1.1397
  656MOL0     H90521   8.104   1.399   8.676  0.8942 -3.1930 -1.2424
  656MOL0     H90522   8.137   1.570   8.828 -1.1198  0.0439 -1.7281
  656MOL0     H90523   8.279   1.469   8.782 -1.4289  0.0012 -0.2774
  656MOL0     H90524   8.255   1.392   9.192 -2.9067 -0.3372 -0.5152
  656MOL0     H90525   7.731   1.413   8.415  0.5107 -0.2974  1.3456
  656MOL0     H90526   7.605   1.429   8.235 -1.1986 -0.0800 -0.7843
  656MOL0     H90527   7.574   1.271   8.151  0.0761 -0.1461  0.6682
  656MOL0     H90528   7.450   1.352   8.240 -0.6948 -0.9483  2.5106
  657MOL0     O90529   1.924  10.981   7.821 -0.0881 -0.4161 -0.5862
  657MOL0     C90530   1.968  11.074   7.754 -0.0083  0.5417  0.2693
  657MOL0     O90531   2.065  11.061   7.661 -0.6026  0.2967 -0.4639
  657MOL0     C90532   2.162  10.958   7.659  0.4758  0.2207 -0.9484
  657MOL0     C90533   2.267  10.981   7.579 -0.2978  1.6580  0.0124
  657MOL0     C90534   2.375  10.890   7.566 -0.8418 -0.9222  0.1548
  657MOL0     C90535   2.376  10.772   7.635  0.0654  0.4500 -0.0076
  657MOL0     O90536   2.485  10.686   7.628 -0.3953  0.0512  0.4547
  657MOL0     C90537   2.463  10.542   7.637 -0.7792  0.8112  0.8332
  657MOL0     C90538   2.580  10.464   7.579 -0.0594 -0.2013 -0.2036
  657MOL0     C90539   2.620  10.496   7.435 -0.1576 -0.1766  0.2937
  657MOL0     C90540   2.510  10.481   7.324  0.3772 -0.7566  0.4640
  657MOL0     C90541   2.437  10.344   7.324 -0.8241 -0.7984 -0.7920
  657MOL0     C90542   2.309  10.337   7.239  0.3744 -0.2257 -0.1739
  657MOL0     C90543   2.235  10.204   7.258 -0.4468 -0.0983  0.8188
  657MOL0     C90544   2.126  10.183   7.158 -0.8131  0.3181 -0.3342
  657MOL0     N90545   2.035  10.076   7.174 -0.5169  0.1655 -0.0392
  657MOL0     C90546   2.060   9.961   7.237  0.0093  0.1418  0.7732
  657MOL0     C90547   1.950   9.890   7.235  0.0805  0.4637  0.4310
  657MOL0     C90548   1.900   9.752   7.298  1.4740  0.1926 -0.0421
  657MOL0     C90549   2.003   9.699   7.391  0.9313 -0.1079  0.1014
  657MOL0     C90550   2.003   9.786   7.514  0.3427  0.8363  0.1127
  657MOL0     C90551   2.086   9.730   7.635  0.0468  0.4231  0.1324
  657MOL0     O90552   2.089   9.585   7.633 -0.2819 -0.2914  0.4138
  657MOL0     C90553   2.197   9.515   7.677  0.9142  0.0877  0.8891
  657MOL0     C90554   2.328   9.537   7.623 -0.5061 -0.5876  0.2316
  657MOL0     C90555   2.426   9.440   7.655 -1.5168  0.8402 -0.3430
  657MOL0     C90556   2.567   9.496   7.609 -0.0570  0.4191 -0.4584
  657MOL0     C90557   2.406   9.324   7.740  0.7243 -0.4686 -0.5460
  657MOL0     C90558   2.507   9.233   7.787  0.7345 -0.3631 -0.1671
  657MOL0     O90559   2.465   9.110   7.829  0.1350 -0.9580 -0.8808
  657MOL0     C90560   2.566   9.014   7.822 -0.2522 -0.9817 -0.0469
  657MOL0     C90561   2.652   8.998   7.932 -0.3490 -0.1049  0.5273
  657MOL0     C90562   2.732   8.887   7.932  1.4018 -0.3759  0.4760
  657MOL0     C90563   2.724   8.788   7.838 -0.0782 -0.6951  0.4783
  657MOL0     O90564   2.804   8.681   7.838  0.4066  0.3613 -0.4220
  657MOL0     C90565   2.744   8.582   7.932  0.3715  0.4881 -0.2757
  657MOL0     C90566   2.809   8.444   7.917 -0.3614 -0.1995  0.2609
  657MOL0     C90567   2.761   8.367   7.796 -0.2332  0.1381 -1.2853
  657MOL0     C90568   2.782   8.217   7.814 -0.4107 -0.5875  0.0606
  657MOL0     C90569   2.697   8.158   7.706  0.6179 -0.0622 -0.2457
  657MOL0     C90570   2.741   8.019   7.686 -0.0275  0.1320  0.3738
  657MOL0     C90571   2.711   7.932   7.812 -0.2004  0.4762 -0.1411
  657MOL0     C90572   2.761   7.789   7.787  0.1442 -0.7344 -0.3109
  657MOL0    Cl90573   2.775   7.697   7.938 -0.1990 -0.2919 -0.2776
  657MOL0     C90574   2.633   8.803   7.734 -0.4268  0.3418 -0.1769
  657MOL0     C90575   2.557   8.920   7.723  0.2696  1.0002  0.2900
  657MOL0     O90576   2.622   9.271   7.773 -0.3592 -0.3007 -0.7844
  657MOL0     C90577   2.272   9.311   7.785  0.1084  0.6510  0.0819
  657MOL0     C90578   2.175   9.403   7.754  0.3470  0.2265  0.4525
  657MOL0     N90579   1.862   9.960   7.162  0.8176  0.2529  0.6885
  657MOL0     N90580   1.907  10.072   7.131  0.8437 -0.0846 -0.0826
  657MOL0     C90581   2.266  10.740   7.723 -0.8757  0.1293  0.7012
  657MOL0     C90582   2.163  10.838   7.735 -0.8775  0.8883 -0.3254
  657MOL0     C90583   1.894  11.195   7.744  0.3961 -0.6127  0.3263
  657MOL0     C90584   1.861  11.263   7.620 -0.2804  0.3046 -0.4821
  657MOL0     C90585   1.770  11.368   7.612  0.5855 -0.2266  0.2820
  657MOL0     C90586   1.720  11.433   7.721 -0.2956 -0.4162 -0.3257
  657MOL0     O90587   1.633  11.542   7.729  0.0992  0.3150  0.2768
  657MOL0     C90588   1.657  11.635   7.623 -0.3474  1.3934  0.4812
  657MOL0     C90589   1.621  11.781   7.673  0.3104  0.5681  0.3541
  657MOL0     C90590   1.637  11.807   7.829  0.8356  0.9417 -0.0418
  657MOL0     C90591   1.762  11.758   7.907  1.1409  0.3513  0.0729
  657MOL0     C90592   1.872  11.861   7.892  0.1888  0.2549  0.4425
  657MOL0     C90593   1.967  11.943   7.881  1.8948  0.3874 -0.5879
  657MOL0     C90594   1.752  11.372   7.844  1.1648  0.4764  0.1410
  657MOL0     C90595   1.835  11.256   7.859  0.4560  0.8762 -0.7064
  657MOL0     C90596   1.864  11.219   8.003 -0.3648  0.5913 -0.2223
  657MOL0     H90597   2.276  11.072   7.521 -2.0088  0.3529 -2.4859
  657MOL0     H90598   2.450  10.918   7.494  1.1417  0.8208  2.6992
  657MOL0     H90599   2.380  10.513   7.571  0.3236 -0.2408 -0.1401
  657MOL0     H90600   2.440  10.504   7.738  1.6237  0.8692  1.4547
  657MOL0     H90601   2.671  10.487   7.635  0.6058 -0.7168 -1.0473
  657MOL0     H90602   2.572  10.355   7.586 -0.4594 -0.3246 -2.0512
  657MOL0     H90603   2.660  10.598   7.428 -2.2329  0.6563 -0.3641
  657MOL0     H90604   2.701  10.429   7.408 -1.5195 -2.0058  0.5975
  657MOL0     H90605   2.438  10.562   7.341 -0.9017 -1.9442  0.8146
  657MOL0     H90606   2.542  10.503   7.222  0.6336  0.2476  0.7407
  657MOL0     H90607   2.413  10.300   7.422  1.1082 -0.3285 -0.0596
  657MOL0     H90608   2.516  10.279   7.284  0.3934  0.7208 -0.9773
  657MOL0     H90609   2.247  10.411   7.291 -1.8116 -3.4163  2.1271
  657MOL0     H90610   2.331  10.355   7.133  1.2593 -2.6379 -0.4515
  657MOL0     H90611   2.189  10.191   7.357 -4.1471 -2.0301 -0.9298
  657MOL0     H90612   2.309  10.125   7.248 -2.9782 -2.3939 -1.4397
  657MOL0     H90613   2.068  10.276   7.153  1.0133  1.4346 -3.7307
  657MOL0     H90614   2.171  10.179   7.059 -1.6646  2.6664 -0.8821
  657MOL0     H90615   2.151   9.928   7.286  1.3923 -0.7271 -2.1723
  657MOL0     H90616   1.870   9.680   7.221  1.1180 -0.8016  0.9917
  657MOL0     H90617   1.809   9.785   7.349  2.3703  0.2230  1.5914
  657MOL0     H90618   1.967   9.597   7.411 -0.2710  0.3749  0.5473
  657MOL0     H90619   2.102   9.690   7.346  0.8389 -3.6942  0.3679
  657MOL0     H90620   2.038   9.887   7.493  0.7547  0.5734 -0.4964
  657MOL0     H90621   1.904   9.795   7.561 -0.3850 -2.1105 -0.6318
  657MOL0     H90622   2.188   9.769   7.632  1.1385 -2.0617  2.1187
  657MOL0     H90623   2.035   9.756   7.728 -1.5523  2.2676 -1.1659
  657MOL0     H90624   2.361   9.627   7.574 -1.6946 -0.0176  0.4431
  657MOL0     H90625   2.604   9.562   7.688  0.8275 -1.1836  0.5191
  657MOL0     H90626   2.563   9.537   7.508  0.5742 -2.8652 -1.9423
  657MOL0     H90627   2.644   9.419   7.594 -0.1214  0.3715 -0.5454
  657MOL0     H90628   2.663   9.078   8.005 -2.6053  2.0805 -1.3092
  657MOL0     H90629   2.798   8.863   8.014  0.0548 -0.6886  1.5018
  657MOL0     H90630   2.768   8.624   8.030 -1.9328 -1.3127  1.1757
  657MOL0     H90631   2.637   8.572   7.913  0.8480  2.1600 -5.1577
  657MOL0     H90632   2.918   8.441   7.923 -0.4108  0.2612  1.8519
  657MOL0     H90633   2.791   8.393   8.013  1.3677 -3.6104 -1.0632
  657MOL0     H90634   2.803   8.405   7.702  1.6342 -0.9731 -0.9481
  657MOL0     H90635   2.653   8.385   7.787 -0.5518  1.2855  2.7627
  657MOL0     H90636   2.749   8.183   7.913 -1.6165  1.6437  0.4849
  657MOL0     H90637   2.886   8.184   7.802 -0.4044 -0.4495 -0.2759
  657MOL0     H90638   2.591   8.167   7.732  0.6843 -0.5742  0.2244
  657MOL0     H90639   2.707   8.209   7.610  0.2843 -2.6583 -1.7713
  657MOL0     H90640   2.848   8.008   7.666 -0.1386  0.0380 -0.1676
  657MOL0     H90641   2.677   7.986   7.604  0.1386  0.7944 -0.0272
  657MOL0     H90642   2.604   7.919   7.829 -0.0432  0.6749  1.1017
  657MOL0     H90643   2.759   7.954   7.908  0.8538 -1.8152 -0.0730
  657MOL0     H90644   2.859   7.803   7.742  0.1376  3.3304  0.5215
  657MOL0     H90645   2.689   7.746   7.717 -0.7469  0.9917 -0.5069
  657MOL0     H90646   2.616   8.723   7.663  0.3081  0.1983 -0.2038
  657MOL0     H90647   2.493   8.919   7.635  1.1908  0.9141 -0.4003
  657MOL0     H90648   2.229   9.233   7.848  3.0342  0.0984  1.5540
  657MOL0     H90649   2.070   9.391   7.780 -0.0874 -6.1998 -2.4135
  657MOL0     H90650   2.267  10.644   7.773 -0.7980 -1.3311 -1.9226
  657MOL0     H90651   2.072  10.809   7.786 -1.0574  0.1686 -1.0518
  657MOL0     H90652   1.899  11.209   7.534  1.3986 -0.7691  0.8579
  657MOL0     H90653   1.759  11.407   7.512 -2.6189 -1.2820  0.1233
  657MOL0     H90654   1.759  11.638   7.585 -0.2547  4.4471  0.7337
  657MOL0     H90655   1.603  11.602   7.534  2.1153 -1.8438 -0.0165
  657MOL0     H90656   1.514  11.801   7.660 -0.1298 -0.0372  2.6608
  657MOL0     H90657   1.689  11.849   7.621 -1.1537  2.8699  1.2739
  657MOL0     H90658   1.611  11.908   7.862  0.0970 -0.0213  2.5917
  657MOL0     H90659   1.546  11.754   7.858  0.8749  1.2313  0.6463
  657MOL0     H90660   1.790  11.655   7.886  3.0396  0.0200  3.5348
  657MOL0     H90661   1.730  11.757   8.012 -2.5619 -4.4923 -0.7365
  657MOL0     H90662   2.046  12.014   7.878  4.8538 -2.5635  1.0279
  657MOL0     H90663   1.698  11.414   7.928 -0.5709 -0.6362 -0.3586
  657MOL0     H90664   1.769  11.181   8.042 -2.6462  4.5225 -1.3928
  657MOL0     H90665   1.949  11.150   8.016  0.0098  1.2700  1.1128
  657MOL0     H90666   1.885  11.312   8.056  1.5447  0.0085  0.1386
  658MOL0     O90667   5.154   7.835   6.355 -0.2070 -0.3264  0.1318
  658MOL0     C90668   5.227   7.933   6.332 -0.5711 -0.5445  0.8551
  658MOL0     O90669   5.343   7.967   6.395  0.7333  1.3707 -0.2604
  658MOL0     C90670   5.365   7.894   6.515  0.5836 -1.1326 -0.3906
  658MOL0     C90671   5.353   7.973   6.632  0.1484  0.6273 -1.0093
  658MOL0     C90672   5.366   7.909   6.759 -0.1997  0.8851  0.6418
  658MOL0     C90673   5.418   7.773   6.772 -0.5718 -0.8459 -0.0095
  658MOL0     O90674   5.453   7.716   6.890  0.2432  0.6127  0.5482
  658MOL0     C90675   5.577   7.740   6.946 -0.7861  0.9224  0.2411
  658MOL0     C90676   5.702   7.672   6.874  0.1683  0.1782 -0.0156
  658MOL0     C90677   5.834   7.722   6.937  1.1280  0.5241  0.5291
  658MOL0     C90678   5.907   7.617   7.009 -0.6073  1.6284  0.4259
  658MOL0     C90679   5.973   7.513   6.929 -0.5769  0.1093  0.3202
  658MOL0     C90680   6.120   7.525   6.947  0.2697 -1.1776  0.2644
  658MOL0     C90681   6.179   7.390   6.888  1.3897  0.1998 -0.2992
  658MOL0     C90682   6.329   7.385   6.900  0.4577  0.9307  0.6735
  658MOL0     N90683   6.386   7.264   6.823  0.8482  0.4467  0.3813
  658MOL0     C90684   6.496   7.194   6.860  0.2372  0.2354  0.2514
  658MOL0     C90685   6.483   7.072   6.789  0.9553  0.5350 -0.4151
  658MOL0     C90686   6.610   6.979   6.773  0.2238  0.3955  0.1125
  658MOL0     C90687   6.583   6.826   6.768 -0.7695 -0.0940 -1.0411
  658MOL0     C90688   6.722   6.757   6.742  0.3675 -0.3231 -0.1921
  658MOL0     C90689   6.700   6.611   6.725 -1.1739 -0.2046 -0.6492
  658MOL0     O90690   6.819   6.557   6.654  0.1017  0.5197  0.1717
  658MOL0     C90691   6.932   6.571   6.719 -0.6393  0.1686 -0.6830
  658MOL0     C90692   7.036   6.650   6.668  0.6663 -0.2216 -0.2803
  658MOL0     C90693   7.155   6.681   6.738  0.3024 -0.1713  1.1324
  658MOL0     C90694   7.247   6.763   6.668 -0.1648  0.4815 -0.1853
  658MOL0     C90695   7.182   6.602   6.853 -1.3161  0.5611  0.5175
  658MOL0     C90696   7.315   6.608   6.922  0.5628  0.1670  0.0627
  658MOL0     O90697   7.350   6.500   7.004  0.6290  0.1854  0.5397
  658MOL0     C90698   7.435   6.520   7.110  1.7177 -0.9813 -1.6244
  658MOL0     C90699   7.573   6.507   7.104  0.7458  0.4009  0.1901
  658MOL0     C90700   7.652   6.528   7.216 -0.6365  0.1090  0.0719
  658MOL0     C90701   7.590   6.568   7.339  0.0175 -0.1681  0.6310
  658MOL0     O90702   7.645   6.584   7.463  0.3595  1.1171 -0.7637
  658MOL0     C90703   7.780   6.527   7.479 -0.6934 -0.2287 -0.2020
  658MOL0     C90704   7.870   6.640   7.437 -0.0362 -0.3592  0.1975
  658MOL0     C90705   7.868   6.769   7.516  0.2468 -0.0643  0.2258
  658MOL0     C90706   8.005   6.832   7.492  0.1593  0.4868 -0.3367
  658MOL0     C90707   8.013   6.975   7.555 -1.1618 -0.6252 -0.6012
  658MOL0     C90708   8.004   6.987   7.711 -0.2524  0.6028 -0.2630
  658MOL0     C90709   7.938   7.123   7.754 -0.6215  0.3338 -0.1934
  658MOL0     C90710   7.789   7.137   7.731 -0.1704  0.3658 -0.0830
  658MOL0    Cl90711   7.714   7.026   7.844 -0.2706 -0.5224  0.0423
  658MOL0     C90712   7.454   6.580   7.343 -0.3424 -0.4213 -0.0098
  658MOL0     C90713   7.373   6.565   7.227  0.2996  0.6547 -0.4205
  658MOL0     O90714   7.378   6.712   6.910 -0.2401  0.1294  0.6258
  658MOL0     C90715   7.078   6.520   6.903  0.5037 -0.4803  0.0991
  658MOL0     C90716   6.952   6.507   6.839 -0.0961 -0.0110 -0.5701
  658MOL0     N90717   6.368   7.083   6.710 -0.2797 -0.4315 -0.4256
  658MOL0     N90718   6.312   7.189   6.741  1.0193 -0.3964 -0.0286
  658MOL0     C90719   5.445   7.707   6.649  0.3256  0.7606  0.4746
  658MOL0     C90720   5.407   7.764   6.521 -1.0312  0.0706 -0.8581
  658MOL0     C90721   5.209   8.005   6.202  0.7299 -0.6598 -0.0237
  658MOL0     C90722   5.321   8.076   6.150 -0.5306 -0.8148  0.1391
  658MOL0     C90723   5.323   8.153   6.034 -0.5422  0.6085 -1.1318
  658MOL0     C90724   5.210   8.159   5.962  0.7605 -0.0828 -0.2201
  658MOL0     O90725   5.222   8.224   5.845  0.4104  0.5308  0.4835
  658MOL0     C90726   5.123   8.214   5.749  0.0225  1.1030  0.9369
  658MOL0     C90727   5.133   8.095   5.663 -1.0673  0.9319  0.7456
  658MOL0     C90728   5.266   8.013   5.679  0.3651 -0.0275  0.0510
  658MOL0     C90729   5.290   7.914   5.567  0.9024  0.0124  0.3531
  658MOL0     C90730   5.410   7.843   5.585 -0.3363  0.0102 -0.4128
  658MOL0     C90731   5.489   7.752   5.585  0.3383 -0.1179 -0.0305
  658MOL0     C90732   5.094   8.098   6.013  0.2107  0.8166 -0.7150
  658MOL0     C90733   5.086   8.016   6.123 -1.0272  0.5021  0.2797
  658MOL0     C90734   4.962   7.957   6.176  0.8470  0.4020  0.1191
  658MOL0     H90735   5.315   8.074   6.646 -0.8668 -0.0058  1.1744
  658MOL0     H90736   5.375   7.968   6.850 -2.4998 -0.4691  1.8379
  658MOL0     H90737   5.572   7.710   7.051 -2.8456  2.0382  0.5217
  658MOL0     H90738   5.591   7.848   6.942  0.3149  0.7562 -1.6011
  658MOL0     H90739   5.698   7.563   6.880  2.3120 -0.0162 -1.2007
  658MOL0     H90740   5.701   7.689   6.766 -2.1804 -2.0970 -0.4488
  658MOL0     H90741   5.894   7.784   6.869  1.7420  1.9645  2.3063
  658MOL0     H90742   5.810   7.790   7.019 -2.6238  3.8734 -2.8701
  658MOL0     H90743   5.983   7.675   7.062  0.6549 -0.5576  1.1658
  658MOL0     H90744   5.839   7.565   7.077  1.4990 -0.7817  0.8669
  658MOL0     H90745   5.941   7.530   6.826  5.9392  0.7013 -2.0447
  658MOL0     H90746   5.939   7.415   6.965 -2.0102  0.8992  1.1834
  658MOL0     H90747   6.157   7.612   6.893  1.8909 -0.4623  2.3781
  658MOL0     H90748   6.153   7.534   7.051  1.1848 -2.3980  0.0984
  658MOL0     H90749   6.136   7.380   6.788  1.3349 -1.1130 -0.1541
  658MOL0     H90750   6.132   7.305   6.938  4.1516  0.6366  3.5326
  658MOL0     H90751   6.387   7.471   6.866 -1.6569  2.4262  0.6783
  658MOL0     H90752   6.353   7.377   7.006 -0.9510  0.1273  0.9626
  658MOL0     H90753   6.582   7.230   6.915  1.7701 -1.1760 -1.1125
  658MOL0     H90754   6.675   6.994   6.860  0.9891 -1.0677 -0.1763
  658MOL0     H90755   6.661   7.018   6.685  0.4125  1.4347  0.6685
  658MOL0     H90756   6.532   6.798   6.861 -0.5813  0.1820 -0.8552
  658MOL0     H90757   6.519   6.805   6.681 -0.2558 -0.5018 -1.3265
  658MOL0     H90758   6.768   6.806   6.656 -0.8191  3.5625  1.1763
  658MOL0     H90759   6.795   6.780   6.820  1.6405 -0.2219 -1.3775
  658MOL0     H90760   6.678   6.557   6.817  1.2115  0.4060  0.3541
  658MOL0     H90761   6.618   6.600   6.653  0.3405 -2.5346 -2.1475
  658MOL0     H90762   7.028   6.685   6.565  0.8466  2.4539  0.5323
  658MOL0     H90763   7.234   6.869   6.690 -1.1809  0.1748  0.8169
  658MOL0     H90764   7.238   6.749   6.560  3.7135  2.1018 -0.8934
  658MOL0     H90765   7.346   6.719   6.685 -1.7748 -3.7749 -0.5075
  658MOL0     H90766   7.620   6.468   7.014  0.9500 -0.8951  0.8392
  658MOL0     H90767   7.758   6.517   7.199 -0.6999  2.6087 -2.7295
  658MOL0     H90768   7.803   6.492   7.580 -2.7503  0.5752  0.6116
  658MOL0     H90769   7.796   6.448   7.405  0.9284  1.2157 -1.4591
  658MOL0     H90770   7.975   6.606   7.439 -0.5450 -2.3597 -2.3607
  658MOL0     H90771   7.850   6.674   7.335 -2.6704  2.7664  1.5983
  658MOL0     H90772   7.842   6.760   7.622 -1.3120  2.8413  0.1834
  658MOL0     H90773   7.787   6.828   7.471 -0.2296 -1.0655 -0.2835
  658MOL0     H90774   8.026   6.852   7.387  1.7057  4.5982  0.5579
  658MOL0     H90775   8.088   6.773   7.533 -0.8470  0.0967  1.2471
  658MOL0     H90776   8.108   7.026   7.536 -1.4658  0.4852  0.7049
  658MOL0     H90777   7.930   7.032   7.512 -0.4573 -0.0546 -1.2361
  658MOL0     H90778   8.098   6.977   7.767  0.4329 -3.9853 -1.8003
  658MOL0     H90779   7.942   6.903   7.744 -0.6776 -0.1875 -2.8575
  658MOL0     H90780   7.999   7.202   7.710  2.6025 -0.7010  1.9856
  658MOL0     H90781   7.950   7.139   7.862  0.2116 -1.2278 -0.0196
  658MOL0     H90782   7.760   7.104   7.630 -0.0380  1.0380 -0.3427
  658MOL0     H90783   7.763   7.240   7.754 -0.4738 -0.2271  2.6195
  658MOL0     H90784   7.404   6.621   7.430 -0.9076  0.4991 -0.7396
  658MOL0     H90785   7.265   6.554   7.228  0.5169 -2.9230 -0.7420
  658MOL0     H90786   7.082   6.458   6.993  0.9658  0.1292  0.5110
  658MOL0     H90787   6.878   6.441   6.884  0.5419 -0.5022 -0.2179
  658MOL0     H90788   5.486   7.606   6.649 -0.7523  0.2426 -2.0796
  658MOL0     H90789   5.434   7.718   6.426  1.0694 -0.8392  0.1092
  658MOL0     H90790   5.418   8.060   6.197 -0.7049 -0.1529  0.7427
  658MOL0     H90791   5.416   8.188   5.990  1.4181 -1.0423  1.3619
  658MOL0     H90792   5.021   8.226   5.786 -1.3482 -0.8862 -1.8163
  658MOL0     H90793   5.129   8.295   5.677 -1.0272 -2.2184 -3.3074
  658MOL0     H90794   5.119   8.119   5.557 -1.1360 -1.7156  0.0816
  658MOL0     H90795   5.058   8.018   5.684  0.7748 -0.4663  2.6556
  658MOL0     H90796   5.354   8.078   5.675  0.0730  0.4023 -4.0186
  658MOL0     H90797   5.258   7.959   5.773 -0.7723 -1.4589 -0.8215
  658MOL0     H90798   5.298   7.968   5.472  2.3635 -0.4524  0.1850
  658MOL0     H90799   5.207   7.844   5.553  2.4566 -1.4070 -2.8078
  658MOL0     H90800   5.537   7.657   5.595  1.6464  0.6827  1.7995
  658MOL0     H90801   5.009   8.101   5.945 -0.7041  3.2036  0.4229
  658MOL0     H90802   4.880   7.977   6.106  2.2316 -1.0979 -2.0921
  658MOL0     H90803   4.968   7.849   6.193 -2.3164  0.3229  1.4133
  658MOL0     H90804   4.956   8.016   6.267  0.6529  2.4634 -1.1706
  659MOL0     O90805   1.765   2.373   3.900 -0.2232  0.0915  0.2437
  659MOL0     C90806   1.797   2.387   4.016  0.4207 -0.9420 -0.2490
  659MOL0     O90807   1.714   2.408   4.115  0.1467 -0.0376  0.3526
  659MOL0     C90808   1.579   2.401   4.096  0.0234 -0.3485 -0.6885
  659MOL0     C90809   1.514   2.328   4.194 -0.2184 -0.2294 -0.2846
  659MOL0     C90810   1.368   2.316   4.174 -0.5103 -0.2974  0.3868
  659MOL0     C90811   1.303   2.374   4.071 -0.4926  0.4136 -0.0555
  659MOL0     O90812   1.172   2.377   4.077 -0.0044 -0.6653  0.0967
  659MOL0     C90813   1.089   2.487   4.030 -0.2624 -0.3483  0.9508
  659MOL0     C90814   0.958   2.506   4.107  0.0737 -0.4207  0.3051
  659MOL0     C90815   0.974   2.537   4.258  0.2688  0.2840 -0.5567
  659MOL0     C90816   0.837   2.547   4.319  0.1514  0.2702  0.0908
  659MOL0     C90817   0.741   2.654   4.294  1.0354 -0.6555  0.8078
  659MOL0     C90818   0.787   2.796   4.357 -0.6117  0.4194 -0.3808
  659MOL0     C90819   0.684   2.903   4.340 -0.2517  0.3960 -0.0297
  659MOL0     C90820   0.733   3.042   4.362 -0.6209  0.1377  0.3005
  659MOL0     N90821   0.634   3.140   4.326  0.1505  0.3515  0.3271
  659MOL0     C90822   0.513   3.151   4.388  0.1244  1.0860  0.3192
  659MOL0     C90823   0.466   3.270   4.336 -0.6035 -0.0342 -0.0933
  659MOL0     C90824   0.344   3.332   4.402 -0.2147 -0.1783  0.1740
  659MOL0     C90825   0.290   3.465   4.354  0.0284  0.3815  0.1081
  659MOL0     C90826   0.274   3.462   4.194 -0.0710 -1.1554 -0.1727
  659MOL0     C90827   0.201   3.573   4.138 -0.0681  0.9262 -0.0115
  659MOL0     O90828   0.203   3.548   3.998 -0.1790 -0.7941  0.3849
  659MOL0     C90829   0.134   3.632   3.918  0.7869 -0.2423  0.4670
  659MOL0     C90830   0.078   3.591   3.795  0.5011 -0.1546 -0.2044
  659MOL0     C90831   0.021   3.675   3.701 -0.3573 -0.0922  0.0370
  659MOL0     C90832  -0.029   3.618   3.573  0.0238  0.0739  0.5090
  659MOL0     C90833   0.003   3.812   3.739  0.8534 -0.4244  0.3656
  659MOL0     C90834  -0.063   3.913   3.647 -0.3255  0.1478 -0.4751
  659MOL0     O90835  -0.023   4.048   3.677  0.8382 -0.5959 -0.1334
  659MOL0     C90836  -0.081   4.163   3.617 -0.2742 -0.5237  0.9070
  659MOL0     C90837  -0.140   4.169   3.489  0.6480 -0.0690  0.2165
  659MOL0     C90838  -0.206   4.290   3.441 -1.3055  0.1467 -0.7890
  659MOL0     C90839  -0.189   4.412   3.515  0.7559 -0.0069  1.0089
  659MOL0     O90840  -0.215   4.540   3.474 -0.3865 -0.2957 -0.1048
  659MOL0     C90841  -0.266   4.554   3.337  0.1247 -0.6259 -0.3019
  659MOL0     C90842  -0.288   4.696   3.281  0.2153 -0.6356 -0.0559
  659MOL0     C90843  -0.427   4.743   3.300 -0.1000 -0.3517 -0.1896
  659MOL0     C90844  -0.435   4.896   3.282  0.1450  0.2934  0.3518
  659MOL0     C90845  -0.565   4.947   3.341  0.5994 -0.5591  0.1646
  659MOL0     C90846  -0.689   4.899   3.272 -0.0532 -0.5261  0.2477
  659MOL0     C90847  -0.800   4.951   3.354  0.7830  0.7152 -0.2146
  659MOL0     C90848  -0.926   4.962   3.257  0.6491  0.4684 -1.0721
  659MOL0    Cl90849  -0.994   4.801   3.218 -0.1056 -0.0122  0.4151
  659MOL0     C90850  -0.126   4.399   3.638  0.0822  0.2523  0.0935
  659MOL0     C90851  -0.073   4.278   3.687  0.1853  0.2425 -0.6215
  659MOL0     O90852  -0.137   3.880   3.562  0.2242  1.1037  0.2662
  659MOL0     C90853   0.038   3.854   3.868  0.3551  0.1924  0.3489
  659MOL0     C90854   0.113   3.771   3.955 -0.3820  0.1285 -0.8658
  659MOL0     N90855   0.543   3.318   4.232  0.0704  0.1754  0.6080
  659MOL0     N90856   0.653   3.237   4.236  0.4004 -0.1597 -1.1094
  659MOL0     C90857   1.374   2.434   3.965  0.1358 -0.0152 -0.7459
  659MOL0     C90858   1.513   2.459   3.979  0.1288  0.8141  0.6728
  659MOL0     C90859   1.935   2.389   4.055 -0.5849 -0.1568 -0.3745
  659MOL0     C90860   1.973   2.380   4.193 -0.2421 -0.8688 -0.3889
  659MOL0     C90861   2.102   2.357   4.235  0.5745 -0.6971  0.0952
  659MOL0     C90862   2.194   2.368   4.126  0.3374 -0.2212  0.3270
  659MOL0     O90863   2.328   2.362   4.158  0.2645 -0.5567 -0.4244
  659MOL0     C90864   2.399   2.477   4.115 -0.1426 -0.9520 -0.5420
  659MOL0     C90865   2.348   2.612   4.156  0.4965 -0.4079  0.1387
  659MOL0     C90866   2.438   2.730   4.123  0.3797 -0.0197 -0.2642
  659MOL0     C90867   2.570   2.732   4.197  0.8309 -0.7742 -0.5060
  659MOL0     C90868   2.635   2.859   4.172  0.3903 -0.0239 -0.7427
  659MOL0     C90869   2.692   2.965   4.155  0.2469 -0.4870 -0.0873
  659MOL0     C90870   2.156   2.384   3.994 -0.0765  0.0158 -0.3731
  659MOL0     C90871   2.026   2.397   3.951 -0.1489  0.3148 -0.3421
  659MOL0     C90872   1.999   2.409   3.802 -0.5177 -0.4176 -0.0903
  659MOL0     H90873   1.566   2.294   4.283 -2.5324  2.4947  2.3153
  659MOL0     H90874   1.306   2.282   4.256 -1.6663 -0.4941 -0.5315
  659MOL0     H90875   1.062   2.468   3.925 -1.7862  1.9776  0.8505
  659MOL0     H90876   1.143   2.581   4.036  1.8815 -1.4539  0.1928
  659MOL0     H90877   0.915   2.592   4.055  3.1344  0.9422 -0.2085
  659MOL0     H90878   0.889   2.422   4.094  0.1633 -0.6458  1.1878
  659MOL0     H90879   1.024   2.451   4.301  3.1137  1.0649 -2.0864
  659MOL0     H90880   1.031   2.629   4.278 -1.6483  1.0287  1.9719
  659MOL0     H90881   0.792   2.454   4.284  1.9788 -0.2653 -1.0120
  659MOL0     H90882   0.850   2.547   4.428  2.7076  1.1085 -0.1250
  659MOL0     H90883   0.642   2.619   4.325  1.3939 -2.7821 -0.2868
  659MOL0     H90884   0.727   2.659   4.186  0.4179 -0.7969  0.8792
  659MOL0     H90885   0.816   2.781   4.462  1.2513 -0.9315 -1.0431
  659MOL0     H90886   0.876   2.822   4.300  0.7364  0.9809  1.8591
  659MOL0     H90887   0.608   2.881   4.415 -1.6675  1.6568 -1.0229
  659MOL0     H90888   0.645   2.896   4.238 -1.7816  0.1664  0.5515
  659MOL0     H90889   0.775   3.069   4.460 -0.1710  0.3542  0.0514
  659MOL0     H90890   0.824   3.069   4.308 -0.5161  1.1361  0.9407
  659MOL0     H90891   0.488   3.079   4.465  1.0526  0.3003 -0.0885
  659MOL0     H90892   0.377   3.343   4.506 -1.1701 -4.3991  1.1407
  659MOL0     H90893   0.265   3.257   4.411 -0.9192  0.7761  3.1381
  659MOL0     H90894   0.190   3.484   4.394 -0.2235  3.6661 -1.6392
  659MOL0     H90895   0.361   3.543   4.385  1.0475 -0.8927  1.0527
  659MOL0     H90896   0.372   3.461   4.145 -0.5519 -0.4961 -1.1876
  659MOL0     H90897   0.221   3.372   4.159 -2.3533  0.5025 -1.2812
  659MOL0     H90898   0.099   3.571   4.177 -1.0165 -0.1755 -2.3462
  659MOL0     H90899   0.245   3.668   4.170 -1.4672  1.3258  0.8280
  659MOL0     H90900   0.090   3.487   3.764  0.6842 -0.3514  0.5072
  659MOL0     H90901   0.014   3.679   3.493 -1.7664 -3.2649 -3.3346
  659MOL0     H90902  -0.138   3.620   3.571 -0.0115 -1.3950 -0.5139
  659MOL0     H90903   0.009   3.518   3.550  3.2147  1.4482 -0.8931
  659MOL0     H90904  -0.150   4.072   3.441  0.1285 -0.4792  1.1254
  659MOL0     H90905  -0.246   4.277   3.341 -1.8623 -1.5785 -0.3714
  659MOL0     H90906  -0.201   4.500   3.269 -0.0498 -2.7956  1.1651
  659MOL0     H90907  -0.363   4.504   3.326 -0.9898  1.6120 -1.6888
  659MOL0     H90908  -0.219   4.747   3.348  2.1129 -4.0949  0.8870
  659MOL0     H90909  -0.250   4.698   3.178 -0.5350 -3.9462 -0.5092
  659MOL0     H90910  -0.464   4.718   3.400  0.1087  1.2916  0.3212
  659MOL0     H90911  -0.485   4.695   3.220  1.1328 -1.0499 -0.6959
  659MOL0     H90912  -0.430   4.914   3.174  1.3971  0.0559  0.3503
  659MOL0     H90913  -0.350   4.942   3.333 -1.0079  1.3842  1.3288
  659MOL0     H90914  -0.563   4.925   3.448 -0.2296 -0.2771  0.2392
  659MOL0     H90915  -0.569   5.056   3.339  0.2006 -0.4460  3.1840
  659MOL0     H90916  -0.696   4.790   3.262 -6.4329 -0.2948 -2.1075
  659MOL0     H90917  -0.685   4.940   3.171 -2.0031 -0.9213 -0.0170
  659MOL0     H90918  -0.787   5.051   3.395 -1.6614  1.1878 -0.4713
  659MOL0     H90919  -0.818   4.887   3.442  2.5559  0.5725  0.0806
  659MOL0     H90920  -0.899   5.005   3.160  1.8581 -0.1270 -1.0300
  659MOL0     H90921  -1.005   5.026   3.295  0.5412 -0.9447  1.3013
  659MOL0     H90922  -0.112   4.493   3.691  2.2897 -0.0221  0.0903
  659MOL0     H90923  -0.014   4.268   3.777  0.2956  3.1339 -0.2612
  659MOL0     H90924   0.024   3.959   3.890 -3.0493  0.4340 -2.1856
  659MOL0     H90925   0.156   3.816   4.044 -1.5835  0.9006 -0.6521
  659MOL0     H90926   1.326   2.469   3.875 -0.9083  1.9974  0.4999
  659MOL0     H90927   1.576   2.510   3.907 -0.1746 -0.4661 -0.5444
  659MOL0     H90928   1.892   2.370   4.264 -1.1481 -3.2092 -1.6735
  659MOL0     H90929   2.133   2.337   4.338 -0.1240  2.7888  1.1286
  659MOL0     H90930   2.496   2.465   4.163 -0.5552 -3.9653 -0.2706
  659MOL0     H90931   2.424   2.479   4.008 -1.6869  0.0494 -0.9084
  659MOL0     H90932   2.340   2.597   4.265  3.7743 -0.1234  0.5106
  659MOL0     H90933   2.246   2.619   4.118 -0.2208 -2.2582  1.5152
  659MOL0     H90934   2.470   2.724   4.018  3.4577  2.1563  0.4039
  659MOL0     H90935   2.390   2.827   4.135  1.7556  0.4552  2.1064
  659MOL0     H90936   2.627   2.650   4.153  0.7330  0.6227 -3.4934
  659MOL0     H90937   2.553   2.718   4.304 -3.3376  0.5253 -0.8458
  659MOL0     H90938   2.756   3.050   4.142  1.1029 -0.7589  1.8775
  659MOL0     H90939   2.234   2.394   3.919 -0.7346 -0.4246 -1.1319
  659MOL0     H90940   1.941   2.501   3.791 -0.5830 -0.1721  1.8151
  659MOL0     H90941   2.095   2.423   3.750 -0.9360  0.7874 -0.5664
  659MOL0     H90942   1.942   2.323   3.766  3.1232 -3.1543  0.0309
  660MOL0     O90943   7.765   7.044   1.253  0.0847  0.0440  0.1418
  660MOL0     C90944   7.799   7.052   1.371 -0.5134  0.3655  0.6322
  660MOL0     O90945   7.905   6.981   1.418 -0.4486  0.0077 -0.2946
  660MOL0     C90946   7.977   6.916   1.318 -0.1922 -0.2950 -0.7861
  660MOL0     C90947   8.055   6.980   1.226 -0.1353  0.2113 -0.3179
  660MOL0     C90948   8.143   6.903   1.140 -0.2342 -0.1390  0.0864
  660MOL0     C90949   8.116   6.765   1.125 -1.0379 -0.3831  0.9595
  660MOL0     O90950   8.193   6.685   1.030 -0.3746 -0.6314 -0.4230
  660MOL0     C90951   8.139   6.569   0.971 -0.1550  0.6494 -0.3191
  660MOL0     C90952   8.207   6.518   0.841  0.3600  0.5273  0.4683
  660MOL0     C90953   8.094   6.478   0.736 -0.1541 -0.4475 -0.2292
  660MOL0     C90954   8.041   6.611   0.655 -0.2447  0.2277  0.7492
  660MOL0     C90955   7.908   6.594   0.576  0.3781  0.1210  0.6060
  660MOL0     C90956   7.858   6.722   0.506  0.3998 -0.7269  0.8476
  660MOL0     C90957   7.718   6.705   0.447  0.0318  0.4231 -0.1084
  660MOL0     C90958   7.586   6.701   0.537  0.1144 -0.0309  0.4162
  660MOL0     N90959   7.466   6.669   0.460 -0.2072  0.1972 -0.0983
  660MOL0     C90960   7.396   6.768   0.397 -0.7136  0.0967 -0.0022
  660MOL0     C90961   7.289   6.697   0.345  0.2380  1.3570 -0.6324
  660MOL0     C90962   7.187   6.753   0.255  1.1797 -1.1729 -0.5273
  660MOL0     C90963   7.239   6.726   0.112  0.9923 -0.3813 -0.4351
  660MOL0     C90964   7.161   6.795   0.000 -0.1993 -0.3566 -0.1837
  660MOL0     C90965   7.207   6.759  -0.138 -0.2636  0.0871 -0.0047
  660MOL0     O90966   7.341   6.790  -0.151 -0.2867 -0.0351  0.7662
  660MOL0     C90967   7.364   6.902  -0.222 -0.0898  0.4708  0.1814
  660MOL0     C90968   7.467   6.892  -0.310 -0.1555  0.1322  0.0461
  660MOL0     C90969   7.494   7.001  -0.396 -0.0679 -1.0666  0.0196
  660MOL0     C90970   7.600   6.961  -0.499 -0.2973  0.0166  0.2645
  660MOL0     C90971   7.434   7.132  -0.383 -0.5784  0.4575 -0.2618
  660MOL0     C90972   7.480   7.255  -0.464  0.6166  1.0107 -0.0574
  660MOL0     O90973   7.378   7.311  -0.529  0.5666 -0.9387  0.4571
  660MOL0     C90974   7.385   7.386  -0.644  0.7236  0.4437 -0.0820
  660MOL0     C90975   7.483   7.363  -0.731  0.1152  0.1149  0.3847
  660MOL0     C90976   7.502   7.448  -0.838 -0.0079 -0.4192  0.1898
  660MOL0     C90977   7.423   7.557  -0.863  0.4801  0.1211 -0.5734
  660MOL0     O90978   7.418   7.625  -0.979 -0.1960 -0.4779  0.4013
  660MOL0     C90979   7.541   7.702  -0.995  0.3153 -0.1163  0.1791
  660MOL0     C90980   7.530   7.804  -1.097 -0.6893 -0.6254 -0.1057
  660MOL0     C90981   7.440   7.920  -1.039  1.0944  0.2772  0.0955
  660MOL0     C90982   7.412   8.036  -1.150 -0.2804  0.5954  0.6156
  660MOL0     C90983   7.526   8.138  -1.155 -0.0993 -0.4563  0.4023
  660MOL0     C90984   7.487   8.253  -1.242 -0.0451  0.8222  0.1927
  660MOL0     C90985   7.596   8.353  -1.265  0.2934  0.3973 -0.5169
  660MOL0     C90986   7.703   8.305  -1.364 -0.0653  1.2985  0.4666
  660MOL0    Cl90987   7.624   8.329  -1.530  0.2811  0.0430 -0.4048
  660MOL0     C90988   7.328   7.584  -0.767 -1.1288 -0.7792  0.2694
  660MOL0     C90989   7.304   7.493  -0.665 -0.1432  0.6487 -0.6334
  660MOL0     O90990   7.591   7.285  -0.475  0.5193 -0.1817  0.1290
  660MOL0     C90991   7.331   7.138  -0.288 -0.8376 -0.0685 -0.1633
  660MOL0     C90992   7.302   7.028  -0.213  0.8078 -0.0277 -0.2974
  660MOL0     N90993   7.303   6.562   0.386  0.7924 -0.3281  0.1175
  660MOL0     N90994   7.416   6.543   0.449  0.0812  0.3232 -1.3763
  660MOL0     C90995   8.024   6.707   1.210 -0.6291 -0.4735 -0.8773
  660MOL0     C90996   7.960   6.777   1.313  0.6919 -0.5843 -0.3161
  660MOL0     C90997   7.726   7.135   1.465  0.7420 -0.1238 -0.2387
  660MOL0     C90998   7.762   7.116   1.601  0.3631 -0.1950  1.2157
  660MOL0     C90999   7.697   7.186   1.704 -0.1979 -0.5797 -0.2070
  660MOL0     C91000   7.596   7.279   1.673  0.1757  0.8150 -0.0076
  660MOL0     O91001   7.548   7.341   1.779  0.2322 -0.4185 -0.4963
  660MOL0     C91002   7.448   7.450   1.754 -0.5202  0.7894  0.8705
  660MOL0     C91003   7.430   7.520   1.894 -0.0441  0.1319  0.3380
  660MOL0     C91004   7.572   7.550   1.960 -0.3786  0.0466  0.4094
  660MOL0     C91005   7.569   7.651   2.079  0.7603 -0.5677  0.4407
  660MOL0     C91006   7.496   7.591   2.190 -0.5750  0.5127 -0.3841
  660MOL0     C91007   7.417   7.535   2.265 -0.1083  0.4832 -0.3598
  660MOL0     C91008   7.567   7.306   1.540  0.4203  0.3572  0.5147
  660MOL0     C91009   7.628   7.231   1.435  0.0031 -0.2291  0.7066
  660MOL0     C91010   7.582   7.275   1.299 -0.1816  0.2053  0.1394
  660MOL0     H91011   8.071   7.087   1.233 -0.9600  0.3444 -0.4694
  660MOL0     H91012   8.213   6.961   1.081 -3.1801  1.6559 -1.9167
  660MOL0     H91013   8.036   6.589   0.942 -0.0038 -1.4030 -2.5671
  660MOL0     H91014   8.132   6.485   1.040 -1.1766  0.4040 -0.7026
  660MOL0     H91015   8.274   6.591   0.796  1.8546  0.0017  1.7261
  660MOL0     H91016   8.261   6.427   0.870  0.3674  0.4853  0.3202
  660MOL0     H91017   8.130   6.411   0.657 -2.9959 -0.3681 -1.7417
  660MOL0     H91018   8.002   6.447   0.786 -2.6089  2.0578 -2.7962
  660MOL0     H91019   8.022   6.695   0.722  0.6682  2.4149 -1.5902
  660MOL0     H91020   8.115   6.652   0.585  0.8223  0.9219  2.2253
  660MOL0     H91021   7.835   6.565   0.652  1.1656 -1.0963  0.9212
  660MOL0     H91022   7.915   6.515   0.500  0.8523  0.6484  0.0874
  660MOL0     H91023   7.850   6.803   0.579 -2.2516  1.7585 -1.9389
  660MOL0     H91024   7.938   6.739   0.433 -0.6503 -1.2832 -0.4695
  660MOL0     H91025   7.733   6.625   0.374 -0.0674  2.4286 -2.4794
  660MOL0     H91026   7.693   6.788   0.380 -1.3146  1.1289  1.2078
  660MOL0     H91027   7.591   6.630   0.621 -2.8498 -0.0522  0.6549
  660MOL0     H91028   7.574   6.804   0.570 -2.2200  0.8324 -2.6707
  660MOL0     H91029   7.419   6.874   0.398  1.7700 -0.3346 -1.8533
  660MOL0     H91030   7.176   6.860   0.277 -5.5972 -1.0171 -2.4212
  660MOL0     H91031   7.086   6.712   0.260  1.9978 -3.3023 -0.3677
  660MOL0     H91032   7.346   6.748   0.104  1.0926 -1.1172 -1.3389
  660MOL0     H91033   7.218   6.622   0.086 -0.5797 -0.7471  2.0233
  660MOL0     H91034   7.056   6.770   0.016  0.0957 -0.7768  1.3529
  660MOL0     H91035   7.169   6.904   0.009  1.9758 -0.4725 -0.0703
  660MOL0     H91036   7.181   6.654  -0.148 -1.5999  0.3237  0.7696
  660MOL0     H91037   7.148   6.810  -0.215  0.9163 -1.8614 -2.3484
  660MOL0     H91038   7.513   6.794  -0.318 -2.9662 -1.2805 -0.2811
  660MOL0     H91039   7.603   6.854  -0.519 -1.0671 -0.1440  0.9700
  660MOL0     H91040   7.697   6.988  -0.457 -0.6515  0.6482  0.7017
  660MOL0     H91041   7.592   7.007  -0.598 -0.2347 -4.1461 -1.8993
  660MOL0     H91042   7.559   7.290  -0.704  0.8341  1.0528  0.9591
  660MOL0     H91043   7.581   7.414  -0.905 -0.2402 -1.3952  0.3905
  660MOL0     H91044   7.556   7.753  -0.899 -2.4602  0.0868  0.5849
  660MOL0     H91045   7.627   7.646  -1.033  0.8947  1.6176 -1.2109
  660MOL0     H91046   7.629   7.835  -1.134  0.2285 -1.4722  1.5486
  660MOL0     H91047   7.488   7.766  -1.191  0.5687 -1.3218 -0.4123
  660MOL0     H91048   7.501   7.962  -0.958  1.8059 -1.3690  0.4450
  660MOL0     H91049   7.340   7.893  -1.005  1.2996 -0.4684  0.1215
  660MOL0     H91050   7.320   8.083  -1.115 -0.0244  2.9631 -1.5219
  660MOL0     H91051   7.409   7.990  -1.249  1.9739 -0.4393  0.9550
  660MOL0     H91052   7.546   8.183  -1.058  0.3591  0.9556 -0.3241
  660MOL0     H91053   7.612   8.077  -1.186 -0.1596 -0.9797  1.2235
  660MOL0     H91054   7.402   8.298  -1.190  1.4245  4.4141 -0.2192
  660MOL0     H91055   7.446   8.211  -1.335  2.9785 -1.5500 -0.2208
  660MOL0     H91056   7.654   8.360  -1.172  0.2935 -2.3737 -0.2246
  660MOL0     H91057   7.566   8.455  -1.290  2.1919  0.9088 -0.8701
  660MOL0     H91058   7.721   8.200  -1.341  0.5647  1.4137  0.5019
  660MOL0     H91059   7.803   8.349  -1.359  0.0563  0.9624  1.0987
  660MOL0     H91060   7.267   7.669  -0.795 -0.6651 -0.3807  0.4655
  660MOL0     H91061   7.220   7.498  -0.597  0.0745 -2.5924  0.0387
  660MOL0     H91062   7.274   7.231  -0.280 -0.5962 -0.0239  1.3601
  660MOL0     H91063   7.223   7.047  -0.142  2.3990  1.2580  1.2436
  660MOL0     H91064   8.009   6.599   1.216 -0.9960 -0.3815  0.0417
  660MOL0     H91065   7.901   6.720   1.385  1.0224  0.1021  0.5141
  660MOL0     H91066   7.840   7.045   1.623 -0.9744 -1.4073  2.1828
  660MOL0     H91067   7.719   7.156   1.806  2.3765  4.6359  1.1334
  660MOL0     H91068   7.482   7.518   1.676  2.7814 -0.0353  1.4507
  660MOL0     H91069   7.350   7.415   1.720 -1.2146  1.2072  2.3554
  660MOL0     H91070   7.377   7.448   1.957 -0.7045  2.0327  2.0456
  660MOL0     H91071   7.368   7.609   1.879  1.5971  1.7637  2.5165
  660MOL0     H91072   7.619   7.460   2.000 -0.2611  1.2890  3.2775
  660MOL0     H91073   7.639   7.592   1.884  2.7014 -0.0988  2.8313
  660MOL0     H91074   7.513   7.742   2.056  2.8713  1.3360  2.3835
  660MOL0     H91075   7.671   7.678   2.108  0.6539 -0.4466  0.7071
  660MOL0     H91076   7.352   7.474   2.324  1.8507 -0.1655  1.2691
  660MOL0     H91077   7.491   7.379   1.515  0.1262  0.1330  0.7426
  660MOL0     H91078   7.507   7.209   1.254  1.7135 -1.2758 -1.0163
  660MOL0     H91079   7.541   7.376   1.300  0.8196  0.6254  1.6907
  660MOL0     H91080   7.662   7.260   1.226 -1.2592 -3.0942 -0.5533
  661MOL0     O91081   7.425   2.517   5.950 -0.1119 -0.6231 -0.0932
  661MOL0     C91082   7.526   2.588   5.972 -0.5311  0.3728  0.3028
  661MOL0     O91083   7.626   2.545   6.037 -0.3364 -0.1628 -0.0667
  661MOL0     C91084   7.633   2.411   6.055 -0.3077  0.3112 -0.1429
  661MOL0     C91085   7.650   2.363   6.188  0.4155  0.2318  0.9266
  661MOL0     C91086   7.662   2.223   6.205 -0.1296 -0.0271  0.3003
  661MOL0     C91087   7.679   2.132   6.098 -0.6189  0.2704  0.2280
  661MOL0     O91088   7.676   1.997   6.139  0.5741  0.7965  0.2898
  661MOL0     C91089   7.769   1.923   6.057  0.7680 -0.0953 -0.9670
  661MOL0     C91090   7.805   1.790   6.138  0.3856 -1.2577 -0.3443
  661MOL0     C91091   7.943   1.744   6.078 -0.3697 -0.2003  0.1718
  661MOL0     C91092   7.977   1.597   6.118 -0.3803 -0.2257  0.7452
  661MOL0     C91093   8.127   1.562   6.077 -0.2480 -0.4579  0.5787
  661MOL0     C91094   8.161   1.419   6.081  0.3625  0.5859  0.5566
  661MOL0     C91095   8.305   1.401   6.036 -0.5757  0.0645 -0.5527
  661MOL0     C91096   8.324   1.259   5.980 -0.0966 -0.9600 -0.0306
  661MOL0     N91097   8.467   1.234   5.984 -0.6944  0.0367 -0.0048
  661MOL0     C91098   8.559   1.304   5.902  0.2658  0.2818 -0.8529
  661MOL0     C91099   8.681   1.253   5.929  0.0250 -0.5320 -0.5173
  661MOL0     C91100   8.813   1.299   5.863 -0.1586 -0.2174  0.0315
  661MOL0     C91101   8.805   1.269   5.711  0.2923  0.4646  0.4298
  661MOL0     C91102   8.821   1.122   5.677 -0.1187  0.8162 -0.8975
  661MOL0     C91103   8.691   1.070   5.617 -0.9129 -0.6229  0.6510
  661MOL0     O91104   8.680   1.118   5.483  0.4400  0.6958 -0.8634
  661MOL0     C91105   8.555   1.090   5.425 -1.1777  0.7104  0.4333
  661MOL0     C91106   8.544   1.144   5.291  0.1795  0.5976  0.1537
  661MOL0     C91107   8.426   1.122   5.216  0.1151  0.4019 -0.6456
  661MOL0     C91108   8.418   1.165   5.072 -0.5469 -0.2609 -0.2699
  661MOL0     C91109   8.306   1.067   5.282 -1.4613 -0.1840  0.8760
  661MOL0     C91110   8.181   1.043   5.202  0.2955 -0.1830 -1.0486
  661MOL0     O91111   8.175   1.071   5.066 -0.2666 -0.2784  0.0194
  661MOL0     C91112   8.074   1.048   4.982  0.0290 -0.2464  0.3986
  661MOL0     C91113   7.949   0.982   5.007  0.2960  0.0733 -0.3392
  661MOL0     C91114   7.863   0.962   4.898 -0.9419 -0.3097  0.6270
  661MOL0     C91115   7.888   0.999   4.771 -0.1949  0.1001 -0.2397
  661MOL0     O91116   7.784   0.949   4.689 -0.3027 -0.0350 -0.0240
  661MOL0     C91117   7.833   0.897   4.562  0.7259 -0.3467  0.3046
  661MOL0     C91118   7.923   0.775   4.584 -1.0357 -0.7303 -0.3350
  661MOL0     C91119   7.836   0.658   4.644 -0.4241  0.0684 -0.1201
  661MOL0     C91120   7.916   0.535   4.658  0.1368  0.5532  0.1912
  661MOL0     C91121   7.982   0.474   4.533 -1.2089  0.8311 -0.9223
  661MOL0     C91122   7.866   0.398   4.462 -0.1826  0.3121  0.4978
  661MOL0     C91123   7.910   0.294   4.357  0.4693  0.3034 -0.0216
  661MOL0     C91124   7.960   0.347   4.228  0.4955  0.3631  0.6891
  661MOL0    Cl91125   8.040   0.211   4.147  0.2618  0.8725 -0.3306
  661MOL0     C91126   8.002   1.075   4.740 -0.3369  0.9873 -1.1884
  661MOL0     C91127   8.094   1.105   4.846  0.4397  0.8724 -0.8843
  661MOL0     O91128   8.088   0.995   5.276  0.3245  0.0558 -0.0982
  661MOL0     C91129   8.321   1.014   5.410  0.2544  0.1174 -0.6420
  661MOL0     C91130   8.440   1.026   5.480 -0.8281 -0.6121 -0.1300
  661MOL0     N91131   8.661   1.143   6.016 -0.4807 -0.1924  0.3128
  661MOL0     N91132   8.531   1.132   6.047  0.4676 -0.0384  0.7940
  661MOL0     C91133   7.682   2.187   5.965 -0.6901  0.3356 -0.5028
  661MOL0     C91134   7.660   2.327   5.944 -0.7012  0.9283  0.2097
  661MOL0     C91135   7.560   2.716   5.913 -0.2384 -0.3492 -0.2436
  661MOL0     C91136   7.690   2.776   5.905  0.7205 -0.2775  0.0930
  661MOL0     C91137   7.706   2.900   5.842  0.4612 -0.0223 -0.3232
  661MOL0     C91138   7.594   2.972   5.793  0.8166  0.4150 -0.1660
  661MOL0     O91139   7.614   3.091   5.727 -0.9070 -0.6418  0.7888
  661MOL0     C91140   7.598   3.087   5.588 -0.3917  0.5007 -0.2494
  661MOL0     C91141   7.454   3.123   5.533 -0.2057 -0.3771 -0.4170
  661MOL0     C91142   7.482   3.149   5.383  0.0386 -0.3775 -0.4910
  661MOL0     C91143   7.359   3.190   5.304 -0.3073 -0.4144 -0.2170
  661MOL0     C91144   7.382   3.175   5.158 -0.4992 -0.5154  0.2413
  661MOL0     C91145   7.402   3.178   5.041  0.2539 -0.0921  1.2426
  661MOL0     C91146   7.467   2.920   5.805 -0.2830  0.4005  0.7110
  661MOL0     C91147   7.453   2.792   5.847  0.2039  0.0027 -0.9855
  661MOL0     C91148   7.311   2.755   5.865  0.1640  0.6774 -0.5390
  661MOL0     H91149   7.629   2.432   6.269 -1.6840 -0.0943  0.7153
  661MOL0     H91150   7.668   2.192   6.309  0.8819  0.9598  0.5630
  661MOL0     H91151   7.862   1.980   6.044 -0.6225  2.2886 -1.1898
  661MOL0     H91152   7.721   1.923   5.959  0.8354 -1.6290 -1.0110
  661MOL0     H91153   7.814   1.807   6.245 -1.9604 -0.4386 -0.2133
  661MOL0     H91154   7.726   1.715   6.126  0.0896 -1.7486  3.5839
  661MOL0     H91155   7.930   1.751   5.970 -2.5073  0.5278  0.4093
  661MOL0     H91156   8.026   1.811   6.101  0.0766 -1.2286  1.7454
  661MOL0     H91157   7.971   1.576   6.225 -1.3986  0.3949  0.8293
  661MOL0     H91158   7.904   1.530   6.072  1.0219 -2.0896  1.1611
  661MOL0     H91159   8.179   1.618   6.155 -0.1017 -0.5122  0.5208
  661MOL0     H91160   8.161   1.611   5.985  4.1468 -2.1513  1.0284
  661MOL0     H91161   8.132   1.382   6.180 -0.8724  2.8052  1.0880
  661MOL0     H91162   8.096   1.374   6.005  2.8392  0.5568 -1.6632
  661MOL0     H91163   8.356   1.404   6.132 -0.1468 -2.5907 -0.6385
  661MOL0     H91164   8.333   1.484   5.970  0.2237  0.3389  0.1155
  661MOL0     H91165   8.277   1.193   6.054 -2.3296  1.0146  0.4156
  661MOL0     H91166   8.282   1.243   5.880 -2.2108 -2.5254  1.0156
  661MOL0     H91167   8.546   1.380   5.826 -2.3300 -0.2691 -1.0713
  661MOL0     H91168   8.899   1.243   5.899  0.0937  0.2075  0.1013
  661MOL0     H91169   8.830   1.405   5.884 -1.5136  0.2761 -1.1518
  661MOL0     H91170   8.716   1.315   5.667 -1.5425 -2.0926  1.2576
  661MOL0     H91171   8.888   1.329   5.671 -1.1701  3.1199  1.1344
  661MOL0     H91172   8.900   1.101   5.604  0.3684 -1.6510  0.2482
  661MOL0     H91173   8.833   1.066   5.769  2.2596 -0.0802 -1.6856
  661MOL0     H91174   8.699   0.961   5.610  0.0406 -0.7018  2.3978
  661MOL0     H91175   8.610   1.107   5.680  1.8973  1.7844  3.1106
  661MOL0     H91176   8.630   1.198   5.253  0.6623  1.3441  2.1931
  661MOL0     H91177   8.401   1.074   5.014 -5.1603 -1.5529  2.5555
  661MOL0     H91178   8.506   1.207   5.022  0.0504  0.6152  1.4167
  661MOL0     H91179   8.345   1.247   5.081  1.4191  1.3579  2.1967
  661MOL0     H91180   7.928   0.933   5.101 -3.0868  1.1295 -0.4262
  661MOL0     H91181   7.778   0.897   4.915 -0.8864 -0.5896 -0.1496
  661MOL0     H91182   7.747   0.860   4.506 -0.2181  0.4223  1.2002
  661MOL0     H91183   7.888   0.969   4.501  1.7428 -1.7281 -0.4742
  661MOL0     H91184   7.978   0.762   4.491  3.7441 -0.5105  2.1337
  661MOL0     H91185   8.000   0.804   4.657 -1.0138  4.8637 -2.0832
  661MOL0     H91186   7.746   0.636   4.585  0.4364  0.9386 -1.8211
  661MOL0     H91187   7.796   0.681   4.743 -0.9267  0.1725 -0.3419
  661MOL0     H91188   7.851   0.467   4.714 -2.0024  0.6345 -2.0384
  661MOL0     H91189   7.989   0.572   4.731 -1.0928  1.3143  1.0691
  661MOL0     H91190   8.038   0.547   4.473 -0.4747  1.2469  0.2384
  661MOL0     H91191   8.066   0.408   4.557 -0.3938  2.0245 -0.3908
  661MOL0     H91192   7.788   0.463   4.420 -2.2608 -1.9124  0.6892
  661MOL0     H91193   7.816   0.330   4.532  1.1760 -1.0455  0.1939
  661MOL0     H91194   7.819   0.239   4.330  0.7167  0.9647 -2.3550
  661MOL0     H91195   7.982   0.224   4.400  1.7003  0.7964 -1.2314
  661MOL0     H91196   8.037   0.423   4.244  1.4433 -0.2818 -0.5537
  661MOL0     H91197   7.873   0.386   4.175  1.3585 -0.0222 -1.0890
  661MOL0     H91198   8.033   1.101   4.639  1.3440  1.1450 -0.6762
  661MOL0     H91199   8.182   1.165   4.827  0.2510  2.0508  1.5842
  661MOL0     H91200   8.244   0.958   5.461  1.5312 -1.3741 -0.2786
  661MOL0     H91201   8.440   0.979   5.578  1.0929  0.2280  0.3155
  661MOL0     H91202   7.684   2.128   5.875  2.0658 -0.2326 -0.1425
  661MOL0     H91203   7.645   2.366   5.844 -0.7661  2.3322  0.7501
  661MOL0     H91204   7.789   2.737   5.927  1.3892  1.9625  1.4286
  661MOL0     H91205   7.799   2.954   5.837  1.6098 -1.7367  1.2983
  661MOL0     H91206   7.668   3.159   5.546 -0.1446  1.0011  0.9859
  661MOL0     H91207   7.624   2.990   5.544 -1.6849 -0.4587  1.0091
  661MOL0     H91208   7.404   3.203   5.589  0.8361 -0.2075  0.3006
  661MOL0     H91209   7.389   3.037   5.554 -2.3495  1.2452 -0.0413
  661MOL0     H91210   7.557   3.228   5.378 -0.7504  0.4207  0.0776
  661MOL0     H91211   7.525   3.052   5.354  3.1590 -0.0003  2.2195
  661MOL0     H91212   7.342   3.297   5.320  1.0953  0.0224 -1.4082
  661MOL0     H91213   7.272   3.135   5.342  0.3468 -1.6014 -0.4001
  661MOL0     H91214   7.419   3.177   4.935  3.2869 -0.4299  1.6583
  661MOL0     H91215   7.390   2.986   5.766 -2.0705 -0.5500  2.4618
  661MOL0     H91216   7.247   2.843   5.853 -1.0403 -0.3967 -2.4615
  661MOL0     H91217   7.284   2.686   5.784  3.3808 -2.7354  1.0070
  661MOL0     H91218   7.286   2.715   5.963 -1.4008  0.7477 -0.8958
  662MOL0     O91219   4.274   9.944   6.771  0.3653  0.1168 -0.5790
  662MOL0     C91220   4.356   9.893   6.853 -0.0586  0.4071  0.3702
  662MOL0     O91221   4.473   9.951   6.905 -0.0361  0.5690  0.1599
  662MOL0     C91222   4.523  10.071   6.860 -0.0517  0.1569 -0.0126
  662MOL0     C91223   4.592  10.062   6.740  1.0137 -0.5269 -0.6439
  662MOL0     C91224   4.629  10.182   6.670  0.5371  0.8558 -0.0754
  662MOL0     C91225   4.619  10.306   6.739  0.5508 -0.5257  0.9056
  662MOL0     O91226   4.644  10.419   6.670 -0.1611  0.3814 -0.4008
  662MOL0     C91227   4.737  10.508   6.737  0.4314  0.3682 -0.5787
  662MOL0     C91228   4.828  10.590   6.648  0.8099 -0.3054  0.1291
  662MOL0     C91229   4.756  10.701   6.561 -0.6442  0.7875 -0.6119
  662MOL0     C91230   4.857  10.772   6.470  0.7064 -0.1850  0.7460
  662MOL0     C91231   4.803  10.853   6.344  0.3855  0.3417  0.8268
  662MOL0     C91232   4.915  10.837   6.228 -0.0702  0.1176  0.4485
  662MOL0     C91233   4.877  10.877   6.087 -0.4581 -0.0541  0.1916
  662MOL0     C91234   4.997  10.884   5.994 -0.2811  0.2010  0.5246
  662MOL0     N91235   4.939  10.896   5.860 -1.0111 -1.2412  0.6421
  662MOL0     C91236   4.881  11.002   5.801  0.2519  0.5126 -0.3746
  662MOL0     C91237   4.845  10.971   5.671 -0.5972 -0.9934  0.8167
  662MOL0     C91238   4.749  11.040   5.580 -0.6388  0.1812  0.7026
  662MOL0     C91239   4.814  11.140   5.481  1.0303  0.1776 -0.2414
  662MOL0     C91240   4.704  11.213   5.401  0.8708 -0.2197  0.5086
  662MOL0     C91241   4.637  11.131   5.290  0.6563  0.5472  0.0083
  662MOL0     O91242   4.537  11.052   5.353 -0.0520 -0.1871  0.5291
  662MOL0     C91243   4.432  10.997   5.280 -0.5564  0.4691  0.2086
  662MOL0     C91244   4.445  10.948   5.149 -0.6011 -0.6072  0.0176
  662MOL0     C91245   4.334  10.906   5.071 -0.7626 -0.0960  0.4503
  662MOL0     C91246   4.382  10.851   4.937  0.3082 -0.1425  0.5130
  662MOL0     C91247   4.209  10.931   5.117  0.7751  0.2763  0.4380
  662MOL0     C91248   4.092  10.891   5.040  0.4644  0.0664  0.2674
  662MOL0     O91249   3.985  10.967   5.069  0.2777  0.7144  0.4156
  662MOL0     C91250   3.855  10.920   5.036 -0.8258  0.0154  0.3264
  662MOL0     C91251   3.807  10.796   5.053 -0.4152  0.4522  0.1950
  662MOL0     C91252   3.671  10.767   5.030  0.6506  0.7725  0.2035
  662MOL0     C91253   3.581  10.873   4.994 -1.3347  0.5969 -0.1100
  662MOL0     O91254   3.446  10.846   4.963  0.0013  1.0757 -0.6856
  662MOL0     C91255   3.412  10.810   4.827 -0.2709  0.2005  0.0263
  662MOL0     C91256   3.446  10.660   4.808 -0.9884 -0.7550  0.1588
  662MOL0     C91257   3.378  10.629   4.672 -0.5473  0.1193 -0.3778
  662MOL0     C91258   3.457  10.523   4.594 -0.0592 -0.3318 -0.2815
  662MOL0     C91259   3.374  10.497   4.461 -0.2418 -0.8349 -0.0951
  662MOL0     C91260   3.458  10.539   4.338 -0.5040 -0.2203  0.4976
  662MOL0     C91261   3.472  10.692   4.340 -0.4335 -0.2967  0.4300
  662MOL0     C91262   3.512  10.747   4.202  1.5712  0.0085  0.5130
  662MOL0    Cl91263   3.682  10.714   4.150  0.1027  0.0518 -0.4283
  662MOL0     C91264   3.642  10.996   4.961  0.4983  0.4496 -0.2143
  662MOL0     C91265   3.772  11.024   4.988  0.3681 -0.0102 -0.1975
  662MOL0     O91266   4.092  10.795   4.957 -0.2642 -0.0134  1.1222
  662MOL0     C91267   4.195  10.973   5.254 -0.1025  0.4793 -0.3531
  662MOL0     C91268   4.307  11.000   5.331  0.1267  0.0832 -0.7936
  662MOL0     N91269   4.916  10.856   5.655  0.9373 -0.4380 -0.3507
  662MOL0     N91270   4.983  10.820   5.765 -0.6675  0.2779  0.2875
  662MOL0     C91271   4.561  10.315   6.862 -0.3272  0.1080  0.1916
  662MOL0     C91272   4.519  10.198   6.926  0.8259 -0.7692  0.2461
  662MOL0     C91273   4.332   9.755   6.892 -0.0676  0.0225 -0.1088
  662MOL0     C91274   4.428   9.652   6.868 -0.5133  0.1784  0.8020
  662MOL0     C91275   4.415   9.521   6.910 -0.1530  1.0627 -0.6751
  662MOL0     C91276   4.303   9.494   6.992 -0.5884  0.3340  0.6818
  662MOL0     O91277   4.322   9.370   7.043 -0.0918  0.3200 -0.7917
  662MOL0     C91278   4.259   9.344   7.167  0.6871  0.3669 -0.7631
  662MOL0     C91279   4.313   9.426   7.279  0.1302 -0.4288 -0.7683
  662MOL0     C91280   4.268   9.378   7.414  1.0275 -0.6422  1.6674
  662MOL0     C91281   4.365   9.410   7.530 -0.1378 -0.2341  0.4324
  662MOL0     C91282   4.479   9.312   7.542  0.4648  0.5491 -0.7882
  662MOL0     C91283   4.567   9.232   7.531  0.2082 -0.6514 -0.5172
  662MOL0     C91284   4.206   9.590   7.020 -0.1535 -0.0205 -0.0768
  662MOL0     C91285   4.216   9.722   6.966 -0.6711  0.2082  0.5625
  662MOL0     C91286   4.095   9.811   6.981  0.0614 -0.3546 -0.3049
  662MOL0     H91287   4.604   9.960   6.703 -0.1723 -1.6316  1.8248
  662MOL0     H91288   4.672  10.174   6.570 -2.1255 -1.2979 -1.1795
  662MOL0     H91289   4.800  10.457   6.811 -2.7764 -2.0968  0.6841
  662MOL0     H91290   4.674  10.580   6.790  1.0753  1.9247 -1.8354
  662MOL0     H91291   4.903  10.640   6.710 -1.2058  0.3626  2.1664
  662MOL0     H91292   4.887  10.524   6.584 -0.0830  0.2488 -1.3007
  662MOL0     H91293   4.670  10.654   6.511 -0.5964 -1.6413  1.3827
  662MOL0     H91294   4.711  10.778   6.624 -0.5167  0.2254  0.1825
  662MOL0     H91295   4.917  10.845   6.525  1.3827 -0.4680  0.3916
  662MOL0     H91296   4.914  10.683   6.442 -1.7586 -1.6169  0.0402
  662MOL0     H91297   4.787  10.958   6.371 -0.7075  0.2596  0.5465
  662MOL0     H91298   4.709  10.805   6.314  1.1512 -0.4868 -0.3358
  662MOL0     H91299   5.003  10.897   6.251  0.1438  1.1544 -2.7226
  662MOL0     H91300   4.947  10.732   6.222  1.4622  0.5935  0.1075
  662MOL0     H91301   4.826  10.973   6.087 -1.4617 -0.5342  1.9477
  662MOL0     H91302   4.805  10.802   6.054  0.3590 -1.4176  1.3551
  662MOL0     H91303   5.047  10.981   6.008  1.0210  0.2420 -3.1971
  662MOL0     H91304   5.073  10.809   6.013 -0.6521  0.4815  3.5529
  662MOL0     H91305   4.846  11.081   5.867  2.1642 -1.1057  2.8172
  662MOL0     H91306   4.682  11.087   5.652  0.1195 -0.0869  1.6074
  662MOL0     H91307   4.690  10.966   5.526  2.3779  0.1788 -3.0588
  662MOL0     H91308   4.875  11.211   5.539 -0.2489 -0.7167  2.3773
  662MOL0     H91309   4.886  11.093   5.414  1.6698  1.5821 -0.5843
  662MOL0     H91310   4.620  11.245   5.464 -0.0314 -0.7530 -0.3886
  662MOL0     H91311   4.751  11.299   5.353  1.7941 -0.1781  1.4342
  662MOL0     H91312   4.600  11.199   5.212 -2.7091 -1.2570 -0.1402
  662MOL0     H91313   4.709  11.059   5.250 -2.7923 -2.3077 -1.6090
  662MOL0     H91314   4.544  10.941   5.106 -1.1664  1.8956 -1.9885
  662MOL0     H91315   4.477  10.894   4.903 -0.1441  1.2248  0.9479
  662MOL0     H91316   4.307  10.869   4.859 -1.1226  0.9499  2.0841
  662MOL0     H91317   4.394  10.743   4.950  0.0192  0.0155  2.3507
  662MOL0     H91318   3.864  10.722   5.109 -0.7261  1.0355  1.3098
  662MOL0     H91319   3.643  10.667   5.062  2.0210  1.0804  2.5623
  662MOL0     H91320   3.303  10.823   4.823 -0.7606 -3.0282  0.5304
  662MOL0     H91321   3.459  10.875   4.753 -0.0196  0.1506  0.1408
  662MOL0     H91322   3.553  10.641   4.813 -1.5054 -4.0519  2.9837
  662MOL0     H91323   3.396  10.591   4.877  2.3908 -0.5898  3.0350
  662MOL0     H91324   3.350  10.714   4.609 -3.2136  0.6976  1.4246
  662MOL0     H91325   3.280  10.590   4.698 -1.7632  2.3643 -1.3142
  662MOL0     H91326   3.472  10.425   4.639  0.6812 -0.8871 -1.6653
  662MOL0     H91327   3.557  10.565   4.577  0.2417  1.1266  3.9379
  662MOL0     H91328   3.350  10.391   4.448 -3.8672 -0.4247  1.8633
  662MOL0     H91329   3.276  10.545   4.464  0.3996  0.6775 -1.5209
  662MOL0     H91330   3.396  10.509   4.253 -0.1066  0.0545  0.1074
  662MOL0     H91331   3.552  10.483   4.343 -0.4161 -0.0250  1.3091
  662MOL0     H91332   3.544  10.732   4.412  1.3796 -0.0543 -1.4290
  662MOL0     H91333   3.376  10.742   4.357  0.7270  1.9504  0.8082
  662MOL0     H91334   3.502  10.856   4.199  1.4065  0.0303 -3.3040
  662MOL0     H91335   3.436  10.714   4.130 -0.3272 -0.3111  2.5603
  662MOL0     H91336   3.576  11.075   4.927  0.0389  0.0047 -0.3597
  662MOL0     H91337   3.794  11.128   4.967 -2.0904  0.1323 -2.6503
  662MOL0     H91338   4.092  10.980   5.287 -0.1221  0.7727 -0.4642
  662MOL0     H91339   4.283  11.046   5.426 -1.7872  1.6005 -1.9403
  662MOL0     H91340   4.545  10.413   6.905 -0.5700  0.5723 -0.9302
  662MOL0     H91341   4.492  10.196   7.031 -0.5683 -3.5335 -0.0642
  662MOL0     H91342   4.517   9.673   6.810 -1.3768 -0.3157 -0.7448
  662MOL0     H91343   4.485   9.441   6.890 -1.1340 -0.0093  0.0594
  662MOL0     H91344   4.150   9.344   7.156  0.7277 -2.3046 -2.0620
  662MOL0     H91345   4.278   9.236   7.174 -0.1913  0.0554 -2.6417
  662MOL0     H91346   4.283   9.531   7.269  0.7710 -0.1764 -0.1397
  662MOL0     H91347   4.422   9.422   7.287  0.2423  0.5353 -1.6063
  662MOL0     H91348   4.171   9.424   7.433  0.1955 -1.7671  0.3552
  662MOL0     H91349   4.246   9.271   7.422  0.8443 -0.6733  0.8413
  662MOL0     H91350   4.308   9.417   7.623  0.7036  1.9271  0.8256
  662MOL0     H91351   4.406   9.511   7.525  3.5538 -1.6173 -1.0238
  662MOL0     H91352   4.644   9.158   7.522 -1.7170 -2.7712 -0.6019
  662MOL0     H91353   4.112   9.566   7.069  0.3598  0.7037  1.3118
  662MOL0     H91354   4.046   9.828   6.885 -2.6323  1.2967  1.2147
  662MOL0     H91355   4.024   9.782   7.059 -0.8300  2.2207 -0.0665
  662MOL0     H91356   4.135   9.905   7.022  1.8899 -0.8451 -0.8548
  663MOL0     O91357   3.778   3.818   2.534  0.4553 -0.6292 -0.6647
  663MOL0     C91358   3.849   3.740   2.601  0.3878  0.6016 -0.0009
  663MOL0     O91359   3.943   3.782   2.690  0.2948  0.1664  0.4719
  663MOL0     C91360   3.942   3.894   2.773 -0.1188 -0.3774  0.3111
  663MOL0     C91361   3.841   3.985   2.797 -0.1159 -0.4870  0.6251
  663MOL0     C91362   3.860   4.105   2.876 -0.2517  0.5324 -0.7283
  663MOL0     C91363   3.972   4.114   2.960 -0.9835  1.2443 -0.1588
  663MOL0     O91364   4.002   4.206   3.056 -0.7816  0.5124 -0.4875
  663MOL0     C91365   3.959   4.340   3.038  0.2873 -0.7953 -0.3517
  663MOL0     C91366   4.024   4.430   3.153  0.1596 -0.7773 -0.9303
  663MOL0     C91367   4.016   4.581   3.111 -0.0195  0.2671  0.6372
  663MOL0     C91368   4.109   4.666   3.203  0.3930  0.1298  0.0261
  663MOL0     C91369   4.082   4.819   3.183  0.7501 -0.1881  0.6617
  663MOL0     C91370   3.945   4.849   3.229 -0.2251 -1.0452  0.1591
  663MOL0     C91371   3.930   5.004   3.260 -0.2909 -0.3756 -0.3653
  663MOL0     C91372   4.000   5.094   3.161  0.2630 -0.8865  0.0710
  663MOL0     N91373   3.966   5.233   3.190  0.8605  0.0940  0.3759
  663MOL0     C91374   3.900   5.302   3.096 -0.6617 -0.9829  0.2492
  663MOL0     C91375   3.904   5.428   3.146  0.2496  0.1444  0.9539
  663MOL0     C91376   3.840   5.550   3.080 -0.6041 -0.7276 -0.2925
  663MOL0     C91377   3.906   5.598   2.953  0.2179  0.3384 -1.1401
  663MOL0     C91378   3.832   5.724   2.904 -0.5294  0.3553  0.5740
  663MOL0     C91379   3.920   5.819   2.820 -0.9273  0.1717  0.0034
  663MOL0     O91380   3.854   5.948   2.805 -0.4145 -0.3485  0.7748
  663MOL0     C91381   3.894   6.011   2.682 -0.2887 -0.5639  0.5542
  663MOL0     C91382   3.804   6.098   2.617  0.0425 -0.3018 -0.3359
  663MOL0     C91383   3.840   6.184   2.511 -0.6963  0.2009 -0.7878
  663MOL0     C91384   3.728   6.274   2.457  0.2793 -0.0915 -0.3753
  663MOL0     C91385   3.977   6.180   2.462  0.0079  0.0146  0.4369
  663MOL0     C91386   4.019   6.266   2.360 -0.1885 -0.7493  0.1387
  663MOL0     O91387   3.989   6.400   2.393  1.3106  1.1589 -0.5295
  663MOL0     C91388   4.010   6.486   2.294  1.0179 -0.2711  0.0602
  663MOL0     C91389   4.113   6.571   2.309  0.9058  0.0424 -0.1138
  663MOL0     C91390   4.142   6.672   2.220 -0.1619 -0.7691 -0.2176
  663MOL0     C91391   4.064   6.684   2.101 -0.2850  1.2437 -0.0323
  663MOL0     O91392   4.075   6.784   2.013 -0.1119 -0.4280  0.5499
  663MOL0     C91393   4.102   6.916   2.064  0.0197 -0.1456  0.5398
  663MOL0     C91394   4.226   6.969   1.992 -0.0824  0.2039  0.0015
  663MOL0     C91395   4.305   7.062   2.079 -0.0645  0.5653  0.0893
  663MOL0     C91396   4.244   7.183   2.137  0.7007 -0.0535  1.2859
  663MOL0     C91397   4.319   7.303   2.111  0.2640 -0.4216 -0.3322
  663MOL0     C91398   4.302   7.417   2.208  0.2302 -0.9322 -0.4125
  663MOL0     C91399   4.323   7.420   2.363 -0.7059  0.9579 -0.3502
  663MOL0     C91400   4.283   7.557   2.428  0.1794 -0.1775  0.0283
  663MOL0    Cl91401   4.361   7.561   2.591 -0.3161 -0.1383 -0.0539
  663MOL0     C91402   3.954   6.604   2.088  0.5736  0.5295  0.3998
  663MOL0     C91403   3.925   6.509   2.181 -0.3679  0.0073  0.4470
  663MOL0     O91404   4.096   6.219   2.270  0.4055  0.1774 -1.2049
  663MOL0     C91405   4.076   6.104   2.532  0.0247 -0.9686  0.2787
  663MOL0     C91406   4.035   6.015   2.637 -0.7345 -0.0393  0.1090
  663MOL0     N91407   3.970   5.427   3.269 -0.0923  0.1160 -0.2108
  663MOL0     N91408   4.014   5.310   3.288  0.2143 -0.7241 -0.0875
  663MOL0     C91409   4.067   4.022   2.930  0.1133 -0.5703 -0.6661
  663MOL0     C91410   4.058   3.911   2.840  0.3841  0.7286 -0.2587
  663MOL0     C91411   3.851   3.596   2.559  0.0948 -0.2208  0.9156
  663MOL0     C91412   3.967   3.519   2.581  0.6844  0.5956  0.5631
  663MOL0     C91413   3.970   3.384   2.537 -0.1562  0.2042  0.1896
  663MOL0     C91414   3.858   3.320   2.489 -0.0457 -0.4034  0.1782
  663MOL0     O91415   3.849   3.186   2.451  0.3332  0.0068  0.0191
  663MOL0     C91416   3.966   3.106   2.458  0.1223  0.5925  0.3683
  663MOL0     C91417   3.932   2.965   2.411 -0.9781  0.5010  0.5026
  663MOL0     C91418   4.068   2.890   2.409  0.5016 -0.6103  0.2281
  663MOL0     C91419   4.136   2.872   2.544 -0.8132  0.3876  0.7951
  663MOL0     C91420   4.054   2.807   2.643  0.1234 -0.6277 -0.5909
  663MOL0     C91421   3.992   2.768   2.737 -0.5389  0.2045 -0.3211
  663MOL0     C91422   3.744   3.393   2.465 -0.1353  0.1685 -0.1515
  663MOL0     C91423   3.739   3.531   2.495  0.0413  0.1811  0.3386
  663MOL0     C91424   3.608   3.595   2.479 -0.7167 -0.6275 -0.6200
  663MOL0     H91425   3.749   3.967   2.741  0.0434 -3.3731  1.1228
  663MOL0     H91426   3.786   4.184   2.880 -2.2895 -1.2407 -1.5491
  663MOL0     H91427   3.852   4.356   3.051  0.9195  3.5005  1.1585
  663MOL0     H91428   3.990   4.371   2.937 -3.8218 -0.7656 -1.7645
  663MOL0     H91429   3.965   4.418   3.245  0.8467 -1.7886 -0.5962
  663MOL0     H91430   4.125   4.393   3.174 -0.1529 -1.6678 -0.9157
  663MOL0     H91431   4.044   4.589   3.006 -2.0749 -0.2198  0.0259
  663MOL0     H91432   3.914   4.619   3.120  0.4335  2.2968 -1.7395
  663MOL0     H91433   4.093   4.647   3.310 -0.9211  0.1894 -0.1530
  663MOL0     H91434   4.213   4.640   3.181  0.9766 -0.3651  2.9505
  663MOL0     H91435   4.086   4.856   3.080 -5.2117 -0.4903 -0.0432
  663MOL0     H91436   4.151   4.869   3.252  1.2988  0.1503 -0.1283
  663MOL0     H91437   3.866   4.828   3.156 -3.7380  1.8450  2.7088
  663MOL0     H91438   3.914   4.797   3.320  1.1793 -0.4569  1.0052
  663MOL0     H91439   3.990   5.011   3.351  0.7194 -0.9479 -0.9692
  663MOL0     H91440   3.826   5.034   3.279 -0.4327 -0.2195 -1.3493
  663MOL0     H91441   4.109   5.085   3.164  0.6435  1.6886 -2.0845
  663MOL0     H91442   3.972   5.069   3.059 -0.0579  1.1924 -0.4016
  663MOL0     H91443   3.844   5.264   3.011 -1.8300 -0.1208  0.6011
  663MOL0     H91444   3.850   5.614   3.168  0.1205 -0.5901 -0.4671
  663MOL0     H91445   3.735   5.534   3.053 -0.3854 -0.7861 -1.1365
  663MOL0     H91446   4.006   5.637   2.974 -0.9221  2.6533  0.4157
  663MOL0     H91447   3.904   5.520   2.876  0.2321  1.2370 -2.0832
  663MOL0     H91448   3.745   5.705   2.841  2.1249 -1.0869 -2.9723
  663MOL0     H91449   3.799   5.781   2.992  0.7105  1.6222  0.2593
  663MOL0     H91450   4.011   5.838   2.878 -0.5514 -2.1100  0.2346
  663MOL0     H91451   3.941   5.765   2.727 -0.4409  1.0438 -0.4061
  663MOL0     H91452   3.698   6.099   2.640 -0.6291 -0.3402 -3.1140
  663MOL0     H91453   3.746   6.295   2.351  0.6897  4.7437  0.4124
  663MOL0     H91454   3.731   6.372   2.506  2.5181 -1.5216  2.7050
  663MOL0     H91455   3.630   6.228   2.467  1.0281 -1.4473  1.2271
  663MOL0     H91456   4.172   6.552   2.398 -0.3869  1.4097  1.0967
  663MOL0     H91457   4.218   6.745   2.244 -1.1640  0.2928 -0.1951
  663MOL0     H91458   4.017   6.981   2.041 -1.0221 -1.6070  0.1029
  663MOL0     H91459   4.115   6.907   2.173  0.8797 -2.8750  0.2714
  663MOL0     H91460   4.291   6.887   1.958  1.0398  0.6820  0.9526
  663MOL0     H91461   4.197   7.029   1.905  4.3556  1.6877 -0.7330
  663MOL0     H91462   4.387   7.102   2.019  0.7366  1.1346  1.5213
  663MOL0     H91463   4.354   6.994   2.151  1.6536 -0.1546 -1.6635
  663MOL0     H91464   4.220   7.178   2.243 -1.3719 -2.1747  0.8084
  663MOL0     H91465   4.146   7.192   2.090  1.0483 -1.2153  0.2704
  663MOL0     H91466   4.427   7.285   2.109  1.0639  3.2480  1.8081
  663MOL0     H91467   4.282   7.340   2.015  0.4662 -0.6465 -0.4984
  663MOL0     H91468   4.202   7.461   2.205  1.1040  1.4363  1.6376
  663MOL0     H91469   4.380   7.485   2.170  1.2122 -0.9367  1.4612
  663MOL0     H91470   4.432   7.417   2.375 -0.7591  1.9795  0.6145
  663MOL0     H91471   4.276   7.337   2.417  0.8969 -1.2995 -2.2167
  663MOL0     H91472   4.175   7.571   2.436  0.0937 -0.0726 -1.2390
  663MOL0     H91473   4.327   7.637   2.369 -2.6551  1.0553 -0.5420
  663MOL0     H91474   3.868   6.617   2.023  2.1173 -1.4503 -2.2019
  663MOL0     H91475   3.835   6.449   2.169 -1.3536  1.6665 -0.7935
  663MOL0     H91476   4.180   6.087   2.505  0.1361 -1.9273  1.2187
  663MOL0     H91477   4.108   5.956   2.692  0.0247  1.5058  0.8428
  663MOL0     H91478   4.160   4.024   2.987  0.8880 -1.3541 -1.8396
  663MOL0     H91479   4.149   3.851   2.830  0.0863  0.5359 -2.0952
  663MOL0     H91480   4.058   3.566   2.618 -0.2262 -0.7800  5.2355
  663MOL0     H91481   4.066   3.334   2.539  1.9160  3.7684 -0.9058
  663MOL0     H91482   4.040   3.153   2.393 -0.5351  2.0650  0.6483
  663MOL0     H91483   3.999   3.099   2.562 -2.3878 -0.4346  1.1741
  663MOL0     H91484   3.884   2.975   2.313  0.2873  0.4467 -0.1576
  663MOL0     H91485   3.867   2.909   2.478 -0.9485 -1.0808 -0.7407
  663MOL0     H91486   4.064   2.788   2.370 -1.2044 -0.6735  0.5048
  663MOL0     H91487   4.130   2.947   2.339 -1.6534 -1.0591 -2.2353
  663MOL0     H91488   4.175   2.966   2.586  1.5571  0.5706 -1.4851
  663MOL0     H91489   4.226   2.809   2.537  0.0514  1.3558  2.5496
  663MOL0     H91490   3.939   2.730   2.823 -0.0482  2.7619  1.2101
  663MOL0     H91491   3.664   3.335   2.420  1.1941 -0.0811 -2.3224
  663MOL0     H91492   3.535   3.516   2.458  1.1763 -2.6706  0.0817
  663MOL0     H91493   3.562   3.644   2.566 -1.1369 -0.5780 -0.8694
  663MOL0     H91494   3.601   3.651   2.385  1.2891 -1.4474 -1.2978
  664MOL0     O91495   8.354  11.140   9.640  0.9194 -0.0867  0.3888
  664MOL0     C91496   8.373  11.106   9.529  0.4431 -0.7084 -0.0336
  664MOL0     O91497   8.344  11.179   9.409 -0.0560  0.5445  0.0949
  664MOL0     C91498   8.257  11.286   9.425  0.5550 -0.3645 -0.3018
  664MOL0     C91499   8.318  11.410   9.416 -0.9265  0.4656  0.4427
  664MOL0     C91500   8.242  11.517   9.459  0.1652 -0.4717 -0.2833
  664MOL0     C91501   8.106  11.507   9.500  0.7564  0.2599 -0.7733
  664MOL0     O91502   8.046  11.623   9.535  0.1854 -0.0259 -0.4477
  664MOL0     C91503   7.909  11.614   9.561  1.4237 -0.2572 -0.2649
  664MOL0     C91504   7.809  11.584   9.441  0.9542 -0.6324 -0.5715
  664MOL0     C91505   7.843  11.685   9.329  0.9558 -0.0492 -0.1604
  664MOL0     C91506   7.732  11.670   9.230  0.0551  1.2474  0.3474
  664MOL0     C91507   7.777  11.748   9.100  0.2040  0.3887 -0.7464
  664MOL0     C91508   7.683  11.707   8.989 -0.8180 -0.2942  0.1137
  664MOL0     C91509   7.723  11.775   8.852 -0.2793  0.4614 -0.4975
  664MOL0     C91510   7.712  11.932   8.838 -0.3834 -0.8753 -0.6239
  664MOL0     N91511   7.590  11.952   8.762 -0.1494  0.6522 -0.0280
  664MOL0     C91512   7.456  11.939   8.795  0.7383  0.8389 -0.1060
  664MOL0     C91513   7.391  11.970   8.676 -0.3566 -0.5017  0.4390
  664MOL0     C91514   7.244  11.973   8.645  0.1743 -0.0419 -0.2736
  664MOL0     C91515   7.196  12.115   8.639  1.0394  0.0522  1.3336
  664MOL0     C91516   7.179  12.173   8.787 -0.5980 -0.0251 -0.1273
  664MOL0     C91517   7.139  12.322   8.776 -0.3190 -0.4055 -0.1449
  664MOL0     O91518   7.266  12.376   8.743  0.9556 -0.1224  0.1732
  664MOL0     C91519   7.321  12.475   8.821 -0.2303  0.0119  0.7674
  664MOL0     C91520   7.338  12.601   8.770  0.5420 -0.0797  0.5848
  664MOL0     C91521   7.400  12.697   8.842  0.2694  0.0539 -0.5731
  664MOL0     C91522   7.393  12.837   8.789 -1.3544  0.1821 -0.5056
  664MOL0     C91523   7.453  12.663   8.971 -0.2965 -0.5247  0.1892
  664MOL0     C91524   7.554  12.743   9.052  0.5446  0.3433 -0.2119
  664MOL0     O91525   7.628  12.675   9.149  0.8540  0.3370 -0.1838
  664MOL0     C91526   7.697  12.752   9.230  0.0968 -0.4018  0.2299
  664MOL0     C91527   7.630  12.824   9.328  0.0435 -0.7208 -0.6930
  664MOL0     C91528   7.704  12.907   9.413  0.7862 -0.6704 -0.8430
  664MOL0     C91529   7.843  12.912   9.410 -0.9339  0.3995  0.4902
  664MOL0     O91530   7.914  12.990   9.500  0.0203 -0.2327  0.1011
  664MOL0     C91531   8.027  12.937   9.572 -0.3163  0.2255  0.3783
  664MOL0     C91532   7.998  12.823   9.668  0.1122  0.1288  0.0679
  664MOL0     C91533   7.905  12.880   9.779  0.1124  0.2859 -0.3610
  664MOL0     C91534   7.872  12.762   9.865  0.2006  0.2633  0.2031
  664MOL0     C91535   7.771  12.801   9.969  0.2357  0.3527  0.3604
  664MOL0     C91536   7.738  12.684  10.052  0.1986 -0.0623 -0.3684
  664MOL0     C91537   7.801  12.680  10.190 -0.1246  0.3042  0.4549
  664MOL0     C91538   7.803  12.542  10.255  0.5865 -0.1072  0.1505
  664MOL0    Cl91539   7.821  12.561  10.433 -0.0543 -0.2577 -0.3037
  664MOL0     C91540   7.915  12.844   9.314 -0.2025  1.4300 -0.2462
  664MOL0     C91541   7.840  12.769   9.223 -0.6120  0.8493 -0.2772
  664MOL0     O91542   7.561  12.867   9.023 -0.3083  0.0403 -0.8244
  664MOL0     C91543   7.451  12.524   9.004  0.7521  0.2540 -0.3132
  664MOL0     C91544   7.383  12.431   8.933 -1.3564 -0.0221  0.2630
  664MOL0     N91545   7.489  12.003   8.578 -0.0576  0.1147 -0.0612
  664MOL0     N91546   7.605  12.001   8.639  0.3204  0.4332 -0.5352
  664MOL0     C91547   8.049  11.379   9.515 -0.8029 -0.7776 -0.0947
  664MOL0     C91548   8.128  11.273   9.478 -0.1803  0.2861  0.1400
  664MOL0     C91549   8.455  10.981   9.506 -0.0463  0.0849 -0.0144
  664MOL0     C91550   8.540  10.974   9.395 -0.4717  0.2206  0.0262
  664MOL0     C91551   8.615  10.851   9.369 -0.4785 -0.0021 -0.2419
  664MOL0     C91552   8.594  10.735   9.445  0.3339 -0.7572  0.5113
  664MOL0     O91553   8.661  10.623   9.436  0.1633 -0.1694 -0.2930
  664MOL0     C91554   8.804  10.620   9.434  1.6525 -0.8065 -0.3150
  664MOL0     C91555   8.836  10.478   9.399 -0.3276  0.5737  0.0997
  664MOL0     C91556   8.797  10.448   9.250 -0.1848  0.9908  0.3697
  664MOL0     C91557   8.853  10.319   9.198 -0.2954 -1.2177 -0.1688
  664MOL0     C91558   8.784  10.204   9.258 -0.7861 -0.5472 -0.5937
  664MOL0     C91559   8.727  10.110   9.315 -0.9797 -0.4818  0.4445
  664MOL0     C91560   8.505  10.744   9.551  0.3013 -1.0661  0.1522
  664MOL0     C91561   8.437  10.860   9.589 -0.8334 -0.9030 -0.8019
  664MOL0     C91562   8.336  10.856   9.702 -0.5227  0.0649  0.6279
  664MOL0     H91563   8.420  11.422   9.380 -0.8874  2.0867  0.9811
  664MOL0     H91564   8.293  11.611   9.471 -0.3096 -0.2747  0.2436
  664MOL0     H91565   7.878  11.713   9.596  1.0654 -0.4700  0.0184
  664MOL0     H91566   7.878  11.554   9.646 -1.2008  0.7796 -0.4145
  664MOL0     H91567   7.808  11.486   9.392 -2.8322 -0.3089 -1.4595
  664MOL0     H91568   7.709  11.605   9.479  0.6890  2.1419 -2.5041
  664MOL0     H91569   7.838  11.790   9.358  0.5205  0.4204 -1.8129
  664MOL0     H91570   7.935  11.650   9.282 -1.6794 -4.7825 -2.5971
  664MOL0     H91571   7.707  11.567   9.206  3.2351  0.5060 -0.2186
  664MOL0     H91572   7.638  11.710   9.271 -1.9861 -3.4379  0.8221
  664MOL0     H91573   7.877  11.711   9.078  1.0724 -0.3029  3.5112
  664MOL0     H91574   7.782  11.857   9.111 -0.8549  0.2650  1.8009
  664MOL0     H91575   7.697  11.599   8.977 -3.4452 -0.4709 -2.5114
  664MOL0     H91576   7.581  11.734   9.019 -1.1296  0.0413 -1.1843
  664MOL0     H91577   7.676  11.722   8.769 -2.8003 -2.0812  2.2769
  664MOL0     H91578   7.828  11.747   8.850 -0.4184 -0.6629  2.6385
  664MOL0     H91579   7.710  11.972   8.940 -0.1465 -1.6824 -0.2850
  664MOL0     H91580   7.790  11.986   8.784 -1.7903  2.3237  0.3583
  664MOL0     H91581   7.414  11.918   8.893 -0.3206 -0.3035 -0.7629
  664MOL0     H91582   7.187  11.905   8.709 -0.2014  0.3880 -0.1483
  664MOL0     H91583   7.234  11.937   8.542  1.3595  2.7435 -1.4526
  664MOL0     H91584   7.263  12.182   8.584 -1.6193  0.6196 -1.5050
  664MOL0     H91585   7.101  12.123   8.586  1.0885 -0.7579  1.0949
  664MOL0     H91586   7.102  12.133   8.854  0.8310  0.5408  1.9469
  664MOL0     H91587   7.268  12.156   8.848 -1.3587  1.6595  1.5734
  664MOL0     H91588   7.073  12.346   8.691  1.2229  1.5349 -0.8871
  664MOL0     H91589   7.098  12.359   8.870  0.4409 -4.1766  1.8746
  664MOL0     H91590   7.296  12.634   8.676  2.3013 -0.4870 -0.4018
  664MOL0     H91591   7.407  12.916   8.864  3.3703 -2.1487  1.4885
  664MOL0     H91592   7.298  12.858   8.739 -0.6861  3.1348 -0.7498
  664MOL0     H91593   7.475  12.851   8.718  0.4488  1.1393  1.6468
  664MOL0     H91594   7.522  12.827   9.334  0.0855 -1.1503  3.8551
  664MOL0     H91595   7.658  12.980   9.479  0.3242 -1.4161 -0.3211
  664MOL0     H91596   8.105  12.901   9.504  2.1265  3.7379  1.0258
  664MOL0     H91597   8.073  13.019   9.628 -2.8571 -0.2843  3.4830
  664MOL0     H91598   7.943  12.746   9.614  1.8773 -1.0338 -0.1542
  664MOL0     H91599   8.095  12.785   9.701 -0.6561 -2.2364 -0.2028
  664MOL0     H91600   7.818  12.932   9.738  0.5177  0.6321 -0.7949
  664MOL0     H91601   7.956  12.953   9.843 -1.2867  2.2765 -1.4078
  664MOL0     H91602   7.959  12.713   9.909 -0.9285 -1.9669  0.0626
  664MOL0     H91603   7.818  12.692   9.801  0.1958  2.0608 -1.8825
  664MOL0     H91604   7.806  12.889  10.024  0.6270  2.1431 -2.5184
  664MOL0     H91605   7.685  12.841   9.914  1.5105  1.8844 -0.6057
  664MOL0     H91606   7.769  12.595   9.997  0.4103  0.0515 -0.4359
  664MOL0     H91607   7.630  12.684  10.066  0.1717  1.1122 -0.4561
  664MOL0     H91608   7.756  12.747  10.264 -2.1768 -1.7464  1.1930
  664MOL0     H91609   7.902  12.714  10.166  0.0260 -0.8667 -0.6615
  664MOL0     H91610   7.884  12.486  10.206  0.3190  0.4879 -1.0146
  664MOL0     H91611   7.711  12.484  10.242 -0.6719  1.3862  1.9136
  664MOL0     H91612   8.020  12.860   9.294 -0.4864  1.3232 -1.9570
  664MOL0     H91613   7.900  12.717   9.150 -1.6132  0.2909 -0.7210
  664MOL0     H91614   7.509  12.487   9.087 -2.4249  0.7297  2.3070
  664MOL0     H91615   7.371  12.326   8.957 -1.7564 -0.7052 -2.5607
  664MOL0     H91616   7.953  11.349   9.555 -1.5057  3.1795  1.7542
  664MOL0     H91617   8.116  11.166   9.491  3.8728 -0.6294 -1.9820
  664MOL0     H91618   8.555  11.059   9.330 -0.6276  1.6500  1.7686
  664MOL0     H91619   8.689  10.844   9.290 -0.4543 -1.2380 -0.1287
  664MOL0     H91620   8.845  10.685   9.357 -0.1235  2.7217  1.4793
  664MOL0     H91621   8.851  10.664   9.523  0.9490 -0.5666 -0.0525
  664MOL0     H91622   8.800  10.398   9.464  1.0066 -1.8458 -1.9916
  664MOL0     H91623   8.942  10.454   9.398 -0.7314 -1.3887  0.7184
  664MOL0     H91624   8.690  10.443   9.230  0.2800  1.3376 -2.6247
  664MOL0     H91625   8.846  10.524   9.188  0.7158  0.4386  0.3781
  664MOL0     H91626   8.956  10.311   9.233  0.0622 -0.1674 -0.9373
  664MOL0     H91627   8.835  10.317   9.090 -3.7434  0.2898  0.2541
  664MOL0     H91628   8.698  10.020   9.366  1.8425 -2.3500 -0.9908
  664MOL0     H91629   8.501  10.651   9.607 -0.6886  1.1252  4.1094
  664MOL0     H91630   8.371  10.921   9.783  1.0441 -1.0311  0.8824
  664MOL0     H91631   8.233  10.887   9.680 -0.5284 -0.3697  0.0306
  664MOL0     H91632   8.329  10.753   9.740  1.2194 -0.1180  0.5415
  665MOL0     O91633   2.473   3.260   3.762  0.1556 -0.2164 -0.1156
  665MOL0     C91634   2.472   3.373   3.816 -1.1575  0.6035  1.4088
  665MOL0     O91635   2.549   3.473   3.770 -0.0443  0.5573  0.9370
  665MOL0     C91636   2.574   3.484   3.640 -0.2599 -0.3738 -0.2465
  665MOL0     C91637   2.682   3.415   3.591  0.6249 -0.1228 -0.0041
  665MOL0     C91638   2.715   3.411   3.456 -0.7161  0.0221  0.0018
  665MOL0     C91639   2.637   3.481   3.362 -0.3817 -0.2267 -0.1149
  665MOL0     O91640   2.679   3.502   3.231 -0.0162  0.6766  0.1936
  665MOL0     C91641   2.818   3.504   3.198 -0.5537 -0.2502 -0.5538
  665MOL0     C91642   2.867   3.387   3.104  0.0280 -0.0351  0.0756
  665MOL0     C91643   2.892   3.245   3.150  0.3780  0.4395  0.2472
  665MOL0     C91644   3.028   3.222   3.214  0.1942 -0.0760 -0.4132
  665MOL0     C91645   3.065   3.069   3.225  0.0279  0.1158  0.3545
  665MOL0     C91646   3.107   3.003   3.093 -0.6271  0.9431 -0.2942
  665MOL0     C91647   3.240   3.064   3.043 -1.2873  0.4779 -0.3268
  665MOL0     C91648   3.275   3.039   2.893 -1.4448  1.2565  0.2632
  665MOL0     N91649   3.247   3.163   2.825  0.3186 -0.4463  0.5103
  665MOL0     C91650   3.326   3.267   2.798 -0.2369 -0.0091  0.1481
  665MOL0     C91651   3.239   3.363   2.754 -0.1928  0.0981  0.2663
  665MOL0     C91652   3.274   3.492   2.692  1.3920 -0.3210  0.4942
  665MOL0     C91653   3.320   3.597   2.787  0.3001  0.8993  0.2002
  665MOL0     C91654   3.212   3.647   2.874  0.0323 -0.1985 -0.2902
  665MOL0     C91655   3.261   3.781   2.931  0.1222 -0.2392 -0.2172
  665MOL0     O91656   3.192   3.825   3.049 -0.0177 -0.7604  0.6781
  665MOL0     C91657   3.080   3.899   3.027 -0.1107  0.1124 -0.9889
  665MOL0     C91658   3.006   3.932   2.917 -0.4036  0.3652 -0.2264
  665MOL0     C91659   2.901   4.016   2.912 -0.0703 -0.3054  0.3771
  665MOL0     C91660   2.832   4.048   2.782 -0.0209 -0.0789  0.4561
  665MOL0     C91661   2.861   4.080   3.029 -0.9337  0.6330 -0.2542
  665MOL0     C91662   2.734   4.164   3.039  0.3999  0.2145  0.2924
  665MOL0     O91663   2.628   4.104   2.966  0.2175  0.0302  0.5584
  665MOL0     C91664   2.534   4.196   2.914 -0.8582  0.3457 -0.2456
  665MOL0     C91665   2.570   4.309   2.829  0.7514 -0.8095  0.0679
  665MOL0     C91666   2.472   4.385   2.769 -0.4081 -0.6078  0.4391
  665MOL0     C91667   2.338   4.364   2.798  0.3402  0.0100  0.7020
  665MOL0     O91668   2.228   4.441   2.768  0.0788 -0.0405 -0.0985
  665MOL0     C91669   2.257   4.579   2.734  0.9266  0.1230 -0.1494
  665MOL0     C91670   2.121   4.663   2.716  1.5338 -0.0659  0.2618
  665MOL0     C91671   2.155   4.808   2.697  0.0553  0.1430 -0.8603
  665MOL0     C91672   2.036   4.890   2.637 -0.6840  1.1472 -0.2639
  665MOL0     C91673   1.907   4.872   2.724 -0.3101 -0.1364  0.6848
  665MOL0     C91674   1.805   4.987   2.698  0.8195  0.2310 -0.3153
  665MOL0     C91675   1.822   5.106   2.800  0.2808  0.5021 -0.0596
  665MOL0     C91676   1.866   5.233   2.737  0.2074  0.0070  0.1491
  665MOL0    Cl91677   1.748   5.304   2.623  0.2445  0.6774 -0.0445
  665MOL0     C91678   2.303   4.262   2.884  0.0743 -0.2259  0.1079
  665MOL0     C91679   2.398   4.183   2.939  0.0811  0.0429  1.2590
  665MOL0     O91680   2.723   4.263   3.111 -0.7006 -0.7270 -0.8970
  665MOL0     C91681   2.917   4.035   3.150 -0.7561  0.3176 -1.1241
  665MOL0     C91682   3.025   3.944   3.146 -0.5345 -0.5987 -1.0644
  665MOL0     N91683   3.110   3.317   2.753 -0.4888  0.7108  0.3900
  665MOL0     N91684   3.116   3.193   2.794 -1.0844 -0.2549 -0.6109
  665MOL0     C91685   2.524   3.549   3.403  0.3679  0.5538  0.4047
  665MOL0     C91686   2.498   3.557   3.544  0.0584  0.7453  0.5280
  665MOL0     C91687   2.388   3.392   3.935 -0.5710  0.5733  0.3987
  665MOL0     C91688   2.349   3.524   3.973  0.2892 -0.2464  0.9159
  665MOL0     C91689   2.262   3.552   4.079 -0.3941  0.1085  1.0632
  665MOL0     C91690   2.220   3.454   4.161 -0.0376 -0.0295  0.9367
  665MOL0     O91691   2.143   3.480   4.269  0.0640  0.7264 -0.1753
  665MOL0     C91692   2.087   3.367   4.348 -0.9588 -1.2199  0.0156
  665MOL0     C91693   2.024   3.417   4.484  0.0805  0.2098 -0.3316
  665MOL0     C91694   1.986   3.292   4.567 -0.6719 -0.1503  0.5056
  665MOL0     C91695   2.112   3.217   4.612 -0.4198 -0.2631  1.0538
  665MOL0     C91696   2.066   3.127   4.723  0.0379 -0.8967  0.7190
  665MOL0     C91697   2.027   3.039   4.791 -0.5007  0.7636 -0.3795
  665MOL0     C91698   2.276   3.320   4.133 -0.0618  0.0383 -0.6627
  665MOL0     C91699   2.354   3.284   4.024  0.1062 -0.4393 -0.0097
  665MOL0     C91700   2.388   3.137   4.012  0.1112  0.6213  0.0615
  665MOL0     H91701   2.739   3.353   3.659 -3.0136 -2.0165  1.6027
  665MOL0     H91702   2.804   3.357   3.428  2.5029  3.6197  2.2291
  665MOL0     H91703   2.879   3.509   3.289  0.3015 -4.3212 -0.7000
  665MOL0     H91704   2.826   3.590   3.132  0.1575 -1.4780 -2.1201
  665MOL0     H91705   2.798   3.384   3.019 -1.2179 -2.2318  1.0840
  665MOL0     H91706   2.965   3.408   3.059  1.4180 -0.8651  2.5315
  665MOL0     H91707   2.807   3.210   3.210 -0.9357  3.4916  0.3382
  665MOL0     H91708   2.890   3.187   3.057  0.5518  0.5754  0.1583
  665MOL0     H91709   3.112   3.271   3.164  2.4098 -3.0973  0.0496
  665MOL0     H91710   3.026   3.263   3.315 -0.0243  0.6749 -0.7197
  665MOL0     H91711   2.971   3.015   3.242  1.1196 -2.8361 -2.0289
  665MOL0     H91712   3.142   3.051   3.301  0.7890 -0.7189 -0.5825
  665MOL0     H91713   3.128   2.897   3.104 -0.6759  0.9864  0.2802
  665MOL0     H91714   3.021   3.014   3.027 -1.4174 -1.3200  0.2820
  665MOL0     H91715   3.315   3.025   3.113 -0.7592  0.3031 -0.9733
  665MOL0     H91716   3.241   3.172   3.058 -2.7417  0.5313 -0.4237
  665MOL0     H91717   3.383   3.024   2.900 -1.8379 -2.4386  0.1909
  665MOL0     H91718   3.219   2.954   2.854  2.6808 -1.6704  0.1029
  665MOL0     H91719   3.434   3.266   2.811 -0.4261 -2.3345  2.3332
  665MOL0     H91720   3.185   3.533   2.644 -0.7829 -2.7387  2.1228
  665MOL0     H91721   3.356   3.470   2.623  0.2306 -1.1291 -0.6886
  665MOL0     H91722   3.393   3.554   2.855  0.6525 -0.5737 -1.0580
  665MOL0     H91723   3.355   3.677   2.721 -0.7627 -0.9419 -2.7853
  665MOL0     H91724   3.111   3.664   2.837 -1.4905  0.8305  3.8044
  665MOL0     H91725   3.205   3.573   2.954 -2.5239 -1.1266 -1.2802
  665MOL0     H91726   3.366   3.770   2.959 -0.5666 -0.3607  2.5240
  665MOL0     H91727   3.264   3.845   2.842  0.0529 -1.7270 -1.3332
  665MOL0     H91728   3.015   3.872   2.827 -0.3340 -1.0488  0.6909
  665MOL0     H91729   2.807   4.153   2.766 -0.2536 -0.2017 -0.0207
  665MOL0     H91730   2.736   3.996   2.788  0.6196 -1.1379  3.8949
  665MOL0     H91731   2.885   4.004   2.697 -1.8958 -4.1817  1.1633
  665MOL0     H91732   2.673   4.323   2.796  0.5870  2.6125  0.5853
  665MOL0     H91733   2.508   4.463   2.703 -0.0608 -0.9281  0.2506
  665MOL0     H91734   2.319   4.631   2.808  1.8337  1.1619 -1.5807
  665MOL0     H91735   2.320   4.590   2.645  1.3492 -2.0285 -0.1762
  665MOL0     H91736   2.061   4.633   2.629 -0.5189  0.4567  1.4350
  665MOL0     H91737   2.058   4.661   2.805  1.5319  2.0957  0.3589
  665MOL0     H91738   2.240   4.820   2.630 -0.5217  3.4766 -1.1693
  665MOL0     H91739   2.175   4.862   2.790  1.5719 -2.8918  0.7056
  665MOL0     H91740   2.020   4.858   2.534 -0.2946  2.8837 -0.8868
  665MOL0     H91741   2.069   4.992   2.618 -2.7291  1.1187 -5.7938
  665MOL0     H91742   1.851   4.783   2.696  0.2004 -0.0815 -0.5805
  665MOL0     H91743   1.942   4.855   2.827  1.2401 -1.9196 -0.0795
  665MOL0     H91744   1.702   4.952   2.707  1.3716 -1.8935 -1.4670
  665MOL0     H91745   1.814   5.015   2.593  2.2157 -2.0060 -0.8654
  665MOL0     H91746   1.888   5.064   2.877  0.3012 -0.8489 -0.7868
  665MOL0     H91747   1.732   5.139   2.852  0.5341  4.1400 -1.6427
  665MOL0     H91748   1.962   5.214   2.688 -0.9432  2.3424 -3.4365
  665MOL0     H91749   1.889   5.304   2.817  1.5324 -0.4262  0.1833
  665MOL0     H91750   2.200   4.236   2.909 -0.0871 -1.8011 -1.9130
  665MOL0     H91751   2.365   4.103   3.005 -1.8891  0.9703  1.4740
  665MOL0     H91752   2.894   4.078   3.247 -2.1413 -0.4602 -1.0860
  665MOL0     H91753   3.074   3.942   3.243  1.7967  3.4083 -1.8930
  665MOL0     H91754   2.464   3.602   3.329  2.3345  0.0887 -1.6559
  665MOL0     H91755   2.410   3.615   3.568  0.2905  1.6651 -0.6771
  665MOL0     H91756   2.373   3.610   3.911 -1.5920  0.2172  0.7633
  665MOL0     H91757   2.238   3.654   4.108 -3.0384  0.3268 -1.4507
  665MOL0     H91758   2.025   3.308   4.281  3.9227 -0.3546 -6.2287
  665MOL0     H91759   2.174   3.309   4.381 -1.4830 -1.4360  1.0745
  665MOL0     H91760   1.932   3.476   4.472 -0.7258 -0.9748 -0.1309
  665MOL0     H91761   2.095   3.476   4.543  1.4546 -2.1491  0.5174
  665MOL0     H91762   1.929   3.335   4.650 -0.2058  2.6681 -0.5227
  665MOL0     H91763   1.926   3.224   4.507 -0.5044  0.0834  0.0709
  665MOL0     H91764   2.201   3.273   4.643 -0.9859  1.1029  0.3030
  665MOL0     H91765   2.148   3.157   4.528 -0.9062  0.2921  0.4394
  665MOL0     H91766   1.991   2.965   4.858 -2.3344  0.6959 -1.3786
  665MOL0     H91767   2.263   3.250   4.215 -0.5160  2.1099  1.1452
  665MOL0     H91768   2.308   3.076   3.969  0.8708  0.2760 -0.8894
  665MOL0     H91769   2.477   3.118   3.951 -2.0149 -0.4962 -2.8883
  665MOL0     H91770   2.406   3.101   4.114  0.3288  2.4632  0.7040
  666MOL0     O91771   1.201   0.023   8.878  0.3436  0.4566  0.0682
  666MOL0     C91772   1.285  -0.053   8.835  0.3598  0.7957  0.0913
  666MOL0     O91773   1.405  -0.063   8.896  0.3493  0.1477  0.1106
  666MOL0     C91774   1.431   0.020   9.004  0.1756  0.9436 -0.7894
  666MOL0     C91775   1.556   0.082   9.006  0.1272 -0.2908 -0.2817
  666MOL0     C91776   1.598   0.168   9.111 -0.2907 -0.2954  0.5375
  666MOL0     C91777   1.520   0.190   9.224 -0.2467 -1.1274  0.1251
  666MOL0     O91778   1.552   0.295   9.311 -0.2202  0.2260  0.8768
  666MOL0     C91779   1.473   0.297   9.427  0.1367 -0.1075 -0.2156
  666MOL0     C91780   1.504   0.407   9.530 -0.3718  0.5851 -0.0878
  666MOL0     C91781   1.657   0.429   9.560  0.3941  0.3030 -0.1142
  666MOL0     C91782   1.687   0.536   9.663 -0.2261  0.2000 -0.2899
  666MOL0     C91783   1.821   0.525   9.737 -0.2867 -0.2341 -0.1282
  666MOL0     C91784   1.816   0.585   9.882  0.0395 -0.1790  0.4382
  666MOL0     C91785   1.946   0.588   9.956  0.0505 -0.5338  0.2215
  666MOL0     C91786   2.066   0.672   9.903 -0.9482 -0.0159  1.3363
  666MOL0     N91787   2.163   0.711  10.006 -0.2730 -0.8944 -0.3329
  666MOL0     C91788   2.253   0.639  10.082 -0.0383  0.6051  0.2921
  666MOL0     C91789   2.301   0.721  10.178 -0.1050 -0.6581  0.1202
  666MOL0     C91790   2.405   0.698  10.284  0.7397 -0.3699  0.3309
  666MOL0     C91791   2.351   0.697  10.430 -0.3290 -0.9081  0.6894
  666MOL0     C91792   2.246   0.588  10.464 -0.0040  0.1012  0.7063
  666MOL0     C91793   2.293   0.452  10.498 -0.5965 -0.3991  0.4276
  666MOL0     O91794   2.189   0.350  10.477 -0.5463  0.0055 -0.1713
  666MOL0     C91795   2.160   0.328  10.346 -0.1882 -0.6181  0.3934
  666MOL0     C91796   2.247   0.299  10.247  0.3630  1.0572 -0.4265
  666MOL0     C91797   2.192   0.252  10.127  0.1843 -0.6091 -0.6923
  666MOL0     C91798   2.295   0.208  10.017  0.1484 -0.5075  0.4324
  666MOL0     C91799   2.051   0.245  10.108  0.1555  0.1991 -0.3657
  666MOL0     C91800   1.985   0.192   9.985  0.0846  0.2826  0.0519
  666MOL0     O91801   1.855   0.230   9.960  0.5514 -0.4518  0.4225
  666MOL0     C91802   1.763   0.148   9.894  0.0708 -0.3851 -0.7757
  666MOL0     C91803   1.627   0.196   9.899 -0.4436  0.1664  1.1002
  666MOL0     C91804   1.531   0.144   9.819  0.3226  0.1785  0.9186
  666MOL0     C91805   1.559   0.026   9.744 -0.5690 -0.2625 -0.5356
  666MOL0     O91806   1.454  -0.033   9.674  0.3678  0.2141  0.0099
  666MOL0     C91807   1.495  -0.120   9.563 -0.6565  0.7493 -0.1279
  666MOL0     C91808   1.383  -0.169   9.474  0.1097 -0.9112  0.3017
  666MOL0     C91809   1.295  -0.272   9.550 -0.7042 -0.6302  0.1239
  666MOL0     C91810   1.197  -0.345   9.465 -0.0313  0.3536  0.5890
  666MOL0     C91811   1.083  -0.418   9.534  0.2163 -0.0665 -0.3171
  666MOL0     C91812   0.960  -0.321   9.549  0.2303 -0.5302 -0.6004
  666MOL0     C91813   0.829  -0.404   9.566  0.1614  0.6492  0.0482
  666MOL0     C91814   0.732  -0.329   9.654 -0.2466  0.2919 -0.4625
  666MOL0    Cl91815   0.593  -0.439   9.724  0.2211  0.3929 -0.0789
  666MOL0     C91816   1.682  -0.041   9.771  0.6623 -1.0755  0.7157
  666MOL0     C91817   1.786   0.024   9.833  0.1761 -0.4529 -0.3666
  666MOL0     O91818   2.049   0.107   9.928  0.1957  0.3517 -0.7787
  666MOL0     C91819   1.967   0.287  10.210 -0.0535  1.2279 -0.6079
  666MOL0     C91820   2.026   0.326  10.326 -0.4508  0.5911 -0.3164
  666MOL0     N91821   2.251   0.851  10.146 -0.2279 -0.1984 -0.0063
  666MOL0     N91822   2.172   0.843  10.046 -0.3973  0.5247  0.0260
  666MOL0     C91823   1.401   0.112   9.231  0.3220  0.6469 -0.3049
  666MOL0     C91824   1.366   0.020   9.127 -0.1808 -0.3219  1.0227
  666MOL0     C91825   1.263  -0.156   8.736 -0.9476 -0.2966 -0.0376
  666MOL0     C91826   1.356  -0.259   8.723 -0.1311  0.6548 -0.6484
  666MOL0     C91827   1.354  -0.347   8.618 -0.3022 -0.0637 -0.3821
  666MOL0     C91828   1.251  -0.351   8.526  0.7157 -0.4205 -0.1910
  666MOL0     O91829   1.239  -0.461   8.449 -0.4672 -0.3132 -0.4333
  666MOL0     C91830   1.172  -0.456   8.319 -0.3838 -0.3035  0.9018
  666MOL0     C91831   1.239  -0.564   8.237 -0.2234  0.6058  0.1033
  666MOL0     C91832   1.286  -0.506   8.102 -0.0363 -0.2203 -0.1595
  666MOL0     C91833   1.334  -0.616   8.012  1.0701  0.3044  0.0542
  666MOL0     C91834   1.452  -0.569   7.933 -0.5688  0.2084 -0.4730
  666MOL0     C91835   1.542  -0.551   7.855 -0.6736 -0.4042 -0.2904
  666MOL0     C91836   1.158  -0.240   8.531  0.3036  0.4061  1.0094
  666MOL0     C91837   1.157  -0.149   8.640 -0.3433 -0.5697 -0.4713
  666MOL0     C91838   1.035  -0.062   8.658  0.3486  0.8275  0.1943
  666MOL0     H91839   1.634   0.081   8.930  0.8130  0.4192  0.3990
  666MOL0     H91840   1.687   0.226   9.090  0.9443 -1.7545  1.4782
  666MOL0     H91841   1.485   0.198   9.471  0.3505 -0.9615 -2.0743
  666MOL0     H91842   1.374   0.310   9.382  0.9663 -0.5899 -2.3230
  666MOL0     H91843   1.475   0.501   9.480  2.1123 -0.5734 -4.2007
  666MOL0     H91844   1.440   0.381   9.614 -0.1919  0.9063  0.1544
  666MOL0     H91845   1.712   0.336   9.578 -1.0005 -0.4318  0.4464
  666MOL0     H91846   1.699   0.469   9.467 -0.4067 -0.1337 -0.6742
  666MOL0     H91847   1.686   0.634   9.615 -2.0947  0.8375  0.9048
  666MOL0     H91848   1.602   0.541   9.732  1.3144 -2.6625  2.0618
  666MOL0     H91849   1.901   0.562   9.672  1.7117 -0.8055  1.8804
  666MOL0     H91850   1.852   0.420   9.742  1.3822  0.0315 -3.0500
  666MOL0     H91851   1.778   0.686   9.863 -0.7343 -0.8089 -1.7297
  666MOL0     H91852   1.739   0.533   9.940 -0.3511 -0.3734 -0.2398
  666MOL0     H91853   1.980   0.486   9.978  4.1530  0.9301  1.6021
  666MOL0     H91854   1.921   0.635  10.052  1.9632 -0.9378  0.9717
  666MOL0     H91855   2.131   0.619   9.831  1.7432  0.9861  2.8926
  666MOL0     H91856   2.045   0.761   9.843  2.2806  0.8787  1.3345
  666MOL0     H91857   2.287   0.540  10.053  0.7808  0.3915  1.8536
  666MOL0     H91858   2.481   0.776  10.277  0.7372 -0.2574  1.4637
  666MOL0     H91859   2.454   0.602  10.267 -1.3707 -1.9460  2.4167
  666MOL0     H91860   2.439   0.693  10.496 -2.1597  4.4846  4.1528
  666MOL0     H91861   2.303   0.795  10.443 -0.5025 -0.6217 -1.6726
  666MOL0     H91862   2.188   0.622  10.551 -1.2971 -2.0997  0.7701
  666MOL0     H91863   2.176   0.572  10.382  0.1603 -1.9997  0.9192
  666MOL0     H91864   2.373   0.428  10.428 -1.1884 -0.2891 -0.2945
  666MOL0     H91865   2.332   0.447  10.600  2.4438  0.9060 -0.5645
  666MOL0     H91866   2.355   0.290  10.259  0.6386  1.7340 -2.1624
  666MOL0     H91867   2.257   0.229   9.917 -0.3007  2.5219  1.1386
  666MOL0     H91868   2.338   0.108  10.033 -0.5762 -1.1615 -1.4544
  666MOL0     H91869   2.380   0.276  10.008 -1.5767  1.5248 -1.8411
  666MOL0     H91870   1.606   0.282   9.962  0.8644 -0.1858  2.0454
  666MOL0     H91871   1.438   0.200   9.817  1.1106  1.5275  0.1725
  666MOL0     H91872   1.566  -0.070   9.496  1.0620 -0.3516  0.8029
  666MOL0     H91873   1.556  -0.203   9.600 -0.7388  1.5308  1.9105
  666MOL0     H91874   1.314  -0.097   9.429  2.6402  1.9585  0.6744
  666MOL0     H91875   1.432  -0.211   9.386  3.6154  3.0815  0.0255
  666MOL0     H91876   1.237  -0.214   9.623 -4.9035  0.6616 -3.7680
  666MOL0     H91877   1.364  -0.346   9.592  0.8934  0.1076 -1.0763
  666MOL0     H91878   1.251  -0.427   9.417  2.0785 -0.2624  3.7090
  666MOL0     H91879   1.161  -0.285   9.381  0.1760 -0.2563  0.0509
  666MOL0     H91880   1.054  -0.506   9.477  0.7699 -0.9231  0.6766
  666MOL0     H91881   1.100  -0.455   9.636  0.4477  1.3311  0.1783
  666MOL0     H91882   0.957  -0.253   9.463  0.0192 -0.4057 -0.4950
  666MOL0     H91883   0.985  -0.262   9.638  0.4187 -0.8249 -0.4582
  666MOL0     H91884   0.853  -0.495   9.621  3.7281  2.1320  1.2711
  666MOL0     H91885   0.800  -0.430   9.464 -0.4157  1.1944  0.0689
  666MOL0     H91886   0.691  -0.239   9.607 -2.7762  0.8514  2.4774
  666MOL0     H91887   0.790  -0.294   9.739 -0.1921  1.2345 -0.8818
  666MOL0     H91888   1.682  -0.141   9.730  0.6055  0.0549 -2.3732
  666MOL0     H91889   1.881  -0.030   9.834  1.1741  1.2207 -0.5261
  666MOL0     H91890   1.861   0.304  10.191 -0.3102 -0.9325 -1.3174
  666MOL0     H91891   1.969   0.372  10.406  1.0764 -0.3042  1.3656
  666MOL0     H91892   1.345   0.096   9.322  1.7736  0.1859  0.5520
  666MOL0     H91893   1.292  -0.056   9.154  0.7463 -0.7671  2.4293
  666MOL0     H91894   1.446  -0.259   8.784 -1.6863  1.7642  1.7749
  666MOL0     H91895   1.437  -0.415   8.605 -1.5604 -1.3855 -2.0255
  666MOL0     H91896   1.066  -0.483   8.330 -0.8768  0.4079 -1.4664
  666MOL0     H91897   1.179  -0.357   8.273  1.2422 -0.1468  1.4309
  666MOL0     H91898   1.186  -0.659   8.233  0.3175  0.3488 -2.1984
  666MOL0     H91899   1.333  -0.587   8.288  1.1057 -0.5489 -2.6560
  666MOL0     H91900   1.195  -0.460   8.061  1.1184 -0.0754 -2.7057
  666MOL0     H91901   1.365  -0.433   8.123  1.4565 -1.7338 -0.3681
  666MOL0     H91902   1.251  -0.656   7.953  1.5470  0.4414 -0.7196
  666MOL0     H91903   1.365  -0.696   8.080  0.1783 -1.3485 -1.3889
  666MOL0     H91904   1.624  -0.538   7.788  3.0865 -1.4987  3.6161
  666MOL0     H91905   1.094  -0.225   8.444 -0.4868  1.0711  1.6907
  666MOL0     H91906   0.956  -0.114   8.604 -0.1792 -2.1807  3.4854
  666MOL0     H91907   1.012  -0.058   8.765  0.2656  1.2846  0.1627
  666MOL0     H91908   1.055   0.039   8.621  1.1998  0.6418  0.1268
  667MOL0     O91909   9.582   2.580   0.458 -0.0024  0.0044 -0.1415
  667MOL0     C91910   9.521   2.475   0.449  0.2275 -0.0325 -0.4075
  667MOL0     O91911   9.477   2.418   0.337 -0.6009 -0.6999 -0.4160
  667MOL0     C91912   9.476   2.484   0.220  1.0236  0.1573 -0.0648
  667MOL0     C91913   9.361   2.465   0.143  0.2560  0.9285  0.4343
  667MOL0     C91914   9.355   2.517   0.009 -0.1207 -0.7864 -0.2133
  667MOL0     C91915   9.465   2.577  -0.044  0.4973 -0.2415  0.3111
  667MOL0     O91916   9.475   2.655  -0.151 -0.1213 -0.1917  0.1023
  667MOL0     C91917   9.363   2.639  -0.245  0.2310 -0.1357 -0.8576
  667MOL0     C91918   9.384   2.731  -0.366 -0.3602 -0.1938  0.0331
  667MOL0     C91919   9.527   2.727  -0.422  0.3218  0.1170  0.6540
  667MOL0     C91920   9.571   2.836  -0.524  0.9063  0.9051  0.0892
  667MOL0     C91921   9.623   2.972  -0.467 -0.8311  0.1428  0.3819
  667MOL0     C91922   9.693   3.067  -0.572  0.0427  0.5247  0.1900
  667MOL0     C91923   9.756   3.180  -0.504 -0.1115  0.1865  0.2161
  667MOL0     C91924   9.654   3.293  -0.487 -0.1406  0.6677  0.6326
  667MOL0     N91925   9.722   3.409  -0.443 -0.0433  0.0340  0.5084
  667MOL0     C91926   9.753   3.441  -0.313  0.7198 -0.0337  0.1136
  667MOL0     C91927   9.819   3.553  -0.305  0.3810 -0.8553  0.7640
  667MOL0     C91928   9.877   3.624  -0.174  0.7599  0.0135 -0.3337
  667MOL0     C91929  10.026   3.616  -0.158 -0.7286 -0.4483 -0.0146
  667MOL0     C91930  10.093   3.592  -0.015 -0.3845 -0.7719  0.3474
  667MOL0     C91931  10.043   3.690   0.086  0.9540  0.7808  1.0997
  667MOL0     O91932  10.062   3.822   0.034 -0.7258 -0.3336  0.0995
  667MOL0     C91933  10.081   3.915   0.129  0.4179  0.1385  0.7313
  667MOL0     C91934   9.994   3.931   0.231 -0.0179  0.3543 -0.4092
  667MOL0     C91935   9.996   4.025   0.331  0.0185  0.2734 -0.1131
  667MOL0     C91936   9.876   4.038   0.423  0.2069  0.4073  0.3226
  667MOL0     C91937  10.119   4.108   0.319 -0.7557 -0.7826 -0.3515
  667MOL0     C91938  10.150   4.214   0.406 -0.1906 -0.4041 -0.3797
  667MOL0     O91939  10.215   4.325   0.353  0.5416  0.7192 -0.0047
  667MOL0     C91940  10.218   4.444   0.419 -0.3716 -0.6870 -0.4928
  667MOL0     C91941  10.122   4.493   0.517 -0.2040  0.1219 -0.1915
  667MOL0     C91942  10.111   4.627   0.555 -0.3181 -0.1905  0.1447
  667MOL0     C91943  10.204   4.728   0.497 -0.1207 -0.3044 -0.3629
  667MOL0     O91944  10.202   4.852   0.558  0.9049 -0.4333 -0.6162
  667MOL0     C91945  10.298   4.939   0.506  0.2015  0.0617 -0.8363
  667MOL0     C91946  10.293   5.074   0.575 -0.6117  0.2073  0.3365
  667MOL0     C91947  10.371   5.161   0.480  0.1469 -1.1650 -0.4273
  667MOL0     C91948  10.404   5.302   0.536 -0.0140 -1.1022  0.1950
  667MOL0     C91949  10.486   5.378   0.438  0.7692 -0.5384 -0.1976
  667MOL0     C91950  10.555   5.501   0.502  0.0929 -0.2035 -0.6869
  667MOL0     C91951  10.709   5.512   0.489  0.2713  0.2900  0.0514
  667MOL0     C91952  10.780   5.404   0.589  0.4958 -0.1461  0.8542
  667MOL0    Cl91953  10.959   5.442   0.604  0.2564 -0.1538 -0.2570
  667MOL0     C91954  10.307   4.679   0.409 -0.2784 -0.0787  0.3084
  667MOL0     C91955  10.309   4.543   0.369 -0.1897  0.1057 -0.2348
  667MOL0     O91956  10.119   4.198   0.523  0.3312  0.1871 -0.0183
  667MOL0     C91957  10.208   4.097   0.202 -0.1734 -1.0543 -0.1673
  667MOL0     C91958  10.182   3.998   0.115 -0.3715 -0.0093  0.9897
  667MOL0     N91959   9.832   3.593  -0.446 -0.3422 -0.1292  0.8289
  667MOL0     N91960   9.765   3.513  -0.524 -0.6450  0.3641 -0.0647
  667MOL0     C91961   9.578   2.581   0.027  0.2398 -0.8853  0.2895
  667MOL0     C91962   9.581   2.548   0.163  0.0450 -0.6213 -0.0882
  667MOL0     C91963   9.473   2.400   0.569  0.7704  0.0085 -0.2358
  667MOL0     C91964   9.371   2.299   0.546 -0.5417  0.0076 -0.2839
  667MOL0     C91965   9.308   2.238   0.656 -0.7248  0.2047  0.6482
  667MOL0     C91966   9.355   2.261   0.787  1.0558  0.2199 -0.3139
  667MOL0     O91967   9.291   2.180   0.881  0.5370  0.6043 -0.0633
  667MOL0     C91968   9.237   2.238   1.001  0.3786  0.6809  0.4701
  667MOL0     C91969   9.155   2.139   1.077 -0.8232 -0.2566  0.4503
  667MOL0     C91970   9.039   2.200   1.141  0.0214 -0.2460 -0.1738
  667MOL0     C91971   8.944   2.086   1.202 -0.2677 -1.5164 -1.3096
  667MOL0     C91972   8.830   2.135   1.284 -0.0584 -0.4977  0.4497
  667MOL0     C91973   8.735   2.183   1.346 -0.9239  0.2151  0.7609
  667MOL0     C91974   9.458   2.346   0.808 -0.2158  0.4470  0.7710
  667MOL0     C91975   9.518   2.424   0.702 -0.2444 -0.0015 -0.2775
  667MOL0     C91976   9.628   2.511   0.745 -0.5423  0.2948 -0.2278
  667MOL0     H91977   9.274   2.419   0.189  0.1853 -0.3777 -0.9313
  667MOL0     H91978   9.267   2.513  -0.055  1.7274 -0.5491 -2.9260
  667MOL0     H91979   9.277   2.676  -0.189  3.3807  1.5586  3.4426
  667MOL0     H91980   9.353   2.534  -0.275 -0.6882 -0.0874 -0.7498
  667MOL0     H91981   9.310   2.696  -0.438 -0.3212 -0.6011  0.1888
  667MOL0     H91982   9.369   2.836  -0.340 -2.2455 -0.6951  1.2046
  667MOL0     H91983   9.596   2.724  -0.337 -1.3779  1.6195  2.1805
  667MOL0     H91984   9.532   2.631  -0.473  0.3439 -0.4756  1.7401
  667MOL0     H91985   9.638   2.799  -0.602 -1.8322 -1.2612 -1.4263
  667MOL0     H91986   9.483   2.855  -0.586  0.8734 -2.5608 -1.1767
  667MOL0     H91987   9.692   2.936  -0.391 -2.5610 -2.6823  0.7761
  667MOL0     H91988   9.547   3.026  -0.410  0.1708  0.0609  1.8480
  667MOL0     H91989   9.766   3.011  -0.631  1.8341  0.7253  2.0866
  667MOL0     H91990   9.631   3.099  -0.656  1.6422 -1.9330 -2.0671
  667MOL0     H91991   9.842   3.226  -0.553 -0.7376 -0.0657 -1.1669
  667MOL0     H91992   9.791   3.137  -0.410 -1.0013  1.7145  1.2891
  667MOL0     H91993   9.611   3.313  -0.586  1.4677 -1.4954 -0.5877
  667MOL0     H91994   9.582   3.258  -0.413 -1.2365 -2.8693 -1.8113
  667MOL0     H91995   9.733   3.378  -0.227 -0.3146 -3.8973 -2.6641
  667MOL0     H91996   9.833   3.569  -0.089  0.9283 -2.0568 -1.5245
  667MOL0     H91997   9.843   3.728  -0.168  1.1615  0.1004  3.9120
  667MOL0     H91998  10.047   3.532  -0.224  0.7280  1.0323 -1.5385
  667MOL0     H91999  10.075   3.706  -0.196 -0.3410 -0.5857  0.1545
  667MOL0     H92000  10.074   3.492   0.023  1.1645 -1.2854 -0.1524
  667MOL0     H92001  10.197   3.625  -0.021 -0.9545  0.9529 -1.3232
  667MOL0     H92002   9.934   3.687   0.097 -0.2055  0.3935 -5.9508
  667MOL0     H92003  10.097   3.667   0.178  1.4552 -1.4784  0.2983
  667MOL0     H92004   9.907   3.868   0.216  0.1093 -0.5377  2.0877
  667MOL0     H92005   9.808   3.953   0.415 -0.2638  0.8708 -0.9400
  667MOL0     H92006   9.823   4.131   0.400 -0.0235  0.6417  1.7145
  667MOL0     H92007   9.909   4.052   0.526 -0.7443  0.5108  0.6174
  667MOL0     H92008  10.042   4.438   0.565  0.5371  0.5492  1.6453
  667MOL0     H92009  10.038   4.658   0.629 -1.4197  0.4980 -1.1939
  667MOL0     H92010  10.398   4.904   0.535  0.2572  0.2192 -0.8393
  667MOL0     H92011  10.292   4.950   0.397 -3.0173 -4.7792 -1.4577
  667MOL0     H92012  10.192   5.115   0.583 -0.1266  1.1865  1.8075
  667MOL0     H92013  10.335   5.075   0.676  0.4295 -1.2955 -0.0485
  667MOL0     H92014  10.317   5.169   0.385 -1.7249  1.6507  0.7476
  667MOL0     H92015  10.465   5.106   0.463 -0.3406 -2.5900  1.1631
  667MOL0     H92016  10.466   5.279   0.624 -1.7496  1.9973  2.4280
  667MOL0     H92017  10.319   5.361   0.572  0.3813 -1.3613  1.6380
  667MOL0     H92018  10.569   5.319   0.396  0.4234  1.8239 -4.8092
  667MOL0     H92019  10.423   5.414   0.357  0.6452 -0.2781  0.0119
  667MOL0     H92020  10.532   5.504   0.609  1.3548 -1.7673 -0.3232
  667MOL0     H92021  10.514   5.588   0.452  1.8886  1.1881  0.1263
  667MOL0     H92022  10.747   5.607   0.528  3.4271 -0.3360 -1.1932
  667MOL0     H92023  10.742   5.499   0.386  0.9982  1.5943  0.0913
  667MOL0     H92024  10.762   5.305   0.546  0.7795 -0.1893  0.8345
  667MOL0     H92025  10.747   5.427   0.691 -0.6211  0.6892  0.3168
  667MOL0     H92026  10.387   4.742   0.372 -0.5401 -0.2225 -0.5342
  667MOL0     H92027  10.387   4.516   0.299 -1.2453 -1.9794 -0.6867
  667MOL0     H92028  10.306   4.140   0.182  0.0034 -2.1463 -1.8544
  667MOL0     H92029  10.254   3.993   0.034 -0.6757  2.3300  0.5199
  667MOL0     H92030   9.656   2.646  -0.012  1.1291 -1.0484  1.7081
  667MOL0     H92031   9.674   2.572   0.213 -0.7952  0.9867  0.7723
  667MOL0     H92032   9.341   2.279   0.444 -1.5241  1.5457 -0.3192
  667MOL0     H92033   9.230   2.165   0.643  1.2187 -2.0997  1.3098
  667MOL0     H92034   9.316   2.262   1.073  0.8445 -0.2345  0.2748
  667MOL0     H92035   9.192   2.337   0.987  0.8890  0.6169 -2.1629
  667MOL0     H92036   9.218   2.085   1.148 -1.3879 -1.3165  0.1667
  667MOL0     H92037   9.110   2.064   1.011 -1.3352  1.4844 -1.2498
  667MOL0     H92038   9.069   2.262   1.226  1.3314 -1.9793  0.6843
  667MOL0     H92039   8.993   2.264   1.065  1.1206 -1.4104 -1.8936
  667MOL0     H92040   9.003   2.022   1.268  1.2429  0.1985 -0.9238
  667MOL0     H92041   8.908   2.026   1.118  1.7194 -1.4923 -2.2188
  667MOL0     H92042   8.647   2.223   1.392 -1.5233  0.6815 -0.7544
  667MOL0     H92043   9.500   2.352   0.908  0.7824  1.0338  0.3281
  667MOL0     H92044   9.653   2.501   0.851  1.2363 -1.2437 -0.7398
  667MOL0     H92045   9.716   2.474   0.691 -0.6132  0.8698 -0.7465
  667MOL0     H92046   9.634   2.616   0.715  1.8369 -0.3895 -2.5445
  668MOL0     O92047   0.055   9.305   7.966 -0.1688 -0.0860 -0.1330
  668MOL0     C92048   0.044   9.421   8.025  0.2020  0.5964 -0.2086
  668MOL0     O92049  -0.052   9.451   8.119 -0.4577 -0.3461  0.2481
  668MOL0     C92050  -0.145   9.358   8.140  0.7198  0.3084 -1.0390
  668MOL0     C92051  -0.270   9.374   8.082 -0.2753 -0.0979 -0.0195
  668MOL0     C92052  -0.372   9.288   8.123 -0.5027  0.8227 -0.1666
  668MOL0     C92053  -0.353   9.175   8.203  0.4867 -0.4103  0.2061
  668MOL0     O92054  -0.464   9.100   8.228  0.8738 -0.1199 -0.4150
  668MOL0     C92055  -0.516   9.128   8.356 -0.0018 -0.5336 -0.6940
  668MOL0     C92056  -0.665   9.081   8.364  0.4839  0.5004 -0.1006
  668MOL0     C92057  -0.737   9.110   8.501 -0.4332 -0.3037 -0.3950
  668MOL0     C92058  -0.875   9.048   8.520  0.7711 -0.0490 -1.0701
  668MOL0     C92059  -0.927   9.063   8.663  0.7637 -0.0208  0.8806
  668MOL0     C92060  -1.028   8.960   8.700 -0.4755  0.7717  0.3565
  668MOL0     C92061  -1.114   9.000   8.820 -0.2759 -0.8519  0.4445
  668MOL0     C92062  -1.211   8.888   8.861 -1.5323 -0.9174 -0.6802
  668MOL0     N92063  -1.272   8.917   8.990  0.5509  0.4629  0.5852
  668MOL0     C92064  -1.380   8.989   9.017  0.6488  0.5292  0.1991
  668MOL0     C92065  -1.418   8.967   9.148  1.4268  0.3464  0.6007
  668MOL0     C92066  -1.521   9.038   9.238  0.1104 -0.3404  0.4694
  668MOL0     C92067  -1.511   8.986   9.386  0.4428 -0.2787  0.6450
  668MOL0     C92068  -1.601   9.076   9.463 -0.9266 -0.5849  0.2072
  668MOL0     C92069  -1.594   9.057   9.619  0.3616  0.8785  0.2649
  668MOL0     O92070  -1.698   9.147   9.668  0.3529  0.3398  0.0155
  668MOL0     C92071  -1.667   9.271   9.732 -0.6240 -0.2705 -0.4485
  668MOL0     C92072  -1.541   9.337   9.709 -0.3318 -0.5223 -0.0909
  668MOL0     C92073  -1.501   9.456   9.767 -0.3452 -0.4962 -0.0216
  668MOL0     C92074  -1.370   9.520   9.731  0.0208 -0.0344  1.3744
  668MOL0     C92075  -1.598   9.514   9.859  0.2921 -0.4290 -0.4407
  668MOL0     C92076  -1.578   9.637   9.935 -0.0043 -0.1050  0.2036
  668MOL0     O92077  -1.461   9.649  10.001 -0.0891 -0.1171  0.1516
  668MOL0     C92078  -1.430   9.775  10.040 -0.3714  0.1048  0.0987
  668MOL0     C92079  -1.486   9.838  10.154  0.1418 -0.4596 -0.0841
  668MOL0     C92080  -1.454   9.969  10.198 -0.3140  0.7397  0.6323
  668MOL0     C92081  -1.361  10.040  10.129 -0.2028  0.0456 -0.1753
  668MOL0     O92082  -1.344  10.166  10.171 -0.0001 -0.4389  0.3612
  668MOL0     C92083  -1.238  10.245  10.128 -0.6608 -0.3543  0.3141
  668MOL0     C92084  -1.192  10.343  10.238  0.1026 -0.5639  0.3030
  668MOL0     C92085  -1.114  10.266  10.343 -0.1031 -0.1752 -0.1356
  668MOL0     C92086  -1.031  10.367  10.426 -0.2130 -0.2821 -0.5076
  668MOL0     C92087  -0.955  10.308  10.551  0.3517  0.9059 -0.0127
  668MOL0     C92088  -1.049  10.276  10.667  0.2686  0.0117  1.2903
  668MOL0     C92089  -0.973  10.227  10.783  0.0301 -0.1192 -0.3609
  668MOL0     C92090  -1.043  10.235  10.922 -0.1462 -0.2110  0.4467
  668MOL0    Cl92091  -1.195  10.150  10.941 -0.0737 -0.0442  0.2756
  668MOL0     C92092  -1.307   9.977  10.004 -0.2558 -0.3402  0.1885
  668MOL0     C92093  -1.338   9.848   9.968  0.4652  0.0798 -0.9473
  668MOL0     O92094  -1.666   9.718   9.933 -0.2865  0.9333  1.0660
  668MOL0     C92095  -1.725   9.453   9.866  1.1666 -0.3789  0.1659
  668MOL0     C92096  -1.755   9.331   9.807  0.7629 -1.2444 -0.2811
  668MOL0     N92097  -1.328   8.873   9.186  0.7569  0.2967  0.3779
  668MOL0     N92098  -1.244   8.856   9.098  0.7868  0.2711 -0.9202
  668MOL0     C92099  -0.234   9.180   8.280 -0.4079 -0.8235 -0.1967
  668MOL0     C92100  -0.126   9.271   8.247  0.0607  0.5268  0.3711
  668MOL0     C92101   0.126   9.530   7.985 -0.2275 -0.4233  0.9908
  668MOL0     C92102   0.164   9.623   8.078  1.0054  0.4438  0.2461
  668MOL0     C92103   0.250   9.719   8.050 -0.5079  0.2308  0.5436
  668MOL0     C92104   0.305   9.736   7.923  0.0391  0.1765  0.6933
  668MOL0     O92105   0.413   9.821   7.900  0.4242  0.2573 -0.0803
  668MOL0     C92106   0.386   9.919   7.790  0.3489  0.2897  0.6765
  668MOL0     C92107   0.464  10.037   7.802 -0.1553  0.0264 -0.0900
  668MOL0     C92108   0.451  10.108   7.668 -0.6663 -0.2594  0.5370
  668MOL0     C92109   0.494  10.253   7.672 -0.2963 -0.2899  0.0032
  668MOL0     C92110   0.557  10.310   7.555 -0.4172  0.2541  0.6268
  668MOL0     C92111   0.606  10.374   7.461  0.2516 -0.5509  0.5377
  668MOL0     C92112   0.265   9.650   7.819  0.4543  0.3434  0.1732
  668MOL0     C92113   0.175   9.547   7.848  0.4501  0.8549 -0.8850
  668MOL0     C92114   0.147   9.437   7.742  0.0021  0.0513  0.9762
  668MOL0     H92115  -0.286   9.454   8.010  1.1832  0.3456  0.1025
  668MOL0     H92116  -0.468   9.291   8.074 -0.2562  2.6358 -0.6317
  668MOL0     H92117  -0.515   9.235   8.375  0.5687 -0.6763  0.1375
  668MOL0     H92118  -0.465   9.087   8.444 -1.5399 -0.7761  0.1172
  668MOL0     H92119  -0.725   9.123   8.282  1.3648  2.1085  0.0347
  668MOL0     H92120  -0.637   8.977   8.346 -1.5552  0.1495 -1.5542
  668MOL0     H92121  -0.672   9.085   8.586  0.6025  3.2404 -0.0159
  668MOL0     H92122  -0.743   9.219   8.505 -2.1834 -0.3957  0.4397
  668MOL0     H92123  -0.933   9.094   8.440  1.2444  1.7756 -0.4118
  668MOL0     H92124  -0.868   8.940   8.504  0.4094 -0.4318  0.9989
  668MOL0     H92125  -0.961   9.166   8.675  0.1160 -0.1618  0.3123
  668MOL0     H92126  -0.847   9.052   8.737  0.4820  2.3811  1.6382
  668MOL0     H92127  -1.095   8.946   8.615 -1.2386 -1.5818  1.2928
  668MOL0     H92128  -0.980   8.864   8.720  0.9316  1.6290  1.3293
  668MOL0     H92129  -1.176   9.085   8.793  0.5268 -0.6141 -0.7817
  668MOL0     H92130  -1.049   9.031   8.902  1.6230  1.0104 -1.6467
  668MOL0     H92131  -1.286   8.878   8.783 -1.0423  1.1476 -1.4748
  668MOL0     H92132  -1.158   8.792   8.874 -0.6664 -0.4954 -0.9981
  668MOL0     H92133  -1.418   9.064   8.948  1.3213  0.0457 -0.7113
  668MOL0     H92134  -1.620   9.035   9.190 -0.8947  2.3695  2.1448
  668MOL0     H92135  -1.489   9.143   9.236  3.3826 -1.1679  2.4858
  668MOL0     H92136  -1.529   8.878   9.386  1.7358 -0.8697 -5.5884
  668MOL0     H92137  -1.409   9.001   9.422 -0.0396 -0.2242  2.0453
  668MOL0     H92138  -1.585   9.180   9.431 -4.8568 -0.9936 -4.2801
  668MOL0     H92139  -1.701   9.060   9.421  0.3302 -0.9206 -2.9762
  668MOL0     H92140  -1.612   8.956   9.656  0.4795  0.4910 -0.6980
  668MOL0     H92141  -1.498   9.093   9.658 -0.5683  2.3412  1.3056
  668MOL0     H92142  -1.468   9.298   9.639  1.3491  1.2277  0.5805
  668MOL0     H92143  -1.353   9.516   9.623  0.3885 -1.2179  1.4594
  668MOL0     H92144  -1.282   9.472   9.774  1.3540  1.1695  0.1069
  668MOL0     H92145  -1.379   9.628   9.748  1.5258  0.8831 -2.5462
  668MOL0     H92146  -1.553   9.775  10.211 -2.0045 -0.1544 -2.0709
  668MOL0     H92147  -1.490  10.023  10.285  3.3761  2.7038  1.1436
  668MOL0     H92148  -1.149  10.198  10.086 -2.6516 -2.1130 -2.2793
  668MOL0     H92149  -1.273  10.308  10.046 -1.3134  0.2205  1.0159
  668MOL0     H92150  -1.119  10.414  10.198 -0.5923  0.7793  1.3315
  668MOL0     H92151  -1.278  10.397  10.280  1.4320  0.4682  1.8010
  668MOL0     H92152  -1.047  10.194  10.296  1.3135 -0.1419  1.6985
  668MOL0     H92153  -1.176  10.213  10.417  3.3500 -0.3021  2.9956
  668MOL0     H92154  -1.106  10.428  10.477  0.5697  1.0031 -0.8339
  668MOL0     H92155  -0.970  10.430  10.360  0.5685 -0.3336  0.1480
  668MOL0     H92156  -0.908  10.214  10.520  0.3222  0.4428  1.3095
  668MOL0     H92157  -0.871  10.367  10.589  2.4839 -2.2929  0.6795
  668MOL0     H92158  -1.123  10.203  10.633  0.2829  0.5886 -0.0150
  668MOL0     H92159  -1.098  10.371  10.688  3.6279  1.7438  1.9941
  668MOL0     H92160  -0.879  10.282  10.788  0.0528  0.0490 -2.0206
  668MOL0     H92161  -0.933  10.126  10.771  0.2405 -0.1526  0.5334
  668MOL0     H92162  -1.059  10.343  10.932 -1.5475 -0.1651 -1.6436
  668MOL0     H92163  -0.973  10.204  10.999  0.5229  3.1351  1.3442
  668MOL0     H92164  -1.257  10.041   9.932 -1.7553 -1.1649 -1.7007
  668MOL0     H92165  -1.320   9.812   9.867 -5.9782  1.8881 -3.2638
  668MOL0     H92166  -1.799   9.508   9.923  1.4053 -0.8137  0.9111
  668MOL0     H92167  -1.853   9.282   9.810 -0.5694  1.0789 -2.2205
  668MOL0     H92168  -0.217   9.106   8.358 -2.1927  0.6043  1.6647
  668MOL0     H92169  -0.040   9.263   8.312  1.4929 -0.7439 -1.5334
  668MOL0     H92170   0.138   9.613   8.182  2.4422 -0.5506  0.5392
  668MOL0     H92171   0.304   9.783   8.119 -2.1901  1.4707  0.7709
  668MOL0     H92172   0.408   9.862   7.700  0.5531 -4.0796  3.2243
  668MOL0     H92173   0.280   9.941   7.802  0.6812  1.1081  2.5296
  668MOL0     H92174   0.569  10.013   7.823 -0.2107  1.4144  2.1995
  668MOL0     H92175   0.424  10.101   7.882  2.1745  0.3531  0.8901
  668MOL0     H92176   0.524  10.064   7.600  2.6805  2.7104  1.8804
  668MOL0     H92177   0.356  10.093   7.615 -0.7233 -3.2742  1.3201
  668MOL0     H92178   0.570  10.273   7.747  3.3891 -0.8700 -3.2555
  668MOL0     H92179   0.405  10.310   7.702  1.3393  0.9101  3.0048
  668MOL0     H92180   0.655  10.437   7.390  0.1472  0.1384  1.0582
  668MOL0     H92181   0.302   9.644   7.717  0.5594 -1.5823  0.2915
  668MOL0     H92182   0.210   9.349   7.756  0.4413  0.6253  2.7945
  668MOL0     H92183   0.041   9.408   7.738 -0.8377  2.8779 -0.3638
  668MOL0     H92184   0.165   9.481   7.643 -0.4376 -0.7348  0.5275
  669MOL0     O92185   8.134   8.591   1.935 -0.5250  0.3709 -0.1155
  669MOL0     C92186   8.124   8.532   1.829 -0.1378 -0.3363  0.7159
  669MOL0     O92187   8.144   8.581   1.709 -0.6167 -0.7676 -0.4998
  669MOL0     C92188   8.185   8.712   1.708  0.6926 -0.8784  0.3325
  669MOL0     C92189   8.324   8.746   1.719 -0.6030 -1.3880  0.5217
  669MOL0     C92190   8.350   8.887   1.717 -0.5226 -0.1349  0.5296
  669MOL0     C92191   8.250   8.984   1.694  0.9517 -0.0517  1.5864
  669MOL0     O92192   8.279   9.123   1.679 -0.2596  0.3826  0.2623
  669MOL0     C92193   8.400   9.161   1.615  0.5674  0.3298  0.2295
  669MOL0     C92194   8.407   9.318   1.634  0.3350  0.0863 -0.2907
  669MOL0     C92195   8.331   9.385   1.517  0.9050  0.5691 -0.7451
  669MOL0     C92196   8.307   9.537   1.542 -0.4215  0.1536 -0.6355
  669MOL0     C92197   8.266   9.615   1.418  1.0552  0.9668 -0.5280
  669MOL0     C92198   8.133   9.563   1.371  0.1995 -0.6341 -0.2686
  669MOL0     C92199   8.064   9.659   1.266  0.6091  0.6863  0.0665
  669MOL0     C92200   8.024   9.791   1.342 -0.8017  0.1595  0.0753
  669MOL0     N92201   7.953   9.876   1.248  0.2911  0.6165  0.2321
  669MOL0     C92202   7.826   9.847   1.197 -0.1386  0.4230  0.8806
  669MOL0     C92203   7.799   9.948   1.112  0.0707 -0.6708  0.2705
  669MOL0     C92204   7.669   9.956   1.031  0.1845  0.3894  0.4184
  669MOL0     C92205   7.665  10.071   0.932 -0.2650  0.7649  0.3332
  669MOL0     C92206   7.566  10.046   0.819 -0.0115 -0.0556 -0.5302
  669MOL0     C92207   7.625   9.947   0.713 -0.2863  0.6393  0.2632
  669MOL0     O92208   7.709  10.018   0.622  0.6936  0.5764 -0.2825
  669MOL0     C92209   7.767   9.972   0.507 -0.6387  1.2235  0.7428
  669MOL0     C92210   7.845  10.048   0.416 -0.3588  0.5970 -0.3756
  669MOL0     C92211   7.914   9.988   0.308  0.1130 -0.5400  0.5852
  669MOL0     C92212   7.998  10.080   0.218 -0.0103  0.1639 -0.0416
  669MOL0     C92213   7.904   9.855   0.289  0.2229  0.2759  0.0391
  669MOL0     C92214   7.955   9.798   0.166  0.7343  0.2208  0.4143
  669MOL0     O92215   7.863   9.734   0.079 -0.4413 -0.0732  0.0892
  669MOL0     C92216   7.901   9.681  -0.045 -0.1210 -0.7390  0.3371
  669MOL0     C92217   7.816   9.601  -0.113  0.9149 -0.8014  0.3846
  669MOL0     C92218   7.843   9.555  -0.245  0.3417  0.5317  0.4879
  669MOL0     C92219   7.952   9.601  -0.312 -0.1332  0.0311  0.6651
  669MOL0     O92220   7.969   9.576  -0.453  0.1519 -1.3819  0.8937
  669MOL0     C92221   7.863   9.498  -0.533 -0.1489 -0.2587 -0.8033
  669MOL0     C92222   7.760   9.598  -0.576  0.5223 -0.0582 -0.6191
  669MOL0     C92223   7.653   9.536  -0.667  1.0418  0.0180  0.1428
  669MOL0     C92224   7.585   9.398  -0.646 -0.2054  0.1758 -0.2171
  669MOL0     C92225   7.492   9.366  -0.753  0.3065  0.3549  0.7149
  669MOL0     C92226   7.468   9.209  -0.749  0.5150  0.0057 -0.1451
  669MOL0     C92227   7.421   9.148  -0.615  0.2850 -0.4428 -0.5716
  669MOL0     C92228   7.441   8.991  -0.627  0.8050  0.5401  0.0439
  669MOL0    Cl92229   7.409   8.882  -0.485  0.1369  0.0548  0.1791
  669MOL0     C92230   8.044   9.679  -0.247 -0.2737  0.4268 -0.2203
  669MOL0     C92231   8.019   9.725  -0.117 -0.0641  0.7488 -0.4504
  669MOL0     O92232   8.072   9.796   0.151 -0.8339 -0.4901 -0.7650
  669MOL0     C92233   7.832   9.781   0.384 -0.0408 -0.1869  1.0331
  669MOL0     C92234   7.762   9.838   0.485  0.9613 -0.2328  0.0232
  669MOL0     N92235   7.901  10.038   1.119 -0.1613  0.1420  0.1312
  669MOL0     N92236   7.994   9.997   1.195 -0.1702  0.3242 -0.0303
  669MOL0     C92237   8.121   8.936   1.659 -0.9607 -0.6425 -0.3806
  669MOL0     C92238   8.083   8.802   1.683 -0.1782 -0.4580  1.0960
  669MOL0     C92239   8.094   8.394   1.838 -1.1676  0.1578  0.2529
  669MOL0     C92240   8.080   8.323   1.710 -0.5175 -0.5480  0.1540
  669MOL0     C92241   8.061   8.180   1.707 -0.3562 -0.1933 -0.4468
  669MOL0     C92242   8.068   8.111   1.830  0.4149 -0.4673 -0.0968
  669MOL0     O92243   8.068   7.976   1.847  0.1886 -0.1730  0.1488
  669MOL0     C92244   8.054   7.893   1.727 -0.1874 -0.3225  0.0962
  669MOL0     C92245   8.041   7.753   1.769 -0.1505  0.1988  0.6255
  669MOL0     C92246   7.993   7.665   1.651  0.2677  0.0455  0.2843
  669MOL0     C92247   7.934   7.526   1.698 -0.3083 -0.1218  0.7716
  669MOL0     C92248   8.039   7.455   1.777  0.0625 -0.0350 -0.6517
  669MOL0     C92249   8.123   7.403   1.844  0.3058 -0.4406 -0.3586
  669MOL0     C92250   8.078   8.178   1.948 -0.5515  0.8523  0.1965
  669MOL0     C92251   8.082   8.320   1.954  0.2946  0.2659  0.1140
  669MOL0     C92252   8.094   8.378   2.093  0.2937 -0.3289  0.3397
  669MOL0     H92253   8.406   8.678   1.739  0.1866 -0.9870 -1.1978
  669MOL0     H92254   8.441   8.944   1.730 -0.7402 -0.1796  2.5803
  669MOL0     H92255   8.391   9.140   1.508  0.0297  1.6906 -0.0180
  669MOL0     H92256   8.492   9.114   1.652  1.2653 -1.9648 -3.8209
  669MOL0     H92257   8.362   9.340   1.731  0.3991  1.0125 -0.4642
  669MOL0     H92258   8.512   9.349   1.639  0.5357 -0.4454 -0.9932
  669MOL0     H92259   8.391   9.375   1.426  2.5804 -0.5897  0.4325
  669MOL0     H92260   8.236   9.338   1.491  1.2651  1.0929 -3.1887
  669MOL0     H92261   8.233   9.558   1.620 -0.8680 -2.7802 -0.1377
  669MOL0     H92262   8.405   9.573   1.576  2.1411 -3.8974 -2.9490
  669MOL0     H92263   8.349   9.594   1.350  1.7820  0.2767  0.5384
  669MOL0     H92264   8.258   9.723   1.435 -1.6384  0.9618 -1.3526
  669MOL0     H92265   8.151   9.465   1.325  0.0432 -0.6662 -0.2638
  669MOL0     H92266   8.067   9.544   1.456 -2.8109 -0.6431 -2.4463
  669MOL0     H92267   7.974   9.612   1.225  0.6479  0.2214  0.5027
  669MOL0     H92268   8.135   9.676   1.185  3.5878  0.0218  2.3878
  669MOL0     H92269   7.953   9.765   1.422 -2.3418  2.3612 -0.4958
  669MOL0     H92270   8.119   9.840   1.363  2.0555 -3.7001 -2.3680
  669MOL0     H92271   7.754   9.774   1.232  2.0812 -2.2859  0.1024
  669MOL0     H92272   7.588   9.972   1.103 -0.5284  0.0176 -0.2756
  669MOL0     H92273   7.647   9.862   0.978 -4.3068  1.5715 -0.2639
  669MOL0     H92274   7.633  10.158   0.990  0.8206  1.2786  0.1739
  669MOL0     H92275   7.762  10.101   0.893 -0.5162  1.8807  0.5289
  669MOL0     H92276   7.481  10.000   0.871  1.1647  2.7290  4.5398
  669MOL0     H92277   7.527  10.139   0.777 -2.3199  0.2974  2.1188
  669MOL0     H92278   7.666   9.856   0.758 -0.1018  0.1506 -0.8545
  669MOL0     H92279   7.536   9.913   0.659  0.6564 -2.5280  0.4995
  669MOL0     H92280   7.854  10.154   0.438  0.6751  0.4308  0.0642
  669MOL0     H92281   8.107  10.073   0.228  0.2360  0.1675 -2.3254
  669MOL0     H92282   7.966  10.182   0.237 -0.4848 -0.3411  2.2627
  669MOL0     H92283   7.971  10.062   0.114 -0.3780  3.8948 -0.7293
  669MOL0     H92284   7.725   9.561  -0.069 -0.3659  0.2682 -1.1656
  669MOL0     H92285   7.765   9.495  -0.291  1.3146 -1.2284  1.0378
  669MOL0     H92286   7.911   9.455  -0.622  2.3751 -2.5778  1.5002
  669MOL0     H92287   7.831   9.415  -0.469 -1.2009  0.8433  0.1465
  669MOL0     H92288   7.713   9.651  -0.492 -2.3898 -0.3507 -1.9676
  669MOL0     H92289   7.813   9.677  -0.631 -0.4689 -0.5207 -2.3025
  669MOL0     H92290   7.710   9.517  -0.758  3.1371  1.4012  1.0853
  669MOL0     H92291   7.567   9.601  -0.686  0.3305  0.4168  3.9068
  669MOL0     H92292   7.535   9.390  -0.549  0.3226  0.5885  0.0929
  669MOL0     H92293   7.676   9.336  -0.646  2.8031  4.1970 -0.8237
  669MOL0     H92294   7.392   9.410  -0.748 -0.9696 -2.0389 -1.4264
  669MOL0     H92295   7.535   9.382  -0.852  0.6759 -1.4933  0.5497
  669MOL0     H92296   7.553   9.153  -0.788  0.6057 -0.8470  1.2358
  669MOL0     H92297   7.390   9.194  -0.825  0.6689  1.9571 -0.7572
  669MOL0     H92298   7.316   9.167  -0.589  0.6841 -1.1126  1.7464
  669MOL0     H92299   7.478   9.188  -0.531  1.2336  1.6075 -2.0684
  669MOL0     H92300   7.550   8.984  -0.620  0.9032 -0.9315 -1.9545
  669MOL0     H92301   7.414   8.952  -0.726 -3.9229  0.8690  0.9526
  669MOL0     H92302   8.125   9.719  -0.308  0.1452 -1.8963 -1.2952
  669MOL0     H92303   8.094   9.798  -0.087 -0.6366  2.0863 -2.0854
  669MOL0     H92304   7.825   9.675   0.362  0.5441  0.3777 -2.3356
  669MOL0     H92305   7.692   9.782   0.547  1.6204  1.0856  2.0564
  669MOL0     H92306   8.050   9.008   1.619 -0.6880 -0.4540 -0.5347
  669MOL0     H92307   7.978   8.781   1.661  0.2717 -1.1055 -0.6653
  669MOL0     H92308   8.084   8.370   1.612  0.2491  2.2985  1.4369
  669MOL0     H92309   8.053   8.121   1.617 -0.4865 -1.2864  0.2666
  669MOL0     H92310   7.960   7.924   1.680 -0.2776  0.9745  1.0757
  669MOL0     H92311   8.128   7.896   1.646  0.0276 -1.4350  0.2408
  669MOL0     H92312   7.987   7.739   1.864 -1.3062  1.7655  0.2360
  669MOL0     H92313   8.148   7.729   1.778 -0.1533 -0.8754 -1.5377
  669MOL0     H92314   7.916   7.713   1.591 -0.9898 -0.4329  1.4736
  669MOL0     H92315   8.079   7.644   1.587  1.3321  2.0831  0.9379
  669MOL0     H92316   7.911   7.462   1.613  0.3650 -3.9095  3.1845
  669MOL0     H92317   7.835   7.531   1.745 -0.9910 -1.5602 -0.4160
  669MOL0     H92318   8.199   7.363   1.908  0.2270  2.7963  2.0539
  669MOL0     H92319   8.091   8.120   2.040 -1.3947 -2.3755 -1.5751
  669MOL0     H92320   8.120   8.303   2.169 -0.1080 -2.7507 -1.7806
  669MOL0     H92321   8.185   8.438   2.104 -1.5722  2.3016  2.7944
  669MOL0     H92322   8.007   8.437   2.123  0.3166 -0.1186  0.0010
  670MOL0     O92323   7.549   2.370   2.183  0.0869  0.4692  0.3339
  670MOL0     C92324   7.563   2.470   2.251  0.3456  0.1259 -0.5081
  670MOL0     O92325   7.513   2.487   2.376  0.3988  0.6732 -0.8319
  670MOL0     C92326   7.442   2.386   2.442 -0.8029  0.5314  0.4208
  670MOL0     C92327   7.309   2.411   2.475  0.1623 -0.1309  0.7021
  670MOL0     C92328   7.224   2.302   2.508  0.3989 -1.3885 -0.1793
  670MOL0     C92329   7.271   2.176   2.531 -0.5586  0.2442  0.9313
  670MOL0     O92330   7.194   2.061   2.549 -0.1284 -0.1792 -0.0086
  670MOL0     C92331   7.058   2.061   2.515  0.5047 -0.1927 -0.4751
  670MOL0     C92332   7.041   2.058   2.362 -0.4599  0.0009 -0.7866
  670MOL0     C92333   6.897   2.072   2.338 -0.3185 -0.3415 -0.3745
  670MOL0     C92334   6.858   2.157   2.212  0.0684  0.9743  1.2045
  670MOL0     C92335   6.895   2.092   2.081  0.7416  0.3840  0.3525
  670MOL0     C92336   6.793   1.988   2.029  0.0610  0.1678  0.1028
  670MOL0     C92337   6.654   2.050   1.996 -1.7094  0.4364 -0.1867
  670MOL0     C92338   6.572   1.958   1.911 -0.1248  0.2310  0.0517
  670MOL0     N92339   6.441   2.012   1.879  0.3790 -0.2850  0.5366
  670MOL0     C92340   6.411   2.139   1.834 -0.1199  0.0666 -0.3553
  670MOL0     C92341   6.276   2.135   1.818  0.8576 -0.6156  0.3841
  670MOL0     C92342   6.180   2.256   1.811 -0.1813 -0.4644  0.2925
  670MOL0     C92343   6.252   2.390   1.782 -0.4356 -0.2418  0.1393
  670MOL0     C92344   6.147   2.506   1.765  0.6488  0.2119 -0.2128
  670MOL0     C92345   6.202   2.644   1.749 -0.4025  0.1910  0.7276
  670MOL0     O92346   6.275   2.689   1.868 -0.2106  0.5238  0.0625
  670MOL0     C92347   6.315   2.825   1.877  0.1814  0.2801  0.2163
  670MOL0     C92348   6.343   2.865   2.006  0.0371  0.2113  1.0992
  670MOL0     C92349   6.391   2.986   2.027 -0.1748  0.0552  0.5792
  670MOL0     C92350   6.409   3.021   2.174  0.2099  0.3992  1.1279
  670MOL0     C92351   6.419   3.069   1.911  0.3954  0.3964  0.2425
  670MOL0     C92352   6.469   3.214   1.928 -1.0320  0.5014  0.6427
  670MOL0     O92353   6.518   3.273   1.810 -0.3258 -0.0407 -0.1703
  670MOL0     C92354   6.572   3.400   1.806  0.6329  0.4205 -0.6575
  670MOL0     C92355   6.666   3.447   1.895  0.7737  0.6910  0.2187
  670MOL0     C92356   6.717   3.582   1.880 -0.3342 -1.1985  0.0368
  670MOL0     C92357   6.676   3.671   1.777 -0.2134  0.0827  0.4176
  670MOL0     O92358   6.718   3.802   1.780 -0.7700 -0.4693 -0.1099
  670MOL0     C92359   6.658   3.890   1.685 -0.3074 -0.0249  0.1122
  670MOL0     C92360   6.715   4.031   1.693  0.7833 -0.3737 -0.0305
  670MOL0     C92361   6.633   4.122   1.605  0.2048 -0.4488  0.0629
  670MOL0     C92362   6.673   4.262   1.638 -0.0865 -0.9842  0.9477
  670MOL0     C92363   6.597   4.354   1.548 -0.4653  0.3598 -0.2748
  670MOL0     C92364   6.646   4.365   1.403 -0.1857 -0.1587 -0.0665
  670MOL0     C92365   6.584   4.498   1.341  0.2681 -0.0219  0.0864
  670MOL0     C92366   6.611   4.517   1.196 -0.0390 -1.1068 -0.3650
  670MOL0    Cl92367   6.488   4.430   1.101  0.1237  0.4368  0.4825
  670MOL0     C92368   6.608   3.605   1.669  0.2992  0.4634  0.2567
  670MOL0     C92369   6.562   3.474   1.681  0.4721  1.1364 -0.9341
  670MOL0     O92370   6.454   3.270   2.035 -0.1192 -0.1383  0.1649
  670MOL0     C92371   6.398   3.019   1.785  0.3141 -0.2451 -0.7728
  670MOL0     C92372   6.347   2.896   1.768  0.6540  0.2889 -0.2004
  670MOL0     N92373   6.218   2.020   1.847 -0.2347  0.2279 -0.1379
  670MOL0     N92374   6.317   1.946   1.887 -0.2145  1.3875 -0.3144
  670MOL0     C92375   7.410   2.152   2.515 -1.0526 -0.1166 -0.5949
  670MOL0     C92376   7.493   2.252   2.468  0.3729 -0.7094 -0.2290
  670MOL0     C92377   7.625   2.597   2.203 -0.3028 -0.2759  0.3370
  670MOL0     C92378   7.552   2.711   2.221 -0.2046  0.6425  0.4751
  670MOL0     C92379   7.609   2.841   2.185  0.0794  0.1181  0.1816
  670MOL0     C92380   7.723   2.854   2.106 -0.1343  0.5450  0.3809
  670MOL0     O92381   7.772   2.969   2.055 -0.0257  0.3042 -0.4881
  670MOL0     C92382   7.683   3.081   2.036 -0.6221 -0.4273 -0.5931
  670MOL0     C92383   7.609   3.060   1.901 -0.5032  0.4612  0.2293
  670MOL0     C92384   7.566   3.196   1.838  0.0331  0.2250  0.5933
  670MOL0     C92385   7.416   3.206   1.818  0.2170 -0.5758 -0.0782
  670MOL0     C92386   7.365   3.244   1.947  0.8101  0.5569  0.1129
  670MOL0     C92387   7.310   3.229   2.053 -0.2402 -0.1561  0.6366
  670MOL0     C92388   7.788   2.733   2.085 -0.5251  0.5259  0.0645
  670MOL0     C92389   7.751   2.609   2.138  0.1337  0.6631 -0.8274
  670MOL0     C92390   7.850   2.492   2.119  0.3883  0.2579 -0.3515
  670MOL0     H92391   7.277   2.515   2.467  1.7768  0.2908 -1.0341
  670MOL0     H92392   7.119   2.326   2.526  1.0639  1.6401  0.3624
  670MOL0     H92393   7.002   2.140   2.567 -1.9328 -1.4082 -1.1014
  670MOL0     H92394   7.019   1.968   2.559  3.0838 -1.4232 -0.5934
  670MOL0     H92395   7.106   2.126   2.306  1.4318 -0.6587  0.4976
  670MOL0     H92396   7.080   1.965   2.320  3.1949  0.2829  1.4838
  670MOL0     H92397   6.861   1.969   2.336  1.2178 -0.9520  0.9409
  670MOL0     H92398   6.846   2.117   2.423  0.0540 -1.6048  0.5392
  670MOL0     H92399   6.752   2.182   2.216 -0.3268 -0.7215  2.2024
  670MOL0     H92400   6.912   2.251   2.229  0.1353  1.1400  0.1823
  670MOL0     H92401   6.991   2.041   2.092 -0.5447 -1.7911  3.3347
  670MOL0     H92402   6.892   2.160   1.996  1.8748  0.1848  0.1435
  670MOL0     H92403   6.836   1.950   1.936 -0.0899  1.0752 -0.3466
  670MOL0     H92404   6.783   1.900   2.092 -0.5854 -0.2237 -0.5335
  670MOL0     H92405   6.681   2.137   1.934  4.7406  0.9580  2.5958
  670MOL0     H92406   6.598   2.084   2.083  0.5578  0.4620  1.3334
  670MOL0     H92407   6.623   1.943   1.815  0.1653  1.9584 -0.0914
  670MOL0     H92408   6.557   1.862   1.961  4.1734 -0.7288 -0.1212
  670MOL0     H92409   6.480   2.222   1.827  2.0424 -1.4140  1.5351
  670MOL0     H92410   6.133   2.267   1.909 -0.4520 -0.6727  0.1860
  670MOL0     H92411   6.098   2.250   1.739 -0.1271  0.4115  0.1473
  670MOL0     H92412   6.325   2.412   1.860  0.4857 -0.3996 -0.6532
  670MOL0     H92413   6.300   2.383   1.684 -2.4172  1.0941 -0.9851
  670MOL0     H92414   6.077   2.470   1.688  1.6436 -2.4318  0.0159
  670MOL0     H92415   6.089   2.512   1.857  2.9869  0.7814  1.2950
  670MOL0     H92416   6.273   2.652   1.666 -1.2385 -1.5866 -0.2114
  670MOL0     H92417   6.120   2.717   1.739 -0.0443  0.2618 -3.8426
  670MOL0     H92418   6.333   2.791   2.084 -0.0479  0.2135  1.0905
  670MOL0     H92419   6.391   2.939   2.243  2.5427 -2.0302 -0.9390
  670MOL0     H92420   6.347   3.111   2.188 -1.5044 -0.4048 -0.7537
  670MOL0     H92421   6.509   3.064   2.176  0.5781 -0.4344  0.9735
  670MOL0     H92422   6.691   3.381   1.976  3.5812  3.4021  1.7872
  670MOL0     H92423   6.783   3.623   1.956  0.0828  0.8132 -1.3244
  670MOL0     H92424   6.680   3.865   1.581 -0.6090  0.6618 -0.1231
  670MOL0     H92425   6.549   3.888   1.690 -0.4431  3.8704  2.7963
  670MOL0     H92426   6.703   4.074   1.793  2.7346  5.1080 -1.7872
  670MOL0     H92427   6.819   4.033   1.660  0.5274 -0.6310 -0.8850
  670MOL0     H92428   6.529   4.105   1.633 -0.0803  3.7382  2.3085
  670MOL0     H92429   6.663   4.095   1.503  1.6243 -0.1999  0.3879
  670MOL0     H92430   6.781   4.280   1.635 -0.0363 -1.4267 -0.4200
  670MOL0     H92431   6.637   4.289   1.738  2.0430  2.0446  1.0289
  670MOL0     H92432   6.488   4.344   1.556 -0.6116  2.6370  2.0299
  670MOL0     H92433   6.610   4.453   1.593  2.5358 -0.0018 -0.1661
  670MOL0     H92434   6.632   4.269   1.352  3.2501 -1.0179  0.3636
  670MOL0     H92435   6.755   4.365   1.409 -0.0932 -3.6522  0.5128
  670MOL0     H92436   6.615   4.585   1.400  0.0484 -0.3325  0.6764
  670MOL0     H92437   6.477   4.480   1.357 -0.3675  3.3225  0.3058
  670MOL0     H92438   6.713   4.493   1.165  0.5234  2.0559 -1.2656
  670MOL0     H92439   6.600   4.624   1.179 -0.6926 -1.1945 -0.5316
  670MOL0     H92440   6.583   3.643   1.570 -0.4634 -1.4132 -0.3149
  670MOL0     H92441   6.506   3.428   1.600 -0.9879 -2.0816  1.6502
  670MOL0     H92442   6.422   3.069   1.692  0.4358  0.5060 -0.3430
  670MOL0     H92443   6.345   2.840   1.675 -0.5205 -0.3726  0.2022
  670MOL0     H92444   7.440   2.048   2.526 -4.2283 -1.2244 -1.2520
  670MOL0     H92445   7.592   2.233   2.428  0.8367  1.6804 -0.3778
  670MOL0     H92446   7.460   2.711   2.279 -2.9974 -3.4702 -3.2985
  670MOL0     H92447   7.553   2.930   2.211  0.7199  0.6682 -0.2762
  670MOL0     H92448   7.606   3.099   2.111 -0.3943  2.2851 -0.9156
  670MOL0     H92449   7.738   3.175   2.026 -1.6607  0.0618 -1.9255
  670MOL0     H92450   7.526   2.988   1.906  0.4477 -0.8506 -1.7843
  670MOL0     H92451   7.680   3.013   1.833  1.0986  0.0323  2.0990
  670MOL0     H92452   7.615   3.283   1.882  0.5811  0.2440 -0.0394
  670MOL0     H92453   7.599   3.185   1.734 -0.2198 -2.1536  0.7148
  670MOL0     H92454   7.363   3.113   1.793  0.5260 -1.7705  3.1826
  670MOL0     H92455   7.404   3.290   1.749 -0.9493  1.6668  2.6258
  670MOL0     H92456   7.254   3.209   2.141  0.8131  0.2422  1.4135
  670MOL0     H92457   7.876   2.748   2.023  0.9972  1.3273  2.3100
  670MOL0     H92458   7.794   2.399   2.100 -1.1824  0.4110  2.8303
  670MOL0     H92459   7.919   2.518   2.039  0.7823  2.0597  0.5356
  670MOL0     H92460   7.902   2.464   2.211  0.9123  2.5335  0.0875
  671MOL0     O92461   1.218   0.931   2.865  0.4016  0.5697  0.4666
  671MOL0     C92462   1.326   0.949   2.805  0.6775 -0.3025  0.1763
  671MOL0     O92463   1.343   0.997   2.677  0.3437 -0.4624 -0.9308
  671MOL0     C92464   1.239   1.024   2.594 -0.3787  0.2527 -0.2820
  671MOL0     C92465   1.131   1.098   2.635 -0.7352  0.0598 -0.0363
  671MOL0     C92466   1.031   1.127   2.552  1.2177 -0.2678  0.1972
  671MOL0     C92467   1.032   1.077   2.420  0.4975 -0.7043 -0.7282
  671MOL0     O92468   0.929   1.108   2.335  0.9216  0.6779 -0.4552
  671MOL0     C92469   0.959   1.161   2.203 -0.3717  0.3400  0.4806
  671MOL0     C92470   1.014   1.304   2.213  0.2660 -0.2965  0.0519
  671MOL0     C92471   1.156   1.319   2.275 -0.6934 -0.8507 -0.4489
  671MOL0     C92472   1.219   1.461   2.280  0.4967  0.0009 -0.4733
  671MOL0     C92473   1.362   1.455   2.326 -0.1630  0.4407  0.4114
  671MOL0     C92474   1.378   1.397   2.455 -0.8319 -0.3451 -0.6702
  671MOL0     C92475   1.514   1.448   2.514  0.3129  0.4803 -0.9333
  671MOL0     C92476   1.550   1.373   2.648 -1.0780  0.5410 -0.2908
  671MOL0     N92477   1.592   1.468   2.740  0.7943  0.1423  0.3273
  671MOL0     C92478   1.511   1.544   2.810  0.2342 -0.4874 -0.0100
  671MOL0     C92479   1.597   1.632   2.871 -0.1444 -0.5739  0.6383
  671MOL0     C92480   1.557   1.761   2.946  1.0232  0.9334 -0.0425
  671MOL0     C92481   1.434   1.733   3.037  0.2908 -0.7509  0.7680
  671MOL0     C92482   1.407   1.842   3.140 -0.9254  0.4480  0.0893
  671MOL0     C92483   1.353   1.795   3.272 -0.2321 -0.1226  0.2496
  671MOL0     O92484   1.343   1.909   3.365 -0.4441 -0.5174  0.2670
  671MOL0     C92485   1.220   1.960   3.404 -0.6312  0.9610 -0.0354
  671MOL0     C92486   1.096   1.923   3.357  0.7034  0.2116 -0.3674
  671MOL0     C92487   0.981   1.992   3.401 -0.7471 -0.6792 -0.3645
  671MOL0     C92488   0.845   1.929   3.370 -0.1549 -0.1669 -0.7478
  671MOL0     C92489   0.992   2.104   3.493  0.5732  0.7528  0.1149
  671MOL0     C92490   0.878   2.177   3.546  0.6160  0.1323 -0.6172
  671MOL0     O92491   0.904   2.250   3.660  0.7436 -0.5689  0.1069
  671MOL0     C92492   0.789   2.307   3.723 -0.2060  0.9686 -0.4513
  671MOL0     C92493   0.770   2.253   3.851 -0.4508  0.3236  0.8081
  671MOL0     C92494   0.668   2.304   3.922  0.3587 -0.2795  0.0964
  671MOL0     C92495   0.590   2.409   3.872 -0.0669  0.1800  0.5585
  671MOL0     O92496   0.485   2.459   3.936 -0.1865 -0.1376  0.6359
  671MOL0     C92497   0.472   2.451   4.082  0.7203 -0.2200  0.1760
  671MOL0     C92498   0.404   2.579   4.122  0.5992 -0.9812 -0.0269
  671MOL0     C92499   0.270   2.616   4.060 -0.2018  0.5993  0.3466
  671MOL0     C92500   0.178   2.497   4.038 -1.0708 -0.7259 -1.1290
  671MOL0     C92501   0.050   2.542   3.954 -0.7100 -0.0761 -0.4923
  671MOL0     C92502  -0.032   2.415   3.921 -0.4290 -0.7017 -0.2283
  671MOL0     C92503  -0.174   2.451   3.882 -0.5348 -0.7287  0.2006
  671MOL0     C92504  -0.240   2.350   3.779 -0.3294  0.2479  0.8932
  671MOL0    Cl92505  -0.254   2.188   3.845  0.0120 -0.0527 -0.0875
  671MOL0     C92506   0.615   2.466   3.744  0.1426  0.6636  0.0580
  671MOL0     C92507   0.710   2.413   3.662  0.0573  0.3067 -0.0609
  671MOL0     O92508   0.766   2.172   3.488  0.6513  0.5867  0.7898
  671MOL0     C92509   1.121   2.136   3.542  0.4278 -0.2312 -0.0352
  671MOL0     C92510   1.229   2.061   3.496 -0.2041  0.8367 -0.4161
  671MOL0     N92511   1.727   1.596   2.845  0.0722 -0.4165 -0.6076
  671MOL0     N92512   1.721   1.489   2.774 -0.4525  0.2080  0.3941
  671MOL0     C92513   1.152   1.015   2.372  0.2224  0.4734 -0.2553
  671MOL0     C92514   1.258   0.988   2.463  0.1330  0.6365 -0.4359
  671MOL0     C92515   1.445   0.882   2.861  0.0348  0.7599  0.2044
  671MOL0     C92516   1.558   0.866   2.779 -0.0238  0.2177  0.3101
  671MOL0     C92517   1.677   0.815   2.834 -0.4282 -0.4648 -0.1872
  671MOL0     C92518   1.684   0.766   2.956  0.1027  0.6239 -0.3323
  671MOL0     O92519   1.813   0.735   2.986 -0.3591 -0.3975 -0.8403
  671MOL0     C92520   1.847   0.682   3.119  0.8453 -0.5559 -0.3550
  671MOL0     C92521   1.973   0.595   3.122 -0.3561 -0.0375  0.3462
  671MOL0     C92522   2.073   0.619   3.236  0.2241 -0.3339  0.3521
  671MOL0     C92523   2.197   0.522   3.227 -0.1490  0.1857  0.8466
  671MOL0     C92524   2.285   0.572   3.121  0.1621  0.1944 -0.2026
  671MOL0     C92525   2.367   0.615   3.043  0.3212  0.4410  0.1056
  671MOL0     C92526   1.572   0.787   3.040  0.5406  0.2302 -1.1188
  671MOL0     C92527   1.450   0.841   2.995  0.3125 -0.1103 -0.3342
  671MOL0     C92528   1.342   0.840   3.096  0.1116 -0.8623 -0.3629
  671MOL0     H92529   1.124   1.124   2.740 -0.8914 -0.4077  0.0674
  671MOL0     H92530   0.941   1.172   2.593 -1.3335 -2.2794 -2.7164
  671MOL0     H92531   0.867   1.174   2.146 -0.4999 -3.1854 -0.3718
  671MOL0     H92532   1.020   1.086   2.152 -1.1748 -0.1824  0.2826
  671MOL0     H92533   1.008   1.355   2.117 -0.0410  1.0225  0.7509
  671MOL0     H92534   0.939   1.355   2.273  0.8895 -1.6640  2.0964
  671MOL0     H92535   1.165   1.281   2.377 -1.0632  1.2211  0.4024
  671MOL0     H92536   1.222   1.266   2.206 -0.5860 -0.6737 -0.4850
  671MOL0     H92537   1.210   1.503   2.180 -0.9349  0.7929 -0.0432
  671MOL0     H92538   1.154   1.511   2.353 -1.5013 -1.9848 -0.7968
  671MOL0     H92539   1.389   1.561   2.325 -1.2198  0.7175  0.1077
  671MOL0     H92540   1.420   1.405   2.248 -1.9701 -0.1108 -0.6468
  671MOL0     H92541   1.311   1.437   2.532  1.6934  1.7466  0.5933
  671MOL0     H92542   1.379   1.287   2.460 -2.8848 -0.3538  0.7394
  671MOL0     H92543   1.489   1.554   2.526 -1.0741  0.0695  0.1442
  671MOL0     H92544   1.596   1.448   2.442  0.1380 -3.5816 -1.3605
  671MOL0     H92545   1.464   1.319   2.688  1.1950 -2.9549  0.3369
  671MOL0     H92546   1.623   1.298   2.613  0.7533  1.6906  0.9134
  671MOL0     H92547   1.405   1.558   2.792  0.4395  0.1825 -0.7971
  671MOL0     H92548   1.528   1.835   2.870  0.9119  0.2160 -0.7128
  671MOL0     H92549   1.640   1.802   3.005  0.2162  1.9524  0.4276
  671MOL0     H92550   1.342   1.722   2.979 -0.1515  2.2515  0.7352
  671MOL0     H92551   1.455   1.643   3.096  1.6485 -1.5484 -0.8523
  671MOL0     H92552   1.488   1.911   3.165  1.0677 -0.7421 -2.4889
  671MOL0     H92553   1.335   1.909   3.093 -0.7344  0.8314  0.3428
  671MOL0     H92554   1.261   1.737   3.261 -0.6716  0.3929  1.0226
  671MOL0     H92555   1.435   1.733   3.308  1.1441  1.0768 -0.7112
  671MOL0     H92556   1.090   1.835   3.294 -1.3832  0.7404 -0.9931
  671MOL0     H92557   0.787   2.001   3.312 -0.9025 -1.1283 -1.2241
  671MOL0     H92558   0.787   1.913   3.461 -0.1718 -0.4211 -0.8023
  671MOL0     H92559   0.859   1.841   3.307  2.8865  1.9629 -3.3968
  671MOL0     H92560   0.826   2.169   3.890 -2.1150 -0.8984  0.6619
  671MOL0     H92561   0.659   2.274   4.026  1.1130 -0.0804  0.2269
  671MOL0     H92562   0.428   2.359   4.121  1.2945 -2.0501 -3.1206
  671MOL0     H92563   0.564   2.466   4.140 -0.8094  0.3251  2.6214
  671MOL0     H92564   0.389   2.584   4.230  0.4358  1.1955 -0.1020
  671MOL0     H92565   0.468   2.664   4.097  0.8061 -1.0348  0.3117
  671MOL0     H92566   0.277   2.678   3.970 -2.9134  2.7260  1.4472
  671MOL0     H92567   0.222   2.689   4.126 -2.0534  0.8588 -1.1955
  671MOL0     H92568   0.157   2.446   4.133  0.3996  0.1522 -0.2942
  671MOL0     H92569   0.232   2.427   3.974  0.5965 -0.9251  0.4294
  671MOL0     H92570  -0.007   2.619   4.008  1.5339 -0.7695  3.1661
  671MOL0     H92571   0.076   2.594   3.861 -1.0510  0.1807 -0.4490
  671MOL0     H92572  -0.051   2.354   4.010  2.4915 -0.7610  0.4562
  671MOL0     H92573   0.028   2.357   3.850  0.4525 -1.3750  1.0270
  671MOL0     H92574  -0.177   2.552   3.840 -0.8199 -0.7760  0.1081
  671MOL0     H92575  -0.225   2.470   3.978 -0.5961  3.5205 -0.4582
  671MOL0     H92576  -0.184   2.353   3.685 -3.7793  1.7550 -1.3049
  671MOL0     H92577  -0.334   2.403   3.762  1.1040  1.7758 -3.7080
  671MOL0     H92578   0.570   2.553   3.698 -2.5810 -0.1507  0.9591
  671MOL0     H92579   0.746   2.454   3.568  0.2130  1.0543  0.3228
  671MOL0     H92580   1.129   2.209   3.622 -4.8186 -0.0752  0.6757
  671MOL0     H92581   1.329   2.087   3.530  0.0505 -0.8793  0.2374
  671MOL0     H92582   1.173   0.979   2.272  1.5984  1.5800 -0.3880
  671MOL0     H92583   1.337   0.918   2.440 -1.2280 -0.1218 -3.2925
  671MOL0     H92584   1.547   0.894   2.675 -2.8163 -0.0414  0.4508
  671MOL0     H92585   1.765   0.810   2.771  3.0780 -0.8647  4.2999
  671MOL0     H92586   1.845   0.765   3.190 -1.7148  0.4722 -1.4990
  671MOL0     H92587   1.754   0.631   3.146  1.1178 -0.2248  1.3428
  671MOL0     H92588   2.022   0.615   3.027  1.0583  0.2147  1.0959
  671MOL0     H92589   1.937   0.492   3.115 -0.1727  0.0121 -3.4184
  671MOL0     H92590   2.104   0.724   3.242 -2.4773  0.6223 -0.5652
  671MOL0     H92591   2.018   0.586   3.325 -0.0461 -2.2101 -0.4744
  671MOL0     H92592   2.177   0.417   3.206  0.4073  0.3072 -0.3773
  671MOL0     H92593   2.271   0.515   3.307  1.9407 -3.0619 -1.1465
  671MOL0     H92594   2.443   0.641   2.972 -1.9715 -0.0570 -2.7287
  671MOL0     H92595   1.571   0.735   3.135 -3.1342 -0.7822 -1.5541
  671MOL0     H92596   1.366   0.843   3.203  3.8728  3.1689 -1.0061
  671MOL0     H92597   1.273   0.924   3.083  0.7009 -0.6239 -2.3790
  671MOL0     H92598   1.282   0.757   3.059 -1.3564  0.8216 -1.9260
  672MOL0     O92599  10.638   2.622  11.379  0.2990  0.1765 -1.0606
  672MOL0     C92600  10.666   2.691  11.281  0.3395  0.1531 -0.7524
  672MOL0     O92601  10.652   2.827  11.264  0.2721  0.2841 -0.3544
  672MOL0     C92602  10.590   2.915  11.353 -0.5130  0.4708  0.0533
  672MOL0     C92603  10.496   2.883  11.451 -0.4530  0.2096  0.5286
  672MOL0     C92604  10.453   2.975  11.538 -0.1814 -0.5981 -0.4200
  672MOL0     C92605  10.502   3.102  11.544 -0.4746 -1.1669  0.4197
  672MOL0     O92606  10.445   3.194  11.638  0.0463  0.7986 -0.1423
  672MOL0     C92607  10.518   3.306  11.678 -0.1558 -1.6075  0.0304
  672MOL0     C92608  10.495   3.341  11.831  0.3292 -0.4792 -0.2827
  672MOL0     C92609  10.546   3.483  11.874 -0.7620  0.3147 -0.1723
  672MOL0     C92610  10.695   3.511  11.848  0.9591 -0.0418  1.0139
  672MOL0     C92611  10.780   3.571  11.962  0.8490  0.0530 -0.3643
  672MOL0     C92612  10.926   3.588  11.917 -1.2562  0.4197  0.3677
  672MOL0     C92613  11.027   3.635  12.029  0.9119 -0.2661 -0.5696
  672MOL0     C92614  11.041   3.526  12.133 -0.2127  0.0315 -0.8361
  672MOL0     N92615  11.152   3.560  12.232 -0.0816 -0.0004 -0.0075
  672MOL0     C92616  11.128   3.534  12.366  0.2179  1.0408 -0.0047
  672MOL0     C92617  11.245   3.564  12.418  0.8001  0.0892 -0.7520
  672MOL0     C92618  11.275   3.569  12.574 -0.3593 -1.4205 -0.9869
  672MOL0     C92619  11.375   3.693  12.607  0.0080  0.0534  1.0776
  672MOL0     C92620  11.400   3.705  12.758 -0.2119 -0.0176 -0.2079
  672MOL0     C92621  11.514   3.797  12.810 -0.0149  0.4990 -0.3977
  672MOL0     O92622  11.643   3.723  12.806 -0.1272  0.1211  0.3922
  672MOL0     C92623  11.744   3.769  12.882 -0.2896 -0.4530 -0.0791
  672MOL0     C92624  11.869   3.701  12.878 -0.6691 -0.3960  0.4036
  672MOL0     C92625  11.986   3.751  12.926 -0.0511  0.4748  0.5384
  672MOL0     C92626  12.108   3.670  12.894 -0.5077 -0.0676  0.5643
  672MOL0     C92627  11.988   3.876  12.983 -0.3677 -0.1320  0.3683
  672MOL0     C92628  12.108   3.951  13.030 -1.0290 -0.6874 -0.0702
  672MOL0     O92629  12.083   4.071  13.084  0.6541 -0.3782  0.4228
  672MOL0     C92630  12.176   4.180  13.076  0.4352  0.3547 -1.1548
  672MOL0     C92631  12.310   4.178  13.018 -0.6081 -0.3322  0.8314
  672MOL0     C92632  12.393   4.288  13.025 -0.3161  0.0200  0.5222
  672MOL0     C92633  12.347   4.405  13.078 -0.7813 -0.7311  0.4890
  672MOL0     O92634  12.419   4.526  13.067  0.2385  0.0635  0.2605
  672MOL0     C92635  12.546   4.546  13.001  0.6788 -0.1188  0.5049
  672MOL0     C92636  12.593   4.691  12.990  0.8126  0.7343  1.1719
  672MOL0     C92637  12.642   4.738  13.121 -0.3635  0.1692  0.4733
  672MOL0     C92638  12.695   4.878  13.115  0.3396 -0.1030  0.1782
  672MOL0     C92639  12.747   4.910  13.249 -1.0668  0.0813 -0.5912
  672MOL0     C92640  12.799   5.058  13.275 -0.1239  0.3109 -0.4462
  672MOL0     C92641  12.700   5.171  13.226  0.4272 -0.3552 -0.2716
  672MOL0     C92642  12.766   5.319  13.260  0.3674  0.1055  0.4418
  672MOL0    Cl92643  12.873   5.379  13.126  0.7833 -0.2772  0.2902
  672MOL0     C92644  12.224   4.414  13.134 -1.2023  0.2411  0.1839
  672MOL0     C92645  12.137   4.310  13.143  0.4327  0.5834 -0.6100
  672MOL0     O92646  12.224   3.904  13.022 -0.0191  0.8997 -0.1036
  672MOL0     C92647  11.867   3.947  12.991  0.2326 -0.2443  0.4627
  672MOL0     C92648  11.746   3.888  12.945  0.2321 -0.5001  0.2554
  672MOL0     N92649  11.333   3.601  12.321 -0.8452 -0.1159 -0.2918
  672MOL0     N92650  11.273   3.614  12.208  0.7220  0.1118 -0.0634
  672MOL0     C92651  10.599   3.141  11.450  0.3001  0.0428 -0.4844
  672MOL0     C92652  10.630   3.051  11.350 -0.6017  0.3214 -0.3214
  672MOL0     C92653  10.726   2.617  11.164 -0.2929  0.6084 -0.7903
  672MOL0     C92654  10.834   2.677  11.108  0.1571 -0.2775  0.4693
  672MOL0     C92655  10.908   2.610  11.010  0.6587  1.0257 -0.5068
  672MOL0     C92656  10.872   2.477  10.964  0.0131 -0.0511 -0.2605
  672MOL0     O92657  10.940   2.400  10.869  0.6359 -0.4091  0.0418
  672MOL0     C92658  11.020   2.475  10.782  0.7419  0.7216  1.0307
  672MOL0     C92659  11.087   2.378  10.680  0.1052 -0.0142 -0.3028
  672MOL0     C92660  11.188   2.296  10.759  0.0526  0.5556  0.6688
  672MOL0     C92661  11.226   2.165  10.690 -0.5015  0.9515 -0.1684
  672MOL0     C92662  11.241   2.180  10.546 -0.1004 -0.3362  0.1368
  672MOL0     C92663  11.253   2.200  10.428 -0.1323 -0.6829 -1.4141
  672MOL0     C92664  10.768   2.419  11.029  0.5407  0.7477  0.3252
  672MOL0     C92665  10.686   2.488  11.120 -0.2294  1.0156 -0.3812
  672MOL0     C92666  10.558   2.432  11.165 -0.1362  0.5481 -0.3433
  672MOL0     H92667  10.472   2.777  11.452 -0.8577  0.1869 -2.8081
  672MOL0     H92668  10.394   2.946  11.624 -2.0220  2.2400 -0.6144
  672MOL0     H92669  10.475   3.395  11.629  0.8346  0.1069  2.1380
  672MOL0     H92670  10.626   3.297  11.670  0.0425 -0.8812  1.6298
  672MOL0     H92671  10.388   3.336  11.854 -0.2989 -0.6563 -2.9326
  672MOL0     H92672  10.548   3.263  11.887  0.7432  0.0171  0.0341
  672MOL0     H92673  10.493   3.559  11.816  0.0474  0.2175 -1.0618
  672MOL0     H92674  10.510   3.490  11.977 -4.4815 -1.0605 -1.1944
  672MOL0     H92675  10.737   3.413  11.823  1.0881 -0.0371  1.2172
  672MOL0     H92676  10.705   3.570  11.756  1.8459 -1.0850  0.4264
  672MOL0     H92677  10.774   3.518  12.057 -0.9587  0.8614  0.0115
  672MOL0     H92678  10.741   3.663  12.005  1.2210 -0.9517  2.3371
  672MOL0     H92679  10.965   3.492  11.884 -1.2681 -0.3163  2.3957
  672MOL0     H92680  10.945   3.673  11.849  2.1922  0.9733  1.8451
  672MOL0     H92681  10.988   3.726  12.075 -0.0597 -0.1848 -1.5037
  672MOL0     H92682  11.124   3.662  11.987  0.1736  0.5632 -1.8303
  672MOL0     H92683  10.948   3.507  12.187  1.3751 -2.6651  1.2521
  672MOL0     H92684  11.076   3.434  12.084  3.3794 -0.0398  1.4568
  672MOL0     H92685  11.035   3.497  12.407  0.6648 -2.1421 -1.5375
  672MOL0     H92686  11.332   3.482  12.610 -0.0869 -0.5409  0.8491
  672MOL0     H92687  11.182   3.570  12.631 -0.2645 -0.2670 -0.8345
  672MOL0     H92688  11.473   3.674  12.561 -0.6479 -0.2422 -0.2673
  672MOL0     H92689  11.331   3.782  12.561  3.2763  0.6848 -1.2127
  672MOL0     H92690  11.301   3.711  12.804 -0.3003 -0.0202 -0.3972
  672MOL0     H92691  11.432   3.601  12.770 -0.3635  0.1583  2.5169
  672MOL0     H92692  11.523   3.888  12.751  3.0699 -1.4240 -3.2749
  672MOL0     H92693  11.489   3.826  12.913 -1.7823 -1.3050 -0.2499
  672MOL0     H92694  11.876   3.613  12.814 -2.1582  1.4574 -2.4827
  672MOL0     H92695  12.203   3.722  12.881 -0.2548 -0.3685  1.1975
  672MOL0     H92696  12.089   3.612  12.802  0.7137  2.8515 -1.6814
  672MOL0     H92697  12.129   3.602  12.977  3.7735  1.9288  1.4128
  672MOL0     H92698  12.340   4.097  12.952 -2.0629 -1.6108  1.6785
  672MOL0     H92699  12.486   4.291  12.970 -0.9665  0.4897 -0.5826
  672MOL0     H92700  12.621   4.486  13.053  0.9741  1.2214  1.6673
  672MOL0     H92701  12.542   4.522  12.894  1.1814  0.0767  0.4389
  672MOL0     H92702  12.664   4.697  12.907 -0.7240  1.2206 -0.1843
  672MOL0     H92703  12.512   4.757  12.955 -0.4139 -0.9910  0.6027
  672MOL0     H92704  12.720   4.666  13.147  0.7281  1.2052  0.1717
  672MOL0     H92705  12.566   4.738  13.200  0.2766  3.1479  1.2223
  672MOL0     H92706  12.616   4.949  13.089  2.8590  3.3364  1.2657
  672MOL0     H92707  12.779   4.887  13.046  1.3634 -1.1653  1.2345
  672MOL0     H92708  12.674   4.873  13.322  1.4883 -1.3802  1.4025
  672MOL0     H92709  12.839   4.852  13.258 -1.2010 -0.4616 -2.3691
  672MOL0     H92710  12.887   5.069  13.211 -2.9114 -0.0793 -4.7564
  672MOL0     H92711  12.828   5.084  13.377 -1.3711  2.0650 -0.4817
  672MOL0     H92712  12.610   5.160  13.287 -1.0733  1.8879 -1.9294
  672MOL0     H92713  12.678   5.175  13.119 -1.2620  1.0525  0.0823
  672MOL0     H92714  12.824   5.302  13.351 -0.8111 -3.4185  0.6895
  672MOL0     H92715  12.687   5.381  13.304 -1.1398 -0.5339 -1.2033
  672MOL0     H92716  12.193   4.501  13.192  0.6185 -0.5873  2.5907
  672MOL0     H92717  12.058   4.319  13.217 -1.3966 -1.4189 -2.1659
  672MOL0     H92718  11.855   4.043  13.040 -2.7282  0.2516 -1.0147
  672MOL0     H92719  11.653   3.944  12.955 -0.5921 -1.4804 -1.4735
  672MOL0     H92720  10.648   3.238  11.455  2.7003 -0.8325 -3.8206
  672MOL0     H92721  10.722   3.071  11.295 -1.2627  0.8831 -1.2725
  672MOL0     H92722  10.878   2.771  11.142  0.0840  1.3877 -3.4418
  672MOL0     H92723  11.002   2.657  10.984  0.1750  1.9119 -0.6653
  672MOL0     H92724  10.963   2.542  10.717  0.8209 -1.0946 -1.0253
  672MOL0     H92725  11.100   2.537  10.825  1.8252 -0.1338  0.3154
  672MOL0     H92726  11.135   2.431  10.597  0.4927 -0.8937 -0.6531
  672MOL0     H92727  11.009   2.321  10.629 -1.0747  2.6719 -1.7425
  672MOL0     H92728  11.277   2.359  10.759 -0.3134  1.1728 -2.1270
  672MOL0     H92729  11.158   2.270  10.861 -0.5313  2.1657  0.9339
  672MOL0     H92730  11.158   2.081  10.708 -0.0674 -0.0659 -2.7691
  672MOL0     H92731  11.325   2.136  10.728 -0.3344  1.3387 -0.3032
  672MOL0     H92732  11.236   2.210  10.322 -0.4701 -1.2288 -1.4161
  672MOL0     H92733  10.750   2.315  11.005 -0.7495  0.7711  1.0954
  672MOL0     H92734  10.484   2.505  11.198 -0.6296 -1.3328  3.3078
  672MOL0     H92735  10.515   2.368  11.087  0.7059  3.3334 -3.2918
  672MOL0     H92736  10.570   2.371  11.255 -0.0775  1.0775  0.0092
  673MOL0     O92737   2.011   1.939  10.482  0.0578  0.5348  0.4059
  673MOL0     C92738   2.073   1.937  10.589  0.5691  0.6430  0.7377
  673MOL0     O92739   2.204   1.912  10.597  0.4684  0.4104 -0.0979
  673MOL0     C92740   2.262   1.844  10.490 -0.7104 -0.8975 -0.0578
  673MOL0     C92741   2.218   1.716  10.456 -0.1198 -0.5881  1.1748
  673MOL0     C92742   2.272   1.659  10.336 -0.0271  0.9883 -0.4477
  673MOL0     C92743   2.375   1.725  10.264  0.9363 -0.4399  0.9156
  673MOL0     O92744   2.437   1.654  10.153 -0.1723 -0.6525 -0.3417
  673MOL0     C92745   2.493   1.520  10.155 -0.5936 -0.5787 -0.1646
  673MOL0     C92746   2.427   1.428  10.049  0.7427 -0.3678  0.2015
  673MOL0     C92747   2.444   1.472   9.911 -0.6305 -0.1451  0.0012
  673MOL0     C92748   2.388   1.362   9.818  0.3318  0.1380  0.4105
  673MOL0     C92749   2.428   1.375   9.660 -0.3511  0.6013  1.1057
  673MOL0     C92750   2.449   1.520   9.618  0.2931  0.2124  0.2990
  673MOL0     C92751   2.484   1.540   9.466 -0.5966 -0.4884 -0.0281
  673MOL0     C92752   2.627   1.494   9.424  0.3669 -0.0497  0.4363
  673MOL0     N92753   2.652   1.540   9.293  0.7173  0.0286  0.2868
  673MOL0     C92754   2.731   1.650   9.261  0.3805 -0.0054  0.0873
  673MOL0     C92755   2.726   1.650   9.128  0.0971 -0.1525  0.7157
  673MOL0     C92756   2.784   1.745   9.023 -0.1041 -0.7222 -0.1744
  673MOL0     C92757   2.677   1.823   8.944 -1.3475 -0.0728 -0.0341
  673MOL0     C92758   2.725   1.950   8.876 -0.0216 -0.4429  0.2333
  673MOL0     C92759   2.606   2.029   8.831 -0.1039  0.2387  0.5020
  673MOL0     O92760   2.636   2.137   8.740 -0.0944  0.1863  1.1288
  673MOL0     C92761   2.613   2.110   8.604 -0.1821 -0.4752  0.6500
  673MOL0     C92762   2.574   2.218   8.519  0.6658  0.8292 -1.0186
  673MOL0     C92763   2.554   2.211   8.386 -0.3552  0.1051  0.4909
  673MOL0     C92764   2.524   2.328   8.309  0.1704 -0.5742 -0.2913
  673MOL0     C92765   2.574   2.085   8.321 -0.1690 -0.2620  1.3852
  673MOL0     C92766   2.550   2.049   8.178  0.4890 -0.2557 -1.1128
  673MOL0     O92767   2.606   2.136   8.088 -0.3689  0.4975  0.9811
  673MOL0     C92768   2.609   2.090   7.959 -0.0977 -0.0592 -0.2783
  673MOL0     C92769   2.718   2.013   7.916  0.1664  0.6567 -0.1126
  673MOL0     C92770   2.717   1.977   7.786 -0.3810  0.1663  0.0322
  673MOL0     C92771   2.614   1.995   7.703 -0.0725 -0.1751 -0.4314
  673MOL0     O92772   2.607   1.939   7.579 -0.7358 -0.1110 -0.2659
  673MOL0     C92773   2.709   1.960   7.480 -0.1000 -0.0418  0.0639
  673MOL0     C92774   2.805   1.838   7.477  0.6349  0.3634  0.3560
  673MOL0     C92775   2.756   1.727   7.384 -1.0044  0.4880  1.0544
  673MOL0     C92776   2.834   1.735   7.242  0.3554  0.2076 -0.4633
  673MOL0     C92777   2.813   1.616   7.155 -0.1713 -0.4489 -0.5327
  673MOL0     C92778   2.907   1.494   7.192  0.8031 -0.4994 -0.6523
  673MOL0     C92779   2.913   1.389   7.076  0.1865 -0.0327 -0.5494
  673MOL0     C92780   3.006   1.273   7.121  0.1193 -0.3972 -0.1792
  673MOL0    Cl92781   2.948   1.111   7.072  0.3556 -0.4071  0.0519
  673MOL0     C92782   2.505   2.071   7.746  0.5201 -0.2945 -0.8614
  673MOL0     C92783   2.499   2.123   7.874  0.1040 -1.3580 -0.0230
  673MOL0     O92784   2.501   1.940   8.155  0.6770  0.0222 -0.8275
  673MOL0     C92785   2.620   1.983   8.404  0.4969 -0.0225  0.8383
  673MOL0     C92786   2.647   1.989   8.543  0.7947  0.1454  0.7452
  673MOL0     N92787   2.655   1.545   9.078  0.2591  0.1431  0.0205
  673MOL0     N92788   2.617   1.470   9.175 -0.2145 -1.0791 -0.7056
  673MOL0     C92789   2.421   1.852  10.305 -0.1749  0.1220 -0.3824
  673MOL0     C92790   2.367   1.907  10.416 -0.1826 -0.1516 -0.2293
  673MOL0     C92791   2.021   1.955  10.726  1.1414 -0.6262  0.3735
  673MOL0     C92792   2.079   2.057  10.799 -0.7244  0.6101  0.1328
  673MOL0     C92793   2.025   2.075  10.929  0.2063 -0.0979 -0.0275
  673MOL0     C92794   1.925   1.997  10.980  1.0856 -0.1096  0.2972
  673MOL0     O92795   1.870   2.005  11.102  0.5414 -0.4289 -0.1058
  673MOL0     C92796   1.870   2.131  11.168  1.1566 -0.3915  0.6811
  673MOL0     C92797   1.760   2.145  11.269  1.0362 -0.6539 -0.0394
  673MOL0     C92798   1.737   2.288  11.307  0.4344 -0.9627  0.8781
  673MOL0     C92799   1.606   2.288  11.403 -0.2001 -0.2768 -0.7122
  673MOL0     C92800   1.638   2.263  11.543  0.4278  0.3018 -0.0694
  673MOL0     C92801   1.642   2.236  11.663 -0.1760 -0.2537 -0.6987
  673MOL0     C92802   1.872   1.898  10.900  0.2696  0.8816  0.5057
  673MOL0     C92803   1.916   1.872  10.774  0.4371  0.5482  0.0306
  673MOL0     C92804   1.864   1.756  10.693 -0.3900  0.6705 -0.2040
  673MOL0     H92805   2.140   1.675  10.520 -2.0727  2.2701  0.7890
  673MOL0     H92806   2.230   1.564  10.303  3.3789 -0.9962  0.4364
  673MOL0     H92807   2.475   1.480  10.255 -1.8639  1.1838  0.3437
  673MOL0     H92808   2.600   1.529  10.132 -0.6231  0.9183  0.1942
  673MOL0     H92809   2.481   1.334  10.065 -0.1672 -0.2402  6.1640
  673MOL0     H92810   2.322   1.424  10.079  0.9011  3.9772  1.9472
  673MOL0     H92811   2.392   1.567   9.896  0.0188  0.1772 -0.2353
  673MOL0     H92812   2.549   1.487   9.884 -0.6686 -0.5765 -0.4001
  673MOL0     H92813   2.427   1.265   9.849  1.1151 -0.4435 -2.1348
  673MOL0     H92814   2.280   1.349   9.830 -0.5677  0.2571 -5.1230
  673MOL0     H92815   2.346   1.337   9.598 -0.0895  0.8892  0.5734
  673MOL0     H92816   2.519   1.320   9.636 -1.9409 -1.3164 -0.9977
  673MOL0     H92817   2.360   1.580   9.640  1.9502  2.4274  1.3007
  673MOL0     H92818   2.532   1.561   9.675 -0.6832  0.5214  1.5486
  673MOL0     H92819   2.492   1.649   9.458  0.1842 -0.3523  1.9655
  673MOL0     H92820   2.420   1.496   9.389 -1.4101  2.3488 -1.0800
  673MOL0     H92821   2.704   1.526   9.494 -0.6654  3.0971  0.2820
  673MOL0     H92822   2.617   1.386   9.409 -2.7302  0.3567 -1.4025
  673MOL0     H92823   2.791   1.715   9.325  2.9459  1.2498 -3.2914
  673MOL0     H92824   2.828   1.672   8.955 -1.7740 -0.2126 -1.8696
  673MOL0     H92825   2.862   1.805   9.072 -0.3963 -0.9334  0.5701
  673MOL0     H92826   2.639   1.751   8.870  1.5090 -0.4652 -1.2630
  673MOL0     H92827   2.594   1.842   9.012  0.1562 -2.3098  2.6130
  673MOL0     H92828   2.785   2.003   8.951 -1.8961  4.3109 -1.2336
  673MOL0     H92829   2.782   1.920   8.787  1.3383 -0.3653  1.0418
  673MOL0     H92830   2.547   1.955   8.776  3.5311 -1.4721 -1.4464
  673MOL0     H92831   2.567   2.087   8.915 -0.9607 -0.0524  0.3140
  673MOL0     H92832   2.553   2.317   8.559 -0.9042  0.2135 -0.2294
  673MOL0     H92833   2.468   2.402   8.367  0.1565 -0.4577 -0.4546
  673MOL0     H92834   2.461   2.317   8.221 -2.1984  0.7420  1.1251
  673MOL0     H92835   2.625   2.366   8.291  0.1003  1.8884  3.3671
  673MOL0     H92836   2.800   1.992   7.984 -0.5224  4.5138  2.1468
  673MOL0     H92837   2.812   1.937   7.750  0.8626  1.2711  1.9267
  673MOL0     H92838   2.652   1.975   7.387  0.7838  2.4860 -0.1675
  673MOL0     H92839   2.770   2.049   7.498  1.4016 -0.8678 -0.7185
  673MOL0     H92840   2.907   1.862   7.447 -0.2909  1.2311 -2.3845
  673MOL0     H92841   2.823   1.800   7.578 -1.6198  1.0955  1.1059
  673MOL0     H92842   2.648   1.739   7.369 -1.1185  1.2470  2.3707
  673MOL0     H92843   2.779   1.626   7.417 -0.1206  0.4074  0.2452
  673MOL0     H92844   2.941   1.747   7.263 -0.1589  0.7568  2.1686
  673MOL0     H92845   2.799   1.812   7.172  1.5370  1.8448  0.6758
  673MOL0     H92846   2.710   1.586   7.175 -0.2034 -0.2833 -0.4527
  673MOL0     H92847   2.826   1.640   7.049 -1.9988 -1.9010 -1.1363
  673MOL0     H92848   2.854   1.445   7.274  2.2267 -1.4697 -0.2642
  673MOL0     H92849   3.001   1.547   7.212  0.2035  1.1904 -2.1072
  673MOL0     H92850   2.945   1.448   6.990  0.3815  1.0022  0.2081
  673MOL0     H92851   2.813   1.344   7.065 -0.0569 -1.3591  4.5413
  673MOL0     H92852   3.032   1.273   7.228  1.3491 -2.8415 -0.4041
  673MOL0     H92853   3.108   1.281   7.082  0.0772 -0.7176 -0.3492
  673MOL0     H92854   2.423   2.089   7.677  0.9134  0.9921 -1.0154
  673MOL0     H92855   2.434   2.205   7.903  1.7566  0.6128 -1.5551
  673MOL0     H92856   2.656   1.895   8.352 -0.8515 -0.1689  0.1196
  673MOL0     H92857   2.691   1.900   8.588  2.2596 -0.5688 -1.8853
  673MOL0     H92858   2.503   1.904  10.258 -1.1348 -0.2041 -2.5354
  673MOL0     H92859   2.401   2.002  10.455  1.9433 -2.3032  3.7852
  673MOL0     H92860   2.160   2.119  10.763  1.1784 -2.4706 -1.3330
  673MOL0     H92861   2.053   2.160  10.991 -0.8393 -0.1042  0.4584
  673MOL0     H92862   1.964   2.139  11.224  1.3622  1.9695  0.0977
  673MOL0     H92863   1.860   2.215  11.099 -0.4927  1.0377  2.5246
  673MOL0     H92864   1.777   2.074  11.351 -0.1757  0.5442  1.2931
  673MOL0     H92865   1.667   2.116  11.219  0.2701  1.4097  0.1160
  673MOL0     H92866   1.825   2.336  11.350  2.9010 -1.6658 -2.8643
  673MOL0     H92867   1.702   2.345  11.220  0.9919 -1.8667  0.0341
  673MOL0     H92868   1.538   2.210  11.366  1.3996 -2.0999 -0.0090
  673MOL0     H92869   1.540   2.375  11.407  1.0237  0.6317  0.9149
  673MOL0     H92870   1.634   2.221  11.768  1.7368  0.4400 -0.4059
  673MOL0     H92871   1.794   1.841  10.950  1.2943 -0.1335  0.9972
  673MOL0     H92872   1.938   1.708  10.628  0.0260  3.4878 -1.9692
  673MOL0     H92873   1.812   1.683  10.756 -0.5119  1.3027  0.4484
  673MOL0     H92874   1.791   1.779  10.614 -0.6743 -1.9639 -0.7983
  674MOL0     O92875   9.447   5.162   2.784 -0.3327 -0.0230  0.5217
  674MOL0     C92876   9.429   5.052   2.831 -0.5725  0.0547  0.7371
  674MOL0     O92877   9.491   4.941   2.788 -0.4066 -0.2076 -0.2160
  674MOL0     C92878   9.591   4.952   2.697  0.4754 -0.2272  1.0333
  674MOL0     C92879   9.560   4.944   2.560 -0.2422  0.4680 -0.1446
  674MOL0     C92880   9.664   4.967   2.462  0.6153  0.2334 -0.3082
  674MOL0     C92881   9.798   4.973   2.497  0.2686 -0.0085  0.3611
  674MOL0     O92882   9.890   5.010   2.395  0.4753 -0.6823 -0.0601
  674MOL0     C92883  10.030   5.014   2.414  0.1655 -0.8325  0.1609
  674MOL0     C92884  10.088   5.060   2.281 -0.0372 -0.4075  0.4512
  674MOL0     C92885  10.239   5.031   2.262 -0.1486 -0.7955 -0.8332
  674MOL0     C92886  10.314   5.135   2.354 -0.0141 -0.0362 -0.0188
  674MOL0     C92887  10.456   5.148   2.319 -0.3293  0.2957 -0.1656
  674MOL0     C92888  10.543   5.221   2.417  0.1638 -0.2262 -0.1821
  674MOL0     C92889  10.677   5.248   2.371  0.0656 -0.1877  0.4204
  674MOL0     C92890  10.756   5.119   2.374 -0.3362 -0.6250 -0.5493
  674MOL0     N92891  10.901   5.127   2.325  0.7281  0.9014 -0.1944
  674MOL0     C92892  10.933   5.104   2.191 -1.2365  0.0559  1.0376
  674MOL0     C92893  11.061   5.080   2.185 -0.3018  0.0173 -0.3445
  674MOL0     C92894  11.155   5.062   2.074 -0.5658  0.4664 -0.9956
  674MOL0     C92895  11.249   4.936   2.083 -0.5776  0.4952  0.2558
  674MOL0     C92896  11.355   4.952   1.968 -0.2271 -0.3170 -0.5065
  674MOL0     C92897  11.467   4.850   2.005 -0.7793 -0.1870  0.1593
  674MOL0     O92898  11.546   4.909   2.105  0.9349 -0.0519  0.0527
  674MOL0     C92899  11.659   4.975   2.076 -0.8249 -0.4070 -0.1242
  674MOL0     C92900  11.700   5.025   1.955  0.2128  0.0525 -0.2174
  674MOL0     C92901  11.817   5.089   1.932 -0.0054 -0.5362 -0.3248
  674MOL0     C92902  11.846   5.139   1.789  0.7957 -0.0748  0.3688
  674MOL0     C92903  11.909   5.101   2.039  0.1096  0.2144  1.0843
  674MOL0     C92904  12.046   5.163   2.029 -0.6649  0.7435  0.4858
  674MOL0     O92905  12.126   5.151   2.136  0.4100 -0.4736  0.0515
  674MOL0     C92906  12.249   5.209   2.135  0.3331 -1.1010 -0.6994
  674MOL0     C92907  12.336   5.156   2.228  0.1204 -0.3414  0.5826
  674MOL0     C92908  12.468   5.203   2.252  0.1032 -0.1088  0.0889
  674MOL0     C92909  12.512   5.313   2.182  0.2267 -0.4542  0.4215
  674MOL0     O92910  12.638   5.357   2.209  0.3832 -0.2608  0.3115
  674MOL0     C92911  12.677   5.470   2.140 -0.0941  0.2217 -0.1629
  674MOL0     C92912  12.822   5.494   2.171  0.3538 -0.9787  0.0926
  674MOL0     C92913  12.918   5.420   2.079 -0.3566 -0.1000  0.1132
  674MOL0     C92914  13.057   5.428   2.142 -0.2875 -0.8015  0.7864
  674MOL0     C92915  13.157   5.340   2.065 -0.7132  1.6636 -0.6520
  674MOL0     C92916  13.303   5.377   2.118  0.3542  0.2149 -0.6227
  674MOL0     C92917  13.318   5.354   2.273 -0.1605  0.0913 -0.5832
  674MOL0     C92918  13.468   5.313   2.321 -0.1094  0.0958  0.1416
  674MOL0    Cl92919  13.578   5.446   2.363 -0.1246 -0.2582  0.0272
  674MOL0     C92920  12.425   5.375   2.087  0.7121 -0.5214  1.9363
  674MOL0     C92921  12.288   5.329   2.071 -0.3324  0.5755 -0.1529
  674MOL0     O92922  12.081   5.221   1.927 -0.2837 -0.2153 -0.0306
  674MOL0     C92923  11.871   5.055   2.162 -0.0424 -0.5553  0.5258
  674MOL0     C92924  11.746   4.995   2.187 -0.5472 -0.2053  0.1462
  674MOL0     N92925  11.102   5.086   2.317  0.6070 -0.5997 -0.3210
  674MOL0     N92926  11.009   5.119   2.397  0.0805 -0.3323  0.2291
  674MOL0     C92927   9.829   4.960   2.634 -0.5751 -0.2712 -0.8838
  674MOL0     C92928   9.726   4.957   2.733 -0.6225  0.4673 -0.1941
  674MOL0     C92929   9.334   5.028   2.940  0.2740  0.1549  0.5962
  674MOL0     C92930   9.205   5.070   2.927  0.0881  0.8255 -0.9192
  674MOL0     C92931   9.100   5.043   3.024 -0.4810  0.6828 -0.4842
  674MOL0     C92932   9.132   4.963   3.135 -0.5319 -0.4909 -0.9060
  674MOL0     O92933   9.041   4.942   3.235  0.0788 -0.9998 -0.6236
  674MOL0     C92934   9.057   4.820   3.301  0.6062 -0.4737 -0.5116
  674MOL0     C92935   8.922   4.750   3.328  0.3381 -0.1796  1.1789
  674MOL0     C92936   8.931   4.655   3.443  0.0908 -0.2441 -0.8553
  674MOL0     C92937   8.800   4.654   3.535 -0.4017 -0.5971  0.0671
  674MOL0     C92938   8.822   4.576   3.659 -0.3194 -0.7005  0.6161
  674MOL0     C92939   8.858   4.509   3.750 -0.2300  0.1927  0.0946
  674MOL0     C92940   9.273   4.930   3.152  0.0988  0.9654  0.4448
  674MOL0     C92941   9.375   4.955   3.052  0.5905  0.3180 -0.4191
  674MOL0     C92942   9.519   4.919   3.084 -0.0017 -0.2540 -0.0344
  674MOL0     H92943   9.455   4.922   2.545  0.1099 -1.7444  0.3593
  674MOL0     H92944   9.635   4.989   2.360 -2.4739  0.9966  0.6135
  674MOL0     H92945  10.077   4.924   2.456  0.0318 -0.2938  1.5404
  674MOL0     H92946  10.046   5.107   2.468 -0.1873  1.2486 -3.0703
  674MOL0     H92947  10.055   5.014   2.187  0.6788 -1.2213  0.5831
  674MOL0     H92948  10.075   5.169   2.280  1.8945 -0.1127 -1.7675
  674MOL0     H92949  10.251   4.926   2.290 -1.4988 -1.7982 -3.6707
  674MOL0     H92950  10.283   5.048   2.164  3.2647  2.3064  0.9609
  674MOL0     H92951  10.264   5.232   2.350 -2.0286 -1.0662 -1.7880
  674MOL0     H92952  10.305   5.111   2.460 -0.6044  3.9628  1.0019
  674MOL0     H92953  10.466   5.185   2.216 -0.1837 -0.8146 -0.5757
  674MOL0     H92954  10.493   5.045   2.317 -0.9172  0.0632  0.5983
  674MOL0     H92955  10.499   5.316   2.449  1.3083  0.0487  0.6523
  674MOL0     H92956  10.543   5.166   2.512 -1.9545 -1.5677 -0.9059
  674MOL0     H92957  10.726   5.323   2.434 -0.0140  1.2713 -1.1811
  674MOL0     H92958  10.678   5.294   2.272 -1.5848  1.2949  1.0336
  674MOL0     H92959  10.763   5.087   2.479 -1.4392  1.3496  0.1734
  674MOL0     H92960  10.714   5.036   2.317 -0.5119  0.6341 -2.3150
  674MOL0     H92961  10.869   5.111   2.103 -2.5131 -0.9344  1.8335
  674MOL0     H92962  11.219   5.150   2.067  0.0343  0.0582 -0.7532
  674MOL0     H92963  11.100   5.055   1.979 -0.6774 -0.6033 -0.8680
  674MOL0     H92964  11.292   4.923   2.182  0.2728  0.0702 -0.1556
  674MOL0     H92965  11.183   4.850   2.068 -1.5105  1.1881  0.2761
  674MOL0     H92966  11.321   4.922   1.868  2.0890 -2.5295 -0.7373
  674MOL0     H92967  11.392   5.054   1.959  0.3125 -0.5552 -1.0530
  674MOL0     H92968  11.445   4.744   2.023 -1.7922 -0.2623 -1.4019
  674MOL0     H92969  11.522   4.845   1.910 -2.7327  3.0632 -1.3006
  674MOL0     H92970  11.640   5.019   1.864  0.0150 -0.5312 -0.0553
  674MOL0     H92971  11.913   5.075   1.731  1.0097  2.5128 -2.4789
  674MOL0     H92972  11.889   5.239   1.797 -0.7211  0.5525  1.1395
  674MOL0     H92973  11.751   5.151   1.737  1.0181 -3.1143 -0.9561
  674MOL0     H92974  12.307   5.063   2.275  1.5986 -0.6930  0.8451
  674MOL0     H92975  12.531   5.133   2.307  1.1815 -2.7747 -4.0296
  674MOL0     H92976  12.678   5.439   2.035  2.0971 -1.0596  0.1560
  674MOL0     H92977  12.620   5.560   2.164 -0.3589 -0.3274  1.3594
  674MOL0     H92978  12.845   5.601   2.173  0.3105 -0.9790  1.3619
  674MOL0     H92979  12.821   5.458   2.274  0.5935  2.9234  1.6403
  674MOL0     H92980  12.917   5.449   1.974  1.1090 -1.7655 -0.4194
  674MOL0     H92981  12.885   5.316   2.074  1.2248 -0.5823 -1.0301
  674MOL0     H92982  13.058   5.378   2.239 -2.5650 -0.4067  1.0559
  674MOL0     H92983  13.093   5.529   2.161 -0.3758 -1.2515  3.7961
  674MOL0     H92984  13.127   5.238   2.090 -0.4618  1.9474  0.9207
  674MOL0     H92985  13.165   5.360   1.958  2.9201  1.7424 -0.4802
  674MOL0     H92986  13.324   5.481   2.092 -3.1253  0.6293 -2.3573
  674MOL0     H92987  13.371   5.304   2.075  0.8313 -0.0670  0.5729
  674MOL0     H92988  13.243   5.289   2.319 -0.8972  2.3977  1.7188
  674MOL0     H92989  13.309   5.452   2.321  3.8638  0.2663  0.1097
  674MOL0     H92990  13.512   5.250   2.243  2.7385 -0.2811  1.9180
  674MOL0     H92991  13.474   5.251   2.411  4.1819 -1.4106 -0.9135
  674MOL0     H92992  12.443   5.462   2.024 -3.2933 -1.3241 -0.7181
  674MOL0     H92993  12.224   5.372   1.995  1.0737  0.3554 -1.5258
  674MOL0     H92994  11.938   5.079   2.244  0.9127 -1.2339 -0.0309
  674MOL0     H92995  11.727   4.972   2.292  1.8506 -0.3998  0.5840
  674MOL0     H92996   9.930   4.967   2.674 -0.0296 -0.6627 -2.1585
  674MOL0     H92997   9.742   4.962   2.841 -1.9090 -0.0503  0.0471
  674MOL0     H92998   9.181   5.133   2.842  4.0756  1.3099 -1.9075
  674MOL0     H92999   9.001   5.083   3.006 -0.5721  1.1957  0.9982
  674MOL0     H93000   9.113   4.751   3.237  0.7357  0.6693 -1.6709
  674MOL0     H93001   9.119   4.829   3.390 -0.7112 -1.4732  0.5432
  674MOL0     H93002   8.898   4.695   3.236 -1.1136  2.9102 -0.4533
  674MOL0     H93003   8.847   4.826   3.352  1.6928  0.8377  2.3681
  674MOL0     H93004   8.956   4.558   3.398  2.2325  0.1745 -0.6637
  674MOL0     H93005   9.016   4.684   3.505 -0.3940  0.1012 -0.3384
  674MOL0     H93006   8.735   4.600   3.466 -0.5761  2.4366 -2.4003
  674MOL0     H93007   8.762   4.754   3.556  0.9436  0.1705 -0.9198
  674MOL0     H93008   8.879   4.442   3.831 -1.9195 -0.5424 -0.0240
  674MOL0     H93009   9.291   4.893   3.252 -0.2398  1.7323  0.7934
  674MOL0     H93010   9.575   4.913   2.991  0.5913 -0.3648  0.3224
  674MOL0     H93011   9.568   5.000   3.139  0.8100  0.7080 -2.0985
  674MOL0     H93012   9.541   4.823   3.131  0.3716  0.4988  1.4181
  675MOL0     O93013   1.926   7.211   5.785 -0.3136  0.4909  0.3529
  675MOL0     C93014   1.919   7.096   5.744 -0.6111 -0.1367 -0.0529
  675MOL0     O93015   2.021   7.032   5.678  0.6498 -0.5094 -0.1448
  675MOL0     C93016   2.142   7.101   5.643  0.6419 -0.2102  0.8016
  675MOL0     C93017   2.188   7.089   5.506  0.5120  0.0332 -0.6815
  675MOL0     C93018   2.312   7.142   5.470 -0.7273 -0.1779  0.6119
  675MOL0     C93019   2.408   7.185   5.561  0.2599 -0.7181 -0.1277
  675MOL0     O93020   2.531   7.230   5.528  0.0246 -0.1147 -0.5872
  675MOL0     C93021   2.552   7.244   5.390  0.7624 -0.0816  0.1354
  675MOL0     C93022   2.686   7.312   5.360 -0.3169 -0.3126  0.0993
  675MOL0     C93023   2.792   7.201   5.354 -0.5532 -0.8803 -0.8732
  675MOL0     C93024   2.927   7.272   5.325 -0.9467  0.3885 -0.8905
  675MOL0     C93025   2.936   7.320   5.183 -0.4462 -0.7427  0.3649
  675MOL0     C93026   2.981   7.206   5.086 -1.2098  0.3204 -0.3375
  675MOL0     C93027   3.127   7.180   5.116  0.6653  0.8273  0.5822
  675MOL0     C93028   3.205   7.134   4.991  0.0048 -0.1592  0.4203
  675MOL0     N93029   3.340   7.094   5.033 -0.9636 -0.0758  0.6467
  675MOL0     C93030   3.446   7.179   5.045 -0.8066 -0.7666 -0.6120
  675MOL0     C93031   3.546   7.095   5.086  0.1981 -0.1171 -0.5006
  675MOL0     C93032   3.683   7.135   5.100 -0.2417 -0.9076 -0.6101
  675MOL0     C93033   3.775   7.041   5.184  0.6473  0.5717 -0.0424
  675MOL0     C93034   3.734   7.023   5.329 -0.2280  0.2119  0.4474
  675MOL0     C93035   3.837   6.929   5.402  0.2724  0.5048 -0.4051
  675MOL0     O93036   3.949   6.991   5.447  0.1262 -0.2898 -0.4919
  675MOL0     C93037   3.939   7.075   5.558 -1.1089  0.4164  0.3465
  675MOL0     C93038   3.835   7.088   5.650  0.4179 -0.2516  0.3407
  675MOL0     C93039   3.823   7.197   5.747  0.2161  0.2107 -0.1053
  675MOL0     C93040   3.696   7.210   5.829 -0.3729  0.1057  0.0416
  675MOL0     C93041   3.933   7.290   5.754 -0.3205 -0.3782  0.4373
  675MOL0     C93042   3.930   7.412   5.848  0.2936 -0.3669  0.5398
  675MOL0     O93043   3.840   7.423   5.950  0.0530 -0.1130  0.9003
  675MOL0     C93044   3.843   7.528   6.036 -0.2031  0.8793 -0.6955
  675MOL0     C93045   3.894   7.656   6.018  0.1281 -0.1420 -0.0023
  675MOL0     C93046   3.895   7.751   6.121 -0.0568 -0.0562  0.4659
  675MOL0     C93047   3.850   7.703   6.253 -0.6269 -0.8811  0.0083
  675MOL0     O93048   3.864   7.783   6.362 -0.2055 -0.6402 -0.2032
  675MOL0     C93049   3.938   7.743   6.474  0.0513 -0.4049  0.0603
  675MOL0     C93050   3.938   7.857   6.584  0.2493 -0.5715 -0.4325
  675MOL0     C93051   4.016   7.821   6.715 -0.2049  0.0582  0.1603
  675MOL0     C93052   4.170   7.813   6.712  1.1815 -0.0852 -0.5103
  675MOL0     C93053   4.232   7.812   6.852 -0.3628 -1.1522  0.6123
  675MOL0     C93054   4.385   7.804   6.847 -0.0221  0.8008 -0.6287
  675MOL0     C93055   4.432   7.727   6.972 -0.8165 -0.6648  0.1027
  675MOL0     C93056   4.400   7.796   7.104 -0.1416  0.8489  0.1477
  675MOL0    Cl93057   4.540   7.916   7.127 -0.2779  0.0657  0.5525
  675MOL0     C93058   3.800   7.580   6.266  0.2762 -0.3400 -0.5960
  675MOL0     C93059   3.784   7.496   6.157 -0.0046 -0.1817 -0.9422
  675MOL0     O93060   4.026   7.491   5.827  0.0353 -0.0156 -0.0264
  675MOL0     C93061   4.050   7.268   5.681  0.1324  0.4239  0.5398
  675MOL0     C93062   4.051   7.161   5.589  0.7888  0.8261 -0.2791
  675MOL0     N93063   3.498   6.969   5.104 -0.3540 -0.3227  0.4643
  675MOL0     N93064   3.374   6.969   5.076 -0.4435 -0.4893 -0.5660
  675MOL0     C93065   2.372   7.170   5.697 -0.0871 -0.3430  0.3101
  675MOL0     C93066   2.242   7.121   5.735  0.4281  0.7941 -0.2706
  675MOL0     C93067   1.794   7.020   5.777  0.7243 -0.3826 -0.8632
  675MOL0     C93068   1.780   6.886   5.746 -0.0946 -0.0827  0.6585
  675MOL0     C93069   1.668   6.809   5.776 -1.4759  0.2323  0.3494
  675MOL0     C93070   1.564   6.869   5.840  0.6983 -0.5422  0.8277
  675MOL0     O93071   1.463   6.787   5.867 -0.0471 -0.0050  0.0965
  675MOL0     C93072   1.337   6.847   5.911  0.4173  0.0075 -0.4908
  675MOL0     C93073   1.237   6.743   5.903  0.2043  0.1585  0.8697
  675MOL0     C93074   1.129   6.751   6.001  0.4580  0.6947 -0.4812
  675MOL0     C93075   1.002   6.660   5.978 -0.2044 -0.1108  0.1742
  675MOL0     C93076   0.934   6.705   5.853 -0.1942 -0.1500 -0.1596
  675MOL0     C93077   0.874   6.724   5.751 -0.5961  0.0150  0.4794
  675MOL0     C93078   1.571   7.004   5.871 -0.1878 -0.2711 -0.9926
  675MOL0     C93079   1.678   7.086   5.839 -0.4911 -1.1725  0.2710
  675MOL0     C93080   1.661   7.229   5.890  0.1606  0.1435  0.5851
  675MOL0     H93081   2.119   7.050   5.433  1.2770 -0.1043 -1.3332
  675MOL0     H93082   2.340   7.139   5.365 -0.4814  0.1836  0.6660
  675MOL0     H93083   2.474   7.305   5.345 -1.1066 -3.1172 -1.0856
  675MOL0     H93084   2.538   7.145   5.346 -1.5005 -0.0231  0.6381
  675MOL0     H93085   2.679   7.362   5.263 -0.6192  0.6001  0.5794
  675MOL0     H93086   2.693   7.390   5.436 -3.1282 -1.7672  2.0324
  675MOL0     H93087   2.795   7.140   5.444  2.5543  0.8367  0.3462
  675MOL0     H93088   2.776   7.122   5.280 -0.5010 -3.0442  1.2992
  675MOL0     H93089   2.938   7.361   5.387 -1.2377  0.9370 -1.6084
  675MOL0     H93090   3.007   7.202   5.352 -1.3809 -0.5926 -2.0340
  675MOL0     H93091   2.998   7.410   5.175 -1.3311 -0.2476 -1.3124
  675MOL0     H93092   2.843   7.364   5.146  0.1810  0.3827  0.0761
  675MOL0     H93093   2.925   7.114   5.105 -0.4222 -0.9618 -3.6002
  675MOL0     H93094   2.962   7.228   4.981 -0.9655 -0.2073 -0.4990
  675MOL0     H93095   3.133   7.106   5.197 -0.6212 -1.8422 -1.5896
  675MOL0     H93096   3.163   7.277   5.151 -0.7149  0.6302  2.7702
  675MOL0     H93097   3.160   7.039   4.961  0.9345 -0.2465 -0.7566
  675MOL0     H93098   3.200   7.214   4.917  0.3862 -1.4983 -1.1105
  675MOL0     H93099   3.448   7.288   5.039 -1.7808 -0.3773  3.3554
  675MOL0     H93100   3.674   7.228   5.156 -2.8071 -1.1281 -0.5378
  675MOL0     H93101   3.725   7.156   5.001 -0.5619  0.2141 -0.5313
  675MOL0     H93102   3.781   6.947   5.128 -0.7120  1.7665 -2.3862
  675MOL0     H93103   3.881   7.068   5.179  1.0889 -1.0680 -0.0836
  675MOL0     H93104   3.719   7.122   5.373 -1.4369  1.3097 -2.2247
  675MOL0     H93105   3.634   6.981   5.343  0.3463 -1.7611 -0.9656
  675MOL0     H93106   3.787   6.886   5.489 -1.2320  2.8806  0.0113
  675MOL0     H93107   3.862   6.838   5.346 -2.6984 -0.8891  0.3436
  675MOL0     H93108   3.762   7.009   5.639  0.8877 -0.5411 -0.9037
  675MOL0     H93109   3.629   7.130   5.796  0.8493  0.2816 -3.2847
  675MOL0     H93110   3.649   7.308   5.811 -1.5649 -0.1646  1.5061
  675MOL0     H93111   3.725   7.217   5.934  3.1080  0.2334 -0.8368
  675MOL0     H93112   3.932   7.683   5.920  1.3996  1.9426  0.9902
  675MOL0     H93113   3.940   7.848   6.101 -0.1166 -0.6629 -3.2355
  675MOL0     H93114   3.914   7.651   6.528  2.0165 -0.5965  0.7174
  675MOL0     H93115   4.043   7.743   6.443  0.1533  2.3741  0.1916
  675MOL0     H93116   3.965   7.951   6.536 -2.8709  0.0159 -1.2042
  675MOL0     H93117   3.833   7.865   6.612  1.0445  4.5793  2.0849
  675MOL0     H93118   3.970   7.728   6.747 -2.1386  1.1882  0.8656
  675MOL0     H93119   3.989   7.904   6.781 -1.2925  0.0501 -0.2491
  675MOL0     H93120   4.224   7.890   6.656  0.2289  0.1997 -1.0480
  675MOL0     H93121   4.192   7.712   6.675 -3.2429 -2.1273  1.6673
  675MOL0     H93122   4.206   7.905   6.904  2.6995 -1.8567  3.7696
  675MOL0     H93123   4.196   7.724   6.906 -1.5023 -0.3131  1.2686
  675MOL0     H93124   4.426   7.906   6.852 -0.0796  0.7809  0.6912
  675MOL0     H93125   4.429   7.754   6.761  0.7680 -2.3982  1.4809
  675MOL0     H93126   4.540   7.711   6.965 -0.4174  1.3602  1.0706
  675MOL0     H93127   4.379   7.631   6.974 -2.6086  0.3002  1.2460
  675MOL0     H93128   4.398   7.716   7.177  0.0123  1.8304  1.2596
  675MOL0     H93129   4.301   7.842   7.103 -0.3673  0.5840  3.1867
  675MOL0     H93130   3.753   7.547   6.358  1.1033 -0.8778 -0.3472
  675MOL0     H93131   3.731   7.404   6.179 -1.1336  0.4917 -0.7712
  675MOL0     H93132   4.140   7.323   5.708 -0.0676  0.0403  2.1212
  675MOL0     H93133   4.136   7.157   5.522  1.3049  0.8285  0.3707
  675MOL0     H93134   2.443   7.187   5.777 -0.8463 -1.8177  1.3226
  675MOL0     H93135   2.225   7.097   5.840  1.5761 -2.3069 -0.6732
  675MOL0     H93136   1.860   6.835   5.692 -0.8726  1.4863 -2.1969
  675MOL0     H93137   1.675   6.701   5.762  2.8239  0.5253 -1.5260
  675MOL0     H93138   1.342   6.877   6.016 -0.9769 -1.7220  0.1209
  675MOL0     H93139   1.292   6.924   5.846 -3.3617 -2.2492 -0.8915
  675MOL0     H93140   1.288   6.649   5.927 -2.6133 -1.4779  0.8251
  675MOL0     H93141   1.202   6.730   5.801 -5.4734 -1.1500  2.6432
  675MOL0     H93142   1.170   6.726   6.100 -1.9023  3.0187  1.1989
  675MOL0     H93143   1.102   6.856   5.990  0.6656  0.7991  0.0029
  675MOL0     H93144   0.934   6.687   6.059 -2.4178 -1.0550 -1.2798
  675MOL0     H93145   1.019   6.552   5.970 -0.6222 -0.1574 -0.0960
  675MOL0     H93146   0.812   6.726   5.664 -2.5043  1.9916  1.7891
  675MOL0     H93147   1.494   7.058   5.926  1.5294  3.3766 -1.8160
  675MOL0     H93148   1.694   7.307   5.821 -2.1890 -0.0183 -0.8227
  675MOL0     H93149   1.556   7.241   5.920 -0.2927 -0.3893 -0.7116
  675MOL0     H93150   1.722   7.253   5.977  0.1830  0.4881  0.4750
  676MOL0     O93151   2.585   8.163   7.095 -1.0003  0.3823 -0.1505
  676MOL0     C93152   2.704   8.128   7.115  0.0894 -0.5334 -0.0561
  676MOL0     O93153   2.817   8.210   7.089 -0.0205  0.2245 -0.1844
  676MOL0     C93154   2.810   8.343   7.058  0.1811 -0.1047 -1.1687
  676MOL0     C93155   2.721   8.411   6.970 -0.3356  0.5826  0.1323
  676MOL0     C93156   2.725   8.543   6.945 -1.3722  0.0525  0.1855
  676MOL0     C93157   2.836   8.626   6.990 -0.3624  0.0937 -0.4447
  676MOL0     O93158   2.846   8.757   6.962  0.3856  0.3399  0.3026
  676MOL0     C93159   2.979   8.813   6.948  0.3554 -0.4970 -0.6790
  676MOL0     C93160   2.965   8.962   6.879 -0.0240  0.0323  0.1795
  676MOL0     C93161   2.858   9.044   6.946  1.1334 -0.9970  0.4644
  676MOL0     C93162   2.873   9.050   7.100  0.7547  1.0383 -0.3790
  676MOL0     C93163   2.808   9.176   7.161 -0.0835  0.2629  0.5291
  676MOL0     C93164   2.784   9.162   7.313  0.2023 -0.5211  0.2595
  676MOL0     C93165   2.908   9.144   7.397 -0.2185 -1.3106 -0.2424
  676MOL0     C93166   2.869   9.134   7.544  0.7204  0.5918  0.4957
  676MOL0     N93167   2.971   9.057   7.621  0.7360 -0.4913  0.2625
  676MOL0     C93168   2.988   8.926   7.620 -0.1375 -0.5978  0.8818
  676MOL0     C93169   3.096   8.910   7.696 -0.2969  0.4952  0.9310
  676MOL0     C93170   3.147   8.773   7.719 -0.0559 -0.5894 -0.9980
  676MOL0     C93171   3.164   8.759   7.880  0.8765  0.0365  0.1518
  676MOL0     C93172   3.232   8.628   7.931 -0.1853 -0.0444 -0.8545
  676MOL0     C93173   3.378   8.609   7.886  0.1127  0.7310  0.6507
  676MOL0     O93174   3.399   8.562   7.748  0.8098  0.0931  1.1621
  676MOL0     C93175   3.353   8.435   7.723  0.4914 -0.1840 -0.0050
  676MOL0     C93176   3.256   8.410   7.619  0.0050 -0.4942 -0.4825
  676MOL0     C93177   3.194   8.286   7.601 -0.1304 -1.0466 -0.8048
  676MOL0     C93178   3.072   8.294   7.524  0.5019 -0.5426  0.0774
  676MOL0     C93179   3.251   8.178   7.676  1.2472  0.0056 -0.3874
  676MOL0     C93180   3.211   8.030   7.655 -0.1191 -0.5086 -0.2244
  676MOL0     O93181   3.258   7.938   7.736  0.3697  0.3400 -0.3518
  676MOL0     C93182   3.269   7.807   7.703  0.4211  0.9872 -0.7710
  676MOL0     C93183   3.188   7.710   7.771  0.0918  0.3247  0.2773
  676MOL0     C93184   3.193   7.578   7.720 -0.0266 -0.2413  0.2796
  676MOL0     C93185   3.278   7.538   7.612  0.0210 -0.1122  0.4944
  676MOL0     O93186   3.298   7.402   7.584 -0.1909 -0.1155 -0.2865
  676MOL0     C93187   3.345   7.359   7.453  0.2418  0.5066  0.1730
  676MOL0     C93188   3.323   7.208   7.429 -0.0240 -0.0721 -0.9126
  676MOL0     C93189   3.358   7.164   7.288  0.1893  0.7957  0.0507
  676MOL0     C93190   3.239   7.208   7.195 -0.5034  0.1380 -0.0415
  676MOL0     C93191   3.262   7.140   7.063 -0.1806 -0.1238 -0.2474
  676MOL0     C93192   3.153   7.167   6.960 -0.0737 -0.5303 -0.2386
  676MOL0     C93193   3.202   7.119   6.827 -0.2343 -0.4955  0.0514
  676MOL0     C93194   3.299   7.213   6.756 -1.1282  0.4216 -0.2545
  676MOL0    Cl93195   3.317   7.154   6.584  0.4692 -0.0630 -0.0813
  676MOL0     C93196   3.362   7.635   7.556  0.2414 -1.1119  0.6654
  676MOL0     C93197   3.347   7.772   7.598  0.5756 -0.1001  0.4957
  676MOL0     O93198   3.146   8.012   7.555  1.1436 -0.2084 -0.1196
  676MOL0     C93199   3.354   8.202   7.770  0.6970 -0.1893  0.7537
  676MOL0     C93200   3.396   8.332   7.803 -0.5635  0.7456  0.3891
  676MOL0     N93201   3.147   9.030   7.735  0.6995 -0.0145  0.2120
  676MOL0     N93202   3.067   9.117   7.687  0.0400  0.3198 -0.2117
  676MOL0     C93203   2.935   8.553   7.075  0.0186  0.3181 -0.3524
  676MOL0     C93204   2.919   8.419   7.110  0.7645 -0.2167 -0.4563
  676MOL0     C93205   2.726   8.003   7.188 -0.6437 -0.1432  0.3104
  676MOL0     C93206   2.817   8.014   7.295 -0.1113 -0.0636 -0.5852
  676MOL0     C93207   2.849   7.907   7.381  0.4534  0.8746 -0.0459
  676MOL0     C93208   2.794   7.781   7.352 -0.5434 -0.4679  0.2811
  676MOL0     O93209   2.826   7.671   7.428 -0.1987 -0.6216 -0.1030
  676MOL0     C93210   2.961   7.641   7.430  1.3240  0.5191  0.3966
  676MOL0     C93211   2.972   7.499   7.491 -0.6109 -0.7957 -0.5736
  676MOL0     C93212   2.871   7.401   7.438  0.8288  0.4778 -0.2452
  676MOL0     C93213   2.903   7.356   7.293 -0.1835  1.0462 -1.1916
  676MOL0     C93214   2.875   7.440   7.176 -0.4786  0.8043 -0.6677
  676MOL0     C93215   2.858   7.513   7.088  0.0353  0.1594  0.6881
  676MOL0     C93216   2.703   7.765   7.244 -0.6222  0.9879 -0.0898
  676MOL0     C93217   2.662   7.874   7.163 -0.6959 -0.4874 -0.0395
  676MOL0     C93218   2.567   7.863   7.044 -0.3153  0.7081  0.3360
  676MOL0     H93219   2.638   8.359   6.923 -1.6587  2.5041  0.2056
  676MOL0     H93220   2.652   8.604   6.893 -1.8138  0.7859  1.6119
  676MOL0     H93221   3.037   8.761   6.871 -0.8217 -0.9650 -1.2887
  676MOL0     H93222   3.027   8.808   7.046 -0.3574 -1.3851 -0.3656
  676MOL0     H93223   3.058   9.018   6.867  0.7577 -1.1608  0.4954
  676MOL0     H93224   2.935   8.937   6.777  1.0543 -1.1512  0.1232
  676MOL0     H93225   2.867   9.148   6.912 -0.1723  0.1701  3.3808
  676MOL0     H93226   2.768   8.991   6.915  2.3828 -3.1934  0.3744
  676MOL0     H93227   2.818   8.963   7.136  1.4959  1.2970  1.4942
  676MOL0     H93228   2.974   9.045   7.141  0.2987 -0.0520  0.6890
  676MOL0     H93229   2.718   9.200   7.104 -0.8656 -0.4364  1.4351
  676MOL0     H93230   2.872   9.262   7.137  0.9153 -0.6995 -0.4337
  676MOL0     H93231   2.735   9.254   7.343  2.2146  1.3411 -1.7908
  676MOL0     H93232   2.712   9.079   7.312 -0.4509 -0.1162 -3.7791
  676MOL0     H93233   2.967   9.233   7.375  0.0489 -1.3750  0.1894
  676MOL0     H93234   2.970   9.056   7.374 -0.1374 -1.8801  1.9133
  676MOL0     H93235   2.840   9.228   7.590 -0.7159  1.5070 -2.0756
  676MOL0     H93236   2.780   9.071   7.559  0.8032  0.8210  2.1435
  676MOL0     H93237   2.921   8.850   7.580  0.9923 -2.1119  1.7548
  676MOL0     H93238   3.246   8.761   7.672 -0.2268 -0.4755 -1.3921
  676MOL0     H93239   3.078   8.706   7.668  0.9795  0.6641 -4.3316
  676MOL0     H93240   3.207   8.849   7.925 -1.1301  1.2793 -0.2864
  676MOL0     H93241   3.064   8.742   7.920  0.8790 -1.1655 -0.3068
  676MOL0     H93242   3.255   8.635   8.038  1.1406 -0.5532 -1.0847
  676MOL0     H93243   3.177   8.537   7.905 -0.5432 -0.5644  1.5036
  676MOL0     H93244   3.448   8.691   7.907  0.5593  0.8170 -0.9951
  676MOL0     H93245   3.417   8.527   7.946  3.6011  0.7897 -1.2297
  676MOL0     H93246   3.217   8.489   7.555  0.4028  1.6771  1.7786
  676MOL0     H93247   3.013   8.386   7.527  1.5095  0.1686 -0.9382
  676MOL0     H93248   3.000   8.216   7.549 -2.0748  1.6861  0.0135
  676MOL0     H93249   3.097   8.293   7.417 -4.3560  1.8519 -1.4023
  676MOL0     H93250   3.124   7.719   7.858  1.0657 -2.3499  1.3977
  676MOL0     H93251   3.126   7.508   7.769  1.0904  0.3466  2.7520
  676MOL0     H93252   3.275   7.401   7.381 -0.4671 -3.8365 -2.0043
  676MOL0     H93253   3.445   7.394   7.424 -0.9441  3.5413 -0.6924
  676MOL0     H93254   3.391   7.152   7.495  1.4011 -1.6133 -3.5433
  676MOL0     H93255   3.219   7.190   7.457 -0.4592 -2.2970 -3.5959
  676MOL0     H93256   3.376   7.056   7.298  0.7175  0.8752 -0.0465
  676MOL0     H93257   3.454   7.203   7.254  1.5649 -3.6268 -1.8844
  676MOL0     H93258   3.232   7.317   7.186  0.8679  0.3307  0.8726
  676MOL0     H93259   3.147   7.164   7.234  0.5217 -0.4034  1.9403
  676MOL0     H93260   3.357   7.172   7.018 -0.9131 -1.3162 -2.8667
  676MOL0     H93261   3.264   7.033   7.082 -1.1533 -0.3108 -1.0909
  676MOL0     H93262   3.131   7.273   6.946  0.2351 -0.4655 -0.2346
  676MOL0     H93263   3.057   7.125   6.991 -0.6879  0.5414 -0.6553
  676MOL0     H93264   3.123   7.113   6.752 -0.9140  1.1769  0.6032
  676MOL0     H93265   3.247   7.020   6.838  0.9188 -0.3176 -2.3960
  676MOL0     H93266   3.401   7.206   6.795 -0.7891 -3.2176 -1.4275
  676MOL0     H93267   3.261   7.316   6.767 -3.1030 -0.3602  0.7453
  676MOL0     H93268   3.444   7.608   7.490  2.4721  1.6991  2.0441
  676MOL0     H93269   3.415   7.842   7.550 -0.1658 -0.0765 -0.5464
  676MOL0     H93270   3.392   8.121   7.831 -0.9586 -2.0796 -0.6070
  676MOL0     H93271   3.480   8.348   7.870 -1.0696  1.7167  0.8127
  676MOL0     H93272   3.024   8.602   7.113  1.4910 -1.0905 -1.8105
  676MOL0     H93273   3.000   8.372   7.166 -0.1176 -0.9648  0.2330
  676MOL0     H93274   2.856   8.114   7.307  1.8380 -0.9322  1.0574
  676MOL0     H93275   2.898   7.912   7.478 -0.2688 -0.4748  0.4136
  676MOL0     H93276   3.009   7.644   7.331  0.7340  2.9483  0.1031
  676MOL0     H93277   3.027   7.705   7.490  0.1522  1.9201  0.2589
  676MOL0     H93278   2.950   7.505   7.598  2.2338  0.3041  0.0445
  676MOL0     H93279   3.068   7.448   7.475 -1.3511 -2.5913  0.5214
  676MOL0     H93280   2.869   7.317   7.507  2.0853  0.2663 -0.4511
  676MOL0     H93281   2.771   7.446   7.446  1.3915  1.5084  1.3094
  676MOL0     H93282   2.848   7.262   7.283  2.1694 -0.9901  2.5487
  676MOL0     H93283   3.008   7.327   7.284  0.7738  4.6033 -3.6833
  676MOL0     H93284   2.848   7.572   6.999 -1.7161  1.1974  1.5210
  676MOL0     H93285   2.654   7.673   7.215 -1.9305  1.8796 -0.7530
  676MOL0     H93286   2.477   7.922   7.064  0.3442  3.0390 -2.8994
  676MOL0     H93287   2.616   7.904   6.956  2.8427  0.5219  1.8589
  676MOL0     H93288   2.530   7.762   7.021  0.5509  0.0648  1.6030
  677MOL0     O93289   0.286   8.296  10.181 -0.1048  0.6254  0.4286
  677MOL0     C93290   0.282   8.274  10.060 -0.5668 -0.3381  0.0604
  677MOL0     O93291   0.170   8.310   9.982 -0.6369 -0.3610  0.3685
  677MOL0     C93292   0.084   8.394  10.047 -0.0227  0.1323  0.1964
  677MOL0     C93293  -0.048   8.355  10.052  0.3286 -1.4490  0.3036
  677MOL0     C93294  -0.131   8.448  10.110  0.0742 -0.0115 -0.9477
  677MOL0     C93295  -0.096   8.581  10.146  0.8871 -1.1010  0.4872
  677MOL0     O93296  -0.187   8.677  10.176 -0.2374  0.9037  0.0827
  677MOL0     C93297  -0.267   8.632  10.286  0.3566  0.6757 -0.8512
  677MOL0     C93298  -0.341   8.757  10.339  0.4480 -0.1141 -0.3899
  677MOL0     C93299  -0.474   8.791  10.263  1.0722  0.5105  0.3436
  677MOL0     C93300  -0.590   8.718  10.332  0.4190 -0.3762 -0.0352
  677MOL0     C93301  -0.735   8.729  10.277 -0.0966 -0.6018 -0.7346
  677MOL0     C93302  -0.836   8.631  10.342 -0.9053 -0.6106  0.9079
  677MOL0     C93303  -0.975   8.690  10.313 -0.5733  0.4817 -0.3371
  677MOL0     C93304  -1.064   8.566  10.289  0.4979 -0.2817 -0.8100
  677MOL0     N93305  -1.117   8.510  10.410  0.3591  0.3994  0.1792
  677MOL0     C93306  -1.065   8.415  10.491 -0.8149  0.0092 -0.6094
  677MOL0     C93307  -1.170   8.376  10.569  0.9447 -0.4635 -0.9108
  677MOL0     C93308  -1.160   8.262  10.676  0.2377  0.3892 -0.5379
  677MOL0     C93309  -1.288   8.242  10.756  1.0408  0.2112 -0.8256
  677MOL0     C93310  -1.269   8.140  10.858 -0.1870 -0.1182  0.3609
  677MOL0     C93311  -1.376   8.138  10.957 -0.2901 -0.1254 -0.0126
  677MOL0     O93312  -1.496   8.096  10.878 -0.5831  0.3008 -0.6760
  677MOL0     C93313  -1.600   8.186  10.848  0.0821  0.4167  0.3011
  677MOL0     C93314  -1.697   8.131  10.771  0.0781  0.2416  0.9090
  677MOL0     C93315  -1.818   8.194  10.746 -0.2512  0.2839  0.4378
  677MOL0     C93316  -1.928   8.111  10.668 -0.4878 -1.0712 -1.2995
  677MOL0     C93317  -1.834   8.324  10.785 -0.0531 -0.0468  0.3175
  677MOL0     C93318  -1.954   8.407  10.759  0.1423  0.5116  0.7494
  677MOL0     O93319  -2.081   8.346  10.759 -0.1276 -0.0272  0.4260
  677MOL0     C93320  -2.205   8.410  10.787  0.1440 -0.3360  0.3761
  677MOL0     C93321  -2.324   8.359  10.730 -0.3585 -0.2975 -0.3079
  677MOL0     C93322  -2.444   8.436  10.735 -0.4252 -0.0773 -0.3657
  677MOL0     C93323  -2.451   8.554  10.814 -0.4610 -0.0284  0.0354
  677MOL0     O93324  -2.567   8.621  10.836 -0.3199  0.2585  0.4170
  677MOL0     C93325  -2.675   8.604  10.746  0.6221  0.0140 -0.9611
  677MOL0     C93326  -2.650   8.645  10.607 -0.1259 -0.6297 -0.0980
  677MOL0     C93327  -2.606   8.792  10.594  0.4552 -0.6515 -0.8087
  677MOL0     C93328  -2.505   8.826  10.487  0.7622  0.7722  0.2484
  677MOL0     C93329  -2.366   8.762  10.528  1.0768  0.0638 -0.6677
  677MOL0     C93330  -2.249   8.842  10.464 -0.3720 -0.6939 -0.8210
  677MOL0     C93331  -2.108   8.814  10.523  0.0326  0.3555 -1.1528
  677MOL0     C93332  -2.036   8.681  10.491  0.3677  0.7307  0.7973
  677MOL0    Cl93333  -1.977   8.672  10.319 -0.2580 -0.6049  0.1949
  677MOL0     C93334  -2.333   8.590  10.882  0.2132 -0.5452 -0.2273
  677MOL0     C93335  -2.208   8.527  10.868  0.2266 -0.0425  0.4622
  677MOL0     O93336  -1.936   8.531  10.754 -0.0006 -0.0467 -0.1202
  677MOL0     C93337  -1.730   8.384  10.859 -0.8769 -0.7953 -0.3688
  677MOL0     C93338  -1.608   8.321  10.890  0.2061  0.0988  0.1387
  677MOL0     N93339  -1.283   8.453  10.548  0.8506  0.1083 -0.2526
  677MOL0     N93340  -1.255   8.514  10.446  0.4234 -0.3629  0.4738
  677MOL0     C93341   0.039   8.618  10.146 -0.8186 -0.2979 -0.5400
  677MOL0     C93342   0.127   8.516  10.088 -0.1525 -0.2869 -0.2110
  677MOL0     C93343   0.399   8.196  10.010 -0.2794 -0.4593  0.1639
  677MOL0     C93344   0.376   8.126   9.891 -0.1290 -0.6830  0.0130
  677MOL0     C93345   0.479   8.043   9.838  0.6724 -0.5764  0.6530
  677MOL0     C93346   0.597   8.034   9.892  0.5548 -0.6361  0.0871
  677MOL0     O93347   0.686   7.960   9.824  0.0405  0.1032  0.2672
  677MOL0     C93348   0.821   7.946   9.873 -0.4428 -0.2787 -0.0070
  677MOL0     C93349   0.897   8.082   9.856 -0.2017 -0.1951 -0.4258
  677MOL0     C93350   0.897   8.145   9.719  0.1060  0.9816 -0.4279
  677MOL0     C93351   0.983   8.261   9.712  0.0965  0.0659  0.3747
  677MOL0     C93352   0.993   8.304   9.575  0.6878 -0.2465  0.0301
  677MOL0     C93353   0.994   8.346   9.467 -0.4730  0.5337 -0.0866
  677MOL0     C93354   0.618   8.094  10.014  0.7473 -0.8398  1.0970
  677MOL0     C93355   0.522   8.180  10.076 -1.3768  0.6393  0.5090
  677MOL0     C93356   0.568   8.249  10.207 -0.4840 -0.4400 -0.3978
  677MOL0     H93357  -0.085   8.261  10.012 -2.1939 -0.2289 -0.4144
  677MOL0     H93358  -0.233   8.413  10.128  0.7251 -2.0594 -0.9495
  677MOL0     H93359  -0.204   8.583  10.361 -1.2317 -0.6451 -0.3326
  677MOL0     H93360  -0.355   8.573  10.257  0.7262  0.8761 -2.4928
  677MOL0     H93361  -0.360   8.746  10.446  1.3981  2.2514  0.0833
  677MOL0     H93362  -0.266   8.836  10.337  1.2940 -0.8400  0.8545
  677MOL0     H93363  -0.495   8.898  10.273 -1.1350 -0.1048  4.4412
  677MOL0     H93364  -0.467   8.761  10.158  1.4024  1.5805  0.0463
  677MOL0     H93365  -0.562   8.612  10.341 -1.3944 -0.8600  0.4717
  677MOL0     H93366  -0.592   8.763  10.432  0.4508  4.1861 -1.8489
  677MOL0     H93367  -0.730   8.714  10.168 -2.9976  0.1579 -1.0543
  677MOL0     H93368  -0.763   8.833  10.295  1.3876 -0.4985  1.2533
  677MOL0     H93369  -0.821   8.530  10.304  1.5837 -0.6642  1.8522
  677MOL0     H93370  -0.820   8.634  10.450 -0.0803 -1.3848  0.8121
  677MOL0     H93371  -0.978   8.754  10.225  2.1845  2.6079  0.9525
  677MOL0     H93372  -1.010   8.743  10.401 -2.2882 -1.6653  0.3621
  677MOL0     H93373  -1.146   8.619  10.241  0.7640  2.9016  1.8840
  677MOL0     H93374  -1.021   8.490  10.223  1.2560 -1.1228  0.6066
  677MOL0     H93375  -0.968   8.366  10.498 -1.0895 -0.3260  4.3368
  677MOL0     H93376  -1.077   8.276  10.746 -0.0313 -0.3569 -0.0540
  677MOL0     H93377  -1.133   8.167  10.629 -0.4877 -1.5148  2.5899
  677MOL0     H93378  -1.310   8.330  10.817  1.5881  0.3478 -0.8179
  677MOL0     H93379  -1.368   8.215  10.687 -2.7699  1.8895  2.5416
  677MOL0     H93380  -1.250   8.044  10.809  1.4113  0.9400 -1.2297
  677MOL0     H93381  -1.181   8.184  10.907 -1.5597  1.6819  1.3015
  677MOL0     H93382  -1.342   8.065  11.031  0.0815  1.4671  1.4331
  677MOL0     H93383  -1.382   8.236  11.004 -0.5962  1.1656 -2.5668
  677MOL0     H93384  -1.673   8.029  10.743  1.1392  1.2341 -2.0469
  677MOL0     H93385  -1.970   8.174  10.590 -0.0303  2.6757  1.2382
  677MOL0     H93386  -2.010   8.089  10.738  0.8212  1.4656  1.2169
  677MOL0     H93387  -1.892   8.014  10.633  0.8587 -0.8674 -0.5355
  677MOL0     H93388  -2.319   8.270  10.667  1.1829  1.0446 -2.2100
  677MOL0     H93389  -2.527   8.393  10.680 -0.7683  0.6003 -0.3842
  677MOL0     H93390  -2.709   8.500  10.740  2.0356 -0.5087 -0.2093
  677MOL0     H93391  -2.757   8.667  10.782  1.9653  1.4393 -0.2639
  677MOL0     H93392  -2.569   8.579  10.573  0.7262 -0.6978  1.9141
  677MOL0     H93393  -2.726   8.622  10.531  1.0762  1.1959 -1.9451
  677MOL0     H93394  -2.565   8.832  10.687  0.6746  4.1721 -2.6750
  677MOL0     H93395  -2.702   8.844  10.587  0.9595  0.6650  1.1844
  677MOL0     H93396  -2.508   8.936  10.487 -1.1953  0.7680  1.6458
  677MOL0     H93397  -2.546   8.791  10.393  2.3786  2.8117 -1.3305
  677MOL0     H93398  -2.354   8.767  10.636 -0.0902 -1.3888 -0.4513
  677MOL0     H93399  -2.350   8.658  10.498 -1.6728 -1.6310  2.9476
  677MOL0     H93400  -2.274   8.944  10.494 -0.4562 -1.5221  2.1844
  677MOL0     H93401  -2.248   8.835  10.354  0.2225  0.9826 -0.9422
  677MOL0     H93402  -2.115   8.824  10.632 -2.0513  0.2522 -1.2391
  677MOL0     H93403  -2.034   8.888  10.489  2.0501 -0.5423  1.0044
  677MOL0     H93404  -2.105   8.601  10.521 -0.0939  1.9625  3.3326
  677MOL0     H93405  -1.949   8.657  10.553  0.4762 -1.1833 -0.0311
  677MOL0     H93406  -2.333   8.683  10.939 -1.0322 -0.9616  0.4859
  677MOL0     H93407  -2.129   8.583  10.916 -1.5523  3.2385 -0.1240
  677MOL0     H93408  -1.748   8.485  10.895 -0.5579 -1.1295  0.7676
  677MOL0     H93409  -1.529   8.374  10.941 -2.3336  0.1913  4.4297
  677MOL0     H93410   0.075   8.713  10.186 -1.6494  0.7197 -2.0949
  677MOL0     H93411   0.234   8.533  10.091  0.2889 -2.8845  1.6893
  677MOL0     H93412   0.277   8.139   9.848  0.6296  0.0648 -1.5749
  677MOL0     H93413   0.449   7.994   9.746 -2.8396  3.6222 -0.8183
  677MOL0     H93414   0.824   7.926   9.980 -0.3181 -0.6967 -0.0879
  677MOL0     H93415   0.869   7.864   9.819 -0.4884  0.6423 -1.5264
  677MOL0     H93416   0.996   8.080   9.903 -1.0907 -0.3405  1.5522
  677MOL0     H93417   0.841   8.152   9.920  1.0424 -1.1411  1.8294
  677MOL0     H93418   0.924   8.069   9.646 -3.4893  0.6694 -1.5930
  677MOL0     H93419   0.792   8.167   9.697 -0.2290  2.2065  2.0073
  677MOL0     H93420   1.083   8.227   9.741  0.1777  1.2456  1.5791
  677MOL0     H93421   0.959   8.348   9.773 -0.6916 -0.6805  1.1447
  677MOL0     H93422   1.005   8.371   9.363  3.2744  3.5873  0.8032
  677MOL0     H93423   0.709   8.070  10.068  0.6486  1.2329  2.2816
  677MOL0     H93424   0.570   8.356  10.184  2.2541 -0.6027 -1.2694
  677MOL0     H93425   0.494   8.235  10.286  0.6971 -1.4283  0.5821
  677MOL0     H93426   0.670   8.223  10.237  0.5771  4.6510  1.3991
  678MOL0     O93427   6.179   8.898   5.036  0.0817  0.5932 -0.0863
  678MOL0     C93428   6.230   8.952   5.133 -0.0767 -0.7625 -0.0098
  678MOL0     O93429   6.162   8.980   5.256 -0.1973  0.5879  0.6641
  678MOL0     C93430   6.039   8.933   5.263  0.3136 -0.2665 -0.5098
  678MOL0     C93431   6.010   8.801   5.302  0.7507 -0.7785 -0.7402
  678MOL0     C93432   5.879   8.742   5.278  0.2827  0.6431  1.3010
  678MOL0     C93433   5.785   8.819   5.211 -0.2868  0.4152  0.1764
  678MOL0     O93434   5.673   8.754   5.180  1.0085  0.6404  0.3519
  678MOL0     C93435   5.576   8.788   5.073 -0.2112  0.0510  0.1740
  678MOL0     C93436   5.505   8.663   5.019  0.5611 -0.0419 -0.2953
  678MOL0     C93437   5.398   8.678   4.906 -0.1427 -0.0077  0.4967
  678MOL0     C93438   5.352   8.817   4.888 -0.3898 -1.1462 -0.9170
  678MOL0     C93439   5.239   8.814   4.777  1.3072  1.8305  0.5232
  678MOL0     C93440   5.154   8.946   4.779  0.3811  0.1366  0.3928
  678MOL0     C93441   5.023   8.937   4.686  0.2896  0.9016 -0.3118
  678MOL0     C93442   4.919   9.036   4.705  0.4468  0.5715  0.2980
  678MOL0     N93443   4.789   9.003   4.637  0.0875 -0.3659  0.7157
  678MOL0     C93444   4.700   8.899   4.670  0.0431  0.3569 -1.3260
  678MOL0     C93445   4.602   8.898   4.584 -0.2026  0.1927 -0.3305
  678MOL0     C93446   4.472   8.802   4.581 -1.0748  0.3221  1.1631
  678MOL0     C93447   4.345   8.882   4.590  0.7031  0.1288 -0.1075
  678MOL0     C93448   4.332   8.974   4.707 -0.3351  0.3398 -0.1455
  678MOL0     C93449   4.185   9.009   4.720  0.9020  0.5776 -0.7530
  678MOL0     O93450   4.163   9.114   4.809  0.1848 -0.6983  0.2387
  678MOL0     C93451   4.027   9.145   4.829 -0.1186  0.4064 -0.2577
  678MOL0     C93452   3.998   9.170   4.958 -0.1079 -0.0885 -0.3135
  678MOL0     C93453   3.867   9.211   4.997 -0.8062  0.4487  0.0588
  678MOL0     C93454   3.840   9.224   5.144 -0.3740 -0.7198 -0.8457
  678MOL0     C93455   3.772   9.212   4.891 -0.1637 -0.7548 -0.0396
  678MOL0     C93456   3.631   9.246   4.912  0.3851  0.6622  0.2924
  678MOL0     O93457   3.593   9.335   5.005  0.0582 -0.5059 -0.4763
  678MOL0     C93458   3.462   9.345   5.056 -0.0095 -1.0982  0.6052
  678MOL0     C93459   3.373   9.242   5.069  0.3254 -0.1940  0.1677
  678MOL0     C93460   3.238   9.268   5.111 -0.1853 -0.8740 -0.0611
  678MOL0     C93461   3.192   9.403   5.124  0.3624  0.1817 -0.8454
  678MOL0     O93462   3.062   9.413   5.163  0.2053  0.6361 -0.0143
  678MOL0     C93463   2.960   9.327   5.095  0.4189 -0.0634 -0.3722
  678MOL0     C93464   2.817   9.385   5.112  0.7654  0.2036  0.9709
  678MOL0     C93465   2.698   9.299   5.061  0.0654 -0.0706 -1.0854
  678MOL0     C93466   2.573   9.383   5.098 -0.2128  0.5630  0.2712
  678MOL0     C93467   2.439   9.302   5.080 -0.0546 -0.0801 -0.3577
  678MOL0     C93468   2.323   9.386   5.132  0.0812 -0.5298 -0.7490
  678MOL0     C93469   2.189   9.321   5.111  0.1864  0.8565 -0.2621
  678MOL0     C93470   2.079   9.423   5.154  0.6440  0.6611  0.2164
  678MOL0    Cl93471   1.933   9.360   5.073 -0.4353  0.1623  0.0136
  678MOL0     C93472   3.294   9.513   5.118  1.1290  0.0069 -0.7458
  678MOL0     C93473   3.427   9.475   5.084  0.6634 -0.1875 -0.0651
  678MOL0     O93474   3.556   9.179   4.837 -0.5034  0.3944 -0.3176
  678MOL0     C93475   3.807   9.184   4.755 -0.1457 -0.4315  0.4434
  678MOL0     C93476   3.937   9.144   4.729 -0.5665  0.0797 -0.6659
  678MOL0     N93477   4.635   8.994   4.486  0.9090 -0.3857 -0.1135
  678MOL0     N93478   4.738   9.061   4.523 -0.2161  0.1842 -0.2992
  678MOL0     C93479   5.813   8.950   5.171 -1.0511 -0.1971 -0.4997
  678MOL0     C93480   5.937   9.010   5.206  0.0667 -0.0698 -0.6681
  678MOL0     C93481   6.377   8.988   5.124 -0.2956 -0.3794  0.0189
  678MOL0     C93482   6.431   9.047   5.233  0.5526  0.1775  0.3698
  678MOL0     C93483   6.556   9.102   5.231  0.7093  0.2090 -0.8934
  678MOL0     C93484   6.635   9.103   5.120 -0.7722  0.2417  0.3295
  678MOL0     O93485   6.750   9.171   5.097  0.2766  0.0406 -0.5157
  678MOL0     C93486   6.801   9.269   5.187 -0.1422  0.4153  0.2127
  678MOL0     C93487   6.704   9.390   5.186 -0.0909 -0.2304  0.4830
  678MOL0     C93488   6.790   9.514   5.232 -0.4101  0.3044 -0.3274
  678MOL0     C93489   6.719   9.620   5.301 -1.2691 -0.5674 -0.2915
  678MOL0     C93490   6.606   9.662   5.207 -0.3822  0.3401 -0.2379
  678MOL0     C93491   6.522   9.701   5.127  0.0254  0.1075 -0.2292
  678MOL0     C93492   6.593   9.030   5.004  0.7782  0.3775 -0.8651
  678MOL0     C93493   6.463   8.970   5.006  0.4576 -0.0005 -0.4891
  678MOL0     C93494   6.421   8.885   4.880  0.7023  0.6049 -0.3178
  678MOL0     H93495   6.076   8.721   5.333  3.6233  1.3092 -1.0579
  678MOL0     H93496   5.843   8.641   5.296 -4.9222  1.3921 -2.6618
  678MOL0     H93497   5.627   8.842   4.993  1.9175  0.5048  1.7458
  678MOL0     H93498   5.500   8.854   5.116  0.9780  1.3284  0.3696
  678MOL0     H93499   5.581   8.593   4.984 -1.8570 -3.7169  1.1623
  678MOL0     H93500   5.457   8.626   5.111 -1.7883  0.8754 -1.0679
  678MOL0     H93501   5.451   8.630   4.824 -1.9865 -2.6293  0.7095
  678MOL0     H93502   5.316   8.606   4.913  0.2814 -0.9226 -2.6092
  678MOL0     H93503   5.315   8.862   4.981 -0.1608 -4.3526  0.8756
  678MOL0     H93504   5.428   8.879   4.840 -2.1243  0.6820 -1.4362
  678MOL0     H93505   5.166   8.737   4.805  1.0616  1.7783 -0.2363
  678MOL0     H93506   5.279   8.790   4.678  2.0074  1.1162  0.9683
  678MOL0     H93507   5.119   8.974   4.879 -1.9922  2.0123 -0.8356
  678MOL0     H93508   5.209   9.030   4.734 -3.9758  3.2350  0.1480
  678MOL0     H93509   4.982   8.836   4.696 -1.3642  1.5590 -0.0920
  678MOL0     H93510   5.056   8.934   4.581 -3.5356 -4.7854 -1.8216
  678MOL0     H93511   4.902   9.057   4.812  1.2250 -0.8160  0.7101
  678MOL0     H93512   4.952   9.124   4.649 -1.2934 -0.4697 -2.5701
  678MOL0     H93513   4.701   8.831   4.755  3.4961  0.6130 -1.0531
  678MOL0     H93514   4.479   8.732   4.665  1.2369  0.7012  1.3668
  678MOL0     H93515   4.481   8.742   4.490 -1.1402  0.9967  0.7069
  678MOL0     H93516   4.333   8.941   4.499 -2.5180  1.6062  1.0981
  678MOL0     H93517   4.250   8.828   4.585 -0.6891  2.5563 -2.5678
  678MOL0     H93518   4.377   8.928   4.796  0.9210  0.9584 -0.4381
  678MOL0     H93519   4.387   9.067   4.694  0.2906 -0.0206 -0.1296
  678MOL0     H93520   4.156   9.030   4.616 -3.6539  0.0646  0.2098
  678MOL0     H93521   4.119   8.924   4.739 -0.9731  1.7052 -1.9123
  678MOL0     H93522   4.082   9.173   5.026  1.4964  1.3787 -2.2213
  678MOL0     H93523   3.769   9.149   5.179  0.1234 -1.2089 -0.8507
  678MOL0     H93524   3.809   9.328   5.159 -0.0059 -0.8294  0.9957
  678MOL0     H93525   3.930   9.230   5.206 -0.4796  2.4166 -0.8345
  678MOL0     H93526   3.394   9.144   5.028 -0.1604  0.5152 -1.9345
  678MOL0     H93527   3.169   9.184   5.112 -0.0623 -0.9739  0.4415
  678MOL0     H93528   2.987   9.327   4.989  0.3279  3.0940 -0.4933
  678MOL0     H93529   2.968   9.219   5.115 -1.5160 -0.7117 -2.6005
  678MOL0     H93530   2.805   9.397   5.220  0.2652 -1.0091  1.0620
  678MOL0     H93531   2.816   9.482   5.061 -3.7692 -0.2637 -0.1983
  678MOL0     H93532   2.699   9.205   5.117 -0.3832  0.4414 -0.1932
  678MOL0     H93533   2.697   9.273   4.955 -0.6151 -0.4684 -0.9878
  678MOL0     H93534   2.573   9.471   5.033  0.8193  0.5744  0.2778
  678MOL0     H93535   2.573   9.427   5.198 -2.7896  0.4211  0.4106
  678MOL0     H93536   2.423   9.279   4.975 -0.1676 -3.5032  0.2862
  678MOL0     H93537   2.448   9.209   5.137  0.5709  2.0815  3.4474
  678MOL0     H93538   2.329   9.477   5.072  1.4578 -0.7782 -1.0158
  678MOL0     H93539   2.337   9.426   5.233 -1.7475  0.7136 -0.9250
  678MOL0     H93540   2.185   9.236   5.181 -0.2791  2.0012  1.1415
  678MOL0     H93541   2.168   9.300   5.006  1.6042 -0.3187 -0.3461
  678MOL0     H93542   2.109   9.523   5.120 -0.8282  1.4734  1.2506
  678MOL0     H93543   2.072   9.438   5.262 -0.5037 -0.5611  0.3357
  678MOL0     H93544   3.280   9.619   5.133  0.9448 -0.0586 -0.4362
  678MOL0     H93545   3.503   9.552   5.073  1.1396 -0.5447  0.5957
  678MOL0     H93546   3.738   9.206   4.674 -0.8951  0.9266  1.4040
  678MOL0     H93547   3.957   9.129   4.623 -0.7054  1.0162 -0.8352
  678MOL0     H93548   5.751   9.025   5.124 -1.0739  0.0355 -0.1071
  678MOL0     H93549   5.949   9.116   5.186 -0.7509 -0.3447 -2.9492
  678MOL0     H93550   6.380   9.060   5.328 -2.4044 -1.2584 -0.8764
  678MOL0     H93551   6.587   9.141   5.327 -0.8783 -0.0053 -0.2628
  678MOL0     H93552   6.811   9.222   5.285 -0.5486  2.5873  1.3463
  678MOL0     H93553   6.904   9.300   5.164  0.4619 -0.7847  1.1540
  678MOL0     H93554   6.611   9.373   5.241  0.1042  2.3056  1.7064
  678MOL0     H93555   6.684   9.414   5.081  1.7665 -1.9821 -0.3569
  678MOL0     H93556   6.862   9.474   5.304 -0.5266  0.9744  0.1718
  678MOL0     H93557   6.843   9.551   5.144 -0.7887  0.4549 -0.4964
  678MOL0     H93558   6.789   9.702   5.316 -0.4151 -1.5617  1.4386
  678MOL0     H93559   6.680   9.596   5.400 -3.3062  0.9087 -0.6600
  678MOL0     H93560   6.449   9.725   5.053 -1.3726  1.5778  1.5191
  678MOL0     H93561   6.660   9.030   4.919  1.9944 -2.0307  0.0056
  678MOL0     H93562   6.513   8.858   4.828 -0.9514  0.4515 -3.4083
  678MOL0     H93563   6.361   8.798   4.908 -0.2466  1.2096 -0.4026
  678MOL0     H93564   6.359   8.948   4.815 -0.9232 -0.4079  0.1953
  679MOL0     O93565   8.480   8.049  10.311  0.4208 -0.3307 -0.4144
  679MOL0     C93566   8.579   8.067  10.249 -0.0564  0.7464 -0.1225
  679MOL0     O93567   8.692   8.014  10.291 -0.6946  0.9310 -0.1692
  679MOL0     C93568   8.699   7.904  10.371  0.0162  0.1679 -0.3017
  679MOL0     C93569   8.653   7.778  10.337  1.2933  0.2302 -0.3911
  679MOL0     C93570   8.675   7.668  10.428  0.4818 -0.7919  0.0724
  679MOL0     C93571   8.730   7.691  10.558 -0.2172 -0.0513  0.4965
  679MOL0     O93572   8.743   7.581  10.651 -0.3337  0.4761  0.7030
  679MOL0     C93573   8.650   7.479  10.637  0.1841 -0.1210 -0.6007
  679MOL0     C93574   8.642   7.379  10.750 -1.1416  0.1321 -0.0495
  679MOL0     C93575   8.627   7.435  10.893  0.2638  0.1083 -0.1190
  679MOL0     C93576   8.583   7.319  10.985  0.3089  0.3299  0.0146
  679MOL0     C93577   8.713   7.225  11.004 -0.0422 -0.4652 -0.3707
  679MOL0     C93578   8.684   7.082  10.934 -0.3955 -0.1377 -0.4571
  679MOL0     C93579   8.610   6.993  11.031 -0.2403  0.3048 -0.2490
  679MOL0     C93580   8.635   6.842  10.996  0.0626 -0.0254 -0.3884
  679MOL0     N93581   8.515   6.753  11.010 -0.1117 -0.4777 -0.9136
  679MOL0     C93582   8.422   6.719  10.918  0.3882  0.6536  0.5908
  679MOL0     C93583   8.328   6.648  10.967  0.3956 -0.3280 -0.3478
  679MOL0     C93584   8.203   6.587  10.892  0.1349  0.5156 -0.3116
  679MOL0     C93585   8.104   6.534  10.994 -0.0092  0.8037  0.4197
  679MOL0     C93586   7.974   6.482  10.930 -0.0646  0.6522 -0.6590
  679MOL0     C93587   7.873   6.408  11.024  0.8997 -0.2960 -0.4755
  679MOL0     O93588   7.898   6.269  11.064  0.5391 -0.1200 -0.1550
  679MOL0     C93589   7.792   6.212  11.127 -0.0898 -0.2448  0.1975
  679MOL0     C93590   7.667   6.277  11.151  0.2378  0.6644  0.4870
  679MOL0     C93591   7.558   6.224  11.225 -0.6745  0.1714  0.6380
  679MOL0     C93592   7.429   6.309  11.226 -0.3653  0.2867 -0.0720
  679MOL0     C93593   7.572   6.084  11.264  0.6048  0.4603 -0.1476
  679MOL0     C93594   7.453   5.996  11.308 -0.1863 -0.1807 -0.5725
  679MOL0     O93595   7.323   6.037  11.285  0.1447  0.0323  0.0315
  679MOL0     C93596   7.204   5.961  11.309  0.6796 -0.0190  0.5912
  679MOL0     C93597   7.186   5.864  11.410 -0.1243 -0.0582 -0.1149
  679MOL0     C93598   7.074   5.792  11.420  0.4228 -0.1920 -0.0506
  679MOL0     C93599   6.969   5.820  11.333  0.1869 -0.6027 -1.2953
  679MOL0     O93600   6.849   5.748  11.341 -0.0537  0.1522  0.4715
  679MOL0     C93601   6.787   5.719  11.472  0.0179 -1.1092  0.5600
  679MOL0     C93602   6.670   5.626  11.452 -0.4297  0.8865  0.0856
  679MOL0     C93603   6.620   5.571  11.596  0.0800 -0.1753  0.1354
  679MOL0     C93604   6.722   5.475  11.654 -0.1468 -0.4523 -0.2819
  679MOL0     C93605   6.665   5.401  11.775  0.3449  0.1670  0.1135
  679MOL0     C93606   6.776   5.340  11.862 -0.8980  0.2807  1.3433
  679MOL0     C93607   6.861   5.447  11.938 -0.3235 -0.0510  0.2343
  679MOL0     C93608   6.977   5.381  12.005 -0.3032 -0.0722 -0.5428
  679MOL0    Cl93609   7.085   5.306  11.880  0.0470 -0.0801 -0.1813
  679MOL0     C93610   6.984   5.918  11.238  0.9307  0.1163  0.0810
  679MOL0     C93611   7.099   5.996  11.233 -0.3724 -0.3790  0.5098
  679MOL0     O93612   7.485   5.890  11.367  0.7336 -0.2834 -0.4544
  679MOL0     C93613   7.707   6.020  11.254  0.6719 -0.6036  0.0010
  679MOL0     C93614   7.808   6.086  11.187  0.2905  0.5746  0.6663
  679MOL0     N93615   8.363   6.640  11.102 -0.2756  0.7318  0.4939
  679MOL0     N93616   8.480   6.691  11.128 -0.8301 -0.5307  0.4927
  679MOL0     C93617   8.778   7.818  10.586  0.0835  0.7688  0.6536
  679MOL0     C93618   8.754   7.914  10.493 -0.8529  0.0022  0.3150
  679MOL0     C93619   8.586   8.168  10.150  0.0476 -0.1672 -0.4262
  679MOL0     C93620   8.671   8.271  10.156 -0.6832 -0.3370 -1.1021
  679MOL0     C93621   8.686   8.356  10.046  0.8203 -0.0981 -0.2824
  679MOL0     C93622   8.594   8.349   9.941  0.3067  1.1225 -0.0045
  679MOL0     O93623   8.587   8.457   9.853  0.4451  0.1218  0.4201
  679MOL0     C93624   8.469   8.486   9.774 -0.4139 -0.5224  0.6949
  679MOL0     C93625   8.485   8.592   9.670 -0.7521 -0.6188 -0.1327
  679MOL0     C93626   8.543   8.723   9.740  0.1835 -0.2923 -0.0774
  679MOL0     C93627   8.523   8.852   9.661  0.0175 -1.3219 -0.6068
  679MOL0     C93628   8.610   8.871   9.543  0.4448  1.2284 -0.2467
  679MOL0     C93629   8.683   8.884   9.446 -0.0110  0.3867  0.6217
  679MOL0     C93630   8.510   8.232   9.930 -1.3010  0.4955  0.4525
  679MOL0     C93631   8.504   8.141  10.039 -0.5033 -0.0888  0.0428
  679MOL0     C93632   8.393   8.047  10.020  0.7956 -0.0524 -0.1379
  679MOL0     H93633   8.605   7.749  10.244  1.5929  0.6877 -0.6938
  679MOL0     H93634   8.639   7.570  10.399  3.7131 -1.8816 -0.6377
  679MOL0     H93635   8.666   7.422  10.545 -1.4841  1.6937 -2.1296
  679MOL0     H93636   8.553   7.524  10.614  1.1679  1.4069 -1.9952
  679MOL0     H93637   8.570   7.302  10.720  0.2371 -2.1322  2.0296
  679MOL0     H93638   8.737   7.324  10.747  0.4849  2.7968 -0.7539
  679MOL0     H93639   8.722   7.484  10.916  2.0145 -1.9550 -2.3790
  679MOL0     H93640   8.542   7.504  10.892 -1.9516 -2.4531  0.2453
  679MOL0     H93641   8.567   7.361  11.084  1.6026 -0.9852  0.8265
  679MOL0     H93642   8.497   7.268  10.940  1.0173 -1.5632  0.7011
  679MOL0     H93643   8.737   7.211  11.110  0.0495  1.8519 -0.0247
  679MOL0     H93644   8.801   7.274  10.962 -1.5088  1.8499 -0.9739
  679MOL0     H93645   8.644   7.085  10.832  3.4340 -2.5126 -2.2504
  679MOL0     H93646   8.783   7.037  10.923 -0.8515 -1.2084 -0.3293
  679MOL0     H93647   8.504   7.016  11.038 -0.1794  0.3229  0.7030
  679MOL0     H93648   8.640   7.010  11.135  0.3562 -1.6223 -0.0693
  679MOL0     H93649   8.669   6.843  10.892  2.1724  1.9344  0.2527
  679MOL0     H93650   8.712   6.799  11.061 -0.2723 -2.8648 -1.7028
  679MOL0     H93651   8.424   6.758  10.817  1.1884  2.4631  1.2625
  679MOL0     H93652   8.234   6.510  10.820 -0.3824  1.1145 -1.1953
  679MOL0     H93653   8.147   6.657  10.828 -1.4538 -0.3408  0.0991
  679MOL0     H93654   8.149   6.458  11.058 -1.2249 -1.3896 -1.1889
  679MOL0     H93655   8.077   6.619  11.058 -0.9461 -0.6750  2.0653
  679MOL0     H93656   7.922   6.566  10.883 -1.3519 -0.1208 -0.6772
  679MOL0     H93657   7.998   6.427  10.839  2.4576  0.0996  0.2803
  679MOL0     H93658   7.849   6.467  11.112  0.7439 -1.3818  0.2344
  679MOL0     H93659   7.786   6.417  10.957  1.6710  3.0709 -1.1849
  679MOL0     H93660   7.655   6.379  11.116  1.1444  0.3796 -0.7331
  679MOL0     H93661   7.350   6.255  11.174  2.0318  0.8636 -4.8746
  679MOL0     H93662   7.452   6.409  11.188 -0.3968  0.7420  1.0554
  679MOL0     H93663   7.403   6.316  11.332 -3.3406 -3.5445 -0.3587
  679MOL0     H93664   7.261   5.857  11.488 -2.5377  0.8271  2.4396
  679MOL0     H93665   7.067   5.714  11.496 -1.8304 -2.4745 -2.3912
  679MOL0     H93666   6.866   5.676  11.533  1.3288  3.0682  2.1629
  679MOL0     H93667   6.754   5.807  11.528 -1.1547  0.1768 -1.9858
  679MOL0     H93668   6.586   5.669  11.397  0.0289  0.3662 -1.0477
  679MOL0     H93669   6.702   5.540  11.393  1.3002  2.3512 -1.2454
  679MOL0     H93670   6.530   5.515  11.569  1.2496 -0.8049 -2.8470
  679MOL0     H93671   6.596   5.656  11.661  3.8131  1.6456 -0.5960
  679MOL0     H93672   6.812   5.527  11.688  1.7830 -1.7448 -3.0243
  679MOL0     H93673   6.754   5.408  11.574  1.6327 -0.2417  0.2161
  679MOL0     H93674   6.615   5.476  11.838 -1.6876  0.7469 -2.0405
  679MOL0     H93675   6.586   5.331  11.748 -0.5724  0.5683  1.6280
  679MOL0     H93676   6.847   5.288  11.797  0.1479  1.9314  1.1098
  679MOL0     H93677   6.739   5.260  11.926 -0.6772 -0.6827  0.3117
  679MOL0     H93678   6.793   5.496  12.008 -0.9801  1.0125 -1.1094
  679MOL0     H93679   6.905   5.523  11.874  1.7123 -0.1432  1.4352
  679MOL0     H93680   6.948   5.296  12.068  0.9177  0.6675  1.0920
  679MOL0     H93681   7.028   5.461  12.060 -3.0777  1.8794 -0.6514
  679MOL0     H93682   6.901   5.939  11.171  1.0912  0.4260 -0.0242
  679MOL0     H93683   7.111   6.075  11.159  1.7627  0.4000  1.5885
  679MOL0     H93684   7.729   5.926  11.303 -0.1415  0.4443  2.5180
  679MOL0     H93685   7.903   6.034  11.177  0.7227  1.7438 -2.2891
  679MOL0     H93686   8.812   7.849  10.685 -1.3305 -1.1487  1.7965
  679MOL0     H93687   8.782   8.014  10.525 -0.2607  0.1727 -0.6880
  679MOL0     H93688   8.737   8.280  10.242 -0.1492 -1.0967 -1.4170
  679MOL0     H93689   8.761   8.435  10.049  1.0580 -0.3450  0.6065
  679MOL0     H93690   8.451   8.388   9.729 -1.9909 -0.0347  0.1963
  679MOL0     H93691   8.384   8.499   9.841  0.9868  3.2971  1.9685
  679MOL0     H93692   8.382   8.600   9.632 -0.8619 -0.1324  0.2493
  679MOL0     H93693   8.551   8.562   9.588 -0.9841 -0.7499 -0.2717
  679MOL0     H93694   8.489   8.740   9.833 -1.0092 -1.5054 -0.5070
  679MOL0     H93695   8.647   8.717   9.771 -1.0173 -1.7439  4.4017
  679MOL0     H93696   8.555   8.936   9.724 -3.2612 -0.4972  0.1580
  679MOL0     H93697   8.419   8.871   9.634 -1.0021  3.5590  4.7412
  679MOL0     H93698   8.749   8.885   9.362  1.6232  0.3721  1.8658
  679MOL0     H93699   8.447   8.214   9.844  0.3071  0.4626 -0.7669
  679MOL0     H93700   8.420   7.943  10.040 -2.9249 -1.1471 -0.1592
  679MOL0     H93701   8.317   8.068  10.096  1.5618  1.7983  0.1828
  679MOL0     H93702   8.342   8.051   9.923  0.3144  1.5214  0.1453
  680MOL0     O93703   4.651  10.820  10.926  0.1192 -0.1272 -0.6029
  680MOL0     C93704   4.648  10.703  10.877  0.7940 -0.5933  1.2988
  680MOL0     O93705   4.556  10.670  10.787  0.4154 -0.1973  0.0491
  680MOL0     C93706   4.505  10.783  10.711  0.6027  0.5870  0.0186
  680MOL0     C93707   4.359  10.801  10.718 -0.3873  0.0726  0.1899
  680MOL0     C93708   4.295  10.902  10.650  0.0682 -0.5376  0.2947
  680MOL0     C93709   4.377  11.000  10.590  0.3925 -0.4103 -0.0722
  680MOL0     O93710   4.314  11.116  10.537  0.4671 -0.2861 -0.1722
  680MOL0     C93711   4.245  11.082  10.415  0.6245  0.3835  0.1114
  680MOL0     C93712   4.280  11.184  10.306  0.0147 -0.1430 -1.2925
  680MOL0     C93713   4.215  11.327  10.326 -0.2492  0.0564 -0.3339
  680MOL0     C93714   4.253  11.395  10.455  0.6530  0.3637  0.7022
  680MOL0     C93715   4.245  11.547  10.432 -0.7823  0.9400  0.1651
  680MOL0     C93716   4.107  11.603  10.389 -0.6035 -0.3990  0.2032
  680MOL0     C93717   4.015  11.610  10.514 -0.8074  0.2679  0.3167
  680MOL0     C93718   3.871  11.648  10.482 -0.1435  0.1286 -0.5445
  680MOL0     N93719   3.877  11.791  10.443  0.1122  0.1724 -0.3143
  680MOL0     C93720   3.852  11.838  10.315  0.4259  0.5592 -0.4143
  680MOL0     C93721   3.845  11.975  10.342  0.2120  0.7609 -0.5354
  680MOL0     C93722   3.831  12.084  10.238  0.0091  0.1980  0.4232
  680MOL0     C93723   3.794  12.033  10.095  0.4414 -0.4635  0.2572
  680MOL0     C93724   3.643  11.976  10.069  0.5637  0.5211 -0.4086
  680MOL0     C93725   3.616  11.974   9.913 -0.5290  0.5926  0.1378
  680MOL0     O93726   3.646  12.092   9.849  0.7108 -0.4528  0.4560
  680MOL0     C93727   3.635  12.090   9.712  0.8215 -0.1085 -0.1467
  680MOL0     C93728   3.556  11.998   9.641 -0.5828  0.4641 -0.5488
  680MOL0     C93729   3.560  11.999   9.501 -0.0116  0.2684 -0.3691
  680MOL0     C93730   3.475  11.891   9.435  0.3837 -0.0202 -1.2364
  680MOL0     C93731   3.642  12.084   9.422  0.0583 -0.2551  0.2195
  680MOL0     C93732   3.647  12.079   9.276 -0.1709  0.4471 -0.3361
  680MOL0     O93733   3.746  12.166   9.229 -0.0759 -0.1720  0.3156
  680MOL0     C93734   3.751  12.201   9.094 -0.6252 -0.0106 -0.1215
  680MOL0     C93735   3.664  12.168   8.987 -0.4033  0.4176 -0.3056
  680MOL0     C93736   3.684  12.220   8.861 -0.2436  0.7391  0.6750
  680MOL0     C93737   3.780  12.322   8.841 -0.8521  0.6038 -0.5474
  680MOL0     O93738   3.780  12.371   8.719  0.5818 -0.0923  0.9159
  680MOL0     C93739   3.911  12.405   8.668  0.9349 -0.0737 -0.4467
  680MOL0     C93740   3.944  12.287   8.567  0.2702  0.5464  0.7152
  680MOL0     C93741   4.090  12.309   8.503  0.4706 -1.1527 -0.0670
  680MOL0     C93742   4.100  12.419   8.386 -0.3615  0.1486  0.7429
  680MOL0     C93743   4.024  12.378   8.263 -0.3315  0.0334 -0.2478
  680MOL0     C93744   4.043  12.482   8.147  0.7216  0.0326 -0.0684
  680MOL0     C93745   3.941  12.460   8.038 -0.4670  0.2007 -1.4577
  680MOL0     C93746   3.981  12.512   7.901 -0.2712  0.0737 -0.6914
  680MOL0    Cl93747   3.836  12.531   7.796 -0.2486  0.3323  0.0343
  680MOL0     C93748   3.867  12.355   8.947  0.8511 -0.7490 -0.6233
  680MOL0     C93749   3.848  12.300   9.071  0.3679 -0.2959  0.2655
  680MOL0     O93750   3.574  12.008   9.210  0.4839  0.1938  0.2571
  680MOL0     C93751   3.718  12.177   9.506 -0.4524  0.4946  1.4809
  680MOL0     C93752   3.710  12.179   9.645 -0.0919  0.0294 -0.0758
  680MOL0     N93753   3.875  12.007  10.476 -0.3091  0.5034  0.7819
  680MOL0     N93754   3.900  11.892  10.533 -0.3570 -0.3687 -0.1039
  680MOL0     C93755   4.517  10.992  10.596 -0.5222  0.0603 -0.2004
  680MOL0     C93756   4.584  10.878  10.646 -0.1962 -0.8407 -0.3294
  680MOL0     C93757   4.753  10.600  10.920  0.2221  0.8878  0.2588
  680MOL0     C93758   4.728  10.469  10.877 -0.2046 -0.3558 -0.3789
  680MOL0     C93759   4.817  10.369  10.883  0.0316  0.1144  0.2207
  680MOL0     C93760   4.941  10.391  10.945  0.3402  0.3344  0.2710
  680MOL0     O93761   5.019  10.284  10.960 -0.4962 -0.0117 -0.3166
  680MOL0     C93762   5.168  10.293  10.958  0.0582  0.2801  0.4920
  680MOL0     C93763   5.210  10.182  10.865  0.1090  0.1318  0.7009
  680MOL0     C93764   5.142  10.167  10.730  0.3119  0.3759  0.4713
  680MOL0     C93765   5.175  10.041  10.650  0.1387  0.2870 -0.6117
  680MOL0     C93766   5.309   9.982  10.659 -0.4185 -0.7133  0.5217
  680MOL0     C93767   5.427   9.943  10.671  0.0554 -0.3375 -0.3164
  680MOL0     C93768   4.976  10.522  10.977 -0.2176 -1.2250 -0.5493
  680MOL0     C93769   4.884  10.627  10.972  1.0438  0.1942 -0.4489
  680MOL0     C93770   4.925  10.756  11.021  0.0693 -0.4588 -0.0934
  680MOL0     H93771   4.306  10.729  10.780 -2.6924  1.2338 -0.3384
  680MOL0     H93772   4.187  10.913  10.652 -0.1083 -1.7271 -0.8858
  680MOL0     H93773   4.139  11.061  10.432  0.4779  0.0907 -1.0651
  680MOL0     H93774   4.285  10.987  10.377  0.3926  0.1021  0.5562
  680MOL0     H93775   4.388  11.193  10.292 -0.1392  2.2040 -1.3586
  680MOL0     H93776   4.254  11.145  10.207  0.7173 -4.3518  0.0044
  680MOL0     H93777   4.247  11.387  10.241  0.4568  1.1049  0.6497
  680MOL0     H93778   4.107  11.310  10.325 -0.5208  1.3956 -3.2638
  680MOL0     H93779   4.182  11.370  10.534  0.8163  0.1748  0.7913
  680MOL0     H93780   4.354  11.372  10.491  0.3028  0.2830  1.6626
  680MOL0     H93781   4.313  11.575  10.351  1.6338  1.1138  2.1400
  680MOL0     H93782   4.291  11.584  10.524  1.4169 -1.7861  0.2785
  680MOL0     H93783   4.134  11.700  10.345  3.0876 -2.1465 -1.8029
  680MOL0     H93784   4.052  11.547  10.313  0.0831 -0.9775  0.1306
  680MOL0     H93785   4.063  11.667  10.594  1.1741  1.9155 -1.8669
  680MOL0     H93786   4.020  11.509  10.553 -4.7159 -0.6114 -0.9813
  680MOL0     H93787   3.836  11.590  10.396 -0.1869  0.5167 -0.7908
  680MOL0     H93788   3.791  11.646  10.557 -0.8125  1.2728 -1.1873
  680MOL0     H93789   3.847  11.780  10.223  1.8082 -0.4395  0.0983
  680MOL0     H93790   3.932  12.127  10.232  1.0322 -1.9728  1.2149
  680MOL0     H93791   3.758  12.161  10.263 -1.4785  0.1760 -3.2318
  680MOL0     H93792   3.805  12.119  10.029  3.2073 -1.3423 -0.5765
  680MOL0     H93793   3.858  11.949  10.066  0.6377  0.3003 -1.6247
  680MOL0     H93794   3.647  11.871  10.098 -1.6761  0.4843 -0.0384
  680MOL0     H93795   3.576  12.034  10.133  0.3092 -0.5600  0.3170
  680MOL0     H93796   3.676  11.906   9.853  2.2396  4.1604 -1.5016
  680MOL0     H93797   3.512  11.954   9.887 -0.3943  1.5198 -1.2127
  680MOL0     H93798   3.493  11.930   9.698  1.8198  0.9044  2.9941
  680MOL0     H93799   3.532  11.833   9.362 -0.5287 -0.1313 -1.8680
  680MOL0     H93800   3.397  11.940   9.376  0.6000  2.2009  0.2214
  680MOL0     H93801   3.427  11.812   9.494 -1.9590  1.0297 -1.6222
  680MOL0     H93802   3.574  12.107   8.990 -1.4135  1.8806  2.0617
  680MOL0     H93803   3.628  12.192   8.772  4.3663 -3.8321 -1.2625
  680MOL0     H93804   3.915  12.497   8.608 -0.2297  1.9875  2.4484
  680MOL0     H93805   3.992  12.413   8.740  1.0731 -1.7333 -0.3721
  680MOL0     H93806   3.937  12.194   8.624 -1.3186  0.3805  0.3116
  680MOL0     H93807   3.869  12.290   8.488  0.3375  0.2400  0.6422
  680MOL0     H93808   4.128  12.215   8.463  0.8459 -0.4911 -1.3267
  680MOL0     H93809   4.160  12.326   8.585  0.3551  0.2447 -0.2334
  680MOL0     H93810   4.204  12.443   8.361 -0.8716  0.8088 -0.8482
  680MOL0     H93811   4.068  12.512   8.434 -2.5455 -0.7568  1.1434
  680MOL0     H93812   4.039  12.276   8.226  1.3993 -0.1143  0.7871
  680MOL0     H93813   3.918  12.381   8.292 -0.4906 -0.6214 -0.7438
  680MOL0     H93814   4.149  12.481   8.118  0.5148 -1.5003 -0.8490
  680MOL0     H93815   4.018  12.581   8.185 -1.1754 -1.3047  2.4774
  680MOL0     H93816   3.864  12.527   8.078  1.7015  1.7899  0.3333
  680MOL0     H93817   3.914  12.354   8.035  2.6025 -0.6645 -2.9435
  680MOL0     H93818   4.072  12.456   7.874  1.7536  2.5336  0.5879
  680MOL0     H93819   4.031  12.606   7.924 -1.6295  1.0500 -1.6288
  680MOL0     H93820   3.941  12.434   8.942 -0.9571  1.0335 -0.8101
  680MOL0     H93821   3.916  12.334   9.148 -0.8643  0.3834  1.0715
  680MOL0     H93822   3.782  12.252   9.460  0.1764 -1.3544 -0.8754
  680MOL0     H93823   3.753  12.252   9.713 -2.7307  0.2183  1.5153
  680MOL0     H93824   4.572  11.076  10.554 -0.7578  0.4767  0.3088
  680MOL0     H93825   4.692  10.877  10.655  0.1292  3.0754 -1.7777
  680MOL0     H93826   4.644  10.440  10.814  1.9526 -1.5236 -2.9473
  680MOL0     H93827   4.781  10.268  10.868  2.1075 -0.5163 -0.9141
  680MOL0     H93828   5.198  10.385  10.907  2.4278  0.4215  1.9896
  680MOL0     H93829   5.215  10.287  11.056  3.5820 -1.6164 -1.1366
  680MOL0     H93830   5.178  10.091  10.918 -3.2500  1.2771  0.8721
  680MOL0     H93831   5.317  10.183  10.843 -0.2728  1.9347 -1.3593
  680MOL0     H93832   5.033  10.175  10.735  0.4776  6.2307  3.0233
  680MOL0     H93833   5.172  10.251  10.667  1.6594 -1.3070 -1.2616
  680MOL0     H93834   5.150  10.038  10.544 -2.0845  0.5615 -0.1456
  680MOL0     H93835   5.111   9.960  10.686 -1.8654  2.0069 -0.0942
  680MOL0     H93836   5.528   9.910  10.687 -0.1411 -0.6508  0.2804
  680MOL0     H93837   5.071  10.542  11.025 -1.2301 -1.1291  1.5356
  680MOL0     H93838   5.014  10.754  11.084 -0.3773 -4.3723  0.6483
  680MOL0     H93839   4.945  10.830  10.943  0.2368  0.6924  1.0137
  680MOL0     H93840   4.843  10.788  11.085 -0.7715  1.5512 -2.0393
  681MOL0     O93841   1.115   4.570   9.985 -0.0536 -0.3184 -0.9384
  681MOL0     C93842   1.187   4.474   9.986  0.1072  0.9137 -0.4824
  681MOL0     O93843   1.187   4.382  10.089 -0.3446 -0.2208  0.0954
  681MOL0     C93844   1.136   4.423  10.210  0.2526 -0.0288  0.2561
  681MOL0     C93845   1.008   4.375  10.243 -0.1515 -0.9431 -0.4185
  681MOL0     C93846   0.960   4.393  10.369  0.2408 -0.4342 -0.9505
  681MOL0     C93847   1.042   4.448  10.474  0.3844 -0.0233  0.3418
  681MOL0     O93848   0.988   4.474  10.599  0.1149 -0.5649 -0.2515
  681MOL0     C93849   0.864   4.421  10.652  0.2057  0.4518 -0.9883
  681MOL0     C93850   0.859   4.275  10.672 -0.2472 -0.4116 -0.8398
  681MOL0     C93851   0.741   4.235  10.768 -0.6309 -0.3259  0.1339
  681MOL0     C93852   0.774   4.262  10.917 -0.6578 -0.3509  0.8532
  681MOL0     C93853   0.680   4.201  11.020 -0.1348  0.3401 -0.6462
  681MOL0     C93854   0.735   4.223  11.163  0.6786  0.1646 -0.8093
  681MOL0     C93855   0.659   4.140  11.261  0.0841 -0.0269  0.1075
  681MOL0     C93856   0.731   4.163  11.400  0.3942  0.2674 -0.3183
  681MOL0     N93857   0.700   4.282  11.469 -0.5477 -0.5935 -0.4972
  681MOL0     C93858   0.614   4.384  11.420 -0.2429  0.0752  0.1612
  681MOL0     C93859   0.684   4.503  11.443  0.8478  1.0177 -0.0424
  681MOL0     C93860   0.640   4.654  11.407  0.2533  0.1366 -0.6037
  681MOL0     C93861   0.530   4.704  11.501 -0.0914 -0.1582  0.2574
  681MOL0     C93862   0.486   4.846  11.457 -0.3043 -0.2526 -0.0655
  681MOL0     C93863   0.549   4.950  11.547 -0.1397  0.0243 -0.4237
  681MOL0     O93864   0.692   4.952  11.525 -1.0482  0.1974 -0.9002
  681MOL0     C93865   0.776   4.996  11.625  0.0940  0.3309 -0.0462
  681MOL0     C93866   0.730   5.080  11.734  0.2907  0.0580  0.7240
  681MOL0     C93867   0.831   5.127  11.828  0.3890 -0.2176  0.0483
  681MOL0     C93868   0.778   5.228  11.926  0.3966 -0.0254  0.7647
  681MOL0     C93869   0.966   5.077  11.825  0.0226  1.1054 -0.3895
  681MOL0     C93870   1.066   5.100  11.937  0.2078 -0.5322  0.2151
  681MOL0     O93871   1.068   5.226  11.993  0.1254 -0.1682 -0.1028
  681MOL0     C93872   1.175   5.266  12.070  0.5987  0.1789 -0.2343
  681MOL0     C93873   1.231   5.179  12.163 -0.1714 -0.2573 -1.1209
  681MOL0     C93874   1.345   5.221  12.241  0.2917 -0.7869  0.5074
  681MOL0     C93875   1.390   5.350  12.219 -0.3421 -0.6653  0.1780
  681MOL0     O93876   1.493   5.398  12.303  0.0358  0.4347 -0.9376
  681MOL0     C93877   1.454   5.478  12.425 -0.1842  0.2022  0.2683
  681MOL0     C93878   1.563   5.493  12.532 -0.0889 -0.5646  0.0065
  681MOL0     C93879   1.515   5.554  12.674 -0.0514  0.0032  0.3765
  681MOL0     C93880   1.607   5.492  12.779 -0.4747  0.2321 -0.1675
  681MOL0     C93881   1.621   5.331  12.792  0.5966 -0.3386  0.3067
  681MOL0     C93882   1.491   5.254  12.795  0.5701 -0.1657  0.2293
  681MOL0     C93883   1.460   5.154  12.682 -0.1042  0.6227 -1.3922
  681MOL0     C93884   1.364   5.036  12.719 -0.0309 -0.8476  0.2364
  681MOL0    Cl93885   1.202   5.086  12.774 -0.7021  0.1441 -0.2320
  681MOL0     C93886   1.343   5.426  12.113 -0.4942 -0.3987 -0.8482
  681MOL0     C93887   1.232   5.389  12.044  0.4376  0.1837 -0.7232
  681MOL0     O93888   1.138   5.001  11.969  0.1420 -0.4101 -0.3280
  681MOL0     C93889   1.006   4.987  11.717 -0.0148 -1.4786 -0.4655
  681MOL0     C93890   0.913   4.959  11.626  0.5556 -0.1348  0.1426
  681MOL0     N93891   0.799   4.473  11.511  0.2000 -0.5116 -0.2641
  681MOL0     N93892   0.811   4.344  11.528  0.1890 -0.5122  0.3744
  681MOL0     C93893   1.179   4.488  10.442 -0.1261 -0.1161  0.4368
  681MOL0     C93894   1.218   4.484  10.309 -0.2327  0.5729 -0.5602
  681MOL0     C93895   1.251   4.438   9.850 -0.6984 -0.3681 -0.5827
  681MOL0     C93896   1.288   4.312   9.807  0.8320  0.2360  0.5949
  681MOL0     C93897   1.325   4.274   9.680 -0.4140 -0.4083  0.2841
  681MOL0     C93898   1.373   4.386   9.602  0.0608  0.2254  0.3553
  681MOL0     O93899   1.440   4.349   9.489 -0.1623 -0.2325  0.1191
  681MOL0     C93900   1.375   4.416   9.378  0.3933  0.6378  0.1584
  681MOL0     C93901   1.439   4.364   9.256  0.3944 -0.3718  0.4835
  681MOL0     C93902   1.382   4.454   9.143  0.5396  0.3702  0.6298
  681MOL0     C93903   1.434   4.407   9.006 -0.3840  0.1580 -0.0307
  681MOL0     C93904   1.359   4.467   8.893 -0.2387  0.0618 -0.0380
  681MOL0     C93905   1.306   4.527   8.796 -0.4518  0.4928  0.3512
  681MOL0     C93906   1.362   4.517   9.649  0.4078  0.7576  0.0564
  681MOL0     C93907   1.305   4.544   9.770  0.4224 -0.0871 -0.1792
  681MOL0     C93908   1.313   4.686   9.819 -0.1188  0.1790  0.5308
  681MOL0     H93909   0.955   4.323  10.164  1.1005  0.1223 -2.0255
  681MOL0     H93910   0.856   4.365  10.379 -0.6178  1.4531 -3.4346
  681MOL0     H93911   0.786   4.451  10.582 -1.2618  1.7920  1.1098
  681MOL0     H93912   0.845   4.472  10.747 -1.6473  1.2769 -1.7575
  681MOL0     H93913   0.843   4.232  10.573  1.7311  3.6879 -3.2421
  681MOL0     H93914   0.952   4.234  10.714  0.6684  2.9538  0.8566
  681MOL0     H93915   0.652   4.295  10.748  1.7025  3.3938  0.0302
  681MOL0     H93916   0.726   4.127  10.757  1.2808 -0.7661  1.3198
  681MOL0     H93917   0.855   4.190  10.929  1.0231  1.4314  0.7404
  681MOL0     H93918   0.812   4.361  10.943 -0.3191  0.0336 -0.9534
  681MOL0     H93919   0.683   4.095  10.997  2.3204  0.6933 -2.2615
  681MOL0     H93920   0.579   4.241  11.006  0.2047  2.1556  1.3961
  681MOL0     H93921   0.844   4.213  11.170  1.0041  0.8049 -3.5967
  681MOL0     H93922   0.713   4.328  11.188  3.6818  0.7265 -0.0822
  681MOL0     H93923   0.648   4.034  11.237 -0.0479 -0.5924  2.3749
  681MOL0     H93924   0.557   4.180  11.260 -0.2737 -0.9509 -0.5850
  681MOL0     H93925   0.716   4.075  11.462  2.5714 -2.2040 -3.0098
  681MOL0     H93926   0.839   4.160  11.383  0.9313 -1.3301  2.7233
  681MOL0     H93927   0.509   4.383  11.394 -0.4998 -1.0648  1.1208
  681MOL0     H93928   0.603   4.660  11.304  0.8537  1.8399 -0.7429
  681MOL0     H93929   0.736   4.705  11.422  1.2085 -1.8250  0.4664
  681MOL0     H93930   0.444   4.637  11.510 -0.4194  0.0245 -1.2175
  681MOL0     H93931   0.567   4.696  11.603 -2.6880 -0.5401  1.2453
  681MOL0     H93932   0.514   4.860  11.352  0.0728 -0.0773  0.0572
  681MOL0     H93933   0.378   4.862  11.461 -0.6267 -1.8179 -1.1370
  681MOL0     H93934   0.511   5.049  11.518  2.3581  0.9321 -0.9226
  681MOL0     H93935   0.519   4.927  11.650 -2.9321 -1.6580 -1.5276
  681MOL0     H93936   0.628   5.118  11.728  1.7198  4.5226  0.8133
  681MOL0     H93937   0.762   5.317  11.865  0.4792 -1.7994 -2.0640
  681MOL0     H93938   0.833   5.258  12.015 -0.0889 -2.6364  2.0586
  681MOL0     H93939   0.675   5.203  11.955 -0.1764 -0.3547 -1.3526
  681MOL0     H93940   1.195   5.079  12.188  2.7391 -0.4445  3.6536
  681MOL0     H93941   1.395   5.159  12.314 -0.4478 -1.0775  0.7717
  681MOL0     H93942   1.398   5.568  12.400 -2.7957 -0.9182  1.7693
  681MOL0     H93943   1.382   5.411  12.472  1.9459 -3.1246 -0.8257
  681MOL0     H93944   1.597   5.390  12.546  1.9978 -0.1483 -1.5110
  681MOL0     H93945   1.651   5.537  12.483 -0.2432 -1.7500 -1.4087
  681MOL0     H93946   1.408   5.540  12.691 -0.6542  1.0741 -2.0147
  681MOL0     H93947   1.530   5.662  12.680  3.1439 -0.3465  0.2952
  681MOL0     H93948   1.573   5.512  12.881  0.3091 -2.7900  0.8000
  681MOL0     H93949   1.707   5.536  12.773 -0.1372 -0.4874  0.0187
  681MOL0     H93950   1.693   5.278  12.728  1.0003 -0.1742  0.6222
  681MOL0     H93951   1.664   5.319  12.892 -0.5992  1.1361  1.0364
  681MOL0     H93952   1.409   5.325  12.797  1.6722  1.2414  3.7013
  681MOL0     H93953   1.481   5.193  12.886 -5.3411 -0.7517 -0.4512
  681MOL0     H93954   1.553   5.113  12.643 -0.1592  0.1355 -1.0172
  681MOL0     H93955   1.414   5.218  12.606  0.2439  1.4035 -0.9576
  681MOL0     H93956   1.399   4.975  12.803 -1.3305  4.4143  5.2104
  681MOL0     H93957   1.358   4.976  12.627  2.0297 -0.6411 -0.0895
  681MOL0     H93958   1.382   5.524  12.087  0.1491  0.7262  3.5220
  681MOL0     H93959   1.192   5.450  11.963 -0.6659  0.9021  0.3166
  681MOL0     H93960   1.110   4.957  11.726  0.5883  0.3051 -0.8888
  681MOL0     H93961   0.932   4.882  11.552  0.8411  0.7877 -0.7828
  681MOL0     H93962   1.239   4.538  10.517 -1.2739  3.0634 -0.5852
  681MOL0     H93963   1.320   4.512  10.285  0.5602 -1.6027  0.0555
  681MOL0     H93964   1.268   4.235   9.882 -0.3696  1.4968  1.6295
  681MOL0     H93965   1.331   4.169   9.651 -0.3466 -1.1756  2.7863
  681MOL0     H93966   1.266   4.405   9.373  0.1861  2.8018 -1.5289
  681MOL0     H93967   1.396   4.523   9.387  1.3295  0.5220 -0.4498
  681MOL0     H93968   1.443   4.257   9.237  1.5692 -1.2543  4.8257
  681MOL0     H93969   1.544   4.391   9.267  0.0912 -0.1725  4.0077
  681MOL0     H93970   1.275   4.447   9.125  0.6379 -0.1924  0.2226
  681MOL0     H93971   1.412   4.558   9.157  1.1734 -0.0715  2.9659
  681MOL0     H93972   1.421   4.298   9.007  0.1767  0.0880 -0.0138
  681MOL0     H93973   1.541   4.426   8.996 -0.3258 -0.2883 -0.3210
  681MOL0     H93974   1.269   4.581   8.711 -0.6759 -0.1974 -0.0040
  681MOL0     H93975   1.405   4.601   9.597 -1.8748  1.0278 -1.5579
  681MOL0     H93976   1.354   4.683   9.920  2.2666  0.3968 -0.3587
  681MOL0     H93977   1.392   4.727   9.756 -0.1037 -2.1982 -1.1465
  681MOL0     H93978   1.218   4.738   9.805  1.1849  2.1666 -1.8792
  682MOL0     O93979   9.025   7.404   4.568 -1.1859  0.2581  0.5477
  682MOL0     C93980   9.025   7.510   4.622  0.3780  0.4479 -1.3059
  682MOL0     O93981   8.952   7.617   4.579 -0.8319  0.1642 -0.0092
  682MOL0     C93982   8.899   7.636   4.445 -0.8807  0.7191 -0.1509
  682MOL0     C93983   8.805   7.732   4.414 -0.6068  0.0674 -0.3805
  682MOL0     C93984   8.769   7.770   4.287  0.4411  0.0729  1.6519
  682MOL0     C93985   8.808   7.695   4.180  0.0907 -0.4490  0.6936
  682MOL0     O93986   8.757   7.739   4.055  0.2901 -0.2948 -0.5609
  682MOL0     C93987   8.819   7.687   3.938 -0.9156 -0.1238 -0.7773
  682MOL0     C93988   8.722   7.731   3.836  0.2230 -0.6915 -0.1029
  682MOL0     C93989   8.784   7.703   3.702  0.1533  0.0799 -0.5082
  682MOL0     C93990   8.824   7.556   3.661  0.0865 -1.0664 -0.3337
  682MOL0     C93991   8.700   7.473   3.626 -0.6685  0.0420 -0.5276
  682MOL0     C93992   8.747   7.334   3.585 -0.1876 -0.3709  0.5385
  682MOL0     C93993   8.627   7.241   3.562 -1.1132 -0.6268 -0.4990
  682MOL0     C93994   8.578   7.172   3.691 -0.1502 -0.5051  0.3712
  682MOL0     N93995   8.496   7.061   3.662 -0.0509  0.8088  0.2651
  682MOL0     C93996   8.372   7.060   3.606 -0.3882  0.9399 -0.5632
  682MOL0     C93997   8.348   6.934   3.559 -0.4691  0.0069 -1.5028
  682MOL0     C93998   8.223   6.880   3.490 -0.0432  0.0260  0.0408
  682MOL0     C93999   8.227   6.923   3.332 -0.9900  0.6332  1.2493
  682MOL0     C94000   8.313   6.834   3.240 -0.3705 -0.1887  1.0725
  682MOL0     C94001   8.242   6.696   3.215 -0.0670 -0.7986  0.0084
  682MOL0     O94002   8.130   6.722   3.127  0.1244 -0.1416 -0.2829
  682MOL0     C94003   8.078   6.633   3.037  0.1357  0.1412 -0.2129
  682MOL0     C94004   8.078   6.498   3.069  0.6953  0.0405 -0.4723
  682MOL0     C94005   8.008   6.402   2.993  0.4373 -0.5516 -0.5531
  682MOL0     C94006   8.008   6.257   3.030  0.5058 -0.3105 -0.4873
  682MOL0     C94007   7.953   6.449   2.866  0.1662 -0.5501 -0.3536
  682MOL0     C94008   7.897   6.362   2.759 -0.1345 -0.4203 -0.2204
  682MOL0     O94009   7.908   6.412   2.635 -0.0369 -0.4666 -0.4145
  682MOL0     C94010   7.863   6.333   2.534 -0.6235 -0.1624  0.4718
  682MOL0     C94011   7.947   6.242   2.472 -0.1296 -1.0685 -0.3062
  682MOL0     C94012   7.906   6.190   2.346 -0.1957 -0.9961 -0.1676
  682MOL0     C94013   7.777   6.220   2.285 -0.3391  0.3858  0.2742
  682MOL0     O94014   7.741   6.180   2.163  0.1194 -0.1234  0.0741
  682MOL0     C94015   7.815   6.231   2.049  0.1205  0.5738 -0.1249
  682MOL0     C94016   7.924   6.138   1.998 -0.2527 -0.0426 -0.6452
  682MOL0     C94017   7.878   5.992   1.985 -0.3058 -0.7903  0.2293
  682MOL0     C94018   7.988   5.906   1.926  0.2108 -0.4960  0.1764
  682MOL0     C94019   7.933   5.759   1.896 -0.3043 -0.3439 -0.5132
  682MOL0     C94020   7.912   5.697   2.035 -0.3722  0.5302  0.3466
  682MOL0     C94021   7.854   5.552   2.023  0.5509  0.5682  0.5781
  682MOL0     C94022   7.801   5.508   2.153 -0.3282 -1.3772 -0.1557
  682MOL0    Cl94023   7.649   5.598   2.191 -0.1814 -0.6086 -0.2645
  682MOL0     C94024   7.696   6.313   2.350 -0.1022  0.6026 -0.4589
  682MOL0     C94025   7.742   6.358   2.475  0.2315 -0.1803  0.2802
  682MOL0     O94026   7.849   6.250   2.785  0.6655 -0.4904  0.5203
  682MOL0     C94027   7.965   6.591   2.832 -0.6227  0.1876  0.1420
  682MOL0     C94028   8.015   6.688   2.917 -0.2609 -0.4296 -0.5755
  682MOL0     N94029   8.463   6.857   3.592 -0.8943  0.5529 -0.4962
  682MOL0     N94030   8.550   6.933   3.654  0.6847  0.0075  1.1542
  682MOL0     C94031   8.900   7.588   4.196 -0.2573 -0.6603  0.0236
  682MOL0     C94032   8.943   7.566   4.333 -0.7614 -0.1324 -0.4060
  682MOL0     C94033   9.092   7.527   4.752 -0.8355 -0.4663  0.0704
  682MOL0     C94034   9.124   7.660   4.788  0.9328 -0.7551  0.3692
  682MOL0     C94035   9.210   7.683   4.893  0.7242  0.0530 -0.2778
  682MOL0     C94036   9.263   7.574   4.971  0.3829  0.0941 -1.2093
  682MOL0     O94037   9.340   7.595   5.082 -0.4839  0.2665  0.2590
  682MOL0     C94038   9.416   7.711   5.111 -0.3822  0.0269  0.3401
  682MOL0     C94039   9.479   7.674   5.240 -0.0646  0.6360 -0.6929
  682MOL0     C94040   9.578   7.776   5.296 -0.2614  1.1301  0.4442
  682MOL0     C94041   9.699   7.712   5.358  0.2302 -0.3169  0.0575
  682MOL0     C94042   9.791   7.811   5.409  0.8961 -0.9438 -1.0613
  682MOL0     C94043   9.872   7.854   5.490  0.4757 -0.1908 -0.1443
  682MOL0     C94044   9.221   7.448   4.940 -0.9876  0.0487  0.3658
  682MOL0     C94045   9.133   7.421   4.832  0.2418  0.0699 -0.4217
  682MOL0     C94046   9.104   7.275   4.801 -0.6130 -0.7758 -1.3183
  682MOL0     H94047   8.778   7.790   4.501  1.0465 -1.4480  1.2322
  682MOL0     H94048   8.688   7.840   4.270  0.8178  0.2152  0.3256
  682MOL0     H94049   8.832   7.579   3.950  1.1525  0.2037  0.4039
  682MOL0     H94050   8.919   7.728   3.916  0.1412 -1.7993  0.6751
  682MOL0     H94051   8.629   7.674   3.844 -0.9627  0.8587 -2.0122
  682MOL0     H94052   8.706   7.839   3.836  0.3532 -0.6721 -0.4401
  682MOL0     H94053   8.712   7.738   3.627  2.2440  4.9639 -0.6305
  682MOL0     H94054   8.870   7.768   3.683  1.5594 -1.5233  0.1365
  682MOL0     H94055   8.889   7.576   3.576  1.7951  0.4037  1.2152
  682MOL0     H94056   8.883   7.510   3.741  1.0588  0.8355  0.0981
  682MOL0     H94057   8.637   7.510   3.545  0.4326 -0.4937 -1.6680
  682MOL0     H94058   8.631   7.476   3.711 -1.3698 -1.6919 -1.0015
  682MOL0     H94059   8.791   7.346   3.486 -0.8171 -0.7713  0.2023
  682MOL0     H94060   8.821   7.295   3.655  1.2673 -0.4361 -0.9681
  682MOL0     H94061   8.642   7.165   3.484  0.0072 -0.1614 -0.7504
  682MOL0     H94062   8.545   7.305   3.527 -0.1627  0.8314 -0.1396
  682MOL0     H94063   8.656   7.143   3.762 -0.7244 -0.8787  0.8681
  682MOL0     H94064   8.507   7.235   3.745 -1.9817 -1.4901 -0.7745
  682MOL0     H94065   8.299   7.140   3.607  0.1678  1.4761 -1.6694
  682MOL0     H94066   8.130   6.906   3.541  0.3179 -0.0045  0.7257
  682MOL0     H94067   8.223   6.771   3.497 -0.3889  0.0153 -0.0861
  682MOL0     H94068   8.124   6.930   3.296 -0.8461  2.9000  1.1832
  682MOL0     H94069   8.262   7.025   3.317 -0.2027  0.5689  2.4607
  682MOL0     H94070   8.347   6.878   3.145  3.0059  0.6002  2.4881
  682MOL0     H94071   8.408   6.815   3.291 -0.5664 -0.6292  1.2784
  682MOL0     H94072   8.319   6.645   3.157  1.6888  2.2588 -0.5807
  682MOL0     H94073   8.197   6.648   3.302 -0.6227  0.4871  0.4508
  682MOL0     H94074   8.114   6.461   3.165 -0.2913  3.5376  1.4205
  682MOL0     H94075   8.047   6.189   2.953 -1.9311 -4.2606  1.4342
  682MOL0     H94076   7.903   6.231   3.047  0.0352  0.9869 -1.2679
  682MOL0     H94077   8.067   6.252   3.122  0.8380 -0.8772 -0.7264
  682MOL0     H94078   8.047   6.213   2.501 -0.8483 -4.8756 -1.1340
  682MOL0     H94079   7.974   6.126   2.292  0.4009 -0.0147 -0.5943
  682MOL0     H94080   7.737   6.237   1.972 -0.8785 -1.3550  0.6711
  682MOL0     H94081   7.853   6.333   2.064  1.5644 -0.1619  1.4725
  682MOL0     H94082   7.974   6.164   1.904  1.8725  3.2894  1.2200
  682MOL0     H94083   7.996   6.141   2.081 -2.0977 -2.3413  1.1747
  682MOL0     H94084   7.800   5.993   1.909 -1.2170  2.7690  1.0096
  682MOL0     H94085   7.836   5.955   2.079  3.7704  1.3406  3.2147
  682MOL0     H94086   8.077   5.897   1.990  1.7727  2.4058 -1.3823
  682MOL0     H94087   8.016   5.943   1.827 -4.6188 -0.6731 -1.5201
  682MOL0     H94088   7.834   5.771   1.851 -0.4037  1.0897  0.0255
  682MOL0     H94089   7.996   5.695   1.834  1.9327 -0.7203  1.9872
  682MOL0     H94090   7.836   5.743   2.098 -0.1542 -0.9155  1.7022
  682MOL0     H94091   8.001   5.704   2.099 -1.0741  0.8420  1.3081
  682MOL0     H94092   7.930   5.475   2.005  1.5601  1.5134  0.6678
  682MOL0     H94093   7.778   5.555   1.944  0.3661 -1.4872  0.6235
  682MOL0     H94094   7.873   5.534   2.231  1.5017 -4.3164 -0.7324
  682MOL0     H94095   7.779   5.401   2.155  0.7451 -1.5923  0.6903
  682MOL0     H94096   7.613   6.359   2.296 -0.7892 -0.7218 -0.5591
  682MOL0     H94097   7.679   6.434   2.520  0.3329 -1.1965  2.2313
  682MOL0     H94098   7.926   6.618   2.735  0.9488 -2.0419 -1.2021
  682MOL0     H94099   8.013   6.793   2.890  1.8288 -0.1616  0.1434
  682MOL0     H94100   8.936   7.522   4.117  0.2434 -2.1057  1.3965
  682MOL0     H94101   9.013   7.484   4.336 -0.7684 -0.1180  2.2051
  682MOL0     H94102   9.094   7.748   4.733  2.2675  0.7452  1.9619
  682MOL0     H94103   9.226   7.785   4.925 -1.5774  0.2169  0.5458
  682MOL0     H94104   9.493   7.731   5.036 -1.7014 -1.9328 -1.6525
  682MOL0     H94105   9.345   7.793   5.124  1.2437  1.3741  1.0410
  682MOL0     H94106   9.542   7.585   5.227  3.6007  3.2588 -3.0488
  682MOL0     H94107   9.405   7.653   5.317  0.7456 -1.7218 -0.4562
  682MOL0     H94108   9.602   7.842   5.212  1.8612  1.3387  1.1688
  682MOL0     H94109   9.528   7.833   5.375  1.8841  1.5377  1.5741
  682MOL0     H94110   9.752   7.647   5.287  1.4786  0.2697  0.4311
  682MOL0     H94111   9.673   7.648   5.442 -0.4461  1.2055  1.0425
  682MOL0     H94112   9.920   7.918   5.561  1.2085  1.1333 -1.7519
  682MOL0     H94113   9.257   7.372   5.009 -3.6298 -1.2638  0.4239
  682MOL0     H94114   9.175   7.233   4.730  2.6035  3.5901 -1.0814
  682MOL0     H94115   9.123   7.212   4.888  1.3174  2.6365  0.9301
  682MOL0     H94116   8.997   7.265   4.779 -1.3084 -0.8109  1.6711
  683MOL0     O94117   1.085   8.549   4.892  0.6568  0.0365  0.1407
  683MOL0     C94118   1.009   8.601   4.803  0.7651 -0.1122  0.1558
  683MOL0     O94119   0.960   8.541   4.691  0.4388 -0.1463 -0.6578
  683MOL0     C94120   0.992   8.413   4.651  0.0682  0.5666  0.2552
  683MOL0     C94121   0.937   8.375   4.528  0.2218  0.1522  0.4282
  683MOL0     C94122   0.961   8.243   4.480 -0.4702  0.2361 -0.2180
  683MOL0     C94123   1.040   8.149   4.544  0.6057  0.2952 -0.6401
  683MOL0     O94124   1.066   8.025   4.485 -0.2669 -0.4936  0.6800
  683MOL0     C94125   1.110   7.918   4.567 -0.1239 -0.3225  0.3220
  683MOL0     C94126   1.223   7.836   4.516 -0.1614  0.1558 -0.0398
  683MOL0     C94127   1.365   7.907   4.541 -0.2789 -0.8032 -0.1657
  683MOL0     C94128   1.482   7.832   4.503  0.6541  0.1224 -0.4018
  683MOL0     C94129   1.517   7.853   4.346  0.1425  0.8178 -0.3340
  683MOL0     C94130   1.660   7.798   4.301 -0.2682  0.2793  0.3317
  683MOL0     C94131   1.682   7.817   4.152 -0.1944  0.1069  0.2782
  683MOL0     C94132   1.672   7.955   4.089  0.0512 -0.6818 -0.0047
  683MOL0     N94133   1.761   8.056   4.151 -0.5513 -0.9245 -0.4704
  683MOL0     C94134   1.894   8.040   4.169 -0.2688 -0.3509 -0.8976
  683MOL0     C94135   1.925   8.130   4.272  0.0698  0.2984  0.0518
  683MOL0     C94136   2.056   8.134   4.350 -0.4241  0.5912  0.4514
  683MOL0     C94137   2.167   8.231   4.294  0.8823 -0.7541 -0.1305
  683MOL0     C94138   2.279   8.266   4.388  0.4011  0.2719  0.0678
  683MOL0     C94139   2.334   8.156   4.465 -0.0260 -0.0274 -0.1944
  683MOL0     O94140   2.366   8.041   4.383 -0.1508 -0.6240  0.4216
  683MOL0     C94141   2.424   7.929   4.428 -0.3838  1.0762  0.1647
  683MOL0     C94142   2.470   7.840   4.327 -0.1243  0.1449  0.1111
  683MOL0     C94143   2.536   7.719   4.369  0.6428 -0.7812  0.4960
  683MOL0     C94144   2.581   7.631   4.268  0.6184 -0.3010 -0.7109
  683MOL0     C94145   2.549   7.687   4.507  0.7884 -0.7519 -0.9421
  683MOL0     C94146   2.619   7.569   4.564  0.0383 -0.0083 -0.0797
  683MOL0     O94147   2.752   7.553   4.516  0.8777  0.2247 -0.6573
  683MOL0     C94148   2.813   7.437   4.567  0.2485 -0.8214  0.2314
  683MOL0     C94149   2.913   7.443   4.657  0.0964  0.1942 -0.5242
  683MOL0     C94150   2.993   7.330   4.694 -0.2598 -0.2824 -0.7707
  683MOL0     C94151   2.962   7.211   4.646 -0.2522  0.7578  0.2406
  683MOL0     O94152   3.053   7.110   4.682 -0.2589 -0.3118 -1.1190
  683MOL0     C94153   3.158   7.086   4.588 -0.2574  0.3168  0.1464
  683MOL0     C94154   3.264   6.995   4.653  0.0669  0.3419 -0.3464
  683MOL0     C94155   3.202   6.860   4.695 -0.4575  0.0115  0.5119
  683MOL0     C94156   3.315   6.785   4.773  0.7689  0.3186 -0.0758
  683MOL0     C94157   3.411   6.720   4.676 -0.8091 -0.2832 -0.0074
  683MOL0     C94158   3.359   6.609   4.581 -0.8131 -0.0548  0.5017
  683MOL0     C94159   3.333   6.490   4.657  0.7678  0.1282 -1.2708
  683MOL0     C94160   3.311   6.363   4.574 -0.7246  0.1445  0.6296
  683MOL0    Cl94161   3.148   6.356   4.490  1.1117 -0.1152 -0.1760
  683MOL0     C94162   2.846   7.201   4.564 -0.4122  0.3275 -0.0028
  683MOL0     C94163   2.770   7.317   4.514 -0.5506 -0.9919  0.2269
  683MOL0     O94164   2.572   7.503   4.648  0.1808  0.5231 -0.5141
  683MOL0     C94165   2.501   7.776   4.601  0.5104 -0.3667  0.6342
  683MOL0     C94166   2.439   7.892   4.557  0.4802 -0.2238 -0.4927
  683MOL0     N94167   1.812   8.191   4.319 -0.7285 -0.0780  0.5880
  683MOL0     N94168   1.714   8.150   4.242 -1.0020  0.0166  0.4242
  683MOL0     C94169   1.102   8.194   4.667 -0.1668  0.1389  0.5176
  683MOL0     C94170   1.091   8.327   4.709 -0.3255 -0.1739 -0.7977
  683MOL0     C94171   0.997   8.749   4.811  0.2992  0.0165  0.3717
  683MOL0     C94172   1.019   8.836   4.702 -0.3457  0.1323  0.6492
  683MOL0     C94173   1.007   8.967   4.713 -0.2258 -0.6638  0.1040
  683MOL0     C94174   0.979   9.033   4.835  1.0908  0.1994 -0.2438
  683MOL0     O94175   0.961   9.168   4.820 -0.1160  0.1280  0.3182
  683MOL0     C94176   0.984   9.255   4.934 -0.0834  0.4514  0.4401
  683MOL0     C94177   1.116   9.314   4.923 -0.0556  0.0873 -0.3621
  683MOL0     C94178   1.228   9.218   4.966 -0.7666 -0.8000 -0.5661
  683MOL0     C94179   1.367   9.289   4.956  0.7311  0.2224  0.0867
  683MOL0     C94180   1.386   9.372   5.083 -0.3459  0.3771 -0.2924
  683MOL0     C94181   1.411   9.425   5.187 -0.0132 -0.0302  0.0588
  683MOL0     C94182   0.948   8.948   4.945  0.7983  0.1825 -0.5292
  683MOL0     C94183   0.967   8.807   4.938 -0.1494 -0.5959  0.6733
  683MOL0     C94184   0.956   8.733   5.075  0.2302  0.5658 -0.3074
  683MOL0     H94185   0.874   8.452   4.486  1.4695  0.7991 -0.3214
  683MOL0     H94186   0.918   8.219   4.383 -0.3805 -0.5714 -0.0642
  683MOL0     H94187   1.028   7.850   4.592  0.4198 -0.3955  2.0378
  683MOL0     H94188   1.134   7.953   4.668 -0.0186  1.0746 -0.1742
  683MOL0     H94189   1.224   7.736   4.561 -2.0810 -0.0123 -0.2969
  683MOL0     H94190   1.213   7.803   4.412 -3.5428  2.9539 -0.7991
  683MOL0     H94191   1.363   7.995   4.475 -0.7111  0.9681  2.1030
  683MOL0     H94192   1.363   7.940   4.645  2.3096  0.3888 -0.4145
  683MOL0     H94193   1.570   7.877   4.551 -0.3932  1.1124  0.6383
  683MOL0     H94194   1.468   7.725   4.519  2.0481  0.0697  0.6766
  683MOL0     H94195   1.515   7.959   4.322  0.9214  1.1032  0.7758
  683MOL0     H94196   1.434   7.817   4.285  0.5418 -0.5393 -0.1148
  683MOL0     H94197   1.728   7.854   4.366  2.1822  0.3347 -2.0914
  683MOL0     H94198   1.661   7.691   4.324 -3.3754 -0.1580 -1.0652
  683MOL0     H94199   1.597   7.760   4.111 -0.6335 -1.4111  3.0536
  683MOL0     H94200   1.776   7.772   4.119 -1.0985 -0.0739 -2.2778
  683MOL0     H94201   1.700   7.952   3.983 -2.0916  2.6356 -0.8248
  683MOL0     H94202   1.567   7.987   4.091  0.0609 -0.5674 -0.8972
  683MOL0     H94203   1.958   7.968   4.120  0.5611 -1.1589  1.2616
  683MOL0     H94204   2.090   8.031   4.367  0.6101  0.9743  0.8010
  683MOL0     H94205   2.022   8.173   4.446  1.3473  5.0827 -0.5021
  683MOL0     H94206   2.220   8.178   4.214  0.7023 -1.0115 -0.0798
  683MOL0     H94207   2.113   8.321   4.264  0.9197 -0.0645  1.7144
  683MOL0     H94208   2.359   8.315   4.332  1.3722 -0.5510  0.7002
  683MOL0     H94209   2.252   8.330   4.473  2.2590  0.3668  0.6430
  683MOL0     H94210   2.426   8.181   4.520 -1.0195 -2.3530  2.8180
  683MOL0     H94211   2.251   8.119   4.525 -0.5059  2.4024  0.7393
  683MOL0     H94212   2.462   7.877   4.225 -1.6457  2.9531  1.1402
  683MOL0     H94213   2.541   7.531   4.288  1.3774 -0.2749  1.1283
  683MOL0     H94214   2.691   7.626   4.268  0.7244 -0.8800  3.3253
  683MOL0     H94215   2.543   7.654   4.168  2.7803  2.2778 -1.0727
  683MOL0     H94216   2.953   7.539   4.689  2.3869  0.1000 -2.7931
  683MOL0     H94217   3.075   7.344   4.764 -2.3439  1.0250  1.5961
  683MOL0     H94218   3.122   7.044   4.494  0.1592  0.3132 -0.0104
  683MOL0     H94219   3.205   7.182   4.568  3.6597 -0.6366  3.4829
  683MOL0     H94220   3.347   6.992   4.581 -0.9006 -1.3469 -1.4679
  683MOL0     H94221   3.286   7.045   4.748 -2.0397  1.4029 -0.3674
  683MOL0     H94222   3.170   6.807   4.605 -1.3381 -1.0007  1.3851
  683MOL0     H94223   3.103   6.876   4.740 -1.2747  2.0852 -1.8037
  683MOL0     H94224   3.264   6.715   4.840 -0.1588  2.6598  1.8132
  683MOL0     H94225   3.373   6.851   4.838 -1.2732 -0.2727  2.4898
  683MOL0     H94226   3.459   6.795   4.612 -0.1425 -0.0917  0.6993
  683MOL0     H94227   3.495   6.686   4.737 -2.5233 -1.1101  2.0254
  683MOL0     H94228   3.438   6.580   4.511 -1.7283 -3.2583  0.6174
  683MOL0     H94229   3.271   6.637   4.523 -0.5340 -1.1303 -0.4839
  683MOL0     H94230   3.249   6.510   4.724  1.0259 -0.5130 -0.7445
  683MOL0     H94231   3.417   6.466   4.723  0.7586 -3.7286 -2.4181
  683MOL0     H94232   3.335   6.276   4.635  3.6750  0.7818  0.1545
  683MOL0     H94233   3.392   6.370   4.501 -0.7910  0.6464  0.6013
  683MOL0     H94234   2.828   7.108   4.511 -0.1662  0.7008 -0.7658
  683MOL0     H94235   2.691   7.313   4.441  0.3314  3.3478 -1.2137
  683MOL0     H94236   2.518   7.734   4.700  0.4046 -1.9631  0.0018
  683MOL0     H94237   2.403   7.962   4.632  2.0841  0.6495 -0.5068
  683MOL0     H94238   1.191   8.154   4.714  0.1959  1.9155  1.4482
  683MOL0     H94239   1.147   8.359   4.796 -0.5319 -0.2301 -0.6430
  683MOL0     H94240   1.038   8.789   4.606  0.5267  0.3047  0.7310
  683MOL0     H94241   1.013   9.027   4.623  1.4166 -1.5902 -0.4410
  683MOL0     H94242   0.911   9.335   4.921 -0.6919  0.4746  3.3273
  683MOL0     H94243   0.969   9.211   5.033  2.9187  2.7116  2.0754
  683MOL0     H94244   1.129   9.396   4.995  0.9952 -3.2057  3.6373
  683MOL0     H94245   1.143   9.363   4.830  1.0944  2.5775  1.1663
  683MOL0     H94246   1.202   9.181   5.065  0.0387 -0.3264 -0.1659
  683MOL0     H94247   1.241   9.132   4.899  1.9726 -1.0838  0.2063
  683MOL0     H94248   1.366   9.361   4.874  1.5069  1.9887  1.5435
  683MOL0     H94249   1.453   9.223   4.941 -0.1428 -0.7736 -0.5914
  683MOL0     H94250   1.442   9.470   5.279  0.6306 -2.8170  1.3019
  683MOL0     H94251   0.918   8.996   5.038  0.5613  2.1163 -1.5435
  683MOL0     H94252   1.051   8.686   5.105 -0.0967  0.1537  0.0971
  683MOL0     H94253   0.932   8.803   5.156 -0.6243 -2.0013  1.8099
  683MOL0     H94254   0.885   8.650   5.073 -0.6203  1.2667  0.2035
  684MOL0     O94255   6.701  11.200   1.659 -0.2661 -0.2316  0.3508
  684MOL0     C94256   6.657  11.089   1.686 -0.8048 -0.0058  0.4377
  684MOL0     O94257   6.552  11.061   1.761 -0.0787 -0.7001  0.0978
  684MOL0     C94258   6.510  11.148   1.859 -0.1793 -0.5252 -0.3494
  684MOL0     C94259   6.379  11.198   1.869  0.2614  0.6931  0.7254
  684MOL0     C94260   6.337  11.282   1.973 -0.0332  0.6425  1.0038
  684MOL0     C94261   6.436  11.331   2.065  0.7190  0.6460  0.4496
  684MOL0     O94262   6.401  11.401   2.177  0.8447  0.2026 -0.8979
  684MOL0     C94263   6.380  11.542   2.153  0.5161  0.4742 -0.3266
  684MOL0     C94264   6.491  11.604   2.219  0.0983  0.0370  1.1839
  684MOL0     C94265   6.483  11.610   2.374  0.5886 -0.2869 -0.2405
  684MOL0     C94266   6.579  11.699   2.453  0.0355 -0.5270  0.2834
  684MOL0     C94267   6.716  11.640   2.438 -0.4868  0.4014 -0.1411
  684MOL0     C94268   6.803  11.709   2.543  0.8367 -0.5030 -0.2093
  684MOL0     C94269   6.947  11.662   2.532 -0.4113 -0.0411 -0.6429
  684MOL0     C94270   7.010  11.681   2.397  0.8589 -0.1552  0.1597
  684MOL0     N94271   7.151  11.656   2.398 -0.3986  0.1216 -0.5880
  684MOL0     C94272   7.206  11.544   2.336  0.6106  0.5623  1.2172
  684MOL0     C94273   7.334  11.552   2.328 -0.9259  0.1993  0.1247
  684MOL0     C94274   7.442  11.460   2.267  1.0338  0.0182  0.8101
  684MOL0     C94275   7.473  11.516   2.132 -0.3779 -0.4034  0.7518
  684MOL0     C94276   7.576  11.440   2.051 -0.0112  0.5710  0.5163
  684MOL0     C94277   7.624  11.537   1.933  0.4678  0.1860  0.2477
  684MOL0     O94278   7.515  11.587   1.856  0.1183  0.0412  0.5701
  684MOL0     C94279   7.543  11.666   1.748 -0.1832  1.0707 -0.1536
  684MOL0     C94280   7.666  11.660   1.677  0.3896  1.0635  0.1080
  684MOL0     C94281   7.710  11.755   1.577 -1.3852  0.4393  0.5138
  684MOL0     C94282   7.845  11.737   1.511 -0.0807  1.1083 -0.5036
  684MOL0     C94283   7.621  11.861   1.551  0.0284  0.8253 -0.2240
  684MOL0     C94284   7.649  11.971   1.464 -0.5156 -0.8044  0.5756
  684MOL0     O94285   7.769  12.035   1.466 -0.1293  0.0860  0.3237
  684MOL0     C94286   7.806  12.112   1.360 -0.8224 -0.2802  0.6143
  684MOL0     C94287   7.818  12.064   1.223 -0.5504 -0.2593  0.0800
  684MOL0     C94288   7.860  12.164   1.133 -0.8550  0.5208 -0.8111
  684MOL0     C94289   7.895  12.299   1.162  0.3360  0.7060  0.7975
  684MOL0     O94290   7.924  12.401   1.075  0.1007  0.6632  0.6950
  684MOL0     C94291   7.911  12.387   0.931 -0.2284  0.3405 -0.7588
  684MOL0     C94292   7.761  12.398   0.903  1.0299  0.4556  0.1331
  684MOL0     C94293   7.745  12.399   0.742  0.1543  0.3948  0.2334
  684MOL0     C94294   7.603  12.439   0.698 -0.2967 -1.3253 -0.2235
  684MOL0     C94295   7.580  12.429   0.544  0.5278  0.0369 -0.4656
  684MOL0     C94296   7.433  12.451   0.509 -0.0292  0.8077  0.0957
  684MOL0     C94297   7.367  12.595   0.543  1.2508  0.6100 -0.0713
  684MOL0     C94298   7.226  12.619   0.475 -0.1763 -0.8900  0.9414
  684MOL0    Cl94299   7.105  12.500   0.547  0.8230  0.7643 -0.3127
  684MOL0     C94300   7.892  12.328   1.294 -0.7614 -0.6375  0.1322
  684MOL0     C94301   7.846  12.242   1.390  0.0241  0.4133 -0.6849
  684MOL0     O94302   7.553  11.998   1.390  0.2566 -0.4057 -0.1198
  684MOL0     C94303   7.500  11.857   1.621  0.4605  0.0718  0.3700
  684MOL0     C94304   7.462  11.757   1.709 -0.1680 -0.1056  0.3295
  684MOL0     N94305   7.371  11.669   2.400  0.2223  0.0340 -0.0643
  684MOL0     N94306   7.261  11.731   2.434 -0.3635  0.0984 -0.4879
  684MOL0     C94307   6.566  11.285   2.052  0.4940  0.0282 -0.1858
  684MOL0     C94308   6.597  11.189   1.952 -0.4844  0.2342  0.4666
  684MOL0     C94309   6.731  10.971   1.627 -0.3234  0.5412 -0.2227
  684MOL0     C94310   6.840  11.001   1.547 -1.1968 -0.1448  0.4523
  684MOL0     C94311   6.923  10.903   1.494  0.5339 -0.0540  1.6732
  684MOL0     C94312   6.899  10.770   1.520  0.0791 -0.7184  0.1893
  684MOL0     O94313   6.987  10.668   1.494  0.3959  0.1917 -0.4430
  684MOL0     C94314   7.120  10.689   1.432  0.4294  0.2893  0.2443
  684MOL0     C94315   7.210  10.725   1.544 -0.0785 -0.7757 -0.2613
  684MOL0     C94316   7.357  10.720   1.496  0.3482 -0.7077 -0.3251
  684MOL0     C94317   7.427  10.858   1.480  0.3208 -0.0495 -0.4713
  684MOL0     C94318   7.550  10.856   1.400 -0.2782 -0.1251  1.1727
  684MOL0     C94319   7.639  10.869   1.316  0.3971 -0.2405  0.1923
  684MOL0     C94320   6.787  10.735   1.596  0.0512 -0.2022 -0.3228
  684MOL0     C94321   6.705  10.832   1.655  0.4208  0.0219 -0.4349
  684MOL0     C94322   6.584  10.791   1.728 -0.8318  0.2672  0.8010
  684MOL0     H94323   6.308  11.178   1.789 -0.0823  0.9557  0.9607
  684MOL0     H94324   6.237  11.319   1.989 -1.2554 -1.5299 -1.0518
  684MOL0     H94325   6.287  11.579   2.198  0.7100 -1.8987  2.3480
  684MOL0     H94326   6.379  11.559   2.045  0.9843 -2.8103 -0.9545
  684MOL0     H94327   6.583  11.545   2.210 -0.3340 -0.9407  2.7081
  684MOL0     H94328   6.507  11.707   2.187 -2.2284  0.6082  1.7058
  684MOL0     H94329   6.383  11.646   2.399  0.6932  0.9882 -1.4906
  684MOL0     H94330   6.480  11.506   2.406 -1.1695  0.1734  1.2435
  684MOL0     H94331   6.566  11.800   2.412 -1.5844  1.1599  4.4425
  684MOL0     H94332   6.544  11.691   2.556 -0.5329  0.2927  0.1603
  684MOL0     H94333   6.757  11.641   2.337  1.1870 -0.4024  0.4860
  684MOL0     H94334   6.729  11.533   2.459  2.2857  0.8512  0.8986
  684MOL0     H94335   6.794  11.815   2.517 -0.0191 -1.3970 -4.1937
  684MOL0     H94336   6.767  11.701   2.645  0.2423  1.4634 -0.2226
  684MOL0     H94337   6.963  11.559   2.566 -0.3694 -0.2791 -1.3674
  684MOL0     H94338   7.005  11.733   2.592  0.4507  1.4741 -3.1255
  684MOL0     H94339   6.948  11.622   2.328 -2.2983  2.4442  0.5304
  684MOL0     H94340   6.983  11.781   2.361 -1.9310 -0.5999  0.7749
  684MOL0     H94341   7.158  11.453   2.301  0.3201  1.0195  0.3803
  684MOL0     H94342   7.401  11.359   2.256 -2.6413  1.2178  2.1436
  684MOL0     H94343   7.531  11.460   2.331  3.9877 -2.6283 -2.8653
  684MOL0     H94344   7.382  11.536   2.075 -0.3287 -0.4435  0.6581
  684MOL0     H94345   7.526  11.610   2.150  2.0578 -1.0914 -2.0456
  684MOL0     H94346   7.669  11.416   2.104 -1.0860 -1.0545  1.7605
  684MOL0     H94347   7.542  11.345   2.008  1.8240  0.7712 -1.6019
  684MOL0     H94348   7.681  11.626   1.960 -1.7725  2.9847 -3.3886
  684MOL0     H94349   7.687  11.472   1.871  0.4842  0.0674  0.3885
  684MOL0     H94350   7.737  11.581   1.700  0.0750  0.7806  0.1091
  684MOL0     H94351   7.927  11.781   1.568  0.2472  0.2849 -0.3214
  684MOL0     H94352   7.838  11.778   1.409 -0.7664  1.2196 -0.4160
  684MOL0     H94353   7.856  11.630   1.492  2.9591  0.9489  1.4695
  684MOL0     H94354   7.781  11.970   1.184  1.3378 -0.7844 -0.5565
  684MOL0     H94355   7.860  12.114   1.037  0.4059 -0.0833 -0.5196
  684MOL0     H94356   7.971  12.468   0.889 -0.3206  0.6730 -0.2648
  684MOL0     H94357   7.948  12.285   0.913 -1.7306 -0.9505  2.5702
  684MOL0     H94358   7.693  12.324   0.947  0.4916  1.0337  0.2835
  684MOL0     H94359   7.727  12.498   0.931 -0.1048 -0.0038  0.4352
  684MOL0     H94360   7.760  12.297   0.706 -0.3600  1.1605 -2.3898
  684MOL0     H94361   7.818  12.467   0.696  0.5876  0.0745  0.4404
  684MOL0     H94362   7.585  12.542   0.731  0.3914 -0.5132 -2.2202
  684MOL0     H94363   7.528  12.378   0.750 -0.3110 -1.0829  0.0396
  684MOL0     H94364   7.649  12.495   0.492  1.6704 -1.0579 -0.4069
  684MOL0     H94365   7.601  12.326   0.512 -1.5215 -0.1847 -1.2526
  684MOL0     H94366   7.369  12.381   0.564  1.1094  1.9504  3.0555
  684MOL0     H94367   7.420  12.444   0.400  1.1576  5.7647 -0.5950
  684MOL0     H94368   7.439  12.674   0.519  1.0650  1.3457  1.6347
  684MOL0     H94369   7.343  12.616   0.648  0.8019 -0.8775  0.1497
  684MOL0     H94370   7.228  12.604   0.366  1.2874 -2.9856  1.2016
  684MOL0     H94371   7.190  12.722   0.484  0.4434 -0.6526  0.7293
  684MOL0     H94372   7.895  12.434   1.318  0.5416 -0.5154 -0.4922
  684MOL0     H94373   7.832  12.276   1.492 -2.0731 -1.1138 -0.3862
  684MOL0     H94374   7.417  11.925   1.603 -1.1704 -1.5644  1.3107
  684MOL0     H94375   7.364  11.760   1.755 -0.9584  1.0381 -1.3731
  684MOL0     H94376   6.651  11.314   2.113  1.2852 -2.2286 -0.1382
  684MOL0     H94377   6.700  11.156   1.952 -1.0922 -1.8214  1.3545
  684MOL0     H94378   6.865  11.106   1.537 -2.6507  0.8366  4.8727
  684MOL0     H94379   7.008  10.924   1.430  0.8631 -2.1099  1.3722
  684MOL0     H94380   7.154  10.598   1.381  0.3503  0.9207 -0.9756
  684MOL0     H94381   7.115  10.769   1.358  1.5496 -0.3688 -0.5921
  684MOL0     H94382   7.195  10.651   1.623 -1.4229  0.7895  1.0216
  684MOL0     H94383   7.175  10.820   1.585 -0.4470  0.1301 -2.4936
  684MOL0     H94384   7.413  10.664   1.571  2.0070  1.8407  0.4961
  684MOL0     H94385   7.379  10.665   1.405 -0.8347 -0.7770 -0.5932
  684MOL0     H94386   7.460  10.895   1.578 -0.2207 -0.9504  0.0682
  684MOL0     H94387   7.364  10.936   1.438  2.6737  1.2616 -1.7604
  684MOL0     H94388   7.711  10.850   1.239  1.7480 -2.6383  1.9150
  684MOL0     H94389   6.780  10.632   1.630  1.3781  0.3180  1.6565
  684MOL0     H94390   6.580  10.820   1.834 -0.8782  0.8281  0.6484
  684MOL0     H94391   6.487  10.821   1.688 -0.8109 -1.6176 -0.8263
  684MOL0     H94392   6.567  10.683   1.728 -0.3856  0.1907  1.6680
  685MOL0     O94393   7.302   5.535   4.525 -0.1820  0.4465 -0.6249
  685MOL0     C94394   7.202   5.459   4.525  0.2969  0.1767 -1.0548
  685MOL0     O94395   7.119   5.443   4.633  0.1101 -0.5989 -0.5623
  685MOL0     C94396   7.129   5.524   4.742  0.0791  0.3489 -1.4248
  685MOL0     C94397   7.078   5.461   4.859  0.0596 -0.6096  0.0457
  685MOL0     C94398   7.091   5.525   4.981  0.6057  0.0110 -0.2718
  685MOL0     C94399   7.154   5.648   4.991 -0.3924 -0.9852 -0.1748
  685MOL0     O94400   7.152   5.691   5.120 -0.1318 -0.7722  0.6725
  685MOL0     C94401   7.244   5.798   5.164 -0.0128  0.8537  0.1201
  685MOL0     C94402   7.217   5.843   5.307  0.1843  0.0950 -0.1379
  685MOL0     C94403   7.069   5.861   5.331  0.5351  0.0870  0.2359
  685MOL0     C94404   7.047   5.951   5.454  0.3936 -0.1439  0.2438
  685MOL0     C94405   6.898   5.964   5.481 -0.3741  0.7057 -0.8171
  685MOL0     C94406   6.874   6.021   5.617 -1.2513  0.6318 -0.1562
  685MOL0     C94407   6.905   5.921   5.731 -0.7396 -0.6587 -0.7719
  685MOL0     C94408   6.820   5.968   5.856 -0.9582 -0.1877 -0.5080
  685MOL0     N94409   6.832   5.862   5.952  0.8862  0.9922 -0.4167
  685MOL0     C94410   6.909   5.858   6.062 -1.0534 -0.1113 -0.5215
  685MOL0     C94411   6.844   5.774   6.145 -0.0971 -0.0362 -0.4663
  685MOL0     C94412   6.896   5.760   6.287  0.5443  1.2230 -0.3701
  685MOL0     C94413   6.981   5.632   6.312  1.0194 -0.3893  0.1853
  685MOL0     C94414   7.118   5.644   6.242  0.9604 -0.8337 -0.6458
  685MOL0     C94415   7.207   5.530   6.265 -1.4140  0.0213  0.3605
  685MOL0     O94416   7.328   5.562   6.204 -0.7360  0.6895 -0.3918
  685MOL0     C94417   7.449   5.508   6.263  0.0289 -0.1833  0.5991
  685MOL0     C94418   7.453   5.371   6.273 -0.2805 -0.6967 -1.1647
  685MOL0     C94419   7.570   5.303   6.326  0.1659  0.4307  0.2051
  685MOL0     C94420   7.566   5.147   6.336 -0.3003  0.9964 -0.2178
  685MOL0     C94421   7.678   5.390   6.374 -0.6654  0.1047  0.3219
  685MOL0     C94422   7.812   5.327   6.408  0.1371 -0.0997 -0.1987
  685MOL0     O94423   7.877   5.384   6.525  0.2049  0.5875 -0.2379
  685MOL0     C94424   7.993   5.318   6.563 -0.5100 -0.3687 -0.3657
  685MOL0     C94425   8.095   5.272   6.479 -0.1264  0.4032 -0.0242
  685MOL0     C94426   8.199   5.200   6.529  0.7201 -0.4432  0.1599
  685MOL0     C94427   8.217   5.186   6.669  0.3737 -0.7466  0.4734
  685MOL0     O94428   8.329   5.142   6.727 -0.2803  0.0250 -0.3813
  685MOL0     C94429   8.440   5.094   6.645 -0.0449  0.3356 -0.1071
  685MOL0     C94430   8.568   5.033   6.713 -0.2818  0.2240 -0.4225
  685MOL0     C94431   8.675   4.980   6.610 -0.2387  0.0971  0.4386
  685MOL0     C94432   8.624   4.864   6.514 -0.4424 -0.2652 -0.2766
  685MOL0     C94433   8.577   4.744   6.596 -0.0574 -0.0076 -0.0452
  685MOL0     C94434   8.517   4.633   6.503  0.7712  0.1866 -0.3584
  685MOL0     C94435   8.407   4.545   6.575 -0.6185  0.0703  0.2677
  685MOL0     C94436   8.488   4.444   6.674 -0.4115 -0.7000 -0.6210
  685MOL0    Cl94437   8.571   4.320   6.584 -0.1584  0.4009  0.4222
  685MOL0     C94438   8.118   5.237   6.754 -0.1997  0.2887 -0.1748
  685MOL0     C94439   8.006   5.296   6.699  0.1030  0.0748 -0.4294
  685MOL0     O94440   7.837   5.216   6.362 -0.0294 -0.2330  0.0288
  685MOL0     C94441   7.670   5.533   6.373  0.3600 -0.2139  0.1760
  685MOL0     C94442   7.555   5.588   6.303 -0.3086 -0.7737 -0.8870
  685MOL0     N94443   6.738   5.717   6.080 -0.0447  0.7206  0.0060
  685MOL0     N94444   6.735   5.764   5.961  0.7276  0.1686 -0.9220
  685MOL0     C94445   7.213   5.711   4.881  0.7054 -0.6360 -1.2280
  685MOL0     C94446   7.196   5.648   4.767 -0.1910 -0.7971  1.5738
  685MOL0     C94447   7.172   5.384   4.395 -0.3624 -0.4148  0.0175
  685MOL0     C94448   7.060   5.302   4.395  0.1915  0.9652 -0.1660
  685MOL0     C94449   7.028   5.222   4.287 -0.6715  0.1069 -0.3541
  685MOL0     C94450   7.114   5.207   4.184  0.4728 -0.9436 -0.6205
  685MOL0     O94451   7.084   5.109   4.089 -0.1444 -0.9184  0.1112
  685MOL0     C94452   7.201   5.040   4.043 -1.2037  0.6971 -0.5679
  685MOL0     C94453   7.172   4.895   4.045 -0.1167  0.3613  0.0375
  685MOL0     C94454   7.058   4.870   3.959  0.7299 -0.9710 -0.2141
  685MOL0     C94455   7.041   4.723   3.959  0.3188  0.2001 -0.3755
  685MOL0     C94456   6.946   4.692   3.853  0.0014  0.3573 -0.2060
  685MOL0     C94457   6.862   4.651   3.775 -0.3153  0.4189 -0.4145
  685MOL0     C94458   7.227   5.302   4.178 -0.5624  0.0843 -0.0799
  685MOL0     C94459   7.259   5.391   4.277 -0.2654 -0.4365  0.6257
  685MOL0     C94460   7.381   5.480   4.266  0.0771  1.1626 -0.1970
  685MOL0     H94461   7.030   5.364   4.851  1.1266 -1.4167  2.4727
  685MOL0     H94462   7.060   5.470   5.069  2.3262  0.3691  0.5930
  685MOL0     H94463   7.232   5.885   5.098  2.3691 -0.0148 -1.5952
  685MOL0     H94464   7.348   5.764   5.165  0.3389  1.9017  1.0242
  685MOL0     H94465   7.265   5.774   5.378  0.5232 -0.5910 -1.0041
  685MOL0     H94466   7.272   5.935   5.327  0.2750 -0.4327  2.4101
  685MOL0     H94467   7.024   5.910   5.244  1.4201 -0.7298 -0.7068
  685MOL0     H94468   7.026   5.762   5.351  0.1236  0.0970 -0.5298
  685MOL0     H94469   7.103   5.898   5.532  4.8723  2.2510 -1.0144
  685MOL0     H94470   7.086   6.050   5.430 -0.8266  0.0436 -1.1102
  685MOL0     H94471   6.855   5.864   5.478  0.7273  0.2370 -1.5033
  685MOL0     H94472   6.843   6.035   5.417 -0.2986  1.7878  0.2901
  685MOL0     H94473   6.942   6.105   5.636  0.2147 -0.7394  1.0497
  685MOL0     H94474   6.768   6.047   5.612 -1.7176 -0.3530  2.6454
  685MOL0     H94475   7.012   5.908   5.752 -0.8752  0.6190  0.8957
  685MOL0     H94476   6.870   5.824   5.694 -0.3975 -1.8435  1.8092
  685MOL0     H94477   6.851   6.059   5.908  0.3972 -2.0165  2.1606
  685MOL0     H94478   6.716   5.977   5.823 -0.3473  3.2132 -1.8747
  685MOL0     H94479   7.007   5.902   6.072  0.1474 -2.4335 -1.3057
  685MOL0     H94480   6.806   5.752   6.349  0.1559 -0.0841 -1.0779
  685MOL0     H94481   6.952   5.839   6.337 -0.5549  1.6137  0.2745
  685MOL0     H94482   6.987   5.621   6.421 -2.2783 -0.4718  0.4392
  685MOL0     H94483   6.935   5.538   6.280  3.2381 -0.3170 -3.8256
  685MOL0     H94484   7.095   5.638   6.135 -0.5099  3.6962 -0.8126
  685MOL0     H94485   7.160   5.743   6.260 -0.9883  0.1757 -1.3674
  685MOL0     H94486   7.230   5.499   6.367  2.3173 -3.3913 -1.2285
  685MOL0     H94487   7.162   5.447   6.209 -2.9790  1.0421  0.0381
  685MOL0     H94488   7.363   5.321   6.238 -2.8503  1.1141  2.2728
  685MOL0     H94489   7.616   5.083   6.263  0.4124  1.2929  0.0000
  685MOL0     H94490   7.462   5.116   6.326 -1.9119  4.5324  3.0600
  685MOL0     H94491   7.594   5.112   6.435 -6.0818 -0.0325  1.4226
  685MOL0     H94492   8.083   5.276   6.372 -1.4600 -1.6817 -0.0152
  685MOL0     H94493   8.267   5.157   6.457  2.8255 -0.7673  2.2154
  685MOL0     H94494   8.393   5.008   6.595  2.4755 -0.3995 -1.3771
  685MOL0     H94495   8.457   5.172   6.571 -1.2930  2.9889  2.2432
  685MOL0     H94496   8.615   5.114   6.769 -3.9536  1.3703  1.3002
  685MOL0     H94497   8.544   4.963   6.793 -2.1815  3.3162  1.9366
  685MOL0     H94498   8.766   4.955   6.665  1.2324  0.7545 -1.5651
  685MOL0     H94499   8.715   5.057   6.542  0.5122 -1.5426 -1.0418
  685MOL0     H94500   8.699   4.819   6.449 -0.6714  1.2804 -1.6856
  685MOL0     H94501   8.545   4.915   6.458 -2.1333 -0.5295  1.7379
  685MOL0     H94502   8.660   4.714   6.661 -0.1450 -0.9408 -0.3552
  685MOL0     H94503   8.504   4.784   6.666  0.7619  1.3753  0.0808
  685MOL0     H94504   8.593   4.560   6.475 -0.1950 -1.2502  0.5776
  685MOL0     H94505   8.461   4.668   6.416 -0.2265 -0.5872 -0.0522
  685MOL0     H94506   8.350   4.473   6.515  1.0306 -2.2875  1.3640
  685MOL0     H94507   8.337   4.612   6.626 -0.4380  0.5092 -0.0635
  685MOL0     H94508   8.419   4.391   6.741 -1.1167 -0.7419 -1.3707
  685MOL0     H94509   8.560   4.506   6.729  1.3332 -1.3490 -2.0934
  685MOL0     H94510   8.121   5.221   6.862 -0.5556 -0.6754 -0.2979
  685MOL0     H94511   7.934   5.347   6.763  2.5450  1.5507  1.3351
  685MOL0     H94512   7.757   5.594   6.394  0.2024 -0.0969  0.4936
  685MOL0     H94513   7.545   5.696   6.294  0.1690 -0.4260  1.9770
  685MOL0     H94514   7.264   5.805   4.902 -1.4749  0.2661  0.4208
  685MOL0     H94515   7.242   5.689   4.677 -4.1302 -1.1504 -0.8315
  685MOL0     H94516   6.984   5.289   4.471 -1.5268 -1.8041 -2.1598
  685MOL0     H94517   6.936   5.167   4.276 -1.2072  1.3575 -3.1049
  685MOL0     H94518   7.223   5.071   3.940 -1.8511  0.8293 -0.6686
  685MOL0     H94519   7.292   5.066   4.098 -2.6846  2.8389  0.9994
  685MOL0     H94520   7.146   4.875   4.150  0.8373  1.6671  0.5463
  685MOL0     H94521   7.258   4.839   4.007 -2.1757 -1.4241 -2.3621
  685MOL0     H94522   6.965   4.918   3.990 -0.6573 -2.9525 -1.1691
  685MOL0     H94523   7.097   4.908   3.864 -1.4895  2.0614 -0.0384
  685MOL0     H94524   6.992   4.687   4.050 -1.1889 -2.6102 -2.1258
  685MOL0     H94525   7.136   4.675   3.933 -0.0097  0.3477 -1.9398
  685MOL0     H94526   6.785   4.628   3.704  0.3047 -0.8035 -0.7176
  685MOL0     H94527   7.290   5.297   4.089 -0.9301  2.4330 -0.5426
  685MOL0     H94528   7.457   5.442   4.335 -1.2512 -1.7155 -0.1688
  685MOL0     H94529   7.421   5.486   4.164 -0.9826 -1.8426 -0.8824
  685MOL0     H94530   7.356   5.584   4.288  0.1048  1.4025 -1.2404
  686MOL0     O94531   6.829   7.830   8.530  0.3848  0.7325 -0.0515
  686MOL0     C94532   6.832   7.711   8.532 -0.3083  0.2584 -0.7940
  686MOL0     O94533   6.937   7.642   8.562 -0.1755  0.2534  0.1215
  686MOL0     C94534   7.063   7.691   8.547  0.6978 -0.3259  0.6346
  686MOL0     C94535   7.151   7.685   8.653 -0.2978 -0.2234  0.6877
  686MOL0     C94536   7.289   7.728   8.644  0.0948  0.4962 -0.7244
  686MOL0     C94537   7.333   7.768   8.523  0.2304 -0.1079  0.8231
  686MOL0     O94538   7.455   7.824   8.495  0.4276 -0.1261  0.1569
  686MOL0     C94539   7.494   7.941   8.569  0.7483 -0.1609 -0.2994
  686MOL0     C94540   7.541   8.039   8.464 -0.3180 -0.2677  0.2193
  686MOL0     C94541   7.581   8.172   8.534 -0.4989 -0.2086  2.0184
  686MOL0     C94542   7.607   8.287   8.430  0.4698 -0.0491 -0.2925
  686MOL0     C94543   7.639   8.421   8.500 -0.4229  0.3034 -0.1542
  686MOL0     C94544   7.783   8.429   8.544 -0.3296  0.5510 -1.2035
  686MOL0     C94545   7.811   8.563   8.609  1.0605  0.1258 -0.0082
  686MOL0     C94546   7.772   8.684   8.515 -0.4111 -0.4893  0.5127
  686MOL0     N94547   7.876   8.792   8.523  0.0761  0.1087  0.2613
  686MOL0     C94548   8.012   8.776   8.495  0.2838  0.0778 -0.5628
  686MOL0     C94549   8.055   8.902   8.486 -1.0151  1.0864  0.4392
  686MOL0     C94550   8.195   8.928   8.451 -0.1750  0.7709 -0.6484
  686MOL0     C94551   8.235   9.071   8.492  0.1587 -0.3478 -0.0549
  686MOL0     C94552   8.239   9.088   8.642  0.0807 -0.2776  0.4734
  686MOL0     C94553   8.308   9.223   8.703 -0.3532  0.1698  0.8553
  686MOL0     O94554   8.264   9.343   8.631  0.0338  0.1173 -0.3763
  686MOL0     C94555   8.345   9.428   8.554 -0.3873 -0.3562 -0.1157
  686MOL0     C94556   8.282   9.509   8.458  0.0152 -0.3992 -1.1388
  686MOL0     C94557   8.358   9.602   8.384 -0.8489 -0.3882 -0.8597
  686MOL0     C94558   8.281   9.711   8.308 -0.0226 -0.0665  0.1142
  686MOL0     C94559   8.503   9.597   8.403 -0.6216 -0.5699 -0.1246
  686MOL0     C94560   8.597   9.694   8.354 -0.1590 -0.5123 -0.9943
  686MOL0     O94561   8.550   9.823   8.328  0.0870 -0.4210 -0.1089
  686MOL0     C94562   8.619   9.933   8.278  0.5641 -0.3167 -0.6590
  686MOL0     C94563   8.759   9.955   8.271  0.2451 -0.6394  0.9023
  686MOL0     C94564   8.814  10.072   8.216  0.6572  0.3579  0.1825
  686MOL0     C94565   8.730  10.173   8.166 -0.1722  0.6107 -0.0554
  686MOL0     O94566   8.789  10.279   8.097  0.0833  0.1850  0.3125
  686MOL0     C94567   8.701  10.381   8.051 -0.5233  0.3259 -0.8472
  686MOL0     C94568   8.788  10.478   7.971  0.3456  0.5834 -0.6054
  686MOL0     C94569   8.876  10.572   8.041  0.2922  0.1001 -1.1332
  686MOL0     C94570   8.974  10.639   7.955  0.0586 -0.7942  0.4608
  686MOL0     C94571   8.921  10.772   7.897  0.6499 -0.3576 -0.3412
  686MOL0     C94572   9.033  10.866   7.845  0.1339  0.5042 -0.4858
  686MOL0     C94573   9.109  10.793   7.728 -0.0262  0.3527  0.6980
  686MOL0     C94574   9.129  10.891   7.610 -0.9580 -0.3072 -0.9474
  686MOL0    Cl94575   8.984  10.928   7.530 -0.4310 -0.0355 -0.4806
  686MOL0     C94576   8.589  10.146   8.180  0.3299  0.0784  0.0225
  686MOL0     C94577   8.533  10.028   8.231  0.2703 -0.1918  1.1118
  686MOL0     O94578   8.718   9.659   8.343 -0.8483 -0.1440  0.5941
  686MOL0     C94579   8.567   9.508   8.504  0.3280 -0.6747  0.6527
  686MOL0     C94580   8.481   9.419   8.567 -0.1694  0.9386 -0.7459
  686MOL0     N94581   7.948   8.989   8.495  0.6705  0.4447  0.2413
  686MOL0     N94582   7.842   8.920   8.520  0.1945  0.2544  0.4569
  686MOL0     C94583   7.248   7.768   8.414  0.1305 -0.5261  0.0563
  686MOL0     C94584   7.111   7.731   8.426 -0.6078 -0.7914 -0.6469
  686MOL0     C94585   6.706   7.634   8.547 -1.1229  0.1540 -0.8071
  686MOL0     C94586   6.578   7.695   8.532 -0.0115  1.1332 -0.2257
  686MOL0     C94587   6.453   7.633   8.544  0.2851 -0.2705 -0.6148
  686MOL0     C94588   6.450   7.499   8.573  0.5458 -0.5775 -0.6928
  686MOL0     O94589   6.328   7.443   8.605 -0.1093  0.9250  0.1728
  686MOL0     C94590   6.250   7.403   8.493  0.2426  0.0778 -0.4724
  686MOL0     C94591   6.132   7.318   8.543  0.0189  1.0316 -0.0333
  686MOL0     C94592   6.063   7.250   8.419  0.1671 -0.3813  0.3149
  686MOL0     C94593   5.952   7.162   8.467 -0.4715  0.9417 -0.2611
  686MOL0     C94594   5.906   7.071   8.355 -0.3364  0.0079  0.1758
  686MOL0     C94595   5.881   7.000   8.262 -0.2763  0.6665 -0.3399
  686MOL0     C94596   6.570   7.430   8.586  0.2018 -0.4434  0.6103
  686MOL0     C94597   6.694   7.494   8.572  0.3837  0.3918 -0.1082
  686MOL0     C94598   6.804   7.400   8.583 -0.6109  0.3460 -0.4459
  686MOL0     H94599   7.106   7.636   8.738 -1.5482  0.4828  0.4572
  686MOL0     H94600   7.361   7.725   8.725  0.8315  1.1270 -1.3439
  686MOL0     H94601   7.565   7.910   8.646 -1.1956 -3.9411  0.1875
  686MOL0     H94602   7.407   7.978   8.624 -0.3705  2.0489 -3.2526
  686MOL0     H94603   7.615   8.000   8.394 -0.9377 -0.4113 -0.3718
  686MOL0     H94604   7.449   8.062   8.408  0.0688  1.8623  0.3852
  686MOL0     H94605   7.509   8.203   8.610  1.2281  1.8087  2.9311
  686MOL0     H94606   7.678   8.164   8.585  1.3837  0.7574 -1.1015
  686MOL0     H94607   7.689   8.258   8.363 -0.8929  3.0779 -3.7034
  686MOL0     H94608   7.516   8.305   8.373 -0.1169  2.0685  1.1733
  686MOL0     H94609   7.582   8.423   8.593  1.7959  1.2212  1.2698
  686MOL0     H94610   7.619   8.512   8.442  2.1386  1.7819  1.0779
  686MOL0     H94611   7.809   8.343   8.605  3.0853 -0.2256 -3.4796
  686MOL0     H94612   7.844   8.419   8.454  0.7066 -2.6624 -0.2832
  686MOL0     H94613   7.919   8.551   8.624  0.5195 -0.9577  4.4250
  686MOL0     H94614   7.768   8.579   8.708  0.5226  0.7173 -0.3344
  686MOL0     H94615   7.780   8.651   8.411 -1.0817  1.8909 -0.3607
  686MOL0     H94616   7.669   8.720   8.511 -1.4938 -3.3905  0.0062
  686MOL0     H94617   8.068   8.684   8.482 -0.4929 -0.3754 -0.7137
  686MOL0     H94618   8.211   8.904   8.346 -5.1559 -1.9728 -1.1159
  686MOL0     H94619   8.258   8.859   8.508 -0.9274  1.8516  1.6294
  686MOL0     H94620   8.334   9.087   8.450 -0.3406  1.2182 -0.7050
  686MOL0     H94621   8.157   9.129   8.441  0.2367 -1.2764 -1.2688
  686MOL0     H94622   8.138   9.083   8.684  0.5154 -2.9650  1.3580
  686MOL0     H94623   8.298   9.007   8.686  0.6519  1.1683  2.5381
  686MOL0     H94624   8.285   9.241   8.808 -2.6062 -2.8214  1.0024
  686MOL0     H94625   8.411   9.187   8.699 -1.5940 -3.8447 -0.7407
  686MOL0     H94626   8.176   9.495   8.440 -1.2008  1.4327  3.2000
  686MOL0     H94627   8.254   9.794   8.374 -1.9066  0.2655 -0.9938
  686MOL0     H94628   8.185   9.665   8.282  0.0018  1.1735 -2.5825
  686MOL0     H94629   8.320   9.730   8.207  0.2044  1.4035  0.4584
  686MOL0     H94630   8.831   9.879   8.298  1.1600  0.4858  1.7080
  686MOL0     H94631   8.922  10.081   8.202  0.1700  1.7622 -4.4936
  686MOL0     H94632   8.631  10.337   7.980 -0.1017  0.6696 -1.4913
  686MOL0     H94633   8.642  10.435   8.125 -0.9153  1.1134 -1.7150
  686MOL0     H94634   8.842  10.411   7.904 -3.3428 -2.3146 -0.9836
  686MOL0     H94635   8.720  10.535   7.907  0.1066  1.2775  0.2503
  686MOL0     H94636   8.937  10.521   8.116 -0.8658 -1.7197 -1.3722
  686MOL0     H94637   8.824  10.648   8.099  0.8147 -2.2169  2.6791
  686MOL0     H94638   9.013  10.575   7.876 -0.2779  0.3908 -0.6917
  686MOL0     H94639   9.057  10.672   8.019 -0.1328 -0.0365  0.3273
  686MOL0     H94640   8.854  10.746   7.814  0.5659 -0.3129 -0.2875
  686MOL0     H94641   8.863  10.829   7.971  1.4015  1.5931 -1.1900
  686MOL0     H94642   9.094  10.901   7.929 -1.9314  2.1726  0.4010
  686MOL0     H94643   8.983  10.958   7.813  0.4688  0.6671 -0.5424
  686MOL0     H94644   9.063  10.702   7.689  4.0376 -0.4679 -3.0644
  686MOL0     H94645   9.207  10.762   7.767 -0.0609  0.3742  0.8015
  686MOL0     H94646   9.189  10.843   7.532 -0.8536  0.9677 -1.6810
  686MOL0     H94647   9.184  10.979   7.646 -2.5454  1.1433 -1.9507
  686MOL0     H94648   8.519  10.222   8.146 -3.3858 -2.6500  0.8671
  686MOL0     H94649   8.426  10.015   8.239 -0.1884  2.3298 -0.0881
  686MOL0     H94650   8.673   9.505   8.527  0.6717 -0.6422 -0.8437
  686MOL0     H94651   8.528   9.347   8.634 -3.1559 -1.9324 -1.4868
  686MOL0     H94652   7.276   7.812   8.318  1.5830 -2.2881 -0.3904
  686MOL0     H94653   7.046   7.730   8.339 -1.2826 -3.7906 -0.2274
  686MOL0     H94654   6.580   7.801   8.507 -1.4924  1.6320  1.5548
  686MOL0     H94655   6.362   7.692   8.542  2.0841  2.6926 -1.5919
  686MOL0     H94656   6.209   7.485   8.434 -0.2400 -0.1462 -0.4486
  686MOL0     H94657   6.312   7.342   8.426 -1.8922 -0.8047 -1.7157
  686MOL0     H94658   6.058   7.373   8.601  0.8019  1.3491  0.6995
  686MOL0     H94659   6.169   7.239   8.610 -1.6713  1.4431  1.4647
  686MOL0     H94660   6.017   7.320   8.348  1.0990 -0.9175 -0.8631
  686MOL0     H94661   6.142   7.198   8.364  0.0462 -0.3289  0.0872
  686MOL0     H94662   5.863   7.220   8.494 -0.8053 -0.5116  1.9638
  686MOL0     H94663   5.973   7.105   8.558  0.5160  0.0370 -1.0334
  686MOL0     H94664   5.845   6.939   8.182 -1.3822 -0.5312  1.0157
  686MOL0     H94665   6.568   7.324   8.608 -3.0412  0.0282  3.3902
  686MOL0     H94666   6.851   7.405   8.681 -0.2469  0.0777 -0.6047
  686MOL0     H94667   6.772   7.296   8.577 -2.2364  0.8265 -0.5747
  686MOL0     H94668   6.880   7.413   8.505  0.5801  2.4011  0.9525
  687MOL0     O94669   5.057   9.994   4.202  0.1213  0.0711  0.9552
  687MOL0     C94670   4.956   9.920   4.235 -1.3794 -0.0696  0.0569
  687MOL0     O94671   4.907   9.812   4.160  0.5284 -0.3209 -0.9692
  687MOL0     C94672   4.956   9.764   4.045 -0.5560 -0.5149  0.2455
  687MOL0     C94673   4.916   9.829   3.930  0.3308  0.3239  0.0050
  687MOL0     C94674   4.957   9.778   3.809 -0.9291 -0.0006  0.2426
  687MOL0     C94675   5.066   9.685   3.798  0.0646 -0.7110  0.1131
  687MOL0     O94676   5.098   9.626   3.684 -0.4552 -0.5682 -0.3971
  687MOL0     C94677   5.231   9.654   3.634  0.7456 -0.3989 -1.0250
  687MOL0     C94678   5.348   9.578   3.700 -0.0817 -0.0790  0.2593
  687MOL0     C94679   5.328   9.429   3.697  0.0965  0.3625 -0.1346
  687MOL0     C94680   5.285   9.373   3.566  0.1232  0.0690 -0.0798
  687MOL0     C94681   5.325   9.232   3.528  0.3634  1.0318  0.2020
  687MOL0     C94682   5.461   9.231   3.450  1.1450  0.3976 -0.0419
  687MOL0     C94683   5.529   9.092   3.432  0.2254  0.0741  0.5908
  687MOL0     C94684   5.542   9.022   3.566  0.1089 -0.0683 -0.6128
  687MOL0     N94685   5.630   8.904   3.563  0.4361 -0.6863 -0.8364
  687MOL0     C94686   5.635   8.801   3.480 -0.5896  0.1406  0.0891
  687MOL0     C94687   5.739   8.731   3.519  0.1908 -0.7544 -0.1197
  687MOL0     C94688   5.776   8.599   3.481  0.4800 -0.6177 -0.0057
  687MOL0     C94689   5.836   8.591   3.344  0.2202  0.3895  0.0366
  687MOL0     C94690   5.974   8.646   3.334  0.3553  0.6210 -0.3275
  687MOL0     C94691   6.034   8.659   3.187 -0.5285  0.4705 -0.3014
  687MOL0     O94692   6.170   8.621   3.188  0.7585 -0.0135  0.3864
  687MOL0     C94693   6.250   8.707   3.121  0.3504 -0.1692  0.1839
  687MOL0     C94694   6.256   8.695   2.988  0.2060 -0.0649  0.1354
  687MOL0     C94695   6.334   8.785   2.911 -0.2971 -0.2838  0.4468
  687MOL0     C94696   6.342   8.753   2.766  0.9891 -0.8386  0.0499
  687MOL0     C94697   6.405   8.893   2.980 -0.0342 -1.4814  0.5766
  687MOL0     C94698   6.498   8.994   2.905 -0.6168  0.1674 -0.1057
  687MOL0     O94699   6.554   9.086   2.986  1.0272  0.0525 -0.6899
  687MOL0     C94700   6.604   9.190   2.915 -0.2344 -1.3734  0.1919
  687MOL0     C94701   6.510   9.294   2.894 -0.6097  0.2317  0.1980
  687MOL0     C94702   6.553   9.412   2.831  0.1849  0.8493  0.3729
  687MOL0     C94703   6.685   9.432   2.790 -0.1393  1.3352  0.6137
  687MOL0     O94704   6.737   9.538   2.721  0.8561  0.3049  0.1818
  687MOL0     C94705   6.677   9.660   2.747  0.4582 -0.4013  0.3125
  687MOL0     C94706   6.802   9.744   2.759 -0.2355 -0.8181 -0.8497
  687MOL0     C94707   6.779   9.894   2.753  0.3819  0.5024  0.3294
  687MOL0     C94708   6.916   9.954   2.807  0.1650 -0.0637 -0.6248
  687MOL0     C94709   6.917  10.105   2.796  0.8541 -0.2674  0.5184
  687MOL0     C94710   6.847  10.177   2.915 -0.1035  0.7439 -1.2548
  687MOL0     C94711   6.859  10.329   2.917  0.1070  0.1564 -0.2047
  687MOL0     C94712   6.759  10.389   3.006 -0.8551 -0.9327  0.1589
  687MOL0    Cl94713   6.746  10.568   2.983 -0.2749 -0.3277  0.0844
  687MOL0     C94714   6.777   9.330   2.809 -0.6635 -0.4624  0.4092
  687MOL0     C94715   6.739   9.209   2.873 -0.5396 -0.4026 -0.3909
  687MOL0     O94716   6.507   8.995   2.778 -0.1659  0.0859  0.0700
  687MOL0     C94717   6.386   8.901   3.123  0.5230  0.0763  0.0942
  687MOL0     C94718   6.304   8.808   3.190 -0.8788 -0.4042  0.1645
  687MOL0     N94719   5.811   8.806   3.612 -0.2486 -0.2908  0.4421
  687MOL0     N94720   5.735   8.904   3.641 -0.3238 -0.0589  0.4378
  687MOL0     C94721   5.114   9.628   3.915  0.0855 -1.0840 -0.0339
  687MOL0     C94722   5.059   9.674   4.040 -0.6526 -0.2661  0.2197
  687MOL0     C94723   4.892   9.924   4.362 -0.1494  0.2555 -0.1138
  687MOL0     C94724   4.760   9.886   4.384  0.2676  0.8718 -0.1177
  687MOL0     C94725   4.693   9.895   4.506  0.3940  0.2524 -0.7760
  687MOL0     C94726   4.767   9.934   4.620  0.1236 -0.3608  0.2330
  687MOL0     O94727   4.728   9.936   4.752 -0.3060  0.1417  0.4321
  687MOL0     C94728   4.593   9.887   4.780 -0.4103 -0.5185  0.0633
  687MOL0     C94729   4.486  10.004   4.782  0.0405 -0.0944 -0.0120
  687MOL0     C94730   4.449  10.058   4.642 -0.0340 -0.7646 -1.3188
  687MOL0     C94731   4.350  10.180   4.672 -0.1984  0.0051 -0.3723
  687MOL0     C94732   4.319  10.242   4.551 -0.0276 -1.0763 -0.4590
  687MOL0     C94733   4.280  10.282   4.446 -0.4834 -0.7385 -0.5333
  687MOL0     C94734   4.894   9.972   4.606 -0.2776  0.7829 -0.1745
  687MOL0     C94735   4.961   9.970   4.480 -0.6600 -0.0177  0.7153
  687MOL0     C94736   5.113  10.018   4.484 -0.7134  0.4571 -0.1942
  687MOL0     H94737   4.830   9.895   3.929 -0.1109  0.0150  3.8496
  687MOL0     H94738   4.909   9.808   3.717 -1.4564  0.7658  0.7546
  687MOL0     H94739   5.239   9.762   3.647 -1.3633 -0.3287  0.1048
  687MOL0     H94740   5.239   9.639   3.525 -0.7684 -1.5110 -1.0112
  687MOL0     H94741   5.445   9.600   3.657 -0.0830 -1.4700 -0.5021
  687MOL0     H94742   5.360   9.630   3.796  2.3725  0.9949 -0.5516
  687MOL0     H94743   5.419   9.381   3.733 -0.5891 -0.8833  0.0110
  687MOL0     H94744   5.261   9.395   3.777  0.9762  0.3961  0.6356
  687MOL0     H94745   5.177   9.392   3.566 -0.4425 -2.6332 -1.2896
  687MOL0     H94746   5.316   9.433   3.479 -1.9004  0.7436 -0.3759
  687MOL0     H94747   5.245   9.192   3.466 -0.4242  1.9268  0.6238
  687MOL0     H94748   5.316   9.164   3.614 -0.4266  0.9296  0.0449
  687MOL0     H94749   5.449   9.281   3.354 -0.3886  1.0291  0.4581
  687MOL0     H94750   5.528   9.292   3.511  0.7081 -0.2318  1.1060
  687MOL0     H94751   5.626   9.103   3.383 -1.1543 -2.2656 -3.0924
  687MOL0     H94752   5.470   9.033   3.361 -0.7583  0.2134  1.2716
  687MOL0     H94753   5.587   9.095   3.634  2.1397 -2.0185  0.2639
  687MOL0     H94754   5.444   8.999   3.608  0.9837  1.5989  2.7282
  687MOL0     H94755   5.557   8.787   3.406  1.2119  1.5780 -2.2030
  687MOL0     H94756   5.700   8.521   3.492  0.8168 -0.9104  0.2999
  687MOL0     H94757   5.856   8.574   3.551  0.1334 -1.2664  0.1632
  687MOL0     H94758   5.829   8.490   3.303 -0.0025  1.0952 -1.7753
  687MOL0     H94759   5.773   8.652   3.278 -3.1568 -2.5408  0.2626
  687MOL0     H94760   5.984   8.740   3.388  2.9103 -1.2006  2.7445
  687MOL0     H94761   6.046   8.582   3.386  0.0253  1.0041  0.6120
  687MOL0     H94762   5.979   8.594   3.118  1.1458 -2.0659  0.6135
  687MOL0     H94763   6.029   8.765   3.159 -0.0399 -0.2514 -3.5658
  687MOL0     H94764   6.203   8.620   2.930  0.4740  2.2253 -3.4519
  687MOL0     H94765   6.286   8.827   2.707  0.6439 -1.7165 -0.7564
  687MOL0     H94766   6.297   8.656   2.744 -4.3565  1.6603 -1.9852
  687MOL0     H94767   6.445   8.761   2.731  0.1000  2.0374 -2.3888
  687MOL0     H94768   6.406   9.285   2.924 -1.3698  0.2585 -2.2346
  687MOL0     H94769   6.481   9.490   2.804  0.1951 -0.0723 -2.7165
  687MOL0     H94770   6.611   9.686   2.665  2.5763  0.3573 -1.2218
  687MOL0     H94771   6.625   9.664   2.844 -1.2205  0.9914 -0.6010
  687MOL0     H94772   6.838   9.730   2.861 -0.4789 -2.2898 -0.9500
  687MOL0     H94773   6.882   9.717   2.690 -0.0904  0.7566 -1.3344
  687MOL0     H94774   6.686   9.929   2.798 -1.7586 -1.6766 -2.0793
  687MOL0     H94775   6.768   9.911   2.645  0.0483  1.9712  0.5790
  687MOL0     H94776   6.993   9.907   2.746  1.3948  1.1796 -0.0781
  687MOL0     H94777   6.929   9.929   2.913 -3.5836 -5.9330 -1.0400
  687MOL0     H94778   7.022  10.136   2.795  0.4656  1.4810 -3.2670
  687MOL0     H94779   6.863  10.137   2.706 -0.2790 -1.0172  0.9075
  687MOL0     H94780   6.886  10.156   3.015 -1.0992  2.8454 -0.3633
  687MOL0     H94781   6.748  10.133   2.926  0.6831 -0.6372  1.0861
  687MOL0     H94782   6.842  10.359   2.813 -3.1708 -1.8744 -0.3926
  687MOL0     H94783   6.957  10.371   2.943  0.3842  0.1539 -1.1953
  687MOL0     H94784   6.790  10.372   3.109  0.0865  1.3775  0.3090
  687MOL0     H94785   6.664  10.341   2.979 -0.5180 -0.3985 -2.1579
  687MOL0     H94786   6.873   9.355   2.767 -0.5079  0.8746  1.4962
  687MOL0     H94787   6.811   9.130   2.895 -0.2671 -0.3361 -0.9998
  687MOL0     H94788   6.442   8.980   3.172  0.1049 -0.6091  1.7617
  687MOL0     H94789   6.274   8.827   3.292 -1.3871  2.3867 -0.4391
  687MOL0     H94790   5.193   9.554   3.918  2.2879  1.1179  0.3800
  687MOL0     H94791   5.086   9.624   4.132 -0.7756  0.1954  0.5100
  687MOL0     H94792   4.704   9.833   4.307 -0.1983  0.9824  0.1392
  687MOL0     H94793   4.595   9.848   4.514 -0.1365  1.3416 -0.7161
  687MOL0     H94794   4.559   9.810   4.710 -0.0303  1.5208 -2.5216
  687MOL0     H94795   4.598   9.846   4.882  1.5329 -1.6343 -0.4380
  687MOL0     H94796   4.499  10.086   4.853  0.9933 -1.0934  0.9918
  687MOL0     H94797   4.395   9.955   4.820  0.8626 -1.2208  0.5727
  687MOL0     H94798   4.535  10.098   4.589 -0.1615  0.0435 -0.9257
  687MOL0     H94799   4.406   9.985   4.573 -0.7059 -0.1390 -1.5714
  687MOL0     H94800   4.389  10.251   4.746 -1.7480  1.0468 -0.5165
  687MOL0     H94801   4.255  10.142   4.710  1.1930 -2.4137  0.9916
  687MOL0     H94802   4.258  10.321   4.348  0.0936  1.1089  0.0257
  687MOL0     H94803   4.958   9.993   4.691  0.6695  0.6943 -0.8455
  687MOL0     H94804   5.116  10.127   4.469 -3.6257  0.3948 -2.1762
  687MOL0     H94805   5.162   9.989   4.577  1.2559  0.2462 -1.2387
  687MOL0     H94806   5.178   9.974   4.408  0.4316  1.0818  0.3943
  688MOL0     O94807   0.987   2.808   2.870 -0.2831 -0.6629 -0.8346
  688MOL0     C94808   0.997   2.933   2.861  0.5704 -0.3251  1.1001
  688MOL0     O94809   1.118   3.004   2.883  0.3408  0.1782 -0.8341
  688MOL0     C94810   1.233   2.949   2.936  0.4113  0.5938  0.8516
  688MOL0     C94811   1.295   2.842   2.870 -1.1449 -0.4368 -0.1542
  688MOL0     C94812   1.418   2.800   2.930 -0.2660 -0.4486 -0.1618
  688MOL0     C94813   1.466   2.866   3.050 -0.5221  0.5253 -0.6831
  688MOL0     O94814   1.584   2.832   3.107 -0.1755 -0.3108 -0.9417
  688MOL0     C94815   1.663   2.721   3.049  0.1257 -0.0653  0.1988
  688MOL0     C94816   1.773   2.690   3.139  0.2116 -0.0886  0.7571
  688MOL0     C94817   1.842   2.556   3.099 -1.0395  0.2615 -0.6161
  688MOL0     C94818   1.951   2.512   3.203 -0.4320  0.0254  0.3910
  688MOL0     C94819   2.096   2.530   3.146  0.4855  0.1081 -0.2385
  688MOL0     C94820   2.212   2.456   3.219  0.7023  0.3679 -0.0222
  688MOL0     C94821   2.245   2.514   3.357  0.4096  0.0682  0.6682
  688MOL0     C94822   2.288   2.418   3.467  0.5179 -0.5713  0.4047
  688MOL0     N94823   2.412   2.354   3.438  0.7548  0.0424 -0.3204
  688MOL0     C94824   2.533   2.405   3.469 -0.7010 -0.0337 -0.2215
  688MOL0     C94825   2.625   2.318   3.441  0.5711  0.4068 -0.4577
  688MOL0     C94826   2.775   2.329   3.463 -0.2399  0.4712  0.5111
  688MOL0     C94827   2.866   2.228   3.390 -0.5860  0.2786 -0.1400
  688MOL0     C94828   3.001   2.292   3.375 -0.3944  0.3036  0.1965
  688MOL0     C94829   3.108   2.197   3.313 -0.2491  0.7374 -0.2302
  688MOL0     O94830   3.123   2.079   3.386 -1.2268 -0.6298  0.2298
  688MOL0     C94831   3.219   1.988   3.342 -0.3391 -0.6872  0.4596
  688MOL0     C94832   3.291   1.985   3.214  0.5703 -0.3689 -0.8112
  688MOL0     C94833   3.359   1.866   3.175 -0.2872 -0.1864 -0.0511
  688MOL0     C94834   3.443   1.881   3.049 -0.7709  0.8908  0.1536
  688MOL0     C94835   3.366   1.753   3.259 -0.4457 -0.3962 -0.0208
  688MOL0     C94836   3.451   1.639   3.229  0.2430 -0.4514 -0.5516
  688MOL0     O94837   3.436   1.594   3.098  0.1644  0.1634  0.1777
  688MOL0     C94838   3.511   1.496   3.046  0.6969 -0.0993 -1.4522
  688MOL0     C94839   3.499   1.372   3.111 -0.6151  0.4511 -0.2973
  688MOL0     C94840   3.571   1.264   3.043 -0.3114 -0.3551 -0.0157
  688MOL0     C94841   3.633   1.280   2.916 -0.4296  0.1070 -1.0942
  688MOL0     O94842   3.682   1.167   2.848  0.4271  0.7077 -0.3607
  688MOL0     C94843   3.667   1.171   2.704  0.3411 -0.1776 -0.4517
  688MOL0     C94844   3.678   1.021   2.654  0.6149  0.0099 -0.1915
  688MOL0     C94845   3.630   1.000   2.518  0.1961  0.0844  0.4950
  688MOL0     C94846   3.637   0.851   2.464 -0.1533  0.5221 -0.0245
  688MOL0     C94847   3.602   0.832   2.314  0.2477  0.2282  0.3135
  688MOL0     C94848   3.700   0.911   2.231  0.7977 -0.9579  0.0179
  688MOL0     C94849   3.725   0.843   2.095 -0.2316  0.9418  0.2509
  688MOL0     C94850   3.613   0.882   2.005  0.8341 -0.3851  0.3138
  688MOL0    Cl94851   3.655   0.830   1.851 -0.0117 -0.0387 -0.2371
  688MOL0     C94852   3.614   1.401   2.852  0.5616 -0.1946 -0.4869
  688MOL0     C94853   3.560   1.508   2.924 -0.8017  0.0537  0.9120
  688MOL0     O94854   3.519   1.587   3.315 -0.7920 -0.3591 -0.0341
  688MOL0     C94855   3.308   1.765   3.383 -0.0082 -0.0851 -0.8029
  688MOL0     C94856   3.227   1.875   3.422 -0.0002 -0.9258 -0.6647
  688MOL0     N94857   2.557   2.204   3.390  0.8805 -0.0270 -0.3629
  688MOL0     N94858   2.430   2.225   3.398  0.0962  0.2332  0.0007
  688MOL0     C94859   1.398   2.958   3.122  0.5094 -0.0343  0.9621
  688MOL0     C94860   1.276   3.004   3.057 -0.4879  0.4102  0.0744
  688MOL0     C94861   0.884   3.009   2.797 -0.1838  0.3689 -0.3600
  688MOL0     C94862   0.905   3.121   2.713  1.3735  0.5831 -0.2433
  688MOL0     C94863   0.803   3.199   2.654  0.0252 -0.0294  0.3248
  688MOL0     C94864   0.669   3.162   2.681  0.7689  0.7697 -0.5297
  688MOL0     O94865   0.563   3.229   2.639 -0.4685 -0.2950 -0.6327
  688MOL0     C94866   0.493   3.169   2.530  0.0533  0.3653  0.0014
  688MOL0     C94867   0.338   3.171   2.538  0.8315  0.2208 -0.4833
  688MOL0     C94868   0.260   3.309   2.556  0.0731 -0.0779  0.1732
  688MOL0     C94869   0.109   3.300   2.550  0.5415 -0.8032  0.0207
  688MOL0     C94870   0.063   3.282   2.414 -0.6231  0.6983  0.9852
  688MOL0     C94871   0.018   3.258   2.303  0.1204  0.2242  0.3651
  688MOL0     C94872   0.647   3.059   2.770 -0.5018 -0.5869  0.3077
  688MOL0     C94873   0.747   2.981   2.830 -0.7928  0.2854  0.2060
  688MOL0     C94874   0.718   2.876   2.935  0.6253 -0.8986  0.4225
  688MOL0     H94875   1.251   2.792   2.785 -4.8785  1.4567  0.4374
  688MOL0     H94876   1.485   2.734   2.875 -2.1528 -2.0016 -0.7138
  688MOL0     H94877   1.712   2.745   2.954 -0.0356  0.4698  0.2476
  688MOL0     H94878   1.596   2.635   3.044 -0.7432  0.4543  2.0777
  688MOL0     H94879   1.848   2.766   3.114  2.0230 -2.5543 -1.9331
  688MOL0     H94880   1.756   2.691   3.247  1.4152  2.9261  1.0139
  688MOL0     H94881   1.755   2.489   3.096 -0.8591  0.0573 -1.3995
  688MOL0     H94882   1.891   2.556   3.002  1.5911  0.4121  0.6314
  688MOL0     H94883   1.945   2.561   3.301  1.6795 -1.9423  1.6083
  688MOL0     H94884   1.928   2.409   3.230 -0.7880 -0.2749 -0.9862
  688MOL0     H94885   2.123   2.634   3.127  0.5312 -0.0190 -0.8795
  688MOL0     H94886   2.096   2.503   3.040  1.9698  2.4029 -0.8921
  688MOL0     H94887   2.177   2.352   3.220 -0.0459  0.5093 -2.7431
  688MOL0     H94888   2.299   2.458   3.153 -0.9022  2.7046 -2.2441
  688MOL0     H94889   2.178   2.597   3.381  0.0832  0.3357 -1.0531
  688MOL0     H94890   2.337   2.571   3.346  0.3225  0.1749  0.4808
  688MOL0     H94891   2.286   2.485   3.553 -1.6692 -0.0040 -0.0241
  688MOL0     H94892   2.203   2.350   3.476  0.0495 -0.0399  0.0521
  688MOL0     H94893   2.543   2.505   3.511  0.2582 -1.0594  2.1904
  688MOL0     H94894   2.796   2.325   3.570 -2.4819  1.8415  1.0730
  688MOL0     H94895   2.803   2.432   3.438  1.0459  0.7296  2.8055
  688MOL0     H94896   2.860   2.124   3.424 -2.5457  0.4533  0.1653
  688MOL0     H94897   2.834   2.221   3.285 -1.2259 -0.2726  0.0826
  688MOL0     H94898   3.005   2.386   3.319 -1.7449 -0.4392 -1.2347
  688MOL0     H94899   3.037   2.312   3.476  0.9221  1.1526 -0.4235
  688MOL0     H94900   3.087   2.174   3.208 -0.9617 -3.7248  0.6875
  688MOL0     H94901   3.203   2.250   3.325 -0.3496  1.3747 -1.9364
  688MOL0     H94902   3.276   2.071   3.149 -1.4815 -0.3705 -0.3869
  688MOL0     H94903   3.458   1.985   3.017  3.2167  0.5619  0.4380
  688MOL0     H94904   3.401   1.819   2.969 -0.3187  0.7128  0.0507
  688MOL0     H94905   3.546   1.852   3.072  0.6424  3.0731 -2.6650
  688MOL0     H94906   3.452   1.361   3.208 -1.8416 -2.1276 -1.0765
  688MOL0     H94907   3.583   1.169   3.094  1.6760 -1.3672 -2.1823
  688MOL0     H94908   3.573   1.220   2.677 -0.0329 -0.2522  0.6596
  688MOL0     H94909   3.747   1.231   2.660  2.4087 -1.9120  0.7489
  688MOL0     H94910   3.782   0.989   2.668  0.4165  0.2020  2.1133
  688MOL0     H94911   3.619   0.957   2.720  0.8653  0.7145  0.7326
  688MOL0     H94912   3.693   1.067   2.460 -0.3028 -1.4761 -2.0223
  688MOL0     H94913   3.527   1.034   2.514 -0.1765 -1.0066  0.4093
  688MOL0     H94914   3.578   0.775   2.515  2.8590 -2.5961 -0.7526
  688MOL0     H94915   3.739   0.811   2.471 -0.1629  0.6416  0.9304
  688MOL0     H94916   3.590   0.728   2.283 -0.8507  0.0665  1.2002
  688MOL0     H94917   3.507   0.884   2.297  0.1281  0.8601  2.5774
  688MOL0     H94918   3.788   0.930   2.294 -0.6333  4.1246  0.8501
  688MOL0     H94919   3.675   1.016   2.219  1.4075 -0.3803  3.0639
  688MOL0     H94920   3.706   0.736   2.104 -1.0831  1.0183 -0.5418
  688MOL0     H94921   3.825   0.852   2.051 -0.0421  0.2244  0.5329
  688MOL0     H94922   3.593   0.989   2.004 -0.8775 -0.6462 -2.4305
  688MOL0     H94923   3.515   0.845   2.038  0.0168  1.3272 -0.1007
  688MOL0     H94924   3.632   1.411   2.745 -3.9929  2.1870 -1.2774
  688MOL0     H94925   3.548   1.605   2.878 -0.9427 -0.4110 -0.0567
  688MOL0     H94926   3.314   1.690   3.462  2.1185  0.7332 -0.1159
  688MOL0     H94927   3.170   1.867   3.514 -2.2909 -2.7302 -2.1179
  688MOL0     H94928   1.431   2.996   3.219 -1.7516  0.6229  1.5179
  688MOL0     H94929   1.221   3.088   3.099  1.9860  1.1781  2.0601
  688MOL0     H94930   1.000   3.150   2.669 -0.7172  2.2088 -4.2664
  688MOL0     H94931   0.815   3.278   2.580 -3.5628  2.7087  2.3459
  688MOL0     H94932   0.513   3.221   2.436  2.4621 -0.0504  0.2150
  688MOL0     H94933   0.534   3.068   2.516 -0.4810  0.5356 -3.6008
  688MOL0     H94934   0.311   3.111   2.625 -1.4914 -0.0351 -1.3226
  688MOL0     H94935   0.290   3.120   2.454 -1.3505 -0.0443  0.8636
  688MOL0     H94936   0.286   3.350   2.653  1.4152 -2.3512  0.8640
  688MOL0     H94937   0.296   3.380   2.481 -0.3163 -0.5968 -0.5214
  688MOL0     H94938   0.088   3.405   2.576  1.6789  0.2539 -2.8684
  688MOL0     H94939   0.069   3.221   2.613  1.5607 -1.1019  0.3084
  688MOL0     H94940  -0.023   3.222   2.211  0.4023  0.9344 -0.0565
  688MOL0     H94941   0.546   3.039   2.804 -0.8262  1.6178  0.7601
  688MOL0     H94942   0.736   2.775   2.898 -1.4830 -1.5316  0.9753
  688MOL0     H94943   0.767   2.895   3.031 -3.5664 -1.2794  2.9028
  688MOL0     H94944   0.610   2.870   2.955 -0.1520 -1.2133 -3.2164
  689MOL0     O94945   5.508   6.346   8.132 -0.3549 -0.5527  0.5046
  689MOL0     C94946   5.519   6.228   8.170 -1.3059  0.2387  1.1558
  689MOL0     O94947   5.516   6.180   8.303  0.2638 -0.2549 -0.6044
  689MOL0     C94948   5.477   6.286   8.393 -1.1422 -0.1986 -0.3551
  689MOL0     C94949   5.338   6.324   8.407 -0.1890 -0.8443 -0.8449
  689MOL0     C94950   5.307   6.414   8.516 -0.0200 -1.3402  0.0545
  689MOL0     C94951   5.406   6.485   8.587 -0.3148  0.3989  0.3593
  689MOL0     O94952   5.358   6.576   8.681 -0.9131 -0.1086  0.3905
  689MOL0     C94953   5.464   6.631   8.773  0.4473 -0.1053  0.0030
  689MOL0     C94954   5.388   6.693   8.893 -0.0880 -0.1903  0.1124
  689MOL0     C94955   5.483   6.681   9.020  0.4885  0.0304  0.7407
  689MOL0     C94956   5.604   6.776   9.025 -0.7915  0.6847  0.2863
  689MOL0     C94957   5.678   6.783   9.151 -0.4252 -1.0408  0.1926
  689MOL0     C94958   5.760   6.651   9.182 -0.0591 -0.4192  0.3098
  689MOL0     C94959   5.844   6.679   9.315 -1.2283  0.1253  0.2635
  689MOL0     C94960   5.763   6.728   9.430  0.1302 -0.2063 -0.3253
  689MOL0     N94961   5.676   6.634   9.489  0.7504  0.8526 -0.8254
  689MOL0     C94962   5.705   6.577   9.607 -0.2615  0.6887 -0.3833
  689MOL0     C94963   5.591   6.509   9.654 -1.1018  0.3774 -0.2818
  689MOL0     C94964   5.553   6.432   9.765 -0.0924  0.4267  0.2886
  689MOL0     C94965   5.670   6.390   9.854 -1.2080  0.4946 -1.0404
  689MOL0     C94966   5.708   6.496   9.963  0.3163 -0.0685  0.5515
  689MOL0     C94967   5.850   6.495  10.006 -0.2648  0.6888  0.0153
  689MOL0     O94968   5.895   6.363  10.051 -0.4581 -0.0514  0.1021
  689MOL0     C94969   5.871   6.322  10.175 -0.5324  0.0434  0.6088
  689MOL0     C94970   5.811   6.390  10.279 -0.9149  0.4027 -0.1405
  689MOL0     C94971   5.802   6.335  10.407 -0.4173  0.3087 -1.1491
  689MOL0     C94972   5.743   6.419  10.528  0.4656  0.7978 -0.1412
  689MOL0     C94973   5.851   6.205  10.430  0.4984  0.3569  0.8913
  689MOL0     C94974   5.827   6.123  10.557  0.9021  0.1252  0.8843
  689MOL0     O94975   5.925   6.027  10.588 -0.4880 -0.2408  0.0380
  689MOL0     C94976   5.907   5.920  10.667  0.8058 -0.3136  0.2746
  689MOL0     C94977   6.005   5.896  10.763  0.2310 -0.3468  0.0419
  689MOL0     C94978   5.995   5.785  10.848 -0.0146  0.3947  1.0074
  689MOL0     C94979   5.887   5.694  10.845  0.5012 -0.6587 -0.4929
  689MOL0     O94980   5.895   5.590  10.935 -0.5433  0.5058  0.9986
  689MOL0     C94981   5.807   5.471  10.928  0.1840  0.1217  0.3600
  689MOL0     C94982   5.859   5.376  10.821  0.6136  0.3193 -0.0631
  689MOL0     C94983   5.791   5.228  10.832 -0.1780 -0.5439 -0.3979
  689MOL0     C94984   5.858   5.147  10.947  0.4085 -0.3077  0.1112
  689MOL0     C94985   5.790   5.008  10.975 -0.0442  0.0708 -0.2322
  689MOL0     C94986   5.852   4.937  11.106  0.4479  0.1405 -0.4618
  689MOL0     C94987   5.991   4.880  11.082  0.1629  1.1947  0.5107
  689MOL0     C94988   5.983   4.738  11.013 -0.7672 -0.0552  0.8148
  689MOL0    Cl94989   6.133   4.653  11.025 -0.5760 -0.5151 -0.0448
  689MOL0     C94990   5.787   5.720  10.747 -0.2666 -0.2441  0.2107
  689MOL0     C94991   5.791   5.836  10.668 -1.1325  0.3919  0.2945
  689MOL0     O94992   5.721   6.130  10.610 -0.3155  0.6786 -0.5065
  689MOL0     C94993   5.922   6.140  10.326  0.1895 -1.1747 -0.4719
  689MOL0     C94994   5.927   6.201  10.200 -0.2952 -0.1057  0.9159
  689MOL0     N94995   5.505   6.541   9.550  0.1999 -0.6911 -0.3332
  689MOL0     N94996   5.549   6.611   9.451  0.9134  0.4864  0.3277
  689MOL0     C94997   5.544   6.454   8.560 -0.7575  1.0915  0.3167
  689MOL0     C94998   5.572   6.353   8.469 -0.6927  0.1197  0.5786
  689MOL0     C94999   5.531   6.123   8.070 -0.0684  0.9255  0.6254
  689MOL0     C95000   5.469   6.005   8.101 -0.5476  0.1441 -0.0587
  689MOL0     C95001   5.480   5.887   8.016  0.5022 -0.7524 -0.3767
  689MOL0     C95002   5.538   5.896   7.892 -0.1277 -1.2432 -0.1347
  689MOL0     O95003   5.529   5.792   7.817 -0.7756 -0.1619  0.6178
  689MOL0     C95004   5.624   5.785   7.708  0.3050 -0.4316  0.2438
  689MOL0     C95005   5.571   5.668   7.626  0.1443  0.3650  0.5484
  689MOL0     C95006   5.444   5.713   7.538  0.1212  0.5678 -0.2698
  689MOL0     C95007   5.361   5.608   7.456  0.2056  0.4680  0.2133
  689MOL0     C95008   5.423   5.586   7.330 -0.9568 -0.0735  0.7256
  689MOL0     C95009   5.468   5.592   7.211  0.4604 -0.4307 -0.3703
  689MOL0     C95010   5.612   6.009   7.866  0.1751 -0.3342  0.5065
  689MOL0     C95011   5.611   6.120   7.955 -0.3024 -0.3545  0.2320
  689MOL0     C95012   5.704   6.239   7.907 -0.1482  0.5001  0.6027
  689MOL0     H95013   5.269   6.273   8.341  0.7216  0.9378 -3.3307
  689MOL0     H95014   5.200   6.432   8.520 -0.1011 -0.9204 -2.4397
  689MOL0     H95015   5.531   6.707   8.732  1.4784  0.1977  2.1175
  689MOL0     H95016   5.533   6.552   8.806  1.8067  2.1719  3.2375
  689MOL0     H95017   5.364   6.798   8.872 -1.6323 -1.1454 -3.6655
  689MOL0     H95018   5.300   6.630   8.907  0.5472 -1.7776 -2.4233
  689MOL0     H95019   5.425   6.704   9.110  0.7697  3.7570  0.1377
  689MOL0     H95020   5.514   6.576   9.021 -0.5248 -0.3796 -1.9667
  689MOL0     H95021   5.666   6.747   8.940 -0.6235  0.0617  0.6191
  689MOL0     H95022   5.564   6.876   9.002 -0.9036  0.7151  0.6065
  689MOL0     H95023   5.610   6.807   9.234  1.1721  3.5456  0.4428
  689MOL0     H95024   5.750   6.866   9.158 -0.1393 -1.2566 -0.1939
  689MOL0     H95025   5.696   6.563   9.186 -1.4558  0.5050 -0.7447
  689MOL0     H95026   5.827   6.646   9.096  1.4631  0.5119  1.3878
  689MOL0     H95027   5.910   6.760   9.282  0.0840 -0.8643  0.3701
  689MOL0     H95028   5.915   6.600   9.339 -1.2262  0.5382  1.6797
  689MOL0     H95029   5.839   6.758   9.503 -2.3543  1.0843  1.9323
  689MOL0     H95030   5.715   6.826   9.419  2.0902  1.2120  2.4686
  689MOL0     H95031   5.792   6.594   9.669  1.0801  0.5509 -2.1709
  689MOL0     H95032   5.512   6.340   9.724 -1.2652  1.4700 -0.9952
  689MOL0     H95033   5.473   6.485   9.818 -1.8265 -0.5358 -1.3053
  689MOL0     H95034   5.627   6.302   9.903 -3.1820  0.5586 -2.5366
  689MOL0     H95035   5.755   6.359   9.793 -0.3548 -2.7933  1.4974
  689MOL0     H95036   5.688   6.599   9.931 -0.2923 -0.8953 -2.0137
  689MOL0     H95037   5.640   6.466  10.043 -1.1236 -1.2443 -1.0316
  689MOL0     H95038   5.911   6.520   9.918 -2.3298  2.8271 -0.9276
  689MOL0     H95039   5.873   6.573  10.079 -0.1009 -0.9948  1.8260
  689MOL0     H95040   5.769   6.488  10.260 -1.7010  0.2086  0.5346
  689MOL0     H95041   5.807   6.399  10.615  0.5959  1.8917  0.0239
  689MOL0     H95042   5.640   6.388  10.550  0.1554  2.8662  1.5897
  689MOL0     H95043   5.752   6.526  10.506 -0.4637  0.5726 -1.8001
  689MOL0     H95044   6.085   5.968  10.770 -1.0381  1.4133 -2.0798
  689MOL0     H95045   6.082   5.755  10.906 -0.1746 -1.2262  0.4613
  689MOL0     H95046   5.815   5.418  11.024  0.2058 -1.1024 -0.3070
  689MOL0     H95047   5.699   5.483  10.926  0.0920 -0.1704  1.9707
  689MOL0     H95048   5.842   5.435  10.730  3.8914  0.2677 -0.8286
  689MOL0     H95049   5.968   5.365  10.829  0.4757 -3.7449 -1.3380
  689MOL0     H95050   5.808   5.166  10.743 -0.9457 -2.0579  0.4569
  689MOL0     H95051   5.683   5.229  10.852 -0.2279  3.8608 -0.0331
  689MOL0     H95052   5.858   5.210  11.037  1.5050 -0.2351  0.0751
  689MOL0     H95053   5.964   5.144  10.919  0.6029  3.5041 -0.0232
  689MOL0     H95054   5.688   5.034  11.007  0.1301 -1.2110  1.5301
  689MOL0     H95055   5.804   4.946  10.886 -0.4528 -1.0708  0.4792
  689MOL0     H95056   5.783   4.863  11.145 -0.0965 -0.3790 -2.3193
  689MOL0     H95057   5.843   5.018  11.179  0.5322 -0.1760 -0.0963
  689MOL0     H95058   6.030   4.852  11.180  1.3875  1.5819  0.1544
  689MOL0     H95059   6.061   4.948  11.033 -0.0212  0.6761 -0.4907
  689MOL0     H95060   5.955   4.755  10.908 -0.6342  0.9966  0.9365
  689MOL0     H95061   5.904   4.682  11.064  0.1919  0.7459  3.3421
  689MOL0     H95062   5.707   5.650  10.728  1.8277 -2.7984  0.2223
  689MOL0     H95063   5.715   5.854  10.592 -1.6304 -3.2515 -0.2611
  689MOL0     H95064   5.971   6.044  10.339  2.6926  0.0783  0.1625
  689MOL0     H95065   5.978   6.150  10.118 -0.0841  2.0063 -0.3565
  689MOL0     H95066   5.617   6.513   8.615 -1.5462  2.7371 -0.3306
  689MOL0     H95067   5.674   6.326   8.445 -1.0166 -0.0341 -0.6882
  689MOL0     H95068   5.421   5.992   8.197  1.4149  0.4736  0.9935
  689MOL0     H95069   5.446   5.791   8.054 -1.1398  0.0870  0.3939
  689MOL0     H95070   5.627   5.871   7.640 -0.8995 -1.7562 -1.5758
  689MOL0     H95071   5.723   5.776   7.752  1.0596  3.8386 -0.1022
  689MOL0     H95072   5.535   5.592   7.694  0.4738  1.3091  1.8266
  689MOL0     H95073   5.642   5.632   7.550 -1.1919  1.2134 -1.1697
  689MOL0     H95074   5.371   5.763   7.602 -1.1243 -0.6146 -0.7079
  689MOL0     H95075   5.480   5.795   7.475  2.5239 -1.2031 -1.4050
  689MOL0     H95076   5.257   5.629   7.428  0.3190  0.2793 -0.3622
  689MOL0     H95077   5.363   5.515   7.513  0.7444  1.8789  2.6370
  689MOL0     H95078   5.508   5.599   7.111 -1.8122 -0.5592 -1.3552
  689MOL0     H95079   5.679   6.018   7.781  0.2342 -0.3004  0.5557
  689MOL0     H95080   5.638   6.325   7.896 -0.7981 -0.0843 -0.1755
  689MOL0     H95081   5.787   6.254   7.977 -1.5022 -2.3518  3.0376
  689MOL0     H95082   5.741   6.210   7.809 -2.5308  2.9455 -1.1711
  690MOL0     O95083   5.936   9.642   1.168 -0.2449 -0.4824  0.1406
  690MOL0     C95084   6.053   9.639   1.218  0.2269  0.4081 -0.1391
  690MOL0     O95085   6.095   9.712   1.322  0.2448 -0.2238 -0.3908
  690MOL0     C95086   6.000   9.755   1.415  0.2764 -0.1191 -0.3182
  690MOL0     C95087   6.044   9.864   1.499  0.8442 -0.0326  0.3196
  690MOL0     C95088   5.962   9.921   1.593  0.1443  0.0640  0.5591
  690MOL0     C95089   5.842   9.866   1.618 -0.3957  0.4919 -0.5880
  690MOL0     O95090   5.771   9.922   1.723 -0.1550 -0.3378  0.3062
  690MOL0     C95091   5.629   9.896   1.740  0.3197  0.7140 -0.1761
  690MOL0     C95092   5.589   9.974   1.860 -0.1758 -0.1524  0.3035
  690MOL0     C95093   5.667   9.926   1.987  0.3491  1.1150  0.3853
  690MOL0     C95094   5.617  10.010   2.109  0.5218 -0.4772 -0.4253
  690MOL0     C95095   5.676   9.969   2.249 -0.0846 -0.6418 -0.1601
  690MOL0     C95096   5.646  10.048   2.373  0.2030 -0.6646 -0.5269
  690MOL0     C95097   5.509  10.069   2.417  0.4687 -1.8452  0.8848
  690MOL0     C95098   5.454  10.197   2.352 -0.1715 -0.6660  0.3429
  690MOL0     N95099   5.327  10.220   2.421 -0.4696 -0.5747 -0.0481
  690MOL0     C95100   5.212  10.152   2.403  0.1354 -0.2629  0.3065
  690MOL0     C95101   5.118  10.226   2.471  0.8285 -0.0844 -0.1104
  690MOL0     C95102   4.968  10.189   2.478  0.1412 -1.1597  0.5418
  690MOL0     C95103   4.882  10.208   2.345 -0.6981 -0.5082  0.6481
  690MOL0     C95104   4.868  10.350   2.309  0.7804 -0.4871  0.1472
  690MOL0     C95105   4.785  10.392   2.175 -0.4249  0.6502 -0.0268
  690MOL0     O95106   4.779  10.530   2.141 -0.8505 -1.0823  0.3438
  690MOL0     C95107   4.729  10.610   2.243 -0.5711  0.0611  0.3704
  690MOL0     C95108   4.624  10.577   2.334  0.4850 -0.3568  1.1885
  690MOL0     C95109   4.563  10.659   2.428 -0.2043  0.3883  0.2507
  690MOL0     C95110   4.443  10.621   2.511  0.9029  0.3019 -0.8388
  690MOL0     C95111   4.625  10.787   2.443  1.0775 -0.4604  0.3071
  690MOL0     C95112   4.590  10.899   2.546  0.0777  0.2723  0.0712
  690MOL0     O95113   4.642  11.017   2.526 -0.5161 -0.4304 -0.4624
  690MOL0     C95114   4.625  11.125   2.617  0.3576 -0.3913 -0.0049
  690MOL0     C95115   4.732  11.177   2.695  0.8309  0.0029 -0.2486
  690MOL0     C95116   4.707  11.274   2.787  0.3769  0.8542  0.7062
  690MOL0     C95117   4.579  11.332   2.806  0.7562  0.6876  0.5211
  690MOL0     O95118   4.543  11.431   2.894  0.1458 -0.4888 -0.5596
  690MOL0     C95119   4.645  11.515   2.943 -0.2533 -0.2938 -0.0517
  690MOL0     C95120   4.578  11.659   2.976 -0.7369  0.4301 -0.4841
  690MOL0     C95121   4.693  11.757   3.004 -0.5685 -0.4223 -0.2581
  690MOL0     C95122   4.765  11.838   2.896  0.1635  0.3250 -0.3222
  690MOL0     C95123   4.853  11.944   2.953 -0.1829  0.1833 -0.5056
  690MOL0     C95124   4.858  12.054   2.845  0.1810  0.5651  0.9099
  690MOL0     C95125   4.950  12.167   2.894  1.0235 -0.3736  0.0100
  690MOL0     C95126   4.912  12.294   2.816  0.4423  0.6609  0.9935
  690MOL0    Cl95127   4.997  12.281   2.655  0.0848 -0.0901 -0.3610
  690MOL0     C95128   4.473  11.276   2.734 -0.1484  0.1568  0.8218
  690MOL0     C95129   4.493  11.175   2.640 -0.0764  0.1018  1.1183
  690MOL0     O95130   4.509  10.869   2.641 -1.0885 -0.0185 -0.1119
  690MOL0     C95131   4.730  10.824   2.351  0.1022  0.2930 -1.3724
  690MOL0     C95132   4.775  10.735   2.264  0.2293  0.0852  0.5388
  690MOL0     N95133   5.186  10.336   2.525 -0.5995 -0.3965  0.1617
  690MOL0     N95134   5.315  10.327   2.503 -0.1380  0.2920 -0.1725
  690MOL0     C95135   5.791   9.759   1.534  0.4636 -1.0618 -0.6790
  690MOL0     C95136   5.871   9.714   1.435  1.8031  0.1990  0.1289
  690MOL0     C95137   6.150   9.545   1.157  0.0400  0.6701 -0.4111
  690MOL0     C95138   6.115   9.406   1.164 -0.4756 -1.6205  0.1822
  690MOL0     C95139   6.209   9.307   1.115 -0.2822  0.3477 -0.9823
  690MOL0     C95140   6.328   9.340   1.051  0.6359  0.4782 -0.1626
  690MOL0     O95141   6.420   9.243   1.013 -0.7043  0.2877  0.5662
  690MOL0     C95142   6.361   9.144   0.927 -0.2751 -0.1846  0.1372
  690MOL0     C95143   6.480   9.071   0.860  0.5630  0.0853 -0.1705
  690MOL0     C95144   6.552   9.172   0.769 -0.0193  0.3171  0.6397
  690MOL0     C95145   6.693   9.130   0.740  0.7290  0.0807  0.9703
  690MOL0     C95146   6.700   8.997   0.672  0.0705 -0.2045 -0.1041
  690MOL0     C95147   6.723   8.882   0.635 -0.5102  0.5902  0.3688
  690MOL0     C95148   6.361   9.475   1.037 -0.3122 -0.6229 -1.0864
  690MOL0     C95149   6.277   9.574   1.096 -0.8828 -0.1769 -0.2877
  690MOL0     C95150   6.315   9.717   1.095 -0.3344 -0.3498  0.2680
  690MOL0     H95151   6.145   9.901   1.482  0.0006  2.5359  0.4885
  690MOL0     H95152   6.000  10.007   1.647  3.1467 -2.4605  2.8399
  690MOL0     H95153   5.600   9.791   1.752 -3.1693  1.7320  1.4527
  690MOL0     H95154   5.578   9.947   1.658  1.5552  3.0052  0.3941
  690MOL0     H95155   5.597  10.082   1.841 -2.2507  0.1754  1.0685
  690MOL0     H95156   5.483   9.953   1.873 -0.1571  0.0584  0.8043
  690MOL0     H95157   5.664   9.818   2.004  2.5647  0.5946 -1.7955
  690MOL0     H95158   5.767   9.969   1.978 -0.7062  3.6996  0.1044
  690MOL0     H95159   5.636  10.114   2.082 -2.0764 -0.5452 -3.0965
  690MOL0     H95160   5.507  10.012   2.108  0.3649  3.1151 -4.2509
  690MOL0     H95161   5.784   9.959   2.234  0.1004 -1.5239  1.5138
  690MOL0     H95162   5.630   9.872   2.266 -1.1980 -0.7937 -3.4148
  690MOL0     H95163   5.687   9.999   2.462 -1.0977 -1.5932 -0.4067
  690MOL0     H95164   5.693  10.147   2.366 -2.3512  0.6773  0.2005
  690MOL0     H95165   5.497  10.104   2.520  1.0360 -0.8444  0.6235
  690MOL0     H95166   5.453   9.976   2.402  1.1118 -1.9986 -0.7126
  690MOL0     H95167   5.517  10.286   2.358 -4.1368  2.3476  3.4256
  690MOL0     H95168   5.426  10.188   2.247  1.6142  0.9624 -0.3211
  690MOL0     H95169   5.205  10.060   2.347  0.0035  1.4038 -2.6181
  690MOL0     H95170   4.935  10.236   2.572  5.3230  0.4282  1.9135
  690MOL0     H95171   4.966  10.081   2.493 -0.0808 -1.3419 -0.7401
  690MOL0     H95172   4.940  10.160   2.266  0.6486  1.2256  0.5142
  690MOL0     H95173   4.779  10.173   2.354 -0.2814 -1.2586  5.6645
  690MOL0     H95174   4.818  10.403   2.391  2.8859  1.1332  0.4801
  690MOL0     H95175   4.972  10.383   2.305  1.2929 -2.0449 -0.1273
  690MOL0     H95176   4.833  10.341   2.091  0.4687  1.9391 -0.3371
  690MOL0     H95177   4.686  10.346   2.177 -0.3313  0.3666 -1.2271
  690MOL0     H95178   4.578  10.480   2.323  0.0968 -0.6786  4.5264
  690MOL0     H95179   4.410  10.519   2.490  1.7322  0.7315 -4.9934
  690MOL0     H95180   4.358  10.687   2.492  0.1724 -0.9714 -2.1678
  690MOL0     H95181   4.451  10.638   2.619 -1.8045  2.7280 -0.8798
  690MOL0     H95182   4.838  11.152   2.688  1.0028  0.3870  0.8040
  690MOL0     H95183   4.792  11.317   2.839  2.4364 -0.8089 -1.0916
  690MOL0     H95184   4.683  11.476   3.038 -2.5379  1.1531  1.5773
  690MOL0     H95185   4.731  11.520   2.877  0.5439 -1.0619  0.8986
  690MOL0     H95186   4.509  11.700   2.901  0.1717 -0.4193 -1.8220
  690MOL0     H95187   4.519  11.646   3.067 -3.1935 -1.0790 -2.1387
  690MOL0     H95188   4.780  11.711   3.052 -0.4623  0.4508  0.4142
  690MOL0     H95189   4.649  11.831   3.071 -0.7572  1.6412 -2.5346
  690MOL0     H95190   4.682  11.876   2.836  0.2064 -4.0096 -3.6044
  690MOL0     H95191   4.815  11.777   2.821  1.1622  0.1153  0.4800
  690MOL0     H95192   4.810  11.986   3.044  1.2707  1.3573 -0.3239
  690MOL0     H95193   4.955  11.906   2.967 -0.3921 -0.2290 -0.1267
  690MOL0     H95194   4.761  12.092   2.811 -1.4276 -2.0231  2.2728
  690MOL0     H95195   4.904  11.998   2.763 -2.7375 -0.2268 -0.2997
  690MOL0     H95196   5.053  12.135   2.876  0.6414 -2.2565  0.9648
  690MOL0     H95197   4.951  12.178   3.003 -3.4482 -0.5576  0.2821
  690MOL0     H95198   4.940  12.381   2.876 -0.4118  1.4774  0.2471
  690MOL0     H95199   4.803  12.299   2.803  0.2597 -1.2764  1.4786
  690MOL0     H95200   4.373  11.316   2.746 -1.0573 -1.8077  0.2055
  690MOL0     H95201   4.403  11.130   2.601  0.9526 -3.3484  2.3444
  690MOL0     H95202   4.786  10.915   2.368 -0.7541  0.3816  1.4705
  690MOL0     H95203   4.847  10.780   2.196  0.0693  1.5444  1.2787
  690MOL0     H95204   5.685   9.734   1.530 -0.4695  1.7607  2.2088
  690MOL0     H95205   5.841   9.626   1.379  4.1420  0.6789 -2.0483
  690MOL0     H95206   6.025   9.370   1.213 -0.6550 -2.0355 -0.4512
  690MOL0     H95207   6.192   9.202   1.137 -0.9175  0.4164 -1.1245
  690MOL0     H95208   6.293   9.077   0.980 -2.2556  0.8269 -1.0333
  690MOL0     H95209   6.302   9.192   0.848  3.5170  0.2708 -2.7012
  690MOL0     H95210   6.431   8.994   0.799  1.0709 -2.2449  2.1733
  690MOL0     H95211   6.562   9.024   0.916  2.9846  2.2167 -1.7203
  690MOL0     H95212   6.502   9.165   0.672  1.4252 -1.6262 -0.0376
  690MOL0     H95213   6.553   9.271   0.814 -0.5008  1.4422 -1.6519
  690MOL0     H95214   6.749   9.120   0.833 -0.9901 -1.6286  1.8873
  690MOL0     H95215   6.738   9.197   0.666 -0.1651 -0.6862 -0.3219
  690MOL0     H95216   6.758   8.786   0.604  1.0618  0.8627  1.2035
  690MOL0     H95217   6.461   9.505   1.007 -0.7106  1.4039 -0.5210
  690MOL0     H95218   6.311   9.752   1.198 -0.2359  0.2574  0.0670
  690MOL0     H95219   6.418   9.723   1.058 -1.4046 -2.6133 -3.7902
  690MOL0     H95220   6.253   9.780   1.029  0.1139 -0.8935 -0.7031
  691MOL0     O95221   5.502   6.010   9.713  0.1169  0.2998  0.0761
  691MOL0     C95222   5.518   6.066   9.604 -0.3031  0.7750 -0.5888
  691MOL0     O95223   5.431   6.157   9.561 -0.0082  0.2292  0.8160
  691MOL0     C95224   5.302   6.162   9.613 -0.9341  0.5695 -0.5356
  691MOL0     C95225   5.229   6.045   9.641  0.2024 -0.3370  0.4863
  691MOL0     C95226   5.109   6.059   9.701  0.1558 -0.1257  0.1552
  691MOL0     C95227   5.050   6.179   9.734  0.5937  0.6994 -0.0059
  691MOL0     O95228   4.926   6.184   9.790  0.1904  0.6892 -0.6193
  691MOL0     C95229   4.834   6.080   9.760  0.4431  0.0921 -0.0414
  691MOL0     C95230   4.701   6.116   9.823  0.4123  0.4018  0.3770
  691MOL0     C95231   4.718   6.120   9.979  0.1577 -0.1596  0.4274
  691MOL0     C95232   4.752   6.249  10.045 -0.1109  0.6008  0.5476
  691MOL0     C95233   4.671   6.367   9.992 -0.9709  0.1133  0.5076
  691MOL0     C95234   4.523   6.376  10.031 -0.3777  0.6392  0.2246
  691MOL0     C95235   4.467   6.506   9.988 -0.5163  0.6455  0.4481
  691MOL0     C95236   4.341   6.551  10.070  0.2340  0.1951 -0.0791
  691MOL0     N95237   4.347   6.554  10.215 -0.6629  0.0149  0.7266
  691MOL0     C95238   4.239   6.547  10.293  0.8825  0.3790 -0.0165
  691MOL0     C95239   4.284   6.587  10.409 -0.2567  1.4413 -0.2949
  691MOL0     C95240   4.214   6.576  10.546  0.6656  0.5275  0.3013
  691MOL0     C95241   4.111   6.683  10.551  0.1380  0.0232  0.3504
  691MOL0     C95242   4.056   6.715  10.692 -1.1162  0.2364 -0.1605
  691MOL0     C95243   4.008   6.590  10.760  0.3059  0.1856  0.0261
  691MOL0     O95244   3.968   6.621  10.892 -0.1333  0.0364  0.4300
  691MOL0     C95245   3.833   6.626  10.901 -0.6813 -0.6114 -0.0128
  691MOL0     C95246   3.753   6.511  10.926 -0.7250 -0.7847  0.3419
  691MOL0     C95247   3.617   6.525  10.946 -0.3458  0.1714  0.3012
  691MOL0     C95248   3.548   6.402  11.004  0.0612 -0.5241  0.2176
  691MOL0     C95249   3.550   6.653  10.932  0.2237  0.6124  0.4387
  691MOL0     C95250   3.407   6.680  10.962 -0.4384  0.2118  0.5681
  691MOL0     O95251   3.367   6.811  10.970  0.1732 -0.3302 -0.2231
  691MOL0     C95252   3.231   6.846  10.959 -0.0394 -0.2401 -0.5933
  691MOL0     C95253   3.150   6.783  10.871 -0.1027 -0.0706  0.1148
  691MOL0     C95254   3.011   6.810  10.862 -0.0666  0.0022  0.1732
  691MOL0     C95255   2.951   6.896  10.956 -0.0465  0.1332 -0.0372
  691MOL0     O95256   2.823   6.935  10.937  0.9741 -0.6272 -0.2896
  691MOL0     C95257   2.732   6.885  11.035  0.0703  0.2816 -0.5608
  691MOL0     C95258   2.599   6.882  10.977  0.4228 -0.0935  0.5357
  691MOL0     C95259   2.530   7.020  10.984 -0.1967 -0.0501  0.6786
  691MOL0     C95260   2.382   6.999  10.965  0.9956  0.5043 -0.0816
  691MOL0     C95261   2.309   7.047  10.831  0.1689 -0.7463 -0.2204
  691MOL0     C95262   2.298   7.204  10.820  0.6440  0.5564 -0.1261
  691MOL0     C95263   2.187   7.240  10.719  0.4775  0.1201 -0.5456
  691MOL0     C95264   2.198   7.387  10.667 -0.1099 -0.1276 -0.6642
  691MOL0    Cl95265   2.167   7.510  10.794  0.2209 -0.1107  0.7760
  691MOL0     C95266   3.032   6.946  11.052 -0.8049 -1.4020 -0.4153
  691MOL0     C95267   3.169   6.919  11.058  0.1549  0.3608  0.5601
  691MOL0     O95268   3.338   6.580  10.957  0.1637 -1.3278  0.2889
  691MOL0     C95269   3.635   6.763  10.911 -0.5913 -0.3429  0.1429
  691MOL0     C95270   3.770   6.749  10.893 -0.7376  0.4147  0.4589
  691MOL0     N95271   4.412   6.640  10.401 -1.2777  0.2676 -0.0656
  691MOL0     N95272   4.442   6.616  10.275 -0.0935  0.7538 -1.2750
  691MOL0     C95273   5.119   6.295   9.701 -0.6192 -0.6287  0.5899
  691MOL0     C95274   5.244   6.285   9.639 -0.6382  0.7329 -0.7454
  691MOL0     C95275   5.632   6.036   9.520  0.1320  0.5345 -0.9540
  691MOL0     C95276   5.752   6.056   9.580  0.2210 -0.0298 -0.4065
  691MOL0     C95277   5.871   6.038   9.506  0.1092  0.5952 -0.7467
  691MOL0     C95278   5.865   5.992   9.380  0.1513  0.1343  1.0318
  691MOL0     O95279   5.985   5.967   9.322  0.3557 -0.1638  0.0490
  691MOL0     C95280   5.983   5.916   9.190  0.5730 -0.6677  0.7218
  691MOL0     C95281   6.116   5.953   9.132 -0.1499  0.6735  0.1620
  691MOL0     C95282   6.121   5.933   8.979  0.9744 -0.0339 -0.0436
  691MOL0     C95283   6.252   6.001   8.935 -0.9924 -0.5020 -0.0566
  691MOL0     C95284   6.371   5.917   8.966 -0.1185 -0.6241  0.5252
  691MOL0     C95285   6.477   5.863   8.981  0.0016  0.0558 -0.6051
  691MOL0     C95286   5.747   5.965   9.318  0.2891 -0.1707 -0.0608
  691MOL0     C95287   5.625   5.997   9.383 -0.4947  0.1668 -1.6951
  691MOL0     C95288   5.496   5.976   9.311  0.1433 -0.0468 -0.5156
  691MOL0     H95289   5.267   5.945   9.620  3.2853  0.4299  1.7649
  691MOL0     H95290   5.075   5.962   9.735 -2.1733  0.4662 -0.2428
  691MOL0     H95291   4.878   5.989   9.800 -0.0161  0.2255  0.7888
  691MOL0     H95292   4.828   6.063   9.652 -0.7745 -0.8224  0.1610
  691MOL0     H95293   4.659   6.205   9.776 -0.8280 -0.0968  0.5158
  691MOL0     H95294   4.618   6.048   9.802  0.9669 -0.2733  0.3167
  691MOL0     H95295   4.631   6.079  10.031  0.2980 -1.7495 -0.5232
  691MOL0     H95296   4.799   6.050  10.005 -1.0695 -0.9883  2.2494
  691MOL0     H95297   4.731   6.233  10.151 -2.2087  0.5525  0.1747
  691MOL0     H95298   4.859   6.264  10.024  0.0045 -0.8743 -0.0411
  691MOL0     H95299   4.676   6.366   9.883 -0.9247  0.7060  0.4995
  691MOL0     H95300   4.731   6.456  10.014  1.1614 -1.3970  1.0650
  691MOL0     H95301   4.470   6.292   9.985 -1.4020 -0.4195  3.0835
  691MOL0     H95302   4.527   6.366  10.140  2.6450 -1.2078  0.0842
  691MOL0     H95303   4.455   6.506   9.879 -0.1510 -1.6922  0.3664
  691MOL0     H95304   4.542   6.585  10.005  3.0014 -1.2069 -4.0782
  691MOL0     H95305   4.313   6.646  10.024 -2.2535 -0.8945 -1.0494
  691MOL0     H95306   4.257   6.483  10.051  0.4591 -0.0012 -0.3764
  691MOL0     H95307   4.143   6.502  10.272  0.2620  1.4357  0.4587
  691MOL0     H95308   4.286   6.590  10.626  0.0497  1.5592  0.6980
  691MOL0     H95309   4.164   6.479  10.546  0.0317  0.8461  0.1848
  691MOL0     H95310   4.146   6.782  10.519 -0.8796 -0.1179 -1.3112
  691MOL0     H95311   4.023   6.647  10.496  0.0500 -0.4995  0.8341
  691MOL0     H95312   4.144   6.747  10.748 -0.4340 -1.6709 -0.0734
  691MOL0     H95313   3.978   6.791  10.697 -0.3777  0.9698  0.5379
  691MOL0     H95314   3.926   6.551  10.698  2.4502 -1.0198 -2.2542
  691MOL0     H95315   4.093   6.521  10.764  4.0609  4.3905  0.0338
  691MOL0     H95316   3.819   6.428  10.948  3.2059  1.6168 -1.2651
  691MOL0     H95317   3.488   6.368  10.919  2.8075  1.6615 -2.8669
  691MOL0     H95318   3.487   6.436  11.089 -2.1044  0.4356 -1.6183
  691MOL0     H95319   3.611   6.320  11.040 -1.8923 -4.1090 -3.7281
  691MOL0     H95320   3.180   6.703  10.805 -0.2836  0.5865 -0.7872
  691MOL0     H95321   2.956   6.741  10.799  2.0242 -3.8516  2.1827
  691MOL0     H95322   2.762   6.792  11.084  2.8701 -0.3009 -3.0953
  691MOL0     H95323   2.744   6.964  11.109 -4.3318  1.7802 -1.1544
  691MOL0     H95324   2.585   6.845  10.875 -1.4978 -3.4926  1.8569
  691MOL0     H95325   2.539   6.817  11.041  1.2525  1.6234  3.2051
  691MOL0     H95326   2.576   7.076  10.902  2.4370  1.2674  2.8917
  691MOL0     H95327   2.547   7.072  11.079  2.1492 -0.1962  0.3918
  691MOL0     H95328   2.332   7.043  11.052  1.6148 -0.0289  0.5603
  691MOL0     H95329   2.358   6.893  10.978  0.2201  0.8635  1.7786
  691MOL0     H95330   2.356   7.004  10.743  1.0176 -0.2730 -0.0056
  691MOL0     H95331   2.213   6.995  10.832 -0.9303  1.1281 -1.4948
  691MOL0     H95332   2.396   7.233  10.782  1.0095  1.8021  1.6239
  691MOL0     H95333   2.278   7.255  10.915  3.1928 -2.1733  2.0900
  691MOL0     H95334   2.084   7.244  10.754  0.1192  0.2489 -1.5719
  691MOL0     H95335   2.199   7.170  10.635  0.7762  0.5957 -0.9010
  691MOL0     H95336   2.135   7.404  10.579 -0.2563 -3.1364 -1.2746
  691MOL0     H95337   2.298   7.405  10.629  0.2155 -1.9943 -0.8073
  691MOL0     H95338   2.998   7.022  11.121  1.1561 -0.6470 -0.2219
  691MOL0     H95339   3.229   6.960  11.138  0.1870 -2.6748  2.2378
  691MOL0     H95340   3.605   6.865  10.931  1.0346 -0.0422  1.2515
  691MOL0     H95341   3.833   6.836  10.876 -1.0411  1.0371  2.3180
  691MOL0     H95342   5.088   6.398   9.716  0.1341 -0.7941  3.9132
  691MOL0     H95343   5.297   6.379   9.623  1.5138  0.0687  1.7471
  691MOL0     H95344   5.763   6.097   9.680 -0.6945  0.3444 -0.4491
  691MOL0     H95345   5.970   6.047   9.550  1.1079 -0.0488 -2.7304
  691MOL0     H95346   5.956   5.810   9.182 -1.5530 -0.1586  0.4858
  691MOL0     H95347   5.909   5.967   9.127 -1.3954 -1.0286  2.6114
  691MOL0     H95348   6.194   5.891   9.176  1.5893  2.5248 -0.1310
  691MOL0     H95349   6.137   6.053   9.173 -0.9186  2.1695 -2.7856
  691MOL0     H95350   6.120   5.829   8.945  0.2263  0.1993 -0.7510
  691MOL0     H95351   6.036   5.989   8.940  1.2912  0.7693  0.4001
  691MOL0     H95352   6.258   6.096   8.987 -1.5697 -0.2207 -0.4971
  691MOL0     H95353   6.256   6.041   8.833 -0.1242  3.4861  1.3781
  691MOL0     H95354   6.573   5.816   8.991 -0.2866 -0.3111  0.6630
  691MOL0     H95355   5.734   5.941   9.213 -5.3629  0.5804  0.1610
  691MOL0     H95356   5.441   5.898   9.365  0.6616 -1.6425 -2.2051
  691MOL0     H95357   5.440   6.070   9.305 -0.9864 -0.7342 -1.3754
  691MOL0     H95358   5.523   5.949   9.209 -1.9387  0.7941 -1.3355
  692MOL0     O95359   1.700   7.963   1.639  0.5302  1.1488  0.3002
  692MOL0     C95360   1.808   7.912   1.675 -0.9461  0.6820  0.6997
  692MOL0     O95361   1.878   7.947   1.784  0.6834  0.1665  0.6897
  692MOL0     C95362   1.846   8.049   1.872 -0.1983  0.0925  0.5669
  692MOL0     C95363   1.755   8.153   1.839 -0.4672  0.0620  0.1382
  692MOL0     C95364   1.728   8.259   1.926 -0.4999  0.0175 -0.3968
  692MOL0     C95365   1.783   8.259   2.056 -0.1843  0.5183  0.0547
  692MOL0     O95366   1.761   8.359   2.141  0.2683  0.6827 -0.5217
  692MOL0     C95367   1.626   8.391   2.173  0.8832 -0.5332  0.5085
  692MOL0     C95368   1.618   8.447   2.321 -0.2738  0.0551  1.2136
  692MOL0     C95369   1.735   8.541   2.352 -1.3118 -0.1362  0.1762
  692MOL0     C95370   1.717   8.610   2.490 -0.3767  0.4516  0.0014
  692MOL0     C95371   1.832   8.710   2.501 -0.4394 -0.7914  0.2973
  692MOL0     C95372   1.813   8.806   2.626 -0.9043  0.1178 -0.4255
  692MOL0     C95373   1.941   8.889   2.649 -1.1484 -0.2372 -0.5101
  692MOL0     C95374   1.935   8.959   2.784  0.4519  0.2608  0.4602
  692MOL0     N95375   2.065   9.010   2.826  0.0112 -0.5737  0.7883
  692MOL0     C95376   2.119   9.135   2.808 -0.2749  0.4687  0.8496
  692MOL0     C95377   2.245   9.127   2.844 -0.4106  0.0943 -0.2394
  692MOL0     C95378   2.337   9.250   2.840 -0.3985  0.6203 -0.4558
  692MOL0     C95379   2.428   9.232   2.715 -0.4471 -0.7920  0.1953
  692MOL0     C95380   2.485   9.360   2.664  2.8081  0.2295  0.7625
  692MOL0     C95381   2.551   9.337   2.527 -0.1555 -0.5904 -0.4234
  692MOL0     O95382   2.456   9.316   2.416 -0.7381 -0.0891 -0.2631
  692MOL0     C95383   2.394   9.426   2.366 -0.7110  0.3348  0.1687
  692MOL0     C95384   2.265   9.451   2.395 -1.0808  0.4083  0.1591
  692MOL0     C95385   2.188   9.559   2.343 -0.6280 -0.6014  0.1301
  692MOL0     C95386   2.041   9.577   2.371 -0.0212 -0.5224 -0.6558
  692MOL0     C95387   2.259   9.663   2.273 -0.2916 -0.2895 -0.1085
  692MOL0     C95388   2.199   9.788   2.230 -0.6299 -0.6068 -0.0760
  692MOL0     O95389   2.258   9.852   2.123  0.2511 -0.3294  1.1023
  692MOL0     C95390   2.197   9.958   2.055  0.4625 -0.1613  0.4528
  692MOL0     C95391   2.182  10.083   2.106  0.0373 -0.1499  1.3078
  692MOL0     C95392   2.118  10.188   2.041  0.1479  0.5357  0.1191
  692MOL0     C95393   2.075  10.166   1.913 -0.1321 -0.6158  0.2716
  692MOL0     O95394   2.019  10.266   1.845 -0.7613 -0.0231 -0.4350
  692MOL0     C95395   2.114  10.371   1.820  1.0616  0.7034 -0.5819
  692MOL0     C95396   2.077  10.427   1.691  0.1896 -0.3627  0.9803
  692MOL0     C95397   2.195  10.514   1.646  0.4836 -0.1080  0.1785
  692MOL0     C95398   2.153  10.659   1.629 -0.5169  0.4028  0.3576
  692MOL0     C95399   2.273  10.750   1.603  0.4004 -0.3598 -0.6020
  692MOL0     C95400   2.237  10.864   1.507 -0.4479  0.3355 -0.1206
  692MOL0     C95401   2.343  10.970   1.546  0.7491  0.0524 -0.3808
  692MOL0     C95402   2.305  11.105   1.489  0.5865  0.6449 -0.0525
  692MOL0    Cl95403   2.343  11.087   1.314  0.5452 -0.1607  0.0700
  692MOL0     C95404   2.087  10.040   1.855 -0.1372 -0.5853 -1.2368
  692MOL0     C95405   2.143   9.933   1.925 -0.0788 -0.5272  0.8698
  692MOL0     O95406   2.100   9.838   2.287  0.7328 -0.7916 -0.1781
  692MOL0     C95407   2.393   9.637   2.241 -0.0117 -0.0256  0.2913
  692MOL0     C95408   2.461   9.523   2.284 -0.0371 -0.9312  0.6069
  692MOL0     N95409   2.273   8.999   2.877 -0.3692  0.3964 -0.6861
  692MOL0     N95410   2.171   8.923   2.857  0.2037 -0.2651 -0.0393
  692MOL0     C95411   1.873   8.160   2.091  0.0072 -0.2671 -0.2422
  692MOL0     C95412   1.903   8.057   2.001 -0.5181  0.7488  0.5685
  692MOL0     C95413   1.850   7.784   1.610 -0.4064 -0.3654  0.5534
  692MOL0     C95414   1.758   7.686   1.578  0.4296  0.8237 -1.0293
  692MOL0     C95415   1.791   7.565   1.515  0.2172 -0.2846 -0.8088
  692MOL0     C95416   1.927   7.535   1.496 -0.2614  0.7971  0.1270
  692MOL0     O95417   1.958   7.401   1.460 -0.0407  0.4365 -0.6660
  692MOL0     C95418   1.986   7.333   1.583 -0.9499 -0.5972 -0.4335
  692MOL0     C95419   2.091   7.220   1.578  0.1888 -0.0170 -0.0094
  692MOL0     C95420   2.052   7.105   1.478  0.1713 -0.3732  0.2919
  692MOL0     C95421   2.156   6.993   1.470 -0.0149 -0.3721 -0.9370
  692MOL0     C95422   2.168   6.934   1.602 -0.1436  0.1769  0.1723
  692MOL0     C95423   2.148   6.882   1.714  1.1270 -0.3300  0.1481
  692MOL0     C95424   2.020   7.629   1.528  0.3031 -0.4030  0.3559
  692MOL0     C95425   1.987   7.752   1.578 -0.2158  0.5866  0.1707
  692MOL0     C95426   2.096   7.849   1.601 -0.5321  0.2646  0.0934
  692MOL0     H95427   1.705   8.167   1.743  0.1321  1.3913 -0.0047
  692MOL0     H95428   1.686   8.352   1.888  0.7552  0.1195 -1.5961
  692MOL0     H95429   1.560   8.304   2.167 -1.2645  0.9479  1.4092
  692MOL0     H95430   1.591   8.472   2.108 -2.4926  0.5976  3.4188
  692MOL0     H95431   1.521   8.494   2.335 -1.0966  1.5610 -5.9265
  692MOL0     H95432   1.637   8.371   2.398  4.5499  1.3287  1.6405
  692MOL0     H95433   1.831   8.489   2.351 -1.2596 -0.0366  0.0889
  692MOL0     H95434   1.752   8.618   2.277 -3.9341  0.6477  0.2796
  692MOL0     H95435   1.624   8.667   2.489  1.3791  3.4947 -0.3350
  692MOL0     H95436   1.726   8.539   2.573 -2.0983  2.2316  1.7951
  692MOL0     H95437   1.848   8.777   2.416 -0.2028  0.7115  1.4934
  692MOL0     H95438   1.931   8.665   2.519  2.8088  5.3025  0.2214
  692MOL0     H95439   1.729   8.872   2.601  0.2100  1.0134 -2.0823
  692MOL0     H95440   1.778   8.751   2.713 -0.7757 -0.0962 -0.5081
  692MOL0     H95441   1.949   8.962   2.568 -0.5444  0.0553 -0.1951
  692MOL0     H95442   2.030   8.826   2.643 -0.5497  0.6481 -1.2516
  692MOL0     H95443   1.858   9.037   2.788 -0.2803 -0.4828  1.4035
  692MOL0     H95444   1.906   8.880   2.854  0.1426  0.5872  0.7046
  692MOL0     H95445   2.068   9.227   2.781  0.6327  0.4817 -0.9937
  692MOL0     H95446   2.401   9.267   2.926  0.4057 -0.5128 -0.8051
  692MOL0     H95447   2.285   9.344   2.823  2.7552  2.6057  0.1025
  692MOL0     H95448   2.511   9.166   2.742  1.3375 -0.5125 -3.8283
  692MOL0     H95449   2.371   9.180   2.637 -0.8433 -0.9267  0.5657
  692MOL0     H95450   2.405   9.432   2.649  1.0396 -1.9034 -0.8078
  692MOL0     H95451   2.550   9.410   2.737  0.6422  1.4682  1.9181
  692MOL0     H95452   2.608   9.424   2.493  1.3848 -2.0556 -1.8581
  692MOL0     H95453   2.633   9.265   2.538  0.9409  0.4748 -1.4076
  692MOL0     H95454   2.239   9.394   2.484  2.6480 -1.7593  0.0615
  692MOL0     H95455   2.004   9.483   2.412 -0.1837 -0.8092 -1.4403
  692MOL0     H95456   1.978   9.595   2.283  0.5258  3.6892 -0.4056
  692MOL0     H95457   2.029   9.650   2.451 -2.1934 -1.7957  0.2663
  692MOL0     H95458   2.205  10.093   2.212 -0.0758  4.8320  1.1195
  692MOL0     H95459   2.101  10.278   2.099 -1.4771 -1.1082  2.3462
  692MOL0     H95460   2.093  10.452   1.889  0.7993  0.2329 -0.0995
  692MOL0     H95461   2.218  10.337   1.827 -0.0507 -3.9878 -2.5134
  692MOL0     H95462   2.058  10.349   1.617  0.1915  2.4859 -2.2541
  692MOL0     H95463   1.984  10.483   1.708 -0.6380 -1.5890  0.6212
  692MOL0     H95464   2.239  10.482   1.551  0.0637 -0.7750  0.2038
  692MOL0     H95465   2.265  10.516   1.730 -0.2922 -0.7533  0.8615
  692MOL0     H95466   2.091  10.695   1.711 -1.0004 -0.4424  0.3698
  692MOL0     H95467   2.087  10.672   1.543 -0.4234  1.0392  0.3772
  692MOL0     H95468   2.305  10.788   1.701  0.6219  2.1793 -1.5736
  692MOL0     H95469   2.363  10.706   1.559  0.7319  0.9034 -1.2365
  692MOL0     H95470   2.143  10.897   1.551 -0.6091 -1.5747  1.0781
  692MOL0     H95471   2.227  10.849   1.399  0.8195  4.1172 -0.9282
  692MOL0     H95472   2.444  10.931   1.538 -0.6742 -4.5550  1.3093
  692MOL0     H95473   2.334  10.997   1.652 -0.5484 -0.8601 -0.2393
  692MOL0     H95474   2.377  11.170   1.541  3.8946 -3.8567  1.6942
  692MOL0     H95475   2.205  11.145   1.508 -0.4317 -2.5895  2.2160
  692MOL0     H95476   2.046  10.022   1.756  0.7449 -0.6636 -1.5911
  692MOL0     H95477   2.155   9.836   1.877  0.5980  0.6258 -1.4311
  692MOL0     H95478   2.451   9.713   2.189 -1.0222  0.6715  0.1515
  692MOL0     H95479   2.568   9.535   2.267 -0.2379  2.4045  1.1295
  692MOL0     H95480   1.902   8.158   2.196  0.7119 -0.7163 -0.4352
  692MOL0     H95481   1.973   7.978   2.025 -1.5799  0.2358  2.1033
  692MOL0     H95482   1.652   7.700   1.591  0.7329  2.0228  0.4923
  692MOL0     H95483   1.719   7.488   1.490  3.4877 -4.2485  0.7924
  692MOL0     H95484   2.019   7.395   1.666  1.0671 -1.3467 -0.6162
  692MOL0     H95485   1.898   7.276   1.613 -0.5162 -0.7313  0.6163
  692MOL0     H95486   2.104   7.179   1.678  0.2138 -1.8570 -0.7276
  692MOL0     H95487   2.185   7.257   1.537  0.8120 -0.8839  0.6284
  692MOL0     H95488   1.956   7.060   1.501  0.1466 -0.0063  0.9286
  692MOL0     H95489   2.052   7.145   1.376  1.8522  0.8354  0.7064
  692MOL0     H95490   2.253   7.034   1.442 -0.0982 -0.1833 -0.9462
  692MOL0     H95491   2.133   6.913   1.399  0.0392 -0.2914 -1.0455
  692MOL0     H95492   2.109   6.849   1.808 -0.6047 -3.7413 -1.5607
  692MOL0     H95493   2.123   7.595   1.517  0.3006  0.0105 -1.0005
  692MOL0     H95494   2.077   7.942   1.547  0.7468  0.3593 -0.2364
  692MOL0     H95495   2.111   7.869   1.707 -0.7098 -1.0036  0.3711
  692MOL0     H95496   2.196   7.817   1.572 -0.6883 -0.8804  0.7484
  693MOL0     O95497  10.248   4.318   8.672 -0.6485  0.3747 -0.1514
  693MOL0     C95498  10.263   4.372   8.789  0.1709 -0.7516 -0.2870
  693MOL0     O95499  10.165   4.392   8.875  0.7209 -0.6346  0.9748
  693MOL0     C95500  10.030   4.380   8.830 -0.1654  0.9536 -0.9911
  693MOL0     C95501   9.937   4.329   8.922 -0.8216 -0.8382  0.4184
  693MOL0     C95502   9.804   4.319   8.892 -0.5257  1.0633  0.6043
  693MOL0     C95503   9.755   4.342   8.765  0.5566 -1.3581  0.2456
  693MOL0     O95504   9.633   4.303   8.708 -0.6953  0.4553  0.2373
  693MOL0     C95505   9.559   4.212   8.790 -0.0882  0.0703  0.0175
  693MOL0     C95506   9.482   4.113   8.689  0.1410 -0.8361 -0.1637
  693MOL0     C95507   9.417   3.991   8.742 -0.1333  0.3053 -0.2650
  693MOL0     C95508   9.346   3.911   8.624  0.6065 -1.0874 -0.1651
  693MOL0     C95509   9.212   3.976   8.579 -0.4553 -0.5466 -0.2956
  693MOL0     C95510   9.099   3.957   8.687  0.5362  0.8097  0.7259
  693MOL0     C95511   9.078   3.815   8.728  0.6755  0.5342 -0.0413
  693MOL0     C95512   8.933   3.816   8.777 -0.3867  0.1299  0.2343
  693MOL0     N95513   8.904   3.686   8.851  0.3240  1.0878  0.5556
  693MOL0     C95514   8.877   3.567   8.793  0.2479 -0.3229 -0.3945
  693MOL0     C95515   8.880   3.481   8.904  0.1468  0.2295  0.5334
  693MOL0     C95516   8.837   3.329   8.896  0.0019  0.4734  0.3952
  693MOL0     C95517   8.692   3.307   8.937 -0.2036  0.9939 -0.4845
  693MOL0     C95518   8.650   3.159   8.919 -0.2655 -0.4961 -0.1402
  693MOL0     C95519   8.675   3.095   8.775 -0.5603  0.0119 -0.1084
  693MOL0     O95520   8.645   2.951   8.790  0.0569 -0.5681 -0.1992
  693MOL0     C95521   8.612   2.882   8.679 -0.5255 -0.0392 -0.9577
  693MOL0     C95522   8.473   2.850   8.665 -0.7314  1.4458  0.5066
  693MOL0     C95523   8.427   2.806   8.543  0.8200 -0.1244  0.8591
  693MOL0     C95524   8.273   2.773   8.535  0.0400 -0.0477  0.6992
  693MOL0     C95525   8.513   2.779   8.431  0.7262 -0.6470 -0.1410
  693MOL0     C95526   8.467   2.737   8.297 -0.3697  0.2885  0.5342
  693MOL0     O95527   8.369   2.807   8.240 -0.6359  0.7281 -0.2485
  693MOL0     C95528   8.351   2.779   8.112  0.5556  0.6193  0.6291
  693MOL0     C95529   8.222   2.752   8.069  0.1198  0.0265 -0.1233
  693MOL0     C95530   8.195   2.749   7.936 -0.5173  1.3662  0.8110
  693MOL0     C95531   8.294   2.752   7.836 -0.6362  0.6070 -0.5179
  693MOL0     O95532   8.260   2.751   7.701 -0.4049  0.1171  0.4801
  693MOL0     C95533   8.136   2.706   7.653  0.7576  0.2404 -0.2641
  693MOL0     C95534   8.128   2.689   7.504 -0.3625  0.5218 -1.2676
  693MOL0     C95535   8.190   2.559   7.461 -0.0330 -0.7781 -0.1240
  693MOL0     C95536   8.232   2.561   7.312  0.4616 -0.5804 -1.1662
  693MOL0     C95537   8.362   2.644   7.288  0.5757  0.4301  0.2076
  693MOL0     C95538   8.422   2.614   7.155 -0.8571  1.4214 -0.6475
  693MOL0     C95539   8.551   2.700   7.137  0.5168  0.0080  0.0322
  693MOL0     C95540   8.610   2.671   7.004  1.1059 -0.0747 -0.4339
  693MOL0    Cl95541   8.695   2.522   7.003  0.2061 -0.3272 -0.1966
  693MOL0     C95542   8.427   2.782   7.887  0.6716  0.4904 -0.4254
  693MOL0     C95543   8.455   2.787   8.015 -0.7620 -0.5591  0.3625
  693MOL0     O95544   8.518   2.639   8.245  0.1870 -0.3439  0.2077
  693MOL0     C95545   8.651   2.813   8.443  0.5594 -0.3868 -0.6371
  693MOL0     C95546   8.696   2.873   8.565  0.8608 -0.0795  0.0968
  693MOL0     N95547   8.896   3.558   9.023 -0.7325  0.2476  0.1749
  693MOL0     N95548   8.899   3.676   8.989  0.1845 -0.9298 -0.4720
  693MOL0     C95549   9.844   4.396   8.671 -0.6987  0.2751  0.2954
  693MOL0     C95550   9.980   4.424   8.703 -0.0780 -0.1425  0.0833
  693MOL0     C95551  10.401   4.359   8.856  0.2902 -0.8378 -0.2138
  693MOL0     C95552  10.400   4.303   8.985  1.0425 -0.0754 -0.3555
  693MOL0     C95553  10.523   4.292   9.053 -0.0981  0.9571  0.0381
  693MOL0     C95554  10.648   4.319   8.991  0.5256 -0.0466 -0.3129
  693MOL0     O95555  10.769   4.303   9.041 -0.3511 -0.5475  0.2426
  693MOL0     C95556  10.787   4.264   9.181  0.1561 -0.3692 -1.3096
  693MOL0     C95557  10.930   4.203   9.199  0.2367 -0.6395 -0.0162
  693MOL0     C95558  10.930   4.056   9.161 -0.0335  0.0163  0.8263
  693MOL0     C95559  11.063   3.993   9.173  0.7543 -0.7761 -0.1577
  693MOL0     C95560  11.154   4.039   9.070  0.4313  0.4327  0.3375
  693MOL0     C95561  11.224   4.074   8.981  0.3489 -0.3160 -0.5824
  693MOL0     C95562  10.638   4.357   8.857 -0.9394 -0.0062 -0.0960
  693MOL0     C95563  10.521   4.380   8.789 -0.2306 -0.4700 -0.3166
  693MOL0     C95564  10.536   4.421   8.642 -0.0505 -0.5993  0.5303
  693MOL0     H95565   9.983   4.302   9.016  2.5407 -1.7978 -1.3013
  693MOL0     H95566   9.746   4.278   8.974  1.8270  0.1605  1.9194
  693MOL0     H95567   9.491   4.271   8.852  0.2185  0.8448 -0.3671
  693MOL0     H95568   9.631   4.145   8.838  0.9202 -0.3141 -1.9134
  693MOL0     H95569   9.406   4.176   8.643  0.5265 -1.7830 -2.2108
  693MOL0     H95570   9.550   4.079   8.611 -2.5460 -0.5642 -2.8278
  693MOL0     H95571   9.488   3.920   8.786  1.0495  0.2798 -2.1051
  693MOL0     H95572   9.350   4.024   8.821  0.9922  1.8600  0.0890
  693MOL0     H95573   9.413   3.918   8.538  0.8579  0.5623  0.1306
  693MOL0     H95574   9.342   3.806   8.652  3.5806 -0.7455  2.0009
  693MOL0     H95575   9.171   3.927   8.490  0.1923 -0.7443 -0.4884
  693MOL0     H95576   9.217   4.085   8.573 -2.8297 -0.4427 -1.4273
  693MOL0     H95577   9.123   4.019   8.774  2.9059 -0.5761  1.1424
  693MOL0     H95578   9.012   3.988   8.629  0.8248  1.6024  0.7040
  693MOL0     H95579   9.149   3.780   8.804 -0.2537  1.2707  1.2071
  693MOL0     H95580   9.083   3.740   8.649 -2.3934 -0.3019  0.4389
  693MOL0     H95581   8.909   3.899   8.844  0.7865  0.3433  0.4142
  693MOL0     H95582   8.863   3.821   8.693 -0.1880  0.3877  0.0825
  693MOL0     H95583   8.853   3.543   8.690 -0.1475  1.3653 -0.7262
  693MOL0     H95584   8.904   3.268   8.957  1.8742  3.6993  1.8710
  693MOL0     H95585   8.856   3.314   8.789  0.1525 -1.4321  0.6565
  693MOL0     H95586   8.676   3.343   9.039  1.8397  3.4219 -0.9099
  693MOL0     H95587   8.625   3.368   8.876  2.9590  2.6904 -2.5170
  693MOL0     H95588   8.708   3.106   8.996  2.7593  2.6345 -0.0251
  693MOL0     H95589   8.544   3.138   8.940 -0.4676 -0.4057 -1.0457
  693MOL0     H95590   8.615   3.151   8.702 -1.7009  1.6426  1.9629
  693MOL0     H95591   8.782   3.100   8.752 -1.0641  0.2106 -2.8569
  693MOL0     H95592   8.407   2.848   8.751 -0.4412  1.1734  0.7248
  693MOL0     H95593   8.214   2.859   8.503  0.7463 -0.3750 -1.6338
  693MOL0     H95594   8.223   2.732   8.624 -3.7098  3.5119  0.5355
  693MOL0     H95595   8.262   2.698   8.456  0.7736 -1.2401  1.6958
  693MOL0     H95596   8.143   2.754   8.143  0.1817  0.7463 -0.0682
  693MOL0     H95597   8.092   2.738   7.903  0.0871  1.5901 -1.2984
  693MOL0     H95598   8.099   2.614   7.699  0.6432  1.5814  2.5215
  693MOL0     H95599   8.061   2.782   7.674  0.5423  0.2187 -0.9380
  693MOL0     H95600   8.024   2.698   7.472 -0.1296 -0.0424 -2.2274
  693MOL0     H95601   8.169   2.781   7.463 -1.9268  3.4904  3.0954
  693MOL0     H95602   8.119   2.477   7.477 -0.3595 -0.6017 -0.6588
  693MOL0     H95603   8.277   2.535   7.524  0.1678 -2.0558 -0.8371
  693MOL0     H95604   8.147   2.594   7.253 -1.4993 -0.5080  1.4856
  693MOL0     H95605   8.242   2.458   7.276 -1.9668 -1.0977 -0.5807
  693MOL0     H95606   8.331   2.748   7.280  0.6106  0.4271  0.0485
  693MOL0     H95607   8.435   2.629   7.368  3.1598  2.7136 -1.5554
  693MOL0     H95608   8.349   2.629   7.075 -0.0041  0.8999 -1.5457
  693MOL0     H95609   8.455   2.511   7.136  0.2899  1.8368 -1.0103
  693MOL0     H95610   8.624   2.675   7.214 -1.7984 -0.7741  2.0930
  693MOL0     H95611   8.532   2.807   7.138  3.0461  0.5562 -1.6976
  693MOL0     H95612   8.686   2.747   6.983  1.0983 -0.3816 -1.6247
  693MOL0     H95613   8.539   2.675   6.922 -1.1769  1.7947  1.4745
  693MOL0     H95614   8.508   2.802   7.817  0.8587  0.6511 -0.1646
  693MOL0     H95615   8.558   2.811   8.037 -0.7347 -0.4697  0.1428
  693MOL0     H95616   8.713   2.804   8.355  1.0350  2.1475 -0.6618
  693MOL0     H95617   8.798   2.907   8.584  0.4933  2.2561 -1.6664
  693MOL0     H95618   9.802   4.422   8.574  2.5640  0.6968 -1.1363
  693MOL0     H95619  10.042   4.475   8.630  0.8209  1.5985  1.9528
  693MOL0     H95620  10.306   4.268   9.026  2.2007 -1.9293  0.8471
  693MOL0     H95621  10.510   4.237   9.146  0.7797  0.4228 -0.1540
  693MOL0     H95622  10.789   4.359   9.234 -1.5110 -0.3315 -1.2545
  693MOL0     H95623  10.707   4.204   9.224 -0.5010  1.5864  0.3305
  693MOL0     H95624  10.954   4.218   9.304 -1.3136  0.8608  0.1786
  693MOL0     H95625  10.986   4.254   9.120 -1.1867  0.3437 -0.4474
  693MOL0     H95626  10.871   3.992   9.228  1.0342  0.2951  2.0655
  693MOL0     H95627  10.881   4.036   9.065  0.7249 -3.5594  1.0313
  693MOL0     H95628  11.038   3.888   9.160  1.2590 -0.9118 -0.0441
  693MOL0     H95629  11.112   4.022   9.267 -0.7533  4.5883 -0.6879
  693MOL0     H95630  11.288   4.109   8.902  3.3852 -1.9668  0.9393
  693MOL0     H95631  10.735   4.352   8.808 -1.8486  1.5661 -2.1890
  693MOL0     H95632  10.465   4.499   8.616 -0.7920 -1.3679  0.2199
  693MOL0     H95633  10.634   4.455   8.608 -0.6284 -0.2487 -0.8628
  693MOL0     H95634  10.503   4.335   8.583 -1.7228  1.0339 -1.0310
  694MOL0     O95635   5.381   9.395   1.842  0.0439  0.8346  0.0486
  694MOL0     C95636   5.500   9.405   1.809  0.3544  0.6563  0.7646
  694MOL0     O95637   5.594   9.452   1.881 -0.0477  0.0104 -0.4787
  694MOL0     C95638   5.565   9.515   1.998 -0.7540 -0.2675  0.1885
  694MOL0     C95639   5.464   9.605   2.018  0.2436 -1.7929 -1.1012
  694MOL0     C95640   5.442   9.655   2.147  0.3528  0.8526 -0.5744
  694MOL0     C95641   5.525   9.627   2.254  0.1485 -0.8539 -0.4370
  694MOL0     O95642   5.484   9.679   2.377  1.0385  0.7655  0.1849
  694MOL0     C95643   5.569   9.654   2.484 -0.0270  0.3926  0.2600
  694MOL0     C95644   5.525   9.675   2.628  0.3457  0.5338  0.2361
  694MOL0     C95645   5.490   9.814   2.663  0.3420 -0.0853 -0.0898
  694MOL0     C95646   5.409   9.832   2.787  0.4836 -0.2754 -0.4914
  694MOL0     C95647   5.389   9.984   2.813 -0.2721  0.8436  0.4706
  694MOL0     C95648   5.300   9.995   2.938  0.1582  0.5673 -0.3156
  694MOL0     C95649   5.307  10.145   2.986 -0.2212 -0.1418  0.7166
  694MOL0     C95650   5.437  10.191   3.050  0.8479  1.1034  0.2732
  694MOL0     N95651   5.422  10.330   3.093  0.6043 -0.2888 -0.4814
  694MOL0     C95652   5.360  10.441   3.034  0.6700 -0.7155 -0.1796
  694MOL0     C95653   5.385  10.555   3.111  0.8102  0.5106 -0.1803
  694MOL0     C95654   5.312  10.682   3.097  0.2130 -0.1038 -0.5357
  694MOL0     C95655   5.403  10.794   3.037 -0.0238  0.5325  0.4512
  694MOL0     C95656   5.371  10.827   2.899 -0.4802 -0.1100 -0.5288
  694MOL0     C95657   5.449  10.948   2.839  0.7281 -0.6232 -0.0183
  694MOL0     O95658   5.400  11.062   2.903 -0.0335 -0.5174  0.0113
  694MOL0     C95659   5.417  11.183   2.843  0.0250 -0.6466 -0.3223
  694MOL0     C95660   5.490  11.209   2.730  0.0385 -0.8377 -0.2821
  694MOL0     C95661   5.510  11.337   2.689  0.3654 -0.3007  0.0448
  694MOL0     C95662   5.580  11.357   2.552 -0.0694 -0.2309 -0.2055
  694MOL0     C95663   5.456  11.447   2.765 -1.0379 -0.0102  0.6510
  694MOL0     C95664   5.460  11.585   2.725  0.5259 -0.2413 -0.1592
  694MOL0     O95665   5.367  11.674   2.777  0.5224  1.1329  0.1774
  694MOL0     C95666   5.405  11.807   2.783 -0.6428 -0.0012  0.1509
  694MOL0     C95667   5.526  11.863   2.834  0.2722  0.7935 -0.1699
  694MOL0     C95668   5.540  12.003   2.848  0.7530  0.4326 -0.0276
  694MOL0     C95669   5.442  12.096   2.806 -0.7041  0.4217  0.0538
  694MOL0     O95670   5.471  12.223   2.841 -0.3062 -0.1505 -0.1511
  694MOL0     C95671   5.369  12.324   2.812  0.3747 -0.5335  0.4889
  694MOL0     C95672   5.442  12.455   2.815 -0.5313 -0.8202 -1.2774
  694MOL0     C95673   5.372  12.575   2.752  0.4210 -0.8876  0.5288
  694MOL0     C95674   5.464  12.702   2.748 -0.2688  0.3801 -0.9659
  694MOL0     C95675   5.481  12.760   2.893  0.5519  0.0586  0.2728
  694MOL0     C95676   5.540  12.905   2.889 -0.3427  0.2848 -0.5884
  694MOL0     C95677   5.699  12.904   2.864  0.0720  0.6582  1.1368
  694MOL0     C95678   5.752  13.027   2.787 -0.3787  0.9992 -1.1096
  694MOL0    Cl95679   5.745  12.962   2.627 -0.3682 -0.5522  0.2771
  694MOL0     C95680   5.328  12.036   2.761  0.4474  1.5039  0.8717
  694MOL0     C95681   5.306  11.898   2.750 -0.1229  0.5075  0.0622
  694MOL0     O95682   5.563  11.623   2.664  0.4896  0.5377  0.6256
  694MOL0     C95683   5.392  11.414   2.889  0.3820 -1.2743 -0.2856
  694MOL0     C95684   5.370  11.288   2.921 -0.0259 -0.2439 -0.3527
  694MOL0     N95685   5.455  10.509   3.223 -0.5331 -0.0978  0.6111
  694MOL0     N95686   5.479  10.376   3.208  0.8767  0.2140  0.4930
  694MOL0     C95687   5.641   9.549   2.223 -0.9629  0.0031 -0.7981
  694MOL0     C95688   5.658   9.497   2.099 -0.3206 -0.2334 -0.8859
  694MOL0     C95689   5.520   9.366   1.662 -0.0143  1.1078 -0.3063
  694MOL0     C95690   5.404   9.316   1.591  0.2856  0.7537 -0.7695
  694MOL0     C95691   5.410   9.261   1.465  0.4663  0.3959  0.9303
  694MOL0     C95692   5.530   9.261   1.397 -1.0853  0.8602  0.0719
  694MOL0     O95693   5.551   9.182   1.281  0.0599  0.2347  0.2404
  694MOL0     C95694   5.674   9.176   1.200 -0.2333  0.0079  0.5317
  694MOL0     C95695   5.694   9.311   1.134 -0.8150  0.1262  0.4978
  694MOL0     C95696   5.584   9.369   1.049 -0.5015  0.7215  1.0179
  694MOL0     C95697   5.526   9.273   0.951 -0.0430  0.4245 -0.4551
  694MOL0     C95698   5.634   9.229   0.856 -0.0838  0.3120  0.8302
  694MOL0     C95699   5.712   9.211   0.757 -1.0902 -0.3571 -1.0855
  694MOL0     C95700   5.644   9.304   1.465  0.0240  0.2292  0.0929
  694MOL0     C95701   5.641   9.358   1.597  0.2489  1.3601  0.0614
  694MOL0     C95702   5.764   9.404   1.664 -0.1998  0.5794  0.5197
  694MOL0     H95703   5.398   9.635   1.937  0.9499 -0.3331 -1.1834
  694MOL0     H95704   5.350   9.711   2.157 -0.1659  0.0880 -0.9810
  694MOL0     H95705   5.659   9.716   2.477  0.5916 -0.2056  2.1951
  694MOL0     H95706   5.592   9.547   2.486  0.3520  0.4487 -0.7234
  694MOL0     H95707   5.429   9.625   2.646  0.4925  0.5440  1.0327
  694MOL0     H95708   5.603   9.627   2.687 -0.3842 -3.2726 -1.5415
  694MOL0     H95709   5.580   9.876   2.669  1.6128 -1.6715 -1.7791
  694MOL0     H95710   5.436   9.850   2.576 -1.9797  1.7117  1.9388
  694MOL0     H95711   5.311   9.783   2.786 -0.6814  1.9240  0.3306
  694MOL0     H95712   5.465   9.792   2.872 -4.1225 -2.5418  1.8736
  694MOL0     H95713   5.351  10.042   2.728 -1.2618 -0.3467  0.0653
  694MOL0     H95714   5.492  10.021   2.812  1.3365 -2.0691 -6.3568
  694MOL0     H95715   5.200   9.960   2.911  0.6641  0.5115 -2.2836
  694MOL0     H95716   5.342   9.929   3.015  1.6284 -0.9276 -2.2929
  694MOL0     H95717   5.219  10.177   3.042 -1.3605  1.4602 -1.8127
  694MOL0     H95718   5.287  10.194   2.890  1.2014 -3.5126 -1.4765
  694MOL0     H95719   5.463  10.109   3.118 -1.7455 -0.8527 -0.9209
  694MOL0     H95720   5.511  10.193   2.970  2.2355  2.9860  1.5265
  694MOL0     H95721   5.306  10.444   2.940  2.0355  2.2095 -0.9750
  694MOL0     H95722   5.264  10.710   3.191  1.1396  0.5204 -0.2316
  694MOL0     H95723   5.229  10.660   3.028  0.8196 -2.2139 -0.6681
  694MOL0     H95724   5.367  10.876   3.099 -0.1385  0.0867  0.9766
  694MOL0     H95725   5.508  10.770   3.051  0.0327 -1.2153 -2.1723
  694MOL0     H95726   5.401  10.738   2.843 -0.2337 -1.0061  0.9684
  694MOL0     H95727   5.265  10.850   2.885  0.1558  2.6549 -1.3838
  694MOL0     H95728   5.558  10.937   2.841  1.4432  2.2458 -5.4114
  694MOL0     H95729   5.423  10.948   2.733 -0.4876 -0.1727  0.2633
  694MOL0     H95730   5.518  11.134   2.656  0.1188  1.6629 -2.9698
  694MOL0     H95731   5.669  11.415   2.580  0.0786 -0.6677  0.2230
  694MOL0     H95732   5.511  11.410   2.485 -1.4266 -0.4326  0.9932
  694MOL0     H95733   5.622  11.265   2.510  2.7436  0.1948  1.3863
  694MOL0     H95734   5.591  11.793   2.885 -1.1900  0.3668  1.2148
  694MOL0     H95735   5.639  12.027   2.887  2.1316 -1.3730 -2.1594
  694MOL0     H95736   5.340  12.305   2.708  0.3428  3.8199 -0.4715
  694MOL0     H95737   5.286  12.318   2.883 -0.4314 -1.9129 -0.5209
  694MOL0     H95738   5.471  12.486   2.916 -0.8716  1.4044 -1.8143
  694MOL0     H95739   5.536  12.438   2.762  1.4251  2.1618  0.8645
  694MOL0     H95740   5.281  12.594   2.810  0.0446 -0.5932 -0.1542
  694MOL0     H95741   5.340  12.560   2.649  1.6696  1.1639 -0.2163
  694MOL0     H95742   5.412  12.782   2.694 -1.2050  1.4298  1.3144
  694MOL0     H95743   5.562  12.690   2.702  0.7145  0.9126  0.8671
  694MOL0     H95744   5.384  12.769   2.944  0.1680 -1.2589 -0.1915
  694MOL0     H95745   5.547  12.701   2.957  0.7373 -0.6148 -0.5230
  694MOL0     H95746   5.517  12.954   2.984 -0.8249  0.0178 -0.5638
  694MOL0     H95747   5.483  12.955   2.810 -1.2871  0.9207  0.4773
  694MOL0     H95748   5.728  12.812   2.811 -1.8827  1.6143 -1.8993
  694MOL0     H95749   5.750  12.889   2.959  0.5742 -0.7499  0.6799
  694MOL0     H95750   5.858  13.045   2.807 -0.4012  0.7123 -0.7199
  694MOL0     H95751   5.687  13.115   2.798  0.9431  2.1567 -2.2823
  694MOL0     H95752   5.247  12.102   2.733  0.8216  2.1089  1.2104
  694MOL0     H95753   5.212  11.864   2.707  1.5732  0.0901 -3.7119
  694MOL0     H95754   5.354  11.494   2.952 -1.1916 -2.8320  0.8262
  694MOL0     H95755   5.326  11.266   3.018 -0.2866 -0.0229 -0.4168
  694MOL0     H95756   5.714   9.518   2.298  0.1940 -2.3444 -2.7221
  694MOL0     H95757   5.743   9.432   2.077 -0.4303 -0.6842 -0.0390
  694MOL0     H95758   5.306   9.317   1.637  1.1717 -0.3328  1.3045
  694MOL0     H95759   5.318   9.234   1.415 -0.3967  1.8077  1.6995
  694MOL0     H95760   5.762   9.154   1.260 -0.4551 -1.4880  0.3344
  694MOL0     H95761   5.670   9.098   1.124  2.7136  2.1078 -2.0307
  694MOL0     H95762   5.794   9.303   1.090 -0.2392 -0.2573  1.8234
  694MOL0     H95763   5.715   9.386   1.210 -0.4335 -0.2874  0.8069
  694MOL0     H95764   5.510   9.418   1.113 -3.2772  0.3869 -1.7407
  694MOL0     H95765   5.637   9.440   0.985  1.5601 -0.3660  1.4332
  694MOL0     H95766   5.451   9.330   0.895 -1.5399 -0.9075  0.1212
  694MOL0     H95767   5.478   9.194   1.009  0.6385 -0.9040 -1.6446
  694MOL0     H95768   5.784   9.206   0.678  2.2319  1.8169  1.5258
  694MOL0     H95769   5.743   9.313   1.420  1.1432  0.1999  2.4151
  694MOL0     H95770   5.844   9.407   1.590  1.9420 -2.1777  2.5057
  694MOL0     H95771   5.763   9.504   1.709 -3.0778  1.1583 -0.5853
  694MOL0     H95772   5.798   9.336   1.742 -0.1899  0.1482  0.1419
  695MOL0     O95773   5.612  11.477   3.574  0.0236  0.4339  0.7517
  695MOL0     C95774   5.511  11.409   3.599  0.3027  0.6502 -0.5206
  695MOL0     O95775   5.491  11.281   3.565 -0.1173  0.5558  0.5184
  695MOL0     C95776   5.591  11.235   3.489  0.0681  0.4707 -0.8269
  695MOL0     C95777   5.565  11.239   3.354 -0.6809 -0.1241 -0.0590
  695MOL0     C95778   5.648  11.173   3.262 -0.0988  0.9135  0.4727
  695MOL0     C95779   5.766  11.108   3.310 -0.1607  0.3347 -0.0874
  695MOL0     O95780   5.866  11.054   3.231 -0.3602  0.4176 -0.9676
  695MOL0     C95781   5.825  10.962   3.128  0.4736 -0.1173 -0.3995
  695MOL0     C95782   5.811  10.815   3.161 -0.1475  0.1389  0.0001
  695MOL0     C95783   5.917  10.771   3.247  0.2917 -0.4415 -0.2407
  695MOL0     C95784   6.059  10.765   3.185 -0.5047  0.1035  0.1257
  695MOL0     C95785   6.136  10.634   3.232  0.8709  0.3650  0.3200
  695MOL0     C95786   6.284  10.611   3.172  0.2890 -0.7404  0.5127
  695MOL0     C95787   6.329  10.468   3.211 -0.7271  0.3726 -0.4157
  695MOL0     C95788   6.476  10.428   3.164  0.5429 -0.6871 -0.5763
  695MOL0     N95789   6.509  10.295   3.215 -0.9799 -0.5809 -0.0394
  695MOL0     C95790   6.531  10.263   3.346 -0.0626 -0.0574 -0.0459
  695MOL0     C95791   6.565  10.135   3.350 -0.1263 -0.7067  0.0065
  695MOL0     C95792   6.601  10.056   3.469 -0.3218  0.2180 -0.1978
  695MOL0     C95793   6.484   9.969   3.517 -0.1400  0.3500  0.1949
  695MOL0     C95794   6.554   9.865   3.607  0.7781  0.7827  0.1883
  695MOL0     C95795   6.439   9.778   3.666 -0.0046 -0.0717 -0.3938
  695MOL0     O95796   6.473   9.638   3.657  0.5829 -0.1661 -0.3615
  695MOL0     C95797   6.371   9.559   3.709  0.1069  0.8018 -0.4675
  695MOL0     C95798   6.276   9.602   3.807  0.1700 -0.7638 -0.2736
  695MOL0     C95799   6.193   9.513   3.880 -0.5234  0.5397 -0.5474
  695MOL0     C95800   6.109   9.588   3.986 -0.2672  0.3027 -0.0859
  695MOL0     C95801   6.202   9.377   3.843  0.3777 -0.0130 -0.1767
  695MOL0     C95802   6.111   9.272   3.916 -0.2255 -0.1484 -0.4715
  695MOL0     O95803   6.101   9.153   3.851  0.7389 -0.0994 -0.4581
  695MOL0     C95804   6.071   9.036   3.921  0.4596  0.1705  0.3935
  695MOL0     C95805   6.108   9.017   4.057  0.4759 -0.7062  0.0650
  695MOL0     C95806   6.079   8.905   4.121  0.4688 -0.2384 -0.4811
  695MOL0     C95807   6.014   8.800   4.058 -0.1449  0.1321  0.4125
  695MOL0     O95808   5.980   8.693   4.140  0.1154 -0.2103 -0.2881
  695MOL0     C95809   5.935   8.567   4.084  0.5806  1.2567  0.2572
  695MOL0     C95810   5.964   8.452   4.196 -0.2770 -0.3133 -0.0484
  695MOL0     C95811   5.876   8.472   4.323  0.1537  0.4922 -1.0414
  695MOL0     C95812   5.724   8.476   4.299  1.0174 -0.4070 -0.9241
  695MOL0     C95813   5.642   8.440   4.427  0.0709 -0.1662 -0.3931
  695MOL0     C95814   5.497   8.435   4.393 -0.1562 -0.6543 -1.0502
  695MOL0     C95815   5.408   8.445   4.519 -0.6223 -0.9746  0.2716
  695MOL0     C95816   5.277   8.383   4.478 -0.2180 -0.9759  0.1727
  695MOL0    Cl95817   5.136   8.423   4.596 -0.0029  0.4193 -0.1742
  695MOL0     C95818   5.981   8.809   3.918  0.4847  0.3785 -0.0297
  695MOL0     C95819   6.009   8.932   3.850  0.0804  0.7837  0.2313
  695MOL0     O95820   6.058   9.301   4.018  0.1996  0.1877  0.1540
  695MOL0     C95821   6.289   9.335   3.741  0.1818  0.1378 -0.3071
  695MOL0     C95822   6.379   9.422   3.684  0.7391  0.3567 -0.4072
  695MOL0     N95823   6.562  10.090   3.219  0.4180  0.2136  0.4060
  695MOL0     N95824   6.536  10.185   3.140  0.0140 -0.1816  0.2398
  695MOL0     C95825   5.787  11.105   3.443 -0.0975 -0.2715  0.0653
  695MOL0     C95826   5.701  11.164   3.529 -0.2344 -0.2775 -0.1869
  695MOL0     C95827   5.390  11.482   3.656 -0.0610  0.2379  0.7327
  695MOL0     C95828   5.415  11.604   3.717  0.0211  0.3274  0.4991
  695MOL0     C95829   5.323  11.683   3.786  0.7316  0.3671 -0.2844
  695MOL0     C95830   5.187  11.635   3.795 -1.7785  0.8408 -0.7305
  695MOL0     O95831   5.080  11.695   3.849  0.9357  0.5323  0.3813
  695MOL0     C95832   5.109  11.748   3.979 -1.0411  0.4858  0.3007
  695MOL0     C95833   5.091  11.628   4.075  0.1481 -0.4777 -0.5480
  695MOL0     C95834   5.069  11.685   4.214  0.5872  0.3935 -0.3967
  695MOL0     C95835   5.061  11.591   4.338 -0.8590  0.4200 -0.5448
  695MOL0     C95836   4.994  11.466   4.300  0.3915  0.5638 -0.4388
  695MOL0     C95837   4.951  11.358   4.291  0.1185  0.8183  0.4737
  695MOL0     C95838   5.163  11.510   3.742  0.0602  0.2334 -1.3585
  695MOL0     C95839   5.260  11.434   3.675 -0.6136  0.3016 -0.6624
  695MOL0     C95840   5.221  11.296   3.638 -0.4082  0.1993  0.0650
  695MOL0     H95841   5.475  11.288   3.318 -0.8469  1.3467  2.1325
  695MOL0     H95842   5.622  11.166   3.157  0.8670 -0.4912  0.2860
  695MOL0     H95843   5.910  10.964   3.059 -0.5740  2.1905 -1.7250
  695MOL0     H95844   5.736  11.003   3.080  2.1178  2.1634 -1.6806
  695MOL0     H95845   5.710  10.803   3.202 -0.0199  0.3598  0.3847
  695MOL0     H95846   5.819  10.754   3.071  1.6830 -1.3547  1.1028
  695MOL0     H95847   5.927  10.832   3.337  3.9745  1.6260 -1.8385
  695MOL0     H95848   5.884  10.673   3.282 -0.3038  0.1707  1.0074
  695MOL0     H95849   6.043  10.753   3.077 -0.2731 -2.6925  0.3223
  695MOL0     H95850   6.107  10.857   3.218 -1.9774  0.2917  1.8644
  695MOL0     H95851   6.076  10.546   3.207  3.0022 -1.4800  1.4253
  695MOL0     H95852   6.151  10.629   3.341  1.1653 -0.7934  0.2373
  695MOL0     H95853   6.278  10.627   3.064  1.0532  2.9023  0.8871
  695MOL0     H95854   6.354  10.686   3.210  1.1966 -0.6780 -1.1855
  695MOL0     H95855   6.253  10.410   3.159  0.0364  0.4509 -1.6537
  695MOL0     H95856   6.319  10.451   3.318  0.7931  0.1968 -0.2797
  695MOL0     H95857   6.472  10.421   3.055 -0.0165 -0.0114 -0.6043
  695MOL0     H95858   6.551  10.501   3.196 -1.8316  0.0132  4.4522
  695MOL0     H95859   6.521  10.336   3.425 -1.3880  2.4840 -2.3881
  695MOL0     H95860   6.650  10.115   3.547 -0.9703  1.4406 -0.6811
  695MOL0     H95861   6.680   9.986   3.438  0.8417  1.5138 -0.2936
  695MOL0     H95862   6.406  10.026   3.568  0.0260 -0.4651  1.4180
  695MOL0     H95863   6.446   9.917   3.428  0.7942 -0.5284  0.2862
  695MOL0     H95864   6.607   9.808   3.530 -1.9824  1.1212 -2.1343
  695MOL0     H95865   6.608   9.906   3.693  1.2880 -2.8841  1.8046
  695MOL0     H95866   6.424   9.802   3.771 -3.0230  0.4623 -0.8588
  695MOL0     H95867   6.342   9.799   3.620 -0.1087  1.4591  0.4739
  695MOL0     H95868   6.274   9.707   3.832 -0.6603 -1.2685  2.0207
  695MOL0     H95869   6.131   9.694   3.975 -0.0934  0.0592 -2.7502
  695MOL0     H95870   6.137   9.558   4.087  3.0928 -2.3386 -1.5954
  695MOL0     H95871   6.004   9.568   3.963 -0.6024  0.0895  1.5519
  695MOL0     H95872   6.164   9.094   4.108 -2.5240  1.6504  0.0755
  695MOL0     H95873   6.094   8.894   4.228 -1.0188 -5.6943 -0.5107
  695MOL0     H95874   5.829   8.563   4.061 -0.4497  2.5223  4.0457
  695MOL0     H95875   5.994   8.546   3.994 -0.6293  0.8724 -0.4599
  695MOL0     H95876   5.950   8.354   4.148 -0.0173 -0.3505 -0.0471
  695MOL0     H95877   6.070   8.443   4.221 -0.7874 -1.0422  2.0935
  695MOL0     H95878   5.915   8.562   4.373 -1.7801 -0.0907  1.7039
  695MOL0     H95879   5.907   8.391   4.390  3.2397 -0.5228 -3.4567
  695MOL0     H95880   5.712   8.402   4.219 -3.7158 -1.3960  0.3858
  695MOL0     H95881   5.691   8.570   4.255 -2.3928 -0.0915  1.8673
  695MOL0     H95882   5.663   8.345   4.477 -0.6477  0.4381  1.1303
  695MOL0     H95883   5.664   8.518   4.500  2.0508 -0.9222 -0.1243
  695MOL0     H95884   5.473   8.341   4.342  0.3221 -0.9232 -0.7844
  695MOL0     H95885   5.474   8.519   4.327 -0.8390  1.6628  1.9149
  695MOL0     H95886   5.397   8.547   4.557 -2.1880 -0.0750 -2.3628
  695MOL0     H95887   5.452   8.383   4.598  0.2859  1.3913  1.7262
  695MOL0     H95888   5.283   8.275   4.462 -1.2320 -1.2137  1.2350
  695MOL0     H95889   5.251   8.428   4.382  0.8093 -0.7254  0.0067
  695MOL0     H95890   5.945   8.724   3.861  2.3300  0.5233 -1.5062
  695MOL0     H95891   5.987   8.956   3.747 -0.3879  1.3698  0.4595
  695MOL0     H95892   6.277   9.233   3.706 -1.5054  0.1897  0.0230
  695MOL0     H95893   6.451   9.385   3.612  3.4081 -1.8448  3.0607
  695MOL0     H95894   5.881  11.056   3.466 -0.2660 -0.0877  1.1668
  695MOL0     H95895   5.721  11.160   3.636  5.5130 -2.4554 -1.0051
  695MOL0     H95896   5.515  11.647   3.722  0.1143  0.0524  1.2080
  695MOL0     H95897   5.362  11.774   3.829 -1.6730  0.7591  1.3032
  695MOL0     H95898   5.203  11.801   3.996 -0.0311 -1.0183 -0.3489
  695MOL0     H95899   5.031  11.823   3.995  0.0374  1.6620  0.2175
  695MOL0     H95900   5.182  11.566   4.067 -0.3712 -1.0337 -2.9516
  695MOL0     H95901   5.001  11.574   4.045  0.5777 -0.5688 -1.7421
  695MOL0     H95902   5.140  11.766   4.235  0.9063  0.2858 -1.0587
  695MOL0     H95903   4.967  11.725   4.206  1.0156  1.3101 -1.5500
  695MOL0     H95904   5.015  11.648   4.419 -0.4353 -0.7042  0.5219
  695MOL0     H95905   5.158  11.561   4.380  0.2474  2.5558 -1.4178
  695MOL0     H95906   4.909  11.260   4.281 -2.4271  1.9727 -1.0994
  695MOL0     H95907   5.057  11.488   3.743  0.0811 -0.0300 -2.6362
  695MOL0     H95908   5.242  11.274   3.533  2.2541 -0.2481  0.6376
  695MOL0     H95909   5.273  11.229   3.706 -1.0873 -1.0888 -0.6546
  695MOL0     H95910   5.113  11.283   3.651 -0.2255 -1.8319 -0.1743
  696MOL0     O95911  11.357   1.628   8.103 -0.1862 -0.0808  0.2139
  696MOL0     C95912  11.444   1.540   8.109  0.3372  0.3331  0.6310
  696MOL0     O95913  11.570   1.568   8.065  0.0998 -0.4684  0.1163
  696MOL0     C95914  11.558   1.619   7.940 -0.0798 -0.2626  0.2739
  696MOL0     C95915  11.561   1.758   7.926 -0.5598  0.0562 -0.2877
  696MOL0     C95916  11.529   1.819   7.806 -0.1868 -0.7494  0.2407
  696MOL0     C95917  11.517   1.742   7.690  0.5977  0.5842  0.3948
  696MOL0     O95918  11.497   1.816   7.572  0.9484  0.4090 -0.5849
  696MOL0     C95919  11.530   1.737   7.453 -0.1313 -0.7116  0.2665
  696MOL0     C95920  11.544   1.816   7.319  0.6185  0.1557  0.2094
  696MOL0     C95921  11.413   1.813   7.234  0.5130 -0.5377  0.1721
  696MOL0     C95922  11.427   1.912   7.117 -0.0581 -0.2793  0.1640
  696MOL0     C95923  11.303   1.915   7.027  0.1945  0.0720  1.1443
  696MOL0     C95924  11.329   1.983   6.897 -0.3383 -0.4622 -0.1449
  696MOL0     C95925  11.203   2.028   6.816  0.4285  0.0371 -0.5273
  696MOL0     C95926  11.233   2.081   6.676  0.5796  0.4560  0.3189
  696MOL0     N95927  11.125   2.165   6.614 -0.2923  0.3504  0.2703
  696MOL0     C95928  11.028   2.247   6.676  0.1978 -0.4430 -0.6620
  696MOL0     C95929  10.964   2.304   6.577  0.5338  0.1126 -0.2509
  696MOL0     C95930  10.857   2.404   6.591  0.0697  0.6231 -0.3357
  696MOL0     C95931  10.912   2.539   6.580  0.0745 -0.5441 -0.0571
  696MOL0     C95932  10.837   2.646   6.504 -0.3042 -0.1515 -0.3520
  696MOL0     C95933  10.695   2.659   6.573  0.7244  0.8721 -0.6494
  696MOL0     O95934  10.619   2.768   6.516  0.0938 -0.0894  0.0006
  696MOL0     C95935  10.497   2.787   6.578 -0.2713 -1.3594  0.3901
  696MOL0     C95936  10.450   2.760   6.709 -1.2781  0.3001 -0.3442
  696MOL0     C95937  10.325   2.778   6.761  0.3742 -0.2584 -0.2554
  696MOL0     C95938  10.307   2.746   6.903  0.4305 -0.5121 -0.1712
  696MOL0     C95939  10.236   2.828   6.670  1.4622 -0.2840 -1.0634
  696MOL0     C95940  10.100   2.859   6.715 -0.8100 -0.2296 -0.6155
  696MOL0     O95941  10.016   2.911   6.613 -0.7532  0.5979  0.5226
  696MOL0     C95942   9.884   2.942   6.648  0.5396 -0.5547  1.0942
  696MOL0     C95943   9.821   3.020   6.544  0.2010  0.0650 -0.6449
  696MOL0     C95944   9.679   3.044   6.556 -0.3496  0.0843 -0.5928
  696MOL0     C95945   9.603   2.993   6.658 -0.0845  0.2755  0.2637
  696MOL0     O95946   9.474   3.028   6.659  0.3800  0.6041 -0.3025
  696MOL0     C95947   9.394   2.967   6.765 -0.4968 -0.2310  0.4485
  696MOL0     C95948   9.248   2.999   6.759  0.0806  0.8181 -0.5396
  696MOL0     C95949   9.227   3.144   6.799 -0.4895 -0.0527  0.0987
  696MOL0     C95950   9.083   3.198   6.779  0.5022 -0.0042  0.1902
  696MOL0     C95951   9.023   3.185   6.637 -0.4418 -0.0914 -0.1288
  696MOL0     C95952   8.885   3.251   6.625  0.3367 -0.2630 -0.4315
  696MOL0     C95953   8.808   3.197   6.507 -0.4892  0.7036  0.8012
  696MOL0     C95954   8.663   3.256   6.494 -0.3696 -0.3568  0.2841
  696MOL0    Cl95955   8.574   3.273   6.646 -0.2329 -0.0920  0.0367
  696MOL0     C95956   9.665   2.912   6.762 -0.3382 -0.4252  0.2824
  696MOL0     C95957   9.808   2.893   6.752  0.6707 -0.6831  0.3719
  696MOL0     O95958  10.073   2.876   6.830 -0.1027 -0.2825  0.6007
  696MOL0     C95959  10.274   2.855   6.536  1.7280 -0.6957 -0.6605
  696MOL0     C95960  10.406   2.841   6.493 -0.1795 -1.1497  0.6817
  696MOL0     N95961  11.005   2.252   6.455 -0.4309  0.2279 -0.7599
  696MOL0     N95962  11.111   2.177   6.479  0.6561  0.1879  0.2515
  696MOL0     C95963  11.532   1.604   7.698  0.0204 -0.0753 -0.5085
  696MOL0     C95964  11.551   1.543   7.822  0.1417  0.0764 -0.9076
  696MOL0     C95965  11.424   1.406   8.165  0.6907  0.3043 -0.0007
  696MOL0     C95966  11.526   1.308   8.146  0.1744 -0.7060  0.0295
  696MOL0     C95967  11.518   1.186   8.208  0.0656 -1.2341  0.3586
  696MOL0     C95968  11.412   1.158   8.282 -0.4216  0.1752  0.3736
  696MOL0     O95969  11.432   1.040   8.348  0.9537 -0.5822 -1.0820
  696MOL0     C95970  11.346   0.991   8.450 -0.0571 -0.1871  0.2294
  696MOL0     C95971  11.342   1.074   8.573 -0.5304  0.4075 -0.1383
  696MOL0     C95972  11.439   1.031   8.685 -1.2184 -0.2981  0.0220
  696MOL0     C95973  11.425   1.093   8.826  0.0504  0.0623 -0.8143
  696MOL0     C95974  11.284   1.080   8.871 -0.0864 -0.5521 -0.0426
  696MOL0     C95975  11.167   1.074   8.912 -0.8840  0.1483  0.2304
  696MOL0     C95976  11.299   1.244   8.295  0.6153 -0.1837  0.3727
  696MOL0     C95977  11.314   1.376   8.244  0.8702 -0.2417  0.9362
  696MOL0     C95978  11.202   1.474   8.278 -0.6737  0.5769 -0.1754
  696MOL0     H95979  11.581   1.821   8.012 -1.4551 -0.5436  0.3842
  696MOL0     H95980  11.520   1.927   7.805 -2.3056 -0.8950  0.6231
  696MOL0     H95981  11.469   1.649   7.430  0.2984 -1.3996  1.6558
  696MOL0     H95982  11.629   1.691   7.464  0.4036  0.4768  0.5795
  696MOL0     H95983  11.563   1.920   7.349 -1.1827  0.3319  0.8437
  696MOL0     H95984  11.635   1.781   7.269 -0.0306 -0.4308 -0.5884
  696MOL0     H95985  11.402   1.714   7.189 -1.9069  0.1230 -0.8288
  696MOL0     H95986  11.320   1.836   7.287 -0.2903 -0.4776 -1.2250
  696MOL0     H95987  11.444   2.013   7.154  1.2358 -0.3287 -0.2518
  696MOL0     H95988  11.515   1.885   7.058  0.1557  0.3300  0.1974
  696MOL0     H95989  11.224   1.969   7.081 -3.3383 -1.2481 -2.2474
  696MOL0     H95990  11.275   1.810   7.019 -2.1379  0.7769 -0.9729
  696MOL0     H95991  11.381   2.074   6.929 -0.2310 -0.7941  0.6669
  696MOL0     H95992  11.395   1.920   6.836 -2.8163 -0.5116 -3.0266
  696MOL0     H95993  11.159   2.114   6.868 -2.2728 -0.1991 -2.2700
  696MOL0     H95994  11.125   1.952   6.817  0.4750 -0.0110 -0.0258
  696MOL0     H95995  11.328   2.134   6.663  0.9332 -0.5673 -1.6444
  696MOL0     H95996  11.249   1.988   6.622 -2.0843 -1.4823  2.5755
  696MOL0     H95997  11.013   2.283   6.778  4.1356  1.6538 -0.6157
  696MOL0     H95998  10.797   2.388   6.681 -0.9280  4.7575 -0.0415
  696MOL0     H95999  10.800   2.397   6.498 -0.6655  0.2702  0.1305
  696MOL0     H96000  10.941   2.578   6.678 -0.4333  2.1091 -0.8831
  696MOL0     H96001  11.009   2.529   6.531  0.6462  0.1262  0.8851
  696MOL0     H96002  10.881   2.745   6.518 -0.1900 -0.1903 -0.4373
  696MOL0     H96003  10.841   2.618   6.398  0.5373  3.1571 -1.3235
  696MOL0     H96004  10.637   2.566   6.567  1.5960  0.3847 -1.8225
  696MOL0     H96005  10.729   2.676   6.675  2.6423 -2.5431 -0.5615
  696MOL0     H96006  10.538   2.735   6.768 -2.7812 -1.9751  1.0510
  696MOL0     H96007  10.304   2.836   6.966  0.3179 -2.0466  2.0974
  696MOL0     H96008  10.395   2.693   6.941  1.3682  0.7161 -0.5203
  696MOL0     H96009  10.223   2.679   6.918  1.1962 -1.7607 -1.2786
  696MOL0     H96010   9.874   3.060   6.458  0.1009  3.5176  0.7391
  696MOL0     H96011   9.647   3.122   6.486  3.4896  1.7271 -0.7912
  696MOL0     H96012   9.399   2.858   6.765 -3.3029 -0.4702  2.4296
  696MOL0     H96013   9.427   2.997   6.865  2.1096 -0.1212 -0.3573
  696MOL0     H96014   9.223   2.983   6.654  1.0921 -0.1196 -0.6615
  696MOL0     H96015   9.193   2.933   6.827 -0.7845  2.5819  0.5362
  696MOL0     H96016   9.303   3.204   6.749 -0.5741 -0.2712 -0.2953
  696MOL0     H96017   9.232   3.158   6.907 -0.8539  1.5897 -0.0690
  696MOL0     H96018   9.086   3.301   6.815  2.7967 -0.1895  0.6939
  696MOL0     H96019   9.016   3.136   6.840  1.9484 -1.5164  0.3119
  696MOL0     H96020   9.087   3.227   6.559 -1.1987  3.4552  0.9750
  696MOL0     H96021   9.015   3.079   6.614 -0.2385  0.3591 -2.6384
  696MOL0     H96022   8.919   3.354   6.610 -2.5105  1.6507  4.1990
  696MOL0     H96023   8.827   3.244   6.717 -0.8772 -0.1676 -1.1607
  696MOL0     H96024   8.797   3.091   6.528 -0.2241  0.7444  1.1554
  696MOL0     H96025   8.866   3.224   6.419 -1.7937  2.7386  0.4929
  696MOL0     H96026   8.603   3.195   6.427  2.6863  1.3705 -4.5092
  696MOL0     H96027   8.659   3.355   6.448  0.6012  0.5608  2.0426
  696MOL0     H96028   9.615   2.887   6.855 -1.2978 -0.8424 -0.3372
  696MOL0     H96029   9.849   2.827   6.829 -0.7237 -0.5919  1.2371
  696MOL0     H96030  10.208   2.877   6.453  1.8995 -0.2346 -0.6780
  696MOL0     H96031  10.420   2.852   6.386 -1.8701 -1.3623  0.4077
  696MOL0     H96032  11.516   1.532   7.618  0.5793  2.1878 -2.7518
  696MOL0     H96033  11.547   1.435   7.830  0.0019  0.2402  2.1726
  696MOL0     H96034  11.607   1.328   8.077 -1.5450 -0.4736 -2.0393
  696MOL0     H96035  11.598   1.117   8.183 -0.3420 -1.5051 -0.2318
  696MOL0     H96036  11.245   1.000   8.410  0.1207 -0.9502 -0.4102
  696MOL0     H96037  11.374   0.887   8.470 -0.2099 -0.1513  0.6413
  696MOL0     H96038  11.237   1.064   8.602 -0.7744  2.4735 -0.1563
  696MOL0     H96039  11.362   1.180   8.556 -1.5726  0.9806  1.8691
  696MOL0     H96040  11.414   0.926   8.704  0.1552 -0.8752 -1.1524
  696MOL0     H96041  11.540   1.059   8.653 -0.9816 -0.6964  0.4133
  696MOL0     H96042  11.469   1.192   8.843  1.2816 -0.5087 -0.5823
  696MOL0     H96043  11.477   1.029   8.897 -1.4217  0.3783  0.6010
  696MOL0     H96044  11.074   1.069   8.966 -0.4955  1.4201  1.0716
  696MOL0     H96045  11.217   1.219   8.361  0.8484 -1.8025  0.0904
  696MOL0     H96046  11.238   1.554   8.343  0.3136  1.0346 -1.2605
  696MOL0     H96047  11.160   1.528   8.192 -1.9687 -1.2576 -0.7816
  696MOL0     H96048  11.114   1.427   8.324 -0.4230  0.3903  0.1137
  697MOL0     O96049   9.642  11.229   6.402  0.2286  0.5302  0.3333
  697MOL0     C96050   9.630  11.117   6.460 -0.2099  0.5470  0.1833
  697MOL0     O96051   9.737  11.031   6.488  0.8216 -0.0235 -0.6429
  697MOL0     C96052   9.864  11.091   6.493  0.7501 -1.3359  0.7151
  697MOL0     C96053   9.925  11.100   6.368  0.1435  0.5454  0.8571
  697MOL0     C96054  10.060  11.149   6.356  0.2502  0.4537  0.6384
  697MOL0     C96055  10.123  11.190   6.472  0.1706 -0.8719  0.3886
  697MOL0     O96056  10.252  11.236   6.476  0.5723 -0.3518  0.1329
  697MOL0     C96057  10.359  11.181   6.397 -0.2952  0.8427 -0.6284
  697MOL0     C96058  10.472  11.271   6.428 -0.6745  0.0138 -1.1046
  697MOL0     C96059  10.476  11.408   6.359  1.0379 -0.1968 -0.3138
  697MOL0     C96060  10.623  11.463   6.358  0.5777  0.4022 -0.8370
  697MOL0     C96061  10.611  11.604   6.293  0.1248  0.5473  0.0923
  697MOL0     C96062  10.744  11.665   6.274 -0.3587  0.6182 -0.2055
  697MOL0     C96063  10.724  11.809   6.222  0.1644 -0.8282  0.1278
  697MOL0     C96064  10.856  11.888   6.230  1.1835 -0.0819  0.4551
  697MOL0     N96065  10.855  12.036   6.191  0.2746  0.1546  0.7407
  697MOL0     C96066  10.795  12.131   6.261 -0.5147 -0.1711 -0.7286
  697MOL0     C96067  10.807  12.240   6.183  0.3253  0.4816 -0.6395
  697MOL0     C96068  10.765  12.380   6.227 -0.1087  0.4876  0.6418
  697MOL0     C96069  10.777  12.483   6.119  0.4389  0.2101 -1.1146
  697MOL0     C96070  10.767  12.622   6.180  0.4563  0.1497  0.5231
  697MOL0     C96071  10.784  12.746   6.087  0.0950 -0.1376 -0.4124
  697MOL0     O96072  10.666  12.775   6.012 -0.4294  0.0065  0.0852
  697MOL0     C96073  10.685  12.837   5.888 -0.0252 -1.2100 -0.0406
  697MOL0     C96074  10.797  12.900   5.831  0.1631 -0.6457  0.3420
  697MOL0     C96075  10.803  12.946   5.701  0.1090 -0.7422 -0.6424
  697MOL0     C96076  10.938  12.990   5.644 -0.6569 -0.0096 -0.6655
  697MOL0     C96077  10.687  12.938   5.614  0.2105  0.2119  0.3432
  697MOL0     C96078  10.672  12.978   5.473 -0.2492 -0.0021  0.1780
  697MOL0     O96079  10.542  12.986   5.419  0.5767 -0.4636  0.1621
  697MOL0     C96080  10.512  13.055   5.300  0.6293  0.4430  1.3234
  697MOL0     C96081  10.591  13.158   5.240 -0.1111 -0.0711 -0.1234
  697MOL0     C96082  10.540  13.234   5.134  0.1319 -0.5914 -0.4725
  697MOL0     C96083  10.416  13.210   5.081 -0.2648  0.2825 -0.3931
  697MOL0     O96084  10.375  13.297   4.982  0.2436 -0.0506  0.8501
  697MOL0     C96085  10.276  13.255   4.883  0.1401  0.2391 -0.3221
  697MOL0     C96086  10.351  13.171   4.771 -0.0596 -0.8113  0.6073
  697MOL0     C96087  10.446  13.252   4.676 -0.3041  0.1533 -0.5412
  697MOL0     C96088  10.592  13.202   4.669 -0.1185 -0.3250  0.4321
  697MOL0     C96089  10.694  13.320   4.672 -0.7217  0.0596 -0.7287
  697MOL0     C96090  10.701  13.382   4.814 -0.5563  0.6621  0.8247
  697MOL0     C96091  10.730  13.532   4.801  0.3730 -0.5434  1.0437
  697MOL0     C96092  10.795  13.592   4.929  0.1283  0.5909  0.4640
  697MOL0    Cl96093  10.795  13.771   4.912 -0.3165  0.3193  0.1736
  697MOL0     C96094  10.339  13.103   5.124 -0.2172 -0.7177 -1.0531
  697MOL0     C96095  10.385  13.034   5.235  0.1788 -0.5975 -0.0341
  697MOL0     O96096  10.775  13.011   5.418 -0.0167  0.2486 -1.0067
  697MOL0     C96097  10.567  12.885   5.675  0.0412  0.8325 -0.3076
  697MOL0     C96098  10.572  12.836   5.810  0.8185  0.4805 -0.2829
  697MOL0     N96099  10.872  12.201   6.063 -0.5279 -0.4561  0.0702
  697MOL0     N96100  10.912  12.078   6.079  0.1107 -0.2774  0.3591
  697MOL0     C96101  10.058  11.178   6.597  0.7823  0.3877  0.0315
  697MOL0     C96102   9.926  11.134   6.612 -0.9849  0.2576  0.1627
  697MOL0     C96103   9.505  11.060   6.497 -0.2088 -1.0139 -0.7760
  697MOL0     C96104   9.486  10.926   6.491 -0.5833  0.0685 -0.3546
  697MOL0     C96105   9.365  10.870   6.539 -0.4408  0.8139 -0.4960
  697MOL0     C96106   9.264  10.944   6.592  0.0900 -1.4252 -0.8219
  697MOL0     O96107   9.151  10.900   6.641 -0.1837  0.0970 -0.1605
  697MOL0     C96108   9.145  10.753   6.649  0.2578  0.3761 -0.3099
  697MOL0     C96109   9.033  10.718   6.738  0.3709  0.3305  0.6520
  697MOL0     C96110   8.902  10.771   6.674 -0.0221  0.4023 -0.4515
  697MOL0     C96111   8.778  10.727   6.743  0.3973  0.2538  0.7218
  697MOL0     C96112   8.768  10.789   6.871  0.6697 -0.3786  0.2837
  697MOL0     C96113   8.758  10.850   6.973 -0.0061  0.6269  0.5020
  697MOL0     C96114   9.281  11.084   6.597 -0.4202  0.1381  0.4226
  697MOL0     C96115   9.402  11.144   6.552 -0.0159 -0.2993  0.0284
  697MOL0     C96116   9.421  11.287   6.584  0.0623 -0.4249  0.2811
  697MOL0     H96117   9.872  11.066   6.280  0.0313 -1.8446  1.7626
  697MOL0     H96118  10.097  11.159   6.255 -0.1367  1.4598  0.5799
  697MOL0     H96119  10.349  11.178   6.288  0.8677 -1.2536 -0.7384
  697MOL0     H96120  10.393  11.081   6.427 -4.0117 -0.8066 -1.2306
  697MOL0     H96121  10.472  11.285   6.537  1.6700 -0.3243 -1.0172
  697MOL0     H96122  10.560  11.211   6.406 -1.1127 -1.2242  0.3245
  697MOL0     H96123  10.443  11.393   6.256  2.6321 -1.4016 -0.6980
  697MOL0     H96124  10.409  11.473   6.415  2.3166  0.0212  1.0406
  697MOL0     H96125  10.664  11.474   6.459  2.1128 -1.6250 -1.1765
  697MOL0     H96126  10.681  11.383   6.310 -1.2261  0.2660 -2.9868
  697MOL0     H96127  10.545  11.660   6.360  0.6896 -1.4952  2.4911
  697MOL0     H96128  10.572  11.609   6.191  0.1675  0.6857  0.0829
  697MOL0     H96129  10.792  11.665   6.372 -1.1373 -2.9203  0.3241
  697MOL0     H96130  10.807  11.599   6.212  0.5025 -1.1733  2.4084
  697MOL0     H96131  10.646  11.856   6.282 -1.5387 -1.7371 -1.2913
  697MOL0     H96132  10.689  11.803   6.118  2.9118 -1.2865 -0.8644
  697MOL0     H96133  10.897  11.875   6.331  1.3602 -2.5265  0.1334
  697MOL0     H96134  10.926  11.835   6.164 -1.1456 -3.4137  0.4121
  697MOL0     H96135  10.754  12.129   6.362  0.2619 -1.6174 -0.4247
  697MOL0     H96136  10.828  12.414   6.309 -0.6337  0.4923  1.0502
  697MOL0     H96137  10.663  12.385   6.267 -0.5990 -2.2056 -0.0697
  697MOL0     H96138  10.867  12.465   6.058  1.3879 -3.0700  1.0390
  697MOL0     H96139  10.694  12.457   6.052  0.0157 -2.1660  0.2481
  697MOL0     H96140  10.670  12.644   6.225  0.4874 -0.0443  0.6845
  697MOL0     H96141  10.848  12.617   6.253  1.4576  1.2002 -0.4602
  697MOL0     H96142  10.813  12.831   6.150  1.3169 -1.6381  1.1816
  697MOL0     H96143  10.863  12.716   6.017 -0.6182  0.3512 -1.4558
  697MOL0     H96144  10.886  12.891   5.893  0.3730  0.6011  0.2624
  697MOL0     H96145  10.945  13.090   5.602  2.5259  0.2256  0.1410
  697MOL0     H96146  10.961  12.919   5.564  1.1333  0.5616 -0.7123
  697MOL0     H96147  11.019  12.963   5.713  0.5759 -2.5656 -2.9592
  697MOL0     H96148  10.689  13.185   5.278  0.3950 -0.3457 -1.1805
  697MOL0     H96149  10.604  13.309   5.089 -0.3383  0.5839  0.7365
  697MOL0     H96150  10.190  13.202   4.924  0.5874  0.1852  0.5976
  697MOL0     H96151  10.222  13.343   4.846 -1.2659 -0.7184 -0.6110
  697MOL0     H96152  10.411  13.091   4.816 -0.5080 -2.3550 -1.3954
  697MOL0     H96153  10.275  13.121   4.710  1.5985 -1.4267 -1.0258
  697MOL0     H96154  10.454  13.353   4.717  1.2111 -0.7658  1.6507
  697MOL0     H96155  10.397  13.268   4.580 -2.2085  1.7922  0.6165
  697MOL0     H96156  10.606  13.142   4.579 -2.0772  0.9907 -0.8360
  697MOL0     H96157  10.624  13.138   4.751  1.0519  1.5821  1.5427
  697MOL0     H96158  10.790  13.289   4.630 -1.0149 -0.4520 -1.0287
  697MOL0     H96159  10.658  13.400   4.606 -0.1513 -0.1022 -1.2402
  697MOL0     H96160  10.774  13.333   4.879 -2.6374 -2.7979  0.8019
  697MOL0     H96161  10.601  13.374   4.857 -0.9234 -1.4061 -0.2722
  697MOL0     H96162  10.628  13.571   4.791  1.5152  2.3583 -0.0732
  697MOL0     H96163  10.783  13.556   4.709 -3.9558  1.0447 -1.2885
  697MOL0     H96164  10.897  13.552   4.937  0.5403  1.1035 -1.5911
  697MOL0     H96165  10.743  13.569   5.022  0.5127 -1.3106  0.2616
  697MOL0     H96166  10.249  13.059   5.083 -1.1281 -0.0299  0.1278
  697MOL0     H96167  10.323  12.951   5.267 -1.3151  0.5155  0.0299
  697MOL0     H96168  10.471  12.871   5.625 -1.6895 -1.0102  3.1223
  697MOL0     H96169  10.477  12.793   5.841 -0.0002  2.1106 -0.4551
  697MOL0     H96170  10.115  11.203   6.686  0.6593 -2.2319  0.9216
  697MOL0     H96171   9.873  11.116   6.706 -1.0859  5.1076  1.3094
  697MOL0     H96172   9.553  10.860   6.437 -0.1341 -0.2373  0.5522
  697MOL0     H96173   9.371  10.762   6.532  3.1296  0.3647  4.4142
  697MOL0     H96174   9.138  10.705   6.551 -1.2557 -2.2580  0.9587
  697MOL0     H96175   9.236  10.710   6.691  1.4141 -0.6519 -3.5793
  697MOL0     H96176   9.047  10.767   6.834  0.5684  1.4020  0.1005
  697MOL0     H96177   9.048  10.611   6.755  2.4115  0.1988 -1.3894
  697MOL0     H96178   8.902  10.881   6.672  1.8554  0.4947  1.1412
  697MOL0     H96179   8.899  10.730   6.573 -0.6979 -4.5408  1.3001
  697MOL0     H96180   8.750  10.621   6.749 -1.3065  0.7816  4.1375
  697MOL0     H96181   8.696  10.758   6.678  1.9325 -0.6341 -1.7814
  697MOL0     H96182   8.728  10.900   7.063 -1.9733  1.1252 -0.3777
  697MOL0     H96183   9.208  11.143   6.651 -1.3283 -0.1403 -0.4879
  697MOL0     H96184   9.445  11.355   6.502  2.9667  0.8792  2.0424
  697MOL0     H96185   9.327  11.329   6.621  1.3649  1.9995  1.0239
  697MOL0     H96186   9.491  11.292   6.668  1.5927 -2.3206 -0.7875
  698MOL0     O96187   9.206   7.595   5.551  0.3508  0.0118 -0.0757
  698MOL0     C96188   9.281   7.692   5.552  0.9834 -0.1101 -0.2418
  698MOL0     O96189   9.255   7.808   5.488  0.6333 -0.9671  0.4932
  698MOL0     C96190   9.148   7.827   5.397 -0.5879 -0.5056  0.4430
  698MOL0     C96191   9.097   7.950   5.376  0.1879 -0.1231  0.5235
  698MOL0     C96192   9.011   7.968   5.261 -0.0669 -0.0627  0.4284
  698MOL0     C96193   8.972   7.871   5.171 -0.7671  0.4030  1.2667
  698MOL0     O96194   8.874   7.912   5.082 -0.5322 -0.4138  0.0387
  698MOL0     C96195   8.829   7.812   4.989 -0.1898  0.0733 -0.2137
  698MOL0     C96196   8.702   7.842   4.899 -0.2062 -0.2621 -0.1602
  698MOL0     C96197   8.714   7.966   4.808  0.8814  0.7017 -0.6684
  698MOL0     C96198   8.598   7.981   4.704 -0.2105  0.1160  0.3394
  698MOL0     C96199   8.635   8.091   4.604 -0.0388 -0.3635  0.1908
  698MOL0     C96200   8.572   8.097   4.468 -0.5466 -0.5041  0.3982
  698MOL0     C96201   8.412   8.094   4.473  0.8382 -0.3356 -0.3754
  698MOL0     C96202   8.357   8.103   4.335 -0.4816  0.0042 -1.0203
  698MOL0     N96203   8.233   8.193   4.325 -0.0741  0.7542 -0.1588
  698MOL0     C96204   8.107   8.174   4.385  0.6748 -0.1554  0.5784
  698MOL0     C96205   8.027   8.249   4.304  0.3135 -0.3402  0.1352
  698MOL0     C96206   7.876   8.257   4.312  0.5784 -0.7551 -0.8715
  698MOL0     C96207   7.815   8.403   4.321 -0.1576 -0.0779  0.3854
  698MOL0     C96208   7.668   8.413   4.346  0.4011 -0.0838  0.1234
  698MOL0     C96209   7.597   8.296   4.282  0.5669 -0.6185 -0.5097
  698MOL0     O96210   7.453   8.323   4.311  0.6545  0.7017  0.3112
  698MOL0     C96211   7.396   8.434   4.265 -0.0523 -0.1859  0.2522
  698MOL0     C96212   7.316   8.502   4.352 -0.9872  0.6758  0.2824
  698MOL0     C96213   7.241   8.616   4.321  1.1026 -0.3726  0.3555
  698MOL0     C96214   7.155   8.687   4.416 -0.3251  0.4006  0.3967
  698MOL0     C96215   7.236   8.662   4.181  0.3352 -0.2518 -0.3901
  698MOL0     C96216   7.163   8.775   4.122 -0.1593  0.0844 -0.7501
  698MOL0     O96217   7.232   8.847   4.033 -0.2531  0.1263  0.1131
  698MOL0     C96218   7.184   8.948   3.963 -0.4105 -1.0951 -0.5189
  698MOL0     C96219   7.256   8.985   3.849 -0.1568 -0.1802  0.2785
  698MOL0     C96220   7.233   9.099   3.783 -0.3165  0.7957 -0.1882
  698MOL0     C96221   7.134   9.187   3.827 -0.2933 -0.2406 -0.0285
  698MOL0     O96222   7.089   9.295   3.756  0.5641 -0.2053 -0.7021
  698MOL0     C96223   7.160   9.333   3.638  0.6568  1.3162  0.0715
  698MOL0     C96224   7.121   9.474   3.582 -1.1156  0.8528  1.0498
  698MOL0     C96225   7.009   9.474   3.491 -0.0106  0.2314  0.8017
  698MOL0     C96226   6.995   9.611   3.422  1.1115  0.0778 -0.3239
  698MOL0     C96227   6.861   9.620   3.344  0.3103 -0.0588 -0.5078
  698MOL0     C96228   6.865   9.542   3.215 -0.0412 -0.0979  0.0127
  698MOL0     C96229   6.757   9.574   3.113 -0.6963 -0.3382 -0.4756
  698MOL0     C96230   6.614   9.539   3.161 -0.4777 -0.5563  0.3419
  698MOL0    Cl96231   6.591   9.366   3.196 -0.0136  0.3018 -0.8072
  698MOL0     C96232   7.065   9.156   3.940 -0.5299  0.1431  0.0751
  698MOL0     C96233   7.096   9.039   4.007  1.0218  0.8286 -0.2314
  698MOL0     O96234   7.051   8.796   4.157  0.2311  0.3410  0.4027
  698MOL0     C96235   7.319   8.593   4.090 -0.0739 -0.0991 -0.3529
  698MOL0     C96236   7.402   8.487   4.130 -0.2555 -0.5968  0.1126
  698MOL0     N96237   8.104   8.316   4.210 -0.3034  0.1935  0.1318
  698MOL0     N96238   8.233   8.281   4.218  1.3372  0.8686 -0.0597
  698MOL0     C96239   9.037   7.742   5.192  0.7503 -0.1396  0.4689
  698MOL0     C96240   9.129   7.731   5.293  0.5537 -0.0571  0.5366
  698MOL0     C96241   9.405   7.685   5.644  0.1659 -0.5912  0.4759
  698MOL0     C96242   9.483   7.801   5.666 -0.0478 -0.4946 -0.4756
  698MOL0     C96243   9.600   7.804   5.737  1.1550  0.3375 -0.1371
  698MOL0     C96244   9.638   7.685   5.808 -0.2305  0.2214  0.2455
  698MOL0     O96245   9.755   7.714   5.877  0.0907  0.6801  0.3381
  698MOL0     C96246   9.839   7.611   5.918 -0.0514 -0.1027 -0.2191
  698MOL0     C96247   9.943   7.660   6.014 -0.2141 -0.0778 -0.3424
  698MOL0     C96248  10.079   7.692   5.958  0.1609  1.3785  0.3086
  698MOL0     C96249  10.085   7.818   5.854  0.5705 -0.0080  0.0160
  698MOL0     C96250  10.221   7.832   5.802 -0.5864 -0.2501 -0.9426
  698MOL0     C96251  10.345   7.842   5.767  0.0750 -0.5724  0.5918
  698MOL0     C96252   9.556   7.566   5.799  0.0640 -0.1698  0.4995
  698MOL0     C96253   9.440   7.566   5.708  0.0882 -0.1786  0.1949
  698MOL0     C96254   9.377   7.436   5.684  0.3273 -0.0907 -0.1647
  698MOL0     H96255   9.128   8.026   5.447  2.2119 -2.6501  2.5146
  698MOL0     H96256   8.972   8.067   5.237  0.3252 -0.4126 -1.9087
  698MOL0     H96257   8.800   7.717   5.036 -1.1737  0.1049 -0.7329
  698MOL0     H96258   8.921   7.792   4.933  1.2092  1.4282  1.4950
  698MOL0     H96259   8.700   7.753   4.836  2.0626 -0.9204  0.5873
  698MOL0     H96260   8.616   7.833   4.966  1.4392  0.3122  2.1657
  698MOL0     H96261   8.720   8.055   4.871  1.4700  0.8504 -0.9309
  698MOL0     H96262   8.811   7.978   4.760  1.0632  0.4240 -0.3730
  698MOL0     H96263   8.585   7.887   4.650 -0.0912 -0.1540  0.7823
  698MOL0     H96264   8.501   8.000   4.751  0.1093  0.1523  0.9799
  698MOL0     H96265   8.742   8.091   4.581 -0.3991  1.7324 -1.9293
  698MOL0     H96266   8.620   8.185   4.658  2.9408  1.4649 -1.8413
  698MOL0     H96267   8.606   8.191   4.425  1.4203 -1.6905 -0.8044
  698MOL0     H96268   8.602   8.013   4.404 -1.0271  0.0823 -0.6180
  698MOL0     H96269   8.381   8.184   4.528 -0.5407 -1.6317  1.0387
  698MOL0     H96270   8.376   8.001   4.516 -3.1427  0.6163 -1.2792
  698MOL0     H96271   8.430   8.161   4.278 -1.2775  1.1800 -0.8797
  698MOL0     H96272   8.342   8.000   4.301 -0.9970  0.1161 -1.1444
  698MOL0     H96273   8.077   8.103   4.462  1.5850 -0.7531  0.3956
  698MOL0     H96274   7.855   8.215   4.410 -0.8509  1.2406 -0.2600
  698MOL0     H96275   7.831   8.197   4.232  0.7782 -0.0706 -1.5056
  698MOL0     H96276   7.870   8.465   4.392 -0.8462  1.8757 -0.6981
  698MOL0     H96277   7.850   8.454   4.231 -0.1873  0.7167  0.8132
  698MOL0     H96278   7.652   8.415   4.454 -1.4937 -2.2690 -0.0289
  698MOL0     H96279   7.638   8.512   4.311 -2.3403  0.0465  2.4414
  698MOL0     H96280   7.619   8.291   4.175 -2.6623 -0.0059 -1.2940
  698MOL0     H96281   7.630   8.208   4.338 -1.3295 -2.1941 -1.7238
  698MOL0     H96282   7.311   8.462   4.452  0.0957 -0.3098 -0.0252
  698MOL0     H96283   7.051   8.703   4.386 -0.2440  0.6783  0.2591
  698MOL0     H96284   7.194   8.787   4.437 -1.8850  0.4306  3.8874
  698MOL0     H96285   7.146   8.619   4.501 -0.1913 -0.7632 -0.4988
  698MOL0     H96286   7.338   8.924   3.812 -0.9108 -1.0908  0.0655
  698MOL0     H96287   7.280   9.106   3.685 -0.2260 -0.5904 -0.2762
  698MOL0     H96288   7.267   9.331   3.660  0.7608 -0.6701 -0.3911
  698MOL0     H96289   7.146   9.254   3.564  0.8349  1.4920 -0.1521
  698MOL0     H96290   7.096   9.538   3.667  0.7246 -0.3498  2.5804
  698MOL0     H96291   7.214   9.510   3.535 -1.1705 -1.6493 -1.1671
  698MOL0     H96292   6.925   9.448   3.555 -1.4885 -1.8903 -1.8092
  698MOL0     H96293   7.028   9.395   3.418  2.7525 -1.3057  2.9391
  698MOL0     H96294   7.079   9.635   3.357 -0.5610  0.3900 -2.5112
  698MOL0     H96295   6.988   9.682   3.505  1.6436 -2.4750  2.0116
  698MOL0     H96296   6.783   9.577   3.408  0.1820  0.1460 -0.5266
  698MOL0     H96297   6.835   9.724   3.327  3.2159  0.5864 -1.4798
  698MOL0     H96298   6.846   9.438   3.241 -0.3702 -0.3683 -1.2305
  698MOL0     H96299   6.963   9.544   3.167  0.5808 -0.0766  1.2551
  698MOL0     H96300   6.775   9.528   3.015  1.2201  3.6527 -2.2046
  698MOL0     H96301   6.772   9.680   3.092  0.9628 -0.4581 -0.0100
  698MOL0     H96302   6.552   9.569   3.076 -3.2169  0.7663  2.6373
  698MOL0     H96303   6.595   9.602   3.247  0.9678  2.3400 -1.3151
  698MOL0     H96304   6.990   9.226   3.974 -0.8235  0.0531 -0.3785
  698MOL0     H96305   7.041   9.006   4.095 -0.9982  2.0335 -0.9802
  698MOL0     H96306   7.339   8.625   3.988 -1.2084 -1.7946 -1.1480
  698MOL0     H96307   7.460   8.438   4.052 -1.8421  0.3350 -1.7567
  698MOL0     H96308   9.030   7.661   5.120  0.3519 -2.2204  2.7186
  698MOL0     H96309   9.176   7.634   5.293  3.1798  1.0074 -2.5732
  698MOL0     H96310   9.439   7.897   5.645 -2.4479 -0.7024  2.8787
  698MOL0     H96311   9.649   7.898   5.760 -0.6263  0.6622  2.8524
  698MOL0     H96312   9.787   7.533   5.974 -1.4926  2.1051  1.7116
  698MOL0     H96313   9.890   7.574   5.828  1.2608  0.4123  0.2956
  698MOL0     H96314   9.952   7.579   6.087 -0.3065 -1.0148 -1.3393
  698MOL0     H96315   9.907   7.742   6.076 -4.5416 -1.2634 -0.9778
  698MOL0     H96316  10.152   7.723   6.033 -1.8002  0.0483  2.9252
  698MOL0     H96317  10.121   7.606   5.907 -2.6389  1.1024 -1.7768
  698MOL0     H96318  10.065   7.912   5.905  1.5589  0.1688  0.0855
  698MOL0     H96319  10.022   7.798   5.767  0.3763 -3.5776  0.8390
  698MOL0     H96320  10.445   7.849   5.730 -0.1351 -0.2010  0.0797
  698MOL0     H96321   9.579   7.482   5.863  0.2389  0.7322  1.6433
  698MOL0     H96322   9.380   7.402   5.580  1.2117 -2.3221  0.5272
  698MOL0     H96323   9.438   7.362   5.736  0.3292  0.8483  1.2374
  698MOL0     H96324   9.272   7.432   5.716  0.4583 -0.8471  0.1890
  699MOL0     O96325   2.144   5.288   2.922 -0.2855 -1.3464  0.6649
  699MOL0     C96326   2.238   5.283   3.001 -0.7980  0.4552  0.8741
  699MOL0     O96327   2.237   5.260   3.135  0.4541  0.2583  0.8819
  699MOL0     C96328   2.120   5.256   3.214  0.6603  0.9567 -0.8450
  699MOL0     C96329   1.990   5.232   3.169  0.5835  0.0639 -0.1363
  699MOL0     C96330   1.876   5.260   3.255  0.5832  1.3081  0.0371
  699MOL0     C96331   1.888   5.309   3.391 -0.2156 -0.1412  0.3864
  699MOL0     O96332   1.786   5.334   3.477 -0.6817 -0.1991  0.1439
  699MOL0     C96333   1.666   5.249   3.483 -0.5779 -0.1117  0.2774
  699MOL0     C96334   1.553   5.325   3.425  0.1454 -0.5684  0.4771
  699MOL0     C96335   1.418   5.251   3.455 -0.5991 -0.2594  0.4841
  699MOL0     C96336   1.292   5.311   3.391  0.7234 -0.3551 -1.0766
  699MOL0     C96337   1.168   5.254   3.446 -0.9210 -0.9080 -0.1542
  699MOL0     C96338   1.037   5.333   3.432  0.2467  0.0222 -0.5388
  699MOL0     C96339   0.939   5.277   3.322 -0.3967  0.1856  0.3766
  699MOL0     C96340   0.790   5.289   3.352 -0.0380  0.0712 -0.0025
  699MOL0     N96341   0.738   5.419   3.307  0.5012  0.7327 -0.2863
  699MOL0     C96342   0.706   5.455   3.179  0.8298  0.6660 -0.0081
  699MOL0     C96343   0.668   5.586   3.190  0.7991  0.2164  0.3562
  699MOL0     C96344   0.662   5.662   3.062 -1.2587  0.4025  0.2555
  699MOL0     C96345   0.788   5.753   3.048 -0.1195  0.3560  1.2269
  699MOL0     C96346   0.915   5.682   3.005  0.0792  0.5573 -0.8893
  699MOL0     C96347   1.031   5.770   2.979 -0.4818  0.1244 -0.1776
  699MOL0     O96348   1.004   5.854   2.871  0.3842  0.2305  0.6579
  699MOL0     C96349   1.098   5.950   2.843  0.2741  0.3681 -0.5693
  699MOL0     C96350   1.234   5.933   2.876 -0.5483  1.2642  0.5077
  699MOL0     C96351   1.326   6.034   2.845 -0.5826  0.9849 -0.8173
  699MOL0     C96352   1.466   5.994   2.870  0.7890 -1.2843 -0.5851
  699MOL0     C96353   1.293   6.153   2.776 -0.6540 -0.7561  1.2457
  699MOL0     C96354   1.383   6.267   2.741 -0.3731 -0.0628  0.0230
  699MOL0     O96355   1.523   6.264   2.775  0.2288 -0.0044 -0.1893
  699MOL0     C96356   1.589   6.381   2.748 -0.1693  0.5404 -0.8387
  699MOL0     C96357   1.704   6.355   2.673 -0.6095  0.2387  0.1224
  699MOL0     C96358   1.804   6.451   2.664  0.0877 -0.2624  0.3654
  699MOL0     C96359   1.783   6.576   2.703  0.4480 -1.4351 -0.2737
  699MOL0     O96360   1.880   6.677   2.706 -0.0726  0.3680 -0.2664
  699MOL0     C96361   1.971   6.653   2.811  0.1182  0.2842 -0.4066
  699MOL0     C96362   1.938   6.725   2.947  0.1162 -0.4405  0.0838
  699MOL0     C96363   2.048   6.692   3.057  0.2473  0.0698  0.8682
  699MOL0     C96364   2.192   6.743   3.036  0.6540 -1.3058  0.2155
  699MOL0     C96365   2.266   6.766   3.163 -0.1969 -0.0604 -0.0539
  699MOL0     C96366   2.400   6.842   3.134 -0.2896  0.0820  0.5685
  699MOL0     C96367   2.458   6.895   3.261  1.2832  0.3815  0.6835
  699MOL0     C96368   2.592   6.962   3.227 -0.2513  0.0857  0.7446
  699MOL0    Cl96369   2.638   7.061   3.360 -0.3941 -0.0573  0.2556
  699MOL0     C96370   1.653   6.610   2.755  1.1093 -0.6430 -0.0231
  699MOL0     C96371   1.559   6.513   2.782 -0.2651  0.1198  0.8048
  699MOL0     O96372   1.337   6.360   2.677 -0.5306 -0.0270 -0.3404
  699MOL0     C96373   1.155   6.160   2.744  0.3085  0.0087  0.3856
  699MOL0     C96374   1.060   6.065   2.774 -0.8134 -0.4495 -0.3115
  699MOL0     N96375   0.664   5.622   3.326 -0.6330  0.7122  0.8646
  699MOL0     N96376   0.708   5.519   3.394  0.1136  0.7088  1.0711
  699MOL0     C96377   2.020   5.333   3.427 -0.0990  0.3701 -0.1182
  699MOL0     C96378   2.130   5.303   3.347 -0.2571 -0.8996  0.5096
  699MOL0     C96379   2.356   5.264   2.917 -0.5005  0.8322 -0.9745
  699MOL0     C96380   2.547   5.216   3.007  0.0778  0.2825 -0.5516
  699MOL0     C96381   2.722   5.220   2.892  0.1044  0.1383  0.1881
  699MOL0     C96382   2.720   5.270   2.693  0.7125 -0.0107 -0.4526
  699MOL0     O96383   2.842   5.280   2.636 -0.1011  0.3841  0.1792
  699MOL0     C96384   2.830   5.245   2.499 -0.1916 -0.1815  0.5874
  699MOL0     C96385   2.947   5.179   2.425  0.7920 -0.2783 -0.2726
  699MOL0     C96386   2.985   5.034   2.477 -0.2063  0.6473  0.3309
  699MOL0     C96387   2.877   4.935   2.486  0.5347 -0.1036  0.1392
  699MOL0     C96388   2.795   4.926   2.366  0.2272 -0.0371  0.2731
  699MOL0     C96389   2.723   4.912   2.271 -0.0492 -0.0110 -0.7607
  699MOL0     C96390   2.531   5.319   2.604 -0.5499  0.6450  0.1347
  699MOL0     C96391   2.350   5.317   2.719  0.2753  0.8950 -0.2333
  699MOL0     C96392   2.230   5.368   2.644  0.7159 -0.0758 -0.0134
  699MOL0     H96393   1.976   5.223   3.062  4.6519 -0.2604 -0.7874
  699MOL0     H96394   1.780   5.231   3.214  0.8565 -1.4380  1.1598
  699MOL0     H96395   1.651   5.234   3.590  3.3071  1.1125  1.1494
  699MOL0     H96396   1.691   5.155   3.433 -1.3396 -0.5019  0.6152
  699MOL0     H96397   1.555   5.429   3.460 -3.2715  0.7097 -2.4784
  699MOL0     H96398   1.570   5.334   3.317 -1.4899 -0.4844  0.1979
  699MOL0     H96399   1.432   5.150   3.414 -1.1294 -0.3385  0.4921
  699MOL0     H96400   1.405   5.234   3.563 -0.2110 -2.1911  0.2694
  699MOL0     H96401   1.288   5.420   3.393  0.2377 -0.2706 -3.4236
  699MOL0     H96402   1.300   5.288   3.284 -0.7823  0.3241 -1.3546
  699MOL0     H96403   1.188   5.235   3.552  1.1037 -3.2626 -0.8844
  699MOL0     H96404   1.164   5.153   3.404 -0.1830 -0.7190 -0.7084
  699MOL0     H96405   0.984   5.323   3.527 -1.3424  3.1236 -0.9694
  699MOL0     H96406   1.067   5.435   3.406  2.7777 -0.9458 -1.7820
  699MOL0     H96407   0.967   5.173   3.305 -2.1441  0.0667 -2.5425
  699MOL0     H96408   0.960   5.326   3.226  1.9403 -2.3496 -0.5413
  699MOL0     H96409   0.739   5.212   3.292 -1.6318  0.2376  1.0811
  699MOL0     H96410   0.770   5.271   3.458 -1.3800  0.6272 -0.1495
  699MOL0     H96411   0.736   5.403   3.089 -3.8623 -2.0668 -0.3524
  699MOL0     H96412   0.569   5.720   3.055  0.0123  2.4937  0.0245
  699MOL0     H96413   0.663   5.600   2.972 -1.0415  1.3729 -0.4218
  699MOL0     H96414   0.771   5.818   2.962  0.7440  1.7764  2.0798
  699MOL0     H96415   0.803   5.817   3.136  0.9292  2.1383 -0.1783
  699MOL0     H96416   0.947   5.618   3.088 -0.9853  0.2512 -0.6951
  699MOL0     H96417   0.896   5.618   2.918 -0.0676 -0.7564  0.0709
  699MOL0     H96418   1.050   5.821   3.074  1.7605 -0.5113 -0.2234
  699MOL0     H96419   1.125   5.720   2.956  0.1147  0.5560  1.2029
  699MOL0     H96420   1.276   5.839   2.911  1.1162  1.1663 -1.5816
  699MOL0     H96421   1.470   5.890   2.903  0.9904 -1.4867 -1.2311
  699MOL0     H96422   1.506   6.060   2.947 -2.6164 -1.4504  1.5239
  699MOL0     H96423   1.510   5.999   2.770  1.4907 -1.7470 -0.3073
  699MOL0     H96424   1.713   6.251   2.642 -0.3269  0.3811 -0.2727
  699MOL0     H96425   1.901   6.434   2.619  0.9171 -3.0928  2.8461
  699MOL0     H96426   1.994   6.548   2.829  0.4084  0.2378 -1.0365
  699MOL0     H96427   2.069   6.695   2.786 -0.1602 -0.5910 -3.2317
  699MOL0     H96428   1.940   6.830   2.915 -2.1432 -1.0782 -2.4646
  699MOL0     H96429   1.839   6.695   2.984 -0.0998 -1.5630 -1.3353
  699MOL0     H96430   2.052   6.583   3.071  1.8205 -0.2675 -1.6300
  699MOL0     H96431   2.007   6.738   3.147 -3.2243 -2.7236  0.9684
  699MOL0     H96432   2.176   6.844   2.997 -2.1156 -1.2393  1.2567
  699MOL0     H96433   2.247   6.687   2.960 -0.5234 -1.7594 -0.3316
  699MOL0     H96434   2.216   6.831   3.237 -1.1561 -3.6070  2.7085
  699MOL0     H96435   2.276   6.667   3.208 -0.8239  0.5101  1.4365
  699MOL0     H96436   2.375   6.927   3.068  1.7306 -0.8180 -1.4964
  699MOL0     H96437   2.476   6.781   3.083  0.3598 -0.1102  1.7497
  699MOL0     H96438   2.459   6.814   3.335  1.8195 -0.0304  0.2363
  699MOL0     H96439   2.390   6.971   3.302 -0.5095 -0.3084 -0.9073
  699MOL0     H96440   2.581   7.028   3.140  0.5711 -2.2907 -1.2709
  699MOL0     H96441   2.663   6.883   3.201 -0.0512  0.6424 -0.4780
  699MOL0     H96442   1.648   6.717   2.777  3.6443 -0.1991 -1.1827
  699MOL0     H96443   1.468   6.525   2.840 -1.3421 -1.6890 -0.3951
  699MOL0     H96444   1.113   6.253   2.707 -0.6174 -1.1072 -1.4985
  699MOL0     H96445   0.958   6.078   2.740 -0.2401 -2.4114 -3.1192
  699MOL0     H96446   2.043   5.390   3.516  0.6005 -3.0644  2.0979
  699MOL0     H96447   2.222   5.348   3.385 -0.8515  1.3533 -0.5440
  699MOL0     H96448   2.561   5.173   3.106 -2.6873 -2.0103 -1.0348
  699MOL0     H96449   2.815   5.201   2.945  0.2901  1.2462  0.2877
  699MOL0     H96450   2.754   5.167   2.488 -0.5820  0.5042 -2.0837
  699MOL0     H96451   2.801   5.336   2.446 -0.4250 -1.2304 -1.1566
  699MOL0     H96452   3.037   5.238   2.447  1.3243 -0.9961 -0.5115
  699MOL0     H96453   2.933   5.174   2.317 -0.0041  1.6003 -0.2977
  699MOL0     H96454   3.051   5.001   2.396 -0.6713  0.8454 -0.1305
  699MOL0     H96455   3.030   5.053   2.575 -1.9204 -0.4413  1.3829
  699MOL0     H96456   2.810   4.953   2.570 -0.6278  0.7059 -0.9241
  699MOL0     H96457   2.931   4.841   2.501  1.0562  0.0264 -0.8189
  699MOL0     H96458   2.666   4.899   2.181  1.1906 -2.3908 -1.2751
  699MOL0     H96459   2.530   5.339   2.497  2.4155 -2.3015 -0.6037
  699MOL0     H96460   2.193   5.295   2.572  2.8029  2.4286 -4.0118
  699MOL0     H96461   2.143   5.403   2.700  0.9260  1.3295 -0.5276
  699MOL0     H96462   2.269   5.446   2.577  1.6775 -2.4630 -2.4059
  700MOL0     O96463   4.062   2.983   5.590 -0.4732 -0.2096 -0.5970
  700MOL0     C96464   4.184   2.968   5.614  0.1806  0.3115 -0.5301
  700MOL0     O96465   4.258   3.033   5.709  0.4711 -0.0748 -0.2598
  700MOL0     C96466   4.199   3.129   5.794  0.0251  1.1003  0.4542
  700MOL0     C96467   4.284   3.230   5.829 -0.3093 -0.7256  0.4725
  700MOL0     C96468   4.227   3.345   5.890 -0.8629 -1.0249 -0.3764
  700MOL0     C96469   4.096   3.354   5.926  0.3313  1.2966  0.4168
  700MOL0     O96470   4.059   3.468   5.988 -0.6465  0.0299 -0.0013
  700MOL0     C96471   3.926   3.474   6.039  0.9056  1.1433 -0.7293
  700MOL0     C96472   3.920   3.578   6.148 -0.5694  0.2903 -0.5837
  700MOL0     C96473   3.974   3.722   6.089  0.3518 -0.3341  1.1587
  700MOL0     C96474   4.097   3.769   6.172  0.1798 -1.0767  0.1460
  700MOL0     C96475   4.041   3.844   6.299  0.3597 -0.0917 -0.1786
  700MOL0     C96476   4.048   3.999   6.302  0.4117  0.0991  1.5213
  700MOL0     C96477   3.984   4.055   6.432  1.1464 -0.0793  0.1436
  700MOL0     C96478   4.069   4.032   6.551 -0.1239  0.0256 -1.4678
  700MOL0     N96479   4.055   4.130   6.656  0.6485  0.3761 -1.3075
  700MOL0     C96480   4.030   4.116   6.798  0.3335  1.2424 -0.1588
  700MOL0     C96481   4.044   4.240   6.846  0.0225  0.1405  0.2833
  700MOL0     C96482   4.021   4.274   6.992 -0.3636 -0.2758  0.2605
  700MOL0     C96483   4.053   4.419   7.013  0.1022 -0.0524 -0.1692
  700MOL0     C96484   4.202   4.455   7.036 -0.9243 -0.9432  1.0377
  700MOL0     C96485   4.234   4.602   7.022  0.4251  0.4356 -0.3926
  700MOL0     O96486   4.207   4.687   7.137  0.6074  1.1220 -0.1888
  700MOL0     C96487   4.261   4.812   7.120 -0.3744  0.6190 -0.4580
  700MOL0     C96488   4.380   4.855   7.185  0.0961 -0.1540 -1.0995
  700MOL0     C96489   4.437   4.976   7.162  0.4327 -0.1198 -0.2268
  700MOL0     C96490   4.576   5.006   7.225  0.0011 -0.1757 -0.8796
  700MOL0     C96491   4.372   5.068   7.076  0.8026  0.8585  0.6304
  700MOL0     C96492   4.435   5.190   7.012 -0.7782 -0.0226 -0.2786
  700MOL0     O96493   4.445   5.200   6.882  0.4901  0.4931  0.0938
  700MOL0     C96494   4.527   5.301   6.833 -0.0698  0.8849  0.1435
  700MOL0     C96495   4.665   5.275   6.809 -0.6572 -0.9339 -0.7299
  700MOL0     C96496   4.740   5.383   6.752  0.3548 -0.5296 -0.3656
  700MOL0     C96497   4.681   5.511   6.729  0.2027 -0.6789 -0.5318
  700MOL0     O96498   4.742   5.618   6.670 -0.0082  0.2071 -0.2526
  700MOL0     C96499   4.847   5.674   6.743 -0.3224 -0.2055 -0.1580
  700MOL0     C96500   4.867   5.818   6.727 -0.1024 -0.3800 -1.0992
  700MOL0     C96501   4.966   5.877   6.822 -0.4152  0.4187  0.6474
  700MOL0     C96502   4.903   5.890   6.965 -0.5017 -0.0388 -0.5425
  700MOL0     C96503   4.947   6.016   7.035  0.8184  0.3684  0.4890
  700MOL0     C96504   5.097   6.047   7.055 -0.2883 -0.3066  0.9321
  700MOL0     C96505   5.189   5.922   7.089  0.0644 -0.1128  0.1835
  700MOL0     C96506   5.175   5.863   7.223 -0.2856  0.1470  0.2878
  700MOL0    Cl96507   5.163   5.984   7.353  0.0396 -0.0067 -0.0959
  700MOL0     C96508   4.546   5.526   6.736  0.4081 -0.0467 -0.6578
  700MOL0     C96509   4.472   5.422   6.790 -0.1460 -0.1510  0.0637
  700MOL0     O96510   4.470   5.279   7.094  0.5888 -0.5283 -0.1717
  700MOL0     C96511   4.256   5.029   7.011  0.8048  1.5615 -1.1049
  700MOL0     C96512   4.208   4.898   7.032 -0.3975  0.4588  0.6736
  700MOL0     N96513   4.070   4.328   6.741 -0.9279 -0.0787  0.5230
  700MOL0     N96514   4.064   4.262   6.632  0.4039  1.0856  0.0885
  700MOL0     C96515   4.019   3.234   5.913  0.5415 -1.0079  0.8900
  700MOL0     C96516   4.066   3.126   5.843 -1.0294 -0.3595 -0.2141
  700MOL0     C96517   4.256   2.854   5.533  0.3537  0.4576 -0.2546
  700MOL0     C96518   4.170   2.768   5.466  0.2533  0.1665  0.2060
  700MOL0     C96519   4.220   2.649   5.407 -0.6024 -0.3505  0.1493
  700MOL0     C96520   4.353   2.614   5.407 -0.1825 -0.1749 -1.2220
  700MOL0     O96521   4.407   2.498   5.347 -0.6851  0.3248 -0.0100
  700MOL0     C96522   4.468   2.519   5.221  0.5873 -0.1757  1.2715
  700MOL0     C96523   4.547   2.407   5.170 -0.1789 -0.3338 -0.0789
  700MOL0     C96524   4.632   2.439   5.053 -0.4869  0.1096  0.2829
  700MOL0     C96525   4.734   2.549   5.060  0.3836 -0.4424 -0.1747
  700MOL0     C96526   4.828   2.532   5.175  0.5151  0.0990  0.3171
  700MOL0     C96527   4.924   2.517   5.249 -0.0650 -0.9330 -0.6720
  700MOL0     C96528   4.438   2.702   5.479 -0.0263 -0.4738  0.0434
  700MOL0     C96529   4.386   2.814   5.550 -0.0776 -0.3641  0.3562
  700MOL0     C96530   4.489   2.887   5.628  0.8200  0.2017  0.5183
  700MOL0     H96531   4.387   3.217   5.797  0.1738 -1.1508  2.1348
  700MOL0     H96532   4.295   3.428   5.908  0.5304 -2.5724  2.0318
  700MOL0     H96533   3.902   3.378   6.086  0.4596  1.2341 -0.7702
  700MOL0     H96534   3.856   3.492   5.958 -1.0701 -0.8778  0.4325
  700MOL0     H96535   3.812   3.593   6.163 -0.5876  0.5847 -0.9870
  700MOL0     H96536   3.969   3.540   6.238  1.1164  1.7218 -0.8371
  700MOL0     H96537   4.003   3.707   5.984 -1.1372 -0.0716  0.6859
  700MOL0     H96538   3.895   3.798   6.083 -0.0477 -0.7506  1.0515
  700MOL0     H96539   4.167   3.691   6.201  1.6253  1.0985  2.9467
  700MOL0     H96540   4.162   3.841   6.123  0.6034 -0.2642  1.8339
  700MOL0     H96541   4.108   3.817   6.381  1.2362  0.6014 -0.6413
  700MOL0     H96542   3.940   3.814   6.328  0.7802  0.7102  2.3998
  700MOL0     H96543   4.143   4.049   6.284 -0.1014  0.4285 -0.6580
  700MOL0     H96544   3.982   4.025   6.218  1.0587 -0.9634  0.6567
  700MOL0     H96545   3.884   4.014   6.451  1.7787 -1.6998  0.1181
  700MOL0     H96546   3.969   4.160   6.405 -2.5147 -1.0201 -2.2866
  700MOL0     H96547   4.035   3.933   6.581 -0.3862  0.0526 -1.6747
  700MOL0     H96548   4.172   4.020   6.515 -0.4377 -1.0575 -2.0392
  700MOL0     H96549   4.006   4.024   6.849 -2.4812  0.2721 -2.8992
  700MOL0     H96550   4.080   4.218   7.065 -0.3344 -1.0080 -0.3204
  700MOL0     H96551   3.915   4.252   7.006 -0.7125  0.3870 -1.1667
  700MOL0     H96552   4.007   4.482   6.936  1.3407  0.3961 -0.5623
  700MOL0     H96553   3.997   4.446   7.103 -0.6009  1.3633 -0.9804
  700MOL0     H96554   4.248   4.429   7.131  3.1605  2.0944  0.1801
  700MOL0     H96555   4.253   4.398   6.958 -1.0648 -1.1174  1.0714
  700MOL0     H96556   4.340   4.602   6.998  0.5543 -1.8382 -0.0247
  700MOL0     H96557   4.183   4.639   6.932 -1.4318 -3.9500 -1.4052
  700MOL0     H96558   4.432   4.785   7.250 -1.4439 -1.4051 -1.1436
  700MOL0     H96559   4.614   4.916   7.274 -1.4234 -0.0789  0.4975
  700MOL0     H96560   4.564   5.079   7.306 -0.9719 -1.5456  0.2693
  700MOL0     H96561   4.654   5.038   7.155 -1.1118  1.2724 -1.5061
  700MOL0     H96562   4.721   5.184   6.826 -0.8931 -1.0371 -0.5050
  700MOL0     H96563   4.840   5.356   6.721 -0.3490 -1.4137 -2.0093
  700MOL0     H96564   4.853   5.645   6.848  1.2180 -0.1967 -0.2226
  700MOL0     H96565   4.937   5.625   6.705 -0.7740 -0.6793 -0.6510
  700MOL0     H96566   4.912   5.824   6.627  1.2360 -1.3308 -0.5741
  700MOL0     H96567   4.770   5.866   6.714  0.8710  1.0516 -3.9861
  700MOL0     H96568   4.981   5.982   6.792 -1.7173  0.0763 -1.4036
  700MOL0     H96569   5.063   5.826   6.818 -1.2089 -1.0324 -1.6242
  700MOL0     H96570   4.924   5.804   7.029  1.0174  1.3622  0.9283
  700MOL0     H96571   4.794   5.893   6.955 -0.5533  2.2194  0.1451
  700MOL0     H96572   4.905   6.093   6.970  2.4471  0.3273 -0.6978
  700MOL0     H96573   4.909   6.014   7.137 -1.4557  3.5615 -0.1466
  700MOL0     H96574   5.101   6.126   7.130 -0.7723  1.0870 -0.4621
  700MOL0     H96575   5.131   6.097   6.964 -3.2662  1.9818  0.9537
  700MOL0     H96576   5.292   5.959   7.084  1.0233 -1.6045  4.4589
  700MOL0     H96577   5.181   5.842   7.015  0.8813 -3.2305  3.2026
  700MOL0     H96578   5.261   5.799   7.248 -0.0568 -0.1450 -1.1540
  700MOL0     H96579   5.087   5.798   7.230 -0.6440  0.5180 -0.7258
  700MOL0     H96580   4.506   5.617   6.693 -0.1851 -0.1249 -0.2806
  700MOL0     H96581   4.363   5.427   6.788 -0.1135  0.7161 -0.9351
  700MOL0     H96582   4.210   5.090   6.934  2.2016  0.9492 -2.4718
  700MOL0     H96583   4.112   4.865   6.995 -1.0125  2.2878  0.5216
  700MOL0     H96584   3.914   3.231   5.941  0.6315  0.3537  1.4623
  700MOL0     H96585   3.993   3.047   5.826 -1.1157 -0.2440 -0.3749
  700MOL0     H96586   4.063   2.785   5.459 -0.2408  0.4117  5.0887
  700MOL0     H96587   4.147   2.586   5.358 -0.0352 -0.1521 -0.9928
  700MOL0     H96588   4.385   2.529   5.151  0.3537 -1.6438  1.3083
  700MOL0     H96589   4.521   2.614   5.229 -0.2686  0.3057  1.3050
  700MOL0     H96590   4.481   2.323   5.149  0.7080 -0.9566 -0.4380
  700MOL0     H96591   4.619   2.377   5.247  2.8279  2.6556 -1.4960
  700MOL0     H96592   4.682   2.343   5.041  2.0422  1.3331  0.3250
  700MOL0     H96593   4.567   2.473   4.972 -0.6237 -1.8406 -0.4649
  700MOL0     H96594   4.693   2.651   5.059 -1.1712 -0.9847 -3.0735
  700MOL0     H96595   4.791   2.537   4.967  1.3137 -0.7813  0.4208
  700MOL0     H96596   5.009   2.514   5.315  0.0944  4.0606 -0.2502
  700MOL0     H96597   4.538   2.668   5.502 -0.1893  0.1584  1.8721
  700MOL0     H96598   4.482   2.991   5.593 -2.2863 -0.6059 -1.7005
  700MOL0     H96599   4.466   2.878   5.734  0.5521  0.8429  0.5210
  700MOL0     H96600   4.588   2.846   5.608 -0.0379 -1.0969 -1.3801
  701MOL0     O96601   9.362   1.846   9.768  0.0034 -0.4407  0.4250
  701MOL0     C96602   9.465   1.897   9.819 -0.2715 -0.1099  1.2429
  701MOL0     O96603   9.593   1.850   9.793  0.3039 -0.6735 -0.1934
  701MOL0     C96604   9.691   1.944   9.798 -0.2809  0.0193 -0.3652
  701MOL0     C96605   9.778   1.938   9.903  0.5355 -0.3779  0.0597
  701MOL0     C96606   9.868   2.036   9.911 -0.0521 -0.7454 -0.3139
  701MOL0     C96607   9.885   2.150   9.826 -0.1167  0.9211  0.0890
  701MOL0     O96608   9.996   2.227   9.836  0.3804  0.8517 -0.8832
  701MOL0     C96609  10.022   2.322   9.736 -0.4603  0.8294 -0.0340
  701MOL0     C96610  10.156   2.385   9.743 -0.5797 -0.1619 -1.0019
  701MOL0     C96611  10.174   2.493   9.636  0.4315 -1.1129  0.6876
  701MOL0     C96612  10.319   2.547   9.639 -0.2817  0.8771 -1.3277
  701MOL0     C96613  10.358   2.662   9.556  0.7371 -0.2011  0.6474
  701MOL0     C96614  10.324   2.641   9.411  0.2966  1.0241 -0.3850
  701MOL0     C96615  10.330   2.776   9.338 -1.2281  0.4494  0.4470
  701MOL0     C96616  10.232   2.778   9.219  0.3774 -0.0006 -0.0748
  701MOL0     N96617  10.262   2.677   9.119  1.2404  0.2157 -0.5651
  701MOL0     C96618  10.384   2.640   9.067 -0.8545 -0.5136  0.3537
  701MOL0     C96619  10.350   2.539   8.982 -0.6985 -0.7917 -0.6542
  701MOL0     C96620  10.455   2.471   8.908  0.1728 -0.2270  0.0562
  701MOL0     C96621  10.398   2.351   8.818 -0.4863  0.0030 -0.4529
  701MOL0     C96622  10.376   2.220   8.892  0.0433 -0.1592  0.2526
  701MOL0     C96623  10.491   2.167   8.971  0.4400 -0.3151 -0.0572
  701MOL0     O96624  10.455   2.053   9.042  0.1681  0.1094 -1.1469
  701MOL0     C96625  10.553   1.976   9.093 -0.1912 -0.1582 -0.2383
  701MOL0     C96626  10.673   1.940   9.023  0.3304 -1.4140  0.5079
  701MOL0     C96627  10.758   1.848   9.078 -0.4244  1.1268  0.0286
  701MOL0     C96628  10.860   1.795   8.983  0.4664 -0.1738  0.2515
  701MOL0     C96629  10.738   1.791   9.208 -0.3261  0.5961 -0.1593
  701MOL0     C96630  10.844   1.703   9.278 -0.4665 -0.4552 -0.1169
  701MOL0     O96631  10.964   1.678   9.215  0.6519  0.0128  0.0705
  701MOL0     C96632  11.074   1.660   9.299 -0.3365 -0.4957 -0.1108
  701MOL0     C96633  11.159   1.767   9.318 -0.2406  0.7232  0.2683
  701MOL0     C96634  11.254   1.762   9.409  0.9975 -0.2086  0.3404
  701MOL0     C96635  11.276   1.644   9.480 -0.0235  0.1478  0.6820
  701MOL0     O96636  11.382   1.651   9.564  0.5761  0.0370 -0.9117
  701MOL0     C96637  11.476   1.538   9.559  0.4446  0.0083  0.2994
  701MOL0     C96638  11.559   1.536   9.677 -0.4692 -0.7004  0.0959
  701MOL0     C96639  11.661   1.418   9.656 -0.0718  0.5228  0.7645
  701MOL0     C96640  11.753   1.412   9.779  0.9570  0.3052  0.1261
  701MOL0     C96641  11.885   1.347   9.745  0.2687  0.7611  0.5955
  701MOL0     C96642  11.980   1.356   9.861 -0.2050 -0.0926  0.3445
  701MOL0     C96643  12.132   1.343   9.828  0.1057  0.5731  0.4545
  701MOL0     C96644  12.167   1.200   9.770 -0.1579 -0.2024  0.3722
  701MOL0    Cl96645  12.109   1.087   9.889  0.1361 -0.2917 -0.2923
  701MOL0     C96646  11.188   1.536   9.471 -0.4469 -0.4619 -0.1270
  701MOL0     C96647  11.089   1.541   9.375  0.6860 -0.4855 -0.7719
  701MOL0     O96648  10.812   1.671   9.396 -0.5298  0.5582  0.3827
  701MOL0     C96649  10.628   1.838   9.277  0.6793  0.2931  0.3663
  701MOL0     C96650  10.540   1.928   9.219 -0.0547 -0.2286  1.6844
  701MOL0     N96651  10.216   2.520   8.988 -0.0753 -0.2113 -0.3952
  701MOL0     N96652  10.162   2.597   9.072 -0.3103  0.8498 -0.2882
  701MOL0     C96653   9.790   2.155   9.722 -0.2251 -0.1457  1.1976
  701MOL0     C96654   9.684   2.056   9.714  0.2259 -0.8072 -0.5022
  701MOL0     C96655   9.426   1.999   9.915  0.3286 -0.3381  0.1833
  701MOL0     C96656   9.469   1.993  10.045  0.2433  0.3582 -0.8326
  701MOL0     C96657   9.451   2.083  10.149  0.0964 -0.2697 -0.7365
  701MOL0     C96658   9.360   2.189  10.116 -0.5885 -0.1573  0.1809
  701MOL0     O96659   9.333   2.274  10.221 -0.2661  0.6535 -0.2525
  701MOL0     C96660   9.219   2.362  10.213 -0.6309 -0.2727  0.4483
  701MOL0     C96661   9.227   2.464  10.331 -0.1693  0.4121  0.1750
  701MOL0     C96662   9.334   2.578  10.297 -0.1251  0.4986  0.7396
  701MOL0     C96663   9.298   2.695  10.388 -0.2735  1.1917  0.0185
  701MOL0     C96664   9.357   2.689  10.524  0.8108  0.9410 -0.5037
  701MOL0     C96665   9.400   2.691  10.638  0.0194 -0.1456  1.2765
  701MOL0     C96666   9.312   2.196   9.982  0.9735  0.2448  0.7755
  701MOL0     C96667   9.343   2.108   9.876  0.4485 -0.2548  0.0289
  701MOL0     C96668   9.294   2.138   9.734 -0.6540  0.0754  0.7889
  701MOL0     H96669   9.773   1.854   9.972  1.3169 -0.1869  0.3578
  701MOL0     H96670   9.933   2.028   9.998 -0.1124  1.9757  0.0565
  701MOL0     H96671   9.953   2.406   9.745 -2.6690 -0.4526 -3.3842
  701MOL0     H96672  10.006   2.275   9.639  1.5596  1.3067 -0.6561
  701MOL0     H96673  10.182   2.435   9.836  1.2859  2.9505 -2.9958
  701MOL0     H96674  10.227   2.303   9.730 -0.3436  0.1856 -2.0498
  701MOL0     H96675  10.157   2.441   9.541  1.6130 -0.9170  0.3555
  701MOL0     H96676  10.107   2.578   9.654  1.9276 -0.1093  1.7853
  701MOL0     H96677  10.352   2.579   9.738  2.0641  1.7278 -2.3138
  701MOL0     H96678  10.375   2.457   9.612 -0.9408 -0.3743  1.1381
  701MOL0     H96679  10.466   2.679   9.564  0.6617  0.5306  0.2261
  701MOL0     H96680  10.307   2.746   9.603  0.6731 -0.5513  1.2032
  701MOL0     H96681  10.401   2.576   9.368  1.0429  0.1488  2.0897
  701MOL0     H96682  10.228   2.589   9.408  2.1540 -2.8504  0.3863
  701MOL0     H96683  10.429   2.789   9.292 -2.1811  0.3160 -1.7728
  701MOL0     H96684  10.304   2.857   9.407 -1.4708  0.7559 -0.0035
  701MOL0     H96685  10.131   2.758   9.255  0.1169  0.3239 -0.6103
  701MOL0     H96686  10.251   2.878   9.180  1.1971  0.5515  1.6524
  701MOL0     H96687  10.488   2.671   9.074 -0.7883 -0.5741 -0.3095
  701MOL0     H96688  10.533   2.452   8.982  0.8667  1.2343 -0.2545
  701MOL0     H96689  10.496   2.541   8.833 -1.9551 -0.7008 -1.6388
  701MOL0     H96690  10.309   2.382   8.762 -0.2327 -1.8927 -1.9896
  701MOL0     H96691  10.482   2.336   8.750  0.7775 -0.4289  1.1308
  701MOL0     H96692  10.303   2.249   8.968 -2.0991  2.1168 -2.4526
  701MOL0     H96693  10.331   2.142   8.830 -1.7325 -0.3156  1.6740
  701MOL0     H96694  10.578   2.155   8.906  1.5900  0.0436  1.3733
  701MOL0     H96695  10.521   2.242   9.044  4.1116 -1.5876 -0.0293
  701MOL0     H96696  10.691   1.986   8.926  0.2027  1.1750  1.6138
  701MOL0     H96697  10.844   1.831   8.880  0.9615  1.1496  0.6127
  701MOL0     H96698  10.863   1.686   8.979  2.1100 -0.1715  0.5514
  701MOL0     H96699  10.964   1.821   9.005  0.9115 -1.6868  0.0204
  701MOL0     H96700  11.132   1.855   9.261 -1.4136  0.4629  0.3955
  701MOL0     H96701  11.317   1.849   9.424 -1.9078  1.6581  2.6235
  701MOL0     H96702  11.421   1.445   9.545 -2.8417  1.5256  1.8798
  701MOL0     H96703  11.519   1.556   9.460 -1.2498 -2.3287 -0.9535
  701MOL0     H96704  11.597   1.637   9.696  0.3845 -0.7817 -1.0827
  701MOL0     H96705  11.480   1.509   9.747 -0.9438 -0.1733 -0.2261
  701MOL0     H96706  11.712   1.426   9.560 -0.1412 -1.4322  0.5242
  701MOL0     H96707  11.597   1.330   9.658  0.1313  0.3543  3.2558
  701MOL0     H96708  11.720   1.346   9.860  3.4267 -1.4517 -0.1757
  701MOL0     H96709  11.776   1.513   9.814 -1.2554  0.5171  1.1304
  701MOL0     H96710  11.875   1.241   9.721 -0.8002  0.5697  1.7938
  701MOL0     H96711  11.922   1.407   9.661 -2.9963  2.3043  0.0905
  701MOL0     H96712  11.964   1.270   9.928  0.3586 -1.9300 -1.7421
  701MOL0     H96713  11.974   1.454   9.909 -0.0251 -1.1233  2.6037
  701MOL0     H96714  12.208   1.362   9.904  1.2396  0.7585 -0.6820
  701MOL0     H96715  12.158   1.407   9.744  0.3024  0.6341  0.5621
  701MOL0     H96716  12.276   1.196   9.769 -0.0822  1.1560 -0.8345
  701MOL0     H96717  12.127   1.195   9.668  2.1235 -1.7625 -0.5286
  701MOL0     H96718  11.205   1.453   9.539  2.6338  1.2624  1.4184
  701MOL0     H96719  11.021   1.458   9.385 -1.6465  1.4276  0.1825
  701MOL0     H96720  10.602   1.801   9.375 -0.9029 -0.4520 -0.2977
  701MOL0     H96721  10.457   1.968   9.278  0.9064 -0.1210  3.0167
  701MOL0     H96722   9.802   2.240   9.655  1.9496  0.6503  2.4789
  701MOL0     H96723   9.608   2.057   9.637 -0.2494  1.7619 -0.0862
  701MOL0     H96724   9.536   1.910  10.067  5.3232  3.1209 -3.9674
  701MOL0     H96725   9.484   2.065  10.251 -0.8909  0.1592 -0.3285
  701MOL0     H96726   9.230   2.421  10.122 -1.2995 -2.7177 -1.3245
  701MOL0     H96727   9.134   2.300  10.185  0.8385 -0.9863 -2.8839
  701MOL0     H96728   9.257   2.403  10.417 -0.6781 -0.6784 -0.3955
  701MOL0     H96729   9.125   2.499  10.351  0.1166  0.3628  1.9358
  701MOL0     H96730   9.439   2.554  10.318  0.8829  2.1324 -1.9365
  701MOL0     H96731   9.322   2.615  10.195 -2.7140 -3.6005 -0.7193
  701MOL0     H96732   9.190   2.710  10.392 -0.1360  3.4700 -2.1048
  701MOL0     H96733   9.325   2.788  10.337 -0.5319  1.6848  0.7745
  701MOL0     H96734   9.445   2.703  10.734  0.9988 -2.1620  1.1058
  701MOL0     H96735   9.245   2.275   9.951  1.2141  0.3818  0.6027
  701MOL0     H96736   9.276   2.054   9.667  0.6259  1.0539 -0.8469
  701MOL0     H96737   9.207   2.204   9.739 -0.7076 -0.0527  4.0331
  701MOL0     H96738   9.369   2.203   9.686 -2.1288  2.3843  1.4239
  702MOL0     O96739   7.155  11.323   6.211  0.1644  0.6146  0.3070
  702MOL0     C96740   7.027  11.316   6.203 -1.1603  0.3213 -0.1113
  702MOL0     O96741   6.961  11.254   6.100 -0.0512 -0.9107  0.5556
  702MOL0     C96742   7.017  11.255   5.972 -0.6739  0.0094 -0.1525
  702MOL0     C96743   7.148  11.224   5.951 -0.4575  0.4336 -0.5525
  702MOL0     C96744   7.194  11.221   5.811 -1.0955 -1.6974 -0.4497
  702MOL0     C96745   7.118  11.287   5.706 -0.3062  0.2142  0.0431
  702MOL0     O96746   7.160  11.314   5.579  0.1579  1.0811 -0.0681
  702MOL0     C96747   7.303  11.305   5.551 -0.0410  0.1037  0.1008
  702MOL0     C96748   7.317  11.358   5.407  0.2390  0.0872 -0.5168
  702MOL0     C96749   7.271  11.498   5.410  0.5789 -1.0870 -0.0757
  702MOL0     C96750   7.311  11.563   5.275  0.3817 -0.2107  0.4995
  702MOL0     C96751   7.267  11.713   5.265 -0.3389  0.8487 -0.4547
  702MOL0     C96752   7.289  11.748   5.115 -0.5646  0.2704  0.3531
  702MOL0     C96753   7.244  11.896   5.086  1.0878  0.1539 -0.2051
  702MOL0     C96754   7.277  11.951   4.944 -0.0815  0.8176  0.2508
  702MOL0     N96755   7.190  12.066   4.925  0.1564  0.5708 -0.2042
  702MOL0     C96756   7.236  12.196   4.946  0.8644 -0.1501 -0.3050
  702MOL0     C96757   7.128  12.270   4.916 -0.5196 -0.0904 -1.0015
  702MOL0     C96758   7.127  12.418   4.872  0.4768  0.8500 -0.1363
  702MOL0     C96759   7.208  12.506   4.968  0.4667  0.1948  0.0100
  702MOL0     C96760   7.367  12.514   4.968 -0.0486 -0.1868 -0.0760
  702MOL0     C96761   7.435  12.492   4.830 -0.1796 -0.2041  0.6978
  702MOL0     O96762   7.440  12.626   4.764  0.6178  0.2960  0.2768
  702MOL0     C96763   7.348  12.645   4.661  0.0620 -1.2759 -0.1953
  702MOL0     C96764   7.248  12.741   4.667 -0.2393 -0.1134  0.4758
  702MOL0     C96765   7.162  12.767   4.556 -0.2104  0.0922 -0.6894
  702MOL0     C96766   7.071  12.899   4.561 -0.0340  1.0148  0.1168
  702MOL0     C96767   7.179  12.694   4.441  0.1513  0.6165  0.2107
  702MOL0     C96768   7.074  12.685   4.336 -0.5968  1.2360 -0.7937
  702MOL0     O96769   7.014  12.561   4.300  0.1246  0.1653 -0.7500
  702MOL0     C96770   6.923  12.569   4.192  0.1752 -0.1659  0.2518
  702MOL0     C96771   6.965  12.616   4.068  0.0450 -0.6966 -0.7075
  702MOL0     C96772   6.884  12.625   3.954  0.0660 -0.3822  1.3665
  702MOL0     C96773   6.754  12.585   3.975  0.2491 -0.3049  0.1257
  702MOL0     O96774   6.679  12.578   3.857 -0.3275  0.0097 -0.2207
  702MOL0     C96775   6.553  12.643   3.848 -0.4608 -0.1405 -0.2871
  702MOL0     C96776   6.463  12.579   3.742 -0.1420 -0.3744  0.1509
  702MOL0     C96777   6.468  12.426   3.727 -0.4971 -0.1085 -0.1486
  702MOL0     C96778   6.381  12.362   3.842  0.4677 -0.3729  0.6475
  702MOL0     C96779   6.357  12.217   3.815  0.9299  0.4839  0.4068
  702MOL0     C96780   6.484  12.131   3.785 -0.7132  0.9599 -0.4421
  702MOL0     C96781   6.463  11.979   3.778 -0.7581 -0.0457  0.4803
  702MOL0     C96782   6.591  11.914   3.735  0.2696 -0.7564 -0.3667
  702MOL0    Cl96783   6.562  11.732   3.736  0.1374  0.2964  0.3643
  702MOL0     C96784   6.703  12.521   4.093  0.2010 -1.1816 -0.2401
  702MOL0     C96785   6.790  12.508   4.195 -0.5665  0.0767 -0.2734
  702MOL0     O96786   7.058  12.793   4.281 -0.3795 -0.3089 -0.4508
  702MOL0     C96787   7.282  12.591   4.436 -1.2560 -0.2742  0.4251
  702MOL0     C96788   7.373  12.584   4.542 -0.5455  0.5889  0.3086
  702MOL0     N96789   7.028  12.186   4.884  0.2512  0.4082 -0.4061
  702MOL0     N96790   7.060  12.059   4.891 -0.1471 -0.1743  0.5673
  702MOL0     C96791   6.983  11.315   5.738  0.1208 -0.2486 -0.0616
  702MOL0     C96792   6.935  11.305   5.871  1.2634 -0.5509  0.8024
  702MOL0     C96793   6.960  11.364   6.322  0.0780  0.4242 -0.8654
  702MOL0     C96794   6.820  11.366   6.308 -0.3072  0.3627 -0.4194
  702MOL0     C96795   6.733  11.398   6.419  0.0000 -0.0953  0.6375
  702MOL0     C96796   6.781  11.440   6.540 -0.6457  0.2637 -0.0660
  702MOL0     O96797   6.704  11.501   6.630 -0.5137 -0.9786  0.5258
  702MOL0     C96798   6.557  11.498   6.624  0.2494 -0.3872 -0.0153
  702MOL0     C96799   6.505  11.367   6.679 -0.7683  0.3862  0.4065
  702MOL0     C96800   6.362  11.329   6.635 -0.2106  0.0220 -0.7147
  702MOL0     C96801   6.318  11.185   6.680  0.2714  0.1279 -0.7891
  702MOL0     C96802   6.303  11.181   6.828 -0.3876  0.0094  0.8065
  702MOL0     C96803   6.286  11.178   6.950 -0.0134 -0.4608  0.0483
  702MOL0     C96804   6.924  11.440   6.551 -0.5920  0.2988 -0.1786
  702MOL0     C96805   7.012  11.405   6.447 -0.7236 -0.0823 -0.5143
  702MOL0     C96806   7.159  11.420   6.480  0.1411  1.2383  0.4993
  702MOL0     H96807   7.210  11.199   6.036 -2.3151  1.0322  1.0594
  702MOL0     H96808   7.299  11.195   5.796 -1.0518 -0.8978 -1.7417
  702MOL0     H96809   7.328  11.198   5.552 -2.2391 -0.5292 -1.8611
  702MOL0     H96810   7.370  11.356   5.620 -0.3776 -1.9463  2.0468
  702MOL0     H96811   7.421  11.349   5.375  0.4307 -0.9848  0.3397
  702MOL0     H96812   7.261  11.298   5.334 -0.1044 -0.2421  0.0087
  702MOL0     H96813   7.162  11.488   5.416  0.6942 -1.9207  0.9376
  702MOL0     H96814   7.306  11.568   5.486  0.2441  1.1547 -1.8904
  702MOL0     H96815   7.419  11.563   5.257  0.4072  3.0085  0.0595
  702MOL0     H96816   7.264  11.510   5.192  1.7414 -0.2031 -0.3131
  702MOL0     H96817   7.332  11.771   5.331  0.0133 -1.1550  1.0582
  702MOL0     H96818   7.170  11.736   5.309  0.8355  1.4217  2.0000
  702MOL0     H96819   7.396  11.744   5.091 -0.7763 -1.0969 -0.4813
  702MOL0     H96820   7.242  11.682   5.042  4.1348 -2.0189 -1.0373
  702MOL0     H96821   7.293  11.955   5.164  0.9757  0.4982 -0.3911
  702MOL0     H96822   7.135  11.896   5.100  0.3851  1.1774 -4.3450
  702MOL0     H96823   7.384  11.968   4.933  0.3301 -1.5340  0.2228
  702MOL0     H96824   7.240  11.878   4.871  2.3675 -0.9596  0.6764
  702MOL0     H96825   7.326  12.250   4.974  0.6639  0.5709 -1.0313
  702MOL0     H96826   7.025  12.450   4.848  0.3531 -0.5715 -1.6862
  702MOL0     H96827   7.186  12.405   4.780  1.6901 -2.0243  0.9599
  702MOL0     H96828   7.166  12.605   4.947  1.6924  0.6857 -0.2142
  702MOL0     H96829   7.179  12.480   5.070 -3.2207 -1.3269 -1.2314
  702MOL0     H96830   7.394  12.607   5.018  0.1123 -0.1344 -0.2560
  702MOL0     H96831   7.399  12.429   5.028 -1.8931 -2.1255 -1.7063
  702MOL0     H96832   7.539  12.461   4.838  0.1659  1.2505  2.3669
  702MOL0     H96833   7.379  12.416   4.775 -2.1117  0.6793  1.3422
  702MOL0     H96834   7.252  12.805   4.755  1.0346  2.0023 -1.0497
  702MOL0     H96835   7.047  12.926   4.665  0.2257 -0.5996  0.6381
  702MOL0     H96836   6.974  12.868   4.520 -1.1451 -2.4987  4.4747
  702MOL0     H96837   7.116  12.983   4.510  1.4868 -0.2604 -0.7144
  702MOL0     H96838   7.065  12.660   4.065  0.0413 -0.2105  2.4080
  702MOL0     H96839   6.930  12.651   3.859 -1.5446 -1.4174  0.2581
  702MOL0     H96840   6.499  12.634   3.943 -3.1043  1.2302 -1.5562
  702MOL0     H96841   6.567  12.750   3.831  0.1972 -0.3984 -1.4435
  702MOL0     H96842   6.361  12.610   3.766 -0.1797  0.1091 -0.5987
  702MOL0     H96843   6.497  12.634   3.653 -0.4717  3.6796  2.2867
  702MOL0     H96844   6.569  12.386   3.733 -1.0184 -1.9920 -2.5571
  702MOL0     H96845   6.441  12.399   3.625 -1.7924 -1.7634  0.5752
  702MOL0     H96846   6.281  12.401   3.863  1.3557  0.7943  3.0854
  702MOL0     H96847   6.443  12.360   3.933 -1.8714 -0.6777  2.3199
  702MOL0     H96848   6.287  12.182   3.891 -1.2076  1.9686 -0.7570
  702MOL0     H96849   6.294  12.211   3.725  0.2175  1.0243  0.8600
  702MOL0     H96850   6.567  12.158   3.850  0.9979 -0.9417 -1.6831
  702MOL0     H96851   6.514  12.156   3.682 -0.2860 -0.1195 -0.5964
  702MOL0     H96852   6.383  11.953   3.708 -0.6516  1.7986 -0.3838
  702MOL0     H96853   6.428  11.956   3.879  0.2004 -0.0311  0.8268
  702MOL0     H96854   6.657  11.940   3.818 -0.7434 -2.8871  1.1838
  702MOL0     H96855   6.631  11.953   3.641  2.7997  0.8103  1.2339
  702MOL0     H96856   6.605  12.477   4.109 -0.1274  0.0353  1.4581
  702MOL0     H96857   6.757  12.465   4.289 -1.3642  0.5247 -0.3366
  702MOL0     H96858   7.286  12.540   4.340  4.8154  2.3698 -1.2323
  702MOL0     H96859   7.457  12.516   4.532 -0.8892  0.5003 -3.1233
  702MOL0     H96860   6.921  11.365   5.665  0.2296 -1.5681 -1.1078
  702MOL0     H96861   6.837  11.342   5.900  1.2206  0.8796 -0.9986
  702MOL0     H96862   6.776  11.351   6.210 -2.3015 -0.1946  0.5165
  702MOL0     H96863   6.633  11.399   6.379  0.4660 -1.6985 -0.6804
  702MOL0     H96864   6.521  11.580   6.687  2.1927  0.8669 -0.4187
  702MOL0     H96865   6.533  11.540   6.526  0.6910 -1.9787 -0.8376
  702MOL0     H96866   6.523  11.369   6.787 -2.2199  0.1783  0.6681
  702MOL0     H96867   6.563  11.287   6.632  0.3956 -0.1154  2.5720
  702MOL0     H96868   6.292  11.401   6.680 -0.0691 -1.4949  2.2141
  702MOL0     H96869   6.354  11.343   6.527 -0.0497 -0.2642 -0.7629
  702MOL0     H96870   6.388  11.107   6.653 -1.0437 -1.6563  0.6792
  702MOL0     H96871   6.222  11.163   6.632  0.5434 -2.8061 -0.1485
  702MOL0     H96872   6.285  11.176   7.057 -0.8082 -1.3692  0.0346
  702MOL0     H96873   6.958  11.478   6.647  1.9482 -0.4006 -0.7200
  702MOL0     H96874   7.220  11.481   6.412  1.9951  0.8827  1.7516
  702MOL0     H96875   7.185  11.442   6.584  2.0765  0.5450  0.2196
  702MOL0     H96876   7.208  11.322   6.471 -0.6669  0.5110  3.0767
  703MOL0     O96877   7.385   0.420   0.331 -0.1206  0.3270 -0.0481
  703MOL0     C96878   7.301   0.328   0.343  0.6743 -0.2708 -0.0201
  703MOL0     O96879   7.301   0.207   0.270  0.3634 -0.6114  0.4456
  703MOL0     C96880   7.412   0.189   0.188 -0.4266 -0.2431 -0.3747
  703MOL0     C96881   7.546   0.218   0.230 -0.1700 -0.5773  0.4811
  703MOL0     C96882   7.655   0.202   0.141 -0.6836 -0.0321  0.4189
  703MOL0     C96883   7.645   0.145   0.018  0.7617 -0.5750 -0.0146
  703MOL0     O96884   7.763   0.109  -0.047 -0.0393  0.3562  0.5699
  703MOL0     C96885   7.759  -0.026  -0.106 -1.1004  0.6192  0.2010
  703MOL0     C96886   7.810  -0.132  -0.008  0.4802  0.2327  0.3068
  703MOL0     C96887   7.710  -0.147   0.108  0.0999 -0.3761 -0.8049
  703MOL0     C96888   7.720  -0.287   0.173  0.4004 -0.7992  0.1689
  703MOL0     C96889   7.661  -0.296   0.313 -0.1251  0.2410 -0.9947
  703MOL0     C96890   7.620  -0.436   0.364 -0.5770 -0.6046  0.3669
  703MOL0     C96891   7.547  -0.417   0.499 -0.3533 -0.0735 -0.1768
  703MOL0     C96892   7.506  -0.550   0.560  0.1278  0.0657 -0.3236
  703MOL0     N96893   7.614  -0.640   0.604 -0.1087 -0.3537  0.3943
  703MOL0     C96894   7.697  -0.615   0.712 -0.2598 -0.5271 -0.0060
  703MOL0     C96895   7.761  -0.728   0.728  0.0836  0.0174 -0.4814
  703MOL0     C96896   7.884  -0.750   0.817  0.0527  0.6950  0.5294
  703MOL0     C96897   7.999  -0.642   0.798  0.0454  0.0061  0.7845
  703MOL0     C96898   8.111  -0.691   0.896 -0.4747 -0.3166  0.5523
  703MOL0     C96899   8.235  -0.590   0.899 -0.1058  1.5151 -0.0912
  703MOL0     O96900   8.334  -0.627   0.990 -0.5980  0.1066 -0.2861
  703MOL0     C96901   8.468  -0.614   0.954  0.5184 -0.4581  0.5561
  703MOL0     C96902   8.561  -0.708   0.996 -0.0059 -0.4359  0.3177
  703MOL0     C96903   8.702  -0.692   0.978 -0.3118  0.6070  0.2937
  703MOL0     C96904   8.796  -0.798   1.041 -0.0596  0.6965  0.1725
  703MOL0     C96905   8.748  -0.585   0.889 -0.4279  0.1088 -0.4223
  703MOL0     C96906   8.884  -0.578   0.836  0.9999 -0.9745  0.2157
  703MOL0     O96907   8.920  -0.451   0.793 -0.7431  0.2047  0.2122
  703MOL0     C96908   9.031  -0.451   0.703 -0.8655  0.2965  0.8556
  703MOL0     C96909   9.018  -0.452   0.562 -0.5060  0.6861  0.6840
  703MOL0     C96910   9.137  -0.474   0.483  0.4248 -0.9570 -0.6648
  703MOL0     C96911   9.259  -0.481   0.551  0.0672  1.3894 -0.4841
  703MOL0     O96912   9.372  -0.486   0.473  0.4291 -0.4007  0.8940
  703MOL0     C96913   9.364  -0.578   0.361  0.1452 -0.1386 -0.4151
  703MOL0     C96914   9.506  -0.620   0.309 -0.0399 -0.2341  0.5576
  703MOL0     C96915   9.572  -0.709   0.410  0.3068  0.4482  0.7357
  703MOL0     C96916   9.714  -0.747   0.370  0.2176  0.1787 -0.4430
  703MOL0     C96917   9.766  -0.852   0.463 -0.1305 -0.1099  0.3705
  703MOL0     C96918   9.753  -0.813   0.606 -0.2742 -0.7755  1.1349
  703MOL0     C96919   9.851  -0.872   0.698 -0.1443 -1.1887  0.6734
  703MOL0     C96920   9.830  -1.019   0.719  0.1728 -1.1644 -0.5047
  703MOL0    Cl96921   9.899  -1.118   0.583 -0.4209  0.5709  0.3924
  703MOL0     C96922   9.268  -0.476   0.692  0.3290 -0.6564 -0.0654
  703MOL0     C96923   9.153  -0.457   0.758 -0.2173 -0.5256 -0.0369
  703MOL0     O96924   8.936  -0.682   0.805  0.3019  0.4692  0.0007
  703MOL0     C96925   8.654  -0.475   0.865 -0.1978  0.7158  0.8502
  703MOL0     C96926   8.520  -0.496   0.885  0.5917 -0.4659 -0.5135
  703MOL0     N96927   7.715  -0.819   0.637  0.4555  0.1541 -0.4081
  703MOL0     N96928   7.625  -0.769   0.563 -0.1068 -0.8033  0.2520
  703MOL0     C96929   7.510   0.112  -0.022 -0.0550 -0.3233 -0.5429
  703MOL0     C96930   7.395   0.144   0.057  0.0896  0.6520  0.4829
  703MOL0     C96931   7.181   0.347   0.434 -0.5431  0.6325 -0.0451
  703MOL0     C96932   7.075   0.251   0.418  0.1319 -0.3314 -0.0387
  703MOL0     C96933   6.959   0.265   0.502 -0.7327 -0.4895 -0.6135
  703MOL0     C96934   6.943   0.387   0.575  0.1164  0.6106  0.1906
  703MOL0     O96935   6.833   0.407   0.658 -0.4858 -0.1560 -0.5662
  703MOL0     C96936   6.716   0.318   0.645  0.5983 -0.7475  0.2992
  703MOL0     C96937   6.595   0.385   0.701  0.6604 -0.1046  0.7523
  703MOL0     C96938   6.543   0.499   0.606  0.1986  0.2172  0.2897
  703MOL0     C96939   6.461   0.607   0.674  0.4917  1.4208 -0.2054
  703MOL0     C96940   6.557   0.674   0.755  0.1150  0.9148  0.1111
  703MOL0     C96941   6.626   0.752   0.817  0.0897  0.5493  0.3858
  703MOL0     C96942   7.036   0.492   0.561  0.8742  0.4822  0.4304
  703MOL0     C96943   7.157   0.473   0.504 -0.1764  0.0931 -0.6229
  703MOL0     C96944   7.263   0.570   0.534 -0.5271  0.2065  0.3036
  703MOL0     H96945   7.570   0.255   0.330  1.5893 -0.5617  0.0825
  703MOL0     H96946   7.753   0.223   0.182 -1.0042 -0.0061  1.1855
  703MOL0     H96947   7.849  -0.020  -0.169  0.3541  1.2909  2.2227
  703MOL0     H96948   7.669  -0.058  -0.159  1.5184 -4.3878 -1.9159
  703MOL0     H96949   7.817  -0.226  -0.063  0.0856 -0.1355  0.8764
  703MOL0     H96950   7.912  -0.120   0.028 -0.0366  0.4892  1.7457
  703MOL0     H96951   7.731  -0.069   0.181 -1.7891 -2.9522  2.8477
  703MOL0     H96952   7.608  -0.141   0.069 -0.0424  1.5303 -0.2251
  703MOL0     H96953   7.678  -0.360   0.105 -0.4071 -0.0144 -0.1958
  703MOL0     H96954   7.824  -0.319   0.187  0.6800  0.1686  0.4321
  703MOL0     H96955   7.574  -0.230   0.313  0.4121  1.0910 -3.8733
  703MOL0     H96956   7.743  -0.258   0.374  0.1382  0.0377 -1.2200
  703MOL0     H96957   7.546  -0.480   0.297 -2.5361  0.1257  1.9472
  703MOL0     H96958   7.710  -0.497   0.372  1.1741  1.6938 -0.4788
  703MOL0     H96959   7.458  -0.359   0.471 -0.8241 -0.6049  0.2108
  703MOL0     H96960   7.616  -0.370   0.570 -0.1657  1.6711 -1.4419
  703MOL0     H96961   7.453  -0.517   0.650  0.9232 -0.2001  0.2513
  703MOL0     H96962   7.433  -0.607   0.501 -0.7303  1.6715 -0.8655
  703MOL0     H96963   7.696  -0.523   0.769 -6.0762 -0.0461 -0.2673
  703MOL0     H96964   7.929  -0.846   0.788  0.8195  2.0327 -3.2935
  703MOL0     H96965   7.849  -0.749   0.920 -3.3732 -0.2947 -0.4936
  703MOL0     H96966   8.043  -0.624   0.699  0.8791  0.0079  1.1472
  703MOL0     H96967   7.951  -0.547   0.823  0.7498  0.1566  1.6369
  703MOL0     H96968   8.076  -0.687   0.999  0.3058  0.7067  0.7978
  703MOL0     H96969   8.151  -0.788   0.864  0.1956 -0.0668  0.6192
  703MOL0     H96970   8.281  -0.607   0.802 -1.7028  0.8187 -0.7713
  703MOL0     H96971   8.224  -0.482   0.914 -0.6457  1.3948  0.4151
  703MOL0     H96972   8.535  -0.796   1.055  2.3662  0.5609  3.0944
  703MOL0     H96973   8.746  -0.844   1.127  1.9528  1.4698  1.8396
  703MOL0     H96974   8.892  -0.757   1.072  1.1424 -2.8459  1.6919
  703MOL0     H96975   8.814  -0.879   0.969  1.1042 -0.8186  2.0464
  703MOL0     H96976   8.927  -0.431   0.508 -0.2644 -1.5123 -0.6992
  703MOL0     H96977   9.133  -0.488   0.375  1.0239 -1.4691 -0.6240
  703MOL0     H96978   9.312  -0.668   0.393 -0.1539  0.9075  2.3086
  703MOL0     H96979   9.299  -0.538   0.282 -0.2254 -1.9881 -1.0867
  703MOL0     H96980   9.495  -0.684   0.221 -1.4516 -1.4921  1.6208
  703MOL0     H96981   9.577  -0.539   0.285  1.3060 -1.1794  1.2168
  703MOL0     H96982   9.502  -0.792   0.427 -0.1576  0.5990 -0.3710
  703MOL0     H96983   9.577  -0.648   0.501  1.3842  1.9386 -0.2902
  703MOL0     H96984   9.775  -0.658   0.359 -1.2519  1.3256  0.2701
  703MOL0     H96985   9.698  -0.795   0.273 -0.9839  0.7663 -0.5470
  703MOL0     H96986   9.721  -0.951   0.448  0.9774 -0.4910 -0.5167
  703MOL0     H96987   9.871  -0.853   0.433 -0.0001  0.1328  0.8123
  703MOL0     H96988   9.651  -0.839   0.636 -0.4800  0.6560  1.7513
  703MOL0     H96989   9.754  -0.705   0.621  0.0367 -0.4501 -0.8682
  703MOL0     H96990   9.830  -0.810   0.785 -0.3779  1.5996 -1.2455
  703MOL0     H96991   9.955  -0.847   0.672 -0.2931 -3.3689 -2.8133
  703MOL0     H96992   9.724  -1.040   0.734  0.4981 -3.7775 -1.4804
  703MOL0     H96993   9.893  -1.053   0.802  2.9040  1.0390 -1.4670
  703MOL0     H96994   9.367  -0.476   0.737  0.4952  0.1070 -0.4077
  703MOL0     H96995   9.161  -0.463   0.866  0.8473 -1.0659 -0.1395
  703MOL0     H96996   8.675  -0.390   0.802  0.7365 -0.2383 -0.1627
  703MOL0     H96997   8.468  -0.410   0.846 -1.8937 -1.6342  0.0460
  703MOL0     H96998   7.487   0.075  -0.122 -0.0519  1.6122 -1.3020
  703MOL0     H96999   7.303   0.105   0.015  0.4689  0.9254 -0.6421
  703MOL0     H97000   7.085   0.161   0.358  1.2067  0.7933 -1.6228
  703MOL0     H97001   6.885   0.185   0.508 -1.9898  0.3402 -3.4494
  703MOL0     H97002   6.689   0.305   0.540  4.1187 -0.1809 -0.8241
  703MOL0     H97003   6.745   0.224   0.692  0.7413 -0.8702 -0.0300
  703MOL0     H97004   6.619   0.436   0.795 -0.1871  0.9426  0.4218
  703MOL0     H97005   6.509   0.319   0.719  1.4572 -2.2506 -2.3817
  703MOL0     H97006   6.624   0.545   0.548 -3.0325  3.2832 -2.1916
  703MOL0     H97007   6.478   0.457   0.529 -2.9646  2.2429  1.6631
  703MOL0     H97008   6.384   0.543   0.720  1.6353 -1.1835 -1.6764
  703MOL0     H97009   6.411   0.674   0.604 -3.5332 -0.2591  0.7491
  703MOL0     H97010   6.696   0.816   0.867 -0.5452  0.9666  0.7516
  703MOL0     H97011   7.026   0.587   0.612 -1.7372 -1.0195  3.0017
  703MOL0     H97012   7.358   0.520   0.555  0.0141  1.3815  0.7734
  703MOL0     H97013   7.276   0.648   0.458 -0.3878  2.5226  2.5655
  703MOL0     H97014   7.236   0.622   0.627 -0.3579  0.4442  0.2223
  704MOL0     O97015   0.094   2.695   8.507 -0.3293 -0.0248  0.1299
  704MOL0     C97016  -0.006   2.633   8.523  1.1670 -1.2776 -0.2962
  704MOL0     O97017  -0.043   2.569   8.640 -0.2611  0.7794 -0.0206
  704MOL0     C97018   0.058   2.568   8.730 -0.0667  0.2567  0.3034
  704MOL0     C97019   0.171   2.486   8.708 -0.4361 -0.4454  0.8710
  704MOL0     C97020   0.266   2.490   8.811 -0.3561 -0.0793  0.5538
  704MOL0     C97021   0.248   2.563   8.934  0.0531  0.1240 -0.0723
  704MOL0     O97022   0.358   2.547   9.017 -0.2645  0.1899 -0.8209
  704MOL0     C97023   0.401   2.660   9.094 -1.1795  0.1620 -0.2395
  704MOL0     C97024   0.524   2.622   9.180 -0.1369  0.5109 -0.3881
  704MOL0     C97025   0.542   2.709   9.300  0.4185 -0.4756 -0.0453
  704MOL0     C97026   0.692   2.711   9.351 -0.2332 -0.4061 -0.2309
  704MOL0     C97027   0.728   2.841   9.424  1.5226 -0.2436  0.8459
  704MOL0     C97028   0.864   2.826   9.487  0.3041 -0.9067  0.2602
  704MOL0     C97029   0.908   2.956   9.565  0.2518 -0.8818  0.3996
  704MOL0     C97030   0.802   3.020   9.658  0.1803 -0.0214  0.3220
  704MOL0     N97031   0.752   2.946   9.770 -0.2793  0.6897 -1.1427
  704MOL0     C97032   0.833   2.877   9.861 -0.4266  0.2893 -0.0352
  704MOL0     C97033   0.744   2.800   9.930  0.9173 -0.2906  0.5884
  704MOL0     C97034   0.768   2.698  10.038  0.1759  0.9221  0.6028
  704MOL0     C97035   0.698   2.563  10.010  0.5075  0.3448  0.0696
  704MOL0     C97036   0.721   2.520   9.862  0.7845  0.0981  0.1126
  704MOL0     C97037   0.653   2.383   9.843  0.2815  0.3046 -1.1609
  704MOL0     O97038   0.663   2.328   9.712  0.0077 -0.8911  0.4016
  704MOL0     C97039   0.777   2.311   9.640  0.0303 -0.1630 -1.2861
  704MOL0     C97040   0.778   2.353   9.504 -0.3391 -0.4772 -0.8097
  704MOL0     C97041   0.888   2.335   9.428  0.1592  0.1154 -0.4989
  704MOL0     C97042   0.868   2.376   9.283  0.4259  0.1923 -0.0609
  704MOL0     C97043   1.007   2.276   9.484 -0.7384  0.7133 -0.1775
  704MOL0     C97044   1.124   2.261   9.396 -1.3948  0.3381  0.1042
  704MOL0     O97045   1.110   2.209   9.275  0.1202 -0.3506  0.1771
  704MOL0     C97046   1.224   2.203   9.195  0.3149 -0.4174 -0.6872
  704MOL0     C97047   1.278   2.313   9.132  0.9746  0.2035  0.0689
  704MOL0     C97048   1.391   2.299   9.041  0.4813 -0.3080  0.2610
  704MOL0     C97049   1.448   2.176   9.017  0.5048 -0.3792 -0.2988
  704MOL0     O97050   1.541   2.154   8.931  0.7421 -0.5812 -0.1611
  704MOL0     C97051   1.590   2.259   8.850 -0.6304 -0.0279  0.2472
  704MOL0     C97052   1.729   2.207   8.813  0.3548  0.0325 -0.5268
  704MOL0     C97053   1.754   2.118   8.694 -0.6126 -0.6411 -0.2985
  704MOL0     C97054   1.734   2.178   8.551 -0.0920  0.5734  1.0596
  704MOL0     C97055   1.729   2.058   8.447 -0.2512  0.1605 -0.6291
  704MOL0     C97056   1.695   2.129   8.310  0.5994  0.0463 -0.8897
  704MOL0     C97057   1.702   2.024   8.202  0.4586 -0.4527  0.1629
  704MOL0     C97058   1.722   2.088   8.062  0.6385  0.2364 -1.0385
  704MOL0    Cl97059   1.738   1.970   7.927  0.1590  0.0575 -0.3410
  704MOL0     C97060   1.396   2.061   9.088  0.4025  0.0629  0.3536
  704MOL0     C97061   1.290   2.080   9.181  0.7341 -0.4445 -0.3575
  704MOL0     O97062   1.235   2.276   9.449 -0.0247  0.4237 -0.4231
  704MOL0     C97063   1.003   2.228   9.616 -0.6211 -1.3806 -0.4657
  704MOL0     C97064   0.887   2.237   9.690 -0.2619 -0.0069 -0.0257
  704MOL0     N97065   0.606   2.837   9.887 -0.1458  0.0241  0.1240
  704MOL0     N97066   0.622   2.927   9.794  0.1248  0.5406 -0.1403
  704MOL0     C97067   0.142   2.657   8.936 -0.2251 -0.6603  0.3042
  704MOL0     C97068   0.044   2.654   8.838 -0.6600 -0.2832 -0.0263
  704MOL0     C97069  -0.091   2.616   8.401  0.3884  0.0040  0.1233
  704MOL0     C97070  -0.200   2.528   8.419 -0.0192 -1.0934 -0.0817
  704MOL0     C97071  -0.292   2.513   8.314 -0.5573  0.4744 -0.2625
  704MOL0     C97072  -0.284   2.577   8.191 -0.1040 -0.4377 -0.8098
  704MOL0     O97073  -0.372   2.542   8.098 -0.3440  0.0587 -0.0866
  704MOL0     C97074  -0.473   2.654   8.077 -0.3163  0.5068  0.5110
  704MOL0     C97075  -0.609   2.622   8.147 -0.0162  0.9237 -0.5746
  704MOL0     C97076  -0.659   2.486   8.096 -0.0774 -0.9799  0.5448
  704MOL0     C97077  -0.814   2.466   8.113 -0.0047  0.3846  0.3551
  704MOL0     C97078  -0.864   2.332   8.076 -0.0187 -0.5911 -0.5916
  704MOL0     C97079  -0.898   2.217   8.032  0.4685  0.7901  0.3067
  704MOL0     C97080  -0.170   2.664   8.168  0.4206 -0.3854 -0.0450
  704MOL0     C97081  -0.078   2.680   8.268 -0.3580 -0.2943  0.0350
  704MOL0     C97082   0.050   2.753   8.233  0.1680 -0.2523 -0.3793
  704MOL0     H97083   0.201   2.425   8.623 -4.0437 -2.5096  0.9184
  704MOL0     H97084   0.345   2.416   8.804  0.0109  0.1934  1.5970
  704MOL0     H97085   0.319   2.697   9.156 -2.0278 -2.5922  0.4568
  704MOL0     H97086   0.420   2.751   9.037  1.2024 -0.2060 -0.1388
  704MOL0     H97087   0.522   2.520   9.221  3.4706  1.0231  1.4918
  704MOL0     H97088   0.609   2.632   9.113  0.2448  1.4483  0.2196
  704MOL0     H97089   0.521   2.815   9.281 -1.7834 -0.3066  2.6302
  704MOL0     H97090   0.477   2.676   9.382  2.8906 -2.2990  1.2861
  704MOL0     H97091   0.720   2.619   9.403  3.0270  0.3452 -0.4514
  704MOL0     H97092   0.756   2.720   9.263  0.6521 -1.0786  0.3299
  704MOL0     H97093   0.648   2.850   9.499  1.1504 -0.9131  0.5375
  704MOL0     H97094   0.731   2.923   9.352 -4.5229 -2.1086 -2.2078
  704MOL0     H97095   0.855   2.744   9.559 -0.1411 -0.2076  1.0219
  704MOL0     H97096   0.938   2.803   9.411  0.5725  0.2269  0.1560
  704MOL0     H97097   0.938   3.035   9.496  2.1547 -2.3252 -0.5300
  704MOL0     H97098   1.003   2.938   9.616  0.8103  1.1636  0.1558
  704MOL0     H97099   0.847   3.111   9.699  1.2470 -0.2881 -0.2234
  704MOL0     H97100   0.719   3.042   9.591  0.8653 -0.7234 -0.7967
  704MOL0     H97101   0.942   2.877   9.862 -0.4244 -0.3957  0.1279
  704MOL0     H97102   0.735   2.736  10.135 -1.7601 -0.6109  0.6054
  704MOL0     H97103   0.876   2.681  10.046  0.1242 -3.5670 -3.5270
  704MOL0     H97104   0.732   2.487  10.081 -0.9414 -0.3204  0.0776
  704MOL0     H97105   0.591   2.575  10.024  0.6448  1.3978  0.3136
  704MOL0     H97106   0.683   2.587   9.784 -2.1021 -1.9385 -0.4074
  704MOL0     H97107   0.829   2.519   9.843  0.7637  0.2543 -0.0158
  704MOL0     H97108   0.713   2.311   9.900 -2.8890 -3.3217 -1.9625
  704MOL0     H97109   0.555   2.382   9.892  2.1787  0.9413  3.0885
  704MOL0     H97110   0.695   2.405   9.457 -0.4896 -0.3617 -0.4159
  704MOL0     H97111   0.763   2.405   9.272 -0.0668 -1.1151  0.9312
  704MOL0     H97112   0.889   2.302   9.204  0.2886 -1.2040  1.1659
  704MOL0     H97113   0.923   2.468   9.262 -1.0186  1.1513  0.2171
  704MOL0     H97114   1.229   2.410   9.139  1.6533  0.4503  1.9970
  704MOL0     H97115   1.417   2.393   8.993 -0.5608  0.3365  0.9013
  704MOL0     H97116   1.523   2.274   8.764 -1.7438  0.2362  1.1353
  704MOL0     H97117   1.623   2.343   8.911  2.8878 -0.9950 -0.0876
  704MOL0     H97118   1.790   2.299   8.807  1.4253 -0.7571 -3.2431
  704MOL0     H97119   1.772   2.150   8.896 -0.0953 -0.0753 -0.3660
  704MOL0     H97120   1.694   2.027   8.702 -0.3717 -0.6555  1.6373
  704MOL0     H97121   1.857   2.084   8.712  0.0578  2.4381  2.6304
  704MOL0     H97122   1.823   2.235   8.525 -0.5578  1.8651  2.2349
  704MOL0     H97123   1.640   2.233   8.547 -0.9308 -0.7986  1.2292
  704MOL0     H97124   1.830   2.016   8.443  0.0336  0.8967 -1.8810
  704MOL0     H97125   1.653   1.985   8.474 -1.1685  2.1517  2.6826
  704MOL0     H97126   1.765   2.211   8.293  0.6481  0.1389 -0.2748
  704MOL0     H97127   1.598   2.180   8.312  1.4884  1.8321 -1.1699
  704MOL0     H97128   1.617   1.955   8.208 -0.7801  1.0093 -0.0758
  704MOL0     H97129   1.792   1.970   8.233  1.9937  3.2199  2.9213
  704MOL0     H97130   1.808   2.155   8.068  1.5494 -0.9073 -0.7326
  704MOL0     H97131   1.634   2.150   8.048 -1.3690 -2.1416  0.2464
  704MOL0     H97132   1.428   1.959   9.073 -0.1848 -0.6473  3.3294
  704MOL0     H97133   1.270   1.994   9.243 -2.7936 -0.4078 -1.2044
  704MOL0     H97134   1.092   2.191   9.665 -1.5082 -1.0746  1.5200
  704MOL0     H97135   0.893   2.201   9.792 -0.5001 -1.4797 -0.5107
  704MOL0     H97136   0.125   2.724   9.020 -1.4449 -0.7661  0.1696
  704MOL0     H97137  -0.040   2.722   8.844 -0.1962  0.2296  0.9224
  704MOL0     H97138  -0.230   2.471   8.507 -1.0235  1.5830  1.4234
  704MOL0     H97139  -0.378   2.448   8.322 -1.1064  1.0588 -1.1287
  704MOL0     H97140  -0.432   2.746   8.121  2.5840 -1.8074  3.1454
  704MOL0     H97141  -0.488   2.670   7.970  4.1504  1.5265 -0.1329
  704MOL0     H97142  -0.677   2.705   8.126 -1.6312 -0.1315  0.2750
  704MOL0     H97143  -0.587   2.622   8.255  1.4908 -1.1702 -0.8314
  704MOL0     H97144  -0.639   2.471   7.990 -0.5166 -4.4945  0.8376
  704MOL0     H97145  -0.608   2.405   8.149  2.3787  0.7195  0.9359
  704MOL0     H97146  -0.871   2.539   8.056  1.3113  2.8392  1.9535
  704MOL0     H97147  -0.843   2.481   8.218 -2.1028 -0.0795 -0.1129
  704MOL0     H97148  -0.947   2.126   8.003  0.6695  1.0275 -0.8467
  704MOL0     H97149  -0.172   2.722   8.076 -1.0326  0.5497  0.5200
  704MOL0     H97150   0.049   2.859   8.257 -1.0134 -0.7269  1.9684
  704MOL0     H97151   0.138   2.698   8.267  2.2317  0.7239 -3.6617
  704MOL0     H97152   0.063   2.741   8.125  1.8638 -0.2307 -0.2130
  705MOL0     O97153   2.605   0.180  10.229 -0.1959 -0.6964 -0.0619
  705MOL0     C97154   2.729   0.157  10.233 -0.0432  0.8908 -0.7483
  705MOL0     O97155   2.804   0.165  10.350  0.1664  0.0680  0.1051
  705MOL0     C97156   2.745   0.224  10.459 -0.3073  0.1601  0.8097
  705MOL0     C97157   2.693   0.153  10.563  0.7962 -0.8001 -0.7639
  705MOL0     C97158   2.625   0.216  10.668  0.7740  0.9435  0.0061
  705MOL0     C97159   2.619   0.356  10.673  0.3617  0.0710 -0.7943
  705MOL0     O97160   2.566   0.436  10.774  1.2102  0.2300 -0.0747
  705MOL0     C97161   2.505   0.361  10.883  0.2951  0.6748  0.1441
  705MOL0     C97162   2.410   0.459  10.946  0.5731  0.2268  0.6001
  705MOL0     C97163   2.343   0.391  11.062 -0.0896  0.4809 -0.7678
  705MOL0     C97164   2.209   0.465  11.112  0.7417  0.2109 -0.1128
  705MOL0     C97165   2.148   0.402  11.241  0.0648 -0.5443  0.8293
  705MOL0     C97166   2.051   0.479  11.333 -0.6621  0.7625 -0.5736
  705MOL0     C97167   1.902   0.464  11.297 -0.1748  0.0414 -0.3122
  705MOL0     C97168   1.866   0.527  11.159 -0.3262  0.6925  0.6206
  705MOL0     N97169   1.912   0.664  11.150  0.1696 -0.0711 -0.5232
  705MOL0     C97170   1.989   0.717  11.053 -0.3833 -0.4901  0.6287
  705MOL0     C97171   2.004   0.847  11.079  0.3012 -1.4204  0.7973
  705MOL0     C97172   2.066   0.954  10.987 -0.1253  1.1693  0.3168
  705MOL0     C97173   2.133   0.910  10.852  0.3541  0.0189  0.3797
  705MOL0     C97174   2.037   0.922  10.729 -0.0752 -0.2097  1.3602
  705MOL0     C97175   1.929   0.809  10.741  0.7392 -0.3252  0.0964
  705MOL0     O97176   2.010   0.693  10.708 -0.1508 -0.0837  0.6491
  705MOL0     C97177   1.950   0.569  10.731 -0.3019 -0.4048  0.1803
  705MOL0     C97178   2.036   0.470  10.756  0.6286  1.1583  0.1612
  705MOL0     C97179   1.992   0.328  10.752  0.2371  0.2016 -0.3561
  705MOL0     C97180   2.085   0.220  10.808 -0.2930  0.3756  0.7399
  705MOL0     C97181   1.860   0.292  10.710 -0.4950 -0.6854 -0.2014
  705MOL0     C97182   1.803   0.151  10.710  0.2603  0.3818  1.0191
  705MOL0     O97183   1.683   0.144  10.643 -0.1617 -0.1609 -0.6866
  705MOL0     C97184   1.631   0.023  10.615 -0.3153 -0.9262 -0.5737
  705MOL0     C97185   1.693  -0.073  10.542  0.0964 -0.1361  0.3569
  705MOL0     C97186   1.643  -0.195  10.510  0.3115 -0.4803  0.2809
  705MOL0     C97187   1.518  -0.232  10.568  1.0666  0.3535 -0.6315
  705MOL0     O97188   1.453  -0.356  10.539  0.3194  0.7456 -1.3740
  705MOL0     C97189   1.520  -0.468  10.473  0.1542 -0.7967 -0.3076
  705MOL0     C97190   1.409  -0.571  10.455 -0.3229 -1.0719 -0.5896
  705MOL0     C97191   1.375  -0.630  10.593 -0.0148  1.1047 -0.2343
  705MOL0     C97192   1.280  -0.749  10.588 -0.0884 -0.1528  0.3085
  705MOL0     C97193   1.240  -0.798  10.724  1.0702  0.1184 -0.2464
  705MOL0     C97194   1.158  -0.934  10.712 -0.0087 -0.0549  0.0862
  705MOL0     C97195   1.113  -0.969  10.856  0.3609  0.8475  0.8168
  705MOL0     C97196   1.026  -1.092  10.880 -0.5244  0.1838 -0.2526
  705MOL0    Cl97197   0.892  -1.104  10.772  0.2769  0.0827 -0.1028
  705MOL0     C97198   1.444  -0.129  10.632  0.9817 -0.0695 -1.1557
  705MOL0     C97199   1.501  -0.010  10.661 -0.6311 -0.8112 -0.5097
  705MOL0     O97200   1.854   0.062  10.767 -0.3247 -0.3523 -0.5474
  705MOL0     C97201   1.783   0.402  10.670 -0.3918  1.1972  0.8630
  705MOL0     C97202   1.830   0.538  10.673  0.0089  0.2847 -0.7015
  705MOL0     N97203   1.941   0.877  11.201  0.9411  0.1639 -0.7582
  705MOL0     N97204   1.881   0.767  11.232  0.2805  0.1599 -1.1538
  705MOL0     C97205   2.678   0.427  10.570 -0.2467  0.4992 -0.0858
  705MOL0     C97206   2.752   0.362  10.469  0.5196 -0.0665 -0.8258
  705MOL0     C97207   2.810   0.110  10.119  0.2520  0.6240  0.4196
  705MOL0     C97208   2.953   0.119  10.133  0.6853 -0.3131  0.5783
  705MOL0     C97209   3.035   0.066  10.041 -0.2045 -0.4703 -0.4495
  705MOL0     C97210   2.993   0.016   9.919 -0.2659  0.2251  0.3632
  705MOL0     O97211   3.084  -0.050   9.839 -0.3425  0.3970  0.7244
  705MOL0     C97212   3.065  -0.008   9.697 -0.0308  0.6288  0.3372
  705MOL0     C97213   3.203   0.023   9.635 -0.5395  0.2837  1.0538
  705MOL0     C97214   3.307  -0.095   9.658 -0.2190  0.0250  0.0192
  705MOL0     C97215   3.400  -0.071   9.781  0.3370  1.0541 -0.0696
  705MOL0     C97216   3.491   0.033   9.745  0.3338  0.6730  0.1948
  705MOL0     C97217   3.564   0.126   9.723 -0.2813  0.4232  0.2705
  705MOL0     C97218   2.859   0.018   9.899  0.6681  0.0175 -0.3305
  705MOL0     C97219   2.761   0.060   9.991  0.2432 -0.1113 -0.7270
  705MOL0     C97220   2.622   0.039   9.950  0.1234 -0.5860  0.5639
  705MOL0     H97221   2.708   0.046  10.553  5.0888 -0.3897 -0.9139
  705MOL0     H97222   2.576   0.152  10.741  0.9878 -1.8464 -2.1227
  705MOL0     H97223   2.571   0.321  10.960  2.4544 -3.1500 -3.3112
  705MOL0     H97224   2.440   0.281  10.848 -3.2203  3.4735 -0.3616
  705MOL0     H97225   2.466   0.548  10.976  5.9187 -2.6945  0.4328
  705MOL0     H97226   2.333   0.498  10.878  0.5710  3.3460  2.1970
  705MOL0     H97227   2.322   0.286  11.039 -0.9157  0.4783 -0.0688
  705MOL0     H97228   2.415   0.385  11.144 -0.2343 -1.6226 -0.7470
  705MOL0     H97229   2.233   0.570  11.128 -2.0771  0.9486 -0.2259
  705MOL0     H97230   2.135   0.464  11.032  0.3686 -0.6365  0.2246
  705MOL0     H97231   2.236   0.371  11.299  1.2371 -1.2293 -1.2022
  705MOL0     H97232   2.088   0.316  11.210 -2.1531  1.1040  0.2831
  705MOL0     H97233   2.070   0.437  11.433  1.9765 -2.1892 -2.1129
  705MOL0     H97234   2.086   0.582  11.338  0.0760  0.4692  0.8531
  705MOL0     H97235   1.844   0.524  11.367  0.8862  1.8403 -0.9304
  705MOL0     H97236   1.883   0.358  11.317 -1.7342  0.3615  0.0282
  705MOL0     H97237   1.919   0.475  11.080 -0.7503  0.3788  0.5362
  705MOL0     H97238   1.760   0.521  11.130 -0.9067 -0.7690  2.7509
  705MOL0     H97239   2.025   0.676  10.960  2.6365  2.2646  0.4043
  705MOL0     H97240   2.136   1.014  11.045  0.5652  1.7277 -1.0578
  705MOL0     H97241   1.978   1.016  10.967 -1.2064 -0.1294  0.8161
  705MOL0     H97242   2.220   0.977  10.842  3.0804 -3.4015 -1.0690
  705MOL0     H97243   2.186   0.814  10.852  2.5177  1.1209 -1.2619
  705MOL0     H97244   1.989   1.019  10.711 -2.3808 -0.9069  3.1941
  705MOL0     H97245   2.102   0.904  10.643 -0.4427  2.0306  0.5284
  705MOL0     H97246   1.871   0.798  10.833 -0.8260 -4.9422 -1.1640
  705MOL0     H97247   1.863   0.842  10.660 -0.3826  1.0854  1.5338
  705MOL0     H97248   2.139   0.488  10.784  0.3646  1.6350  0.8376
  705MOL0     H97249   2.078   0.119  10.767  2.9870  1.4889 -3.2587
  705MOL0     H97250   2.096   0.212  10.917  4.8856  0.3148  0.4746
  705MOL0     H97251   2.190   0.240  10.785 -0.6513  0.6868 -0.7024
  705MOL0     H97252   1.791  -0.043  10.505  0.4619 -0.8976  0.6886
  705MOL0     H97253   1.706  -0.265  10.456 -0.6534 -0.0852 -1.4632
  705MOL0     H97254   1.555  -0.434  10.374 -1.3098 -1.7566 -1.1835
  705MOL0     H97255   1.612  -0.494  10.526  1.3728  4.8565  1.0290
  705MOL0     H97256   1.314  -0.529  10.422 -0.2407 -1.9206 -2.0356
  705MOL0     H97257   1.445  -0.639  10.376 -0.8694 -1.7251 -0.2817
  705MOL0     H97258   1.320  -0.557  10.653  1.0160  0.7074  1.2580
  705MOL0     H97259   1.468  -0.648  10.648 -0.0886  0.9218 -0.1668
  705MOL0     H97260   1.325  -0.827  10.526 -1.8593 -1.3446  0.4603
  705MOL0     H97261   1.188  -0.722  10.536  0.3310 -1.8358 -1.4401
  705MOL0     H97262   1.334  -0.811  10.779 -0.0193  1.4728  2.1137
  705MOL0     H97263   1.182  -0.724  10.779 -1.0577 -1.3775 -0.3426
  705MOL0     H97264   1.210  -1.012  10.656 -1.3543 -0.4211 -0.6989
  705MOL0     H97265   1.074  -0.906  10.647  1.5494 -2.2567 -3.1463
  705MOL0     H97266   1.050  -0.886  10.889  0.6382  0.3787  2.6244
  705MOL0     H97267   1.199  -0.980  10.923 -1.4172 -1.3642  2.9326
  705MOL0     H97268   0.979  -1.068  10.976  0.9329  4.4985 -0.3553
  705MOL0     H97269   1.078  -1.188  10.875 -0.1419  0.1294  2.6638
  705MOL0     H97270   1.343  -0.146  10.669  0.9584  0.1560 -1.1120
  705MOL0     H97271   1.448   0.065  10.719  0.4036 -1.6854  1.6676
  705MOL0     H97272   1.679   0.379  10.647 -0.1665  0.2535  0.7417
  705MOL0     H97273   1.753   0.611  10.649 -2.3186 -1.3535  1.2890
  705MOL0     H97274   2.670   0.535  10.583  2.5831  0.4969  3.3440
  705MOL0     H97275   2.781   0.422  10.383 -2.3413  0.8817 -1.2220
  705MOL0     H97276   3.001   0.171  10.216  1.6145 -0.8969  0.4163
  705MOL0     H97277   3.140   0.085  10.058 -0.2382 -0.5229 -0.1718
  705MOL0     H97278   3.013  -0.090   9.647 -0.4668  0.1060  1.5973
  705MOL0     H97279   3.003   0.079   9.672 -2.4031 -1.2708 -0.8179
  705MOL0     H97280   3.241   0.117   9.674 -2.4080  2.0141 -1.0048
  705MOL0     H97281   3.186   0.045   9.529 -3.2326  2.8015  1.8873
  705MOL0     H97282   3.247  -0.187   9.662  1.6389 -1.1891  2.2966
  705MOL0     H97283   3.359  -0.097   9.562 -0.3106  2.8474 -0.1724
  705MOL0     H97284   3.466  -0.157   9.796 -0.9543 -0.3936 -2.0953
  705MOL0     H97285   3.342  -0.062   9.874  0.1149 -1.5288  0.1379
  705MOL0     H97286   3.635   0.205   9.713 -2.2777  2.3561  0.5208
  705MOL0     H97287   2.834  -0.034   9.807  1.7639 -3.6963  1.3057
  705MOL0     H97288   2.615  -0.048   9.883  0.6969 -1.2143  1.2995
  705MOL0     H97289   2.563   0.030  10.041 -3.1230 -2.1283 -1.4922
  705MOL0     H97290   2.578   0.121   9.893  0.3320 -0.5132  0.5057
  706MOL0     O97291   8.226   1.597  11.392  0.4002  0.2563  0.2038
  706MOL0     C97292   8.222   1.501  11.318 -0.7865 -0.4461  1.0449
  706MOL0     O97293   8.170   1.382  11.346 -0.2495 -0.2543 -0.7070
  706MOL0     C97294   8.075   1.360  11.448 -0.0427  0.1754  0.3297
  706MOL0     C97295   8.064   1.439  11.568 -0.0634 -0.7185  0.6770
  706MOL0     C97296   7.957   1.424  11.660 -0.6148  0.4169  0.0816
  706MOL0     C97297   7.865   1.308  11.638  0.2004 -1.0482 -0.3878
  706MOL0     O97298   7.757   1.279  11.720 -1.1926  0.2306  0.0775
  706MOL0     C97299   7.710   1.382  11.805  0.6015  0.0346  0.9100
  706MOL0     C97300   7.596   1.331  11.884 -0.3985  0.0809  0.2646
  706MOL0     C97301   7.538   1.443  11.964  0.1601 -0.1218 -1.1824
  706MOL0     C97302   7.392   1.471  11.920 -0.1418  0.3655  0.3665
  706MOL0     C97303   7.307   1.541  12.029  0.0503  0.0975  0.1502
  706MOL0     C97304   7.164   1.558  11.980 -0.5509  0.1403 -0.0591
  706MOL0     C97305   7.060   1.609  12.078  0.1417  0.3471 -0.5516
  706MOL0     C97306   6.956   1.692  11.999  0.1395  0.0370  0.0299
  706MOL0     N97307   6.842   1.720  12.093 -0.9187 -0.3310 -0.7031
  706MOL0     C97308   6.742   1.637  12.126  0.4536  0.6003 -0.0258
  706MOL0     C97309   6.687   1.688  12.239 -0.0060 -0.2090  0.3492
  706MOL0     C97310   6.571   1.623  12.309 -0.6990  0.0414  0.5545
  706MOL0     C97311   6.455   1.587  12.225 -1.0048 -0.1644  0.6289
  706MOL0     C97312   6.352   1.489  12.295  0.3071 -0.4391 -1.0459
  706MOL0     C97313   6.215   1.486  12.230  0.6992 -0.1593  1.8171
  706MOL0     O97314   6.152   1.616  12.229 -0.4931  0.1104 -0.7025
  706MOL0     C97315   6.079   1.659  12.339  1.1463  0.1867 -0.3452
  706MOL0     C97316   6.043   1.586  12.445 -0.6984  0.5294 -0.2976
  706MOL0     C97317   5.938   1.631  12.531  0.4284 -0.6046 -0.1505
  706MOL0     C97318   5.899   1.549  12.652 -0.1403 -0.3006 -0.4365
  706MOL0     C97319   5.870   1.763  12.514 -0.1285  0.4128  1.5405
  706MOL0     C97320   5.754   1.808  12.578  0.6794 -0.2587 -0.4383
  706MOL0     O97321   5.733   1.945  12.567 -0.9249  0.5925 -0.5460
  706MOL0     C97322   5.631   2.001  12.634 -0.3398 -0.2135  0.2652
  706MOL0     C97323   5.614   1.988  12.775 -0.9168  0.5753  0.2714
  706MOL0     C97324   5.532   2.073  12.847  0.2366 -0.1684  0.1038
  706MOL0     C97325   5.454   2.163  12.778 -0.3220 -0.3017  0.9047
  706MOL0     O97326   5.377   2.255  12.843 -0.1147 -0.5842 -0.1499
  706MOL0     C97327   5.238   2.228  12.841  0.4005  0.2268 -0.2216
  706MOL0     C97328   5.157   2.346  12.893  0.0990 -0.9619 -0.3553
  706MOL0     C97329   5.140   2.456  12.797  0.2718  0.5547  0.3387
  706MOL0     C97330   5.276   2.538  12.784  0.7543 -0.0122  0.0393
  706MOL0     C97331   5.252   2.676  12.734  0.6974 -0.0586 -0.2970
  706MOL0     C97332   5.192   2.678  12.591  0.2841 -0.3181 -0.3732
  706MOL0     C97333   5.293   2.630  12.470 -0.3290  0.0995  0.1849
  706MOL0     C97334   5.217   2.579  12.348  0.2723 -0.0822  0.8136
  706MOL0    Cl97335   5.117   2.709  12.279  0.1141  0.7010  0.0846
  706MOL0     C97336   5.459   2.169  12.633 -0.4444  0.0517 -0.3330
  706MOL0     C97337   5.557   2.098  12.563  0.0464  0.4454 -0.5750
  706MOL0     O97338   5.675   1.730  12.634 -0.4719  0.2361 -0.2878
  706MOL0     C97339   5.928   1.840  12.411  0.2458  0.1105  0.5858
  706MOL0     C97340   6.018   1.785  12.321 -0.7666 -0.0771 -0.0853
  706MOL0     N97341   6.756   1.798  12.272 -0.5945 -1.0612 -0.1818
  706MOL0     N97342   6.846   1.821  12.173 -0.7687 -0.4941 -1.1896
  706MOL0     C97343   7.899   1.226  11.540  0.0726  0.0220 -0.0034
  706MOL0     C97344   7.993   1.248  11.439 -0.2840  0.9076 -0.8815
  706MOL0     C97345   8.266   1.523  11.177  0.4907  0.7758  0.5719
  706MOL0     C97346   8.341   1.423  11.127 -0.5792  0.3571  0.2478
  706MOL0     C97347   8.398   1.439  10.997  0.3925 -1.0788  0.0386
  706MOL0     C97348   8.360   1.547  10.914  0.1975  0.5771  0.6098
  706MOL0     O97349   8.433   1.568  10.797 -0.2697 -0.4088  0.2587
  706MOL0     C97350   8.394   1.478  10.683 -0.1448 -0.3717  0.4295
  706MOL0     C97351   8.505   1.494  10.572 -0.9294  0.3384  0.6459
  706MOL0     C97352   8.516   1.628  10.507 -0.3095  0.0187  0.1444
  706MOL0     C97353   8.664   1.665  10.490  0.1177 -0.5001  0.4490
  706MOL0     C97354   8.723   1.701  10.621 -0.4447 -0.4911 -0.3543
  706MOL0     C97355   8.801   1.727  10.713  0.2001  0.1510 -0.1140
  706MOL0     C97356   8.284   1.647  10.966  0.0966 -0.0399  0.6120
  706MOL0     C97357   8.234   1.640  11.100 -0.0227 -0.3166  0.7540
  706MOL0     C97358   8.161   1.753  11.159  0.3823 -0.3715  0.8041
  706MOL0     H97359   8.122   1.528  11.588 -2.5434  1.1548  0.1188
  706MOL0     H97360   7.946   1.497  11.740 -0.5973 -1.5906  1.9998
  706MOL0     H97361   7.683   1.463  11.736 -0.1683 -2.6508 -2.2169
  706MOL0     H97362   7.789   1.417  11.872  1.6175  1.1987 -0.7935
  706MOL0     H97363   7.520   1.291  11.816 -0.9164  2.9478 -0.9976
  706MOL0     H97364   7.640   1.248  11.941  0.3060 -1.3046 -2.1501
  706MOL0     H97365   7.535   1.425  12.072  2.1498  1.6642 -0.7578
  706MOL0     H97366   7.601   1.533  11.958  1.1018 -0.7285 -0.7285
  706MOL0     H97367   7.395   1.539  11.834 -0.8373  1.7287  1.3822
  706MOL0     H97368   7.342   1.377  11.896  1.3401  0.0344 -1.8224
  706MOL0     H97369   7.356   1.635  12.053 -2.4189  2.2344 -2.4140
  706MOL0     H97370   7.300   1.488  12.124 -0.9034  2.8077  1.7012
  706MOL0     H97371   7.167   1.612  11.885 -3.6186  2.5452  1.0241
  706MOL0     H97372   7.131   1.458  11.953  1.0815  0.4827 -3.9904
  706MOL0     H97373   7.093   1.683  12.152  0.2001  2.4584 -2.5890
  706MOL0     H97374   7.026   1.531  12.147  0.2240  1.9506  1.4177
  706MOL0     H97375   7.015   1.782  11.978  3.7710 -1.8854  1.1003
  706MOL0     H97376   6.918   1.637  11.913 -0.9045 -0.0215  0.5220
  706MOL0     H97377   6.713   1.544  12.079 -0.9607  0.7656  0.4586
  706MOL0     H97378   6.531   1.689  12.386  2.3341  0.1750  2.1785
  706MOL0     H97379   6.611   1.535  12.360  0.8303 -1.9700 -3.6511
  706MOL0     H97380   6.404   1.673  12.181  1.9707  1.1759 -0.5333
  706MOL0     H97381   6.488   1.532  12.136 -1.1903  1.8893 -0.7964
  706MOL0     H97382   6.385   1.388  12.318  0.0010 -0.2825  0.1644
  706MOL0     H97383   6.337   1.530  12.396  0.5893 -3.6489  0.4028
  706MOL0     H97384   6.236   1.472  12.123  1.7016  0.9030  1.8528
  706MOL0     H97385   6.148   1.407  12.263  1.2493  0.0208  3.4698
  706MOL0     H97386   6.088   1.487  12.452  0.6845  1.2427  1.4529
  706MOL0     H97387   5.803   1.497  12.640 -0.9019  1.1651 -1.0669
  706MOL0     H97388   5.888   1.625  12.730 -2.3203 -1.7928  0.8223
  706MOL0     H97389   5.978   1.482  12.685 -2.5016 -2.0363  2.1875
  706MOL0     H97390   5.666   1.919  12.841 -0.1300 -0.9450 -1.8207
  706MOL0     H97391   5.521   2.072  12.955  0.4414 -0.4725  0.1210
  706MOL0     H97392   5.200   2.199  12.743  0.1659 -1.0847  0.2461
  706MOL0     H97393   5.228   2.141  12.907  0.0426  0.1167 -0.4160
  706MOL0     H97394   5.058   2.305  12.915  0.3540 -1.8020 -0.7410
  706MOL0     H97395   5.208   2.385  12.982  2.9682  2.2322 -3.1516
  706MOL0     H97396   5.054   2.515  12.830 -1.9071 -3.5773  2.8292
  706MOL0     H97397   5.110   2.418  12.700  0.7508  1.2992 -0.1142
  706MOL0     H97398   5.345   2.480  12.722 -3.4643 -4.1743 -1.2837
  706MOL0     H97399   5.331   2.545  12.879 -1.6207  1.0250  1.4221
  706MOL0     H97400   5.175   2.705  12.807  0.1350  0.2307 -1.0004
  706MOL0     H97401   5.342   2.738  12.737 -1.6714  3.7155  1.8078
  706MOL0     H97402   5.147   2.777  12.574 -1.2796 -0.9269  0.0106
  706MOL0     H97403   5.112   2.604  12.586 -0.2910 -0.0486  2.8493
  706MOL0     H97404   5.368   2.561  12.509  0.7409 -0.0033 -1.9225
  706MOL0     H97405   5.356   2.712  12.435  1.1279 -0.3172  1.7443
  706MOL0     H97406   5.156   2.496  12.384 -1.8442 -0.1546 -2.5444
  706MOL0     H97407   5.299   2.547  12.283  1.5314 -0.2952  2.4179
  706MOL0     H97408   5.402   2.242  12.577 -1.1315 -1.5715 -1.7979
  706MOL0     H97409   5.574   2.096  12.456  3.3811 -1.1616 -0.1403
  706MOL0     H97410   5.890   1.938  12.386 -1.0673 -0.5849 -0.2882
  706MOL0     H97411   6.050   1.847  12.238  0.5510 -0.0388  0.4301
  706MOL0     H97412   7.850   1.129  11.541  0.8817 -0.4028  0.9356
  706MOL0     H97413   8.006   1.176  11.359  0.7458  0.6595 -0.5117
  706MOL0     H97414   8.347   1.328  11.178  1.7616  0.2427 -0.1285
  706MOL0     H97415   8.468   1.370  10.950  2.5890  1.0250  0.0283
  706MOL0     H97416   8.406   1.375  10.717  1.6505  0.0197  1.1030
  706MOL0     H97417   8.301   1.485  10.627 -0.5055 -0.2546  1.0378
  706MOL0     H97418   8.484   1.424  10.491  1.3135  0.3694 -0.0493
  706MOL0     H97419   8.598   1.460  10.620 -1.0122  1.2951  1.5049
  706MOL0     H97420   8.471   1.627  10.407  1.8330  1.3481 -0.9110
  706MOL0     H97421   8.454   1.699  10.563 -2.1607 -3.1127  2.4377
  706MOL0     H97422   8.674   1.757  10.432 -3.1378  1.3240  2.4690
  706MOL0     H97423   8.707   1.577  10.440 -0.7901 -1.4304  1.2495
  706MOL0     H97424   8.885   1.729  10.780 -0.4279  0.3620  0.6810
  706MOL0     H97425   8.275   1.736  10.905  2.7832 -0.5386 -0.6714
  706MOL0     H97426   8.148   1.834  11.087 -0.9006 -2.1829 -1.1378
  706MOL0     H97427   8.056   1.723  11.169  0.5793 -1.5289 -0.2199
  706MOL0     H97428   8.212   1.792  11.247  1.3020 -0.3393  0.2711
  707MOL0     O97429   3.539   9.889   8.686  0.1630  0.0604  0.7657
  707MOL0     C97430   3.606   9.847   8.778  0.7449 -0.3742 -0.0663
  707MOL0     O97431   3.722   9.777   8.763 -0.7634  0.1110 -0.4287
  707MOL0     C97432   3.795   9.799   8.656 -0.1332  0.6746  0.6842
  707MOL0     C97433   3.776   9.718   8.552  0.9621 -0.9174 -0.3763
  707MOL0     C97434   3.852   9.743   8.432  0.1018  0.1459 -0.4900
  707MOL0     C97435   3.946   9.844   8.427 -0.5280  0.5824 -0.0602
  707MOL0     O97436   4.042   9.856   8.335  0.2054  0.1521 -0.3398
  707MOL0     C97437   4.029   9.779   8.222 -0.1621 -0.2000  0.2134
  707MOL0     C97438   3.924   9.818   8.116  0.4906 -0.2751 -0.6510
  707MOL0     C97439   3.947   9.739   7.987 -0.3918 -0.4352  0.3818
  707MOL0     C97440   4.041   9.814   7.881 -0.3402 -0.1901  0.3602
  707MOL0     C97441   4.097   9.719   7.772 -0.6914  0.4629  0.1652
  707MOL0     C97442   4.125   9.803   7.647 -0.4634  0.1709  0.8838
  707MOL0     C97443   4.211   9.743   7.530  0.9462 -0.5584 -0.0171
  707MOL0     C97444   4.255   9.863   7.439  0.4241  0.0936 -1.2840
  707MOL0     N97445   4.376   9.833   7.354 -1.0192  0.9041  0.4936
  707MOL0     C97446   4.503   9.830   7.407 -0.1666  0.3446  1.3155
  707MOL0     C97447   4.581   9.803   7.298 -0.4140 -1.1523  0.0508
  707MOL0     C97448   4.725   9.839   7.304  0.3070 -0.0899 -0.2380
  707MOL0     C97449   4.768   9.942   7.198  0.1537  0.4371  0.0669
  707MOL0     C97450   4.713  10.080   7.225  0.5198 -0.2180 -0.0712
  707MOL0     C97451   4.789  10.166   7.121 -0.6373 -0.9368  0.0568
  707MOL0     O97452   4.912  10.221   7.178  0.6626 -0.3643 -0.4104
  707MOL0     C97453   4.947  10.350   7.141 -0.2124 -0.5904 -0.3960
  707MOL0     C97454   5.012  10.366   7.021 -0.0434 -0.4023  0.2274
  707MOL0     C97455   5.049  10.498   6.969 -0.3496 -0.0918 -0.0415
  707MOL0     C97456   5.122  10.521   6.830  0.5106  1.1904  0.0483
  707MOL0     C97457   5.030  10.606   7.061  0.3068 -0.1504 -0.1863
  707MOL0     C97458   5.073  10.746   7.018  0.0685  1.1413  1.1807
  707MOL0     O97459   4.974  10.835   6.993 -1.0792 -0.2936 -0.5140
  707MOL0     C97460   4.988  10.938   6.910 -0.0668 -1.4315 -0.0724
  707MOL0     C97461   5.044  10.935   6.775 -0.0779 -0.3453  0.1075
  707MOL0     C97462   5.044  11.044   6.687 -0.0307  0.8151 -0.0002
  707MOL0     C97463   4.983  11.163   6.729 -0.0660  0.9974 -0.7961
  707MOL0     O97464   4.984  11.266   6.640  0.9042  1.1174  0.1396
  707MOL0     C97465   4.890  11.377   6.662 -0.0620  1.2056  0.8167
  707MOL0     C97466   4.852  11.472   6.552 -0.5463 -0.1203 -0.4047
  707MOL0     C97467   4.972  11.555   6.498  0.3416  0.7499 -0.2757
  707MOL0     C97468   4.922  11.639   6.380  0.2728 -0.1295 -1.1917
  707MOL0     C97469   5.023  11.750   6.337  0.4615  0.4513 -0.4605
  707MOL0     C97470   4.936  11.879   6.298  0.5177 -0.3430 -0.3063
  707MOL0     C97471   4.852  11.853   6.166  0.2615 -0.4905  0.9697
  707MOL0     C97472   4.850  11.985   6.078  0.3116 -0.3209 -0.1101
  707MOL0    Cl97473   4.688  11.979   5.988 -0.3243  0.0571  0.1576
  707MOL0     C97474   4.936  11.171   6.861  0.6690 -1.0456 -0.8598
  707MOL0     C97475   4.938  11.062   6.953 -1.4399 -0.9344  0.0845
  707MOL0     O97476   5.196  10.766   6.994  0.9865 -0.3878 -0.0108
  707MOL0     C97477   4.961  10.590   7.185 -0.0692  0.2063 -0.3576
  707MOL0     C97478   4.915  10.465   7.227  0.4042  1.0120 -0.1522
  707MOL0     N97479   4.501   9.771   7.189 -0.2898  0.0816 -0.0556
  707MOL0     N97480   4.379   9.780   7.229 -0.3901  0.1650  0.7033
  707MOL0     C97481   3.971   9.924   8.549  0.4881  0.0591  0.2708
  707MOL0     C97482   3.889   9.901   8.661  0.0235  0.6914 -0.5793
  707MOL0     C97483   3.565   9.881   8.915  0.4568 -0.2009  1.0177
  707MOL0     C97484   3.431   9.924   8.926 -0.3320  0.3250 -0.1702
  707MOL0     C97485   3.380   9.947   9.058 -0.6881 -0.7012  0.0039
  707MOL0     C97486   3.465   9.939   9.166 -0.2311 -0.0240 -0.2055
  707MOL0     O97487   3.406   9.954   9.283  0.1919 -0.1779  0.8079
  707MOL0     C97488   3.476   9.989   9.399 -0.3373  0.3572 -0.3528
  707MOL0     C97489   3.378  10.068   9.484 -0.1337  0.5815  0.2001
  707MOL0     C97490   3.275   9.981   9.555 -0.2673  0.3596 -0.5447
  707MOL0     C97491   3.184  10.053   9.649  1.0424 -0.5580 -0.4040
  707MOL0     C97492   3.259  10.057   9.776  0.1580  1.0255 -0.1986
  707MOL0     C97493   3.303  10.060   9.890 -0.2704 -0.6367 -0.0026
  707MOL0     C97494   3.596   9.913   9.152 -0.3411  0.3386  0.6216
  707MOL0     C97495   3.653   9.878   9.027 -0.0653 -0.7922 -0.5623
  707MOL0     C97496   3.795   9.832   9.029 -1.1097 -0.9230  0.1095
  707MOL0     H97497   3.699   9.641   8.551 -1.6724  1.4773 -3.2477
  707MOL0     H97498   3.838   9.674   8.349  2.4253  0.7063 -1.4344
  707MOL0     H97499   4.010   9.674   8.244 -0.1489 -0.0857  0.7740
  707MOL0     H97500   4.125   9.782   8.169 -1.2384  0.5671 -1.8259
  707MOL0     H97501   3.827   9.787   8.157  0.0449  1.9103  0.0800
  707MOL0     H97502   3.923   9.926   8.098  0.3985 -0.1593  0.0361
  707MOL0     H97503   3.986   9.643   8.023  1.1562  0.8251  2.3271
  707MOL0     H97504   3.847   9.734   7.943 -1.9491  0.0076  3.5711
  707MOL0     H97505   3.987   9.897   7.836  2.0566  0.0663 -2.3415
  707MOL0     H97506   4.129   9.847   7.936 -0.4773  3.0283 -1.1631
  707MOL0     H97507   4.023   9.642   7.748  1.5086 -0.7605 -3.2992
  707MOL0     H97508   4.190   9.668   7.797  0.6139  0.7144 -3.6490
  707MOL0     H97509   4.028   9.831   7.607 -0.1791  1.5345  1.0720
  707MOL0     H97510   4.168   9.896   7.688  1.9767 -0.9794  1.1569
  707MOL0     H97511   4.146   9.676   7.473  1.2026  0.4934 -1.5940
  707MOL0     H97512   4.295   9.685   7.569  1.4571  0.6452  0.7222
  707MOL0     H97513   4.174   9.881   7.368  1.0464 -0.5505 -2.1762
  707MOL0     H97514   4.269   9.954   7.498  1.8546 -1.3859  0.7853
  707MOL0     H97515   4.541   9.869   7.500  2.5183  1.4043 -0.1046
  707MOL0     H97516   4.783   9.748   7.284 -0.9077 -0.2323 -3.7358
  707MOL0     H97517   4.741   9.871   7.408 -1.3104 -0.4037  0.1387
  707MOL0     H97518   4.877   9.947   7.194  0.3337 -2.1451  0.0098
  707MOL0     H97519   4.737   9.903   7.101  1.0030 -2.0973  0.7187
  707MOL0     H97520   4.606  10.090   7.204  1.0158  1.6962 -2.0741
  707MOL0     H97521   4.739  10.122   7.322  1.9019 -0.8145 -0.1667
  707MOL0     H97522   4.801  10.114   7.026 -1.8832  0.2336 -0.7783
  707MOL0     H97523   4.731  10.250   7.081 -1.1547 -2.3458 -2.3564
  707MOL0     H97524   5.044  10.290   6.950 -0.6419 -0.2083 -0.2624
  707MOL0     H97525   5.082  10.455   6.752 -2.9665  1.9894  1.0243
  707MOL0     H97526   5.231  10.509   6.833  0.7618  2.6948 -1.4842
  707MOL0     H97527   5.096  10.622   6.798 -0.7545  0.9273  0.2107
  707MOL0     H97528   5.091  10.846   6.734  0.8292 -1.3715  3.0707
  707MOL0     H97529   5.086  11.034   6.588  0.3846  2.5442 -0.0447
  707MOL0     H97530   4.796  11.334   6.700  0.7598 -0.0789  1.4794
  707MOL0     H97531   4.928  11.437   6.745  0.8450  0.0273  1.2791
  707MOL0     H97532   4.800  11.412   6.477 -0.4314 -0.2399 -0.3910
  707MOL0     H97533   4.779  11.543   6.591  0.4230  0.1333  1.0143
  707MOL0     H97534   5.053  11.484   6.476 -0.5329 -0.2654 -0.3217
  707MOL0     H97535   5.010  11.605   6.588 -3.6178 -0.3600  2.2952
  707MOL0     H97536   4.835  11.690   6.423  1.4235  1.7235 -0.9254
  707MOL0     H97537   4.885  11.594   6.288  1.0766  3.2837 -3.3622
  707MOL0     H97538   5.081  11.777   6.426  1.2107 -1.5943 -0.2838
  707MOL0     H97539   5.097  11.713   6.265  1.0401 -0.3858  0.5482
  707MOL0     H97540   4.995  11.969   6.281 -0.2974  0.8293  2.5161
  707MOL0     H97541   4.868  11.901   6.380 -1.6014 -0.6779 -1.8889
  707MOL0     H97542   4.757  11.812   6.202  1.2031  0.1065  4.5360
  707MOL0     H97543   4.910  11.782   6.106  3.9164  2.0149  1.2342
  707MOL0     H97544   4.939  11.983   6.015  0.6904 -2.3751  0.4132
  707MOL0     H97545   4.851  12.071   6.145 -2.8010  0.1802 -0.5507
  707MOL0     H97546   4.915  11.265   6.913  0.4416 -0.2018 -2.4185
  707MOL0     H97547   4.908  11.063   7.057  1.1268 -1.9292  0.9115
  707MOL0     H97548   4.954  10.678   7.247 -1.2044  0.1182 -0.3510
  707MOL0     H97549   4.851  10.450   7.314  0.4074 -1.2126 -0.4591
  707MOL0     H97550   4.052   9.996   8.549 -1.1779  2.0362  1.2827
  707MOL0     H97551   3.890   9.959   8.753 -0.6573 -0.3450  0.1053
  707MOL0     H97552   3.356   9.934   8.847 -1.3943 -0.2527  0.7342
  707MOL0     H97553   3.277   9.972   9.082 -0.1056  0.0013  1.9953
  707MOL0     H97554   3.520   9.900   9.445 -0.4163 -0.4495 -1.7646
  707MOL0     H97555   3.561  10.051   9.370  2.3336 -3.5008 -1.5161
  707MOL0     H97556   3.326  10.145   9.426 -0.7746 -0.5472 -0.7652
  707MOL0     H97557   3.441  10.119   9.557  3.5403  1.3532 -3.1595
  707MOL0     H97558   3.205   9.947   9.478 -0.2637 -1.4938  0.2329
  707MOL0     H97559   3.319   9.893   9.602  0.5936  0.4070 -1.2371
  707MOL0     H97560   3.084  10.012   9.665  0.1150  2.0008  1.0437
  707MOL0     H97561   3.176  10.155   9.611  1.9516  0.0398  0.9281
  707MOL0     H97562   3.333  10.078   9.992 -3.0973 -2.1634  1.2187
  707MOL0     H97563   3.654   9.920   9.243 -2.9814  0.2367  2.4159
  707MOL0     H97564   3.830   9.837   9.132 -1.9982 -1.6215  0.4551
  707MOL0     H97565   3.811   9.732   8.989 -2.0586 -0.0641 -2.6612
  707MOL0     H97566   3.859   9.899   8.969 -2.7847 -2.9677 -4.4465
  708MOL0     O97567   3.918   4.802  10.857 -0.1860 -0.0081 -1.3147
  708MOL0     C97568   3.936   4.691  10.810  0.6319  0.4514 -1.0186
  708MOL0     O97569   3.847   4.588  10.832 -0.1852 -1.2246 -0.2818
  708MOL0     C97570   3.716   4.610  10.876 -0.0192 -0.0403 -0.7440
  708MOL0     C97571   3.639   4.731  10.886 -0.2145 -0.3395  0.0415
  708MOL0     C97572   3.507   4.728  10.946 -0.7553  0.2551  0.0095
  708MOL0     C97573   3.449   4.603  10.986 -0.0402 -0.5022  0.4309
  708MOL0     O97574   3.322   4.594  11.035  0.0164 -0.4779 -0.1665
  708MOL0     C97575   3.254   4.464  11.057  0.3643 -0.3307  0.4864
  708MOL0     C97576   3.218   4.401  10.923  0.6154 -0.9029  0.2804
  708MOL0     C97577   3.128   4.284  10.940  0.8523 -0.1173  0.1675
  708MOL0     C97578   2.984   4.331  10.973  0.0026 -0.7672 -0.5635
  708MOL0     C97579   2.871   4.226  10.957 -0.4062  0.1951  0.7243
  708MOL0     C97580   2.735   4.284  10.992 -0.3500 -0.2497 -0.5023
  708MOL0     C97581   2.623   4.179  11.031 -0.3764  0.6719  0.1585
  708MOL0     C97582   2.562   4.112  10.900 -0.0207  0.6179  0.4260
  708MOL0     N97583   2.427   4.052  10.920 -0.3328 -0.4904 -0.2945
  708MOL0     C97584   2.402   3.970  11.032  0.7246  0.3551 -0.2058
  708MOL0     C97585   2.270   3.965  11.048 -0.8072  0.1340  1.0742
  708MOL0     C97586   2.201   3.876  11.138  0.4082 -0.1577  0.0087
  708MOL0     C97587   2.073   3.941  11.196 -1.2964  0.6239 -1.2079
  708MOL0     C97588   1.991   3.830  11.259 -0.2990  0.0361 -0.0526
  708MOL0     C97589   1.873   3.889  11.348 -0.6605  0.3916 -0.4051
  708MOL0     O97590   1.913   3.950  11.471 -0.3071  0.2773  0.2679
  708MOL0     C97591   1.955   3.881  11.575 -0.0475 -0.1713  0.0482
  708MOL0     C97592   2.031   3.948  11.667 -0.4216 -0.3856 -0.1232
  708MOL0     C97593   2.094   3.892  11.786 -0.4888 -0.2116  0.9875
  708MOL0     C97594   2.164   3.990  11.870 -0.5196 -1.2580  1.2029
  708MOL0     C97595   2.087   3.752  11.808  0.0485  0.0735 -0.5926
  708MOL0     C97596   2.139   3.698  11.934 -0.2234  0.5735  1.4577
  708MOL0     O97597   2.211   3.769  12.025  0.1384 -0.2408  0.0836
  708MOL0     C97598   2.242   3.710  12.145 -0.2249 -0.3401 -0.0436
  708MOL0     C97599   2.152   3.660  12.231  0.2129  0.2691  0.4901
  708MOL0     C97600   2.196   3.622  12.354 -0.1944 -1.3070  0.0845
  708MOL0     C97601   2.330   3.630  12.399 -0.9432 -0.4626 -0.3074
  708MOL0     O97602   2.360   3.605  12.528 -0.5079  0.2575 -0.2666
  708MOL0     C97603   2.481   3.526  12.547  0.1317 -1.1140  0.2760
  708MOL0     C97604   2.468   3.387  12.489 -1.1156 -0.0478  0.9234
  708MOL0     C97605   2.371   3.293  12.562 -0.5946  0.2408 -0.4269
  708MOL0     C97606   2.378   3.300  12.712  0.0470 -0.2685  0.1080
  708MOL0     C97607   2.513   3.257  12.771 -0.5984  0.2378  0.2094
  708MOL0     C97608   2.503   3.288  12.927  0.1376 -0.0505  0.0561
  708MOL0     C97609   2.457   3.172  13.012 -0.3941 -0.4333  0.0441
  708MOL0     C97610   2.456   3.214  13.158 -0.3702  0.1771 -0.3205
  708MOL0    Cl97611   2.618   3.194  13.237  0.1091  0.0771  0.0718
  708MOL0     C97612   2.424   3.679  12.308  0.7118  0.4579 -0.6802
  708MOL0     C97613   2.379   3.718  12.186 -0.2950 -0.0333  1.3047
  708MOL0     O97614   2.122   3.575  11.945 -0.2574 -0.7018  0.2343
  708MOL0     C97615   2.003   3.684  11.711  0.6212  0.5527  0.0266
  708MOL0     C97616   1.938   3.745  11.605 -0.6357  0.6161  0.0826
  708MOL0     N97617   2.215   4.051  10.959  0.4844  0.0857 -0.3989
  708MOL0     N97618   2.307   4.117  10.892  0.4378 -0.2064  0.1317
  708MOL0     C97619   3.525   4.488  10.960  0.6275  0.4084  0.4583
  708MOL0     C97620   3.647   4.495  10.904  0.6085 -1.0233 -1.2112
  708MOL0     C97621   4.057   4.670  10.731  0.0056  0.1808 -0.4366
  708MOL0     C97622   4.126   4.786  10.680 -1.0555 -0.0942  0.5630
  708MOL0     C97623   4.246   4.770  10.616 -0.4008  0.0869  1.8524
  708MOL0     C97624   4.293   4.647  10.578 -0.4613  0.6405 -0.5752
  708MOL0     O97625   4.420   4.639  10.520  0.0662  0.0747  0.1484
  708MOL0     C97626   4.414   4.567  10.391  0.1481 -0.0806 -0.4098
  708MOL0     C97627   4.330   4.640  10.296 -0.2464  0.6005  0.0323
  708MOL0     C97628   4.352   4.580  10.159 -0.2308  0.1449  0.7073
  708MOL0     C97629   4.482   4.619  10.074  0.3451  0.4212  0.5177
  708MOL0     C97630   4.510   4.759  10.079  0.2883  0.7167  0.0167
  708MOL0     C97631   4.551   4.867  10.079 -0.3358  0.0296 -0.4997
  708MOL0     C97632   4.215   4.533  10.608 -1.4167  0.5988  0.2008
  708MOL0     C97633   4.098   4.541  10.686 -0.1126  0.7491 -0.3237
  708MOL0     C97634   4.039   4.407  10.728 -0.3274 -0.9514 -0.5112
  708MOL0     H97635   3.672   4.825  10.844  1.5410 -0.9499  0.0053
  708MOL0     H97636   3.448   4.819  10.955 -0.6894  0.4237 -1.1882
  708MOL0     H97637   3.162   4.485  11.113  0.2190 -0.4517  0.2925
  708MOL0     H97638   3.317   4.400  11.119  0.7884  0.3786  0.8013
  708MOL0     H97639   3.174   4.480  10.861  0.4461 -0.4565  0.9622
  708MOL0     H97640   3.311   4.366  10.877  0.7021 -2.9577  1.8504
  708MOL0     H97641   3.115   4.209  10.861 -1.2035 -3.4245  3.3070
  708MOL0     H97642   3.173   4.227  11.022  1.4144  1.4003  0.9480
  708MOL0     H97643   2.993   4.367  11.076  1.4811 -2.2000 -0.1521
  708MOL0     H97644   2.946   4.411  10.909  0.5483 -0.7078 -0.8170
  708MOL0     H97645   2.887   4.143  11.026 -1.8363  1.1857  2.3423
  708MOL0     H97646   2.870   4.201  10.850  1.6979  0.8966  0.4899
  708MOL0     H97647   2.751   4.344  11.082  0.3038 -0.1403 -0.6838
  708MOL0     H97648   2.694   4.355  10.920 -0.2920 -0.2821 -0.5682
  708MOL0     H97649   2.549   4.247  11.074 -0.9752  0.4395 -0.4756
  708MOL0     H97650   2.663   4.105  11.101  1.8740  0.3896 -1.3119
  708MOL0     H97651   2.565   4.180  10.815  2.5694 -0.0597 -0.1423
  708MOL0     H97652   2.626   4.026  10.877  0.1969  0.7552  0.5130
  708MOL0     H97653   2.476   3.912  11.085 -0.4566 -1.6439 -0.6135
  708MOL0     H97654   2.273   3.837  11.211 -0.5131 -1.9940  0.0095
  708MOL0     H97655   2.165   3.792  11.077  0.0217  0.3816 -0.5146
  708MOL0     H97656   2.093   4.014  11.276 -1.0149 -1.6301  0.9167
  708MOL0     H97657   2.015   3.992  11.119 -1.0152  0.6033 -1.4359
  708MOL0     H97658   1.952   3.770  11.177 -0.1924 -0.9351  0.5997
  708MOL0     H97659   2.058   3.769  11.320  0.5237  1.2049  0.2689
  708MOL0     H97660   1.830   3.962  11.279  2.6181  0.8690 -2.1331
  708MOL0     H97661   1.794   3.814  11.362 -1.7612  1.3599 -1.1843
  708MOL0     H97662   2.039   4.054  11.643 -3.7418  0.0408  0.1804
  708MOL0     H97663   2.112   4.002  11.966  0.8009 -1.6040  1.9938
  708MOL0     H97664   2.174   4.091  11.828  4.4979 -0.8674  2.5994
  708MOL0     H97665   2.269   3.968  11.893  0.7383  2.1951 -0.5250
  708MOL0     H97666   2.045   3.666  12.213  0.4579  2.4198 -0.5628
  708MOL0     H97667   2.129   3.611  12.439 -2.0200  2.0626 -0.7202
  708MOL0     H97668   2.570   3.569  12.501 -0.5719 -0.0865 -0.1582
  708MOL0     H97669   2.508   3.538  12.653 -0.0005  0.4435  0.1637
  708MOL0     H97670   2.448   3.384  12.382  2.6017  0.7481  0.0499
  708MOL0     H97671   2.568   3.343  12.484 -1.9001 -1.9818  1.1746
  708MOL0     H97672   2.392   3.189  12.539  0.8118  0.0403  1.4719
  708MOL0     H97673   2.267   3.296  12.528  0.3410 -0.2898 -3.5833
  708MOL0     H97674   2.306   3.226  12.750 -1.3396  1.7836  1.6976
  708MOL0     H97675   2.349   3.398  12.750  1.8546  0.2996  0.0938
  708MOL0     H97676   2.523   3.149  12.756  1.0328  0.6597 -2.2620
  708MOL0     H97677   2.597   3.312  12.729 -1.5334  1.8652  0.3968
  708MOL0     H97678   2.438   3.375  12.939 -0.2798 -0.5740  1.9359
  708MOL0     H97679   2.604   3.308  12.962  0.3979 -0.9220 -0.1793
  708MOL0     H97680   2.519   3.087  12.985 -1.7647 -0.7104 -2.5974
  708MOL0     H97681   2.358   3.141  12.975 -0.4636  1.9584 -2.1069
  708MOL0     H97682   2.395   3.137  13.205 -0.0378 -0.3222 -0.6998
  708MOL0     H97683   2.414   3.313  13.180 -3.9370 -1.3144  0.2665
  708MOL0     H97684   2.529   3.698  12.326  1.5712 -2.2126 -2.3046
  708MOL0     H97685   2.445   3.758  12.111 -1.4031  0.7386  0.7174
  708MOL0     H97686   1.983   3.579  11.730  1.0982  0.9534  3.4020
  708MOL0     H97687   1.880   3.682  11.538 -3.1909 -0.0659  2.7029
  708MOL0     H97688   3.503   4.387  10.996  1.8101 -1.0425 -2.5544
  708MOL0     H97689   3.713   4.410  10.888 -0.3817 -2.6409  2.1967
  708MOL0     H97690   4.087   4.884  10.704 -0.7698 -0.4403  2.6325
  708MOL0     H97691   4.308   4.857  10.599 -0.2371 -0.3849 -0.2445
  708MOL0     H97692   4.514   4.567  10.345  1.0895  0.1094  1.5444
  708MOL0     H97693   4.371   4.466  10.396  0.5017 -0.2158 -0.0252
  708MOL0     H97694   4.361   4.745  10.291 -1.9962  1.1017 -1.5718
  708MOL0     H97695   4.222   4.637  10.315 -0.3059  0.2524 -0.3541
  708MOL0     H97696   4.345   4.471  10.168 -0.3587  0.2089  1.4122
  708MOL0     H97697   4.265   4.603  10.097 -0.2376 -1.3884  0.0842
  708MOL0     H97698   4.474   4.585   9.970  1.9068  1.9779 -0.1489
  708MOL0     H97699   4.578   4.577  10.107  0.6195  3.4655  4.1998
  708MOL0     H97700   4.602   4.961  10.087  0.6356 -0.2455 -2.6793
  708MOL0     H97701   4.254   4.439  10.572 -1.1900 -0.6055  3.2514
  708MOL0     H97702   4.104   4.325  10.696  0.9317 -0.3499  0.4022
  708MOL0     H97703   4.045   4.412  10.837 -0.0852 -2.0572 -0.4597
  708MOL0     H97704   3.940   4.390  10.685 -0.9852  0.1385  0.5109
  709MOL0     O97705   1.548   9.022   8.261  0.5897 -0.0201 -0.6074
  709MOL0     C97706   1.604   8.980   8.365 -0.0848 -0.4104 -0.8427
  709MOL0     O97707   1.726   9.026   8.411  0.3672  0.4342 -0.8040
  709MOL0     C97708   1.764   9.143   8.368  0.8262 -0.6976 -0.2640
  709MOL0     C97709   1.860   9.150   8.266  0.0208 -0.0443 -0.2044
  709MOL0     C97710   1.910   9.276   8.214 -0.1704  0.2387  0.2977
  709MOL0     C97711   1.847   9.394   8.260  0.4230  0.1598 -0.2153
  709MOL0     O97712   1.904   9.504   8.194  0.0008 -0.0691 -0.0600
  709MOL0     C97713   1.803   9.597   8.168 -0.1420  0.3343 -0.0221
  709MOL0     C97714   1.786   9.605   8.010  0.7646 -0.4051 -0.6904
  709MOL0     C97715   1.818   9.487   7.930  0.1824  0.6115 -0.0903
  709MOL0     C97716   1.783   9.512   7.787  0.5229 -0.5233  1.0134
  709MOL0     C97717   1.783   9.385   7.713 -0.2008  0.1307  0.0376
  709MOL0     C97718   1.730   9.389   7.574 -0.2292  0.1214  0.2039
  709MOL0     C97719   1.723   9.251   7.502 -0.0168 -0.0691  0.3115
  709MOL0     C97720   1.855   9.202   7.453  0.2266 -0.5598  0.8832
  709MOL0     N97721   1.887   9.261   7.319 -0.2341 -0.2060 -0.4917
  709MOL0     C97722   1.859   9.199   7.191  0.0093 -0.5655 -0.0384
  709MOL0     C97723   1.908   9.283   7.099  0.9381  0.1520 -1.1006
  709MOL0     C97724   1.914   9.247   6.958  0.1541  0.9017 -0.6009
  709MOL0     C97725   2.059   9.226   6.916 -0.0760  0.7691  0.4712
  709MOL0     C97726   2.039   9.169   6.776 -0.3030  0.3456  0.3346
  709MOL0     C97727   2.157   9.081   6.729 -0.4983 -0.4297  0.0183
  709MOL0     O97728   2.148   9.028   6.596  0.1276 -0.6736 -0.1272
  709MOL0     C97729   2.254   8.976   6.542  0.2707  0.3395  0.5306
  709MOL0     C97730   2.371   8.934   6.608 -0.7329  0.6302 -0.0541
  709MOL0     C97731   2.478   8.871   6.540  0.5819  0.9946 -0.0691
  709MOL0     C97732   2.591   8.814   6.624 -0.8010 -0.1665  0.3676
  709MOL0     C97733   2.454   8.843   6.407 -0.4690 -0.1641 -0.0209
  709MOL0     C97734   2.547   8.772   6.339  0.2723  0.1200  0.5628
  709MOL0     O97735   2.639   8.850   6.271 -0.7057  0.0050  0.0630
  709MOL0     C97736   2.744   8.789   6.216 -0.2847 -0.0074  0.2040
  709MOL0     C97737   2.869   8.852   6.230 -0.1826 -0.8507  0.3948
  709MOL0     C97738   2.986   8.815   6.163  0.5049 -0.1412 -0.3525
  709MOL0     C97739   2.981   8.701   6.083 -0.4651 -1.0463  0.0373
  709MOL0     O97740   3.093   8.637   6.027  0.6225 -0.5615  0.0078
  709MOL0     C97741   3.180   8.589   6.134  0.5538 -0.3246  0.4668
  709MOL0     C97742   3.265   8.467   6.086  0.0857  0.3680  0.0317
  709MOL0     C97743   3.386   8.445   6.169 -0.3793 -0.2332 -0.1277
  709MOL0     C97744   3.499   8.394   6.085  0.5645  0.2727  0.6103
  709MOL0     C97745   3.611   8.341   6.170 -0.4646  0.4785  0.0048
  709MOL0     C97746   3.711   8.260   6.071 -0.3603 -0.2160  0.1771
  709MOL0     C97747   3.786   8.134   6.128  0.1419  0.3380 -0.3573
  709MOL0     C97748   3.909   8.158   6.213 -0.2412  0.2947 -0.4695
  709MOL0    Cl97749   3.873   8.295   6.329 -0.3238 -0.5557 -0.3072
  709MOL0     C97750   2.863   8.647   6.054  0.2379  0.0953 -0.1366
  709MOL0     C97751   2.742   8.688   6.118 -0.3426  0.2601 -0.9617
  709MOL0     O97752   2.544   8.655   6.333 -0.4428  0.3117  0.3603
  709MOL0     C97753   2.338   8.886   6.342 -0.9652  0.4121  0.3004
  709MOL0     C97754   2.245   8.966   6.407  0.3575  0.4321 -1.3696
  709MOL0     N97755   1.956   9.401   7.157  0.0362  0.4308 -0.5232
  709MOL0     N97756   1.946   9.381   7.287 -0.1248 -0.3790 -0.3849
  709MOL0     C97757   1.746   9.388   8.359  0.3484  0.6926  0.9585
  709MOL0     C97758   1.713   9.269   8.424  0.5104  0.2785 -0.4607
  709MOL0     C97759   1.525   8.905   8.457 -0.7772 -0.2045 -0.4494
  709MOL0     C97760   1.554   8.916   8.595  0.5454  0.9315  0.2035
  709MOL0     C97761   1.463   8.870   8.689 -0.3241  0.2110 -0.7557
  709MOL0     C97762   1.347   8.802   8.657  0.0474 -1.1940  0.0186
  709MOL0     O97763   1.249   8.754   8.737  0.4505 -0.6275 -0.3939
  709MOL0     C97764   1.244   8.780   8.876  0.0441  0.0481  0.8683
  709MOL0     C97765   1.319   8.661   8.947 -0.7667  0.6362  1.1777
  709MOL0     C97766   1.233   8.534   8.933  0.1795  0.6079 -0.2647
  709MOL0     C97767   1.307   8.409   8.986  1.3288 -0.2331 -0.2005
  709MOL0     C97768   1.435   8.381   8.937  0.8584  0.3475 -0.0742
  709MOL0     C97769   1.544   8.329   8.902  0.3598 -1.0824 -0.3486
  709MOL0     C97770   1.320   8.786   8.522  0.7369 -0.5291 -0.6343
  709MOL0     C97771   1.404   8.840   8.421  0.4596  0.6717 -0.4184
  709MOL0     C97772   1.366   8.805   8.280 -0.1962  0.1233  1.2819
  709MOL0     H97773   1.905   9.056   8.237 -3.2630 -1.7591 -0.1329
  709MOL0     H97774   1.995   9.278   8.146 -0.0557 -0.5938  0.4131
  709MOL0     H97775   1.847   9.692   8.197  0.9574 -0.6228  1.5546
  709MOL0     H97776   1.703   9.577   8.208  0.2880 -3.8540 -0.5716
  709MOL0     H97777   1.680   9.629   8.006  0.9750  0.5600 -0.6504
  709MOL0     H97778   1.839   9.691   7.968 -0.4370  0.9847  0.5252
  709MOL0     H97779   1.920   9.449   7.937 -0.3943 -1.3678 -1.2585
  709MOL0     H97780   1.760   9.401   7.964  1.5970 -0.9912 -1.5146
  709MOL0     H97781   1.687   9.564   7.777  0.4048 -0.8911  0.0522
  709MOL0     H97782   1.865   9.569   7.743 -1.0104  0.9612 -0.0470
  709MOL0     H97783   1.726   9.307   7.764 -2.0288  1.6913  0.4641
  709MOL0     H97784   1.884   9.342   7.721 -0.9310 -1.3066  2.7682
  709MOL0     H97785   1.629   9.429   7.585 -0.5261 -1.1789  2.7520
  709MOL0     H97786   1.796   9.458   7.520  2.0020 -2.1860 -0.2054
  709MOL0     H97787   1.660   9.266   7.414 -2.2008  3.1460  2.1760
  709MOL0     H97788   1.677   9.173   7.564 -0.9459  1.0336  1.0730
  709MOL0     H97789   1.945   9.221   7.512  3.2085 -1.4544 -2.9269
  709MOL0     H97790   1.854   9.093   7.449  1.1349 -0.5399 -0.9483
  709MOL0     H97791   1.843   9.095   7.167 -0.6272 -0.2686 -0.9759
  709MOL0     H97792   1.874   9.334   6.905  2.0268  0.7537 -2.3953
  709MOL0     H97793   1.840   9.169   6.935 -1.0852  2.4308 -2.0278
  709MOL0     H97794   2.105   9.324   6.928 -1.1037  1.6184 -1.9301
  709MOL0     H97795   2.115   9.158   6.981  0.7107  2.6624  1.8449
  709MOL0     H97796   1.963   9.091   6.765  1.4535 -1.2890 -0.7382
  709MOL0     H97797   2.024   9.252   6.705 -0.5661  0.2260  0.2484
  709MOL0     H97798   2.248   9.135   6.760 -2.4414  2.9371  0.3512
  709MOL0     H97799   2.159   8.994   6.795  2.5146 -0.8082 -0.3929
  709MOL0     H97800   2.368   8.943   6.716  0.4325 -1.9472  0.2621
  709MOL0     H97801   2.688   8.841   6.581 -0.3212 -1.3117  0.6934
  709MOL0     H97802   2.574   8.709   6.647  1.0078 -0.9823 -1.6739
  709MOL0     H97803   2.602   8.881   6.710  0.8821 -1.0895  0.9321
  709MOL0     H97804   2.868   8.944   6.287 -1.2238  1.1935 -2.6918
  709MOL0     H97805   3.079   8.864   6.188 -2.2225  3.8025  3.4856
  709MOL0     H97806   3.233   8.675   6.177 -2.4234 -0.5428  5.3770
  709MOL0     H97807   3.120   8.542   6.214  1.8342 -1.6613  0.6824
  709MOL0     H97808   3.197   8.382   6.094  0.6915 -0.2901 -1.3285
  709MOL0     H97809   3.283   8.467   5.978 -0.9089 -0.2746 -0.1508
  709MOL0     H97810   3.372   8.374   6.251  2.5634 -1.4216 -0.5217
  709MOL0     H97811   3.428   8.543   6.196  0.2064  0.4990 -3.2940
  709MOL0     H97812   3.520   8.464   6.004 -1.1454  0.8104  0.6024
  709MOL0     H97813   3.449   8.312   6.032 -1.1998  1.5233  0.2827
  709MOL0     H97814   3.668   8.409   6.234 -0.0953 -2.3429  2.9187
  709MOL0     H97815   3.574   8.259   6.232  1.8601 -1.2869 -0.7929
  709MOL0     H97816   3.776   8.340   6.033  1.2756 -1.9334 -0.7536
  709MOL0     H97817   3.652   8.224   5.985  1.5454 -0.5547 -1.0514
  709MOL0     H97818   3.822   8.088   6.036 -0.0128 -0.3404 -0.0843
  709MOL0     H97819   3.715   8.074   6.186 -3.6062  1.6131 -3.2619
  709MOL0     H97820   3.997   8.192   6.157  0.8891 -0.0395  1.0172
  709MOL0     H97821   3.947   8.072   6.269 -0.1510  0.6025 -0.0440
  709MOL0     H97822   2.835   8.559   5.997 -3.1765  0.1616  1.1697
  709MOL0     H97823   2.644   8.651   6.089 -0.7388 -0.4154  1.0854
  709MOL0     H97824   2.331   8.854   6.238 -3.6423 -0.0202  0.5373
  709MOL0     H97825   2.157   9.013   6.365  0.6830  1.2753 -1.1232
  709MOL0     H97826   1.697   9.480   8.389 -2.4978 -0.6146  0.6247
  709MOL0     H97827   1.649   9.253   8.510  2.8109 -3.6075  0.7521
  709MOL0     H97828   1.645   8.954   8.640 -0.3445 -0.4942  3.5313
  709MOL0     H97829   1.483   8.877   8.795 -3.3267 -2.0800  0.0798
  709MOL0     H97830   1.300   8.869   8.906 -0.6647  0.8164 -0.0122
  709MOL0     H97831   1.139   8.784   8.905 -1.3646  1.5274 -3.5948
  709MOL0     H97832   1.335   8.689   9.052  1.2017 -0.4281  1.1956
  709MOL0     H97833   1.423   8.648   8.918 -1.2986  0.7210 -0.9512
  709MOL0     H97834   1.139   8.532   8.989 -1.7412 -3.1783 -3.1499
  709MOL0     H97835   1.205   8.522   8.828  1.4020  1.2177 -0.6774
  709MOL0     H97836   1.238   8.325   8.971  0.1157  1.3118 -5.0148
  709MOL0     H97837   1.324   8.425   9.093  1.2228 -1.1471 -0.0386
  709MOL0     H97838   1.630   8.271   8.876 -1.1776 -1.8272 -4.7821
  709MOL0     H97839   1.229   8.735   8.494  1.3262 -0.4102 -2.9807
  709MOL0     H97840   1.318   8.707   8.278 -0.1304  0.0784 -1.4116
  709MOL0     H97841   1.294   8.873   8.234 -1.3840 -1.7872  0.1653
  709MOL0     H97842   1.460   8.800   8.226 -1.1232  1.8281 -0.6314
  710MOL0     O97843   2.679   1.740   1.335  0.5950 -0.6846 -0.1541
  710MOL0     C97844   2.591   1.756   1.420 -0.5436 -0.3330  0.5166
  710MOL0     O97845   2.562   1.664   1.524  0.8475  0.0313 -0.2963
  710MOL0     C97846   2.640   1.556   1.542 -0.6831 -0.3914 -0.5859
  710MOL0     C97847   2.586   1.431   1.540  0.2047  0.5808 -0.2636
  710MOL0     C97848   2.664   1.325   1.580 -0.0727  0.5059 -0.1872
  710MOL0     C97849   2.795   1.343   1.635 -0.5430  0.2405  0.1204
  710MOL0     O97850   2.881   1.248   1.681  0.3441 -0.6964 -0.1245
  710MOL0     C97851   2.836   1.114   1.693  0.5097  0.0354  0.2281
  710MOL0     C97852   2.803   1.074   1.835  0.7797 -0.4470  0.1885
  710MOL0     C97853   2.666   1.133   1.887 -0.5597  0.3153  0.6256
  710MOL0     C97854   2.563   1.024   1.859 -0.0001 -0.1276 -0.7257
  710MOL0     C97855   2.418   1.074   1.866  0.2394  1.0469 -0.0444
  710MOL0     C97856   2.314   0.973   1.893 -0.2599  0.2014 -0.1251
  710MOL0     C97857   2.329   0.903   2.026 -0.4173  0.7735 -0.3502
  710MOL0     C97858   2.197   0.870   2.096  0.0580  0.0200  0.0435
  710MOL0     N97859   2.110   0.792   2.010  0.2012 -0.4418  0.4563
  710MOL0     C97860   2.079   0.651   2.019  0.1253  0.4097  0.1646
  710MOL0     C97861   1.949   0.638   1.972 -0.1178 -0.2153  0.2001
  710MOL0     C97862   1.876   0.512   1.972  0.1583  0.2747 -0.5584
  710MOL0     C97863   1.807   0.466   1.845  0.1291 -0.5882  0.6247
  710MOL0     C97864   1.885   0.498   1.712  0.7764  0.0027  0.0214
  710MOL0     C97865   2.010   0.415   1.687 -0.4311  0.7175 -0.4974
  710MOL0     O97866   2.082   0.468   1.572 -0.6761 -0.1023 -0.0296
  710MOL0     C97867   2.184   0.387   1.517  0.7629 -0.0956  0.8745
  710MOL0     C97868   2.216   0.408   1.378  0.2730 -0.3318 -0.0007
  710MOL0     C97869   2.295   0.315   1.301  0.5469 -1.0129 -1.3324
  710MOL0     C97870   2.295   0.338   1.150 -0.4789  0.1261  0.2237
  710MOL0     C97871   2.344   0.198   1.360  0.3233 -0.3331 -0.4772
  710MOL0     C97872   2.409   0.092   1.284 -0.3483 -0.1187 -0.8341
  710MOL0     O97873   2.525   0.041   1.346  0.1517  0.6649 -0.5562
  710MOL0     C97874   2.605  -0.029   1.259  0.0263 -0.4034 -0.1546
  710MOL0     C97875   2.706   0.036   1.189  0.7380 -0.4507 -0.0552
  710MOL0     C97876   2.789  -0.018   1.093 -0.1771 -0.3691 -0.1001
  710MOL0     C97877   2.766  -0.154   1.061 -0.0573 -0.2269 -0.3173
  710MOL0     O97878   2.845  -0.226   0.977 -0.3243  0.2587 -0.5144
  710MOL0     C97879   2.873  -0.179   0.846  0.0284 -0.5137 -0.0153
  710MOL0     C97880   3.025  -0.155   0.841  0.4923  0.0816 -0.0178
  710MOL0     C97881   3.108  -0.278   0.860  0.4259  0.1686 -0.2368
  710MOL0     C97882   3.224  -0.261   0.949  0.5470  0.4197 -0.1294
  710MOL0     C97883   3.189  -0.239   1.098 -0.4826 -0.3891  0.5084
  710MOL0     C97884   3.311  -0.237   1.190 -0.4774 -0.3447  0.0153
  710MOL0     C97885   3.275  -0.277   1.332 -0.5384 -0.4713  0.1226
  710MOL0     C97886   3.164  -0.201   1.403  0.4080 -0.3907 -0.8409
  710MOL0    Cl97887   3.225  -0.028   1.414  0.4559  0.4369  0.1506
  710MOL0     C97888   2.662  -0.226   1.120 -0.1780  0.7037  0.1338
  710MOL0     C97889   2.586  -0.159   1.221 -0.4732  0.3396 -0.3222
  710MOL0     O97890   2.358   0.049   1.181  0.6810 -0.3718 -0.0841
  710MOL0     C97891   2.308   0.179   1.495  0.6181  0.4963 -0.6792
  710MOL0     C97892   2.233   0.263   1.571  0.3848 -0.5277  0.5159
  710MOL0     N97893   1.907   0.759   1.926  0.1037 -0.4614 -0.1730
  710MOL0     N97894   2.000   0.843   1.951  0.7559  0.5086  0.9410
  710MOL0     C97895   2.848   1.473   1.630  0.2529 -0.1017  0.0601
  710MOL0     C97896   2.769   1.578   1.589 -0.2439 -0.0654  0.3168
  710MOL0     C97897   2.512   1.872   1.402  0.3680 -0.1849  0.2540
  710MOL0     C97898   2.375   1.856   1.407  0.2998 -0.7788 -0.7030
  710MOL0     C97899   2.279   1.960   1.395 -0.3587  0.2774 -0.1070
  710MOL0     C97900   2.319   2.089   1.366 -1.3577 -0.5384  0.2735
  710MOL0     O97901   2.228   2.185   1.352  0.1551 -0.0616 -0.0291
  710MOL0     C97902   2.268   2.299   1.264 -0.6671  0.0550 -0.4992
  710MOL0     C97903   2.142   2.370   1.236  0.8731 -0.6783 -0.0276
  710MOL0     C97904   2.056   2.289   1.132  0.4240  0.1693 -0.3634
  710MOL0     C97905   1.991   2.395   1.041  0.2240  0.1821  0.1534
  710MOL0     C97906   1.917   2.316   0.942  0.2288 -0.2733 -1.1597
  710MOL0     C97907   1.847   2.236   0.878  0.2678 -0.1800  0.9557
  710MOL0     C97908   2.460   2.106   1.350  0.3488  0.8846 -0.4981
  710MOL0     C97909   2.559   2.000   1.359  0.2490  0.2797 -0.0522
  710MOL0     C97910   2.692   2.034   1.325  0.2386 -0.0268  0.4688
  710MOL0     H97911   2.483   1.414   1.511  0.5318 -2.6563  0.1258
  710MOL0     H97912   2.615   1.229   1.586  1.6665 -0.4148  0.0109
  710MOL0     H97913   2.921   1.047   1.684  0.0498 -0.9206  2.4021
  710MOL0     H97914   2.765   1.093   1.613  0.8402 -3.4777  0.7237
  710MOL0     H97915   2.786   0.966   1.840 -0.9183 -0.2179  0.1294
  710MOL0     H97916   2.884   1.103   1.901  1.1374 -0.5869 -0.1855
  710MOL0     H97917   2.671   1.134   1.996  1.8649 -3.6539  0.7456
  710MOL0     H97918   2.645   1.230   1.841 -1.3966  0.3638  1.1072
  710MOL0     H97919   2.578   0.968   1.766  1.9125 -1.6571  0.4228
  710MOL0     H97920   2.569   0.954   1.942 -0.4467 -0.8319 -1.2672
  710MOL0     H97921   2.410   1.110   1.763 -2.2706  1.3541  0.2002
  710MOL0     H97922   2.407   1.156   1.938  1.6150 -0.0253  1.4744
  710MOL0     H97923   2.218   1.022   1.872 -1.3105 -1.1061  1.3566
  710MOL0     H97924   2.320   0.892   1.820 -0.8832 -1.1994  1.3070
  710MOL0     H97925   2.389   0.960   2.098 -1.5173  1.3335  0.1518
  710MOL0     H97926   2.383   0.811   2.005 -0.5196  1.0782 -2.1196
  710MOL0     H97927   2.213   0.805   2.182  0.4522 -0.4619 -0.3892
  710MOL0     H97928   2.146   0.963   2.124  2.2377  2.0247 -2.1196
  710MOL0     H97929   2.136   0.576   2.072  0.4017  0.1584 -0.4782
  710MOL0     H97930   1.797   0.516   2.049 -2.6859 -1.9210 -3.1163
  710MOL0     H97931   1.946   0.431   1.996  1.2081  0.4286 -2.8476
  710MOL0     H97932   1.780   0.360   1.848 -1.3474 -0.3063 -0.8979
  710MOL0     H97933   1.715   0.525   1.842 -0.2695 -1.1026  2.2082
  710MOL0     H97934   1.818   0.471   1.630  1.8723 -0.5384 -0.7218
  710MOL0     H97935   1.908   0.605   1.721 -1.5391  0.3928  2.4383
  710MOL0     H97936   2.067   0.426   1.779 -1.1631  1.4770 -0.1244
  710MOL0     H97937   1.994   0.307   1.675 -1.1571  0.8096 -0.3416
  710MOL0     H97938   2.175   0.500   1.337 -2.0486 -1.5096 -0.4952
  710MOL0     H97939   2.354   0.266   1.093 -3.4941 -2.7702  0.4764
  710MOL0     H97940   2.336   0.434   1.116 -0.6674  0.5978  1.2709
  710MOL0     H97941   2.203   0.324   1.094  1.1224 -0.1590 -2.4932
  710MOL0     H97942   2.719   0.139   1.220  2.4733  0.4084 -3.1454
  710MOL0     H97943   2.878   0.036   1.061 -0.6172 -0.3564 -1.3659
  710MOL0     H97944   2.846  -0.255   0.771 -2.2245 -0.9271  1.1116
  710MOL0     H97945   2.805  -0.095   0.833 -1.1741 -1.0338  2.4363
  710MOL0     H97946   3.059  -0.101   0.752 -0.8159 -0.5517 -0.9370
  710MOL0     H97947   3.035  -0.087   0.926 -5.1442 -0.7401  1.7063
  710MOL0     H97948   3.143  -0.321   0.765  1.7484 -3.5712  1.7363
  710MOL0     H97949   3.056  -0.361   0.909 -0.7896 -0.0382 -1.7953
  710MOL0     H97950   3.274  -0.175   0.904 -1.1299  1.3806 -0.2372
  710MOL0     H97951   3.284  -0.353   0.940  1.2623  0.7148  1.3573
  710MOL0     H97952   3.144  -0.139   1.109  0.6545  0.1617  0.3230
  710MOL0     H97953   3.122  -0.319   1.132  1.4414 -2.8817 -1.2191
  710MOL0     H97954   3.350  -0.136   1.181 -1.3151 -0.0017  0.1605
  710MOL0     H97955   3.384  -0.308   1.149  0.8236  1.1198 -0.2959
  710MOL0     H97956   3.360  -0.270   1.401 -1.5741 -0.2863  1.4363
  710MOL0     H97957   3.244  -0.382   1.335 -0.6086 -0.4634 -0.2952
  710MOL0     H97958   3.162  -0.242   1.504 -2.3850 -0.1102 -0.7066
  710MOL0     H97959   3.064  -0.209   1.359 -0.7881 -2.0072  1.9475
  710MOL0     H97960   2.639  -0.331   1.110 -0.0333  0.7520 -0.7679
  710MOL0     H97961   2.501  -0.205   1.270 -0.6789  0.3016 -0.7058
  710MOL0     H97962   2.347   0.086   1.537 -1.0540 -0.3482 -0.9047
  710MOL0     H97963   2.201   0.239   1.672  0.1498 -2.3420  0.0463
  710MOL0     H97964   2.946   1.501   1.667 -0.3608  0.3193  1.4295
  710MOL0     H97965   2.809   1.676   1.614 -1.8558  0.6971  0.0825
  710MOL0     H97966   2.332   1.758   1.428  1.2636 -1.2936 -1.0627
  710MOL0     H97967   2.173   1.935   1.401  0.1668 -2.3941 -0.6472
  710MOL0     H97968   2.332   2.364   1.324 -1.4936 -0.2502  0.7659
  710MOL0     H97969   2.316   2.275   1.169  0.8282  3.5049 -0.7458
  710MOL0     H97970   2.169   2.470   1.202 -0.2958 -0.1199  0.6278
  710MOL0     H97971   2.087   2.376   1.330  1.1349 -0.8885  0.1445
  710MOL0     H97972   2.119   2.221   1.075  1.5808  0.7115  0.2323
  710MOL0     H97973   1.981   2.223   1.176 -2.4837  1.8157 -2.4897
  710MOL0     H97974   2.062   2.461   0.991 -0.3212 -1.0002 -2.3194
  710MOL0     H97975   1.931   2.466   1.098 -2.7538  1.0760 -3.6834
  710MOL0     H97976   1.784   2.171   0.822  1.4173 -0.4908  0.0022
  710MOL0     H97977   2.494   2.203   1.315 -2.3510  2.3177  0.5238
  710MOL0     H97978   2.771   1.974   1.370 -0.3327  1.0473  3.0798
  710MOL0     H97979   2.711   2.040   1.217 -3.5677  1.6846 -0.2785
  710MOL0     H97980   2.712   2.136   1.359  1.2697 -0.2993  0.7239
  711MOL0     O97981  10.101  11.127   1.526  1.1135  0.5337 -0.8808
  711MOL0     C97982  10.019  11.203   1.477 -0.0960  0.8061 -0.1300
  711MOL0     O97983   9.888  11.199   1.496 -0.1882 -0.4467  0.9716
  711MOL0     C97984   9.837  11.095   1.567  0.0737 -0.4171 -0.0086
  711MOL0     C97985   9.797  10.990   1.497 -0.6909  0.3568 -0.0798
  711MOL0     C97986   9.746  10.877   1.561 -0.0372 -0.3559 -0.9100
  711MOL0     C97987   9.722  10.883   1.695  1.1910  0.9197  0.3549
  711MOL0     O97988   9.662  10.774   1.749  0.3124 -0.2242 -0.2793
  711MOL0     C97989   9.729  10.738   1.870 -0.2088 -0.2582 -0.1452
  711MOL0     C97990   9.677  10.612   1.930  0.2682  0.4657 -0.5704
  711MOL0     C97991   9.523  10.598   1.933  0.1816  0.5015 -0.2590
  711MOL0     C97992   9.465  10.496   1.833 -0.0774  0.2617 -0.3162
  711MOL0     C97993   9.350  10.557   1.759  0.1815 -0.5519  0.2633
  711MOL0     C97994   9.228  10.580   1.847  0.0537 -0.5166  0.0713
  711MOL0     C97995   9.101  10.611   1.765  0.1184 -0.1978 -0.7906
  711MOL0     C97996   8.973  10.601   1.845 -0.9267 -0.0848  0.0413
  711MOL0     N97997   8.916  10.466   1.826 -0.9924 -0.1485  0.1323
  711MOL0     C97998   8.844  10.416   1.718  0.3626  0.2653 -0.2210
  711MOL0     C97999   8.781  10.309   1.764  0.1508  0.4131 -0.1323
  711MOL0     C98000   8.685  10.211   1.695 -0.8771  0.4829 -0.7843
  711MOL0     C98001   8.761  10.114   1.593  0.1619 -0.7402 -0.0053
  711MOL0     C98002   8.867  10.038   1.681 -0.1271  0.5258 -0.1658
  711MOL0     C98003   8.816   9.971   1.815 -0.9548 -0.1116 -0.0982
  711MOL0     O98004   8.706   9.880   1.801 -0.6322 -0.0285  0.3433
  711MOL0     C98005   8.645   9.818   1.908 -0.3069 -0.5931 -0.8811
  711MOL0     C98006   8.544   9.728   1.881  0.2498 -0.0115  0.0259
  711MOL0     C98007   8.493   9.650   1.982 -0.1786 -0.9420  0.3530
  711MOL0     C98008   8.411   9.535   1.941  0.1923  0.2234 -0.8571
  711MOL0     C98009   8.534   9.676   2.122  0.4547 -0.2728  0.9083
  711MOL0     C98010   8.474   9.604   2.226 -0.1620  0.3559  0.4137
  711MOL0     O98011   8.424   9.685   2.327 -0.0160 -0.0392 -0.0548
  711MOL0     C98012   8.351   9.627   2.433 -0.8223 -0.0900  0.0215
  711MOL0     C98013   8.294   9.721   2.523 -0.1300 -0.0473  0.7031
  711MOL0     C98014   8.217   9.684   2.628  0.3079  0.8272 -0.5385
  711MOL0     C98015   8.201   9.548   2.652  0.3953  0.6301  0.3767
  711MOL0     O98016   8.113   9.485   2.741 -0.2845 -0.2091  0.6334
  711MOL0     C98017   8.087   9.542   2.876 -0.1190 -0.0028  0.5964
  711MOL0     C98018   7.989   9.463   2.951  0.2913 -0.0224  0.1427
  711MOL0     C98019   7.837   9.492   2.920 -0.6757 -0.1623  0.3507
  711MOL0     C98020   7.796   9.651   2.918 -0.2790  0.0098  0.7319
  711MOL0     C98021   7.651   9.676   2.923 -0.2596 -0.6841  0.0392
  711MOL0     C98022   7.600   9.823   2.889  0.1611 -0.1434 -0.1182
  711MOL0     C98023   7.447   9.817   2.913 -0.3416  0.1792  0.4082
  711MOL0     C98024   7.392   9.955   2.919  0.0508 -0.4481  0.4730
  711MOL0    Cl98025   7.221   9.956   2.935  0.1431  0.0868 -0.3959
  711MOL0     C98026   8.257   9.451   2.564 -0.4171 -0.1886 -0.0768
  711MOL0     C98027   8.342   9.488   2.464  0.4116  0.4913 -0.2934
  711MOL0     O98028   8.472   9.487   2.212  0.3522  1.3973 -0.2685
  711MOL0     C98029   8.630   9.777   2.150  0.0131 -0.5909  0.6417
  711MOL0     C98030   8.684   9.847   2.040  0.7176  0.4747 -0.7796
  711MOL0     N98031   8.798  10.296   1.895  0.0980 -0.2584 -0.7478
  711MOL0     N98032   8.888  10.389   1.934 -0.4470  0.4848 -0.7934
  711MOL0     C98033   9.745  10.999   1.773  0.4827  1.2832  0.1139
  711MOL0     C98034   9.799  11.106   1.703 -0.9002  0.3577  0.0052
  711MOL0     C98035  10.078  11.310   1.385 -0.1423  0.0087 -0.2294
  711MOL0     C98036  10.023  11.434   1.387  0.0397  1.1354  0.1997
  711MOL0     C98037  10.085  11.543   1.329  0.1324  0.3388 -0.8781
  711MOL0     C98038  10.204  11.527   1.256  0.3833 -0.3187 -0.0970
  711MOL0     O98039  10.265  11.630   1.194  0.4627 -0.2571  0.1059
  711MOL0     C98040  10.245  11.635   1.054  0.0915  0.7158 -0.4112
  711MOL0     C98041  10.259  11.777   1.002 -0.3286 -0.9788 -0.5799
  711MOL0     C98042  10.187  11.766   0.863  0.5525  0.3915 -0.1038
  711MOL0     C98043  10.160  11.896   0.795 -0.7047 -1.1219  0.3213
  711MOL0     C98044  10.293  11.932   0.730  0.0626  0.5298 -0.4852
  711MOL0     C98045  10.404  11.941   0.681  0.3967  0.4072  0.2572
  711MOL0     C98046  10.254  11.398   1.236 -0.0288  0.4881  0.2679
  711MOL0     C98047  10.197  11.288   1.303 -1.4326 -0.6131 -0.9432
  711MOL0     C98048  10.274  11.157   1.284 -1.3059 -0.5229 -0.0830
  711MOL0     H98049   9.816  10.986   1.390 -2.4624  2.1956 -0.5123
  711MOL0     H98050   9.717  10.787   1.508 -1.6974 -1.3785  1.5103
  711MOL0     H98051   9.712  10.811   1.949  4.5745  0.3905  0.5470
  711MOL0     H98052   9.837  10.729   1.859 -0.2006 -0.8740  0.3495
  711MOL0     H98053   9.725  10.536   1.869 -1.3369  1.4031 -3.1725
  711MOL0     H98054   9.701  10.594   2.035  0.9431 -1.7916 -1.0423
  711MOL0     H98055   9.483  10.571   2.031  2.7598  0.4426  0.8802
  711MOL0     H98056   9.487  10.700   1.920 -1.3497  0.0146 -0.0258
  711MOL0     H98057   9.546  10.479   1.762  0.8544  2.2038  0.2221
  711MOL0     H98058   9.440  10.398   1.874  0.4550 -0.6374 -2.0293
  711MOL0     H98059   9.343  10.494   1.670  2.3334 -0.0916 -0.2731
  711MOL0     H98060   9.380  10.653   1.717  0.2276  0.0881  1.7022
  711MOL0     H98061   9.213  10.494   1.913  0.1022 -2.0277 -1.8134
  711MOL0     H98062   9.246  10.674   1.900 -1.8303  0.5538 -1.0860
  711MOL0     H98063   9.106  10.536   1.686  4.8960 -1.8618  0.7315
  711MOL0     H98064   9.104  10.711   1.723  1.7502  0.3828  0.6086
  711MOL0     H98065   8.991  10.620   1.951  0.2680 -1.5436  0.1326
  711MOL0     H98066   8.894  10.670   1.814 -0.2860  0.1900 -1.0339
  711MOL0     H98067   8.849  10.450   1.615 -1.7221 -0.0434 -0.4617
  711MOL0     H98068   8.604  10.263   1.642 -0.5443  0.0719 -1.7142
  711MOL0     H98069   8.640  10.141   1.766  3.5918 -0.9470  0.9758
  711MOL0     H98070   8.705  10.043   1.531  0.4648  0.0281 -1.2090
  711MOL0     H98071   8.803  10.172   1.511 -1.8781  0.5230 -0.2300
  711MOL0     H98072   8.901   9.950   1.626 -1.3273  0.1741 -0.3731
  711MOL0     H98073   8.946  10.111   1.703 -1.7931  1.9367  1.4747
  711MOL0     H98074   8.901   9.918   1.857 -1.8022 -1.2632  0.2159
  711MOL0     H98075   8.782  10.045   1.889 -1.3111 -0.2669 -0.1023
  711MOL0     H98076   8.517   9.713   1.777  1.2114 -1.3806 -0.0538
  711MOL0     H98077   8.309   9.525   1.979 -1.0321  2.6850 -3.1495
  711MOL0     H98078   8.454   9.437   1.963  0.0186  0.2116 -0.5644
  711MOL0     H98079   8.401   9.549   1.833  2.0009 -0.1534 -1.0959
  711MOL0     H98080   8.308   9.824   2.491 -2.6198 -0.1048 -0.8485
  711MOL0     H98081   8.176   9.766   2.685 -1.7128  0.9723 -2.0713
  711MOL0     H98082   8.182   9.526   2.927  1.1438 -1.5589 -2.0395
  711MOL0     H98083   8.055   9.647   2.880 -0.7226 -0.2172  2.8428
  711MOL0     H98084   8.012   9.357   2.934 -2.7035 -0.9001  0.8956
  711MOL0     H98085   8.002   9.484   3.057  1.1149 -0.3711  0.1165
  711MOL0     H98086   7.786   9.445   3.005 -1.5388 -0.8496 -0.5386
  711MOL0     H98087   7.807   9.446   2.826 -1.6082  0.5306  0.3002
  711MOL0     H98088   7.845   9.703   2.835 -2.7691  2.1996  0.5230
  711MOL0     H98089   7.839   9.699   3.007  3.1205 -0.4257 -0.5122
  711MOL0     H98090   7.606   9.606   2.853 -2.8127  1.9272 -1.1620
  711MOL0     H98091   7.608   9.643   3.017  1.5084 -1.9614  0.4515
  711MOL0     H98092   7.623   9.840   2.783  1.8196 -2.3729 -0.1955
  711MOL0     H98093   7.643   9.898   2.956 -1.9567  0.7864  0.2939
  711MOL0     H98094   7.419   9.759   3.002 -1.0900  1.1381  0.8207
  711MOL0     H98095   7.403   9.770   2.824  1.2432  1.4219 -1.0972
  711MOL0     H98096   7.408   9.994   2.818  4.3815 -3.2230 -0.1675
  711MOL0     H98097   7.428  10.021   2.999  2.5971 -0.9370 -0.1934
  711MOL0     H98098   8.226   9.347   2.571  0.4465 -0.3482  2.2593
  711MOL0     H98099   8.387   9.409   2.404 -1.9086 -1.0725 -0.0812
  711MOL0     H98100   8.649   9.803   2.253  1.6041  2.8023 -0.3558
  711MOL0     H98101   8.754   9.926   2.065 -1.2433  1.0927  3.8912
  711MOL0     H98102   9.711  11.021   1.874  2.5181 -0.2543  1.2133
  711MOL0     H98103   9.837  11.201   1.739  1.4327 -0.3499 -0.3791
  711MOL0     H98104   9.929  11.450   1.437  0.3270  0.6438  0.9160
  711MOL0     H98105  10.035  11.639   1.335 -2.1245 -0.8440  2.4278
  711MOL0     H98106  10.315  11.570   1.001  0.5676  2.1280 -1.5555
  711MOL0     H98107  10.150  11.590   1.022 -0.1034  1.3148 -0.6883
  711MOL0     H98108  10.363  11.810   0.990  0.4373 -2.7638  0.7211
  711MOL0     H98109  10.212  11.840   1.077 -0.1827 -1.1862 -0.3129
  711MOL0     H98110  10.234  11.689   0.801  0.7852  0.6332 -0.2308
  711MOL0     H98111  10.086  11.729   0.882  0.4929  0.0775 -0.9846
  711MOL0     H98112  10.140  11.980   0.862 -0.4298  0.4289 -1.4594
  711MOL0     H98113  10.082  11.879   0.721 -1.0867 -1.6308  0.8399
  711MOL0     H98114  10.497  11.924   0.632 -0.5548  0.6445 -1.7228
  711MOL0     H98115  10.341  11.382   1.173 -0.3794  0.2570 -0.1677
  711MOL0     H98116  10.216  11.069   1.312 -1.6278 -0.9003 -1.8058
  711MOL0     H98117  10.298  11.142   1.178  2.9195  0.4715  0.5459
  711MOL0     H98118  10.367  11.152   1.341 -0.8496 -5.1238 -0.8579
  712MOL0     O98119   6.237   6.466   1.935 -0.4601  0.2990 -0.2598
  712MOL0     C98120   6.224   6.576   1.987  0.0904  0.4065 -0.5702
  712MOL0     O98121   6.312   6.674   1.979 -0.8392 -0.3713 -0.0407
  712MOL0     C98122   6.427   6.680   1.898  0.0833  0.7546  0.5406
  712MOL0     C98123   6.454   6.810   1.859 -0.0652 -0.4862  1.1791
  712MOL0     C98124   6.550   6.846   1.763  0.5919 -0.2334 -0.1744
  712MOL0     C98125   6.633   6.740   1.724  0.8410 -0.0385 -0.1450
  712MOL0     O98126   6.748   6.772   1.658 -0.5628 -0.4191 -0.5959
  712MOL0     C98127   6.745   6.850   1.537  0.6243  0.4622  0.7836
  712MOL0     C98128   6.692   6.781   1.412 -0.1844  0.0097 -0.4389
  712MOL0     C98129   6.801   6.704   1.324  0.7527  0.2114 -0.2903
  712MOL0     C98130   6.732   6.661   1.202 -0.3574  0.2334 -0.3627
  712MOL0     C98131   6.827   6.584   1.112 -0.1206 -0.3729  0.1302
  712MOL0     C98132   6.771   6.557   0.966 -0.0609 -0.0459 -0.2477
  712MOL0     C98133   6.669   6.434   0.959 -0.7283 -0.1930 -0.0551
  712MOL0     C98134   6.603   6.396   0.814 -0.0921  0.7247 -0.5021
  712MOL0     N98135   6.510   6.288   0.839  0.4218 -0.3011  0.8937
  712MOL0     C98136   6.526   6.150   0.821 -0.1557 -1.1516 -0.0053
  712MOL0     C98137   6.403   6.099   0.825  0.3858  0.1058 -0.6371
  712MOL0     C98138   6.355   5.957   0.789 -0.9324  0.8724  0.9027
  712MOL0     C98139   6.358   5.929   0.640  0.0298 -0.3281 -1.0134
  712MOL0     C98140   6.272   5.800   0.622 -1.1927 -0.5704 -0.0408
  712MOL0     C98141   6.251   5.764   0.475  0.7698  0.5675  0.5445
  712MOL0     O98142   6.124   5.699   0.452 -0.1176  0.5463 -0.0273
  712MOL0     C98143   6.126   5.562   0.442  0.3359 -0.3305  0.0701
  712MOL0     C98144   6.030   5.475   0.503 -0.5810 -0.8027 -0.5702
  712MOL0     C98145   6.032   5.332   0.500  0.1719  0.6697 -0.2707
  712MOL0     C98146   5.913   5.260   0.565 -1.1781  0.9743  1.0496
  712MOL0     C98147   6.138   5.273   0.429 -1.0260 -0.1755 -0.7616
  712MOL0     C98148   6.169   5.132   0.419 -0.2708  0.0361  0.8858
  712MOL0     O98149   6.269   5.085   0.337  0.1980 -0.5352 -0.0966
  712MOL0     C98150   6.316   4.963   0.364 -1.1330  0.5576 -0.6414
  712MOL0     C98151   6.414   4.954   0.465 -0.1162 -0.2346 -0.0920
  712MOL0     C98152   6.465   4.825   0.499  0.8590 -0.5950  0.4932
  712MOL0     C98153   6.423   4.712   0.431  0.3725  0.9889 -0.1178
  712MOL0     O98154   6.486   4.603   0.477  0.0724  0.4866 -0.5748
  712MOL0     C98155   6.416   4.478   0.516  0.0433 -0.1615  1.0373
  712MOL0     C98156   6.526   4.378   0.561  0.4019 -0.4376 -0.9462
  712MOL0     C98157   6.596   4.422   0.680 -0.3000  1.2913 -1.3521
  712MOL0     C98158   6.696   4.316   0.723  0.1495 -0.3754  0.8361
  712MOL0     C98159   6.781   4.378   0.843 -0.1183  0.1890 -0.3123
  712MOL0     C98160   6.905   4.282   0.868  0.7965 -0.2367  0.3501
  712MOL0     C98161   6.981   4.329   0.994 -1.1192  0.1138 -0.8942
  712MOL0     C98162   7.100   4.251   1.039  0.4489  0.1514  0.2581
  712MOL0    Cl98163   7.241   4.224   0.931 -0.6193 -0.7748  0.3448
  712MOL0     C98164   6.324   4.718   0.327 -0.2553 -0.6099  0.6195
  712MOL0     C98165   6.269   4.853   0.294 -0.2349 -0.3380 -0.4765
  712MOL0     O98166   6.112   5.069   0.499  0.6147  0.7949  0.7361
  712MOL0     C98167   6.241   5.358   0.371  0.9689  0.1398 -0.6320
  712MOL0     C98168   6.229   5.503   0.368 -0.0277  0.8105  0.0122
  712MOL0     N98169   6.313   6.206   0.838 -0.1248 -0.1101  0.1255
  712MOL0     N98170   6.377   6.314   0.842  0.0792 -0.4055  0.5417
  712MOL0     C98171   6.608   6.606   1.754  0.4809  0.3815 -0.9152
  712MOL0     C98172   6.504   6.582   1.844 -0.6271  0.3540 -0.0075
  712MOL0     C98173   6.112   6.592   2.077  0.0420  0.4379  0.1066
  712MOL0     C98174   6.097   6.711   2.146 -0.5192 -1.1064  0.4607
  712MOL0     C98175   6.022   6.733   2.260 -1.0404 -0.2067 -0.2401
  712MOL0     C98176   5.941   6.634   2.310  0.0311  0.8173 -1.1320
  712MOL0     O98177   5.838   6.646   2.406  0.5847  0.6216 -0.8892
  712MOL0     C98178   5.866   6.746   2.504 -0.0866 -0.1878  0.0782
  712MOL0     C98179   5.764   6.754   2.618  0.5633  0.6818 -0.1141
  712MOL0     C98180   5.618   6.752   2.564  0.1149 -0.4126  0.3736
  712MOL0     C98181   5.600   6.891   2.486 -0.2863  0.0135 -0.3910
  712MOL0     C98182   5.620   7.014   2.570 -0.6397  0.2346 -0.5203
  712MOL0     C98183   5.646   7.109   2.641  0.1538 -1.2329 -0.0549
  712MOL0     C98184   5.954   6.507   2.256 -0.3150  0.0623  0.2726
  712MOL0     C98185   6.042   6.479   2.146 -0.3251  0.0744 -0.0521
  712MOL0     C98186   6.037   6.338   2.107 -0.0774 -0.6402  0.8225
  712MOL0     H98187   6.391   6.895   1.886  2.8032  1.6206  1.7128
  712MOL0     H98188   6.557   6.944   1.718 -0.7459 -0.5935 -1.2415
  712MOL0     H98189   6.854   6.858   1.525  1.0845 -4.1468  0.0241
  712MOL0     H98190   6.711   6.953   1.552  3.1547  1.4796  0.0832
  712MOL0     H98191   6.608   6.717   1.437 -1.7660  1.0299 -2.8359
  712MOL0     H98192   6.650   6.862   1.352 -0.1873 -1.7009 -2.8471
  712MOL0     H98193   6.874   6.782   1.298 -2.0418  3.0048 -0.3676
  712MOL0     H98194   6.840   6.623   1.386  0.3430  0.0482 -0.2492
  712MOL0     H98195   6.641   6.603   1.219 -0.0918  0.3317  1.6031
  712MOL0     H98196   6.702   6.751   1.147  3.1201  1.5854 -0.3297
  712MOL0     H98197   6.865   6.491   1.156  1.8352 -0.3973 -1.4586
  712MOL0     H98198   6.903   6.661   1.095 -0.4474  0.1574  1.0288
  712MOL0     H98199   6.722   6.646   0.924  1.8268  0.5523 -1.3039
  712MOL0     H98200   6.858   6.531   0.906  0.3697  1.1817 -0.1821
  712MOL0     H98201   6.589   6.467   1.027  1.4821  3.9968  0.8658
  712MOL0     H98202   6.698   6.340   1.007 -3.1947 -0.0525  1.9191
  712MOL0     H98203   6.548   6.486   0.786 -0.8767 -0.1424 -1.8353
  712MOL0     H98204   6.677   6.359   0.742  1.9948 -0.7843  2.1818
  712MOL0     H98205   6.623   6.104   0.806  1.4971  0.5431  4.1774
  712MOL0     H98206   6.254   5.941   0.826 -1.1548  0.7511  0.2608
  712MOL0     H98207   6.418   5.880   0.834 -1.4756  0.2160  0.5566
  712MOL0     H98208   6.312   6.016   0.593  3.7785  1.9978 -0.7927
  712MOL0     H98209   6.460   5.932   0.601 -0.2268  0.3015 -1.6782
  712MOL0     H98210   6.339   5.723   0.660 -0.6059  0.3425  0.8304
  712MOL0     H98211   6.181   5.807   0.683 -0.2978  0.8299  1.2208
  712MOL0     H98212   6.257   5.850   0.408  0.0417 -0.9263 -1.5469
  712MOL0     H98213   6.335   5.700   0.448 -0.7513 -1.4616  0.3972
  712MOL0     H98214   5.954   5.522   0.565  0.1051  2.5448 -2.0420
  712MOL0     H98215   5.830   5.330   0.573 -4.2262 -2.3213  0.9861
  712MOL0     H98216   5.933   5.212   0.662  0.9877  1.2387  0.7785
  712MOL0     H98217   5.881   5.179   0.498 -0.0894  2.8442 -1.9051
  712MOL0     H98218   6.452   5.040   0.519  0.4215 -0.3721 -0.2422
  712MOL0     H98219   6.539   4.816   0.578  1.5381 -0.8718 -0.1662
  712MOL0     H98220   6.333   4.499   0.585 -0.3686  3.7331 -0.3663
  712MOL0     H98221   6.371   4.447   0.421 -1.3926  1.5586  1.0827
  712MOL0     H98222   6.465   4.294   0.594 -0.8515  0.9989  0.5850
  712MOL0     H98223   6.585   4.344   0.475 -1.0484 -0.5342 -1.9311
  712MOL0     H98224   6.514   4.426   0.753  0.5158  1.3296 -0.4229
  712MOL0     H98225   6.644   4.517   0.656  2.3606  0.8377  1.4450
  712MOL0     H98226   6.765   4.295   0.641 -2.5657 -4.6402 -0.6572
  712MOL0     H98227   6.646   4.223   0.751  1.7817 -1.9846 -1.2786
  712MOL0     H98228   6.824   4.471   0.805 -2.5651  1.1747 -0.8493
  712MOL0     H98229   6.724   4.394   0.934 -1.0649 -0.3313 -0.7939
  712MOL0     H98230   6.972   4.266   0.783  0.2556 -3.0213  0.3532
  712MOL0     H98231   6.871   4.181   0.891  0.1754 -0.8562 -2.7974
  712MOL0     H98232   6.914   4.334   1.081 -1.0641  1.9845 -0.9369
  712MOL0     H98233   7.010   4.434   0.987 -3.1186  0.5945 -3.2553
  712MOL0     H98234   7.060   4.154   1.066  0.8864  0.2228  1.1905
  712MOL0     H98235   7.136   4.292   1.134 -0.0497  1.6972 -0.1773
  712MOL0     H98236   6.299   4.628   0.272  2.9872 -1.0730 -0.3167
  712MOL0     H98237   6.199   4.856   0.211 -1.8041 -2.2915  0.6826
  712MOL0     H98238   6.312   5.317   0.300  0.9519  0.7911 -1.0329
  712MOL0     H98239   6.288   5.560   0.297 -0.4634 -0.1008 -1.1017
  712MOL0     H98240   6.668   6.521   1.724  1.7361 -0.2174  2.7458
  712MOL0     H98241   6.474   6.479   1.864 -2.8907  0.6562 -1.5003
  712MOL0     H98242   6.150   6.800   2.116 -3.1583 -0.5184 -3.0836
  712MOL0     H98243   6.036   6.834   2.297 -0.1933 -0.1453 -0.6847
  712MOL0     H98244   5.958   6.720   2.556 -0.2290 -3.7877 -1.1743
  712MOL0     H98245   5.879   6.845   2.461  1.5520 -0.9315 -1.2791
  712MOL0     H98246   5.782   6.840   2.684 -4.0525  0.4130  1.8561
  712MOL0     H98247   5.780   6.675   2.692 -4.7036  0.0400  0.7049
  712MOL0     H98248   5.605   6.658   2.509  0.2439  0.4442 -1.1962
  712MOL0     H98249   5.541   6.751   2.641 -0.1038 -0.7798  0.1527
  712MOL0     H98250   5.498   6.897   2.447 -0.2524  1.0756 -0.3332
  712MOL0     H98251   5.664   6.889   2.397  2.0502 -1.0359  1.2082
  712MOL0     H98252   5.670   7.203   2.686 -2.5364 -0.4716 -0.0460
  712MOL0     H98253   5.879   6.438   2.294  0.8229  0.5872  3.7973
  712MOL0     H98254   6.050   6.330   1.999  0.2166  1.4946  0.6641
  712MOL0     H98255   6.118   6.294   2.166 -0.0950 -2.3551 -0.3703
  712MOL0     H98256   5.937   6.298   2.126 -0.5496  0.1512  0.0921
  713MOL0     O98257   6.663   3.564   0.590 -0.6429  0.4162  0.0907
  713MOL0     C98258   6.632   3.649   0.500  0.1893 -0.7205 -0.2753
  713MOL0     O98259   6.531   3.624   0.415  0.1790 -0.1487  0.0787
  713MOL0     C98260   6.478   3.499   0.414  0.7378 -0.2889  0.0426
  713MOL0     C98261   6.531   3.395   0.338 -0.0942 -0.3903 -0.1400
  713MOL0     C98262   6.491   3.263   0.356  1.4261  0.6309  0.4009
  713MOL0     C98263   6.377   3.230   0.434  0.5743  0.0112 -0.5652
  713MOL0     O98264   6.344   3.095   0.449  0.4807  0.1846  0.6491
  713MOL0     C98265   6.353   3.054   0.583  1.1227 -0.8542  0.4022
  713MOL0     C98266   6.249   2.940   0.618 -0.5004 -0.1407  0.6181
  713MOL0     C98267   6.107   3.000   0.620 -0.4537 -0.7885  0.0556
  713MOL0     C98268   6.083   3.056   0.762 -0.1680 -0.3772 -0.0528
  713MOL0     C98269   5.943   3.116   0.773  0.3887  1.0816 -0.4406
  713MOL0     C98270   5.919   3.153   0.918 -0.0094 -0.4924 -0.6173
  713MOL0     C98271   5.803   3.256   0.941  0.4191  0.8938  0.0045
  713MOL0     C98272   5.820   3.306   1.085 -0.1134 -0.2640  0.4979
  713MOL0     N98273   5.708   3.385   1.130 -0.3002 -0.2347 -0.4403
  713MOL0     C98274   5.645   3.495   1.066  0.1253  0.3810 -0.6744
  713MOL0     C98275   5.552   3.544   1.153 -0.1389 -0.2422  0.1634
  713MOL0     C98276   5.447   3.648   1.122 -0.8300 -0.2268 -0.9828
  713MOL0     C98277   5.343   3.588   1.035 -0.1400 -0.8689  0.1492
  713MOL0     C98278   5.238   3.695   0.985 -0.9250  0.4030  0.0182
  713MOL0     C98279   5.161   3.654   0.865 -0.2878  0.1788  0.3789
  713MOL0     O98280   5.252   3.639   0.748 -0.2131  0.1226  0.0396
  713MOL0     C98281   5.197   3.629   0.624 -0.4207  0.5479  0.6136
  713MOL0     C98282   5.066   3.592   0.591 -0.1497  0.7450  0.3768
  713MOL0     C98283   5.021   3.581   0.458 -0.7507 -0.1791 -0.0336
  713MOL0     C98284   4.891   3.520   0.441 -0.0500 -0.5503  0.7089
  713MOL0     C98285   5.114   3.616   0.352  0.0020  0.4428  0.2464
  713MOL0     C98286   5.074   3.620   0.214  0.5089 -0.0617  0.4802
  713MOL0     O98287   4.946   3.612   0.179 -1.1787 -0.6175 -0.0122
  713MOL0     C98288   4.902   3.639   0.051 -0.2602 -0.5325 -0.6653
  713MOL0     C98289   4.773   3.581   0.022  0.0957  0.5131 -0.6101
  713MOL0     C98290   4.699   3.614  -0.098  0.0488  0.4123 -1.4476
  713MOL0     C98291   4.750   3.710  -0.179  0.5395 -0.2870 -0.6845
  713MOL0     O98292   4.682   3.754  -0.290  0.2032  0.0988  0.1778
  713MOL0     C98293   4.533   3.765  -0.282 -0.9751  1.1676 -1.3971
  713MOL0     C98294   4.501   3.842  -0.400  0.1282 -0.3789 -0.0815
  713MOL0     C98295   4.345   3.865  -0.402 -0.2115  0.2886 -0.5385
  713MOL0     C98296   4.300   3.914  -0.546 -0.7257  0.0295  0.3232
  713MOL0     C98297   4.152   3.910  -0.572  1.0519 -0.5727  0.7278
  713MOL0     C98298   4.111   3.970  -0.715 -0.0275 -0.2334  0.9206
  713MOL0     C98299   3.958   3.924  -0.744 -0.0974 -0.6040  0.4930
  713MOL0     C98300   3.880   4.019  -0.836  0.3287  0.0431 -0.5231
  713MOL0    Cl98301   3.925   3.992  -1.006  0.3408  0.3824  0.3939
  713MOL0     C98302   4.881   3.755  -0.160  0.0537  0.8885  0.1603
  713MOL0     C98303   4.949   3.725  -0.043  0.0682  0.3685 -0.1682
  713MOL0     O98304   5.165   3.629   0.131 -0.2200  0.2291 -0.3942
  713MOL0     C98305   5.243   3.648   0.386  0.9788  0.0725  0.6257
  713MOL0     C98306   5.285   3.645   0.519 -0.3467  0.7885 -0.9081
  713MOL0     N98307   5.559   3.468   1.266 -0.1055 -0.1460  0.2890
  713MOL0     N98308   5.657   3.384   1.258  0.7332  0.5656  0.4107
  713MOL0     C98309   6.314   3.333   0.503 -0.6904 -0.2383  0.1183
  713MOL0     C98310   6.356   3.469   0.487 -0.0699  0.1601 -0.5352
  713MOL0     C98311   6.723   3.760   0.473  1.1677  0.2370 -0.6942
  713MOL0     C98312   6.725   3.802   0.342 -0.3469 -0.4276 -1.4370
  713MOL0     C98313   6.787   3.931   0.310 -0.6177 -0.1437  1.3497
  713MOL0     C98314   6.864   3.998   0.407 -1.4632  1.5137 -0.9377
  713MOL0     O98315   6.944   4.108   0.367 -0.0830 -0.6034 -0.6759
  713MOL0     C98316   7.015   4.182   0.469  0.6519  0.1376  0.3411
  713MOL0     C98317   7.099   4.296   0.423 -0.3745 -1.0268  0.2900
  713MOL0     C98318   7.037   4.393   0.330 -0.0061 -0.2893  1.3440
  713MOL0     C98319   6.920   4.470   0.403  0.5958  1.0445  0.1580
  713MOL0     C98320   6.958   4.589   0.466 -0.7588 -0.8792  1.1759
  713MOL0     C98321   6.987   4.699   0.520 -0.2906  0.2633  0.4031
  713MOL0     C98322   6.871   3.946   0.540  1.1717 -0.0487 -0.3837
  713MOL0     C98323   6.800   3.825   0.573 -0.7481  0.1691  0.5429
  713MOL0     C98324   6.799   3.779   0.720 -0.6476  0.0710  0.8351
  713MOL0     H98325   6.625   3.411   0.286 -0.2735 -3.3845 -1.6756
  713MOL0     H98326   6.565   3.192   0.319  1.3340  1.5762 -1.7333
  713MOL0     H98327   6.340   3.130   0.660  4.4492 -0.7234  1.0070
  713MOL0     H98328   6.452   3.009   0.599  1.4262 -0.0910  0.7374
  713MOL0     H98329   6.260   2.862   0.542  2.2249 -0.5645  1.3550
  713MOL0     H98330   6.272   2.898   0.716  2.8789  0.4245  0.1753
  713MOL0     H98331   6.098   3.082   0.549 -2.1981 -0.8108  0.2170
  713MOL0     H98332   6.032   2.924   0.595 -2.4309  0.8074  0.8370
  713MOL0     H98333   6.099   2.978   0.837  0.0533  1.6681  2.1216
  713MOL0     H98334   6.159   3.126   0.795 -2.7738  2.8149 -0.2916
  713MOL0     H98335   5.876   3.033   0.749 -0.0823  1.4725 -0.4807
  713MOL0     H98336   5.928   3.197   0.701 -1.1416 -1.8753 -3.7994
  713MOL0     H98337   5.899   3.065   0.979 -1.1078  0.4247  0.3851
  713MOL0     H98338   6.008   3.209   0.949 -0.3966  0.6772 -1.5562
  713MOL0     H98339   5.709   3.205   0.918  0.9154 -0.3447  0.6115
  713MOL0     H98340   5.797   3.339   0.871  2.6789 -0.3813 -1.8794
  713MOL0     H98341   5.838   3.233   1.165 -0.9142  1.7397  2.6509
  713MOL0     H98342   5.911   3.366   1.094 -1.1296  1.3353  0.6755
  713MOL0     H98343   5.659   3.524   0.962  2.0073  0.3474 -0.4602
  713MOL0     H98344   5.502   3.739   1.094  1.0775 -1.5340 -1.6307
  713MOL0     H98345   5.397   3.676   1.216 -0.5769  1.2634 -1.2613
  713MOL0     H98346   5.392   3.559   0.941  0.7159  1.5562 -0.2184
  713MOL0     H98347   5.286   3.512   1.090  0.6409 -1.5711 -0.0002
  713MOL0     H98348   5.162   3.721   1.059 -1.7487  0.5206 -0.8463
  713MOL0     H98349   5.278   3.795   0.968 -0.3355  0.3621  1.0719
  713MOL0     H98350   5.118   3.557   0.893  3.1270 -0.7922  2.9961
  713MOL0     H98351   5.079   3.724   0.850 -0.6920  0.3216  2.8373
  713MOL0     H98352   4.998   3.565   0.671 -0.7036 -1.2587 -0.7112
  713MOL0     H98353   4.873   3.461   0.351  2.0860  0.4198 -0.4177
  713MOL0     H98354   4.807   3.591   0.440 -0.3775 -0.9409  0.2347
  713MOL0     H98355   4.872   3.457   0.528 -0.8879  2.1403  2.6234
  713MOL0     H98356   4.731   3.523   0.104 -0.5093  0.5766 -0.8643
  713MOL0     H98357   4.603   3.566  -0.115  0.9157 -0.8169 -3.2184
  713MOL0     H98358   4.484   3.667  -0.279 -0.3651  0.8441  1.8879
  713MOL0     H98359   4.509   3.819  -0.190 -2.5880 -0.3071 -0.9066
  713MOL0     H98360   4.545   3.942  -0.401  0.8215 -0.6793 -0.7986
  713MOL0     H98361   4.538   3.787  -0.487  1.2897  0.4865 -0.1654
  713MOL0     H98362   4.321   3.937  -0.324  4.0658 -0.6731  2.0115
  713MOL0     H98363   4.292   3.771  -0.383 -1.2120  0.7505 -0.9801
  713MOL0     H98364   4.363   3.865  -0.620 -1.2056 -0.7921  0.4407
  713MOL0     H98365   4.323   4.021  -0.554  3.9215 -0.5398  2.5343
  713MOL0     H98366   4.128   3.806  -0.549 -0.0900 -1.3547 -3.3049
  713MOL0     H98367   4.103   3.967  -0.493  0.0373 -0.7368  0.2362
  713MOL0     H98368   4.179   3.929  -0.790  0.2923 -0.8470  1.5345
  713MOL0     H98369   4.114   4.079  -0.711  2.5050 -0.1476 -0.9516
  713MOL0     H98370   3.903   3.924  -0.649  1.2199  1.8536  1.3574
  713MOL0     H98371   3.955   3.823  -0.785 -1.1841 -1.8932  3.4616
  713MOL0     H98372   3.892   4.115  -0.786  0.3958 -0.4667  0.4748
  713MOL0     H98373   3.773   3.996  -0.837  0.4483 -0.5526 -0.4852
  713MOL0     H98374   4.932   3.817  -0.234 -0.5133  0.1201 -0.9086
  713MOL0     H98375   5.046   3.772  -0.035 -0.4459  1.4512 -0.0420
  713MOL0     H98376   5.317   3.674   0.311  0.4659  0.5514  0.2774
  713MOL0     H98377   5.385   3.658   0.559 -0.2906 -1.4967 -0.1942
  713MOL0     H98378   6.229   3.317   0.568 -2.3421 -2.4835 -2.3690
  713MOL0     H98379   6.305   3.549   0.540  0.4021  0.7356 -0.9291
  713MOL0     H98380   6.671   3.742   0.270  0.2528 -3.4568  0.4867
  713MOL0     H98381   6.801   3.962   0.207  4.2806 -1.0090  1.5448
  713MOL0     H98382   6.937   4.222   0.534  0.2894 -0.9267  0.5726
  713MOL0     H98383   7.085   4.116   0.521  0.7612  1.0870  1.4605
  713MOL0     H98384   7.186   4.266   0.364 -0.3354 -0.2980 -0.0309
  713MOL0     H98385   7.148   4.344   0.508  0.4823  0.4351 -0.9716
  713MOL0     H98386   7.101   4.469   0.285  1.0920 -1.8674  0.1247
  713MOL0     H98387   6.996   4.327   0.253  1.2381  0.8854 -0.3957
  713MOL0     H98388   6.877   4.403   0.477 -0.7041  1.5077 -0.1481
  713MOL0     H98389   6.837   4.491   0.336 -1.4000 -1.0650  1.8210
  713MOL0     H98390   7.019   4.793   0.561 -1.6242  0.5549  0.8056
  713MOL0     H98391   6.933   4.001   0.610 -0.6771 -0.4534  1.6857
  713MOL0     H98392   6.696   3.775   0.756 -1.1142  1.2783 -0.2706
  713MOL0     H98393   6.860   3.689   0.727  1.9434  1.3319 -2.7699
  713MOL0     H98394   6.843   3.857   0.783 -1.2173 -1.2585  3.0075
  714MOL0     O98395   3.594   7.551   3.275 -0.1309 -0.4199  0.2988
  714MOL0     C98396   3.528   7.473   3.205 -0.2752 -0.0652  0.3649
  714MOL0     O98397   3.582   7.370   3.134  0.8424 -0.0502  1.3161
  714MOL0     C98398   3.716   7.347   3.123  0.8220 -0.3859  0.3639
  714MOL0     C98399   3.813   7.382   3.220 -0.9289 -0.6705 -0.4635
  714MOL0     C98400   3.952   7.348   3.197 -1.1661  0.2509  0.1422
  714MOL0     C98401   3.994   7.287   3.078 -0.5296  0.3095  0.5979
  714MOL0     O98402   4.121   7.260   3.037 -0.7128 -0.0039 -0.5497
  714MOL0     C98403   4.241   7.312   3.099 -0.2134  0.4499  0.1033
  714MOL0     C98404   4.282   7.228   3.216  0.0174 -0.4241  0.7472
  714MOL0     C98405   4.433   7.237   3.221 -0.1708 -0.2104 -0.2377
  714MOL0     C98406   4.481   7.152   3.339  0.3241 -0.4233 -0.9642
  714MOL0     C98407   4.626   7.171   3.348 -0.0938  0.7192  0.3941
  714MOL0     C98408   4.687   7.133   3.480 -0.4825  0.7649  0.1871
  714MOL0     C98409   4.817   7.207   3.493  0.2468  0.4282  0.1675
  714MOL0     C98410   4.863   7.232   3.631 -0.2504  0.5378 -0.1130
  714MOL0     N98411   4.772   7.295   3.724 -0.5918 -0.8119  0.5066
  714MOL0     C98412   4.685   7.249   3.818 -0.6025  0.1165  0.3174
  714MOL0     C98413   4.628   7.359   3.872  0.3086  0.1641 -0.2332
  714MOL0     C98414   4.522   7.375   3.974  0.1196  0.3017 -0.0778
  714MOL0     C98415   4.420   7.484   3.955  0.4504  0.5548  0.2053
  714MOL0     C98416   4.330   7.506   4.079  0.8344  0.3075  0.6395
  714MOL0     C98417   4.257   7.644   4.051  0.2422  0.7960  0.0280
  714MOL0     O98418   4.125   7.646   4.095 -0.7711 -0.1032 -1.0151
  714MOL0     C98419   4.065   7.769   4.138  1.4222  0.8317  0.9782
  714MOL0     C98420   3.964   7.765   4.232 -0.5361  0.0905 -0.2724
  714MOL0     C98421   3.889   7.877   4.266 -0.0486  0.5787  0.8545
  714MOL0     C98422   3.775   7.858   4.351  0.3676 -0.0262  0.7761
  714MOL0     C98423   3.920   8.005   4.209 -0.2462 -0.1931 -0.6614
  714MOL0     C98424   3.864   8.139   4.239  0.3147  0.0158  0.6447
  714MOL0     O98425   3.737   8.143   4.295  0.2282 -0.2017  0.4211
  714MOL0     C98426   3.658   8.251   4.309  0.2420 -0.3249 -0.1111
  714MOL0     C98427   3.556   8.251   4.407  0.1157  0.0221 -0.5591
  714MOL0     C98428   3.466   8.354   4.411  0.2575 -0.1615  0.3467
  714MOL0     C98429   3.478   8.463   4.335  0.6083  0.2516 -0.1468
  714MOL0     O98430   3.369   8.553   4.342  0.5964  0.0799 -0.3671
  714MOL0     C98431   3.359   8.659   4.250 -0.0778 -0.6100 -0.4512
  714MOL0     C98432   3.234   8.739   4.299  0.0990  0.4685  0.4881
  714MOL0     C98433   3.209   8.878   4.230  1.7237  0.0992 -1.0276
  714MOL0     C98434   3.175   8.870   4.082  0.1705  0.4191 -0.2314
  714MOL0     C98435   3.125   9.012   4.043 -0.3399  0.0697  0.0161
  714MOL0     C98436   3.065   9.004   3.901 -0.0953 -0.1238 -0.8428
  714MOL0     C98437   3.042   9.149   3.852 -0.3983 -0.7962 -0.1962
  714MOL0     C98438   2.979   9.169   3.714  0.6313 -0.0546 -0.2632
  714MOL0    Cl98439   2.953   9.342   3.692 -0.0790  0.0776 -0.0006
  714MOL0     C98440   3.578   8.473   4.239  0.0914  0.1676 -0.1851
  714MOL0     C98441   3.672   8.364   4.222 -0.0301 -0.3133 -0.1149
  714MOL0     O98442   3.939   8.239   4.224 -0.2845  0.9627 -0.5555
  714MOL0     C98443   4.029   8.008   4.121 -0.0244  0.1175  0.2905
  714MOL0     C98444   4.099   7.897   4.093 -0.2963  0.6044  0.2820
  714MOL0     N98445   4.687   7.469   3.825  0.2128  0.3465  0.1243
  714MOL0     N98446   4.769   7.428   3.730  0.0763  0.4286  0.0458
  714MOL0     C98447   3.896   7.241   2.996 -0.0592 -0.8956  0.9185
  714MOL0     C98448   3.759   7.277   3.012 -0.1634  1.1226  0.5126
  714MOL0     C98449   3.383   7.488   3.188  0.0253  0.3687 -0.6030
  714MOL0     C98450   3.335   7.492   3.057  0.4044 -0.1224  0.2077
  714MOL0     C98451   3.208   7.521   3.023  1.1069 -0.2386  0.2858
  714MOL0     C98452   3.119   7.542   3.132  0.5967  0.0014  0.3551
  714MOL0     O98453   2.986   7.578   3.105  0.0078  0.3608 -0.4370
  714MOL0     C98454   2.939   7.589   2.975 -0.2896  0.2307  0.2205
  714MOL0     C98455   2.791   7.616   2.983 -0.5243 -0.0167 -0.7188
  714MOL0     C98456   2.758   7.747   3.053  0.8384  0.3824 -0.2950
  714MOL0     C98457   2.839   7.869   3.000  0.1060 -0.3136 -0.0919
  714MOL0     C98458   2.788   7.984   3.080 -0.5622  0.9782  0.8878
  714MOL0     C98459   2.759   8.085   3.142 -0.0183  0.6085  0.0849
  714MOL0     C98460   3.156   7.527   3.263  0.5490  0.3719 -0.4169
  714MOL0     C98461   3.291   7.504   3.299 -1.1047  0.2263 -0.4762
  714MOL0     C98462   3.322   7.515   3.451  0.0463 -0.1835  0.1306
  714MOL0     H98463   3.786   7.426   3.315 -2.8384 -1.5723 -0.5304
  714MOL0     H98464   4.027   7.376   3.270 -1.7299  3.2874 -0.2880
  714MOL0     H98465   4.233   7.414   3.137  1.1134  0.0069  1.7217
  714MOL0     H98466   4.316   7.330   3.022 -2.0832  4.5953 -0.9862
  714MOL0     H98467   4.234   7.279   3.300  1.3474  1.3252  0.5168
  714MOL0     H98468   4.244   7.126   3.209  1.3687 -0.9722  0.9673
  714MOL0     H98469   4.485   7.217   3.127  0.2788  2.0431 -0.5170
  714MOL0     H98470   4.456   7.338   3.257  1.3132 -1.5237  2.8203
  714MOL0     H98471   4.425   7.178   3.430 -1.7838  1.1972 -2.6226
  714MOL0     H98472   4.455   7.046   3.328 -2.8097 -0.1557  1.9849
  714MOL0     H98473   4.639   7.278   3.326 -2.8614  0.9371 -0.5732
  714MOL0     H98474   4.675   7.122   3.263  0.9885  1.5019  0.5417
  714MOL0     H98475   4.620   7.167   3.559 -0.7305  2.9426 -0.9027
  714MOL0     H98476   4.710   7.026   3.477  0.8104  1.0333 -0.1079
  714MOL0     H98477   4.806   7.306   3.449 -2.0776  0.3453  0.4680
  714MOL0     H98478   4.896   7.154   3.438  1.3075 -0.2432  2.2496
  714MOL0     H98479   4.876   7.135   3.679  2.8589  0.6679 -0.4922
  714MOL0     H98480   4.952   7.295   3.631 -1.1646  1.8977 -1.2426
  714MOL0     H98481   4.679   7.143   3.841  2.8639 -1.4089 -4.2580
  714MOL0     H98482   4.568   7.385   4.072 -0.1613  2.4378 -0.1347
  714MOL0     H98483   4.448   7.294   3.979 -0.8093  1.1744  0.6331
  714MOL0     H98484   4.459   7.583   3.930 -1.0646  1.0387 -0.3414
  714MOL0     H98485   4.355   7.455   3.872  0.5303  0.3079  0.2272
  714MOL0     H98486   4.259   7.423   4.079  3.1947 -1.8622  1.8448
  714MOL0     H98487   4.395   7.513   4.166  0.7645  4.1028  0.5517
  714MOL0     H98488   4.316   7.723   4.100  0.0484  1.7392 -1.2071
  714MOL0     H98489   4.243   7.665   3.945 -0.3281 -1.3891 -0.3688
  714MOL0     H98490   3.935   7.669   4.274  2.8053 -0.1924  1.8037
  714MOL0     H98491   3.767   7.754   4.384 -0.9197 -0.5726 -1.0889
  714MOL0     H98492   3.688   7.897   4.297 -0.2522 -0.2756  1.5791
  714MOL0     H98493   3.791   7.923   4.437 -0.5324  0.7054  0.4184
  714MOL0     H98494   3.551   8.155   4.458  4.7735 -1.1339 -1.7152
  714MOL0     H98495   3.379   8.337   4.475 -0.0031  1.8094  0.5870
  714MOL0     H98496   3.447   8.724   4.248 -0.1131 -0.5781 -1.4162
  714MOL0     H98497   3.339   8.624   4.149 -0.2444 -1.7892 -0.0227
  714MOL0     H98498   3.151   8.668   4.297  1.3757 -1.0696 -0.5261
  714MOL0     H98499   3.249   8.761   4.405  1.4198  1.6887  0.0804
  714MOL0     H98500   3.294   8.945   4.245  2.4268 -1.0268  0.2904
  714MOL0     H98501   3.127   8.923   4.287  2.3908 -0.2342  0.2439
  714MOL0     H98502   3.093   8.799   4.067 -2.2639  1.8839  4.4232
  714MOL0     H98503   3.270   8.856   4.030  0.8410  2.1287  0.4615
  714MOL0     H98504   3.052   9.055   4.111  0.5316  1.1173  0.3231
  714MOL0     H98505   3.215   9.073   4.029  0.1129 -0.8467 -1.3341
  714MOL0     H98506   2.964   8.964   3.912 -0.3213  1.1263  4.1321
  714MOL0     H98507   3.132   8.944   3.838 -0.1732  1.9011 -2.9724
  714MOL0     H98508   3.131   9.213   3.843 -2.4469  2.0557 -2.1481
  714MOL0     H98509   2.982   9.197   3.930 -2.0798 -0.7424 -1.4680
  714MOL0     H98510   2.886   9.112   3.715  2.5349 -3.3771 -0.1272
  714MOL0     H98511   3.045   9.135   3.634 -0.5780 -0.5990 -1.0461
  714MOL0     H98512   3.583   8.556   4.170  0.0219 -0.4434 -0.9403
  714MOL0     H98513   3.742   8.361   4.140 -0.4769  0.9478 -0.5674
  714MOL0     H98514   4.048   8.096   4.060  0.0331 -1.8787 -2.8050
  714MOL0     H98515   4.179   7.895   4.019 -0.8182 -2.2285 -0.3299
  714MOL0     H98516   3.928   7.206   2.898 -0.3420 -2.1852  1.2698
  714MOL0     H98517   3.686   7.245   2.938  2.5281 -0.1484 -1.7655
  714MOL0     H98518   3.401   7.490   2.971 -2.0787  0.4895 -1.8323
  714MOL0     H98519   3.178   7.537   2.920  0.8856 -0.7209  0.2726
  714MOL0     H98520   2.998   7.659   2.915 -1.5032  0.1498 -1.1342
  714MOL0     H98521   2.946   7.493   2.923  2.9847  0.6183 -0.2804
  714MOL0     H98522   2.752   7.525   3.029  2.1251 -3.4142 -4.4687
  714MOL0     H98523   2.746   7.612   2.884 -1.9334  0.4327 -0.1218
  714MOL0     H98524   2.651   7.767   3.046  1.0555  3.2272  2.5635
  714MOL0     H98525   2.766   7.740   3.162 -1.2156  2.4835  0.0600
  714MOL0     H98526   2.815   7.876   2.894 -3.4494 -1.1754  0.5086
  714MOL0     H98527   2.945   7.857   3.024 -0.1541 -0.6759  0.9356
  714MOL0     H98528   2.731   8.179   3.184 -0.6294  1.1763 -1.5013
  714MOL0     H98529   3.074   7.549   3.331  0.8802 -2.0782  0.8501
  714MOL0     H98530   3.404   7.444   3.467 -1.6987 -2.0697  1.2177
  714MOL0     H98531   3.337   7.619   3.480  1.2938 -0.1993 -0.3615
  714MOL0     H98532   3.233   7.479   3.503 -1.3567  2.1370 -0.4926
  715MOL0     O98533   5.518  11.304   5.029  0.9886  0.3750  0.2721
  715MOL0     C98534   5.593  11.301   5.124  0.1926  0.6173 -0.4494
  715MOL0     O98535   5.725  11.320   5.121  0.4628  0.0655 -0.6769
  715MOL0     C98536   5.774  11.347   5.000 -0.0717 -1.1470 -0.3578
  715MOL0     C98537   5.861  11.267   4.925  0.4724  0.0935 -0.2609
  715MOL0     C98538   5.940  11.312   4.817  0.2480  0.2959 -0.2330
  715MOL0     C98539   5.920  11.444   4.769 -0.3658 -0.0876 -0.3925
  715MOL0     O98540   5.977  11.510   4.673  0.4923 -0.3548  0.4299
  715MOL0     C98541   6.112  11.471   4.644 -0.6541 -1.1937  0.3787
  715MOL0     C98542   6.185  11.577   4.565 -0.1152  0.7856  0.2054
  715MOL0     C98543   6.164  11.570   4.415 -0.4636 -0.7271 -0.0124
  715MOL0     C98544   6.244  11.656   4.320 -0.5370  0.0328 -1.3460
  715MOL0     C98545   6.184  11.659   4.182  0.5582  0.7928 -0.1660
  715MOL0     C98546   6.274  11.739   4.095 -0.4893  0.6912  0.8198
  715MOL0     C98547   6.263  11.689   3.946  0.2922 -0.2381 -0.2679
  715MOL0     C98548   6.121  11.666   3.889  0.8935 -0.7747  0.6434
  715MOL0     N98549   6.077  11.796   3.826  0.2114 -0.0587  1.2003
  715MOL0     C98550   6.055  11.914   3.886 -0.9045 -0.2277 -0.0185
  715MOL0     C98551   6.016  11.988   3.777  0.1861 -0.5339 -0.1692
  715MOL0     C98552   5.969  12.129   3.801  0.1614 -0.2493  0.7030
  715MOL0     C98553   5.894  12.178   3.677 -0.5229  0.9604  0.2214
  715MOL0     C98554   5.860  12.336   3.677  0.3776 -0.0134 -0.7455
  715MOL0     C98555   5.821  12.385   3.536 -0.4277  0.4319 -0.5451
  715MOL0     O98556   5.763  12.519   3.548  0.1781  0.1236 -0.3073
  715MOL0     C98557   5.859  12.615   3.589  0.3287 -0.6656  0.4274
  715MOL0     C98558   5.810  12.734   3.632 -0.2200  0.2272  0.1244
  715MOL0     C98559   5.893  12.848   3.663 -0.6577  0.2395 -0.1461
  715MOL0     C98560   5.830  12.978   3.706  0.7236 -0.3524 -0.5333
  715MOL0     C98561   6.037  12.825   3.644  0.7167 -0.0019 -2.1083
  715MOL0     C98562   6.143  12.933   3.681  0.1271  0.0776  0.0143
  715MOL0     O98563   6.276  12.902   3.638  0.5148  0.4744 -0.5959
  715MOL0     C98564   6.360  13.005   3.641  0.1682 -0.4742 -0.3017
  715MOL0     C98565   6.393  13.074   3.522  0.1393 -0.2900  0.2174
  715MOL0     C98566   6.486  13.178   3.532  0.2318 -0.1148  0.5045
  715MOL0     C98567   6.537  13.236   3.649 -0.5892 -0.4461 -0.0033
  715MOL0     O98568   6.619  13.347   3.667 -0.0367  0.0032 -0.0592
  715MOL0     C98569   6.640  13.429   3.553 -0.5511 -0.0044  0.2409
  715MOL0     C98570   6.720  13.560   3.583 -0.5802 -0.7884 -0.6443
  715MOL0     C98571   6.708  13.656   3.458  0.2572 -0.0559 -0.1366
  715MOL0     C98572   6.719  13.807   3.504 -0.5003  1.0969 -0.2169
  715MOL0     C98573   6.859  13.848   3.558  0.2182  0.3938 -0.4797
  715MOL0     C98574   6.877  13.997   3.576  0.7008 -0.4104 -0.2836
  715MOL0     C98575   6.783  14.040   3.685  0.2667  0.1640 -0.7707
  715MOL0     C98576   6.815  14.180   3.751  0.1177 -0.2173 -0.1448
  715MOL0    Cl98577   6.756  14.306   3.646  0.7337 -0.3437  0.2422
  715MOL0     C98578   6.503  13.165   3.763 -0.2546 -0.3393 -0.7703
  715MOL0     C98579   6.411  13.055   3.763  0.7453 -0.1685  0.0302
  715MOL0     O98580   6.105  13.041   3.715  0.1102  0.1451  0.0369
  715MOL0     C98581   6.080  12.696   3.605 -1.2041 -0.2256 -0.2791
  715MOL0     C98582   5.992  12.601   3.579 -1.0505  0.2885  0.1180
  715MOL0     N98583   6.038  11.926   3.658 -0.1015 -0.2345 -0.6685
  715MOL0     N98584   6.075  11.815   3.684 -0.1689  0.7286 -0.5330
  715MOL0     C98585   5.819  11.519   4.835 -0.3868 -0.1003  0.5870
  715MOL0     C98586   5.750  11.473   4.943 -1.4348 -0.2054  0.7712
  715MOL0     C98587   5.535  11.284   5.261  0.4991  0.5870  0.0969
  715MOL0     C98588   5.627  11.295   5.370  0.3209  0.2582 -0.2172
  715MOL0     C98589   5.583  11.277   5.500 -0.4083  1.0115 -0.9085
  715MOL0     C98590   5.460  11.242   5.524  1.9147 -0.1606  0.5508
  715MOL0     O98591   5.421  11.232   5.661  0.2118 -0.0250  0.7736
  715MOL0     C98592   5.320  11.131   5.687  0.2094 -0.3442  0.3514
  715MOL0     C98593   5.317  11.108   5.838 -0.6320  0.3065 -0.7812
  715MOL0     C98594   5.450  11.076   5.888 -0.7189 -0.0345  0.6530
  715MOL0     C98595   5.454  11.034   6.038 -0.0968 -0.7242 -0.1298
  715MOL0     C98596   5.407  10.898   6.055 -0.4452  0.8084  0.2612
  715MOL0     C98597   5.376  10.784   6.080  0.2309  0.5957  0.2958
  715MOL0     C98598   5.373  11.221   5.414  0.7497  0.6407  0.0345
  715MOL0     C98599   5.401  11.247   5.281  0.3262 -0.2710 -0.0369
  715MOL0     C98600   5.292  11.242   5.179 -0.3158  0.1021  1.1029
  715MOL0     H98601   5.884  11.174   4.976  2.4768  1.4399  1.5161
  715MOL0     H98602   6.015  11.239   4.790  0.8748 -1.2024  4.6364
  715MOL0     H98603   6.121  11.367   4.609  2.4577 -0.7677 -0.4067
  715MOL0     H98604   6.166  11.465   4.739 -0.3578 -2.2843  0.1573
  715MOL0     H98605   6.170  11.678   4.605 -0.2931  0.0647  2.0116
  715MOL0     H98606   6.290  11.553   4.580 -0.6150 -0.6452  1.7114
  715MOL0     H98607   6.165  11.465   4.383 -3.4861 -0.5488 -1.0843
  715MOL0     H98608   6.057  11.583   4.393 -0.2817 -0.4670 -0.7573
  715MOL0     H98609   6.256  11.759   4.356  3.0693 -1.7562  3.7778
  715MOL0     H98610   6.344  11.613   4.327 -1.0691 -0.9951  2.4011
  715MOL0     H98611   6.084  11.703   4.177  0.8048  1.2161 -2.7971
  715MOL0     H98612   6.185  11.555   4.146  0.9344  0.6507  0.2512
  715MOL0     H98613   6.250  11.845   4.101  0.9383  0.9550  2.4446
  715MOL0     H98614   6.376  11.721   4.132 -1.0666 -2.7931  1.1216
  715MOL0     H98615   6.320  11.597   3.929  2.5915  0.8113  1.3258
  715MOL0     H98616   6.312  11.763   3.882 -1.4081 -0.0681 -1.4518
  715MOL0     H98617   6.117  11.582   3.819  0.5753  0.0478 -0.3455
  715MOL0     H98618   6.040  11.642   3.959 -0.3823  1.9177  0.2299
  715MOL0     H98619   6.055  11.949   3.989 -1.9640 -0.5752  0.1091
  715MOL0     H98620   6.045  12.206   3.816 -1.6245  1.6537  0.4232
  715MOL0     H98621   5.893  12.126   3.880  0.5842  0.8406  1.1752
  715MOL0     H98622   5.954  12.154   3.589 -1.1849 -0.0628  0.0242
  715MOL0     H98623   5.802  12.121   3.656  0.6859 -0.8748 -0.3866
  715MOL0     H98624   5.770  12.350   3.737 -0.2328 -4.2289 -0.3491
  715MOL0     H98625   5.947  12.382   3.725  1.2582 -1.4041 -0.9524
  715MOL0     H98626   5.912  12.382   3.476 -1.9817  0.3189 -3.0194
  715MOL0     H98627   5.752  12.315   3.488  0.0417 -1.6014  1.5743
  715MOL0     H98628   5.701  12.733   3.638 -0.4815 -2.9615 -2.3023
  715MOL0     H98629   5.879  12.997   3.802 -0.6978 -5.3678  1.5115
  715MOL0     H98630   5.725  12.957   3.728  0.5766 -2.0838 -2.5026
  715MOL0     H98631   5.837  13.057   3.630 -0.0673 -0.1958 -0.4467
  715MOL0     H98632   6.357  13.046   3.423 -0.7232 -0.7118  0.6392
  715MOL0     H98633   6.527  13.213   3.438 -2.9173 -0.3155 -1.0846
  715MOL0     H98634   6.681  13.375   3.467 -1.2041  0.2182 -0.2166
  715MOL0     H98635   6.543  13.465   3.516 -0.3901 -2.1169 -2.5082
  715MOL0     H98636   6.664  13.608   3.663  0.1016 -2.1241  0.6762
  715MOL0     H98637   6.821  13.533   3.616 -1.2430 -1.0279  1.3227
  715MOL0     H98638   6.609  13.643   3.412  0.1334  1.0679 -0.2114
  715MOL0     H98639   6.783  13.629   3.383 -0.0480 -0.7697 -0.1973
  715MOL0     H98640   6.638  13.830   3.574  0.2081 -0.9591  1.3827
  715MOL0     H98641   6.709  13.872   3.417  1.6620 -1.4427 -2.5794
  715MOL0     H98642   6.882  13.795   3.650 -1.8470  0.2292 -0.0089
  715MOL0     H98643   6.930  13.822   3.479  0.7011  0.7966 -0.1843
  715MOL0     H98644   6.847  14.053   3.487  1.4967  0.4110 -0.0415
  715MOL0     H98645   6.975  14.033   3.609 -0.2243  0.4417  1.6863
  715MOL0     H98646   6.781  13.963   3.763  2.5134  0.3711 -0.4464
  715MOL0     H98647   6.684  14.047   3.639 -0.7834 -2.5423  0.8145
  715MOL0     H98648   6.923  14.196   3.760  0.4723 -0.7779 -2.6704
  715MOL0     H98649   6.753  14.182   3.841 -1.1895 -0.1587 -1.0170
  715MOL0     H98650   6.557  13.187   3.854 -2.0166 -0.3664  0.3198
  715MOL0     H98651   6.384  13.012   3.859  1.0430 -1.3223 -0.3872
  715MOL0     H98652   6.185  12.672   3.594 -1.6255 -2.2488 -0.2179
  715MOL0     H98653   6.037  12.507   3.550  0.9620  1.8441 -2.2306
  715MOL0     H98654   5.799  11.622   4.809 -2.5919 -0.4846  0.5432
  715MOL0     H98655   5.683  11.538   4.999  2.0669  2.2989  2.3911
  715MOL0     H98656   5.732  11.319   5.365 -0.3231  3.0911 -2.0977
  715MOL0     H98657   5.657  11.275   5.579 -3.5977 -0.7256  2.2907
  715MOL0     H98658   5.224  11.159   5.642  1.4286 -0.1506 -2.2963
  715MOL0     H98659   5.358  11.038   5.643 -0.3407 -1.0698  1.3421
  715MOL0     H98660   5.259  11.017   5.855  0.8554 -1.0309 -2.4379
  715MOL0     H98661   5.278  11.193   5.894  1.1356 -0.4088  1.7400
  715MOL0     H98662   5.485  10.994   5.824 -2.7242 -2.0143  1.9506
  715MOL0     H98663   5.510  11.167   5.875 -1.4087  0.3206 -0.1889
  715MOL0     H98664   5.405  11.103   6.107  0.6945  0.4808 -0.7535
  715MOL0     H98665   5.560  11.041   6.062 -0.3357 -2.2186  1.6093
  715MOL0     H98666   5.338  10.684   6.097  0.8122 -0.1601 -2.4553
  715MOL0     H98667   5.272  11.185   5.433  0.5934  1.7642  1.5483
  715MOL0     H98668   5.199  11.203   5.222 -0.4862 -1.5932 -0.6586
  715MOL0     H98669   5.282  11.332   5.118  0.6952 -0.7115 -0.3215
  715MOL0     H98670   5.319  11.163   5.108 -0.9498 -0.5663  1.5938
  716MOL0     O98671   5.658  11.435   0.451 -0.3306 -0.0091  0.8200
  716MOL0     C98672   5.541  11.456   0.437  0.3685 -0.2000  0.7357
  716MOL0     O98673   5.434  11.375   0.464  0.6285  0.2027 -0.4483
  716MOL0     C98674   5.444  11.260   0.536  0.2335  0.6946  0.1376
  716MOL0     C98675   5.537  11.233   0.635  0.1814 -0.3253 -0.3242
  716MOL0     C98676   5.521  11.125   0.728 -0.2544 -0.0271 -0.0920
  716MOL0     C98677   5.410  11.038   0.712  0.4133  0.1908  0.2067
  716MOL0     O98678   5.378  10.942   0.800 -0.2361  1.1701  0.0368
  716MOL0     C98679   5.493  10.876   0.848  0.2287  1.1325  0.0869
  716MOL0     C98680   5.506  10.909   0.992  0.0304 -0.5884 -0.1384
  716MOL0     C98681   5.428  10.824   1.095 -0.5958  0.2711  0.2975
  716MOL0     C98682   5.449  10.860   1.243  0.2572  0.4608  0.2636
  716MOL0     C98683   5.593  10.885   1.281  0.6699 -0.1535 -0.0142
  716MOL0     C98684   5.614  10.908   1.428  0.6175 -0.4815  0.1080
  716MOL0     C98685   5.708  11.025   1.461 -0.0075 -0.4410  0.5401
  716MOL0     C98686   5.767  11.048   1.597 -0.0358  0.2863 -0.5295
  716MOL0     N98687   5.676  10.987   1.695  0.2378  0.3989 -0.9364
  716MOL0     C98688   5.550  11.037   1.730  0.0278 -0.0853  0.0714
  716MOL0     C98689   5.505  10.950   1.832 -0.4907 -0.6786  1.1912
  716MOL0     C98690   5.374  10.944   1.907 -0.5930  0.5463  0.8970
  716MOL0     C98691   5.272  10.878   1.824  0.9604 -0.1142 -0.0984
  716MOL0     C98692   5.296  10.738   1.762  0.1815  0.5967  0.3822
  716MOL0     C98693   5.163  10.693   1.691 -0.9929  0.5011 -0.4413
  716MOL0     O98694   5.131  10.778   1.578 -0.1319 -0.0643  0.6474
  716MOL0     C98695   5.027  10.753   1.495  0.0524 -0.5767  0.5978
  716MOL0     C98696   5.018  10.834   1.387  0.3792  0.0427  0.7640
  716MOL0     C98697   4.922  10.813   1.286  0.4776  0.4742  0.5162
  716MOL0     C98698   4.914  10.919   1.175 -0.1224  0.0069  0.0568
  716MOL0     C98699   4.838  10.699   1.293 -0.4421 -0.3231  0.2334
  716MOL0     C98700   4.709  10.682   1.213 -0.2304  0.3379  0.5560
  716MOL0     O98701   4.641  10.573   1.250 -0.0268 -0.3579 -0.2953
  716MOL0     C98702   4.537  10.538   1.165  0.0505 -0.5518  0.2055
  716MOL0     C98703   4.418  10.607   1.183  0.5202  0.1812  0.5424
  716MOL0     C98704   4.304  10.576   1.106 -1.2793  0.5530  0.2375
  716MOL0     C98705   4.311  10.459   1.016  0.5638  0.6949  0.5134
  716MOL0     O98706   4.212  10.435   0.936 -0.1102 -0.1014 -0.0205
  716MOL0     C98707   4.224  10.383   0.804 -0.4139  0.1745  0.5394
  716MOL0     C98708   4.320  10.478   0.713  0.2161  0.3507 -0.1524
  716MOL0     C98709   4.385  10.395   0.591 -0.2095 -0.2520 -0.2021
  716MOL0     C98710   4.388  10.477   0.464 -0.8844  0.0194  0.3491
  716MOL0     C98711   4.509  10.425   0.365  0.3808  1.1026 -0.2706
  716MOL0     C98712   4.648  10.418   0.422 -0.4191  0.6363 -0.7114
  716MOL0     C98713   4.764  10.394   0.315  0.7084  0.3173 -1.0080
  716MOL0     C98714   4.757  10.244   0.264 -0.2859 -1.3073  0.2052
  716MOL0    Cl98715   4.848  10.230   0.116  0.1844 -0.3692  0.3907
  716MOL0     C98716   4.431  10.396   0.999 -0.9507 -0.1163 -0.1565
  716MOL0     C98717   4.540  10.426   1.074 -0.6414 -0.3848 -0.3305
  716MOL0     O98718   4.675  10.772   1.140 -0.2434  0.7260  0.9169
  716MOL0     C98719   4.848  10.622   1.411 -0.1110 -0.1733  0.5335
  716MOL0     C98720   4.942  10.650   1.510  0.4511  0.1257  1.0382
  716MOL0     N98721   5.608  10.855   1.849  0.2072  0.7226 -1.1503
  716MOL0     N98722   5.713  10.883   1.773 -0.3615  0.6241 -0.1014
  716MOL0     C98723   5.328  11.059   0.599  0.0525 -0.0998 -0.7528
  716MOL0     C98724   5.333  11.171   0.525 -0.1015 -0.2185  0.2589
  716MOL0     C98725   5.504  11.600   0.395  0.5384  0.5493 -0.1551
  716MOL0     C98726   5.369  11.635   0.393  0.5805  0.5698  0.1436
  716MOL0     C98727   5.319  11.768   0.376  0.1390  0.2715  0.1994
  716MOL0     C98728   5.410  11.873   0.359 -0.6630  0.6004 -0.3896
  716MOL0     O98729   5.368  12.004   0.377  0.1132 -0.7222  0.1853
  716MOL0     C98730   5.458  12.101   0.451  0.8478  0.4899 -0.5075
  716MOL0     C98731   5.469  12.092   0.608  0.0764  0.6405  0.3018
  716MOL0     C98732   5.552  12.211   0.653 -0.0340 -0.3216  1.0054
  716MOL0     C98733   5.604  12.176   0.792  0.6912 -0.2315 -0.0875
  716MOL0     C98734   5.488  12.185   0.882 -0.2525 -0.1239  0.6172
  716MOL0     C98735   5.395  12.186   0.958 -0.2821  0.1820 -1.2108
  716MOL0     C98736   5.546  11.833   0.351  0.4860 -0.2854 -0.6776
  716MOL0     C98737   5.597  11.703   0.363  1.5377  0.3315 -0.5634
  716MOL0     C98738   5.739  11.682   0.341  0.0855 -0.2685  0.1755
  716MOL0     H98739   5.623  11.293   0.664  1.7194 -1.4306 -2.3244
  716MOL0     H98740   5.578  11.119   0.820 -2.7087  1.0621  1.5927
  716MOL0     H98741   5.586  10.882   0.792 -0.6577  1.4652 -1.4053
  716MOL0     H98742   5.477  10.768   0.848  1.4279  0.9018  1.9849
  716MOL0     H98743   5.615  10.903   1.001  0.2911 -1.3156 -2.9809
  716MOL0     H98744   5.466  11.010   1.003 -3.9296 -1.5843 -3.1807
  716MOL0     H98745   5.322  10.827   1.070 -0.2079 -0.8327 -1.7882
  716MOL0     H98746   5.456  10.719   1.081 -0.0021  0.6162 -1.3594
  716MOL0     H98747   5.396  10.955   1.255  3.1531  1.8749  3.1248
  716MOL0     H98748   5.405  10.784   1.308  2.3895 -1.1176 -0.0533
  716MOL0     H98749   5.632  10.974   1.231  1.0830  0.0378  0.6253
  716MOL0     H98750   5.647  10.799   1.241 -1.6403 -2.4130  1.3805
  716MOL0     H98751   5.516  10.926   1.474  0.3773  1.4718 -1.0313
  716MOL0     H98752   5.652  10.811   1.460  1.5430 -1.1135 -2.6264
  716MOL0     H98753   5.671  11.120   1.420  0.3120 -1.5084 -2.4182
  716MOL0     H98754   5.795  10.998   1.401 -2.0807 -0.9800 -2.4232
  716MOL0     H98755   5.869  11.011   1.592 -0.5808 -1.2216 -1.2118
  716MOL0     H98756   5.778  11.154   1.623 -0.7409  0.5579 -1.2800
  716MOL0     H98757   5.491  11.118   1.688  1.7475  0.5954 -1.1716
  716MOL0     H98758   5.352  11.046   1.940  0.8193 -0.0897  4.2769
  716MOL0     H98759   5.396  10.891   2.001 -0.1516 -0.3730  0.2890
  716MOL0     H98760   5.193  10.884   1.899  0.5083  1.8773 -0.6755
  716MOL0     H98761   5.242  10.956   1.753 -2.4948 -1.9070 -0.7984
  716MOL0     H98762   5.372  10.734   1.682 -0.5073 -3.1713 -0.2511
  716MOL0     H98763   5.338  10.667   1.834 -2.7569  0.7396  2.3720
  716MOL0     H98764   5.177  10.591   1.653 -0.6004 -0.4652  2.1141
  716MOL0     H98765   5.078  10.698   1.760 -2.1688 -0.4331 -1.7718
  716MOL0     H98766   5.078  10.923   1.400  1.5516 -0.8323  1.4963
  716MOL0     H98767   4.813  10.957   1.156 -0.8145 -3.2436 -3.9882
  716MOL0     H98768   4.965  10.890   1.083 -2.2593  0.0467 -1.2145
  716MOL0     H98769   4.978  10.996   1.218  0.8114 -0.0156 -1.2383
  716MOL0     H98770   4.420  10.707   1.224  1.0499  0.1052  0.7138
  716MOL0     H98771   4.218  10.641   1.117 -1.1123  1.1308 -1.4764
  716MOL0     H98772   4.269  10.284   0.815  2.9042  1.6114  1.1741
  716MOL0     H98773   4.135  10.371   0.742  0.8874 -0.1620 -1.3630
  716MOL0     H98774   4.258  10.559   0.674  0.8192  0.2303 -1.4187
  716MOL0     H98775   4.404  10.529   0.762 -0.5083  0.3955  1.0723
  716MOL0     H98776   4.324  10.305   0.577  0.6111 -0.7212 -0.8855
  716MOL0     H98777   4.484  10.359   0.619 -0.8214 -1.7941  0.0901
  716MOL0     H98778   4.419  10.581   0.478  0.1139 -0.0334 -1.3016
  716MOL0     H98779   4.290  10.477   0.415 -2.0890  0.8349  2.5587
  716MOL0     H98780   4.484  10.325   0.329  1.9699  0.2546  0.8700
  716MOL0     H98781   4.516  10.495   0.282 -2.9368 -0.7605 -2.3853
  716MOL0     H98782   4.648  10.339   0.497 -2.7058 -0.4680 -1.7952
  716MOL0     H98783   4.677  10.520   0.450  1.9667 -0.2874  0.4548
  716MOL0     H98784   4.859  10.424   0.360 -0.1743 -0.3443  1.4646
  716MOL0     H98785   4.748  10.458   0.227  0.3617  2.3631  0.4643
  716MOL0     H98786   4.653  10.212   0.251 -0.5025 -0.7902  0.6192
  716MOL0     H98787   4.800  10.180   0.342 -0.0247 -2.8942 -1.1785
  716MOL0     H98788   4.448  10.317   0.926  2.4387  2.3469 -2.3628
  716MOL0     H98789   4.630  10.366   1.062 -1.3736 -1.1131 -2.9858
  716MOL0     H98790   4.771  10.546   1.425  0.1813 -0.8200 -1.2055
  716MOL0     H98791   4.944  10.585   1.597  0.8523 -1.2917  0.0187
  716MOL0     H98792   5.248  10.987   0.585 -1.9885  2.1762 -1.4008
  716MOL0     H98793   5.256  11.198   0.453  0.8603 -0.0634 -0.7505
  716MOL0     H98794   5.295  11.559   0.413  0.8757 -0.6757 -2.8682
  716MOL0     H98795   5.215  11.799   0.377  0.8902  3.1485 -1.2002
  716MOL0     H98796   5.554  12.083   0.401  1.4786 -2.1373  1.4319
  716MOL0     H98797   5.413  12.197   0.425 -0.7412 -0.1815 -0.3266
  716MOL0     H98798   5.509  11.995   0.638 -2.4379 -1.0646 -1.4383
  716MOL0     H98799   5.371  12.093   0.656  0.3047 -1.8563  0.9225
  716MOL0     H98800   5.632  12.222   0.579  0.1106 -2.0387  0.8644
  716MOL0     H98801   5.498  12.306   0.658  2.6746  1.4170 -0.4002
  716MOL0     H98802   5.688  12.241   0.818  0.8371 -0.4443 -0.0277
  716MOL0     H98803   5.650  12.076   0.792 -0.0690 -0.6518 -2.4363
  716MOL0     H98804   5.317  12.173   1.030 -1.1364  1.1427 -1.9325
  716MOL0     H98805   5.619  11.913   0.341 -1.0823  0.9103 -4.4075
  716MOL0     H98806   5.760  11.586   0.293 -1.5871 -1.3710  1.5444
  716MOL0     H98807   5.770  11.768   0.281 -0.3060  1.8686  2.8309
  716MOL0     H98808   5.797  11.673   0.434  1.9095  1.3072 -0.7511
  717MOL0     O98809   6.190   3.299   1.105 -0.7126  0.0096  0.2364
  717MOL0     C98810   6.263   3.321   1.008  0.1554  0.4353 -0.3517
  717MOL0     O98811   6.256   3.423   0.924 -0.0906  0.3177  0.4371
  717MOL0     C98812   6.169   3.525   0.940 -0.2221 -0.1678  0.7927
  717MOL0     C98813   6.119   3.581   1.056 -0.3419 -0.2639 -1.0442
  717MOL0     C98814   6.030   3.687   1.047  0.7731 -0.0056  0.3346
  717MOL0     C98815   5.978   3.737   0.923  0.5530  0.5468 -0.2045
  717MOL0     O98816   5.889   3.838   0.928 -0.0861 -0.2473  0.5508
  717MOL0     C98817   5.781   3.826   0.836  0.3857  0.1641 -0.5499
  717MOL0     C98818   5.674   3.940   0.851  0.3053  0.2889  0.3837
  717MOL0     C98819   5.555   3.941   0.754 -0.1209  0.2054  0.1207
  717MOL0     C98820   5.443   4.033   0.789  0.7041 -0.0439 -0.2379
  717MOL0     C98821   5.341   4.028   0.681 -0.6357  0.9677  0.2636
  717MOL0     C98822   5.220   4.097   0.720  0.6703  0.8831  0.5760
  717MOL0     C98823   5.107   4.075   0.628  0.3975 -0.1817  0.4033
  717MOL0     C98824   5.039   3.937   0.647 -0.8982  0.8064  0.1499
  717MOL0     N98825   4.915   3.915   0.574  0.4594 -0.0882  0.7832
  717MOL0     C98826   4.899   3.953   0.439  0.3018  1.6913 -0.2528
  717MOL0     C98827   4.774   3.896   0.406 -0.1727 -0.9374  0.3744
  717MOL0     C98828   4.711   3.882   0.268  0.2018 -0.1380 -0.0702
  717MOL0     C98829   4.607   3.993   0.246  0.2830  0.9026  0.0427
  717MOL0     C98830   4.572   4.003   0.095 -0.2659 -0.3428  0.7113
  717MOL0     C98831   4.660   4.068  -0.010  0.0579  0.3571 -0.0151
  717MOL0     O98832   4.715   4.195   0.028 -0.0870 -0.1120 -0.6887
  717MOL0     C98833   4.784   4.271  -0.072  0.0440  0.4546 -0.3962
  717MOL0     C98834   4.829   4.403  -0.030 -0.6057  0.1696  0.7047
  717MOL0     C98835   4.877   4.486  -0.127 -0.6649 -0.5477  0.5625
  717MOL0     C98836   4.886   4.630  -0.078  0.2569 -0.0918 -0.1974
  717MOL0     C98837   4.900   4.451  -0.259  0.1358 -0.7005 -0.0195
  717MOL0     C98838   4.952   4.549  -0.352 -0.2107  0.4009  0.5770
  717MOL0     O98839   5.043   4.640  -0.306  1.0528  0.3404 -0.9911
  717MOL0     C98840   5.068   4.747  -0.383  0.0509 -0.5206 -0.0327
  717MOL0     C98841   5.108   4.744  -0.519 -0.4820  0.4879 -0.3801
  717MOL0     C98842   5.126   4.868  -0.581 -1.0687 -1.1129  0.5485
  717MOL0     C98843   5.120   4.987  -0.506 -0.9275 -1.1494  0.6290
  717MOL0     O98844   5.157   5.113  -0.558  0.7723  0.4111  0.5630
  717MOL0     C98845   5.184   5.129  -0.693  0.6878 -0.3040 -0.2829
  717MOL0     C98846   5.223   5.267  -0.752 -0.4933 -0.2784 -0.0532
  717MOL0     C98847   5.128   5.377  -0.761  0.0457 -0.4734  0.0933
  717MOL0     C98848   5.026   5.397  -0.643  0.2852  0.0473  0.2558
  717MOL0     C98849   5.105   5.454  -0.525 -0.2960 -0.1217  0.3493
  717MOL0     C98850   5.029   5.461  -0.397 -0.6204  0.3185  1.1379
  717MOL0     C98851   5.130   5.463  -0.286 -0.0126  0.9677  0.8471
  717MOL0     C98852   5.055   5.442  -0.162  0.0257 -0.1990 -0.2998
  717MOL0    Cl98853   5.163   5.450  -0.024 -0.0759  0.5971  0.4435
  717MOL0     C98854   5.091   4.989  -0.366 -0.5212 -0.6861  1.9715
  717MOL0     C98855   5.070   4.868  -0.311  0.4214 -0.5508 -0.2667
  717MOL0     O98856   4.909   4.535  -0.472 -0.0214  0.2683 -0.8117
  717MOL0     C98857   4.863   4.323  -0.299 -0.1602 -0.4310 -0.2025
  717MOL0     C98858   4.803   4.236  -0.207 -1.6279 -0.4884 -0.6072
  717MOL0     N98859   4.716   3.862   0.525  0.2642  0.2561  0.0632
  717MOL0     N98860   4.797   3.870   0.624  0.3426  0.0697 -0.2517
  717MOL0     C98861   6.026   3.671   0.807 -0.8458  0.2331 -0.1798
  717MOL0     C98862   6.128   3.580   0.819 -0.1221 -0.1344  1.1527
  717MOL0     C98863   6.347   3.211   0.969 -0.4784  0.2463  0.3120
  717MOL0     C98864   6.315   3.085   1.026  0.8521 -0.0789  1.1311
  717MOL0     C98865   6.395   2.965   1.012  0.0623  0.3014 -0.2481
  717MOL0     C98866   6.507   2.971   0.932 -0.9057  0.0632  0.1349
  717MOL0     O98867   6.578   2.853   0.919 -0.7629 -0.4497 -0.2746
  717MOL0     C98868   6.701   2.842   0.845  0.1754 -0.6316 -0.0952
  717MOL0     C98869   6.682   2.832   0.691  0.0219 -0.2584  0.1242
  717MOL0     C98870   6.823   2.802   0.632  0.1431 -0.3305  0.8464
  717MOL0     C98871   6.824   2.745   0.487 -0.3631 -0.2468  0.0688
  717MOL0     C98872   6.797   2.837   0.376 -0.3700 -0.4140 -0.7727
  717MOL0     C98873   6.779   2.912   0.284  1.1801  0.7156 -0.0675
  717MOL0     C98874   6.545   3.096   0.871  0.2967 -0.9427  0.5020
  717MOL0     C98875   6.465   3.212   0.890  0.0901  0.4149 -0.3085
  717MOL0     C98876   6.511   3.336   0.820 -0.4060  0.0115  0.3812
  717MOL0     H98877   6.173   3.529   1.134 -0.2770  1.1157 -0.1420
  717MOL0     H98878   6.005   3.741   1.138 -0.5705  1.0502 -0.6266
  717MOL0     H98879   5.734   3.729   0.848  1.1059  0.0524  1.6504
  717MOL0     H98880   5.821   3.838   0.734  0.1218  3.3559 -0.3881
  717MOL0     H98881   5.637   3.939   0.954 -1.1885  0.3654 -0.1285
  717MOL0     H98882   5.721   4.039   0.851  0.7745  0.0661 -0.1759
  717MOL0     H98883   5.595   3.966   0.655  0.4875  1.0410  0.5613
  717MOL0     H98884   5.516   3.840   0.740  0.0991 -0.2339  2.2927
  717MOL0     H98885   5.401   4.011   0.887 -0.1597  0.5393 -0.4685
  717MOL0     H98886   5.485   4.133   0.802  3.5759 -1.0513 -1.0773
  717MOL0     H98887   5.315   3.928   0.647 -2.7072  0.9688  1.7190
  717MOL0     H98888   5.384   4.070   0.589 -2.7786  0.1163 -1.2058
  717MOL0     H98889   5.191   4.055   0.818 -0.7173  0.0617 -0.1462
  717MOL0     H98890   5.244   4.202   0.735  2.7057  0.3147  1.6543
  717MOL0     H98891   5.149   4.088   0.528 -1.8129 -0.5427 -0.6229
  717MOL0     H98892   5.030   4.150   0.650  1.8072  0.9148  1.8136
  717MOL0     H98893   5.110   3.868   0.601 -2.7199  1.0132 -3.2881
  717MOL0     H98894   5.036   3.914   0.754  1.5855 -4.0837 -0.5396
  717MOL0     H98895   4.978   3.996   0.378 -0.5887  1.0749 -1.9005
  717MOL0     H98896   4.659   3.785   0.260  0.5579 -0.5876  2.3189
  717MOL0     H98897   4.785   3.888   0.188  1.5658 -0.8050  1.0981
  717MOL0     H98898   4.521   3.960   0.304  0.1497 -0.5792 -0.9383
  717MOL0     H98899   4.646   4.084   0.293  1.5183 -0.3026  1.4938
  717MOL0     H98900   4.547   3.905   0.052 -4.8883  0.4313  1.1694
  717MOL0     H98901   4.472   4.047   0.093 -0.3643 -0.5443  1.2004
  717MOL0     H98902   4.734   3.998  -0.049 -0.7977  0.3988 -1.8478
  717MOL0     H98903   4.587   4.083  -0.091 -0.5419  0.7483  0.5862
  717MOL0     H98904   4.817   4.438   0.072 -2.0381  1.8199  0.0291
  717MOL0     H98905   4.844   4.685  -0.164 -0.5236 -1.3746 -0.6714
  717MOL0     H98906   4.990   4.658  -0.058 -0.2152 -0.4157  3.3477
  717MOL0     H98907   4.824   4.660   0.007 -0.8894  0.4314 -1.1772
  717MOL0     H98908   5.121   4.645  -0.561 -0.5750 -0.3977  1.5769
  717MOL0     H98909   5.158   4.861  -0.685 -0.1796 -2.6705  0.8979
  717MOL0     H98910   5.252   5.048  -0.722  1.6687 -0.3368  1.8737
  717MOL0     H98911   5.089   5.106  -0.743  0.9115  0.8780 -1.3112
  717MOL0     H98912   5.309   5.307  -0.698 -0.4420  1.8511 -1.6034
  717MOL0     H98913   5.263   5.240  -0.850  1.9096 -0.4669  0.9302
  717MOL0     H98914   5.073   5.360  -0.854  3.6019  0.0963 -2.3573
  717MOL0     H98915   5.195   5.463  -0.770 -1.3965  0.8294  1.4441
  717MOL0     H98916   4.975   5.310  -0.602  1.5627 -0.6499  0.3899
  717MOL0     H98917   4.948   5.470  -0.668 -0.0390 -1.0502 -2.2146
  717MOL0     H98918   5.193   5.390  -0.511 -1.0628 -0.7041  3.0633
  717MOL0     H98919   5.141   5.556  -0.543  0.5104 -0.4288  0.1767
  717MOL0     H98920   4.962   5.375  -0.390 -0.1143 -0.7471 -3.4105
  717MOL0     H98921   4.972   5.554  -0.394 -0.6159  0.2911  3.2857
  717MOL0     H98922   5.191   5.553  -0.294  0.7531  0.4152  0.3117
  717MOL0     H98923   5.206   5.384  -0.287  1.6887  2.4618 -1.4036
  717MOL0     H98924   4.999   5.348  -0.165 -1.5220  0.6475  0.7205
  717MOL0     H98925   4.974   5.513  -0.143 -2.7865 -2.5028 -2.5710
  717MOL0     H98926   5.091   5.077  -0.303 -0.8971  0.5974  0.2607
  717MOL0     H98927   5.067   4.868  -0.202  2.2502 -0.1922 -0.1805
  717MOL0     H98928   4.895   4.290  -0.398 -0.7090 -1.4162 -0.0691
  717MOL0     H98929   4.772   4.136  -0.235 -0.1055 -1.3411  0.5708
  717MOL0     H98930   5.985   3.705   0.713  1.4497 -0.1297 -1.3906
  717MOL0     H98931   6.161   3.537   0.725 -0.1387  1.7497  0.2328
  717MOL0     H98932   6.228   3.052   1.081 -0.9293  0.5146 -1.1706
  717MOL0     H98933   6.366   2.871   1.058 -0.4431  0.4093 -0.3399
  717MOL0     H98934   6.765   2.929   0.864  0.8200 -0.0104 -4.2610
  717MOL0     H98935   6.753   2.750   0.874 -1.6677 -2.6706 -2.7906
  717MOL0     H98936   6.638   2.926   0.656  0.1512 -0.0192  0.6027
  717MOL0     H98937   6.622   2.746   0.660  0.1177  1.3044 -5.6500
  717MOL0     H98938   6.873   2.899   0.636 -0.8850  0.3166 -0.8613
  717MOL0     H98939   6.875   2.735   0.701 -0.2226 -0.4626  0.9955
  717MOL0     H98940   6.775   2.648   0.475  0.7182 -0.7004 -0.8876
  717MOL0     H98941   6.929   2.717   0.484 -0.3785 -0.9075  2.9793
  717MOL0     H98942   6.758   2.984   0.206  1.0158  0.0087 -0.6885
  717MOL0     H98943   6.630   3.104   0.804  0.1289  0.0801  0.3967
  717MOL0     H98944   6.514   3.422   0.888  1.1178  0.2890  0.0077
  717MOL0     H98945   6.606   3.327   0.766 -0.2332 -2.4946  0.9815
  717MOL0     H98946   6.442   3.348   0.737 -0.6358  3.1520  0.9114
  718MOL0     O98947  10.427  10.845   9.491 -0.8241  0.5640 -1.0629
  718MOL0     C98948  10.472  10.778   9.592  0.3479 -0.2544 -0.5848
  718MOL0     O98949  10.586  10.697   9.601  0.6421  0.4759  0.2162
  718MOL0     C98950  10.664  10.684   9.488  0.1441 -0.2604 -0.9522
  718MOL0     C98951  10.599  10.639   9.370 -0.2533 -0.0896  0.1829
  718MOL0     C98952  10.679  10.604   9.260  0.2357  0.5166 -0.6543
  718MOL0     C98953  10.819  10.608   9.267 -0.0623  0.3324  0.0085
  718MOL0     O98954  10.888  10.569   9.154 -0.3200  0.2975  0.9655
  718MOL0     C98955  11.032  10.544   9.158  0.0178  0.4043  1.1302
  718MOL0     C98956  11.072  10.462   9.034  0.8536 -0.6159 -0.3506
  718MOL0     C98957  11.118  10.548   8.920  0.7093  0.6407 -0.4063
  718MOL0     C98958  11.135  10.473   8.792 -0.4178  0.1799  0.1643
  718MOL0     C98959  11.049  10.508   8.665 -0.6107  0.1399  0.2960
  718MOL0     C98960  10.907  10.531   8.658  0.4726  0.9205  0.0013
  718MOL0     C98961  10.813  10.417   8.709 -0.3014  0.0483  0.1915
  718MOL0     C98962  10.682  10.480   8.755  0.2913 -0.5590 -0.4472
  718MOL0     N98963  10.588  10.465   8.637  0.1084  0.0791  0.0684
  718MOL0     C98964  10.594  10.523   8.508  0.2484 -0.2561 -1.4438
  718MOL0     C98965  10.476  10.491   8.453 -0.4831  0.3635 -0.5918
  718MOL0     C98966  10.435  10.549   8.323  0.4536 -0.7510 -0.5434
  718MOL0     C98967  10.305  10.501   8.256 -1.0761 -1.2701 -0.6078
  718MOL0     C98968  10.279  10.599   8.132  0.0834 -0.4860 -0.5148
  718MOL0     C98969  10.395  10.604   8.038 -0.3774  0.9031  0.0417
  718MOL0     O98970  10.405  10.467   7.978 -0.0027 -0.1242 -0.0669
  718MOL0     C98971  10.384  10.461   7.842  0.5586 -0.9824 -0.1343
  718MOL0     C98972  10.439  10.345   7.789 -0.2563 -0.2349  0.8920
  718MOL0     C98973  10.435  10.315   7.651 -0.1783  0.8434 -0.3377
  718MOL0     C98974  10.543  10.216   7.609 -0.0431 -0.4769 -0.5919
  718MOL0     C98975  10.376  10.399   7.561  1.1411 -0.7257 -0.6751
  718MOL0     C98976  10.363  10.362   7.416  0.8861 -0.2762  0.0183
  718MOL0     O98977  10.355  10.229   7.392  0.4759 -0.5540  0.2315
  718MOL0     C98978  10.363  10.178   7.263 -0.3212 -1.1733  1.0380
  718MOL0     C98979  10.464  10.227   7.169  0.2980  0.6369  0.4053
  718MOL0     C98980  10.479  10.156   7.051  0.0566  0.5250  1.1799
  718MOL0     C98981  10.396  10.052   7.014  1.5036  0.8329 -0.4896
  718MOL0     O98982  10.414   9.998   6.893 -0.2246  0.3710 -1.0960
  718MOL0     C98983  10.304   9.920   6.834 -0.2975 -0.2078 -0.0729
  718MOL0     C98984  10.318   9.903   6.685 -0.2351  0.2468  0.2221
  718MOL0     C98985  10.273  10.035   6.605  0.4341 -1.0856  0.2048
  718MOL0     C98986  10.288  10.022   6.448  0.1331  0.4107 -1.2612
  718MOL0     C98987  10.269  10.134   6.352 -0.5985  0.5831 -1.2357
  718MOL0     C98988  10.136  10.204   6.347  0.9186 -0.0676 -0.1084
  718MOL0     C98989  10.133  10.325   6.251  0.0100  0.5653  0.0636
  718MOL0     C98990  10.167  10.279   6.113  0.4417  0.2298  0.1877
  718MOL0    Cl98991  10.345  10.274   6.085 -0.0738  0.0621 -0.0101
  718MOL0     C98992  10.303  10.004   7.113 -0.4345  0.7045  0.5153
  718MOL0     C98993  10.287  10.069   7.235  0.3064 -1.1831 -0.1665
  718MOL0     O98994  10.345  10.444   7.330 -0.5333 -0.4173  0.0971
  718MOL0     C98995  10.311  10.514   7.609  0.3525 -0.3765  0.0405
  718MOL0     C98996  10.326  10.552   7.748  0.7103 -1.1127  0.8462
  718MOL0     N98997  10.418  10.402   8.533  0.7678 -0.4003 -0.2814
  718MOL0     N98998  10.481  10.387   8.643  0.9162 -0.2051 -0.6839
  718MOL0     C98999  10.886  10.662   9.386 -0.1297 -0.9895  0.6428
  718MOL0     C99000  10.805  10.700   9.495 -0.2903 -0.1425 -0.4214
  718MOL0     C99001  10.395  10.797   9.722 -0.0799 -0.5582 -0.0562
  718MOL0     C99002  10.400  10.679   9.800  0.6693  0.2146  0.4680
  718MOL0     C99003  10.327  10.678   9.919 -0.1226 -0.2863 -0.2320
  718MOL0     C99004  10.253  10.792   9.964 -0.6577  0.0812 -0.3909
  718MOL0     O99005  10.186  10.777  10.083  0.4272 -0.7208  0.2909
  718MOL0     C99006  10.138  10.884  10.166  0.7208  0.1840 -0.4910
  718MOL0     C99007  10.093  10.813  10.298 -0.1277  0.0354  0.9190
  718MOL0     C99008  10.209  10.759  10.372 -0.8747  0.0669  1.1840
  718MOL0     C99009  10.162  10.684  10.492 -0.0966  0.4395  0.3522
  718MOL0     C99010  10.277  10.648  10.582  0.1839 -0.7014  0.1953
  718MOL0     C99011  10.364  10.623  10.662  0.1565 -0.4181  0.7564
  718MOL0     C99012  10.248  10.903   9.884  0.2518  0.1781  0.1222
  718MOL0     C99013  10.312  10.906   9.763 -0.6023  0.1110  0.3058
  718MOL0     C99014  10.312  11.037   9.689 -0.7372  0.3606 -0.6519
  718MOL0     H99015  10.491  10.649   9.378 -0.0685  3.2788 -0.0990
  718MOL0     H99016  10.631  10.557   9.174 -2.4904 -0.4811  1.2670
  718MOL0     H99017  11.056  10.480   9.244  2.2750  0.9165  0.9472
  718MOL0     H99018  11.102  10.628   9.164  2.7018 -1.2993 -2.5617
  718MOL0     H99019  11.157  10.403   9.067  0.9266  0.0820  0.7439
  718MOL0     H99020  10.987  10.396   9.012  1.2405 -1.4319  0.5740
  718MOL0     H99021  11.047  10.627   8.896  2.1958  2.5212  1.0712
  718MOL0     H99022  11.217  10.586   8.949  0.9760  0.3217 -0.8769
  718MOL0     H99023  11.235  10.500   8.759 -1.6842  0.4083 -3.9935
  718MOL0     H99024  11.138  10.366   8.815  4.0846  0.4383  1.8976
  718MOL0     H99025  11.070  10.423   8.600 -1.2641  1.7422 -2.1539
  718MOL0     H99026  11.087  10.592   8.605 -0.5185 -2.2668 -3.3459
  718MOL0     H99027  10.887  10.624   8.711 -2.1366  1.7237 -2.1971
  718MOL0     H99028  10.877  10.558   8.556 -1.6915 -1.4658 -0.1020
  718MOL0     H99029  10.852  10.369   8.799 -2.5162 -0.0263  1.1860
  718MOL0     H99030  10.808  10.335   8.636  1.1207  0.0415  0.0816
  718MOL0     H99031  10.636  10.422   8.835  1.4947  0.9452  1.4192
  718MOL0     H99032  10.694  10.586   8.775  3.2933 -0.2787 -2.9654
  718MOL0     H99033  10.667  10.588   8.462 -0.7356  0.8747 -1.4752
  718MOL0     H99034  10.521  10.535   8.256  1.0839 -2.0076  0.4859
  718MOL0     H99035  10.420  10.656   8.339  0.1183 -0.8284 -0.3429
  718MOL0     H99036  10.312  10.394   8.234  1.3163 -1.4030  0.4609
  718MOL0     H99037  10.224  10.524   8.326  1.6587  0.8086  2.1988
  718MOL0     H99038  10.191  10.558   8.081  0.0005 -1.1896  0.1902
  718MOL0     H99039  10.268  10.705   8.159 -0.0438 -0.7919  0.6868
  718MOL0     H99040  10.387  10.691   7.972 -0.6546  1.3731  0.6865
  718MOL0     H99041  10.485  10.632   8.094  0.7044 -2.0352 -0.0380
  718MOL0     H99042  10.499  10.283   7.853  3.3381  0.8765 -1.1272
  718MOL0     H99043  10.510  10.112   7.613  0.6452 -0.6818 -0.1847
  718MOL0     H99044  10.620  10.223   7.686 -1.1403 -1.3255  0.6371
  718MOL0     H99045  10.578  10.236   7.507 -0.7306  1.3947 -0.4937
  718MOL0     H99046  10.535  10.307   7.185  0.2139  0.7281  0.3326
  718MOL0     H99047  10.548  10.210   6.986  1.1533 -4.6970 -2.7489
  718MOL0     H99048  10.318   9.823   6.883 -0.6456  0.4581  1.4173
  718MOL0     H99049  10.213   9.973   6.863  0.3084  1.4753 -1.1526
  718MOL0     H99050  10.420   9.883   6.650 -0.4653 -0.0558 -0.2937
  718MOL0     H99051  10.249   9.820   6.665  2.7807 -2.1596 -1.1053
  718MOL0     H99052  10.339  10.119   6.631 -0.3281 -1.0158  2.1182
  718MOL0     H99053  10.169  10.057   6.630 -0.1463 -1.1325 -2.0319
  718MOL0     H99054  10.231   9.931   6.428 -0.7326  0.5130  0.5844
  718MOL0     H99055  10.394   9.996   6.438  0.0833 -2.0421  2.6075
  718MOL0     H99056  10.342  10.211   6.378 -1.9355  1.6086 -0.3682
  718MOL0     H99057  10.289  10.095   6.251 -1.5164  0.0864 -1.2351
  718MOL0     H99058  10.098  10.245   6.442 -0.8380 -2.2181  0.2066
  718MOL0     H99059  10.067  10.123   6.319  0.5984 -0.7942  2.4676
  718MOL0     H99060  10.204  10.400   6.288  2.9563 -2.9370  2.1156
  718MOL0     H99061  10.029  10.358   6.241 -0.1143  1.7383  3.8042
  718MOL0     H99062  10.126  10.349   6.039  4.0139  2.6248  0.2263
  718MOL0     H99063  10.129  10.178   6.092 -1.0978  0.9571 -0.7471
  718MOL0     H99064  10.228   9.927   7.097 -0.4873  0.9330 -0.3842
  718MOL0     H99065  10.228  10.040   7.322 -2.4247  1.5104 -0.9713
  718MOL0     H99066  10.268  10.581   7.535  0.1154 -0.4195  0.1386
  718MOL0     H99067  10.277  10.647   7.768 -3.3465 -1.8015 -4.0128
  718MOL0     H99068  10.993  10.677   9.395 -0.7086  3.2077  3.1611
  718MOL0     H99069  10.856  10.716   9.589 -0.0741 -0.9224 -0.3982
  718MOL0     H99070  10.454  10.588   9.773 -0.4234  0.1114 -1.5343
  718MOL0     H99071  10.314  10.595   9.987  2.2251 -2.2173 -1.9400
  718MOL0     H99072  10.216  10.952  10.200 -0.3686 -0.0904  2.8196
  718MOL0     H99073  10.046  10.923  10.121  1.4346 -0.3635 -2.5443
  718MOL0     H99074  10.040  10.720  10.277  0.6920 -0.7933  2.3103
  718MOL0     H99075  10.025  10.879  10.354 -1.7828 -0.5757 -0.3056
  718MOL0     H99076  10.270  10.689  10.315 -2.4653 -4.0255  4.0132
  718MOL0     H99077  10.278  10.836  10.405  2.8768 -2.9796  1.1575
  718MOL0     H99078  10.109  10.592  10.465 -1.3670  1.6761 -1.6469
  718MOL0     H99079  10.090  10.735  10.556 -1.9498 -1.2733 -0.2508
  718MOL0     H99080  10.454  10.619  10.721 -0.6810 -1.4911  2.0177
  718MOL0     H99081  10.186  10.985   9.919 -1.3423 -0.8936 -0.1446
  718MOL0     H99082  10.397  11.093   9.731 -2.3848  1.5270  1.2971
  718MOL0     H99083  10.318  11.029   9.580  1.5749  2.3228 -0.7685
  718MOL0     H99084  10.218  11.088   9.709 -1.2361 -0.6978 -0.1932
  719MOL0     O99085   9.385   4.149   7.548  0.0479  0.1560  0.4375
  719MOL0     C99086   9.437   4.139   7.655  0.1510 -0.0962  0.6797
  719MOL0     O99087   9.411   4.047   7.753  0.1876 -0.3491  0.3733
  719MOL0     C99088   9.333   3.938   7.733  0.4663 -0.1144 -0.6370
  719MOL0     C99089   9.376   3.824   7.650  0.1090  0.5960 -0.3129
  719MOL0     C99090   9.292   3.709   7.643  0.1632  0.9560 -0.3116
  719MOL0     C99091   9.172   3.701   7.720 -0.3845 -0.6567  0.1846
  719MOL0     O99092   9.084   3.595   7.696 -0.5624  0.0736  0.3757
  719MOL0     C99093   8.970   3.556   7.778  1.0118  0.2785  1.2878
  719MOL0     C99094   9.017   3.509   7.925  0.9989 -0.3747  0.0519
  719MOL0     C99095   9.100   3.385   7.910 -1.0028 -1.0809 -0.0299
  719MOL0     C99096   9.125   3.311   8.037  0.6035  0.6200  1.1720
  719MOL0     C99097   9.190   3.178   8.008  0.7954  0.0076 -0.0106
  719MOL0     C99098   9.217   3.102   8.142 -0.7600  0.6665  1.2797
  719MOL0     C99099   9.100   3.019   8.202 -0.1578 -0.0453  0.1046
  719MOL0     C99100   9.099   3.022   8.353  0.0330 -0.5006  0.4883
  719MOL0     N99101   9.037   3.147   8.409  1.5337  0.0528 -0.0477
  719MOL0     C99102   9.100   3.272   8.425  1.1370  0.9540 -0.3433
  719MOL0     C99103   9.000   3.358   8.456 -0.3447 -1.1448  0.1289
  719MOL0     C99104   9.001   3.508   8.450  0.3606 -0.0232  0.0214
  719MOL0     C99105   8.969   3.548   8.304  0.4644 -0.6153 -0.1951
  719MOL0     C99106   8.900   3.686   8.315 -0.7241  0.7592  0.1717
  719MOL0     C99107   8.898   3.764   8.176 -0.3078  0.5137  0.1263
  719MOL0     O99108   9.034   3.797   8.145 -0.2493  0.4313 -0.0926
  719MOL0     C99109   9.091   3.916   8.183 -0.5845 -0.5351  0.6952
  719MOL0     C99110   9.022   4.016   8.261  0.0078  0.5746 -0.2587
  719MOL0     C99111   9.066   4.147   8.271  0.1060 -0.3322 -0.2160
  719MOL0     C99112   8.994   4.253   8.361 -0.1159 -0.1422 -0.1173
  719MOL0     C99113   9.187   4.182   8.202  0.1813  0.2617 -0.2155
  719MOL0     C99114   9.240   4.323   8.185  0.1535 -0.2568  0.1968
  719MOL0     O99115   9.374   4.344   8.169 -0.1330 -0.0656 -0.8839
  719MOL0     C99116   9.435   4.462   8.183  0.2237 -0.6314  0.5166
  719MOL0     C99117   9.477   4.512   8.059  1.1099 -0.0267 -0.2016
  719MOL0     C99118   9.553   4.630   8.065  0.4875 -0.5261 -1.1308
  719MOL0     C99119   9.577   4.702   8.182 -0.0055 -0.4657  0.3659
  719MOL0     O99120   9.643   4.816   8.154 -0.9005 -0.2535 -0.3540
  719MOL0     C99121   9.740   4.857   8.265 -0.4984  1.1114  0.7408
  719MOL0     C99122   9.881   4.826   8.207  0.7262  0.1173 -0.6658
  719MOL0     C99123   9.908   4.689   8.154  0.4550 -0.4420  0.8370
  719MOL0     C99124   9.886   4.576   8.240  0.5096  0.3458  0.5266
  719MOL0     C99125   9.871   4.442   8.171 -0.7437 -0.7783 -0.1978
  719MOL0     C99126   9.848   4.335   8.277 -0.0629  0.1924 -0.5304
  719MOL0     C99127   9.832   4.202   8.207  0.0593 -0.5187 -0.8650
  719MOL0     C99128   9.738   4.111   8.292 -0.1775 -0.2587  0.3098
  719MOL0    Cl99129   9.722   3.961   8.201  0.2796  0.0891 -0.0516
  719MOL0     C99130   9.530   4.657   8.301  0.1193 -0.0015  0.0314
  719MOL0     C99131   9.456   4.529   8.304 -0.2221  0.4111 -0.2104
  719MOL0     O99132   9.153   4.403   8.197 -0.8749 -0.1905 -0.9995
  719MOL0     C99133   9.267   4.072   8.144 -0.1033  0.1522  0.2497
  719MOL0     C99134   9.224   3.940   8.140  0.2999  0.2123  0.6673
  719MOL0     N99135   8.892   3.276   8.477 -0.7508  0.8703  0.8660
  719MOL0     N99136   8.904   3.160   8.429  0.1090  0.1154 -0.4558
  719MOL0     C99137   9.133   3.811   7.784  0.6195  0.0485 -1.3593
  719MOL0     C99138   9.216   3.920   7.798  0.9927 -1.2649  0.4415
  719MOL0     C99139   9.541   4.237   7.686 -0.1835 -0.6639  0.8843
  719MOL0     C99140   9.539   4.361   7.608  0.0598  0.1155  0.0101
  719MOL0     C99141   9.635   4.458   7.621  0.6869  0.2323  0.8533
  719MOL0     C99142   9.744   4.440   7.704  0.3651 -0.3251 -0.0483
  719MOL0     O99143   9.850   4.537   7.693  0.6025 -0.6361  0.3619
  719MOL0     C99144   9.980   4.506   7.748 -0.0430  0.4380 -0.9273
  719MOL0     C99145  10.063   4.624   7.753  0.7911 -0.1444 -0.5562
  719MOL0     C99146  10.213   4.595   7.794  0.0278  0.9493  0.2987
  719MOL0     C99147  10.316   4.683   7.720  0.7315 -0.2179  0.1373
  719MOL0     C99148  10.325   4.639   7.578 -0.3293  0.3833 -0.0022
  719MOL0     C99149  10.340   4.605   7.460  0.1228 -0.6711 -0.4191
  719MOL0     C99150   9.750   4.321   7.780  0.9838  0.9069  0.0016
  719MOL0     C99151   9.648   4.218   7.775  0.5652 -1.0673 -1.5129
  719MOL0     C99152   9.674   4.099   7.861 -0.5112 -0.5656 -0.5680
  719MOL0     H99153   9.466   3.823   7.589  0.5610  0.9257  0.3228
  719MOL0     H99154   9.320   3.625   7.580  2.3079 -0.2827  2.0451
  719MOL0     H99155   8.905   3.480   7.734 -1.6005  1.7987  2.2408
  719MOL0     H99156   8.909   3.646   7.792  0.6311  0.6072 -1.8545
  719MOL0     H99157   9.070   3.596   7.964  0.9467 -0.6180  0.6787
  719MOL0     H99158   8.929   3.494   7.988  1.5167  0.7509  1.0884
  719MOL0     H99159   9.050   3.328   7.831  0.7678 -1.0445 -1.2402
  719MOL0     H99160   9.201   3.412   7.875  0.1607 -1.3460  2.8093
  719MOL0     H99161   9.173   3.379   8.108 -2.6323  3.3783  0.9589
  719MOL0     H99162   9.024   3.296   8.077 -0.1597  0.1954 -0.7921
  719MOL0     H99163   9.285   3.195   7.958  0.9231  2.9073  1.0413
  719MOL0     H99164   9.127   3.129   7.933 -0.3203  1.6251 -0.1916
  719MOL0     H99165   9.281   3.020   8.109 -1.7965  0.0605  0.7059
  719MOL0     H99166   9.275   3.166   8.209 -0.8620  1.0853  0.9724
  719MOL0     H99167   9.097   2.914   8.171 -2.8500 -1.3934  4.1464
  719MOL0     H99168   9.011   3.072   8.168 -0.6071  0.1306  1.4974
  719MOL0     H99169   9.053   2.930   8.391  0.7411  0.1405  3.0540
  719MOL0     H99170   9.203   3.016   8.387 -0.8178  1.3607  3.8703
  719MOL0     H99171   9.202   3.298   8.401  1.3094 -1.1225 -2.2573
  719MOL0     H99172   9.091   3.550   8.497 -1.4740 -0.4952  4.5020
  719MOL0     H99173   8.911   3.548   8.498 -0.0470  3.2139 -3.0631
  719MOL0     H99174   9.059   3.560   8.244  0.2833 -1.3936 -0.6290
  719MOL0     H99175   8.902   3.473   8.262 -0.7961 -0.1308  0.8618
  719MOL0     H99176   8.794   3.665   8.331 -0.1772 -0.9110  2.0699
  719MOL0     H99177   8.945   3.741   8.399  1.3210 -0.6525  0.0956
  719MOL0     H99178   8.846   3.698   8.107 -1.8104  0.1101  1.5664
  719MOL0     H99179   8.821   3.841   8.169 -0.4301  0.3242 -0.6329
  719MOL0     H99180   8.928   4.000   8.313  0.2515  1.5058  0.4927
  719MOL0     H99181   9.073   4.317   8.402 -3.5090  3.6745  1.1055
  719MOL0     H99182   8.938   4.200   8.439  2.1748 -2.7146 -0.0770
  719MOL0     H99183   8.925   4.314   8.303 -1.7701 -2.9542 -1.3194
  719MOL0     H99184   9.464   4.450   7.971  0.2192 -2.0384  1.2846
  719MOL0     H99185   9.596   4.677   7.978 -2.8439  1.1532 -2.0707
  719MOL0     H99186   9.744   4.966   8.274 -1.0213  1.2901 -0.8993
  719MOL0     H99187   9.713   4.806   8.358 -4.5901  1.0691 -0.2877
  719MOL0     H99188   9.905   4.903   8.133  3.1075 -0.6478 -0.7732
  719MOL0     H99189   9.953   4.850   8.286  0.8906 -1.3626 -0.3418
  719MOL0     H99190  10.011   4.683   8.117  1.4820 -0.5221  3.4567
  719MOL0     H99191   9.846   4.673   8.066 -0.7844 -3.1344  2.0597
  719MOL0     H99192   9.786   4.586   8.282 -0.1958 -1.9224 -0.4456
  719MOL0     H99193   9.955   4.568   8.325  3.0894 -0.0247 -1.4537
  719MOL0     H99194   9.785   4.445   8.104 -0.3266  1.0434 -0.7173
  719MOL0     H99195   9.962   4.419   8.115 -0.1785  0.2528  0.2739
  719MOL0     H99196   9.772   4.375   8.344  1.6130  2.5518  0.0766
  719MOL0     H99197   9.937   4.317   8.338 -2.3731  1.1539  3.4797
  719MOL0     H99198   9.930   4.159   8.185  0.2461  0.7668 -2.7909
  719MOL0     H99199   9.779   4.219   8.113  1.0227  0.4833 -1.2593
  719MOL0     H99200   9.647   4.164   8.321 -0.2470  0.4890 -1.1712
  719MOL0     H99201   9.778   4.098   8.393 -2.3516 -0.9496  1.1422
  719MOL0     H99202   9.534   4.717   8.392  0.3762  1.0159 -0.6357
  719MOL0     H99203   9.435   4.469   8.392  0.0612 -2.5602 -2.0317
  719MOL0     H99204   9.360   4.100   8.096  0.0992  1.7512  1.4952
  719MOL0     H99205   9.282   3.871   8.080  1.5896  1.1179  0.8379
  719MOL0     H99206   9.040   3.827   7.838 -0.0225 -0.7005 -2.2214
  719MOL0     H99207   9.198   3.995   7.875  1.0969  0.5948 -1.2762
  719MOL0     H99208   9.459   4.383   7.538  0.7373 -0.6904 -1.0477
  719MOL0     H99209   9.627   4.536   7.546  0.3038 -0.8634 -0.2698
  719MOL0     H99210   9.971   4.478   7.853 -1.7106  3.7206 -0.0678
  719MOL0     H99211  10.026   4.422   7.696  2.4403  2.0885 -1.5495
  719MOL0     H99212  10.026   4.704   7.818 -2.2300  0.8060 -3.1817
  719MOL0     H99213  10.064   4.673   7.655  0.1082 -1.3056 -1.1708
  719MOL0     H99214  10.225   4.603   7.902 -0.0270  1.5949  0.2589
  719MOL0     H99215  10.238   4.492   7.768  0.0175  1.3169 -1.2488
  719MOL0     H99216  10.412   4.668   7.771 -0.2785 -2.9055  1.4144
  719MOL0     H99217  10.285   4.788   7.721  0.1033 -0.2932 -2.7636
  719MOL0     H99218  10.359   4.578   7.358  0.6350  1.0912 -0.8149
  719MOL0     H99219   9.835   4.295   7.843  1.3735 -1.9037 -1.5234
  719MOL0     H99220   9.594   4.074   7.931 -1.1426 -2.4339 -1.8889
  719MOL0     H99221   9.675   4.012   7.795  2.4356 -1.4715  0.5454
  719MOL0     H99222   9.768   4.115   7.914  0.0572 -3.5238 -0.5100
  720MOL0     O99223   6.973   2.402   3.160  0.1949  0.8874  0.4147
  720MOL0     C99224   6.905   2.510   3.161 -1.2711 -0.3598  0.8225
  720MOL0     O99225   6.958   2.633   3.170 -0.5557  0.2745 -0.0808
  720MOL0     C99226   7.094   2.647   3.199  0.3601 -0.2192  0.1623
  720MOL0     C99227   7.169   2.578   3.286  0.4192  0.1680 -0.7917
  720MOL0     C99228   7.300   2.623   3.318 -0.5883  0.6311  0.0394
  720MOL0     C99229   7.360   2.734   3.253  0.5871  0.4019 -0.2850
  720MOL0     O99230   7.473   2.799   3.303  0.3840  0.5881 -0.6942
  720MOL0     C99231   7.454   2.927   3.370  0.6304  0.2163 -0.1452
  720MOL0     C99232   7.554   2.933   3.487 -0.1933  0.7817  0.1389
  720MOL0     C99233   7.515   2.837   3.602 -0.4493  0.1717 -0.8444
  720MOL0     C99234   7.376   2.851   3.655  0.6467 -0.0574  0.0955
  720MOL0     C99235   7.369   2.808   3.802  0.3597 -0.2102 -0.2014
  720MOL0     C99236   7.228   2.822   3.844  0.8179  0.1214 -0.4562
  720MOL0     C99237   7.210   2.770   3.996 -0.0502 -0.1048 -0.0799
  720MOL0     C99238   7.077   2.807   4.053 -0.7927  0.2361 -0.7194
  720MOL0     N99239   7.054   2.733   4.183 -0.4758  0.9455  0.4766
  720MOL0     C99240   7.028   2.601   4.192  0.2121  0.1941 -0.4446
  720MOL0     C99241   6.982   2.582   4.320 -0.8425 -0.7812  0.3105
  720MOL0     C99242   6.949   2.445   4.380  0.7231 -1.1835  0.6186
  720MOL0     C99243   6.915   2.442   4.529  0.3953 -0.2587 -0.3139
  720MOL0     C99244   7.044   2.450   4.611 -0.6166  0.1309  0.3607
  720MOL0     C99245   7.021   2.418   4.762  1.0269 -0.6353  0.1548
  720MOL0     O99246   6.993   2.274   4.756 -0.1411  0.3872 -0.6714
  720MOL0     C99247   6.938   2.213   4.873 -0.3427  0.2664  0.1812
  720MOL0     C99248   6.864   2.100   4.864  0.0122  0.5295 -0.2925
  720MOL0     C99249   6.836   2.029   4.980  0.7922 -0.1473  0.7958
  720MOL0     C99250   6.770   1.903   4.937  1.1125 -0.8894 -0.5121
  720MOL0     C99251   6.864   2.067   5.105  0.2600  0.1716  0.1821
  720MOL0     C99252   6.820   1.989   5.223 -0.2321  0.4475  0.1906
  720MOL0     O99253   6.726   1.890   5.206 -0.3688 -1.3081  0.2399
  720MOL0     C99254   6.720   1.790   5.301 -0.0017 -0.5708 -0.1354
  720MOL0     C99255   6.623   1.781   5.405 -0.2895 -0.6363 -0.8742
  720MOL0     C99256   6.615   1.678   5.496 -0.1339 -0.2032 -0.2639
  720MOL0     C99257   6.715   1.575   5.491  0.2995 -0.6711  0.5792
  720MOL0     O99258   6.724   1.467   5.569  0.1186 -0.5508 -0.3346
  720MOL0     C99259   6.682   1.481   5.704  1.7609 -0.1372  0.6367
  720MOL0     C99260   6.546   1.407   5.732 -0.1193 -0.4228  0.0657
  720MOL0     C99261   6.517   1.394   5.883 -0.4832 -0.1549  0.0517
  720MOL0     C99262   6.564   1.262   5.948  0.3656 -0.7468  0.2278
  720MOL0     C99263   6.504   1.241   6.083 -0.2333 -1.2025  0.3060
  720MOL0     C99264   6.547   1.112   6.148  0.5679  0.1530  1.0114
  720MOL0     C99265   6.677   1.117   6.223 -0.5021 -0.2834  0.2427
  720MOL0     C99266   6.693   1.015   6.333  0.0225  0.3233  0.4119
  720MOL0    Cl99267   6.573   1.052   6.463 -0.4305  0.1867  0.0227
  720MOL0     C99268   6.809   1.580   5.388  1.0960  0.2556 -0.7997
  720MOL0     C99269   6.808   1.685   5.302  0.0774 -0.2020  0.3409
  720MOL0     O99270   6.870   2.014   5.332  0.0912 -0.5331  0.6593
  720MOL0     C99271   6.934   2.195   5.115  0.0944  0.6921 -0.0154
  720MOL0     C99272   6.965   2.270   5.003  0.2133 -0.3023  0.2442
  720MOL0     N99273   6.993   2.701   4.386 -0.3346 -0.4468 -0.7580
  720MOL0     N99274   7.041   2.788   4.301 -0.1394 -0.1444 -0.1294
  720MOL0     C99275   7.282   2.804   3.162 -0.2931  0.7535 -1.0503
  720MOL0     C99276   7.156   2.758   3.133 -0.2597  0.5902  0.4978
  720MOL0     C99277   6.758   2.493   3.131  0.8699 -0.0107 -0.2444
  720MOL0     C99278   6.721   2.377   3.068 -0.3816 -0.2355 -0.1880
  720MOL0     C99279   6.588   2.349   3.053 -0.7179 -0.5439 -0.0062
  720MOL0     C99280   6.489   2.437   3.083 -0.3603  0.1036 -0.2245
  720MOL0     O99281   6.360   2.402   3.036 -0.4006 -0.4387 -0.1621
  720MOL0     C99282   6.255   2.494   3.060 -0.0255 -0.4294  0.1604
  720MOL0     C99283   6.128   2.410   3.084 -0.8638 -1.2348  0.4507
  720MOL0     C99284   6.008   2.492   3.139 -0.3430  0.0193 -0.4035
  720MOL0     C99285   5.874   2.423   3.145  0.6638  0.1591 -0.3864
  720MOL0     C99286   5.905   2.314   3.237 -0.1601 -0.1056 -0.0447
  720MOL0     C99287   5.935   2.215   3.297 -0.0993  0.1389 -0.5596
  720MOL0     C99288   6.529   2.562   3.133 -0.5610 -1.0875 -0.2554
  720MOL0     C99289   6.660   2.592   3.170  0.3313  0.1506 -0.0359
  720MOL0     C99290   6.687   2.719   3.253 -0.3875 -0.0008  0.6611
  720MOL0     H99291   7.125   2.502   3.351  1.6410  2.7126  3.3883
  720MOL0     H99292   7.362   2.596   3.403  0.9284  0.0092 -1.2198
  720MOL0     H99293   7.353   2.940   3.410  0.1647 -0.2016 -1.1480
  720MOL0     H99294   7.469   3.011   3.300 -1.2667  2.1946  1.6670
  720MOL0     H99295   7.652   2.906   3.446 -0.4906  1.6879 -1.2420
  720MOL0     H99296   7.554   3.035   3.529 -2.2314  1.0830 -0.4906
  720MOL0     H99297   7.529   2.733   3.571 -1.4555 -0.1426 -0.3145
  720MOL0     H99298   7.591   2.859   3.677  1.1062  0.7662 -2.5250
  720MOL0     H99299   7.331   2.949   3.634  1.7896  0.5503  0.3965
  720MOL0     H99300   7.314   2.777   3.603  0.5039 -0.4355  0.7907
  720MOL0     H99301   7.434   2.876   3.857 -2.3567 -0.7408  4.1621
  720MOL0     H99302   7.393   2.702   3.816 -3.2882 -0.9707  1.5418
  720MOL0     H99303   7.192   2.925   3.832  1.6368  0.3970 -0.6052
  720MOL0     H99304   7.158   2.766   3.781 -0.4976  1.1364  0.0476
  720MOL0     H99305   7.290   2.812   4.058  2.1014 -2.4853 -1.0543
  720MOL0     H99306   7.225   2.662   4.002 -1.0583 -0.1853  1.5876
  720MOL0     H99307   7.072   2.916   4.068 -6.9190  0.2135  0.1128
  720MOL0     H99308   6.992   2.781   3.989 -0.3989 -0.3301 -1.0125
  720MOL0     H99309   7.034   2.523   4.117  1.5073 -0.8401  0.6730
  720MOL0     H99310   7.033   2.375   4.370  1.5846  0.0862 -5.9998
  720MOL0     H99311   6.867   2.404   4.321 -0.1338  2.4683 -1.0318
  720MOL0     H99312   6.846   2.520   4.561 -2.5188 -1.7209 -2.6179
  720MOL0     H99313   6.859   2.350   4.548 -1.4470  1.1730  1.6062
  720MOL0     H99314   7.118   2.381   4.570 -1.5548 -0.2626 -0.7196
  720MOL0     H99315   7.082   2.553   4.613 -1.6092  0.5317 -0.6110
  720MOL0     H99316   7.099   2.446   4.833 -2.4058  1.8676  3.2852
  720MOL0     H99317   6.939   2.478   4.802  0.8902  0.1388 -1.2163
  720MOL0     H99318   6.847   2.069   4.761 -0.3424 -1.1751  0.2440
  720MOL0     H99319   6.771   1.876   4.830  1.5311  2.8901 -1.6028
  720MOL0     H99320   6.665   1.913   4.964  0.8760  1.2594 -1.9939
  720MOL0     H99321   6.809   1.826   5.004  2.3939 -0.0877 -0.2960
  720MOL0     H99322   6.553   1.865   5.407 -0.7625 -1.0468  0.2824
  720MOL0     H99323   6.539   1.674   5.574 -0.1281 -3.4487 -0.2831
  720MOL0     H99324   6.753   1.426   5.766  3.0935  1.4627  0.6150
  720MOL0     H99325   6.677   1.585   5.739  0.7137  0.4429 -1.1395
  720MOL0     H99326   6.460   1.452   5.682  0.1283 -1.8020 -1.6816
  720MOL0     H99327   6.550   1.310   5.683 -1.2131  0.2098 -1.3490
  720MOL0     H99328   6.408   1.390   5.889 -0.4572 -4.3320  1.4458
  720MOL0     H99329   6.564   1.479   5.933  2.3953 -1.9380  0.6310
  720MOL0     H99330   6.673   1.260   5.955  0.3427 -2.6652  0.7437
  720MOL0     H99331   6.531   1.174   5.893 -1.7943 -0.7690  1.4200
  720MOL0     H99332   6.532   1.329   6.142 -0.9021 -0.4447 -0.4869
  720MOL0     H99333   6.395   1.240   6.074 -0.0792 -2.2955 -2.5008
  720MOL0     H99334   6.536   1.025   6.084  0.4110 -0.0904  1.3661
  720MOL0     H99335   6.478   1.097   6.232  1.7745  1.8767  2.3992
  720MOL0     H99336   6.692   1.217   6.266  1.0112  0.4320 -1.7855
  720MOL0     H99337   6.762   1.109   6.155 -1.4614  1.0730 -1.1839
  720MOL0     H99338   6.795   1.023   6.373  0.8665  2.8830 -1.9855
  720MOL0     H99339   6.695   0.915   6.289  0.3207 -0.4690  2.1376
  720MOL0     H99340   6.878   1.496   5.378 -1.8709 -2.3314 -1.3203
  720MOL0     H99341   6.892   1.695   5.234 -0.8827  1.0847 -0.7028
  720MOL0     H99342   6.951   2.233   5.215 -0.9338 -1.5016  1.0422
  720MOL0     H99343   7.007   2.370   5.004  0.3790  0.0770 -5.8035
  720MOL0     H99344   7.323   2.899   3.130 -0.9702  1.8831  1.2084
  720MOL0     H99345   7.090   2.802   3.059 -0.4440  1.2452  1.0348
  720MOL0     H99346   6.787   2.298   3.032 -0.9448  0.5135 -3.1177
  720MOL0     H99347   6.580   2.246   3.020  3.3725 -0.6898 -1.1540
  720MOL0     H99348   6.279   2.549   3.152 -0.0779 -1.5525  0.8537
  720MOL0     H99349   6.249   2.574   2.985  1.4973 -1.9609 -1.6962
  720MOL0     H99350   6.167   2.341   3.159  4.3056  2.4392  1.7268
  720MOL0     H99351   6.094   2.344   3.004 -0.8647 -2.6516  1.5877
  720MOL0     H99352   6.029   2.528   3.240  0.2337  1.6795 -1.0881
  720MOL0     H99353   5.998   2.575   3.069  0.0363 -1.8904 -2.8545
  720MOL0     H99354   5.843   2.380   3.049 -2.3508 -0.8703  0.8984
  720MOL0     H99355   5.790   2.481   3.186  1.0868 -0.7192  1.8564
  720MOL0     H99356   5.973   2.127   3.347  0.7174  0.8288  0.0707
  720MOL0     H99357   6.455   2.639   3.154  0.3636  0.6517 -2.9623
  720MOL0     H99358   6.610   2.739   3.328 -0.0013  2.2056  0.5299
  720MOL0     H99359   6.786   2.714   3.297  1.2765 -1.3587 -2.8558
  720MOL0     H99360   6.686   2.796   3.175  0.2749 -0.9814 -0.3369
  721MOL0     O99361  11.394   3.924   2.382 -0.3833 -0.3198  0.0958
  721MOL0     C99362  11.407   3.907   2.266 -0.0374 -0.9741  0.6648
  721MOL0     O99363  11.337   3.972   2.168  0.3141 -0.2605 -0.1455
  721MOL0     C99364  11.217   4.038   2.202 -0.5622 -0.1930  0.5637
  721MOL0     C99365  11.105   4.012   2.126 -0.0580 -0.3203  0.2510
  721MOL0     C99366  10.990   4.081   2.153  0.5421  0.3745  0.1842
  721MOL0     C99367  10.981   4.161   2.267  0.1732 -0.1542 -0.5846
  721MOL0     O99368  10.854   4.212   2.298 -0.7667  0.4307 -0.1257
  721MOL0     C99369  10.856   4.312   2.394  0.4687  0.3532 -0.5422
  721MOL0     C99370  10.711   4.324   2.436 -1.1520  0.1753 -1.1397
  721MOL0     C99371  10.679   4.446   2.521  0.8185  0.0889  0.2077
  721MOL0     C99372  10.534   4.475   2.507  0.1638 -0.1021  1.4228
  721MOL0     C99373  10.462   4.560   2.614  1.2221  0.1015 -0.0523
  721MOL0     C99374  10.507   4.715   2.608 -0.8076  0.2587  0.4701
  721MOL0     C99375  10.461   4.794   2.727  1.5342 -0.3075 -1.0454
  721MOL0     C99376  10.307   4.785   2.727  0.5231  0.8144  0.7219
  721MOL0     N99377  10.248   4.879   2.819  0.8842 -0.0255 -0.8998
  721MOL0     C99378  10.286   4.903   2.955  0.1763 -0.5778 -0.5694
  721MOL0     C99379  10.186   4.979   3.002  0.0578  0.1419 -0.4295
  721MOL0     C99380  10.174   5.045   3.140 -0.5649  0.3931  1.1557
  721MOL0     C99381  10.167   4.937   3.249 -0.5916 -0.2826  0.6649
  721MOL0     C99382  10.130   4.996   3.379  0.5720 -0.0558 -0.3217
  721MOL0     C99383  10.250   5.040   3.455  0.9030 -0.0884 -0.7034
  721MOL0     O99384  10.284   5.161   3.402  0.3029 -0.5017 -0.3062
  721MOL0     C99385  10.398   5.216   3.445 -0.2975  0.2688 -0.4075
  721MOL0     C99386  10.453   5.319   3.368  0.0598 -0.3871 -0.5253
  721MOL0     C99387  10.586   5.364   3.384  0.2270  0.0536 -0.6027
  721MOL0     C99388  10.622   5.476   3.296  1.2941  0.4031 -0.8008
  721MOL0     C99389  10.662   5.311   3.489  0.0992  0.7159  0.7795
  721MOL0     C99390  10.799   5.341   3.521 -0.1857  0.4618 -1.7826
  721MOL0     O99391  10.851   5.315   3.645 -0.1722  0.6657 -0.2909
  721MOL0     C99392  10.988   5.322   3.651  0.2837 -0.2440 -0.1185
  721MOL0     C99393  11.046   5.425   3.726 -0.7435 -0.6876  0.3250
  721MOL0     C99394  11.183   5.412   3.758 -0.6635 -0.8133  0.8758
  721MOL0     C99395  11.263   5.299   3.713 -0.1229  0.1922  0.4938
  721MOL0     O99396  11.396   5.283   3.737 -0.5799 -0.4324  0.6539
  721MOL0     C99397  11.462   5.386   3.816  0.7482 -0.9844  0.2902
  721MOL0     C99398  11.603   5.352   3.854  0.5247  0.7782  0.9079
  721MOL0     C99399  11.684   5.321   3.725 -0.5559 -0.0700 -0.4327
  721MOL0     C99400  11.831   5.332   3.762  0.3880 -0.3426  0.1762
  721MOL0     C99401  11.933   5.344   3.646 -0.6415  0.6798 -0.0423
  721MOL0     C99402  11.905   5.460   3.543  0.2973 -0.0501 -0.2042
  721MOL0     C99403  11.855   5.409   3.410  0.2009 -0.1361 -0.0502
  721MOL0     C99404  11.778   5.513   3.339 -0.0733 -0.2243 -0.3476
  721MOL0    Cl99405  11.748   5.454   3.165  0.2941  0.0301  0.5041
  721MOL0     C99406  11.196   5.200   3.638 -0.9253  0.0348 -0.2945
  721MOL0     C99407  11.056   5.211   3.620 -0.0463 -0.4264  1.4250
  721MOL0     O99408  10.869   5.386   3.435 -0.0507 -0.0424  0.1386
  721MOL0     C99409  10.610   5.210   3.571 -0.3937 -0.2779 -0.1169
  721MOL0     C99410  10.483   5.168   3.544  0.8101 -0.3220 -0.9386
  721MOL0     N99411  10.110   5.017   2.898  0.0002 -0.8763  0.3689
  721MOL0     N99412  10.146   4.960   2.790  0.6915  0.9269 -0.7328
  721MOL0     C99413  11.099   4.191   2.341 -0.4742 -0.0679  0.2127
  721MOL0     C99414  11.214   4.121   2.309  0.5685 -0.2476 -0.5916
  721MOL0     C99415  11.512   3.815   2.226 -0.0486  0.1746 -0.6996
  721MOL0     C99416  11.561   3.723   2.325  0.0150 -1.2376  0.1161
  721MOL0     C99417  11.659   3.634   2.303  0.7069  0.2910 -0.3543
  721MOL0     C99418  11.713   3.634   2.172  0.0912 -0.5784  0.4923
  721MOL0     O99419  11.808   3.541   2.153  0.0283 -0.2823 -0.3437
  721MOL0     C99420  11.918   3.574   2.067 -0.1348  0.7649 -0.0885
  721MOL0     C99421  12.025   3.477   2.090 -1.0988  1.4062  0.7263
  721MOL0     C99422  12.101   3.485   2.226 -0.6560 -0.3294  0.0676
  721MOL0     C99423  12.229   3.393   2.249  0.1064  0.2117  0.6708
  721MOL0     C99424  12.333   3.417   2.143  0.3041 -0.0480  0.3305
  721MOL0     C99425  12.425   3.451   2.073  0.0329  0.4977 -0.4714
  721MOL0     C99426  11.673   3.719   2.066 -0.1054  0.2129 -0.5491
  721MOL0     C99427  11.566   3.803   2.093  0.5823 -0.7971 -0.8510
  721MOL0     C99428  11.517   3.887   1.979  0.1173  0.2494 -0.0421
  721MOL0     H99429  11.114   3.950   2.037  2.3316  1.6237 -0.9876
  721MOL0     H99430  10.905   4.080   2.086 -1.1700 -2.2236  2.1511
  721MOL0     H99431  10.895   4.403   2.346 -1.2762  0.6815 -1.3970
  721MOL0     H99432  10.909   4.290   2.487  0.5869  0.0290 -0.6855
  721MOL0     H99433  10.651   4.340   2.346  0.6920  3.3194 -1.9331
  721MOL0     H99434  10.673   4.232   2.484  0.6905  0.3673  0.8326
  721MOL0     H99435  10.711   4.433   2.625 -2.7602  0.0631  1.4407
  721MOL0     H99436  10.736   4.527   2.474 -1.0786  1.1081 -0.4347
  721MOL0     H99437  10.524   4.512   2.404  0.6991 -5.4209 -0.8846
  721MOL0     H99438  10.484   4.379   2.496 -0.3325  0.2867  0.0993
  721MOL0     H99439  10.473   4.516   2.713  1.6408 -1.5860 -0.8121
  721MOL0     H99440  10.357   4.558   2.582  0.2299  1.8792  2.7040
  721MOL0     H99441  10.616   4.707   2.614 -0.4318 -0.0510 -3.5597
  721MOL0     H99442  10.490   4.767   2.513 -2.5358 -1.0466  0.0101
  721MOL0     H99443  10.489   4.900   2.724 -2.9689  1.2616  2.1335
  721MOL0     H99444  10.494   4.760   2.825 -0.9514  1.1798  0.4079
  721MOL0     H99445  10.280   4.801   2.622  1.3439 -1.9326  0.0333
  721MOL0     H99446  10.274   4.684   2.749  0.6761  0.8543  1.1310
  721MOL0     H99447  10.378   4.888   3.011  0.5899  0.7018 -0.8652
  721MOL0     H99448  10.094   5.119   3.150 -0.1066  1.3143 -1.2533
  721MOL0     H99449  10.270   5.094   3.157 -0.2786 -0.3192  1.6641
  721MOL0     H99450  10.089   4.870   3.213  0.2738 -0.3855 -1.1270
  721MOL0     H99451  10.263   4.886   3.259 -0.4063 -1.3631 -4.2133
  721MOL0     H99452  10.051   5.071   3.365  1.3188  0.7314 -0.3708
  721MOL0     H99453  10.088   4.927   3.452  0.3482  1.9193  1.5040
  721MOL0     H99454  10.214   5.055   3.557 -1.1616 -1.6369 -1.1296
  721MOL0     H99455  10.334   4.970   3.456  1.8736  1.0356  0.4240
  721MOL0     H99456  10.381   5.369   3.303 -2.1689 -1.8723  0.6894
  721MOL0     H99457  10.547   5.490   3.218  1.5536  1.7203 -0.8240
  721MOL0     H99458  10.720   5.458   3.252  1.1043 -2.9673 -0.1657
  721MOL0     H99459  10.627   5.567   3.356 -2.9089 -0.1370  0.7226
  721MOL0     H99460  10.988   5.507   3.768  0.5705  0.0476  0.7777
  721MOL0     H99461  11.228   5.502   3.799  0.4411 -1.0809  0.2659
  721MOL0     H99462  11.465   5.483   3.767  1.1077  0.3409  2.7873
  721MOL0     H99463  11.404   5.410   3.905  0.4163  1.6667 -0.5679
  721MOL0     H99464  11.643   5.443   3.901 -2.0020  2.4998 -0.0755
  721MOL0     H99465  11.607   5.265   3.920  2.4526  0.9230  1.0339
  721MOL0     H99466  11.654   5.406   3.663 -1.1179  2.1269  2.6100
  721MOL0     H99467  11.644   5.224   3.694 -0.4478 -0.2485 -0.0210
  721MOL0     H99468  11.865   5.247   3.822  2.8104 -0.9226 -1.8316
  721MOL0     H99469  11.845   5.417   3.830  5.2256 -0.4014 -0.3884
  721MOL0     H99470  12.031   5.357   3.694  0.0064 -3.7771  0.2922
  721MOL0     H99471  11.934   5.245   3.599 -0.9479 -0.7053  2.6639
  721MOL0     H99472  11.990   5.526   3.526 -1.1313  2.9403  3.0233
  721MOL0     H99473  11.825   5.527   3.577  0.5535  0.9359 -1.4831
  721MOL0     H99474  11.799   5.315   3.414 -0.8358  0.4275 -0.9569
  721MOL0     H99475  11.941   5.388   3.346 -0.4733 -3.5135 -0.0634
  721MOL0     H99476  11.848   5.597   3.337 -2.7000  2.2173  1.6672
  721MOL0     H99477  11.688   5.552   3.388  1.6774  0.9399  2.1694
  721MOL0     H99478  11.245   5.113   3.595 -1.0924  0.2342 -0.9133
  721MOL0     H99479  11.007   5.129   3.568  0.8076 -0.0980  0.0427
  721MOL0     H99480  10.660   5.183   3.663 -0.6737  0.0992  0.1468
  721MOL0     H99481  10.432   5.101   3.613 -4.0745  2.3194 -1.5137
  721MOL0     H99482  11.103   4.263   2.422  1.3577  0.5920 -0.4086
  721MOL0     H99483  11.293   4.146   2.379  0.2070 -0.2232 -0.1871
  721MOL0     H99484  11.511   3.723   2.421  1.1320  0.5337  0.7620
  721MOL0     H99485  11.692   3.568   2.383  0.5176 -3.8770 -3.3738
  721MOL0     H99486  11.901   3.568   1.959 -3.6455 -1.0751  0.3964
  721MOL0     H99487  11.955   3.672   2.099 -2.7194  1.8124 -0.0509
  721MOL0     H99488  12.104   3.496   2.016  0.2224  0.1787  1.7462
  721MOL0     H99489  11.998   3.375   2.061  2.0859  1.0633 -1.6574
  721MOL0     H99490  12.123   3.589   2.250 -2.5184 -0.1963  1.4330
  721MOL0     H99491  12.028   3.459   2.304 -0.5159  2.4197  1.2520
  721MOL0     H99492  12.201   3.289   2.229  0.0961  0.6987 -2.4172
  721MOL0     H99493  12.272   3.412   2.347  0.3269  0.1360  0.5903
  721MOL0     H99494  12.522   3.487   2.047 -0.7582  1.9569 -1.5018
  721MOL0     H99495  11.715   3.718   1.966  2.2403 -0.7525  0.3734
  721MOL0     H99496  11.413   3.866   1.953  0.2350 -0.5778  0.1270
  721MOL0     H99497  11.524   3.993   2.006 -2.2663  0.5193 -0.2394
  721MOL0     H99498  11.573   3.877   1.885  0.2336  2.3422 -0.2505
  722MOL0     O99499   3.035   4.779   4.630 -0.1735 -0.3123  0.4585
  722MOL0     C99500   3.076   4.752   4.745 -0.2453 -0.1853 -0.0017
  722MOL0     O99501   3.213   4.784   4.779  0.2134  0.0898 -0.6139
  722MOL0     C99502   3.274   4.895   4.732  0.3488 -0.2938  0.6748
  722MOL0     C99503   3.412   4.902   4.718  0.9249  0.0515 -0.8722
  722MOL0     C99504   3.475   5.016   4.671  1.4202 -0.7258 -0.3110
  722MOL0     C99505   3.410   5.143   4.650  0.1177  0.7208  0.1804
  722MOL0     O99506   3.458   5.266   4.600  0.2707  0.1756 -0.7327
  722MOL0     C99507   3.587   5.245   4.539  0.1654  0.7933 -0.6174
  722MOL0     C99508   3.623   5.367   4.454 -0.3784  0.9223  0.3416
  722MOL0     C99509   3.614   5.502   4.521  0.4327  0.1466 -0.1317
  722MOL0     C99510   3.694   5.499   4.652 -0.0045 -0.5246  0.0658
  722MOL0     C99511   3.686   5.632   4.731 -0.1181 -1.3088  0.4228
  722MOL0     C99512   3.548   5.698   4.756 -0.2422 -0.9737 -0.0115
  722MOL0     C99513   3.456   5.598   4.819  0.8910  0.5556  0.1727
  722MOL0     C99514   3.487   5.587   4.965  0.2737 -0.6942  1.0899
  722MOL0     N99515   3.390   5.500   5.034  0.6717  0.0664  0.6370
  722MOL0     C99516   3.403   5.363   5.011  0.5833 -1.1978 -0.2979
  722MOL0     C99517   3.321   5.299   5.093 -0.7276  1.3810  0.6739
  722MOL0     C99518   3.297   5.155   5.118 -0.4185 -1.0081  0.3872
  722MOL0     C99519   3.157   5.120   5.057 -0.9532 -0.0371  0.6810
  722MOL0     C99520   3.141   4.964   5.069 -0.1523 -0.2344  0.1731
  722MOL0     C99521   3.088   4.936   5.196 -0.0392 -0.2164  0.0965
  722MOL0     O99522   3.064   4.795   5.204 -0.8511  0.1669 -0.7180
  722MOL0     C99523   2.992   4.752   5.312 -0.1426  0.6468 -0.3564
  722MOL0     C99524   3.040   4.634   5.383 -0.2288  0.7323  0.7718
  722MOL0     C99525   2.971   4.579   5.497 -0.1489 -0.0285 -0.1353
  722MOL0     C99526   3.031   4.457   5.552  0.3012  0.0118  0.9393
  722MOL0     C99527   2.857   4.645   5.551  0.4848 -0.4271 -0.4547
  722MOL0     C99528   2.765   4.615   5.665  0.0989  0.7791  0.2102
  722MOL0     O99529   2.688   4.713   5.723 -0.0508 -0.0803 -0.0868
  722MOL0     C99530   2.646   4.685   5.850 -0.1863 -0.5837  0.0869
  722MOL0     C99531   2.538   4.604   5.868  0.2539 -0.1136  0.0702
  722MOL0     C99532   2.484   4.580   5.996  0.3471  0.2259 -0.1132
  722MOL0     C99533   2.549   4.620   6.114 -1.5747 -0.4489 -0.6989
  722MOL0     O99534   2.494   4.596   6.241  0.1094  0.3363 -0.1393
  722MOL0     C99535   2.545   4.642   6.370  0.2417  0.0469 -0.0029
  722MOL0     C99536   2.454   4.742   6.428 -0.1486 -0.9944  0.1973
  722MOL0     C99537   2.476   4.787   6.580  0.1885  0.2435  0.1076
  722MOL0     C99538   2.422   4.923   6.615  0.3551 -0.0087 -0.4637
  722MOL0     C99539   2.468   4.978   6.757  0.6402  0.3025  0.6480
  722MOL0     C99540   2.381   5.103   6.789  0.1852  0.0514  0.0847
  722MOL0     C99541   2.433   5.171   6.926 -0.3771 -0.3878  0.1529
  722MOL0     C99542   2.336   5.282   6.976  0.2130 -0.8911  0.2368
  722MOL0    Cl99543   2.337   5.406   6.844  0.4284  0.3696 -0.3071
  722MOL0     C99544   2.660   4.705   6.095 -0.3960  0.5702 -0.4797
  722MOL0     C99545   2.707   4.741   5.967  0.1314 -0.3905  0.2135
  722MOL0     O99546   2.766   4.496   5.696  0.2105 -0.5764 -0.7239
  722MOL0     C99547   2.824   4.767   5.485  0.9808  0.0169 -0.1165
  722MOL0     C99548   2.886   4.825   5.372  0.4220 -0.4974 -0.0189
  722MOL0     N99549   3.264   5.390   5.176  0.6122 -1.1178  0.7099
  722MOL0     N99550   3.311   5.507   5.149 -0.9981  0.2027  0.2191
  722MOL0     C99551   3.277   5.131   4.652  0.3994  0.1840 -0.3053
  722MOL0     C99552   3.201   5.015   4.685 -0.3709  0.1350  0.6339
  722MOL0     C99553   2.974   4.681   4.828 -0.2725  0.3053 -0.2377
  722MOL0     C99554   2.834   4.698   4.808 -0.4712 -0.8570 -0.3973
  722MOL0     C99555   2.732   4.648   4.891 -0.0480  0.0016 -0.0803
  722MOL0     C99556   2.770   4.571   5.005  0.0434 -0.1927  0.2938
  722MOL0     O99557   2.676   4.503   5.076 -0.9924  0.1657  0.3655
  722MOL0     C99558   2.635   4.565   5.195  0.3254 -0.1824 -0.3652
  722MOL0     C99559   2.595   4.449   5.292  0.2544 -0.5442  0.6475
  722MOL0     C99560   2.720   4.366   5.305 -0.2997  0.5667 -0.3178
  722MOL0     C99561   2.714   4.276   5.426  0.1356 -0.0996  0.1256
  722MOL0     C99562   2.591   4.191   5.439  0.0609  0.1506 -0.4739
  722MOL0     C99563   2.490   4.129   5.443 -0.1670  0.9591  0.7211
  722MOL0     C99564   2.908   4.546   5.025  0.0027 -0.1140  0.3406
  722MOL0     C99565   3.010   4.607   4.948 -0.2128  0.5560 -0.0092
  722MOL0     C99566   3.152   4.585   4.987 -0.9240  0.0710 -0.1520
  722MOL0     H99567   3.474   4.817   4.744 -1.4809 -1.1666  1.3483
  722MOL0     H99568   3.581   5.017   4.649  1.5936  3.0401  0.0623
  722MOL0     H99569   3.574   5.157   4.475 -1.1856 -0.4915  1.3318
  722MOL0     H99570   3.674   5.207   4.594  2.9952  3.4200 -2.9176
  722MOL0     H99571   3.717   5.344   4.404 -1.2146 -1.4637 -0.2996
  722MOL0     H99572   3.541   5.384   4.383 -1.9414  0.6831  2.0057
  722MOL0     H99573   3.652   5.576   4.451  3.4697 -0.2783  0.9169
  722MOL0     H99574   3.507   5.524   4.530  0.7377  1.8792 -0.4479
  722MOL0     H99575   3.664   5.415   4.716  2.1605 -1.7298 -0.4081
  722MOL0     H99576   3.799   5.477   4.629 -1.3750 -3.8781 -4.1972
  722MOL0     H99577   3.758   5.705   4.694  0.0557 -0.7659  1.7734
  722MOL0     H99578   3.723   5.609   4.831 -2.2157 -0.4883  1.4510
  722MOL0     H99579   3.562   5.788   4.816 -1.2245 -0.1961 -0.9022
  722MOL0     H99580   3.516   5.730   4.656  4.5067  2.1039 -0.8692
  722MOL0     H99581   3.462   5.502   4.767  0.1781 -0.4711  1.8862
  722MOL0     H99582   3.352   5.628   4.809  1.2484  1.3459 -1.3598
  722MOL0     H99583   3.588   5.547   4.973  0.7137 -0.2816 -1.5281
  722MOL0     H99584   3.464   5.684   5.011 -1.0603 -0.8095  0.7159
  722MOL0     H99585   3.480   5.318   4.949  3.5411 -0.3160  2.4214
  722MOL0     H99586   3.298   5.134   5.226 -2.8034  3.0236  1.4029
  722MOL0     H99587   3.376   5.097   5.069 -1.0465 -1.5873  0.0525
  722MOL0     H99588   3.076   5.177   5.103 -1.6343  0.1988 -0.7367
  722MOL0     H99589   3.173   5.154   4.954 -0.0254  1.4456  1.2697
  722MOL0     H99590   3.067   4.943   4.991 -1.1903  5.2935 -0.7079
  722MOL0     H99591   3.230   4.912   5.033  0.6981  2.8499 -2.6721
  722MOL0     H99592   3.152   4.959   5.281  0.7261 -0.3552 -0.4326
  722MOL0     H99593   2.989   4.981   5.210  0.2129 -0.1700  1.9204
  722MOL0     H99594   3.124   4.585   5.334 -1.0808 -1.7517  1.6647
  722MOL0     H99595   2.958   4.376   5.537 -3.1778  3.1832 -0.8984
  722MOL0     H99596   3.038   4.459   5.661  2.3235 -1.8004  0.9202
  722MOL0     H99597   3.130   4.429   5.515  0.8784 -0.4370  2.7025
  722MOL0     H99598   2.491   4.567   5.777 -0.7109  1.5121 -0.1503
  722MOL0     H99599   2.388   4.530   5.995 -1.7830  3.8612 -2.8781
  722MOL0     H99600   2.547   4.560   6.443 -1.0572  1.5960  1.8653
  722MOL0     H99601   2.648   4.679   6.370 -0.1917  1.3724 -1.6818
  722MOL0     H99602   2.445   4.829   6.363 -0.8799 -0.7821  0.5766
  722MOL0     H99603   2.349   4.713   6.429 -1.2660  2.5940 -0.1893
  722MOL0     H99604   2.584   4.796   6.592  0.3544  0.0826 -1.2006
  722MOL0     H99605   2.434   4.712   6.648  3.1653 -0.4901  1.2847
  722MOL0     H99606   2.314   4.927   6.603  0.0056 -2.8863  0.8893
  722MOL0     H99607   2.446   4.997   6.538 -2.9782  1.3078 -0.3756
  722MOL0     H99608   2.458   4.908   6.840 -0.9495 -0.4832 -0.1572
  722MOL0     H99609   2.574   5.004   6.760  0.3229  2.2531 -1.7405
  722MOL0     H99610   2.272   5.106   6.779  0.2880  1.1673 -0.9847
  722MOL0     H99611   2.410   5.170   6.708  0.4493 -2.0151 -1.6276
  722MOL0     H99612   2.532   5.218   6.918  0.3431 -2.0223 -1.3774
  722MOL0     H99613   2.439   5.095   7.004 -1.1554 -1.3650 -0.7027
  722MOL0     H99614   2.372   5.335   7.064  0.3302 -0.2235 -0.2037
  722MOL0     H99615   2.234   5.247   6.995  0.1901 -1.2965 -0.5676
  722MOL0     H99616   2.702   4.745   6.186  1.3562 -1.9756 -0.0888
  722MOL0     H99617   2.791   4.809   5.966  0.3687 -0.6263 -2.3373
  722MOL0     H99618   2.741   4.828   5.518 -0.0081 -1.3383 -0.0399
  722MOL0     H99619   2.855   4.925   5.343  0.3644 -0.4792  0.1030
  722MOL0     H99620   3.222   5.212   4.604  0.0355 -0.2035 -0.5449
  722MOL0     H99621   3.093   5.026   4.681 -0.6555 -2.2433  0.4252
  722MOL0     H99622   2.810   4.752   4.717  0.1188 -1.1068 -0.7100
  722MOL0     H99623   2.628   4.662   4.863 -0.6459 -1.3826  1.3433
  722MOL0     H99624   2.707   4.629   5.248  0.6743 -3.0176  2.9460
  722MOL0     H99625   2.543   4.623   5.190  0.6801  1.0024  3.6533
  722MOL0     H99626   2.508   4.393   5.258  0.3394  0.1415 -0.7841
  722MOL0     H99627   2.561   4.484   5.390  2.7995  0.4958  1.2504
  722MOL0     H99628   2.737   4.306   5.216  1.4785  0.5696 -0.0235
  722MOL0     H99629   2.814   4.421   5.313 -0.5002  0.7723  0.7661
  722MOL0     H99630   2.702   4.348   5.507  0.1074 -1.6089  1.4970
  722MOL0     H99631   2.802   4.212   5.422 -0.3262 -0.7787 -4.0809
  722MOL0     H99632   2.414   4.054   5.456  2.3332 -1.2957  4.0253
  722MOL0     H99633   2.929   4.488   5.114  0.2702  0.5928  0.7437
  722MOL0     H99634   3.194   4.686   4.991 -2.8155  0.9535 -0.8899
  722MOL0     H99635   3.162   4.522   5.075  0.1215  0.7359  0.2288
  722MOL0     H99636   3.205   4.530   4.909  2.7962  1.9587  0.8053
  723MOL0     O99637   1.827   5.754   7.368  0.3235 -0.0073  0.3050
  723MOL0     C99638   1.771   5.825   7.446 -0.2425 -0.1364  0.2081
  723MOL0     O99639   1.676   5.924   7.415  1.0473  0.5426  0.9288
  723MOL0     C99640   1.683   5.985   7.295  0.4706  0.2469 -0.1572
  723MOL0     C99641   1.804   6.020   7.240 -0.5398 -0.6147  0.5328
  723MOL0     C99642   1.811   6.097   7.116  0.3662  1.0620 -0.4741
  723MOL0     C99643   1.700   6.136   7.050 -0.2531  0.5484  0.6281
  723MOL0     O99644   1.716   6.229   6.948 -0.5771  0.1945  0.3777
  723MOL0     C99645   1.682   6.199   6.820 -0.0654  0.2544  0.7298
  723MOL0     C99646   1.756   6.070   6.777 -0.6141 -0.1693  0.1841
  723MOL0     C99647   1.908   6.087   6.797 -0.0442  0.0432 -0.2995
  723MOL0     C99648   1.979   6.017   6.672 -0.0428 -0.2771 -0.0956
  723MOL0     C99649   2.125   5.986   6.711  1.2168 -0.2143 -0.0643
  723MOL0     C99650   2.201   5.916   6.609  0.5227  0.2884  0.0978
  723MOL0     C99651   2.160   5.770   6.573 -0.0037 -0.0583  0.0778
  723MOL0     C99652   2.230   5.706   6.453 -0.0283  0.0741  0.0111
  723MOL0     N99653   2.192   5.787   6.339 -0.7393  0.5875  0.1666
  723MOL0     C99654   2.064   5.804   6.290 -0.7468 -0.5226  0.8110
  723MOL0     C99655   2.073   5.899   6.196  0.3964 -0.3785  0.2217
  723MOL0     C99656   1.962   5.952   6.108  0.1799 -0.1556 -0.1988
  723MOL0     C99657   1.870   5.843   6.056 -0.3672 -0.3234  0.3757
  723MOL0     C99658   1.770   5.904   5.962 -0.2010  0.1333  0.9907
  723MOL0     C99659   1.701   5.791   5.890  0.4383 -0.0799 -0.8450
  723MOL0     O99660   1.795   5.725   5.795 -0.0353 -1.2684  0.3245
  723MOL0     C99661   1.807   5.594   5.772  0.3553  0.1904 -1.0940
  723MOL0     C99662   1.772   5.487   5.858  0.3567 -0.4076  0.0766
  723MOL0     C99663   1.785   5.351   5.835  0.6750  0.3485  0.5982
  723MOL0     C99664   1.741   5.257   5.935  0.9066  0.3519 -0.8572
  723MOL0     C99665   1.852   5.320   5.715 -0.6422 -0.5857  0.5954
  723MOL0     C99666   1.898   5.186   5.655 -0.1762  0.9555 -0.9453
  723MOL0     O99667   1.865   5.079   5.723 -0.6256  0.3009  0.2019
  723MOL0     C99668   1.925   4.963   5.698 -0.1929  0.2428 -0.6587
  723MOL0     C99669   2.050   4.921   5.757 -0.0429 -0.6254  0.1900
  723MOL0     C99670   2.101   4.788   5.735 -0.1891 -1.1178 -0.4717
  723MOL0     C99671   2.042   4.707   5.642 -0.3809 -0.7454 -0.9836
  723MOL0     O99672   2.083   4.581   5.624  0.3799  0.4705  0.0953
  723MOL0     C99673   2.144   4.496   5.720 -0.2683 -0.6804 -0.4154
  723MOL0     C99674   2.157   4.355   5.661 -1.2178  0.5200 -0.6337
  723MOL0     C99675   2.208   4.266   5.780 -0.9720  0.3181  0.3129
  723MOL0     C99676   2.214   4.114   5.744  0.1167 -0.2348 -0.0280
  723MOL0     C99677   2.073   4.051   5.766 -0.0904 -0.6945 -0.4178
  723MOL0     C99678   2.060   3.909   5.725 -0.5422 -0.0744  0.1265
  723MOL0     C99679   2.177   3.828   5.781  0.2090  0.0402  0.1251
  723MOL0     C99680   2.192   3.674   5.741  0.8518  0.6494 -0.4544
  723MOL0    Cl99681   2.075   3.581   5.817  0.2024 -0.1924  0.2675
  723MOL0     C99682   1.922   4.758   5.581  0.2927  0.2991  0.0657
  723MOL0     C99683   1.869   4.880   5.610  0.4058  0.2836  0.3321
  723MOL0     O99684   1.990   5.188   5.570 -0.1933 -0.7611 -0.1036
  723MOL0     C99685   1.886   5.426   5.620 -0.3672 -0.0931 -0.8579
  723MOL0     C99686   1.872   5.562   5.653 -0.2597 -0.0275 -0.6923
  723MOL0     N99687   2.216   5.933   6.183 -0.2373 -0.2088  0.2844
  723MOL0     N99688   2.281   5.862   6.262  0.2674 -0.2451  0.3871
  723MOL0     C99689   1.578   6.100   7.105 -0.8881 -0.2126 -0.3414
  723MOL0     C99690   1.572   6.023   7.223 -0.8606  0.8507 -0.1572
  723MOL0     C99691   1.811   5.815   7.584  0.0837 -0.2252  0.2203
  723MOL0     C99692   1.804   5.941   7.654 -0.4126  0.2497  0.6437
  723MOL0     C99693   1.841   5.943   7.788 -0.5943  0.2526 -0.9637
  723MOL0     C99694   1.882   5.822   7.861  0.0962 -0.9104  0.9679
  723MOL0     O99695   1.906   5.813   7.992  0.3471 -0.1158 -0.3556
  723MOL0     C99696   1.856   5.911   8.085  0.1420 -0.2868 -0.9310
  723MOL0     C99697   1.702   5.941   8.093  0.3336  0.5286  0.3297
  723MOL0     C99698   1.622   5.822   8.134 -0.8560 -0.9026  0.9280
  723MOL0     C99699   1.593   5.841   8.280 -0.7164  0.7573  0.3370
  723MOL0     C99700   1.702   5.785   8.370  0.1827  0.6134  0.0628
  723MOL0     C99701   1.776   5.715   8.437 -1.1890  1.3151 -0.3388
  723MOL0     C99702   1.875   5.703   7.791  0.1845 -0.6122 -0.3489
  723MOL0     C99703   1.836   5.693   7.653  0.6196  0.9366 -0.2371
  723MOL0     C99704   1.824   5.554   7.590 -0.2604 -0.8978 -0.8359
  723MOL0     H99705   1.897   6.013   7.296  1.3275  0.9697 -2.1124
  723MOL0     H99706   1.913   6.131   7.100 -0.3426  2.7910 -1.5616
  723MOL0     H99707   1.705   6.286   6.759 -0.9506 -1.2339 -1.8669
  723MOL0     H99708   1.574   6.188   6.812 -0.4581  1.8034  2.8885
  723MOL0     H99709   1.721   5.974   6.815  0.9022 -1.4102 -1.3923
  723MOL0     H99710   1.742   6.051   6.670 -2.1141 -0.8508  0.4740
  723MOL0     H99711   1.932   6.193   6.811  1.4717 -0.1888 -0.9279
  723MOL0     H99712   1.937   6.040   6.892  4.5044  3.8316  0.5511
  723MOL0     H99713   1.922   5.925   6.653 -0.4020 -0.3742  1.3479
  723MOL0     H99714   1.956   6.071   6.580 -2.7471 -1.7189 -0.3780
  723MOL0     H99715   2.128   5.934   6.807  2.6939 -0.7819 -0.3765
  723MOL0     H99716   2.163   6.088   6.724  1.8307 -0.3402 -0.7973
  723MOL0     H99717   2.209   5.974   6.516  2.6363 -0.4593 -0.2349
  723MOL0     H99718   2.307   5.916   6.636  0.4971  5.8805  1.5267
  723MOL0     H99719   2.052   5.754   6.557 -0.1352  0.1110  0.7770
  723MOL0     H99720   2.179   5.713   6.664  1.0276 -0.7458 -0.5617
  723MOL0     H99721   2.336   5.686   6.466 -0.4058 -1.6655  0.7654
  723MOL0     H99722   2.175   5.611   6.446 -1.1033  0.3429  3.1613
  723MOL0     H99723   1.986   5.736   6.324  0.9751 -2.4356  1.1494
  723MOL0     H99724   2.006   6.001   6.021 -0.4764 -0.5678 -0.7817
  723MOL0     H99725   1.897   6.025   6.156 -1.3855 -2.2943  1.1314
  723MOL0     H99726   1.936   5.772   6.004 -0.0369 -0.4880  1.0104
  723MOL0     H99727   1.815   5.792   6.135  0.6928 -0.4807  1.0389
  723MOL0     H99728   1.691   5.962   6.010  1.3769 -0.6012  4.8246
  723MOL0     H99729   1.835   5.956   5.890  0.3324  0.4230  1.6719
  723MOL0     H99730   1.657   5.715   5.956 -0.1104  0.3038 -0.7605
  723MOL0     H99731   1.607   5.818   5.840 -0.8371 -0.8769  1.0119
  723MOL0     H99732   1.722   5.512   5.952 -1.3336 -0.5054 -0.7582
  723MOL0     H99733   1.766   5.298   6.033  1.0341  2.5494 -1.7486
  723MOL0     H99734   1.792   5.161   5.931 -0.6597 -0.5295 -0.3554
  723MOL0     H99735   1.635   5.232   5.932  0.5614  0.8225  2.9811
  723MOL0     H99736   2.108   4.998   5.807  1.4373 -2.9840  2.3228
  723MOL0     H99737   2.184   4.744   5.789 -1.2784 -1.6499  0.8172
  723MOL0     H99738   2.233   4.541   5.765 -0.9137 -0.7109  0.9556
  723MOL0     H99739   2.075   4.491   5.805  2.6563 -2.6843  2.0529
  723MOL0     H99740   2.065   4.311   5.622 -1.2458  2.1506 -2.5543
  723MOL0     H99741   2.224   4.360   5.576 -3.3412  1.0783 -2.3765
  723MOL0     H99742   2.157   4.279   5.875 -0.3554 -1.1107  0.8553
  723MOL0     H99743   2.310   4.297   5.804 -1.0890  0.2218  0.9479
  723MOL0     H99744   2.294   4.076   5.807 -0.0567 -0.3101  0.1484
  723MOL0     H99745   2.239   4.114   5.638  0.9779 -1.0859  0.1668
  723MOL0     H99746   2.057   4.068   5.873  3.1308  2.6385 -0.2654
  723MOL0     H99747   2.006   4.117   5.710  1.1258  0.5876 -0.3992
  723MOL0     H99748   2.054   3.895   5.617 -1.0189 -1.5392  0.3208
  723MOL0     H99749   1.969   3.866   5.768 -0.7406 -1.7361 -1.8337
  723MOL0     H99750   2.184   3.823   5.890  3.6055 -0.3276  0.0040
  723MOL0     H99751   2.264   3.886   5.748 -1.4524  2.6444  0.0746
  723MOL0     H99752   2.288   3.639   5.778 -0.7336 -2.0356  1.4873
  723MOL0     H99753   2.191   3.649   5.634 -2.2901  1.1029 -0.6423
  723MOL0     H99754   1.883   4.700   5.498 -0.9787 -1.8401  2.0126
  723MOL0     H99755   1.782   4.911   5.552 -0.1245 -0.2701  0.8212
  723MOL0     H99756   1.897   5.413   5.512 -4.4765  2.0690 -1.7246
  723MOL0     H99757   1.891   5.642   5.581 -0.3668 -0.0766 -0.7745
  723MOL0     H99758   1.495   6.117   7.038  0.6207 -0.4907 -2.3471
  723MOL0     H99759   1.473   6.012   7.267 -0.2726 -2.1280  0.6185
  723MOL0     H99760   1.767   6.031   7.606  1.4634  0.6308 -0.1620
  723MOL0     H99761   1.829   6.037   7.840 -1.6723  0.6626 -1.9019
  723MOL0     H99762   1.884   5.885   8.187 -1.7382  2.6717  0.4817
  723MOL0     H99763   1.905   6.008   8.069  0.9706 -0.3244  1.0676
  723MOL0     H99764   1.670   5.984   7.997 -0.1853  2.2338  1.2191
  723MOL0     H99765   1.682   6.024   8.162  1.4397  1.4248 -0.3700
  723MOL0     H99766   1.533   5.815   8.071  0.6805  1.3480 -1.6986
  723MOL0     H99767   1.675   5.729   8.109 -0.1426 -0.1842 -0.3523
  723MOL0     H99768   1.500   5.786   8.294 -0.4935  0.3039  0.0772
  723MOL0     H99769   1.570   5.943   8.314 -2.0533  1.0256 -1.2315
  723MOL0     H99770   1.828   5.659   8.513 -1.5418 -0.1905 -1.1816
  723MOL0     H99771   1.906   5.621   7.855  2.2268  0.0807 -0.3777
  723MOL0     H99772   1.898   5.485   7.631 -1.0110  0.2444  2.7347
  723MOL0     H99773   1.726   5.520   7.624 -1.1388  2.2979  0.1837
  723MOL0     H99774   1.822   5.541   7.481  1.2095 -1.7074 -0.7946
  724MOL0     O99775   6.286   8.753  10.069  0.8497 -0.7312 -0.2340
  724MOL0     C99776   6.171   8.798  10.054  0.2793  1.4567  0.8862
  724MOL0     O99777   6.072   8.730   9.993  0.4630 -0.1548  0.3267
  724MOL0     C99778   6.077   8.620   9.911  0.2625 -0.2801 -0.0735
  724MOL0     C99779   5.969   8.591   9.828 -0.3321 -0.2926  1.3828
  724MOL0     C99780   5.950   8.462   9.766 -0.1920 -0.2548  0.6041
  724MOL0     C99781   6.049   8.368   9.781 -0.0065 -0.2264  0.8997
  724MOL0     O99782   6.022   8.257   9.706  0.7947  0.0882  0.0101
  724MOL0     C99783   6.123   8.209   9.619  0.0164 -0.1317 -0.0708
  724MOL0     C99784   6.060   8.106   9.516  0.3064 -0.4623  0.7555
  724MOL0     C99785   6.154   8.022   9.411  0.3903  0.6164 -0.2334
  724MOL0     C99786   6.229   8.124   9.312  1.2995  0.9812 -0.5713
  724MOL0     C99787   6.304   8.056   9.198 -0.0545 -0.0978 -0.7736
  724MOL0     C99788   6.385   7.923   9.229  0.6626 -0.2195  0.5198
  724MOL0     C99789   6.500   7.947   9.322 -0.8507  0.1764  0.7448
  724MOL0     C99790   6.612   8.043   9.264  0.2755 -0.1216 -0.2140
  724MOL0     N99791   6.736   8.059   9.351  0.3078 -0.4053  1.1763
  724MOL0     C99792   6.785   7.971   9.446 -0.9423 -0.2826 -1.0655
  724MOL0     C99793   6.908   8.019   9.474 -0.7121  0.2303  0.4617
  724MOL0     C99794   7.008   7.937   9.552 -0.4659 -0.2438 -0.3422
  724MOL0     C99795   7.026   7.798   9.490 -1.2638  0.3122  0.1924
  724MOL0     C99796   7.135   7.724   9.575  0.9806  0.7301  0.1954
  724MOL0     C99797   7.272   7.795   9.582  0.2780 -0.2392 -0.1414
  724MOL0     O99798   7.337   7.831   9.465 -0.6833 -0.4238  0.3968
  724MOL0     C99799   7.469   7.844   9.468 -0.1298  0.4759  0.4511
  724MOL0     C99800   7.547   7.851   9.582  0.2602 -0.3047 -0.6470
  724MOL0     C99801   7.683   7.827   9.573 -0.4989 -1.0240 -0.3987
  724MOL0     C99802   7.761   7.817   9.698 -0.6228  0.5040  0.0628
  724MOL0     C99803   7.744   7.821   9.442 -0.7207  0.6011  0.7577
  724MOL0     C99804   7.884   7.789   9.401 -0.4836  0.4754  0.0342
  724MOL0     O99805   7.898   7.690   9.306  0.2484 -0.4026  0.1714
  724MOL0     C99806   8.028   7.656   9.287 -0.1616  0.5220 -0.1267
  724MOL0     C99807   8.094   7.575   9.380 -0.1919 -0.2286  0.2839
  724MOL0     C99808   8.229   7.536   9.367  0.2866 -1.3639 -0.4141
  724MOL0     C99809   8.300   7.574   9.251  0.7262 -0.2956  0.4138
  724MOL0     O99810   8.433   7.540   9.229  0.1528  0.3244  0.0165
  724MOL0     C99811   8.476   7.403   9.245  0.2939  0.5997  0.0168
  724MOL0     C99812   8.528   7.345   9.116 -0.3283  0.7794  0.4401
  724MOL0     C99813   8.626   7.439   9.046  0.3855 -0.3003  0.1248
  724MOL0     C99814   8.756   7.472   9.116  0.3489 -0.1019 -0.2053
  724MOL0     C99815   8.829   7.592   9.055 -0.1045 -0.7207 -0.2183
  724MOL0     C99816   8.967   7.602   9.117 -1.0130 -0.1085  0.0040
  724MOL0     C99817   9.044   7.732   9.096 -0.6628 -0.0898  0.4139
  724MOL0     C99818   9.151   7.729   8.975  0.2277 -0.4762 -0.1192
  724MOL0    Cl99819   9.075   7.739   8.820  0.2689 -0.3909  0.0760
  724MOL0     C99820   8.241   7.660   9.157  0.9003 -0.3404 -0.4194
  724MOL0     C99821   8.102   7.702   9.177 -0.3834 -0.7784  0.2085
  724MOL0     O99822   7.972   7.847   9.460 -0.3762  0.9727  0.1631
  724MOL0     C99823   7.662   7.853   9.331  0.7911  0.5185 -0.3243
  724MOL0     C99824   7.525   7.841   9.345  0.5986  0.0793 -0.4028
  724MOL0     N99825   6.941   8.127   9.399 -0.1422 -0.5114 -0.4745
  724MOL0     N99826   6.836   8.148   9.325 -0.7311 -0.5555 -0.4633
  724MOL0     C99827   6.168   8.401   9.852  0.5163 -0.2058  0.9864
  724MOL0     C99828   6.181   8.522   9.920  0.2876 -0.4298 -0.1472
  724MOL0     C99829   6.138   8.919  10.120 -0.7333 -1.4680 -0.7836
  724MOL0     C99830   5.995   8.952  10.114 -0.4383  0.3063 -0.0484
  724MOL0     C99831   5.953   9.075  10.164 -0.2738 -0.2401 -0.3087
  724MOL0     C99832   6.038   9.163  10.238  1.2030  0.7833  0.6157
  724MOL0     O99833   5.989   9.274  10.309 -0.5164  0.7996 -0.0021
  724MOL0     C99834   5.841   9.283  10.321  1.4845  0.7049 -1.0156
  724MOL0     C99835   5.769   9.361  10.210 -0.0677 -0.5187 -0.2022
  724MOL0     C99836   5.825   9.504  10.209  0.3193 -1.0941 -0.1273
  724MOL0     C99837   5.710   9.615  10.210  0.0234  0.6089  0.2120
  724MOL0     C99838   5.631   9.625  10.329  0.4659  0.1252 -0.4705
  724MOL0     C99839   5.563   9.635  10.428  0.0727 -0.4081  0.2322
  724MOL0     C99840   6.172   9.121  10.252  0.6998 -0.3841 -0.8346
  724MOL0     C99841   6.228   9.014  10.183 -1.2182 -0.3068 -0.1942
  724MOL0     C99842   6.384   9.007  10.176  1.4044 -0.9844 -0.3490
  724MOL0     H99843   5.885   8.660   9.831 -1.6273 -1.6076 -1.2818
  724MOL0     H99844   5.878   8.438   9.689  2.5241  2.3689 -3.0950
  724MOL0     H99845   6.194   8.164   9.688  0.6196  2.1478  0.9011
  724MOL0     H99846   6.169   8.294   9.567  0.6942 -0.7181 -0.4387
  724MOL0     H99847   6.019   8.027   9.579  1.5233 -0.9104  1.0197
  724MOL0     H99848   5.988   8.168   9.461  1.9358  2.5515  1.7791
  724MOL0     H99849   6.221   7.949   9.457 -1.3293 -0.6196  0.4070
  724MOL0     H99850   6.082   7.949   9.373 -0.4140 -0.2046  2.6033
  724MOL0     H99851   6.140   8.181   9.284 -1.6527 -1.1712  3.3911
  724MOL0     H99852   6.297   8.191   9.367  0.5990  0.5209  0.9233
  724MOL0     H99853   6.374   8.122   9.145 -0.6080  1.4353  0.3199
  724MOL0     H99854   6.231   8.015   9.127  2.1535 -2.3210 -1.9102
  724MOL0     H99855   6.315   7.850   9.271 -0.6496  1.0840  0.7011
  724MOL0     H99856   6.413   7.888   9.129 -3.4699 -0.2184 -0.8328
  724MOL0     H99857   6.534   7.844   9.337  0.6589  0.6182  0.5183
  724MOL0     H99858   6.464   7.984   9.418  2.5112  2.5434  1.2708
  724MOL0     H99859   6.640   7.987   9.174  2.4154  0.3297  0.1257
  724MOL0     H99860   6.584   8.143   9.230  0.2215 -0.5105 -1.3700
  724MOL0     H99861   6.739   7.880   9.485 -1.4100  0.2339 -0.3875
  724MOL0     H99862   6.969   7.914   9.651  1.9442 -0.8220  0.5390
  724MOL0     H99863   7.101   7.995   9.555 -0.6946  0.1612  3.6911
  724MOL0     H99864   6.934   7.741   9.497 -2.7456  2.7009  1.4678
  724MOL0     H99865   7.058   7.794   9.385 -0.8534 -1.9277  0.3543
  724MOL0     H99866   7.106   7.713   9.680 -0.7878  0.8272 -0.2455
  724MOL0     H99867   7.151   7.628   9.525 -0.6332  0.7588 -0.4278
  724MOL0     H99868   7.262   7.891   9.634 -4.1271 -0.3075 -0.4745
  724MOL0     H99869   7.336   7.732   9.644  0.0691  0.1502  0.4832
  724MOL0     H99870   7.498   7.857   9.679 -0.0378 -0.3907 -0.7924
  724MOL0     H99871   7.742   7.891   9.777  2.0813  1.6654 -0.2913
  724MOL0     H99872   7.869   7.826   9.692 -0.6781  2.5207  1.2270
  724MOL0     H99873   7.736   7.719   9.741  1.8398  0.1490  0.8577
  724MOL0     H99874   8.040   7.532   9.464  2.7377  1.2933  3.2101
  724MOL0     H99875   8.272   7.468   9.440 -0.2084 -0.3034  0.8933
  724MOL0     H99876   8.563   7.388   9.311  2.0174  1.8070 -1.8650
  724MOL0     H99877   8.392   7.343   9.282 -1.5406  2.4965 -0.9143
  724MOL0     H99878   8.589   7.255   9.128 -0.4604  1.0116  3.6543
  724MOL0     H99879   8.436   7.316   9.064 -0.9790  0.0541  1.9467
  724MOL0     H99880   8.576   7.533   9.021 -2.9134 -2.0838 -0.5640
  724MOL0     H99881   8.659   7.387   8.955 -1.4582 -1.5260  0.0991
  724MOL0     H99882   8.821   7.384   9.119  2.1782  1.2130  0.5788
  724MOL0     H99883   8.744   7.491   9.223  0.6282 -3.2529  0.4848
  724MOL0     H99884   8.829   7.577   8.947 -0.3700 -1.6072 -0.1038
  724MOL0     H99885   8.781   7.688   9.073  0.7939 -0.2317 -0.3737
  724MOL0     H99886   9.021   7.515   9.078 -0.0040  0.8730 -0.8736
  724MOL0     H99887   8.959   7.590   9.226 -3.6636 -3.8366 -0.4125
  724MOL0     H99888   9.105   7.743   9.186  2.1325 -1.9875 -1.1192
  724MOL0     H99889   8.980   7.819   9.077 -2.5994 -2.0987 -3.3354
  724MOL0     H99890   9.190   7.627   8.984 -1.3495 -1.3127 -2.0226
  724MOL0     H99891   9.232   7.802   8.983 -3.6210  4.1781  0.6113
  724MOL0     H99892   8.289   7.692   9.065  1.0435  0.2912 -0.1300
  724MOL0     H99893   8.051   7.753   9.096 -0.7667 -0.9340  0.3523
  724MOL0     H99894   7.699   7.847   9.229  1.7445 -3.5151  0.0575
  724MOL0     H99895   7.455   7.827   9.263  2.2846  2.5398 -2.4382
  724MOL0     H99896   6.254   8.335   9.853  0.6521 -0.0297  1.2684
  724MOL0     H99897   6.268   8.532   9.985 -0.8117 -4.2662  2.2219
  724MOL0     H99898   5.921   8.903  10.052  0.9386  1.6813 -2.9508
  724MOL0     H99899   5.851   9.102  10.138 -0.7421 -2.2839 -0.8039
  724MOL0     H99900   5.794   9.184  10.325  2.3773  0.1912 -2.5090
  724MOL0     H99901   5.818   9.328  10.418 -1.6407  0.0678 -1.3486
  724MOL0     H99902   5.660   9.357  10.218 -0.2389 -3.6215 -2.5009
  724MOL0     H99903   5.784   9.307  10.116  1.3640 -0.2572 -0.1507
  724MOL0     H99904   5.871   9.529  10.305 -3.0931 -0.6927  1.5559
  724MOL0     H99905   5.902   9.501  10.132  2.3437 -0.3559  1.7617
  724MOL0     H99906   5.642   9.597  10.126 -0.4382  2.5680  0.1214
  724MOL0     H99907   5.756   9.711  10.186 -0.9963  1.0154 -0.1833
  724MOL0     H99908   5.500   9.654  10.512 -1.7549  5.5136 -1.9755
  724MOL0     H99909   6.220   9.194  10.317  0.1783 -2.4726  2.0784
  724MOL0     H99910   6.434   9.090  10.229 -1.3393 -1.3640  3.1930
  724MOL0     H99911   6.412   8.910  10.216 -2.7811 -1.7037  1.3194
  724MOL0     H99912   6.404   9.020  10.069 -0.1426 -1.2278 -0.6852
  725MOL0     O99913   2.786   6.485   3.183 -0.0781  0.0271 -0.1503
  725MOL0     C99914   2.707   6.515   3.273 -0.3795  0.2697  0.1685
  725MOL0     O99915   2.584   6.466   3.293  0.5769 -0.2145  0.6036
  725MOL0     C99916   2.549   6.353   3.221 -0.6883  0.0014  0.9319
  725MOL0     C99917   2.532   6.229   3.285 -0.2620 -0.1242 -0.4812
  725MOL0     C99918   2.493   6.117   3.211 -0.5220 -0.7774  0.6797
  725MOL0     C99919   2.510   6.120   3.075  0.7548  1.4359 -0.4713
  725MOL0     O99920   2.510   5.999   3.011 -0.2798 -0.2350  0.2920
  725MOL0     C99921   2.576   5.984   2.886 -0.3974 -0.1571 -0.3481
  725MOL0     C99922   2.530   5.850   2.838  0.6589 -0.2499  0.6263
  725MOL0     C99923   2.374   5.844   2.801 -0.2366 -0.5925 -0.1121
  725MOL0     C99924   2.351   5.754   2.670 -0.1710  0.3694 -0.9124
  725MOL0     C99925   2.413   5.796   2.539 -0.4935 -0.1264  0.0339
  725MOL0     C99926   2.376   5.691   2.434 -0.0376  0.6158  0.1074
  725MOL0     C99927   2.384   5.747   2.301 -0.4867 -0.7276 -0.0791
  725MOL0     C99928   2.288   5.871   2.268 -0.2296  0.6203 -0.7368
  725MOL0     N99929   2.373   5.982   2.231 -0.4040 -0.5682 -0.5502
  725MOL0     C99930   2.327   6.070   2.134 -0.7768  0.5101  0.3356
  725MOL0     C99931   2.421   6.167   2.154 -0.1050 -0.4281  0.1635
  725MOL0     C99932   2.393   6.302   2.093  0.5540  0.0864 -0.8411
  725MOL0     C99933   2.383   6.419   2.198 -0.3350 -0.5453  0.9468
  725MOL0     C99934   2.369   6.548   2.115 -0.2361 -0.4292  0.1613
  725MOL0     C99935   2.359   6.669   2.207  0.7079  0.1883 -0.7732
  725MOL0     O99936   2.483   6.695   2.273 -0.1863 -0.3125 -0.3540
  725MOL0     C99937   2.477   6.780   2.381  1.5143  0.3739  0.5326
  725MOL0     C99938   2.368   6.804   2.471 -0.2029  0.8036 -0.3605
  725MOL0     C99939   2.390   6.876   2.588 -0.4998 -0.4357 -0.9371
  725MOL0     C99940   2.277   6.918   2.684 -0.6626 -1.2219 -0.0130
  725MOL0     C99941   2.524   6.908   2.622 -0.0317  0.3428  0.5734
  725MOL0     C99942   2.567   6.958   2.758 -0.4911 -0.7199 -0.4340
  725MOL0     O99943   2.705   6.943   2.784  0.3166  0.2649  0.0934
  725MOL0     C99944   2.767   7.004   2.889  0.2034 -0.3754 -0.8815
  725MOL0     C99945   2.744   7.134   2.942 -0.5103 -0.1222  0.9176
  725MOL0     C99946   2.822   7.180   3.050 -0.2838  0.0142 -0.8027
  725MOL0     C99947   2.934   7.118   3.102 -1.1229  1.0017 -0.5012
  725MOL0     O99948   3.020   7.171   3.203  0.9457 -0.0902 -0.4116
  725MOL0     C99949   3.023   7.086   3.314 -0.0646 -0.6241  0.7930
  725MOL0     C99950   3.119   7.133   3.423 -1.0379  0.7055  0.3676
  725MOL0     C99951   3.260   7.123   3.385 -1.1314  0.3065 -0.0124
  725MOL0     C99952   3.345   7.140   3.518  0.0967  1.8591 -0.1281
  725MOL0     C99953   3.473   7.061   3.520 -0.3116  0.3224  0.1144
  725MOL0     C99954   3.592   7.135   3.451 -0.4860 -0.3686 -0.0173
  725MOL0     C99955   3.714   7.061   3.485 -0.0888 -0.0143 -0.3002
  725MOL0     C99956   3.823   7.159   3.519  0.2272  0.1286 -0.0003
  725MOL0    Cl99957   3.983   7.064   3.519  0.0890 -0.0359  0.2234
  725MOL0     C99958   2.960   6.996   3.038 -0.1734  0.8468 -0.3387
  725MOL0     C99959   2.886   6.942   2.932 -0.7488 -0.3063  0.3087
  725MOL0     O99960   2.492   7.029   2.826 -0.7290  0.9025  0.0586
  725MOL0     C99961   2.627   6.896   2.520  0.2416 -0.6212  0.4343
  725MOL0     C99962   2.598   6.835   2.401  0.1828 -0.4739 -0.1117
  725MOL0     N99963   2.523   6.131   2.242 -0.4596  0.1409  0.9387
  725MOL0     N99964   2.488   6.019   2.299 -0.4581 -0.1951 -0.7997
  725MOL0     C99965   2.518   6.237   3.005 -0.4783  0.3373 -0.6384
  725MOL0     C99966   2.544   6.354   3.080  0.2387 -0.4890 -0.2398
  725MOL0     C99967   2.756   6.629   3.357 -0.2260 -0.3134  0.2609
  725MOL0     C99968   2.669   6.677   3.452  0.0410 -0.0187  0.4688
  725MOL0     C99969   2.698   6.789   3.527 -0.0421 -1.2743 -0.4268
  725MOL0     C99970   2.829   6.824   3.549 -0.1515  0.2091 -0.3251
  725MOL0     O99971   2.859   6.919   3.651 -0.5715  0.0530 -0.7624
  725MOL0     C99972   2.766   6.935   3.755  0.2652  0.1639 -0.4029
  725MOL0     C99973   2.834   6.978   3.880 -0.0985  0.3972 -0.0369
  725MOL0     C99974   2.753   6.957   4.011  0.1161 -0.3113 -0.4325
  725MOL0     C99975   2.796   7.031   4.132 -0.6630  0.2892  1.2483
  725MOL0     C99976   2.714   7.013   4.244  0.3059  0.3773  0.0095
  725MOL0     C99977   2.620   7.012   4.328  0.1454 -0.3730 -0.0922
  725MOL0     C99978   2.928   6.760   3.479 -0.9568  0.3609  0.1178
  725MOL0     C99979   2.890   6.681   3.373 -0.2291  0.3440  0.5165
  725MOL0     C99980   3.005   6.637   3.282  0.1738  0.3297  0.0982
  725MOL0     H99981   2.531   6.233   3.394 -2.5498  2.2718 -0.4982
  725MOL0     H99982   2.477   6.021   3.261 -0.2115  0.4666  3.3216
  725MOL0     H99983   2.683   5.968   2.906 -0.2914 -0.2999 -0.9949
  725MOL0     H99984   2.560   6.064   2.812 -1.1430  0.9498  0.9653
  725MOL0     H99985   2.590   5.819   2.752 -3.6567 -0.5695 -2.6010
  725MOL0     H99986   2.538   5.779   2.921 -2.3117 -1.9809 -0.4137
  725MOL0     H99987   2.317   5.810   2.888  1.9255  2.2102  2.6179
  725MOL0     H99988   2.357   5.950   2.783  1.4143  0.0534  1.7152
  725MOL0     H99989   2.389   5.655   2.697 -1.5263 -0.9452 -3.4999
  725MOL0     H99990   2.243   5.747   2.653 -0.5693  2.3059  0.4665
  725MOL0     H99991   2.521   5.798   2.557 -0.3819 -0.2383 -0.6029
  725MOL0     H99992   2.381   5.895   2.504  0.2850 -0.2011 -0.9281
  725MOL0     H99993   2.454   5.616   2.451  0.6454  1.6082  1.5531
  725MOL0     H99994   2.273   5.660   2.451 -0.2498  2.0375  1.6976
  725MOL0     H99995   2.359   5.670   2.228  2.0339 -1.4598 -0.2713
  725MOL0     H99996   2.489   5.779   2.291 -0.8961  0.7159  0.0268
  725MOL0     H99997   2.224   5.846   2.183  2.5966 -0.6586 -2.6177
  725MOL0     H99998   2.212   5.895   2.344  0.8621 -2.1257  1.3637
  725MOL0     H99999   2.229   6.084   2.088 -1.4522 -0.7615  1.3235
  725MOL0     H    0   2.299   6.309   2.038  1.7383 -0.2376 -3.0274
  725MOL0     H    1   2.461   6.315   2.008 -0.7423 -0.8199 -2.0637
  725MOL0     H    2   2.302   6.408   2.271  0.1349 -2.1215  1.2534
  725MOL0     H    3   2.475   6.408   2.256 -0.9290 -2.9005  1.5453
  725MOL0     H    4   2.462   6.569   2.063  0.3011  0.4344  1.4284
  725MOL0     H    5   2.283   6.537   2.048 -0.0712 -1.2963  0.0755
  725MOL0     H    6   2.340   6.762   2.151  0.3398 -0.4918 -1.8027
  725MOL0     H    7   2.276   6.643   2.273 -1.0382 -1.8388 -3.5808
  725MOL0     H    8   2.268   6.769   2.444  0.0371  0.0677 -0.3362
  725MOL0     H    9   2.188   6.868   2.645 -0.3461 -2.4122  0.7530
  725MOL0     H   10   2.254   7.025   2.680  3.6875 -0.0788 -3.8992
  725MOL0     H   11   2.308   6.884   2.783  1.1894  2.0076  0.6544
  725MOL0     H   12   2.652   7.181   2.910 -1.3805 -3.0075 -1.2134
  725MOL0     H   13   2.794   7.271   3.103 -1.5034 -0.8250  0.0451
  725MOL0     H   14   2.923   7.080   3.357 -0.0531  0.6610  1.0352
  725MOL0     H   15   3.051   6.984   3.287  0.7312 -0.7985  2.2043
  725MOL0     H   16   3.106   7.233   3.465  0.0974  0.6238  0.9770
  725MOL0     H   17   3.100   7.063   3.505  3.5062 -1.3866 -0.0578
  725MOL0     H   18   3.285   7.190   3.302  1.0486 -4.8513 -4.1206
  725MOL0     H   19   3.279   7.021   3.352  1.2666 -0.2099  2.5496
  725MOL0     H   20   3.289   7.097   3.602  0.3957 -2.5895 -1.9414
  725MOL0     H   21   3.354   7.245   3.550  0.6971  1.8592 -0.2977
  725MOL0     H   22   3.489   7.036   3.626 -3.3986 -1.2108  0.3417
  725MOL0     H   23   3.462   6.967   3.466  1.3121  1.3714 -2.2005
  725MOL0     H   24   3.590   7.242   3.471 -0.9756 -0.8488  2.9060
  725MOL0     H   25   3.587   7.127   3.342  2.5365 -1.9993 -0.1490
  725MOL0     H   26   3.740   6.999   3.399 -0.6162  1.9287 -1.9193
  725MOL0     H   27   3.688   6.994   3.568 -0.6365 -0.4759 -0.8408
  725MOL0     H   28   3.815   7.211   3.615  0.4977  0.2141 -0.0247
  725MOL0     H   29   3.827   7.242   3.448  2.1156  1.7123  1.8282
  725MOL0     H   30   3.040   6.932   3.074 -0.2847  0.6704 -0.4014
  725MOL0     H   31   2.906   6.843   2.893  1.2667  0.0338  0.3422
  725MOL0     H   32   2.728   6.932   2.538 -0.6785  1.2716  2.3608
  725MOL0     H   33   2.667   6.819   2.319 -3.2792 -2.2572 -2.9976
  725MOL0     H   34   2.538   6.250   2.899  3.7888  1.6541  0.1330
  725MOL0     H   35   2.558   6.452   3.034 -1.2223  0.9615  2.1698
  725MOL0     H   36   2.565   6.653   3.433  1.0628 -2.7341 -2.3953
  725MOL0     H   37   2.614   6.846   3.564  1.4473  0.3759  0.5843
  725MOL0     H   38   2.694   7.007   3.715 -0.0168 -0.4925 -1.1046
  725MOL0     H   39   2.734   6.832   3.775  1.3366  0.0147  0.6279
  725MOL0     H   40   2.866   7.082   3.877  0.7165  0.3624  3.2469
  725MOL0     H   41   2.924   6.916   3.880  0.3163  0.9911  0.3518
  725MOL0     H   42   2.653   6.993   3.985  1.0655  1.0506 -2.4631
  725MOL0     H   43   2.760   6.853   4.045  1.4266 -0.2177 -0.3800
  725MOL0     H   44   2.804   7.136   4.103  1.6072 -0.1489 -0.0041
  725MOL0     H   45   2.897   6.998   4.159 -0.8583  0.5553  2.3215
  725MOL0     H   46   2.537   7.011   4.396  0.2877 -0.5113  0.0804
  725MOL0     H   47   3.032   6.786   3.494 -0.7844  0.0067 -0.4668
  725MOL0     H   48   2.979   6.662   3.179  2.8210  3.2545 -0.0066
  725MOL0     H   49   3.093   6.701   3.291  0.5026  0.2303 -2.0456
  725MOL0     H   50   3.033   6.535   3.310  1.5401  0.1839 -1.6694
  726MOL0     O   51   2.978   8.868   2.994  0.0025  0.8933 -0.3175
  726MOL0     C   52   2.984   8.888   2.872  0.1443 -0.3671 -0.3162
  726MOL0     O   53   3.103   8.917   2.810  0.3630  0.5164  0.4612
  726MOL0     C   54   3.222   8.883   2.873 -0.0562  0.9771 -0.2240
  726MOL0     C   55   3.287   8.772   2.814  0.0778 -0.2709  0.5660
  726MOL0     C   56   3.395   8.724   2.885 -0.0104 -0.1404  0.4832
  726MOL0     C   57   3.439   8.784   3.007 -0.1535 -0.5012 -0.4911
  726MOL0     O   58   3.529   8.713   3.083  0.0847  0.7657  0.0082
  726MOL0     C   59   3.496   8.713   3.219  0.2892  0.0871  0.6818
  726MOL0     C   60   3.608   8.626   3.282  0.3173  0.2122  0.5012
  726MOL0     C   61   3.730   8.716   3.308 -0.2135  1.0781 -0.0864
  726MOL0     C   62   3.858   8.647   3.309 -0.5969  0.1026 -0.7727
  726MOL0     C   63   3.982   8.751   3.300  0.0143  0.1292  0.2968
  726MOL0     C   64   4.014   8.812   3.438 -0.1934 -0.4143 -0.8855
  726MOL0     C   65   4.124   8.918   3.428 -0.1576  0.8496 -0.2470
  726MOL0     C   66   4.162   8.998   3.548 -0.2068  0.2664 -0.4915
  726MOL0     N   67   4.219   8.915   3.653 -0.9458  0.6331 -1.0481
  726MOL0     C   68   4.297   8.798   3.651 -0.4664  0.2436 -0.1349
  726MOL0     C   69   4.309   8.749   3.782 -0.1562 -0.1030 -0.3464
  726MOL0     C   70   4.396   8.638   3.847 -0.3414  0.4656  0.1181
  726MOL0     C   71   4.364   8.495   3.809 -0.4490  0.0934 -0.3226
  726MOL0     C   72   4.226   8.456   3.813 -0.0059 -0.2208 -0.1349
  726MOL0     C   73   4.174   8.366   3.698 -0.1303  0.5361 -0.8230
  726MOL0     O   74   4.061   8.439   3.649  0.4821  0.2372  0.1327
  726MOL0     C   75   3.928   8.404   3.692 -0.6402  0.1638 -0.3237
  726MOL0     C   76   3.890   8.282   3.757  0.7837 -0.2234 -0.7384
  726MOL0     C   77   3.763   8.270   3.804  0.5244 -0.0506 -0.6538
  726MOL0     C   78   3.711   8.135   3.872 -0.4274 -0.2185  0.4748
  726MOL0     C   79   3.669   8.375   3.783  0.7475  0.5802 -0.1126
  726MOL0     C   80   3.532   8.378   3.828 -0.6721  0.3112 -0.2627
  726MOL0     O   81   3.440   8.426   3.739  0.3616 -0.5055 -0.0167
  726MOL0     C   82   3.312   8.420   3.779 -0.3364 -0.6688 -0.1186
  726MOL0     C   83   3.246   8.521   3.852 -1.2470  0.1551 -0.1726
  726MOL0     C   84   3.109   8.501   3.891  0.1746  0.2999 -0.2070
  726MOL0     C   85   3.040   8.380   3.875  0.1665  0.4451  0.0860
  726MOL0     O   86   2.910   8.360   3.919  0.1922 -0.6985 -0.2693
  726MOL0     C   87   2.852   8.231   3.943 -0.0815 -0.2958  0.1925
  726MOL0     C   88   2.726   8.260   4.014  0.0840 -0.0663 -1.0167
  726MOL0     C   89   2.624   8.349   3.952  0.4754 -0.7017 -1.5266
  726MOL0     C   90   2.566   8.454   4.050  0.3531  0.3136 -0.3695
  726MOL0     C   91   2.635   8.587   4.044  0.6475 -1.1704 -0.8087
  726MOL0     C   92   2.602   8.656   3.910 -0.4045  0.0380 -0.1779
  726MOL0     C   93   2.604   8.813   3.940  0.1967 -0.9546  0.3925
  726MOL0     C   94   2.545   8.897   3.829  0.2493 -0.0746  0.0234
  726MOL0    Cl   95   2.547   9.063   3.857 -0.1825 -0.8441  0.3086
  726MOL0     C   96   3.111   8.278   3.820 -0.0726  0.1584 -0.2854
  726MOL0     C   97   3.247   8.291   3.770  1.2448 -0.7826  0.2837
  726MOL0     O   98   3.508   8.336   3.944  0.2979 -0.2215 -0.1127
  726MOL0     C   99   3.703   8.484   3.706 -0.4303 -0.0647  0.1328
  726MOL0     C  100   3.836   8.496   3.667 -0.2093  0.9040  0.6803
  726MOL0     N  101   4.227   8.830   3.852  1.4515 -0.7117  0.8554
  726MOL0     N  102   4.172   8.925   3.779 -0.3689 -0.7631  0.3574
  726MOL0     C  103   3.384   8.910   3.048 -0.0444  0.9361  0.3441
  726MOL0     C  104   3.269   8.955   2.985  0.5995 -0.0012 -0.5232
  726MOL0     C  105   2.860   8.891   2.792  0.2952 -0.2419 -0.4790
  726MOL0     C  106   2.869   8.908   2.650  0.2325  0.4082  0.0902
  726MOL0     C  107   2.755   8.911   2.567 -0.3301  0.3576  0.0303
  726MOL0     C  108   2.635   8.895   2.622 -0.6953  0.6218 -0.0790
  726MOL0     O  109   2.530   8.897   2.528 -0.1140  0.3869 -0.2241
  726MOL0     C  110   2.391   8.866   2.574  0.0475  0.2167 -0.5790
  726MOL0     C  111   2.313   8.902   2.443 -0.4162 -0.0991  0.9862
  726MOL0     C  112   2.340   8.807   2.320  0.7643  0.0988 -0.4549
  726MOL0     C  113   2.220   8.825   2.225 -0.9999  0.4105  0.3363
  726MOL0     C  114   2.127   8.719   2.213  0.1130 -0.3292  0.8580
  726MOL0     C  115   2.039   8.638   2.186  0.9162 -1.2188 -0.2333
  726MOL0     C  116   2.618   8.886   2.761 -0.5552 -0.2596 -0.0097
  726MOL0     C  117   2.728   8.889   2.848  0.9772  1.0112  0.7378
  726MOL0     C  118   2.691   8.909   2.990  1.6987 -0.3012  0.6788
  726MOL0     H  119   3.235   8.723   2.732 -3.7615  2.4231  1.0924
  726MOL0     H  120   3.443   8.638   2.839  1.2415  1.0849 -0.5598
  726MOL0     H  121   3.404   8.658   3.239  0.5144 -0.4491  0.2441
  726MOL0     H  122   3.486   8.813   3.264 -0.2599  0.2118  0.2956
  726MOL0     H  123   3.564   8.576   3.369  0.7120  0.9398  1.1353
  726MOL0     H  124   3.624   8.548   3.208 -2.0865  1.1955 -1.1503
  726MOL0     H  125   3.749   8.782   3.223 -0.0461 -1.5415 -2.2481
  726MOL0     H  126   3.729   8.769   3.404 -1.9057 -2.1503  1.8577
  726MOL0     H  127   3.869   8.590   3.401  0.6465 -0.3629 -1.1854
  726MOL0     H  128   3.864   8.581   3.222 -1.1485 -1.2121  0.1589
  726MOL0     H  129   3.963   8.823   3.220 -0.3677 -1.2445 -0.9043
  726MOL0     H  130   4.073   8.696   3.275  0.3994  0.4588  0.9545
  726MOL0     H  131   3.917   8.862   3.455 -1.0942 -2.0405 -1.0646
  726MOL0     H  132   4.039   8.735   3.511 -1.9787  0.8970  1.2653
  726MOL0     H  133   4.101   8.984   3.344 -0.1601  0.7048 -0.3606
  726MOL0     H  134   4.221   8.874   3.405 -0.3560 -0.6519  1.5925
  726MOL0     H  135   4.237   9.072   3.520  1.5165 -0.6940  1.3059
  726MOL0     H  136   4.074   9.055   3.579 -0.8269 -0.9503  0.0875
  726MOL0     H  137   4.349   8.760   3.564 -3.6776 -3.0823 -0.8514
  726MOL0     H  138   4.382   8.641   3.956 -0.4364  0.4272  0.1070
  726MOL0     H  139   4.497   8.661   3.812  0.9980 -3.4352  0.9663
  726MOL0     H  140   4.396   8.494   3.704 -1.9906 -0.9776 -0.8143
  726MOL0     H  141   4.423   8.423   3.866  2.7397  0.6039 -2.6641
  726MOL0     H  142   4.210   8.397   3.904 -2.2841 -2.0402 -1.6011
  726MOL0     H  143   4.162   8.544   3.823 -2.2450 -1.7584 -0.1435
  726MOL0     H  144   4.248   8.351   3.619 -1.3833 -0.0381 -1.9070
  726MOL0     H  145   4.148   8.269   3.741  2.6844 -0.6212 -1.5329
  726MOL0     H  146   3.956   8.201   3.788  0.1619 -1.1919 -1.8630
  726MOL0     H  147   3.764   8.052   3.823 -2.2586 -0.5491 -1.0866
  726MOL0     H  148   3.603   8.122   3.856 -0.3831 -2.0280  1.3808
  726MOL0     H  149   3.726   8.129   3.980 -2.9903  1.1972  0.9959
  726MOL0     H  150   3.300   8.613   3.874 -0.8857 -0.4092  1.4761
  726MOL0     H  151   3.051   8.588   3.920 -1.6377  0.3797 -3.4755
  726MOL0     H  152   2.825   8.194   3.843 -0.5983  3.1289 -1.0533
  726MOL0     H  153   2.914   8.164   4.003 -1.8722 -0.3602  2.0828
  726MOL0     H  154   2.687   8.164   4.050  1.2974 -0.1597  0.1237
  726MOL0     H  155   2.751   8.312   4.106 -2.0933  0.2785 -0.5566
  726MOL0     H  156   2.544   8.275   3.939 -0.0827 -0.3088 -0.4834
  726MOL0     H  157   2.654   8.392   3.856 -1.5604  2.7065 -0.7997
  726MOL0     H  158   2.574   8.422   4.154  1.2093  1.8998  0.0817
  726MOL0     H  159   2.458   8.467   4.039 -0.2112 -4.2246 -2.6636
  726MOL0     H  160   2.589   8.644   4.125 -1.4324 -3.9183  0.1135
  726MOL0     H  161   2.738   8.580   4.079 -0.1471 -1.6531  1.6208
  726MOL0     H  162   2.501   8.626   3.880 -0.7916  1.1518 -0.0663
  726MOL0     H  163   2.671   8.621   3.833  2.0140  1.9271  0.9879
  726MOL0     H  164   2.709   8.842   3.937 -0.6797  2.4665 -0.8982
  726MOL0     H  165   2.542   8.847   4.023 -1.2533  1.2353 -1.4831
  726MOL0     H  166   2.440   8.872   3.811  0.1383  1.0912 -1.0580
  726MOL0     H  167   2.605   8.881   3.739 -1.8501  0.8527 -1.6014
  726MOL0     H  168   3.069   8.181   3.795  3.0770 -1.6886  1.0023
  726MOL0     H  169   3.297   8.211   3.717  2.6017  0.4058 -0.2741
  726MOL0     H  170   3.633   8.561   3.675  0.5776  0.9592  0.3370
  726MOL0     H  171   3.861   8.587   3.614 -0.5371  1.2134  1.0454
  726MOL0     H  172   3.435   8.955   3.133  0.8506 -1.7786  1.3735
  726MOL0     H  173   3.196   9.028   3.020  0.6242 -0.9490  1.6726
  726MOL0     H  174   2.969   8.927   2.610  0.0834 -1.1168 -1.1056
  726MOL0     H  175   2.768   8.932   2.461  3.0250 -0.5540  0.1437
  726MOL0     H  176   2.381   8.759   2.592 -1.3415  0.7622  2.6091
  726MOL0     H  177   2.355   8.917   2.664  1.6388 -2.7872  1.9526
  726MOL0     H  178   2.335   9.005   2.413  1.6222 -0.2225  1.9318
  726MOL0     H  179   2.206   8.898   2.468 -0.8479  1.2041 -0.4971
  726MOL0     H  180   2.430   8.825   2.261  0.8729  1.1982  0.0204
  726MOL0     H  181   2.351   8.704   2.355  0.1418 -0.5944 -2.1940
  726MOL0     H  182   2.262   8.840   2.125 -1.0335  0.8643  0.3866
  726MOL0     H  183   2.162   8.914   2.253 -1.6636  0.5099 -1.2544
  726MOL0     H  184   1.956   8.581   2.149  0.7548  0.0227 -1.8897
  726MOL0     H  185   2.522   8.869   2.808 -0.2242 -1.7837  0.1530
  726MOL0     H  186   2.704   9.010   3.030  0.9252  0.0892 -0.0041
  726MOL0     H  187   2.582   8.898   2.996  1.1221  1.9802 -2.5444
  726MOL0     H  188   2.730   8.841   3.065  3.2095  0.9965  1.1293
  727MOL0     O  189   4.291   1.877   2.222 -0.5300 -0.2627  0.2421
  727MOL0     C  190   4.323   1.805   2.317 -0.4365  0.1268  0.3916
  727MOL0     O  191   4.376   1.677   2.308 -0.2369 -0.1276  0.2549
  727MOL0     C  192   4.357   1.615   2.183  0.0640 -0.4750 -0.4446
  727MOL0     C  193   4.433   1.651   2.074 -0.5888  0.2534  0.1736
  727MOL0     C  194   4.416   1.574   1.954 -0.8553  0.4486  0.0432
  727MOL0     C  195   4.341   1.468   1.948  0.0595  0.6686  1.4753
  727MOL0     O  196   4.358   1.402   1.825  0.4256  0.4335 -0.4658
  727MOL0     C  197   4.293   1.278   1.815  0.7884 -0.6081 -0.6844
  727MOL0     C  198   4.284   1.233   1.678 -0.3106 -0.2355 -0.3486
  727MOL0     C  199   4.426   1.212   1.615  0.5892 -0.0028  0.4788
  727MOL0     C  200   4.414   1.181   1.459 -1.4449  0.7101  0.3597
  727MOL0     C  201   4.546   1.157   1.387 -1.3374  0.8857  0.3042
  727MOL0     C  202   4.539   1.102   1.238 -0.0410 -0.1578 -0.2936
  727MOL0     C  203   4.513   0.954   1.220 -0.8688  0.8001 -0.7596
  727MOL0     C  204   4.469   0.918   1.084  0.6208  0.1001 -0.4911
  727MOL0     N  205   4.572   0.929   0.979 -0.3387  0.2036  0.0670
  727MOL0     C  206   4.705   0.919   0.997 -0.3162 -0.9848 -0.5450
  727MOL0     C  207   4.748   0.932   0.870  0.0773 -0.5084 -0.7111
  727MOL0     C  208   4.888   0.931   0.809 -0.3999 -0.3025  1.1140
  727MOL0     C  209   4.970   1.050   0.850 -1.1528 -0.6686  0.2804
  727MOL0     C  210   5.029   1.057   0.989 -0.2289  0.2722  0.1737
  727MOL0     C  211   5.159   0.964   1.005  0.1975 -0.5427 -0.3306
  727MOL0     O  212   5.125   0.829   0.975 -0.3529 -0.1778  0.0827
  727MOL0     C  213   5.052   0.751   1.056  0.4718 -0.7211 -0.1687
  727MOL0     C  214   5.022   0.783   1.189  0.4170 -0.0255 -0.1381
  727MOL0     C  215   4.966   0.691   1.279 -0.7236 -0.0043  0.2044
  727MOL0     C  216   4.920   0.744   1.409 -0.5887 -0.3502 -0.1797
  727MOL0     C  217   4.940   0.553   1.236 -0.3396 -1.0297 -0.3561
  727MOL0     C  218   4.878   0.448   1.322  0.3520 -1.2550  0.5515
  727MOL0     O  219   4.839   0.473   1.446 -0.0358  0.2361 -0.2133
  727MOL0     C  220   4.820   0.370   1.534  0.0809 -0.2578  0.0770
  727MOL0     C  221   4.911   0.332   1.631 -0.1820 -0.0136 -0.8767
  727MOL0     C  222   4.890   0.216   1.715  1.2701 -0.1320 -0.5975
  727MOL0     C  223   4.773   0.132   1.695  0.2267 -0.3872  0.0928
  727MOL0     O  224   4.755   0.027   1.784 -0.0790 -0.1518  0.0433
  727MOL0     C  225   4.642  -0.063   1.772  0.2328  0.0885  0.5911
  727MOL0     C  226   4.661  -0.200   1.844  0.5611 -0.2698  0.3871
  727MOL0     C  227   4.631  -0.171   1.997  0.1868 -0.5378  0.2749
  727MOL0     C  228   4.748  -0.110   2.077 -0.4647  0.1915  0.3514
  727MOL0     C  229   4.716  -0.101   2.235 -0.1178 -0.3175  0.5654
  727MOL0     C  230   4.845  -0.082   2.314  0.4516 -0.9863  0.3608
  727MOL0     C  231   4.805   0.005   2.437  0.0999 -0.5203  1.1887
  727MOL0     C  232   4.901  -0.021   2.545 -0.7161 -1.2480 -0.1658
  727MOL0    Cl  233   5.051   0.073   2.513  0.3063 -0.1032 -0.0242
  727MOL0     C  234   4.689   0.170   1.589  0.9576  0.7634 -0.7935
  727MOL0     C  235   4.706   0.285   1.516 -0.1924 -0.3274  0.2949
  727MOL0     O  236   4.868   0.339   1.272 -0.0903 -0.1991 -0.4617
  727MOL0     C  237   4.964   0.530   1.103  0.8542 -0.8073 -0.6036
  727MOL0     C  238   5.022   0.622   1.020 -0.2520 -0.6066 -0.5351
  727MOL0     N  239   4.645   0.961   0.783  0.8761 -0.1054 -0.2327
  727MOL0     N  240   4.545   0.964   0.853  0.5260 -0.4368 -0.3293
  727MOL0     C  241   4.268   1.425   2.065  0.4950  1.0410 -0.4865
  727MOL0     C  242   4.280   1.500   2.184  0.3846 -0.7173  1.4736
  727MOL0     C  243   4.301   1.847   2.452 -0.9617 -0.4655 -0.2358
  727MOL0     C  244   4.384   1.801   2.553  0.3589  0.2694  0.1402
  727MOL0     C  245   4.369   1.830   2.686  0.5348  0.4630 -0.4844
  727MOL0     C  246   4.262   1.904   2.722 -0.5016  0.1773  0.2773
  727MOL0     O  247   4.223   1.916   2.854  0.0962 -0.5819  0.0896
  727MOL0     C  248   4.323   1.969   2.934 -1.0432 -0.1103  0.2156
  727MOL0     C  249   4.272   1.975   3.076 -0.6507 -0.3553  0.1290
  727MOL0     C  250   4.210   2.110   3.120  0.1985  0.0057  0.3013
  727MOL0     C  251   4.321   2.218   3.143  0.1103  0.4154 -0.3508
  727MOL0     C  252   4.269   2.321   3.236  0.0666 -0.8227  0.2727
  727MOL0     C  253   4.238   2.402   3.314  0.6491  0.0279 -0.1799
  727MOL0     C  254   4.187   1.973   2.624  0.4974  0.5439 -0.4169
  727MOL0     C  255   4.192   1.932   2.490 -0.5881 -0.4989 -0.2291
  727MOL0     C  256   4.096   2.011   2.399  0.7142 -0.2849  0.0270
  727MOL0     H  257   4.483   1.747   2.069 -2.3361  1.2324  0.6571
  727MOL0     H  258   4.468   1.608   1.865  0.6426  0.1190  0.7586
  727MOL0     H  259   4.193   1.316   1.839  1.0033 -0.3259 -0.2256
  727MOL0     H  260   4.325   1.192   1.876 -2.0790 -2.7621 -1.9468
  727MOL0     H  261   4.231   1.137   1.686 -0.5066  0.0637  3.0175
  727MOL0     H  262   4.225   1.307   1.622  0.5474 -0.0549 -1.0276
  727MOL0     H  263   4.486   1.303   1.625 -0.2504  0.5434  0.6240
  727MOL0     H  264   4.479   1.135   1.672  1.0467  0.1289  0.2397
  727MOL0     H  265   4.349   1.093   1.453  0.7801 -0.9248 -1.7501
  727MOL0     H  266   4.366   1.266   1.408 -0.0421  2.2448  1.5137
  727MOL0     H  267   4.606   1.092   1.452 -1.4610 -1.3904 -1.7379
  727MOL0     H  268   4.598   1.253   1.386 -0.5136  0.4731 -2.1680
  727MOL0     H  269   4.452   1.151   1.194 -0.6539  2.5264  3.4572
  727MOL0     H  270   4.631   1.142   1.195  0.2502 -2.0561 -1.5203
  727MOL0     H  271   4.436   0.919   1.290 -1.2780  1.6169 -0.7946
  727MOL0     H  272   4.600   0.896   1.253 -2.5437 -0.7879  1.1645
  727MOL0     H  273   4.423   0.820   1.096  0.8747  0.0376 -0.0024
  727MOL0     H  274   4.382   0.975   1.047  1.7047  1.1321 -1.5419
  727MOL0     H  275   4.758   0.905   1.091  0.9061  0.6856 -0.9322
  727MOL0     H  276   4.875   0.931   0.701 -3.1130 -0.5548  1.3780
  727MOL0     H  277   4.940   0.838   0.831  0.0249 -0.5631 -0.8115
  727MOL0     H  278   5.045   1.061   0.771 -0.0535 -0.6730  1.2869
  727MOL0     H  279   4.917   1.145   0.836  0.1229 -0.2215 -2.1007
  727MOL0     H  280   5.083   1.149   1.012 -0.6072  0.2822  1.0413
  727MOL0     H  281   4.963   1.051   1.076 -0.6571 -1.3156 -0.2379
  727MOL0     H  282   5.233   0.993   0.929 -0.5856  1.9044 -0.2721
  727MOL0     H  283   5.204   0.980   1.103  0.5263 -2.6320 -0.1019
  727MOL0     H  284   5.034   0.885   1.225  1.1785  0.2609 -1.1531
  727MOL0     H  285   4.813   0.763   1.397 -0.8953 -1.1702  1.0675
  727MOL0     H  286   4.974   0.833   1.441 -1.3694  0.1525 -0.2336
  727MOL0     H  287   4.942   0.665   1.482 -0.9523 -1.1920 -0.9497
  727MOL0     H  288   5.007   0.382   1.643  0.2876 -1.3887  1.7632
  727MOL0     H  289   4.951   0.196   1.803 -0.0761  0.6678  0.5686
  727MOL0     H  290   4.551  -0.011   1.803 -0.6265  0.5210 -2.3213
  727MOL0     H  291   4.628  -0.088   1.666  0.0925 -4.0954  1.4107
  727MOL0     H  292   4.586  -0.275   1.816  0.8915 -0.8587  1.0633
  727MOL0     H  293   4.765  -0.234   1.839  1.4818  1.9929  2.1406
  727MOL0     H  294   4.616  -0.273   2.035 -2.3709  0.5324  2.4104
  727MOL0     H  295   4.539  -0.116   2.017 -0.0583 -0.8724  0.0898
  727MOL0     H  296   4.774  -0.008   2.049 -2.9658  0.6275 -0.6160
  727MOL0     H  297   4.836  -0.173   2.057 -1.1429 -0.2140 -1.6313
  727MOL0     H  298   4.638  -0.025   2.246  0.1788 -0.1508  1.7070
  727MOL0     H  299   4.659  -0.188   2.267 -0.7927 -0.5288 -1.1454
  727MOL0     H  300   4.925  -0.035   2.256 -0.3868  0.7272  0.5490
  727MOL0     H  301   4.883  -0.176   2.355  2.0306  0.1480  1.6524
  727MOL0     H  302   4.709  -0.024   2.482  0.0887  0.2487  1.6644
  727MOL0     H  303   4.783   0.108   2.410 -1.3248 -1.4347 -1.5791
  727MOL0     H  304   4.922  -0.125   2.569  0.8350 -1.1503 -0.9843
  727MOL0     H  305   4.871   0.022   2.641  4.8652 -2.5592  2.5843
  727MOL0     H  306   4.611   0.100   1.559  0.8637 -0.2828  1.6766
  727MOL0     H  307   4.642   0.305   1.431 -2.1155  4.7253  2.5217
  727MOL0     H  308   4.947   0.434   1.054 -0.8752 -1.5216  1.2500
  727MOL0     H  309   5.044   0.597   0.917 -0.2064 -1.8918 -0.2360
  727MOL0     H  310   4.186   1.353   2.066  1.2766  0.1287  1.5392
  727MOL0     H  311   4.237   1.473   2.280 -1.3184 -0.0315  0.9423
  727MOL0     H  312   4.472   1.739   2.537 -0.0248 -0.2306 -0.0396
  727MOL0     H  313   4.435   1.787   2.761 -0.1510 -0.3182 -0.3132
  727MOL0     H  314   4.422   1.922   2.930 -0.4985  1.0257 -0.1246
  727MOL0     H  315   4.342   2.073   2.905 -0.4318 -0.7402 -1.7789
  727MOL0     H  316   4.350   1.962   3.150 -0.0414  2.3678  0.0898
  727MOL0     H  317   4.191   1.902   3.087  0.1663 -1.1882  0.6539
  727MOL0     H  318   4.145   2.155   3.044  1.0699  0.1037 -0.4108
  727MOL0     H  319   4.148   2.090   3.207  1.0193  0.2549  0.9543
  727MOL0     H  320   4.342   2.267   3.047 -1.8141  3.3160  0.5970
  727MOL0     H  321   4.411   2.179   3.191  0.5563  0.0910 -1.4148
  727MOL0     H  322   4.222   2.473   3.392 -0.3009 -2.1393  1.6745
  727MOL0     H  323   4.098   2.032   2.647  0.9254  0.3478  1.9426
  727MOL0     H  324   4.007   2.038   2.457  1.2044  0.7810  0.3117
  727MOL0     H  325   4.136   2.106   2.362 -0.9637  0.0006 -1.1967
  727MOL0     H  326   4.055   1.964   2.310 -4.3435  2.2188  0.6546
  728MOL0     O  327   9.706   4.326   6.319 -0.6891 -0.1494  0.2819
  728MOL0     C  328   9.715   4.438   6.374  0.0839  0.0576 -0.3501
  728MOL0     O  329   9.604   4.508   6.426  0.4535 -0.2555 -0.2927
  728MOL0     C  330   9.475   4.480   6.395 -0.5021  0.5783 -0.0256
  728MOL0     C  331   9.384   4.580   6.378  1.0274 -0.7288  0.1928
  728MOL0     C  332   9.251   4.554   6.367  0.8252 -0.4465  1.2360
  728MOL0     C  333   9.200   4.423   6.351 -0.2581  0.1141  0.4336
  728MOL0     O  334   9.064   4.402   6.345 -0.2859 -0.6888  0.1666
  728MOL0     C  335   9.019   4.265   6.328  0.1225 -0.3059 -0.9108
  728MOL0     C  336   8.868   4.255   6.326 -0.0134  0.2247  1.0493
  728MOL0     C  337   8.810   4.365   6.224  0.1440  0.0667 -0.4210
  728MOL0     C  338   8.658   4.362   6.211  0.1598 -0.2790 -0.1869
  728MOL0     C  339   8.611   4.485   6.138  0.8185 -0.1776  0.1766
  728MOL0     C  340   8.459   4.479   6.120 -0.6106  0.4699 -0.6481
  728MOL0     C  341   8.401   4.615   6.062  0.1362 -0.6398  0.2723
  728MOL0     C  342   8.251   4.626   6.080  0.0705 -0.0861 -0.0682
  728MOL0     N  343   8.207   4.640   6.217  0.1288 -0.2829  0.4632
  728MOL0     C  344   8.146   4.755   6.266  0.4431 -0.0124 -0.2530
  728MOL0     C  345   8.102   4.721   6.390 -0.3516 -0.1959  0.3354
  728MOL0     C  346   8.052   4.816   6.493  0.2889  0.7721 -0.0732
  728MOL0     C  347   8.008   4.749   6.622  0.2535  0.2917 -0.6242
  728MOL0     C  348   8.014   4.846   6.738  1.0076 -0.1557  0.0227
  728MOL0     C  349   7.883   4.943   6.741 -1.1276  0.4528 -0.3841
  728MOL0     O  350   7.751   4.899   6.705  0.0670  0.0780 -0.5664
  728MOL0     C  351   7.649   5.000   6.685 -0.2224  0.1017  0.1098
  728MOL0     C  352   7.525   4.953   6.651  0.5363 -0.8930  0.1646
  728MOL0     C  353   7.409   5.029   6.633  0.2933  0.3523 -0.0533
  728MOL0     C  354   7.277   4.953   6.625 -0.1711 -0.7209 -0.1491
  728MOL0     C  355   7.417   5.168   6.646  0.7611 -0.3498 -0.9259
  728MOL0     C  356   7.296   5.263   6.634 -0.5998  0.5835 -0.2367
  728MOL0     O  357   7.337   5.385   6.646  0.1886 -0.5489 -0.1346
  728MOL0     C  358   7.262   5.502   6.646  0.0651  0.7983 -0.1242
  728MOL0     C  359   7.131   5.503   6.668  0.2927  0.6926  0.5409
  728MOL0     C  360   7.063   5.618   6.658 -0.5727 -0.6287  0.5468
  728MOL0     C  361   7.123   5.734   6.611 -0.1476  0.1147  0.4605
  728MOL0     O  362   7.043   5.847   6.582  0.2728  0.4707 -0.2062
  728MOL0     C  363   7.106   5.965   6.635  0.2205 -0.0222 -0.3517
  728MOL0     C  364   6.998   6.068   6.673  0.0431 -1.1361 -0.2649
  728MOL0     C  365   6.902   6.093   6.548  0.0254 -0.1709  0.2227
  728MOL0     C  366   6.796   6.198   6.579  0.3692  0.7351 -0.1694
  728MOL0     C  367   6.678   6.219   6.479 -0.7760 -0.0609  0.3661
  728MOL0     C  368   6.720   6.285   6.345  0.4007  0.8106  0.0947
  728MOL0     C  369   6.616   6.258   6.229 -0.9060 -0.3338  0.1456
  728MOL0     C  370   6.605   6.373   6.128 -0.6813  1.0309 -0.0500
  728MOL0    Cl  371   6.541   6.528   6.191 -0.2449  0.1069 -0.0489
  728MOL0     C  372   7.266   5.733   6.584  0.6510 -0.4579  0.0237
  728MOL0     C  373   7.336   5.609   6.602  0.7967 -1.6117 -0.1662
  728MOL0     O  374   7.177   5.226   6.613  0.0642  0.4996  0.3569
  728MOL0     C  375   7.546   5.227   6.666  0.0006  0.4968 -0.2141
  728MOL0     C  376   7.655   5.138   6.697 -0.0632  0.5506 -0.7416
  728MOL0     N  377   8.100   4.583   6.402  0.7446  0.1923 -0.0637
  728MOL0     N  378   8.160   4.546   6.297  1.0154  0.4837  0.4021
  728MOL0     C  379   9.299   4.331   6.351  0.1863  0.1419  0.6635
  728MOL0     C  380   9.438   4.349   6.382  0.6993 -0.6181  0.2572
  728MOL0     C  381   9.851   4.494   6.361 -0.1509 -0.5904 -0.4861
  728MOL0     C  382   9.935   4.444   6.259 -0.9656  0.1864 -0.1767
  728MOL0     C  383  10.062   4.506   6.241 -0.5604  0.0317 -0.3365
  728MOL0     C  384  10.106   4.607   6.321 -0.0559 -0.0919 -0.3640
  728MOL0     O  385  10.235   4.639   6.345 -0.2312  0.0018 -0.0779
  728MOL0     C  386  10.327   4.569   6.250  0.4621  0.2012 -0.1743
  728MOL0     C  387  10.460   4.637   6.278 -0.9027 -0.3910 -0.2145
  728MOL0     C  388  10.501   4.640   6.430  0.1549  0.5548 -0.1285
  728MOL0     C  389  10.622   4.735   6.440 -1.1983 -0.3880  0.6722
  728MOL0     C  390  10.661   4.751   6.581  0.3942  0.1973  0.8563
  728MOL0     C  391  10.685   4.769   6.699 -0.9120 -0.0840  0.3155
  728MOL0     C  392  10.028   4.651   6.422 -0.5420  0.2923 -0.0354
  728MOL0     C  393   9.892   4.605   6.436 -1.0203  0.3172  0.1302
  728MOL0     C  394   9.808   4.675   6.530 -0.2397 -0.1476 -0.6855
  728MOL0     H  395   9.413   4.684   6.375 -0.3041 -0.3531 -0.1007
  728MOL0     H  396   9.183   4.638   6.366  0.4817 -0.6472  3.4145
  728MOL0     H  397   9.062   4.209   6.411  0.8257  0.5505 -0.6895
  728MOL0     H  398   9.053   4.224   6.233 -0.1670 -1.1106 -0.6773
  728MOL0     H  399   8.832   4.153   6.314  0.1948  0.0114  2.1496
  728MOL0     H  400   8.826   4.281   6.424 -0.4540  5.5747 -0.2441
  728MOL0     H  401   8.835   4.467   6.254 -2.8446  0.9722 -0.6919
  728MOL0     H  402   8.857   4.364   6.125  0.8514  3.9106 -0.2565
  728MOL0     H  403   8.627   4.268   6.163 -5.3508  1.4759 -0.7757
  728MOL0     H  404   8.610   4.371   6.309 -0.9357  4.8482 -0.8790
  728MOL0     H  405   8.658   4.490   6.039 -2.0404 -0.0525 -1.2733
  728MOL0     H  406   8.643   4.575   6.192  1.4298 -0.4190  0.2229
  728MOL0     H  407   8.430   4.391   6.062 -1.4540  1.2730 -1.4687
  728MOL0     H  408   8.426   4.479   6.224  1.5678  1.8594  0.1130
  728MOL0     H  409   8.417   4.597   5.955 -2.4120 -0.4132 -0.2034
  728MOL0     H  410   8.455   4.705   6.094  1.8098 -1.0840 -1.1209
  728MOL0     H  411   8.222   4.712   6.019  4.3703  3.5945  2.4243
  728MOL0     H  412   8.203   4.537   6.037 -1.9201 -0.5215  2.7385
  728MOL0     H  413   8.149   4.857   6.229  1.0071  0.1953  0.3398
  728MOL0     H  414   7.973   4.883   6.457 -1.4384 -0.5383  1.0891
  728MOL0     H  415   8.137   4.878   6.523  0.4598  0.8002 -0.6017
  728MOL0     H  416   7.918   4.686   6.620 -0.7897  1.6221  1.3318
  728MOL0     H  417   8.096   4.688   6.644  1.6722  2.1868 -0.8004
  728MOL0     H  418   8.013   4.791   6.833 -0.9133  0.8329  0.6365
  728MOL0     H  419   8.099   4.915   6.735 -1.1114  2.5971 -0.8769
  728MOL0     H  420   7.894   4.984   6.842  0.4378  1.8320 -1.0569
  728MOL0     H  421   7.901   5.020   6.665  2.0170  2.8157  2.3895
  728MOL0     H  422   7.510   4.845   6.653 -2.9339 -0.5292 -0.7810
  728MOL0     H  423   7.212   4.984   6.708  0.4379  1.7835 -0.5193
  728MOL0     H  424   7.294   4.846   6.641  1.6174 -1.3698 -4.8402
  728MOL0     H  425   7.231   4.977   6.529  0.6649  0.7217 -0.2110
  728MOL0     H  426   7.072   5.427   6.719  0.4611 -0.6033 -1.1311
  728MOL0     H  427   6.956   5.611   6.677 -1.1728 -1.7792 -2.5856
  728MOL0     H  428   7.168   5.941   6.723  1.4512  4.1503  0.1610
  728MOL0     H  429   7.174   6.015   6.566 -1.6148  1.2158 -1.3488
  728MOL0     H  430   6.933   6.028   6.751 -0.2536  1.7404  1.1049
  728MOL0     H  431   7.045   6.157   6.715 -3.1521  1.6666 -2.0343
  728MOL0     H  432   6.855   6.002   6.508  0.7244  0.3960 -2.0551
  728MOL0     H  433   6.961   6.121   6.461  0.0413 -1.2728 -0.1419
  728MOL0     H  434   6.850   6.293   6.589  3.2704 -0.7479 -0.6004
  728MOL0     H  435   6.751   6.158   6.671 -0.8264 -0.5657 -1.2742
  728MOL0     H  436   6.626   6.123   6.484 -0.3580 -0.2233  3.1906
  728MOL0     H  437   6.610   6.294   6.521 -2.5598  0.2395 -2.7443
  728MOL0     H  438   6.815   6.236   6.319 -0.4864  0.3899 -2.5898
  728MOL0     H  439   6.728   6.393   6.360 -2.8172  0.9361  1.7843
  728MOL0     H  440   6.523   6.235   6.282 -0.8736  1.1116  0.8815
  728MOL0     H  441   6.648   6.171   6.171 -0.4073 -1.5839  2.1950
  728MOL0     H  442   6.541   6.351   6.042 -1.1473  2.0748  0.0149
  728MOL0     H  443   6.703   6.394   6.086 -0.5602 -2.5769 -1.9475
  728MOL0     H  444   7.323   5.817   6.544 -1.3472  0.6723 -0.5772
  728MOL0     H  445   7.444   5.598   6.591  1.0300 -2.3297  2.2486
  728MOL0     H  446   7.551   5.335   6.662 -1.4775  0.5880 -4.2511
  728MOL0     H  447   7.750   5.190   6.711 -0.0844  0.5500 -0.5922
  728MOL0     H  448   9.279   4.225   6.336 -1.4372  0.2003  2.1104
  728MOL0     H  449   9.499   4.265   6.414  0.2610 -0.4364  1.6354
  728MOL0     H  450   9.901   4.364   6.194 -2.6416  0.0196  0.8618
  728MOL0     H  451  10.117   4.460   6.160 -3.1490 -2.4438 -0.8558
  728MOL0     H  452  10.328   4.462   6.273 -0.6379  0.4363  1.1123
  728MOL0     H  453  10.302   4.601   6.149  1.2947  2.7940  0.3537
  728MOL0     H  454  10.455   4.742   6.249  1.6280 -0.5200 -1.3863
  728MOL0     H  455  10.538   4.583   6.223 -1.2026 -2.5898  1.3797
  728MOL0     H  456  10.423   4.690   6.487  0.7706 -0.0727  1.3180
  728MOL0     H  457  10.511   4.536   6.462  2.0117  0.8240  0.2936
  728MOL0     H  458  10.592   4.834   6.403  2.3451 -0.1730 -2.1116
  728MOL0     H  459  10.713   4.696   6.395 -0.3194 -0.2090  2.2159
  728MOL0     H  460  10.707   4.783   6.803 -1.1320  0.7328  0.2525
  728MOL0     H  461  10.072   4.725   6.488  0.2833  1.0200 -1.3371
  728MOL0     H  462   9.767   4.604   6.603 -1.3546 -1.0215 -2.1113
  728MOL0     H  463   9.858   4.757   6.583 -1.7633 -0.2193  0.9758
  728MOL0     H  464   9.719   4.718   6.484 -0.3937 -1.2949 -1.4900
  729MOL0     O  465   2.732  10.005   7.715 -0.8633  1.0569 -0.5538
  729MOL0     C  466   2.757   9.953   7.607  0.4384  0.1697 -0.0099
  729MOL0     O  467   2.893   9.928   7.572  0.2406 -0.1641  0.0489
  729MOL0     C  468   2.989   9.964   7.662 -0.6110  0.6220 -0.5568
  729MOL0     C  469   3.056  10.091   7.664 -1.0455 -0.2126  0.6348
  729MOL0     C  470   3.166  10.112   7.748 -0.8966  0.1071  0.3337
  729MOL0     C  471   3.201  10.013   7.840  0.0620 -0.0577 -0.0426
  729MOL0     O  472   3.293  10.049   7.941  0.1934  0.0989 -0.3331
  729MOL0     C  473   3.256  10.012   8.077  0.1403 -0.3624 -0.4720
  729MOL0     C  474   3.118  10.072   8.112 -0.8173  0.5676 -0.8192
  729MOL0     C  475   3.094  10.070   8.261  0.6768  0.0599 -0.5645
  729MOL0     C  476   3.092   9.936   8.328 -0.6183  1.0186 -0.7839
  729MOL0     C  477   3.038   9.957   8.469  0.3184 -1.1156  0.4903
  729MOL0     C  478   3.029   9.820   8.535  0.7691 -0.2172  0.2381
  729MOL0     C  479   3.043   9.820   8.689  0.5089  0.4912 -0.6067
  729MOL0     C  480   3.029   9.678   8.744  0.4249  0.5220  0.6579
  729MOL0     N  481   3.046   9.655   8.888 -0.2855 -0.3340 -0.1054
  729MOL0     C  482   3.175   9.663   8.939  0.4729 -0.7606 -0.1909
  729MOL0     C  483   3.165   9.605   9.059 -0.1486 -0.0282  0.5597
  729MOL0     C  484   3.260   9.606   9.169 -0.1594 -0.4073 -0.2665
  729MOL0     C  485   3.233   9.689   9.293 -0.1233 -0.8597 -0.5577
  729MOL0     C  486   3.127   9.615   9.383  0.4026  0.0778  0.0568
  729MOL0     C  487   3.114   9.652   9.537 -0.4557  0.7173 -0.4145
  729MOL0     O  488   3.028   9.547   9.590 -0.6088 -0.2747 -0.2354
  729MOL0     C  489   3.046   9.531   9.722  0.4954 -0.0796  0.3174
  729MOL0     C  490   2.951   9.574   9.812 -0.6002 -0.4438  0.0440
  729MOL0     C  491   2.947   9.542   9.949 -0.3694  0.0196 -0.2693
  729MOL0     C  492   2.844   9.610  10.040 -0.7503 -0.9623  0.0966
  729MOL0     C  493   3.053   9.464  10.005 -0.8363 -0.2703  0.3089
  729MOL0     C  494   3.067   9.422  10.147 -0.1319  0.7838  0.8763
  729MOL0     O  495   3.188   9.428  10.204  0.7773  0.7237  0.0826
  729MOL0     C  496   3.192   9.400  10.336  0.6754  0.6932 -0.0519
  729MOL0     C  497   3.209   9.268  10.383  0.2807  0.4586  1.0123
  729MOL0     C  498   3.200   9.237  10.517 -0.1723 -0.1506 -0.2156
  729MOL0     C  499   3.191   9.342  10.614 -0.4463 -0.8815  0.0426
  729MOL0     O  500   3.192   9.315  10.749 -0.2432  0.3437 -0.2028
  729MOL0     C  501   3.226   9.421  10.836 -1.0103 -0.3808 -0.0877
  729MOL0     C  502   3.230   9.377  10.984  0.4366  0.2963  0.0930
  729MOL0     C  503   3.091   9.318  11.036 -0.3133  0.1384  0.1937
  729MOL0     C  504   3.050   9.389  11.158 -0.7970  0.4534  0.0792
  729MOL0     C  505   3.094   9.324  11.298  0.2294  1.0485  0.2116
  729MOL0     C  506   3.039   9.391  11.416 -0.0127 -0.5134  0.2248
  729MOL0     C  507   3.093   9.537  11.429 -0.9782 -0.1862 -0.1745
  729MOL0     C  508   3.026   9.611  11.546  0.5645  0.2906  0.2166
  729MOL0    Cl  509   3.065   9.535  11.699  0.0579  0.3458  0.3897
  729MOL0     C  510   3.187   9.475  10.562  0.5385 -0.3432  0.1627
  729MOL0     C  511   3.181   9.500  10.424  1.4485 -0.2781 -0.3222
  729MOL0     O  512   2.957   9.398  10.205 -0.1365  0.7262 -0.1339
  729MOL0     C  513   3.161   9.433   9.912 -0.7474 -0.4426  0.0307
  729MOL0     C  514   3.148   9.454   9.771 -0.6740  0.2478  0.1912
  729MOL0     N  515   3.040   9.544   9.070 -0.0171 -1.1340  0.4383
  729MOL0     N  516   2.971   9.568   8.962  0.1251 -0.5047  0.1532
  729MOL0     C  517   3.143   9.891   7.837  0.9049  0.8439 -0.2749
  729MOL0     C  518   3.040   9.865   7.745  0.3334  0.6021 -0.6948
  729MOL0     C  519   2.646   9.919   7.523 -0.2044 -0.4246 -0.5521
  729MOL0     C  520   2.683   9.836   7.409  0.8303 -0.2567 -0.1359
  729MOL0     C  521   2.580   9.765   7.345  0.0248  0.2283  0.2712
  729MOL0     C  522   2.442   9.788   7.374 -0.3214  0.7240 -0.5675
  729MOL0     O  523   2.334   9.731   7.317 -0.4666  0.4638 -0.0946
  729MOL0     C  524   2.338   9.650   7.197 -0.9756 -0.6389  1.0070
  729MOL0     C  525   2.320   9.744   7.070  0.5017 -0.7047  0.4045
  729MOL0     C  526   2.329   9.694   6.928 -0.4695 -0.1055 -0.9179
  729MOL0     C  527   2.234   9.576   6.921  0.7167 -0.4429  0.2586
  729MOL0     C  528   2.218   9.530   6.787 -0.2028 -0.4290 -0.3295
  729MOL0     C  529   2.216   9.474   6.676  0.1648 -0.6725 -0.1140
  729MOL0     C  530   2.406   9.900   7.468  0.1466 -0.6228 -0.2020
  729MOL0     C  531   2.507   9.962   7.540 -0.1043 -0.0291 -0.5898
  729MOL0     C  532   2.459  10.051   7.645  1.3606 -0.5925 -0.8729
  729MOL0     H  533   3.033  10.162   7.585  0.9202  1.8403  1.7967
  729MOL0     H  534   3.205  10.214   7.751  0.0494 -0.2484  2.8111
  729MOL0     H  535   3.329  10.057   8.144 -1.9385 -0.1696  1.7963
  729MOL0     H  536   3.263   9.905   8.097 -1.6033 -0.4585 -0.2010
  729MOL0     H  537   3.112  10.177   8.083 -3.9457  0.6390 -0.2132
  729MOL0     H  538   3.035  10.022   8.062 -0.2084  0.4289 -1.7234
  729MOL0     H  539   3.172  10.125   8.314 -1.4119 -0.3855  3.3407
  729MOL0     H  540   3.001  10.125   8.281  1.3729  1.6224 -1.4191
  729MOL0     H  541   3.010   9.876   8.287 -0.1508  1.2808 -2.1530
  729MOL0     H  542   3.184   9.879   8.315 -0.3090  1.4638 -0.5545
  729MOL0     H  543   2.939  10.002   8.463  0.7606 -0.0100  1.2554
  729MOL0     H  544   3.098  10.026   8.529  1.5180 -0.3337 -1.5094
  729MOL0     H  545   2.933   9.777   8.504  0.4919  1.0978 -0.8442
  729MOL0     H  546   3.111   9.760   8.496  0.1955 -1.0052  0.2264
  729MOL0     H  547   2.972   9.885   8.742  0.2335  1.6059 -2.2528
  729MOL0     H  548   3.144   9.851   8.716  0.0768  0.6010  0.9709
  729MOL0     H  549   2.927   9.648   8.718 -0.1711  2.4418  0.6275
  729MOL0     H  550   3.105   9.611   8.702  2.1063  1.1177  2.6000
  729MOL0     H  551   3.253   9.724   8.895 -0.5970  1.5835  0.9729
  729MOL0     H  552   3.359   9.632   9.130  0.1336 -0.9025  0.1342
  729MOL0     H  553   3.278   9.508   9.214 -0.7237 -0.2046  0.4195
  729MOL0     H  554   3.329   9.693   9.345 -0.8580  1.9978  0.7438
  729MOL0     H  555   3.202   9.791   9.269  2.3101  0.5463  1.6832
  729MOL0     H  556   3.035   9.642   9.329  0.0828  3.0082  1.8599
  729MOL0     H  557   3.142   9.507   9.377 -0.3669 -0.0287 -0.0382
  729MOL0     H  558   3.215   9.648   9.580 -1.5667 -2.1174  2.2666
  729MOL0     H  559   3.068   9.750   9.552 -2.3808 -0.4479  1.9319
  729MOL0     H  560   2.870   9.637   9.778 -0.1476  2.2047  3.2605
  729MOL0     H  561   2.805   9.702   9.995 -0.6663 -1.1942 -0.4501
  729MOL0     H  562   2.892   9.653  10.130  0.7522 -1.2302 -0.5452
  729MOL0     H  563   2.765   9.537  10.059 -1.0154 -0.1940  2.2293
  729MOL0     H  564   3.202   9.195  10.304 -0.0020  0.1877  1.2871
  729MOL0     H  565   3.199   9.134  10.552 -1.1940  0.8476  3.1545
  729MOL0     H  566   3.324   9.452  10.800 -1.2117  0.9851  0.4874
  729MOL0     H  567   3.168   9.514  10.839  0.9303  0.8525  1.1255
  729MOL0     H  568   3.299   9.294  11.001  0.6814  0.8256  1.8762
  729MOL0     H  569   3.257   9.460  11.049 -1.2165  0.4953  0.5733
  729MOL0     H  570   3.102   9.210  11.049  0.7925  0.2108 -0.0166
  729MOL0     H  571   3.017   9.340  10.958  0.6395 -2.8637 -1.7145
  729MOL0     H  572   2.941   9.406  11.160 -0.8675 -0.0428  0.6507
  729MOL0     H  573   3.074   9.494  11.141  2.0752 -0.3872 -1.6003
  729MOL0     H  574   3.057   9.222  11.285 -0.2515  1.4279 -1.8645
  729MOL0     H  575   3.203   9.311  11.306  0.1176 -1.7908 -1.3917
  729MOL0     H  576   3.059   9.332  11.506 -1.1962 -0.5899  0.4531
  729MOL0     H  577   2.932   9.415  11.419  0.7569  3.6982  1.0619
  729MOL0     H  578   3.096   9.601  11.341 -2.6774  0.6591  0.3353
  729MOL0     H  579   3.195   9.528  11.469 -1.3438 -1.2049  0.5937
  729MOL0     H  580   2.919   9.613  11.520  1.0934  1.8689 -2.1744
  729MOL0     H  581   3.061   9.714  11.555  3.6843 -0.5753 -1.0501
  729MOL0     H  582   3.169   9.561  10.625 -5.1276  0.8714 -2.4602
  729MOL0     H  583   3.168   9.600  10.385  1.8887 -1.1035 -2.7642
  729MOL0     H  584   3.253   9.386   9.945 -1.4401 -1.0947  1.0860
  729MOL0     H  585   3.223   9.414   9.703 -0.8172  0.1736  0.0779
  729MOL0     H  586   3.165   9.815   7.911 -1.6794  0.1048 -0.1375
  729MOL0     H  587   3.001   9.763   7.747  1.3286  0.1991  2.0233
  729MOL0     H  588   2.786   9.831   7.375  0.0779 -1.0359 -2.4416
  729MOL0     H  589   2.597   9.695   7.264  2.5494  1.1718 -0.1309
  729MOL0     H  590   2.435   9.600   7.193 -0.2572  0.7476 -0.1126
  729MOL0     H  591   2.260   9.575   7.212 -0.4564 -1.4496 -0.1566
  729MOL0     H  592   2.380   9.836   7.078 -0.7458  0.0376  2.0052
  729MOL0     H  593   2.219   9.784   7.088  1.2556  0.3683  2.6048
  729MOL0     H  594   2.301   9.775   6.860  1.7610  0.4890 -1.2187
  729MOL0     H  595   2.432   9.677   6.894  1.0045  2.9264  1.4664
  729MOL0     H  596   2.143   9.631   6.947  1.6601  1.5158 -0.3668
  729MOL0     H  597   2.257   9.490   6.985  4.5398  0.0505 -0.2204
  729MOL0     H  598   2.205   9.431   6.579  1.9816 -2.2491  0.3397
  729MOL0     H  599   2.301   9.903   7.494  0.6907 -2.4641  2.7270
  729MOL0     H  600   2.511  10.146   7.649 -0.9570  0.7853  3.3839
  729MOL0     H  601   2.351  10.071   7.647  1.4803  0.0658  0.6897
  729MOL0     H  602   2.489  10.015   7.744  2.1072 -0.3168 -0.9934
  730MOL0     O  603   9.009   9.290   3.527  0.4156  0.0358  0.7063
  730MOL0     C  604   9.042   9.253   3.642 -0.4688  0.1793  1.5193
  730MOL0     O  605   9.154   9.284   3.703 -0.4683  0.1145 -0.5252
  730MOL0     C  606   9.268   9.334   3.638 -0.1216 -0.2291 -0.8825
  730MOL0     C  607   9.356   9.403   3.721 -0.7535  0.2886 -0.3639
  730MOL0     C  608   9.474   9.473   3.669 -0.3984 -0.7259 -0.3800
  730MOL0     C  609   9.492   9.480   3.534 -0.0916  0.1553 -0.5397
  730MOL0     O  610   9.595   9.544   3.485 -0.2099  0.6883  0.3057
  730MOL0     C  611   9.565   9.685   3.467 -0.2775  0.3277 -0.9450
  730MOL0     C  612   9.489   9.726   3.344  0.6944  0.7070 -0.2151
  730MOL0     C  613   9.488   9.882   3.326  0.2918  0.7800 -0.8237
  730MOL0     C  614   9.426   9.924   3.188  0.4204 -0.1470  0.0463
  730MOL0     C  615   9.516   9.876   3.069  0.6203  0.6203  0.3469
  730MOL0     C  616   9.427   9.831   2.943 -0.5362 -0.4282 -0.0589
  730MOL0     C  617   9.504   9.857   2.812 -0.2075  0.4969  0.0423
  730MOL0     C  618   9.426   9.829   2.685  0.3784  0.1651 -0.3143
  730MOL0     N  619   9.520   9.857   2.579  0.0361 -0.8483  0.8132
  730MOL0     C  620   9.474   9.947   2.476  0.4532  0.8877 -0.2026
  730MOL0     C  621   9.584   9.978   2.404  0.2275 -0.5509  0.3159
  730MOL0     C  622   9.596  10.052   2.278 -0.4710 -0.4932 -0.7876
  730MOL0     C  623   9.575  10.196   2.293 -0.0432 -0.6787 -0.5501
  730MOL0     C  624   9.704  10.247   2.367  1.2416  0.0740 -0.1925
  730MOL0     C  625   9.816  10.289   2.264 -0.4803  0.2254  0.3916
  730MOL0     O  626   9.940  10.331   2.312  0.0776 -1.0602 -0.3326
  730MOL0     C  627  10.025  10.268   2.402  0.4287  0.5161  0.4990
  730MOL0     C  628  10.122  10.344   2.468 -0.2531 -0.3698  0.2967
  730MOL0     C  629  10.213  10.279   2.549 -0.8088 -0.9506 -0.3355
  730MOL0     C  630  10.313  10.368   2.633  0.3279  0.3154  0.6965
  730MOL0     C  631  10.207  10.139   2.576 -0.2893  0.4017 -0.3038
  730MOL0     C  632  10.299  10.072   2.675  0.6751 -0.3615  0.0506
  730MOL0     O  633  10.429  10.109   2.678 -0.8108  0.0798 -0.1906
  730MOL0     C  634  10.511  10.042   2.771  0.3366 -0.5378 -0.8520
  730MOL0     C  635  10.595   9.944   2.722  0.1915 -0.2674  0.3043
  730MOL0     C  636  10.681   9.887   2.815 -0.0851  0.7787  0.0955
  730MOL0     C  637  10.691   9.928   2.950  1.0181  0.5081  0.5067
  730MOL0     O  638  10.758   9.849   3.036  0.5600  0.0878 -0.3709
  730MOL0     C  639  10.892   9.900   3.052 -0.8992  0.6766  0.3628
  730MOL0     C  640  10.962   9.827   3.162  0.3445 -0.4208 -0.0810
  730MOL0     C  641  10.961   9.891   3.304 -0.1189  0.3045 -0.1394
  730MOL0     C  642  10.979   9.787   3.424 -0.8539  0.3544 -1.0734
  730MOL0     C  643  11.003   9.875   3.551 -1.0726  0.7273 -0.6535
  730MOL0     C  644  11.153   9.910   3.560  0.3965 -0.1933 -0.2010
  730MOL0     C  645  11.194   9.981   3.696 -0.1429 -0.1402  0.6378
  730MOL0     C  646  11.340  10.008   3.706 -0.0240 -0.4546  0.1241
  730MOL0    Cl  647  11.391  10.123   3.581 -0.4338  0.2648  0.4537
  730MOL0     C  648  10.612  10.042   2.991 -0.0745  0.6024  0.2868
  730MOL0     C  649  10.521  10.096   2.899  0.2318 -0.7830  1.4986
  730MOL0     O  650  10.246   9.993   2.753  0.4958  0.6092 -0.4198
  730MOL0     C  651  10.109  10.063   2.506  0.3176  0.9368 -0.8798
  730MOL0     C  652  10.020  10.129   2.419 -0.4125 -0.8192  0.4636
  730MOL0     N  653   9.685   9.899   2.457 -0.5786  0.0832  0.5746
  730MOL0     N  654   9.656   9.833   2.564  0.2474 -0.1028  0.2011
  730MOL0     C  655   9.411   9.392   3.452 -0.2368 -0.5357 -0.0177
  730MOL0     C  656   9.306   9.322   3.503  0.4887  0.1859  0.1291
  730MOL0     C  657   8.954   9.171   3.722  0.9420  0.2617 -0.4020
  730MOL0     C  658   8.908   9.228   3.847  1.0969 -0.1089  0.3747
  730MOL0     C  659   8.810   9.158   3.922  0.6844  0.4484  0.9261
  730MOL0     C  660   8.760   9.027   3.874 -0.0328  0.3526  0.0824
  730MOL0     O  661   8.672   8.965   3.961 -0.0125  0.9299  0.2333
  730MOL0     C  662   8.665   8.824   3.940 -0.5133  0.1241  0.2412
  730MOL0     C  663   8.569   8.747   4.039  0.9443  0.0876 -0.0405
  730MOL0     C  664   8.559   8.602   3.992 -0.4934  1.0649 -0.7084
  730MOL0     C  665   8.450   8.539   4.083 -0.6004 -0.9134  0.2631
  730MOL0     C  666   8.319   8.577   4.041  0.5158 -0.4085  0.3086
  730MOL0     C  667   8.211   8.605   3.984 -0.2599  0.6294  0.4213
  730MOL0     C  668   8.806   8.983   3.741 -0.0139  0.0881 -0.2860
  730MOL0     C  669   8.896   9.058   3.664  0.6894  0.6200 -0.5981
  730MOL0     C  670   8.914   9.009   3.527 -0.2203 -0.3496  0.3927
  730MOL0     H  671   9.332   9.408   3.826  2.7019 -4.9182  1.0567
  730MOL0     H  672   9.542   9.533   3.728 -2.3772  3.5847 -2.0226
  730MOL0     H  673   9.660   9.738   3.463  1.7855 -3.0165  0.0232
  730MOL0     H  674   9.523   9.722   3.561  2.9691  4.1730 -0.7741
  730MOL0     H  675   9.537   9.688   3.253 -1.4451  3.0194 -2.4867
  730MOL0     H  676   9.390   9.681   3.336  0.4716  1.3601 -1.3579
  730MOL0     H  677   9.424   9.928   3.402  0.4018 -0.3445 -0.0177
  730MOL0     H  678   9.590   9.920   3.329  0.4217  0.3884  1.1005
  730MOL0     H  679   9.327   9.876   3.178  0.0973  0.7894 -1.5508
  730MOL0     H  680   9.399  10.030   3.193 -1.5688 -0.5275 -1.1836
  730MOL0     H  681   9.577   9.791   3.100  0.2435 -1.6848 -4.4362
  730MOL0     H  682   9.582   9.956   3.035  1.7357 -0.5991 -0.4337
  730MOL0     H  683   9.423   9.722   2.944 -3.1947 -0.5166 -3.2395
  730MOL0     H  684   9.324   9.866   2.932 -0.5191 -0.1499  0.6149
  730MOL0     H  685   9.598   9.800   2.817  0.7114  2.0470  1.0623
  730MOL0     H  686   9.529   9.963   2.801  0.0082  0.5325  0.8183
  730MOL0     H  687   9.380   9.730   2.696  1.9856 -0.3584  3.1250
  730MOL0     H  688   9.345   9.902   2.690  0.9265  0.8161 -0.6929
  730MOL0     H  689   9.373   9.987   2.468  0.1328  0.2607  0.5675
  730MOL0     H  690   9.519  10.014   2.209 -0.1915  0.4938 -1.6834
  730MOL0     H  691   9.690  10.026   2.228 -1.5277  2.5029 -4.9186
  730MOL0     H  692   9.575  10.243   2.194 -0.9276 -0.5849 -0.5094
  730MOL0     H  693   9.483  10.228   2.341  1.3565 -1.9338  3.3531
  730MOL0     H  694   9.679  10.341   2.418 -0.8099  0.6747 -2.1565
  730MOL0     H  695   9.734  10.178   2.446  0.3926 -0.2371 -0.1264
  730MOL0     H  696   9.843  10.208   2.196 -3.9159  0.4242 -1.3916
  730MOL0     H  697   9.773  10.373   2.209  1.9720  2.4926  1.6941
  730MOL0     H  698  10.133  10.449   2.446  2.9829 -1.0776 -2.2798
  730MOL0     H  699  10.414  10.325   2.637  1.1678  2.2112  1.1360
  730MOL0     H  700  10.263  10.395   2.727 -1.5701 -2.5850  0.6353
  730MOL0     H  701  10.340  10.458   2.577  0.1281 -0.0663 -0.0259
  730MOL0     H  702  10.593   9.907   2.620  0.2089  0.5259  0.0092
  730MOL0     H  703  10.737   9.796   2.804  0.4241  1.0740  0.2198
  730MOL0     H  704  10.944   9.891   2.957 -0.5203  1.9916  0.4285
  730MOL0     H  705  10.885  10.008   3.071 -0.3353  0.4371  2.1315
  730MOL0     H  706  10.921   9.727   3.180  2.2672 -1.6716 -2.1138
  730MOL0     H  707  11.064   9.804   3.129  0.2627 -0.4810 -0.2908
  730MOL0     H  708  10.871   9.952   3.313 -0.4080 -0.4538  3.4636
  730MOL0     H  709  11.050   9.955   3.309  0.6818 -0.7367 -0.5952
  730MOL0     H  710  11.067   9.723   3.414 -0.5383  0.5181  0.4093
  730MOL0     H  711  10.883   9.736   3.434 -0.9513 -0.6050 -5.0166
  730MOL0     H  712  10.936   9.961   3.550 -3.6611 -1.1798 -1.9906
  730MOL0     H  713  10.972   9.822   3.641 -0.0642 -0.0822 -0.7657
  730MOL0     H  714  11.178   9.976   3.476  2.9522  1.1243  1.4702
  730MOL0     H  715  11.206   9.815   3.547 -1.2331 -0.9689 -1.6559
  730MOL0     H  716  11.151   9.918   3.774 -0.7712  0.2970  0.6547
  730MOL0     H  717  11.135  10.073   3.706 -2.5583 -1.8087  3.3020
  730MOL0     H  718  11.389   9.911   3.694 -0.7145 -0.6096 -1.8950
  730MOL0     H  719  11.367  10.042   3.806 -2.7779  1.6626  0.2689
  730MOL0     H  720  10.624  10.092   3.086 -1.1652 -2.4084  2.1396
  730MOL0     H  721  10.461  10.183   2.922 -1.1820 -1.6137  1.0366
  730MOL0     H  722  10.111   9.955   2.498  4.8094  0.9035 -1.7968
  730MOL0     H  723   9.950  10.068   2.364  1.5658 -0.9585 -2.0942
  730MOL0     H  724   9.428   9.384   3.345 -1.5351 -2.6670 -0.1194
  730MOL0     H  725   9.238   9.265   3.441 -1.4092  1.3077  1.0727
  730MOL0     H  726   8.933   9.327   3.882 -0.9269  0.4981  0.1991
  730MOL0     H  727   8.756   9.205   4.004  0.7346 -2.1347  2.5452
  730MOL0     H  728   8.619   8.808   3.842 -0.0324 -1.3727  0.2457
  730MOL0     H  729   8.762   8.774   3.944 -0.3593  0.4204  4.0228
  730MOL0     H  730   8.474   8.800   4.027  1.0254  0.2744  0.1206
  730MOL0     H  731   8.600   8.759   4.143  2.2806  1.0860 -0.5198
  730MOL0     H  732   8.542   8.591   3.884 -0.0973  2.1072 -0.8845
  730MOL0     H  733   8.658   8.557   4.007 -0.7722 -0.8932 -3.7779
  730MOL0     H  734   8.460   8.576   4.185  0.0156 -1.9013  0.5775
  730MOL0     H  735   8.477   8.433   4.073 -0.9150 -0.8370 -1.9177
  730MOL0     H  736   8.111   8.617   3.947 -1.8864 -0.7321  3.8960
  730MOL0     H  737   8.775   8.883   3.711 -0.7099  0.3292 -0.3876
  730MOL0     H  738   8.887   8.906   3.502 -0.8493  0.0277 -0.5204
  730MOL0     H  739   8.854   9.075   3.464 -1.4088 -2.2567 -0.5594
  730MOL0     H  740   9.018   9.026   3.499  0.0752 -1.1458  0.9638
  731MOL0     O  741   0.102   4.120   7.321 -0.2134 -0.1767  0.1069
  731MOL0     C  742   0.088   4.074   7.436  0.6869  0.0586  0.1246
  731MOL0     O  743   0.135   4.143   7.552  0.3620  0.8908  1.1311
  731MOL0     C  744   0.214   4.252   7.534  0.2898 -1.9369 -0.1741
  731MOL0     C  745   0.342   4.246   7.490  0.2548 -0.5440  0.3117
  731MOL0     C  746   0.412   4.369   7.480 -0.4179 -0.7325  0.3885
  731MOL0     C  747   0.353   4.496   7.490 -0.4193 -0.9630  0.2051
  731MOL0     O  748   0.439   4.601   7.475  0.0498  0.2013  0.3165
  731MOL0     C  749   0.381   4.716   7.400  0.0613  0.5651 -0.8457
  731MOL0     C  750   0.488   4.816   7.371 -0.8428 -1.1654  0.9197
  731MOL0     C  751   0.432   4.951   7.326 -1.2874  0.5815 -0.2703
  731MOL0     C  752   0.544   5.058   7.300  0.1789 -0.4934  1.0622
  731MOL0     C  753   0.495   5.163   7.204 -0.1138 -0.0209  0.6371
  731MOL0     C  754   0.595   5.278   7.176 -0.4644 -0.8273  0.2917
  731MOL0     C  755   0.531   5.388   7.071 -0.2499  0.2744  0.3471
  731MOL0     C  756   0.608   5.492   7.010  0.1717 -0.3166 -0.4794
  731MOL0     N  757   0.693   5.560   7.111 -0.1188 -0.0134  0.5720
  731MOL0     C  758   0.651   5.594   7.237  0.3149 -0.1644  0.7510
  731MOL0     C  759   0.766   5.647   7.288  0.5729 -0.4741  0.4670
  731MOL0     C  760   0.791   5.708   7.423 -0.0299 -1.1299  0.5286
  731MOL0     C  761   0.734   5.858   7.426  0.1122  0.9908  0.1436
  731MOL0     C  762   0.760   5.927   7.569 -0.2586 -0.5667  0.2604
  731MOL0     C  763   0.901   5.949   7.633 -0.0271  0.6284  0.1026
  731MOL0     O  764   1.017   5.949   7.553 -1.1223  0.2332 -0.3147
  731MOL0     C  765   1.037   6.039   7.455  0.4584 -0.0097  1.3898
  731MOL0     C  766   0.961   6.159   7.434  0.3297 -0.3305  0.3175
  731MOL0     C  767   0.986   6.245   7.331  0.5622 -0.2284  0.1714
  731MOL0     C  768   0.886   6.363   7.316 -0.0839  0.2457  0.2541
  731MOL0     C  769   1.090   6.212   7.239 -0.8201 -0.2721  0.4901
  731MOL0     C  770   1.137   6.298   7.127 -0.6217 -0.4034 -0.2318
  731MOL0     O  771   1.248   6.262   7.055  0.1903 -0.1262  0.1919
  731MOL0     C  772   1.277   6.342   6.947  0.0031  0.1888 -0.0944
  731MOL0     C  773   1.283   6.289   6.819  0.1208 -0.4870 -0.1155
  731MOL0     C  774   1.325   6.369   6.707 -0.1133  0.2326  0.6478
  731MOL0     C  775   1.365   6.499   6.726  0.3482 -0.2774 -0.6930
  731MOL0     O  776   1.388   6.588   6.625  0.5520  0.7759 -0.4309
  731MOL0     C  777   1.475   6.549   6.522 -0.4163 -0.3093  1.3724
  731MOL0     C  778   1.621   6.588   6.552  0.0316  0.2653  0.2093
  731MOL0     C  779   1.638   6.736   6.594  0.1300 -0.6688 -0.3687
  731MOL0     C  780   1.784   6.770   6.593  0.3882 -0.6902 -0.4315
  731MOL0     C  781   1.821   6.918   6.590 -0.0661  0.0133  0.3010
  731MOL0     C  782   1.790   6.999   6.723 -0.1559  0.0306 -0.5208
  731MOL0     C  783   1.876   7.126   6.732  0.3559  0.8367  0.1706
  731MOL0     C  784   1.856   7.212   6.610  0.0667  0.7491 -0.0940
  731MOL0    Cl  785   1.933   7.370   6.633 -0.1329  0.3110  0.3520
  731MOL0     C  786   1.355   6.551   6.860  0.7693  0.3332  0.0729
  731MOL0     C  787   1.312   6.471   6.969 -0.5802  0.2051  0.5432
  731MOL0     O  788   1.074   6.399   7.103 -0.0651 -0.1809 -0.1398
  731MOL0     C  789   1.152   6.093   7.245  0.4658  0.4034  0.1166
  731MOL0     C  790   1.135   6.006   7.351 -0.3892  0.4984  0.2581
  731MOL0     N  791   0.866   5.655   7.183 -1.3314  0.0079 -0.9091
  731MOL0     N  792   0.826   5.591   7.082  0.7222  0.2151 -0.3985
  731MOL0     C  793   0.223   4.507   7.537 -0.0460 -0.8292 -0.0001
  731MOL0     C  794   0.157   4.383   7.565 -0.1695 -0.1287 -0.1361
  731MOL0     C  795   0.018   3.954   7.479  0.2169 -0.4059  0.1835
  731MOL0     C  796   0.027   3.911   7.685  0.0267  0.3070 -0.4298
  731MOL0     C  797  -0.040   3.713   7.759 -1.0233 -0.2397 -1.1312
  731MOL0     C  798  -0.106   3.571   7.618 -0.7306 -0.3328 -1.1425
  731MOL0     O  799  -0.145   3.455   7.678  0.0247  0.3838 -0.3373
  731MOL0     C  800  -0.206   3.353   7.590  0.3182 -0.5626  0.5759
  731MOL0     C  801  -0.157   3.222   7.635 -0.7626  0.1457  0.1000
  731MOL0     C  802  -0.013   3.169   7.612 -0.1656  0.8223 -0.3618
  731MOL0     C  803   0.102   3.249   7.685 -0.2054 -0.0943  0.3384
  731MOL0     C  804   0.181   3.328   7.583 -0.3587  0.3948 -0.8206
  731MOL0     C  805   0.253   3.394   7.514  1.5713  0.8054 -0.2161
  731MOL0     C  806  -0.112   3.615   7.416  0.3136 -0.1523 -0.3152
  731MOL0     C  807  -0.054   3.810   7.344 -0.2463  0.0924  0.3214
  731MOL0     C  808  -0.074   3.852   7.202  0.0566  0.2288 -0.6302
  731MOL0     H  809   0.395   4.156   7.461 -0.3010 -1.3068  1.5901
  731MOL0     H  810   0.517   4.362   7.454 -0.7120  1.5047 -1.8082
  731MOL0     H  811   0.296   4.756   7.456 -0.7789 -1.2599 -0.7526
  731MOL0     H  812   0.341   4.679   7.305 -3.5281  1.4479  0.1583
  731MOL0     H  813   0.556   4.817   7.457  0.9596 -0.7987 -0.4374
  731MOL0     H  814   0.541   4.784   7.281  0.3499  0.9691  0.7734
  731MOL0     H  815   0.367   4.939   7.239  2.4646  0.7104 -3.4084
  731MOL0     H  816   0.366   4.995   7.400  2.0569  3.8686  1.0651
  731MOL0     H  817   0.563   5.107   7.396 -0.3775 -0.5757  1.2177
  731MOL0     H  818   0.634   5.007   7.264  0.1586 -1.4475  2.3165
  731MOL0     H  819   0.405   5.213   7.243 -2.1251 -1.8334 -1.4299
  731MOL0     H  820   0.471   5.115   7.109 -1.3817 -0.9129  1.3899
  731MOL0     H  821   0.606   5.334   7.269 -1.8799  0.2107 -0.1345
  731MOL0     H  822   0.692   5.247   7.137 -0.0996  0.3886  0.1966
  731MOL0     H  823   0.450   5.446   7.116 -2.6525 -0.7511 -2.3293
  731MOL0     H  824   0.495   5.329   6.986  1.9319 -0.7002  0.0344
  731MOL0     H  825   0.664   5.441   6.931  0.1659  0.6228 -1.1031
  731MOL0     H  826   0.538   5.566   6.970 -0.0222 -1.1799 -1.7855
  731MOL0     H  827   0.560   5.567   7.290  0.0092 -3.2850 -1.1325
  731MOL0     H  828   0.899   5.706   7.441 -0.1979 -0.1606  1.8158
  731MOL0     H  829   0.739   5.660   7.506  0.4235  1.1131  2.2072
  731MOL0     H  830   0.790   5.921   7.356  2.7879  1.6622  2.7094
  731MOL0     H  831   0.627   5.852   7.403  0.5088 -2.1554 -1.4649
  731MOL0     H  832   0.724   6.030   7.557  1.6248  0.0769 -0.1565
  731MOL0     H  833   0.702   5.879   7.649 -1.3443  3.8649  2.4672
  731MOL0     H  834   0.894   6.048   7.680 -1.0512  0.4242  0.3983
  731MOL0     H  835   0.911   5.879   7.717 -0.1374 -1.7648 -1.7664
  731MOL0     H  836   0.888   6.181   7.511  1.4981 -0.0711  1.3917
  731MOL0     H  837   0.814   6.382   7.395 -2.1017  0.4831 -1.5477
  731MOL0     H  838   0.822   6.355   7.227 -0.8197  3.2188  0.4222
  731MOL0     H  839   0.943   6.456   7.307  0.0482  0.3199  1.6421
  731MOL0     H  840   1.265   6.183   6.803  1.7547 -0.6056 -1.5540
  731MOL0     H  841   1.336   6.335   6.605  2.2260  4.2964 -0.6958
  731MOL0     H  842   1.461   6.445   6.491  1.4382 -0.0502 -0.5386
  731MOL0     H  843   1.436   6.614   6.443 -1.2410 -0.0427  1.9842
  731MOL0     H  844   1.667   6.529   6.632  0.5407  1.0392  0.5064
  731MOL0     H  845   1.684   6.575   6.463  1.6996  2.6326  0.9453
  731MOL0     H  846   1.605   6.751   6.698 -0.5703 -1.0755 -0.5301
  731MOL0     H  847   1.584   6.797   6.522  1.3182  3.2429  1.7417
  731MOL0     H  848   1.822   6.732   6.497  0.9423 -1.1981 -0.0234
  731MOL0     H  849   1.840   6.726   6.676  1.3290  0.4831 -0.4150
  731MOL0     H  850   1.928   6.921   6.569  0.5174  0.4739  3.0121
  731MOL0     H  851   1.772   6.967   6.506 -1.3779 -1.8455 -0.0776
  731MOL0     H  852   1.810   6.928   6.804 -1.8005 -1.8513 -1.6522
  731MOL0     H  853   1.685   7.030   6.731  0.1880  0.6765  2.3022
  731MOL0     H  854   1.976   7.084   6.744 -0.9986 -2.8949 -0.0537
  731MOL0     H  855   1.836   7.183   6.816 -3.0000 -1.3045  0.2270
  731MOL0     H  856   1.753   7.239   6.585 -0.3700 -0.9088 -0.1374
  731MOL0     H  857   1.889   7.165   6.517 -1.3961  0.8587 -0.6975
  731MOL0     H  858   1.362   6.656   6.885  1.5022 -0.1087  1.8115
  731MOL0     H  859   1.317   6.509   7.070  1.4356  1.4562  0.0331
  731MOL0     H  860   1.225   6.067   7.170 -1.2128  0.7493 -1.7247
  731MOL0     H  861   1.194   5.917   7.372 -0.5072 -0.5575 -3.2622
  731MOL0     H  862   0.175   4.603   7.552 -2.2673 -1.6438 -1.3878
  731MOL0     H  863   0.053   4.375   7.593  0.7416 -3.1138  3.0919
  731MOL0     H  864   0.078   3.980   7.752  1.3379 -3.3767  2.7624
  731MOL0     H  865  -0.039   3.704   7.867 -2.1832  3.5911 -0.6313
  731MOL0     H  866  -0.309   3.347   7.627  0.9728 -1.1773  2.4110
  731MOL0     H  867  -0.210   3.365   7.481  0.8966 -1.2704  0.4745
  731MOL0     H  868  -0.219   3.153   7.578  1.1333  0.0562 -2.0211
  731MOL0     H  869  -0.180   3.196   7.739  0.2685 -0.4241  0.1978
  731MOL0     H  870  -0.001   3.066   7.649  2.3568  1.4534  0.7384
  731MOL0     H  871   0.021   3.171   7.508  0.2314  3.5359 -0.2372
  731MOL0     H  872   0.176   3.180   7.726 -2.4755 -1.1531  2.9406
  731MOL0     H  873   0.074   3.313   7.769  4.0042 -0.2716  2.1476
  731MOL0     H  874   0.322   3.446   7.451 -0.4675  0.3955 -2.9810
  731MOL0     H  875  -0.151   3.550   7.339 -0.1824 -0.1280 -0.0889
  731MOL0     H  876  -0.037   3.766   7.146 -1.1562  0.9002 -2.5194
  731MOL0     H  877  -0.181   3.862   7.184  0.1819 -0.1289 -1.6457
  731MOL0     H  878  -0.013   3.937   7.171  1.2748 -0.2913  0.2665
  732MOL0     O  879   6.171   4.126   5.429 -0.3635 -0.9951 -0.1120
  732MOL0     C  880   6.200   4.019   5.492  0.3068  0.6863 -0.1606
  732MOL0     O  881   6.109   3.933   5.539 -0.2460 -0.0716  0.2033
  732MOL0     C  882   5.978   3.975   5.518  0.4034 -0.9763  0.5609
  732MOL0     C  883   5.917   3.922   5.408  0.3050  0.0756 -0.3210
  732MOL0     C  884   5.782   3.950   5.383 -0.0423 -0.4010 -0.2638
  732MOL0     C  885   5.718   4.054   5.455 -0.5237 -0.2929 -0.4008
  732MOL0     O  886   5.593   4.103   5.419  0.2796  0.2024  0.1628
  732MOL0     C  887   5.517   4.044   5.324  0.7976 -0.3178 -0.0990
  732MOL0     C  888   5.374   4.086   5.348  0.3356 -0.5646  0.3999
  732MOL0     C  889   5.284   4.044   5.227 -0.5824 -0.5199  0.2548
  732MOL0     C  890   5.291   3.900   5.177 -0.1982  0.2490 -0.8364
  732MOL0     C  891   5.219   3.900   5.041  0.2517 -0.2260 -0.4192
  732MOL0     C  892   5.174   3.763   4.993  0.1329  0.0879 -0.7351
  732MOL0     C  893   5.125   3.783   4.845 -0.2005 -0.4126 -1.2538
  732MOL0     C  894   5.040   3.668   4.821 -0.2684  0.3478  0.7246
  732MOL0     N  895   4.964   3.663   4.693  0.5347 -0.8790  0.2720
  732MOL0     C  896   4.965   3.562   4.599  0.6438  0.3359  0.5547
  732MOL0     C  897   4.864   3.590   4.504 -0.6548  0.2488 -0.5550
  732MOL0     C  898   4.807   3.526   4.377 -0.5678  0.0010  0.1043
  732MOL0     C  899   4.664   3.481   4.382 -0.1695 -0.4828 -0.6132
  732MOL0     C  900   4.610   3.435   4.235 -0.2675 -0.8001 -0.3636
  732MOL0     C  901   4.502   3.333   4.243  0.2673 -0.2666 -0.3731
  732MOL0     O  902   4.559   3.219   4.308 -0.4735  0.6037 -0.3292
  732MOL0     C  903   4.487   3.103   4.305 -1.4647 -0.3140 -1.0709
  732MOL0     C  904   4.550   2.981   4.347  0.5255  0.2591  1.4364
  732MOL0     C  905   4.484   2.859   4.360  0.8374  0.1731  0.9294
  732MOL0     C  906   4.568   2.741   4.395 -0.0713 -0.0642 -0.4760
  732MOL0     C  907   4.339   2.858   4.323  0.3860 -0.4265 -0.6281
  732MOL0     C  908   4.254   2.744   4.342 -0.4285 -0.0011  0.8610
  732MOL0     O  909   4.121   2.764   4.328  0.0963 -0.3862 -0.2830
  732MOL0     C  910   4.037   2.660   4.351  0.0752 -0.3504 -0.1364
  732MOL0     C  911   3.969   2.614   4.241  0.0807 -0.0846 -1.9203
  732MOL0     C  912   3.863   2.516   4.253 -0.2630 -0.2041 -0.1367
  732MOL0     C  913   3.836   2.462   4.384 -0.4132 -0.5599 -0.0319
  732MOL0     O  914   3.744   2.361   4.377 -0.1767  0.6182  0.2370
  732MOL0     C  915   3.669   2.334   4.495  0.2140 -0.2625  0.3640
  732MOL0     C  916   3.560   2.234   4.464 -0.0432 -0.4971 -0.8031
  732MOL0     C  917   3.603   2.103   4.397 -0.1316  0.1994 -0.4572
  732MOL0     C  918   3.687   2.029   4.498 -0.0927 -0.9592 -0.4681
  732MOL0     C  919   3.728   1.888   4.433 -0.1529 -0.5704  0.1283
  732MOL0     C  920   3.837   1.826   4.513 -0.4429  0.1182 -0.5325
  732MOL0     C  921   3.877   1.684   4.453 -0.5087 -0.8644 -0.0703
  732MOL0     C  922   3.778   1.571   4.468  0.4431 -0.0054  0.5304
  732MOL0    Cl  923   3.735   1.518   4.631  0.0986 -0.3736  0.5746
  732MOL0     C  924   3.910   2.511   4.503  0.3256  0.1135 -0.3032
  732MOL0     C  925   4.010   2.606   4.482  0.1829 -0.0071  0.0520
  732MOL0     O  926   4.303   2.632   4.364  0.6177  0.1878 -0.7931
  732MOL0     C  927   4.280   2.982   4.287  0.1325 -0.3049  0.3741
  732MOL0     C  928   4.352   3.097   4.274  0.4433 -0.0965 -0.4610
  732MOL0     N  929   4.812   3.716   4.544  0.1908  0.2780  0.2404
  732MOL0     N  930   4.868   3.748   4.658  0.8166 -0.1405 -0.6272
  732MOL0     C  931   5.778   4.110   5.576 -0.6551  0.2733 -0.1770
  732MOL0     C  932   5.910   4.062   5.609  0.2729  0.3817  1.1741
  732MOL0     C  933   6.344   3.996   5.518  0.6058 -0.0947  0.1275
  732MOL0     C  934   6.383   3.868   5.574 -0.0348 -0.8153  0.7722
  732MOL0     C  935   6.507   3.822   5.577  0.9049 -0.1741  0.3611
  732MOL0     C  936   6.618   3.899   5.541 -0.2899 -0.4595  0.8393
  732MOL0     O  937   6.749   3.854   5.536 -0.8925 -0.1641  0.5220
  732MOL0     C  938   6.775   3.750   5.433  0.3316  0.6659  0.5909
  732MOL0     C  939   6.902   3.687   5.470 -0.3699  0.2743  0.6113
  732MOL0     C  940   6.981   3.631   5.342 -0.7643  0.3139 -0.8588
  732MOL0     C  941   7.126   3.601   5.376  0.2942  0.5461  0.0173
  732MOL0     C  942   7.144   3.495   5.484  0.0219  0.5921 -0.2689
  732MOL0     C  943   7.158   3.404   5.557  0.9362  0.5159 -1.0457
  732MOL0     C  944   6.591   4.034   5.513 -0.2807  0.1132 -0.8484
  732MOL0     C  945   6.458   4.083   5.500 -0.4358 -0.4738  0.3755
  732MOL0     C  946   6.446   4.232   5.460  0.4255 -0.5868  0.4736
  732MOL0     H  947   5.958   3.845   5.343 -0.4752  0.5262 -1.3878
  732MOL0     H  948   5.737   3.901   5.297 -0.0611 -0.7765 -0.0440
  732MOL0     H  949   5.520   3.934   5.327 -1.0861 -0.4351 -0.6732
  732MOL0     H  950   5.544   4.077   5.224  0.9292  2.1507  0.7005
  732MOL0     H  951   5.345   4.033   5.439  0.3762 -0.1872  0.6358
  732MOL0     H  952   5.365   4.194   5.361  0.2731 -0.4425 -0.6342
  732MOL0     H  953   5.179   4.062   5.252 -1.4219 -2.8294 -1.2738
  732MOL0     H  954   5.317   4.101   5.140 -0.7687 -1.3653 -0.3797
  732MOL0     H  955   5.393   3.862   5.166 -0.0515 -0.3782  1.9010
  732MOL0     H  956   5.242   3.842   5.256  0.4622  0.9212  0.0877
  732MOL0     H  957   5.300   3.919   4.971  0.0069 -0.2424 -0.7078
  732MOL0     H  958   5.147   3.981   5.023  0.7049 -0.1545 -2.0130
  732MOL0     H  959   5.258   3.694   5.011 -0.9345 -0.9864  0.2483
  732MOL0     H  960   5.098   3.734   5.065  0.6301  1.7372  0.5172
  732MOL0     H  961   5.206   3.794   4.772  1.8782  1.7967  1.1822
  732MOL0     H  962   5.071   3.878   4.842  0.9682  0.3668  0.4323
  732MOL0     H  963   5.112   3.585   4.816  0.5516  1.0473  0.7658
  732MOL0     H  964   4.967   3.649   4.899 -0.5176  1.7314  0.8357
  732MOL0     H  965   5.033   3.478   4.599  0.0705 -0.1715 -1.0608
  732MOL0     H  966   4.870   3.438   4.362 -1.9421 -1.2403  1.2008
  732MOL0     H  967   4.818   3.587   4.288 -1.6604 -2.6687 -2.0123
  732MOL0     H  968   4.671   3.399   4.453  0.5894  1.2565  1.4287
  732MOL0     H  969   4.602   3.559   4.427  1.3346 -0.1936  1.0428
  732MOL0     H  970   4.569   3.528   4.194 -0.8799 -1.5907 -1.6039
  732MOL0     H  971   4.694   3.400   4.174  1.5148  1.4082  0.6775
  732MOL0     H  972   4.427   3.381   4.307  0.5872  1.3751 -1.1673
  732MOL0     H  973   4.467   3.306   4.144  2.1153 -2.3975 -0.5218
  732MOL0     H  974   4.654   2.977   4.376  1.5303  0.4275 -1.7876
  732MOL0     H  975   4.654   2.769   4.456 -0.6466 -0.7402  0.6950
  732MOL0     H  976   4.611   2.695   4.306  3.5548  1.8381  0.1051
  732MOL0     H  977   4.518   2.658   4.446 -1.2797  1.6254  1.2093
  732MOL0     H  978   3.975   2.664   4.145  0.8218  2.3362 -0.7008
  732MOL0     H  979   3.794   2.490   4.173 -2.0400  1.5238  0.7454
  732MOL0     H  980   3.736   2.305   4.576  2.0552 -1.5059 -1.5090
  732MOL0     H  981   3.619   2.428   4.523 -1.9922 -1.0788 -0.6295
  732MOL0     H  982   3.504   2.201   4.552  0.6241  1.3181  0.3690
  732MOL0     H  983   3.491   2.281   4.394  0.6014 -0.7082 -1.6046
  732MOL0     H  984   3.673   2.111   4.314 -0.5960 -0.4514 -0.9179
  732MOL0     H  985   3.515   2.044   4.370 -2.5805  3.0035  0.7162
  732MOL0     H  986   3.626   2.024   4.589 -1.7619  2.1153 -1.2551
  732MOL0     H  987   3.772   2.093   4.519 -0.4738 -0.7956  0.6277
  732MOL0     H  988   3.643   1.818   4.430 -2.2724  1.5938  3.0083
  732MOL0     H  989   3.764   1.909   4.332 -1.4003 -2.3018 -0.7205
  732MOL0     H  990   3.813   1.810   4.618  0.7999 -0.9204 -0.3956
  732MOL0     H  991   3.923   1.893   4.515 -0.0215 -0.4392  0.4835
  732MOL0     H  992   3.967   1.650   4.505 -1.4453  0.6496  2.7368
  732MOL0     H  993   3.891   1.697   4.345 -3.2270 -2.8033 -0.7523
  732MOL0     H  994   3.816   1.487   4.410  0.4225  2.9045 -4.2040
  732MOL0     H  995   3.685   1.599   4.418  0.9416  0.6209 -0.0821
  732MOL0     H  996   3.874   2.482   4.601 -0.1221 -2.5027 -1.1693
  732MOL0     H  997   4.065   2.659   4.559  1.0617  1.7126 -1.6836
  732MOL0     H  998   4.174   2.976   4.267  0.7238 -2.7337 -3.0785
  732MOL0     H  999   4.294   3.187   4.256  1.6152  0.5411 -1.1854
  732MOL0     H 1000   5.714   4.177   5.634 -2.7611 -2.8440  1.4035
  732MOL0     H 1001   5.966   4.091   5.698 -0.9191  3.5532  1.0309
  732MOL0     H 1002   6.318   3.791   5.616  0.5074 -1.7805 -0.1209
  732MOL0     H 1003   6.523   3.720   5.610 -3.5806 -0.2304  3.3102
  732MOL0     H 1004   6.698   3.673   5.441  0.1490  0.8032  0.1871
  732MOL0     H 1005   6.774   3.782   5.329 -0.3384  1.1393  0.7401
  732MOL0     H 1006   6.880   3.611   5.546 -1.5513 -0.6061 -0.5642
  732MOL0     H 1007   6.964   3.766   5.513  0.7522  0.7335 -1.7308
  732MOL0     H 1008   6.934   3.540   5.303 -1.1789 -0.1351  0.6193
  732MOL0     H 1009   6.979   3.707   5.263 -0.9242  0.0307 -1.1302
  732MOL0     H 1010   7.168   3.695   5.414 -1.7750  1.5797 -0.1183
  732MOL0     H 1011   7.175   3.568   5.285  1.9315  0.8877  0.7369
  732MOL0     H 1012   7.136   3.305   5.591 -0.3315  1.1388  0.0534
  732MOL0     H 1013   6.679   4.097   5.498 -1.4490  1.5737 -2.0624
  732MOL0     H 1014   6.356   4.282   5.496 -0.0028  1.1098 -2.6340
  732MOL0     H 1015   6.535   4.286   5.492  0.3624 -0.0937 -0.1767
  732MOL0     H 1016   6.435   4.240   5.352 -4.1252 -3.9309  0.4014
  733MOL0     O 1017   4.496   8.828   9.874 -0.8452  0.8501  0.0070
  733MOL0     C 1018   4.471   8.786   9.991  0.3118 -0.3713 -0.0475
  733MOL0     O 1019   4.495   8.860  10.111  0.1325 -0.1132 -0.3888
  733MOL0     C 1020   4.573   8.974  10.112 -0.1278 -0.4355  1.2471
  733MOL0     C 1021   4.689   8.987  10.181 -0.5288 -1.1456 -0.0565
  733MOL0     C 1022   4.759   9.105  10.183  0.5787 -0.6408 -0.3563
  733MOL0     C 1023   4.718   9.214  10.109 -0.3931 -0.4343  0.5120
  733MOL0     O 1024   4.801   9.326  10.108  0.3819 -0.2122 -0.0912
  733MOL0     C 1025   4.842   9.368   9.974 -1.1670 -0.6813 -0.7497
  733MOL0     C 1026   4.971   9.294   9.947  0.3231  0.1579  0.1004
  733MOL0     C 1027   4.951   9.183   9.845  0.7060  0.1091  0.0759
  733MOL0     C 1028   5.081   9.136   9.787 -0.8094  1.2272 -0.8209
  733MOL0     C 1029   5.078   9.052   9.658 -0.0204  0.7195  0.0719
  733MOL0     C 1030   5.216   9.051   9.599 -0.1691 -0.0937  0.4729
  733MOL0     C 1031   5.233   8.989   9.458 -0.3210  0.2057  0.5275
  733MOL0     C 1032   5.366   9.025   9.398  0.6376  0.5386  0.5076
  733MOL0     N 1033   5.481   8.997   9.480 -0.4826 -0.3157 -0.7425
  733MOL0     C 1034   5.589   9.086   9.494  0.2045  0.1844 -0.0615
  733MOL0     C 1035   5.689   9.016   9.553 -0.5752  0.8282  1.0979
  733MOL0     C 1036   5.827   9.067   9.592  0.2564 -0.5265  0.6613
  733MOL0     C 1037   5.934   8.958   9.585 -0.1318  0.1214 -0.7380
  733MOL0     C 1038   6.069   9.021   9.612  0.2733  0.3108 -0.2313
  733MOL0     C 1039   6.177   8.922   9.640 -0.2524  0.2689  0.2599
  733MOL0     O 1040   6.228   8.849   9.529 -0.7307 -0.2371 -0.0557
  733MOL0     C 1041   6.327   8.754   9.549  0.3502  0.7573  0.5858
  733MOL0     C 1042   6.362   8.688   9.426 -0.0762 -0.2365  0.1929
  733MOL0     C 1043   6.442   8.569   9.417 -0.2938  0.5815 -0.4242
  733MOL0     C 1044   6.482   8.514   9.283 -0.0255  0.1505 -0.0143
  733MOL0     C 1045   6.485   8.523   9.542 -0.0439  0.6167 -0.2197
  733MOL0     C 1046   6.572   8.397   9.563  0.5390 -0.6585  1.1413
  733MOL0     O 1047   6.583   8.354   9.692 -0.2797 -0.0418  0.1488
  733MOL0     C 1048   6.640   8.234   9.719 -0.9760  0.8183  0.0691
  733MOL0     C 1049   6.555   8.131   9.695  0.2565 -0.3122 -0.2724
  733MOL0     C 1050   6.596   7.998   9.732  0.0947  0.6153  1.3872
  733MOL0     C 1051   6.712   7.982   9.798 -0.5854 -0.2873  0.0768
  733MOL0     O 1052   6.740   7.853   9.847 -0.3478 -0.0906 -0.4710
  733MOL0     C 1053   6.863   7.839   9.926  0.7650 -0.4004  0.2463
  733MOL0     C 1054   6.910   7.697   9.936  0.0305  0.8938 -0.1922
  733MOL0     C 1055   6.864   7.611   9.812  0.0606  0.6023 -0.0201
  733MOL0     C 1056   6.952   7.487   9.797 -0.0912  0.4401  0.3546
  733MOL0     C 1057   6.943   7.425   9.661  0.0933  0.7369  0.1523
  733MOL0     C 1058   7.045   7.320   9.631 -0.0738  1.3321 -0.5825
  733MOL0     C 1059   7.022   7.195   9.723 -0.3218 -0.0537  0.3427
  733MOL0     C 1060   6.912   7.106   9.669 -0.1076  0.1207  0.5009
  733MOL0    Cl 1061   6.910   6.943   9.755 -0.2380 -0.1330  0.0464
  733MOL0     C 1062   6.802   8.094   9.816 -0.0554 -0.2116 -0.6416
  733MOL0     C 1063   6.771   8.218   9.771  0.3655 -0.0336  0.0391
  733MOL0     O 1064   6.624   8.338   9.466  0.0340  0.8367  0.5225
  733MOL0     C 1065   6.462   8.588   9.661 -0.1818 -1.0500  0.4915
  733MOL0     C 1066   6.372   8.702   9.665 -0.5211 -0.7715 -0.2282
  733MOL0     N 1067   5.640   8.888   9.573 -0.0054  0.5386  0.1713
  733MOL0     N 1068   5.520   8.880   9.534 -0.1548 -1.0527 -0.7004
  733MOL0     C 1069   4.599   9.208  10.044  0.3881  0.3154 -0.2993
  733MOL0     C 1070   4.528   9.088  10.042  0.0068  0.4171 -0.8140
  733MOL0     C 1071   4.401   8.652  10.013 -0.1488 -0.0230  0.5955
  733MOL0     C 1072   4.396   8.595  10.133  0.6890  0.5897 -0.1201
  733MOL0     C 1073   4.317   8.476  10.167 -0.0071 -0.4438 -1.8338
  733MOL0     C 1074   4.255   8.400  10.065 -0.4814 -0.8890 -0.1581
  733MOL0     O 1075   4.206   8.285  10.114  0.4161  0.7209 -0.2705
  733MOL0     C 1076   4.122   8.208  10.015 -0.5562 -1.5119  0.7114
  733MOL0     C 1077   4.184   8.067   9.989  0.4128 -0.3698  0.1140
  733MOL0     C 1078   4.226   7.993  10.116  0.0318 -0.0816  0.4780
  733MOL0     C 1079   4.297   7.854  10.101  1.2269  0.1465 -0.3604
  733MOL0     C 1080   4.409   7.846  10.003 -0.1891 -0.0780 -0.3438
  733MOL0     C 1081   4.499   7.844   9.927  0.4723 -0.2665  0.6030
  733MOL0     C 1082   4.270   8.451   9.932 -0.5394 -0.1592 -0.4345
  733MOL0     C 1083   4.345   8.568   9.906 -0.7968  1.2047  0.6286
  733MOL0     C 1084   4.389   8.596   9.756 -0.6530  0.1670  0.6665
  733MOL0     H 1085   4.712   8.898  10.239 -5.1197 -3.7189 -1.6931
  733MOL0     H 1086   4.858   9.108  10.226  1.0106 -1.3127 -1.2648
  733MOL0     H 1087   4.870   9.474   9.980  1.3340 -1.3893  2.1216
  733MOL0     H 1088   4.761   9.346   9.904  0.0205 -0.3363 -2.2798
  733MOL0     H 1089   5.048   9.363   9.911 -0.9458  1.9868  0.7868
  733MOL0     H 1090   5.006   9.249  10.040  0.1334 -0.4354 -0.1063
  733MOL0     H 1091   4.894   9.099   9.885  2.5460 -1.1113  0.2518
  733MOL0     H 1092   4.891   9.217   9.760  0.5554  1.1734  0.5894
  733MOL0     H 1093   5.146   9.222   9.768  0.0342  0.9799  0.7179
  733MOL0     H 1094   5.131   9.079   9.866 -1.5580 -1.7217 -2.3268
  733MOL0     H 1095   5.002   9.094   9.592 -0.8125 -0.0757  0.4539
  733MOL0     H 1096   5.046   8.949   9.677  3.0996 -1.0219 -2.8363
  733MOL0     H 1097   5.259   9.152   9.602 -0.2412  0.0435 -1.6725
  733MOL0     H 1098   5.267   8.993   9.676  2.1651  2.3891  0.9624
  733MOL0     H 1099   5.157   9.036   9.394 -0.0427 -2.1456 -1.6874
  733MOL0     H 1100   5.210   8.882   9.458 -2.4720  0.5883 -0.6662
  733MOL0     H 1101   5.370   8.979   9.300 -1.4531  2.7397 -0.7271
  733MOL0     H 1102   5.366   9.132   9.374  0.4435  0.1707 -1.2270
  733MOL0     H 1103   5.586   9.192   9.469  0.2510  0.6258  1.6836
  733MOL0     H 1104   5.824   9.111   9.692 -0.5246  1.2578 -0.1018
  733MOL0     H 1105   5.858   9.153   9.532 -1.4227  1.4196  2.3858
  733MOL0     H 1106   5.913   8.868   9.642  1.0309  0.7249  0.7007
  733MOL0     H 1107   5.946   8.935   9.478  1.7730  0.9916 -0.7665
  733MOL0     H 1108   6.090   9.098   9.536 -0.1086  3.4072  2.5815
  733MOL0     H 1109   6.055   9.084   9.700 -1.4478  0.4576 -0.5764
  733MOL0     H 1110   6.265   8.977   9.674  1.3497 -1.5146 -0.8066
  733MOL0     H 1111   6.146   8.851   9.717 -2.0479 -0.8748 -1.4051
  733MOL0     H 1112   6.327   8.728   9.331  0.4020  0.3246  0.2423
  733MOL0     H 1113   6.588   8.532   9.268 -0.0621 -1.2630 -2.6135
  733MOL0     H 1114   6.413   8.556   9.209 -3.2811 -0.2368  2.5344
  733MOL0     H 1115   6.465   8.406   9.270  0.5333 -0.0243  0.6899
  733MOL0     H 1116   6.454   8.151   9.660 -0.0766 -1.2516  0.1173
  733MOL0     H 1117   6.518   7.926   9.709  1.5055 -0.8550  0.9862
  733MOL0     H 1118   6.947   7.898   9.888 -0.2149 -0.4188 -2.1132
  733MOL0     H 1119   6.856   7.868  10.032 -0.8151 -0.2691  0.1378
  733MOL0     H 1120   7.020   7.698   9.938  0.0692  1.7950 -1.4259
  733MOL0     H 1121   6.876   7.658  10.033  2.2701  2.1685  1.2139
  733MOL0     H 1122   6.871   7.672   9.722 -1.1986 -3.7717 -3.4761
  733MOL0     H 1123   6.757   7.589   9.822  0.5373 -0.9196  2.6341
  733MOL0     H 1124   6.937   7.421   9.883  0.4089 -2.4298 -1.6079
  733MOL0     H 1125   7.059   7.503   9.810  0.2050 -1.2992  0.3823
  733MOL0     H 1126   6.842   7.383   9.650  0.5369 -0.7084  1.3784
  733MOL0     H 1127   6.958   7.503   9.586  0.0728 -2.2119 -3.1997
  733MOL0     H 1128   7.139   7.368   9.659  0.9354 -1.3354  1.0410
  733MOL0     H 1129   7.049   7.283   9.528  1.1936 -0.2053 -0.0263
  733MOL0     H 1130   7.015   7.210   9.831 -0.0003 -3.1282  0.8948
  733MOL0     H 1131   7.111   7.132   9.730 -0.2898 -0.4913 -2.6862
  733MOL0     H 1132   6.933   7.092   9.563 -1.4587  2.7976 -0.2091
  733MOL0     H 1133   6.815   7.155   9.684  0.2778  1.1027 -0.1530
  733MOL0     H 1134   6.901   8.101   9.860  1.0652  1.3760 -3.2238
  733MOL0     H 1135   6.835   8.299   9.804 -0.1304 -0.1927  1.4503
  733MOL0     H 1136   6.510   8.558   9.754  1.0382 -3.8042 -0.9318
  733MOL0     H 1137   6.331   8.743   9.757  2.0341  1.3311  0.0944
  733MOL0     H 1138   4.547   9.295  10.004 -0.7699  0.5054  1.4743
  733MOL0     H 1139   4.435   9.082   9.986 -0.5456  0.6982  0.0582
  733MOL0     H 1140   4.445   8.653  10.211  2.0217 -0.7774  0.1151
  733MOL0     H 1141   4.319   8.449  10.272  1.3480 -1.5167 -2.1201
  733MOL0     H 1142   4.019   8.194  10.050 -1.6121 -1.1437 -2.0328
  733MOL0     H 1143   4.108   8.263   9.921 -0.2814 -1.2496  0.8216
  733MOL0     H 1144   4.275   8.081   9.928 -0.2989 -1.6896 -1.3272
  733MOL0     H 1145   4.120   8.004   9.927 -1.8425  3.1667 -1.4794
  733MOL0     H 1146   4.307   8.049  10.164 -1.7860  2.9319  0.3024
  733MOL0     H 1147   4.149   8.001  10.194 -1.5610  1.8261 -1.1513
  733MOL0     H 1148   4.223   7.786  10.056 -0.0562 -0.6256  2.6708
  733MOL0     H 1149   4.331   7.815  10.197 -1.9243  0.5467  1.0443
  733MOL0     H 1150   4.578   7.852   9.854  0.2273  0.9650  0.4516
  733MOL0     H 1151   4.230   8.404   9.843 -2.3565  1.1377 -0.3633
  733MOL0     H 1152   4.351   8.522   9.685  1.0007 -0.1102  0.0187
  733MOL0     H 1153   4.362   8.697   9.723  2.2875  1.3537  1.5368
  733MOL0     H 1154   4.497   8.602   9.741 -0.8607 -0.2433 -1.3680
  734MOL0     O 1155  11.063   8.606   8.493  0.5139 -0.1060 -0.2516
  734MOL0     C 1156  11.171   8.674   8.490  0.1422  0.1615  0.4314
  734MOL0     O 1157  11.198   8.764   8.589 -0.5865  0.5457  0.9104
  734MOL0     C 1158  11.113   8.752   8.695 -0.8099 -0.4870  1.1142
  734MOL0     C 1159  11.120   8.652   8.789 -0.2038 -0.0364 -0.2804
  734MOL0     C 1160  11.034   8.638   8.896  0.2485  0.1130  0.1856
  734MOL0     C 1161  10.928   8.716   8.917  0.7705 -0.8385  0.0769
  734MOL0     O 1162  10.848   8.692   9.032  0.1208 -0.0728 -0.3810
  734MOL0     C 1163  10.757   8.790   9.070  0.4242 -0.6309 -0.2450
  734MOL0     C 1164  10.704   8.774   9.216 -0.2202  0.4628 -0.5821
  734MOL0     C 1165  10.811   8.744   9.322  0.3389 -0.6246  0.5622
  734MOL0     C 1166  10.750   8.716   9.460 -1.1124 -0.0981  0.7865
  734MOL0     C 1167  10.875   8.725   9.557  0.3967  0.4222 -0.1266
  734MOL0     C 1168  10.869   8.631   9.676  0.1700  0.5711 -0.6401
  734MOL0     C 1169  11.004   8.619   9.755 -0.4618 -0.5196 -0.4199
  734MOL0     C 1170  10.994   8.537   9.876 -0.3308 -0.1067 -0.2069
  734MOL0     N 1171  10.913   8.416   9.866 -0.3514  0.1540  0.5712
  734MOL0     C 1172  10.956   8.298   9.805  1.2610 -0.6371  0.0927
  734MOL0     C 1173  10.873   8.205   9.859 -0.1302 -0.4827  0.4617
  734MOL0     C 1174  10.870   8.061   9.828 -0.4323  0.5483  0.2129
  734MOL0     C 1175  10.914   7.984   9.944 -0.4192  0.4691  1.1461
  734MOL0     C 1176  10.864   7.840   9.953  0.1356  0.3782 -0.2790
  734MOL0     C 1177  10.718   7.830  10.028  0.3969  0.1441  0.8052
  734MOL0     O 1178  10.640   7.717   9.986  0.6628 -0.0813  0.0295
  734MOL0     C 1179  10.680   7.587   9.985 -0.7821 -0.1503 -0.5952
  734MOL0     C 1180  10.618   7.505   9.899  0.5251  0.1733 -0.0604
  734MOL0     C 1181  10.625   7.357   9.891  0.7694 -0.2915  0.0895
  734MOL0     C 1182  10.534   7.290   9.797 -0.3665 -0.3331 -0.4164
  734MOL0     C 1183  10.726   7.294   9.973 -0.9151 -0.1193 -0.3726
  734MOL0     C 1184  10.746   7.140   9.988 -0.0047 -0.7371  0.0300
  734MOL0     O 1185  10.857   7.112  10.067  0.2179 -0.1364  0.1960
  734MOL0     C 1186  10.886   6.981  10.090  0.4630  0.0387 -0.7877
  734MOL0     C 1187  10.893   6.875   9.991  0.0041 -0.0461 -1.4637
  734MOL0     C 1188  10.928   6.741  10.017 -0.6967 -0.0377  0.1478
  734MOL0     C 1189  10.959   6.712  10.147 -0.1053  0.3572  0.0721
  734MOL0     O 1190  11.024   6.591  10.189  0.5825 -0.6802 -0.4238
  734MOL0     C 1191  11.114   6.528  10.089  0.2980  0.2787 -0.0658
  734MOL0     C 1192  11.260   6.575  10.108  1.0192  0.0032  0.2305
  734MOL0     C 1193  11.315   6.565  10.246  0.6383  0.7370 -0.9413
  734MOL0     C 1194  11.444   6.649  10.265 -0.2263  0.0778  0.1157
  734MOL0     C 1195  11.495   6.628  10.407  0.0012  0.9962  0.0558
  734MOL0     C 1196  11.630   6.692  10.413  0.1812  0.5967 -0.2193
  734MOL0     C 1197  11.731   6.615  10.502  0.7523 -0.0513 -1.0211
  734MOL0     C 1198  11.880   6.667  10.501  0.6095  0.5792 -0.2612
  734MOL0    Cl 1199  11.881   6.846  10.497  0.0573  0.4757  0.0791
  734MOL0     C 1200  10.939   6.805  10.245 -0.5665  0.0614 -0.2993
  734MOL0     C 1201  10.903   6.946  10.221  0.3733  0.0005 -0.9140
  734MOL0     O 1202  10.672   7.062   9.930  0.1150 -0.2697 -1.0053
  734MOL0     C 1203  10.801   7.390  10.058 -0.2855  1.2624  0.5440
  734MOL0     C 1204  10.786   7.528  10.062 -0.4017 -0.7623  0.4567
  734MOL0     N 1205  10.784   8.268   9.942 -0.9763 -0.6013 -0.9576
  734MOL0     N 1206  10.797   8.399   9.933  0.3397 -0.0712  0.2043
  734MOL0     C 1207  10.914   8.828   8.833  0.0073 -1.0478  0.9546
  734MOL0     C 1208  11.009   8.850   8.723  0.6841  0.1488  0.0662
  734MOL0     C 1209  11.248   8.689   8.356  0.2484  0.4311  0.2519
  734MOL0     C 1210  11.284   8.813   8.315 -1.3778 -0.3335 -0.7125
  734MOL0     C 1211  11.360   8.829   8.196  0.1419 -0.0977  0.0057
  734MOL0     C 1212  11.389   8.718   8.110 -0.0892  0.2902 -0.0937
  734MOL0     O 1213  11.461   8.722   7.996  0.3643 -0.1360 -0.5591
  734MOL0     C 1214  11.494   8.843   7.933  0.0928  0.0541  0.0463
  734MOL0     C 1215  11.617   8.932   7.974 -0.6043  0.9086 -0.4675
  734MOL0     C 1216  11.747   8.848   7.964 -0.1375  0.1726  0.9748
  734MOL0     C 1217  11.863   8.922   8.020  0.1436 -0.0860 -0.1218
  734MOL0     C 1218  11.993   8.893   7.956 -0.4920  0.5898  0.3122
  734MOL0     C 1219  12.100   8.854   7.912 -0.6534  0.3841  1.0901
  734MOL0     C 1220  11.341   8.595   8.151 -0.2112  0.0425 -0.1739
  734MOL0     C 1221  11.290   8.579   8.278  0.3798  0.2445  1.6855
  734MOL0     C 1222  11.249   8.433   8.319  0.6676 -0.3827 -0.0164
  734MOL0     H 1223  11.189   8.570   8.771  0.9025  1.4400 -3.5944
  734MOL0     H 1224  11.054   8.556   8.965  0.0462  1.8811  2.4658
  734MOL0     H 1225  10.672   8.776   9.001  0.8633 -0.4475 -0.8360
  734MOL0     H 1226  10.797   8.892   9.061 -0.5617 -0.2436 -0.3963
  734MOL0     H 1227  10.646   8.859   9.254 -2.3695 -1.7962  1.5365
  734MOL0     H 1228  10.639   8.687   9.218  0.3687 -0.0541  2.6335
  734MOL0     H 1229  10.882   8.670   9.284 -3.0940 -2.2522 -3.4957
  734MOL0     H 1230  10.869   8.834   9.345 -1.1166 -0.0325  2.0774
  734MOL0     H 1231  10.678   8.792   9.489 -1.9084 -0.0546 -1.1826
  734MOL0     H 1232  10.700   8.619   9.467  0.0550 -0.7261  0.7109
  734MOL0     H 1233  10.877   8.830   9.588  0.5387  0.2964  0.2895
  734MOL0     H 1234  10.959   8.709   9.488  0.0365  1.8538 -0.9428
  734MOL0     H 1235  10.788   8.658   9.744  0.9171  0.6147  0.2693
  734MOL0     H 1236  10.837   8.537   9.632  2.5454 -3.2119  4.6557
  734MOL0     H 1237  11.042   8.718   9.783  0.4589 -0.2917 -2.2885
  734MOL0     H 1238  11.075   8.579   9.682 -0.3639  1.2081 -1.3263
  734MOL0     H 1239  11.094   8.505   9.908 -0.6316 -0.8590  0.0092
  734MOL0     H 1240  10.942   8.597   9.951 -2.4977  2.0353 -3.2128
  734MOL0     H 1241  11.046   8.280   9.746  2.5525 -0.3634  1.8901
  734MOL0     H 1242  10.929   8.044   9.737  1.0207  0.2551  1.1719
  734MOL0     H 1243  10.771   8.031   9.794  0.4650  2.8807 -5.7021
  734MOL0     H 1244  11.022   7.972   9.931 -0.8230 -3.2573  0.1217
  734MOL0     H 1245  10.890   8.029  10.041 -1.2992 -0.2089  1.2513
  734MOL0     H 1246  10.865   7.788   9.857  1.5649  0.7220 -0.4703
  734MOL0     H 1247  10.941   7.792  10.015 -1.3351  1.3939  2.5024
  734MOL0     H 1248  10.723   7.854  10.135 -1.1165  0.7764  0.7661
  734MOL0     H 1249  10.653   7.906   9.983 -1.2939 -2.3940 -1.3680
  734MOL0     H 1250  10.539   7.549   9.839  3.2429  1.9867 -2.5239
  734MOL0     H 1251  10.500   7.367   9.727 -2.4446 -0.3630  0.4854
  734MOL0     H 1252  10.446   7.239   9.838  0.5208 -0.4530  1.4220
  734MOL0     H 1253  10.607   7.225   9.749  0.6467  1.4257 -1.3378
  734MOL0     H 1254  10.885   6.894   9.885 -0.2696  0.3661 -1.3703
  734MOL0     H 1255  10.937   6.675   9.932  3.8171  2.7890 -1.9492
  734MOL0     H 1256  11.114   6.421  10.108  1.6296 -0.0065 -1.4682
  734MOL0     H 1257  11.082   6.539   9.985  0.9882  0.8294 -0.2290
  734MOL0     H 1258  11.319   6.498  10.057  0.3144 -0.6378  0.3706
  734MOL0     H 1259  11.266   6.676  10.068  2.0098  0.1440  0.7034
  734MOL0     H 1260  11.336   6.462  10.278  3.2861  1.3609 -0.4747
  734MOL0     H 1261  11.236   6.608  10.309  4.1824  3.2496  2.2534
  734MOL0     H 1262  11.425   6.755  10.248  0.3022  0.1869  0.2068
  734MOL0     H 1263  11.521   6.621  10.193  0.0249 -1.7529  1.0326
  734MOL0     H 1264  11.430   6.683  10.476  1.8820  1.3809  1.5926
  734MOL0     H 1265  11.509   6.524  10.435  0.4284  1.2880  0.9640
  734MOL0     H 1266  11.615   6.799  10.434  4.2191  0.9265  1.9569
  734MOL0     H 1267  11.679   6.674  10.317  0.5903 -3.0559  0.5423
  734MOL0     H 1268  11.720   6.513  10.465  2.6907 -0.7643  0.2125
  734MOL0     H 1269  11.683   6.623  10.600 -0.9566 -1.1593 -1.7206
  734MOL0     H 1270  11.935   6.628  10.415 -0.1219 -1.8535  0.3129
  734MOL0     H 1271  11.926   6.635  10.595  0.2463  0.6546 -0.0576
  734MOL0     H 1272  10.947   6.773  10.349 -1.5650  1.9081  0.3866
  734MOL0     H 1273  10.897   7.010  10.309  1.5126 -3.2597  1.7438
  734MOL0     H 1274  10.870   7.355  10.134  0.1215 -1.4464 -0.9626
  734MOL0     H 1275  10.842   7.583  10.136  0.1923  1.0017 -1.2221
  734MOL0     H 1276  10.835   8.902   8.840 -1.3432 -2.5097  1.6161
  734MOL0     H 1277  11.001   8.937   8.659  0.2605 -0.4410 -0.7033
  734MOL0     H 1278  11.252   8.900   8.371  1.5657 -0.3153  1.1441
  734MOL0     H 1279  11.397   8.924   8.158 -1.6783 -0.3011 -2.5615
  734MOL0     H 1280  11.513   8.821   7.828 -0.0716  0.5053 -0.0819
  734MOL0     H 1281  11.412   8.916   7.938  0.7613  0.7365  2.3435
  734MOL0     H 1282  11.596   8.974   8.072 -0.7689  0.1233 -0.1623
  734MOL0     H 1283  11.621   9.015   7.902  0.1165  2.2167  1.0337
  734MOL0     H 1284  11.724   8.754   8.015 -1.4883 -1.0458 -1.6636
  734MOL0     H 1285  11.773   8.840   7.857 -1.2586  0.9587  0.6271
  734MOL0     H 1286  11.879   8.910   8.128 -0.9304  0.4716  0.1140
  734MOL0     H 1287  11.843   9.027   8.000  2.0603  0.1467 -1.0270
  734MOL0     H 1288  12.189   8.824   7.860 -0.6973  3.9770 -1.4404
  734MOL0     H 1289  11.378   8.512   8.092 -1.6582  0.3453 -1.5789
  734MOL0     H 1290  11.293   8.357   8.254 -1.7793 -1.6136 -0.3038
  734MOL0     H 1291  11.276   8.408   8.421  1.2700 -2.1160 -0.5709
  734MOL0     H 1292  11.142   8.423   8.303  0.6095 -0.4818  0.4186
  735MOL0     O 1293   6.509   4.019   7.179 -0.8451 -0.2981 -0.0197
  735MOL0     C 1294   6.394   3.976   7.191  0.3229 -0.4677  0.8823
  735MOL0     O 1295   6.317   4.003   7.296  0.3234 -0.5720 -0.3627
  735MOL0     C 1296   6.372   4.055   7.407  0.5205  0.3419  0.7339
  735MOL0     C 1297   6.430   4.177   7.405  0.0827 -0.2846 -0.6352
  735MOL0     C 1298   6.500   4.230   7.506  0.5517 -0.5566 -0.5858
  735MOL0     C 1299   6.517   4.151   7.623  0.4000  0.6652 -0.3869
  735MOL0     O 1300   6.571   4.190   7.738  0.7492 -0.3737 -0.1479
  735MOL0     C 1301   6.583   4.330   7.750  0.7519 -0.2335  0.1366
  735MOL0     C 1302   6.588   4.363   7.904  0.4060  0.9042 -0.0872
  735MOL0     C 1303   6.662   4.478   7.945  0.0971  0.9352 -0.7387
  735MOL0     C 1304   6.812   4.496   7.906 -0.3378 -0.9986 -0.1137
  735MOL0     C 1305   6.860   4.637   7.946  0.4200 -0.0812 -0.4757
  735MOL0     C 1306   7.006   4.654   7.961 -0.6419  0.4725 -0.1256
  735MOL0     C 1307   7.082   4.633   7.825  0.0128  0.0536 -0.3981
  735MOL0     C 1308   7.228   4.655   7.836  0.1114 -0.3207 -0.0388
  735MOL0     N 1309   7.258   4.777   7.763 -0.3046 -0.4743  0.1557
  735MOL0     C 1310   7.275   4.906   7.808  0.3216 -1.5400  0.5879
  735MOL0     C 1311   7.296   4.970   7.694  0.3912  0.7121  0.1372
  735MOL0     C 1312   7.350   5.110   7.694  0.6754 -0.1637  0.5363
  735MOL0     C 1313   7.486   5.123   7.624 -0.2541  0.0853 -0.2786
  735MOL0     C 1314   7.555   5.254   7.678  0.9783  0.7587 -1.3381
  735MOL0     C 1315   7.678   5.304   7.600 -0.0492  0.0463  0.1568
  735MOL0     O 1316   7.735   5.424   7.656  0.9709 -0.4705  0.5706
  735MOL0     C 1317   7.815   5.414   7.769 -1.4215  0.5525  0.1476
  735MOL0     C 1318   7.868   5.534   7.801  0.1824 -0.1030 -0.7675
  735MOL0     C 1319   7.970   5.554   7.901 -0.2580 -0.7197 -0.4723
  735MOL0     C 1320   8.028   5.693   7.928 -0.1179  0.2105  0.4816
  735MOL0     C 1321   8.004   5.444   7.978  0.1072  0.3501  0.1014
  735MOL0     C 1322   8.084   5.447   8.097 -0.1985  0.2524 -0.2763
  735MOL0     O 1323   8.177   5.546   8.113  0.4119  0.1695  0.1982
  735MOL0     C 1324   8.242   5.581   8.235  0.2227 -0.3828  0.0570
  735MOL0     C 1325   8.291   5.476   8.315  1.1228 -1.0271  1.0003
  735MOL0     C 1326   8.377   5.510   8.416 -0.3777 -0.1004  0.2173
  735MOL0     C 1327   8.420   5.637   8.443  0.5157  0.5766  0.4697
  735MOL0     O 1328   8.497   5.667   8.550 -0.5491  0.1562 -0.7866
  735MOL0     C 1329   8.420   5.741   8.639  0.3463  0.5630  0.8259
  735MOL0     C 1330   8.489   5.768   8.774  0.7414 -0.9356  1.3438
  735MOL0     C 1331   8.390   5.848   8.861 -0.4456  0.2621 -0.3495
  735MOL0     C 1332   8.440   5.836   9.003  1.1035 -0.0701 -0.6593
  735MOL0     C 1333   8.400   5.701   9.063  0.2108  0.8821 -0.6334
  735MOL0     C 1334   8.428   5.708   9.217  0.6661 -1.1800  0.2207
  735MOL0     C 1335   8.569   5.738   9.259  1.0489 -0.9902  0.8678
  735MOL0     C 1336   8.591   5.739   9.411 -0.1888  0.7509 -1.4504
  735MOL0    Cl 1337   8.599   5.894   9.497  0.1028 -0.3250 -0.0526
  735MOL0     C 1338   8.364   5.742   8.360 -0.7294  0.2193 -0.2334
  735MOL0     C 1339   8.280   5.719   8.252 -0.1151 -0.4455  0.8715
  735MOL0     O 1340   8.060   5.361   8.180 -0.3118  0.0347 -0.5734
  735MOL0     C 1341   7.924   5.326   7.959 -0.6655  0.1379  0.4007
  735MOL0     C 1342   7.845   5.305   7.854  0.1364  0.3515  0.4921
  735MOL0     N 1343   7.284   4.890   7.582  0.8706 -0.1901  0.2405
  735MOL0     N 1344   7.246   4.771   7.624 -0.4096 -0.5037 -0.5132
  735MOL0     C 1345   6.463   4.018   7.629  0.2115 -0.4858  0.0694
  735MOL0     C 1346   6.393   3.966   7.516  0.0114 -0.3150  1.2562
  735MOL0     C 1347   6.342   3.887   7.087  0.3291 -0.2463  0.0186
  735MOL0     C 1348   6.342   3.942   6.954 -0.2660  0.8109 -0.2058
  735MOL0     C 1349   6.329   3.847   6.845 -0.1886 -1.0680  0.4125
  735MOL0     C 1350   6.285   3.722   6.860  0.6250 -0.0522  0.1130
  735MOL0     O 1351   6.274   3.645   6.748 -0.4119  0.1899  0.3830
  735MOL0     C 1352   6.265   3.500   6.755 -0.0506  0.2625  0.9254
  735MOL0     C 1353   6.116   3.459   6.759 -1.4528 -0.0972 -0.0277
  735MOL0     C 1354   6.088   3.315   6.810 -0.1578  0.2008  0.6273
  735MOL0     C 1355   6.100   3.307   6.968  0.2990  0.1980 -0.0154
  735MOL0     C 1356   5.986   3.383   7.029  0.0715 -0.1118  0.1233
  735MOL0     C 1357   5.887   3.442   7.073 -0.8360 -0.4901 -1.5387
  735MOL0     C 1358   6.258   3.682   6.987 -0.4278 -0.0223  0.3921
  735MOL0     C 1359   6.299   3.754   7.103  0.0044  0.2045  0.3078
  735MOL0     C 1360   6.277   3.700   7.239 -0.3630 -0.6185  0.0366
  735MOL0     H 1361   6.419   4.231   7.311 -2.6519 -0.2918 -0.4252
  735MOL0     H 1362   6.532   4.334   7.508 -2.7101  0.5782 -1.2956
  735MOL0     H 1363   6.493   4.373   7.705 -0.2134 -3.2572 -1.1331
  735MOL0     H 1364   6.672   4.359   7.695  0.7122 -1.1697 -0.4395
  735MOL0     H 1365   6.490   4.365   7.951 -0.1325  1.1491 -1.1976
  735MOL0     H 1366   6.627   4.273   7.954 -1.0818  0.7980  0.9506
  735MOL0     H 1367   6.609   4.562   7.899  3.6735  1.3300 -4.8126
  735MOL0     H 1368   6.668   4.492   8.053  3.3064 -1.2261 -0.4873
  735MOL0     H 1369   6.878   4.417   7.944 -0.1390 -3.0258 -4.2163
  735MOL0     H 1370   6.833   4.477   7.801  3.4786  0.6261  0.1624
  735MOL0     H 1371   6.810   4.682   8.032 -1.5787 -0.2864 -1.4838
  735MOL0     H 1372   6.828   4.704   7.866  0.2962 -3.2392 -3.3180
  735MOL0     H 1373   7.043   4.751   7.995 -0.3243  0.2099  0.2781
  735MOL0     H 1374   7.044   4.579   8.030  1.7689 -0.0976 -1.9234
  735MOL0     H 1375   7.044   4.697   7.744  0.1889  0.2302 -0.3412
  735MOL0     H 1376   7.057   4.528   7.807  1.2492 -0.0454 -1.6836
  735MOL0     H 1377   7.267   4.657   7.938  0.2196  0.0260 -0.0888
  735MOL0     H 1378   7.284   4.578   7.781 -0.4249 -0.9939  0.3350
  735MOL0     H 1379   7.263   4.947   7.908 -0.1714 -2.2254  0.8223
  735MOL0     H 1380   7.362   5.156   7.793  0.3450 -1.2609  1.0923
  735MOL0     H 1381   7.274   5.160   7.633  1.5080 -0.1945 -0.5642
  735MOL0     H 1382   7.558   5.044   7.647 -1.8455 -0.7298  2.3621
  735MOL0     H 1383   7.479   5.116   7.515  2.7541  1.6912 -0.6797
  735MOL0     H 1384   7.478   5.332   7.675  0.5488  0.3230 -1.8248
  735MOL0     H 1385   7.587   5.242   7.782 -1.5073  3.0726 -0.1627
  735MOL0     H 1386   7.757   5.229   7.612 -0.4774 -0.1514  1.9673
  735MOL0     H 1387   7.646   5.311   7.495 -2.5020  0.9485  0.8888
  735MOL0     H 1388   7.841   5.625   7.748  1.0929 -0.1785 -1.4005
  735MOL0     H 1389   8.135   5.688   7.904 -0.4847 -3.0264 -1.0886
  735MOL0     H 1390   8.011   5.720   8.032  0.6745  0.2636  0.6055
  735MOL0     H 1391   7.981   5.772   7.868  0.4962  0.7338  0.6876
  735MOL0     H 1392   8.259   5.373   8.315 -0.6450 -0.5716  3.5973
  735MOL0     H 1393   8.411   5.434   8.485  0.4978 -0.0296 -0.1279
  735MOL0     H 1394   8.400   5.845   8.608  0.5888  0.1385 -0.8931
  735MOL0     H 1395   8.323   5.694   8.657 -1.2657  3.3294  0.0395
  735MOL0     H 1396   8.510   5.670   8.818  0.1762 -0.3914  2.8771
  735MOL0     H 1397   8.571   5.839   8.756 -2.8812  2.9265 -2.3812
  735MOL0     H 1398   8.289   5.807   8.857  0.2517 -1.4957 -0.8796
  735MOL0     H 1399   8.394   5.953   8.829 -0.9464  0.8578  1.3941
  735MOL0     H 1400   8.379   5.909   9.057 -1.7923 -0.4536 -3.1709
  735MOL0     H 1401   8.547   5.857   9.005  0.9442  0.7055  0.0098
  735MOL0     H 1402   8.298   5.663   9.055  0.5969 -1.2126  2.4514
  735MOL0     H 1403   8.459   5.626   9.009  2.4280  2.4073 -0.4573
  735MOL0     H 1404   8.412   5.605   9.250 -0.7505 -0.5205  1.7621
  735MOL0     H 1405   8.361   5.782   9.262  3.7718  1.4234  0.9621
  735MOL0     H 1406   8.593   5.836   9.217 -2.7403 -0.5382 -0.6365
  735MOL0     H 1407   8.634   5.656   9.226  0.6326 -1.0843  0.2670
  735MOL0     H 1408   8.674   5.679   9.450 -1.1452  1.6879  2.5026
  735MOL0     H 1409   8.506   5.681   9.449  0.4513  0.7068  0.0145
  735MOL0     H 1410   8.393   5.842   8.388  0.8464 -0.4089  0.5252
  735MOL0     H 1411   8.254   5.808   8.195 -1.8973  0.6082  3.1636
  735MOL0     H 1412   7.935   5.238   8.022 -1.9331  1.3012  2.3371
  735MOL0     H 1413   7.815   5.205   7.826  1.2320  0.1478  0.0311
  735MOL0     H 1414   6.486   3.947   7.708 -1.4937 -0.7204  0.3886
  735MOL0     H 1415   6.359   3.863   7.520 -2.3584  0.2474 -1.4561
  735MOL0     H 1416   6.377   4.041   6.927 -0.3469  1.0534  0.5450
  735MOL0     H 1417   6.356   3.882   6.746 -3.9697  0.5787 -0.2231
  735MOL0     H 1418   6.306   3.458   6.663  0.0436 -0.8893  1.4684
  735MOL0     H 1419   6.317   3.453   6.840 -0.9303 -0.0613  1.2944
  735MOL0     H 1420   6.093   3.459   6.651  2.5170  1.2293 -1.0274
  735MOL0     H 1421   6.052   3.524   6.819  1.8724  2.0583  1.4695
  735MOL0     H 1422   5.988   3.285   6.778 -0.6419  2.7406 -0.4585
  735MOL0     H 1423   6.152   3.242   6.760  3.3814  1.6430  2.6967
  735MOL0     H 1424   6.193   3.357   6.998 -0.4760  1.7129 -0.0417
  735MOL0     H 1425   6.088   3.210   7.017 -1.2236  0.6026  0.4606
  735MOL0     H 1426   5.809   3.493   7.125  0.4000 -1.7268  1.7589
  735MOL0     H 1427   6.213   3.585   7.003  0.3083 -0.6258 -1.0517
  735MOL0     H 1428   6.344   3.614   7.254  2.1500  1.2788  0.5327
  735MOL0     H 1429   6.281   3.756   7.333  1.2994 -2.1866  0.9652
  735MOL0     H 1430   6.176   3.660   7.237  0.0749 -1.8645 -3.1934
  736MOL0     O 1431   4.685   9.012   6.107  0.0583  0.6381  0.1474
  736MOL0     C 1432   4.775   9.067   6.046 -0.3517  0.3937  0.5421
  736MOL0     O 1433   4.849   9.011   5.942 -0.3144  0.3939  0.5257
  736MOL0     C 1434   4.795   8.955   5.837 -0.1192 -0.3702  0.0157
  736MOL0     C 1435   4.884   8.919   5.733  0.4086  0.7311 -0.1994
  736MOL0     C 1436   4.827   8.855   5.622  0.5798 -0.0953 -0.0810
  736MOL0     C 1437   4.688   8.813   5.618  0.0341 -0.4412 -0.4244
  736MOL0     O 1438   4.629   8.745   5.513  0.4328 -0.0239 -0.4107
  736MOL0     C 1439   4.715   8.638   5.456  0.2820 -1.1776 -0.3031
  736MOL0     C 1440   4.642   8.553   5.353 -0.4599  0.1729  0.7125
  736MOL0     C 1441   4.544   8.453   5.420  0.9816 -1.2302  0.0449
  736MOL0     C 1442   4.451   8.404   5.301  0.3436  0.1953  0.3182
  736MOL0     C 1443   4.347   8.295   5.328  0.1401  0.6563 -0.3277
  736MOL0     C 1444   4.394   8.182   5.422 -0.0922  0.0844 -0.2588
  736MOL0     C 1445   4.517   8.105   5.373  0.6942 -0.1555 -0.1758
  736MOL0     C 1446   4.557   8.009   5.479 -0.8683  0.3594  0.0469
  736MOL0     N 1447   4.682   7.955   5.428  0.3629  0.0137  0.2467
  736MOL0     C 1448   4.696   7.863   5.328  0.7177 -0.0490  0.2071
  736MOL0     C 1449   4.823   7.862   5.284  0.2997 -0.9499 -0.1850
  736MOL0     C 1450   4.878   7.764   5.186 -0.6294  0.7452 -0.8513
  736MOL0     C 1451   5.025   7.732   5.206  0.1547  0.2027  0.1211
  736MOL0     C 1452   5.109   7.847   5.136 -0.1468  0.5101 -0.4317
  736MOL0     C 1453   5.259   7.790   5.112  0.0141 -0.6339 -0.2888
  736MOL0     O 1454   5.264   7.691   5.009 -0.2483 -0.2666  0.1256
  736MOL0     C 1455   5.376   7.614   5.008  0.0221 -0.2887  1.3190
  736MOL0     C 1456   5.365   7.473   4.987  0.4825 -1.1877  0.4983
  736MOL0     C 1457   5.476   7.387   4.969  1.1019  0.4816 -0.0074
  736MOL0     C 1458   5.444   7.240   4.947  0.0229  0.2896 -0.4490
  736MOL0     C 1459   5.605   7.444   4.977  0.1150 -0.5991 -0.2528
  736MOL0     C 1460   5.737   7.371   4.979  0.0033  0.0557 -0.4993
  736MOL0     O 1461   5.852   7.443   4.963 -0.4705  0.3751  0.9602
  736MOL0     C 1462   5.966   7.368   4.965 -1.0365  0.1251 -0.8473
  736MOL0     C 1463   5.999   7.313   5.092  0.2227  0.0714 -0.1019
  736MOL0     C 1464   6.117   7.250   5.117  0.5347 -0.1952  0.3620
  736MOL0     C 1465   6.203   7.225   5.005  0.3843  0.3482 -0.0862
  736MOL0     O 1466   6.314   7.140   4.998  0.7381  0.2630 -0.0654
  736MOL0     C 1467   6.361   7.076   5.125  0.5326 -0.4095  0.2532
  736MOL0     C 1468   6.457   6.973   5.091 -0.1439 -0.0640 -0.3563
  736MOL0     C 1469   6.488   6.887   5.216  0.6731 -0.4989  0.3929
  736MOL0     C 1470   6.605   6.791   5.192  0.4217  0.0009  0.4818
  736MOL0     C 1471   6.647   6.726   5.331  0.1688 -0.8181  1.1089
  736MOL0     C 1472   6.751   6.610   5.291  0.2970 -0.9915 -0.0222
  736MOL0     C 1473   6.830   6.562   5.422 -0.0658 -1.4869  1.5333
  736MOL0     C 1474   6.911   6.444   5.389 -0.2081 -0.7024  0.4389
  736MOL0    Cl 1475   7.056   6.440   5.514 -0.4374  0.5716  0.2789
  736MOL0     C 1476   6.171   7.287   4.882 -0.2288 -0.0209  0.2910
  736MOL0     C 1477   6.059   7.358   4.863  0.0768 -1.0851 -0.3222
  736MOL0     O 1478   5.734   7.247   4.992  0.8010 -0.1446 -0.2459
  736MOL0     C 1479   5.623   7.581   5.012  0.6896 -0.3593 -0.2673
  736MOL0     C 1480   5.508   7.664   5.013  0.6876 -0.2235  0.5927
  736MOL0     N 1481   4.886   7.958   5.356  0.0534 -0.2597 -1.2574
  736MOL0     N 1482   4.804   8.011   5.435  1.1198 -0.2918  0.5815
  736MOL0     C 1483   4.595   8.856   5.716 -0.0698  0.8909 -0.1505
  736MOL0     C 1484   4.652   8.923   5.825  0.0530  0.0930  0.6011
  736MOL0     C 1485   4.832   9.200   6.099 -0.0610  0.6821 -1.2206
  736MOL0     C 1486   4.867   9.302   6.010 -0.0341  0.6535  0.4105
  736MOL0     C 1487   4.915   9.425   6.053 -0.9578 -0.3012 -0.5045
  736MOL0     C 1488   4.937   9.444   6.189 -0.2606 -0.8364 -0.7862
  736MOL0     O 1489   4.987   9.564   6.220  0.3748 -0.3014  0.6488
  736MOL0     C 1490   4.955   9.631   6.343  0.1743 -0.0368 -0.2929
  736MOL0     C 1491   4.972   9.784   6.336  1.0818 -0.3943 -0.3459
  736MOL0     C 1492   5.097   9.820   6.248 -0.1341 -0.0914  0.0433
  736MOL0     C 1493   5.159   9.957   6.282 -0.0897 -0.4346 -0.6703
  736MOL0     C 1494   5.276   9.980   6.197  0.3039  0.6837  0.7113
  736MOL0     C 1495   5.377  10.005   6.130  1.1658 -0.0128 -0.4782
  736MOL0     C 1496   4.907   9.343   6.279  0.1275 -0.7666  0.4476
  736MOL0     C 1497   4.851   9.219   6.240  0.4491  0.3370  0.5283
  736MOL0     C 1498   4.834   9.119   6.341  0.4089 -1.0390  0.1050
  736MOL0     H 1499   4.991   8.937   5.737  0.2103  1.6909  1.6131
  736MOL0     H 1500   4.892   8.822   5.542  1.4522 -3.0991  1.6808
  736MOL0     H 1501   4.754   8.570   5.533 -2.3013  1.1959  3.4739
  736MOL0     H 1502   4.801   8.685   5.406 -1.1498 -0.1436 -1.8867
  736MOL0     H 1503   4.583   8.615   5.285  1.4265 -1.0007 -2.1998
  736MOL0     H 1504   4.712   8.496   5.291 -2.2526  0.2279 -1.4821
  736MOL0     H 1505   4.597   8.367   5.461 -0.1530 -1.8375  0.2947
  736MOL0     H 1506   4.485   8.503   5.497 -2.6598  1.2735 -3.9073
  736MOL0     H 1507   4.392   8.490   5.268 -3.3032 -1.3581  2.1611
  736MOL0     H 1508   4.525   8.368   5.230  0.7673  0.6455  0.5187
  736MOL0     H 1509   4.309   8.251   5.235 -0.1186 -1.0748  0.5636
  736MOL0     H 1510   4.266   8.340   5.386  0.1852 -0.7626  0.9148
  736MOL0     H 1511   4.411   8.218   5.524  0.2855  0.2993 -0.3959
  736MOL0     H 1512   4.314   8.108   5.412 -1.3265  1.4772 -1.0894
  736MOL0     H 1513   4.601   8.169   5.343  0.7048  0.7231  1.5882
  736MOL0     H 1514   4.493   8.057   5.278  1.1340 -0.7202 -0.0071
  736MOL0     H 1515   4.561   8.065   5.573 -0.8789 -2.3535  1.7665
  736MOL0     H 1516   4.478   7.934   5.489 -1.2339  0.8187  0.6609
  736MOL0     H 1517   4.623   7.793   5.290  1.2403 -0.9643  0.8607
  736MOL0     H 1518   4.863   7.787   5.080  1.1908 -2.0152 -1.8180
  736MOL0     H 1519   4.821   7.670   5.185 -2.7044  1.9408 -2.7542
  736MOL0     H 1520   5.059   7.721   5.309  0.1762  0.5499  0.1510
  736MOL0     H 1521   5.055   7.639   5.155  0.3308  1.3281 -1.9511
  736MOL0     H 1522   5.071   7.858   5.034 -0.1979 -0.8344 -0.5777
  736MOL0     H 1523   5.109   7.943   5.188 -0.3738 -1.1165  2.8555
  736MOL0     H 1524   5.324   7.870   5.075  0.2205 -1.5838 -2.0976
  736MOL0     H 1525   5.303   7.746   5.202  1.2999 -1.3961 -1.2425
  736MOL0     H 1526   5.263   7.443   4.969 -0.8653  2.9936 -0.0640
  736MOL0     H 1527   5.338   7.228   4.975  0.3489 -0.3693  0.5836
  736MOL0     H 1528   5.496   7.174   5.017 -1.2593  1.2491  1.5041
  736MOL0     H 1529   5.462   7.204   4.845 -1.4317  3.0684 -1.7932
  736MOL0     H 1530   5.916   7.313   5.162 -1.2440  1.2980 -1.7542
  736MOL0     H 1531   6.129   7.211   5.218 -1.5894 -0.9672  0.3576
  736MOL0     H 1532   6.396   7.160   5.186  0.4389 -0.5522  0.5071
  736MOL0     H 1533   6.269   7.031   5.164 -0.9853 -0.4579 -3.0246
  736MOL0     H 1534   6.406   6.909   5.018 -0.4611  0.9615 -1.0447
  736MOL0     H 1535   6.547   7.015   5.046 -0.4527 -0.1061 -1.0340
  736MOL0     H 1536   6.404   6.833   5.259  1.0529 -1.4595 -0.0608
  736MOL0     H 1537   6.513   6.950   5.303 -3.2717 -0.2191  1.4887
  736MOL0     H 1538   6.688   6.838   5.139  1.9396 -1.8886  1.0694
  736MOL0     H 1539   6.575   6.708   5.128  1.9984 -1.6977  1.8278
  736MOL0     H 1540   6.711   6.791   5.391  1.8941 -1.9635  0.5877
  736MOL0     H 1541   6.560   6.678   5.378  2.6617 -3.3638  3.5351
  736MOL0     H 1542   6.826   6.635   5.215 -0.3403 -3.4332 -1.5549
  736MOL0     H 1543   6.681   6.536   5.252 -0.0918 -0.1902 -0.8754
  736MOL0     H 1544   6.769   6.532   5.508 -3.3353 -4.1002 -1.4032
  736MOL0     H 1545   6.892   6.649   5.447 -0.3474 -0.9484  0.4052
  736MOL0     H 1546   6.941   6.458   5.284 -1.2300  0.9276  0.3337
  736MOL0     H 1547   6.851   6.353   5.402 -2.6381  0.6986 -0.3120
  736MOL0     H 1548   6.231   7.266   4.793  0.6723  1.2294  0.5718
  736MOL0     H 1549   6.057   7.404   4.765 -0.0437 -1.7861 -0.6595
  736MOL0     H 1550   5.720   7.627   5.031  0.8636 -1.3599  1.4814
  736MOL0     H 1551   5.525   7.771   5.016  3.6592 -0.6175  0.9496
  736MOL0     H 1552   4.491   8.826   5.717 -0.5381  2.4066 -0.2577
  736MOL0     H 1553   4.579   8.963   5.894 -0.7957 -2.6837  1.4502
  736MOL0     H 1554   4.859   9.287   5.903  4.4586 -0.8182  0.0670
  736MOL0     H 1555   4.932   9.507   5.984  1.9322  1.4363  2.0302
  736MOL0     H 1556   4.855   9.604   6.378  0.0244  0.4570 -0.3278
  736MOL0     H 1557   5.023   9.603   6.423 -2.2441  3.2860  3.2815
  736MOL0     H 1558   4.997   9.827   6.433  2.3967 -2.9809  0.5447
  736MOL0     H 1559   4.879   9.827   6.297  0.3469  0.6859  2.3865
  736MOL0     H 1560   5.173   9.742   6.255 -3.5576 -4.2095 -2.9241
  736MOL0     H 1561   5.059   9.820   6.145 -1.7522  0.5005  0.5955
  736MOL0     H 1562   5.181   9.972   6.388  1.1149 -3.1338 -0.4517
  736MOL0     H 1563   5.094  10.040   6.254  2.0701  1.1811 -1.1676
  736MOL0     H 1564   5.469  10.025   6.079  0.4421 -2.6702 -3.1555
  736MOL0     H 1565   4.928   9.357   6.384  2.8165 -0.7095 -0.0465
  736MOL0     H 1566   4.880   9.146   6.437  1.2779 -0.1122 -0.5439
  736MOL0     H 1567   4.726   9.110   6.355  0.5079 -1.4690  0.6299
  736MOL0     H 1568   4.867   9.017   6.323 -2.8494 -2.0776 -0.4890
  737MOL0     O 1569   0.612   7.203   2.741 -1.7079  0.4701  0.5734
  737MOL0     C 1570   0.578   7.308   2.792  0.4838 -0.6099 -0.3269
  737MOL0     O 1571   0.482   7.403   2.744 -0.3473 -0.5792  0.6276
  737MOL0     C 1572   0.379   7.369   2.659  0.1261 -0.8546 -0.0993
  737MOL0     C 1573   0.359   7.251   2.589  0.4205  0.2099  0.2348
  737MOL0     C 1574   0.243   7.229   2.510  0.1851  0.6262  0.0913
  737MOL0     C 1575   0.158   7.340   2.489  0.0259  0.2073  0.4198
  737MOL0     O 1576   0.045   7.337   2.409  0.4098 -0.4253  0.1998
  737MOL0     C 1577   0.033   7.433   2.307  0.1269  0.1146 -1.3676
  737MOL0     C 1578  -0.081   7.390   2.210 -0.9507 -0.1344  0.8726
  737MOL0     C 1579  -0.219   7.381   2.271  0.0092 -0.2861 -0.0818
  737MOL0     C 1580  -0.322   7.365   2.174  0.1867 -1.0486 -0.4667
  737MOL0     C 1581  -0.456   7.402   2.238  0.6676 -0.5545  0.4841
  737MOL0     C 1582  -0.484   7.316   2.363 -0.5814 -0.2354  0.2981
  737MOL0     C 1583  -0.627   7.345   2.412  0.2564  0.5486 -0.4188
  737MOL0     C 1584  -0.686   7.247   2.530 -0.5084 -0.6804  0.9142
  737MOL0     N 1585  -0.660   7.101   2.531 -0.1974 -0.4661 -1.5281
  737MOL0     C 1586  -0.662   7.029   2.651 -0.5399  0.1441  0.1144
  737MOL0     C 1587  -0.627   6.911   2.606  0.7236 -0.5534 -0.3210
  737MOL0     C 1588  -0.608   6.788   2.685 -0.2361  0.0029 -0.6916
  737MOL0     C 1589  -0.734   6.726   2.720 -0.3035 -0.3037  0.2814
  737MOL0     C 1590  -0.747   6.652   2.859  0.4405  0.8294  0.1696
  737MOL0     C 1591  -0.780   6.756   2.969 -0.2588 -0.1394 -0.7750
  737MOL0     O 1592  -0.917   6.786   2.971  0.5761  0.2482 -0.1092
  737MOL0     C 1593  -0.965   6.915   2.959  0.3811  0.5292  0.0640
  737MOL0     C 1594  -0.946   7.002   3.063  0.2568  0.6762 -0.4771
  737MOL0     C 1595  -0.979   7.136   3.054 -0.3120  0.1631  0.4334
  737MOL0     C 1596  -0.939   7.218   3.169 -0.5640  0.1735  0.2532
  737MOL0     C 1597  -1.047   7.184   2.937  0.2449  0.6962  0.0868
  737MOL0     C 1598  -1.088   7.326   2.920  0.1680 -0.0685 -0.9161
  737MOL0     O 1599  -0.998   7.420   2.962 -0.3699 -0.9037 -0.2583
  737MOL0     C 1600  -1.039   7.547   2.942 -0.7496  0.4128  0.8514
  737MOL0     C 1601  -1.038   7.634   3.050 -1.1434  0.3243 -0.0194
  737MOL0     C 1602  -1.083   7.762   3.031 -0.6022 -0.8295  0.1703
  737MOL0     C 1603  -1.127   7.809   2.903 -1.0007  0.3529  0.7713
  737MOL0     O 1604  -1.180   7.936   2.896  0.4271  0.4243 -0.4696
  737MOL0     C 1605  -1.217   7.986   2.769 -0.3170 -0.2225  0.1255
  737MOL0     C 1606  -1.276   8.123   2.776 -0.9013  0.5607 -0.1134
  737MOL0     C 1607  -1.406   8.118   2.848 -0.5609 -0.0793  0.5601
  737MOL0     C 1608  -1.470   8.260   2.872  0.1680 -0.4969  0.1933
  737MOL0     C 1609  -1.608   8.232   2.952  0.2329 -0.0531  0.3876
  737MOL0     C 1610  -1.688   8.367   2.970 -0.5610 -0.9021  0.3600
  737MOL0     C 1611  -1.726   8.441   2.842  0.4453 -0.1852  0.3489
  737MOL0     C 1612  -1.807   8.359   2.743 -0.4998 -0.2627  0.0484
  737MOL0    Cl 1613  -1.968   8.320   2.798 -0.0417  0.5592 -0.4830
  737MOL0     C 1614  -1.109   7.721   2.792 -0.6980 -0.6487 -0.3800
  737MOL0     C 1615  -1.061   7.595   2.812 -0.1246  0.3337  1.2154
  737MOL0     O 1616  -1.203   7.351   2.879 -0.4774 -0.3899  0.1696
  737MOL0     C 1617  -1.078   7.097   2.835  0.5010  0.0103 -0.9863
  737MOL0     C 1618  -1.017   6.965   2.840 -0.2277  0.0278 -0.5232
  737MOL0     N 1619  -0.609   6.907   2.473  0.6358  0.3753  0.8232
  737MOL0     N 1620  -0.633   7.027   2.427 -1.2918  0.0959 -0.0066
  737MOL0     C 1621   0.169   7.459   2.570  0.0597  0.3638  0.2517
  737MOL0     C 1622   0.282   7.470   2.639 -0.7818 -0.4831 -1.2409
  737MOL0     C 1623   0.647   7.345   2.919  0.1673 -0.9031 -0.4703
  737MOL0     C 1624   0.576   7.346   3.039  0.5378  0.0030 -0.3924
  737MOL0     C 1625   0.644   7.381   3.154 -0.0766 -0.9342 -1.1142
  737MOL0     C 1626   0.785   7.396   3.155  0.7329 -0.7428 -0.7857
  737MOL0     O 1627   0.848   7.404   3.282 -0.3588  0.7693 -0.1223
  737MOL0     C 1628   0.988   7.428   3.282 -0.2849  0.2634 -0.9550
  737MOL0     C 1629   1.030   7.450   3.428 -0.3593  0.7040  0.7448
  737MOL0     C 1630   0.957   7.576   3.485  0.4557 -0.2706 -1.2151
  737MOL0     C 1631   0.994   7.613   3.635 -1.2914  0.6515 -0.0809
  737MOL0     C 1632   1.001   7.758   3.649  0.4474 -1.0653  0.2011
  737MOL0     C 1633   1.021   7.876   3.648 -1.2936  0.0228 -0.3492
  737MOL0     C 1634   0.843   7.419   3.033 -0.1562 -0.7226  0.1376
  737MOL0     C 1635   0.780   7.394   2.912 -0.6255 -0.2672 -0.1066
  737MOL0     C 1636   0.840   7.432   2.779 -0.3606  1.1555 -0.4339
  737MOL0     H 1637   0.430   7.172   2.606  0.6368  0.9244  3.2169
  737MOL0     H 1638   0.219   7.136   2.460 -3.5063  0.9656  0.9771
  737MOL0     H 1639   0.126   7.445   2.251 -0.5674 -0.0910 -2.5937
  737MOL0     H 1640   0.009   7.529   2.355  0.4209 -0.1998 -0.5693
  737MOL0     H 1641  -0.089   7.463   2.129 -2.1077 -1.0657  0.1225
  737MOL0     H 1642  -0.049   7.307   2.147  0.8113  0.9479  0.2658
  737MOL0     H 1643  -0.222   7.308   2.352 -2.0851  0.7437  0.8286
  737MOL0     H 1644  -0.222   7.475   2.327  1.2209  0.0247 -0.5013
  737MOL0     H 1645  -0.303   7.425   2.085  0.3358 -1.1017 -0.4708
  737MOL0     H 1646  -0.320   7.260   2.142  1.0502 -1.0092 -0.5582
  737MOL0     H 1647  -0.534   7.380   2.164  1.0708  1.1940 -0.5103
  737MOL0     H 1648  -0.456   7.511   2.249  2.1141 -0.5154  0.2959
  737MOL0     H 1649  -0.478   7.211   2.331  1.7697 -2.1508  5.7352
  737MOL0     H 1650  -0.407   7.340   2.437 -0.4194 -0.0975  0.0857
  737MOL0     H 1651  -0.690   7.341   2.323  1.3349 -1.7072 -1.1480
  737MOL0     H 1652  -0.641   7.448   2.446  0.1600  0.8107 -1.2286
  737MOL0     H 1653  -0.650   7.288   2.624  0.6636 -1.1687  0.6962
  737MOL0     H 1654  -0.794   7.264   2.535 -0.4771  0.5959 -1.3371
  737MOL0     H 1655  -0.679   7.049   2.757 -0.9264  1.2901 -0.1582
  737MOL0     H 1656  -0.546   6.828   2.766  1.5511 -0.7068 -1.6531
  737MOL0     H 1657  -0.556   6.714   2.623  3.2565 -0.0418  1.9816
  737MOL0     H 1658  -0.812   6.802   2.711  0.1126  1.0280  5.2395
  737MOL0     H 1659  -0.755   6.663   2.633  1.9638  0.2184 -0.7106
  737MOL0     H 1660  -0.837   6.590   2.848 -0.0303  1.7973 -2.1303
  737MOL0     H 1661  -0.657   6.589   2.864  0.1879  0.0835 -2.7704
  737MOL0     H 1662  -0.748   6.729   3.071  1.3254  0.6547 -1.0244
  737MOL0     H 1663  -0.723   6.850   2.964 -0.0566 -0.2952 -1.4892
  737MOL0     H 1664  -0.911   6.964   3.159 -0.3968 -1.9974 -1.2238
  737MOL0     H 1665  -0.939   7.165   3.265 -0.1396  1.9092  1.2647
  737MOL0     H 1666  -0.997   7.308   3.189 -2.3099 -0.8311 -0.1136
  737MOL0     H 1667  -0.838   7.257   3.151 -0.3674 -0.5825 -0.3247
  737MOL0     H 1668  -1.003   7.603   3.149 -0.3241  6.5327  2.0650
  737MOL0     H 1669  -1.094   7.830   3.115  0.6460  2.3121 -2.0551
  737MOL0     H 1670  -1.124   7.990   2.712  0.3634  0.8667  1.2627
  737MOL0     H 1671  -1.286   7.924   2.710 -0.4271  1.7523 -1.9771
  737MOL0     H 1672  -1.217   8.196   2.832  0.3328 -0.9244  0.6124
  737MOL0     H 1673  -1.297   8.175   2.682 -2.4487  1.5942  0.7757
  737MOL0     H 1674  -1.393   8.067   2.943  0.1507  0.6226  0.8476
  737MOL0     H 1675  -1.478   8.052   2.798  0.5855 -1.8555  1.1667
  737MOL0     H 1676  -1.492   8.311   2.778  0.8350 -0.0392  0.2788
  737MOL0     H 1677  -1.397   8.311   2.936 -0.7691  0.0265  0.8659
  737MOL0     H 1678  -1.664   8.162   2.889  0.4585 -0.4094  0.5762
  737MOL0     H 1679  -1.588   8.180   3.047 -1.1228  0.2562  0.8582
  737MOL0     H 1680  -1.628   8.431   3.036  0.7774  0.7076 -2.2560
  737MOL0     H 1681  -1.786   8.361   3.019 -1.4721 -0.2844 -1.3069
  737MOL0     H 1682  -1.639   8.482   2.790 -0.0205 -2.1380 -2.1351
  737MOL0     H 1683  -1.793   8.519   2.879  0.1165 -0.5404  0.5161
  737MOL0     H 1684  -1.740   8.273   2.731 -1.0634 -0.6579 -0.3552
  737MOL0     H 1685  -1.813   8.404   2.644  0.0717  0.5131  0.3626
  737MOL0     H 1686  -1.133   7.753   2.692 -2.1046 -2.2691 -0.6071
  737MOL0     H 1687  -1.046   7.539   2.721 -2.6304  3.0033 -1.0397
  737MOL0     H 1688  -1.114   7.134   2.739 -0.6120 -0.3730 -0.7386
  737MOL0     H 1689  -1.035   6.900   2.755  0.4148 -0.7316 -0.0832
  737MOL0     H 1690   0.116   7.553   2.554  2.5877  1.9339  0.4801
  737MOL0     H 1691   0.304   7.556   2.702  0.5497 -0.5232 -1.6203
  737MOL0     H 1692   0.472   7.314   3.036  0.0179  1.6314 -0.7819
  737MOL0     H 1693   0.593   7.370   3.249  1.7535 -1.6851 -0.1686
  737MOL0     H 1694   1.041   7.347   3.230  0.1936  0.1371 -0.2851
  737MOL0     H 1695   1.017   7.515   3.222  0.3779  0.8050  0.1094
  737MOL0     H 1696   1.137   7.470   3.423 -0.5389  1.9821  1.6363
  737MOL0     H 1697   1.017   7.359   3.488  0.2140 -0.4280 -0.7691
  737MOL0     H 1698   0.976   7.667   3.428 -1.3646  1.0082  0.0929
  737MOL0     H 1699   0.850   7.558   3.472 -0.0613 -1.8555  3.3597
  737MOL0     H 1700   1.094   7.570   3.640 -2.5877 -2.8620 -1.2125
  737MOL0     H 1701   0.924   7.566   3.705  0.9899 -0.7237  1.3748
  737MOL0     H 1702   1.054   7.978   3.655  1.0182 -0.7398  1.3930
  737MOL0     H 1703   0.944   7.456   3.027  0.0993 -1.4407 -0.1027
  737MOL0     H 1704   0.875   7.337   2.739  0.5480  1.2490  0.1201
  737MOL0     H 1705   0.763   7.480   2.718 -0.6713  0.1783 -0.8194
  737MOL0     H 1706   0.927   7.495   2.801 -0.9693  1.2133  2.1648
  738MOL0     O 1707   5.445   1.651   9.981 -0.7142 -0.6276 -0.3590
  738MOL0     C 1708   5.383   1.555   9.938  0.3932  0.7283 -0.1469
  738MOL0     O 1709   5.310   1.469  10.019  0.3508 -1.0342  0.2332
  738MOL0     C 1710   5.266   1.501  10.142 -0.5449  0.1645 -0.2680
  738MOL0     C 1711   5.142   1.573  10.161 -0.3464 -0.9721  0.3917
  738MOL0     C 1712   5.095   1.602  10.292 -1.1708  0.0942 -0.2522
  738MOL0     C 1713   5.170   1.564  10.396  0.6339  0.3715 -0.2638
  738MOL0     O 1714   5.128   1.581  10.527 -0.0059 -0.4469 -0.4000
  738MOL0     C 1715   5.074   1.709  10.554  0.1961  0.3490 -0.6668
  738MOL0     C 1716   5.077   1.724  10.710  0.5967  0.2260  0.3173
  738MOL0     C 1717   5.214   1.705  10.771 -1.0674 -0.2148 -1.1513
  738MOL0     C 1718   5.306   1.826  10.759 -0.1544  0.4969 -0.7082
  738MOL0     C 1719   5.412   1.832  10.873 -0.0470 -0.7554  0.0936
  738MOL0     C 1720   5.534   1.755  10.826 -0.1227 -0.5925 -0.8190
  738MOL0     C 1721   5.634   1.713  10.936  0.1439  0.8587 -0.0449
  738MOL0     C 1722   5.657   1.814  11.059  0.8321  1.0278  0.0686
  738MOL0     N 1723   5.752   1.755  11.161 -0.4305 -1.0280  0.7900
  738MOL0     C 1724   5.890   1.781  11.160  0.4440  1.0236  1.3525
  738MOL0     C 1725   5.939   1.719  11.264 -0.2507  0.1674 -0.2133
  738MOL0     C 1726   6.080   1.729  11.301 -1.2817  0.2483  0.1649
  738MOL0     C 1727   6.152   1.582  11.303  0.2717 -0.2483 -0.6915
  738MOL0     C 1728   6.298   1.580  11.329  0.3758  0.8323 -0.6228
  738MOL0     C 1729   6.400   1.636  11.232  0.5576 -0.3351  0.0605
  738MOL0     O 1730   6.523   1.573  11.258  0.3649 -0.1560 -0.2481
  738MOL0     C 1731   6.635   1.648  11.239  0.7430  0.0899  0.5114
  738MOL0     C 1732   6.698   1.631  11.120 -0.3630  0.3135  0.6714
  738MOL0     C 1733   6.812   1.706  11.079  0.4715  1.1469 -0.3515
  738MOL0     C 1734   6.877   1.673  10.952 -0.5266 -0.0139  0.5014
  738MOL0     C 1735   6.858   1.808  11.176 -0.4662 -0.1524 -1.2369
  738MOL0     C 1736   6.973   1.900  11.151  0.3447  0.9403  0.0634
  738MOL0     O 1737   6.982   2.013  11.230 -0.7762  0.7119  0.0087
  738MOL0     C 1738   7.073   2.117  11.203  0.8619 -0.8636 -0.3076
  738MOL0     C 1739   7.029   2.211  11.110  0.4797  0.4788 -1.1911
  738MOL0     C 1740   7.102   2.326  11.088  0.3168  0.5400 -0.1355
  738MOL0     C 1741   7.224   2.357  11.150 -0.0485  0.5537  0.4170
  738MOL0     O 1742   7.290   2.475  11.128  0.3567  0.3911  0.1746
  738MOL0     C 1743   7.432   2.504  11.180  1.1736  0.0189  0.0667
  738MOL0     C 1744   7.486   2.642  11.132  0.1468  0.3583  0.5304
  738MOL0     C 1745   7.454   2.671  10.981  0.1567  0.0902  0.4877
  738MOL0     C 1746   7.493   2.816  10.945 -0.2932 -0.0947 -1.0637
  738MOL0     C 1747   7.430   2.881  10.824  0.2130  0.6903  0.6113
  738MOL0     C 1748   7.450   2.818  10.693 -0.2343 -1.7615  0.4363
  738MOL0     C 1749   7.595   2.781  10.653 -0.2180  0.2218  0.3100
  738MOL0     C 1750   7.613   2.633  10.612  0.4323  0.3442  0.5080
  738MOL0    Cl 1751   7.492   2.578  10.495  0.0818  0.4566  0.1007
  738MOL0     C 1752   7.277   2.256  11.240  0.4833 -0.2290 -0.6045
  738MOL0     C 1753   7.194   2.139  11.273 -0.4361 -0.1930  0.2250
  738MOL0     O 1754   7.042   1.881  11.055 -0.2657  0.2603 -0.7990
  738MOL0     C 1755   6.788   1.821  11.295  1.1793 -0.3435 -0.2136
  738MOL0     C 1756   6.675   1.752  11.323 -0.4701  0.3260 -0.5969
  738MOL0     N 1757   5.837   1.658  11.331 -0.7442 -0.6027  0.4453
  738MOL0     N 1758   5.725   1.683  11.276  0.1798 -1.1750  0.1135
  738MOL0     C 1759   5.281   1.479  10.388 -0.3708  0.7373 -0.5380
  738MOL0     C 1760   5.335   1.450  10.260  0.3481  1.0038  0.3491
  738MOL0     C 1761   5.399   1.524   9.800 -0.2071  0.2070  0.4766
  738MOL0     C 1762   5.529   1.537   9.739  0.6552 -1.5753 -0.8236
  738MOL0     C 1763   5.555   1.522   9.605  0.5489 -0.4136  0.1494
  738MOL0     C 1764   5.448   1.490   9.520 -0.2733 -1.0309 -0.1467
  738MOL0     O 1765   5.464   1.469   9.386 -0.1990 -0.2289  0.4350
  738MOL0     C 1766   5.587   1.451   9.317  0.6852 -1.1939 -0.5014
  738MOL0     C 1767   5.542   1.390   9.183 -0.9668  0.0682  0.5746
  738MOL0     C 1768   5.530   1.239   9.178  0.1275  0.4142  0.9109
  738MOL0     C 1769   5.558   1.195   9.041 -0.9043  0.5068  0.8115
  738MOL0     C 1770   5.535   1.046   9.016  1.4077 -0.7810 -0.9321
  738MOL0     C 1771   5.524   0.929   9.015 -0.4688  0.0284 -0.0664
  738MOL0     C 1772   5.310   1.470   9.578 -1.3118  0.1466 -0.2291
  738MOL0     C 1773   5.288   1.500   9.720  0.3879 -0.4504 -0.4167
  738MOL0     C 1774   5.143   1.488   9.767  0.2304  0.1741 -0.3515
  738MOL0     H 1775   5.080   1.613  10.082  0.5051 -0.9709 -0.2851
  738MOL0     H 1776   4.999   1.647  10.313 -2.1356 -2.7000  1.8206
  738MOL0     H 1777   4.974   1.724  10.512 -0.4995  1.4040  1.2398
  738MOL0     H 1778   5.143   1.786  10.518  0.3600  0.8101  0.5726
  738MOL0     H 1779   5.033   1.824  10.716 -1.0705 -0.5487  1.5328
  738MOL0     H 1780   5.000   1.664  10.759  1.0000  0.1932  0.9270
  738MOL0     H 1781   5.184   1.706  10.876 -0.9469 -2.9312 -1.0100
  738MOL0     H 1782   5.255   1.605  10.754 -0.3858  0.3158 -2.7652
  738MOL0     H 1783   5.358   1.819  10.663  0.7515 -1.4393 -0.1166
  738MOL0     H 1784   5.242   1.913  10.773  0.3051  0.4159  2.7593
  738MOL0     H 1785   5.369   1.800  10.969  0.4874 -2.2397 -0.1369
  738MOL0     H 1786   5.435   1.938  10.879  2.3552 -1.0007 -2.5359
  738MOL0     H 1787   5.500   1.664  10.776  0.1517  0.4810 -3.0844
  738MOL0     H 1788   5.585   1.812  10.748 -1.2035  0.6281 -0.6545
  738MOL0     H 1789   5.732   1.677  10.902 -0.1449 -0.9049  0.8239
  738MOL0     H 1790   5.600   1.620  10.982 -0.2766  0.2825 -1.4576
  738MOL0     H 1791   5.684   1.911  11.017  1.5880  0.6745 -0.2746
  738MOL0     H 1792   5.563   1.827  11.114  0.3748  2.0280 -0.9202
  738MOL0     H 1793   5.944   1.854  11.100  1.6202  0.3932  1.6068
  738MOL0     H 1794   6.099   1.775  11.398  4.2021 -1.5293  0.2788
  738MOL0     H 1795   6.137   1.790  11.230 -1.5712  0.8452  0.4391
  738MOL0     H 1796   6.112   1.532  11.391 -0.1748  4.4959  2.1607
  738MOL0     H 1797   6.131   1.529  11.210 -1.6680  0.5808 -0.7795
  738MOL0     H 1798   6.317   1.624  11.427 -1.3786  1.5600 -0.5658
  738MOL0     H 1799   6.320   1.473  11.333 -0.8524  0.5968  0.9979
  738MOL0     H 1800   6.379   1.618  11.126  0.6843 -3.9140  0.5331
  738MOL0     H 1801   6.418   1.742  11.253  3.9351 -1.2453  2.5285
  738MOL0     H 1802   6.667   1.540  11.069  3.9598 -0.8673 -0.2659
  738MOL0     H 1803   6.979   1.638  10.968  0.8125  2.7229 -1.2395
  738MOL0     H 1804   6.876   1.768  10.898 -2.9532  1.2290  2.5212
  738MOL0     H 1805   6.821   1.601  10.893 -4.4354  1.9837  1.4505
  738MOL0     H 1806   6.931   2.202  11.065 -0.7795  0.2213  1.4159
  738MOL0     H 1807   7.068   2.387  11.005 -0.1553  0.6780  0.1546
  738MOL0     H 1808   7.432   2.496  11.289  0.1836 -0.7610  0.0265
  738MOL0     H 1809   7.498   2.427  11.139  1.9056  0.1815  0.8965
  738MOL0     H 1810   7.430   2.718  11.188  2.5712  0.4030  3.1010
  738MOL0     H 1811   7.594   2.657  11.142  0.0680  4.0059 -2.0886
  738MOL0     H 1812   7.347   2.656  10.962  0.3464  0.5994 -1.1719
  738MOL0     H 1813   7.510   2.604  10.916  0.1850  0.6759 -0.0985
  738MOL0     H 1814   7.601   2.832  10.931 -0.0889 -0.3296  0.1172
  738MOL0     H 1815   7.464   2.886  11.024  1.6304  1.4427 -1.6377
  738MOL0     H 1816   7.322   2.887  10.839 -0.8071  0.3331 -4.5553
  738MOL0     H 1817   7.467   2.984  10.822 -2.4122  1.7535 -2.2310
  738MOL0     H 1818   7.413   2.883  10.612 -0.8705 -1.7321  0.7402
  738MOL0     H 1819   7.380   2.734  10.687 -0.7066 -1.3600  0.1351
  738MOL0     H 1820   7.668   2.803  10.731 -0.6478  0.5732  0.6184
  738MOL0     H 1821   7.632   2.847  10.574 -3.6240  0.4432 -1.2889
  738MOL0     H 1822   7.617   2.577  10.706 -2.0747 -2.4846 -0.8913
  738MOL0     H 1823   7.709   2.627  10.559  2.7006  0.3724  4.1858
  738MOL0     H 1824   7.364   2.281  11.300  0.2084  0.7033 -0.5829
  738MOL0     H 1825   7.225   2.070  11.351  0.3418 -1.6349 -1.2978
  738MOL0     H 1826   6.821   1.886  11.376  1.2334 -0.9638  0.2749
  738MOL0     H 1827   6.629   1.751  11.421  0.9682  0.7860  0.1085
  738MOL0     H 1828   5.325   1.469  10.486  2.5138 -0.8183 -1.8643
  738MOL0     H 1829   5.432   1.402  10.262 -0.2446 -0.2810  2.3561
  738MOL0     H 1830   5.622   1.545   9.793  0.6762 -1.2255 -0.9109
  738MOL0     H 1831   5.657   1.533   9.569  0.7683 -0.2597  0.8001
  738MOL0     H 1832   5.634   1.550   9.320 -0.4636 -0.6284 -0.4903
  738MOL0     H 1833   5.652   1.378   9.367  2.1101  0.7623  0.6553
  738MOL0     H 1834   5.615   1.407   9.103 -1.6513 -0.6826 -0.2356
  738MOL0     H 1835   5.445   1.426   9.146 -1.0685 -1.4289 -0.7415
  738MOL0     H 1836   5.600   1.186   9.244  0.9499 -2.0757 -1.7680
  738MOL0     H 1837   5.435   1.193   9.205  0.2897 -0.4436  0.0574
  738MOL0     H 1838   5.666   1.201   9.025 -0.6960 -0.9459  1.4852
  738MOL0     H 1839   5.498   1.245   8.965 -0.6316 -0.8783 -0.3591
  738MOL0     H 1840   5.529   0.822   9.016 -2.1388 -0.1599 -2.7476
  738MOL0     H 1841   5.232   1.428   9.515 -0.5143  1.1608 -1.9415
  738MOL0     H 1842   5.105   1.589   9.783 -0.1616 -0.2459  1.6483
  738MOL0     H 1843   5.070   1.443   9.698  2.5399 -0.4078 -2.5851
  738MOL0     H 1844   5.132   1.423   9.855 -2.3989  2.9944  1.6015
  739MOL0     O 1845   9.373   3.700   7.168  0.8924  0.0767  0.1273
  739MOL0     C 1846   9.284   3.713   7.073  0.0337  0.0170  0.3027
  739MOL0     O 1847   9.315   3.723   6.941  0.6006 -0.5057  0.3095
  739MOL0     C 1848   9.446   3.748   6.902  0.2379 -0.1194 -0.5878
  739MOL0     C 1849   9.543   3.650   6.898 -0.5666 -0.5217  0.9323
  739MOL0     C 1850   9.679   3.681   6.882 -0.3418  0.1703 -0.3564
  739MOL0     C 1851   9.718   3.809   6.879  0.5484 -0.7771  0.3454
  739MOL0     O 1852   9.852   3.845   6.877  0.3724 -1.1246  0.1741
  739MOL0     C 1853   9.899   3.920   6.769  0.0091 -0.3084 -0.3068
  739MOL0     C 1854   9.904   3.820   6.656 -0.8195  1.1521  0.7569
  739MOL0     C 1855  10.011   3.709   6.665  0.6348  0.1507  0.7508
  739MOL0     C 1856  10.150   3.746   6.733 -1.0951 -0.4775  0.2335
  739MOL0     C 1857  10.253   3.625   6.754  0.1942  0.1517  0.9543
  739MOL0     C 1858  10.337   3.611   6.621 -0.0945 -0.6184  0.0380
  739MOL0     C 1859  10.459   3.503   6.617  0.0897 -0.0345  1.3228
  739MOL0     C 1860  10.531   3.475   6.747 -1.1601  0.7678  0.3187
  739MOL0     N 1861  10.637   3.377   6.722  0.1060  0.4347  0.1645
  739MOL0     C 1862  10.766   3.393   6.763  0.1697 -0.4873  0.5236
  739MOL0     C 1863  10.857   3.348   6.670 -0.4187 -0.6612  0.8122
  739MOL0     C 1864  11.009   3.370   6.685  0.3746  0.0480 -1.0124
  739MOL0     C 1865  11.072   3.424   6.551  0.5871  0.5679 -0.0761
  739MOL0     C 1866  11.211   3.381   6.528 -0.1088  0.1303  0.1268
  739MOL0     C 1867  11.278   3.478   6.426 -0.1494 -0.3386 -0.1225
  739MOL0     O 1868  11.308   3.605   6.495 -0.6555 -0.4513  0.4248
  739MOL0     C 1869  11.356   3.711   6.416  0.9371  0.5658  0.5529
  739MOL0     C 1870  11.397   3.695   6.282 -0.7484 -0.4792 -0.8566
  739MOL0     C 1871  11.454   3.795   6.197  0.2073  0.0722  0.6984
  739MOL0     C 1872  11.487   3.744   6.051 -0.9527 -0.5587 -0.4867
  739MOL0     C 1873  11.488   3.922   6.249  0.3073 -0.0068  0.1116
  739MOL0     C 1874  11.556   4.033   6.172 -0.0360  0.0843 -0.8657
  739MOL0     O 1875  11.583   4.141   6.248 -0.4783  0.4915 -0.7847
  739MOL0     C 1876  11.627   4.251   6.189 -0.6601  0.4536  1.0241
  739MOL0     C 1877  11.539   4.351   6.128 -1.1687  0.7747 -0.9904
  739MOL0     C 1878  11.597   4.457   6.060  0.7341 -0.9572 -0.3666
  739MOL0     C 1879  11.740   4.461   6.057  1.2924 -0.4120  0.4532
  739MOL0     O 1880  11.781   4.566   5.977 -0.1144  0.4532  0.6758
  739MOL0     C 1881  11.902   4.627   6.000 -0.4291  0.2549 -0.6067
  739MOL0     C 1882  11.911   4.744   5.906  0.7224 -0.1800  0.2027
  739MOL0     C 1883  12.025   4.833   5.943 -1.0480  0.0353 -0.8367
  739MOL0     C 1884  12.032   4.956   5.858  0.2800  0.2952  0.4342
  739MOL0     C 1885  12.135   5.062   5.915 -0.6935  1.0309 -0.4238
  739MOL0     C 1886  12.283   5.050   5.877  0.3998 -0.2045  0.4441
  739MOL0     C 1887  12.356   5.147   5.968 -0.1231 -1.1263 -0.7007
  739MOL0     C 1888  12.507   5.140   5.927  0.1225 -1.3804  0.3917
  739MOL0    Cl 1889  12.555   5.237   5.788  0.0696  0.4666 -0.1275
  739MOL0     C 1890  11.815   4.373   6.120  0.3809 -0.5514  0.6113
  739MOL0     C 1891  11.765   4.266   6.186 -0.4602 -0.0101 -0.2407
  739MOL0     O 1892  11.578   4.018   6.053  0.1683 -0.5122 -0.0894
  739MOL0     C 1893  11.436   3.940   6.385 -1.0026 -1.0025  0.2561
  739MOL0     C 1894  11.370   3.848   6.464  0.3953 -0.4912 -0.0731
  739MOL0     N 1895  10.785   3.284   6.575  0.1528 -0.6887 -0.3855
  739MOL0     N 1896  10.655   3.304   6.606 -0.1230  0.3572  0.2991
  739MOL0     C 1897   9.624   3.905   6.877  0.0737 -0.7901 -0.3369
  739MOL0     C 1898   9.490   3.879   6.888 -0.6047 -0.1450 -1.2327
  739MOL0     C 1899   9.144   3.688   7.099 -0.8068 -0.3000 -0.1414
  739MOL0     C 1900   9.054   3.687   6.986 -0.8597  0.2353 -0.7158
  739MOL0     C 1901   8.927   3.655   6.997  0.4091 -0.3251 -0.2207
  739MOL0     C 1902   8.859   3.631   7.121 -1.3395 -0.8966  0.6209
  739MOL0     O 1903   8.740   3.578   7.137  0.3295 -0.1303 -0.0263
  739MOL0     C 1904   8.670   3.506   7.031 -0.2985  0.4476 -0.0712
  739MOL0     C 1905   8.559   3.430   7.102 -0.1069  0.1827 -0.5027
  739MOL0     C 1906   8.471   3.344   7.013  1.0376  0.5650  0.1804
  739MOL0     C 1907   8.349   3.266   7.073 -0.1389  0.7398  0.0638
  739MOL0     C 1908   8.246   3.234   6.976  0.5404 -0.0319  0.7272
  739MOL0     C 1909   8.149   3.219   6.899 -0.1487 -0.1765  0.9653
  739MOL0     C 1910   8.942   3.649   7.232  0.3634  0.1165 -1.0157
  739MOL0     C 1911   9.082   3.665   7.223  0.4110 -0.8643  0.8097
  739MOL0     C 1912   9.152   3.678   7.359 -0.9453 -0.0871 -0.2265
  739MOL0     H 1913   9.505   3.549   6.911 -5.0228  0.8681  0.1746
  739MOL0     H 1914   9.758   3.609   6.903 -0.3840 -0.2224 -1.4584
  739MOL0     H 1915   9.996   3.964   6.791 -0.3712  0.1335  0.5340
  739MOL0     H 1916   9.837   4.008   6.748  1.5900  0.8884 -0.0495
  739MOL0     H 1917   9.803   3.787   6.632 -1.1668  2.8293 -0.2227
  739MOL0     H 1918   9.926   3.879   6.566 -0.1467 -0.5985 -0.2724
  739MOL0     H 1919   9.965   3.623   6.715 -1.2260  0.5581 -0.1902
  739MOL0     H 1920  10.036   3.676   6.563  0.7751 -1.1353  1.1782
  739MOL0     H 1921  10.203   3.828   6.684 -2.2492 -0.0329 -0.3260
  739MOL0     H 1922  10.125   3.794   6.828  1.4994 -0.1402  0.8218
  739MOL0     H 1923  10.211   3.528   6.780 -1.0730  0.0805 -1.1600
  739MOL0     H 1924  10.320   3.661   6.832  0.9601  1.7328 -0.3521
  739MOL0     H 1925  10.268   3.593   6.537  1.0379 -5.7053 -0.1578
  739MOL0     H 1926  10.389   3.707   6.617 -2.0185  0.4521 -1.8556
  739MOL0     H 1927  10.532   3.527   6.539  0.2024 -1.9912  0.7611
  739MOL0     H 1928  10.409   3.415   6.574  2.0918 -1.7041  2.2645
  739MOL0     H 1929  10.575   3.558   6.803  0.5865  0.0169  0.1452
  739MOL0     H 1930  10.454   3.422   6.804  0.9767 -0.7694  1.9594
  739MOL0     H 1931  10.795   3.438   6.858  3.3389  2.3772 -1.5811
  739MOL0     H 1932  11.053   3.273   6.712  1.2183  0.1116 -2.0721
  739MOL0     H 1933  11.029   3.440   6.767 -0.5680 -0.5393 -0.2601
  739MOL0     H 1934  11.017   3.383   6.466  0.2736  2.5492 -0.8841
  739MOL0     H 1935  11.058   3.533   6.556 -1.2167  0.3262  2.4051
  739MOL0     H 1936  11.266   3.368   6.621 -0.7768  0.3947  0.5673
  739MOL0     H 1937  11.202   3.281   6.483  0.5477  1.2693 -2.7483
  739MOL0     H 1938  11.373   3.438   6.390  0.5837 -0.6883  2.0454
  739MOL0     H 1939  11.222   3.497   6.334  1.4614  0.6833 -0.9337
  739MOL0     H 1940  11.367   3.599   6.242 -1.0757 -0.4734 -0.6271
  739MOL0     H 1941  11.458   3.816   5.974  2.2521 -0.0713 -1.4124
  739MOL0     H 1942  11.461   3.640   6.030 -1.0537 -0.7242  0.4114
  739MOL0     H 1943  11.594   3.758   6.032 -0.4696 -1.6503  1.1953
  739MOL0     H 1944  11.434   4.324   6.128 -1.0355  0.0825  1.3252
  739MOL0     H 1945  11.518   4.518   6.016 -0.7579 -4.0976 -2.3543
  739MOL0     H 1946  11.900   4.661   6.104  3.1962  3.8159 -1.4455
  739MOL0     H 1947  11.990   4.563   5.987 -0.7084 -0.2524 -0.0411
  739MOL0     H 1948  11.920   4.697   5.807 -3.4906  1.2282 -1.0386
  739MOL0     H 1949  11.819   4.802   5.900 -0.3242 -1.8477 -0.5373
  739MOL0     H 1950  12.117   4.775   5.950  0.4409  2.3990  3.1208
  739MOL0     H 1951  12.015   4.859   6.049 -0.1730 -1.8291 -0.2539
  739MOL0     H 1952  11.931   4.995   5.843  0.8230  2.0890  1.2247
  739MOL0     H 1953  12.063   4.922   5.758  0.9527  1.2727  0.2963
  739MOL0     H 1954  12.108   5.160   5.874 -3.1785  0.0790 -1.2807
  739MOL0     H 1955  12.131   5.065   6.024 -0.6521 -2.9503 -0.1599
  739MOL0     H 1956  12.297   5.064   5.769  0.5582 -4.5785 -0.2759
  739MOL0     H 1957  12.324   4.949   5.888  1.5471  0.2336  0.3505
  739MOL0     H 1958  12.359   5.110   6.070 -3.0744 -1.5153 -0.6919
  739MOL0     H 1959  12.306   5.244   5.966  3.6111  1.1899  2.6716
  739MOL0     H 1960  12.520   5.037   5.892  3.4084 -0.8838 -0.1780
  739MOL0     H 1961  12.571   5.164   6.013  0.0545 -1.1385  0.3745
  739MOL0     H 1962  11.923   4.387   6.118  0.1828  1.1850  1.0034
  739MOL0     H 1963  11.827   4.206   6.252 -0.7125  0.3369  0.3104
  739MOL0     H 1964  11.449   4.041   6.420  0.4639 -0.2459 -2.2489
  739MOL0     H 1965  11.347   3.887   6.563  1.8670  0.0003  0.1009
  739MOL0     H 1966   9.638   4.011   6.859 -1.5017 -0.7157 -1.3237
  739MOL0     H 1967   9.424   3.965   6.898 -1.0022 -0.5813  0.0801
  739MOL0     H 1968   9.075   3.685   6.880  0.3382  0.7736 -0.5048
  739MOL0     H 1969   8.878   3.650   6.900 -0.5595  4.8049 -0.2980
  739MOL0     H 1970   8.626   3.568   6.952 -1.9336  0.4582  0.7827
  739MOL0     H 1971   8.738   3.432   6.988  0.0577  0.6049  0.2222
  739MOL0     H 1972   8.504   3.503   7.162 -2.4225 -2.2907  0.5939
  739MOL0     H 1973   8.604   3.365   7.177 -0.8702  0.6595  0.3944
  739MOL0     H 1974   8.435   3.407   6.932  2.1082 -0.7161 -1.3459
  739MOL0     H 1975   8.537   3.267   6.972  1.5014  0.9701  0.1606
  739MOL0     H 1976   8.307   3.339   7.143  1.2314  1.9360 -0.3127
  739MOL0     H 1977   8.385   3.184   7.135  2.7281  2.5152  0.9396
  739MOL0     H 1978   8.064   3.196   6.838 -0.2003 -1.1837  1.4113
  739MOL0     H 1979   8.886   3.629   7.323  0.9570 -0.5957 -0.8045
  739MOL0     H 1980   9.090   3.716   7.440 -0.5494 -0.1845  0.1298
  739MOL0     H 1981   9.180   3.577   7.389 -0.6290  0.6620  2.1961
  739MOL0     H 1982   9.232   3.753   7.358  0.3493 -1.4255 -0.2162
  740MOL0     O 1983   3.142   6.764   6.659 -0.0337 -0.3385  0.4990
  740MOL0     C 1984   3.212   6.693   6.584 -0.8348  0.7471  0.8763
  740MOL0     O 1985   3.346   6.713   6.552 -0.2534 -0.1959 -0.4812
  740MOL0     C 1986   3.430   6.751   6.648 -0.2713 -0.4932  0.1656
  740MOL0     C 1987   3.481   6.881   6.645  0.1241  0.1310 -0.4621
  740MOL0     C 1988   3.559   6.914   6.755 -0.2246 -0.8846  0.1979
  740MOL0     C 1989   3.600   6.826   6.854  0.0976  0.8839  0.3122
  740MOL0     O 1990   3.691   6.850   6.950 -0.0755  0.4729  0.5990
  740MOL0     C 1991   3.650   6.938   7.057 -0.5498 -0.2926 -0.1579
  740MOL0     C 1992   3.726   6.895   7.183  0.9346  0.2605 -0.2469
  740MOL0     C 1993   3.694   6.974   7.297 -0.1336 -0.3889 -0.2792
  740MOL0     C 1994   3.748   7.126   7.308  0.3504  0.5063 -0.0237
  740MOL0     C 1995   3.757   7.183   7.452 -0.2990 -0.3423  0.3553
  740MOL0     C 1996   3.841   7.312   7.461 -0.3648 -0.1525 -0.1666
  740MOL0     C 1997   3.753   7.429   7.425  0.8356  0.4876  0.2564
  740MOL0     C 1998   3.834   7.565   7.438 -0.0702  0.8753  0.0580
  740MOL0     N 1999   3.876   7.576   7.581  0.6793 -0.8780 -0.1012
  740MOL0     C 2000   3.995   7.605   7.628  0.8931  0.6245  0.5880
  740MOL0     C 2001   3.983   7.619   7.759  1.1598  0.1985 -0.1421
  740MOL0     C 2002   4.091   7.631   7.866 -0.0098 -0.3071 -0.6663
  740MOL0     C 2003   4.100   7.774   7.930  0.5517 -0.3944 -0.2889
  740MOL0     C 2004   3.955   7.825   7.996 -0.3907  0.0083  0.5271
  740MOL0     C 2005   3.972   7.972   8.045  0.0941 -0.6646 -0.2519
  740MOL0     O 2006   4.003   7.965   8.184 -0.4667  0.2897  0.2894
  740MOL0     C 2007   3.977   8.059   8.270  0.9628 -0.6095 -0.1094
  740MOL0     C 2008   3.963   8.020   8.405  0.7589  0.3869 -0.2734
  740MOL0     C 2009   3.930   8.109   8.506 -0.2624 -0.0988 -0.4312
  740MOL0     C 2010   3.897   8.033   8.638 -0.0819  0.0549  0.0974
  740MOL0     C 2011   3.943   8.247   8.477 -0.0733 -0.1025 -0.4990
  740MOL0     C 2012   3.935   8.346   8.593 -0.6786  1.1173  0.4879
  740MOL0     O 2013   3.956   8.470   8.561  0.3570 -0.3188  0.0709
  740MOL0     C 2014   3.924   8.575   8.648 -0.1376 -0.9102  1.1141
  740MOL0     C 2015   3.836   8.680   8.593 -0.5760 -0.8114  0.0833
  740MOL0     C 2016   3.796   8.786   8.681 -0.2073  0.9369 -1.1544
  740MOL0     C 2017   3.849   8.788   8.811 -0.2086 -0.9552  0.8870
  740MOL0     O 2018   3.806   8.902   8.879  0.8697  0.3047  0.1000
  740MOL0     C 2019   3.674   8.878   8.928 -1.0651  0.0337 -0.5914
  740MOL0     C 2020   3.613   9.021   8.982 -0.0438  0.1369 -0.0856
  740MOL0     C 2021   3.489   8.993   9.066 -0.0891 -0.7602  0.8050
  740MOL0     C 2022   3.434   9.130   9.117 -0.4411  0.1005 -0.0569
  740MOL0     C 2023   3.304   9.099   9.198  0.2126 -0.4950 -0.0151
  740MOL0     C 2024   3.245   9.221   9.255  0.2933  1.1502  0.4570
  740MOL0     C 2025   3.109   9.190   9.297 -0.2339  0.6499 -0.6130
  740MOL0     C 2026   3.088   9.093   9.421  0.0226  0.4175  0.7833
  740MOL0    Cl 2027   3.176   9.156   9.564  0.6031 -0.0192  0.1111
  740MOL0     C 2028   3.924   8.688   8.859 -0.2056 -0.0878 -0.3076
  740MOL0     C 2029   3.962   8.578   8.780 -0.3283 -0.5297  0.0150
  740MOL0     O 2030   3.904   8.302   8.702 -0.7572  0.2031  0.6423
  740MOL0     C 2031   3.956   8.282   8.344 -0.8886  0.4574  0.3116
  740MOL0     C 2032   3.968   8.195   8.234  0.3735 -0.5667 -0.9537
  740MOL0     N 2033   3.843   7.602   7.791 -1.2897  0.3652 -0.2963
  740MOL0     N 2034   3.785   7.568   7.683 -0.8449 -0.6262  0.1293
  740MOL0     C 2035   3.556   6.685   6.845 -0.1083  0.5447  0.3673
  740MOL0     C 2036   3.467   6.654   6.749  1.7754 -0.9091  0.1850
  740MOL0     C 2037   3.162   6.561   6.526 -0.3379  1.0222 -0.3798
  740MOL0     C 2038   3.243   6.443   6.521 -0.2745 -0.1583 -0.9973
  740MOL0     C 2039   3.210   6.332   6.457  0.0729  0.0582  0.6676
  740MOL0     C 2040   3.088   6.321   6.388 -0.5486  0.3286 -0.3548
  740MOL0     O 2041   3.048   6.205   6.327  0.0413  0.3053 -0.1848
  740MOL0     C 2042   3.040   6.234   6.181 -0.3037  0.0588  0.5603
  740MOL0     C 2043   3.132   6.152   6.094 -1.4901 -0.1838  0.4381
  740MOL0     C 2044   3.150   6.007   6.126  0.3554  0.1817  0.3819
  740MOL0     C 2045   3.235   5.968   6.240 -0.8873  0.3279  0.3918
  740MOL0     C 2046   3.310   5.844   6.221 -0.7436 -0.6988  0.2251
  740MOL0     C 2047   3.362   5.740   6.208 -0.5127 -0.3564 -0.2359
  740MOL0     C 2048   3.003   6.427   6.396 -0.2108  1.1491 -0.6567
  740MOL0     C 2049   3.034   6.548   6.472  0.9504 -0.8710 -0.8092
  740MOL0     C 2050   2.922   6.655   6.482 -0.1677  0.1145  0.1263
  740MOL0     H 2051   3.458   6.954   6.568 -0.5397  1.0830  0.6052
  740MOL0     H 2052   3.593   7.015   6.774  1.1687 -1.7133  2.6089
  740MOL0     H 2053   3.542   6.922   7.068 -1.2450  2.9100 -1.2877
  740MOL0     H 2054   3.663   7.043   7.031  1.2452 -0.6321 -0.7799
  740MOL0     H 2055   3.691   6.796   7.214 -3.1247  1.5717  0.0104
  740MOL0     H 2056   3.834   6.896   7.171  0.9366  1.9853 -0.2947
  740MOL0     H 2057   3.586   6.960   7.289  0.0788 -2.4337 -0.1272
  740MOL0     H 2058   3.715   6.927   7.394 -0.0304 -0.7044 -0.4515
  740MOL0     H 2059   3.851   7.128   7.271  0.1844  2.1314 -0.4624
  740MOL0     H 2060   3.685   7.191   7.248  0.0150  0.3437  0.1472
  740MOL0     H 2061   3.806   7.113   7.521  2.3523  1.5421  0.5394
  740MOL0     H 2062   3.651   7.186   7.474 -0.8325 -0.9984 -1.8160
  740MOL0     H 2063   3.872   7.326   7.565 -3.5368 -0.6254  0.9651
  740MOL0     H 2064   3.928   7.302   7.396 -1.3997 -0.2973 -1.5824
  740MOL0     H 2065   3.659   7.428   7.480 -0.2150 -1.3983 -1.4457
  740MOL0     H 2066   3.727   7.419   7.319  1.9530 -2.9705  0.1813
  740MOL0     H 2067   3.913   7.557   7.362 -0.8975 -0.9209 -0.6486
  740MOL0     H 2068   3.769   7.650   7.417  0.0915  1.2568  1.0362
  740MOL0     H 2069   4.092   7.607   7.580 -0.0804 -0.2924 -1.5137
  740MOL0     H 2070   4.188   7.615   7.818 -0.0503  1.4761 -1.4327
  740MOL0     H 2071   4.073   7.569   7.954  3.6561  0.6281  0.9418
  740MOL0     H 2072   4.180   7.790   8.002  0.9715  4.1201 -1.4725
  740MOL0     H 2073   4.122   7.843   7.848  1.7955  0.8112  1.0060
  740MOL0     H 2074   3.880   7.836   7.916  0.8606 -1.6658 -0.9581
  740MOL0     H 2075   3.907   7.765   8.073  1.8476  1.5445  3.2759
  740MOL0     H 2076   4.051   8.027   7.993 -1.1894 -0.3035 -1.9166
  740MOL0     H 2077   3.882   8.035   8.037  2.6939  3.7548  1.5653
  740MOL0     H 2078   3.962   7.912   8.418 -2.4783  0.1194 -1.7991
  740MOL0     H 2079   3.820   8.084   8.697 -1.0904 -0.8341 -0.4258
  740MOL0     H 2080   3.986   8.015   8.699  0.3667 -2.9429 -1.2687
  740MOL0     H 2081   3.846   7.939   8.614 -1.1138  0.1844  1.6431
  740MOL0     H 2082   3.792   8.676   8.494 -2.1367  1.1906  0.6330
  740MOL0     H 2083   3.732   8.857   8.631  0.5306  0.5452 -2.7359
  740MOL0     H 2084   3.597   8.848   8.856 -0.3061 -4.2882  0.1377
  740MOL0     H 2085   3.669   8.800   9.005 -1.3408 -0.3619 -1.0044
  740MOL0     H 2086   3.689   9.076   9.037 -0.1839  0.9063 -0.6495
  740MOL0     H 2087   3.584   9.077   8.892  2.5502  0.4183 -0.8079
  740MOL0     H 2088   3.516   8.924   9.146  0.2364 -1.3175  0.2259
  740MOL0     H 2089   3.409   8.937   9.016 -1.1098  0.7138  0.7241
  740MOL0     H 2090   3.400   9.193   9.034 -2.0381 -0.6385 -0.0021
  740MOL0     H 2091   3.502   9.183   9.184  1.1837  1.8515 -2.8676
  740MOL0     H 2092   3.244   9.046   9.123  2.2442 -4.2852  0.7436
  740MOL0     H 2093   3.337   9.036   9.282 -1.3529 -0.4730  0.6464
  740MOL0     H 2094   3.239   9.290   9.171  1.7575 -0.4380 -1.0344
  740MOL0     H 2095   3.308   9.252   9.338  0.7917  0.4743  0.3424
  740MOL0     H 2096   3.054   9.150   9.211 -1.5583 -0.0925  0.5304
  740MOL0     H 2097   3.059   9.281   9.331  0.2535  1.1115 -1.1307
  740MOL0     H 2098   3.120   8.995   9.385 -1.1529  0.3428 -0.1326
  740MOL0     H 2099   2.981   9.092   9.447 -0.8056 -1.9106 -2.1603
  740MOL0     H 2100   3.954   8.704   8.962 -1.0306 -0.8634  0.0670
  740MOL0     H 2101   4.019   8.495   8.823  0.3751  0.1711  0.4676
  740MOL0     H 2102   3.981   8.386   8.326  0.2935  0.1801  0.2147
  740MOL0     H 2103   3.971   8.227   8.131  2.3121  0.8654 -0.5116
  740MOL0     H 2104   3.584   6.609   6.917 -2.4592 -0.3830  0.3708
  740MOL0     H 2105   3.429   6.552   6.756  5.0123 -2.1855  0.6930
  740MOL0     H 2106   3.339   6.437   6.573 -1.8188 -5.1127  1.8704
  740MOL0     H 2107   3.286   6.254   6.453  1.2344  1.1688  0.3780
  740MOL0     H 2108   2.937   6.223   6.149  0.2744  1.5423 -2.0726
  740MOL0     H 2109   3.068   6.337   6.157 -0.9937 -0.1640 -1.3635
  740MOL0     H 2110   3.229   6.202   6.091 -2.2047  1.2014 -1.1323
  740MOL0     H 2111   3.080   6.156   5.998 -1.1498 -3.5708 -0.0232
  740MOL0     H 2112   3.047   5.976   6.147 -0.9753  1.6855 -3.1341
  740MOL0     H 2113   3.183   5.959   6.033  1.3090 -0.3743  0.9963
  740MOL0     H 2114   3.170   5.963   6.328  0.4702 -0.7133  1.3789
  740MOL0     H 2115   3.309   6.045   6.260 -0.1814 -0.4048  0.6289
  740MOL0     H 2116   3.422   5.654   6.188  2.0870  1.9226 -3.2219
  740MOL0     H 2117   2.909   6.420   6.342 -0.4657  2.1948 -0.3765
  740MOL0     H 2118   2.821   6.621   6.460 -0.3939 -0.9740  2.4972
  740MOL0     H 2119   2.912   6.712   6.576 -3.2321  1.5632 -0.9591
  740MOL0     H 2120   2.943   6.732   6.407 -2.5715  0.4970 -0.2160
  741MOL0     O 2121   0.931   3.508   8.990 -0.7668  0.5528  0.7915
  741MOL0     C 2122   1.028   3.435   8.998 -0.3278  1.1358  0.2788
  741MOL0     O 2123   1.070   3.364   9.107  0.3207 -0.9271 -0.2564
  741MOL0     C 2124   0.997   3.365   9.222  0.6215 -0.7689  0.0485
  741MOL0     C 2125   0.863   3.324   9.225 -0.1812  0.3220  0.6562
  741MOL0     C 2126   0.792   3.315   9.347  0.6372 -0.7458  0.5484
  741MOL0     C 2127   0.859   3.358   9.464  0.2742  0.2809 -0.4550
  741MOL0     O 2128   0.796   3.374   9.580 -0.7324  0.1090 -0.4966
  741MOL0     C 2129   0.656   3.383   9.582  0.7971 -0.7436 -0.1314
  741MOL0     C 2130   0.618   3.449   9.709 -0.0166 -0.5946  0.7066
  741MOL0     C 2131   0.599   3.341   9.814  0.0631 -0.0791 -0.4469
  741MOL0     C 2132   0.562   3.405   9.950  1.3000 -0.0326  0.3744
  741MOL0     C 2133   0.504   3.303  10.051  0.3506 -0.7898  0.4810
  741MOL0     C 2134   0.613   3.212  10.117 -0.2207 -0.5474 -0.3054
  741MOL0     C 2135   0.569   3.149  10.247 -0.8493 -0.0470 -0.2416
  741MOL0     C 2136   0.668   3.032  10.284 -0.0254  0.7518 -0.4289
  741MOL0     N 2137   0.620   2.972  10.415  0.4223  0.4589  0.4716
  741MOL0     C 2138   0.552   3.039  10.521 -0.2263  0.5094  0.5741
  741MOL0     C 2139   0.526   2.941  10.610  0.3092 -0.7440 -0.5468
  741MOL0     C 2140   0.473   2.957  10.745  0.7604 -0.2711 -0.6293
  741MOL0     C 2141   0.338   3.027  10.735  0.4864 -0.2164  0.4727
  741MOL0     C 2142   0.225   2.923  10.737  0.6138  0.3794  0.0487
  741MOL0     C 2143   0.090   2.993  10.740  0.3837 -0.6560 -0.0596
  741MOL0     O 2144   0.066   3.090  10.849  0.4909  0.2447 -0.3219
  741MOL0     C 2145   0.018   3.044  10.980 -0.8347 -0.3545  0.5819
  741MOL0     C 2146   0.010   3.144  11.075 -0.0026  0.1390 -0.9680
  741MOL0     C 2147  -0.041   3.113  11.203 -0.3010 -0.5402  0.9431
  741MOL0     C 2148  -0.043   3.223  11.295  0.6733  0.0666 -0.1307
  741MOL0     C 2149  -0.101   2.985  11.231 -0.4010  1.0554  0.3996
  741MOL0     C 2150  -0.158   2.933  11.361 -0.4754  0.4217  0.9112
  741MOL0     O 2151  -0.145   3.004  11.474 -0.0173  0.1258  0.2511
  741MOL0     C 2152  -0.200   2.951  11.582  0.0692 -0.8087  0.5908
  741MOL0     C 2153  -0.130   2.876  11.670  0.1960  0.7694 -0.5204
  741MOL0     C 2154  -0.191   2.815  11.780 -0.4284  0.0428 -0.1699
  741MOL0     C 2155  -0.320   2.852  11.817  1.1750 -0.2953 -0.1646
  741MOL0     O 2156  -0.379   2.804  11.930  0.4083 -0.7536 -0.1086
  741MOL0     C 2157  -0.348   2.667  11.961 -0.2094 -0.5157  0.4526
  741MOL0     C 2158  -0.484   2.599  11.980  0.8948  0.7997  0.1082
  741MOL0     C 2159  -0.554   2.624  12.119 -0.4498  0.4551 -1.2377
  741MOL0     C 2160  -0.567   2.781  12.157 -1.0510  0.4341  0.2331
  741MOL0     C 2161  -0.632   2.809  12.285 -0.2614 -0.8297 -0.8536
  741MOL0     C 2162  -0.634   2.959  12.330  0.0762 -0.3983  0.2725
  741MOL0     C 2163  -0.754   2.979  12.437  0.0541 -0.8551  0.3217
  741MOL0     C 2164  -0.762   3.124  12.481  0.5631  0.5860 -0.4498
  741MOL0    Cl 2165  -0.798   3.231  12.340  0.7982  0.2586 -0.1620
  741MOL0     C 2166  -0.392   2.932  11.726  0.4025  0.5686  0.3274
  741MOL0     C 2167  -0.334   2.976  11.606  0.2963 -0.8342  0.0507
  741MOL0     O 2168  -0.209   2.819  11.359  0.3591 -0.8477  0.3124
  741MOL0     C 2169  -0.107   2.900  11.119  0.0559  0.3374 -0.7402
  741MOL0     C 2170  -0.043   2.921  10.995  0.2647 -0.7206  0.0718
  741MOL0     N 2171   0.566   2.820  10.567 -0.6008 -0.3858  0.3857
  741MOL0     N 2172   0.616   2.835  10.447  0.5313  0.0776 -0.0682
  741MOL0     C 2173   0.994   3.386   9.457  1.1522 -1.5808 -0.2721
  741MOL0     C 2174   1.056   3.395   9.333  0.0731  0.0930 -0.5764
  741MOL0     C 2175   1.113   3.454   8.876  0.3579 -0.4985  0.5860
  741MOL0     C 2176   1.218   3.548   8.866  0.4952  0.1815 -0.3873
  741MOL0     C 2177   1.292   3.562   8.745  0.5205 -0.0172 -0.0157
  741MOL0     C 2178   1.260   3.482   8.633  0.5413  1.1231  0.4207
  741MOL0     O 2179   1.319   3.512   8.512 -0.0299 -0.0736 -0.6224
  741MOL0     C 2180   1.261   3.473   8.390 -0.3814  0.6818 -0.3200
  741MOL0     C 2181   1.130   3.531   8.364 -1.1412 -0.4113  0.0965
  741MOL0     C 2182   1.136   3.690   8.352 -0.1570  0.7200  0.3823
  741MOL0     C 2183   1.158   3.729   8.206  0.2967  0.1131  0.2058
  741MOL0     C 2184   1.217   3.871   8.202  0.1011  0.2328 -0.8014
  741MOL0     C 2185   1.272   3.987   8.195 -0.8615  0.4421 -0.3542
  741MOL0     C 2186   1.159   3.386   8.649  0.3168 -0.1004  0.5590
  741MOL0     C 2187   1.083   3.374   8.765 -0.4033  0.1764  0.0438
  741MOL0     C 2188   0.981   3.262   8.776  0.4702  0.8785  0.1583
  741MOL0     H 2189   0.803   3.301   9.137 -0.0709 -2.2092  1.1693
  741MOL0     H 2190   0.685   3.303   9.344  0.5002  0.1188  1.5009
  741MOL0     H 2191   0.596   3.291   9.578  0.4713 -0.4854 -2.5292
  741MOL0     H 2192   0.630   3.447   9.497  2.3102 -3.3061 -2.7075
  741MOL0     H 2193   0.693   3.525   9.734  0.5794 -0.4324 -1.3357
  741MOL0     H 2194   0.529   3.509   9.689 -1.2021 -3.0700 -2.1628
  741MOL0     H 2195   0.527   3.266   9.781  1.8758 -1.7029 -0.8869
  741MOL0     H 2196   0.695   3.292   9.831 -0.6753 -1.5340 -0.3289
  741MOL0     H 2197   0.660   3.440   9.983  1.9092 -1.3233 -0.0080
  741MOL0     H 2198   0.492   3.489   9.943  2.7407  1.2639  0.9525
  741MOL0     H 2199   0.427   3.242  10.003  0.5095 -1.1785  0.7180
  741MOL0     H 2200   0.463   3.369  10.128  3.5199 -0.4861  2.0652
  741MOL0     H 2201   0.642   3.133  10.047  0.8757  0.4430 -1.0010
  741MOL0     H 2202   0.705   3.268  10.138 -1.1315  1.1209 -0.6080
  741MOL0     H 2203   0.467   3.111  10.240 -0.0452 -2.1067 -1.6036
  741MOL0     H 2204   0.580   3.229  10.321  1.3680  0.1806 -0.7378
  741MOL0     H 2205   0.677   2.956  10.205  0.0825 -1.2756  1.4243
  741MOL0     H 2206   0.771   3.064  10.300 -0.5330  1.8652  0.7565
  741MOL0     H 2207   0.530   3.145  10.519 -0.7124  0.4275 -1.9702
  741MOL0     H 2208   0.539   3.033  10.787 -3.5399  2.6354  1.6939
  741MOL0     H 2209   0.463   2.868  10.809  1.1437  0.8126  0.9933
  741MOL0     H 2210   0.322   3.099  10.816 -0.5079  2.3933 -1.8686
  741MOL0     H 2211   0.318   3.078  10.640 -3.3302 -1.1480  0.6020
  741MOL0     H 2212   0.216   2.865  10.644  3.4821 -1.2444  0.6819
  741MOL0     H 2213   0.243   2.848  10.814  2.9817 -0.9017 -1.6193
  741MOL0     H 2214   0.085   3.044  10.644  1.4731 -0.6446 -0.1246
  741MOL0     H 2215   0.006   2.924  10.728 -1.0658  1.3334 -2.3949
  741MOL0     H 2216   0.049   3.243  11.055 -0.3420  0.0936 -1.9119
  741MOL0     H 2217   0.017   3.211  11.385  0.3930 -0.9045 -0.0703
  741MOL0     H 2218  -0.145   3.236  11.333  1.1298  0.9593  0.8527
  741MOL0     H 2219  -0.022   3.312  11.234 -1.3205 -0.2806 -1.4163
  741MOL0     H 2220  -0.024   2.857  11.662  0.6536  2.1949  1.4283
  741MOL0     H 2221  -0.116   2.767  11.842 -1.1543  0.5402  1.1114
  741MOL0     H 2222  -0.292   2.612  11.885 -0.5007  1.9565 -1.6605
  741MOL0     H 2223  -0.291   2.671  12.055  1.5727  0.8687 -0.6384
  741MOL0     H 2224  -0.549   2.640  11.902  2.0830  0.3866 -1.1571
  741MOL0     H 2225  -0.475   2.490  11.967 -1.3885  0.8772 -3.4454
  741MOL0     H 2226  -0.492   2.581  12.198 -1.4409  1.1810 -0.0353
  741MOL0     H 2227  -0.651   2.574  12.122 -0.4605  0.4654  1.7357
  741MOL0     H 2228  -0.615   2.839  12.078 -1.3523  2.4218  1.7877
  741MOL0     H 2229  -0.467   2.825  12.152 -0.7976 -0.0572  0.9463
  741MOL0     H 2230  -0.734   2.770  12.278  0.0306 -1.2947 -3.2080
  741MOL0     H 2231  -0.579   2.757  12.365  2.2368  4.7304  1.7177
  741MOL0     H 2232  -0.653   3.026  12.246  3.1088 -2.0870 -1.9876
  741MOL0     H 2233  -0.545   2.992  12.385 -0.8463 -0.5525  1.9461
  741MOL0     H 2234  -0.748   2.915  12.526 -2.6133  1.6288  2.4817
  741MOL0     H 2235  -0.842   2.945  12.382 -0.8411 -0.0299  1.2025
  741MOL0     H 2236  -0.664   3.159  12.515  0.3983 -0.2987  1.0093
  741MOL0     H 2237  -0.837   3.134  12.560  1.5578  1.0756  0.4598
  741MOL0     H 2238  -0.498   2.948  11.744 -0.3200 -1.2745 -1.8414
  741MOL0     H 2239  -0.375   3.038  11.527  1.0455 -2.6668 -1.8706
  741MOL0     H 2240  -0.142   2.798  11.127 -1.1867  0.7942  0.0436
  741MOL0     H 2241  -0.054   2.841  10.923  2.3111 -2.3491  1.4628
  741MOL0     H 2242   1.054   3.425   9.539  1.9478 -1.3652 -0.9320
  741MOL0     H 2243   1.160   3.425   9.331  0.2427 -0.3177  0.8381
  741MOL0     H 2244   1.233   3.620   8.946  0.5053  0.4714 -0.6449
  741MOL0     H 2245   1.371   3.636   8.735  1.5641 -0.7259  2.2905
  741MOL0     H 2246   1.315   3.516   8.305 -1.5818  0.4348 -1.2394
  741MOL0     H 2247   1.262   3.364   8.386  3.4913  0.4805  1.4919
  741MOL0     H 2248   1.061   3.507   8.445 -0.5107  0.1126  0.8152
  741MOL0     H 2249   1.085   3.501   8.270  0.6652 -0.4915 -0.7939
  741MOL0     H 2250   1.047   3.735   8.396  0.5911 -0.8171  3.7341
  741MOL0     H 2251   1.211   3.736   8.417  1.7984 -1.5757 -0.0934
  741MOL0     H 2252   1.067   3.716   8.148 -0.6684 -0.2218  1.7223
  741MOL0     H 2253   1.223   3.663   8.148 -0.0983  0.9238 -1.2094
  741MOL0     H 2254   1.316   4.084   8.195  0.5692 -0.1640  0.8152
  741MOL0     H 2255   1.136   3.327   8.560 -2.9095 -0.5087  1.5226
  741MOL0     H 2256   0.963   3.198   8.689 -1.3292  0.7268  0.6133
  741MOL0     H 2257   1.022   3.190   8.847  0.3787  1.7490  1.1147
  741MOL0     H 2258   0.884   3.287   8.819 -0.5048  2.1909 -2.5457
  742MOL0     O 2259   0.995   9.381   3.709  1.4701  0.3093 -0.6523
  742MOL0     C 2260   0.972   9.494   3.679 -0.6365  0.0231  1.0709
  742MOL0     O 2261   1.055   9.596   3.707 -0.0768  0.6873 -0.5109
  742MOL0     C 2262   1.156   9.575   3.794 -0.0927 -1.0340  0.5402
  742MOL0     C 2263   1.282   9.625   3.757 -0.2925  0.0956  0.0301
  742MOL0     C 2264   1.399   9.597   3.833  0.4502  1.2857  0.4903
  742MOL0     C 2265   1.386   9.520   3.954  1.5832 -0.7433  0.0046
  742MOL0     O 2266   1.505   9.486   4.021  0.3882 -0.6850  0.1945
  742MOL0     C 2267   1.516   9.522   4.158 -0.5914  1.2605 -0.2715
  742MOL0     C 2268   1.523   9.675   4.187  0.0933  0.6448  0.4991
  742MOL0     C 2269   1.670   9.720   4.206  0.4808  0.4881 -0.9163
  742MOL0     C 2270   1.733   9.718   4.349  0.1121  0.8676  0.5057
  742MOL0     C 2271   1.867   9.792   4.337  0.0941  0.0492  0.5245
  742MOL0     C 2272   1.964   9.769   4.228 -0.4157  0.6280  0.7450
  742MOL0     C 2273   2.033   9.631   4.258  0.1038  0.4347 -0.8200
  742MOL0     C 2274   2.121   9.572   4.150 -0.0813  0.2057 -0.3007
  742MOL0     N 2275   2.170   9.437   4.192 -0.2463  0.4970  0.3166
  742MOL0     C 2276   2.140   9.314   4.131 -0.5560 -0.5776  0.5513
  742MOL0     C 2277   2.208   9.230   4.210 -0.0823  0.2308  0.7420
  742MOL0     C 2278   2.207   9.074   4.212  0.6264  0.2402 -0.4458
  742MOL0     C 2279   2.156   9.022   4.079  0.0522  0.8897 -0.8435
  742MOL0     C 2280   2.167   8.872   4.079  0.2708  0.0211 -0.1564
  742MOL0     C 2281   2.063   8.804   4.001  0.3504  0.1171  0.1575
  742MOL0     O 2282   2.060   8.851   3.864  0.3936 -0.2848 -1.0334
  742MOL0     C 2283   2.150   8.811   3.776 -0.4866  0.2110 -0.3541
  742MOL0     C 2284   2.163   8.872   3.658  0.0918 -0.6271 -0.2612
  742MOL0     C 2285   2.247   8.833   3.560  0.1108  0.1064 -0.0134
  742MOL0     C 2286   2.251   8.925   3.440  0.2566  0.2923 -0.2930
  742MOL0     C 2287   2.324   8.724   3.580 -0.8034  0.5543 -0.2419
  742MOL0     C 2288   2.420   8.678   3.477 -0.4638  0.5108 -0.5230
  742MOL0     O 2289   2.369   8.665   3.348  0.2932 -0.3112  0.3329
  742MOL0     C 2290   2.442   8.659   3.234 -0.5823  0.1370 -0.2767
  742MOL0     C 2291   2.570   8.593   3.225 -0.0588  0.6114  0.9742
  742MOL0     C 2292   2.623   8.564   3.096  0.6174  0.0929  0.4659
  742MOL0     C 2293   2.550   8.584   2.979 -0.7250 -0.8800 -0.0794
  742MOL0     O 2294   2.595   8.529   2.856  0.5245 -0.1113  0.2245
  742MOL0     C 2295   2.501   8.498   2.763  0.4108 -0.0725  0.2375
  742MOL0     C 2296   2.571   8.438   2.639  0.1707 -0.7015  0.0762
  742MOL0     C 2297   2.663   8.538   2.563 -0.4280  0.5942  0.6525
  742MOL0     C 2298   2.718   8.459   2.440  0.3629 -0.0647 -1.0756
  742MOL0     C 2299   2.783   8.545   2.334 -0.4062 -0.2106 -0.4693
  742MOL0     C 2300   2.924   8.591   2.380  0.0136  0.2662  0.8767
  742MOL0     C 2301   2.976   8.711   2.295 -0.6761 -0.3481  0.1299
  742MOL0     C 2302   3.113   8.769   2.338  0.3324  1.0414  0.4554
  742MOL0    Cl 2303   3.247   8.660   2.294  0.1337 -0.4978 -0.5357
  742MOL0     C 2304   2.428   8.655   2.994 -0.7539  0.7153  0.3806
  742MOL0     C 2305   2.374   8.685   3.117 -0.2144  0.1444  1.0599
  742MOL0     O 2306   2.530   8.637   3.508 -0.3738  0.5944  0.3094
  742MOL0     C 2307   2.303   8.643   3.695 -0.0575 -0.2099 -0.3666
  742MOL0     C 2308   2.223   8.693   3.792  0.2297 -1.1279 -0.9205
  742MOL0     N 2309   2.269   9.294   4.311  0.0125 -0.3402 -0.0561
  742MOL0     N 2310   2.249   9.413   4.299 -0.3117 -0.3024  0.3436
  742MOL0     C 2311   1.260   9.476   3.995  0.8569 -1.3548  0.7085
  742MOL0     C 2312   1.145   9.507   3.919  0.2124  0.1082  1.3266
  742MOL0     C 2313   0.858   9.523   3.581 -0.8727  0.2655  0.9434
  742MOL0     C 2314   0.844   9.655   3.540 -0.3930 -0.5998 -0.3016
  742MOL0     C 2315   0.745   9.691   3.458  0.5494  1.5443 -0.3680
  742MOL0     C 2316   0.655   9.596   3.409 -0.3589 -0.2111 -0.0906
  742MOL0     O 2317   0.558   9.641   3.328 -0.8969 -0.1472  0.4539
  742MOL0     C 2318   0.444   9.553   3.300 -0.9283 -0.5705 -0.7889
  742MOL0     C 2319   0.348   9.650   3.234 -0.3333 -0.7921  0.1625
  742MOL0     C 2320   0.387   9.653   3.090  0.1044  0.0639  1.0398
  742MOL0     C 2321   0.306   9.761   3.012  0.6561 -0.8870 -0.2662
  742MOL0     C 2322   0.357   9.784   2.878 -0.3318 -0.1348 -0.9551
  742MOL0     C 2323   0.384   9.804   2.766 -0.1471  0.0475  1.1650
  742MOL0     C 2324   0.668   9.458   3.451  0.5878 -0.7530  0.4359
  742MOL0     C 2325   0.769   9.424   3.543 -0.4064 -0.0643  0.8267
  742MOL0     C 2326   0.756   9.274   3.576  0.4634  0.4675  0.9571
  742MOL0     H 2327   1.299   9.669   3.660  0.7789  0.2567  0.2806
  742MOL0     H 2328   1.503   9.623   3.818  1.1404 -0.8471  1.1932
  742MOL0     H 2329   1.596   9.462   4.204 -2.9758 -1.6603  0.4157
  742MOL0     H 2330   1.425   9.486   4.207 -1.1618  2.0711 -0.7266
  742MOL0     H 2331   1.472   9.734   4.110 -1.1482  0.0989  0.8849
  742MOL0     H 2332   1.479   9.692   4.286 -0.4900 -0.9728  0.5364
  742MOL0     H 2333   1.729   9.651   4.144 -3.1597 -2.5377 -1.3649
  742MOL0     H 2334   1.675   9.820   4.160 -2.5950  2.0192  1.7075
  742MOL0     H 2335   1.684   9.760   4.437  1.0872  2.4257  0.3426
  742MOL0     H 2336   1.746   9.610   4.362 -1.9524  0.3664 -1.0807
  742MOL0     H 2337   1.918   9.783   4.433  1.0285  0.1776  0.0560
  742MOL0     H 2338   1.837   9.896   4.323 -4.3306 -1.4033 -3.2558
  742MOL0     H 2339   1.914   9.754   4.132  1.2787 -0.8754  0.0361
  742MOL0     H 2340   2.031   9.854   4.215  0.3656 -0.1032 -0.1424
  742MOL0     H 2341   1.953   9.556   4.258 -0.8727  1.3526 -3.4890
  742MOL0     H 2342   2.094   9.638   4.349  1.4640 -0.3066 -1.6515
  742MOL0     H 2343   2.072   9.566   4.052 -2.8699  1.1843  0.9246
  742MOL0     H 2344   2.205   9.640   4.139 -0.8458  1.5280  1.6096
  742MOL0     H 2345   2.070   9.295   4.050 -0.6032 -0.1352  0.4838
  742MOL0     H 2346   2.141   9.038   4.292 -0.5555  3.0750 -0.0389
  742MOL0     H 2347   2.311   9.044   4.229  0.3601  0.8246  2.9978
  742MOL0     H 2348   2.052   9.053   4.088 -1.8988 -5.1527  2.0075
  742MOL0     H 2349   2.202   9.071   3.992  2.6539  2.1391  1.1000
  742MOL0     H 2350   2.267   8.847   4.043  1.6187  1.2388  2.4852
  742MOL0     H 2351   2.149   8.837   4.181  0.7810 -2.3190 -0.8191
  742MOL0     H 2352   2.056   8.696   4.009 -4.5495 -0.1154 -3.0577
  742MOL0     H 2353   1.966   8.830   4.044  0.6086 -3.4209  3.4168
  742MOL0     H 2354   2.109   8.966   3.656  1.6293  0.2767 -1.5269
  742MOL0     H 2355   2.195   9.015   3.466  1.6395  0.2551  3.6117
  742MOL0     H 2356   2.222   8.875   3.348  1.9345 -0.8514 -0.2426
  742MOL0     H 2357   2.357   8.946   3.424  0.7029 -1.5034  0.0916
  742MOL0     H 2358   2.625   8.557   3.312  1.0086  2.6411  1.1998
  742MOL0     H 2359   2.722   8.526   3.076  1.9383  4.0097 -1.3650
  742MOL0     H 2360   2.428   8.429   2.807  1.4005 -0.6454  1.0004
  742MOL0     H 2361   2.445   8.587   2.730  1.4869  1.6326  2.7399
  742MOL0     H 2362   2.632   8.352   2.667  1.5306 -0.4712 -1.9933
  742MOL0     H 2363   2.491   8.401   2.575  1.4370 -1.3417 -1.1728
  742MOL0     H 2364   2.742   8.580   2.627 -0.0747  0.8165  0.0817
  742MOL0     H 2365   2.612   8.627   2.524 -2.3161 -0.8273 -0.2771
  742MOL0     H 2366   2.635   8.402   2.396 -0.1883  0.6786 -1.0234
  742MOL0     H 2367   2.780   8.379   2.481  0.6836  1.0974  0.8229
  742MOL0     H 2368   2.785   8.503   2.233  0.8511  1.3173 -1.1265
  742MOL0     H 2369   2.719   8.633   2.326 -3.4699 -2.3008 -0.4936
  742MOL0     H 2370   2.988   8.505   2.360 -1.3158 -0.2253 -1.7575
  742MOL0     H 2371   2.922   8.628   2.483 -2.0545 -0.5892  1.1911
  742MOL0     H 2372   2.896   8.785   2.307 -1.0704 -1.0478  2.1598
  742MOL0     H 2373   2.978   8.683   2.189  1.0123 -1.6030  0.4564
  742MOL0     H 2374   3.121   8.779   2.447 -1.1824  1.1235  0.5697
  742MOL0     H 2375   3.130   8.870   2.300 -3.8020  1.3639 -0.9187
  742MOL0     H 2376   2.364   8.695   2.916  0.0048 -1.0577 -1.2466
  742MOL0     H 2377   2.276   8.729   3.132  0.4860  1.4852  1.8840
  742MOL0     H 2378   2.352   8.549   3.715  1.0000  0.8033  2.2804
  742MOL0     H 2379   2.205   8.622   3.872  0.5045 -2.8836 -2.3488
  742MOL0     H 2380   1.240   9.410   4.079  0.2668 -1.3675  0.5665
  742MOL0     H 2381   1.047   9.472   3.951 -0.5019  1.0544  0.2327
  742MOL0     H 2382   0.921   9.728   3.560  1.3010 -2.5588  0.6774
  742MOL0     H 2383   0.726   9.784   3.406 -3.9675 -0.3159 -2.5999
  742MOL0     H 2384   0.477   9.476   3.230  2.4193 -0.1329  0.1329
  742MOL0     H 2385   0.397   9.524   3.394  0.1972  1.3803  0.4466
  742MOL0     H 2386   0.352   9.754   3.270  1.8990  1.1121 -4.6372
  742MOL0     H 2387   0.245   9.616   3.249 -0.2461 -0.8673  0.6011
  742MOL0     H 2388   0.491   9.687   3.085 -0.6278  2.7482  2.6117
  742MOL0     H 2389   0.362   9.566   3.028 -2.7248  3.1629 -2.5676
  742MOL0     H 2390   0.303   9.856   3.066 -1.3802 -0.6740 -0.6990
  742MOL0     H 2391   0.202   9.730   3.003 -0.9072  4.1588 -3.0420
  742MOL0     H 2392   0.402   9.832   2.664  0.9144 -0.6270  1.1510
  742MOL0     H 2393   0.609   9.375   3.416 -1.5157 -0.0718  2.1278
  742MOL0     H 2394   0.702   9.259   3.670  0.2800 -0.1944  0.7516
  742MOL0     H 2395   0.703   9.230   3.491  1.1810  1.3539  0.0173
  742MOL0     H 2396   0.853   9.223   3.584  1.8786  2.4619 -1.8143
  743MOL0     O 2397   0.462  10.860   1.628  0.5351  0.0622  0.0475
  743MOL0     C 2398   0.453  10.900   1.516  0.3904 -0.4746  1.3606
  743MOL0     O 2399   0.339  10.909   1.437  0.4517 -0.1533  0.7602
  743MOL0     C 2400   0.215  10.878   1.487 -0.7425 -0.1750  0.2725
  743MOL0     C 2401   0.142  10.761   1.445 -0.2862  0.0584 -0.9746
  743MOL0     C 2402   0.020  10.725   1.509  0.2268  0.0298  0.1782
  743MOL0     C 2403  -0.040  10.812   1.607  0.5609 -0.9668  0.6891
  743MOL0     O 2404  -0.162  10.795   1.669 -0.2872 -0.1177  0.2103
  743MOL0     C 2405  -0.208  10.655   1.674  0.1958 -0.8707  0.4940
  743MOL0     C 2406  -0.356  10.657   1.726 -0.1182 -1.1103 -0.3018
  743MOL0     C 2407  -0.364  10.691   1.880  0.3230 -0.1212  0.6015
  743MOL0     C 2408  -0.505  10.662   1.929 -0.2146 -0.5872 -0.5802
  743MOL0     C 2409  -0.504  10.676   2.081 -0.1196 -0.9649 -0.4519
  743MOL0     C 2410  -0.486  10.823   2.124 -0.0460  0.1015 -0.1899
  743MOL0     C 2411  -0.346  10.865   2.161 -0.4549 -0.0830  0.7425
  743MOL0     C 2412  -0.327  11.008   2.211  0.5528 -0.5406 -0.7479
  743MOL0     N 2413  -0.188  11.063   2.209 -0.3087  0.9112 -0.5410
  743MOL0     C 2414  -0.086  11.009   2.289  0.8424 -0.8140  1.3392
  743MOL0     C 2415   0.023  11.092   2.267  0.4091  0.2588  0.6333
  743MOL0     C 2416   0.150  11.081   2.325 -0.4956 -0.6855 -0.3205
  743MOL0     C 2417   0.148  11.178   2.445 -0.3072 -0.4166  0.0487
  743MOL0     C 2418   0.274  11.162   2.526 -0.1696  0.9092  0.6872
  743MOL0     C 2419   0.361  11.296   2.540 -0.7758  0.3416  0.4823
  743MOL0     O 2420   0.490  11.275   2.607  0.4791  0.5232  0.1807
  743MOL0     C 2421   0.575  11.186   2.544  0.8015 -0.4862  0.6028
  743MOL0     C 2422   0.580  11.179   2.408  0.9137 -0.4018  0.6114
  743MOL0     C 2423   0.667  11.099   2.334 -0.4202 -0.1730 -0.6405
  743MOL0     C 2424   0.636  11.077   2.189  0.9961  0.5584 -0.4547
  743MOL0     C 2425   0.761  11.025   2.405 -0.5490  0.4301 -0.3357
  743MOL0     C 2426   0.869  10.944   2.346 -0.1931  0.0258 -0.8119
  743MOL0     O 2427   0.953  10.873   2.429  0.1828  0.3688 -0.3096
  743MOL0     C 2428   1.080  10.816   2.392  0.3869 -0.1310  0.2104
  743MOL0     C 2429   1.104  10.699   2.436  0.3529  0.5661  0.4053
  743MOL0     C 2430   1.225  10.632   2.408  0.2012 -1.0446  0.2735
  743MOL0     C 2431   1.332  10.705   2.340  1.2518  0.0236 -0.2977
  743MOL0     O 2432   1.453  10.662   2.304 -0.6202 -0.5783 -0.4730
  743MOL0     C 2433   1.459  10.546   2.223 -0.2916  0.0365 -0.1640
  743MOL0     C 2434   1.597  10.512   2.191 -0.2482  0.4385  0.0219
  743MOL0     C 2435   1.622  10.357   2.194  0.0843  0.4583 -0.2739
  743MOL0     C 2436   1.771  10.331   2.194 -0.1199  0.0028  0.3614
  743MOL0     C 2437   1.798  10.175   2.213 -0.6605 -0.1519  0.3715
  743MOL0     C 2438   1.739  10.068   2.116 -0.3691 -0.4569 -0.9699
  743MOL0     C 2439   1.788   9.929   2.142  0.0977  0.0302  0.3519
  743MOL0     C 2440   1.768   9.871   2.280  0.6819 -0.5574 -0.2112
  743MOL0    Cl 2441   1.599   9.845   2.280 -0.4273  0.4789 -0.1965
  743MOL0     C 2442   1.296  10.833   2.299  0.4989  1.3893  0.0947
  743MOL0     C 2443   1.178  10.886   2.335  0.6307 -0.7388  1.2162
  743MOL0     O 2444   0.887  10.933   2.227  0.7936  0.1364  0.6300
  743MOL0     C 2445   0.756  11.033   2.551  0.3177 -0.4503 -0.6494
  743MOL0     C 2446   0.661  11.115   2.615 -0.5704  0.4852 -0.5213
  743MOL0     N 2447  -0.017  11.188   2.175 -0.1503 -0.8040 -0.5944
  743MOL0     N 2448  -0.142  11.169   2.141  0.3123  0.2974 -0.2993
  743MOL0     C 2449   0.026  10.942   1.626  0.4669  0.5584 -0.5697
  743MOL0     C 2450   0.154  10.975   1.570  0.4989  0.0275  1.0649
  743MOL0     C 2451   0.570  10.932   1.436  0.9618 -0.9809 -0.2535
  743MOL0     C 2452   0.571  11.050   1.359  0.0849  0.8900 -0.8107
  743MOL0     C 2453   0.685  11.076   1.289  0.0015  1.0433 -0.8467
  743MOL0     C 2454   0.802  11.003   1.296 -0.3199 -0.3305  0.6934
  743MOL0     O 2455   0.893  11.054   1.213 -0.4092  0.8423 -0.4203
  743MOL0     C 2456   1.027  11.003   1.227 -0.3432 -0.0599  0.2846
  743MOL0     C 2457   1.121  11.085   1.134 -0.8758 -0.1410 -1.1343
  743MOL0     C 2458   1.263  11.021   1.155 -0.5837  0.3227 -0.1734
  743MOL0     C 2459   1.374  11.079   1.073  0.6239 -0.4098  0.2272
  743MOL0     C 2460   1.369  11.041   0.929  1.0272  0.5262  0.5166
  743MOL0     C 2461   1.365  10.996   0.816  1.3751  0.1658 -0.7157
  743MOL0     C 2462   0.803  10.889   1.372  0.0785 -0.5321  0.0785
  743MOL0     C 2463   0.686  10.845   1.436 -0.1885  0.8473  0.8213
  743MOL0     C 2464   0.693  10.711   1.512 -0.3282  0.0735 -0.7498
  743MOL0     H 2465   0.188  10.701   1.366  1.7488 -0.3167  0.4032
  743MOL0     H 2466  -0.032  10.637   1.474 -0.6995  1.2870 -1.7423
  743MOL0     H 2467  -0.136  10.597   1.732  2.5455  1.1563 -0.2108
  743MOL0     H 2468  -0.211  10.606   1.576 -0.3414 -0.0683  0.0995
  743MOL0     H 2469  -0.413  10.731   1.668 -0.9932 -0.8914  0.8031
  743MOL0     H 2470  -0.390  10.554   1.709  1.5047 -1.8135  0.5667
  743MOL0     H 2471  -0.304  10.615   1.929 -2.8047 -3.3577 -0.1620
  743MOL0     H 2472  -0.322  10.791   1.891  2.2226 -0.7076 -0.8009
  743MOL0     H 2473  -0.570  10.743   1.898  2.5974  2.3892  0.6824
  743MOL0     H 2474  -0.536  10.564   1.892  1.1738  0.0112 -3.5967
  743MOL0     H 2475  -0.429  10.609   2.123  0.8147  0.8984  1.0055
  743MOL0     H 2476  -0.600  10.634   2.113  0.6063 -2.4740 -0.1459
  743MOL0     H 2477  -0.525  10.890   2.047 -0.4950 -1.5386 -1.4383
  743MOL0     H 2478  -0.558  10.846   2.203 -1.1506  1.6656 -1.5742
  743MOL0     H 2479  -0.265  10.848   2.089  0.5766  2.3547  1.2405
  743MOL0     H 2480  -0.317  10.812   2.252 -3.5309 -2.8524  0.2781
  743MOL0     H 2481  -0.395  11.067   2.148 -0.0497 -1.5742 -1.0918
  743MOL0     H 2482  -0.381  11.027   2.304  1.1341  4.1350 -1.1413
  743MOL0     H 2483  -0.087  10.936   2.370 -0.3825  0.7925  2.8420
  743MOL0     H 2484   0.225  11.102   2.248 -1.0077  0.2939 -0.5600
  743MOL0     H 2485   0.163  10.979   2.362  0.9785 -0.8295 -1.1771
  743MOL0     H 2486   0.138  11.284   2.417 -1.2038 -0.1545  1.2908
  743MOL0     H 2487   0.065  11.156   2.513 -1.4337 -0.5688 -1.3225
  743MOL0     H 2488   0.260  11.120   2.627  0.2891 -0.7075  0.1069
  743MOL0     H 2489   0.333  11.094   2.463  1.4908  2.2717  0.6956
  743MOL0     H 2490   0.362  11.344   2.442 -0.1733 -1.2718 -0.3474
  743MOL0     H 2491   0.297  11.350   2.610 -1.4578 -0.4708  0.5023
  743MOL0     H 2492   0.507  11.237   2.352  1.1119 -0.0536  0.7092
  743MOL0     H 2493   0.660  10.973   2.166  2.8343  0.9933 -0.6953
  743MOL0     H 2494   0.690  11.151   2.130  1.3414  1.8879  1.4224
  743MOL0     H 2495   0.530  11.082   2.164  1.1194 -0.9568 -1.3879
  743MOL0     H 2496   1.030  10.657   2.505  0.1847  1.8879  1.0634
  743MOL0     H 2497   1.246  10.534   2.448  1.5083 -0.9443 -0.1053
  743MOL0     H 2498   1.416  10.467   2.285 -0.9525  0.2287 -0.3706
  743MOL0     H 2499   1.398  10.561   2.133 -0.5357  5.9620  0.5952
  743MOL0     H 2500   1.641  10.539   2.095  2.8604 -3.2702  0.1790
  743MOL0     H 2501   1.662  10.553   2.269 -0.1379  1.3788 -0.5598
  743MOL0     H 2502   1.582  10.315   2.102 -3.1855  2.2149  0.1802
  743MOL0     H 2503   1.565  10.312   2.277  1.8607 -0.4193  0.5110
  743MOL0     H 2504   1.831  10.379   2.273  2.2024  0.4138 -1.5379
  743MOL0     H 2505   1.810  10.366   2.098  1.4472  0.2238  1.0441
  743MOL0     H 2506   1.904  10.150   2.203 -0.8376  0.0012 -2.9926
  743MOL0     H 2507   1.771  10.143   2.314  0.4974  0.3125  0.8488
  743MOL0     H 2508   1.767  10.093   2.013 -0.5787 -3.4218 -1.8610
  743MOL0     H 2509   1.630  10.069   2.118 -0.3882  2.0142  0.9349
  743MOL0     H 2510   1.897   9.924   2.129  0.2852  1.3826  1.2598
  743MOL0     H 2511   1.753   9.857   2.067  2.1237 -1.1598  0.4652
  743MOL0     H 2512   1.813   9.938   2.354  0.8688  2.9022 -3.1713
  743MOL0     H 2513   1.809   9.769   2.275 -3.4040 -2.3771 -0.7262
  743MOL0     H 2514   1.365  10.891   2.238  0.5349  1.1345 -0.1046
  743MOL0     H 2515   1.165  10.984   2.291 -1.1202 -1.5351 -0.1854
  743MOL0     H 2516   0.823  10.979   2.617  2.1556  2.0586 -0.2905
  743MOL0     H 2517   0.668  11.121   2.723  0.4358  3.4369 -0.6594
  743MOL0     H 2518  -0.011  11.015   1.698  0.9159  1.2936 -1.0714
  743MOL0     H 2519   0.214  11.065   1.578 -0.9481  1.3994 -2.0456
  743MOL0     H 2520   0.490  11.121   1.369  1.0267  1.9741 -0.6339
  743MOL0     H 2521   0.692  11.164   1.226 -1.2209 -0.5882 -3.4332
  743MOL0     H 2522   1.061  11.019   1.329 -0.2028  0.5408  0.1447
  743MOL0     H 2523   1.022  10.896   1.201  1.4224  0.2989 -1.8385
  743MOL0     H 2524   1.120  11.193   1.150  2.6380  0.0888 -1.5985
  743MOL0     H 2525   1.089  11.057   1.034 -1.0310  0.0133 -1.1279
  743MOL0     H 2526   1.284  11.032   1.262 -1.1931  1.0050 -0.1153
  743MOL0     H 2527   1.258  10.914   1.135 -0.8514 -0.1703  2.2733
  743MOL0     H 2528   1.462  11.032   1.117  0.7274 -0.5469 -0.1184
  743MOL0     H 2529   1.385  11.187   1.071  0.3757 -0.3639  1.0863
  743MOL0     H 2530   1.358  10.947   0.721 -3.4143  1.1817 -1.1354
  743MOL0     H 2531   0.899  10.839   1.374 -0.4810 -1.6103  0.7944
  743MOL0     H 2532   0.688  10.722   1.621 -4.6968 -1.6945 -0.5775
  743MOL0     H 2533   0.610  10.649   1.478  0.3794 -0.9561 -0.6431
  743MOL0     H 2534   0.777  10.646   1.486  0.3571  1.3059 -1.7401
  744MOL0     O 2535   9.442   8.877   8.511 -0.2956 -0.8223 -1.0051
  744MOL0     C 2536   9.379   8.921   8.612 -0.2536  0.0323 -0.5445
  744MOL0     O 2537   9.357   9.056   8.634 -0.0640  0.3290  0.1615
  744MOL0     C 2538   9.425   9.136   8.542 -0.6971  0.1798 -0.8173
  744MOL0     C 2539   9.369   9.173   8.418  0.0164 -1.2003 -0.9654
  744MOL0     C 2540   9.442   9.244   8.329  0.1232 -0.4823  0.5371
  744MOL0     C 2541   9.556   9.310   8.368  0.5152 -0.0198 -0.1137
  744MOL0     O 2542   9.614   9.413   8.289  0.7022 -0.4332  0.3571
  744MOL0     C 2543   9.572   9.435   8.157 -0.3759  0.4200  1.6306
  744MOL0     C 2544   9.671   9.484   8.049 -0.3442 -0.0011 -1.0478
  744MOL0     C 2545   9.756   9.594   8.106  0.7257  0.1614  0.9009
  744MOL0     C 2546   9.666   9.734   8.107  0.0237  0.0952 -0.3261
  744MOL0     C 2547   9.751   9.862   8.128  0.1269 -0.2700 -0.1797
  744MOL0     C 2548   9.831   9.915   8.012  0.1487 -1.2286 -0.0109
  744MOL0     C 2549   9.898  10.057   8.037 -0.2912  0.8512 -0.3473
  744MOL0     C 2550   9.955  10.083   8.172  0.4885  0.8165  0.1193
  744MOL0     N 2551  10.087  10.009   8.189  0.5139  0.6196  0.7737
  744MOL0     C 2552  10.197  10.019   8.109 -0.4057  0.0838 -0.2957
  744MOL0     C 2553  10.263   9.908   8.128  0.4605 -0.3860  1.0601
  744MOL0     C 2554  10.395   9.862   8.061 -0.2014  0.4332 -0.3131
  744MOL0     C 2555  10.510   9.946   8.120 -0.8338  0.8340  0.8468
  744MOL0     C 2556  10.628   9.916   8.027  0.2941  0.2970  0.1565
  744MOL0     C 2557  10.752   9.980   8.088 -0.3249  0.5344 -0.7756
  744MOL0     O 2558  10.742  10.126   8.083  0.6823  0.7533  0.3062
  744MOL0     C 2559  10.834  10.195   8.152 -0.6688 -0.3044  0.4087
  744MOL0     C 2560  10.806  10.330   8.159  0.0848  1.0485  0.0447
  744MOL0     C 2561  10.898  10.427   8.204  0.4749 -0.0265  0.2089
  744MOL0     C 2562  10.833  10.562   8.223  0.2613  0.1738  0.2362
  744MOL0     C 2563  11.033  10.382   8.243 -0.5796  0.5570  1.1620
  744MOL0     C 2564  11.120  10.478   8.314 -1.5380  1.1512 -0.0539
  744MOL0     O 2565  11.234  10.417   8.360  0.3047  0.0705  0.5858
  744MOL0     C 2566  11.341  10.485   8.395 -0.3228 -0.5531 -0.8194
  744MOL0     C 2567  11.413  10.442   8.510  0.7664  0.5414  0.5369
  744MOL0     C 2568  11.538  10.506   8.545  0.6327  0.4000  0.1442
  744MOL0     C 2569  11.575  10.611   8.478 -0.1589 -0.8875  0.5517
  744MOL0     O 2570  11.692  10.673   8.512 -0.1201  0.0016 -0.1537
  744MOL0     C 2571  11.798  10.666   8.411  0.1093  0.5292  0.4539
  744MOL0     C 2572  11.937  10.644   8.469 -0.0072 -0.2410 -0.3477
  744MOL0     C 2573  11.946  10.518   8.559  0.8757  0.3715 -0.5899
  744MOL0     C 2574  12.085  10.511   8.626  0.4451 -1.2467 -0.6485
  744MOL0     C 2575  12.200  10.508   8.526  1.1969 -0.1672 -0.0240
  744MOL0     C 2576  12.333  10.488   8.588  0.4688  0.6263  0.2267
  744MOL0     C 2577  12.352  10.351   8.641  0.7792 -0.0773 -0.7507
  744MOL0     C 2578  12.498  10.320   8.632 -0.3306  0.4940  0.8786
  744MOL0    Cl 2579  12.535  10.187   8.742  0.4278  0.1769 -0.4267
  744MOL0     C 2580  11.509  10.649   8.359  0.2105  0.1277 -0.4626
  744MOL0     C 2581  11.394  10.589   8.319  0.1503 -0.6658  0.1568
  744MOL0     O 2582  11.093  10.595   8.323  0.5822 -0.2437 -0.7633
  744MOL0     C 2583  11.062  10.252   8.231  0.4122 -0.6289  0.8934
  744MOL0     C 2584  10.966  10.156   8.173 -0.0107 -0.2385 -0.1560
  744MOL0     N 2585  10.197   9.820   8.212 -0.2298  0.3508  0.1033
  744MOL0     N 2586  10.082   9.882   8.233 -0.2244 -0.1174 -0.4807
  744MOL0     C 2587   9.622   9.274   8.493 -1.2940  0.7853 -0.6842
  744MOL0     C 2588   9.560   9.176   8.575  0.0930  0.3982  0.2480
  744MOL0     C 2589   9.324   8.823   8.721  0.7504 -0.5263  0.3994
  744MOL0     C 2590   9.214   8.860   8.794 -0.1756  0.8469 -0.4161
  744MOL0     C 2591   9.178   8.784   8.904 -0.0667  0.1306 -0.7489
  744MOL0     C 2592   9.231   8.663   8.937 -0.3582  0.5332  0.3186
  744MOL0     O 2593   9.195   8.586   9.047 -0.4438 -0.0649 -0.2490
  744MOL0     C 2594   9.121   8.647   9.155 -0.7649  0.3799  0.9654
  744MOL0     C 2595   9.156   8.577   9.281  0.2595 -0.0501 -0.1742
  744MOL0     C 2596   9.043   8.586   9.384 -0.4098  0.6055  0.1441
  744MOL0     C 2597   9.099   8.520   9.511 -0.5415 -0.3693 -0.4311
  744MOL0     C 2598   8.999   8.520   9.620  0.2605 -0.3651  0.0914
  744MOL0     C 2599   8.912   8.545   9.701 -0.9062  0.2996  0.6359
  744MOL0     C 2600   9.333   8.617   8.858 -0.8404  0.3423 -0.0956
  744MOL0     C 2601   9.373   8.692   8.743 -0.2778 -0.0036 -0.2909
  744MOL0     C 2602   9.489   8.638   8.671 -0.3644 -0.2487  0.5501
  744MOL0     H 2603   9.271   9.140   8.385  0.3910  0.5781 -4.1984
  744MOL0     H 2604   9.386   9.268   8.239  0.6508  2.5808  0.8931
  744MOL0     H 2605   9.494   9.510   8.146  0.0276  0.5623 -0.8002
  744MOL0     H 2606   9.544   9.335   8.122  1.1573 -0.2855  2.2922
  744MOL0     H 2607   9.740   9.406   8.013 -0.2447 -0.3430 -0.1494
  744MOL0     H 2608   9.607   9.509   7.964 -2.2425  0.1658  0.3683
  744MOL0     H 2609   9.797   9.569   8.204 -0.2557 -2.7875  0.6656
  744MOL0     H 2610   9.834   9.603   8.030 -3.3921 -0.6298 -3.9495
  744MOL0     H 2611   9.596   9.730   8.023 -2.0804 -0.9938  1.3813
  744MOL0     H 2612   9.602   9.719   8.194 -1.3854  0.2017 -1.3200
  744MOL0     H 2613   9.820   9.844   8.211 -3.4694 -1.3061  2.8712
  744MOL0     H 2614   9.687   9.943   8.164 -0.0070 -0.7427  0.6601
  744MOL0     H 2615   9.905   9.837   7.993  3.0987  1.0493  1.2302
  744MOL0     H 2616   9.766   9.924   7.925  0.5859 -1.3834 -0.3537
  744MOL0     H 2617   9.816  10.127   8.022 -0.4338  0.2215 -2.8195
  744MOL0     H 2618   9.966  10.081   7.956  1.5045  0.5646  1.0003
  744MOL0     H 2619   9.966  10.189   8.200  1.0416  0.1336  2.7437
  744MOL0     H 2620   9.883  10.046   8.246  0.2643  0.7670 -0.1210
  744MOL0     H 2621  10.220  10.103   8.043  2.3468 -2.1737 -2.4489
  744MOL0     H 2622  10.380   9.881   7.954 -2.9369 -0.7503 -0.2370
  744MOL0     H 2623  10.410   9.755   8.081 -3.1301  0.2451  1.5177
  744MOL0     H 2624  10.474  10.049   8.130 -2.1466  0.8986 -3.1157
  744MOL0     H 2625  10.549   9.913   8.217  1.4162  1.0000  0.0629
  744MOL0     H 2626  10.639   9.807   8.030 -1.8630  0.0438  1.3380
  744MOL0     H 2627  10.618   9.950   7.924 -1.4432  0.6524  0.4101
  744MOL0     H 2628  10.778   9.946   8.188 -1.6106  1.9357  0.0696
  744MOL0     H 2629  10.834   9.944   8.025 -0.6188 -3.6204  0.8911
  744MOL0     H 2630  10.704  10.364   8.142  0.2902  1.6135 -0.0793
  744MOL0     H 2631  10.883  10.633   8.289  0.2270  0.6479 -0.2352
  744MOL0     H 2632  10.726  10.567   8.243 -0.3327  1.6848 -2.6990
  744MOL0     H 2633  10.844  10.608   8.124 -1.4805  1.8361  0.7623
  744MOL0     H 2634  11.363  10.371   8.574  1.3626 -0.5404 -0.1770
  744MOL0     H 2635  11.596  10.473   8.631 -1.8239 -3.8634  0.4049
  744MOL0     H 2636  11.778  10.582   8.343  2.0705 -0.2601  0.7655
  744MOL0     H 2637  11.798  10.760   8.356  0.3221 -0.7694 -1.8855
  744MOL0     H 2638  12.009  10.638   8.388  2.0776  3.1951  1.0232
  744MOL0     H 2639  11.962  10.730   8.532  2.2162  1.1343 -2.8970
  744MOL0     H 2640  11.949  10.434   8.488  1.2916 -1.9495  2.0305
  744MOL0     H 2641  11.857  10.510   8.622  0.6480 -2.9710 -1.1543
  744MOL0     H 2642  12.082  10.423   8.691  1.1383 -0.3123  0.6900
  744MOL0     H 2643  12.099  10.597   8.692 -3.2049  0.1020 -1.3897
  744MOL0     H 2644  12.177  10.427   8.457  0.1718  0.4249 -0.3968
  744MOL0     H 2645  12.202  10.598   8.464  0.2550 -1.3958 -1.8880
  744MOL0     H 2646  12.352  10.567   8.661 -1.0174  0.2493  1.0461
  744MOL0     H 2647  12.402  10.506   8.505 -0.5797 -1.5809 -1.2217
  744MOL0     H 2648  12.301  10.276   8.580  0.3374 -0.2227 -0.2070
  744MOL0     H 2649  12.329  10.338   8.747  2.4335 -2.3228 -0.5983
  744MOL0     H 2650  12.558  10.401   8.674  0.1535 -0.8818  3.0189
  744MOL0     H 2651  12.519  10.293   8.529 -1.9802  0.4540  0.5200
  744MOL0     H 2652  11.540  10.739   8.308 -0.2196  0.4947 -0.0879
  744MOL0     H 2653  11.344  10.630   8.231  1.9353 -3.1599 -2.2087
  744MOL0     H 2654  11.156  10.213   8.270  1.5092 -0.8786 -1.7904
  744MOL0     H 2655  11.002  10.055   8.154 -2.4129 -1.3215  0.7923
  744MOL0     H 2656   9.717   9.317   8.524 -1.6961  1.1023  0.1542
  744MOL0     H 2657   9.605   9.147   8.669 -1.1968  2.1617  1.4849
  744MOL0     H 2658   9.157   8.952   8.783 -1.5670 -0.2260 -3.4806
  744MOL0     H 2659   9.085   8.808   8.954 -2.0439 -0.3447 -3.8761
  744MOL0     H 2660   9.148   8.753   9.153  0.6976  0.0125 -0.7621
  744MOL0     H 2661   9.019   8.625   9.123  0.0771 -0.1769 -1.5312
  744MOL0     H 2662   9.244   8.616   9.333  0.3217 -1.7434  1.0876
  744MOL0     H 2663   9.177   8.475   9.246  2.3034  0.4086 -0.4289
  744MOL0     H 2664   9.013   8.691   9.394 -1.2863  0.5341 -1.4815
  744MOL0     H 2665   8.958   8.524   9.355 -0.6060 -0.3084  2.4115
  744MOL0     H 2666   9.182   8.584   9.543 -2.4817  0.8654  2.5234
  744MOL0     H 2667   9.135   8.418   9.496  1.6136 -0.3287  3.2143
  744MOL0     H 2668   8.834   8.563   9.773  0.3565 -2.8954  3.0123
  744MOL0     H 2669   9.383   8.525   8.889 -2.6351  0.1461  2.5096
  744MOL0     H 2670   9.471   8.629   8.564 -1.1428  1.5843  0.4919
  744MOL0     H 2671   9.577   8.702   8.686 -0.3535 -0.3343  0.8677
  744MOL0     H 2672   9.525   8.541   8.707 -0.2966 -0.8135 -0.9771
  745MOL0     O 2673   4.713   0.645   7.392  0.5727 -0.1709  0.7116
  745MOL0     C 2674   4.624   0.560   7.395  0.4145  0.6558  0.3929
  745MOL0     O 2675   4.643   0.424   7.418 -0.0142 -0.3376  0.1810
  745MOL0     C 2676   4.775   0.390   7.426 -0.0235 -0.2046  0.9779
  745MOL0     C 2677   4.856   0.402   7.537 -0.6324 -0.2537  0.3889
  745MOL0     C 2678   4.998   0.371   7.536  0.6277 -1.3193  0.2440
  745MOL0     C 2679   5.051   0.321   7.418 -0.3676  1.5445 -0.9078
  745MOL0     O 2680   5.179   0.291   7.424  0.6496  0.2575 -0.4696
  745MOL0     C 2681   5.250   0.322   7.305  0.0371  0.3043 -0.5912
  745MOL0     C 2682   5.342   0.439   7.329 -0.1453 -0.3504  0.0920
  745MOL0     C 2683   5.386   0.503   7.197 -0.1624  0.0270  0.1706
  745MOL0     C 2684   5.531   0.545   7.199 -0.4697  0.6261 -0.3135
  745MOL0     C 2685   5.570   0.622   7.077  0.6413 -0.3081 -0.9438
  745MOL0     C 2686   5.637   0.535   6.973 -0.0019  1.0561 -0.5955
  745MOL0     C 2687   5.691   0.608   6.848 -0.8234  0.4606 -1.1017
  745MOL0     C 2688   5.607   0.584   6.721 -0.0875 -0.2467  0.7483
  745MOL0     N 2689   5.673   0.672   6.618 -0.2647  1.2391 -0.2175
  745MOL0     C 2690   5.696   0.808   6.641  0.0575 -0.1966 -0.2222
  745MOL0     C 2691   5.735   0.852   6.516  0.3071  0.1492 -0.3609
  745MOL0     C 2692   5.771   0.990   6.477  0.6915  0.2294  0.5557
  745MOL0     C 2693   5.664   1.046   6.387  1.5261  0.6805 -0.5221
  745MOL0     C 2694   5.665   1.194   6.378 -1.3904  0.1443  0.0329
  745MOL0     C 2695   5.580   1.249   6.257  0.4025 -0.6946 -0.4366
  745MOL0     O 2696   5.599   1.188   6.126 -0.2518 -0.2462  0.2842
  745MOL0     C 2697   5.621   1.281   6.029  0.3606  0.2659 -0.1484
  745MOL0     C 2698   5.533   1.304   5.920 -0.5805  0.8428  0.1390
  745MOL0     C 2699   5.556   1.405   5.830 -0.0360 -0.6987  1.1573
  745MOL0     C 2700   5.444   1.445   5.742  0.1503  0.2064 -0.0952
  745MOL0     C 2701   5.675   1.487   5.842  0.2535  1.0817 -0.0212
  745MOL0     C 2702   5.700   1.606   5.761  1.1910  0.6787 -0.4962
  745MOL0     O 2703   5.643   1.620   5.637  0.8013  0.3438 -0.7449
  745MOL0     C 2704   5.686   1.718   5.542 -0.3796  1.1602 -0.3971
  745MOL0     C 2705   5.820   1.777   5.548 -0.6611  0.0930 -0.0818
  745MOL0     C 2706   5.858   1.850   5.431 -1.0258 -0.0925 -0.9802
  745MOL0     C 2707   5.774   1.888   5.332 -0.4794  0.6431 -0.9677
  745MOL0     O 2708   5.804   1.974   5.230 -0.3226 -0.4131  0.8723
  745MOL0     C 2709   5.953   1.966   5.186  0.8713 -0.0638 -0.0560
  745MOL0     C 2710   5.958   2.006   5.044 -0.6181  0.3385  0.1352
  745MOL0     C 2711   5.865   1.937   4.944 -0.4135 -0.6793 -0.3827
  745MOL0     C 2712   5.906   1.960   4.798  0.1518  0.6912  0.3265
  745MOL0     C 2713   5.789   1.955   4.692 -0.1215 -0.2092 -0.3738
  745MOL0     C 2714   5.765   1.806   4.657 -1.1831  0.0249  0.4732
  745MOL0     C 2715   5.655   1.788   4.547  0.3451 -0.4998  0.3104
  745MOL0     C 2716   5.630   1.635   4.522 -0.5076 -0.1331 -0.2134
  745MOL0    Cl 2717   5.544   1.578   4.667 -0.1523  0.0070  0.1444
  745MOL0     C 2718   5.647   1.825   5.337 -0.0198 -1.0912 -0.0686
  745MOL0     C 2719   5.603   1.738   5.436  0.2590  0.1085  0.1956
  745MOL0     O 2720   5.785   1.680   5.808  0.2859  0.2007 -0.6147
  745MOL0     C 2721   5.772   1.446   5.927 -0.0790  0.9467 -0.2700
  745MOL0     C 2722   5.744   1.346   6.020 -0.3026  0.1994 -0.4503
  745MOL0     N 2723   5.735   0.748   6.426  0.0655  0.4945 -0.2092
  745MOL0     N 2724   5.693   0.638   6.485  0.1831 -0.6115  0.0147
  745MOL0     C 2725   4.964   0.317   7.305  0.7248 -1.0720 -0.0869
  745MOL0     C 2726   4.827   0.341   7.311  0.2966  0.3813 -0.0615
  745MOL0     C 2727   4.486   0.609   7.371  0.8935  0.3473 -1.0113
  745MOL0     C 2728   4.454   0.725   7.288  0.1935 -0.8485 -1.1226
  745MOL0     C 2729   4.325   0.775   7.272 -0.0545  0.9336 -0.0959
  745MOL0     C 2730   4.210   0.721   7.345 -0.7003  1.3476  0.3371
  745MOL0     O 2731   4.079   0.765   7.342  0.4111  0.0160  0.4951
  745MOL0     C 2732   4.054   0.877   7.266  0.6763  0.6915  0.5794
  745MOL0     C 2733   3.907   0.919   7.290 -0.6277 -0.4089 -0.1686
  745MOL0     C 2734   3.874   0.945   7.443  0.8936  1.3493  0.0467
  745MOL0     C 2735   3.720   0.923   7.459  0.1338  0.8358 -1.1089
  745MOL0     C 2736   3.693   0.774   7.440 -0.0410  0.7223  0.8757
  745MOL0     C 2737   3.661   0.654   7.443  0.7003 -0.2306 -0.6024
  745MOL0     C 2738   4.242   0.600   7.422 -0.2644 -0.7460 -0.0994
  745MOL0     C 2739   4.375   0.542   7.443 -0.6383 -0.5312 -0.3911
  745MOL0     C 2740   4.398   0.421   7.534 -0.3020 -0.2993 -0.5277
  745MOL0     H 2741   4.812   0.440   7.629 -1.7446 -0.1719 -0.1592
  745MOL0     H 2742   5.056   0.378   7.627  0.2496 -0.7475  0.4452
  745MOL0     H 2743   5.188   0.352   7.220 -0.9737 -0.0432  0.0098
  745MOL0     H 2744   5.307   0.231   7.282  0.9336  0.1265  2.0254
  745MOL0     H 2745   5.308   0.516   7.398  0.3667  0.1464 -0.2020
  745MOL0     H 2746   5.429   0.394   7.377 -2.0180 -1.4340  2.6899
  745MOL0     H 2747   5.363   0.435   7.114 -2.8342  0.4808  0.4498
  745MOL0     H 2748   5.321   0.589   7.176 -0.7812 -0.0104  1.8204
  745MOL0     H 2749   5.560   0.605   7.286  4.1314  0.0049 -1.1565
  745MOL0     H 2750   5.592   0.456   7.214 -1.7298 -0.7798 -2.9623
  745MOL0     H 2751   5.640   0.701   7.106 -0.1237 -0.1940  0.6653
  745MOL0     H 2752   5.488   0.678   7.029 -2.2221 -1.9046  1.7234
  745MOL0     H 2753   5.714   0.476   7.024 -3.0833 -2.1059  0.8652
  745MOL0     H 2754   5.578   0.449   6.939  1.6165 -0.1107 -0.5575
  745MOL0     H 2755   5.793   0.574   6.829 -0.3295  2.5937 -2.7245
  745MOL0     H 2756   5.696   0.716   6.866 -0.2049  0.5628 -1.8273
  745MOL0     H 2757   5.621   0.478   6.696 -0.6103  0.2673 -2.0724
  745MOL0     H 2758   5.503   0.614   6.730 -0.4439 -0.6735 -1.2985
  745MOL0     H 2759   5.679   0.873   6.726  1.0277  0.8083 -0.7620
  745MOL0     H 2760   5.860   0.984   6.413  0.4798 -2.6652  0.3947
  745MOL0     H 2761   5.795   1.047   6.567 -2.0554  1.8297  0.3658
  745MOL0     H 2762   5.684   1.002   6.289 -3.5901  1.4229 -2.1812
  745MOL0     H 2763   5.564   1.011   6.415  2.4179  0.5244  2.8828
  745MOL0     H 2764   5.635   1.251   6.466  1.8574 -0.8536  1.9398
  745MOL0     H 2765   5.769   1.226   6.366 -1.4041  0.5582  0.9588
  745MOL0     H 2766   5.474   1.246   6.283  0.1670 -0.1846 -1.2813
  745MOL0     H 2767   5.604   1.356   6.257 -4.3296  0.5986  0.5824
  745MOL0     H 2768   5.447   1.238   5.929  0.9008 -1.4359 -1.3544
  745MOL0     H 2769   5.356   1.381   5.748 -2.7184  3.7925 -0.6388
  745MOL0     H 2770   5.463   1.444   5.635  0.4232 -1.5830 -0.0609
  745MOL0     H 2771   5.406   1.543   5.770 -2.1753 -1.5951  4.0960
  745MOL0     H 2772   5.895   1.738   5.616 -1.3892 -1.1137  0.0644
  745MOL0     H 2773   5.963   1.875   5.418 -0.3829 -2.1490 -0.2134
  745MOL0     H 2774   6.010   2.031   5.253  1.5325  1.4300 -1.9657
  745MOL0     H 2775   6.008   1.872   5.184  3.8156  1.5486 -0.0153
  745MOL0     H 2776   5.938   2.114   5.045  1.9966  0.9081  2.0207
  745MOL0     H 2777   6.061   2.000   5.008 -1.5090  2.0376 -3.1351
  745MOL0     H 2778   5.765   1.979   4.955  0.9442  2.3777  1.6233
  745MOL0     H 2779   5.855   1.829   4.958 -2.6140 -0.5795 -0.7936
  745MOL0     H 2780   5.977   1.883   4.769 -0.9365 -0.8068  1.4716
  745MOL0     H 2781   5.961   2.054   4.790  0.8289  0.1866 -1.4943
  745MOL0     H 2782   5.692   1.980   4.735  0.3843  2.9942 -0.8673
  745MOL0     H 2783   5.804   2.014   4.601  1.0953 -2.1019 -1.4754
  745MOL0     H 2784   5.744   1.749   4.747 -1.4140 -0.6533 -0.0043
  745MOL0     H 2785   5.851   1.754   4.614  1.1438  1.8208  2.6467
  745MOL0     H 2786   5.676   1.834   4.450  0.8558 -3.4438 -1.0771
  745MOL0     H 2787   5.565   1.827   4.596  1.1950 -0.5159  1.9356
  745MOL0     H 2788   5.722   1.578   4.504 -0.7091 -1.9448  3.5443
  745MOL0     H 2789   5.562   1.640   4.437  0.8790  2.3620 -1.2662
  745MOL0     H 2790   5.565   1.840   5.267 -1.1052 -0.9370  1.2002
  745MOL0     H 2791   5.500   1.704   5.436 -0.5757  2.4618  0.7870
  745MOL0     H 2792   5.868   1.493   5.941  0.0419  0.1110  2.2876
  745MOL0     H 2793   5.819   1.314   6.091  0.7683 -0.1215 -1.6907
  745MOL0     H 2794   5.003   0.277   7.212  1.6101 -2.6395  0.9158
  745MOL0     H 2795   4.778   0.327   7.215  1.0956 -6.4241 -0.0040
  745MOL0     H 2796   4.541   0.775   7.245  0.8673  0.5309  1.6509
  745MOL0     H 2797   4.298   0.855   7.203 -0.1206  0.5349 -0.5390
  745MOL0     H 2798   4.123   0.957   7.291 -0.2750  1.1445  1.9149
  745MOL0     H 2799   4.064   0.842   7.163 -2.0842 -0.8957  0.7420
  745MOL0     H 2800   3.843   0.845   7.241 -1.9056 -1.1493  2.4393
  745MOL0     H 2801   3.908   1.014   7.235  0.7494  0.5797  1.4558
  745MOL0     H 2802   3.937   0.886   7.510 -2.1612  0.0954  2.0004
  745MOL0     H 2803   3.909   1.045   7.470  0.3383  1.4314  0.4726
  745MOL0     H 2804   3.658   0.977   7.386 -4.3081  0.1635  1.7889
  745MOL0     H 2805   3.700   0.939   7.565  0.4752  3.4552 -1.3837
  745MOL0     H 2806   3.643   0.549   7.444 -2.8537  0.2293 -1.9584
  745MOL0     H 2807   4.159   0.549   7.468 -0.2683  0.6550  1.5282
  745MOL0     H 2808   4.402   0.323   7.486  0.5129 -1.2951  1.4463
  745MOL0     H 2809   4.488   0.427   7.595 -0.6997 -0.2682  0.0676
  745MOL0     H 2810   4.315   0.420   7.605  2.0858  3.2516  2.7414
  746MOL0     O 2811   9.286   7.133   7.647 -0.5798  0.4654  0.1662
  746MOL0     C 2812   9.345   7.236   7.664 -0.3187  1.0225  0.3456
  746MOL0     O 2813   9.442   7.257   7.758 -0.2779 -0.6919 -0.1941
  746MOL0     C 2814   9.505   7.152   7.830 -0.0554 -0.6516  0.0029
  746MOL0     C 2815   9.529   7.149   7.969 -0.8700 -0.8398 -0.4655
  746MOL0     C 2816   9.579   7.043   8.039 -0.3015  0.6325  0.9485
  746MOL0     C 2817   9.627   6.936   7.976 -1.0631  0.6098  0.4290
  746MOL0     O 2818   9.697   6.858   8.048 -0.2474  0.3777  0.6380
  746MOL0     C 2819   9.774   6.748   8.003 -0.0557 -0.6671 -0.2267
  746MOL0     C 2820   9.898   6.722   8.096  0.5487 -1.2509  0.5886
  746MOL0     C 2821   9.837   6.636   8.211 -0.3996  0.3664  0.4595
  746MOL0     C 2822   9.764   6.722   8.322 -0.1415  0.4867 -0.2274
  746MOL0     C 2823   9.778   6.656   8.464 -0.1354 -1.2424  0.6751
  746MOL0     C 2824   9.928   6.689   8.508 -0.0170  0.5784 -0.6833
  746MOL0     C 2825   9.954   6.828   8.553  0.8301  0.0442 -0.4178
  746MOL0     C 2826  10.098   6.842   8.600  0.2879 -0.4068  0.0032
  746MOL0     N 2827  10.204   6.823   8.504 -0.0229  0.0176 -0.7266
  746MOL0     C 2828  10.202   6.860   8.373 -0.8975 -0.4002 -0.0056
  746MOL0     C 2829  10.312   6.797   8.313 -0.3638  0.2259  0.2827
  746MOL0     C 2830  10.350   6.809   8.165  0.4374  0.0958 -0.6032
  746MOL0     C 2831  10.329   6.682   8.082  0.5585  0.8876 -0.5139
  746MOL0     C 2832  10.465   6.616   8.053 -0.2449  0.4988  0.5915
  746MOL0     C 2833  10.459   6.473   7.995  0.0253  0.3164  0.3386
  746MOL0     O 2834  10.566   6.474   7.901 -0.4314  0.0995  0.1618
  746MOL0     C 2835  10.620   6.359   7.845  0.0752  0.3862  0.2585
  746MOL0     C 2836  10.748   6.369   7.795 -0.6026  0.9315  0.3221
  746MOL0     C 2837  10.816   6.251   7.751 -0.6967 -0.5385 -0.4598
  746MOL0     C 2838  10.952   6.294   7.692  0.4987  0.3079 -0.6683
  746MOL0     C 2839  10.753   6.130   7.741  0.9088  0.6729  0.0407
  746MOL0     C 2840  10.814   5.999   7.732 -0.1889  0.6153 -0.2458
  746MOL0     O 2841  10.746   5.888   7.747  0.6090  0.0885 -0.1508
  746MOL0     C 2842  10.817   5.772   7.761 -0.1302  0.4273 -0.7757
  746MOL0     C 2843  10.837   5.667   7.666  0.1002  0.0468 -0.0430
  746MOL0     C 2844  10.899   5.549   7.695 -1.0575  0.5351  1.2081
  746MOL0     C 2845  10.954   5.523   7.820  0.0831 -1.4074  0.0522
  746MOL0     O 2846  11.039   5.412   7.852 -0.5209 -0.3855  0.3800
  746MOL0     C 2847  11.012   5.290   7.797  0.1280  0.9728 -0.0677
  746MOL0     C 2848  11.012   5.184   7.908 -0.3476  0.1769 -0.1987
  746MOL0     C 2849  11.136   5.135   7.982  0.5532 -0.6611  0.1113
  746MOL0     C 2850  11.240   5.051   7.915  0.9429  0.6553 -0.0887
  746MOL0     C 2851  11.324   4.970   8.009 -0.5163 -0.8589  0.1424
  746MOL0     C 2852  11.419   4.876   7.935  0.3305 -1.4789  0.6000
  746MOL0     C 2853  11.548   4.949   7.893  0.5210  0.7008  0.5266
  746MOL0     C 2854  11.566   4.940   7.744  0.4506 -0.6915 -0.2716
  746MOL0    Cl 2855  11.596   4.770   7.711  0.0297  0.3561  0.1562
  746MOL0     C 2856  10.939   5.624   7.916  0.5525 -0.5608  0.3199
  746MOL0     C 2857  10.868   5.738   7.886 -0.6907 -0.0739 -0.5636
  746MOL0     O 2858  10.930   6.007   7.697 -0.3317  0.0617  0.0994
  746MOL0     C 2859  10.617   6.131   7.765  0.1202  0.1699  0.2414
  746MOL0     C 2860  10.552   6.239   7.838  0.1078 -0.3640  0.2634
  746MOL0     N 2861  10.356   6.700   8.398  0.2283 -0.0413 -0.5078
  746MOL0     N 2862  10.299   6.721   8.513  0.3313 -0.4627  0.9555
  746MOL0     C 2863   9.607   6.925   7.841 -1.0060  0.1932  0.4100
  746MOL0     C 2864   9.545   7.030   7.768  0.0797 -0.1480  0.3823
  746MOL0     C 2865   9.306   7.344   7.580 -0.4631 -0.4615 -0.1644
  746MOL0     C 2866   9.171   7.349   7.553  0.2353  0.1045 -0.5569
  746MOL0     C 2867   9.118   7.446   7.466 -0.1810  0.2979  0.5184
  746MOL0     C 2868   9.215   7.527   7.398 -0.7736  0.0597 -0.4521
  746MOL0     O 2869   9.159   7.632   7.336 -1.0093  0.1882  0.0791
  746MOL0     C 2870   9.147   7.757   7.421 -0.5594  0.8455 -0.3010
  746MOL0     C 2871   9.279   7.830   7.444  1.2919  0.3788  0.1148
  746MOL0     C 2872   9.244   7.971   7.497  0.8839 -0.4670 -0.2743
  746MOL0     C 2873   9.362   8.058   7.521 -0.0434  0.4791  0.0998
  746MOL0     C 2874   9.297   8.171   7.589 -1.1742 -0.3424  0.8102
  746MOL0     C 2875   9.261   8.269   7.645 -0.7811 -0.3450  0.1246
  746MOL0     C 2876   9.351   7.511   7.412 -0.2324  0.9963 -0.6830
  746MOL0     C 2877   9.400   7.419   7.504  0.1521 -0.1844 -0.6255
  746MOL0     C 2878   9.548   7.391   7.497 -0.3705 -0.1302 -0.1396
  746MOL0     H 2879   9.506   7.236   8.029 -0.5473  0.0549 -1.5943
  746MOL0     H 2880   9.606   7.045   8.144  1.2023 -0.7938  0.6324
  746MOL0     H 2881   9.817   6.787   7.910 -1.5106  1.6522 -0.0154
  746MOL0     H 2882   9.711   6.660   7.991 -1.5706  0.2043  0.8765
  746MOL0     H 2883   9.981   6.674   8.044  1.3416 -0.6893  1.3033
  746MOL0     H 2884   9.928   6.815   8.145 -3.5824 -0.2095  1.5219
  746MOL0     H 2885   9.764   6.564   8.172 -2.0489  1.1341  1.9982
  746MOL0     H 2886   9.920   6.580   8.254 -1.7859 -2.4470 -0.2597
  746MOL0     H 2887   9.792   6.828   8.322  1.9182 -0.0144 -0.1211
  746MOL0     H 2888   9.659   6.726   8.293  0.2806  2.1525 -1.7171
  746MOL0     H 2889   9.754   6.552   8.443  0.1835 -0.7637 -2.6398
  746MOL0     H 2890   9.706   6.701   8.532 -0.4505 -1.4827  0.5031
  746MOL0     H 2891   9.935   6.622   8.595 -2.7857  1.0211 -0.0163
  746MOL0     H 2892  10.009   6.660   8.441  1.8828  0.2736  1.5946
  746MOL0     H 2893   9.893   6.865   8.636  2.2323  0.6592  0.3757
  746MOL0     H 2894   9.939   6.887   8.462  1.4347  1.7088  0.5090
  746MOL0     H 2895  10.094   6.938   8.651  1.8481 -0.4318  0.2025
  746MOL0     H 2896  10.119   6.770   8.680 -1.0568 -1.8893 -0.9127
  746MOL0     H 2897  10.138   6.932   8.322 -2.0932 -2.0395 -0.9206
  746MOL0     H 2898  10.457   6.831   8.162  1.6713 -3.9034  3.0337
  746MOL0     H 2899  10.295   6.890   8.117 -2.1007 -2.2913 -2.0367
  746MOL0     H 2900  10.265   6.612   8.136  0.1705  1.3203 -0.4098
  746MOL0     H 2901  10.279   6.702   7.987  2.3483  1.3359 -1.3929
  746MOL0     H 2902  10.508   6.683   7.978  2.1711 -2.0634 -0.4899
  746MOL0     H 2903  10.532   6.615   8.139 -1.1722 -0.0188  1.3304
  746MOL0     H 2904  10.465   6.401   8.078 -1.0623 -0.0049  0.1468
  746MOL0     H 2905  10.361   6.461   7.948  1.0118  2.0736 -2.3810
  746MOL0     H 2906  10.811   6.457   7.795  4.0438 -2.0824  0.4808
  746MOL0     H 2907  10.939   6.343   7.595 -2.0047 -0.8700 -1.0172
  746MOL0     H 2908  11.023   6.212   7.677 -1.9595 -1.9479 -0.6988
  746MOL0     H 2909  10.992   6.376   7.752 -2.0883  2.5818 -1.8425
  746MOL0     H 2910  10.789   5.689   7.571 -0.1234  3.5429  0.7526
  746MOL0     H 2911  10.909   5.473   7.618 -3.1157 -1.0455  2.3842
  746MOL0     H 2912  10.922   5.288   7.735  1.3369  4.0272 -2.1357
  746MOL0     H 2913  11.099   5.269   7.734  1.9911 -1.4139  2.9781
  746MOL0     H 2914  10.948   5.212   7.992  2.4870  1.2410  1.7251
  746MOL0     H 2915  10.964   5.097   7.862  1.3614 -1.4972  1.0270
  746MOL0     H 2916  11.094   5.075   8.063  1.7029  2.0575  2.9270
  746MOL0     H 2917  11.182   5.224   8.026 -1.7684 -0.1038  1.5907
  746MOL0     H 2918  11.315   5.119   7.872  0.6592  1.6460  0.9174
  746MOL0     H 2919  11.197   4.986   7.839  0.3617  0.5340  0.3411
  746MOL0     H 2920  11.387   5.035   8.071  0.2399 -0.3271 -1.1590
  746MOL0     H 2921  11.258   4.915   8.077 -2.1591 -0.4526 -1.0809
  746MOL0     H 2922  11.370   4.826   7.851 -0.9808 -1.4551  1.3224
  746MOL0     H 2923  11.441   4.796   8.007  0.7649 -2.3875 -0.5177
  746MOL0     H 2924  11.636   4.918   7.949 -0.7054 -1.4906  1.3716
  746MOL0     H 2925  11.534   5.057   7.910  1.1594  1.1523 -1.5055
  746MOL0     H 2926  11.641   5.010   7.705  1.6372 -0.6589  1.8723
  746MOL0     H 2927  11.474   4.974   7.696  0.7122  1.1905  0.4316
  746MOL0     H 2928  10.989   5.612   8.011  2.9302  1.3177 -0.5993
  746MOL0     H 2929  10.846   5.815   7.959  3.5281  2.4043 -1.5246
  746MOL0     H 2930  10.549   6.054   7.730 -0.0108  1.4978 -2.6527
  746MOL0     H 2931  10.446   6.235   7.858 -0.4863 -0.3367 -2.4575
  746MOL0     H 2932   9.646   6.836   7.792  1.7001  0.3656  2.0178
  746MOL0     H 2933   9.529   7.019   7.661  2.0394  3.6640 -0.4583
  746MOL0     H 2934   9.103   7.280   7.604  1.4853  1.8088  3.8112
  746MOL0     H 2935   9.012   7.462   7.451 -0.2114  0.4629  0.9040
  746MOL0     H 2936   9.081   7.822   7.363  0.5025  1.3004 -1.0148
  746MOL0     H 2937   9.112   7.733   7.522  0.1126  1.1199 -0.0029
  746MOL0     H 2938   9.333   7.839   7.349 -2.0938 -0.2428 -2.0440
  746MOL0     H 2939   9.344   7.768   7.506 -0.3293 -3.9546 -2.1059
  746MOL0     H 2940   9.170   8.022   7.435  0.6956  0.6537  0.8155
  746MOL0     H 2941   9.206   7.953   7.598  2.0820 -0.4877  0.1893
  746MOL0     H 2942   9.419   8.082   7.431 -1.7540  1.5421 -0.7496
  746MOL0     H 2943   9.430   8.011   7.592  0.1801  0.9629  0.2109
  746MOL0     H 2944   9.227   8.357   7.696 -0.0591  1.4023 -2.2385
  746MOL0     H 2945   9.421   7.574   7.358 -0.4099  1.0042 -0.9051
  746MOL0     H 2946   9.568   7.286   7.472  2.5872  0.5631 -1.0540
  746MOL0     H 2947   9.584   7.449   7.411 -1.7870 -1.1358 -1.4935
  746MOL0     H 2948   9.594   7.416   7.592 -0.6000  0.3564 -0.1560
  747MOL0     O 2949  11.462  10.074   5.560  0.4407  0.5119  0.7078
  747MOL0     C 2950  11.559  10.023   5.500 -0.7520  0.5236 -0.8188
  747MOL0     O 2951  11.625   9.910   5.530  0.3933  0.9438  0.1306
  747MOL0     C 2952  11.603   9.860   5.656 -0.2503  0.4611  0.9420
  747MOL0     C 2953  11.654   9.933   5.765  0.4933  0.9668  0.0287
  747MOL0     C 2954  11.637   9.896   5.898  0.0817 -0.2359  0.2464
  747MOL0     C 2955  11.575   9.770   5.925 -0.0718 -0.1498 -0.5034
  747MOL0     O 2956  11.555   9.721   6.053  0.1770 -0.3269 -0.7652
  747MOL0     C 2957  11.556   9.816   6.174  1.0423 -0.2146  1.0663
  747MOL0     C 2958  11.610   9.740   6.308  0.2366 -0.1140 -0.6207
  747MOL0     C 2959  11.631   9.828   6.433  0.1988 -0.7566 -0.0175
  747MOL0     C 2960  11.624   9.740   6.554  0.4306 -0.0090  0.9913
  747MOL0     C 2961  11.619   9.812   6.687 -0.7853  0.2155 -0.1777
  747MOL0     C 2962  11.741   9.910   6.709 -0.9614 -0.0607 -0.3131
  747MOL0     C 2963  11.874   9.841   6.732  0.2934  0.0043 -0.6561
  747MOL0     C 2964  11.987   9.936   6.778  0.0466 -1.4122 -0.2867
  747MOL0     N 2965  12.104   9.861   6.836  0.8417 -0.4816  0.1058
  747MOL0     C 2966  12.089   9.774   6.941  1.0331  0.1986 -0.2550
  747MOL0     C 2967  12.203   9.707   6.945  0.3991 -0.0868  0.4062
  747MOL0     C 2968  12.240   9.593   7.028 -0.8411  0.6808  0.9712
  747MOL0     C 2969  12.353   9.644   7.125  0.3225  0.7781 -0.4882
  747MOL0     C 2970  12.427   9.522   7.178  0.1594  0.6476  0.0114
  747MOL0     C 2971  12.553   9.571   7.247  1.2081 -0.0510  0.4013
  747MOL0     O 2972  12.581   9.486   7.356  0.2437 -0.1811 -0.4445
  747MOL0     C 2973  12.652   9.525   7.469  0.1823 -0.4407  1.4942
  747MOL0     C 2974  12.718   9.642   7.485 -0.6622  0.7489 -0.8365
  747MOL0     C 2975  12.802   9.666   7.600  0.6677  0.0090  0.2965
  747MOL0     C 2976  12.871   9.804   7.609 -0.0380 -0.4264  0.9801
  747MOL0     C 2977  12.818   9.569   7.694  0.4718 -0.3642  0.2446
  747MOL0     C 2978  12.896   9.586   7.821  0.0931 -0.1344 -0.0131
  747MOL0     O 2979  12.862   9.499   7.922  0.1846  0.2268  0.2093
  747MOL0     C 2980  12.901   9.501   8.055 -0.2875 -0.5223  0.4011
  747MOL0     C 2981  12.911   9.616   8.137 -0.8551 -0.0779 -0.3470
  747MOL0     C 2982  12.916   9.599   8.273 -0.3208 -0.2143 -0.0648
  747MOL0     C 2983  12.934   9.472   8.331 -0.5815  0.2330  1.2674
  747MOL0     O 2984  12.962   9.450   8.460  0.4606  0.3353  0.2122
  747MOL0     C 2985  12.975   9.561   8.547  0.5095 -0.4987 -0.0353
  747MOL0     C 2986  12.960   9.509   8.694 -0.3504 -0.0744  0.4646
  747MOL0     C 2987  13.066   9.401   8.740 -0.0618  0.5179 -0.4764
  747MOL0     C 2988  13.107   9.436   8.882  1.5476 -0.4909 -0.4756
  747MOL0     C 2989  13.178   9.323   8.957  0.0052 -0.6523  0.4301
  747MOL0     C 2990  13.086   9.210   9.016 -0.1177 -0.0556 -0.3998
  747MOL0     C 2991  13.018   9.247   9.147 -0.7556 -0.1112 -0.1812
  747MOL0     C 2992  12.915   9.152   9.179  0.4600 -0.5222 -0.2378
  747MOL0    Cl 2993  12.855   9.177   9.352  0.0020  0.3169 -0.0281
  747MOL0     C 2994  12.940   9.361   8.249 -0.0867 -0.2813 -0.7864
  747MOL0     C 2995  12.944   9.378   8.108  1.1904  1.0601  0.1148
  747MOL0     O 2996  12.987   9.671   7.830 -0.1060 -0.0518 -0.7980
  747MOL0     C 2997  12.743   9.448   7.676  0.1366 -0.5785 -0.3027
  747MOL0     C 2998  12.659   9.436   7.568 -0.1291  0.9696  0.0385
  747MOL0     N 2999  12.279   9.740   6.834  0.4939 -0.6837  0.1097
  747MOL0     N 3000  12.221   9.830   6.771  0.3366  0.1327 -0.1973
  747MOL0     C 3001  11.525   9.697   5.816  0.2210  0.1330 -0.1977
  747MOL0     C 3002  11.545   9.738   5.679  0.5254 -0.3533  0.0912
  747MOL0     C 3003  11.613  10.100   5.383 -1.5460  0.1345 -0.6772
  747MOL0     C 3004  11.531  10.163   5.283  0.7149 -0.7354 -0.0532
  747MOL0     C 3005  11.569  10.232   5.163 -0.2678 -0.3268 -0.5036
  747MOL0     C 3006  11.708  10.230   5.138  0.9029 -0.2970  0.4719
  747MOL0     O 3007  11.771  10.288   5.024 -0.9264  0.0041  0.4592
  747MOL0     C 3008  11.681  10.334   4.914  0.1890 -0.9084  0.0859
  747MOL0     C 3009  11.614  10.225   4.844  0.5078 -0.2502 -0.3414
  747MOL0     C 3010  11.704  10.147   4.757  0.3685 -0.2149 -0.1683
  747MOL0     C 3011  11.685   9.993   4.773  0.7349  0.0834  0.0571
  747MOL0     C 3012  11.762   9.917   4.670  0.7173 -0.9793  0.7062
  747MOL0     C 3013  11.826   9.853   4.593 -0.4261  0.4743 -0.0564
  747MOL0     C 3014  11.788  10.178   5.236  0.0647  0.0282 -0.9425
  747MOL0     C 3015  11.755  10.112   5.351 -0.4091 -0.1684 -0.4536
  747MOL0     C 3016  11.867  10.074   5.442  1.3814 -1.4842  0.4515
  747MOL0     H 3017  11.697  10.030   5.743 -0.3651  2.0091  2.6071
  747MOL0     H 3018  11.663   9.963   5.979 -1.5047  0.4250  0.2364
  747MOL0     H 3019  11.449   9.831   6.188  0.8621 -0.4154 -0.0404
  747MOL0     H 3020  11.611   9.909   6.161 -1.5230  1.1861 -0.5920
  747MOL0     H 3021  11.531   9.669   6.331 -0.9699  2.1808  3.1135
  747MOL0     H 3022  11.707   9.694   6.286  0.2687  0.4440 -1.7179
  747MOL0     H 3023  11.732   9.869   6.440  0.1841 -0.6660 -0.3371
  747MOL0     H 3024  11.561   9.912   6.442  1.3615  0.0293  2.6904
  747MOL0     H 3025  11.526   9.693   6.550 -0.8357  2.4963  0.1340
  747MOL0     H 3026  11.704   9.665   6.557  2.1414  1.4591 -2.3241
  747MOL0     H 3027  11.600   9.742   6.769  2.6366  1.0334  1.4852
  747MOL0     H 3028  11.521   9.860   6.689 -2.6474 -3.2141 -0.1804
  747MOL0     H 3029  11.742   9.999   6.646 -3.9715  0.1547 -0.2079
  747MOL0     H 3030  11.717   9.964   6.801 -0.7220  3.0548 -1.9416
  747MOL0     H 3031  11.908   9.793   6.640  2.5746  2.4795 -1.2070
  747MOL0     H 3032  11.855   9.777   6.819 -3.2213  1.1348 -0.4374
  747MOL0     H 3033  12.034   9.980   6.689  1.4028  0.8141  1.4220
  747MOL0     H 3034  11.953  10.013   6.847  4.0775 -0.2757  0.6716
  747MOL0     H 3035  12.005   9.764   7.008  1.0904 -0.7177 -0.3160
  747MOL0     H 3036  12.279   9.512   6.966 -0.0942  0.6906  1.4144
  747MOL0     H 3037  12.153   9.562   7.088 -2.8004  5.9793  1.4023
  747MOL0     H 3038  12.427   9.702   7.068  0.7886  1.4535  0.7754
  747MOL0     H 3039  12.301   9.704   7.200 -0.0846  0.3469 -0.4270
  747MOL0     H 3040  12.365   9.472   7.253  4.5506 -1.8120  2.4608
  747MOL0     H 3041  12.460   9.451   7.101  1.7497 -2.0507  2.9679
  747MOL0     H 3042  12.636   9.594   7.179  0.1335 -0.5783 -1.1607
  747MOL0     H 3043  12.526   9.660   7.305 -1.8706 -1.0266  0.6230
  747MOL0     H 3044  12.719   9.720   7.409  1.4090  3.2657  1.5381
  747MOL0     H 3045  12.822   9.878   7.546 -1.1823 -0.1428  2.1555
  747MOL0     H 3046  12.975   9.790   7.578 -0.6876 -0.9090 -1.1037
  747MOL0     H 3047  12.866   9.846   7.710 -0.1356 -3.4645  2.3604
  747MOL0     H 3048  12.906   9.707   8.078  0.3103  0.2999  0.1006
  747MOL0     H 3049  12.934   9.688   8.332 -1.6938 -1.5377  2.4748
  747MOL0     H 3050  13.073   9.610   8.538  0.1898  1.2990  4.0379
  747MOL0     H 3051  12.889   9.628   8.552  0.5187  0.0242 -3.8456
  747MOL0     H 3052  12.977   9.603   8.748 -3.6551  1.5786 -1.0463
  747MOL0     H 3053  12.860   9.467   8.709  1.4029 -3.7472  3.2350
  747MOL0     H 3054  13.152   9.389   8.674 -0.3410 -0.3032 -0.6936
  747MOL0     H 3055  13.014   9.305   8.745 -1.1738  1.0740 -1.2592
  747MOL0     H 3056  13.012   9.458   8.932  0.5292 -2.1027 -1.6005
  747MOL0     H 3057  13.168   9.526   8.884  1.7088 -0.5655 -1.5009
  747MOL0     H 3058  13.244   9.282   8.881  2.1171 -0.0222  1.8478
  747MOL0     H 3059  13.260   9.357   9.021  0.0311 -0.6791  0.4131
  747MOL0     H 3060  13.152   9.123   9.020  0.3853  0.3813  1.9277
  747MOL0     H 3061  13.008   9.191   8.942 -0.4250  1.1583 -0.4051
  747MOL0     H 3062  12.989   9.352   9.155 -1.5612 -0.4005  0.8734
  747MOL0     H 3063  13.086   9.237   9.233  1.7029 -1.0647 -2.1225
  747MOL0     H 3064  12.966   9.055   9.180  2.4260  0.4494  1.3562
  747MOL0     H 3065  12.834   9.163   9.107  2.3414  0.5723 -2.3022
  747MOL0     H 3066  12.956   9.260   8.284 -1.9901 -0.2154  0.4277
  747MOL0     H 3067  12.955   9.288   8.048  2.5049  1.0097  0.4048
  747MOL0     H 3068  12.763   9.360   7.736 -0.4329  0.1802  1.0282
  747MOL0     H 3069  12.605   9.344   7.546 -1.5642  2.3585 -2.6488
  747MOL0     H 3070  11.479   9.600   5.825 -0.9963  0.5117 -1.7129
  747MOL0     H 3071  11.516   9.685   5.589 -1.1878  1.6663 -0.6250
  747MOL0     H 3072  11.426  10.158   5.310  1.3101 -0.8709  2.4557
  747MOL0     H 3073  11.493  10.278   5.101  2.0284  3.7857 -0.6803
  747MOL0     H 3074  11.601  10.401   4.947 -2.8038 -3.7662 -0.8167
  747MOL0     H 3075  11.742  10.393   4.844  0.3873 -0.6135  0.5023
  747MOL0     H 3076  11.537  10.272   4.781  1.7016  0.2597 -1.4624
  747MOL0     H 3077  11.559  10.159   4.912  2.6621  1.7841  3.7247
  747MOL0     H 3078  11.682  10.172   4.652  0.5500 -2.0415 -0.6789
  747MOL0     H 3079  11.807  10.170   4.784  0.7756 -2.5780  0.5612
  747MOL0     H 3080  11.581   9.962   4.784  1.0833 -0.8395  0.9432
  747MOL0     H 3081  11.740   9.954   4.860 -1.9166 -1.7240  1.0411
  747MOL0     H 3082  11.875   9.796   4.517  1.4147 -1.5688  2.4924
  747MOL0     H 3083  11.891  10.194   5.206 -0.4222  3.1766 -1.2994
  747MOL0     H 3084  11.827  10.064   5.544  2.5224  2.5217  1.4607
  747MOL0     H 3085  11.907   9.973   5.428 -0.0928 -2.2540  1.5005
  747MOL0     H 3086  11.943  10.152   5.444  0.8750 -0.9518 -0.3923
  748MOL0     O 3087   2.263   6.530  10.351 -1.2069  0.1928  0.6309
  748MOL0     C 3088   2.173   6.491  10.420 -0.0432  0.0480 -0.3314
  748MOL0     O 3089   2.148   6.358  10.446 -0.7933  1.1173  0.0941
  748MOL0     C 3090   2.235   6.246  10.417  0.5799 -0.7284  0.4949
  748MOL0     C 3091   2.230   6.194  10.282  0.9121 -0.9147 -1.0020
  748MOL0     C 3092   2.302   6.081  10.242  0.3630 -0.1535 -0.1802
  748MOL0     C 3093   2.393   6.029  10.335  0.1255  0.0065 -0.2313
  748MOL0     O 3094   2.457   5.913  10.310 -0.4330  0.5651  0.0723
  748MOL0     C 3095   2.503   5.818  10.414  0.4907  0.1607 -1.2043
  748MOL0     C 3096   2.497   5.677  10.359  0.1692  0.7525  0.1497
  748MOL0     C 3097   2.364   5.617  10.324 -0.4784 -0.7191 -0.0822
  748MOL0     C 3098   2.306   5.687  10.202  0.1584  0.3228 -0.3579
  748MOL0     C 3099   2.180   5.611  10.148 -0.0757 -0.6642  0.1425
  748MOL0     C 3100   2.131   5.668  10.015 -0.8416  0.2687  0.3311
  748MOL0     C 3101   2.217   5.620   9.891  0.0254 -0.3914 -0.5997
  748MOL0     C 3102   2.149   5.511   9.811 -0.5596  0.0246  0.1242
  748MOL0     N 3103   2.166   5.386   9.884 -0.1243 -0.2706 -0.7196
  748MOL0     C 3104   2.280   5.346   9.944  0.0412  0.3822 -0.2304
  748MOL0     C 3105   2.254   5.223   9.994  0.9332 -0.6632  0.2935
  748MOL0     C 3106   2.357   5.153  10.065 -0.4336 -0.4194 -0.4606
  748MOL0     C 3107   2.316   5.111  10.203  0.0100 -0.3824 -0.4116
  748MOL0     C 3108   2.309   5.239  10.290  0.6138  1.0866 -0.9453
  748MOL0     C 3109   2.255   5.189  10.431 -0.1618 -0.0771 -0.6202
  748MOL0     O 3110   2.348   5.122  10.512  0.0902 -0.4223  0.1320
  748MOL0     C 3111   2.453   5.189  10.557  0.5962  0.6744  0.4582
  748MOL0     C 3112   2.437   5.299  10.637 -0.3272 -0.6893 -0.3347
  748MOL0     C 3113   2.549   5.361  10.698  1.3525  0.9185  0.6698
  748MOL0     C 3114   2.507   5.473  10.790  0.1286 -1.1870 -0.6449
  748MOL0     C 3115   2.678   5.319  10.654 -0.1221 -0.2514  1.0988
  748MOL0     C 3116   2.791   5.388  10.695  0.5064  0.7240 -0.1676
  748MOL0     O 3117   2.885   5.312  10.761 -0.6698 -0.2069  0.0182
  748MOL0     C 3118   2.993   5.369  10.814 -1.2921  0.3657  1.2284
  748MOL0     C 3119   2.997   5.462  10.921 -0.1322 -0.4287  0.2976
  748MOL0     C 3120   3.118   5.509  10.979  0.2722  1.4156  0.3000
  748MOL0     C 3121   3.244   5.478  10.923 -0.4066  0.2525 -0.1682
  748MOL0     O 3122   3.369   5.501  10.977 -0.2888 -0.4568 -0.5055
  748MOL0     C 3123   3.458   5.566  10.881 -0.0178  0.9507 -0.2280
  748MOL0     C 3124   3.477   5.711  10.917 -0.1753 -0.3145 -0.2013
  748MOL0     C 3125   3.557   5.784  10.801 -0.6004  0.1839 -0.0960
  748MOL0     C 3126   3.646   5.883  10.886  1.3719  0.5547  0.1422
  748MOL0     C 3127   3.728   5.975  10.799  0.1889 -0.2622 -0.7364
  748MOL0     C 3128   3.842   6.040  10.880 -0.1350 -0.4005 -0.1665
  748MOL0     C 3129   3.883   6.170  10.810 -0.9779  0.0362  0.4097
  748MOL0     C 3130   4.027   6.202  10.850  0.2937 -0.0431  1.0035
  748MOL0    Cl 3131   4.037   6.255  11.019 -0.5606  0.5001 -0.4079
  748MOL0     C 3132   3.244   5.397  10.804 -0.0013 -0.1342 -0.4519
  748MOL0     C 3133   3.124   5.337  10.758  0.1658  0.9096 -0.4571
  748MOL0     O 3134   2.801   5.506  10.673  0.3503  0.4099 -0.3233
  748MOL0     C 3135   2.695   5.203  10.576 -0.4123  0.1446  0.5261
  748MOL0     C 3136   2.583   5.130  10.528 -0.2910 -0.2738  0.2871
  748MOL0     N 3137   2.118   5.187   9.952 -1.3573  0.1468  0.6520
  748MOL0     N 3138   2.066   5.290   9.897 -0.6810  0.2018  0.7093
  748MOL0     C 3139   2.402   6.088  10.466  1.4082  0.2701 -0.1920
  748MOL0     C 3140   2.320   6.198  10.513  0.7052 -0.5679  0.3805
  748MOL0     C 3141   2.072   6.585  10.463 -0.1952  0.3216 -0.4326
  748MOL0     C 3142   1.949   6.532  10.511 -0.4848 -0.0671  0.7576
  748MOL0     C 3143   1.849   6.620  10.560 -0.5330 -0.3110  0.3374
  748MOL0     C 3144   1.865   6.759  10.551  0.4218 -0.3365 -0.5112
  748MOL0     O 3145   1.773   6.857  10.589 -0.0614  0.2910  0.1711
  748MOL0     C 3146   1.644   6.828  10.644 -0.0475  0.1610  0.0215
  748MOL0     C 3147   1.587   6.964  10.678  0.2852  0.2752  0.4046
  748MOL0     C 3148   1.548   7.048  10.554  0.4596 -0.4718  0.0627
  748MOL0     C 3149   1.410   7.010  10.494  0.7368  0.6333  0.2626
  748MOL0     C 3150   1.309   7.074  10.574  0.3438 -0.6952  1.2972
  748MOL0     C 3151   1.224   7.132  10.635 -0.0738  0.3579 -0.2408
  748MOL0     C 3152   1.985   6.806  10.506  0.4870 -0.4157 -0.2304
  748MOL0     C 3153   2.092   6.727  10.470  0.9249  0.8877  0.0768
  748MOL0     C 3154   2.216   6.793  10.425  0.2831 -0.2970 -0.3346
  748MOL0     H 3155   2.162   6.236  10.208 -0.2656  1.2503  1.1708
  748MOL0     H 3156   2.308   6.033  10.145 -0.5638 -1.8449  0.5559
  748MOL0     H 3157   2.441   5.823  10.504 -0.4939 -2.8610 -1.5851
  748MOL0     H 3158   2.604   5.831  10.452  0.8655 -3.0142 -0.8375
  748MOL0     H 3159   2.566   5.675  10.275 -0.8261 -0.9058 -0.6880
  748MOL0     H 3160   2.542   5.612  10.434  0.1826  1.3388  0.6602
  748MOL0     H 3161   2.369   5.515  10.284 -0.6575 -1.0608  0.7493
  748MOL0     H 3162   2.294   5.619  10.408  0.4422 -0.7923  0.6980
  748MOL0     H 3163   2.273   5.790  10.221  0.6506  0.2016  1.3096
  748MOL0     H 3164   2.375   5.713  10.121  0.0055  0.3828 -0.4706
  748MOL0     H 3165   2.096   5.616  10.217 -1.8642 -2.2589 -1.7705
  748MOL0     H 3166   2.188   5.502  10.138 -1.8779 -0.7479 -0.7889
  748MOL0     H 3167   2.023   5.657  10.012 -0.8251 -0.1396  0.9826
  748MOL0     H 3168   2.136   5.778  10.019 -1.1937  0.2691  1.0846
  748MOL0     H 3169   2.323   5.605   9.916  0.1163 -1.1969 -1.4157
  748MOL0     H 3170   2.226   5.698   9.814  0.4444 -2.4607 -2.7855
  748MOL0     H 3171   2.044   5.541   9.801 -0.0253  2.0299  0.0988
  748MOL0     H 3172   2.176   5.502   9.705 -2.4144  1.8867 -0.5712
  748MOL0     H 3173   2.366   5.410   9.961 -1.2081  2.2069 -0.4470
  748MOL0     H 3174   2.446   5.216  10.064  0.1841 -1.0668 -4.1804
  748MOL0     H 3175   2.385   5.063  10.010 -0.2486  0.5623 -2.0476
  748MOL0     H 3176   2.217   5.067  10.199 -0.9850  1.6305  0.3453
  748MOL0     H 3177   2.386   5.040  10.249  1.3847 -0.3801 -2.3896
  748MOL0     H 3178   2.402   5.298  10.291  0.7070  0.9491 -1.2606
  748MOL0     H 3179   2.231   5.307  10.254  0.6669  2.0467  0.6499
  748MOL0     H 3180   2.193   5.255  10.493 -3.2068 -4.1321  1.0739
  748MOL0     H 3181   2.176   5.115  10.413 -0.3843  0.0794 -0.3064
  748MOL0     H 3182   2.338   5.339  10.658 -0.4908 -1.4623  0.4369
  748MOL0     H 3183   2.455   5.439  10.880 -0.7350  0.5185 -0.4516
  748MOL0     H 3184   2.449   5.555  10.746  1.8267 -0.3057 -1.3233
  748MOL0     H 3185   2.594   5.530  10.822 -1.1471  0.2708  0.4023
  748MOL0     H 3186   2.901   5.478  10.970 -0.4244 -2.2777  0.3731
  748MOL0     H 3187   3.110   5.561  11.074 -1.8822 -1.4103  1.8407
  748MOL0     H 3188   3.559   5.525  10.886 -0.4447  0.0094  2.1515
  748MOL0     H 3189   3.425   5.552  10.778  1.3841 -1.8744 -0.3715
  748MOL0     H 3190   3.380   5.760  10.932 -0.4486 -0.3744 -1.6508
  748MOL0     H 3191   3.521   5.714  11.017 -4.2709 -3.2767  1.9741
  748MOL0     H 3192   3.485   5.844  10.745  2.1097  1.8240 -2.0851
  748MOL0     H 3193   3.619   5.725  10.732 -0.9449  0.5820 -0.7524
  748MOL0     H 3194   3.714   5.814  10.936  0.5092  0.2292  0.9014
  748MOL0     H 3195   3.585   5.943  10.954 -1.3282  0.2762 -1.8476
  748MOL0     H 3196   3.777   5.913  10.723  2.6641 -1.1123  1.4279
  748MOL0     H 3197   3.672   6.046  10.737  1.5983  1.0625 -0.5668
  748MOL0     H 3198   3.919   5.963  10.872 -1.3388 -1.4266 -2.7782
  748MOL0     H 3199   3.825   6.059  10.987  1.1117 -3.7147  0.7485
  748MOL0     H 3200   3.818   6.253  10.843 -2.0838 -0.5173 -0.3183
  748MOL0     H 3201   3.881   6.169  10.701 -0.5990  2.1585  0.3265
  748MOL0     H 3202   4.065   6.270  10.773 -0.2913 -1.7923 -0.8933
  748MOL0     H 3203   4.081   6.110  10.827  0.8397  0.6315 -0.5747
  748MOL0     H 3204   3.333   5.365  10.753  1.7789 -0.2200  2.4766
  748MOL0     H 3205   3.147   5.272  10.674  1.8115  0.6305  0.1711
  748MOL0     H 3206   2.792   5.172  10.538  0.4501  3.2216 -0.0925
  748MOL0     H 3207   2.594   5.034  10.480 -3.4016 -1.1546  1.0753
  748MOL0     H 3208   2.470   6.036  10.533 -0.5620 -2.6524 -0.2985
  748MOL0     H 3209   2.343   6.251  10.605 -1.2480  0.8458  0.1311
  748MOL0     H 3210   1.939   6.424  10.514 -2.8722  0.1153  1.5829
  748MOL0     H 3211   1.757   6.587  10.608 -0.1925 -3.0433 -0.7135
  748MOL0     H 3212   1.583   6.781  10.566  1.7694 -0.2128 -1.2206
  748MOL0     H 3213   1.649   6.760  10.730 -4.1951 -0.9449 -0.3994
  748MOL0     H 3214   1.661   7.011  10.744 -0.3855 -1.2927  2.3674
  748MOL0     H 3215   1.498   6.952  10.741  0.1876  1.8761  0.6183
  748MOL0     H 3216   1.545   7.156  10.569 -1.3276 -0.1554 -1.9973
  748MOL0     H 3217   1.623   7.029  10.476  1.4999  3.0460  0.0449
  748MOL0     H 3218   1.381   6.905  10.502 -1.7948  1.1202 -1.3821
  748MOL0     H 3219   1.410   7.045  10.390  1.1628  1.5303  0.5563
  748MOL0     H 3220   1.155   7.196  10.685  0.6379  1.4245 -0.5941
  748MOL0     H 3221   2.014   6.911  10.500  0.7661 -0.4931 -0.2323
  748MOL0     H 3222   2.222   6.778  10.316 -1.1130  0.6278 -0.5716
  748MOL0     H 3223   2.227   6.898  10.452  1.2441 -0.1455 -1.2457
  748MOL0     H 3224   2.303   6.743  10.466  0.4111  0.4981  0.3876
  749MOL0     O 3225  11.129   9.824   8.302 -0.0494 -0.4128 -0.2459
  749MOL0     C 3226  11.161   9.922   8.368  0.6366  0.0661 -0.3461
  749MOL0     O 3227  11.081   9.994   8.450  0.4615 -0.1589  0.4054
  749MOL0     C 3228  10.941   9.976   8.465 -0.3628 -0.4126 -0.9481
  749MOL0     C 3229  10.877   9.852   8.443 -0.0067 -0.6834  0.2891
  749MOL0     C 3230  10.751   9.838   8.468  0.2057  0.3614  0.0594
  749MOL0     C 3231  10.681   9.945   8.515 -0.2247  1.3103 -0.6490
  749MOL0     O 3232  10.546   9.927   8.534  0.6384  0.0967  0.0956
  749MOL0     C 3233  10.469  10.052   8.514 -0.1375  0.7476 -0.4887
  749MOL0     C 3234  10.320  10.027   8.500 -0.5880  0.2593 -0.2216
  749MOL0     C 3235  10.263   9.967   8.637  0.1072  0.7143 -0.9581
  749MOL0     C 3236  10.129   9.906   8.611 -0.3986  0.1277  0.0864
  749MOL0     C 3237  10.057   9.873   8.741 -0.1760 -0.1725  0.3156
  749MOL0     C 3238  10.150   9.797   8.842  0.7539  0.3138 -0.3406
  749MOL0     C 3239  10.084   9.774   8.983 -0.4630 -0.8651  0.0449
  749MOL0     C 3240  10.043   9.909   9.049 -0.3434 -0.6401  0.3699
  749MOL0     N 3241  10.025   9.879   9.197 -0.3876 -0.6079  0.2658
  749MOL0     C 3242   9.939   9.795   9.257  0.0963 -1.1930  0.9836
  749MOL0     C 3243   9.986   9.786   9.383  0.5365  0.1901 -0.3065
  749MOL0     C 3244   9.938   9.715   9.505  0.5791 -0.3469  0.0346
  749MOL0     C 3245   9.837   9.802   9.579  0.4072 -0.4332 -1.0007
  749MOL0     C 3246   9.875   9.946   9.605  0.3653 -0.0876  0.6306
  749MOL0     C 3247  10.003   9.972   9.685  0.3331 -0.1887  0.1201
  749MOL0     O 3248  10.009  10.115   9.719 -0.2482  0.2562 -0.3583
  749MOL0     C 3249   9.972  10.175   9.839  0.9385  0.5919 -0.1062
  749MOL0     C 3250  10.024  10.302   9.874  0.3722 -0.8848  0.0370
  749MOL0     C 3251   9.986  10.367   9.990 -0.6326 -0.8450 -0.2976
  749MOL0     C 3252  10.026  10.509  10.002  0.0381 -0.5780  0.9597
  749MOL0     C 3253   9.887  10.310  10.076 -0.0535 -0.4215  0.4376
  749MOL0     C 3254   9.855  10.367  10.211 -0.0835  0.6679  0.6666
  749MOL0     O 3255   9.803  10.494  10.213 -0.6159 -0.1335  0.6929
  749MOL0     C 3256   9.774  10.565  10.324  0.1029 -0.4818  0.6792
  749MOL0     C 3257   9.744  10.520  10.452  0.5768  0.1199  0.4269
  749MOL0     C 3258   9.706  10.606  10.557  0.2283  1.0223 -0.7123
  749MOL0     C 3259   9.685  10.740  10.538 -0.3549  0.5827 -0.0484
  749MOL0     O 3260   9.636  10.825  10.632  0.2387  0.1209  0.0120
  749MOL0     C 3261   9.537  10.768  10.726 -0.2870  0.5255  0.2179
  749MOL0     C 3262   9.498  10.878  10.829  0.4182 -0.3164 -0.8251
  749MOL0     C 3263   9.629  10.948  10.879 -0.4133 -0.2362 -0.7973
  749MOL0     C 3264   9.614  11.026  11.012 -0.5465  0.3820  0.5683
  749MOL0     C 3265   9.637  10.945  11.148  0.2428 -0.1327 -0.8218
  749MOL0     C 3266   9.713  11.026  11.249 -0.6537 -0.7123 -0.2405
  749MOL0     C 3267   9.691  10.954  11.387  0.2972 -0.0283  1.9311
  749MOL0     C 3268   9.806  10.862  11.419  0.5366  0.5583  0.3682
  749MOL0    Cl 3269   9.743  10.781  11.552  0.0950  0.1140 -0.5489
  749MOL0     C 3270   9.721  10.789  10.411  1.2177 -0.5666  0.3425
  749MOL0     C 3271   9.771  10.708  10.309  0.2634 -0.6045  0.2340
  749MOL0     O 3272   9.858  10.289  10.303 -0.1050  0.2439  0.3053
  749MOL0     C 3273   9.841  10.180  10.039  0.8346 -0.5656  0.0143
  749MOL0     C 3274   9.881  10.111   9.921  0.1989 -0.3163 -0.7721
  749MOL0     N 3275  10.102   9.855   9.397  0.1249 -0.3267  0.0039
  749MOL0     N 3276  10.129   9.905   9.282  0.4183 -0.6980  0.4307
  749MOL0     C 3277  10.748  10.059   8.568 -0.2142  0.3618 -0.2266
  749MOL0     C 3278  10.878  10.078   8.538 -0.8821  0.0968 -0.2318
  749MOL0     C 3279  11.300   9.966   8.381 -0.9024  0.5022 -0.5667
  749MOL0     C 3280  11.344  10.044   8.497 -0.5970 -0.9535 -0.5942
  749MOL0     C 3281  11.475  10.104   8.503 -0.4158 -0.1548 -0.8479
  749MOL0     C 3282  11.567  10.076   8.405  0.1079 -0.7215  1.0635
  749MOL0     O 3283  11.691  10.134   8.404  1.2383  0.3422  0.0370
  749MOL0     C 3284  11.738  10.217   8.514 -0.3492 -0.4501 -0.1430
  749MOL0     C 3285  11.796  10.126   8.636 -0.1580 -0.1775  0.3182
  749MOL0     C 3286  11.912  10.027   8.587 -0.6124  0.2395 -1.1815
  749MOL0     C 3287  12.053  10.099   8.585  0.9274  0.4654  0.7010
  749MOL0     C 3288  12.170  10.014   8.576 -0.6298 -0.4886 -1.1029
  749MOL0     C 3289  12.278   9.946   8.564 -0.2551  0.5595 -0.2748
  749MOL0     C 3290  11.516  10.004   8.282 -0.3959  0.4458 -0.5720
  749MOL0     C 3291  11.386   9.945   8.270 -0.3302 -0.3737  0.1240
  749MOL0     C 3292  11.351   9.890   8.131  0.4172  0.3082 -0.2971
  749MOL0     H 3293  10.937   9.775   8.395  1.1245 -0.4743  1.2969
  749MOL0     H 3294  10.699   9.743   8.466  1.2200 -0.4222  3.7949
  749MOL0     H 3295  10.507  10.101   8.424  0.8605  0.0427 -0.4670
  749MOL0     H 3296  10.479  10.120   8.599 -1.4269  1.3060 -0.7614
  749MOL0     H 3297  10.270  10.121   8.473  0.3116  0.1644 -2.4043
  749MOL0     H 3298  10.307   9.952   8.421 -1.4210  0.7407 -0.5577
  749MOL0     H 3299  10.329   9.885   8.668  0.4814 -0.4612 -4.3966
  749MOL0     H 3300  10.256  10.054   8.702  0.5246  0.1121 -0.0731
  749MOL0     H 3301  10.069   9.970   8.545  2.2401  0.0044 -2.6834
  749MOL0     H 3302  10.135   9.819   8.545 -0.3397  0.2721 -0.1005
  749MOL0     H 3303   9.963   9.819   8.725  1.1774 -2.7191  0.4758
  749MOL0     H 3304  10.037   9.968   8.790  1.0691 -0.2659  1.0534
  749MOL0     H 3305  10.171   9.699   8.798  0.4863  0.7428 -1.4607
  749MOL0     H 3306  10.235   9.861   8.863 -1.7498  3.4074  1.2540
  749MOL0     H 3307  10.169   9.739   9.043  1.5460  0.9378 -1.5798
  749MOL0     H 3308  10.002   9.702   8.973 -0.0298 -1.3418 -0.1119
  749MOL0     H 3309  10.113   9.990   9.025 -0.0709 -1.8681 -3.6423
  749MOL0     H 3310   9.952   9.947   9.001  1.0114  1.8550 -0.3888
  749MOL0     H 3311   9.847   9.751   9.220 -1.6996  2.0106  1.2051
  749MOL0     H 3312  10.025   9.694   9.568 -1.0390 -1.8797  1.8956
  749MOL0     H 3313   9.895   9.617   9.481 -0.8361  0.5251 -1.1645
  749MOL0     H 3314   9.745   9.801   9.521 -0.0773 -2.4090 -0.2920
  749MOL0     H 3315   9.817   9.753   9.675 -2.2842 -1.4245 -1.9911
  749MOL0     H 3316   9.880   9.993   9.506 -1.6236 -1.5997 -0.2761
  749MOL0     H 3317   9.786   9.983   9.656 -1.0396 -0.1615 -1.6133
  749MOL0     H 3318  10.018   9.915   9.777  0.4219 -0.3181  0.0248
  749MOL0     H 3319  10.080   9.942   9.614  1.3175  0.6189  0.8098
  749MOL0     H 3320  10.101  10.344   9.810 -0.3438  0.8556  0.2678
  749MOL0     H 3321  10.132  10.515  10.027 -0.7703 -0.5400  5.0275
  749MOL0     H 3322   9.968  10.575  10.067  2.0615  1.7706  0.5408
  749MOL0     H 3323  10.038  10.557   9.904  3.6866 -0.2817  1.4374
  749MOL0     H 3324   9.739  10.413  10.469 -1.6758  0.4506  2.2409
  749MOL0     H 3325   9.697  10.553  10.651  1.4599 -1.2150 -1.7740
  749MOL0     H 3326   9.444  10.735  10.679  0.4350 -0.5428 -0.5019
  749MOL0     H 3327   9.581  10.678  10.769 -1.7666 -0.6765 -0.7267
  749MOL0     H 3328   9.436  10.952  10.778  0.4356  1.1086  1.1075
  749MOL0     H 3329   9.440  10.834  10.911  3.9719 -0.9666  1.5891
  749MOL0     H 3330   9.674  11.012  10.803  1.6362 -2.2950 -1.4654
  749MOL0     H 3331   9.706  10.871  10.893 -1.7306 -1.4096  0.3446
  749MOL0     H 3332   9.520  11.083  11.017 -0.0833  1.5767 -2.3644
  749MOL0     H 3333   9.689  11.105  11.023 -0.6772  0.6438 -0.3370
  749MOL0     H 3334   9.543  10.907  11.189  1.7206 -2.3611  0.7702
  749MOL0     H 3335   9.687  10.851  11.122  0.9937 -0.0315  0.1948
  749MOL0     H 3336   9.667  11.125  11.257 -2.1852 -1.3931 -0.2629
  749MOL0     H 3337   9.819  11.043  11.229 -0.2154  0.1481  2.4365
  749MOL0     H 3338   9.612  10.879  11.379  1.6236 -1.3615  0.5770
  749MOL0     H 3339   9.666  11.028  11.464 -1.0872 -0.4957  1.9417
  749MOL0     H 3340   9.906  10.907  11.423  1.0232 -0.3658 -0.7540
  749MOL0     H 3341   9.820  10.783  11.345 -0.4120 -0.3583  1.1401
  749MOL0     H 3342   9.721  10.895  10.390  2.3134 -0.5367  0.4258
  749MOL0     H 3343   9.801  10.762  10.220 -1.7604  1.3896  0.6613
  749MOL0     H 3344   9.778  10.129  10.111 -2.1678  2.6475 -0.0637
  749MOL0     H 3345   9.823  10.020   9.911 -0.6073  0.0640  0.2170
  749MOL0     H 3346  10.692  10.131   8.627  1.8378  2.9059 -1.2091
  749MOL0     H 3347  10.936  10.168   8.554  0.2589 -0.4480 -1.1235
  749MOL0     H 3348  11.277  10.055   8.582 -3.2028 -2.9052 -2.2102
  749MOL0     H 3349  11.498  10.160   8.593 -1.2208 -1.0890 -0.0401
  749MOL0     H 3350  11.820  10.277   8.473 -1.1568  0.7778  0.0195
  749MOL0     H 3351  11.662  10.283   8.556  0.2372  1.3559 -1.8131
  749MOL0     H 3352  11.711  10.072   8.677 -0.2370 -0.0088  0.3758
  749MOL0     H 3353  11.819  10.189   8.723 -0.7833  0.0667  0.3062
  749MOL0     H 3354  11.904   9.941   8.654 -2.0935  1.5291  0.4111
  749MOL0     H 3355  11.888  10.009   8.482 -0.0419  0.0327 -1.2788
  749MOL0     H 3356  12.055  10.166   8.671 -0.4172  0.9378  0.3832
  749MOL0     H 3357  12.053  10.168   8.499 -1.8208 -0.6987 -0.3406
  749MOL0     H 3358  12.369   9.896   8.542  0.5614  1.5258  0.7340
  749MOL0     H 3359  11.593  10.000   8.206 -1.6676 -1.7690 -1.8716
  749MOL0     H 3360  11.272   9.934   8.071  1.3167 -1.0530 -2.6145
  749MOL0     H 3361  11.444   9.892   8.073  1.1452  2.3855  0.8390
  749MOL0     H 3362  11.331   9.782   8.136 -3.3391  0.8706 -0.2065
  750MOL0     O 3363   2.698   9.673   4.685  1.2856  0.4250 -0.9695
  750MOL0     C 3364   2.651   9.685   4.801 -0.1035  0.1441 -0.8491
  750MOL0     O 3365   2.730   9.732   4.901 -0.6273 -0.0256 -1.1460
  750MOL0     C 3366   2.862   9.735   4.876 -1.0328 -0.2193  0.0331
  750MOL0     C 3367   2.937   9.616   4.853  0.6353 -0.1233  0.3767
  750MOL0     C 3368   3.087   9.624   4.853  0.5286  0.6532  0.1566
  750MOL0     C 3369   3.154   9.742   4.875  0.7433 -0.1229  0.0938
  750MOL0     O 3370   3.292   9.752   4.892  0.5237 -0.2692  1.0184
  750MOL0     C 3371   3.353   9.859   4.820 -0.6014  0.9406  0.0076
  750MOL0     C 3372   3.506   9.841   4.829 -0.7848  0.1051  0.0455
  750MOL0     C 3373   3.549   9.706   4.760  0.7029 -0.0154 -0.3809
  750MOL0     C 3374   3.692   9.677   4.758 -0.8360  0.8119  0.8196
  750MOL0     C 3375   3.733   9.556   4.676  0.0676  0.1975 -0.2633
  750MOL0     C 3376   3.701   9.563   4.529  0.0303 -0.5667  0.4633
  750MOL0     C 3377   3.735   9.701   4.467  0.1432  0.3716 -0.0572
  750MOL0     C 3378   3.713   9.710   4.317  0.0129  0.4060  0.4268
  750MOL0     N 3379   3.581   9.759   4.287 -0.0912  0.1857  0.0421
  750MOL0     C 3380   3.467   9.689   4.298  0.2116 -0.2820 -0.7559
  750MOL0     C 3381   3.373   9.790   4.293  0.2483 -0.1297 -0.6633
  750MOL0     C 3382   3.223   9.760   4.302  0.3549 -0.0493 -0.5194
  750MOL0     C 3383   3.177   9.749   4.450  0.2301 -0.1999 -0.2595
  750MOL0     C 3384   3.074   9.852   4.490  0.2333 -0.3992  0.1384
  750MOL0     C 3385   2.929   9.826   4.434 -0.5960  0.0996 -0.4540
  750MOL0     O 3386   2.913   9.853   4.298  0.6561 -0.4860 -0.0915
  750MOL0     C 3387   2.781   9.867   4.254 -0.3438  0.7217 -0.3932
  750MOL0     C 3388   2.658   9.838   4.326  0.2706 -0.5615 -1.0086
  750MOL0     C 3389   2.528   9.848   4.267 -0.9162  0.5394 -0.2696
  750MOL0     C 3390   2.405   9.812   4.347 -0.2799 -0.8741 -1.0130
  750MOL0     C 3391   2.525   9.889   4.126  0.0920  0.6776 -0.1153
  750MOL0     C 3392   2.393   9.891   4.051  0.6694 -1.4575 -0.1944
  750MOL0     O 3393   2.397   9.897   3.906 -0.4154  0.6707 -0.8673
  750MOL0     C 3394   2.284   9.885   3.834 -0.1218  0.3270  0.6110
  750MOL0     C 3395   2.247   9.767   3.768  0.5216 -0.5076 -0.1293
  750MOL0     C 3396   2.121   9.755   3.714  0.3369  0.4196 -0.2683
  750MOL0     C 3397   2.028   9.854   3.726 -0.5791 -0.5859 -0.7053
  750MOL0     O 3398   1.894   9.842   3.683 -0.1334 -0.1557 -0.3654
  750MOL0     C 3399   1.810   9.873   3.796 -0.4444  0.0045 -0.7287
  750MOL0     C 3400   1.674   9.825   3.772  0.0826 -0.5747 -0.2057
  750MOL0     C 3401   1.610   9.893   3.651  0.3339  0.3562 -0.3802
  750MOL0     C 3402   1.580  10.041   3.677  0.5741 -0.3964 -0.0864
  750MOL0     C 3403   1.596  10.129   3.549  0.5118 -0.2855 -0.5043
  750MOL0     C 3404   1.578  10.276   3.571  0.7335 -0.4796  0.0867
  750MOL0     C 3405   1.435  10.318   3.545 -0.0281  0.2849 -0.4576
  750MOL0     C 3406   1.443  10.458   3.607  0.2421  0.1422  0.3817
  750MOL0    Cl 3407   1.398  10.456   3.768 -0.2424  0.4292 -0.0139
  750MOL0     C 3408   2.072   9.974   3.781 -0.1263 -0.3570 -0.1208
  750MOL0     C 3409   2.194   9.991   3.835 -0.5302  1.1899 -0.9293
  750MOL0     O 3410   2.281   9.890   4.110 -0.2256  0.4239  0.4092
  750MOL0     C 3411   2.645   9.909   4.061 -0.8913  0.8837  0.2651
  750MOL0     C 3412   2.775   9.890   4.125  0.1881 -0.2311  0.9776
  750MOL0     N 3413   3.430   9.913   4.276 -0.8755  0.4393 -0.3616
  750MOL0     N 3414   3.561   9.898   4.283  0.0852 -0.2745 -0.5238
  750MOL0     C 3415   3.072   9.855   4.912  0.4399 -0.0421  0.0463
  750MOL0     C 3416   2.926   9.849   4.913 -0.1096  0.0114  0.0910
  750MOL0     C 3417   2.511   9.668   4.831 -0.3410  0.8882 -1.5197
  750MOL0     C 3418   2.449   9.746   4.933 -0.7941  0.0971 -0.8632
  750MOL0     C 3419   2.316   9.738   4.973 -0.5133 -0.0533 -0.0929
  750MOL0     C 3420   2.232   9.666   4.898  0.2459  0.5008  0.6723
  750MOL0     O 3421   2.095   9.674   4.928  0.2994 -0.2122 -0.2292
  750MOL0     C 3422   1.997   9.614   4.841  0.4296  0.7584  0.3050
  750MOL0     C 3423   1.857   9.674   4.855  0.5504  0.1166  0.4049
  750MOL0     C 3424   1.771   9.626   4.742  0.5343  0.1491 -0.4935
  750MOL0     C 3425   1.616   9.621   4.767 -0.1877 -0.4007 -0.5144
  750MOL0     C 3426   1.546   9.745   4.736  0.0640  0.9766 -0.2750
  750MOL0     C 3427   1.481   9.835   4.686 -0.4047 -0.0641  0.5450
  750MOL0     C 3428   2.276   9.581   4.795  0.3065  0.4678  0.0840
  750MOL0     C 3429   2.415   9.578   4.769 -1.0724  0.0723  0.4757
  750MOL0     C 3430   2.453   9.478   4.658  0.3156 -0.8056  0.5593
  750MOL0     H 3431   2.899   9.515   4.844  4.4521 -1.7740  0.8981
  750MOL0     H 3432   3.145   9.542   4.812  0.5434  0.9527 -0.4390
  750MOL0     H 3433   3.331   9.949   4.879 -1.8437 -0.5842  2.0082
  750MOL0     H 3434   3.315   9.878   4.719  1.8038 -0.2280 -1.2014
  750MOL0     H 3435   3.547   9.925   4.772  3.6465 -2.2275 -0.5698
  750MOL0     H 3436   3.544   9.854   4.931  2.6386  1.5796 -1.2631
  750MOL0     H 3437   3.490   9.625   4.804 -1.4074  0.1036 -2.7848
  750MOL0     H 3438   3.519   9.717   4.656  1.6570  1.8211 -0.4955
  750MOL0     H 3439   3.748   9.764   4.722 -0.3379  0.1830  0.0225
  750MOL0     H 3440   3.730   9.657   4.859  0.3237  0.7298  0.3824
  750MOL0     H 3441   3.688   9.465   4.715  0.3693 -1.2239 -2.9644
  750MOL0     H 3442   3.840   9.532   4.680  0.0227 -0.6393 -2.3481
  750MOL0     H 3443   3.751   9.483   4.473 -0.7229 -4.0200  4.2550
  750MOL0     H 3444   3.596   9.533   4.522  0.1557 -1.6661  2.4671
  750MOL0     H 3445   3.843   9.700   4.483  0.5258 -4.8998 -1.1602
  750MOL0     H 3446   3.683   9.785   4.513  1.2765  1.7575 -1.2230
  750MOL0     H 3447   3.786   9.771   4.265 -3.5251  3.0678 -1.8688
  750MOL0     H 3448   3.733   9.611   4.274 -1.7068 -0.1055  0.7093
  750MOL0     H 3449   3.447   9.586   4.327  2.5758 -0.5465  0.1400
  750MOL0     H 3450   3.194   9.676   4.238 -0.0821 -0.7919  0.6410
  750MOL0     H 3451   3.172   9.845   4.256 -1.5730 -1.0724 -0.3663
  750MOL0     H 3452   3.124   9.655   4.469  2.1874 -1.5224 -0.9993
  750MOL0     H 3453   3.256   9.758   4.525 -0.4801  1.0752  0.3790
  750MOL0     H 3454   3.064   9.852   4.598  1.5495 -2.9478  0.3386
  750MOL0     H 3455   3.100   9.957   4.473  0.3617 -0.5104 -0.3837
  750MOL0     H 3456   2.897   9.726   4.462  0.3737  0.9352  4.5296
  750MOL0     H 3457   2.858   9.889   4.487  1.6291  0.3425  2.5101
  750MOL0     H 3458   2.678   9.782   4.417  2.8217 -0.4889 -1.4392
  750MOL0     H 3459   2.331   9.740   4.311 -2.8539  1.3236 -0.4361
  750MOL0     H 3460   2.347   9.903   4.328 -0.7531 -0.2982  2.4361
  750MOL0     H 3461   2.425   9.805   4.455 -2.2070 -0.1856 -0.5568
  750MOL0     H 3462   2.319   9.686   3.773 -0.2701 -1.1572  2.0026
  750MOL0     H 3463   2.083   9.671   3.657 -1.2559  1.8377 -1.4209
  750MOL0     H 3464   1.850   9.819   3.882 -2.1400 -0.0559  0.0622
  750MOL0     H 3465   1.818   9.975   3.835 -0.0641 -0.3152  0.0361
  750MOL0     H 3466   1.690   9.722   3.738  0.2347  0.3539 -3.2295
  750MOL0     H 3467   1.627   9.838   3.870  3.2694  2.7537  1.0762
  750MOL0     H 3468   1.520   9.834   3.635  0.8333 -0.8523  1.0429
  750MOL0     H 3469   1.677   9.879   3.566 -1.0181  0.4606 -1.4930
  750MOL0     H 3470   1.647  10.075   3.757  1.2683 -0.9115 -0.4411
  750MOL0     H 3471   1.476  10.057   3.708 -0.0583  0.0478 -2.2404
  750MOL0     H 3472   1.684  10.098   3.492 -0.0744 -1.5589 -0.7438
  750MOL0     H 3473   1.517  10.092   3.482 -2.3857 -0.7420  2.8633
  750MOL0     H 3474   1.654  10.333   3.517  0.6051  1.8309  2.1844
  750MOL0     H 3475   1.611  10.297   3.673  1.7915  0.1045 -0.3594
  750MOL0     H 3476   1.359  10.259   3.598  1.4166 -0.1781  1.2173
  750MOL0     H 3477   1.417  10.316   3.437  1.9709  2.7528 -0.9220
  750MOL0     H 3478   1.377  10.519   3.545 -0.9418 -0.8051  0.6612
  750MOL0     H 3479   1.538  10.511   3.605  0.3215  0.1534  2.3605
  750MOL0     H 3480   2.002  10.057   3.776 -2.8269 -2.5002 -0.2856
  750MOL0     H 3481   2.225  10.085   3.879 -0.2490 -0.1631  1.9638
  750MOL0     H 3482   2.652   9.944   3.958  1.2798 -0.8585 -0.2651
  750MOL0     H 3483   2.859   9.914   4.060 -0.6201  1.8409  0.6271
  750MOL0     H 3484   3.112   9.951   4.946 -0.9905  0.4781  0.3314
  750MOL0     H 3485   2.865   9.932   4.946 -3.6596 -2.0804 -0.7624
  750MOL0     H 3486   2.512   9.820   4.981  0.6413 -0.1936 -2.2207
  750MOL0     H 3487   2.266   9.794   5.052 -2.7973 -0.8183 -0.9010
  750MOL0     H 3488   2.030   9.632   4.739  1.7266 -1.1455  0.3523
  750MOL0     H 3489   2.013   9.506   4.843  2.1949  1.0055  1.2964
  750MOL0     H 3490   1.855   9.783   4.860 -0.3119  0.0835  1.0554
  750MOL0     H 3491   1.820   9.631   4.949  0.4668  0.1271  0.3764
  750MOL0     H 3492   1.779   9.681   4.647 -2.6624 -2.4409 -2.4681
  750MOL0     H 3493   1.799   9.521   4.729 -2.8979 -0.9005 -0.4358
  750MOL0     H 3494   1.600   9.608   4.875  2.9685  1.2809  0.2983
  750MOL0     H 3495   1.576   9.537   4.710 -1.1250 -0.6322  0.4457
  750MOL0     H 3496   1.415   9.913   4.652  2.0267  1.9926  0.2161
  750MOL0     H 3497   2.214   9.522   4.728 -3.2449  0.6924  2.8660
  750MOL0     H 3498   2.440   9.534   4.565  2.6913 -2.7335 -1.0592
  750MOL0     H 3499   2.559   9.452   4.665  0.8385 -0.9417 -4.4562
  750MOL0     H 3500   2.398   9.384   4.651  0.4797 -0.7753 -2.6136
  751MOL0     O 3501   2.381   5.052   0.509  0.0210  0.9896 -0.0493
  751MOL0     C 3502   2.398   5.110   0.616 -0.4678 -0.4097  0.4581
  751MOL0     O 3503   2.380   5.067   0.742  0.4490  0.3500 -0.9155
  751MOL0     C 3504   2.348   4.934   0.772  0.7761  0.7146  0.0421
  751MOL0     C 3505   2.377   4.819   0.695 -0.4348  0.3504 -0.3899
  751MOL0     C 3506   2.321   4.696   0.714  0.2840 -0.8601  0.0265
  751MOL0     C 3507   2.224   4.676   0.812  1.0139  0.4268  0.9863
  751MOL0     O 3508   2.173   4.549   0.821 -0.6093  0.0558 -0.5702
  751MOL0     C 3509   2.086   4.526   0.936  0.2243  0.8340 -0.9471
  751MOL0     C 3510   2.026   4.384   0.921 -0.0888  0.7319  0.4889
  751MOL0     C 3511   1.884   4.395   0.857 -0.5065 -0.2758  0.5367
  751MOL0     C 3512   1.883   4.369   0.706 -0.6027 -0.6595  0.5324
  751MOL0     C 3513   1.740   4.365   0.654  0.3022 -0.1947  0.2791
  751MOL0     C 3514   1.756   4.337   0.502  0.4676  0.1881  0.6975
  751MOL0     C 3515   1.634   4.357   0.404 -0.4986  0.1757 -0.9279
  751MOL0     C 3516   1.548   4.239   0.440 -0.2246 -0.1021  0.6523
  751MOL0     N 3517   1.437   4.212   0.344 -0.5714  0.6185  0.4385
  751MOL0     C 3518   1.418   4.245   0.211 -0.2579  0.5326 -0.6162
  751MOL0     C 3519   1.303   4.186   0.167 -0.2099  0.2037 -0.3796
  751MOL0     C 3520   1.232   4.205   0.034  0.7370  0.0383  0.4750
  751MOL0     C 3521   1.109   4.114   0.011  0.1410  0.7258  0.1492
  751MOL0     C 3522   1.157   3.967   0.014 -0.6896 -0.6197 -0.5155
  751MOL0     C 3523   1.059   3.878  -0.038  1.1050 -0.1808  0.1734
  751MOL0     O 3524   1.017   3.898  -0.175 -0.3813 -0.5699  0.0203
  751MOL0     C 3525   1.083   3.828  -0.268 -0.4181  0.2550  0.0156
  751MOL0     C 3526   1.069   3.687  -0.281  0.2523 -0.3763  0.1564
  751MOL0     C 3527   1.140   3.605  -0.373 -0.1204 -0.0981  0.5234
  751MOL0     C 3528   1.130   3.458  -0.357 -0.1212 -0.2230  0.6836
  751MOL0     C 3529   1.239   3.681  -0.447  0.4292  0.0768 -0.9894
  751MOL0     C 3530   1.325   3.620  -0.544 -0.1764  0.2335 -0.2985
  751MOL0     O 3531   1.425   3.694  -0.596  0.3285 -0.6130 -0.0700
  751MOL0     C 3532   1.476   3.680  -0.726 -0.1554 -0.1236  0.4410
  751MOL0     C 3533   1.469   3.774  -0.829  0.9052 -0.4734 -0.0223
  751MOL0     C 3534   1.522   3.750  -0.954 -0.2242  0.0166 -0.6148
  751MOL0     C 3535   1.580   3.631  -0.986 -0.1144  0.5986 -0.2421
  751MOL0     O 3536   1.642   3.603  -1.102  0.1920 -0.1257 -0.0256
  751MOL0     C 3537   1.749   3.702  -1.131  0.1826  0.1994  0.8419
  751MOL0     C 3538   1.811   3.706  -1.270  0.2673 -0.3640  1.1597
  751MOL0     C 3539   1.843   3.560  -1.326  0.5663 -0.5004 -0.6909
  751MOL0     C 3540   1.972   3.498  -1.265  1.0248  0.7309  0.1870
  751MOL0     C 3541   1.983   3.354  -1.313  0.0693  0.2170 -0.6317
  751MOL0     C 3542   1.857   3.265  -1.285 -0.2503  0.1169 -0.0129
  751MOL0     C 3543   1.867   3.117  -1.273 -0.3279 -0.4085 -0.3781
  751MOL0     C 3544   1.909   3.047  -1.393  0.5605 -0.3722  0.0101
  751MOL0    Cl 3545   1.858   2.884  -1.388 -0.2308  0.1602 -0.1669
  751MOL0     C 3546   1.587   3.531  -0.888 -0.9492 -0.3622 -0.0868
  751MOL0     C 3547   1.535   3.555  -0.760  0.6594 -0.0413 -0.1475
  751MOL0     O 3548   1.295   3.514  -0.591  0.0091  0.3513 -0.1066
  751MOL0     C 3549   1.256   3.822  -0.428 -0.1437  1.0936  0.2111
  751MOL0     C 3550   1.170   3.901  -0.353 -0.2052 -0.3713  0.5527
  751MOL0     N 3551   1.252   4.122   0.279  0.0485 -0.3900  0.5815
  751MOL0     N 3552   1.333   4.145   0.383  0.9388 -0.1696 -0.7011
  751MOL0     C 3553   2.193   4.782   0.901 -0.7892 -0.6320 -0.1672
  751MOL0     C 3554   2.258   4.910   0.881  0.2269  0.0987  0.4098
  751MOL0     C 3555   2.436   5.244   0.598  0.4271 -0.7272 -0.4857
  751MOL0     C 3556   2.349   5.342   0.638  0.1719  0.1474  0.1169
  751MOL0     C 3557   2.384   5.475   0.640  0.2471  0.2031 -0.1673
  751MOL0     C 3558   2.502   5.514   0.571  0.0732 -0.3666 -0.8618
  751MOL0     O 3559   2.522   5.646   0.573 -0.0754 -0.4007  0.1324
  751MOL0     C 3560   2.655   5.708   0.540  0.0258  0.4744 -0.0966
  751MOL0     C 3561   2.766   5.692   0.641 -0.8578  0.1325  0.0754
  751MOL0     C 3562   2.907   5.712   0.577 -1.0803  0.1731  0.0701
  751MOL0     C 3563   3.036   5.705   0.668  0.8498 -0.5461 -0.3092
  751MOL0     C 3564   3.154   5.729   0.591 -0.3188  0.3894  0.3429
  751MOL0     C 3565   3.257   5.744   0.533 -1.0142 -0.0026 -0.5100
  751MOL0     C 3566   2.593   5.416   0.520 -0.4535 -0.1556 -0.2345
  751MOL0     C 3567   2.562   5.283   0.545  0.2332 -0.7780 -0.2992
  751MOL0     C 3568   2.666   5.190   0.518 -0.5235 -0.1348  0.1958
  751MOL0     H 3569   2.443   4.829   0.609 -1.3797  1.2708 -1.0288
  751MOL0     H 3570   2.355   4.611   0.655  0.5779  0.0568 -1.1560
  751MOL0     H 3571   2.005   4.598   0.951  2.5978  3.1220  2.0746
  751MOL0     H 3572   2.152   4.527   1.023 -0.9817  1.6025  0.0053
  751MOL0     H 3573   2.097   4.318   0.870  0.7734  3.3643 -2.0113
  751MOL0     H 3574   2.005   4.344   1.021 -1.9866 -1.8063 -0.8230
  751MOL0     H 3575   1.823   4.329   0.919 -2.4209  2.1457  1.4035
  751MOL0     H 3576   1.838   4.494   0.861  3.1847  1.7840 -2.0112
  751MOL0     H 3577   1.934   4.446   0.647 -3.0658  1.0845  0.5145
  751MOL0     H 3578   1.934   4.274   0.689 -0.3611 -0.5267  0.5167
  751MOL0     H 3579   1.689   4.457   0.684  1.1943  0.2302  0.5280
  751MOL0     H 3580   1.687   4.284   0.704  0.4741  0.2959  1.2842
  751MOL0     H 3581   1.837   4.399   0.462  3.1818 -2.6705  1.3917
  751MOL0     H 3582   1.791   4.234   0.489  0.2107  0.2999 -1.1463
  751MOL0     H 3583   1.662   4.370   0.299 -1.7526  0.5165 -1.2419
  751MOL0     H 3584   1.577   4.444   0.440  0.3890  1.1743 -1.8518
  751MOL0     H 3585   1.607   4.147   0.435 -0.2170 -0.0876 -4.3105
  751MOL0     H 3586   1.513   4.242   0.544  1.1537 -2.4672  1.2522
  751MOL0     H 3587   1.482   4.309   0.151  0.4114  0.9914  0.5630
  751MOL0     H 3588   1.288   4.168  -0.053 -0.1254  0.2254 -0.1775
  751MOL0     H 3589   1.212   4.311   0.015 -2.0014 -0.1812  1.6843
  751MOL0     H 3590   1.027   4.134   0.082 -3.8898  0.7900 -4.0519
  751MOL0     H 3591   1.055   4.139  -0.081 -1.0531  0.2877  0.7082
  751MOL0     H 3592   1.253   3.965  -0.038 -0.7639  1.9397 -0.8940
  751MOL0     H 3593   1.172   3.944   0.120 -1.6922  0.2236 -0.1737
  751MOL0     H 3594   1.086   3.772  -0.031  0.6179 -0.6921 -3.4369
  751MOL0     H 3595   0.966   3.874   0.018  1.1128 -0.4130  0.1722
  751MOL0     H 3596   1.012   3.637  -0.204 -2.0342  2.3847  0.4416
  751MOL0     H 3597   1.067   3.407  -0.430  2.6494 -3.1405  0.1035
  751MOL0     H 3598   1.093   3.435  -0.256  0.6243 -3.2274  0.3712
  751MOL0     H 3599   1.233   3.422  -0.360 -0.6844 -1.8582  0.2377
  751MOL0     H 3600   1.407   3.861  -0.810 -0.9543 -1.9109  0.8186
  751MOL0     H 3601   1.516   3.820  -1.037  0.2158 -0.6214 -1.1924
  751MOL0     H 3602   1.716   3.805  -1.111  2.6119  2.3144 -4.1779
  751MOL0     H 3603   1.829   3.686  -1.058  0.3414  0.9768  0.8524
  751MOL0     H 3604   1.739   3.754  -1.337 -0.1223 -2.7029 -0.2413
  751MOL0     H 3605   1.904   3.763  -1.272 -1.0575  1.9681 -1.0962
  751MOL0     H 3606   1.842   3.559  -1.436  2.6194  0.8373 -0.7750
  751MOL0     H 3607   1.751   3.507  -1.298  1.2794 -0.9568  0.8553
  751MOL0     H 3608   1.968   3.494  -1.156 -2.6664 -1.7350  0.1366
  751MOL0     H 3609   2.063   3.553  -1.292  3.1046 -1.4737  2.2736
  751MOL0     H 3610   1.999   3.346  -1.421 -4.1900 -2.0766 -1.3096
  751MOL0     H 3611   2.067   3.310  -1.259  0.4854  1.5001 -0.1922
  751MOL0     H 3612   1.790   3.283  -1.369 -2.3424 -0.1161  1.5313
  751MOL0     H 3613   1.817   3.301  -1.189 -1.4110 -0.2343 -0.3541
  751MOL0     H 3614   1.768   3.094  -1.233  0.6502 -0.9140  1.8768
  751MOL0     H 3615   1.941   3.090  -1.198  0.1345 -0.6258 -0.9007
  751MOL0     H 3616   2.017   3.051  -1.407  0.8287  1.4359  2.2110
  751MOL0     H 3617   1.863   3.089  -1.483 -0.0132  0.8393  0.8506
  751MOL0     H 3618   1.635   3.440  -0.923  1.1924 -0.8992  3.6557
  751MOL0     H 3619   1.541   3.480  -0.682  3.3713  0.2369  0.0023
  751MOL0     H 3620   1.336   3.884  -0.468  1.8757 -0.7592  1.1437
  751MOL0     H 3621   1.192   4.007  -0.348  0.3783 -0.5025  0.8926
  751MOL0     H 3622   2.115   4.769   0.976  0.5284 -1.1170  1.1741
  751MOL0     H 3623   2.237   4.999   0.940  1.0958 -0.9138  2.3342
  751MOL0     H 3624   2.247   5.318   0.666  1.2077 -2.3197  2.1920
  751MOL0     H 3625   2.324   5.540   0.704 -0.7072  0.4557 -1.2760
  751MOL0     H 3626   2.705   5.650   0.461 -0.8879 -2.2802  1.2230
  751MOL0     H 3627   2.641   5.810   0.504  0.6964  0.1762 -1.2896
  751MOL0     H 3628   2.766   5.591   0.685 -0.9368  0.2664  0.3837
  751MOL0     H 3629   2.759   5.770   0.717  0.5833  0.6584 -0.2963
  751MOL0     H 3630   2.911   5.646   0.490 -0.2380  1.3251 -0.8028
  751MOL0     H 3631   2.909   5.809   0.525 -1.3936  0.4163  0.5016
  751MOL0     H 3632   3.033   5.607   0.716 -0.7979  0.0849  0.9807
  751MOL0     H 3633   3.028   5.783   0.745 -1.8470  0.6250 -1.6675
  751MOL0     H 3634   3.350   5.755   0.482 -2.1358 -0.1323 -2.6858
  751MOL0     H 3635   2.694   5.436   0.486  1.0763 -2.9479  2.2352
  751MOL0     H 3636   2.644   5.091   0.559  1.1148 -0.5957  0.0364
  751MOL0     H 3637   2.681   5.177   0.411 -2.2249 -0.3975 -0.0325
  751MOL0     H 3638   2.754   5.224   0.573 -0.8186  1.9554 -0.5590
  752MOL0     O 3639   6.588   5.272   6.429 -0.0305  0.0262 -0.0519
  752MOL0     C 3640   6.593   5.181   6.342 -0.0843 -0.3255  0.1825
  752MOL0     O 3641   6.484   5.119   6.297  0.2686 -0.1875  0.0820
  752MOL0     C 3642   6.364   5.143   6.360 -0.7339  0.3391  0.9257
  752MOL0     C 3643   6.275   5.232   6.297  0.3337 -0.1033  0.5437
  752MOL0     C 3644   6.155   5.253   6.357  0.1858 -0.5054 -0.2884
  752MOL0     C 3645   6.114   5.183   6.473  0.2314 -0.4624  0.5547
  752MOL0     O 3646   5.985   5.200   6.518  0.2461 -0.8793 -0.2373
  752MOL0     C 3647   5.932   5.134   6.634 -0.5786  0.1035  0.6761
  752MOL0     C 3648   5.901   4.990   6.589  0.5622 -0.3754 -0.5011
  752MOL0     C 3649   5.840   4.891   6.695 -0.2254 -1.5900 -0.3603
  752MOL0     C 3650   5.812   4.750   6.651 -0.7089  0.6857 -0.5066
  752MOL0     C 3651   5.950   4.678   6.612  0.6488 -0.2944  0.5359
  752MOL0     C 3652   5.950   4.534   6.659  0.1907 -0.2544  0.2729
  752MOL0     C 3653   6.081   4.458   6.643 -0.5611  0.2022 -0.0643
  752MOL0     C 3654   6.204   4.527   6.710 -0.9398  0.3393 -0.4623
  752MOL0     N 3655   6.307   4.441   6.752 -0.1716  0.3773 -0.4408
  752MOL0     C 3656   6.386   4.465   6.862 -0.5302 -0.2735 -0.3150
  752MOL0     C 3657   6.461   4.360   6.880  0.3028  0.5955  0.5857
  752MOL0     C 3658   6.573   4.333   6.983  1.0129  0.8272 -0.7038
  752MOL0     C 3659   6.697   4.395   6.946 -0.0119 -0.9415 -0.5243
  752MOL0     C 3660   6.675   4.552   6.920  0.8679  0.8262  0.2863
  752MOL0     C 3661   6.815   4.620   6.926 -0.4116 -0.2080 -0.6026
  752MOL0     O 3662   6.876   4.611   7.058  0.0543 -0.3869 -0.6201
  752MOL0     C 3663   6.822   4.685   7.165 -0.4774 -0.9938  0.2167
  752MOL0     C 3664   6.835   4.627   7.294  0.9863  1.0837  0.7865
  752MOL0     C 3665   6.784   4.692   7.411  0.1962 -0.1546 -0.8946
  752MOL0     C 3666   6.809   4.626   7.544  0.9790  0.6743  0.6711
  752MOL0     C 3667   6.718   4.817   7.397 -0.2695 -0.2840  0.6824
  752MOL0     C 3668   6.659   4.897   7.505  0.0484  0.2876  0.7260
  752MOL0     O 3669   6.647   5.030   7.481  0.0200  0.2342 -0.3273
  752MOL0     C 3670   6.582   5.115   7.571 -0.0803 -0.2111  0.4281
  752MOL0     C 3671   6.470   5.188   7.529 -0.8005 -0.8653 -0.2740
  752MOL0     C 3672   6.398   5.272   7.615  0.7409  0.4816  0.5860
  752MOL0     C 3673   6.434   5.280   7.754 -0.0175 -0.2024 -0.9015
  752MOL0     O 3674   6.365   5.344   7.854  0.5613  0.0946 -0.5550
  752MOL0     C 3675   6.262   5.424   7.814 -0.1571  0.1414 -0.2651
  752MOL0     C 3676   6.209   5.498   7.937 -0.2762 -0.1706 -0.3543
  752MOL0     C 3677   6.293   5.517   8.062  0.2228 -0.1833  1.0162
  752MOL0     C 3678   6.218   5.595   8.166 -0.0774  0.4337  0.1079
  752MOL0     C 3679   6.303   5.611   8.298 -0.0552  0.6317 -0.1516
  752MOL0     C 3680   6.224   5.647   8.426  0.0733 -0.0108 -0.4844
  752MOL0     C 3681   6.183   5.797   8.417  0.4979 -0.8273  0.5897
  752MOL0     C 3682   6.057   5.838   8.486 -0.1575 -0.1694  0.4642
  752MOL0    Cl 3683   6.074   5.847   8.670  0.0194  0.5503 -0.5105
  752MOL0     C 3684   6.549   5.203   7.794 -0.3561 -0.6028 -0.0614
  752MOL0     C 3685   6.624   5.120   7.703  0.0719  0.4396 -0.2153
  752MOL0     O 3686   6.633   4.842   7.610 -0.4553  0.6669 -0.4910
  752MOL0     C 3687   6.702   4.874   7.266  0.1785  0.3567 -0.1044
  752MOL0     C 3688   6.760   4.810   7.149 -0.1347  0.2225  0.5639
  752MOL0     N 3689   6.429   4.274   6.780 -0.5502  0.0663  0.5231
  752MOL0     N 3690   6.334   4.319   6.703  0.3492  0.3222 -0.7026
  752MOL0     C 3691   6.209   5.101   6.536 -0.4905 -0.3878  0.0610
  752MOL0     C 3692   6.337   5.079   6.482  0.0385  0.9060  0.3013
  752MOL0     C 3693   6.726   5.135   6.287 -0.0746 -0.8995 -0.0347
  752MOL0     C 3694   6.833   5.182   6.361 -0.2798 -0.0081 -0.0682
  752MOL0     C 3695   6.964   5.151   6.323 -1.1312 -0.2764  0.0109
  752MOL0     C 3696   6.995   5.065   6.216  0.3481 -0.6656 -0.4154
  752MOL0     O 3697   7.129   5.055   6.174 -0.1133  0.3082 -0.3674
  752MOL0     C 3698   7.171   4.989   6.048  0.0730  0.2811 -0.0736
  752MOL0     C 3699   7.322   4.938   6.062  0.0481  0.1725  0.1096
  752MOL0     C 3700   7.341   4.849   6.186 -0.3513 -0.5320  0.1569
  752MOL0     C 3701   7.468   4.761   6.192 -0.3494 -0.0778 -0.3716
  752MOL0     C 3702   7.508   4.694   6.318  0.8542  0.4125 -1.2522
  752MOL0     C 3703   7.539   4.659   6.426  0.6897 -0.0661  0.6477
  752MOL0     C 3704   6.889   5.012   6.147  0.7078 -0.2148 -0.2086
  752MOL0     C 3705   6.751   5.052   6.179  0.4559 -0.3094  0.7064
  752MOL0     C 3706   6.638   5.009   6.093  0.4093  0.2758  0.2521
  752MOL0     H 3707   6.280   5.276   6.198  1.7178  1.7873  1.3930
  752MOL0     H 3708   6.091   5.324   6.305  0.2888 -1.1625 -1.3289
  752MOL0     H 3709   5.838   5.178   6.667 -1.2445 -0.5041 -0.3721
  752MOL0     H 3710   5.997   5.150   6.721 -1.2301  1.4419  0.9324
  752MOL0     H 3711   5.827   4.986   6.510 -1.0320 -1.8841  0.9778
  752MOL0     H 3712   5.986   4.941   6.540 -0.5407 -1.6373 -1.2233
  752MOL0     H 3713   5.911   4.871   6.775 -1.2016 -2.6295  0.2707
  752MOL0     H 3714   5.745   4.925   6.738 -0.5494 -1.2426 -1.3191
  752MOL0     H 3715   5.754   4.697   6.727  2.3284 -2.6427 -0.2466
  752MOL0     H 3716   5.738   4.766   6.573 -0.8322 -0.2256 -0.5811
  752MOL0     H 3717   6.037   4.727   6.656  0.3726  0.8443 -0.1484
  752MOL0     H 3718   5.962   4.689   6.504  2.8039 -1.6124  0.5874
  752MOL0     H 3719   5.916   4.533   6.763 -2.5062  3.3802 -0.4092
  752MOL0     H 3720   5.862   4.491   6.611 -0.6823  1.1644  0.5790
  752MOL0     H 3721   6.111   4.458   6.538  0.1920 -1.0291  0.1278
  752MOL0     H 3722   6.063   4.360   6.688 -0.4394  0.2518  0.0921
  752MOL0     H 3723   6.260   4.590   6.641  4.3135 -1.6740  1.4603
  752MOL0     H 3724   6.166   4.590   6.791  1.2184 -0.1137  0.9789
  752MOL0     H 3725   6.409   4.554   6.918  1.1424 -0.9270  0.0992
  752MOL0     H 3726   6.583   4.225   6.996 -1.4501  0.4861 -1.1913
  752MOL0     H 3727   6.542   4.369   7.082 -0.1373 -1.7613 -0.0291
  752MOL0     H 3728   6.764   4.389   7.032  0.1336  0.3341 -0.5219
  752MOL0     H 3729   6.731   4.351   6.853 -1.0693 -1.3583 -0.7278
  752MOL0     H 3730   6.625   4.562   6.823 -1.1248 -2.9267  0.7219
  752MOL0     H 3731   6.597   4.582   6.992 -0.4538 -0.9780 -0.3120
  752MOL0     H 3732   6.878   4.577   6.848 -0.7854  0.3022 -1.1977
  752MOL0     H 3733   6.808   4.727   6.904  1.9421 -0.4057 -2.7705
  752MOL0     H 3734   6.890   4.533   7.302  0.3070  0.7802  2.2191
  752MOL0     H 3735   6.834   4.694   7.626 -0.9481  0.0935  1.8177
  752MOL0     H 3736   6.887   4.550   7.534 -0.2382 -0.3588 -1.9170
  752MOL0     H 3737   6.718   4.576   7.577  1.5408 -0.1686  0.9497
  752MOL0     H 3738   6.424   5.165   7.433 -2.2978 -0.9670  0.4286
  752MOL0     H 3739   6.304   5.310   7.575 -0.6440 -1.7602  1.5091
  752MOL0     H 3740   6.299   5.496   7.740  1.0165  1.1886  1.2689
  752MOL0     H 3741   6.182   5.370   7.763  0.5272 -0.4063 -0.7727
  752MOL0     H 3742   6.172   5.592   7.895 -0.5855  0.6482  1.6561
  752MOL0     H 3743   6.118   5.442   7.961 -2.0274  2.1262 -1.2478
  752MOL0     H 3744   6.385   5.569   8.035 -1.1025  2.4410  1.3003
  752MOL0     H 3745   6.327   5.424   8.109 -0.3552  1.2928  4.6338
  752MOL0     H 3746   6.127   5.540   8.194  0.3096 -0.8300 -0.9940
  752MOL0     H 3747   6.189   5.693   8.127 -3.2195 -0.4913 -0.1463
  752MOL0     H 3748   6.339   5.514   8.334 -0.8011 -0.2380 -1.6357
  752MOL0     H 3749   6.390   5.676   8.284  0.6332  0.9554  4.2229
  752MOL0     H 3750   6.279   5.642   8.520 -0.5732  1.9348  0.0505
  752MOL0     H 3751   6.142   5.575   8.436  0.5686 -0.2602  2.9166
  752MOL0     H 3752   6.196   5.833   8.314  2.5622 -1.6341  0.5107
  752MOL0     H 3753   6.266   5.861   8.449  1.9708 -1.5019 -1.5737
  752MOL0     H 3754   5.975   5.772   8.454  0.8636 -2.1765  1.7525
  752MOL0     H 3755   6.030   5.933   8.440 -1.2979 -1.1726 -1.0297
  752MOL0     H 3756   6.586   5.194   7.895  0.0825 -0.5323 -0.2163
  752MOL0     H 3757   6.702   5.052   7.732 -1.0918 -0.4781  0.8662
  752MOL0     H 3758   6.649   4.968   7.255  3.4504  2.6742  1.7762
  752MOL0     H 3759   6.751   4.846   7.047  3.7873  1.0759  0.3751
  752MOL0     H 3760   6.177   5.040   6.620  2.3106 -3.0356 -0.6065
  752MOL0     H 3761   6.412   5.025   6.540  2.4414  2.5248 -1.1122
  752MOL0     H 3762   6.818   5.265   6.430 -2.6993  1.7445 -2.5379
  752MOL0     H 3763   7.045   5.201   6.375  4.2867 -1.9106 -5.5621
  752MOL0     H 3764   7.116   4.898   6.024  2.0995 -1.6260  2.0659
  752MOL0     H 3765   7.170   5.055   5.960  1.0469 -0.4043 -0.6255
  752MOL0     H 3766   7.390   5.023   6.070 -1.1039  1.1985 -0.6938
  752MOL0     H 3767   7.346   4.881   5.972 -0.6263  0.9328 -0.5709
  752MOL0     H 3768   7.345   4.914   6.275 -0.6882 -1.0501  0.5569
  752MOL0     H 3769   7.249   4.793   6.203  0.2421 -1.4109  0.5662
  752MOL0     H 3770   7.549   4.829   6.163 -0.0653 -0.5657 -0.7359
  752MOL0     H 3771   7.464   4.677   6.122  0.4631 -1.7750  1.5345
  752MOL0     H 3772   7.583   4.636   6.520  1.0822  1.5084  0.8765
  752MOL0     H 3773   6.920   4.946   6.066 -0.6071  0.6971 -1.5212
  752MOL0     H 3774   6.578   4.930   6.138 -2.5160  1.1474 -1.8160
  752MOL0     H 3775   6.561   5.083   6.074 -0.2235 -0.5953 -0.6982
  752MOL0     H 3776   6.670   4.961   5.999 -1.6469 -0.4018 -0.1496
  753MOL0     O 3777   8.485   9.094   3.360 -0.0470 -0.6036  0.0622
  753MOL0     C 3778   8.444   9.191   3.298  0.6671 -0.4197  0.3028
  753MOL0     O 3779   8.401   9.317   3.350 -1.3640  0.5430 -0.2740
  753MOL0     C 3780   8.461   9.351   3.472  0.5178 -0.5828 -0.1098
  753MOL0     C 3781   8.386   9.375   3.584  0.6291 -0.6035  0.6800
  753MOL0     C 3782   8.434   9.439   3.700  0.0844  0.4713  0.2893
  753MOL0     C 3783   8.574   9.466   3.709  0.0003 -0.2467 -0.4567
  753MOL0     O 3784   8.630   9.514   3.819  0.1134  1.0179 -1.0090
  753MOL0     C 3785   8.567   9.625   3.876  0.3732 -0.6389  0.2425
  753MOL0     C 3786   8.597   9.749   3.790 -0.5006  0.6087 -1.1227
  753MOL0     C 3787   8.483   9.848   3.774  0.5141 -0.6082 -0.2756
  753MOL0     C 3788   8.488   9.960   3.878  0.3203  0.0528 -0.1763
  753MOL0     C 3789   8.503   9.916   4.024  0.7275  0.6299 -0.1399
  753MOL0     C 3790   8.396   9.842   4.089  0.0208  0.1180 -0.8213
  753MOL0     C 3791   8.434   9.813   4.241  0.4710 -0.3160  0.2692
  753MOL0     C 3792   8.344   9.703   4.306 -0.1206 -0.2096 -1.0171
  753MOL0     N 3793   8.356   9.571   4.243 -0.6192 -0.4150  1.0730
  753MOL0     C 3794   8.441   9.471   4.271 -0.1741  0.0198  0.8587
  753MOL0     C 3795   8.402   9.367   4.191  0.2098 -0.2367  1.0364
  753MOL0     C 3796   8.478   9.236   4.167 -0.4158 -0.0575  0.0344
  753MOL0     C 3797   8.580   9.205   4.262 -0.8473  0.0607 -1.4911
  753MOL0     C 3798   8.622   9.056   4.264  0.3923 -0.2462  0.4321
  753MOL0     C 3799   8.708   9.026   4.379 -0.3075  0.1800 -0.3496
  753MOL0     O 3800   8.828   9.095   4.351 -0.0664 -0.9810  0.8768
  753MOL0     C 3801   8.939   9.100   4.438 -0.4017  0.9004  0.8724
  753MOL0     C 3802   9.057   9.167   4.392  0.4742  0.7020  0.0466
  753MOL0     C 3803   9.175   9.189   4.464  0.7190 -0.1253 -0.0827
  753MOL0     C 3804   9.282   9.295   4.420  0.1580  0.5848  0.6436
  753MOL0     C 3805   9.187   9.108   4.586 -0.4355 -0.4352  0.2294
  753MOL0     C 3806   9.320   9.100   4.669  0.6735  0.4600 -1.0651
  753MOL0     O 3807   9.303   9.013   4.769  0.7959 -0.6086  0.5978
  753MOL0     C 3808   9.405   8.998   4.856  0.2913  0.4727 -0.0342
  753MOL0     C 3809   9.427   9.091   4.955  0.1484  0.3471 -0.4274
  753MOL0     C 3810   9.541   9.082   5.036 -0.4554  0.2139  0.4417
  753MOL0     C 3811   9.625   8.969   5.028 -0.5343  0.1236  0.4063
  753MOL0     O 3812   9.738   8.962   5.108 -0.2143  0.0581  0.0052
  753MOL0     C 3813   9.863   8.977   5.041  0.6360  0.0501  0.5276
  753MOL0     C 3814   9.879   9.128   5.018  0.4022  0.7341  0.4271
  753MOL0     C 3815   9.909   9.198   5.156  0.1688 -0.0057 -0.0911
  753MOL0     C 3816   9.930   9.341   5.143  0.2788  0.0760 -0.6404
  753MOL0     C 3817   9.960   9.418   5.274 -0.4003 -1.0335  0.3680
  753MOL0     C 3818   9.858   9.393   5.387 -0.6147  0.2325 -0.1904
  753MOL0     C 3819   9.885   9.474   5.507 -0.2508  0.1813 -0.6501
  753MOL0     C 3820   9.896   9.628   5.466 -0.3189  0.7978  0.7491
  753MOL0    Cl 3821   9.853   9.711   5.617  0.5228 -0.4445  0.1612
  753MOL0     C 3822   9.590   8.868   4.934 -0.7493 -0.2415  0.4742
  753MOL0     C 3823   9.486   8.882   4.847  0.1617  0.8716  0.1553
  753MOL0     O 3824   9.411   9.181   4.656  0.1675  0.1947  0.1364
  753MOL0     C 3825   9.074   9.030   4.624  0.6929 -0.8348  0.0282
  753MOL0     C 3826   8.945   9.034   4.556 -0.3038  0.1148 -0.6511
  753MOL0     N 3827   8.290   9.402   4.122  0.2585  0.3857 -0.3288
  753MOL0     N 3828   8.267   9.522   4.148  0.4451  0.0265 -0.6686
  753MOL0     C 3829   8.658   9.428   3.600  0.2852 -0.5687  0.8057
  753MOL0     C 3830   8.600   9.375   3.481  0.4662 -0.2453 -0.0044
  753MOL0     C 3831   8.409   9.159   3.150 -1.1590 -0.0552 -0.0653
  753MOL0     C 3832   8.324   9.242   3.072  0.0367 -1.1559  0.0940
  753MOL0     C 3833   8.281   9.204   2.936 -0.7822 -0.2931 -0.0003
  753MOL0     C 3834   8.337   9.089   2.883 -0.2551  0.1481  0.3554
  753MOL0     O 3835   8.295   9.041   2.762 -0.5218 -0.0525  0.2601
  753MOL0     C 3836   8.199   8.945   2.771 -0.3389  0.7858 -1.0888
  753MOL0     C 3837   8.171   8.871   2.644  0.3187 -0.6038  0.0775
  753MOL0     C 3838   8.124   8.969   2.537 -0.0870 -0.3342  0.5584
  753MOL0     C 3839   8.122   8.903   2.396  0.9266 -0.2127  0.1781
  753MOL0     C 3840   8.027   8.797   2.384 -0.1824 -0.3079 -0.5373
  753MOL0     C 3841   7.938   8.714   2.385 -0.0415 -0.4645  0.4017
  753MOL0     C 3842   8.430   9.014   2.954  0.2657 -0.7656 -0.4321
  753MOL0     C 3843   8.472   9.046   3.089  0.1575 -0.3751 -0.0157
  753MOL0     C 3844   8.594   8.969   3.135  0.4742  0.1631 -0.4823
  753MOL0     H 3845   8.278   9.374   3.574  0.6280  0.0904  0.5814
  753MOL0     H 3846   8.369   9.458   3.785  0.9549 -0.3745  1.1653
  753MOL0     H 3847   8.623   9.636   3.969  0.9316 -2.2283  0.1186
  753MOL0     H 3848   8.465   9.609   3.911  0.5412  1.2777  1.7973
  753MOL0     H 3849   8.680   9.796   3.844 -0.1657 -1.5732  0.4042
  753MOL0     H 3850   8.631   9.720   3.690 -1.4266 -3.3518 -0.4754
  753MOL0     H 3851   8.485   9.879   3.669 -0.9167 -4.2481 -1.5670
  753MOL0     H 3852   8.390   9.796   3.798 -0.3041  0.8333 -0.2105
  753MOL0     H 3853   8.580  10.014   3.854  1.3309 -1.6262 -0.1944
  753MOL0     H 3854   8.398  10.022   3.873  0.2775  0.1543  1.3129
  753MOL0     H 3855   8.523  10.007   4.081 -0.1975 -0.9079  2.8462
  753MOL0     H 3856   8.590   9.850   4.029  0.5190  0.3946  0.5532
  753MOL0     H 3857   8.301   9.896   4.097  0.5714  1.5339 -3.0786
  753MOL0     H 3858   8.369   9.753   4.031  0.2708 -1.2039  0.9922
  753MOL0     H 3859   8.421   9.902   4.303 -3.0874  0.4975 -1.3648
  753MOL0     H 3860   8.539   9.784   4.252  0.4405 -1.6965 -2.3922
  753MOL0     H 3861   8.350   9.686   4.414 -1.4471 -1.1349 -1.0777
  753MOL0     H 3862   8.244   9.745   4.295  0.1193  2.0456  3.2273
  753MOL0     H 3863   8.514   9.469   4.352  0.3152 -2.4800  0.4341
  753MOL0     H 3864   8.536   9.262   4.078  2.3764 -0.4103  1.6555
  753MOL0     H 3865   8.421   9.147   4.136 -0.2615  0.5025 -2.0075
  753MOL0     H 3866   8.674   9.252   4.232  1.0577 -1.1609  1.9497
  753MOL0     H 3867   8.549   9.236   4.363  3.0136  0.2966 -0.2314
  753MOL0     H 3868   8.539   8.984   4.267 -0.8683  1.1703  2.5436
  753MOL0     H 3869   8.681   9.035   4.175  0.7196 -1.9963  1.0176
  753MOL0     H 3870   8.663   9.060   4.473 -1.3379 -0.6870 -0.5107
  753MOL0     H 3871   8.719   8.917   4.390 -0.2796  0.2585  0.5084
  753MOL0     H 3872   9.043   9.217   4.296  1.5897  2.5053  0.7642
  753MOL0     H 3873   9.285   9.361   4.508 -1.2649 -0.5787  1.6086
  753MOL0     H 3874   9.247   9.334   4.324  5.3494 -1.6923 -2.6404
  753MOL0     H 3875   9.377   9.244   4.402  0.9310 -0.1104  5.3665
  753MOL0     H 3876   9.353   9.171   4.956 -2.1896 -1.6673 -1.6446
  753MOL0     H 3877   9.570   9.163   5.102 -1.0471  2.1378 -1.5373
  753MOL0     H 3878   9.948   8.936   5.096  3.1233  4.2310  0.3104
  753MOL0     H 3879   9.848   8.930   4.944  0.1259 -2.1721  1.6366
  753MOL0     H 3880   9.959   9.140   4.944 -0.5837 -1.2570 -1.0408
  753MOL0     H 3881   9.787   9.156   4.966  0.0896 -1.4309 -0.2797
  753MOL0     H 3882   9.995   9.149   5.203  0.5738  0.4585 -0.3421
  753MOL0     H 3883   9.828   9.176   5.226  1.0314 -1.9075  0.3832
  753MOL0     H 3884   9.843   9.392   5.099  0.3007  2.0278  1.4441
  753MOL0     H 3885  10.007   9.361   5.067  0.0910  3.6100 -0.0935
  753MOL0     H 3886  10.053   9.380   5.319  0.3633  0.2778 -0.0433
  753MOL0     H 3887   9.972   9.521   5.240 -0.6346 -1.0825  0.1328
  753MOL0     H 3888   9.856   9.289   5.419 -0.7769  0.0459 -0.7878
  753MOL0     H 3889   9.757   9.404   5.345 -0.4908 -2.7053 -1.5018
  753MOL0     H 3890   9.982   9.448   5.551  0.2158  0.2607 -1.6192
  753MOL0     H 3891   9.806   9.468   5.583  0.5702  1.0135  0.3139
  753MOL0     H 3892   9.828   9.654   5.385  2.5305  0.7601 -1.8183
  753MOL0     H 3893   9.999   9.642   5.433 -0.1736 -0.4382  0.6166
  753MOL0     H 3894   9.638   8.771   4.926 -4.1499 -1.8848 -3.2043
  753MOL0     H 3895   9.470   8.797   4.781  1.9729  0.6306 -0.0394
  753MOL0     H 3896   9.076   8.972   4.716 -0.5397 -0.8897  0.0315
  753MOL0     H 3897   8.868   8.965   4.589 -0.3744  0.6611  0.3502
  753MOL0     H 3898   8.759   9.470   3.601 -1.1717  3.5263 -1.2223
  753MOL0     H 3899   8.659   9.360   3.391 -2.5764  0.2658 -2.2564
  753MOL0     H 3900   8.292   9.337   3.114 -0.0813 -0.7534 -0.8607
  753MOL0     H 3901   8.211   9.258   2.874  0.7684  1.3307 -0.4231
  753MOL0     H 3902   8.235   8.879   2.851  2.1904  2.4462 -0.7330
  753MOL0     H 3903   8.111   9.004   2.797 -1.3679 -1.6582  1.5772
  753MOL0     H 3904   8.090   8.798   2.654  1.3732 -1.9132 -0.6693
  753MOL0     H 3905   8.271   8.830   2.627  1.6937  1.6088  2.1388
  753MOL0     H 3906   8.025   9.007   2.561 -0.2528  0.9909 -1.8690
  753MOL0     H 3907   8.195   9.051   2.536 -1.6216  1.0830 -1.7549
  753MOL0     H 3908   8.225   8.870   2.383  0.9694  0.7677 -2.4729
  753MOL0     H 3909   8.097   8.979   2.321 -2.4830  0.6404  1.9445
  753MOL0     H 3910   7.855   8.646   2.378 -0.2541 -0.1641 -0.0457
  753MOL0     H 3911   8.467   8.929   2.898  2.2146 -0.9284  0.9745
  753MOL0     H 3912   8.550   8.885   3.190  0.7791 -0.0192 -0.5180
  753MOL0     H 3913   8.657   8.924   3.058  0.6837 -0.9273  0.2971
  753MOL0     H 3914   8.656   9.019   3.209 -2.1846 -0.8404  2.7031
  754MOL0     O 3915   9.568   7.618   9.843  0.0206 -0.4665  0.2694
  754MOL0     C 3916   9.640   7.629   9.936 -0.1416 -0.3646 -0.6625
  754MOL0     O 3917   9.769   7.673   9.930 -0.7338  0.4076 -0.8397
  754MOL0     C 3918   9.826   7.708   9.816  0.6305 -0.4933 -0.3061
  754MOL0     C 3919   9.921   7.625   9.749  0.0192  0.2606  1.0817
  754MOL0     C 3920   9.999   7.685   9.647  1.1822 -0.0804 -0.1465
  754MOL0     C 3921   9.963   7.816   9.598 -0.3218  0.1977  1.7116
  754MOL0     O 3922  10.019   7.853   9.478  0.0914  0.8618 -0.8349
  754MOL0     C 3923  10.030   7.993   9.443 -0.6938  1.2304  0.5793
  754MOL0     C 3924  10.106   8.082   9.548 -0.4539 -0.4978  0.4184
  754MOL0     C 3925  10.089   8.231   9.498  0.3848 -0.1835 -0.4308
  754MOL0     C 3926  10.204   8.325   9.544 -0.3092 -0.3749  0.0481
  754MOL0     C 3927  10.184   8.471   9.513 -0.3293 -0.0050  0.1366
  754MOL0     C 3928  10.311   8.555   9.550  0.3025  0.5629  0.0636
  754MOL0     C 3929  10.267   8.703   9.560 -0.0263 -0.5700  0.1880
  754MOL0     C 3930  10.381   8.806   9.601 -0.4086  0.0833 -0.3399
  754MOL0     N 3931  10.372   8.937   9.546 -0.2972 -0.4245  0.1366
  754MOL0     C 3932  10.401   8.973   9.420  0.2174 -0.3581  0.2165
  754MOL0     C 3933  10.391   9.111   9.423  0.0330 -0.7776 -0.5649
  754MOL0     C 3934  10.395   9.203   9.302 -0.1381  0.2505  0.1218
  754MOL0     C 3935  10.522   9.191   9.228  1.2852 -0.2921  1.2708
  754MOL0     C 3936  10.646   9.236   9.298 -0.4096 -0.0664 -1.0458
  754MOL0     C 3937  10.772   9.268   9.212  0.4730  0.9158  0.3261
  754MOL0     O 3938  10.818   9.148   9.137 -0.0622  0.0187  0.4109
  754MOL0     C 3939  10.916   9.160   9.044 -0.0340 -0.2753  0.3334
  754MOL0     C 3940  11.023   9.075   9.036  0.3168 -0.4101  0.5644
  754MOL0     C 3941  11.133   9.082   8.950 -0.4160 -0.4246  0.2738
  754MOL0     C 3942  11.253   8.983   8.963  0.3735 -0.2681  0.2886
  754MOL0     C 3943  11.124   9.175   8.841 -0.2075  0.2991  0.3722
  754MOL0     C 3944  11.234   9.196   8.738  0.6888 -0.7740 -0.1669
  754MOL0     O 3945  11.364   9.168   8.770  0.1722 -0.2999 -0.0373
  754MOL0     C 3946  11.450   9.140   8.664  0.5138 -0.3373  0.5888
  754MOL0     C 3947  11.543   9.227   8.625  0.5675 -0.6284 -0.1063
  754MOL0     C 3948  11.647   9.186   8.533  0.0734 -0.8336 -0.2124
  754MOL0     C 3949  11.646   9.054   8.480 -0.5074 -0.0777 -0.6595
  754MOL0     O 3950  11.752   8.998   8.414 -0.4991 -0.4494  0.1732
  754MOL0     C 3951  11.875   8.969   8.488 -0.3748 -0.8773  0.3042
  754MOL0     C 3952  11.968   9.095   8.472 -0.2074  0.0882  0.0557
  754MOL0     C 3953  11.999   9.130   8.324 -0.7996  0.3806 -1.1840
  754MOL0     C 3954  12.097   9.245   8.294 -0.2069  0.2346 -0.0082
  754MOL0     C 3955  12.152   9.268   8.149 -0.1509 -0.3398  0.7967
  754MOL0     C 3956  12.031   9.293   8.054  0.4376  0.3223  0.1160
  754MOL0     C 3957  12.082   9.341   7.908 -0.3131  0.0529  0.2953
  754MOL0     C 3958  12.151   9.233   7.820 -0.1690  0.8434 -0.3789
  754MOL0    Cl 3959  12.071   9.221   7.669 -0.0442 -0.2237  0.3479
  754MOL0     C 3960  11.545   8.964   8.524 -0.5928 -0.5624  0.2366
  754MOL0     C 3961  11.442   9.012   8.603 -0.1791 -0.4770  0.1968
  754MOL0     O 3962  11.199   9.260   8.640  0.0552  0.0417 -0.6288
  754MOL0     C 3963  11.009   9.257   8.835  1.0369 -0.2397  0.0160
  754MOL0     C 3964  10.906   9.255   8.935 -0.0896  0.4403  0.5269
  754MOL0     N 3965  10.343   9.147   9.546 -0.6959 -0.1881 -0.0666
  754MOL0     N 3966  10.346   9.045   9.625 -0.2622 -0.2543 -0.0608
  754MOL0     C 3967   9.870   7.893   9.661 -0.1718 -0.3659 -0.7701
  754MOL0     C 3968   9.802   7.839   9.771  0.4924  0.0714  0.5664
  754MOL0     C 3969   9.584   7.582  10.054 -0.8692  0.2934  0.4203
  754MOL0     C 3970   9.498   7.468  10.044  0.1602 -1.1597  0.3780
  754MOL0     C 3971   9.450   7.395  10.154  0.3988 -0.5709 -0.6459
  754MOL0     C 3972   9.490   7.432  10.284 -0.0150  0.1738  0.0199
  754MOL0     O 3973   9.441   7.378  10.405 -0.4704 -0.0866 -0.9262
  754MOL0     C 3974   9.323   7.291  10.396 -1.4255  0.3610  0.1948
  754MOL0     C 3975   9.195   7.377  10.368  0.7912 -0.1258 -0.6316
  754MOL0     C 3976   9.171   7.484  10.478 -0.0031 -0.4853 -0.0593
  754MOL0     C 3977   9.041   7.464  10.547  0.0919 -0.0220  0.2891
  754MOL0     C 3978   9.039   7.348  10.634  0.1970 -0.1512 -1.3160
  754MOL0     C 3979   9.025   7.252  10.710 -0.1958 -0.2317 -0.6236
  754MOL0     C 3980   9.571   7.540  10.297 -0.3496  0.2592  1.1180
  754MOL0     C 3981   9.621   7.613  10.186 -0.1714  0.1051 -0.0981
  754MOL0     C 3982   9.719   7.723  10.213  0.2143  0.4487  0.0080
  754MOL0     H 3983   9.925   7.518   9.768 -0.9199  0.6586  4.0112
  754MOL0     H 3984  10.076   7.629   9.596  1.1373 -0.9740  0.7214
  754MOL0     H 3985   9.935   8.040   9.417 -1.4701  0.1313  1.3487
  754MOL0     H 3986  10.103   7.989   9.362 -1.0133 -1.7064  0.3552
  754MOL0     H 3987  10.054   8.059   9.642 -0.7644 -3.2009 -0.3370
  754MOL0     H 3988  10.211   8.052   9.561 -0.2834  0.2780  0.9151
  754MOL0     H 3989  10.103   8.215   9.391  4.1822  0.1440 -0.1116
  754MOL0     H 3990   9.993   8.272   9.531  2.5052  2.6400  2.9045
  754MOL0     H 3991  10.210   8.322   9.653  0.0434  1.0771  0.0795
  754MOL0     H 3992  10.299   8.296   9.500  1.7314 -0.5866  4.0994
  754MOL0     H 3993  10.097   8.498   9.573  1.3049  2.2172  1.7266
  754MOL0     H 3994  10.153   8.480   9.409  0.9930 -1.9714 -0.4803
  754MOL0     H 3995  10.365   8.517   9.637  0.1389 -1.4651 -0.6641
  754MOL0     H 3996  10.381   8.543   9.467  0.3125  1.1924 -0.0262
  754MOL0     H 3997  10.198   8.722   9.643  0.0120 -0.6648  0.2424
  754MOL0     H 3998  10.226   8.737   9.465 -1.3532 -2.8705 -0.1447
  754MOL0     H 3999  10.396   8.810   9.709  0.9831  1.1343 -0.5412
  754MOL0     H 4000  10.476   8.770   9.558  0.0134  0.1540  0.5138
  754MOL0     H 4001  10.427   8.916   9.332 -0.1608 -0.3532  0.0962
  754MOL0     H 4002  10.371   9.307   9.326 -0.7767  0.6084 -1.8890
  754MOL0     H 4003  10.321   9.167   9.230 -0.4469 -0.2294  0.6645
  754MOL0     H 4004  10.526   9.086   9.196 -2.2622  0.1246 -1.0424
  754MOL0     H 4005  10.505   9.254   9.140 -2.0635 -0.0314  1.9896
  754MOL0     H 4006  10.624   9.333   9.343 -0.9334 -0.9131  0.5745
  754MOL0     H 4007  10.681   9.172   9.379 -2.1348  0.0623 -0.1688
  754MOL0     H 4008  10.741   9.354   9.152 -2.5532 -0.7835 -0.7556
  754MOL0     H 4009  10.841   9.299   9.290 -0.8865  0.1757  1.8906
  754MOL0     H 4010  11.012   8.992   9.105 -5.1305 -1.2648 -0.8433
  754MOL0     H 4011  11.237   8.905   9.039  1.1584 -1.9354 -1.1870
  754MOL0     H 4012  11.346   9.029   8.995  1.4139 -1.6552 -0.6162
  754MOL0     H 4013  11.273   8.928   8.871 -0.3678  1.4944 -0.9792
  754MOL0     H 4014  11.541   9.324   8.673  0.0154  1.5821 -4.1776
  754MOL0     H 4015  11.728   9.250   8.500  0.1578 -0.2264  1.0999
  754MOL0     H 4016  11.849   8.944   8.591  1.0338 -1.1076  0.6271
  754MOL0     H 4017  11.927   8.883   8.445 -2.7633 -1.9328 -0.6768
  754MOL0     H 4018  11.920   9.175   8.528 -2.1599 -2.0019  1.5547
  754MOL0     H 4019  12.064   9.088   8.525 -0.9701  1.2353  1.6530
  754MOL0     H 4020  11.901   9.139   8.277 -1.0414 -2.1340 -1.3042
  754MOL0     H 4021  12.053   9.048   8.274  2.0179  0.9924  0.6218
  754MOL0     H 4022  12.184   9.223   8.357 -0.3002 -0.2142 -0.0380
  754MOL0     H 4023  12.052   9.340   8.323  1.7079  1.1275  0.2142
  754MOL0     H 4024  12.209   9.362   8.153 -0.8892  0.1161  0.8397
  754MOL0     H 4025  12.219   9.189   8.115  0.8256  1.6401 -2.3377
  754MOL0     H 4026  11.982   9.379   8.099  0.4277 -0.2790  1.2828
  754MOL0     H 4027  11.962   9.212   8.029  0.5685  0.1859  0.2040
  754MOL0     H 4028  12.162   9.415   7.921  0.7823 -1.3449  1.7468
  754MOL0     H 4029  11.992   9.386   7.865 -0.1655  0.1137  0.0435
  754MOL0     H 4030  12.138   9.133   7.861  2.2704  0.3730 -0.6039
  754MOL0     H 4031  12.257   9.252   7.804  0.0018  0.7097  0.5498
  754MOL0     H 4032  11.542   8.856   8.509  0.7886 -0.4331 -1.2861
  754MOL0     H 4033  11.382   8.933   8.647  1.1997 -2.3516 -1.1231
  754MOL0     H 4034  10.989   9.332   8.760  0.3274  1.0725  1.4577
  754MOL0     H 4035  10.816   9.313   8.916 -0.0238  0.1047 -0.9951
  754MOL0     H 4036   9.826   7.989   9.635 -0.6025 -0.4916 -0.5301
  754MOL0     H 4037   9.715   7.892   9.808 -1.2359 -1.9748 -0.3506
  754MOL0     H 4038   9.491   7.424   9.945  3.8957  1.8221 -1.4992
  754MOL0     H 4039   9.384   7.312  10.132 -1.4714  1.0594 -1.4457
  754MOL0     H 4040   9.342   7.210  10.325  2.6009  2.4211 -1.4256
  754MOL0     H 4041   9.313   7.244  10.495  2.8520 -1.2955  0.0382
  754MOL0     H 4042   9.113   7.304  10.369  1.3123 -0.7197 -0.4315
  754MOL0     H 4043   9.201   7.427  10.271  0.6514 -1.7440 -1.5090
  754MOL0     H 4044   9.258   7.485  10.544  0.3389 -0.2960 -0.5069
  754MOL0     H 4045   9.167   7.583  10.432 -0.4613 -1.1150 -1.4402
  754MOL0     H 4046   8.964   7.463  10.469  0.0484 -4.7099  0.0771
  754MOL0     H 4047   9.029   7.550  10.612  5.4093 -1.4176  3.8070
  754MOL0     H 4048   9.011   7.160  10.762 -0.9094 -0.2850 -0.8966
  754MOL0     H 4049   9.597   7.572  10.398 -2.7974  1.2840  1.5030
  754MOL0     H 4050   9.816   7.700  10.168 -0.6855  1.0495 -2.3392
  754MOL0     H 4051   9.671   7.814  10.176 -1.2192 -0.3265 -0.1028
  754MOL0     H 4052   9.721   7.736  10.322  1.1423 -0.0762  0.0651
  755MOL0     O 4053   6.081   1.208   4.800 -0.6211 -0.2232  0.5136
  755MOL0     C 4054   6.114   1.117   4.723 -0.4011 -0.5284 -0.4099
  755MOL0     O 4055   6.047   0.993   4.715  0.3449  0.2332  0.6862
  755MOL0     C 4056   5.957   0.956   4.822 -0.7668  1.2783 -0.2847
  755MOL0     C 4057   5.973   0.997   4.963 -0.2868 -1.2846  0.0447
  755MOL0     C 4058   5.892   0.940   5.059  0.0975  1.1385  0.8724
  755MOL0     C 4059   5.780   0.857   5.019 -0.0996 -0.6951 -0.5166
  755MOL0     O 4060   5.699   0.800   5.120 -0.8760  0.2637 -0.3568
  755MOL0     C 4061   5.631   0.897   5.191  0.6958  0.6420 -0.7638
  755MOL0     C 4062   5.544   0.822   5.300 -0.5239  0.5687 -0.1818
  755MOL0     C 4063   5.640   0.763   5.409  0.5416 -0.2723  1.4897
  755MOL0     C 4064   5.543   0.690   5.508 -0.5670 -0.6306  0.6198
  755MOL0     C 4065   5.592   0.662   5.648  0.0680  0.1771  0.5297
  755MOL0     C 4066   5.484   0.571   5.712 -0.2219  0.1623 -0.0106
  755MOL0     C 4067   5.532   0.532   5.845 -0.5533  0.4755  1.6010
  755MOL0     C 4068   5.417   0.474   5.917  0.8691 -0.4470 -0.3174
  755MOL0     N 4069   5.358   0.564   6.011 -0.0568 -0.0146  0.6150
  755MOL0     C 4070   5.427   0.636   6.110  0.0560 -0.4571  0.8423
  755MOL0     C 4071   5.329   0.689   6.199 -0.0149 -0.7386  0.5935
  755MOL0     C 4072   5.357   0.765   6.327 -0.4015 -0.4749  0.3538
  755MOL0     C 4073   5.228   0.838   6.377 -0.1068  0.5236  0.3543
  755MOL0     C 4074   5.252   0.901   6.521  0.5183 -0.5148  1.1805
  755MOL0     C 4075   5.114   0.964   6.570 -0.7118  0.1312  0.3566
  755MOL0     O 4076   5.007   0.865   6.566  0.3891 -0.1707 -0.5942
  755MOL0     C 4077   5.014   0.758   6.648  0.0517  0.0382 -0.0082
  755MOL0     C 4078   5.069   0.770   6.784 -0.2416 -0.0724 -0.4643
  755MOL0     C 4079   5.097   0.656   6.860  0.0969 -0.2642  0.4570
  755MOL0     C 4080   5.175   0.680   6.990  0.8751 -1.0604 -0.4274
  755MOL0     C 4081   5.067   0.524   6.806  0.1401 -0.3240 -0.1097
  755MOL0     C 4082   5.079   0.404   6.879  0.2319 -0.3433 -0.9285
  755MOL0     O 4083   4.993   0.297   6.841 -0.3534  0.1440 -0.2815
  755MOL0     C 4084   4.987   0.192   6.926 -0.4261  0.2014 -0.5924
  755MOL0     C 4085   5.104   0.122   6.977 -0.0609  0.8622 -0.1984
  755MOL0     C 4086   5.086   0.014   7.066 -1.6816 -0.7088 -0.0442
  755MOL0     C 4087   4.959  -0.023   7.107 -0.1636  0.4880 -0.5321
  755MOL0     O 4088   4.956  -0.142   7.179 -1.1354 -0.1864  0.3301
  755MOL0     C 4089   4.953  -0.112   7.322 -0.0662  0.3110  0.4263
  755MOL0     C 4090   4.883  -0.219   7.408 -0.2859  0.5728  0.8451
  755MOL0     C 4091   4.744  -0.239   7.369  0.7424 -0.1532 -0.8179
  755MOL0     C 4092   4.657  -0.108   7.393  0.2080 -0.8501 -0.0368
  755MOL0     C 4093   4.502  -0.150   7.391  0.5283 -0.2800  0.6678
  755MOL0     C 4094   4.420  -0.019   7.408 -0.1172  0.7302 -0.3155
  755MOL0     C 4095   4.267  -0.042   7.405  0.5923  0.5294  0.6993
  755MOL0     C 4096   4.178   0.088   7.433 -0.9127  0.0575 -0.7848
  755MOL0    Cl 4097   4.169   0.194   7.294 -0.0363  0.6140 -0.2485
  755MOL0     C 4098   4.841   0.048   7.056 -0.0678 -0.4310 -0.3833
  755MOL0     C 4099   4.862   0.155   6.971 -0.0053  0.3480  1.6055
  755MOL0     O 4100   5.159   0.398   6.970  0.0596  0.6206 -0.7517
  755MOL0     C 4101   5.006   0.517   6.679 -0.6072 -0.6644  0.5004
  755MOL0     C 4102   4.981   0.630   6.598 -0.7046  0.0475  0.8833
  755MOL0     N 4103   5.205   0.646   6.143 -0.0021 -0.4187 -0.0729
  755MOL0     N 4104   5.223   0.567   6.040 -0.0973  0.2803 -0.3561
  755MOL0     C 4105   5.756   0.818   4.887 -0.0502  0.1047  0.4960
  755MOL0     C 4106   5.853   0.864   4.790  0.0615  0.3095  0.3581
  755MOL0     C 4107   6.220   1.147   4.620 -0.7130 -0.2342  0.6373
  755MOL0     C 4108   6.266   1.283   4.619 -0.8388  0.1432  0.4384
  755MOL0     C 4109   6.370   1.324   4.534  0.2720 -0.0519 -0.0234
  755MOL0     C 4110   6.424   1.235   4.439 -1.0214 -0.7531 -0.1312
  755MOL0     O 4111   6.521   1.271   4.346 -0.2819 -0.3475 -0.6442
  755MOL0     C 4112   6.631   1.358   4.385 -0.5184  1.0258  0.1521
  755MOL0     C 4113   6.746   1.354   4.297  0.5576  0.1002 -0.2164
  755MOL0     C 4114   6.732   1.437   4.157 -0.5662  0.8352  0.2117
  755MOL0     C 4115   6.878   1.455   4.092 -0.1152  0.2549 -0.3567
  755MOL0     C 4116   6.859   1.541   3.977  0.5662 -0.7170 -0.1363
  755MOL0     C 4117   6.819   1.617   3.894 -0.2490  0.0263 -0.0906
  755MOL0     C 4118   6.368   1.105   4.426  0.3021  0.7463  0.2766
  755MOL0     C 4119   6.264   1.058   4.514  0.4092  0.2874 -1.1621
  755MOL0     C 4120   6.226   0.913   4.500 -0.0033 -0.2699  0.4043
  755MOL0     H 4121   6.060   1.049   5.000  1.1970 -1.1837 -3.2328
  755MOL0     H 4122   5.902   0.948   5.167 -1.4333 -0.4225  1.1863
  755MOL0     H 4123   5.556   0.948   5.129  1.5225  1.7713 -0.8553
  755MOL0     H 4124   5.703   0.967   5.234  2.2481 -1.8573  0.9149
  755MOL0     H 4125   5.472   0.889   5.348  2.2573  1.4439  3.2197
  755MOL0     H 4126   5.493   0.741   5.248  0.2322 -1.1992  1.6917
  755MOL0     H 4127   5.708   0.691   5.363  0.3665  0.2352  0.4047
  755MOL0     H 4128   5.707   0.837   5.454 -1.0287  2.4333 -0.3544
  755MOL0     H 4129   5.458   0.758   5.518  1.3765  2.0300  0.2530
  755MOL0     H 4130   5.509   0.602   5.452 -2.0500  1.7128 -2.4286
  755MOL0     H 4131   5.595   0.758   5.699 -2.8099  1.0111 -0.6892
  755MOL0     H 4132   5.690   0.614   5.646  0.3191  0.4596  3.0617
  755MOL0     H 4133   5.388   0.624   5.721 -1.4226 -2.0477  0.9568
  755MOL0     H 4134   5.467   0.481   5.652  0.3561 -1.4167  2.0824
  755MOL0     H 4135   5.592   0.606   5.900 -0.1193  0.3900  1.2543
  755MOL0     H 4136   5.615   0.463   5.828  3.0157  5.0346 -2.2434
  755MOL0     H 4137   5.336   0.435   5.855 -0.9238  1.5580  0.6676
  755MOL0     H 4138   5.462   0.394   5.977  0.8908  1.7542  2.8290
  755MOL0     H 4139   5.535   0.645   6.119  0.0312 -0.5234  1.2245
  755MOL0     H 4140   5.430   0.845   6.308 -0.4827 -0.9311 -2.2430
  755MOL0     H 4141   5.392   0.698   6.406 -2.0087  1.3070  2.7398
  755MOL0     H 4142   5.198   0.912   6.302  2.0595 -0.2482 -1.3805
  755MOL0     H 4143   5.155   0.757   6.386  0.6499 -0.5052 -2.0570
  755MOL0     H 4144   5.300   0.834   6.593  1.6597 -2.8114 -1.5771
  755MOL0     H 4145   5.324   0.984   6.522  0.1297 -0.1285 -0.4135
  755MOL0     H 4146   5.142   1.008   6.666 -0.1972 -0.0918  0.3134
  755MOL0     H 4147   5.080   1.050   6.511  1.9115  1.0864  0.1135
  755MOL0     H 4148   5.085   0.866   6.833  5.0199 -1.5085  1.3323
  755MOL0     H 4149   5.142   0.614   7.070 -0.9318  0.0191 -0.2192
  755MOL0     H 4150   5.153   0.784   7.015 -0.0661 -1.0629 -1.1945
  755MOL0     H 4151   5.284   0.671   6.983  1.0096  0.2809 -0.4898
  755MOL0     H 4152   5.205   0.139   6.941  0.7140  1.6473  2.1777
  755MOL0     H 4153   5.173  -0.049   7.082 -2.4104 -2.2015 -1.6350
  755MOL0     H 4154   5.054  -0.094   7.362 -0.0346 -0.9564  0.9842
  755MOL0     H 4155   4.883  -0.029   7.333 -2.0318 -1.0367 -1.1674
  755MOL0     H 4156   4.939  -0.314   7.408 -0.3052  0.5160  2.5598
  755MOL0     H 4157   4.889  -0.188   7.513  4.4301 -5.9519  3.2478
  755MOL0     H 4158   4.698  -0.320   7.427  0.4180 -0.6976 -1.8131
  755MOL0     H 4159   4.737  -0.272   7.265  2.6790  3.3414 -2.1984
  755MOL0     H 4160   4.675  -0.036   7.312  2.4192 -0.1666  0.9872
  755MOL0     H 4161   4.677  -0.065   7.492 -0.2460 -3.4266  1.2564
  755MOL0     H 4162   4.470  -0.195   7.296 -1.6355 -0.4259  1.3941
  755MOL0     H 4163   4.482  -0.211   7.479  0.4643 -1.9250 -0.4335
  755MOL0     H 4164   4.451   0.045   7.324  0.3172 -0.9069 -1.4482
  755MOL0     H 4165   4.439   0.031   7.503  1.5717  1.4736 -0.9907
  755MOL0     H 4166   4.242  -0.120   7.478 -0.0985  1.8083  1.8717
  755MOL0     H 4167   4.225  -0.088   7.315 -3.0026  1.7141  1.6060
  755MOL0     H 4168   4.216   0.147   7.516  0.7062  0.1686 -1.5510
  755MOL0     H 4169   4.073   0.059   7.445 -1.0429  0.6537 -0.4636
  755MOL0     H 4170   4.738   0.016   7.070  0.2915 -1.6924 -0.5284
  755MOL0     H 4171   4.774   0.202   6.927 -0.9696 -1.9703  0.8946
  755MOL0     H 4172   4.995   0.415   6.643  5.2025 -1.3057 -0.4308
  755MOL0     H 4173   4.943   0.603   6.500  0.1214  0.5228  0.4277
  755MOL0     H 4174   5.680   0.749   4.853 -0.9279  2.3133 -2.3772
  755MOL0     H 4175   5.850   0.832   4.686  1.4106 -0.5575  0.5555
  755MOL0     H 4176   6.235   1.355   4.694  0.0650  0.7429  0.2446
  755MOL0     H 4177   6.412   1.419   4.566  2.7787  0.3164 -3.8484
  755MOL0     H 4178   6.598   1.462   4.392 -0.1706  1.1491 -0.0167
  755MOL0     H 4179   6.666   1.317   4.480  0.8536 -0.4990 -0.9453
  755MOL0     H 4180   6.765   1.249   4.271  2.1799 -0.1821  1.8014
  755MOL0     H 4181   6.838   1.391   4.342  1.1481 -0.7522 -0.6740
  755MOL0     H 4182   6.662   1.386   4.089 -0.0322  1.3364 -0.7367
  755MOL0     H 4183   6.688   1.535   4.180 -1.0155  1.6825 -3.5542
  755MOL0     H 4184   6.925   1.366   4.048  1.9611  1.0223  0.1999
  755MOL0     H 4185   6.951   1.501   4.159  0.7969  0.2915 -1.3392
  755MOL0     H 4186   6.790   1.680   3.813 -1.0418 -1.9294 -1.4292
  755MOL0     H 4187   6.399   1.047   4.340 -0.3181 -0.7655  1.0377
  755MOL0     H 4188   6.123   0.904   4.464  0.0180 -1.1192  0.5363
  755MOL0     H 4189   6.301   0.854   4.446  2.4067  2.0279  1.0599
  755MOL0     H 4190   6.217   0.863   4.597 -0.0570 -1.7522 -0.3351
  756MOL0     O 4191   5.516   4.467   2.980 -0.0553  0.7694 -0.3821
  756MOL0     C 4192   5.411   4.401   2.990  0.4584  0.0580 -0.1794
  756MOL0     O 4193   5.318   4.420   3.081  0.2968  0.1089  0.1590
  756MOL0     C 4194   5.361   4.478   3.198 -0.2762  0.0322  0.7246
  756MOL0     C 4195   5.310   4.600   3.240 -0.0732 -0.0869 -0.5241
  756MOL0     C 4196   5.361   4.657   3.361 -0.9499 -0.2428  0.4554
  756MOL0     C 4197   5.474   4.608   3.430  1.3476  0.9404  0.3290
  756MOL0     O 4198   5.523   4.672   3.537  0.5232  0.0809 -0.7094
  756MOL0     C 4199   5.649   4.656   3.600  0.3617  0.3614  0.6288
  756MOL0     C 4200   5.627   4.644   3.749 -0.3186  0.3079 -0.0096
  756MOL0     C 4201   5.759   4.640   3.825 -0.4508 -0.6968 -0.1384
  756MOL0     C 4202   5.843   4.766   3.798  0.1243  0.4720 -0.6965
  756MOL0     C 4203   5.966   4.772   3.882 -0.2801 -0.2349  0.4468
  756MOL0     C 4204   5.949   4.781   4.041  0.3896 -0.3206  0.9322
  756MOL0     C 4205   6.081   4.817   4.116  0.2627  0.3302  0.2650
  756MOL0     C 4206   6.055   4.898   4.251  0.6027  0.6845  0.6258
  756MOL0     N 4207   6.182   4.903   4.316  0.2332  0.3126  0.0386
  756MOL0     C 4208   6.310   4.918   4.261 -0.4631 -0.1829  1.0028
  756MOL0     C 4209   6.398   4.890   4.351 -0.6529 -0.7213  0.9139
  756MOL0     C 4210   6.549   4.909   4.337 -0.2198 -0.6395  0.0428
  756MOL0     C 4211   6.603   4.806   4.243  0.1697 -0.4108  1.1391
  756MOL0     C 4212   6.642   4.675   4.313 -0.9775  0.1153 -0.2361
  756MOL0     C 4213   6.733   4.705   4.434  0.5843 -0.5013  0.7146
  756MOL0     O 4214   6.850   4.794   4.407 -0.0187  0.1820  0.5588
  756MOL0     C 4215   6.945   4.824   4.499 -0.1533  0.1552 -0.9071
  756MOL0     C 4216   7.063   4.883   4.453 -1.1664  0.3014 -1.4292
  756MOL0     C 4217   7.177   4.908   4.531 -0.4403  0.0967  0.6317
  756MOL0     C 4218   7.284   4.988   4.472  0.5536  0.0634 -0.4783
  756MOL0     C 4219   7.172   4.850   4.658  0.6525  0.2440 -0.6978
  756MOL0     C 4220   7.288   4.842   4.749  0.2441  0.1330  0.0567
  756MOL0     O 4221   7.277   4.745   4.856  1.1137  0.3142 -0.3593
  756MOL0     C 4222   7.391   4.706   4.919 -0.9968  0.0570 -0.8043
  756MOL0     C 4223   7.461   4.788   5.004 -0.8350 -0.2184  0.9735
  756MOL0     C 4224   7.561   4.738   5.086 -0.7952 -0.3395  0.4290
  756MOL0     C 4225   7.604   4.608   5.061  0.2246 -0.4429 -0.1509
  756MOL0     O 4226   7.714   4.574   5.129 -0.4169  0.2813 -0.4215
  756MOL0     C 4227   7.807   4.485   5.060 -0.0044  0.3588  0.0242
  756MOL0     C 4228   7.926   4.452   5.148 -0.6197 -0.2365 -0.4566
  756MOL0     C 4229   8.004   4.327   5.098  0.2078 -0.4757 -0.1307
  756MOL0     C 4230   8.134   4.291   5.169 -0.0067  0.0424  0.0449
  756MOL0     C 4231   8.213   4.181   5.099 -0.2984  0.0967  0.1781
  756MOL0     C 4232   8.270   4.214   4.947 -0.5100 -0.3328  0.8475
  756MOL0     C 4233   8.389   4.320   4.946  0.9947  0.3247  0.0479
  756MOL0     C 4234   8.522   4.250   4.994 -0.8637  0.2470  0.3829
  756MOL0    Cl 4235   8.669   4.359   4.965  0.3396 -0.1749 -0.8978
  756MOL0     C 4236   7.523   4.515   4.990 -0.4317 -0.4191 -0.3461
  756MOL0     C 4237   7.423   4.571   4.916 -0.7112 -0.2332 -0.2444
  756MOL0     O 4238   7.387   4.905   4.725  0.1685 -0.2474  0.0470
  756MOL0     C 4239   7.049   4.783   4.700  0.5409  1.1941 -0.2284
  756MOL0     C 4240   6.937   4.775   4.629  0.7554 -0.8003 -0.4719
  756MOL0     N 4241   6.337   4.838   4.459  0.3633  0.0921  0.4353
  756MOL0     N 4242   6.208   4.836   4.436  0.3970  0.3764  0.6326
  756MOL0     C 4243   5.513   4.474   3.392 -0.8179 -0.4941  0.1512
  756MOL0     C 4244   5.457   4.413   3.278  1.0127  0.3786 -0.2330
  756MOL0     C 4245   5.374   4.295   2.896  0.2093  0.5454 -1.1334
  756MOL0     C 4246   5.347   4.166   2.947 -0.1649  0.1775  0.2290
  756MOL0     C 4247   5.307   4.056   2.868 -0.3941 -0.1192 -0.5813
  756MOL0     C 4248   5.317   4.073   2.729 -0.0922 -0.6940  0.4049
  756MOL0     O 4249   5.273   3.984   2.639  0.3989  0.8218  0.3645
  756MOL0     C 4250   5.285   3.833   2.651 -0.7274 -1.1028  0.6184
  756MOL0     C 4251   5.157   3.772   2.597 -0.2285  0.5835 -0.7595
  756MOL0     C 4252   5.146   3.766   2.446 -0.5838 -0.0708  0.7209
  756MOL0     C 4253   5.174   3.903   2.383 -0.6185  0.3027 -0.4686
  756MOL0     C 4254   5.111   3.920   2.254  0.2863 -0.3542  0.0980
  756MOL0     C 4255   5.046   3.958   2.154  0.0415 -0.3091 -0.0614
  756MOL0     C 4256   5.334   4.206   2.678 -0.5315  1.0820 -0.1209
  756MOL0     C 4257   5.370   4.313   2.758 -0.0325 -0.1889 -0.6508
  756MOL0     C 4258   5.378   4.444   2.689  0.0833  1.0133 -0.2952
  756MOL0     H 4259   5.224   4.642   3.189  1.1934  0.3154 -2.4595
  756MOL0     H 4260   5.317   4.754   3.384  3.2424  2.0226 -0.0697
  756MOL0     H 4261   5.716   4.733   3.558  1.6846 -0.9274  0.2929
  756MOL0     H 4262   5.698   4.563   3.570 -0.5571  0.2233 -0.5000
  756MOL0     H 4263   5.573   4.732   3.786  1.4146  0.7581  1.6198
  756MOL0     H 4264   5.576   4.551   3.775  1.7380 -0.4100  1.7950
  756MOL0     H 4265   5.744   4.638   3.933 -0.9952  1.7173 -0.1157
  756MOL0     H 4266   5.808   4.550   3.785  1.8900  0.3545  0.2001
  756MOL0     H 4267   5.889   4.766   3.699 -0.0851  0.3107 -0.7940
  756MOL0     H 4268   5.786   4.858   3.815  0.7431  0.7149  0.1217
  756MOL0     H 4269   6.030   4.855   3.853  1.3158 -2.3816 -2.8282
  756MOL0     H 4270   6.021   4.679   3.861 -0.8425 -0.8639  1.6502
  756MOL0     H 4271   5.880   4.864   4.059 -0.6401 -1.0637  0.4875
  756MOL0     H 4272   5.906   4.687   4.077  0.9266 -0.4412  1.2760
  756MOL0     H 4273   6.147   4.878   4.053  1.7944 -0.1888  1.2983
  756MOL0     H 4274   6.127   4.720   4.135 -0.5777  0.1321  1.3980
  756MOL0     H 4275   6.036   5.004   4.230  2.7858  0.6926 -1.9632
  756MOL0     H 4276   5.970   4.863   4.309  1.0891  2.6981  2.6840
  756MOL0     H 4277   6.340   4.957   4.165  0.8641  1.1351  1.8958
  756MOL0     H 4278   6.597   4.930   4.433 -1.4644  1.1754  0.3038
  756MOL0     H 4279   6.554   5.004   4.282 -1.0398 -1.2448 -1.1208
  756MOL0     H 4280   6.531   4.789   4.162  3.0052  0.6359 -1.7983
  756MOL0     H 4281   6.695   4.843   4.198 -1.1826  1.4199 -0.2879
  756MOL0     H 4282   6.557   4.611   4.337 -0.6286  0.1015  1.0450
  756MOL0     H 4283   6.705   4.610   4.250  0.8936  3.7264 -2.4257
  756MOL0     H 4284   6.674   4.753   4.513 -0.5018 -0.7853  0.0975
  756MOL0     H 4285   6.766   4.613   4.483  1.4871  0.0613  1.1841
  756MOL0     H 4286   7.049   4.918   4.351 -1.3108  1.3052 -1.0813
  756MOL0     H 4287   7.255   5.045   4.383  0.8075 -0.9911 -1.2576
  756MOL0     H 4288   7.354   4.914   4.431 -1.7562 -1.4555 -1.9393
  756MOL0     H 4289   7.332   5.053   4.546 -0.7695  0.1202  0.3515
  756MOL0     H 4290   7.451   4.896   4.998  0.4475 -0.0598 -5.0640
  756MOL0     H 4291   7.612   4.800   5.159 -1.2187  0.6057 -0.0491
  756MOL0     H 4292   7.758   4.390   5.039  0.9562 -0.3460  0.8617
  756MOL0     H 4293   7.840   4.537   4.970 -1.5060 -2.3195 -2.2241
  756MOL0     H 4294   7.995   4.537   5.153 -1.8315  0.6844  1.5148
  756MOL0     H 4295   7.899   4.448   5.253  0.0030 -1.8828 -0.3409
  756MOL0     H 4296   8.029   4.332   4.992  1.7573 -2.4473  0.0886
  756MOL0     H 4297   7.930   4.248   5.116  0.9769 -0.8674  1.5311
  756MOL0     H 4298   8.109   4.272   5.274  0.0050 -1.5136 -0.2096
  756MOL0     H 4299   8.198   4.378   5.184  1.3719 -1.0264  0.5422
  756MOL0     H 4300   8.301   4.167   5.162 -0.4645 -0.7082  0.2391
  756MOL0     H 4301   8.170   4.081   5.101 -2.5624  0.9877 -0.6736
  756MOL0     H 4302   8.185   4.225   4.878  1.0112 -0.4104 -1.1191
  756MOL0     H 4303   8.314   4.121   4.912  0.3960 -0.6170  2.6107
  756MOL0     H 4304   8.369   4.401   5.017 -0.4594 -1.7644  2.1814
  756MOL0     H 4305   8.393   4.351   4.841 -0.5191  0.0145 -0.1218
  756MOL0     H 4306   8.542   4.158   4.938  0.0005  0.6390  0.0259
  756MOL0     H 4307   8.513   4.211   5.095  1.2223 -2.6253 -0.4233
  756MOL0     H 4308   7.560   4.415   4.974  2.9728  0.2910  2.0334
  756MOL0     H 4309   7.366   4.503   4.853 -0.0089 -1.2962  0.2239
  756MOL0     H 4310   7.033   4.733   4.795 -2.2928  0.8439 -0.7917
  756MOL0     H 4311   6.841   4.741   4.667  0.6030 -0.5521 -0.6299
  756MOL0     H 4312   5.591   4.422   3.446 -0.8816 -0.4625  0.2741
  756MOL0     H 4313   5.490   4.313   3.255 -1.4792 -1.1674  2.3034
  756MOL0     H 4314   5.347   4.153   3.054 -0.9110  4.1554  0.8845
  756MOL0     H 4315   5.282   3.961   2.914  0.2145 -0.3685 -0.7483
  756MOL0     H 4316   5.373   3.796   2.598  0.0109  2.0046 -0.5969
  756MOL0     H 4317   5.302   3.804   2.755 -1.0379  0.1758  1.0515
  756MOL0     H 4318   5.065   3.816   2.638 -0.8246 -1.7041  0.5110
  756MOL0     H 4319   5.160   3.667   2.626  1.2996 -0.1301 -3.1900
  756MOL0     H 4320   5.223   3.700   2.405  0.0024  0.4966  0.8831
  756MOL0     H 4321   5.044   3.731   2.427 -0.7073  0.4456  0.4151
  756MOL0     H 4322   5.282   3.918   2.371 -0.5881  0.6195  0.1559
  756MOL0     H 4323   5.134   3.983   2.446  2.2964  0.4070  1.4774
  756MOL0     H 4324   4.980   3.992   2.077 -2.6870  0.9623  2.6329
  756MOL0     H 4325   5.327   4.231   2.573  3.1185 -2.9507 -1.6394
  756MOL0     H 4326   5.361   4.525   2.760 -2.5059  1.3847 -1.2286
  756MOL0     H 4327   5.469   4.433   2.630  2.0357 -1.1878  2.7785
  756MOL0     H 4328   5.299   4.457   2.615  0.9879 -1.3162 -1.7714
  757MOL0     O 4329   6.912   5.431   2.886  0.0337 -0.3723 -0.2579
  757MOL0     C 4330   6.870   5.349   2.809  0.4832  0.6684  0.0553
  757MOL0     O 4331   6.797   5.373   2.702 -0.1136  0.0170 -0.0120
  757MOL0     C 4332   6.736   5.497   2.691 -0.6573  0.2973  0.5293
  757MOL0     C 4333   6.759   5.563   2.568  0.1803 -0.2566  0.1335
  757MOL0     C 4334   6.695   5.684   2.549 -0.3206 -0.0768  0.2964
  757MOL0     C 4335   6.595   5.732   2.640 -0.1120 -0.7330 -0.5514
  757MOL0     O 4336   6.530   5.848   2.611 -0.1316 -0.2613  0.1680
  757MOL0     C 4337   6.503   5.876   2.467  0.0729 -0.0399  0.4737
  757MOL0     C 4338   6.404   5.989   2.444 -0.0418  0.4489 -0.2866
  757MOL0     C 4339   6.273   5.967   2.524  0.3172  0.6682 -0.8384
  757MOL0     C 4340   6.205   5.826   2.508  0.6259 -0.0506  0.6411
  757MOL0     C 4341   6.050   5.821   2.498  0.6423 -0.3269 -0.1648
  757MOL0     C 4342   6.013   5.862   2.355  0.1548 -0.5877  0.4053
  757MOL0     C 4343   5.873   5.931   2.339 -0.0539 -0.2032 -0.4861
  757MOL0     C 4344   5.863   5.972   2.190  0.5615 -0.3139 -0.3722
  757MOL0     N 4345   5.723   5.992   2.147 -0.4999  0.3345  0.8645
  757MOL0     C 4346   5.647   6.104   2.120  0.0690 -0.0652 -0.0605
  757MOL0     C 4347   5.527   6.061   2.088  0.3274 -0.7914  1.0715
  757MOL0     C 4348   5.412   6.156   2.059  0.3540  0.3005 -0.1320
  757MOL0     C 4349   5.316   6.146   2.172  0.8096  0.7049  0.0309
  757MOL0     C 4350   5.196   6.251   2.145  0.1528  0.7995 -0.8901
  757MOL0     C 4351   5.092   6.207   2.249 -0.1391  0.0699  0.1231
  757MOL0     O 4352   4.960   6.262   2.246  0.0223  0.6355 -0.5529
  757MOL0     C 4353   4.862   6.185   2.303  0.5193 -0.5595 -0.3624
  757MOL0     C 4354   4.732   6.216   2.279  0.7258  0.1536  0.7010
  757MOL0     C 4355   4.623   6.139   2.332 -0.0572 -0.6954  0.8147
  757MOL0     C 4356   4.486   6.188   2.291  0.1832  0.4477 -0.0793
  757MOL0     C 4357   4.647   6.018   2.403 -0.2707  0.5912 -0.3327
  757MOL0     C 4358   4.537   5.944   2.479 -0.2258  0.2817 -0.0932
  757MOL0     O 4359   4.579   5.813   2.509 -0.2608  0.1251  0.4490
  757MOL0     C 4360   4.541   5.731   2.611  0.9680 -1.0053  0.8631
  757MOL0     C 4361   4.481   5.782   2.726  0.4515 -0.4818 -0.3377
  757MOL0     C 4362   4.428   5.696   2.824 -0.3183  0.7714  0.7211
  757MOL0     C 4363   4.459   5.558   2.824  0.0534  0.6374  0.0718
  757MOL0     O 4364   4.438   5.476   2.930  0.7764  0.2340  0.4092
  757MOL0     C 4365   4.363   5.522   3.039 -0.1431 -0.1460  0.2349
  757MOL0     C 4366   4.304   5.406   3.117 -0.4369 -0.9182 -0.9786
  757MOL0     C 4367   4.418   5.347   3.203  0.3204  0.0322  0.9890
  757MOL0     C 4368   4.374   5.211   3.269 -0.1874  0.2906  0.2853
  757MOL0     C 4369   4.470   5.156   3.370 -0.5161 -0.2655 -0.3293
  757MOL0     C 4370   4.431   5.008   3.408  0.3468  0.4012  0.4878
  757MOL0     C 4371   4.516   4.941   3.525  0.3504  0.2110  0.7483
  757MOL0     C 4372   4.486   4.788   3.545  0.7540  0.2658  0.9816
  757MOL0    Cl 4373   4.531   4.701   3.386 -0.7109 -0.5094 -0.1430
  757MOL0     C 4374   4.535   5.505   2.713  0.2539  0.7827 -0.7983
  757MOL0     C 4375   4.565   5.594   2.608  0.2291 -0.1913 -0.4230
  757MOL0     O 4376   4.419   5.991   2.495 -0.6004 -0.5430 -0.3718
  757MOL0     C 4377   4.780   5.980   2.418 -0.1897  0.0853 -0.0501
  757MOL0     C 4378   4.882   6.070   2.370  1.2635  0.7085 -0.4656
  757MOL0     N 4379   5.523   5.924   2.100 -0.5975 -0.8759  0.2147
  757MOL0     N 4380   5.636   5.884   2.128 -0.7319 -0.1938  0.5444
  757MOL0     C 4381   6.567   5.659   2.759  1.1133  0.3384  0.3153
  757MOL0     C 4382   6.637   5.537   2.777  0.0662 -0.1077  0.4618
  757MOL0     C 4383   6.901   5.207   2.842 -0.1906 -0.0882  0.1323
  757MOL0     C 4384   6.863   5.111   2.747  0.1503  0.3550 -0.1910
  757MOL0     C 4385   6.874   4.978   2.770 -0.9916  0.2682  0.3349
  757MOL0     C 4386   6.937   4.932   2.888 -0.1641  0.2696 -0.1932
  757MOL0     O 4387   6.956   4.801   2.919 -0.0145 -0.4846 -0.4227
  757MOL0     C 4388   6.947   4.713   2.802  0.7508 -0.2904 -0.3453
  757MOL0     C 4389   6.953   4.564   2.844 -0.2517 -0.7122 -0.5201
  757MOL0     C 4390   7.089   4.530   2.890  0.1833 -0.3989  0.2406
  757MOL0     C 4391   7.129   4.379   2.913  0.1776  0.2633 -0.2820
  757MOL0     C 4392   7.263   4.375   2.974  0.5066 -0.7457  0.7239
  757MOL0     C 4393   7.373   4.360   3.019 -0.0197  0.3723 -0.3975
  757MOL0     C 4394   6.967   5.020   2.993 -0.6059 -0.2794 -0.4561
  757MOL0     C 4395   6.962   5.156   2.969  1.2075  0.0274  0.3012
  757MOL0     C 4396   7.020   5.252   3.067  0.1044  0.0251 -0.8244
  757MOL0     H 4397   6.818   5.515   2.491 -1.4012 -1.9321 -0.0989
  757MOL0     H 4398   6.704   5.726   2.449  0.9410 -1.6940 -0.3345
  757MOL0     H 4399   6.476   5.788   2.407  0.1538  0.1530  0.1505
  757MOL0     H 4400   6.599   5.909   2.424 -0.1219  0.2806  0.2853
  757MOL0     H 4401   6.452   6.077   2.485  1.9732 -0.9869  0.5854
  757MOL0     H 4402   6.383   6.008   2.338 -0.3684  2.3679  0.0934
  757MOL0     H 4403   6.291   5.990   2.629  0.7413  0.3246 -0.8348
  757MOL0     H 4404   6.195   6.035   2.488 -0.0305  1.5251  1.3648
  757MOL0     H 4405   6.239   5.784   2.413  3.4382 -2.7893  2.6738
  757MOL0     H 4406   6.240   5.764   2.591  0.0898 -1.3086 -0.0502
  757MOL0     H 4407   5.997   5.893   2.561  0.1581  1.2065 -2.1888
  757MOL0     H 4408   6.012   5.724   2.529  1.5278 -0.2278  1.3337
  757MOL0     H 4409   6.085   5.933   2.313  1.6583 -0.4619  2.9846
  757MOL0     H 4410   6.024   5.768   2.298  0.4511  0.5910 -1.5765
  757MOL0     H 4411   5.864   6.018   2.403  3.8575 -0.3212  0.4244
  757MOL0     H 4412   5.796   5.861   2.374 -1.8213  3.6923  4.5655
  757MOL0     H 4413   5.925   6.057   2.161  1.2139 -0.7506 -0.2721
  757MOL0     H 4414   5.896   5.881   2.140  1.9826  0.1729 -0.3600
  757MOL0     H 4415   5.680   6.207   2.122 -0.0621  0.0250  3.0509
  757MOL0     H 4416   5.366   6.138   1.961  1.6365  2.3587 -1.1848
  757MOL0     H 4417   5.453   6.258   2.053 -1.7626  1.1584 -0.8911
  757MOL0     H 4418   5.286   6.042   2.161  1.5672  0.2656  1.7299
  757MOL0     H 4419   5.362   6.153   2.271 -0.0125 -0.8113  0.5473
  757MOL0     H 4420   5.225   6.355   2.167  1.6403 -0.2819  3.2107
  757MOL0     H 4421   5.156   6.242   2.044  4.3661  1.5731 -2.8453
  757MOL0     H 4422   5.087   6.098   2.239  1.8563 -0.3821  2.9181
  757MOL0     H 4423   5.127   6.221   2.351  0.0850 -2.1922  0.3958
  757MOL0     H 4424   4.713   6.311   2.232  0.0968  0.6786  1.9793
  757MOL0     H 4425   4.440   6.247   2.370 -0.1852  0.9511 -0.6630
  757MOL0     H 4426   4.419   6.106   2.262  0.2740  0.8483 -1.5005
  757MOL0     H 4427   4.492   6.249   2.200 -3.1400  0.9041 -0.1059
  757MOL0     H 4428   4.477   5.888   2.747  1.7034 -0.4698 -0.0812
  757MOL0     H 4429   4.385   5.754   2.905  2.0942  2.7736  0.6893
  757MOL0     H 4430   4.434   5.582   3.097  0.0941 -1.7630  1.6939
  757MOL0     H 4431   4.284   5.587   3.001 -1.5003 -3.0173 -2.3755
  757MOL0     H 4432   4.227   5.450   3.181  0.8265 -1.6752  1.1505
  757MOL0     H 4433   4.255   5.338   3.046  0.9820 -4.0637  0.8158
  757MOL0     H 4434   4.424   5.418   3.286 -1.3574  0.7368  0.5671
  757MOL0     H 4435   4.505   5.347   3.138 -1.2295  0.0603 -1.2008
  757MOL0     H 4436   4.384   5.135   3.191  1.6033 -2.0042  2.5779
  757MOL0     H 4437   4.270   5.216   3.304  0.0629  3.2415  0.8905
  757MOL0     H 4438   4.568   5.165   3.324  0.4732  0.6023  1.8366
  757MOL0     H 4439   4.493   5.209   3.463  2.3400  0.6891 -1.4963
  757MOL0     H 4440   4.443   4.945   3.319  0.4532  0.5526  0.3952
  757MOL0     H 4441   4.327   5.006   3.443  0.0294 -2.5986 -0.2867
  757MOL0     H 4442   4.499   5.004   3.613  3.5280  1.2786  0.7416
  757MOL0     H 4443   4.623   4.934   3.503 -0.3507 -0.6385 -3.2039
  757MOL0     H 4444   4.377   4.781   3.557  0.3599  0.3116 -1.8951
  757MOL0     H 4445   4.537   4.745   3.631  1.4671  0.4397  0.6504
  757MOL0     H 4446   4.560   5.400   2.726 -0.6924  0.8483  2.2921
  757MOL0     H 4447   4.618   5.567   2.517  1.0961  1.3336 -0.3916
  757MOL0     H 4448   4.803   5.896   2.482 -2.4255 -0.8638 -0.3904
  757MOL0     H 4449   4.986   6.049   2.392  1.6264  3.1621  0.5231
  757MOL0     H 4450   6.485   5.685   2.825 -0.7095  0.6088 -1.9208
  757MOL0     H 4451   6.625   5.481   2.870  1.2367 -1.0567  0.0633
  757MOL0     H 4452   6.819   5.133   2.650  0.0103  1.4591  0.1092
  757MOL0     H 4453   6.832   4.917   2.690 -0.6281  0.4812 -0.0195
  757MOL0     H 4454   6.856   4.725   2.744  1.8263 -1.2383 -2.3542
  757MOL0     H 4455   7.029   4.735   2.733 -1.4052  3.0324 -2.1248
  757MOL0     H 4456   6.916   4.508   2.758  0.0547  0.4789 -1.4490
  757MOL0     H 4457   6.886   4.540   2.928  0.3697  0.8685  0.4856
  757MOL0     H 4458   7.158   4.573   2.817 -0.2434  1.3152  0.8208
  757MOL0     H 4459   7.114   4.586   2.980  1.2937  3.5552 -2.2722
  757MOL0     H 4460   7.109   4.317   2.826 -0.4407  2.1608 -1.5454
  757MOL0     H 4461   7.064   4.341   2.992 -0.4834  0.9143 -0.5089
  757MOL0     H 4462   7.472   4.352   3.057  1.2033  1.2798 -3.1564
  757MOL0     H 4463   6.999   4.986   3.091 -1.5554 -3.5970 -1.1768
  757MOL0     H 4464   6.935   5.294   3.121 -1.5254  0.4820 -3.5532
  757MOL0     H 4465   7.084   5.197   3.137 -0.4547 -1.3194 -1.3312
  757MOL0     H 4466   7.074   5.336   3.024  2.1416  0.1849  1.7717
  758MOL0     O 4467  10.492  11.189   2.454  0.6254  0.4075  0.2328
  758MOL0     C 4468  10.432  11.237   2.357  0.3717 -0.4631  0.0706
  758MOL0     O 4469  10.477  11.242   2.230  0.0159  0.7268  0.0020
  758MOL0     C 4470  10.610  11.257   2.205  0.9019  0.1580  0.6008
  758MOL0     C 4471  10.690  11.359   2.251  0.2115 -0.7424  0.3224
  758MOL0     C 4472  10.824  11.363   2.223 -0.1117 -0.3151  0.2601
  758MOL0     C 4473  10.885  11.264   2.139 -0.3843 -0.9053  0.9813
  758MOL0     O 4474  11.027  11.255   2.116 -0.2257 -0.3701 -0.1770
  758MOL0     C 4475  11.110  11.359   2.156 -0.8334  0.7761  1.0595
  758MOL0     C 4476  11.148  11.354   2.301 -0.3712 -0.0250  0.4059
  758MOL0     C 4477  11.280  11.435   2.331  0.2184  0.9469 -0.1614
  758MOL0     C 4478  11.292  11.468   2.480 -0.5385  0.1848  0.0890
  758MOL0     C 4479  11.442  11.489   2.523  0.3004  0.3787  0.0133
  758MOL0     C 4480  11.502  11.618   2.455 -0.2749  0.3929 -0.1317
  758MOL0     C 4481  11.649  11.633   2.467  0.1755 -0.6318 -0.0564
  758MOL0     C 4482  11.685  11.779   2.460 -0.5537 -0.0412 -0.0133
  758MOL0     N 4483  11.828  11.801   2.485  0.1547 -0.0398 -0.3953
  758MOL0     C 4484  11.932  11.708   2.464  0.3906  0.0864 -0.8132
  758MOL0     C 4485  12.039  11.759   2.536  0.7454  0.4247  0.2659
  758MOL0     C 4486  12.180  11.707   2.548  0.6691  0.0455 -0.0406
  758MOL0     C 4487  12.218  11.573   2.473  0.8704 -0.1247 -0.7728
  758MOL0     C 4488  12.368  11.552   2.443  0.0695 -0.5312  0.9711
  758MOL0     C 4489  12.406  11.429   2.518 -0.2415 -0.2001  1.0089
  758MOL0     O 4490  12.544  11.398   2.495  0.2446 -0.5983 -0.0985
  758MOL0     C 4491  12.611  11.296   2.563  0.1507  0.6139  1.6101
  758MOL0     C 4492  12.558  11.214   2.663  0.3361  1.1105  0.2218
  758MOL0     C 4493  12.628  11.110   2.734 -0.5668 -0.2998  0.3676
  758MOL0     C 4494  12.564  11.036   2.850 -0.1816 -0.0097 -0.3494
  758MOL0     C 4495  12.758  11.074   2.682  0.0714 -0.5391 -0.1210
  758MOL0     C 4496  12.840  10.956   2.727 -0.5671 -0.0848  0.2400
  758MOL0     O 4497  12.956  10.935   2.657 -0.0394  0.1926  0.5691
  758MOL0     C 4498  13.043  10.845   2.720 -0.3178  1.0189  0.2230
  758MOL0     C 4499  13.021  10.701   2.710  0.6976  1.1811  0.5606
  758MOL0     C 4500  13.122  10.610   2.736  1.0313  0.3819  0.2492
  758MOL0     C 4501  13.242  10.656   2.798 -0.3447  0.2079  0.9476
  758MOL0     O 4502  13.352  10.573   2.814  0.6005 -0.4197 -1.4426
  758MOL0     C 4503  13.476  10.630   2.850  0.3347 -0.2298  0.1917
  758MOL0     C 4504  13.600  10.545   2.836  0.6860 -0.8524 -0.3125
  758MOL0     C 4505  13.626  10.440   2.950 -0.1103 -1.0197  0.1645
  758MOL0     C 4506  13.728  10.323   2.925  0.1652  0.9581 -0.1958
  758MOL0     C 4507  13.869  10.378   2.909  0.3021  0.4820 -0.0731
  758MOL0     C 4508  13.973  10.261   2.942  0.8264  0.8511  0.2181
  758MOL0     C 4509  14.117  10.310   2.948  0.6513  0.9852  0.9514
  758MOL0     C 4510  14.216  10.196   2.949 -0.2116  0.1827  0.0967
  758MOL0    Cl 4511  14.191  10.089   2.815 -0.2379  0.3365  0.1094
  758MOL0     C 4512  13.255  10.792   2.824 -0.9385 -0.0309  0.7346
  758MOL0     C 4513  13.162  10.887   2.776  0.7995 -0.0190 -0.1168
  758MOL0     O 4514  12.809  10.901   2.831  1.2348  0.2207  0.3606
  758MOL0     C 4515  12.819  11.155   2.579  0.8723 -0.4793  0.5851
  758MOL0     C 4516  12.748  11.265   2.516  0.4538 -0.4122 -0.2347
  758MOL0     N 4517  11.994  11.873   2.597 -0.2228  0.2345  0.3477
  758MOL0     N 4518  11.875  11.890   2.572 -0.4011  0.0084 -0.3217
  758MOL0     C 4519  10.806  11.175   2.080  0.2762  0.2385 -0.4830
  758MOL0     C 4520  10.665  11.167   2.115  0.4726 -0.1670  0.6709
  758MOL0     C 4521  10.299  11.296   2.384 -0.1365  0.5336  0.2074
  758MOL0     C 4522  10.278  11.437   2.351  0.5911  0.6568 -0.3014
  758MOL0     C 4523  10.142  11.491   2.369 -0.3698 -0.5678  0.2070
  758MOL0     C 4524  10.034  11.412   2.417 -0.0700 -0.3602  0.1730
  758MOL0     O 4525   9.907  11.462   2.443 -0.7367 -0.7783 -0.6262
  758MOL0     C 4526   9.886  11.601   2.469  0.2301 -0.7292  1.2328
  758MOL0     C 4527   9.962  11.638   2.589  0.1188  0.2020  0.7054
  758MOL0     C 4528   9.892  11.579   2.710  0.0735 -0.0383 -0.9110
  758MOL0     C 4529   9.947  11.648   2.836  0.0608  0.1298  0.8467
  758MOL0     C 4530   9.889  11.590   2.956  0.5506 -0.7532 -0.7754
  758MOL0     C 4531   9.813  11.544   3.042  0.4708  0.4301 -1.2159
  758MOL0     C 4532  10.062  11.282   2.447  0.1016  0.3208 -0.4788
  758MOL0     C 4533  10.187  11.222   2.426 -0.1167  0.6030 -0.1898
  758MOL0     C 4534  10.200  11.064   2.441 -0.4094 -0.7256  0.4123
  758MOL0     H 4535  10.655  11.432   2.324 -0.1934  0.7168 -1.2825
  758MOL0     H 4536  10.891  11.428   2.279 -1.0424  1.3422 -0.4762
  758MOL0     H 4537  11.076  11.458   2.124 -2.9094  0.1125  1.1254
  758MOL0     H 4538  11.207  11.342   2.107 -0.5049  1.3407  1.4967
  758MOL0     H 4539  11.072  11.393   2.369  1.9606  1.7785  2.1941
  758MOL0     H 4540  11.158  11.252   2.339 -0.0473  0.7080  2.4328
  758MOL0     H 4541  11.350  11.351   2.326 -1.2930 -0.6029  2.2189
  758MOL0     H 4542  11.300  11.517   2.262  1.0586 -0.9338 -2.2712
  758MOL0     H 4543  11.230  11.553   2.510 -2.2386 -0.4195 -1.5637
  758MOL0     H 4544  11.256  11.380   2.535  0.0605 -0.2980 -0.2861
  758MOL0     H 4545  11.496  11.396   2.505  1.5274  1.0520  0.1560
  758MOL0     H 4546  11.447  11.507   2.631  1.2499 -0.2536  0.0818
  758MOL0     H 4547  11.487  11.618   2.347  0.3762 -0.6802 -0.2372
  758MOL0     H 4548  11.447  11.703   2.497 -3.7190 -1.0734 -1.3494
  758MOL0     H 4549  11.705  11.578   2.391 -1.7881  1.5987 -3.4116
  758MOL0     H 4550  11.688  11.609   2.566  1.5995  0.1385 -0.4035
  758MOL0     H 4551  11.667  11.820   2.360 -2.3883  0.8576  0.6468
  758MOL0     H 4552  11.627  11.842   2.527 -2.5819 -2.6200  0.8027
  758MOL0     H 4553  11.939  11.615   2.408  3.0561 -2.4345  3.1132
  758MOL0     H 4554  12.212  11.704   2.652 -0.7664 -1.0664  0.4006
  758MOL0     H 4555  12.233  11.791   2.501  1.4829  0.2783  1.2569
  758MOL0     H 4556  12.182  11.488   2.532 -0.0370  0.1829 -0.8658
  758MOL0     H 4557  12.154  11.566   2.385 -2.3798 -2.9330  1.5458
  758MOL0     H 4558  12.365  11.535   2.335  0.4991 -1.3097  1.0776
  758MOL0     H 4559  12.428  11.641   2.466  1.3616 -1.3954  1.0404
  758MOL0     H 4560  12.389  11.453   2.623  1.1004  1.9010  0.8031
  758MOL0     H 4561  12.350  11.340   2.487 -0.1313 -0.2477  0.9492
  758MOL0     H 4562  12.454  11.235   2.687 -0.2373 -0.9108 -0.3228
  758MOL0     H 4563  12.558  10.929   2.828  2.1648 -0.9834  3.0181
  758MOL0     H 4564  12.459  11.069   2.854 -0.7191 -1.7043  0.5053
  758MOL0     H 4565  12.618  11.047   2.944  0.3903 -4.5995  0.0881
  758MOL0     H 4566  12.927  10.669   2.665  2.2042  3.0162 -4.5126
  758MOL0     H 4567  13.092  10.507   2.723 -1.7068  1.3715 -2.2115
  758MOL0     H 4568  13.497  10.706   2.774 -0.8038 -0.6865 -0.6015
  758MOL0     H 4569  13.474  10.677   2.949  2.7867 -0.9850  0.6745
  758MOL0     H 4570  13.587  10.476   2.751  0.0636  0.6026 -1.4409
  758MOL0     H 4571  13.690  10.607   2.829  1.5690 -2.1538 -1.0766
  758MOL0     H 4572  13.532  10.390   2.977  1.8351 -2.0695  6.5412
  758MOL0     H 4573  13.654  10.499   3.037  0.3060  0.3768 -0.8768
  758MOL0     H 4574  13.696  10.260   2.842 -2.0998  0.4543  0.9784
  758MOL0     H 4575  13.719  10.247   3.003 -1.5764 -0.8463 -2.0256
  758MOL0     H 4576  13.885  10.426   2.812 -1.9491  1.5597  0.0144
  758MOL0     H 4577  13.898  10.453   2.983  2.9821  0.5589 -1.1089
  758MOL0     H 4578  13.955  10.186   2.865  0.1274 -0.6217  1.7472
  758MOL0     H 4579  13.945  10.217   3.038 -1.5302  0.8711 -0.3992
  758MOL0     H 4580  14.124  10.368   3.040 -0.2649  2.1604  0.2938
  758MOL0     H 4581  14.138  10.373   2.861 -2.5304 -1.0751 -1.5747
  758MOL0     H 4582  14.221  10.141   3.043 -2.8756 -0.9622 -0.3055
  758MOL0     H 4583  14.316  10.238   2.936 -1.2521  2.6161 -0.7051
  758MOL0     H 4584  13.338  10.835   2.880 -0.4303 -0.0671  0.0254
  758MOL0     H 4585  13.189  10.989   2.799  0.7333 -0.3320  1.4661
  758MOL0     H 4586  12.921  11.142   2.543  0.9449  0.3575  0.4777
  758MOL0     H 4587  12.804  11.332   2.452  0.5939 -2.2579 -2.1315
  758MOL0     H 4588  10.846  11.110   2.003  2.3280  1.1068 -0.2112
  758MOL0     H 4589  10.602  11.090   2.071  0.7839 -2.5015  3.9844
  758MOL0     H 4590  10.357  11.501   2.314 -0.2044  1.0037 -1.4705
  758MOL0     H 4591  10.146  11.594   2.335  3.7350  0.5673  3.3328
  758MOL0     H 4592   9.914  11.666   2.386 -1.2694 -0.2876  1.0288
  758MOL0     H 4593   9.781  11.621   2.495  0.8074  2.6956  1.4345
  758MOL0     H 4594   9.954  11.746   2.599 -2.7760  0.3889 -2.0909
  758MOL0     H 4595  10.068  11.611   2.585  0.2623  0.8393 -2.3527
  758MOL0     H 4596   9.783  11.580   2.706  0.1053  0.3704 -2.3665
  758MOL0     H 4597   9.912  11.472   2.697  2.2747  0.5283 -2.8878
  758MOL0     H 4598   9.935  11.756   2.832  2.0314  0.3559 -0.8980
  758MOL0     H 4599  10.055  11.632   2.842 -0.1384 -0.6912  2.8126
  758MOL0     H 4600   9.747  11.501   3.115 -1.0957 -0.7135 -3.2026
  758MOL0     H 4601   9.972  11.224   2.468  0.7584 -0.3526  0.5888
  758MOL0     H 4602  10.303  11.050   2.476  0.0055  5.2067  2.7824
  758MOL0     H 4603  10.124  11.013   2.501  0.1021 -1.6315  0.3128
  758MOL0     H 4604  10.193  11.017   2.343  0.3802  0.7592 -0.3975
  759MOL0     O 4605   8.848   6.623  11.449 -0.3812 -0.6146 -0.3861
  759MOL0     C 4606   8.737   6.671  11.451 -0.0483 -0.2209  0.1293
  759MOL0     O 4607   8.707   6.804  11.432 -0.3773  0.7689 -0.0175
  759MOL0     C 4608   8.787   6.894  11.365 -0.3227 -0.5626 -0.0645
  759MOL0     C 4609   8.873   6.848  11.268 -0.8481  0.1467  1.1073
  759MOL0     C 4610   8.956   6.937  11.196  0.5515 -0.6269 -0.9263
  759MOL0     C 4611   8.953   7.074  11.222 -0.3541  0.7125  0.5959
  759MOL0     O 4612   9.042   7.158  11.158  0.0554 -0.1328 -0.4485
  759MOL0     C 4613   9.087   7.266  11.248  1.1114 -0.1651  0.1618
  759MOL0     C 4614   9.193   7.331  11.167  0.2213  0.0746  0.2009
  759MOL0     C 4615   9.153   7.399  11.034 -0.5453 -0.7917 -0.1134
  759MOL0     C 4616   9.192   7.544  11.026  0.4952  0.4754 -0.1330
  759MOL0     C 4617   9.144   7.604  10.887  0.5273  0.3581 -0.9081
  759MOL0     C 4618   9.184   7.744  10.865 -1.1903  0.6036 -1.1606
  759MOL0     C 4619   9.133   7.805  10.739 -0.0872 -0.5423  0.1996
  759MOL0     C 4620   9.184   7.948  10.732 -0.3091  0.9153 -0.3489
  759MOL0     N 4621   9.106   8.032  10.638 -0.2608  0.0142  0.5326
  759MOL0     C 4622   9.138   8.031  10.499 -0.6120  0.1048 -0.7571
  759MOL0     C 4623   9.047   8.116  10.444  0.8340  0.1519 -0.5220
  759MOL0     C 4624   9.020   8.135  10.294  0.2734 -0.6281 -0.1969
  759MOL0     C 4625   9.021   8.291  10.267 -0.1502  0.4973  0.0713
  759MOL0     C 4626   9.166   8.345  10.257 -0.6214 -0.3906 -0.2863
  759MOL0     C 4627   9.163   8.498  10.241  0.4834 -0.4357  0.1652
  759MOL0     O 4628   9.091   8.536  10.117  0.3651 -0.0887  0.0115
  759MOL0     C 4629   9.098   8.667  10.103 -0.6976 -0.2868 -0.5215
  759MOL0     C 4630   8.978   8.736  10.086 -0.8323  0.0787 -0.2147
  759MOL0     C 4631   8.985   8.874  10.055 -1.1605  0.3677  0.5381
  759MOL0     C 4632   8.857   8.941  10.021  1.5054 -0.3961  0.3341
  759MOL0     C 4633   9.108   8.940  10.050  0.4565 -0.4181 -0.7631
  759MOL0     C 4634   9.126   9.088  10.033 -0.0888 -0.0751 -0.1199
  759MOL0     O 4635   9.254   9.131  10.021 -0.4888 -0.2807  0.1556
  759MOL0     C 4636   9.287   9.263   9.991 -0.3839 -0.1904  0.0213
  759MOL0     C 4637   9.217   9.375  10.050 -0.4771 -0.5482 -0.5147
  759MOL0     C 4638   9.252   9.509  10.020  0.1396 -0.0652  0.4890
  759MOL0     C 4639   9.350   9.533   9.928 -1.0193  0.0158  0.0908
  759MOL0     O 4640   9.376   9.667   9.898 -0.7169  0.6200  0.5642
  759MOL0     C 4641   9.510   9.700   9.840  0.6590  0.2854 -1.1119
  759MOL0     C 4642   9.535   9.849   9.853 -0.3380  0.8964 -1.0475
  759MOL0     C 4643   9.442   9.956   9.779 -1.3136 -0.1062 -0.2435
  759MOL0     C 4644   9.482  10.099   9.818  0.6788  0.3021 -0.2859
  759MOL0     C 4645   9.395  10.206   9.748  0.3604 -0.0891 -0.4980
  759MOL0     C 4646   9.442  10.237   9.602  0.5000  0.1694  0.0228
  759MOL0     C 4647   9.388  10.377   9.553  1.0762  0.0083  0.6044
  759MOL0     C 4648   9.233  10.376   9.557  0.2728  0.2102 -0.3847
  759MOL0    Cl 4649   9.159  10.240   9.455  0.4805  0.5791  0.5975
  759MOL0     C 4650   9.428   9.422   9.870 -0.1822 -0.5603  0.2834
  759MOL0     C 4651   9.393   9.288   9.902  0.2699  0.1432 -0.0900
  759MOL0     O 4652   9.031   9.163  10.026  0.3404  0.2395  0.3770
  759MOL0     C 4653   9.227   8.866  10.075 -0.0883 -0.4637  0.1248
  759MOL0     C 4654   9.221   8.732  10.095  0.3027  0.9330  0.1519
  759MOL0     N 4655   8.971   8.179  10.547  0.5808  0.1186  0.6254
  759MOL0     N 4656   9.006   8.125  10.657 -0.2472 -0.4965 -0.2415
  759MOL0     C 4657   8.859   7.114  11.316 -0.3834  0.8446  0.1977
  759MOL0     C 4658   8.769   7.028  11.382 -0.5668  0.3367 -0.2754
  759MOL0     C 4659   8.617   6.594  11.490 -0.0266  0.6474  0.1214
  759MOL0     C 4660   8.491   6.655  11.475 -0.4219  0.0691 -1.0888
  759MOL0     C 4661   8.374   6.582  11.481  0.3554  0.3179  0.1335
  759MOL0     C 4662   8.380   6.448  11.528 -1.4885 -1.0110 -0.1763
  759MOL0     O 4663   8.271   6.365  11.538  0.9820  0.7209 -0.5691
  759MOL0     C 4664   8.205   6.355  11.411  0.3767  0.5023 -0.2479
  759MOL0     C 4665   8.156   6.214  11.390  0.3414  0.6676 -0.7518
  759MOL0     C 4666   8.260   6.125  11.323 -0.6317  1.2011  0.0105
  759MOL0     C 4667   8.192   6.010  11.249 -0.5499  0.2961 -1.1152
  759MOL0     C 4668   8.132   5.915  11.346  0.3562  0.5647  0.5199
  759MOL0     C 4669   8.095   5.818  11.406 -0.1978 -0.8570 -0.3451
  759MOL0     C 4670   8.501   6.384  11.539  0.2837 -0.5234 -0.4521
  759MOL0     C 4671   8.616   6.454  11.516 -0.7091  0.3764 -0.7123
  759MOL0     C 4672   8.732   6.371  11.525 -0.5779 -0.4854  0.0267
  759MOL0     H 4673   8.890   6.742  11.251  1.2941  0.5474  0.5275
  759MOL0     H 4674   9.020   6.898  11.117 -0.4606 -0.0974 -2.0356
  759MOL0     H 4675   9.129   7.231  11.343  1.7861 -2.2395 -0.8608
  759MOL0     H 4676   9.001   7.334  11.256 -0.2157 -1.3626 -2.6255
  759MOL0     H 4677   9.251   7.408  11.217  2.6956 -1.4589 -0.1221
  759MOL0     H 4678   9.271   7.255  11.150 -2.2349 -2.6373  0.1937
  759MOL0     H 4679   9.185   7.342  10.947 -1.8551 -1.1346 -0.3961
  759MOL0     H 4680   9.043   7.398  11.036 -0.6761  1.7884 -1.4438
  759MOL0     H 4681   9.143   7.589  11.113 -4.1545 -2.0845 -1.1215
  759MOL0     H 4682   9.298   7.564  11.044  0.2004  3.3895 -1.0568
  759MOL0     H 4683   9.036   7.608  10.900  0.4684  2.3577 -1.5983
  759MOL0     H 4684   9.166   7.545  10.798  0.0756 -0.6134 -0.3949
  759MOL0     H 4685   9.146   7.798  10.952 -0.1432  1.7513 -1.3817
  759MOL0     H 4686   9.293   7.758  10.869 -1.1271 -0.1722  1.8299
  759MOL0     H 4687   9.023   7.800  10.736 -0.0773 -2.1733  1.0156
  759MOL0     H 4688   9.159   7.744  10.652 -1.6012 -1.9072  0.6407
  759MOL0     H 4689   9.214   7.999  10.824  5.0037  2.7026 -2.6823
  759MOL0     H 4690   9.285   7.952  10.690  0.7349  1.7467  2.0873
  759MOL0     H 4691   9.198   7.961  10.441  0.0994 -0.4736  0.6223
  759MOL0     H 4692   8.921   8.100  10.262 -1.4651  3.0255  0.5902
  759MOL0     H 4693   9.098   8.088  10.235 -0.7896 -0.5414 -1.7180
  759MOL0     H 4694   8.964   8.317  10.177  0.2112 -2.8855 -1.2902
  759MOL0     H 4695   8.966   8.344  10.345 -1.8385 -1.9076  0.6300
  759MOL0     H 4696   9.222   8.308  10.343  0.6999  0.1330 -0.9115
  759MOL0     H 4697   9.223   8.296  10.178 -0.2975 -1.2901  0.4769
  759MOL0     H 4698   9.115   8.540  10.330 -0.8434 -1.2281 -0.1483
  759MOL0     H 4699   9.263   8.540  10.256 -0.0874  0.7275  0.8636
  759MOL0     H 4700   8.879   8.692  10.086 -0.4705 -0.7522 -0.0394
  759MOL0     H 4701   8.771   8.875  10.013  1.1510  0.2084 -1.0251
  759MOL0     H 4702   8.860   9.003   9.931 -0.6494  0.5438  0.8464
  759MOL0     H 4703   8.824   9.001  10.106 -0.8005  0.6696 -1.2246
  759MOL0     H 4704   9.144   9.358  10.128  0.1928 -0.2624  0.1901
  759MOL0     H 4705   9.184   9.584  10.060 -1.1773  0.2567 -2.1286
  759MOL0     H 4706   9.590   9.649   9.895 -0.9283 -0.0004  1.0532
  759MOL0     H 4707   9.510   9.675   9.734 -1.6151  2.5076 -1.7258
  759MOL0     H 4708   9.515   9.874   9.958  1.9927 -1.3823  0.0645
  759MOL0     H 4709   9.638   9.852   9.818 -0.3265 -1.4165 -1.3808
  759MOL0     H 4710   9.338   9.938   9.808 -0.9588 -1.2918  0.3275
  759MOL0     H 4711   9.465   9.951   9.672  0.2658  5.2586 -0.4730
  759MOL0     H 4712   9.585  10.120   9.789  1.1837 -0.0470  1.1782
  759MOL0     H 4713   9.472  10.116   9.926 -2.9069  2.7375 -0.8193
  759MOL0     H 4714   9.293  10.168   9.735  0.7219 -1.1754 -0.2466
  759MOL0     H 4715   9.388  10.298   9.807  1.7798  0.3013 -0.8830
  759MOL0     H 4716   9.423  10.160   9.526 -1.4252  2.7144 -2.2748
  759MOL0     H 4717   9.550  10.253   9.604  0.2783  1.8104  0.3449
  759MOL0     H 4718   9.423  10.396   9.451 -0.3829  0.7429  0.2126
  759MOL0     H 4719   9.431  10.460   9.609  0.0703  3.0213 -2.7530
  759MOL0     H 4720   9.207  10.475   9.519  4.0311  1.7379  0.5701
  759MOL0     H 4721   9.199  10.357   9.659 -1.6645 -3.0420 -1.4623
  759MOL0     H 4722   9.512   9.453   9.808  0.4264 -0.1413  1.2920
  759MOL0     H 4723   9.446   9.202   9.865 -1.8458 -1.7507  1.0454
  759MOL0     H 4724   9.320   8.921  10.069 -1.8627  2.6697 -1.6323
  759MOL0     H 4725   9.318   8.683  10.096  0.1715  0.6023 -1.1364
  759MOL0     H 4726   8.854   7.219  11.342  0.4580  0.6614  1.1428
  759MOL0     H 4727   8.680   7.054  11.439 -0.1020  0.2152  0.5180
  759MOL0     H 4728   8.486   6.756  11.436 -0.8413  0.6106  0.3010
  759MOL0     H 4729   8.287   6.643  11.458 -1.1767 -2.1273 -0.9217
  759MOL0     H 4730   8.126   6.431  11.409 -3.7027 -3.2139  1.4395
  759MOL0     H 4731   8.260   6.381  11.320  0.4733  1.9318  0.1956
  759MOL0     H 4732   8.072   6.213  11.320  0.5943 -0.1514 -1.0591
  759MOL0     H 4733   8.119   6.183  11.488  1.6453  1.4274  0.0055
  759MOL0     H 4734   8.319   6.189  11.257  0.2466  1.0971  0.6747
  759MOL0     H 4735   8.330   6.073  11.390 -0.2956  1.2965 -0.2583
  759MOL0     H 4736   8.266   5.950  11.195 -1.0163 -0.4140 -0.9690
  759MOL0     H 4737   8.125   6.045  11.169 -0.2355 -2.2127 -2.5953
  759MOL0     H 4738   8.070   5.723  11.450  0.6761 -1.9450 -2.1036
  759MOL0     H 4739   8.487   6.288  11.589 -3.3622  0.2485  0.3112
  759MOL0     H 4740   8.709   6.265  11.537  3.5667 -1.5698  0.1565
  759MOL0     H 4741   8.777   6.380  11.426  0.3229 -0.0380  0.4621
  759MOL0     H 4742   8.801   6.403  11.604 -2.4220 -1.0515  1.9521
  760MOL0     O 4743   2.773   8.954   3.531 -0.1621  0.3868 -0.3776
  760MOL0     C 4744   2.780   8.906   3.421  0.2041  0.6695 -0.1196
  760MOL0     O 4745   2.744   8.960   3.301  0.6050  0.1557 -0.5925
  760MOL0     C 4746   2.660   9.068   3.316  0.8023 -0.4983 -0.3943
  760MOL0     C 4747   2.533   9.053   3.262 -0.3674  0.5172  0.7468
  760MOL0     C 4748   2.445   9.159   3.255 -0.0318  0.5016  0.1474
  760MOL0     C 4749   2.476   9.278   3.318 -0.0452 -0.4513  0.0238
  760MOL0     O 4750   2.379   9.386   3.330 -0.2129  0.1041 -0.3455
  760MOL0     C 4751   2.237   9.351   3.319 -0.1169 -0.0770  0.6391
  760MOL0     C 4752   2.148   9.473   3.342  0.1442 -0.5252  0.5738
  760MOL0     C 4753   2.005   9.446   3.351  0.1875 -0.4071  0.5592
  760MOL0     C 4754   1.962   9.405   3.492  0.3000 -0.3799 -0.6350
  760MOL0     C 4755   1.806   9.381   3.489  0.5073  0.4634  0.0916
  760MOL0     C 4756   1.728   9.516   3.503  0.3191 -0.5948  0.4786
  760MOL0     C 4757   1.582   9.506   3.546  0.1500  0.2540 -0.5043
  760MOL0     C 4758   1.498   9.444   3.438  0.3252  0.2155 -0.4273
  760MOL0     N 4759   1.392   9.538   3.403  0.7046 -0.4027  0.2689
  760MOL0     C 4760   1.431   9.655   3.352 -0.2343 -0.2696  0.9438
  760MOL0     C 4761   1.315   9.731   3.364  1.1290 -0.0595 -0.1448
  760MOL0     C 4762   1.305   9.882   3.348 -0.1810  0.4436 -0.3288
  760MOL0     C 4763   1.203   9.932   3.247  0.8397  0.3153 -0.1941
  760MOL0     C 4764   1.223   9.878   3.112  0.1930  0.1370  0.4326
  760MOL0     C 4765   1.112   9.922   3.018 -0.1666 -1.0053 -0.6831
  760MOL0     O 4766   1.126   9.838   2.906 -0.6294 -0.3453  0.9469
  760MOL0     C 4767   1.132   9.922   2.798  0.6534 -0.8307 -0.0497
  760MOL0     C 4768   1.250   9.949   2.742  0.2198  0.0467  0.2582
  760MOL0     C 4769   1.271  10.043   2.643  0.7216  0.1712  0.6580
  760MOL0     C 4770   1.412  10.042   2.589 -0.4128  0.1663  0.6834
  760MOL0     C 4771   1.164  10.125   2.590  0.5842  0.1072 -1.0053
  760MOL0     C 4772   1.176  10.215   2.471  0.1007  0.0802 -0.1734
  760MOL0     O 4773   1.057  10.256   2.404  0.3341 -0.0143 -0.7309
  760MOL0     C 4774   1.049  10.345   2.300 -0.6316  0.0805  0.4489
  760MOL0     C 4775   1.148  10.361   2.204  0.2716 -0.4794  0.4456
  760MOL0     C 4776   1.136  10.465   2.105 -0.7337 -0.1061  0.7165
  760MOL0     C 4777   1.017  10.538   2.096 -0.2011 -0.2219  0.5448
  760MOL0     O 4778   1.010  10.623   1.985 -0.7468  0.3448 -0.2154
  760MOL0     C 4779   0.888  10.688   1.943  0.2219  0.5282  0.0089
  760MOL0     C 4780   0.926  10.762   1.828 -0.3308  0.2045  0.0261
  760MOL0     C 4781   0.851  10.895   1.808 -0.4106 -0.9854  0.2886
  760MOL0     C 4782   0.935  10.978   1.703  0.2228  0.5059  0.0068
  760MOL0     C 4783   0.849  11.096   1.678  0.2486 -0.4351  0.6713
  760MOL0     C 4784   0.908  11.204   1.588  0.6960  1.2833 -0.3602
  760MOL0     C 4785   1.012  11.298   1.647  0.0734  0.4504  0.0310
  760MOL0     C 4786   1.024  11.437   1.582  0.3734  0.1761 -0.2886
  760MOL0    Cl 4787   1.096  11.450   1.428 -0.0539 -0.7053  0.3185
  760MOL0     C 4788   0.914  10.514   2.184 -0.5604  0.8517 -0.5351
  760MOL0     C 4789   0.931  10.420   2.299 -0.0052 -0.4411  0.4416
  760MOL0     O 4790   1.289  10.250   2.449  0.1834  0.3891 -0.0679
  760MOL0     C 4791   1.034  10.098   2.643 -0.1196 -0.5144  0.2972
  760MOL0     C 4792   1.023   9.997   2.742 -0.7224 -0.2200 -0.5263
  760MOL0     N 4793   1.214   9.634   3.397  1.2303  0.0607  0.5400
  760MOL0     N 4794   1.258   9.520   3.423 -0.3333 -0.8540  0.6199
  760MOL0     C 4795   2.599   9.298   3.380 -0.6100  0.1606  0.6870
  760MOL0     C 4796   2.693   9.187   3.376 -0.6311  0.7034 -0.6191
  760MOL0     C 4797   2.855   8.770   3.420  0.5946  0.7730  0.1941
  760MOL0     C 4798   2.905   8.725   3.295  0.0587 -1.3878  0.1347
  760MOL0     C 4799   2.976   8.606   3.275 -0.5582 -0.3528 -0.4771
  760MOL0     C 4800   3.017   8.533   3.387 -0.0494  0.3775  0.3937
  760MOL0     O 4801   3.073   8.409   3.362  0.1322  0.0277  0.3401
  760MOL0     C 4802   3.211   8.412   3.339  0.5409  0.2670 -0.1862
  760MOL0     C 4803   3.271   8.270   3.313  0.2531  0.1995  0.2629
  760MOL0     C 4804   3.421   8.289   3.280 -0.4889 -0.3388 -0.4163
  760MOL0     C 4805   3.510   8.293   3.410  0.2919 -0.5063 -0.2900
  760MOL0     C 4806   3.654   8.317   3.381 -0.2866  0.3537  0.7538
  760MOL0     C 4807   3.775   8.333   3.351  0.6457 -0.2620 -0.0026
  760MOL0     C 4808   2.986   8.580   3.517  0.3027 -0.2430 -0.7095
  760MOL0     C 4809   2.905   8.689   3.528 -0.1232 -0.7079 -0.4530
  760MOL0     C 4810   2.882   8.723   3.671  0.2180  0.7319 -0.3684
  760MOL0     H 4811   2.498   8.969   3.203 -1.7671  0.3222  1.8014
  760MOL0     H 4812   2.364   9.155   3.183  0.7750  0.2040 -0.7741
  760MOL0     H 4813   2.222   9.273   3.395 -0.6624  0.3779  1.0030
  760MOL0     H 4814   2.214   9.313   3.219  0.7643 -0.7031  0.6560
  760MOL0     H 4815   2.182   9.530   3.429  3.1975  0.9821 -1.4341
  760MOL0     H 4816   2.164   9.532   3.252 -0.8174 -1.3900 -0.1933
  760MOL0     H 4817   1.950   9.528   3.304  1.3042  1.1804  1.9010
  760MOL0     H 4818   1.996   9.352   3.295 -1.8779  2.1524 -3.9374
  760MOL0     H 4819   2.017   9.317   3.527  2.9535  1.2220 -0.4876
  760MOL0     H 4820   1.997   9.482   3.561 -0.2909  0.6075 -1.4090
  760MOL0     H 4821   1.769   9.313   3.565 -1.7409  1.4529 -0.0334
  760MOL0     H 4822   1.782   9.337   3.392  1.9893 -0.2278  0.0197
  760MOL0     H 4823   1.780   9.563   3.586 -1.1468  1.6142  0.2151
  760MOL0     H 4824   1.738   9.570   3.409 -0.5958 -0.8390  0.2239
  760MOL0     H 4825   1.541   9.605   3.570  2.0591  1.1893 -0.9067
  760MOL0     H 4826   1.566   9.451   3.639  2.6364 -0.5112 -0.4522
  760MOL0     H 4827   1.551   9.431   3.343  1.8168 -0.5355  0.4813
  760MOL0     H 4828   1.460   9.348   3.474 -0.1868  1.0097  1.2405
  760MOL0     H 4829   1.535   9.683   3.336 -0.3311 -0.1720  0.4500
  760MOL0     H 4830   1.404   9.930   3.352 -0.6222  1.2911  2.3401
  760MOL0     H 4831   1.274   9.912   3.448 -0.8506 -1.7388  0.1787
  760MOL0     H 4832   1.110   9.896   3.292  2.3126 -1.6473  1.4887
  760MOL0     H 4833   1.204  10.041   3.241 -1.1996  0.3720 -0.0722
  760MOL0     H 4834   1.312   9.915   3.060 -2.9227  2.0645 -4.2936
  760MOL0     H 4835   1.230   9.769   3.117 -1.7159 -0.0036  5.2757
  760MOL0     H 4836   1.011   9.912   3.061 -0.1854  1.9278  0.2117
  760MOL0     H 4837   1.117  10.028   2.992 -3.7556 -0.2899  0.8380
  760MOL0     H 4838   1.328   9.889   2.786 -0.6890 -1.0303  0.4386
  760MOL0     H 4839   1.410  10.005   2.486  1.7999 -0.1583  0.6968
  760MOL0     H 4840   1.474   9.980   2.654 -0.9985  0.2377  1.3206
  760MOL0     H 4841   1.456  10.142   2.583 -1.5548  0.6098 -1.0096
  760MOL0     H 4842   1.232  10.292   2.200 -0.4998 -1.7114  3.0871
  760MOL0     H 4843   1.204  10.491   2.025 -1.4627 -2.1245 -0.6349
  760MOL0     H 4844   0.804  10.621   1.925 -0.9409  0.7548  3.6574
  760MOL0     H 4845   0.849  10.750   2.025 -3.2352  1.6545 -2.2777
  760MOL0     H 4846   1.029  10.791   1.847 -0.2684  0.3096 -0.4405
  760MOL0     H 4847   0.941  10.702   1.737  1.2844 -0.7465  0.8891
  760MOL0     H 4848   0.858  10.953   1.901  2.2315 -2.3611  1.0424
  760MOL0     H 4849   0.746  10.887   1.779 -0.9168  0.7478  1.4726
  760MOL0     H 4850   0.941  10.920   1.611  0.4672 -1.7367  1.3580
  760MOL0     H 4851   1.036  11.003   1.736 -0.1078  4.0479 -1.2553
  760MOL0     H 4852   0.761  11.051   1.631  0.9554 -1.5978  0.4397
  760MOL0     H 4853   0.831  11.153   1.770  2.4421  2.2150 -0.3844
  760MOL0     H 4854   0.828  11.259   1.536 -2.6460 -1.9614  0.8962
  760MOL0     H 4855   0.954  11.150   1.505  2.1862  3.4922 -1.0635
  760MOL0     H 4856   1.105  11.241   1.645  0.8363  1.6661 -0.2385
  760MOL0     H 4857   0.993  11.306   1.755 -1.9715  1.0818 -0.3254
  760MOL0     H 4858   1.079  11.494   1.658  0.4402 -1.0535  0.6063
  760MOL0     H 4859   0.924  11.479   1.567  0.3180 -0.0351 -0.5163
  760MOL0     H 4860   0.832  10.584   2.171  0.0459  1.7456  0.3777
  760MOL0     H 4861   0.851  10.397   2.368  0.6183  0.1419  1.3926
  760MOL0     H 4862   0.944  10.146   2.605  0.9356  2.0767  0.8241
  760MOL0     H 4863   0.927   9.991   2.792  1.1453  1.8907  3.7903
  760MOL0     H 4864   2.628   9.394   3.422 -1.6019 -0.0506  1.8835
  760MOL0     H 4865   2.792   9.206   3.415 -0.5533  0.8008 -0.8655
  760MOL0     H 4866   2.885   8.784   3.207  2.0861 -0.9606 -0.1019
  760MOL0     H 4867   2.996   8.573   3.174  0.9887 -1.1487  0.0353
  760MOL0     H 4868   3.239   8.474   3.253 -0.3002 -1.5660 -1.8433
  760MOL0     H 4869   3.246   8.440   3.438 -0.0499 -0.6776  0.3014
  760MOL0     H 4870   3.222   8.230   3.224 -2.4812  2.7018  0.5225
  760MOL0     H 4871   3.255   8.204   3.399 -1.3190  0.7867  0.4441
  760MOL0     H 4872   3.446   8.201   3.220 -0.7121 -0.7421  0.0818
  760MOL0     H 4873   3.442   8.376   3.217 -3.8782  1.3887  0.5828
  760MOL0     H 4874   3.500   8.199   3.465  2.3164 -0.5643  0.0761
  760MOL0     H 4875   3.469   8.378   3.465  1.4134  1.5095 -2.3845
  760MOL0     H 4876   3.879   8.346   3.329  0.7095  1.9606  1.3405
  760MOL0     H 4877   3.023   8.534   3.608 -0.0584 -0.1903 -0.5367
  760MOL0     H 4878   2.950   8.806   3.695  2.5474 -1.7204  2.1378
  760MOL0     H 4879   2.779   8.751   3.696  0.3009  1.3270 -0.6740
  760MOL0     H 4880   2.914   8.640   3.734 -0.7412  0.1331 -0.6455
  761MOL0     O 4881   4.315  11.450   1.801 -0.0506 -0.7931 -0.4123
  761MOL0     C 4882   4.253  11.390   1.718 -0.6536  0.0176 -0.6079
  761MOL0     O 4883   4.251  11.418   1.575  0.4292 -0.5092  0.6495
  761MOL0     C 4884   4.297  11.546   1.540  0.3478 -0.0005 -0.8339
  761MOL0     C 4885   4.271  11.678   1.590  0.1683 -0.2495 -0.7295
  761MOL0     C 4886   4.309  11.787   1.514 -0.4331 -0.0401  0.4005
  761MOL0     C 4887   4.380  11.766   1.402 -0.5871 -0.8202  0.3044
  761MOL0     O 4888   4.417  11.878   1.331  0.0380 -0.6354 -0.8361
  761MOL0     C 4889   4.487  11.846   1.210  0.4371  0.3519  0.6969
  761MOL0     C 4890   4.544  11.986   1.169  0.5732 -0.8577  0.9585
  761MOL0     C 4891   4.623  11.983   1.038  0.2302  0.3394 -0.7881
  761MOL0     C 4892   4.642  12.116   0.972 -0.1301 -0.9985 -0.2602
  761MOL0     C 4893   4.512  12.153   0.892 -0.8427 -0.5766  0.8574
  761MOL0     C 4894   4.479  12.050   0.778 -0.6680  0.3369  0.0478
  761MOL0     C 4895   4.342  12.081   0.708  0.3306  0.3777 -0.1032
  761MOL0     C 4896   4.230  11.975   0.725  0.4225  0.0894 -0.7990
  761MOL0     N 4897   4.222  11.897   0.602  0.0899  0.5868 -0.5451
  761MOL0     C 4898   4.133  11.935   0.509  0.4304  0.3732  0.7774
  761MOL0     C 4899   4.104  11.830   0.434 -0.2578  0.7007  0.2830
  761MOL0     C 4900   4.024  11.832   0.313 -0.1224 -0.4938 -0.7655
  761MOL0     C 4901   3.880  11.805   0.353 -1.6061 -0.0743  0.2060
  761MOL0     C 4902   3.776  11.829   0.244  0.3986  0.0627 -0.8823
  761MOL0     C 4903   3.627  11.831   0.296 -0.0635 -0.1387  0.0544
  761MOL0     O 4904   3.537  11.800   0.190 -0.1190 -0.0997 -0.1012
  761MOL0     C 4905   3.478  11.896   0.107 -0.3488 -0.8972  0.3753
  761MOL0     C 4906   3.453  12.030   0.145  0.4977  0.1547 -0.6439
  761MOL0     C 4907   3.376  12.119   0.057  0.0944  0.5240 -0.0116
  761MOL0     C 4908   3.334  12.246   0.112  0.7006  1.1973  0.1476
  761MOL0     C 4909   3.321  12.065  -0.065 -0.5733 -0.0469  0.0832
  761MOL0     C 4910   3.226  12.134  -0.158 -0.4282 -0.0637 -0.2122
  761MOL0     O 4911   3.218  12.085  -0.286 -0.5512 -0.1409 -1.0131
  761MOL0     C 4912   3.111  12.124  -0.353 -0.2804 -0.2917  0.4184
  761MOL0     C 4913   2.976  12.093  -0.313  0.5219 -0.3867 -0.1659
  761MOL0     C 4914   2.869  12.107  -0.407 -0.1375 -0.3512 -0.1697
  761MOL0     C 4915   2.889  12.168  -0.529  0.3938  0.3056 -0.4578
  761MOL0     O 4916   2.779  12.208  -0.603  0.2460 -0.1995 -0.6916
  761MOL0     C 4917   2.795  12.273  -0.726 -0.3679 -0.7666  0.4422
  761MOL0     C 4918   2.669  12.356  -0.765  0.6026 -0.1334 -0.4684
  761MOL0     C 4919   2.664  12.482  -0.685 -0.1502 -0.9513  0.0706
  761MOL0     C 4920   2.540  12.557  -0.694 -0.5114  0.0469 -0.8139
  761MOL0     C 4921   2.529  12.695  -0.636 -0.3185 -0.9440  0.1954
  761MOL0     C 4922   2.585  12.718  -0.490  0.9315 -0.4188  0.6684
  761MOL0     C 4923   2.562  12.868  -0.447  0.1526 -0.3093 -0.6997
  761MOL0     C 4924   2.432  12.939  -0.483 -0.4817  0.3950  0.0969
  761MOL0    Cl 4925   2.290  12.847  -0.449 -0.4108 -0.0182 -0.0978
  761MOL0     C 4926   3.020  12.198  -0.571  0.2977  0.4014  0.7866
  761MOL0     C 4927   3.128  12.165  -0.487  0.2270 -0.7944 -1.6094
  761MOL0     O 4928   3.156  12.224  -0.115 -0.9813 -0.5153 -0.1733
  761MOL0     C 4929   3.357  11.931  -0.101  0.6665  0.2896  0.7043
  761MOL0     C 4930   3.424  11.851  -0.011  0.7147  0.1235 -0.2826
  761MOL0     N 4931   4.186  11.727   0.478  0.2562 -0.0652 -0.2601
  761MOL0     N 4932   4.255  11.766   0.585  0.4455  0.2607 -0.0469
  761MOL0     C 4933   4.411  11.635   1.358 -0.1317  0.7474  0.0809
  761MOL0     C 4934   4.376  11.527   1.423 -0.7761 -0.3890 -0.4516
  761MOL0     C 4935   4.182  11.266   1.761  0.2541  0.6206  0.1152
  761MOL0     C 4936   4.144  11.163   1.661  0.3958 -1.5105 -0.5268
  761MOL0     C 4937   4.078  11.049   1.692  0.5145 -0.7569  0.8266
  761MOL0     C 4938   4.026  11.025   1.815  1.0052  0.3735 -0.3386
  761MOL0     O 4939   3.937  10.918   1.835 -0.3352  0.2860  0.4499
  761MOL0     C 4940   3.973  10.795   1.766 -0.1538  0.7332  0.3678
  761MOL0     C 4941   3.951  10.676   1.863  0.6420 -0.4390 -1.5022
  761MOL0     C 4942   3.945  10.544   1.792 -0.1377 -0.0639 -0.0745
  761MOL0     C 4943   3.826  10.524   1.697 -0.7507  0.1019 -0.0097
  761MOL0     C 4944   3.703  10.582   1.750  0.1994 -0.8195 -0.5549
  761MOL0     C 4945   3.593  10.629   1.777 -0.5688 -0.0366 -0.5379
  761MOL0     C 4946   4.057  11.117   1.911 -0.0325 -1.1366 -0.1494
  761MOL0     C 4947   4.142  11.232   1.892  0.4470 -0.3950 -0.8069
  761MOL0     C 4948   4.168  11.319   2.008 -0.9862 -0.0832 -0.3305
  761MOL0     H 4949   4.215  11.703   1.680 -0.4270 -2.8491 -0.3121
  761MOL0     H 4950   4.294  11.883   1.561 -0.1971 -0.5292  1.5137
  761MOL0     H 4951   4.430  11.809   1.125  0.8152 -1.0908  1.0389
  761MOL0     H 4952   4.580  11.789   1.215 -0.6911 -1.7541 -0.8655
  761MOL0     H 4953   4.457  12.051   1.159  1.6400  0.2627 -1.8403
  761MOL0     H 4954   4.612  12.025   1.246  1.7988 -1.5674  0.2628
  761MOL0     H 4955   4.719  11.936   1.062  0.1909  1.3118  1.5141
  761MOL0     H 4956   4.572  11.910   0.974 -1.9681 -1.9860  3.2556
  761MOL0     H 4957   4.656  12.195   1.045  2.5098 -1.1583 -0.4860
  761MOL0     H 4958   4.734  12.109   0.911  0.5786  0.6930  0.5448
  761MOL0     H 4959   4.541  12.239   0.830  0.5061 -2.2156 -0.9308
  761MOL0     H 4960   4.423  12.162   0.954 -0.3933  0.4796  1.3649
  761MOL0     H 4961   4.561  12.048   0.707 -0.1882 -0.5879  0.6093
  761MOL0     H 4962   4.467  11.944   0.801 -2.7256  0.6748  0.7852
  761MOL0     H 4963   4.362  12.106   0.603 -1.3966  3.5199  0.2078
  761MOL0     H 4964   4.307  12.170   0.761  3.0911  0.8079  1.2067
  761MOL0     H 4965   4.253  11.907   0.807 -0.6013 -1.4862 -1.7673
  761MOL0     H 4966   4.139  12.032   0.748  2.8007  3.3264  1.5549
  761MOL0     H 4967   4.088  12.033   0.496  5.5192  2.6703 -2.5605
  761MOL0     H 4968   4.055  11.768   0.230  1.7927 -2.0516  1.0354
  761MOL0     H 4969   4.032  11.932   0.268  2.3273  1.8516  4.0650
  761MOL0     H 4970   3.868  11.704   0.393 -4.0938  0.0657 -0.0229
  761MOL0     H 4971   3.863  11.880   0.432  0.0509 -1.9552  2.5104
  761MOL0     H 4972   3.779  11.925   0.192  0.3551 -0.0094 -1.0192
  761MOL0     H 4973   3.780  11.742   0.178 -1.6811  0.2499 -1.3408
  761MOL0     H 4974   3.612  11.763   0.380  0.9239 -3.1524 -2.0654
  761MOL0     H 4975   3.617  11.933   0.336 -0.1659 -0.0864 -0.1015
  761MOL0     H 4976   3.474  12.074   0.242 -3.1818  0.2681  0.2680
  761MOL0     H 4977   3.376  12.260   0.212  0.1229 -0.7864  0.7166
  761MOL0     H 4978   3.227  12.244   0.133  0.2552  2.0398 -1.8616
  761MOL0     H 4979   3.357  12.326   0.042 -1.7102  1.3912 -0.5050
  761MOL0     H 4980   2.954  12.060  -0.212 -1.3412 -2.5447 -1.1855
  761MOL0     H 4981   2.769  12.089  -0.367 -0.7528 -0.4713 -1.6957
  761MOL0     H 4982   2.888  12.330  -0.736  0.9075 -2.9569 -0.8040
  761MOL0     H 4983   2.809  12.190  -0.795  0.2446 -2.9064  2.9951
  761MOL0     H 4984   2.665  12.375  -0.873 -2.2039  4.1119  0.1305
  761MOL0     H 4985   2.579  12.297  -0.743  0.2178  1.0132  1.1760
  761MOL0     H 4986   2.747  12.546  -0.716 -3.3140  0.9681 -6.1119
  761MOL0     H 4987   2.677  12.460  -0.579 -1.6014  1.5700  0.8772
  761MOL0     H 4988   2.463  12.497  -0.646  0.1229 -1.1690 -1.2589
  761MOL0     H 4989   2.511  12.565  -0.799 -0.2082  1.2935 -0.8239
  761MOL0     H 4990   2.589  12.757  -0.704 -1.8521 -0.3690 -0.6675
  761MOL0     H 4991   2.423  12.722  -0.640 -0.5233 -1.5563  1.2162
  761MOL0     H 4992   2.690  12.692  -0.478  1.5782  2.2862  1.5358
  761MOL0     H 4993   2.533  12.647  -0.424  0.7619 -0.4090  0.5491
  761MOL0     H 4994   2.648  12.923  -0.488  1.1034 -2.1840 -1.3545
  761MOL0     H 4995   2.559  12.862  -0.338 -3.4551  0.3665 -0.6460
  761MOL0     H 4996   2.440  12.961  -0.590 -2.8688  3.3410  0.3578
  761MOL0     H 4997   2.420  13.033  -0.429  2.2194  1.0122 -0.2369
  761MOL0     H 4998   3.046  12.234  -0.670 -1.2965  0.0938  0.2162
  761MOL0     H 4999   3.225  12.177  -0.534  0.1470 -0.7408 -1.7610
  761MOL0     H 5000   3.323  11.894  -0.197 -0.6071  2.5659  0.2221
  761MOL0     H 5001   3.446  11.756  -0.060  1.3382 -0.5749  1.2997
  761MOL0     H 5002   4.457  11.621   1.260 -1.2585  2.8272 -0.8088
  761MOL0     H 5003   4.398  11.426   1.392 -1.3419 -0.6076 -0.1688
  761MOL0     H 5004   4.165  11.183   1.556 -1.0309  0.3607 -0.5124
  761MOL0     H 5005   4.048  10.979   1.614  1.1993 -3.7544  3.0991
  761MOL0     H 5006   3.903  10.785   1.682  1.2304 -1.4274 -0.6140
  761MOL0     H 5007   4.074  10.799   1.724  0.1904  1.5792  1.2347
  761MOL0     H 5008   3.859  10.692   1.921  2.8746 -1.6388  2.8404
  761MOL0     H 5009   4.026  10.663   1.941 -1.0602 -2.4870 -0.0773
  761MOL0     H 5010   4.040  10.527   1.739 -0.6245  2.9535 -2.2063
  761MOL0     H 5011   3.946  10.464   1.865 -0.2130 -1.4982 -1.5786
  761MOL0     H 5012   3.805  10.419   1.673 -0.1669  0.2102 -1.0477
  761MOL0     H 5013   3.845  10.570   1.600  1.0081  1.7881  1.0507
  761MOL0     H 5014   3.499  10.676   1.797 -0.8831 -0.8107 -0.1757
  761MOL0     H 5015   4.018  11.087   2.008 -2.2941  0.1983 -0.5760
  761MOL0     H 5016   4.130  11.419   1.988  0.3155  1.0522  2.4761
  761MOL0     H 5017   4.130  11.272   2.099  5.0710 -0.6767  2.3833
  761MOL0     H 5018   4.276  11.326   2.023 -0.8885 -2.3732  0.5446
  762MOL0     O 5019   4.486   6.473   9.505 -0.1072 -0.0086  0.2527
  762MOL0     C 5020   4.588   6.414   9.526  0.4523 -1.1288 -0.1889
  762MOL0     O 5021   4.696   6.470   9.588  1.2108 -0.6577 -0.1890
  762MOL0     C 5022   4.696   6.607   9.591 -0.0921 -0.2249 -0.6800
  762MOL0     C 5023   4.682   6.681   9.712 -0.5676  0.9050 -0.2553
  762MOL0     C 5024   4.707   6.811   9.718  0.4690  0.1419 -0.4437
  762MOL0     C 5025   4.762   6.875   9.603 -0.1294 -0.7977  0.5592
  762MOL0     O 5026   4.790   7.006   9.613  0.7144 -0.6809  0.2531
  762MOL0     C 5027   4.867   7.077   9.514 -0.6066  1.0609  0.2117
  762MOL0     C 5028   4.897   7.220   9.561  0.0681 -0.8513 -0.7426
  762MOL0     C 5029   4.773   7.314   9.533  0.6160 -1.2269 -0.6690
  762MOL0     C 5030   4.822   7.459   9.490  0.9015 -0.0797 -0.2478
  762MOL0     C 5031   4.721   7.567   9.524 -0.8366  0.6629  0.9468
  762MOL0     C 5032   4.802   7.696   9.488 -0.2357  0.5085  0.3123
  762MOL0     C 5033   4.720   7.824   9.529 -0.3071 -1.2801  0.2692
  762MOL0     C 5034   4.803   7.959   9.519 -0.0663 -0.8581  0.3511
  762MOL0     N 5035   4.739   8.069   9.595  0.3576  0.7328  0.4340
  762MOL0     C 5036   4.757   8.078   9.733 -1.0905  0.0416  0.9650
  762MOL0     C 5037   4.685   8.186   9.763  0.5477  0.5092  0.0339
  762MOL0     C 5038   4.678   8.221   9.909  0.3985  0.0937  0.0615
  762MOL0     C 5039   4.716   8.367   9.942 -0.7833 -0.2460  0.7020
  762MOL0     C 5040   4.869   8.394   9.946 -0.8009  0.1818  0.6687
  762MOL0     C 5041   4.897   8.541   9.966  0.2604 -0.4995 -0.2222
  762MOL0     O 5042   5.038   8.565   9.970  0.3801  0.5859  0.5474
  762MOL0     C 5043   5.077   8.672  10.039 -0.1993 -1.7089 -0.3633
  762MOL0     C 5044   5.179   8.652  10.134  0.9838  1.2074 -0.5535
  762MOL0     C 5045   5.212   8.758  10.223 -0.0311  0.3686  0.4429
  762MOL0     C 5046   5.291   8.725  10.351 -0.3775 -0.6706 -0.8025
  762MOL0     C 5047   5.163   8.889  10.207 -0.0229  0.3277 -0.2172
  762MOL0     C 5048   5.212   9.009  10.285 -1.2764 -0.0641 -0.7343
  762MOL0     O 5049   5.334   9.005  10.345 -0.1660 -0.2565  0.4702
  762MOL0     C 5050   5.349   9.097  10.453 -0.4564 -0.0130 -1.3861
  762MOL0     C 5051   5.273   9.084  10.576 -0.5418 -1.0943  0.1464
  762MOL0     C 5052   5.284   9.187  10.672 -0.2380 -0.3786  0.8626
  762MOL0     C 5053   5.379   9.290  10.649 -0.2948  0.4222  0.8055
  762MOL0     O 5054   5.397   9.391  10.737  1.1896 -0.2044  0.3264
  762MOL0     C 5055   5.273   9.447  10.788 -0.4667 -0.0636 -0.1427
  762MOL0     C 5056   5.263   9.599  10.776  0.9626  0.5888  0.0509
  762MOL0     C 5057   5.149   9.654  10.860 -0.9180  0.5783 -0.1424
  762MOL0     C 5058   5.006   9.612  10.832 -0.2438  1.0571  0.5833
  762MOL0     C 5059   4.914   9.663  10.946  0.1063 -0.6342  1.0054
  762MOL0     C 5060   4.870   9.805  10.905  0.3584  0.1379 -0.0947
  762MOL0     C 5061   4.769   9.874  11.004 -0.2068 -0.7114 -0.3211
  762MOL0     C 5062   4.807   9.885  11.154 -0.0535 -0.3970 -0.3241
  762MOL0    Cl 5063   4.982   9.939  11.156 -0.3420 -0.3753 -0.0764
  762MOL0     C 5064   5.468   9.280  10.544  0.6837 -0.7552 -1.2266
  762MOL0     C 5065   5.449   9.196  10.447 -0.1623  1.1635  0.0286
  762MOL0     O 5066   5.150   9.110  10.284  0.0652 -0.7590 -0.6987
  762MOL0     C 5067   5.063   8.905  10.115 -0.0361 -0.3034  0.6554
  762MOL0     C 5068   5.031   8.805  10.022 -0.0932  0.7373  0.2027
  762MOL0     N 5069   4.606   8.226   9.663  0.2530 -0.2713 -0.4472
  762MOL0     N 5070   4.649   8.162   9.561  0.9514  0.1985  0.0726
  762MOL0     C 5071   4.774   6.809   9.480  1.0504 -0.1918 -0.2203
  762MOL0     C 5072   4.738   6.673   9.473 -0.5833 -0.4819 -0.8119
  762MOL0     C 5073   4.599   6.275   9.492  0.0485  0.2893  0.4409
  762MOL0     C 5074   4.713   6.227   9.433 -0.2224 -0.9447  0.2673
  762MOL0     C 5075   4.724   6.089   9.392  0.4497 -0.7212  0.2349
  762MOL0     C 5076   4.616   6.002   9.413 -0.1161 -0.2983  0.3203
  762MOL0     O 5077   4.600   5.874   9.370  0.1765 -0.2472  0.6247
  762MOL0     C 5078   4.704   5.807   9.302  0.1758  0.2275  0.7682
  762MOL0     C 5079   4.716   5.818   9.147 -0.3559  0.0067 -0.0450
  762MOL0     C 5080   4.824   5.735   9.080 -0.4858 -0.3844  0.2261
  762MOL0     C 5081   4.863   5.773   8.936  0.1444 -0.7013 -0.0589
  762MOL0     C 5082   4.763   5.726   8.838 -0.4322 -0.6512  0.6945
  762MOL0     C 5083   4.665   5.715   8.769 -1.0384 -0.7373 -0.1827
  762MOL0     C 5084   4.511   6.050   9.481  0.5658  0.2990  0.3629
  762MOL0     C 5085   4.500   6.187   9.521  0.5826  0.3367  0.4363
  762MOL0     C 5086   4.368   6.221   9.578  1.4056  0.1965  0.0290
  762MOL0     H 5087   4.631   6.639   9.799 -1.2523 -1.6534 -1.7838
  762MOL0     H 5088   4.702   6.871   9.808  0.4422  0.5620 -0.7202
  762MOL0     H 5089   4.817   7.078   9.417  1.4292  3.0734 -0.9085
  762MOL0     H 5090   4.963   7.034   9.484  0.5025  3.9753 -0.7631
  762MOL0     H 5091   4.903   7.223   9.670 -1.7875 -0.3969 -0.6223
  762MOL0     H 5092   4.983   7.274   9.520 -0.3342  1.1646  0.9008
  762MOL0     H 5093   4.695   7.282   9.463 -2.0220  0.2269  1.4316
  762MOL0     H 5094   4.710   7.331   9.621 -2.0707  2.1636 -2.9535
  762MOL0     H 5095   4.915   7.484   9.542  0.8820 -0.5560  0.0195
  762MOL0     H 5096   4.830   7.466   9.382 -2.0499 -0.8134 -0.6033
  762MOL0     H 5097   4.700   7.560   9.631 -2.2249  2.1864  0.8188
  762MOL0     H 5098   4.633   7.545   9.463  0.4624 -2.7245  0.0816
  762MOL0     H 5099   4.897   7.693   9.542  0.5588 -0.2393 -1.0741
  762MOL0     H 5100   4.820   7.700   9.380  0.2917 -0.5505  0.3491
  762MOL0     H 5101   4.682   7.805   9.629  0.1154 -2.0685  0.2849
  762MOL0     H 5102   4.639   7.828   9.455  1.3698 -2.6817 -1.7607
  762MOL0     H 5103   4.910   7.943   9.538 -0.5194 -0.5718  3.9306
  762MOL0     H 5104   4.787   7.988   9.415 -0.1328 -0.7086  0.4023
  762MOL0     H 5105   4.828   8.015   9.786  1.7326  2.2694  0.1096
  762MOL0     H 5106   4.737   8.154   9.973  0.5901  0.7249  0.5551
  762MOL0     H 5107   4.573   8.206   9.934  0.2318  1.2300  0.0700
  762MOL0     H 5108   4.671   8.422   9.859 -0.3335  0.4607  0.9136
  762MOL0     H 5109   4.684   8.401  10.041  2.3180  2.1580  1.0335
  762MOL0     H 5110   4.919   8.346  10.031  0.3076  1.9723  1.0929
  762MOL0     H 5111   4.917   8.362   9.853 -0.4192 -0.0443  0.9380
  762MOL0     H 5112   4.838   8.591   9.889  1.2724 -0.4279 -0.9756
  762MOL0     H 5113   4.860   8.576  10.063  1.4299 -3.0870  1.2608
  762MOL0     H 5114   5.221   8.553  10.147  0.2121  0.9243 -0.0946
  762MOL0     H 5115   5.297   8.616  10.360  1.6817 -0.4263  2.1778
  762MOL0     H 5116   5.227   8.759  10.432 -0.6923 -4.1554  0.5751
  762MOL0     H 5117   5.395   8.757  10.343 -1.2768  2.2457 -2.2801
  762MOL0     H 5118   5.210   8.997  10.589  0.2167 -1.8841 -1.1314
  762MOL0     H 5119   5.223   9.191  10.762 -0.6902 -0.6230  0.5713
  762MOL0     H 5120   5.193   9.405  10.727  2.5678 -2.5790 -2.7089
  762MOL0     H 5121   5.261   9.416  10.892 -1.2885  0.6888  0.0079
  762MOL0     H 5122   5.353   9.646  10.816  1.0334 -1.2789  2.2655
  762MOL0     H 5123   5.241   9.624  10.672 -1.3177  0.7589  0.5088
  762MOL0     H 5124   5.166   9.761  10.873  1.6243 -0.1164  4.1859
  762MOL0     H 5125   5.167   9.605  10.956 -1.2882  0.3245 -0.2016
  762MOL0     H 5126   5.012   9.504  10.847 -0.7551  1.2805  2.5753
  762MOL0     H 5127   4.971   9.623  10.729 -0.4012 -1.4349  0.3097
  762MOL0     H 5128   4.823   9.603  10.956 -1.9020  1.4489 -2.5974
  762MOL0     H 5129   4.973   9.663  11.038 -0.2441 -0.0520  1.2369
  762MOL0     H 5130   4.828   9.805  10.803  2.2287 -0.7481 -0.9091
  762MOL0     H 5131   4.959   9.868  10.906  0.8256 -0.4992 -0.4906
  762MOL0     H 5132   4.680   9.811  11.001  0.3445 -1.6404  1.4733
  762MOL0     H 5133   4.748   9.964  10.945  0.6377  0.5042  1.1502
  762MOL0     H 5134   4.788   9.795  11.214 -0.5549  0.5336  0.9761
  762MOL0     H 5135   4.744   9.966  11.194 -1.2444 -0.4487 -2.0024
  762MOL0     H 5136   5.549   9.352  10.545  0.7777 -0.8354  0.7829
  762MOL0     H 5137   5.498   9.204  10.350  0.5695  2.5671  0.4985
  762MOL0     H 5138   5.008   8.996  10.092 -1.8299 -0.7919  2.6431
  762MOL0     H 5139   4.949   8.820   9.953  0.3461  2.1543 -0.0396
  762MOL0     H 5140   4.798   6.867   9.391 -0.2201  0.9002  0.1265
  762MOL0     H 5141   4.747   6.610   9.385  0.2708  1.2823 -2.0541
  762MOL0     H 5142   4.799   6.286   9.402 -1.2361  1.7015  2.0865
  762MOL0     H 5143   4.821   6.053   9.358  0.5854  1.7398 -2.2602
  762MOL0     H 5144   4.802   5.825   9.348  1.7515  1.3864 -2.6964
  762MOL0     H 5145   4.680   5.701   9.314  1.6516 -0.1333  0.8204
  762MOL0     H 5146   4.742   5.922   9.126 -0.5147 -0.5549 -3.4976
  762MOL0     H 5147   4.617   5.795   9.105 -0.2908  0.5523 -0.5048
  762MOL0     H 5148   4.913   5.759   9.141 -0.9556  0.8730  0.4594
  762MOL0     H 5149   4.809   5.627   9.080 -0.3791 -0.4652 -2.6833
  762MOL0     H 5150   4.959   5.731   8.907  0.8775  1.8062 -1.5518
  762MOL0     H 5151   4.867   5.882   8.925  0.3913 -0.7628 -0.6403
  762MOL0     H 5152   4.572   5.715   8.715 -0.6455 -0.7750 -0.8809
  762MOL0     H 5153   4.420   5.991   9.489  0.6256  0.2446  0.6655
  762MOL0     H 5154   4.333   6.143   9.647  0.0350  1.6765  1.0974
  762MOL0     H 5155   4.368   6.310   9.642  3.3010  0.7285 -0.6700
  762MOL0     H 5156   4.294   6.247   9.502 -0.6560 -0.2318  1.7889
  763MOL0     O 5157   8.410   4.499   1.057 -0.2239 -0.3769 -0.1035
  763MOL0     C 5158   8.363   4.491   1.169 -0.7901  1.0455  0.1123
  763MOL0     O 5159   8.254   4.561   1.214  0.3176 -0.2542 -0.4755
  763MOL0     C 5160   8.201   4.672   1.151  0.5025  0.4371 -0.3019
  763MOL0     C 5161   8.199   4.794   1.223 -0.5195  0.3202  0.5824
  763MOL0     C 5162   8.139   4.910   1.168 -0.6521 -0.1579  0.4676
  763MOL0     C 5163   8.075   4.908   1.042 -0.7079 -0.2181 -0.3719
  763MOL0     O 5164   8.023   5.021   0.975  0.5521  0.6724  0.5885
  763MOL0     C 5165   7.895   5.067   1.031  0.0914  0.0902 -0.0012
  763MOL0     C 5166   7.803   5.134   0.926 -0.3873 -0.1996 -0.3507
  763MOL0     C 5167   7.707   5.236   0.981  0.1501 -0.9058 -1.0032
  763MOL0     C 5168   7.610   5.280   0.859 -0.5952 -0.2360 -0.0267
  763MOL0     C 5169   7.480   5.344   0.898  0.5780 -0.4005  0.1448
  763MOL0     C 5170   7.371   5.238   0.912  1.1645  0.0292  0.0881
  763MOL0     C 5171   7.258   5.280   1.009  0.1056  0.2358 -0.4212
  763MOL0     C 5172   7.147   5.368   0.936 -0.4065 -0.6781 -0.1636
  763MOL0     N 5173   7.020   5.296   0.898  0.8607  1.3481 -0.0565
  763MOL0     C 5174   7.011   5.192   0.807  0.1085  0.4714 -0.3770
  763MOL0     C 5175   6.870   5.170   0.784 -1.3233 -0.5871 -1.1277
  763MOL0     C 5176   6.828   5.087   0.664 -0.6022 -0.0086 -0.6526
  763MOL0     C 5177   6.783   4.940   0.690 -0.8207 -0.0611  0.1782
  763MOL0     C 5178   6.857   4.882   0.815 -0.1708 -0.1368 -0.3543
  763MOL0     C 5179   6.805   4.739   0.856  1.2527 -0.1967 -1.0426
  763MOL0     O 5180   6.846   4.690   0.981  0.1719 -0.1081 -0.7016
  763MOL0     C 5181   6.976   4.708   1.007  0.4765 -0.2205 -0.6370
  763MOL0     C 5182   7.079   4.695   0.912  0.2813 -0.5871 -0.2804
  763MOL0     C 5183   7.213   4.751   0.931 -0.4887 -0.9576 -0.4153
  763MOL0     C 5184   7.317   4.717   0.820  0.0777  0.3997 -0.0456
  763MOL0     C 5185   7.246   4.794   1.061  0.3114 -0.5974  0.1330
  763MOL0     C 5186   7.365   4.871   1.095 -0.1204 -0.0926  0.3055
  763MOL0     O 5187   7.361   4.950   1.201  0.3795 -0.0717  0.3968
  763MOL0     C 5188   7.478   4.994   1.259 -0.0096  0.0787 -0.7521
  763MOL0     C 5189   7.603   4.921   1.280  0.3705 -0.0939 -0.1245
  763MOL0     C 5190   7.711   4.986   1.338  0.7328  0.9824 -0.7212
  763MOL0     C 5191   7.704   5.113   1.389  0.0180  0.1251  0.7626
  763MOL0     O 5192   7.813   5.163   1.465 -0.6551  0.8457  0.8627
  763MOL0     C 5193   7.942   5.100   1.450 -0.5577  0.8503 -0.3663
  763MOL0     C 5194   8.053   5.171   1.528 -0.3760  0.1191  0.7669
  763MOL0     C 5195   8.191   5.108   1.520  0.6754  0.2104  0.7755
  763MOL0     C 5196   8.279   5.171   1.625  0.5657  0.0370  0.3586
  763MOL0     C 5197   8.411   5.105   1.628 -0.7235 -0.5074  0.6656
  763MOL0     C 5198   8.508   5.198   1.557 -0.5668 -0.6168 -0.5021
  763MOL0     C 5199   8.574   5.289   1.671  0.9042 -0.1851  0.6925
  763MOL0     C 5200   8.664   5.408   1.627 -1.0856 -0.0303 -0.0587
  763MOL0    Cl 5201   8.697   5.502   1.773  0.3475 -0.0624  0.1848
  763MOL0     C 5202   7.578   5.183   1.373  0.1095 -0.2460 -0.0787
  763MOL0     C 5203   7.469   5.126   1.299 -0.6573 -0.9543 -0.5094
  763MOL0     O 5204   7.462   4.856   1.022 -0.0565 -0.6444 -0.2202
  763MOL0     C 5205   7.138   4.788   1.163 -0.1780 -0.5262  0.1609
  763MOL0     C 5206   7.013   4.756   1.130  0.6073  0.2608 -0.0520
  763MOL0     N 5207   6.807   5.261   0.864 -0.4659  0.1495  0.4385
  763MOL0     N 5208   6.890   5.326   0.937  0.3172  0.0332  0.2409
  763MOL0     C 5209   8.072   4.779   0.976 -0.9666 -0.3047  0.4412
  763MOL0     C 5210   8.137   4.664   1.025 -0.7755 -0.4470  0.1114
  763MOL0     C 5211   8.418   4.392   1.266 -0.2474 -1.0865  0.2066
  763MOL0     C 5212   8.425   4.445   1.397 -0.0971  0.1709 -0.3629
  763MOL0     C 5213   8.472   4.370   1.498  0.4615 -1.0160  0.3853
  763MOL0     C 5214   8.519   4.241   1.473 -0.8440 -0.7890  0.0110
  763MOL0     O 5215   8.555   4.167   1.583  0.2870 -0.0560 -0.3508
  763MOL0     C 5216   8.447   4.155   1.668 -0.8119 -0.1370 -0.4501
  763MOL0     C 5217   8.428   4.012   1.712 -0.1217 -0.2395  0.3508
  763MOL0     C 5218   8.373   3.927   1.590  0.6839  0.0196 -0.4791
  763MOL0     C 5219   8.319   3.796   1.640 -0.7601 -0.0839  0.1759
  763MOL0     C 5220   8.184   3.796   1.701  0.6293 -0.5363 -0.0850
  763MOL0     C 5221   8.072   3.804   1.741 -0.4429  1.1838  0.1577
  763MOL0     C 5222   8.519   4.191   1.342 -0.2632 -1.0643  0.9470
  763MOL0     C 5223   8.466   4.263   1.235 -0.2844 -0.2545 -0.4946
  763MOL0     C 5224   8.462   4.197   1.103  0.7933  0.1679  0.3640
  763MOL0     H 5225   8.258   4.800   1.314  1.8769 -0.6316 -0.8044
  763MOL0     H 5226   8.167   5.000   1.223  0.1251  0.8577 -1.5074
  763MOL0     H 5227   7.917   5.137   1.113  3.8948 -0.4524 -0.3507
  763MOL0     H 5228   7.844   4.975   1.058  0.9909 -0.0257  1.3996
  763MOL0     H 5229   7.858   5.179   0.844  1.5820 -1.4555  0.2088
  763MOL0     H 5230   7.752   5.045   0.887  2.0296 -2.1130  0.5943
  763MOL0     H 5231   7.660   5.209   1.076 -3.5614  0.2843 -2.3313
  763MOL0     H 5232   7.766   5.327   0.993  0.9393 -1.0942 -3.1709
  763MOL0     H 5233   7.665   5.353   0.799  0.3157  2.5530  3.7993
  763MOL0     H 5234   7.587   5.191   0.800 -2.7766  0.2726 -0.0398
  763MOL0     H 5235   7.452   5.418   0.822  0.8412 -1.5701 -1.1313
  763MOL0     H 5236   7.490   5.396   0.993  0.0150 -0.6819  0.3617
  763MOL0     H 5237   7.330   5.186   0.824  1.3205 -2.7891  1.5743
  763MOL0     H 5238   7.420   5.151   0.956  3.1624 -0.4080 -2.7571
  763MOL0     H 5239   7.305   5.336   1.090 -0.4025 -0.9046  0.6914
  763MOL0     H 5240   7.220   5.190   1.057  3.8043 -1.1367  0.3027
  763MOL0     H 5241   7.119   5.448   1.005 -0.2723 -0.6308 -0.1629
  763MOL0     H 5242   7.180   5.425   0.849 -0.0516  1.2607  1.1846
  763MOL0     H 5243   7.093   5.153   0.747  1.5663  0.5458  1.4835
  763MOL0     H 5244   6.916   5.070   0.602 -1.1608 -0.6233 -1.3023
  763MOL0     H 5245   6.751   5.138   0.606 -0.2738 -0.6899 -1.7176
  763MOL0     H 5246   6.674   4.940   0.698 -0.8160 -2.1518  0.9435
  763MOL0     H 5247   6.808   4.878   0.603 -2.7913 -1.7755  0.7307
  763MOL0     H 5248   6.963   4.877   0.791  0.2581 -2.9488  1.7354
  763MOL0     H 5249   6.840   4.946   0.902  2.3745  0.7420 -0.4165
  763MOL0     H 5250   6.696   4.743   0.869  1.1173  1.0415 -2.3203
  763MOL0     H 5251   6.825   4.668   0.775  2.0455  0.5592 -1.5381
  763MOL0     H 5252   7.051   4.650   0.817  0.2433  1.8307 -1.4836
  763MOL0     H 5253   7.359   4.807   0.776  1.6771 -0.9516 -1.4135
  763MOL0     H 5254   7.280   4.649   0.743  3.7976 -1.3823 -0.5088
  763MOL0     H 5255   7.393   4.651   0.864  0.6853  0.5261 -0.8705
  763MOL0     H 5256   7.616   4.821   1.241 -1.0528 -0.0666 -0.7448
  763MOL0     H 5257   7.799   4.922   1.339  0.2503  0.3170 -0.5482
  763MOL0     H 5258   7.931   5.000   1.493  2.1841  0.0954 -1.2670
  763MOL0     H 5259   7.964   5.089   1.344 -0.2353  1.1766 -0.3340
  763MOL0     H 5260   8.064   5.266   1.476 -0.1371 -0.4516 -0.2408
  763MOL0     H 5261   8.016   5.192   1.629  2.9023 -2.6315  2.7504
  763MOL0     H 5262   8.239   5.126   1.423 -0.2816 -1.0932  0.0136
  763MOL0     H 5263   8.169   5.001   1.532 -1.7237  0.2806 -1.8466
  763MOL0     H 5264   8.229   5.146   1.718 -3.0474 -1.8282 -1.8470
  763MOL0     H 5265   8.267   5.280   1.623 -0.6235 -0.0751 -1.5218
  763MOL0     H 5266   8.451   5.087   1.728  1.4776  0.6463  0.0733
  763MOL0     H 5267   8.407   5.010   1.574  3.8361  0.4001 -1.8123
  763MOL0     H 5268   8.455   5.251   1.478 -2.6609 -2.8271 -0.6952
  763MOL0     H 5269   8.587   5.133   1.515 -1.1924 -3.2698  2.0671
  763MOL0     H 5270   8.633   5.227   1.740 -0.4242 -0.8270  1.2845
  763MOL0     H 5271   8.501   5.335   1.737  2.0896  0.6002  1.5059
  763MOL0     H 5272   8.620   5.455   1.539  1.9696 -0.0943 -1.7769
  763MOL0     H 5273   8.764   5.375   1.596 -1.4462 -4.1592  2.4246
  763MOL0     H 5274   7.555   5.286   1.399 -0.4758 -1.4407  5.2455
  763MOL0     H 5275   7.386   5.189   1.268 -0.0563 -0.2630 -0.7225
  763MOL0     H 5276   7.147   4.795   1.271 -3.7406 -3.4085  0.8196
  763MOL0     H 5277   6.939   4.743   1.209  0.4832  0.1489 -0.1855
  763MOL0     H 5278   8.018   4.768   0.882 -3.8259 -1.2114  2.0548
  763MOL0     H 5279   8.112   4.567   0.983  2.2380 -2.7857  3.1384
  763MOL0     H 5280   8.385   4.542   1.425 -3.3387 -0.5047 -2.1996
  763MOL0     H 5281   8.459   4.422   1.592 -1.0873 -1.7278  0.6109
  763MOL0     H 5282   8.478   4.207   1.759 -0.5882 -0.5711 -0.2769
  763MOL0     H 5283   8.346   4.179   1.632 -1.0074 -0.4796 -0.1348
  763MOL0     H 5284   8.367   4.015   1.803  0.9370 -0.7474  1.0972
  763MOL0     H 5285   8.525   3.967   1.736  0.1756 -0.9713 -1.9680
  763MOL0     H 5286   8.294   3.981   1.537  0.9074  2.2443  1.3082
  763MOL0     H 5287   8.455   3.907   1.520 -1.1220 -3.8681 -1.7832
  763MOL0     H 5288   8.393   3.741   1.700 -0.2871  1.2363  0.8523
  763MOL0     H 5289   8.307   3.725   1.558 -2.0771 -1.6426  1.6434
  763MOL0     H 5290   7.973   3.806   1.781 -1.3243  0.6589 -1.8659
  763MOL0     H 5291   8.558   4.090   1.347  2.2919 -0.1147  1.7071
  763MOL0     H 5292   8.467   4.088   1.106  0.4386  0.1444  0.2200
  763MOL0     H 5293   8.365   4.219   1.058  1.0216  2.2644  0.7828
  763MOL0     H 5294   8.533   4.248   1.037 -2.6074  3.2446 -1.2542
  764MOL0     O 5295  10.424   7.409   0.250 -0.0075 -0.6520  0.3499
  764MOL0     C 5296  10.341   7.434   0.158 -0.9263 -0.5061  0.1509
  764MOL0     O 5297  10.376   7.501   0.051 -0.1538  0.2887 -0.1363
  764MOL0     C 5298  10.506   7.538   0.016  0.2657 -0.2837  0.1803
  764MOL0     C 5299  10.602   7.583   0.114  1.0672 -0.5606  0.3182
  764MOL0     C 5300  10.733   7.598   0.071  0.1436 -0.4834  0.2621
  764MOL0     C 5301  10.777   7.579  -0.059  0.2203  0.5849  0.0508
  764MOL0     O 5302  10.906   7.584  -0.107 -0.0289  0.1320 -0.3355
  764MOL0     C 5303  11.018   7.584  -0.017 -1.3316 -0.1550 -1.5184
  764MOL0     C 5304  11.135   7.534  -0.102  0.6554 -0.3876 -0.2983
  764MOL0     C 5305  11.247   7.493  -0.017 -0.3146  0.0936 -0.5457
  764MOL0     C 5306  11.365   7.421  -0.093  0.4651 -0.4843  0.4010
  764MOL0     C 5307  11.488   7.503  -0.089  0.1923 -0.2954  0.1162
  764MOL0     C 5308  11.481   7.626  -0.177 -0.4048 -0.3037  0.3755
  764MOL0     C 5309  11.616   7.661  -0.231  0.4959 -0.1538  0.4454
  764MOL0     C 5310  11.610   7.721  -0.371  0.0768 -1.3207 -0.5001
  764MOL0     N 5311  11.740   7.790  -0.404 -0.0373 -0.1132  0.3948
  764MOL0     C 5312  11.762   7.918  -0.420  0.1424 -0.1921 -0.1194
  764MOL0     C 5313  11.888   7.921  -0.461 -0.8728 -0.3054 -0.5107
  764MOL0     C 5314  11.968   8.046  -0.499 -0.6423  0.2869 -0.2739
  764MOL0     C 5315  11.880   8.153  -0.568  0.4320  0.2975 -0.5729
  764MOL0     C 5316  11.956   8.268  -0.634  0.5835 -0.2826 -0.0965
  764MOL0     C 5317  11.866   8.377  -0.681  0.5450  0.9730 -0.1359
  764MOL0     O 5318  11.932   8.494  -0.675  0.4783 -0.3103  0.1064
  764MOL0     C 5319  11.849   8.594  -0.725  1.1965  0.1088  0.1500
  764MOL0     C 5320  11.882   8.730  -0.695  0.4170  1.1450  0.0128
  764MOL0     C 5321  11.808   8.840  -0.747 -0.2086  0.3531 -0.8944
  764MOL0     C 5322  11.872   8.978  -0.706  0.7430  1.1083  0.5256
  764MOL0     C 5323  11.683   8.817  -0.821  0.1035 -0.1552  0.6586
  764MOL0     C 5324  11.595   8.922  -0.887 -0.6494  0.1429  0.7063
  764MOL0     O 5325  11.474   8.875  -0.927 -0.3505 -0.3241  0.1891
  764MOL0     C 5326  11.381   8.954  -0.987  0.1428  0.1310  0.3166
  764MOL0     C 5327  11.256   8.930  -0.934  0.5546 -1.1307 -0.5140
  764MOL0     C 5328  11.146   8.997  -0.992 -0.4866  0.4813  0.4518
  764MOL0     C 5329  11.166   9.093  -1.100 -0.6103  0.2117 -0.7210
  764MOL0     O 5330  11.063   9.149  -1.167  0.5476 -0.4405 -0.3142
  764MOL0     C 5331  10.965   9.200  -1.075 -0.7210  0.1722 -0.0684
  764MOL0     C 5332  10.870   9.306  -1.137  0.1625 -0.1289  0.3958
  764MOL0     C 5333  10.747   9.252  -1.215 -0.5676 -0.8604 -0.1976
  764MOL0     C 5334  10.666   9.170  -1.123  0.7887 -0.4053  0.3056
  764MOL0     C 5335  10.528   9.139  -1.175  0.3290  0.0203 -0.6744
  764MOL0     C 5336  10.461   9.027  -1.086  0.3749  0.9675  0.0104
  764MOL0     C 5337  10.343   8.968  -1.154  0.1748  0.7085  0.6579
  764MOL0     C 5338  10.228   9.071  -1.165 -0.1993  0.7509 -0.1870
  764MOL0    Cl 5339  10.179   9.126  -0.995  0.1133  0.0737  0.0913
  764MOL0     C 5340  11.297   9.121  -1.138  0.3843 -0.0791 -0.0759
  764MOL0     C 5341  11.406   9.052  -1.085 -1.2593  0.7472 -0.1560
  764MOL0     O 5342  11.629   9.040  -0.885 -0.3237 -0.3353 -0.6133
  764MOL0     C 5343  11.645   8.686  -0.834 -1.0188  0.2744  0.0089
  764MOL0     C 5344  11.727   8.580  -0.792 -0.3065 -0.2826 -0.0395
  764MOL0     N 5345  11.949   7.792  -0.460 -0.5560 -0.4041 -0.7891
  764MOL0     N 5346  11.855   7.720  -0.414 -0.5813  0.4621  0.2141
  764MOL0     C 5347  10.685   7.542  -0.159  0.2223  0.1113 -1.0689
  764MOL0     C 5348  10.550   7.524  -0.118 -0.3513 -0.3092  1.2977
  764MOL0     C 5349  10.192   7.392   0.162 -1.2250 -0.4560 -1.8892
  764MOL0     C 5350  10.109   7.451   0.066 -0.2693 -0.2314  0.1777
  764MOL0     C 5351   9.969   7.425   0.065 -1.0574  1.0327 -0.2910
  764MOL0     C 5352   9.914   7.343   0.164 -0.3175  0.2208 -0.0496
  764MOL0     O 5353   9.782   7.316   0.168 -0.3019  0.5955 -0.2067
  764MOL0     C 5354   9.690   7.393   0.093 -0.2250  0.6542  0.0590
  764MOL0     C 5355   9.660   7.521   0.164 -0.4179 -0.3480 -0.1148
  764MOL0     C 5356   9.572   7.506   0.281 -0.2174  1.0168 -0.6972
  764MOL0     C 5357   9.651   7.462   0.409 -0.0752 -0.1732 -0.4952
  764MOL0     C 5358   9.568   7.479   0.532  0.3108  0.9391  0.4788
  764MOL0     C 5359   9.507   7.492   0.634 -0.2262  0.1823 -0.5248
  764MOL0     C 5360  10.004   7.283   0.260 -0.2758 -0.4758 -0.8310
  764MOL0     C 5361  10.139   7.301   0.255 -0.6934  0.7297  0.0280
  764MOL0     C 5362  10.227   7.227   0.347  0.7865  0.3804  0.4118
  764MOL0     H 5363  10.585   7.588   0.221  0.0682 -2.9319  0.3380
  764MOL0     H 5364  10.808   7.602   0.150  0.4953 -2.0513  0.0448
  764MOL0     H 5365  11.002   7.526   0.075 -1.5742 -0.5967 -1.8346
  764MOL0     H 5366  11.039   7.688   0.010  3.1449 -0.8604 -1.3946
  764MOL0     H 5367  11.093   7.453  -0.162 -1.8387 -0.9860  2.0679
  764MOL0     H 5368  11.161   7.616  -0.171  1.0472 -0.0948  0.1926
  764MOL0     H 5369  11.287   7.579   0.038 -1.5039 -0.3539  1.0596
  764MOL0     H 5370  11.215   7.420   0.058  1.6392 -0.1907  0.0733
  764MOL0     H 5371  11.389   7.327  -0.042 -0.9588 -1.0246  0.1307
  764MOL0     H 5372  11.343   7.396  -0.197 -1.7409 -2.3945  1.2312
  764MOL0     H 5373  11.571   7.442  -0.126  2.0464  0.9708  1.9396
  764MOL0     H 5374  11.503   7.542   0.012 -2.3668 -0.3132  0.5752
  764MOL0     H 5375  11.420   7.604  -0.265 -1.2490 -0.4536  0.9869
  764MOL0     H 5376  11.447   7.710  -0.115  0.2291  2.9282 -3.2596
  764MOL0     H 5377  11.682   7.574  -0.238  1.2651  0.3064  1.7311
  764MOL0     H 5378  11.656   7.738  -0.164 -0.9615 -0.5871  1.8572
  764MOL0     H 5379  11.605   7.635  -0.439  1.1107 -3.1314  1.6056
  764MOL0     H 5380  11.528   7.792  -0.387  1.1461 -0.1402 -0.8489
  764MOL0     H 5381  11.685   7.995  -0.413  0.0358 -0.2712 -0.4085
  764MOL0     H 5382  12.046   8.004  -0.563 -0.5463 -3.6740  2.1167
  764MOL0     H 5383  12.026   8.080  -0.413  0.9260 -1.0078 -0.7789
  764MOL0     H 5384  11.826   8.100  -0.647  1.3207 -1.4009 -0.0971
  764MOL0     H 5385  11.801   8.188  -0.501  0.6157 -1.7170  0.7975
  764MOL0     H 5386  12.013   8.326  -0.561  1.0928  0.4097 -1.0216
  764MOL0     H 5387  12.031   8.237  -0.707  0.7746  1.1762 -0.5510
  764MOL0     H 5388  11.847   8.355  -0.786  0.5586 -0.9733  0.2258
  764MOL0     H 5389  11.783   8.384  -0.610 -2.2467 -0.3430 -3.0512
  764MOL0     H 5390  11.967   8.745  -0.630  0.7892  0.3405 -0.2740
  764MOL0     H 5391  11.982   8.975  -0.706  0.7463  1.1970  0.5305
  764MOL0     H 5392  11.836   9.002  -0.606 -5.7317 -6.5426  1.0610
  764MOL0     H 5393  11.847   9.047  -0.787  1.6003  1.2166  0.3394
  764MOL0     H 5394  11.238   8.878  -0.840 -0.0696  0.8125  0.4972
  764MOL0     H 5395  11.044   8.990  -0.956 -0.7305  0.9576 -0.1303
  764MOL0     H 5396  10.908   9.114  -1.037 -0.5892  0.2988  0.4154
  764MOL0     H 5397  11.013   9.250  -0.990  0.7627 -2.2809  0.6280
  764MOL0     H 5398  10.829   9.372  -1.060 -0.4449  3.4810 -2.7005
  764MOL0     H 5399  10.917   9.367  -1.214  0.1076  1.8813  1.8740
  764MOL0     H 5400  10.786   9.199  -1.302  3.9994  1.6264  0.0107
  764MOL0     H 5401  10.690   9.331  -1.264  2.6031  1.3763 -0.6339
  764MOL0     H 5402  10.648   9.230  -1.034 -2.8045 -1.4333  0.4191
  764MOL0     H 5403  10.707   9.078  -1.079 -1.1505 -0.7865  1.4433
  764MOL0     H 5404  10.464   9.225  -1.155  0.4025  0.4626 -2.2266
  764MOL0     H 5405  10.542   9.109  -1.279  1.4696 -3.9989  0.4645
  764MOL0     H 5406  10.435   9.076  -0.992  0.7644 -0.0729  0.6745
  764MOL0     H 5407  10.535   8.947  -1.081  0.1532  0.6810 -1.0173
  764MOL0     H 5408  10.310   8.875  -1.107 -0.8410 -0.1415 -1.6365
  764MOL0     H 5409  10.372   8.941  -1.256  0.5203  0.4347  0.8243
  764MOL0     H 5410  10.138   9.017  -1.198  0.1570 -1.3501  1.9540
  764MOL0     H 5411  10.264   9.156  -1.223  3.5602 -1.6585 -1.7863
  764MOL0     H 5412  11.313   9.197  -1.215  1.6678 -0.9380 -0.6902
  764MOL0     H 5413  11.504   9.067  -1.128 -1.3941  0.4735 -0.5634
  764MOL0     H 5414  11.549   8.649  -0.868 -1.8611  0.2243  2.2586
  764MOL0     H 5415  11.680   8.490  -0.830 -0.3460  0.1556 -1.0643
  764MOL0     H 5416  10.722   7.533  -0.260 -0.2225  0.7065 -1.2915
  764MOL0     H 5417  10.485   7.482  -0.194  0.3802 -0.7331  0.8826
  764MOL0     H 5418  10.146   7.520  -0.010  1.3486 -1.8225 -0.5369
  764MOL0     H 5419   9.911   7.471  -0.015  0.5954 -0.6356 -2.6153
  764MOL0     H 5420   9.716   7.406  -0.013  1.6093 -1.2020  0.2295
  764MOL0     H 5421   9.601   7.330   0.092  0.6559 -0.6141 -0.5479
  764MOL0     H 5422   9.604   7.585   0.095 -0.4067 -0.5750 -0.3379
  764MOL0     H 5423   9.757   7.568   0.183 -1.8028  3.0111 -0.7202
  764MOL0     H 5424   9.518   7.598   0.306 -1.5612 -0.2874  1.6020
  764MOL0     H 5425   9.496   7.431   0.255  1.2980  0.2379 -3.2018
  764MOL0     H 5426   9.754   7.501   0.412  0.5754 -1.8571  1.1075
  764MOL0     H 5427   9.678   7.356   0.401  1.2269  0.1788 -1.2315
  764MOL0     H 5428   9.464   7.508   0.730  1.1450 -1.2749  0.3798
  764MOL0     H 5429   9.967   7.206   0.327 -0.6297  0.5855  0.2215
  764MOL0     H 5430  10.305   7.171   0.296  0.1414 -1.3422  1.2495
  764MOL0     H 5431  10.278   7.299   0.412  1.3961  1.0534 -0.7641
  764MOL0     H 5432  10.168   7.155   0.404  2.1081  0.2744  1.6972
  765MOL0     O 5433   4.465   6.576   2.968 -0.1720 -0.2560 -0.0916
  765MOL0     C 5434   4.380   6.523   3.039  0.9203 -0.4714 -0.3243
  765MOL0     O 5435   4.402   6.488   3.176 -0.2478 -0.4672  0.2668
  765MOL0     C 5436   4.525   6.480   3.231  0.5576 -0.4861  0.2480
  765MOL0     C 5437   4.545   6.517   3.359 -0.3446  0.0474  0.6906
  765MOL0     C 5438   4.668   6.502   3.424 -0.5478  0.3555 -0.1841
  765MOL0     C 5439   4.775   6.439   3.355  0.0451  0.0963 -0.5525
  765MOL0     O 5440   4.895   6.399   3.423 -0.0101  0.1717 -0.1594
  765MOL0     C 5441   4.996   6.497   3.434  0.4223  0.2481 -0.0004
  765MOL0     C 5442   5.128   6.433   3.465 -0.4275 -0.1548 -0.1280
  765MOL0     C 5443   5.232   6.528   3.539  0.5608 -0.0302 -0.2557
  765MOL0     C 5444   5.379   6.517   3.494  0.1741 -0.5216  0.4202
  765MOL0     C 5445   5.471   6.567   3.596  0.0063 -0.0752 -0.2427
  765MOL0     C 5446   5.502   6.716   3.592  1.3315  1.2655  0.8882
  765MOL0     C 5447   5.577   6.761   3.723  0.4511 -0.3368 -0.2319
  765MOL0     C 5448   5.664   6.890   3.691 -0.9738 -0.0267  0.3953
  765MOL0     N 5449   5.580   7.006   3.680  0.7348 -0.5052 -0.7134
  765MOL0     C 5450   5.595   7.105   3.763  0.0120 -0.1121 -0.9469
  765MOL0     C 5451   5.509   7.200   3.727  0.8173 -0.4666 -0.4291
  765MOL0     C 5452   5.508   7.346   3.764 -0.4113  0.2010 -0.3526
  765MOL0     C 5453   5.431   7.356   3.899 -0.0403  0.4201 -0.2763
  765MOL0     C 5454   5.439   7.501   3.950  0.8535 -0.1513  0.5397
  765MOL0     C 5455   5.390   7.510   4.089  0.3017  0.5535 -0.7291
  765MOL0     O 5456   5.371   7.640   4.137 -0.2547 -0.8227 -0.3016
  765MOL0     C 5457   5.474   7.705   4.202  0.9272  0.2661  0.7707
  765MOL0     C 5458   5.435   7.828   4.251 -0.6688 -0.4829 -0.1221
  765MOL0     C 5459   5.518   7.917   4.315  0.3055  0.1776  0.1131
  765MOL0     C 5460   5.468   8.049   4.356  0.5232 -0.4574 -1.2218
  765MOL0     C 5461   5.659   7.879   4.317 -0.8749 -0.4936  0.0562
  765MOL0     C 5462   5.768   7.966   4.366  0.2360  0.6558  0.0441
  765MOL0     O 5463   5.888   7.900   4.414  0.0481 -0.0256  0.4883
  765MOL0     C 5464   5.979   7.983   4.476 -0.1991  0.5824  0.4362
  765MOL0     C 5465   6.108   7.987   4.425 -0.5937  1.3579  0.4920
  765MOL0     C 5466   6.210   8.074   4.479  0.8731  0.9170 -0.3467
  765MOL0     C 5467   6.179   8.142   4.600  0.0325  0.8828 -0.1622
  765MOL0     O 5468   6.285   8.220   4.649  0.1348 -0.8920  0.1355
  765MOL0     C 5469   6.276   8.307   4.769 -0.9973  0.1833 -0.0056
  765MOL0     C 5470   6.418   8.344   4.797 -0.5418  0.1237  0.2020
  765MOL0     C 5471   6.469   8.454   4.707  0.0817 -0.1072  0.6977
  765MOL0     C 5472   6.618   8.489   4.728 -0.0628 -0.8862  0.2228
  765MOL0     C 5473   6.677   8.573   4.621 -0.4787 -1.1121  0.6824
  765MOL0     C 5474   6.628   8.716   4.625 -0.2017  0.3256  0.0476
  765MOL0     C 5475   6.718   8.805   4.537 -0.0964  0.6647  0.0219
  765MOL0     C 5476   6.664   8.950   4.544  0.4201 -0.6899  0.3409
  765MOL0    Cl 5477   6.765   9.063   4.452  0.0093  0.1554  0.1219
  765MOL0     C 5478   6.051   8.134   4.645  0.0889 -0.3121 -0.3629
  765MOL0     C 5479   5.950   8.057   4.593  0.6523  0.7345  0.0416
  765MOL0     O 5480   5.751   8.087   4.343 -0.4181 -0.0424  0.1087
  765MOL0     C 5481   5.699   7.761   4.259 -0.3210  0.0947 -0.9160
  765MOL0     C 5482   5.606   7.671   4.213 -0.6784  0.5821  0.8268
  765MOL0     N 5483   5.430   7.148   3.622 -0.4996  0.2397 -1.0702
  765MOL0     N 5484   5.480   7.030   3.597 -0.4223  1.4137  0.0976
  765MOL0     C 5485   4.762   6.399   3.226  0.6167  1.3971  0.2535
  765MOL0     C 5486   4.635   6.422   3.162 -0.5114  0.6876 -0.8839
  765MOL0     C 5487   4.242   6.488   3.000  0.2895  0.0082 -0.6418
  765MOL0     C 5488   4.155   6.438   3.099 -0.5059  0.8053  0.0815
  765MOL0     C 5489   4.026   6.398   3.080  0.2067 -0.4992 -1.2899
  765MOL0     C 5490   3.964   6.445   2.964  0.1322  0.0952 -0.1364
  765MOL0     O 5491   3.828   6.423   2.927  0.6395  1.0393 -0.3168
  765MOL0     C 5492   3.740   6.361   3.015  0.4717  0.1758 -0.2872
  765MOL0     C 5493   3.597   6.355   2.958 -0.2417 -0.6060  0.6728
  765MOL0     C 5494   3.497   6.313   3.061 -0.4286 -1.0988 -0.4714
  765MOL0     C 5495   3.395   6.220   3.014  0.3122  0.2078 -0.4854
  765MOL0     C 5496   3.448   6.084   3.002  0.2082  0.0929 -0.0271
  765MOL0     C 5497   3.497   5.978   2.990  0.3701  0.0694  0.0153
  765MOL0     C 5498   4.042   6.510   2.865  0.2881 -0.2747  0.0274
  765MOL0     C 5499   4.182   6.519   2.876  0.6228 -0.4213  0.5320
  765MOL0     C 5500   4.249   6.547   2.749 -0.2955  0.3745 -0.4005
  765MOL0     H 5501   4.457   6.560   3.406  0.9593  1.7297  1.7220
  765MOL0     H 5502   4.676   6.527   3.529  0.0058 -0.5723  0.0094
  765MOL0     H 5503   4.978   6.558   3.523 -0.6498  1.7363 -1.1962
  765MOL0     H 5504   5.013   6.565   3.350 -0.5348  0.3860 -0.0920
  765MOL0     H 5505   5.122   6.342   3.526 -1.1839 -0.9803 -1.3702
  765MOL0     H 5506   5.183   6.398   3.377  3.6813  0.3198  2.0275
  765MOL0     H 5507   5.205   6.631   3.514  0.4084 -0.5919 -2.5703
  765MOL0     H 5508   5.226   6.517   3.648  1.1342  1.6924 -0.0129
  765MOL0     H 5509   5.406   6.411   3.493  1.4199 -0.2205 -1.1627
  765MOL0     H 5510   5.391   6.575   3.402 -1.4482  2.3695  1.9009
  765MOL0     H 5511   5.568   6.517   3.589  1.4665  2.3714  1.1084
  765MOL0     H 5512   5.437   6.550   3.698  1.5203  0.0041  0.3083
  765MOL0     H 5513   5.556   6.743   3.501 -0.5325 -2.1665 -1.4633
  765MOL0     H 5514   5.406   6.767   3.586  0.0567 -0.7880  2.2762
  765MOL0     H 5515   5.655   6.687   3.745  3.3300  2.4489 -0.3515
  765MOL0     H 5516   5.510   6.770   3.809  1.0301 -0.3051  0.2234
  765MOL0     H 5517   5.748   6.911   3.757  0.3893 -2.6188 -0.3676
  765MOL0     H 5518   5.715   6.875   3.596 -1.4812 -0.0184  0.1164
  765MOL0     H 5519   5.675   7.100   3.836 -0.6508  0.7788 -0.1330
  765MOL0     H 5520   5.486   7.421   3.687  0.4811 -0.6406 -1.4605
  765MOL0     H 5521   5.613   7.366   3.787 -0.1348  1.8458 -2.6303
  765MOL0     H 5522   5.326   7.336   3.874 -0.2185  0.3214  0.5180
  765MOL0     H 5523   5.478   7.283   3.966  3.8093  4.0550  1.4422
  765MOL0     H 5524   5.540   7.543   3.951 -0.0522  2.2234 -0.4246
  765MOL0     H 5525   5.379   7.574   3.896  0.0975  0.2052  1.8218
  765MOL0     H 5526   5.295   7.456   4.082  1.1431 -1.8827  3.3100
  765MOL0     H 5527   5.461   7.455   4.152 -1.0472 -1.5050 -0.9359
  765MOL0     H 5528   5.332   7.860   4.239 -1.8128 -4.2236 -1.4403
  765MOL0     H 5529   5.474   8.124   4.276 -2.6806  0.9357 -0.2819
  765MOL0     H 5530   5.528   8.101   4.432  2.7404 -1.3416 -2.2657
  765MOL0     H 5531   5.366   8.039   4.393  1.4299 -0.1507  1.5235
  765MOL0     H 5532   6.142   7.919   4.348  2.7012 -0.3812  3.2482
  765MOL0     H 5533   6.306   8.086   4.431  0.0258  0.1296 -2.3516
  765MOL0     H 5534   6.210   8.394   4.765 -2.3435 -0.5950  2.5975
  765MOL0     H 5535   6.251   8.251   4.860  0.8109 -1.5955 -0.5084
  765MOL0     H 5536   6.423   8.372   4.903  0.8150 -1.7392  0.6753
  765MOL0     H 5537   6.490   8.262   4.791 -0.3921  0.0286  2.3241
  765MOL0     H 5538   6.403   8.531   4.746 -0.8825  0.2384 -1.4459
  765MOL0     H 5539   6.449   8.446   4.599 -3.5303  2.3087  1.0030
  765MOL0     H 5540   6.663   8.390   4.722 -2.9444 -2.1721 -2.6507
  765MOL0     H 5541   6.639   8.522   4.831  2.2923 -0.4534 -0.3249
  765MOL0     H 5542   6.783   8.580   4.647 -0.8389  3.0252  1.7302
  765MOL0     H 5543   6.670   8.531   4.520  2.9041 -0.4500  0.0392
  765MOL0     H 5544   6.652   8.755   4.725  4.7662  1.5002 -1.3102
  765MOL0     H 5545   6.521   8.714   4.603 -0.2543 -2.8705  0.1218
  765MOL0     H 5546   6.730   8.764   4.436 -1.7287 -3.0840  1.1617
  765MOL0     H 5547   6.821   8.818   4.571 -0.0188 -0.0724  0.0788
  765MOL0     H 5548   6.661   8.977   4.650  2.0583  1.9651 -0.1978
  765MOL0     H 5549   6.558   8.953   4.517  1.3259 -3.3393 -4.6995
  765MOL0     H 5550   6.051   8.199   4.732 -0.1096 -0.0932 -0.5266
  765MOL0     H 5551   5.849   8.070   4.632  0.1698  0.9252 -1.2330
  765MOL0     H 5552   5.802   7.735   4.279 -0.2841  1.2624  0.6464
  765MOL0     H 5553   5.641   7.573   4.181 -1.2884  1.1458 -1.7576
  765MOL0     H 5554   4.842   6.339   3.183 -0.4147  0.5948 -0.6046
  765MOL0     H 5555   4.632   6.383   3.060 -0.0756 -4.6482  0.8406
  765MOL0     H 5556   4.192   6.401   3.194 -2.3163 -2.3678 -0.2936
  765MOL0     H 5557   3.969   6.351   3.159 -3.4569  1.2387 -2.6410
  765MOL0     H 5558   3.769   6.260   3.045  0.9735 -0.1915 -1.9301
  765MOL0     H 5559   3.735   6.423   3.106 -1.2146 -0.8836  0.3971
  765MOL0     H 5560   3.589   6.289   2.871  0.9199 -0.3958  0.3819
  765MOL0     H 5561   3.566   6.454   2.925  1.2592  0.1192  1.3301
  765MOL0     H 5562   3.546   6.266   3.146 -1.7197 -3.2202 -0.8275
  765MOL0     H 5563   3.447   6.402   3.100 -0.5658 -0.7967 -1.3187
  765MOL0     H 5564   3.342   6.251   2.924  0.8523 -0.0446 -0.8906
  765MOL0     H 5565   3.311   6.220   3.085 -0.9805  4.8676 -1.6584
  765MOL0     H 5566   3.527   5.877   2.971 -2.7405 -0.8980 -0.4059
  765MOL0     H 5567   3.991   6.548   2.776 -6.0140 -3.8802  1.4848
  765MOL0     H 5568   4.217   6.645   2.710  3.0126  1.9726  0.5100
  765MOL0     H 5569   4.358   6.548   2.759 -0.2519  4.2509  0.4768
  765MOL0     H 5570   4.216   6.471   2.678 -0.6350  0.0270  0.1267
  766MOL0     O 5571   6.283   6.550   7.797  0.0272  0.2236  0.8873
  766MOL0     C 5572   6.330   6.660   7.780  0.3697  0.2090  0.5738
  766MOL0     O 5573   6.385   6.747   7.872 -0.3115 -0.2498 -0.0606
  766MOL0     C 5574   6.337   6.738   8.007  0.3743  0.2331 -0.2573
  766MOL0     C 5575   6.421   6.769   8.115  0.6161  1.0179  0.7779
  766MOL0     C 5576   6.375   6.767   8.244 -0.5686  0.5386  0.2722
  766MOL0     C 5577   6.249   6.731   8.272  0.0279 -0.8507  0.3937
  766MOL0     O 5578   6.209   6.758   8.400  0.3424 -0.1832 -0.5144
  766MOL0     C 5579   6.186   6.893   8.433 -0.1901  0.0603 -0.6963
  766MOL0     C 5580   6.216   6.921   8.583 -0.6239 -0.4522  0.0195
  766MOL0     C 5581   6.361   6.943   8.630 -0.5454 -0.4667  0.2824
  766MOL0     C 5582   6.363   7.026   8.772  0.3307 -0.9598  0.3489
  766MOL0     C 5583   6.489   7.015   8.852 -0.2267  0.0251  0.1129
  766MOL0     C 5584   6.480   7.087   8.988  0.4270  0.3153 -1.4940
  766MOL0     C 5585   6.598   7.075   9.091  0.7586  0.1985  0.2961
  766MOL0     C 5586   6.743   7.085   9.024 -0.1831  0.1273 -0.8331
  766MOL0     N 5587   6.847   7.049   9.120  0.5803  0.2868  0.4363
  766MOL0     C 5588   6.875   6.920   9.153 -0.2158  0.1057 -0.0278
  766MOL0     C 5589   6.981   6.927   9.242  0.2637  0.8718  0.4137
  766MOL0     C 5590   7.066   6.814   9.298  0.1289 -0.0709  0.3505
  766MOL0     C 5591   7.048   6.809   9.446 -0.4657  0.1864  0.2124
  766MOL0     C 5592   7.110   6.685   9.510  0.0840  0.8461 -0.3549
  766MOL0     C 5593   7.068   6.676   9.657 -0.3263 -0.7254  0.2627
  766MOL0     O 5594   7.109   6.550   9.704 -0.1776  0.6566 -0.0049
  766MOL0     C 5595   7.089   6.517   9.833  0.7404  0.6529 -0.2825
  766MOL0     C 5596   6.994   6.575   9.918  0.2392  0.3520 -0.2201
  766MOL0     C 5597   6.983   6.539  10.054 -0.5910 -0.8867 -0.8208
  766MOL0     C 5598   6.879   6.610  10.143 -0.3059  0.7294 -0.3548
  766MOL0     C 5599   7.070   6.441  10.117  0.6032  0.5998  0.9365
  766MOL0     C 5600   7.070   6.404  10.255 -0.4141  0.3423 -1.0698
  766MOL0     O 5601   7.089   6.482  10.369 -0.3921  0.3399 -0.9814
  766MOL0     C 5602   7.155   6.600  10.351  0.0896 -0.1287 -0.7732
  766MOL0     C 5603   7.102   6.723  10.399  0.1042 -0.9093  0.3191
  766MOL0     C 5604   7.173   6.844  10.386 -0.7060 -0.7161  0.3147
  766MOL0     C 5605   7.293   6.841  10.311  0.8766  0.4627  0.1810
  766MOL0     O 5606   7.368   6.949  10.286 -0.4058 -0.8385  0.5604
  766MOL0     C 5607   7.507   6.952  10.318 -0.4237 -0.2194  0.3456
  766MOL0     C 5608   7.536   7.092  10.391  0.4071 -0.1357 -0.4657
  766MOL0     C 5609   7.449   7.117  10.508  1.2601  0.2458  0.6917
  766MOL0     C 5610   7.471   7.010  10.616 -0.0261 -0.3883  0.9032
  766MOL0     C 5611   7.395   7.031  10.747  0.6874  0.7644  0.4000
  766MOL0     C 5612   7.247   7.025  10.718  0.6314  0.0924  0.1345
  766MOL0     C 5613   7.151   7.034  10.836 -1.0606 -0.9842  0.1395
  766MOL0     C 5614   7.177   6.930  10.947  0.1609 -0.2284 -0.6072
  766MOL0    Cl 5615   7.216   6.769  10.877 -0.0165  0.1956  0.1966
  766MOL0     C 5616   7.345   6.717  10.262 -0.6766 -0.2855 -0.6960
  766MOL0     C 5617   7.276   6.594  10.284  0.3004 -0.1922 -0.8070
  766MOL0     O 5618   7.056   6.283  10.267 -0.0340  0.5974 -0.8651
  766MOL0     C 5619   7.165   6.386  10.030 -0.3268 -0.7302  0.3520
  766MOL0     C 5620   7.174   6.419   9.883 -0.5905 -0.9904 -1.8190
  766MOL0     N 5621   7.012   7.062   9.261  0.4755 -0.6577 -0.0499
  766MOL0     N 5622   6.927   7.131   9.194  0.6399 -0.2955  1.1381
  766MOL0     C 5623   6.156   6.711   8.172 -0.3766  0.5251  0.3793
  766MOL0     C 5624   6.206   6.703   8.035  0.2608 -0.1127 -0.1971
  766MOL0     C 5625   6.306   6.721   7.645 -0.1150  0.4663  0.0204
  766MOL0     C 5626   6.344   6.856   7.630  0.4287 -0.2475 -0.4412
  766MOL0     C 5627   6.338   6.916   7.502  0.6321 -1.0800  0.8033
  766MOL0     C 5628   6.305   6.841   7.385  0.9714 -0.5595 -0.4371
  766MOL0     O 5629   6.320   6.889   7.262  0.4338 -0.5773 -0.1033
  766MOL0     C 5630   6.211   6.944   7.188  0.3895  0.0874  0.2988
  766MOL0     C 5631   6.232   7.081   7.133 -0.3669 -0.2982  0.4265
  766MOL0     C 5632   6.234   7.203   7.223  0.6462  0.6285 -0.7676
  766MOL0     C 5633   6.098   7.242   7.273  0.0316 -0.4844 -0.3353
  766MOL0     C 5634   6.091   7.371   7.345 -0.4280  0.2677 -0.6154
  766MOL0     C 5635   6.080   7.471   7.416 -0.0439  0.2632  0.0308
  766MOL0     C 5636   6.263   6.709   7.404  0.4011 -0.6772  1.1974
  766MOL0     C 5637   6.254   6.654   7.531 -0.0084  0.5236 -0.3675
  766MOL0     C 5638   6.199   6.522   7.527 -0.4611  0.3499  0.1417
  766MOL0     H 5639   6.523   6.803   8.095  0.4096  1.0371 -0.3433
  766MOL0     H 5640   6.450   6.781   8.322  1.4307 -1.0857 -1.2352
  766MOL0     H 5641   6.078   6.907   8.419 -0.0500  1.9033 -0.2429
  766MOL0     H 5642   6.239   6.963   8.369 -1.7578  0.2209 -1.8698
  766MOL0     H 5643   6.146   6.990   8.631 -0.6591 -1.0544  0.8374
  766MOL0     H 5644   6.180   6.836   8.641 -4.1514  1.7558  1.4164
  766MOL0     H 5645   6.419   6.851   8.647  2.0778  1.2140  1.0351
  766MOL0     H 5646   6.414   6.994   8.549 -0.7424 -0.3468  0.2297
  766MOL0     H 5647   6.346   7.132   8.752  0.0495 -0.8866  0.9579
  766MOL0     H 5648   6.280   6.991   8.834 -2.5063  1.3645 -1.8186
  766MOL0     H 5649   6.567   7.064   8.793  0.6082 -1.0852  0.2572
  766MOL0     H 5650   6.520   6.910   8.858  0.4828  0.1972 -0.4227
  766MOL0     H 5651   6.472   7.193   8.961  3.9829  0.5867 -1.9212
  766MOL0     H 5652   6.391   7.043   9.035  2.4108 -2.1060  0.2716
  766MOL0     H 5653   6.595   6.975   9.135 -2.2291 -0.6101 -1.5028
  766MOL0     H 5654   6.580   7.152   9.167  0.4201 -1.4449  1.9716
  766MOL0     H 5655   6.745   7.017   8.939  0.2958  0.0906 -0.7944
  766MOL0     H 5656   6.759   7.191   9.000  0.8450 -0.0416 -0.9569
  766MOL0     H 5657   6.825   6.838   9.102 -0.7124  1.7787 -2.4268
  766MOL0     H 5658   7.173   6.827   9.275 -0.3833  0.1919 -2.1656
  766MOL0     H 5659   7.034   6.720   9.252  1.6423 -0.5786  0.2634
  766MOL0     H 5660   7.084   6.901   9.492 -2.4063  0.7762  0.6437
  766MOL0     H 5661   6.942   6.786   9.458  0.0254 -2.4763  0.0499
  766MOL0     H 5662   7.072   6.597   9.458  1.3607 -0.4378  0.8161
  766MOL0     H 5663   7.219   6.692   9.515  0.1002  0.0881  0.7904
  766MOL0     H 5664   7.092   6.769   9.711 -2.6821  1.4312 -2.1302
  766MOL0     H 5665   6.959   6.667   9.654 -0.4869  1.0579 -0.6754
  766MOL0     H 5666   6.930   6.649   9.872 -0.3951 -1.8757 -3.2138
  766MOL0     H 5667   6.908   6.604  10.249 -0.4220 -0.9648 -0.3893
  766MOL0     H 5668   6.777   6.572  10.128 -0.1569 -2.2729  4.1684
  766MOL0     H 5669   6.896   6.717  10.128  1.1061  0.5498 -0.1332
  766MOL0     H 5670   7.000   6.722  10.436 -1.0511  0.9978 -2.4584
  766MOL0     H 5671   7.133   6.938  10.423 -1.2454 -1.7320  2.4741
  766MOL0     H 5672   7.531   6.862  10.374 -3.1431 -0.4918  1.1961
  766MOL0     H 5673   7.575   6.942  10.233  0.6083 -3.0005  1.3924
  766MOL0     H 5674   7.638   7.090  10.429  0.3647 -0.9663 -0.3606
  766MOL0     H 5675   7.529   7.172  10.317  0.0801  3.1940  2.9362
  766MOL0     H 5676   7.344   7.118  10.479  0.6050  1.7238  2.8690
  766MOL0     H 5677   7.467   7.218  10.546 -2.4331  0.2082  3.0571
  766MOL0     H 5678   7.576   7.021  10.646  0.0495 -2.1138  1.3361
  766MOL0     H 5679   7.452   6.907  10.584  2.8585 -1.3615  2.0417
  766MOL0     H 5680   7.426   6.954  10.818 -0.7442 -0.3954 -0.1821
  766MOL0     H 5681   7.413   7.132  10.784  0.1461  0.5270  1.3591
  766MOL0     H 5682   7.233   6.930  10.664 -0.0825  1.6686 -2.6458
  766MOL0     H 5683   7.217   7.097  10.641  1.8874 -0.1504 -0.6039
  766MOL0     H 5684   7.046   7.034  10.806 -1.2074  0.5558  0.5496
  766MOL0     H 5685   7.157   7.129  10.890 -1.0178 -2.2863  2.5873
  766MOL0     H 5686   7.090   6.924  11.013 -0.0110 -2.4819 -0.9469
  766MOL0     H 5687   7.257   6.959  11.016  1.5058 -1.8228 -1.4206
  766MOL0     H 5688   7.438   6.712  10.207 -0.9907 -0.5716 -1.2063
  766MOL0     H 5689   7.324   6.510  10.235  0.4812  0.0579 -1.0650
  766MOL0     H 5690   7.238   6.315  10.067  0.3987 -1.0120 -1.5226
  766MOL0     H 5691   7.255   6.371   9.830 -1.1580 -5.8525  1.0653
  766MOL0     H 5692   6.054   6.716   8.207 -1.5183 -2.4361 -2.0140
  766MOL0     H 5693   6.134   6.684   7.955  1.6285 -4.8173 -0.5968
  766MOL0     H 5694   6.338   6.928   7.711 -0.4168  1.2070 -1.7199
  766MOL0     H 5695   6.354   7.022   7.487  1.4702 -1.4793 -1.6731
  766MOL0     H 5696   6.165   6.872   7.119  0.1666 -0.4653  1.0121
  766MOL0     H 5697   6.126   6.967   7.253  1.3116  3.2721  0.5364
  766MOL0     H 5698   6.172   7.109   7.047 -0.4942  3.2172  1.4649
  766MOL0     H 5699   6.335   7.078   7.096 -1.2042  1.7523 -2.3255
  766MOL0     H 5700   6.297   7.180   7.310 -0.5415  0.2339  0.0068
  766MOL0     H 5701   6.283   7.286   7.172  0.1802  0.3508 -1.6871
  766MOL0     H 5702   6.058   7.156   7.327  2.0146 -2.1645 -1.3706
  766MOL0     H 5703   6.035   7.272   7.189  0.4029  2.1245  0.2401
  766MOL0     H 5704   6.061   7.550   7.486  0.9638 -0.3024  0.9708
  766MOL0     H 5705   6.244   6.660   7.309 -0.8146  0.5460  0.7759
  766MOL0     H 5706   6.129   6.522   7.443  0.3095  0.5899 -0.5133
  766MOL0     H 5707   6.276   6.449   7.503  0.4030  0.6365  1.8924
  766MOL0     H 5708   6.135   6.489   7.609 -2.3609 -0.2156 -1.4864
  767MOL0     O 5709   3.213   3.569   7.233  0.5034  0.2819 -0.0225
  767MOL0     C 5710   3.106   3.634   7.239  0.4013 -0.0995 -0.1549
  767MOL0     O 5711   3.097   3.761   7.306 -0.0230  0.0810  0.4710
  767MOL0     C 5712   3.208   3.788   7.384  0.5119 -0.2989  0.6229
  767MOL0     C 5713   3.263   3.710   7.481 -0.2631  0.5042  0.2259
  767MOL0     C 5714   3.360   3.767   7.573 -0.3419  0.5773  0.2266
  767MOL0     C 5715   3.398   3.898   7.562 -0.3753 -0.6085 -0.3090
  767MOL0     O 5716   3.495   3.946   7.651  0.0357 -0.7336 -0.3532
  767MOL0     C 5717   3.525   4.085   7.646 -0.4635 -0.0295  0.6388
  767MOL0     C 5718   3.645   4.133   7.732 -0.3319  0.0649  1.0381
  767MOL0     C 5719   3.642   4.099   7.875 -0.1231  0.0524 -0.0263
  767MOL0     C 5720   3.776   4.113   7.951 -0.7728  0.8637 -0.4248
  767MOL0     C 5721   3.769   4.012   8.072 -0.6741  0.2678 -0.0428
  767MOL0     C 5722   3.866   4.059   8.179  0.6262 -0.5981 -0.4530
  767MOL0     C 5723   3.905   3.950   8.276  0.2079  0.2175  0.0926
  767MOL0     C 5724   3.794   3.936   8.382 -0.1049  0.4422 -1.0554
  767MOL0     N 5725   3.782   4.051   8.473  0.5691  0.1358 -0.9700
  767MOL0     C 5726   3.821   4.047   8.607 -0.3676  0.8280 -0.4230
  767MOL0     C 5727   3.754   4.146   8.655  0.9074  0.5675 -0.2903
  767MOL0     C 5728   3.752   4.174   8.806  0.3260 -0.0356  0.1210
  767MOL0     C 5729   3.624   4.255   8.854  0.6288 -0.0590 -0.0104
  767MOL0     C 5730   3.612   4.274   9.006 -0.3359  0.0219  0.1796
  767MOL0     C 5731   3.667   4.401   9.066  0.0082 -0.0154 -0.6277
  767MOL0     O 5732   3.664   4.392   9.208 -0.2670  0.5499  0.0545
  767MOL0     C 5733   3.774   4.341   9.271  0.8267  0.2327 -0.1916
  767MOL0     C 5734   3.889   4.284   9.215  0.3041  0.9114  0.2213
  767MOL0     C 5735   3.999   4.237   9.295 -0.0444 -0.0536  0.9383
  767MOL0     C 5736   4.127   4.207   9.219  0.6854 -0.0553  0.0519
  767MOL0     C 5737   3.993   4.237   9.428  0.5936 -1.2123 -1.0194
  767MOL0     C 5738   4.091   4.191   9.531  0.2197 -0.0093  1.1797
  767MOL0     O 5739   4.046   4.174   9.656 -0.7336 -0.6242 -0.0290
  767MOL0     C 5740   4.142   4.192   9.749 -0.1831  0.0198 -0.0856
  767MOL0     C 5741   4.155   4.318   9.814  0.6621  0.8354  0.8453
  767MOL0     C 5742   4.260   4.342   9.908 -0.3155 -0.0010 -0.1378
  767MOL0     C 5743   4.351   4.237   9.939  0.2458 -1.3216 -0.2022
  767MOL0     O 5744   4.440   4.260  10.046  0.0362  0.7772 -0.2667
  767MOL0     C 5745   4.427   4.162  10.148  0.3483 -0.3398 -0.3243
  767MOL0     C 5746   4.508   4.195  10.276 -0.4032  0.5916 -0.3893
  767MOL0     C 5747   4.655   4.210  10.248 -0.4321 -0.1994 -0.8141
  767MOL0     C 5748   4.723   4.080  10.197 -0.0987 -0.4368  0.0990
  767MOL0     C 5749   4.839   4.106  10.103 -0.0476 -0.1740  0.2560
  767MOL0     C 5750   4.874   3.965  10.048 -0.4108 -0.4592  0.5963
  767MOL0     C 5751   4.770   3.883   9.958 -0.2690  0.5124 -0.4990
  767MOL0     C 5752   4.706   3.965   9.848 -0.9789 -0.5705  0.8887
  767MOL0    Cl 5753   4.817   4.049   9.738  0.0427  0.0128 -0.4174
  767MOL0     C 5754   4.337   4.109   9.881 -0.3723  1.5797  1.7611
  767MOL0     C 5755   4.238   4.091   9.783 -0.0721 -0.4146 -0.0295
  767MOL0     O 5756   4.210   4.190   9.496  0.3901  0.1431  0.2795
  767MOL0     C 5757   3.870   4.287   9.483 -0.7646 -0.4901  0.1272
  767MOL0     C 5758   3.768   4.345   9.403 -0.0914 -0.4025  0.0313
  767MOL0     N 5759   3.687   4.216   8.560  0.1692  0.4213 -0.1608
  767MOL0     N 5760   3.697   4.157   8.452 -0.5214  0.3257 -0.6084
  767MOL0     C 5761   3.330   3.980   7.467 -1.3018  0.2026  0.3598
  767MOL0     C 5762   3.243   3.922   7.379 -0.0592 -0.2117 -0.5298
  767MOL0     C 5763   2.970   3.569   7.199  0.2260  0.2975 -0.8485
  767MOL0     C 5764   2.852   3.645   7.228  0.3685  0.1274 -1.2092
  767MOL0     C 5765   2.736   3.593   7.187 -0.4547  0.3124 -0.1969
  767MOL0     C 5766   2.713   3.455   7.146  0.0463  0.7821 -0.3418
  767MOL0     O 5767   2.599   3.386   7.120  0.5294 -0.2684 -1.1296
  767MOL0     C 5768   2.493   3.465   7.067 -0.9502 -0.3733 -0.0306
  767MOL0     C 5769   2.368   3.368   7.054  0.7114 -0.0134  0.1551
  767MOL0     C 5770   2.237   3.450   7.047 -1.0295 -0.4195  0.1949
  767MOL0     C 5771   2.122   3.357   7.026  1.1756  0.2493 -1.1998
  767MOL0     C 5772   1.994   3.429   7.000  0.3230 -0.9756  0.1657
  767MOL0     C 5773   1.891   3.495   6.983  0.0492  0.8432 -0.0877
  767MOL0     C 5774   2.825   3.373   7.146  1.2100 -0.5717 -0.1188
  767MOL0     C 5775   2.954   3.429   7.165  0.1185 -0.1822 -0.0237
  767MOL0     C 5776   3.059   3.323   7.155 -0.2141 -0.2147  0.5891
  767MOL0     H 5777   3.234   3.606   7.495 -0.2532  0.5093  0.2849
  767MOL0     H 5778   3.399   3.704   7.652 -0.4707  0.1047 -0.0815
  767MOL0     H 5779   3.436   4.147   7.664 -1.0882 -0.9285  0.6872
  767MOL0     H 5780   3.558   4.104   7.543 -0.3425 -1.8829  0.3039
  767MOL0     H 5781   3.736   4.085   7.694  0.0976 -0.5628  2.7581
  767MOL0     H 5782   3.673   4.235   7.705  1.5991 -0.4120  1.0630
  767MOL0     H 5783   3.565   4.160   7.923 -2.0545 -2.1491 -0.1056
  767MOL0     H 5784   3.610   3.994   7.877 -2.4522  0.5714 -2.5411
  767MOL0     H 5785   3.861   4.087   7.887 -0.6877 -0.0346  0.0274
  767MOL0     H 5786   3.795   4.215   7.984 -0.7685  0.9027 -0.5478
  767MOL0     H 5787   3.794   3.916   8.027 -1.2785  1.0002 -2.0636
  767MOL0     H 5788   3.672   4.002   8.119 -1.4521 -7.0240 -2.0466
  767MOL0     H 5789   3.955   4.096   8.127 -0.1896 -2.0654 -3.1004
  767MOL0     H 5790   3.827   4.146   8.232 -0.8139  0.4458 -3.0610
  767MOL0     H 5791   4.002   3.984   8.316 -0.6919 -0.3080  2.9738
  767MOL0     H 5792   3.910   3.856   8.221 -0.3260 -0.6407  1.4519
  767MOL0     H 5793   3.696   3.930   8.332 -0.9860  0.1477  0.6540
  767MOL0     H 5794   3.800   3.841   8.435  0.5326  1.3444  0.5564
  767MOL0     H 5795   3.881   3.976   8.663  0.6383  2.4846  0.6903
  767MOL0     H 5796   3.839   4.240   8.814  1.0589 -0.4518 -3.1185
  767MOL0     H 5797   3.764   4.085   8.868  0.3906 -0.4632 -0.4989
  767MOL0     H 5798   3.617   4.353   8.806  1.5359  1.4888  2.7418
  767MOL0     H 5799   3.533   4.201   8.826 -1.2222  2.2240  1.2613
  767MOL0     H 5800   3.503   4.268   9.018 -0.9351 -0.3078 -4.0132
  767MOL0     H 5801   3.658   4.182   9.044 -1.9854 -0.8895  0.0866
  767MOL0     H 5802   3.769   4.422   9.032  0.5427 -0.1156  0.8148
  767MOL0     H 5803   3.606   4.488   9.041 -0.2179  0.2107  0.6351
  767MOL0     H 5804   3.893   4.279   9.107 -2.0692 -1.1442  0.1409
  767MOL0     H 5805   4.194   4.289   9.243 -1.1860  0.4705  4.3400
  767MOL0     H 5806   4.104   4.209   9.112  1.2190 -4.6141 -0.3441
  767MOL0     H 5807   4.159   4.105   9.239 -2.3245 -0.5528  3.2616
  767MOL0     H 5808   4.092   4.399   9.780  0.7580  0.8437  0.6870
  767MOL0     H 5809   4.259   4.433   9.968 -2.4449 -0.3960  0.5238
  767MOL0     H 5810   4.321   4.152  10.173  1.0490 -0.3597  3.2499
  767MOL0     H 5811   4.458   4.063  10.113  3.3462  0.7375 -0.9826
  767MOL0     H 5812   4.467   4.293  10.304  2.5394  2.2517 -1.4151
  767MOL0     H 5813   4.493   4.120  10.354  2.0027  2.2654  1.8811
  767MOL0     H 5814   4.703   4.257  10.335  0.9098 -0.1136 -1.5709
  767MOL0     H 5815   4.672   4.293  10.178  2.6489 -1.3489 -1.6117
  767MOL0     H 5816   4.656   4.026  10.130  1.6932 -0.5446 -1.7246
  767MOL0     H 5817   4.741   4.032  10.293  0.2638  2.2179  1.4447
  767MOL0     H 5818   4.810   4.183  10.031  0.2278  0.0419  0.3733
  767MOL0     H 5819   4.915   4.146  10.171 -1.9522 -1.5784  3.4272
  767MOL0     H 5820   4.905   3.901  10.131  0.8946 -1.5285 -0.6519
  767MOL0     H 5821   4.962   3.975   9.984 -1.0463 -4.3888 -1.2154
  767MOL0     H 5822   4.698   3.842  10.029  0.6956 -3.6186 -1.6765
  767MOL0     H 5823   4.822   3.799   9.912  1.0640  2.4167 -2.7477
  767MOL0     H 5824   4.628   4.031   9.886 -2.6388 -1.2288 -1.1255
  767MOL0     H 5825   4.659   3.890   9.784  0.3485 -1.6776  1.1526
  767MOL0     H 5826   4.405   4.033   9.918  1.0907  2.5433  1.1362
  767MOL0     H 5827   4.235   3.997   9.729  2.8255 -0.9074  0.4926
  767MOL0     H 5828   3.870   4.299   9.591 -1.6047 -2.1184  0.3467
  767MOL0     H 5829   3.681   4.388   9.452 -1.2376 -1.6673 -0.7928
  767MOL0     H 5830   3.336   4.088   7.468 -2.1175  0.2637 -0.1754
  767MOL0     H 5831   3.198   3.989   7.307 -2.1432 -0.6956  0.2723
  767MOL0     H 5832   2.841   3.745   7.268  1.7228 -0.2906  0.3305
  767MOL0     H 5833   2.642   3.645   7.207 -2.6252 -3.5950  0.7763
  767MOL0     H 5834   2.464   3.538   7.142 -0.1558 -1.4043  1.3323
  767MOL0     H 5835   2.525   3.511   6.973  3.8839  0.5136  1.7479
  767MOL0     H 5836   2.362   3.305   7.143 -2.7435  0.4911  0.4101
  767MOL0     H 5837   2.377   3.301   6.968  0.6142  0.4174 -0.1988
  767MOL0     H 5838   2.230   3.516   7.134  2.9199 -1.3662  1.4402
  767MOL0     H 5839   2.239   3.512   6.957 -3.9785 -0.3263  0.0999
  767MOL0     H 5840   2.102   3.293   7.112  0.1824 -3.7810 -4.1201
  767MOL0     H 5841   2.153   3.290   6.945  1.8824 -2.5018  1.1867
  767MOL0     H 5842   1.803   3.542   6.942  1.0778  0.9052 -2.3741
  767MOL0     H 5843   2.820   3.266   7.133  1.4417 -0.9955  2.5611
  767MOL0     H 5844   3.114   3.343   7.062  0.1565 -0.6304  0.7168
  767MOL0     H 5845   3.122   3.322   7.244 -1.6785  0.0850  1.6717
  767MOL0     H 5846   3.013   3.225   7.140  0.3819 -0.0160 -4.0352
  768MOL0     O 5847   4.670   6.383  10.962 -0.1914  0.5105 -0.5791
  768MOL0     C 5848   4.677   6.471  11.046 -0.3774 -0.0837  0.3208
  768MOL0     O 5849   4.790   6.485  11.134  0.7262 -0.6786  0.9316
  768MOL0     C 5850   4.862   6.369  11.143  0.2626 -0.0617 -0.5857
  768MOL0     C 5851   4.989   6.359  11.078  1.0040  0.2349 -0.0311
  768MOL0     C 5852   5.068   6.245  11.078 -0.4829  0.4886 -0.0320
  768MOL0     C 5853   5.009   6.120  11.126  0.4751  0.2006  0.2355
  768MOL0     O 5854   5.072   6.003  11.133 -0.2572 -0.0976 -0.0069
  768MOL0     C 5855   5.204   5.988  11.086 -0.2512  0.4170  0.4624
  768MOL0     C 5856   5.226   5.853  11.014 -0.1368  1.0208  1.0391
  768MOL0     C 5857   5.361   5.815  10.947  0.6963 -0.0705  0.8520
  768MOL0     C 5858   5.495   5.871  10.997 -0.1719 -0.7311  0.0998
  768MOL0     C 5859   5.530   5.836  11.143 -0.1223  0.3952 -0.1798
  768MOL0     C 5860   5.560   5.689  11.157  1.2108 -0.0248 -0.1139
  768MOL0     C 5861   5.570   5.649  11.306  0.8628 -0.0622 -0.3331
  768MOL0     C 5862   5.642   5.520  11.324 -0.0896 -0.1807 -0.9257
  768MOL0     N 5863   5.557   5.412  11.265 -0.8333  0.3679  0.0509
  768MOL0     C 5864   5.488   5.328  11.351 -0.0779  0.5857 -0.7619
  768MOL0     C 5865   5.455   5.209  11.278 -0.1703 -0.0170 -0.9253
  768MOL0     C 5866   5.379   5.087  11.324  0.8505 -1.2742  0.5906
  768MOL0     C 5867   5.470   4.972  11.377 -0.2877  0.2528 -1.1295
  768MOL0     C 5868   5.521   4.886  11.263  0.9860  0.6084 -0.6622
  768MOL0     C 5869   5.416   4.781  11.217 -0.1947 -0.6013  0.4420
  768MOL0     O 5870   5.460   4.707  11.103 -0.2986  0.2491  0.1421
  768MOL0     C 5871   5.514   4.765  10.990  0.4367  0.7785  0.6126
  768MOL0     C 5872   5.601   4.690  10.917  0.2081  0.1927 -0.2203
  768MOL0     C 5873   5.639   4.729  10.790 -0.5106 -0.5311 -0.0450
  768MOL0     C 5874   5.721   4.619  10.719  0.1893  0.2754 -0.3843
  768MOL0     C 5875   5.603   4.861  10.737  1.0773 -0.4722  0.1031
  768MOL0     C 5876   5.649   4.921  10.616  0.5587  0.1704 -0.2940
  768MOL0     O 5877   5.601   5.041  10.569  0.1474  0.2187  0.2106
  768MOL0     C 5878   5.633   5.082  10.436 -0.2995 -0.7884  0.7927
  768MOL0     C 5879   5.622   5.220  10.408 -0.0809  0.3280  1.4768
  768MOL0     C 5880   5.654   5.262  10.282 -0.1924 -0.2124  0.7113
  768MOL0     C 5881   5.685   5.182  10.171 -0.0023 -0.4705 -0.6096
  768MOL0     O 5882   5.726   5.242  10.053 -0.5638 -1.3091  0.3625
  768MOL0     C 5883   5.757   5.170   9.931  0.5466  0.0790 -0.6168
  768MOL0     C 5884   5.900   5.132   9.923  0.2835  0.5691 -0.0748
  768MOL0     C 5885   5.942   5.069   9.786 -0.0020  0.8940  0.0442
  768MOL0     C 5886   6.054   4.968   9.810  0.3520  0.0214 -0.0852
  768MOL0     C 5887   6.118   4.928   9.681  0.1327 -0.0935  0.8818
  768MOL0     C 5888   6.168   4.780   9.682  0.7855 -0.7363  0.4370
  768MOL0     C 5889   6.213   4.752   9.539 -0.9784 -0.1820  0.5568
  768MOL0     C 5890   6.209   4.598   9.527  0.5477  0.2505  0.1781
  768MOL0    Cl 5891   6.272   4.539   9.364  0.0476  0.4160 -0.3133
  768MOL0     C 5892   5.697   5.053  10.202  1.0793  0.2022 -0.4351
  768MOL0     C 5893   5.670   5.000  10.327 -0.1224 -0.1154 -0.1988
  768MOL0     O 5894   5.744   4.861  10.565 -0.8110  0.0909 -0.4879
  768MOL0     C 5895   5.515   4.943  10.816  0.2018 -0.1020  0.3382
  768MOL0     C 5896   5.467   4.884  10.935  0.9928 -0.0675  0.2607
  768MOL0     N 5897   5.530   5.218  11.161  0.4372 -0.0599 -0.3851
  768MOL0     N 5898   5.594   5.327  11.157 -0.1647 -1.3403  0.6437
  768MOL0     C 5899   4.886   6.125  11.191  0.7970  0.6506 -0.1591
  768MOL0     C 5900   4.804   6.246  11.198 -0.4459  0.6090  0.9186
  768MOL0     C 5901   4.561   6.567  11.064 -1.2430  0.4627 -0.3261
  768MOL0     C 5902   4.582   6.678  11.149  0.5397 -0.0648 -1.3059
  768MOL0     C 5903   4.473   6.776  11.169 -0.4484 -0.0640  0.6936
  768MOL0     C 5904   4.347   6.765  11.104 -0.3623 -2.2778 -0.7336
  768MOL0     O 5905   4.255   6.863  11.111  0.3264 -0.2720 -0.0723
  768MOL0     C 5906   4.251   6.952  11.217 -0.6172  0.0463  0.3592
  768MOL0     C 5907   4.333   7.081  11.208 -0.7737 -0.5200  0.1807
  768MOL0     C 5908   4.292   7.169  11.325  0.0054 -0.4074 -0.3342
  768MOL0     C 5909   4.335   7.113  11.461 -0.0777 -0.4833 -0.4937
  768MOL0     C 5910   4.361   7.215  11.558  0.2563  0.2235 -0.6617
  768MOL0     C 5911   4.372   7.288  11.657 -0.1142 -0.8016  0.7512
  768MOL0     C 5912   4.334   6.660  11.019 -1.5527  0.7897  0.0181
  768MOL0     C 5913   4.430   6.549  11.009  1.2077 -0.3969  0.3222
  768MOL0     C 5914   4.385   6.432  10.921 -0.8560  0.4671  0.0412
  768MOL0     H 5915   5.020   6.451  11.031 -1.9668  2.9021  2.7158
  768MOL0     H 5916   5.165   6.242  11.030 -0.2434 -0.9344  0.4723
  768MOL0     H 5917   5.284   5.994  11.161  1.0913  2.7695 -1.0298
  768MOL0     H 5918   5.227   6.057  11.004 -0.4048 -0.2651 -0.1726
  768MOL0     H 5919   5.199   5.771  11.082  1.7657 -0.9580 -0.4424
  768MOL0     H 5920   5.152   5.841  10.935  0.0113  1.8329  0.7630
  768MOL0     H 5921   5.370   5.706  10.943 -0.1987 -0.1761  1.4296
  768MOL0     H 5922   5.373   5.850  10.844  2.7063  0.7136  1.2991
  768MOL0     H 5923   5.580   5.840  10.937 -1.9049  0.0700 -3.0081
  768MOL0     H 5924   5.483   5.979  10.981  1.0837 -0.9503 -2.9169
  768MOL0     H 5925   5.446   5.855  11.210 -1.1159 -2.3617 -0.5176
  768MOL0     H 5926   5.617   5.893  11.177  2.1750 -2.2172 -1.2210
  768MOL0     H 5927   5.471   5.639  11.117 -0.3024 -0.2093  3.1830
  768MOL0     H 5928   5.650   5.662  11.100  1.0498 -0.0907 -0.3391
  768MOL0     H 5929   5.467   5.641  11.344  0.7954  0.2198 -0.4507
  768MOL0     H 5930   5.631   5.721  11.362 -1.0437  0.4959  1.1630
  768MOL0     H 5931   5.744   5.524  11.283  0.6299  0.5039  0.8412
  768MOL0     H 5932   5.652   5.507  11.432 -1.3110 -1.2893 -0.9269
  768MOL0     H 5933   5.459   5.346  11.453  0.4555 -0.5130 -0.3917
  768MOL0     H 5934   5.327   5.058  11.233 -1.4061  0.6015  1.1938
  768MOL0     H 5935   5.302   5.108  11.400 -0.4277 -1.2138 -0.6869
  768MOL0     H 5936   5.552   5.015  11.435 -3.4597  1.4251  2.9695
  768MOL0     H 5937   5.416   4.911  11.449 -0.1747 -0.0527 -1.3043
  768MOL0     H 5938   5.554   4.954  11.183 -1.6347  1.7056 -0.9342
  768MOL0     H 5939   5.608   4.827  11.291 -0.2574 -1.1927 -0.4219
  768MOL0     H 5940   5.389   4.711  11.296  0.8806 -3.4792 -1.5730
  768MOL0     H 5941   5.329   4.840  11.188 -0.6214 -1.0888  0.7219
  768MOL0     H 5942   5.625   4.598  10.969 -0.2837 -0.1975 -0.6824
  768MOL0     H 5943   5.829   4.635  10.721  0.6187 -1.4104 -3.5302
  768MOL0     H 5944   5.698   4.610  10.613 -1.4048  0.1880 -0.0585
  768MOL0     H 5945   5.707   4.521  10.765 -0.5905  0.7573  0.4467
  768MOL0     H 5946   5.598   5.291  10.487 -0.2773  0.9827  0.8405
  768MOL0     H 5947   5.668   5.369  10.267 -0.5958 -0.2575 -0.0151
  768MOL0     H 5948   5.691   5.085   9.911  2.1897 -1.4842  0.4346
  768MOL0     H 5949   5.736   5.250   9.858 -1.1829  0.1045 -0.1292
  768MOL0     H 5950   5.975   5.210   9.939  0.5600  1.0813 -3.3374
  768MOL0     H 5951   5.917   5.062  10.006 -1.0896  1.1305  0.7086
  768MOL0     H 5952   5.990   5.152   9.735 -0.1436  3.2439  3.3768
  768MOL0     H 5953   5.859   5.032   9.726 -1.1869  2.4750  0.6485
  768MOL0     H 5954   6.005   4.882   9.857  0.8204  0.1466  0.6554
  768MOL0     H 5955   6.136   5.010   9.869 -0.6058  0.8263  0.7029
  768MOL0     H 5956   6.038   4.940   9.608  2.2538 -1.4530 -1.8208
  768MOL0     H 5957   6.191   5.003   9.651 -0.2062  1.4899  3.6297
  768MOL0     H 5958   6.090   4.705   9.697  1.9901 -2.3522 -0.9474
  768MOL0     H 5959   6.250   4.777   9.755  0.7567 -1.5140  0.4460
  768MOL0     H 5960   6.318   4.784   9.537 -1.4105  1.4171  1.5802
  768MOL0     H 5961   6.141   4.794   9.469 -2.3687  0.9467  2.5447
  768MOL0     H 5962   6.105   4.565   9.537  1.5625 -3.0042  1.4989
  768MOL0     H 5963   6.273   4.541   9.595  3.0654  0.1722 -2.0944
  768MOL0     H 5964   5.725   4.987  10.120  0.0240 -1.1999  0.2864
  768MOL0     H 5965   5.663   4.894  10.347 -0.4556  0.2685  1.9856
  768MOL0     H 5966   5.481   5.041  10.783  2.1337 -0.1306 -2.0632
  768MOL0     H 5967   5.390   4.944  10.984  1.1329  1.5841 -1.4199
  768MOL0     H 5968   4.846   6.038  11.242  1.4013 -0.3109 -1.3087
  768MOL0     H 5969   4.717   6.247  11.263 -1.5044 -0.4158 -0.4384
  768MOL0     H 5970   4.677   6.678  11.202 -0.6717 -2.7464  1.1622
  768MOL0     H 5971   4.502   6.861  11.231  2.6584 -0.8345  0.5029
  768MOL0     H 5972   4.147   6.981  11.233 -0.2610  1.6428 -0.0841
  768MOL0     H 5973   4.276   6.898  11.309 -0.0657  1.1423  0.8696
  768MOL0     H 5974   4.307   7.133  11.115 -0.7139 -0.4367  0.2097
  768MOL0     H 5975   4.441   7.070  11.222 -0.4631  1.6772 -0.1100
  768MOL0     H 5976   4.342   7.267  11.317  1.5912 -1.2515 -1.4056
  768MOL0     H 5977   4.184   7.183  11.334 -0.1902  0.1808 -2.7478
  768MOL0     H 5978   4.427   7.056  11.453  1.5030  1.9649 -0.8566
  768MOL0     H 5979   4.254   7.047  11.495 -0.0812 -0.1478  0.1535
  768MOL0     H 5980   4.389   7.351  11.742 -4.3236  0.4310  0.8676
  768MOL0     H 5981   4.233   6.652  10.980 -0.6518 -0.0932 -2.3495
  768MOL0     H 5982   4.455   6.396  10.846  1.5100 -1.8783  3.0953
  768MOL0     H 5983   4.369   6.352  10.994  0.1644  0.3536  0.1494
  768MOL0     H 5984   4.286   6.457  10.881 -1.8289 -1.7197  0.9494
  769MOL0     O 5985  11.267   2.395   3.466  0.3922  0.5810 -0.3443
  769MOL0     C 5986  11.152   2.412   3.492  0.7489  0.0922  0.9391
  769MOL0     O 5987  11.095   2.524   3.554  0.3407 -0.3895 -0.1957
  769MOL0     C 5988  11.174   2.631   3.599  0.2175  0.7031  0.2469
  769MOL0     C 5989  11.313   2.666   3.565  0.7333 -0.5363 -0.1197
  769MOL0     C 5990  11.372   2.780   3.629  0.2003  0.3854 -0.9073
  769MOL0     C 5991  11.305   2.851   3.726 -0.2260 -0.5480 -0.1839
  769MOL0     O 5992  11.353   2.963   3.776 -0.5462  0.1129 -0.1964
  769MOL0     C 5993  11.386   2.962   3.916 -0.2337 -0.4465 -0.6114
  769MOL0     C 5994  11.328   3.092   3.978  0.0955 -0.3708 -0.2848
  769MOL0     C 5995  11.317   3.220   3.889 -0.2780 -0.2283 -0.6282
  769MOL0     C 5996  11.249   3.346   3.949  0.1243  0.4097 -0.5945
  769MOL0     C 5997  11.251   3.460   3.856  0.7552  0.1744  0.3587
  769MOL0     C 5998  11.207   3.580   3.924  0.0518 -0.1405  0.3626
  769MOL0     C 5999  11.176   3.681   3.806 -0.5135 -0.2913  0.0076
  769MOL0     C 6000  11.096   3.791   3.865  0.3844 -0.1544 -0.1047
  769MOL0     N 6001  10.947   3.774   3.868  0.0533  0.2390  0.1826
  769MOL0     C 6002  10.873   3.783   3.983  0.8579  0.3925  0.2378
  769MOL0     C 6003  10.746   3.773   3.947  1.0454 -0.6039  0.2170
  769MOL0     C 6004  10.632   3.758   4.042 -0.2678  0.3176  0.1744
  769MOL0     C 6005  10.498   3.707   3.988  0.5541  0.5267 -0.9357
  769MOL0     C 6006  10.385   3.717   4.096 -0.1746  0.5682 -0.2668
  769MOL0     C 6007  10.418   3.652   4.229  0.0176 -0.2663 -0.1766
  769MOL0     O 6008  10.491   3.532   4.215  1.0741  0.4637 -0.2131
  769MOL0     C 6009  10.519   3.456   4.329  0.4444 -0.2337 -0.3076
  769MOL0     C 6010  10.618   3.364   4.314  0.3994  0.0347 -0.8517
  769MOL0     C 6011  10.656   3.275   4.411 -0.8928  0.0161 -0.1915
  769MOL0     C 6012  10.790   3.199   4.380 -0.2482  0.5081 -0.0512
  769MOL0     C 6013  10.599   3.290   4.539 -0.1939  0.3847 -0.2580
  769MOL0     C 6014  10.650   3.225   4.662 -0.4552  0.2491 -0.5641
  769MOL0     O 6015  10.571   3.222   4.768 -0.1960 -0.5668  0.4864
  769MOL0     C 6016  10.629   3.171   4.882 -0.9683 -0.5946 -0.9264
  769MOL0     C 6017  10.683   3.264   4.970  0.2812 -0.1220 -0.4317
  769MOL0     C 6018  10.754   3.224   5.084  0.1817  0.1531 -0.6776
  769MOL0     C 6019  10.761   3.089   5.118 -0.6411  0.9173  1.2153
  769MOL0     O 6020  10.787   3.063   5.248  0.4320 -0.2571 -0.1666
  769MOL0     C 6021  10.849   2.940   5.285  0.5824  0.2569  0.7264
  769MOL0     C 6022  10.880   2.946   5.442 -0.0174 -0.2350  0.5585
  769MOL0     C 6023  10.979   3.056   5.472 -0.4338  0.6659 -0.3120
  769MOL0     C 6024  10.970   3.095   5.620  0.7152 -0.7812  0.0362
  769MOL0     C 6025  11.035   3.224   5.647 -0.5554  0.8833 -0.1825
  769MOL0     C 6026  10.968   3.342   5.578 -0.2603  0.4868  0.3107
  769MOL0     C 6027  11.017   3.471   5.620 -0.2177 -0.5672  0.8162
  769MOL0     C 6028  10.932   3.575   5.539 -0.1948 -0.5728  0.5076
  769MOL0    Cl 6029  10.934   3.569   5.361 -0.3087  0.1496 -0.2911
  769MOL0     C 6030  10.724   2.998   5.022 -0.7168  0.6139  0.0345
  769MOL0     C 6031  10.658   3.031   4.900  0.7493  0.4276 -0.0907
  769MOL0     O 6032  10.769   3.187   4.656 -0.3456 -0.6617 -0.1612
  769MOL0     C 6033  10.491   3.382   4.558 -0.4540  1.1017 -0.3129
  769MOL0     C 6034  10.445   3.456   4.448  0.9038 -0.1124 -0.8197
  769MOL0     N 6035  10.743   3.773   3.808 -0.5921 -0.1950  0.4346
  769MOL0     N 6036  10.864   3.781   3.760 -0.5674  0.1589 -1.0898
  769MOL0     C 6037  11.183   2.809   3.766 -0.8369  0.5727  1.2041
  769MOL0     C 6038  11.116   2.702   3.705  0.8011 -0.0821  0.1690
  769MOL0     C 6039  11.059   2.291   3.476 -0.7003  0.6745 -1.2138
  769MOL0     C 6040  10.926   2.309   3.522 -0.5460  0.2121 -0.3823
  769MOL0     C 6041  10.827   2.209   3.507 -0.2357 -0.0194 -1.0878
  769MOL0     C 6042  10.866   2.085   3.467 -0.3495 -0.1007  0.8032
  769MOL0     O 6043  10.794   1.967   3.477  0.3165 -0.0595  0.0676
  769MOL0     C 6044  10.658   1.980   3.542  0.6848  0.4496  0.0518
  769MOL0     C 6045  10.593   1.838   3.576  1.2843 -0.3740  0.5564
  769MOL0     C 6046  10.689   1.752   3.643  0.1709  0.7634 -0.7453
  769MOL0     C 6047  10.622   1.619   3.697  0.1149 -0.7116 -0.9441
  769MOL0     C 6048  10.525   1.648   3.805 -0.1439  0.4783  0.5512
  769MOL0     C 6049  10.436   1.675   3.882 -0.0007  0.5212 -0.5804
  769MOL0     C 6050  10.991   2.071   3.413 -0.8496  0.7844 -1.1447
  769MOL0     C 6051  11.090   2.168   3.415  0.0021  1.2905  0.2072
  769MOL0     C 6052  11.225   2.135   3.357 -0.8734  0.8508 -0.0961
  769MOL0     H 6053  11.368   2.612   3.487  0.3388 -2.0733  0.6193
  769MOL0     H 6054  11.470   2.820   3.606  0.2903  1.0436  0.4914
  769MOL0     H 6055  11.495   2.956   3.925 -0.3293 -0.1216  1.0994
  769MOL0     H 6056  11.340   2.879   3.970  0.3079 -0.3589 -0.0156
  769MOL0     H 6057  11.228   3.074   4.019 -0.3659 -1.3289 -1.7632
  769MOL0     H 6058  11.392   3.114   4.064  0.4667  3.9270 -1.4304
  769MOL0     H 6059  11.421   3.242   3.863 -0.0276 -1.2919 -0.5670
  769MOL0     H 6060  11.277   3.196   3.790  3.1082 -1.0241 -1.9406
  769MOL0     H 6061  11.145   3.321   3.975  0.5643  3.1043  5.5282
  769MOL0     H 6062  11.300   3.375   4.041  0.6506 -0.5323 -0.5798
  769MOL0     H 6063  11.183   3.428   3.777  0.7437 -1.7650  1.1051
  769MOL0     H 6064  11.347   3.489   3.813  0.0071  0.7790 -0.9593
  769MOL0     H 6065  11.117   3.556   3.981  0.7575 -5.4578 -0.2703
  769MOL0     H 6066  11.283   3.623   3.990  0.5333  0.4441 -0.5499
  769MOL0     H 6067  11.109   3.637   3.732 -2.8108  2.7959  0.0704
  769MOL0     H 6068  11.267   3.707   3.751 -0.2696 -0.1273  0.4870
  769MOL0     H 6069  11.134   3.806   3.967 -0.8077 -0.2846  0.3738
  769MOL0     H 6070  11.118   3.879   3.804  0.4696 -0.3799 -0.3969
  769MOL0     H 6071  10.910   3.798   4.084 -1.4625  2.1241  0.9082
  769MOL0     H 6072  10.618   3.852   4.096 -0.8229 -0.9470  2.3558
  769MOL0     H 6073  10.658   3.680   4.115  1.4492  1.2009  0.5747
  769MOL0     H 6074  10.471   3.756   3.894 -3.0538  1.4161  0.3964
  769MOL0     H 6075  10.517   3.602   3.966  0.0313  0.0554  0.7244
  769MOL0     H 6076  10.351   3.820   4.110  2.0554  1.2668  0.3568
  769MOL0     H 6077  10.300   3.664   4.051 -1.3836  0.6033  1.8338
  769MOL0     H 6078  10.476   3.727   4.283 -0.6285  1.5159 -1.8902
  769MOL0     H 6079  10.321   3.627   4.274  0.0402 -0.9518 -0.4898
  769MOL0     H 6080  10.676   3.383   4.224  1.5935  1.1825  0.1140
  769MOL0     H 6081  10.767   3.097   4.414 -2.8900  0.2476 -2.2330
  769MOL0     H 6082  10.887   3.234   4.416  0.4184  0.5381 -1.8146
  769MOL0     H 6083  10.803   3.190   4.272  0.7733 -0.0014  0.1061
  769MOL0     H 6084  10.671   3.368   4.943  0.8857 -0.0233 -0.3236
  769MOL0     H 6085  10.800   3.287   5.159 -1.6257  1.1113 -0.3301
  769MOL0     H 6086  10.773   2.864   5.265  1.7519 -0.7276 -0.0948
  769MOL0     H 6087  10.942   2.929   5.228  2.6978  2.5155  3.4193
  769MOL0     H 6088  10.783   2.985   5.474  0.4977  2.8220 -1.1588
  769MOL0     H 6089  10.908   2.853   5.493  2.1451 -0.2323 -0.5120
  769MOL0     H 6090  10.956   3.136   5.400 -0.2558 -0.4766 -1.6825
  769MOL0     H 6091  11.082   3.020   5.463  0.1412  1.1112  3.1742
  769MOL0     H 6092  11.006   3.013   5.682 -1.7123 -1.2644  0.9185
  769MOL0     H 6093  10.863   3.109   5.638  1.0399  2.6582 -0.0995
  769MOL0     H 6094  11.029   3.250   5.753  0.3262  1.3301 -0.2224
  769MOL0     H 6095  11.142   3.214   5.623 -0.4018 -1.1839  1.2042
  769MOL0     H 6096  10.860   3.340   5.596 -0.6075 -4.5735 -0.8199
  769MOL0     H 6097  10.990   3.326   5.472  1.7176  1.0454  0.5943
  769MOL0     H 6098  11.123   3.478   5.593 -0.7561  2.8763 -0.9624
  769MOL0     H 6099  11.008   3.493   5.727 -2.8762  0.4818  0.4412
  769MOL0     H 6100  10.974   3.674   5.562  0.7084  0.6729 -4.9983
  769MOL0     H 6101  10.829   3.575   5.575 -0.6227  0.7215 -0.6249
  769MOL0     H 6102  10.746   2.895   5.045 -0.2288  0.2738 -1.7820
  769MOL0     H 6103  10.625   2.951   4.835 -0.6233 -0.7082  1.8927
  769MOL0     H 6104  10.444   3.374   4.656 -2.3883  0.8164 -1.2324
  769MOL0     H 6105  10.353   3.513   4.450  1.6286  1.1074  1.8474
  769MOL0     H 6106  11.122   2.860   3.839  0.7371  3.2130  0.8127
  769MOL0     H 6107  11.018   2.683   3.748  0.7335  1.0523  0.5521
  769MOL0     H 6108  10.886   2.408   3.538 -2.6640 -0.3840 -1.5062
  769MOL0     H 6109  10.726   2.228   3.540  0.0853  2.4201 -1.3442
  769MOL0     H 6110  10.654   2.038   3.635 -0.7790 -0.6321  0.7127
  769MOL0     H 6111  10.594   2.036   3.473 -0.2503 -0.2340  0.3340
  769MOL0     H 6112  10.558   1.793   3.483  1.7385  0.7644 -0.1936
  769MOL0     H 6113  10.509   1.852   3.644  0.6266 -3.4516  0.5218
  769MOL0     H 6114  10.768   1.717   3.576  0.0264  0.0327 -0.5432
  769MOL0     H 6115  10.734   1.792   3.734  0.6285 -0.8948 -0.1984
  769MOL0     H 6116  10.695   1.548   3.736  0.5996 -0.9290 -2.1875
  769MOL0     H 6117  10.570   1.559   3.622  1.0174  0.4887 -2.6028
  769MOL0     H 6118  10.356   1.695   3.951 -0.8588 -0.5910 -1.2124
  769MOL0     H 6119  11.002   1.970   3.376  3.6895  1.4611 -2.1272
  769MOL0     H 6120  11.307   2.150   3.429 -2.0419 -0.2661  1.5589
  769MOL0     H 6121  11.218   2.037   3.309  1.9336  0.6854 -0.3441
  769MOL0     H 6122  11.232   2.205   3.274  0.1904 -0.7035 -1.3774
  770MOL0     O 6123   1.931   0.328   4.990 -0.0590 -0.3734 -0.3259
  770MOL0     C 6124   1.908   0.218   4.946 -0.6330 -0.3609 -1.0055
  770MOL0     O 6125   1.809   0.138   4.996  0.7802  0.2195 -0.5806
  770MOL0     C 6126   1.754   0.185   5.117 -0.0257  0.5092 -1.7858
  770MOL0     C 6127   1.612   0.212   5.119 -0.1448  0.5333 -0.5548
  770MOL0     C 6128   1.554   0.272   5.234 -0.2710  0.6771  0.5902
  770MOL0     C 6129   1.633   0.296   5.349  0.9128 -1.0126  0.0195
  770MOL0     O 6130   1.579   0.342   5.473 -0.1095 -0.8153  0.3320
  770MOL0     C 6131   1.484   0.457   5.471  0.9819  0.2322  0.2321
  770MOL0     C 6132   1.370   0.427   5.574 -0.5235 -0.0359  0.2282
  770MOL0     C 6133   1.234   0.361   5.534  0.4851 -0.1329 -0.2996
  770MOL0     C 6134   1.262   0.220   5.490 -0.1138 -0.1276  0.2281
  770MOL0     C 6135   1.132   0.151   5.455 -0.1505  0.2728  0.6338
  770MOL0     C 6136   1.000   0.159   5.545  0.0576  0.2985  0.1944
  770MOL0     C 6137   1.030   0.130   5.697  0.9650 -0.7353 -0.0896
  770MOL0     C 6138   1.024  -0.026   5.738  0.2597 -1.2416 -0.2435
  770MOL0     N 6139   0.889  -0.076   5.720 -0.5933 -0.0641 -0.1760
  770MOL0     C 6140   0.798  -0.104   5.820  0.1130  0.2105  0.3482
  770MOL0     C 6141   0.693  -0.167   5.759  0.4283  0.0339 -0.3992
  770MOL0     C 6142   0.573  -0.244   5.820 -0.6186 -0.3700  0.3910
  770MOL0     C 6143   0.532  -0.365   5.753 -0.1661 -0.1987  0.7234
  770MOL0     C 6144   0.417  -0.448   5.816  1.0768  0.4168 -0.1638
  770MOL0     C 6145   0.375  -0.580   5.749 -0.8934  0.0102  0.1149
  770MOL0     O 6146   0.283  -0.655   5.824  1.2467 -0.0689 -0.0037
  770MOL0     C 6147   0.147  -0.633   5.808 -0.1660 -0.4209  0.2819
  770MOL0     C 6148   0.075  -0.519   5.769  0.0472 -1.2761 -0.3072
  770MOL0     C 6149  -0.065  -0.511   5.779 -0.1700  0.3531  0.1772
  770MOL0     C 6150  -0.116  -0.371   5.733  0.4407 -0.0281  0.2121
  770MOL0     C 6151  -0.148  -0.620   5.811  0.2591  0.2230  0.2510
  770MOL0     C 6152  -0.294  -0.619   5.810 -0.8168  0.8526 -0.0296
  770MOL0     O 6153  -0.353  -0.744   5.814  0.4869  0.4888 -0.7650
  770MOL0     C 6154  -0.489  -0.759   5.823  0.5020 -0.7361 -0.2631
  770MOL0     C 6155  -0.549  -0.862   5.755  0.3725  0.1821 -0.8136
  770MOL0     C 6156  -0.692  -0.880   5.771  0.2848  1.0281  0.4028
  770MOL0     C 6157  -0.774  -0.792   5.842 -0.2191  0.8562  1.0225
  770MOL0     O 6158  -0.905  -0.809   5.845 -0.2871  0.4443  0.1134
  770MOL0     C 6159  -0.970  -0.806   5.724  0.4305 -0.0247  0.2511
  770MOL0     C 6160  -1.119  -0.842   5.755 -0.2938  0.0879  0.7843
  770MOL0     C 6161  -1.209  -0.767   5.650 -0.7988 -0.1905  0.5258
  770MOL0     C 6162  -1.355  -0.798   5.672  0.3527  0.7415 -0.3361
  770MOL0     C 6163  -1.407  -0.940   5.643  0.4867  0.1563  0.5171
  770MOL0     C 6164  -1.373  -0.978   5.496 -0.2816 -0.1249  0.3106
  770MOL0     C 6165  -1.435  -0.889   5.391  0.1845  1.0617  0.4106
  770MOL0     C 6166  -1.383  -0.932   5.252  0.0808  1.5391 -0.5617
  770MOL0    Cl 6167  -1.452  -1.091   5.211  0.1339  0.4030 -0.6811
  770MOL0     C 6168  -0.713  -0.693   5.908 -0.0620 -0.1321 -0.3292
  770MOL0     C 6169  -0.572  -0.671   5.908  0.5605  0.4543  0.6444
  770MOL0     O 6170  -0.347  -0.509   5.816  0.0093 -0.0763  0.3656
  770MOL0     C 6171  -0.076  -0.734   5.844  0.2185 -0.5996 -0.1322
  770MOL0     C 6172   0.069  -0.734   5.864  0.3547  0.1870  0.4411
  770MOL0     N 6173   0.718  -0.175   5.621 -0.3320 -0.3052 -0.1569
  770MOL0     N 6174   0.838  -0.124   5.606  0.6021  1.1622 -0.0802
  770MOL0     C 6175   1.771   0.263   5.345 -0.1593  0.7960 -0.1597
  770MOL0     C 6176   1.832   0.200   5.239 -0.1801 -0.8981  0.3632
  770MOL0     C 6177   1.991   0.175   4.835  0.2394  0.0835  0.1143
  770MOL0     C 6178   1.935   0.068   4.759  0.6885  0.0116  0.1067
  770MOL0     C 6179   1.993   0.026   4.646  0.5394 -0.1086 -0.1832
  770MOL0     C 6180   2.122   0.070   4.600  0.8645  0.0108  0.6643
  770MOL0     O 6181   2.186   0.016   4.487  0.0352 -0.5146  0.0628
  770MOL0     C 6182   2.221   0.116   4.387  0.2561 -0.1612  0.2165
  770MOL0     C 6183   2.367   0.134   4.355  0.2466  0.0392 -0.4385
  770MOL0     C 6184   2.433   0.010   4.298 -0.3009 -0.0473  0.9586
  770MOL0     C 6185   2.583   0.040   4.256  0.7129  0.0131  0.6703
  770MOL0     C 6186   2.578   0.137   4.145  0.5784  1.5352  0.1309
  770MOL0     C 6187   2.559   0.227   4.064 -0.3689  1.0230 -0.2923
  770MOL0     C 6188   2.164   0.188   4.673  0.4175 -0.4072  0.5714
  770MOL0     C 6189   2.107   0.243   4.787  0.4906  0.7591  0.6834
  770MOL0     C 6190   2.169   0.363   4.846  1.4501 -0.7232 -0.4964
  770MOL0     H 6191   1.552   0.193   5.031 -0.9757  2.5899 -0.4962
  770MOL0     H 6192   1.447   0.291   5.234 -0.7801 -1.4178 -2.3667
  770MOL0     H 6193   1.441   0.473   5.372  0.8828  0.1345  0.2588
  770MOL0     H 6194   1.534   0.543   5.515 -0.5212  1.2229  0.0704
  770MOL0     H 6195   1.414   0.361   5.649  0.8807  2.2748  1.5462
  770MOL0     H 6196   1.347   0.527   5.612 -0.3730 -0.9105  2.7946
  770MOL0     H 6197   1.164   0.375   5.617  0.1426 -0.7445 -0.4783
  770MOL0     H 6198   1.197   0.416   5.447  1.5214  1.0317 -0.0411
  770MOL0     H 6199   1.331   0.227   5.406 -0.6889  1.9484 -0.1310
  770MOL0     H 6200   1.312   0.165   5.570  1.0987  0.8209  0.1481
  770MOL0     H 6201   1.161   0.048   5.476 -0.7630  0.4474  2.4721
  770MOL0     H 6202   1.096   0.151   5.351  1.4818 -0.8463  0.0198
  770MOL0     H 6203   0.964   0.262   5.552  0.7065  0.4774  1.0264
  770MOL0     H 6204   0.927   0.094   5.496  0.7315  0.9410 -1.7822
  770MOL0     H 6205   0.971   0.191   5.765  2.2120  0.1996  0.1799
  770MOL0     H 6206   1.124   0.169   5.735 -0.4087  1.1988  1.5049
  770MOL0     H 6207   1.099  -0.084   5.682  1.4414  0.6155 -0.6789
  770MOL0     H 6208   1.054  -0.038   5.842  1.0718 -0.2063 -0.3394
  770MOL0     H 6209   0.804  -0.085   5.926 -0.4052 -0.5338  0.5237
  770MOL0     H 6210   0.488  -0.175   5.816 -1.4152 -1.3435 -3.3602
  770MOL0     H 6211   0.593  -0.268   5.925 -1.1716  0.2707  0.6519
  770MOL0     H 6212   0.494  -0.333   5.655  1.1684  0.0197  0.2427
  770MOL0     H 6213   0.616  -0.434   5.742  2.1660  2.0305  3.0256
  770MOL0     H 6214   0.445  -0.472   5.919 -0.0285  0.1979  0.1076
  770MOL0     H 6215   0.324  -0.389   5.820  1.4094  0.9692 -0.4601
  770MOL0     H 6216   0.328  -0.549   5.656  0.7892  0.9997 -0.4520
  770MOL0     H 6217   0.463  -0.642   5.729 -2.4329 -1.5988 -2.0189
  770MOL0     H 6218   0.131  -0.429   5.745  0.3108 -1.0640  1.0120
  770MOL0     H 6219  -0.183  -0.335   5.812 -3.4955  0.7955 -3.1178
  770MOL0     H 6220  -0.172  -0.368   5.639  2.9710 -2.8630 -1.5567
  770MOL0     H 6221  -0.038  -0.294   5.734  0.2979  0.1511  2.4800
  770MOL0     H 6222  -0.479  -0.913   5.689  0.5550 -0.2598 -0.2880
  770MOL0     H 6223  -0.737  -0.955   5.706  2.5031 -1.7198  1.7964
  770MOL0     H 6224  -0.954  -0.708   5.678  1.5234 -0.0931  0.4532
  770MOL0     H 6225  -0.935  -0.875   5.646 -2.6285 -1.7020  0.1846
  770MOL0     H 6226  -1.138  -0.949   5.743 -1.4785  0.5390 -2.2848
  770MOL0     H 6227  -1.154  -0.818   5.856 -4.1588  0.6508 -0.4911
  770MOL0     H 6228  -1.171  -0.791   5.550 -1.0557 -1.6135  0.7390
  770MOL0     H 6229  -1.190  -0.660   5.660 -1.3354  0.4887 -3.6947
  770MOL0     H 6230  -1.409  -0.715   5.626  0.8440  0.2628 -1.8294
  770MOL0     H 6231  -1.365  -0.794   5.781  2.1287  0.1885 -0.1149
  770MOL0     H 6232  -1.375  -1.023   5.706  1.8616  1.1456  1.1871
  770MOL0     H 6233  -1.516  -0.944   5.651  0.4502  1.0838  0.6019
  770MOL0     H 6234  -1.392  -1.083   5.473  2.9035 -1.1923  1.9524
  770MOL0     H 6235  -1.266  -0.960   5.486 -0.7127  2.4496 -0.3600
  770MOL0     H 6236  -1.407  -0.784   5.402  1.0186  0.6557  2.8744
  770MOL0     H 6237  -1.544  -0.895   5.386  0.2312  0.9519 -2.3647
  770MOL0     H 6238  -1.274  -0.939   5.249 -0.0084 -0.6730 -0.6112
  770MOL0     H 6239  -1.420  -0.864   5.176  0.6067  0.0988 -2.1719
  770MOL0     H 6240  -0.769  -0.624   5.971  1.3583  0.1852  0.6463
  770MOL0     H 6241  -0.524  -0.597   5.972  0.2361  3.5102 -2.3236
  770MOL0     H 6242  -0.136  -0.817   5.879 -2.6074  1.0426 -0.7395
  770MOL0     H 6243   0.123  -0.818   5.907 -0.9066  0.1449  2.0040
  770MOL0     H 6244   1.829   0.279   5.436 -0.9631 -0.4510  0.6007
  770MOL0     H 6245   1.934   0.162   5.244 -0.3638 -1.4632 -0.0498
  770MOL0     H 6246   1.855   0.007   4.800  0.7280  1.1451  1.9776
  770MOL0     H 6247   1.943  -0.054   4.592  1.3800 -1.2023  0.6234
  770MOL0     H 6248   2.179   0.074   4.295  2.4830 -2.3190  0.0734
  770MOL0     H 6249   2.181   0.213   4.418 -0.6696 -1.0652  2.0061
  770MOL0     H 6250   2.413   0.170   4.447 -1.5489 -0.3851  0.6766
  770MOL0     H 6251   2.385   0.217   4.286  0.4265 -0.1319 -0.5987
  770MOL0     H 6252   2.426  -0.069   4.372 -1.6802 -0.9515 -0.0767
  770MOL0     H 6253   2.377  -0.027   4.211  2.0561 -0.9155 -0.2886
  770MOL0     H 6254   2.610  -0.061   4.224 -1.8404  0.3319 -3.2203
  770MOL0     H 6255   2.644   0.079   4.338  1.1223 -2.1239  1.4658
  770MOL0     H 6256   2.547   0.311   3.999  3.4368  0.4383 -2.0515
  770MOL0     H 6257   2.258   0.232   4.643  0.5398  0.6886  2.4476
  770MOL0     H 6258   2.265   0.383   4.797  0.4352  0.9425 -1.9318
  770MOL0     H 6259   2.096   0.442   4.827  1.5060 -0.2759  1.0274
  770MOL0     H 6260   2.175   0.359   4.955 -0.7735 -2.4210 -0.3602
  771MOL0     O 6261   1.127   8.583   5.920  0.2533 -0.9466  0.0675
  771MOL0     C 6262   1.101   8.473   5.964 -0.4942  0.6128 -0.5179
  771MOL0     O 6263   1.098   8.359   5.889 -0.0147  0.5624  0.2816
  771MOL0     C 6264   1.116   8.350   5.753  0.7906  1.1910  0.4319
  771MOL0     C 6265   1.177   8.450   5.676 -0.0368  1.0988 -0.0216
  771MOL0     C 6266   1.173   8.448   5.543 -0.1741  1.0706  0.3213
  771MOL0     C 6267   1.137   8.331   5.470 -0.1035 -0.5093  0.3270
  771MOL0     O 6268   1.132   8.350   5.338 -1.0539 -0.2124  0.0195
  771MOL0     C 6269   1.157   8.231   5.263 -0.5526 -0.4792  0.0699
  771MOL0     C 6270   1.188   8.269   5.111 -0.4620 -0.4490 -0.3412
  771MOL0     C 6271   1.323   8.347   5.092 -0.1368 -0.1822 -0.0547
  771MOL0     C 6272   1.388   8.308   4.962 -0.3428 -0.8153  0.7664
  771MOL0     C 6273   1.469   8.429   4.897  0.0258 -0.7953 -0.8208
  771MOL0     C 6274   1.604   8.447   4.976 -0.8093 -0.3775  0.7698
  771MOL0     C 6275   1.670   8.573   4.917  0.3259 -0.1613  0.1366
  771MOL0     C 6276   1.815   8.610   4.941 -0.6550 -0.4986 -0.0802
  771MOL0     N 6277   1.918   8.509   4.911 -0.1165 -0.3926 -0.0101
  771MOL0     C 6278   1.972   8.426   5.013  0.1768  0.3840 -0.2674
  771MOL0     C 6279   2.086   8.384   4.956 -1.1239 -0.5058  0.8413
  771MOL0     C 6280   2.200   8.300   5.023  0.2222  0.0172 -0.5828
  771MOL0     C 6281   2.327   8.367   5.062  0.4882  0.4437  0.3114
  771MOL0     C 6282   2.309   8.465   5.175  0.7611 -0.4134  1.0749
  771MOL0     C 6283   2.439   8.513   5.243 -1.0018 -0.2791 -0.2664
  771MOL0     O 6284   2.544   8.536   5.137  0.1461  0.3295 -0.3056
  771MOL0     C 6285   2.637   8.625   5.172 -0.0868 -0.5061 -0.2474
  771MOL0     C 6286   2.672   8.724   5.091  0.1233 -0.6958  0.4587
  771MOL0     C 6287   2.780   8.814   5.111  0.1559  0.6230 -0.2111
  771MOL0     C 6288   2.811   8.909   5.001  0.0848 -1.2745  0.1414
  771MOL0     C 6289   2.851   8.809   5.237 -0.7630  0.7410 -0.1493
  771MOL0     C 6290   2.965   8.892   5.274 -0.2913  0.2885 -0.1137
  771MOL0     O 6291   2.995   8.893   5.416 -0.2960 -0.1881  0.7431
  771MOL0     C 6292   3.067   8.987   5.472  0.3279 -0.9805  0.3070
  771MOL0     C 6293   3.128   8.955   5.587  0.1143  1.6509  0.2323
  771MOL0     C 6294   3.196   9.054   5.657 -0.0386  0.0424  0.4604
  771MOL0     C 6295   3.222   9.185   5.600 -1.1249  0.7405 -0.3789
  771MOL0     O 6296   3.314   9.276   5.660  1.0954  0.3364 -0.2037
  771MOL0     C 6297   3.434   9.227   5.734 -0.4644 -0.5331 -0.0468
  771MOL0     C 6298   3.545   9.187   5.637 -0.1824  0.1348 -0.5386
  771MOL0     C 6299   3.585   9.300   5.543 -0.8578 -0.2896  0.3833
  771MOL0     C 6300   3.710   9.272   5.475 -0.7537  0.2342 -0.5017
  771MOL0     C 6301   3.834   9.284   5.555 -0.1230  0.2220 -0.0857
  771MOL0     C 6302   3.964   9.284   5.474  0.3616 -0.3685 -0.1397
  771MOL0     C 6303   4.070   9.358   5.560  1.0101 -0.3823 -0.2289
  771MOL0     C 6304   4.173   9.428   5.471 -0.6323 -0.2414  0.2826
  771MOL0    Cl 6305   4.282   9.524   5.574  0.3045 -0.7247 -0.1615
  771MOL0     C 6306   3.152   9.217   5.486 -0.8198 -0.6333 -0.1402
  771MOL0     C 6307   3.081   9.120   5.416  0.7339  1.1877 -1.1540
  771MOL0     O 6308   3.013   8.965   5.195 -0.0218 -0.7947 -0.6535
  771MOL0     C 6309   2.798   8.725   5.341 -0.3845  0.2096 -0.1710
  771MOL0     C 6310   2.698   8.636   5.297 -0.1773  0.0084 -0.5005
  771MOL0     N 6311   2.102   8.450   4.830  0.3430 -0.5981 -0.7672
  771MOL0     N 6312   2.005   8.527   4.806  0.9566  0.1259  0.2043
  771MOL0     C 6313   1.084   8.226   5.546 -0.1207 -0.3088  1.1227
  771MOL0     C 6314   1.070   8.239   5.681 -0.8614 -0.1589 -0.0176
  771MOL0     C 6315   1.056   8.449   6.104  0.3845 -0.1684 -0.6886
  771MOL0     C 6316   1.021   8.323   6.149 -0.0572 -0.1123  0.0351
  771MOL0     C 6317   0.979   8.299   6.279  0.0662  0.7071 -0.1202
  771MOL0     C 6318   0.980   8.403   6.375 -0.2400  0.6887 -0.4184
  771MOL0     O 6319   0.947   8.387   6.507 -0.0030  1.1887 -0.1180
  771MOL0     C 6320   0.891   8.258   6.553 -0.4772 -0.5260  1.2848
  771MOL0     C 6321   0.855   8.255   6.702  0.1200  0.0287 -0.0400
  771MOL0     C 6322   0.760   8.135   6.748 -0.7004  0.5954  0.1171
  771MOL0     C 6323   0.616   8.170   6.725 -0.5852 -0.9654  0.3839
  771MOL0     C 6324   0.516   8.071   6.763 -0.7641 -0.2134  1.0373
  771MOL0     C 6325   0.445   7.978   6.778 -0.1938 -0.1913 -0.8681
  771MOL0     C 6326   1.020   8.523   6.329  0.6370 -0.5800  0.2536
  771MOL0     C 6327   1.046   8.553   6.197  1.1576 -1.3388 -0.5785
  771MOL0     C 6328   1.098   8.692   6.173  1.1613 -0.1071 -0.3875
  771MOL0     H 6329   1.238   8.532   5.714  0.7827  1.8760 -2.8265
  771MOL0     H 6330   1.224   8.525   5.486  0.0004  2.6439  2.4778
  771MOL0     H 6331   1.075   8.159   5.272  1.1475 -2.2184  4.8218
  771MOL0     H 6332   1.251   8.187   5.297  1.4561  0.7693 -3.3173
  771MOL0     H 6333   1.192   8.178   5.049 -0.5588 -2.2317  2.1368
  771MOL0     H 6334   1.110   8.335   5.072 -1.0075 -1.5742 -1.2422
  771MOL0     H 6335   1.290   8.451   5.084 -2.4190 -0.9502 -1.6859
  771MOL0     H 6336   1.405   8.329   5.163 -2.1609 -3.2090  1.7395
  771MOL0     H 6337   1.459   8.226   4.973  0.4158 -0.2831 -0.0493
  771MOL0     H 6338   1.311   8.278   4.891  0.6935  1.4208 -1.4867
  771MOL0     H 6339   1.405   8.517   4.905  1.8616  0.4880  0.5741
  771MOL0     H 6340   1.485   8.411   4.790 -0.7658 -1.2381 -0.8724
  771MOL0     H 6341   1.577   8.449   5.082  0.0575  0.0648  0.9920
  771MOL0     H 6342   1.671   8.362   4.956 -1.3423 -0.3357 -1.4802
  771MOL0     H 6343   1.603   8.653   4.947  1.2681  0.3698  0.8913
  771MOL0     H 6344   1.654   8.563   4.809 -0.9926  0.5540  0.2472
  771MOL0     H 6345   1.825   8.689   4.866 -0.0118 -3.8435 -3.8335
  771MOL0     H 6346   1.823   8.635   5.047  1.3885 -2.2012  0.2369
  771MOL0     H 6347   1.929   8.411   5.111 -1.8502 -0.4154 -1.1959
  771MOL0     H 6348   2.225   8.220   4.952  0.8664 -1.1241  0.8901
  771MOL0     H 6349   2.159   8.247   5.110 -1.2009  1.7104 -0.1708
  771MOL0     H 6350   2.399   8.290   5.088 -1.2823 -1.0004  1.1994
  771MOL0     H 6351   2.376   8.420   4.980  0.6276 -0.9049 -0.5002
  771MOL0     H 6352   2.254   8.554   5.143  1.6785 -0.8404 -2.0195
  771MOL0     H 6353   2.240   8.414   5.243 -3.4360 -0.8165 -2.9521
  771MOL0     H 6354   2.417   8.611   5.289  2.6239 -0.0632  1.3658
  771MOL0     H 6355   2.466   8.442   5.322  1.2811  1.2724  0.4558
  771MOL0     H 6356   2.612   8.729   5.000  0.4346  3.6502  0.2943
  771MOL0     H 6357   2.762   9.003   5.027 -0.7411 -2.1143  1.8074
  771MOL0     H 6358   2.781   8.882   4.899 -0.9930 -1.4205  0.4898
  771MOL0     H 6359   2.918   8.932   4.995 -0.2760  1.6919  2.6810
  771MOL0     H 6360   3.127   8.855   5.628 -2.3800  1.6235  0.2646
  771MOL0     H 6361   3.258   9.040   5.745 -0.0106  4.8819  1.4590
  771MOL0     H 6362   3.463   9.318   5.788  0.4593  0.6426 -2.4110
  771MOL0     H 6363   3.417   9.148   5.808  1.0377 -0.8181  0.0088
  771MOL0     H 6364   3.628   9.150   5.699 -1.2053 -4.0072 -1.3492
  771MOL0     H 6365   3.498   9.108   5.578  2.3207  0.9072 -3.8811
  771MOL0     H 6366   3.580   9.401   5.585 -1.3791 -0.5274  0.8991
  771MOL0     H 6367   3.520   9.308   5.456 -0.9671  1.7662  0.6093
  771MOL0     H 6368   3.712   9.346   5.395 -1.1968  0.0224 -0.7162
  771MOL0     H 6369   3.712   9.172   5.429  1.2101 -0.6843  1.4015
  771MOL0     H 6370   3.835   9.378   5.612  5.8033 -0.6095  1.8978
  771MOL0     H 6371   3.840   9.201   5.626  0.3342  0.5073  0.2130
  771MOL0     H 6372   3.949   9.336   5.379  0.0510  0.9352  0.5903
  771MOL0     H 6373   3.989   9.182   5.445  1.7515 -0.7671  2.2294
  771MOL0     H 6374   4.122   9.289   5.627 -0.3523 -0.2582  1.0008
  771MOL0     H 6375   4.031   9.437   5.624  0.7731 -0.2830 -0.4936
  771MOL0     H 6376   4.121   9.499   5.405 -0.8646  0.9718  1.7159
  771MOL0     H 6377   4.239   9.359   5.418  1.4597 -0.3296  2.8150
  771MOL0     H 6378   3.159   9.317   5.444  0.5543  1.8616  5.2138
  771MOL0     H 6379   3.025   9.159   5.331 -0.0987  0.9582 -0.7254
  771MOL0     H 6380   2.832   8.721   5.444 -0.9735  1.2879  0.0869
  771MOL0     H 6381   2.666   8.566   5.374  0.7038 -1.2065 -1.2117
  771MOL0     H 6382   1.052   8.136   5.495  0.2729 -1.1175  2.2426
  771MOL0     H 6383   1.037   8.157   5.745  2.4658 -1.7485 -0.1075
  771MOL0     H 6384   1.019   8.240   6.079  2.1928  0.0047 -0.2571
  771MOL0     H 6385   0.948   8.200   6.312  1.5382  0.7969  1.7100
  771MOL0     H 6386   0.810   8.222   6.489  2.4189 -1.1493 -2.3041
  771MOL0     H 6387   0.978   8.195   6.538  0.7970  1.4766 -0.1550
  771MOL0     H 6388   0.802   8.346   6.731  0.7213  0.7587 -1.1889
  771MOL0     H 6389   0.948   8.257   6.759 -1.3212  0.3136  2.4993
  771MOL0     H 6390   0.784   8.040   6.699 -2.8844 -0.8041  1.5775
  771MOL0     H 6391   0.772   8.117   6.855  2.0958  3.4510  0.4485
  771MOL0     H 6392   0.602   8.198   6.620  0.5962 -1.0682  0.1855
  771MOL0     H 6393   0.596   8.254   6.792  1.0204  0.8422 -1.2806
  771MOL0     H 6394   0.382   7.897   6.808  0.3793 -0.5582 -0.6533
  771MOL0     H 6395   1.043   8.596   6.406  0.8723 -2.9219  2.5520
  771MOL0     H 6396   1.017   8.752   6.129 -2.0939 -1.5252  3.1003
  771MOL0     H 6397   1.116   8.740   6.270  0.8663  0.5693 -0.6577
  771MOL0     H 6398   1.191   8.706   6.117  0.7960  2.0565 -0.5666
  772MOL0     O 6399   5.302   6.880   0.682 -0.8602  0.2035  0.3720
  772MOL0     C 6400   5.264   6.883   0.568  0.9549  0.0921 -0.7248
  772MOL0     O 6401   5.269   6.768   0.487 -0.5133 -0.5176  1.1824
  772MOL0     C 6402   5.290   6.646   0.533 -0.8602  0.2836 -0.1276
  772MOL0     C 6403   5.374   6.573   0.450 -0.4773 -0.3605 -0.1458
  772MOL0     C 6404   5.419   6.439   0.478  1.1088  0.5909  0.5806
  772MOL0     C 6405   5.374   6.385   0.603  0.1633 -0.0558  0.0295
  772MOL0     O 6406   5.407   6.266   0.657 -0.0539 -0.7602 -0.1518
  772MOL0     C 6407   5.462   6.176   0.560 -0.3053 -0.7606  0.4271
  772MOL0     C 6408   5.478   6.047   0.634  0.0054  0.3281 -0.3021
  772MOL0     C 6409   5.497   5.940   0.529 -0.2984 -0.0893 -0.4460
  772MOL0     C 6410   5.560   5.811   0.583 -0.4008 -0.5906  0.2458
  772MOL0     C 6411   5.701   5.777   0.527 -0.2331 -0.1337 -0.4998
  772MOL0     C 6412   5.725   5.761   0.372 -0.5276  0.2000 -0.2191
  772MOL0     C 6413   5.610   5.668   0.324  0.3111  0.0456  1.0073
  772MOL0     C 6414   5.621   5.638   0.178  0.4042 -0.4942  0.0356
  772MOL0     N 6415   5.661   5.497   0.140 -0.8572  0.7012 -0.4810
  772MOL0     C 6416   5.789   5.450   0.160  0.2155  0.9015  0.4680
  772MOL0     C 6417   5.776   5.315   0.133  0.3065  0.0560 -0.1375
  772MOL0     C 6418   5.889   5.224   0.137 -1.1165  0.5544 -0.1448
  772MOL0     C 6419   5.868   5.116   0.028 -0.1249  0.9589 -0.4175
  772MOL0     C 6420   5.987   5.007   0.028  0.1718  0.3088 -0.0991
  772MOL0     C 6421   5.932   4.860   0.041  0.4779  0.0436  0.3106
  772MOL0     O 6422   5.855   4.840  -0.081 -0.7423 -0.1192 -0.5809
  772MOL0     C 6423   5.783   4.726  -0.083  0.1496  0.6848  0.2105
  772MOL0     C 6424   5.808   4.642  -0.192  0.0788 -0.1540  0.9323
  772MOL0     C 6425   5.724   4.536  -0.217 -0.3178 -0.0849 -0.1389
  772MOL0     C 6426   5.770   4.437  -0.323 -0.2911 -0.6208  0.4004
  772MOL0     C 6427   5.606   4.519  -0.146 -0.2298 -0.6788  0.3343
  772MOL0     C 6428   5.515   4.409  -0.178  0.4352  0.3672 -0.1029
  772MOL0     O 6429   5.379   4.445  -0.168  0.8444 -0.2908 -0.0684
  772MOL0     C 6430   5.298   4.347  -0.222  0.3625 -0.3123 -0.0364
  772MOL0     C 6431   5.292   4.325  -0.363 -0.6708  0.6012 -1.0116
  772MOL0     C 6432   5.208   4.222  -0.414 -1.0418 -0.1659  0.3222
  772MOL0     C 6433   5.131   4.155  -0.319 -0.4014 -0.2258  0.7524
  772MOL0     O 6434   5.043   4.050  -0.343 -0.1988 -0.6741  0.3613
  772MOL0     C 6435   5.047   3.995  -0.477  0.1978 -0.1797  0.3336
  772MOL0     C 6436   4.948   4.052  -0.577 -0.0865  0.3687  0.2258
  772MOL0     C 6437   4.940   3.987  -0.725  0.2103 -0.1294 -0.6637
  772MOL0     C 6438   5.053   4.031  -0.812 -0.3382  1.0270  0.3956
  772MOL0     C 6439   5.051   3.960  -0.948 -0.5659 -0.0749  0.2086
  772MOL0     C 6440   5.180   3.980  -1.036  0.1677  0.5928 -0.2647
  772MOL0     C 6441   5.167   3.899  -1.171  0.5608 -1.2861 -0.7361
  772MOL0     C 6442   5.275   3.949  -1.273 -0.1377  1.0999  0.2800
  772MOL0    Cl 6443   5.230   4.111  -1.347  0.3693  0.5004  0.1067
  772MOL0     C 6444   5.152   4.171  -0.180  0.3352  0.2661  0.3634
  772MOL0     C 6445   5.233   4.272  -0.132  1.0750  0.9223 -0.2098
  772MOL0     O 6446   5.557   4.288  -0.206  0.7686 -0.0282 -0.3678
  772MOL0     C 6447   5.577   4.610  -0.033 -1.0438 -0.6979 -0.7449
  772MOL0     C 6448   5.665   4.716  -0.002 -0.7619 -0.3952  0.9362
  772MOL0     N 6449   5.647   5.278   0.120  0.1337 -0.0588  0.3308
  772MOL0     N 6450   5.576   5.388   0.127 -0.5060 -0.1077 -0.1996
  772MOL0     C 6451   5.296   6.465   0.692  0.9275  0.9313  0.1014
  772MOL0     C 6452   5.242   6.592   0.650 -0.5972 -0.0242 -0.4503
  772MOL0     C 6453   5.217   7.003   0.516  0.5663 -0.5718  0.4151
  772MOL0     C 6454   5.304   7.111   0.517  0.5685 -0.9149 -0.3798
  772MOL0     C 6455   5.266   7.238   0.484  0.5114  0.0352 -0.6060
  772MOL0     C 6456   5.135   7.267   0.444  0.7308  0.7323 -0.0705
  772MOL0     O 6457   5.071   7.378   0.398 -0.5277  0.0301  0.2510
  772MOL0     C 6458   5.132   7.500   0.442 -0.1284  0.8404 -0.3772
  772MOL0     C 6459   5.241   7.533   0.343  0.2616 -0.0012  0.3281
  772MOL0     C 6460   5.365   7.616   0.393  0.1783  0.1230  0.8006
  772MOL0     C 6461   5.312   7.750   0.435  0.0144 -0.6571 -1.3841
  772MOL0     C 6462   5.420   7.850   0.440 -0.2547 -0.1328 -0.8297
  772MOL0     C 6463   5.509   7.931   0.437  0.5421 -0.5400 -0.6149
  772MOL0     C 6464   5.046   7.158   0.442 -0.3661 -0.3873 -0.6208
  772MOL0     C 6465   5.085   7.026   0.467  0.2675  1.0104 -0.1683
  772MOL0     C 6466   4.982   6.924   0.484  0.0047  0.1692  0.4588
  772MOL0     H 6467   5.409   6.621   0.359  0.8135  0.3582  0.6786
  772MOL0     H 6468   5.486   6.390   0.409 -0.2819 -2.0436  0.9409
  772MOL0     H 6469   5.561   6.210   0.527  0.6547 -1.5626  2.3011
  772MOL0     H 6470   5.400   6.171   0.470  1.0003 -1.8627 -0.4575
  772MOL0     H 6471   5.563   6.061   0.702  0.9520 -0.6454 -1.2478
  772MOL0     H 6472   5.391   6.024   0.696 -0.7643 -1.3987 -1.9275
  772MOL0     H 6473   5.401   5.918   0.480 -0.0578 -3.0385  0.1891
  772MOL0     H 6474   5.558   5.985   0.451  2.0290 -3.5826 -0.8721
  772MOL0     H 6475   5.574   5.817   0.691  1.4877  1.0852 -0.0275
  772MOL0     H 6476   5.503   5.721   0.558 -0.7925 -1.1746  2.9171
  772MOL0     H 6477   5.733   5.687   0.580  2.2878  0.3593 -1.0844
  772MOL0     H 6478   5.770   5.858   0.554 -1.0047  0.9372 -1.6010
  772MOL0     H 6479   5.721   5.855   0.315  1.2643 -0.4287 -1.5083
  772MOL0     H 6480   5.826   5.721   0.360  0.9170  1.7148  4.6918
  772MOL0     H 6481   5.516   5.724   0.313  0.1550 -0.6372 -1.9468
  772MOL0     H 6482   5.607   5.573   0.377 -0.4073 -1.6409 -1.8775
  772MOL0     H 6483   5.522   5.669   0.141 -0.1922  0.0193  1.9523
  772MOL0     H 6484   5.680   5.717   0.130 -2.1556  1.9906  0.6807
  772MOL0     H 6485   5.882   5.500   0.186  2.9613 -2.6075 -1.7021
  772MOL0     H 6486   5.887   5.180   0.237  0.9044  3.0979  1.1340
  772MOL0     H 6487   5.985   5.273   0.119 -0.3741 -0.1936  1.5920
  772MOL0     H 6488   5.768   5.077   0.045  0.1270  0.7865  0.7794
  772MOL0     H 6489   5.869   5.160  -0.072  5.7687 -1.2859 -1.7508
  772MOL0     H 6490   6.033   5.018  -0.071 -1.3162  0.2515 -0.8133
  772MOL0     H 6491   6.067   5.034   0.097 -2.0383  2.0017  1.9656
  772MOL0     H 6492   6.014   4.789   0.049 -0.8784 -1.6562 -0.2075
  772MOL0     H 6493   5.879   4.856   0.137  0.5361 -2.1356  0.2892
  772MOL0     H 6494   5.891   4.670  -0.257 -0.6576  2.7648  1.0988
  772MOL0     H 6495   5.863   4.475  -0.368 -1.0189  1.0469  0.2212
  772MOL0     H 6496   5.695   4.427  -0.402 -1.0133  1.7187  0.7149
  772MOL0     H 6497   5.788   4.338  -0.280  1.1441 -0.0839  1.1026
  772MOL0     H 6498   5.357   4.383  -0.427  1.5310 -2.8728 -2.2091
  772MOL0     H 6499   5.189   4.215  -0.521 -2.2991  1.6469  0.3884
  772MOL0     H 6500   5.148   3.994  -0.521  1.2435 -2.7031  2.5793
  772MOL0     H 6501   5.020   3.889  -0.474 -1.0281  0.0488 -1.1358
  772MOL0     H 6502   4.847   4.053  -0.534  0.2664  3.9561  1.3284
  772MOL0     H 6503   4.980   4.157  -0.587 -0.7218  0.6839  1.3091
  772MOL0     H 6504   4.841   4.016  -0.759 -0.2770  6.3414  4.2720
  772MOL0     H 6505   4.947   3.878  -0.724 -2.3071 -0.3410 -1.3772
  772MOL0     H 6506   5.150   4.010  -0.765 -1.1113 -0.9902  1.2052
  772MOL0     H 6507   5.058   4.139  -0.831  1.0542  1.2790  1.9118
  772MOL0     H 6508   5.027   3.856  -0.925 -3.5678  0.7922  1.4300
  772MOL0     H 6509   4.964   3.998  -1.002  0.4723  3.5454  0.8084
  772MOL0     H 6510   5.267   3.942  -0.983 -0.5206 -2.2771 -1.0110
  772MOL0     H 6511   5.189   4.088  -1.045  0.0026  0.5406 -1.1403
  772MOL0     H 6512   5.067   3.914  -1.213  0.9072 -0.1182 -1.1908
  772MOL0     H 6513   5.183   3.796  -1.138  0.0413 -1.2059 -0.2287
  772MOL0     H 6514   5.286   3.879  -1.355 -0.3255 -1.4559  2.3140
  772MOL0     H 6515   5.376   3.957  -1.231  0.3229 -0.7771 -0.4172
  772MOL0     H 6516   5.092   4.107  -0.117  0.7145 -0.6466 -0.1802
  772MOL0     H 6517   5.243   4.281  -0.024 -2.2522 -2.4238  0.6401
  772MOL0     H 6518   5.484   4.600   0.021 -1.1437 -0.1788 -0.8218
  772MOL0     H 6519   5.643   4.791   0.073  0.7381  1.5949 -0.5147
  772MOL0     H 6520   5.270   6.432   0.792  0.9917  2.8416  0.7877
  772MOL0     H 6521   5.187   6.655   0.720  0.0720 -0.7818  0.7920
  772MOL0     H 6522   5.402   7.079   0.549  0.3922 -2.6783 -1.4455
  772MOL0     H 6523   5.335   7.322   0.494 -0.4982  1.0415 -1.7458
  772MOL0     H 6524   5.062   7.584   0.446  0.6635  1.5266 -0.6448
  772MOL0     H 6525   5.175   7.487   0.541 -1.0260  3.3329  0.4055
  772MOL0     H 6526   5.185   7.578   0.260 -0.4739 -0.6790  0.4435
  772MOL0     H 6527   5.283   7.440   0.303  2.0784  0.5780  0.8026
  772MOL0     H 6528   5.408   7.567   0.480 -2.1453 -2.3563  0.6975
  772MOL0     H 6529   5.442   7.635   0.318 -0.7632  2.2346  0.2850
  772MOL0     H 6530   5.270   7.742   0.536 -2.4848 -0.0527 -2.3096
  772MOL0     H 6531   5.238   7.786   0.363 -0.9509  2.3683  0.9045
  772MOL0     H 6532   5.592   7.999   0.432 -0.2391  0.3407 -1.9541
  772MOL0     H 6533   4.940   7.176   0.426 -0.5496  1.0811  1.8069
  772MOL0     H 6534   4.956   6.932   0.590 -2.0099 -1.9862  0.2071
  772MOL0     H 6535   4.899   6.940   0.415  0.8064 -0.9033 -0.8029
  772MOL0     H 6536   5.021   6.827   0.452 -1.7258  0.4889 -3.0380
  773MOL0     O 6537  11.177  10.170   2.795  0.0292 -0.1337 -0.5017
  773MOL0     C 6538  11.098  10.174   2.891 -0.5146  0.3843 -0.0678
  773MOL0     O 6539  11.120  10.111   3.007  1.1293  0.6101 -0.3116
  773MOL0     C 6540  11.235  10.051   3.046 -0.4182  0.0198  1.0635
  773MOL0     C 6541  11.307  10.093   3.152  0.0941  0.0569 -1.3308
  773MOL0     C 6542  11.412  10.018   3.204 -1.1525 -0.1452  0.5475
  773MOL0     C 6543  11.440   9.891   3.149  0.0299 -0.1016 -0.7764
  773MOL0     O 6544  11.538   9.813   3.196 -0.2999  0.1646 -0.0273
  773MOL0     C 6545  11.506   9.679   3.235  0.8534  0.0607  0.3999
  773MOL0     C 6546  11.414   9.692   3.359  0.9313  0.9313 -0.0676
  773MOL0     C 6547  11.399   9.554   3.443  0.9913 -0.7252 -0.5420
  773MOL0     C 6548  11.505   9.543   3.558 -0.0964  0.7340 -0.8524
  773MOL0     C 6549  11.454   9.423   3.645 -0.0422  0.0338 -0.1545
  773MOL0     C 6550  11.564   9.372   3.746  0.2901 -0.1546  0.3990
  773MOL0     C 6551  11.508   9.267   3.844  0.1870 -0.2028 -0.6355
  773MOL0     C 6552  11.603   9.274   3.979 -0.1480  0.2050 -0.4117
  773MOL0     N 6553  11.569   9.173   4.081  0.3229 -0.7740 -0.0210
  773MOL0     C 6554  11.663   9.112   4.155 -0.0767 -0.6826 -0.2841
  773MOL0     C 6555  11.598   9.064   4.265  0.2611  0.1794 -0.1000
  773MOL0     C 6556  11.659   8.970   4.364 -0.4732  0.4933 -0.7348
  773MOL0     C 6557  11.574   8.951   4.488 -0.3833  0.7295  0.1605
  773MOL0     C 6558  11.632   8.844   4.578  0.9145  0.1231 -0.5457
  773MOL0     C 6559  11.535   8.783   4.687 -0.5558  0.1610  0.2650
  773MOL0     O 6560  11.422   8.732   4.630  0.3458 -0.3070 -0.5602
  773MOL0     C 6561  11.401   8.597   4.632 -0.2622 -0.0748 -0.0672
  773MOL0     C 6562  11.511   8.501   4.617  0.5566 -0.7933  0.0216
  773MOL0     C 6563  11.504   8.365   4.637 -0.6414 -0.1268 -0.0103
  773MOL0     C 6564  11.625   8.279   4.601  0.5234 -0.2879  0.5941
  773MOL0     C 6565  11.376   8.314   4.674 -0.5381  0.2341  0.2651
  773MOL0     C 6566  11.346   8.166   4.678  0.6584  0.1440 -0.4894
  773MOL0     O 6567  11.218   8.130   4.720 -0.3465 -0.1861 -0.1505
  773MOL0     C 6568  11.187   7.999   4.748  0.6819 -0.1235  0.0803
  773MOL0     C 6569  11.269   7.913   4.814  0.5161  0.0913 -0.0830
  773MOL0     C 6570  11.224   7.780   4.825 -0.0943 -1.1090 -0.7994
  773MOL0     C 6571  11.095   7.735   4.779 -0.4541 -1.0332 -0.8951
  773MOL0     O 6572  11.068   7.605   4.805  0.7078  0.2102  0.1542
  773MOL0     C 6573  11.082   7.507   4.702  0.9832 -0.1889 -0.3474
  773MOL0     C 6574  11.226   7.470   4.669  0.0322  0.0025 -0.8569
  773MOL0     C 6575  11.263   7.515   4.528 -0.5030  0.4534 -0.1926
  773MOL0     C 6576  11.410   7.527   4.496 -1.0428 -0.0031 -0.7099
  773MOL0     C 6577  11.458   7.620   4.391 -0.4297 -0.2933  0.0587
  773MOL0     C 6578  11.459   7.762   4.430 -0.6101 -0.3261  0.6020
  773MOL0     C 6579  11.495   7.848   4.308 -0.3431 -0.0301 -0.1439
  773MOL0     C 6580  11.486   7.999   4.331  0.8048 -0.3524 -0.5498
  773MOL0    Cl 6581  11.515   8.072   4.170 -0.5329  0.3576  0.1958
  773MOL0     C 6582  11.019   7.823   4.701 -0.1785  0.0499  0.3907
  773MOL0     C 6583  11.056   7.958   4.701  0.7088  0.3386  0.2888
  773MOL0     O 6584  11.429   8.086   4.633 -0.2138 -0.0415  0.1868
  773MOL0     C 6585  11.266   8.408   4.683 -0.7692  1.1353 -0.3319
  773MOL0     C 6586  11.275   8.549   4.663 -0.4552 -0.1897 -0.5604
  773MOL0     N 6587  11.460   9.091   4.247 -0.2472  0.5459  0.2927
  773MOL0     N 6588  11.444   9.157   4.132  0.0543  0.1520 -0.2753
  773MOL0     C 6589  11.371   9.850   3.027 -0.6638  0.0256 -0.2522
  773MOL0     C 6590  11.272   9.933   2.984 -0.2047  0.3074 -0.4367
  773MOL0     C 6591  10.978  10.267   2.883  0.1136 -0.0149 -0.5342
  773MOL0     C 6592  10.945  10.364   2.986  0.2015  0.1942  0.4636
  773MOL0     C 6593  10.834  10.447   2.979 -0.3141 -0.3281 -0.1885
  773MOL0     C 6594  10.758  10.456   2.861  0.2956  0.2872  0.7027
  773MOL0     O 6595  10.657  10.554   2.837  0.1006 -0.6612  0.3521
  773MOL0     C 6596  10.655  10.660   2.928 -0.4673 -0.6533 -0.5480
  773MOL0     C 6597  10.575  10.781   2.878  0.2299 -0.1140 -0.8415
  773MOL0     C 6598  10.620  10.827   2.747  0.0140  0.2933 -0.4977
  773MOL0     C 6599  10.585  10.964   2.705  0.8829 -0.0657 -0.6594
  773MOL0     C 6600  10.666  11.054   2.791 -1.8293  0.5337 -0.5533
  773MOL0     C 6601  10.749  11.120   2.851 -0.1599  0.4474 -0.0905
  773MOL0     C 6602  10.784  10.363   2.759  0.3419 -0.0594  1.6187
  773MOL0     C 6603  10.892  10.277   2.768 -1.0174  0.2440 -0.1595
  773MOL0     C 6604  10.899  10.171   2.657 -1.5074  0.1395  1.0143
  773MOL0     H 6605  11.279  10.193   3.183 -0.0724  0.5117 -2.8844
  773MOL0     H 6606  11.481  10.049   3.281  3.4781  0.9698 -3.5243
  773MOL0     H 6607  11.598   9.632   3.270  2.2242  1.6000 -0.9370
  773MOL0     H 6608  11.460   9.615   3.159 -2.8441  3.0443 -0.1814
  773MOL0     H 6609  11.451   9.767   3.429 -0.3254  0.3919  1.2313
  773MOL0     H 6610  11.316   9.718   3.317  0.0262 -1.1601  0.6280
  773MOL0     H 6611  11.299   9.547   3.487  0.2971  0.7841 -1.7658
  773MOL0     H 6612  11.420   9.472   3.374 -0.5802 -1.7046  0.1080
  773MOL0     H 6613  11.608   9.517   3.530  0.7438 -0.2688  2.6646
  773MOL0     H 6614  11.509   9.631   3.623  0.6927  1.2596 -1.5926
  773MOL0     H 6615  11.443   9.338   3.578 -1.3910  1.2051 -1.4970
  773MOL0     H 6616  11.367   9.446   3.708 -0.7458  0.0814 -1.1169
  773MOL0     H 6617  11.651   9.343   3.687 -0.0450 -0.6941  0.1600
  773MOL0     H 6618  11.603   9.457   3.802  2.1116 -1.4072  1.1431
  773MOL0     H 6619  11.509   9.167   3.801  3.8886 -0.5385 -0.1569
  773MOL0     H 6620  11.404   9.281   3.875 -0.2999  1.9686 -2.9557
  773MOL0     H 6621  11.706   9.273   3.942 -0.0209  4.9246 -0.8495
  773MOL0     H 6622  11.595   9.375   4.021 -2.0884  0.2179 -0.7253
  773MOL0     H 6623  11.767   9.095   4.128  0.4914  1.8050  0.0160
  773MOL0     H 6624  11.753   9.015   4.397 -0.0110 -0.6999 -0.3651
  773MOL0     H 6625  11.687   8.878   4.312  0.8519 -0.2903  1.2450
  773MOL0     H 6626  11.565   9.047   4.539  0.9836  0.3070  1.2676
  773MOL0     H 6627  11.481   8.927   4.435  0.3421  1.1390 -1.3556
  773MOL0     H 6628  11.670   8.758   4.522  2.3164 -1.3977  2.4801
  773MOL0     H 6629  11.718   8.899   4.616 -1.4994  3.8294 -0.0140
  773MOL0     H 6630  11.590   8.723   4.759  1.9481  0.4709 -1.2582
  773MOL0     H 6631  11.512   8.880   4.731 -0.7971  1.1883 -1.9480
  773MOL0     H 6632  11.605   8.548   4.590 -0.9952  1.7567 -1.3708
  773MOL0     H 6633  11.652   8.199   4.670 -0.0909 -2.1630 -1.2339
  773MOL0     H 6634  11.714   8.338   4.578 -1.4742  3.1800  1.0268
  773MOL0     H 6635  11.627   8.228   4.504  1.1717  1.0259 -0.1133
  773MOL0     H 6636  11.366   7.939   4.856  1.4869 -1.9729 -0.8723
  773MOL0     H 6637  11.282   7.704   4.876 -1.4141  0.2791  3.1575
  773MOL0     H 6638  11.018   7.423   4.729  1.5894  0.0256  2.0618
  773MOL0     H 6639  11.028   7.549   4.617  4.3960  0.6748 -2.2292
  773MOL0     H 6640  11.284   7.512   4.752 -0.3053  0.5200 -0.8791
  773MOL0     H 6641  11.240   7.362   4.663  1.4482  0.0749  0.4414
  773MOL0     H 6642  11.213   7.612   4.522 -0.8775  0.3591  1.0600
  773MOL0     H 6643  11.218   7.438   4.465 -1.0779  0.4719  0.1938
  773MOL0     H 6644  11.457   7.428   4.493  0.3606  0.6159 -0.1879
  773MOL0     H 6645  11.460   7.576   4.580 -1.6104  2.2741 -1.6177
  773MOL0     H 6646  11.557   7.587   4.359  0.1822  1.6518 -0.1695
  773MOL0     H 6647  11.396   7.609   4.302  2.7276  0.9683 -2.5291
  773MOL0     H 6648  11.535   7.778   4.507  0.9519 -2.2125 -0.4741
  773MOL0     H 6649  11.363   7.801   4.465 -0.0568 -1.0514  3.1512
  773MOL0     H 6650  11.439   7.829   4.215 -3.1203  0.8298  1.2408
  773MOL0     H 6651  11.603   7.837   4.293 -0.2660  2.5185 -2.3468
  773MOL0     H 6652  11.556   8.037   4.407  1.2115 -1.4434 -0.3614
  773MOL0     H 6653  11.385   8.014   4.370  1.4478  1.3665  0.5972
  773MOL0     H 6654  10.915   7.800   4.677  0.0018 -1.3063  0.8542
  773MOL0     H 6655  10.986   8.032   4.664  0.5344  0.3339  0.6048
  773MOL0     H 6656  11.166   8.365   4.690 -0.0488 -0.8567 -1.5169
  773MOL0     H 6657  11.198   8.625   4.668 -0.1041  0.1762 -0.6271
  773MOL0     H 6658  11.386   9.757   2.972  0.1657 -1.4398  2.2571
  773MOL0     H 6659  11.206   9.900   2.904 -0.9792 -1.1546  0.7700
  773MOL0     H 6660  11.008  10.355   3.074 -0.6168 -1.4269  0.9201
  773MOL0     H 6661  10.802  10.490   3.073 -0.4038 -2.2426  0.6924
  773MOL0     H 6662  10.606  10.623   3.019  0.0403  1.7777  0.8037
  773MOL0     H 6663  10.754  10.700   2.953 -1.4602  1.1414  0.7249
  773MOL0     H 6664  10.598  10.863   2.947 -0.3368 -2.3454  2.2275
  773MOL0     H 6665  10.469  10.756   2.881  1.0712 -4.5929 -1.5127
  773MOL0     H 6666  10.727  10.813   2.728 -0.3872 -3.0699 -0.9128
  773MOL0     H 6667  10.575  10.764   2.668 -2.5386  2.6111 -1.0518
  773MOL0     H 6668  10.481  10.991   2.724  1.2968  1.1723 -0.0539
  773MOL0     H 6669  10.597  10.993   2.601 -1.0181  1.1304 -0.5942
  773MOL0     H 6670  10.828  11.178   2.895  0.3386  1.0395 -1.7051
  773MOL0     H 6671  10.714  10.350   2.677 -0.1711  0.0775  2.0302
  773MOL0     H 6672  11.001  10.136   2.640 -2.0297  0.3527 -3.6179
  773MOL0     H 6673  10.822  10.094   2.671 -0.9227 -0.5207  0.6535
  773MOL0     H 6674  10.885  10.221   2.561  1.0812  1.5845  1.2926
  774MOL0     O 6675   8.749   4.669   2.866  0.3970 -0.4005 -0.0052
  774MOL0     C 6676   8.645   4.702   2.804 -0.2704 -0.0126 -0.7429
  774MOL0     O 6677   8.514   4.668   2.848 -0.5172  0.2647 -0.1119
  774MOL0     C 6678   8.496   4.650   2.976  0.5861 -0.0860 -1.2650
  774MOL0     C 6679   8.378   4.597   3.021 -0.3512  0.0613  0.1702
  774MOL0     C 6680   8.366   4.575   3.155  0.4218  0.2169 -0.6832
  774MOL0     C 6681   8.444   4.628   3.249 -0.3963 -0.0169 -0.9493
  774MOL0     O 6682   8.420   4.608   3.388 -0.3259 -0.5688  0.0273
  774MOL0     C 6683   8.407   4.470   3.436 -1.9484 -0.1345  1.0971
  774MOL0     C 6684   8.376   4.471   3.580 -0.0707  0.0636  0.7644
  774MOL0     C 6685   8.488   4.519   3.662 -1.1713 -0.5943 -0.1853
  774MOL0     C 6686   8.443   4.540   3.807  0.3497 -0.6092  0.8512
  774MOL0     C 6687   8.541   4.609   3.910 -0.3501  0.2162 -0.2218
  774MOL0     C 6688   8.570   4.754   3.882 -0.4666 -0.6294  0.6286
  774MOL0     C 6689   8.651   4.821   3.998  0.1328 -0.3339  0.2726
  774MOL0     C 6690   8.686   4.971   3.957 -0.5688 -0.4349 -0.3822
  774MOL0     N 6691   8.792   5.023   4.046 -0.3715  0.1909 -0.9167
  774MOL0     C 6692   8.930   4.999   4.026  0.0388 -0.5455  0.3911
  774MOL0     C 6693   8.986   5.037   4.147 -0.3110 -0.1156  0.2998
  774MOL0     C 6694   9.129   4.996   4.186  0.4201  0.0189 -0.5108
  774MOL0     C 6695   9.147   4.863   4.239 -0.4834  0.5183  0.5058
  774MOL0     C 6696   9.064   4.838   4.361 -0.4476  0.3441 -0.1977
  774MOL0     C 6697   9.102   4.928   4.487  0.1447  0.1011 -0.4733
  774MOL0     O 6698   9.240   4.963   4.483  0.2328 -0.0413 -0.0923
  774MOL0     C 6699   9.327   4.869   4.533  0.1247  0.1130 -0.0364
  774MOL0     C 6700   9.304   4.746   4.598 -0.4825 -1.0622 -0.8322
  774MOL0     C 6701   9.406   4.675   4.657 -0.2798 -1.3553 -0.3406
  774MOL0     C 6702   9.369   4.572   4.761  0.4442 -0.5784 -0.1700
  774MOL0     C 6703   9.542   4.712   4.632  0.2591 -0.2579 -0.3267
  774MOL0     C 6704   9.663   4.659   4.699 -0.0244  0.3091 -0.0088
  774MOL0     O 6705   9.790   4.716   4.678 -0.3655 -0.3345  0.8380
  774MOL0     C 6706   9.896   4.637   4.715  0.6577 -0.7801 -0.8422
  774MOL0     C 6707   9.917   4.606   4.847 -0.5913 -0.0897  0.0258
  774MOL0     C 6708  10.033   4.538   4.885 -0.1625 -0.5570 -0.1983
  774MOL0     C 6709  10.130   4.513   4.797 -0.2589 -0.1828  1.0019
  774MOL0     O 6710  10.259   4.483   4.832  0.4705 -0.2359  0.3039
  774MOL0     C 6711  10.298   4.406   4.947 -0.0669 -0.2474  0.1522
  774MOL0     C 6712  10.400   4.300   4.900  0.0296 -0.7059  0.4585
  774MOL0     C 6713  10.496   4.360   4.797 -0.5587 -0.6265  0.2588
  774MOL0     C 6714  10.633   4.299   4.807 -0.5858 -1.2105  0.8139
  774MOL0     C 6715  10.723   4.333   4.678 -0.3787 -0.7372 -0.6541
  774MOL0     C 6716  10.859   4.253   4.678 -0.1786  0.0293  0.1997
  774MOL0     C 6717  10.939   4.259   4.805 -0.5837 -0.3401  0.2821
  774MOL0     C 6718  11.050   4.153   4.788  0.0739  0.6331  0.7321
  774MOL0    Cl 6719  11.174   4.182   4.660  0.3570 -0.1955 -0.1412
  774MOL0     C 6720  10.106   4.540   4.658 -0.4770  0.6682 -0.1369
  774MOL0     C 6721   9.993   4.605   4.621  0.4228  0.0953  0.2426
  774MOL0     O 6722   9.646   4.561   4.770  0.8527 -0.5418 -0.1595
  774MOL0     C 6723   9.565   4.827   4.552 -0.8928 -0.3157  0.1855
  774MOL0     C 6724   9.461   4.898   4.506  0.5290 -0.1716  0.3580
  774MOL0     N 6725   8.882   5.071   4.233  0.5013  0.6539  0.5971
  774MOL0     N 6726   8.768   5.069   4.175 -0.5887  0.4822  1.1135
  774MOL0     C 6727   8.556   4.702   3.214 -0.1808  0.0008  0.5931
  774MOL0     C 6728   8.575   4.722   3.081  0.0259  0.1861  0.6256
  774MOL0     C 6729   8.662   4.781   2.678  0.4401  0.5022  0.1466
  774MOL0     C 6730   8.553   4.855   2.636  0.3212 -0.6382  0.0189
  774MOL0     C 6731   8.566   4.944   2.537 -0.2419 -0.3955  0.1164
  774MOL0     C 6732   8.682   4.952   2.457  0.8996 -0.3453 -0.1187
  774MOL0     O 6733   8.690   5.061   2.374  1.2130  0.2126  0.4855
  774MOL0     C 6734   8.814   5.101   2.318  0.3180  0.1267  0.1578
  774MOL0     C 6735   8.768   5.235   2.244 -1.2323  0.2025  0.5186
  774MOL0     C 6736   8.891   5.309   2.182  0.2438 -0.1376  0.2705
  774MOL0     C 6737   8.879   5.338   2.035 -0.1415 -0.2248 -0.1904
  774MOL0     C 6738   8.844   5.211   1.967 -1.3088  0.9919 -0.0046
  774MOL0     C 6739   8.803   5.110   1.909  0.3749  1.3139 -0.3225
  774MOL0     C 6740   8.797   4.873   2.500  0.6690 -0.6009 -0.0448
  774MOL0     C 6741   8.782   4.780   2.600  0.0890  0.6166  0.1611
  774MOL0     C 6742   8.902   4.690   2.619  0.1254 -0.2724 -0.5434
  774MOL0     H 6743   8.327   4.532   2.950  2.3494 -3.0653  0.8754
  774MOL0     H 6744   8.272   4.526   3.177  0.5737  0.2895  0.1814
  774MOL0     H 6745   8.501   4.417   3.420 -0.5512  1.5091  3.3383
  774MOL0     H 6746   8.326   4.424   3.379 -1.5292 -0.4005  0.7090
  774MOL0     H 6747   8.282   4.526   3.593  0.8857  1.5086  1.8398
  774MOL0     H 6748   8.371   4.364   3.601 -2.2535 -0.1521 -0.5439
  774MOL0     H 6749   8.570   4.446   3.662 -1.2402 -0.7476  2.0035
  774MOL0     H 6750   8.521   4.611   3.614  1.6858 -1.0843  0.6858
  774MOL0     H 6751   8.350   4.597   3.803  0.8232  0.1095 -0.1531
  774MOL0     H 6752   8.418   4.444   3.853 -2.2090 -0.9012 -0.9273
  774MOL0     H 6753   8.627   4.541   3.917 -1.0401 -0.5700  0.9397
  774MOL0     H 6754   8.495   4.591   4.008  2.4341 -1.4998  0.9213
  774MOL0     H 6755   8.626   4.765   3.788 -2.8631 -1.3459 -0.9645
  774MOL0     H 6756   8.474   4.805   3.878 -0.6216 -0.5694  3.6102
  774MOL0     H 6757   8.744   4.765   4.010  0.8353  0.7036 -0.1647
  774MOL0     H 6758   8.587   4.820   4.087 -0.2392  0.7592  0.0379
  774MOL0     H 6759   8.726   4.971   3.855 -0.2514 -0.4153 -0.2564
  774MOL0     H 6760   8.602   5.042   3.957 -3.6552 -3.7815 -0.9936
  774MOL0     H 6761   8.997   4.954   3.954 -0.6937 -0.5467 -0.2997
  774MOL0     H 6762   9.170   5.076   4.248 -1.3491  1.7936 -1.4788
  774MOL0     H 6763   9.188   5.004   4.095 -1.4844  0.8434 -1.7444
  774MOL0     H 6764   9.118   4.791   4.162  4.0063  0.1399 -1.1492
  774MOL0     H 6765   9.253   4.847   4.260 -0.9109 -1.3597  1.4383
  774MOL0     H 6766   8.961   4.865   4.333 -0.4522 -1.2864 -1.9523
  774MOL0     H 6767   9.056   4.738   4.403 -1.2062  1.3930  2.4220
  774MOL0     H 6768   9.054   5.025   4.475 -1.9879 -0.6621  1.3335
  774MOL0     H 6769   9.062   4.895   4.583  4.7184  2.8003  2.8210
  774MOL0     H 6770   9.205   4.711   4.625 -0.0726 -2.3510 -0.9086
  774MOL0     H 6771   9.416   4.590   4.858  0.2102  0.7143 -0.2746
  774MOL0     H 6772   9.412   4.479   4.724 -0.3400 -0.4337 -1.4830
  774MOL0     H 6773   9.261   4.567   4.780  0.9365  0.2000  3.7286
  774MOL0     H 6774   9.841   4.638   4.917 -2.8948  0.4190 -2.5685
  774MOL0     H 6775  10.041   4.489   4.982  1.2177  1.1138  0.5837
  774MOL0     H 6776  10.363   4.465   5.013  2.2766 -0.9087 -1.4276
  774MOL0     H 6777  10.208   4.359   4.987  0.2100 -2.3097 -1.4981
  774MOL0     H 6778  10.449   4.262   4.990 -1.0594  0.4095  1.5498
  774MOL0     H 6779  10.356   4.217   4.844 -1.3160  0.5751 -0.4511
  774MOL0     H 6780  10.511   4.466   4.822  0.1846 -0.3722 -1.1407
  774MOL0     H 6781  10.445   4.340   4.702  1.1082 -0.3375 -0.7427
  774MOL0     H 6782  10.619   4.191   4.820 -0.8372 -1.1240  1.2714
  774MOL0     H 6783  10.687   4.335   4.895  0.2733 -0.4577  0.0111
  774MOL0     H 6784  10.662   4.303   4.592 -0.4490 -3.4664  0.2410
  774MOL0     H 6785  10.737   4.441   4.680 -0.1544 -0.7726  1.7636
  774MOL0     H 6786  10.931   4.284   4.602 -1.4335 -1.1497 -1.5473
  774MOL0     H 6787  10.834   4.149   4.659 -0.8011  0.4638 -1.6205
  774MOL0     H 6788  10.874   4.240   4.891 -2.3484  3.0211 -0.1199
  774MOL0     H 6789  10.986   4.358   4.813  1.1062 -1.1937  1.6441
  774MOL0     H 6790  10.996   4.062   4.760 -0.9664  2.1010 -2.5174
  774MOL0     H 6791  11.099   4.146   4.886  0.5272 -2.1460  0.3843
  774MOL0     H 6792  10.184   4.506   4.591 -1.2814 -1.8112  0.0569
  774MOL0     H 6793   9.970   4.626   4.517 -3.1955 -4.3093 -0.1662
  774MOL0     H 6794   9.663   4.875   4.542  1.3347 -3.9611  2.2585
  774MOL0     H 6795   9.492   4.981   4.443  1.4614 -0.4858  0.3819
  774MOL0     H 6796   8.618   4.761   3.281  0.7702  0.4486 -0.6542
  774MOL0     H 6797   8.653   4.791   3.052 -0.5283  0.5049 -0.1534
  774MOL0     H 6798   8.456   4.860   2.684 -2.6387  1.6496 -5.3039
  774MOL0     H 6799   8.481   4.996   2.494 -0.1324 -0.4393 -0.1569
  774MOL0     H 6800   8.887   5.098   2.399  0.3128 -1.7865  0.1459
  774MOL0     H 6801   8.844   5.023   2.247 -2.8891 -3.4769  2.3298
  774MOL0     H 6802   8.712   5.303   2.309 -0.6432  2.8676 -1.5897
  774MOL0     H 6803   8.696   5.209   2.166 -1.6847  0.5662  0.8110
  774MOL0     H 6804   8.906   5.402   2.238  0.2548 -0.3996  0.7131
  774MOL0     H 6805   8.967   5.232   2.201 -1.0106 -1.9186 -1.4600
  774MOL0     H 6806   8.982   5.367   2.009  1.9318 -4.8989  1.6222
  774MOL0     H 6807   8.811   5.423   2.025  1.3839  1.0128 -0.5121
  774MOL0     H 6808   8.765   5.028   1.852  2.5952  0.0588 -0.0971
  774MOL0     H 6809   8.895   4.881   2.453  2.3959 -3.4743  2.6505
  774MOL0     H 6810   8.942   4.671   2.519 -1.3627 -3.5938 -0.6466
  774MOL0     H 6811   8.973   4.731   2.692  0.9978  2.7406 -2.8912
  774MOL0     H 6812   8.872   4.594   2.663  0.4919  0.1759  0.7320
  775MOL0     O 6813   6.264   1.906   8.001 -0.3420 -0.1924 -0.5937
  775MOL0     C 6814   6.294   1.840   8.101 -0.6556  0.1032  0.5623
  775MOL0     O 6815   6.222   1.739   8.153 -0.0707 -0.0198  0.0095
  775MOL0     C 6816   6.125   1.680   8.082 -0.0285 -0.4810  0.0348
  775MOL0     C 6817   5.989   1.713   8.095  0.8893 -0.1607  0.1483
  775MOL0     C 6818   5.902   1.662   8.005  0.6437  0.3821  0.1868
  775MOL0     C 6819   5.950   1.584   7.896  0.2637  0.6537 -0.8482
  775MOL0     O 6820   5.873   1.517   7.803 -0.3245  1.1361  0.4459
  775MOL0     C 6821   5.732   1.558   7.796 -0.3248 -0.4127  1.0501
  775MOL0     C 6822   5.682   1.505   7.657 -1.2910  0.5693 -0.7491
  775MOL0     C 6823   5.749   1.554   7.530  0.4361 -0.1137  0.1453
  775MOL0     C 6824   5.722   1.712   7.516 -0.7215  0.4096  0.5865
  775MOL0     C 6825   5.847   1.800   7.531  0.8389 -0.3972 -0.0581
  775MOL0     C 6826   5.814   1.946   7.511 -0.6539  0.6683  0.3249
  775MOL0     C 6827   5.941   2.036   7.486 -0.1825 -0.3740 -0.2222
  775MOL0     C 6828   6.004   2.085   7.612  0.8547  0.0434 -0.9090
  775MOL0     N 6829   6.139   2.139   7.592 -0.2327  0.8935  0.0396
  775MOL0     C 6830   6.226   2.165   7.702 -0.3567 -0.1048 -0.0686
  775MOL0     C 6831   6.319   2.253   7.651  0.2019  0.3344  0.5336
  775MOL0     C 6832   6.446   2.283   7.723  0.1342  0.2035  0.0775
  775MOL0     C 6833   6.559   2.187   7.696 -0.4306 -0.7406  1.2478
  775MOL0     C 6834   6.643   2.241   7.571  0.2252  0.5204  0.5596
  775MOL0     C 6835   6.744   2.137   7.527  0.4850 -0.9601  0.7437
  775MOL0     O 6836   6.681   2.024   7.476  0.1570 -0.0606 -0.1513
  775MOL0     C 6837   6.748   1.935   7.392  0.2702  0.3501 -0.1885
  775MOL0     C 6838   6.680   1.876   7.284 -0.0809  0.2711  0.1013
  775MOL0     C 6839   6.737   1.791   7.191  0.4692  0.4753  0.5345
  775MOL0     C 6840   6.644   1.749   7.073 -0.0989 -0.8293 -0.1946
  775MOL0     C 6841   6.872   1.753   7.218  0.1997  0.5518  0.9060
  775MOL0     C 6842   6.941   1.652   7.129  0.1115 -0.2765 -0.7394
  775MOL0     O 6843   6.898   1.630   6.999  0.3198 -0.6473  0.5235
  775MOL0     C 6844   6.993   1.578   6.914  0.5061  0.4269  0.6429
  775MOL0     C 6845   7.021   1.444   6.894  0.1761 -1.2584 -0.3340
  775MOL0     C 6846   7.084   1.408   6.770 -0.2287 -0.1937  0.2920
  775MOL0     C 6847   7.135   1.506   6.682 -0.5829  0.0522  0.6449
  775MOL0     O 6848   7.197   1.450   6.570  0.6446 -0.2326  0.2378
  775MOL0     C 6849   7.295   1.535   6.504  0.6470 -0.3125  0.1066
  775MOL0     C 6850   7.379   1.457   6.403 -0.1148  0.4366  0.7966
  775MOL0     C 6851   7.477   1.370   6.480 -0.5170  0.2434  0.2655
  775MOL0     C 6852   7.575   1.443   6.569  0.3841 -0.1502  0.1735
  775MOL0     C 6853   7.702   1.352   6.580  0.4892 -0.3689  0.2457
  775MOL0     C 6854   7.826   1.422   6.628 -0.5702 -1.4049 -0.5983
  775MOL0     C 6855   7.945   1.320   6.655 -0.8046  0.3360 -0.2563
  775MOL0     C 6856   7.924   1.209   6.768 -0.4856  0.2331  0.4628
  775MOL0    Cl 6857   8.074   1.114   6.777 -0.1586  0.0779  0.0881
  775MOL0     C 6858   7.108   1.643   6.713 -0.3413 -0.1956  0.5936
  775MOL0     C 6859   7.035   1.677   6.823  0.3579 -0.2324  0.1821
  775MOL0     O 6860   7.032   1.595   7.182 -0.2657 -0.0326  0.3240
  775MOL0     C 6861   6.930   1.801   7.341 -0.2624  0.6403 -0.5236
  775MOL0     C 6862   6.881   1.901   7.422  0.0018 -0.1219  0.3290
  775MOL0     N 6863   6.279   2.289   7.524 -0.1678 -0.0977  0.3855
  775MOL0     N 6864   6.177   2.211   7.483  0.0875  0.1845 -0.3028
  775MOL0     C 6865   6.087   1.554   7.885 -0.2498  0.7738  0.5292
  775MOL0     C 6866   6.171   1.598   7.979  0.9300  0.0805 -0.6439
  775MOL0     C 6867   6.413   1.872   8.174  0.3770 -0.1833  0.2661
  775MOL0     C 6868   6.451   1.792   8.287 -0.0667 -0.9886 -0.0780
  775MOL0     C 6869   6.573   1.818   8.359  0.1510  0.0122  0.2680
  775MOL0     C 6870   6.672   1.897   8.305  0.2574 -0.3423 -0.2959
  775MOL0     O 6871   6.792   1.878   8.363  0.6471  0.0683  0.6110
  775MOL0     C 6872   6.904   1.945   8.291  0.9997  1.6881  0.0006
  775MOL0     C 6873   7.037   1.930   8.378  0.5682  0.2185  0.4449
  775MOL0     C 6874   7.130   1.817   8.333 -0.2885  0.4011  0.3405
  775MOL0     C 6875   7.076   1.678   8.377 -0.3952  0.7465  0.1601
  775MOL0     C 6876   7.144   1.572   8.297 -0.6653  0.3049  0.3672
  775MOL0     C 6877   7.185   1.482   8.231 -1.1738  0.0110 -0.3176
  775MOL0     C 6878   6.629   1.988   8.202  0.6526 -0.0302  0.1993
  775MOL0     C 6879   6.504   1.978   8.141  0.0935 -0.4234 -0.4430
  775MOL0     C 6880   6.477   2.080   8.039 -0.9363 -0.2740 -0.2844
  775MOL0     H 6881   5.940   1.776   8.169  1.4946  1.6142 -0.8925
  775MOL0     H 6882   5.795   1.676   8.010  0.5618  0.3307 -1.0624
  775MOL0     H 6883   5.716   1.666   7.790  1.0549 -0.2273  0.3462
  775MOL0     H 6884   5.670   1.527   7.881 -2.0635  0.0814  0.0123
  775MOL0     H 6885   5.703   1.398   7.658 -0.1724  0.7733 -0.4466
  775MOL0     H 6886   5.575   1.527   7.663 -0.9603  2.0941  0.2157
  775MOL0     H 6887   5.857   1.542   7.529  0.3023 -1.4848  0.1058
  775MOL0     H 6888   5.704   1.492   7.452 -0.3061 -3.1179  2.7409
  775MOL0     H 6889   5.676   1.741   7.421  1.3970  1.4778 -0.1774
  775MOL0     H 6890   5.657   1.744   7.598  2.1166 -0.5426  3.3928
  775MOL0     H 6891   5.910   1.774   7.445  1.2288  0.8276 -0.1507
  775MOL0     H 6892   5.907   1.772   7.619  0.8285 -0.8985 -0.2071
  775MOL0     H 6893   5.752   1.956   7.422  0.0717 -1.2627 -0.4440
  775MOL0     H 6894   5.747   1.994   7.583 -0.1700  1.6375  0.1475
  775MOL0     H 6895   5.932   2.118   7.414  0.1165 -0.4326 -0.3287
  775MOL0     H 6896   6.018   1.977   7.436  1.1622  0.2680  1.0339
  775MOL0     H 6897   5.940   2.162   7.657  0.2251 -0.7210 -0.4694
  775MOL0     H 6898   5.999   2.004   7.685 -4.9044  1.8971  1.3174
  775MOL0     H 6899   6.239   2.116   7.798  1.3709 -1.7758 -1.0690
  775MOL0     H 6900   6.424   2.281   7.830  2.3424 -0.0441  0.5739
  775MOL0     H 6901   6.486   2.383   7.708 -1.3053  0.9084  0.7153
  775MOL0     H 6902   6.626   2.192   7.782 -0.7708  1.6718  1.4489
  775MOL0     H 6903   6.520   2.086   7.682  1.2587 -1.1020 -1.7163
  775MOL0     H 6904   6.578   2.254   7.484  3.1363  0.9854 -1.7121
  775MOL0     H 6905   6.678   2.339   7.605 -0.3931  1.0325 -0.2479
  775MOL0     H 6906   6.803   2.173   7.442  2.0994 -3.1216  0.8814
  775MOL0     H 6907   6.810   2.101   7.606 -2.1743 -2.2686  2.4938
  775MOL0     H 6908   6.575   1.903   7.277 -0.6993 -1.9388 -0.0002
  775MOL0     H 6909   6.535   1.757   7.081 -0.1443 -0.2152 -1.2477
  775MOL0     H 6910   6.661   1.646   7.040 -0.0866 -1.3011  1.2171
  775MOL0     H 6911   6.686   1.805   6.989  0.0955 -2.6398 -1.3703
  775MOL0     H 6912   7.004   1.355   6.955  3.2431 -3.7222 -2.7068
  775MOL0     H 6913   7.112   1.306   6.749  1.8447  0.9642 -3.4694
  775MOL0     H 6914   7.242   1.613   6.448  3.0246  1.4754  0.2052
  775MOL0     H 6915   7.356   1.592   6.574 -0.0691  1.7101 -0.8506
  775MOL0     H 6916   7.313   1.396   6.341 -1.1667  1.9072  0.3993
  775MOL0     H 6917   7.428   1.525   6.333  1.2171  0.4848  1.7494
  775MOL0     H 6918   7.528   1.315   6.400  1.4253  1.4849  0.5907
  775MOL0     H 6919   7.422   1.294   6.535  0.0722 -1.3139 -1.2121
  775MOL0     H 6920   7.537   1.462   6.669 -2.3170 -2.1756 -0.3650
  775MOL0     H 6921   7.613   1.540   6.533  0.5087 -0.8138 -1.5601
  775MOL0     H 6922   7.674   1.272   6.649  0.7373 -0.9475 -0.3167
  775MOL0     H 6923   7.726   1.304   6.485 -0.9001  1.4378 -1.0867
  775MOL0     H 6924   7.818   1.477   6.723  1.6840 -2.5183  0.3295
  775MOL0     H 6925   7.863   1.481   6.544  0.7511  0.0772  0.9352
  775MOL0     H 6926   8.036   1.370   6.690  0.3682 -2.5122  1.1197
  775MOL0     H 6927   7.979   1.275   6.561 -1.1558 -0.1083 -0.1700
  775MOL0     H 6928   7.835   1.146   6.753 -1.4842  1.7702 -0.3720
  775MOL0     H 6929   7.902   1.269   6.856  2.4982 -1.1245  2.3000
  775MOL0     H 6930   7.148   1.724   6.653 -0.4424 -0.9158 -0.4794
  775MOL0     H 6931   7.011   1.780   6.843  1.2007  0.3403 -1.5502
  775MOL0     H 6932   7.028   1.768   7.374 -1.0532  0.5517  2.0090
  775MOL0     H 6933   6.929   1.931   7.515 -2.4869  2.3376  0.9603
  775MOL0     H 6934   6.123   1.497   7.800  3.7111  0.2033  2.3717
  775MOL0     H 6935   6.277   1.578   7.970  0.8506 -0.2448 -0.8565
  775MOL0     H 6936   6.374   1.723   8.319 -2.8821  1.9986  0.0994
  775MOL0     H 6937   6.580   1.765   8.454 -0.6316  1.3936  1.1329
  775MOL0     H 6938   6.926   1.890   8.199 -0.8630  0.0766  0.4385
  775MOL0     H 6939   6.890   2.050   8.266 -0.6758  1.1832 -1.3878
  775MOL0     H 6940   7.008   1.931   8.483 -0.1630  0.9717  0.2430
  775MOL0     H 6941   7.094   2.019   8.352 -1.5193  1.5666  0.2258
  775MOL0     H 6942   7.148   1.814   8.225  1.5947 -3.1344  0.5936
  775MOL0     H 6943   7.223   1.840   8.387 -0.3634  2.8229 -0.4460
  775MOL0     H 6944   6.969   1.683   8.352 -0.9348 -1.5109  1.7097
  775MOL0     H 6945   7.086   1.652   8.482  0.4486  2.2763  0.4859
  775MOL0     H 6946   7.211   1.392   8.180 -1.9970 -0.2882 -0.2184
  775MOL0     H 6947   6.702   2.063   8.172  0.6277  1.3842  3.3526
  775MOL0     H 6948   6.490   2.042   7.937 -1.7915  2.0929 -1.3392
  775MOL0     H 6949   6.375   2.118   8.040 -0.8161  0.0739 -0.6940
  775MOL0     H 6950   6.536   2.172   8.048 -1.2118 -0.1645  0.5647
  776MOL0     O 6951   9.803   8.153   0.190 -0.0816 -0.4355 -0.9884
  776MOL0     C 6952   9.770   8.266   0.155  0.2153 -0.4768  0.2156
  776MOL0     O 6953   9.859   8.377   0.160  0.5619  0.0217  0.3530
  776MOL0     C 6954   9.991   8.379   0.194 -0.3343  0.2728  0.1547
  776MOL0     C 6955  10.070   8.272   0.222 -0.7433  0.5119 -0.8286
  776MOL0     C 6956  10.208   8.292   0.258  0.4180  0.0167  0.7885
  776MOL0     C 6957  10.266   8.426   0.265 -0.3496  0.6188 -0.1488
  776MOL0     O 6958  10.392   8.460   0.310  0.0236 -0.3297 -0.2820
  776MOL0     C 6959  10.479   8.358   0.349 -0.4490 -1.0441 -0.0032
  776MOL0     C 6960  10.583   8.439   0.436  0.1790 -1.0662  0.0923
  776MOL0     C 6961  10.675   8.523   0.358 -0.6467 -0.4014  0.0612
  776MOL0     C 6962  10.780   8.441   0.288 -0.6159 -0.4909  0.0321
  776MOL0     C 6963  10.841   8.530   0.175 -1.0688 -0.3099 -0.3168
  776MOL0     C 6964  10.940   8.456   0.086  0.2216 -0.4988  0.3051
  776MOL0     C 6965  10.996   8.555  -0.017  0.2708 -0.2600 -0.1616
  776MOL0     C 6966  11.112   8.503  -0.106  0.0692 -0.0872  0.1960
  776MOL0     N 6967  11.058   8.383  -0.168  0.1409  0.3203  0.4825
  776MOL0     C 6968  11.073   8.258  -0.116 -0.3807 -0.2531 -0.1720
  776MOL0     C 6969  11.002   8.177  -0.202  0.1926 -0.5080 -0.1320
  776MOL0     C 6970  10.966   8.032  -0.182  0.4621  0.4191  0.1862
  776MOL0     C 6971  10.821   8.027  -0.127 -0.0479 -0.8067 -0.3563
  776MOL0     C 6972  10.831   8.050   0.027 -0.3702 -0.3461 -0.0938
  776MOL0     C 6973  10.691   8.024   0.080  0.4300  0.0556  0.0850
  776MOL0     O 6974  10.689   8.038   0.224  0.8959  0.3383  0.2807
  776MOL0     C 6975  10.582   7.974   0.281 -0.1713  0.9598  0.8957
  776MOL0     C 6976  10.443   7.988   0.254  0.3992  0.8724  0.7328
  776MOL0     C 6977  10.356   7.892   0.300 -0.4548 -0.6738  0.1546
  776MOL0     C 6978  10.216   7.906   0.245 -0.2304  0.3305 -0.1596
  776MOL0     C 6979  10.396   7.788   0.388  0.4950 -0.9943  0.2377
  776MOL0     C 6980  10.300   7.699   0.460  0.3660 -0.8814  0.2613
  776MOL0     O 6981  10.359   7.621   0.550 -0.4912  0.1379 -0.6066
  776MOL0     C 6982  10.286   7.523   0.620  0.2425 -0.4011  0.3733
  776MOL0     C 6983  10.160   7.467   0.580  0.6185  0.3190 -0.3696
  776MOL0     C 6984  10.084   7.385   0.670  0.4973  0.5216 -0.4034
  776MOL0     C 6985  10.132   7.348   0.797 -0.0725 -0.2741 -0.9714
  776MOL0     O 6986  10.046   7.285   0.889  0.4233  0.7830 -0.2771
  776MOL0     C 6987   9.991   7.371   0.984  0.0489  0.0004  0.3818
  776MOL0     C 6988   9.904   7.294   1.070  0.5700  0.4631 -0.8359
  776MOL0     C 6989   9.997   7.221   1.171 -0.2677  0.1147  0.2598
  776MOL0     C 6990   9.919   7.174   1.294 -0.4462  0.2186  0.2022
  776MOL0     C 6991   9.827   7.050   1.261 -0.3417 -0.4413 -0.8045
  776MOL0     C 6992   9.747   7.019   1.383  0.7305  0.4269 -0.3030
  776MOL0     C 6993   9.637   6.911   1.380  0.5821 -0.3712  0.2122
  776MOL0     C 6994   9.529   6.945   1.484 -0.0702  0.2860 -0.3105
  776MOL0    Cl 6995   9.417   6.800   1.500 -0.1124 -0.3339 -0.0842
  776MOL0     C 6996  10.253   7.397   0.839  0.6300 -0.1238  0.0180
  776MOL0     C 6997  10.326   7.488   0.750 -0.1057  0.0435 -0.3416
  776MOL0     O 6998  10.178   7.712   0.439 -0.6990 -0.4751  1.1168
  776MOL0     C 6999  10.526   7.778   0.424  0.1233 -0.1294  0.0139
  776MOL0     C 7000  10.618   7.867   0.364 -1.0304  1.1359  0.2372
  776MOL0     N 7001  10.965   8.256  -0.316 -0.3899  0.0878 -0.2307
  776MOL0     N 7002  11.005   8.371  -0.291 -0.5490  0.4137  0.3201
  776MOL0     C 7003  10.186   8.534   0.217  0.3104  0.5364 -0.5839
  776MOL0     C 7004  10.052   8.511   0.190 -0.2008  0.5818 -0.2291
  776MOL0     C 7005   9.640   8.308   0.105 -0.3192 -0.7190 -0.2643
  776MOL0     C 7006   9.617   8.445   0.077  0.1449  0.1597  0.2416
  776MOL0     C 7007   9.503   8.486   0.013  0.0958  0.8001 -0.0234
  776MOL0     C 7008   9.397   8.396  -0.008 -0.8438 -0.2301  0.5411
  776MOL0     O 7009   9.290   8.429  -0.088  0.7762  0.5550 -0.0988
  776MOL0     C 7010   9.282   8.535  -0.184  0.1826 -0.7608  0.7004
  776MOL0     C 7011   9.132   8.537  -0.225  0.1923 -0.1580  0.7602
  776MOL0     C 7012   9.091   8.673  -0.287 -0.4950  0.1725  0.6656
  776MOL0     C 7013   8.958   8.679  -0.349  0.6618 -0.8881  0.9225
  776MOL0     C 7014   8.862   8.694  -0.237  0.6804 -0.3977  0.6937
  776MOL0     C 7015   8.777   8.716  -0.154  0.8938 -0.4832 -0.6870
  776MOL0     C 7016   9.405   8.259   0.038 -0.1823 -0.5825 -0.3938
  776MOL0     C 7017   9.533   8.222   0.095  0.6992 -0.5854  0.2254
  776MOL0     C 7018   9.538   8.076   0.144  0.1518 -0.8119  0.0585
  776MOL0     H 7019  10.038   8.168   0.230  0.7924 -0.2128 -3.0666
  776MOL0     H 7020  10.265   8.203   0.284 -2.8062 -2.5777 -0.3059
  776MOL0     H 7021  10.529   8.304   0.268 -2.7346 -1.4741 -1.2117
  776MOL0     H 7022  10.423   8.288   0.413 -1.1652  0.7512  1.4139
  776MOL0     H 7023  10.530   8.501   0.510  2.9213 -2.1762  3.2520
  776MOL0     H 7024  10.642   8.363   0.488  1.4089  0.5968  1.2537
  776MOL0     H 7025  10.621   8.594   0.294 -1.4140 -0.3648  0.7432
  776MOL0     H 7026  10.726   8.579   0.436 -2.5517 -1.2063  1.9842
  776MOL0     H 7027  10.857   8.402   0.356 -0.3603 -2.8318 -1.4965
  776MOL0     H 7028  10.735   8.352   0.244 -0.5518 -0.1874 -0.6601
  776MOL0     H 7029  10.899   8.612   0.219  0.2620 -0.7138 -1.2525
  776MOL0     H 7030  10.764   8.583   0.119 -1.2883  0.1068  0.3582
  776MOL0     H 7031  11.019   8.417   0.152  1.5316 -1.8352 -1.9510
  776MOL0     H 7032  10.869   8.386   0.042 -1.7599  0.3584  1.9265
  776MOL0     H 7033  11.041   8.642   0.032  0.1117 -0.9298  1.2193
  776MOL0     H 7034  10.908   8.584  -0.076 -0.6999 -1.4926  0.6309
  776MOL0     H 7035  11.139   8.582  -0.176  0.2584  1.4890  1.9526
  776MOL0     H 7036  11.198   8.474  -0.044 -1.0582  0.5778  2.1880
  776MOL0     H 7037  11.119   8.223  -0.024  2.1657 -0.4532 -1.4132
  776MOL0     H 7038  11.027   7.978  -0.108 -1.5110 -1.2266  0.7151
  776MOL0     H 7039  10.967   7.984  -0.280 -1.2861  0.2245  0.2261
  776MOL0     H 7040  10.756   8.102  -0.173 -2.0187 -1.6371  0.8947
  776MOL0     H 7041  10.783   7.926  -0.149 -1.7991  0.1468 -2.0186
  776MOL0     H 7042  10.905   7.983   0.073  0.4345  1.6281  1.6864
  776MOL0     H 7043  10.868   8.151   0.049 -2.2846  0.2099  0.7238
  776MOL0     H 7044  10.621   8.104   0.054 -0.4493 -0.9741 -0.8114
  776MOL0     H 7045  10.656   7.926   0.046  1.2936 -0.0311 -0.5884
  776MOL0     H 7046  10.406   8.070   0.194  2.0253  3.5052  3.0618
  776MOL0     H 7047  10.177   7.813   0.202  0.4823 -0.6116  1.1558
  776MOL0     H 7048  10.214   7.978   0.164  2.1712 -1.7150 -2.1891
  776MOL0     H 7049  10.142   7.930   0.322 -3.1363 -1.3995 -2.1946
  776MOL0     H 7050  10.119   7.493   0.483  0.1368  1.5507  0.1445
  776MOL0     H 7051   9.982   7.361   0.640 -0.2916  2.2568  0.7089
  776MOL0     H 7052  10.061   7.435   1.038  0.1412  1.2295 -1.1089
  776MOL0     H 7053   9.924   7.436   0.926 -2.8032 -2.1530  0.9932
  776MOL0     H 7054   9.838   7.355   1.132  2.9437  0.1717  2.2128
  776MOL0     H 7055   9.831   7.229   1.021 -0.9801 -0.6249  2.6700
  776MOL0     H 7056  10.073   7.291   1.206 -1.0678  1.5472 -0.7578
  776MOL0     H 7057  10.036   7.137   1.113 -2.1036  1.2317 -2.8515
  776MOL0     H 7058   9.863   7.262   1.327  3.5914  2.8313  0.9433
  776MOL0     H 7059  10.001   7.136   1.356  1.1140  4.0285  0.8016
  776MOL0     H 7060   9.758   7.083   1.183 -0.2792  0.3616 -0.5339
  776MOL0     H 7061   9.892   6.971   1.221 -0.7301 -1.3335  0.3056
  776MOL0     H 7062   9.690   7.100   1.429  0.3230 -0.3600  0.6365
  776MOL0     H 7063   9.822   6.989   1.458 -0.3745 -0.3878  0.5247
  776MOL0     H 7064   9.695   6.820   1.401  2.1326  0.7467  0.9474
  776MOL0     H 7065   9.599   6.907   1.277 -0.4546  0.5554  0.5433
  776MOL0     H 7066   9.474   7.035   1.455 -1.1753 -0.8047 -1.7307
  776MOL0     H 7067   9.571   6.968   1.583  0.7400 -2.3498  0.0223
  776MOL0     H 7068  10.298   7.367   0.933  1.9485 -1.8065 -1.0928
  776MOL0     H 7069  10.423   7.518   0.789 -0.5651 -1.0370  1.7701
  776MOL0     H 7070  10.564   7.705   0.494  2.8564  1.1197 -0.0199
  776MOL0     H 7071  10.724   7.846   0.375 -1.2685  0.0467  0.5636
  776MOL0     H 7072  10.232   8.631   0.231 -0.4332  0.8150 -0.0108
  776MOL0     H 7073  10.000   8.597   0.150  1.6812  0.1082 -4.1580
  776MOL0     H 7074   9.687   8.521   0.109 -0.4013  1.5029 -1.5895
  776MOL0     H 7075   9.486   8.588  -0.018 -0.6968  0.6453 -0.1301
  776MOL0     H 7076   9.311   8.635  -0.153  1.9481 -1.6568  2.1278
  776MOL0     H 7077   9.338   8.507  -0.274 -0.3210 -2.2605  0.8147
  776MOL0     H 7078   9.064   8.509  -0.144 -2.1274 -0.2457 -1.0877
  776MOL0     H 7079   9.124   8.459  -0.301 -2.2697 -0.5573  1.3475
  776MOL0     H 7080   9.105   8.753  -0.213 -0.7538  0.5054  0.3557
  776MOL0     H 7081   9.164   8.693  -0.366  0.3372  1.4516  1.6974
  776MOL0     H 7082   8.937   8.590  -0.408 -1.3479  1.0831 -1.5475
  776MOL0     H 7083   8.956   8.772  -0.408  0.4746  0.1069  2.4378
  776MOL0     H 7084   8.710   8.743  -0.075  2.7618  0.8326  0.5163
  776MOL0     H 7085   9.337   8.182   0.004  3.0086 -4.5838  1.5457
  776MOL0     H 7086   9.573   8.061   0.247  1.2533  0.7219 -0.0550
  776MOL0     H 7087   9.443   8.024   0.127  0.0578 -0.7030  0.2533
  776MOL0     H 7088   9.607   8.023   0.078  1.6382 -1.5560  2.0837
  777MOL0     O 7089   1.074   7.562   6.622  0.2238  0.0595 -0.1175
  777MOL0     C 7090   1.126   7.616   6.716  0.2248 -0.1996  0.5440
  777MOL0     O 7091   1.208   7.716   6.698 -0.5615 -0.0509 -0.2308
  777MOL0     C 7092   1.211   7.790   6.578 -0.1360  0.9452  0.5373
  777MOL0     C 7093   1.092   7.822   6.506 -0.0545 -0.1865  0.0468
  777MOL0     C 7094   1.103   7.878   6.378 -0.2249 -0.3558 -0.6725
  777MOL0     C 7095   1.231   7.915   6.340  0.3147 -0.2698  1.0542
  777MOL0     O 7096   1.263   7.981   6.222 -0.5580 -0.1497  0.2054
  777MOL0     C 7097   1.210   7.913   6.108  0.6598  0.0066 -0.0344
  777MOL0     C 7098   1.311   7.825   6.044  0.8830  0.6874  0.3975
  777MOL0     C 7099   1.401   7.896   5.943  0.2961  0.2358  0.3627
  777MOL0     C 7100   1.338   7.901   5.812  1.0849  0.1651  1.3111
  777MOL0     C 7101   1.394   7.989   5.691 -0.2035  0.3010  0.2827
  777MOL0     C 7102   1.547   8.005   5.702 -0.5454 -0.2067  0.4679
  777MOL0     C 7103   1.596   8.110   5.593  0.0412  0.4621  0.2735
  777MOL0     C 7104   1.748   8.081   5.581  0.5712  0.6431 -0.3115
  777MOL0     N 7105   1.799   8.195   5.489  0.3347 -0.3529 -0.1402
  777MOL0     C 7106   1.796   8.328   5.527  0.4914  0.3531 -0.5360
  777MOL0     C 7107   1.851   8.389   5.425 -0.0828  0.3084 -0.7058
  777MOL0     C 7108   1.861   8.540   5.403 -0.7583  0.2309  0.2872
  777MOL0     C 7109   1.729   8.600   5.343 -0.4755  0.3286 -1.0311
  777MOL0     C 7110   1.593   8.559   5.420  0.2172  0.2811 -1.0882
  777MOL0     C 7111   1.551   8.643   5.537  0.6982  0.1282  0.3362
  777MOL0     O 7112   1.644   8.631   5.648  0.1399  0.7008 -0.0003
  777MOL0     C 7113   1.592   8.672   5.770  1.2025  0.0315  0.8052
  777MOL0     C 7114   1.678   8.676   5.874 -0.4254  0.2216 -0.4191
  777MOL0     C 7115   1.643   8.723   6.007 -0.5480 -0.1510 -0.8754
  777MOL0     C 7116   1.747   8.734   6.123 -0.4915  0.8018 -0.2969
  777MOL0     C 7117   1.505   8.756   6.032 -0.5478 -0.3035 -0.0938
  777MOL0     C 7118   1.460   8.799   6.162  0.8156 -0.2744 -0.6257
  777MOL0     O 7119   1.495   8.740   6.284 -0.5142  0.4461 -0.2280
  777MOL0     C 7120   1.444   8.794   6.397 -0.0003  0.7683  0.0242
  777MOL0     C 7121   1.329   8.731   6.455 -0.0088  0.8200  0.1409
  777MOL0     C 7122   1.259   8.789   6.558 -0.0334 -0.8550 -0.4184
  777MOL0     C 7123   1.312   8.908   6.615 -0.4982  0.1272  0.9749
  777MOL0     O 7124   1.244   8.962   6.727  0.7802 -0.0562  0.6068
  777MOL0     C 7125   1.219   9.102   6.739 -0.4442  0.2026  0.0882
  777MOL0     C 7126   1.113   9.148   6.644 -0.0428 -0.3754  0.1395
  777MOL0     C 7127   0.978   9.069   6.661 -1.2139 -0.4996  0.9252
  777MOL0     C 7128   0.868   9.105   6.556  0.5443 -0.5373  0.1602
  777MOL0     C 7129   0.735   9.042   6.614  0.3917 -0.5776 -0.1911
  777MOL0     C 7130   0.625   9.082   6.514 -0.2617  0.7420 -0.1753
  777MOL0     C 7131   0.486   9.031   6.563 -0.2664 -0.5776  0.1370
  777MOL0     C 7132   0.404   9.033   6.438 -0.1545 -0.2825 -0.0263
  777MOL0    Cl 7133   0.419   9.190   6.349 -0.0921 -0.1293  0.1278
  777MOL0     C 7134   1.432   8.961   6.570  0.7858 -0.6544  0.2555
  777MOL0     C 7135   1.494   8.916   6.447  0.4384  0.0096  0.0432
  777MOL0     O 7136   1.373   8.886   6.158 -0.5602  0.4168  0.0638
  777MOL0     C 7137   1.413   8.751   5.925 -0.7647 -0.1266  0.0273
  777MOL0     C 7138   1.458   8.711   5.795  0.2780 -0.5184  0.0504
  777MOL0     N 7139   1.889   8.300   5.325 -0.5508  0.2598  0.6914
  777MOL0     N 7140   1.861   8.185   5.363  0.4465  0.4342 -0.2430
  777MOL0     C 7141   1.343   7.897   6.420  0.1680 -0.4623  0.1099
  777MOL0     C 7142   1.334   7.837   6.542  0.9493 -0.2270 -0.5440
  777MOL0     C 7143   1.098   7.561   6.852  0.2055 -0.7511 -1.0099
  777MOL0     C 7144   1.081   7.422   6.860  0.1033  0.0733 -0.3551
  777MOL0     C 7145   1.084   7.361   6.981 -0.2562  0.6153 -1.0216
  777MOL0     C 7146   1.105   7.441   7.092 -0.3650  1.3698  0.1353
  777MOL0     O 7147   1.090   7.372   7.212  0.3543 -0.1275 -0.5183
  777MOL0     C 7148   1.044   7.440   7.325  0.1489 -0.2304  0.6187
  777MOL0     C 7149   1.155   7.482   7.424 -0.7731 -0.9108  0.0263
  777MOL0     C 7150   1.210   7.366   7.511 -0.1477  0.1566 -0.4858
  777MOL0     C 7151   1.281   7.423   7.629  0.2463 -0.2751 -0.6180
  777MOL0     C 7152   1.312   7.320   7.732  0.4629 -0.4252  0.0417
  777MOL0     C 7153   1.328   7.225   7.809  0.0062  0.5664 -0.0674
  777MOL0     C 7154   1.113   7.579   7.079 -0.0011  0.5965 -0.8821
  777MOL0     C 7155   1.115   7.644   6.960  0.9835  1.0158  0.1088
  777MOL0     C 7156   1.109   7.792   6.957  0.6341  0.3713 -0.1703
  777MOL0     H 7157   0.995   7.804   6.551 -0.3620  1.7494  0.2707
  777MOL0     H 7158   1.007   7.896   6.331 -1.4441 -0.4018  1.6753
  777MOL0     H 7159   1.171   7.985   6.035  0.5417 -0.0498 -0.0272
  777MOL0     H 7160   1.126   7.849   6.138  1.6594 -0.7558  1.2408
  777MOL0     H 7161   1.375   7.767   6.112  0.9289 -0.4975 -0.6209
  777MOL0     H 7162   1.256   7.757   5.978  0.8601  3.8214 -3.1549
  777MOL0     H 7163   1.426   8.000   5.969  4.6262 -0.6870  0.6446
  777MOL0     H 7164   1.497   7.845   5.934 -1.3032 -2.6395 -2.1982
  777MOL0     H 7165   1.337   7.802   5.766  0.2526  0.6260  0.2955
  777MOL0     H 7166   1.232   7.926   5.824  0.5239 -1.6315  0.3969
  777MOL0     H 7167   1.342   8.085   5.689 -0.2567  0.3461  2.0753
  777MOL0     H 7168   1.367   7.948   5.593  2.4684  0.4963 -0.6159
  777MOL0     H 7169   1.566   8.041   5.803  1.7130  0.5878 -0.1679
  777MOL0     H 7170   1.595   7.907   5.692 -2.9023 -1.3747 -0.0748
  777MOL0     H 7171   1.559   8.209   5.621  0.7500  1.2850 -1.5782
  777MOL0     H 7172   1.549   8.084   5.497  0.3634  1.7539 -0.2556
  777MOL0     H 7173   1.792   8.082   5.681 -1.3566  0.3768  0.5786
  777MOL0     H 7174   1.777   7.987   5.532  3.0825  1.2964 -0.2367
  777MOL0     H 7175   1.757   8.376   5.616 -2.2954 -0.8759 -1.0083
  777MOL0     H 7176   1.939   8.544   5.327 -0.5992 -1.9615  0.2734
  777MOL0     H 7177   1.899   8.584   5.496 -0.9212  1.5358 -0.2341
  777MOL0     H 7178   1.748   8.708   5.340  6.6792 -0.4576 -1.1874
  777MOL0     H 7179   1.722   8.561   5.242 -2.3747  1.2321 -1.3046
  777MOL0     H 7180   1.514   8.577   5.347  0.5926 -0.0664 -1.5828
  777MOL0     H 7181   1.591   8.452   5.443 -1.1427  0.4429 -0.3790
  777MOL0     H 7182   1.550   8.750   5.514 -0.2433  0.2348  0.8299
  777MOL0     H 7183   1.450   8.609   5.560  0.6945 -1.2108 -1.5008
  777MOL0     H 7184   1.780   8.655   5.843 -0.7044 -0.4744 -0.8765
  777MOL0     H 7185   1.848   8.736   6.081  0.3520 -1.2269  1.4598
  777MOL0     H 7186   1.743   8.645   6.186  0.9725 -0.5076 -1.9368
  777MOL0     H 7187   1.719   8.824   6.179 -4.2093  1.3552 -2.7104
  777MOL0     H 7188   1.282   8.643   6.412 -5.4244  2.5762  1.5909
  777MOL0     H 7189   1.169   8.751   6.605 -1.0720  0.3917 -1.3148
  777MOL0     H 7190   1.188   9.105   6.844  0.2137  0.1778  0.2891
  777MOL0     H 7191   1.310   9.162   6.725  0.0625 -1.0875 -2.8798
  777MOL0     H 7192   1.087   9.252   6.663  2.9750  0.5377 -0.1853
  777MOL0     H 7193   1.153   9.132   6.544 -2.5672  2.5990 -1.4899
  777MOL0     H 7194   0.940   9.105   6.758 -2.5153  0.9946 -0.0880
  777MOL0     H 7195   0.991   8.962   6.680 -1.3764 -0.3830  1.7438
  777MOL0     H 7196   0.890   9.056   6.461  2.7844  0.0623  0.3065
  777MOL0     H 7197   0.855   9.213   6.544 -0.7919 -0.6946  0.0339
  777MOL0     H 7198   0.743   8.933   6.621 -2.1793 -1.1368 -3.5473
  777MOL0     H 7199   0.713   9.084   6.712 -2.8898  1.6719 -1.7084
  777MOL0     H 7200   0.659   9.036   6.421  1.5985 -1.9679  1.7011
  777MOL0     H 7201   0.626   9.191   6.505 -4.7879  0.9919  0.1104
  777MOL0     H 7202   0.442   9.093   6.642 -4.3137  0.9415 -2.9446
  777MOL0     H 7203   0.498   8.929   6.600 -1.2246  0.1178  2.5981
  777MOL0     H 7204   0.298   9.011   6.452  0.2530 -2.7763 -0.3690
  777MOL0     H 7205   0.454   8.962   6.371  0.7375  1.9725 -1.8519
  777MOL0     H 7206   1.467   9.052   6.617  0.7361 -0.6838  0.3489
  777MOL0     H 7207   1.576   8.973   6.403  0.3580 -1.2637 -1.9047
  777MOL0     H 7208   1.310   8.779   5.944 -1.1117 -0.8957 -0.6683
  777MOL0     H 7209   1.377   8.727   5.724  0.7153 -4.0438 -1.4599
  777MOL0     H 7210   1.443   7.909   6.380  0.3656  1.9033  1.1088
  777MOL0     H 7211   1.426   7.816   6.594  1.0143 -2.5977 -1.5109
  777MOL0     H 7212   1.066   7.377   6.762  0.1057  1.8596 -1.2092
  777MOL0     H 7213   1.060   7.256   6.993  1.2187  0.1667 -1.7107
  777MOL0     H 7214   0.993   7.530   7.292  1.4191 -0.8037 -3.4654
  777MOL0     H 7215   0.977   7.370   7.377 -0.2532 -0.1003  0.2739
  777MOL0     H 7216   1.113   7.565   7.481 -0.3613  1.7264 -3.2132
  777MOL0     H 7217   1.235   7.535   7.370 -1.8383  1.0693  0.3196
  777MOL0     H 7218   1.122   7.305   7.533  0.2411  0.4550  2.2622
  777MOL0     H 7219   1.282   7.311   7.450 -0.3178  1.4307 -1.9225
  777MOL0     H 7220   1.236   7.506   7.684  2.4910 -0.3117  1.4136
  777MOL0     H 7221   1.375   7.465   7.593  0.1676  0.0845 -0.4050
  777MOL0     H 7222   1.333   7.147   7.882  2.7404  2.9362  2.5797
  777MOL0     H 7223   1.113   7.642   7.167 -1.5898 -1.9686  1.0704
  777MOL0     H 7224   1.023   7.825   6.897 -0.7781 -0.5815  1.2616
  777MOL0     H 7225   1.085   7.830   7.056 -2.7301 -1.0504 -0.3048
  777MOL0     H 7226   1.203   7.839   6.926 -0.8774  3.9584  0.1557
  778MOL0     O 7227   4.703   8.718  10.394  0.6012  0.1399 -0.4606
  778MOL0     C 7228   4.683   8.632  10.479 -0.4100 -1.0170  0.0016
  778MOL0     O 7229   4.647   8.654  10.609 -0.6257 -0.1840 -0.1277
  778MOL0     C 7230   4.627   8.784  10.646 -0.0459  0.5211 -0.1366
  778MOL0     C 7231   4.499   8.859  10.635  0.4263 -0.1007  0.2029
  778MOL0     C 7232   4.482   8.986  10.700  0.4355 -0.3956  0.5794
  778MOL0     C 7233   4.578   9.044  10.768  0.8457 -0.3363 -0.4457
  778MOL0     O 7234   4.564   9.175  10.813  0.1857 -0.4967  0.9679
  778MOL0     C 7235   4.673   9.258  10.771  0.6195 -0.5667  0.4726
  778MOL0     C 7236   4.713   9.260  10.626  0.0234  0.1801  0.0980
  778MOL0     C 7237   4.828   9.356  10.588  0.1946 -0.2451  0.8067
  778MOL0     C 7238   4.876   9.340  10.446 -0.1699  0.0107  0.6714
  778MOL0     C 7239   5.006   9.417  10.409 -0.0875 -0.1859  0.0410
  778MOL0     C 7240   4.989   9.572  10.409 -0.0152 -0.6599  1.1158
  778MOL0     C 7241   5.089   9.642  10.315  0.7214  0.1551 -0.1603
  778MOL0     C 7242   5.049   9.793  10.311 -0.7789 -0.5941  0.0317
  778MOL0     N 7243   5.152   9.862  10.234 -0.1092  1.0956  0.4625
  778MOL0     C 7244   5.271   9.906  10.283 -0.1417  0.0928  0.6826
  778MOL0     C 7245   5.344   9.948  10.177  0.2901 -0.1125  0.1935
  778MOL0     C 7246   5.478  10.006  10.172  0.3820 -0.5978 -0.4219
  778MOL0     C 7247   5.509  10.118  10.273  0.1274 -0.1032 -0.3671
  778MOL0     C 7248   5.663  10.120  10.298 -0.2183  0.4520 -0.0287
  778MOL0     C 7249   5.706  10.246  10.387 -0.4905 -0.0784 -0.2430
  778MOL0     O 7250   5.630  10.250  10.510 -0.1666  0.7299  1.1748
  778MOL0     C 7251   5.693  10.299  10.618 -0.1304  0.2786 -0.2540
  778MOL0     C 7252   5.788  10.397  10.609 -0.6153 -0.3655 -0.4417
  778MOL0     C 7253   5.845  10.447  10.740 -0.1889 -0.1412  1.0577
  778MOL0     C 7254   5.961  10.542  10.730 -0.3542  0.2554  0.5869
  778MOL0     C 7255   5.786  10.395  10.860  0.0377  0.1918  0.0528
  778MOL0     C 7256   5.828  10.445  10.995 -0.2297 -0.0259  0.8563
  778MOL0     O 7257   5.881  10.566  11.018 -0.3500 -0.9612 -0.3770
  778MOL0     C 7258   5.930  10.584  11.148 -0.2553 -0.2279  0.0563
  778MOL0     C 7259   6.057  10.540  11.184 -0.9269 -0.2404 -1.0463
  778MOL0     C 7260   6.104  10.564  11.314  0.4659 -0.4583 -0.1101
  778MOL0     C 7261   6.024  10.634  11.409 -1.1691  0.0657  0.3313
  778MOL0     O 7262   6.083  10.659  11.529 -0.3573  0.7576  0.6299
  778MOL0     C 7263   6.001  10.705  11.632 -0.9973 -0.0100 -1.2266
  778MOL0     C 7264   6.092  10.677  11.758 -1.0044  0.1667  0.1230
  778MOL0     C 7265   6.113  10.527  11.787  0.1861 -0.2758  0.4203
  778MOL0     C 7266   5.993  10.462  11.850 -0.2781  0.2254 -1.0030
  778MOL0     C 7267   6.029  10.390  11.984 -0.8079 -0.1191  0.1359
  778MOL0     C 7268   6.099  10.249  11.984  0.0743 -0.3267  0.3444
  778MOL0     C 7269   6.004  10.140  12.004  0.8589  0.1450  0.4237
  778MOL0     C 7270   6.062  10.005  11.980 -0.6719  0.3793  0.4774
  778MOL0    Cl 7271   5.940   9.872  11.994 -0.7131  0.2047  0.0410
  778MOL0     C 7272   5.893  10.673  11.371 -0.2063  0.3107 -0.3917
  778MOL0     C 7273   5.847  10.646  11.242 -0.1308 -0.0379  0.4879
  778MOL0     O 7274   5.817  10.352  11.070 -0.2604  0.1602  0.1825
  778MOL0     C 7275   5.690  10.291  10.856 -0.0797  0.3254  0.7657
  778MOL0     C 7276   5.649  10.238  10.734  0.5575 -0.3579  0.1708
  778MOL0     N 7277   5.269   9.925  10.059  0.2930  0.4684 -0.4605
  778MOL0     N 7278   5.154   9.878  10.106  0.6479  1.3364 -0.2083
  778MOL0     C 7279   4.698   8.976  10.773  0.7628  1.3913 -0.1035
  778MOL0     C 7280   4.726   8.855  10.711  0.1200 -0.3000 -0.3447
  778MOL0     C 7281   4.716   8.494  10.450  1.3730  0.0491  0.6672
  778MOL0     C 7282   4.609   8.408  10.473 -0.0876  0.1436 -0.4717
  778MOL0     C 7283   4.625   8.271  10.437  1.1326 -0.3003 -0.0129
  778MOL0     C 7284   4.743   8.225  10.387 -0.0911  0.7263  1.0271
  778MOL0     O 7285   4.766   8.092  10.372  0.3377 -0.7890 -0.9411
  778MOL0     C 7286   4.696   8.028  10.261  1.0937 -0.9187 -0.1501
  778MOL0     C 7287   4.771   7.909  10.196 -0.5422  0.3441 -0.1340
  778MOL0     C 7288   4.918   7.952  10.156 -0.5416 -0.5156 -0.0771
  778MOL0     C 7289   4.994   7.839  10.098  0.6549 -1.1576 -0.6016
  778MOL0     C 7290   4.958   7.806   9.966 -0.7795  0.8183  0.0935
  778MOL0     C 7291   4.939   7.792   9.846 -0.4273  0.4420  0.2985
  778MOL0     C 7292   4.839   8.319  10.367 -0.0328  0.4775  1.3386
  778MOL0     C 7293   4.839   8.451  10.398 -0.3938  0.1288 -0.0641
  778MOL0     C 7294   4.966   8.555  10.399  0.7184 -0.3418 -0.1498
  778MOL0     H 7295   4.417   8.826  10.573 -0.0856  1.0803  0.2184
  778MOL0     H 7296   4.387   9.035  10.679  0.5133 -0.6128 -0.3074
  778MOL0     H 7297   4.759   9.255  10.839 -0.1735 -0.4268  1.5125
  778MOL0     H 7298   4.623   9.355  10.780 -1.4445 -1.3599 -1.5271
  778MOL0     H 7299   4.745   9.164  10.584 -1.5490  0.1378 -1.0989
  778MOL0     H 7300   4.629   9.286  10.561  0.9518  0.0535 -1.1941
  778MOL0     H 7301   4.788   9.457  10.596  0.1777 -0.2893  1.3117
  778MOL0     H 7302   4.916   9.340  10.652  0.2276  0.4842  0.9543
  778MOL0     H 7303   4.896   9.234  10.428  4.8386  0.5447  1.6431
  778MOL0     H 7304   4.799   9.376  10.378  0.9013 -0.4851 -0.8466
  778MOL0     H 7305   5.036   9.381  10.310  1.3571 -1.8493  1.0317
  778MOL0     H 7306   5.088   9.381  10.471 -0.4861  1.3875  1.5303
  778MOL0     H 7307   4.889   9.601  10.378  0.0529  1.1245  2.4197
  778MOL0     H 7308   5.011   9.613  10.508  2.7288 -1.2304  0.8474
  778MOL0     H 7309   5.076   9.604  10.214  0.5148 -0.5815  0.1351
  778MOL0     H 7310   5.191   9.633  10.356 -0.7263 -2.3932  3.4197
  778MOL0     H 7311   4.953   9.803  10.259 -0.8131  0.1718  0.2224
  778MOL0     H 7312   5.040   9.841  10.409  0.8952 -0.0888 -0.0341
  778MOL0     H 7313   5.309   9.902  10.384 -0.8949  2.0021  1.0829
  778MOL0     H 7314   5.498  10.047  10.073 -0.9188 -2.8938 -1.7377
  778MOL0     H 7315   5.546   9.923  10.196 -0.3992 -0.9072  0.8741
  778MOL0     H 7316   5.501  10.220  10.236  2.1955  0.9955  1.9464
  778MOL0     H 7317   5.453  10.109  10.366 -1.0056 -0.7965 -1.0947
  778MOL0     H 7318   5.685  10.027  10.349  0.6750  1.2191  1.0328
  778MOL0     H 7319   5.717  10.116  10.203 -1.7243 -2.1873 -0.8538
  778MOL0     H 7320   5.812  10.238  10.413 -0.8931  1.4297  2.1467
  778MOL0     H 7321   5.682  10.340  10.336  1.8358  0.8739  0.2776
  778MOL0     H 7322   5.822  10.435  10.513 -0.8004  1.8773  0.3147
  778MOL0     H 7323   6.049  10.495  10.774 -2.5507 -3.3067  1.6390
  778MOL0     H 7324   5.950  10.634  10.787  2.3628  0.5570  0.7208
  778MOL0     H 7325   5.982  10.579  10.629  1.4253 -0.4443  0.6655
  778MOL0     H 7326   6.119  10.505  11.103  0.5398  0.3428 -0.2162
  778MOL0     H 7327   6.207  10.546  11.341  0.6892  0.0396 -0.6201
  778MOL0     H 7328   5.992  10.814  11.624  1.2325  0.5322  1.7739
  778MOL0     H 7329   5.906  10.654  11.647 -1.1712  0.1647 -1.6928
  778MOL0     H 7330   6.184  10.734  11.741  0.5772 -2.1552  0.3231
  778MOL0     H 7331   6.048  10.725  11.846 -2.0569 -0.6516  0.0678
  778MOL0     H 7332   6.202  10.519  11.851 -0.7502 -1.1151  1.6661
  778MOL0     H 7333   6.137  10.483  11.690 -1.4199  0.8616 -0.5392
  778MOL0     H 7334   5.959  10.376  11.792  2.5784 -1.8477  0.1072
  778MOL0     H 7335   5.912  10.529  11.879  0.0456 -0.7017  2.5654
  778MOL0     H 7336   6.096  10.459  12.037  0.1317 -1.7939  1.2341
  778MOL0     H 7337   5.933  10.388  12.035 -1.1970  0.4884 -0.5508
  778MOL0     H 7338   6.173  10.238  12.065  5.4842 -1.9673 -4.1949
  778MOL0     H 7339   6.150  10.238  11.888 -0.1774 -1.4551  0.3314
  778MOL0     H 7340   5.927  10.151  11.928  1.6244 -0.1895 -0.4220
  778MOL0     H 7341   5.955  10.161  12.100  4.1314  0.5101  2.1801
  778MOL0     H 7342   6.139   9.976  12.053 -2.3589 -2.7896  1.1891
  778MOL0     H 7343   6.111   9.999  11.883 -0.3496 -0.5785  0.6883
  778MOL0     H 7344   5.823  10.725  11.435  0.0279  1.3019 -0.9259
  778MOL0     H 7345   5.746  10.670  11.212  0.9193  1.9022 -1.9021
  778MOL0     H 7346   5.652  10.239  10.943 -2.8429 -0.7491 -0.9496
  778MOL0     H 7347   5.586  10.150  10.728  2.1041 -1.7542  2.6841
  778MOL0     H 7348   4.772   9.031  10.831  1.3636  0.9085 -0.4110
  778MOL0     H 7349   4.821   8.806  10.734  0.6399  1.8302  2.6153
  778MOL0     H 7350   4.521   8.436  10.531  0.7709  0.1360  0.8741
  778MOL0     H 7351   4.549   8.201  10.469 -0.9984  0.7381 -2.4476
  778MOL0     H 7352   4.595   7.995  10.287  1.2342 -0.9388  0.3755
  778MOL0     H 7353   4.672   8.109  10.192  1.2264  1.1506  2.1120
  778MOL0     H 7354   4.711   7.881  10.109 -1.2380  3.1242 -0.6313
  778MOL0     H 7355   4.770   7.825  10.267 -3.4459 -0.0885 -0.5539
  778MOL0     H 7356   4.915   8.030  10.080  3.4793  0.2332  0.3136
  778MOL0     H 7357   4.962   7.989  10.249 -0.5883  1.4699 -0.8076
  778MOL0     H 7358   4.966   7.752  10.159 -1.3529  0.9151  1.6498
  778MOL0     H 7359   5.100   7.863  10.105  0.1373  1.0538  0.3455
  778MOL0     H 7360   4.951   7.790   9.740  0.3119  1.0031  0.3631
  778MOL0     H 7361   4.928   8.280  10.319 -1.2220 -1.7080  0.7230
  778MOL0     H 7362   4.964   8.599  10.299  2.6655 -1.4477 -0.7308
  778MOL0     H 7363   4.969   8.628  10.481  1.1966 -0.0775 -0.4027
  778MOL0     H 7364   5.057   8.494  10.400 -0.1101 -1.7098 -2.2120
  779MOL0     O 7365   0.582   1.148   0.095 -0.7480  0.4461 -0.2577
  779MOL0     C 7366   0.574   1.220   0.198 -0.7936  0.9388  0.4196
  779MOL0     O 7367   0.490   1.194   0.304 -0.0015 -0.1348  0.3841
  779MOL0     C 7368   0.401   1.092   0.279 -0.1214 -0.8562  0.0917
  779MOL0     C 7369   0.411   0.972   0.345 -0.1230  0.1538  1.1659
  779MOL0     C 7370   0.319   0.879   0.325  0.3579 -0.2662 -0.5539
  779MOL0     C 7371   0.211   0.896   0.241 -0.1986  0.7082  0.3620
  779MOL0     O 7372   0.120   0.790   0.223  0.6522  0.6010 -0.5575
  779MOL0     C 7373   0.006   0.832   0.140 -0.4297 -0.5522 -0.3947
  779MOL0     C 7374  -0.085   0.711   0.124  0.2430  0.8783  0.3455
  779MOL0     C 7375  -0.183   0.735   0.007 -0.5462 -0.3929  0.8311
  779MOL0     C 7376  -0.287   0.850   0.038  0.3741 -0.1451 -0.3543
  779MOL0     C 7377  -0.385   0.863  -0.081 -0.1887  0.3041 -0.0440
  779MOL0     C 7378  -0.327   0.948  -0.188  0.0146  1.1583 -0.1494
  779MOL0     C 7379  -0.417   0.959  -0.312  0.8887  0.0727  0.7603
  779MOL0     C 7380  -0.361   1.062  -0.405 -0.7353  0.2761  0.2197
  779MOL0     N 7381  -0.399   1.193  -0.367  0.2211 -0.0970  0.1981
  779MOL0     C 7382  -0.320   1.286  -0.303 -0.2306  0.1258 -0.1416
  779MOL0     C 7383  -0.400   1.395  -0.282  0.6796  0.3542  0.4534
  779MOL0     C 7384  -0.340   1.509  -0.220 -0.3699  0.1471  0.5968
  779MOL0     C 7385  -0.391   1.536  -0.081  0.5744 -0.2335  0.1952
  779MOL0     C 7386  -0.369   1.683  -0.039  0.3552  0.2367 -0.1686
  779MOL0     C 7387  -0.500   1.770  -0.057  0.6006  0.1711 -0.9234
  779MOL0     O 7388  -0.598   1.715   0.035  0.6057 -0.0542  0.3057
  779MOL0     C 7389  -0.612   1.771   0.157  0.2784  0.0428  0.6139
  779MOL0     C 7390  -0.517   1.832   0.233  0.2620 -0.1624  0.2865
  779MOL0     C 7391  -0.536   1.866   0.368 -0.9824  0.9890  0.3431
  779MOL0     C 7392  -0.432   1.945   0.431 -0.8692 -0.3002  0.2494
  779MOL0     C 7393  -0.652   1.823   0.435  0.5102  0.3661  0.6279
  779MOL0     C 7394  -0.696   1.857   0.577  0.7447  0.5280  0.6371
  779MOL0     O 7395  -0.602   1.916   0.660  1.1240  0.0205 -0.5278
  779MOL0     C 7396  -0.648   1.971   0.774 -0.7355  0.6527 -0.3620
  779MOL0     C 7397  -0.770   2.040   0.791 -0.8467 -0.3277  0.1691
  779MOL0     C 7398  -0.822   2.078   0.916 -0.4307  0.6225  0.1131
  779MOL0     C 7399  -0.741   2.054   1.029  0.6882 -0.2049 -0.6051
  779MOL0     O 7400  -0.774   2.089   1.155  0.5438  0.6762 -0.0379
  779MOL0     C 7401  -0.914   2.108   1.188  0.4675  0.1697 -0.5811
  779MOL0     C 7402  -0.935   2.115   1.338 -0.0249  0.0312  1.0955
  779MOL0     C 7403  -0.861   2.236   1.391 -0.2689 -0.3924 -1.1450
  779MOL0     C 7404  -0.847   2.234   1.543 -0.7599  0.4911 -0.0057
  779MOL0     C 7405  -0.963   2.293   1.619 -0.4559 -0.6457 -0.2772
  779MOL0     C 7406  -1.103   2.222   1.620 -0.4341  0.6910 -0.7364
  779MOL0     C 7407  -1.205   2.314   1.706 -1.0455  0.2327 -0.8704
  779MOL0     C 7408  -1.348   2.276   1.678 -0.0415 -0.0078 -0.5117
  779MOL0    Cl 7409  -1.367   2.103   1.717  0.1713  0.3816 -0.1202
  779MOL0     C 7410  -0.616   1.997   1.014  0.8657  0.7569  0.0450
  779MOL0     C 7411  -0.571   1.951   0.881  0.2879 -0.3458  0.0708
  779MOL0     O 7412  -0.815   1.829   0.603 -0.7667 -0.1463 -1.2879
  779MOL0     C 7413  -0.746   1.752   0.362 -0.6738 -0.4229 -0.1730
  779MOL0     C 7414  -0.729   1.727   0.225  0.2855 -0.6002 -0.6628
  779MOL0     N 7415  -0.534   1.368  -0.336 -0.5348  0.5669  0.3504
  779MOL0     N 7416  -0.519   1.247  -0.385  0.5982  0.4586 -0.6148
  779MOL0     C 7417   0.195   1.023   0.179  0.5642 -0.0966 -0.7640
  779MOL0     C 7418   0.291   1.121   0.201 -0.3847  0.2251  0.2424
  779MOL0     C 7419   0.669   1.334   0.200  0.1337 -0.2986  0.2125
  779MOL0     C 7420   0.641   1.420   0.306 -0.0571 -0.4843  0.4215
  779MOL0     C 7421   0.700   1.547   0.306 -0.7910  0.2284  0.1805
  779MOL0     C 7422   0.798   1.586   0.211 -0.4897  0.1755  0.0298
  779MOL0     O 7423   0.845   1.715   0.216  0.0656 -0.8936 -0.0577
  779MOL0     C 7424   0.975   1.744   0.164  0.1721  0.2442  0.7014
  779MOL0     C 7425   1.000   1.901   0.172 -1.1918  0.4120 -0.1609
  779MOL0     C 7426   1.011   1.941   0.324 -0.3547  0.3729  1.0095
  779MOL0     C 7427   0.947   2.080   0.349 -0.7242 -0.2902 -0.4426
  779MOL0     C 7428   0.964   2.108   0.494  0.6032 -0.3006 -0.9752
  779MOL0     C 7429   0.982   2.126   0.615 -0.2809 -0.8655  0.0814
  779MOL0     C 7430   0.838   1.487   0.113 -0.3375 -0.3129 -0.4780
  779MOL0     C 7431   0.774   1.367   0.106  1.1706 -0.6381 -0.1897
  779MOL0     C 7432   0.820   1.273  -0.007 -0.2321  0.9946  0.1643
  779MOL0     H 7433   0.504   0.961   0.401  0.9862 -1.3053 -0.8469
  779MOL0     H 7434   0.325   0.784   0.378 -0.8009 -0.5986 -0.9833
  779MOL0     H 7435   0.049   0.866   0.045  1.8945  0.9902  1.0888
  779MOL0     H 7436  -0.055   0.910   0.186  1.2784  0.0956  0.8908
  779MOL0     H 7437  -0.024   0.622   0.104  1.8183  2.2296 -1.2481
  779MOL0     H 7438  -0.139   0.704   0.219 -0.4644  2.6953  0.1085
  779MOL0     H 7439  -0.118   0.753  -0.079 -0.2499 -0.0243  1.1283
  779MOL0     H 7440  -0.229   0.636  -0.005 -1.7804  0.2045  0.4872
  779MOL0     H 7441  -0.342   0.820   0.128  0.6220  0.8897  0.1648
  779MOL0     H 7442  -0.238   0.944   0.067 -2.6633  0.7238  2.6710
  779MOL0     H 7443  -0.489   0.880  -0.053 -0.7940 -1.2502 -1.1977
  779MOL0     H 7444  -0.392   0.763  -0.126 -1.2771 -0.3211  1.4386
  779MOL0     H 7445  -0.313   1.052  -0.158 -0.1728  1.3818 -0.8074
  779MOL0     H 7446  -0.232   0.905  -0.220 -1.4171 -1.5125 -1.1089
  779MOL0     H 7447  -0.521   0.987  -0.295 -0.5713 -1.5519 -3.8959
  779MOL0     H 7448  -0.430   0.865  -0.367  0.1932  0.5733  0.0346
  779MOL0     H 7449  -0.252   1.055  -0.408 -0.5658  2.2988 -2.5880
  779MOL0     H 7450  -0.405   1.042  -0.503 -5.6590 -2.7445  2.6692
  779MOL0     H 7451  -0.217   1.278  -0.270  0.5549  0.0171 -2.4334
  779MOL0     H 7452  -0.376   1.587  -0.288  1.0485 -1.2075 -1.8858
  779MOL0     H 7453  -0.230   1.506  -0.226 -0.3661 -2.3292  0.9418
  779MOL0     H 7454  -0.494   1.499  -0.083  0.5184 -0.0514 -0.5407
  779MOL0     H 7455  -0.348   1.474  -0.002 -3.4715 -2.3835  0.9758
  779MOL0     H 7456  -0.318   1.688   0.057  0.0634 -2.1053  0.1677
  779MOL0     H 7457  -0.286   1.724  -0.097  1.6020 -1.7946  0.1022
  779MOL0     H 7458  -0.484   1.877  -0.040  0.5888 -0.0522  0.7462
  779MOL0     H 7459  -0.551   1.769  -0.153 -3.6711 -1.5488  1.0918
  779MOL0     H 7460  -0.422   1.869   0.197  0.1379  0.9071  1.0235
  779MOL0     H 7461  -0.392   1.886   0.514 -2.6509 -1.2024  0.5152
  779MOL0     H 7462  -0.477   2.034   0.476 -2.7763 -1.7568  1.3953
  779MOL0     H 7463  -0.349   1.979   0.369 -0.6362  0.8014  1.1331
  779MOL0     H 7464  -0.838   2.056   0.709 -0.4951  3.8405  0.4488
  779MOL0     H 7465  -0.918   2.128   0.926 -1.0123 -0.7096  1.5967
  779MOL0     H 7466  -0.952   2.200   1.142 -0.5749  1.0556  1.8864
  779MOL0     H 7467  -0.970   2.025   1.145 -0.6108 -0.3132  1.6064
  779MOL0     H 7468  -1.040   2.144   1.351 -0.0956 -0.1862  1.0106
  779MOL0     H 7469  -0.922   2.024   1.397 -1.8405 -0.5661  0.6595
  779MOL0     H 7470  -0.899   2.332   1.355 -2.0355 -0.5608  0.1525
  779MOL0     H 7471  -0.756   2.230   1.361  0.9519  1.6258  2.1509
  779MOL0     H 7472  -0.755   2.286   1.574 -1.7790  1.4798  1.5080
  779MOL0     H 7473  -0.821   2.135   1.581  1.5017  0.0449 -2.4058
  779MOL0     H 7474  -0.940   2.313   1.725  0.3608  1.9307 -0.8744
  779MOL0     H 7475  -0.973   2.391   1.572  1.9277  0.1224  0.6266
  779MOL0     H 7476  -1.090   2.129   1.675  1.4877  0.7336 -1.0781
  779MOL0     H 7477  -1.133   2.219   1.514 -0.2312  3.8018 -0.9873
  779MOL0     H 7478  -1.188   2.413   1.663  0.6782  0.5063  0.3251
  779MOL0     H 7479  -1.176   2.324   1.811  2.3003 -0.9000 -1.5373
  779MOL0     H 7480  -1.342   2.282   1.569  2.2856  0.1229 -0.4122
  779MOL0     H 7481  -1.418   2.347   1.723  2.6377  2.1771  0.4588
  779MOL0     H 7482  -0.553   1.970   1.098 -2.1491  0.7278  2.4436
  779MOL0     H 7483  -0.476   1.903   0.857  2.1712  4.4984 -3.9251
  779MOL0     H 7484  -0.839   1.723   0.411  0.5531 -0.9258  2.0136
  779MOL0     H 7485  -0.811   1.668   0.185  1.2204 -1.5470 -1.2301
  779MOL0     H 7486   0.108   1.050   0.120 -0.0399  1.1097  0.6317
  779MOL0     H 7487   0.284   1.224   0.166 -1.0820  0.3752  0.7897
  779MOL0     H 7488   0.564   1.386   0.375 -0.2404 -4.1543 -1.3174
  779MOL0     H 7489   0.670   1.616   0.384 -1.5964  3.0806 -2.4798
  779MOL0     H 7490   1.052   1.682   0.212 -0.5920  0.9480  3.0124
  779MOL0     H 7491   0.981   1.715   0.059  0.5740  2.9705 -0.0983
  779MOL0     H 7492   0.922   1.958   0.119  0.1342  1.5065 -0.9918
  779MOL0     H 7493   1.088   1.921   0.111  1.2394  0.8160  3.2104
  779MOL0     H 7494   0.961   1.859   0.376  3.1129 -2.4095  0.3102
  779MOL0     H 7495   1.111   1.936   0.368 -1.2529  0.8311  3.2900
  779MOL0     H 7496   0.839   2.081   0.331 -0.6663 -1.2035 -0.9208
  779MOL0     H 7497   0.994   2.153   0.284  0.8328  1.1096  2.0979
  779MOL0     H 7498   1.005   2.134   0.719 -0.3997  1.6055 -0.0407
  779MOL0     H 7499   0.901   1.508   0.027 -2.0125 -1.0858 -1.9646
  779MOL0     H 7500   0.735   1.242  -0.069  0.0378 -2.3741  1.3010
  779MOL0     H 7501   0.893   1.309  -0.081 -0.6409 -0.5857 -1.0573
  779MOL0     H 7502   0.858   1.182   0.038  1.3202 -0.4954 -3.6989
  780MOL0     O 7503   6.230   9.374   7.171 -0.7557  0.5161  0.1760
  780MOL0     C 7504   6.120   9.426   7.208 -1.1877  0.1962  0.1296
  780MOL0     O 7505   6.117   9.524   7.307  0.0307  0.1591  0.9350
  780MOL0     C 7506   6.239   9.561   7.363  0.5320 -0.5468  0.6837
  780MOL0     C 7507   6.291   9.486   7.462  0.0620 -0.1993 -0.5426
  780MOL0     C 7508   6.407   9.533   7.543  0.8495  0.1496  0.8306
  780MOL0     C 7509   6.466   9.655   7.520  0.2812 -0.6708 -0.0116
  780MOL0     O 7510   6.569   9.704   7.594  0.1647  0.0587 -1.5049
  780MOL0     C 7511   6.682   9.754   7.528 -0.9723  0.1169 -0.7424
  780MOL0     C 7512   6.682   9.901   7.530 -0.1054  0.5144  1.0899
  780MOL0     C 7513   6.819   9.958   7.474 -0.0632  0.2002 -0.0220
  780MOL0     C 7514   6.814  10.108   7.435  1.1065  0.0187 -0.1844
  780MOL0     C 7515   6.957  10.169   7.410 -0.8897 -0.1033  0.8762
  780MOL0     C 7516   6.943  10.310   7.365 -0.3689 -0.0690  0.6249
  780MOL0     C 7517   7.080  10.370   7.359 -0.7042  0.1487  0.4461
  780MOL0     C 7518   7.083  10.519   7.373  0.8322 -0.8398  0.0748
  780MOL0     N 7519   7.214  10.580   7.361 -0.5882  0.4272 -0.5713
  780MOL0     C 7520   7.262  10.627   7.246 -0.3169 -0.2503 -0.1620
  780MOL0     C 7521   7.376  10.691   7.287  0.4040  1.3370  0.8027
  780MOL0     C 7522   7.485  10.762   7.200 -0.1254  0.8515 -0.1746
  780MOL0     C 7523   7.576  10.653   7.136 -0.4391 -0.6246  0.1113
  780MOL0     C 7524   7.503  10.582   7.013 -0.4122 -0.1610 -0.8769
  780MOL0     C 7525   7.607  10.514   6.926 -0.0251 -0.0625  0.7648
  780MOL0     O 7526   7.682  10.610   6.860 -0.4653 -0.5754 -0.1671
  780MOL0     C 7527   7.814  10.585   6.817  0.0997 -0.6587  0.1431
  780MOL0     C 7528   7.887  10.702   6.781 -0.4586 -0.0638 -0.4290
  780MOL0     C 7529   8.020  10.688   6.732 -0.8568  0.0846 -0.4019
  780MOL0     C 7530   8.084  10.827   6.688  0.4308  0.3743  0.6591
  780MOL0     C 7531   8.083  10.561   6.717  0.1877  0.7527 -0.2587
  780MOL0     C 7532   8.221  10.539   6.673 -1.0610  0.0569 -0.4043
  780MOL0     O 7533   8.282  10.412   6.689 -0.1310 -0.2413  0.2431
  780MOL0     C 7534   8.407  10.393   6.642  0.1866  0.7632 -0.3012
  780MOL0     C 7535   8.416  10.377   6.503  0.2498 -1.1342  0.6076
  780MOL0     C 7536   8.547  10.357   6.449 -0.0284  0.7729 -0.1250
  780MOL0     C 7537   8.657  10.353   6.530  0.0283  0.5213  0.2024
  780MOL0     O 7538   8.784  10.340   6.467 -0.0063  0.0665  0.0013
  780MOL0     C 7539   8.899  10.308   6.542  0.2509 -0.4520  0.1042
  780MOL0     C 7540   9.010  10.263   6.455 -0.4725 -1.0298 -0.7121
  780MOL0     C 7541   9.044  10.363   6.342  0.2765  0.3251 -0.6238
  780MOL0     C 7542   9.171  10.318   6.271  1.1167  0.3625 -0.3978
  780MOL0     C 7543   9.190  10.173   6.225  0.4290  0.3073 -0.8891
  780MOL0     C 7544   9.075  10.116   6.144  0.5871 -0.1198  0.7866
  780MOL0     C 7545   9.028   9.973   6.168  0.0308  1.0616 -0.4032
  780MOL0     C 7546   8.970   9.898   6.046 -0.6663 -0.1486 -0.0845
  780MOL0    Cl 7547   9.088   9.783   5.981  0.3121 -0.0966 -0.1841
  780MOL0     C 7548   8.645  10.360   6.671 -0.1459 -0.0260  0.2397
  780MOL0     C 7549   8.520  10.377   6.731  1.1850 -0.2049 -0.5790
  780MOL0     O 7550   8.258  10.626   6.595 -0.4898  0.4092  0.6453
  780MOL0     C 7551   8.006  10.447   6.750  0.5720 -0.1207 -0.5756
  780MOL0     C 7552   7.874  10.458   6.803 -0.7843 -0.2057  0.9662
  780MOL0     N 7553   7.391  10.665   7.415  0.0288 -0.2179 -0.6898
  780MOL0     N 7554   7.294  10.602   7.464  0.0540 -0.2828  0.1964
  780MOL0     C 7555   6.420   9.723   7.402 -0.3067  0.1775  0.1658
  780MOL0     C 7556   6.309   9.677   7.329  0.2513 -1.3119  0.3435
  780MOL0     C 7557   5.994   9.375   7.148  0.8322 -0.1620  0.5310
  780MOL0     C 7558   5.997   9.370   7.008  0.4075  1.2477 -0.3041
  780MOL0     C 7559   5.883   9.318   6.943  0.4710  0.0463 -0.8528
  780MOL0     C 7560   5.780   9.279   7.013  0.8149 -0.0682 -0.8426
  780MOL0     O 7561   5.671   9.229   6.945  0.2985 -0.6498  0.6840
  780MOL0     C 7562   5.682   9.101   6.894 -0.3104  0.0449  1.4137
  780MOL0     C 7563   5.563   9.019   6.944 -0.8242 -0.5894  0.4668
  780MOL0     C 7564   5.572   8.984   7.092  0.5567 -0.2994  0.0374
  780MOL0     C 7565   5.495   8.853   7.114 -0.4561  1.1048  0.9268
  780MOL0     C 7566   5.517   8.796   7.248 -0.5154 -0.1930  0.2023
  780MOL0     C 7567   5.548   8.727   7.347  0.1604 -0.4386  0.7510
  780MOL0     C 7568   5.770   9.287   7.151 -0.1072 -0.5281 -0.1701
  780MOL0     C 7569   5.876   9.347   7.225  0.1035 -0.3886  0.8299
  780MOL0     C 7570   5.856   9.391   7.370 -0.9271  0.1719 -0.0227
  780MOL0     H 7571   6.242   9.390   7.480  0.4271 -0.0988  1.1690
  780MOL0     H 7572   6.457   9.475   7.619 -0.0988 -1.4763  0.2676
  780MOL0     H 7573   6.676   9.705   7.431  0.3999 -1.2599 -0.1857
  780MOL0     H 7574   6.777   9.724   7.574  1.3294  2.3722 -3.6319
  780MOL0     H 7575   6.600   9.936   7.467 -0.5266  2.5099  2.6354
  780MOL0     H 7576   6.670   9.943   7.630  0.9194  2.0994  0.5892
  780MOL0     H 7577   6.889   9.962   7.559  1.9631 -0.8606 -1.5574
  780MOL0     H 7578   6.850   9.888   7.396  0.4294 -1.5026  1.6127
  780MOL0     H 7579   6.758  10.118   7.342  1.2741 -3.1004 -0.7211
  780MOL0     H 7580   6.770  10.172   7.512  0.0560  0.3495 -1.0359
  780MOL0     H 7581   7.002  10.109   7.331 -3.1784  1.9061 -2.2190
  780MOL0     H 7582   7.022  10.163   7.497  0.4035  0.1905 -0.0508
  780MOL0     H 7583   6.896  10.305   7.266  1.4751  0.2338 -0.3049
  780MOL0     H 7584   6.876  10.356   7.438 -1.7916 -0.7052 -0.2299
  780MOL0     H 7585   7.128  10.342   7.265  1.3245  2.7431  0.5933
  780MOL0     H 7586   7.132  10.337   7.450 -1.0339  0.0011  0.5871
  780MOL0     H 7587   7.017  10.558   7.295  0.7659 -0.0563  0.5105
  780MOL0     H 7588   7.044  10.548   7.471  4.0399  0.5751  1.0918
  780MOL0     H 7589   7.217  10.624   7.148 -0.7127 -0.2361  0.0171
  780MOL0     H 7590   7.536  10.830   7.269  1.6473 -1.5487  1.0310
  780MOL0     H 7591   7.439  10.822   7.121  0.4233 -1.2745 -2.2225
  780MOL0     H 7592   7.670  10.703   7.109 -0.4368 -1.8666 -2.4321
  780MOL0     H 7593   7.610  10.595   7.223 -3.1729  1.7456  3.0099
  780MOL0     H 7594   7.436  10.506   7.054 -1.6520  1.0891 -0.5035
  780MOL0     H 7595   7.443  10.662   6.968  1.7839  2.3044  0.2782
  780MOL0     H 7596   7.668  10.451   6.992  0.0916  1.2089  1.9226
  780MOL0     H 7597   7.540  10.463   6.857 -1.4610  2.8918 -0.1602
  780MOL0     H 7598   7.843  10.800   6.796  0.2008 -0.2552  4.7056
  780MOL0     H 7599   8.019  10.912   6.712 -0.0700 -0.1572  1.2232
  780MOL0     H 7600   8.106  10.826   6.581 -0.5641  0.2702  0.4464
  780MOL0     H 7601   8.166  10.842   6.759  0.2820  3.5324  0.3232
  780MOL0     H 7602   8.328  10.392   6.442 -0.2180 -1.5640  1.1684
  780MOL0     H 7603   8.561  10.338   6.343  0.9039 -1.8940  0.4097
  780MOL0     H 7604   8.930  10.399   6.594  0.8607  0.1127 -1.2222
  780MOL0     H 7605   8.877  10.219   6.603  0.6097  0.3528  1.4406
  780MOL0     H 7606   9.098  10.253   6.519 -0.8075 -0.4431 -0.1495
  780MOL0     H 7607   8.985  10.167   6.408 -2.3068 -0.1950 -1.5417
  780MOL0     H 7608   9.059  10.465   6.379  1.6810 -0.2199  0.4102
  780MOL0     H 7609   8.955  10.376   6.280  1.0138 -1.1772 -2.0700
  780MOL0     H 7610   9.255  10.333   6.339  1.6438  1.2749 -1.2181
  780MOL0     H 7611   9.183  10.387   6.187  1.8096 -0.9137 -1.3755
  780MOL0     H 7612   9.280  10.191   6.166  1.0282  1.8815  0.4557
  780MOL0     H 7613   9.215  10.108   6.310  0.2461 -0.9403 -1.7560
  780MOL0     H 7614   9.122  10.130   6.046  0.9283  1.5090  1.1529
  780MOL0     H 7615   8.990  10.183   6.144  2.5405  2.6973 -2.6796
  780MOL0     H 7616   8.966   9.953   6.257 -1.0157 -1.0954 -1.5206
  780MOL0     H 7617   9.114   9.916   6.206 -2.3297 -1.1261  2.1412
  780MOL0     H 7618   8.939   9.967   5.967 -5.0781 -2.8327 -1.0282
  780MOL0     H 7619   8.876   9.845   6.061 -0.8956 -0.5446 -2.5347
  780MOL0     H 7620   8.722  10.366   6.747 -1.7445 -1.1046  2.0214
  780MOL0     H 7621   8.505  10.389   6.838  0.5681  0.0360 -0.6889
  780MOL0     H 7622   8.057  10.351   6.741 -0.6618 -0.9267  0.7385
  780MOL0     H 7623   7.825  10.367   6.836  0.7296 -0.6294  2.1660
  780MOL0     H 7624   6.453   9.827   7.397  1.3237 -0.3115  0.1559
  780MOL0     H 7625   6.267   9.741   7.251  0.1832  1.7900  2.7268
  780MOL0     H 7626   6.078   9.391   6.939  1.4506 -0.9442  0.1561
  780MOL0     H 7627   5.886   9.331   6.835 -0.4764  3.6195 -0.5714
  780MOL0     H 7628   5.674   9.104   6.785 -0.2458 -1.8121  1.3249
  780MOL0     H 7629   5.779   9.056   6.915 -0.2860 -1.3949 -1.3831
  780MOL0     H 7630   5.561   8.926   6.886 -0.1528 -0.1496 -0.2647
  780MOL0     H 7631   5.474   9.078   6.921 -0.4549 -0.1565  0.1415
  780MOL0     H 7632   5.677   8.968   7.117  0.5196 -2.0866 -0.8066
  780MOL0     H 7633   5.520   9.059   7.152  2.8599  1.3964  0.0174
  780MOL0     H 7634   5.535   8.781   7.041 -1.5263 -0.7509  2.0715
  780MOL0     H 7635   5.389   8.876   7.107 -0.5835  0.9720  2.1961
  780MOL0     H 7636   5.589   8.682   7.435 -2.9653 -1.9894  1.5595
  780MOL0     H 7637   5.675   9.256   7.195 -0.8975  3.2985  1.2514
  780MOL0     H 7638   5.945   9.414   7.428 -1.8092  1.2042  0.9893
  780MOL0     H 7639   5.787   9.477   7.373 -2.5970 -1.1304  2.8800
  780MOL0     H 7640   5.808   9.304   7.416  0.3831  0.4389  1.9654
  781MOL0     O 7641   3.428   8.601   8.238 -0.2722  0.7298 -0.2511
  781MOL0     C 7642   3.540   8.645   8.233 -0.1764  0.3948  0.5248
  781MOL0     O 7643   3.657   8.573   8.262  0.5796  0.2245  0.5003
  781MOL0     C 7644   3.632   8.438   8.271 -0.2804  0.4594  0.0721
  781MOL0     C 7645   3.594   8.356   8.165  0.8674  0.3070  0.7042
  781MOL0     C 7646   3.573   8.222   8.177  0.6220  0.5845 -0.0601
  781MOL0     C 7647   3.591   8.158   8.301 -0.0274  0.1043 -0.6188
  781MOL0     O 7648   3.564   8.021   8.301  0.7400  0.1618  0.0562
  781MOL0     C 7649   3.573   7.961   8.426 -0.2607 -0.9995  0.2795
  781MOL0     C 7650   3.541   7.810   8.428  0.5612  0.0842 -0.4883
  781MOL0     C 7651   3.664   7.734   8.370  0.6253 -0.3262 -0.3097
  781MOL0     C 7652   3.612   7.599   8.347  0.1728  0.6449  0.1656
  781MOL0     C 7653   3.573   7.515   8.480 -0.5607  0.0406  0.7649
  781MOL0     C 7654   3.548   7.369   8.451 -0.0019 -0.2989  0.8642
  781MOL0     C 7655   3.456   7.309   8.553 -0.4597  0.3370  0.3706
  781MOL0     C 7656   3.483   7.159   8.557  0.7619 -0.3569 -0.1493
  781MOL0     N 7657   3.409   7.104   8.673  0.2689 -0.1360 -0.4270
  781MOL0     C 7658   3.265   7.104   8.675  0.1819  0.0379  0.1323
  781MOL0     C 7659   3.236   7.071   8.801  0.4163  0.7399  0.3805
  781MOL0     C 7660   3.105   7.082   8.879 -0.2300 -0.2004  1.0577
  781MOL0     C 7661   3.051   7.236   8.880  0.0783  0.2431 -0.4911
  781MOL0     C 7662   3.102   7.333   8.993  0.3769  0.0540 -0.1395
  781MOL0     C 7663   3.238   7.385   8.962 -0.8551  0.1854 -0.0346
  781MOL0     O 7664   3.237   7.457   8.841 -0.1268  0.5982 -0.2148
  781MOL0     C 7665   3.281   7.589   8.839  0.0616  0.3317  0.3075
  781MOL0     C 7666   3.229   7.682   8.748  0.5340 -0.4734 -0.4891
  781MOL0     C 7667   3.274   7.813   8.734 -0.0021 -0.2672 -0.0074
  781MOL0     C 7668   3.207   7.898   8.627 -0.6980  1.0351  0.5394
  781MOL0     C 7669   3.382   7.855   8.828  0.2886  0.3709  0.3698
  781MOL0     C 7670   3.449   7.984   8.835  0.3633  0.1838  0.1390
  781MOL0     O 7671   3.437   8.050   8.714 -0.1411  0.0895  0.1514
  781MOL0     C 7672   3.449   8.189   8.704 -0.5160 -0.0693 -0.7182
  781MOL0     C 7673   3.557   8.265   8.765  0.2649  0.5907 -0.2647
  781MOL0     C 7674   3.562   8.399   8.760 -0.0879 -0.6035  0.7007
  781MOL0     C 7675   3.465   8.479   8.700  0.6024  0.7602 -0.0067
  781MOL0     O 7676   3.485   8.615   8.696  0.4724 -0.6914 -0.3239
  781MOL0     C 7677   3.369   8.702   8.710  0.1959  0.8210  0.8057
  781MOL0     C 7678   3.323   8.770   8.581  0.1039  0.0353  0.5074
  781MOL0     C 7679   3.402   8.883   8.520 -0.1690 -0.1003 -0.9286
  781MOL0     C 7680   3.417   8.994   8.617  0.2889  0.4693  0.5290
  781MOL0     C 7681   3.460   9.110   8.536  0.1462  0.3203 -1.1701
  781MOL0     C 7682   3.607   9.109   8.493  0.0673  0.5912 -0.0779
  781MOL0     C 7683   3.653   9.219   8.393 -0.8250 -0.1416 -0.8447
  781MOL0     C 7684   3.774   9.298   8.455  0.2970 -0.1801  0.3187
  781MOL0    Cl 7685   3.841   9.397   8.325  0.3651 -0.1268  0.5923
  781MOL0     C 7686   3.357   8.409   8.643  0.1117 -0.1692  0.2822
  781MOL0     C 7687   3.347   8.271   8.639 -0.3656 -0.2828  0.7613
  781MOL0     O 7688   3.489   8.033   8.941  0.1518  0.2439  0.2156
  781MOL0     C 7689   3.436   7.760   8.908 -0.8127 -0.1881  0.3287
  781MOL0     C 7690   3.390   7.631   8.906  0.2213 -0.0252  0.4162
  781MOL0     N 7691   3.355   7.066   8.874 -0.0679  0.8139 -0.5999
  781MOL0     N 7692   3.455   7.084   8.796 -1.1323 -0.6356 -0.1341
  781MOL0     C 7693   3.619   8.234   8.413 -0.8616  0.9801  0.8730
  781MOL0     C 7694   3.643   8.376   8.395  0.4432 -0.2639 -0.0663
  781MOL0     C 7695   3.559   8.783   8.175 -0.4683  0.2433 -0.0004
  781MOL0     C 7696   3.449   8.858   8.140 -0.0746 -0.2222  0.1595
  781MOL0     C 7697   3.456   8.988   8.088  0.8072  0.6414  0.1813
  781MOL0     C 7698   3.577   9.049   8.058 -0.7340 -1.1215 -0.0529
  781MOL0     O 7699   3.588   9.176   7.998 -0.1039 -0.3688 -0.4898
  781MOL0     C 7700   3.714   9.243   8.002 -0.2558  0.4475 -0.6732
  781MOL0     C 7701   3.705   9.400   7.984 -0.2057  0.5840 -1.0482
  781MOL0     C 7702   3.596   9.450   7.880 -0.4206  0.2306 -0.2991
  781MOL0     C 7703   3.561   9.601   7.900  0.0377  0.6983  0.2763
  781MOL0     C 7704   3.606   9.692   7.797  0.3911  0.5135  0.8335
  781MOL0     C 7705   3.660   9.739   7.697 -0.1049 -0.0968 -0.4302
  781MOL0     C 7706   3.693   8.971   8.088  0.4003 -0.3285 -0.0997
  781MOL0     C 7707   3.684   8.847   8.151  0.4431  0.4992 -0.1483
  781MOL0     C 7708   3.810   8.770   8.175  0.6625 -0.9287  0.0790
  781MOL0     H 7709   3.583   8.395   8.064  0.1711  3.0337  1.7325
  781MOL0     H 7710   3.548   8.170   8.085 -1.6002 -1.5974  1.6468
  781MOL0     H 7711   3.484   7.999   8.476 -0.3104 -2.6830  1.5430
  781MOL0     H 7712   3.669   7.970   8.478 -0.8897  2.9077  1.0933
  781MOL0     H 7713   3.517   7.782   8.531  2.0421  0.5065 -0.0079
  781MOL0     H 7714   3.448   7.791   8.373  0.2499 -3.2883  0.9353
  781MOL0     H 7715   3.706   7.778   8.279  0.6159  2.2806  0.8547
  781MOL0     H 7716   3.741   7.732   8.448 -2.4802  2.1467  3.1533
  781MOL0     H 7717   3.517   7.607   8.293 -0.6148  1.0900  1.5485
  781MOL0     H 7718   3.685   7.547   8.284  0.8680  0.2629  1.2537
  781MOL0     H 7719   3.489   7.560   8.534 -1.8541  0.3885 -1.4019
  781MOL0     H 7720   3.654   7.520   8.553 -0.8547 -1.2623  1.2095
  781MOL0     H 7721   3.497   7.366   8.354  1.6316  1.6739 -0.1282
  781MOL0     H 7722   3.644   7.317   8.445 -0.2588 -0.6665 -0.9060
  781MOL0     H 7723   3.353   7.331   8.524  0.0697 -0.6239 -2.5529
  781MOL0     H 7724   3.472   7.358   8.650  2.6604  0.7139 -0.2405
  781MOL0     H 7725   3.460   7.097   8.470 -2.2630 -1.0689  0.9986
  781MOL0     H 7726   3.589   7.146   8.580  1.1366  2.7092  0.2934
  781MOL0     H 7727   3.192   7.129   8.598 -1.5659 -2.3161  0.8764
  781MOL0     H 7728   3.126   7.025   8.970 -1.6778  0.7047  2.0000
  781MOL0     H 7729   3.030   7.034   8.815  2.6554  0.3691 -3.1484
  781MOL0     H 7730   3.068   7.288   8.786 -2.6214  3.0203  0.4058
  781MOL0     H 7731   2.942   7.226   8.891 -0.4205  3.6396 -1.2738
  781MOL0     H 7732   3.041   7.423   8.981  1.7164  0.7643 -2.0654
  781MOL0     H 7733   3.094   7.304   9.098  0.6194 -0.2988 -0.2168
  781MOL0     H 7734   3.262   7.445   9.050  1.4637 -0.1365 -0.3689
  781MOL0     H 7735   3.314   7.306   8.965 -2.0741 -0.9875  0.8701
  781MOL0     H 7736   3.144   7.656   8.686  0.3749 -0.4598 -0.2822
  781MOL0     H 7737   3.161   7.986   8.673 -3.5600  0.6762 -1.4193
  781MOL0     H 7738   3.119   7.858   8.576 -0.3774  0.4506  0.4296
  781MOL0     H 7739   3.276   7.916   8.544 -1.3094  0.0836 -0.2000
  781MOL0     H 7740   3.633   8.205   8.813  1.1438  0.4463 -1.7747
  781MOL0     H 7741   3.643   8.449   8.813  1.0538 -0.0104 -1.5176
  781MOL0     H 7742   3.288   8.642   8.754 -0.0526 -1.8311 -2.8199
  781MOL0     H 7743   3.393   8.786   8.776  2.3556 -0.1639  1.3866
  781MOL0     H 7744   3.322   8.691   8.504 -0.7189  0.9002 -0.4074
  781MOL0     H 7745   3.220   8.805   8.590 -0.3579 -0.6739 -1.4108
  781MOL0     H 7746   3.363   8.916   8.423  0.2066  2.6559 -0.2211
  781MOL0     H 7747   3.497   8.832   8.502 -0.3278 -0.8547  0.2416
  781MOL0     H 7748   3.485   8.969   8.698 -0.7812 -1.2614  0.9403
  781MOL0     H 7749   3.319   9.012   8.663 -0.2669 -1.2867  0.1008
  781MOL0     H 7750   3.391   9.131   8.454  1.4286  0.6809 -2.2001
  781MOL0     H 7751   3.449   9.191   8.608 -0.1920 -0.5026 -0.2853
  781MOL0     H 7752   3.617   9.009   8.450 -2.3291  0.2264  0.0852
  781MOL0     H 7753   3.675   9.117   8.578  2.9104  0.3702 -2.2038
  781MOL0     H 7754   3.577   9.297   8.377 -1.3146 -0.3561  0.3221
  781MOL0     H 7755   3.683   9.176   8.297 -3.7860  0.0476 -1.9459
  781MOL0     H 7756   3.847   9.222   8.484 -1.7203 -2.0364  0.8180
  781MOL0     H 7757   3.738   9.363   8.535 -3.8393  1.7095 -2.7123
  781MOL0     H 7758   3.278   8.464   8.593  1.5003 -1.2666 -3.4480
  781MOL0     H 7759   3.261   8.226   8.591  0.8077  0.4336 -2.2986
  781MOL0     H 7760   3.513   7.783   8.981 -1.2442 -0.8748  1.0206
  781MOL0     H 7761   3.450   7.578   8.979  0.5541  2.2438  1.8606
  781MOL0     H 7762   3.635   8.184   8.508 -0.9412 -0.6656  0.0532
  781MOL0     H 7763   3.680   8.433   8.479  2.1741  0.2718 -1.1445
  781MOL0     H 7764   3.350   8.815   8.152 -3.2937  6.0425 -0.2734
  781MOL0     H 7765   3.366   9.045   8.064  1.5820  2.0266  0.4211
  781MOL0     H 7766   3.761   9.228   8.100 -0.7413  1.8176 -0.1967
  781MOL0     H 7767   3.780   9.197   7.928  0.4605 -0.4134  0.4632
  781MOL0     H 7768   3.804   9.433   7.949 -0.6447  1.8393 -1.1551
  781MOL0     H 7769   3.701   9.442   8.085  1.9754 -2.1037  0.2992
  781MOL0     H 7770   3.639   9.413   7.787 -1.0038  3.1090 -1.8648
  781MOL0     H 7771   3.509   9.384   7.889  0.5711 -0.8417  2.4307
  781MOL0     H 7772   3.598   9.645   7.994  0.7154  0.7992 -0.0331
  781MOL0     H 7773   3.452   9.604   7.908 -0.1077 -1.5751 -0.1495
  781MOL0     H 7774   3.713   9.790   7.618  0.9046 -2.7461 -1.6137
  781MOL0     H 7775   3.796   8.994   8.063  1.0205 -0.4031  2.1241
  781MOL0     H 7776   3.902   8.821   8.143  0.6861  0.9943  2.8610
  781MOL0     H 7777   3.833   8.748   8.280 -0.0643 -0.3648  0.3621
  781MOL0     H 7778   3.789   8.682   8.113 -0.0478 -1.1713  0.6513
  782MOL0     O 7779   4.437   0.399   4.549  0.0913 -0.1790 -0.0650
  782MOL0     C 7780   4.559   0.413   4.563  0.6330  0.0537 -0.3280
  782MOL0     O 7781   4.649   0.306   4.606  0.6448 -0.2235 -0.5176
  782MOL0     C 7782   4.593   0.179   4.586 -0.2433  0.5891 -0.4215
  782MOL0     C 7783   4.660   0.088   4.511 -1.7928  0.0903 -0.2571
  782MOL0     C 7784   4.624  -0.042   4.490 -0.3452 -0.1715  0.2471
  782MOL0     C 7785   4.499  -0.088   4.551  0.0239  0.1728  0.2295
  782MOL0     O 7786   4.472  -0.224   4.510  0.0642 -0.0794 -0.0791
  782MOL0     C 7787   4.352  -0.282   4.546 -1.1303 -0.0653  0.0319
  782MOL0     C 7788   4.347  -0.425   4.526  0.4574  0.2443  0.0777
  782MOL0     C 7789   4.204  -0.479   4.550 -0.2264  0.3336 -0.0372
  782MOL0     C 7790   4.111  -0.475   4.425  0.5046  0.4511  0.9705
  782MOL0     C 7791   3.973  -0.514   4.468 -0.4204 -1.0618  0.3130
  782MOL0     C 7792   3.867  -0.536   4.365  0.6360 -0.6618  0.0315
  782MOL0     C 7793   3.737  -0.573   4.438 -0.1526  0.5311  0.1954
  782MOL0     C 7794   3.664  -0.443   4.473 -0.5065 -0.2866  0.7010
  782MOL0     N 7795   3.519  -0.467   4.490 -0.2386  0.7227  0.9881
  782MOL0     C 7796   3.431  -0.465   4.385 -0.7518  1.1536 -1.3158
  782MOL0     C 7797   3.316  -0.493   4.448 -0.1189 -0.0252  0.0742
  782MOL0     C 7798   3.184  -0.520   4.378  0.0374 -0.4053  0.1923
  782MOL0     C 7799   3.092  -0.394   4.371 -0.8522 -0.6582 -0.0094
  782MOL0     C 7800   2.945  -0.440   4.352  0.2463  0.5087  0.4869
  782MOL0     C 7801   2.844  -0.325   4.355 -0.7948  0.6483  0.3783
  782MOL0     O 7802   2.727  -0.355   4.283  0.0615  0.4820  0.3451
  782MOL0     C 7803   2.747  -0.357   4.149 -0.2539  0.1257  0.7340
  782MOL0     C 7804   2.737  -0.477   4.065  0.0104 -0.7984 -0.2927
  782MOL0     C 7805   2.774  -0.476   3.936 -0.3119 -0.3199  0.0630
  782MOL0     C 7806   2.759  -0.612   3.864 -0.1564 -0.1835  0.5298
  782MOL0     C 7807   2.825  -0.350   3.876 -0.1678 -0.1471 -0.7049
  782MOL0     C 7808   2.865  -0.335   3.740  0.5369  1.1958  0.4522
  782MOL0     O 7809   2.976  -0.248   3.706 -0.5838 -0.0505 -0.1237
  782MOL0     C 7810   3.027  -0.264   3.585 -0.4490  0.2309  0.8605
  782MOL0     C 7811   2.964  -0.224   3.465  0.4912  0.5896 -0.7288
  782MOL0     C 7812   3.024  -0.212   3.345 -0.2002 -0.2998  0.3218
  782MOL0     C 7813   3.154  -0.262   3.342  0.7405 -0.2100  0.2018
  782MOL0     O 7814   3.235  -0.269   3.235  0.3710  1.0139  0.6898
  782MOL0     C 7815   3.191  -0.218   3.107 -0.3095 -0.2806 -0.2926
  782MOL0     C 7816   3.084  -0.313   3.037 -0.8790  0.1979 -0.5888
  782MOL0     C 7817   3.135  -0.459   3.010 -1.0214 -0.0889  0.0548
  782MOL0     C 7818   3.163  -0.548   3.136 -0.0981 -0.4263 -0.5675
  782MOL0     C 7819   3.140  -0.694   3.089  0.0797  0.0009 -0.1962
  782MOL0     C 7820   3.145  -0.785   3.208 -0.1011 -0.9754 -0.2163
  782MOL0     C 7821   3.139  -0.931   3.161 -0.5246 -0.1310  0.5887
  782MOL0     C 7822   3.159  -1.027   3.282 -0.5156  0.0156  0.6190
  782MOL0    Cl 7823   3.305  -0.982   3.376 -0.1710 -0.2355 -0.0987
  782MOL0     C 7824   3.214  -0.320   3.451 -1.0444  0.2944 -0.8782
  782MOL0     C 7825   3.154  -0.317   3.578 -0.6432 -0.3778  0.2017
  782MOL0     O 7826   2.797  -0.400   3.656  0.7603  0.4600  0.6976
  782MOL0     C 7827   2.839  -0.233   3.960 -0.8682  0.0242  0.9635
  782MOL0     C 7828   2.789  -0.238   4.090 -0.6886 -0.6800  0.9212
  782MOL0     N 7829   3.330  -0.491   4.586 -0.6477  0.7246 -0.1494
  782MOL0     N 7830   3.457  -0.487   4.603  0.7083  0.3848 -0.3169
  782MOL0     C 7831   4.425   0.011   4.622  0.0610  0.5169  0.1267
  782MOL0     C 7832   4.473   0.136   4.650 -0.0302  0.3706 -0.2085
  782MOL0     C 7833   4.618   0.550   4.535  0.2176 -0.6756 -0.3396
  782MOL0     C 7834   4.742   0.574   4.592 -0.1182  0.1250 -0.3658
  782MOL0     C 7835   4.819   0.688   4.576 -0.5530 -0.2880  0.6507
  782MOL0     C 7836   4.764   0.792   4.501  0.6875  0.6129  0.5534
  782MOL0     O 7837   4.816   0.920   4.491  0.0080 -0.5514  0.3343
  782MOL0     C 7838   4.755   1.018   4.579 -0.4706 -0.1156 -0.0302
  782MOL0     C 7839   4.861   1.120   4.637 -0.2055  1.1645 -0.2967
  782MOL0     C 7840   4.801   1.252   4.679 -0.4915 -0.1571 -0.1929
  782MOL0     C 7841   4.762   1.341   4.555 -0.4571 -0.2605  0.3507
  782MOL0     C 7842   4.719   1.478   4.609  0.1077 -0.6826  0.0413
  782MOL0     C 7843   4.711   1.588   4.661  0.1373 -0.4772 -0.0864
  782MOL0     C 7844   4.645   0.768   4.432  1.8011 -0.0057  0.2683
  782MOL0     C 7845   4.565   0.646   4.446  0.8836 -0.9843  0.0588
  782MOL0     C 7846   4.428   0.635   4.370 -0.6833  0.5194 -0.9365
  782MOL0     H 7847   4.750   0.124   4.462 -1.1303  0.3642  1.1227
  782MOL0     H 7848   4.684  -0.110   4.431 -2.1559 -0.2217 -1.6309
  782MOL0     H 7849   4.276  -0.225   4.491 -1.6876  1.0106  1.8266
  782MOL0     H 7850   4.338  -0.263   4.653 -1.5984 -0.2543  0.0082
  782MOL0     H 7851   4.381  -0.433   4.422 -1.5669  1.9674 -0.7980
  782MOL0     H 7852   4.425  -0.472   4.585  0.0627  0.0981  0.4918
  782MOL0     H 7853   4.207  -0.574   4.605  0.7455  0.7351  0.6302
  782MOL0     H 7854   4.162  -0.411   4.625  1.2823 -0.7120  1.8682
  782MOL0     H 7855   4.101  -0.372   4.392  1.0064  0.3804  0.5915
  782MOL0     H 7856   4.152  -0.537   4.345 -2.4047 -0.0374 -0.2949
  782MOL0     H 7857   3.948  -0.439   4.543  1.3381 -0.6648  0.5365
  782MOL0     H 7858   3.988  -0.603   4.529  4.2586  0.2076  1.3403
  782MOL0     H 7859   3.851  -0.442   4.311 -2.1998 -0.1404  1.5510
  782MOL0     H 7860   3.905  -0.604   4.288 -1.2339 -1.8091  0.0406
  782MOL0     H 7861   3.744  -0.633   4.529 -0.3939  0.6958  0.3250
  782MOL0     H 7862   3.688  -0.634   4.362  2.0005 -0.8556 -0.1617
  782MOL0     H 7863   3.705  -0.407   4.568 -1.8220  1.3876  0.6896
  782MOL0     H 7864   3.672  -0.363   4.399 -0.8908 -0.8234  0.0762
  782MOL0     H 7865   3.463  -0.444   4.283  1.7915  1.2750 -0.5542
  782MOL0     H 7866   3.127  -0.604   4.418 -1.0776  0.1532 -0.1613
  782MOL0     H 7867   3.217  -0.545   4.276 -1.3147  0.1168 -0.3971
  782MOL0     H 7868   3.102  -0.344   4.467  0.8616 -2.7516  1.0022
  782MOL0     H 7869   3.113  -0.326   4.288 -2.4768 -1.1154 -0.8351
  782MOL0     H 7870   2.945  -0.506   4.265  1.1407  0.9596  0.1416
  782MOL0     H 7871   2.925  -0.509   4.435 -0.8779  0.8531  0.5133
  782MOL0     H 7872   2.819  -0.315   4.461  1.5972  0.3257  1.0231
  782MOL0     H 7873   2.904  -0.240   4.319 -2.6739  0.6505 -3.2061
  782MOL0     H 7874   2.711  -0.564   4.125 -1.3247  1.2801  2.4008
  782MOL0     H 7875   2.746  -0.689   3.940  1.8485 -0.4006  0.6852
  782MOL0     H 7876   2.833  -0.636   3.788 -0.7858 -2.3558  0.5363
  782MOL0     H 7877   2.668  -0.605   3.802  0.2829 -1.1056 -0.2467
  782MOL0     H 7878   2.859  -0.199   3.469  0.6252  1.3232 -1.5671
  782MOL0     H 7879   2.980  -0.154   3.265  1.1938  0.8501  0.3407
  782MOL0     H 7880   3.148  -0.118   3.116 -0.6427 -0.1064 -2.8689
  782MOL0     H 7881   3.273  -0.196   3.037 -0.9856 -0.4591 -1.1652
  782MOL0     H 7882   2.989  -0.320   3.092 -1.4967  3.3257 -1.0234
  782MOL0     H 7883   3.068  -0.271   2.937 -1.0759 -1.6050 -1.3384
  782MOL0     H 7884   3.231  -0.452   2.959 -0.5458 -0.6960  0.8477
  782MOL0     H 7885   3.072  -0.512   2.938 -1.9326  0.2199  0.6018
  782MOL0     H 7886   3.086  -0.519   3.208  0.4644 -0.2101 -0.0480
  782MOL0     H 7887   3.261  -0.522   3.177 -0.5054 -0.5468  0.5125
  782MOL0     H 7888   3.043  -0.703   3.040 -0.5876  0.4776  1.0015
  782MOL0     H 7889   3.214  -0.734   3.019 -0.9107 -2.7931  0.2444
  782MOL0     H 7890   3.053  -0.762   3.263  0.1456 -0.6274  0.0539
  782MOL0     H 7891   3.228  -0.767   3.277  0.9835 -1.3321 -1.3853
  782MOL0     H 7892   3.232  -0.939   3.104 -0.9712  0.6254 -0.2666
  782MOL0     H 7893   3.046  -0.951   3.106  0.0161  0.0423 -0.3959
  782MOL0     H 7894   3.173  -1.133   3.259  1.9232 -0.2060  2.6557
  782MOL0     H 7895   3.074  -1.021   3.350  0.7282 -0.1103  2.2393
  782MOL0     H 7896   3.310  -0.369   3.445  0.5556  3.2380 -1.2235
  782MOL0     H 7897   3.217  -0.350   3.659  2.1234  0.8925 -1.3050
  782MOL0     H 7898   2.874  -0.142   3.913 -0.8805 -0.8097 -0.7497
  782MOL0     H 7899   2.775  -0.147   4.146 -1.0211  1.8786 -2.9153
  782MOL0     H 7900   4.336  -0.021   4.675 -1.5383  1.1434 -2.0686
  782MOL0     H 7901   4.404   0.205   4.697 -2.1919 -0.3508 -2.1542
  782MOL0     H 7902   4.789   0.496   4.650  1.5905  1.6729  0.3992
  782MOL0     H 7903   4.909   0.706   4.635 -0.3747 -0.6527  0.4868
  782MOL0     H 7904   4.671   1.065   4.528 -0.5778 -2.6689 -2.4056
  782MOL0     H 7905   4.706   0.981   4.670  0.4973 -2.5707 -0.4387
  782MOL0     H 7906   4.943   1.150   4.572 -0.1343  0.6524 -0.4476
  782MOL0     H 7907   4.894   1.067   4.727 -4.8006  0.3029  1.1591
  782MOL0     H 7908   4.715   1.241   4.745 -1.8269 -1.2564 -2.0165
  782MOL0     H 7909   4.875   1.314   4.731 -0.1727 -1.5230  1.0412
  782MOL0     H 7910   4.677   1.307   4.495 -2.2500  1.6474  1.6870
  782MOL0     H 7911   4.854   1.349   4.495  0.0387 -1.5423  0.9125
  782MOL0     H 7912   4.697   1.685   4.703  0.4262 -0.1092 -0.8282
  782MOL0     H 7913   4.607   0.849   4.371  0.5418 -1.6391 -1.2127
  782MOL0     H 7914   4.347   0.608   4.439  0.0237  1.2415  0.2263
  782MOL0     H 7915   4.405   0.733   4.328 -3.0909  0.7922  0.7658
  782MOL0     H 7916   4.429   0.556   4.295 -0.6604 -1.9320  1.4980
  783MOL0     O 7917   4.162   2.419   0.026  0.0725 -0.6602 -0.2413
  783MOL0     C 7918   4.237   2.470  -0.057 -0.1988  0.4536 -0.3899
  783MOL0     O 7919   4.377   2.485  -0.038  0.7629  0.4539  0.6410
  783MOL0     C 7920   4.419   2.416   0.084 -0.0503 -0.1226  0.2104
  783MOL0     C 7921   4.388   2.478   0.209 -0.2955  0.1419 -0.6511
  783MOL0     C 7922   4.420   2.416   0.328 -0.7961 -0.4089  0.4221
  783MOL0     C 7923   4.473   2.278   0.323 -0.6912 -0.0779 -0.2467
  783MOL0     O 7924   4.498   2.201   0.436 -0.1587  0.0417 -0.4630
  783MOL0     C 7925   4.383   2.189   0.526 -0.3451 -0.9318  0.8807
  783MOL0     C 7926   4.309   2.063   0.496  0.4845  0.1879 -0.1004
  783MOL0     C 7927   4.188   2.057   0.602 -0.3654 -0.1018  0.2390
  783MOL0     C 7928   4.113   1.923   0.589 -0.0692 -0.8093 -0.2028
  783MOL0     C 7929   3.999   1.928   0.693  0.1098  0.8793 -0.2813
  783MOL0     C 7930   3.910   2.058   0.682 -0.7846 -0.2170 -0.1042
  783MOL0     C 7931   3.766   2.022   0.724  0.2880  0.2850  0.2876
  783MOL0     C 7932   3.693   2.151   0.751  0.5239  0.1454  0.8973
  783MOL0     N 7933   3.554   2.104   0.772 -0.0154 -0.5366 -0.7084
  783MOL0     C 7934   3.503   2.049   0.888  0.4309  0.1128 -0.1928
  783MOL0     C 7935   3.369   2.046   0.865 -0.1693 -0.6275 -0.4807
  783MOL0     C 7936   3.272   1.962   0.934  0.8190  0.9341 -0.9928
  783MOL0     C 7937   3.185   2.042   1.043  1.4588  0.2865  0.1723
  783MOL0     C 7938   3.268   2.059   1.169 -0.5147 -0.3438 -0.9004
  783MOL0     C 7939   3.213   2.159   1.268  0.0968 -0.3609  0.6932
  783MOL0     O 7940   3.211   2.303   1.231  0.0220  0.5035  0.0296
  783MOL0     C 7941   3.289   2.384   1.310  0.5845 -0.4353  0.0539
  783MOL0     C 7942   3.244   2.515   1.317 -0.6529  0.3371  0.8163
  783MOL0     C 7943   3.314   2.617   1.376 -0.9449  0.3754 -0.8306
  783MOL0     C 7944   3.244   2.749   1.383 -0.1322 -1.0571  0.0499
  783MOL0     C 7945   3.438   2.584   1.437  0.4900  0.0241  0.0596
  783MOL0     C 7946   3.531   2.678   1.516 -0.7842  0.5705  0.6030
  783MOL0     O 7947   3.645   2.626   1.568  0.0760  0.4935  0.1973
  783MOL0     C 7948   3.708   2.696   1.658 -1.0289  0.4066 -1.0314
  783MOL0     C 7949   3.708   2.651   1.787 -0.4190 -0.5349  0.1803
  783MOL0     C 7950   3.790   2.697   1.886  0.3840  0.0474  0.0684
  783MOL0     C 7951   3.880   2.790   1.853 -0.8916 -0.8588 -0.0032
  783MOL0     O 7952   3.962   2.834   1.957 -0.1174  0.6111  0.4579
  783MOL0     C 7953   4.096   2.781   1.952 -0.2875  0.0376  0.7351
  783MOL0     C 7954   4.162   2.780   2.086 -0.7129 -0.6259  0.6273
  783MOL0     C 7955   4.308   2.733   2.078  0.0629  0.1560  0.2911
  783MOL0     C 7956   4.389   2.730   2.211  0.3069  0.1020  0.5512
  783MOL0     C 7957   4.511   2.639   2.180 -0.4199 -1.0711 -0.0230
  783MOL0     C 7958   4.613   2.630   2.297  0.3396  0.1573 -0.3449
  783MOL0     C 7959   4.749   2.627   2.239 -0.5048  0.8245 -0.4598
  783MOL0     C 7960   4.848   2.568   2.350  0.1308 -0.9959 -0.6072
  783MOL0    Cl 7961   4.978   2.491   2.272 -0.0459  0.0103 -0.1720
  783MOL0     C 7962   3.890   2.836   1.723  1.3143  0.2409  0.2950
  783MOL0     C 7963   3.799   2.789   1.622 -0.3283 -0.0099 -0.5506
  783MOL0     O 7964   3.505   2.796   1.516  0.3236 -0.4232  0.0973
  783MOL0     C 7965   3.479   2.442   1.440  0.5494 -0.2853  0.5253
  783MOL0     C 7966   3.400   2.349   1.385 -1.1903 -0.2352 -0.1770
  783MOL0     N 7967   3.344   2.105   0.738 -0.6024  0.2491 -0.2241
  783MOL0     N 7968   3.458   2.139   0.687 -0.4618  0.0806  0.5045
  783MOL0     C 7969   4.497   2.219   0.202  0.4876 -0.3571 -0.1540
  783MOL0     C 7970   4.476   2.290   0.084 -0.5833  0.4283  0.2248
  783MOL0     C 7971   4.198   2.489  -0.204  0.1419  0.1640 -0.3148
  783MOL0     C 7972   4.307   2.524  -0.290 -0.7404 -0.8403  0.4370
  783MOL0     C 7973   4.278   2.546  -0.424 -0.0284  0.7831  0.2143
  783MOL0     C 7974   4.144   2.525  -0.481  0.5867  0.4653 -0.6884
  783MOL0     O 7975   4.119   2.527  -0.611  0.0043  0.0600  0.0427
  783MOL0     C 7976   4.193   2.614  -0.699 -0.2796 -0.4514 -0.7163
  783MOL0     C 7977   4.085   2.721  -0.754  0.5787  0.3214  0.2256
  783MOL0     C 7978   3.987   2.657  -0.855  0.2029 -0.3568  0.5273
  783MOL0     C 7979   3.996   2.722  -0.995  0.8590  0.5537  0.9454
  783MOL0     C 7980   4.127   2.723  -1.054  0.0115 -0.9112 -0.8295
  783MOL0     C 7981   4.238   2.687  -1.097 -0.2941  0.5180 -0.3795
  783MOL0     C 7982   4.045   2.478  -0.393  0.1075 -0.9739  0.3385
  783MOL0     C 7983   4.070   2.458  -0.261 -0.3407 -1.2043 -0.3067
  783MOL0     C 7984   3.954   2.418  -0.176  1.5095 -0.5900 -0.5211
  783MOL0     H 7985   4.337   2.574   0.210  2.2104  1.5886  1.0273
  783MOL0     H 7986   4.398   2.469   0.421  0.3889 -3.2953  2.4936
  783MOL0     H 7987   4.319   2.276   0.510 -0.8102 -1.6791 -1.7409
  783MOL0     H 7988   4.428   2.192   0.625 -0.4116  4.3835  1.0076
  783MOL0     H 7989   4.269   2.077   0.395  1.5606 -1.6254 -0.8253
  783MOL0     H 7990   4.378   1.978   0.489  1.2029  0.8247 -1.2923
  783MOL0     H 7991   4.216   2.074   0.706  1.1455  2.9196 -0.5639
  783MOL0     H 7992   4.116   2.135   0.575 -2.0410 -1.9817 -1.0515
  783MOL0     H 7993   4.073   1.917   0.488  1.5967 -0.2999 -0.9228
  783MOL0     H 7994   4.186   1.843   0.605 -1.3116 -1.6745  1.4598
  783MOL0     H 7995   4.040   1.903   0.791 -2.2792  5.1375  2.1216
  783MOL0     H 7996   3.940   1.840   0.669  0.1275  0.5665  0.7812
  783MOL0     H 7997   3.946   2.132   0.754  0.7432 -2.3323  1.4610
  783MOL0     H 7998   3.908   2.111   0.586 -0.4433  1.0618  0.5767
  783MOL0     H 7999   3.772   1.967   0.818  1.5716  0.2571  0.2138
  783MOL0     H 8000   3.715   1.955   0.653  0.2736  0.2332  0.3472
  783MOL0     H 8001   3.732   2.211   0.833 -2.2081  1.5774  1.2542
  783MOL0     H 8002   3.695   2.221   0.667 -2.9468  1.1780  1.5168
  783MOL0     H 8003   3.558   2.021   0.978  1.2496 -0.0252 -0.7319
  783MOL0     H 8004   3.324   1.883   0.990  1.3614  0.3456 -2.3002
  783MOL0     H 8005   3.206   1.923   0.856 -0.2883  1.3180 -0.2734
  783MOL0     H 8006   3.168   2.141   1.000  1.2026  0.1558 -0.0332
  783MOL0     H 8007   3.090   1.989   1.052  0.4219  2.0187 -0.0766
  783MOL0     H 8008   3.273   1.963   1.220  1.2216  0.8800  1.4410
  783MOL0     H 8009   3.372   2.084   1.148 -1.2480  1.2437 -2.9999
  783MOL0     H 8010   3.113   2.115   1.280  1.4052 -3.3289  1.6814
  783MOL0     H 8011   3.259   2.142   1.366 -1.3889 -1.5114  1.2254
  783MOL0     H 8012   3.142   2.539   1.290 -1.6255 -3.2886  0.7111
  783MOL0     H 8013   3.216   2.779   1.484  2.2342 -0.0612  0.4707
  783MOL0     H 8014   3.157   2.758   1.317  0.7162  0.2902 -0.9433
  783MOL0     H 8015   3.315   2.818   1.336 -0.8915 -1.4740 -1.7893
  783MOL0     H 8016   3.644   2.567   1.812  0.3005 -0.8593  0.9536
  783MOL0     H 8017   3.791   2.659   1.988  0.7148 -0.7851 -0.2332
  783MOL0     H 8018   4.095   2.675   1.924  0.5732 -0.1854  1.5111
  783MOL0     H 8019   4.173   2.839   1.901 -0.3074 -0.2952  0.3201
  783MOL0     H 8020   4.158   2.876   2.138  3.6574 -0.4541  0.9940
  783MOL0     H 8021   4.107   2.709   2.149 -1.8670  1.3337  1.9579
  783MOL0     H 8022   4.358   2.793   2.002 -3.0047  2.6676  0.0304
  783MOL0     H 8023   4.296   2.634   2.034  0.8149  0.5003 -0.7178
  783MOL0     H 8024   4.340   2.695   2.303  2.2954 -0.9611  1.2751
  783MOL0     H 8025   4.417   2.832   2.238 -3.9760  2.1086 -1.6133
  783MOL0     H 8026   4.482   2.541   2.141 -2.8077 -0.4189 -0.0321
  783MOL0     H 8027   4.563   2.687   2.097 -0.0716  0.0894  0.8386
  783MOL0     H 8028   4.593   2.538   2.353 -0.3238 -0.0019 -0.8455
  783MOL0     H 8029   4.603   2.717   2.363  1.8028 -0.9661  1.4771
  783MOL0     H 8030   4.774   2.732   2.219 -0.1943  0.7030 -0.7175
  783MOL0     H 8031   4.754   2.561   2.152 -1.7145  1.2405 -0.8602
  783MOL0     H 8032   4.798   2.484   2.397  0.1859 -0.2022  0.9385
  783MOL0     H 8033   4.880   2.642   2.424  1.8218 -0.7767 -1.5035
  783MOL0     H 8034   3.967   2.909   1.700  0.1467  2.5420  3.0510
  783MOL0     H 8035   3.814   2.826   1.521 -0.6415  0.4809 -0.4210
  783MOL0     H 8036   3.578   2.416   1.477  1.6929  0.8276 -1.5588
  783MOL0     H 8037   3.434   2.246   1.376 -0.1523  0.1606 -1.0061
  783MOL0     H 8038   4.523   2.115   0.192 -1.8466 -0.9418 -0.6717
  783MOL0     H 8039   4.506   2.243  -0.009 -2.2835  1.1939 -0.7658
  783MOL0     H 8040   4.411   2.544  -0.267 -0.9172 -0.7696  1.1981
  783MOL0     H 8041   4.364   2.568  -0.485  1.0670 -0.8717  1.0797
  783MOL0     H 8042   4.273   2.670  -0.651 -2.5744  0.3403  2.4898
  783MOL0     H 8043   4.242   2.561  -0.781  1.3368 -0.0042 -0.0782
  783MOL0     H 8044   4.139   2.809  -0.792  0.4782  0.7705  1.0783
  783MOL0     H 8045   4.020   2.761  -0.675  2.4905  1.4378  1.3306
  783MOL0     H 8046   4.009   2.550  -0.865  3.6693  0.2925 -0.0709
  783MOL0     H 8047   3.884   2.665  -0.820  0.7546  0.4045  2.0377
  783MOL0     H 8048   3.953   2.822  -0.982  1.0125  1.3535 -3.2593
  783MOL0     H 8049   3.926   2.670  -1.061 -0.7265  1.8048  1.5529
  783MOL0     H 8050   4.322   2.645  -1.149 -1.2910  0.8413 -2.3579
  783MOL0     H 8051   3.955   2.446  -0.444  1.3835 -4.2433 -0.1286
  783MOL0     H 8052   3.976   2.329  -0.115 -1.1450  0.2568  1.9276
  783MOL0     H 8053   3.934   2.497  -0.104  3.2708 -0.3309 -0.2798
  783MOL0     H 8054   3.866   2.389  -0.234  0.3325 -0.3428  1.0668
  784MOL0     O 8055   1.084   5.003   3.742  0.2662 -0.7059 -0.3995
  784MOL0     C 8056   1.043   5.050   3.840 -0.4610  0.3219 -1.0379
  784MOL0     O 8057   0.915   5.028   3.890  0.9166 -0.5145 -0.4211
  784MOL0     C 8058   0.805   4.998   3.815 -0.1680 -0.5350  0.1798
  784MOL0     C 8059   0.786   5.066   3.694  0.7870 -0.2902 -0.2747
  784MOL0     C 8060   0.651   5.064   3.648 -0.0368  0.1394  0.3481
  784MOL0     C 8061   0.541   4.997   3.709  0.2148  0.2361 -1.2508
  784MOL0     O 8062   0.415   4.997   3.648 -0.1870  0.1006 -0.1800
  784MOL0     C 8063   0.420   4.979   3.509  0.5143  0.9875 -0.0891
  784MOL0     C 8064   0.286   4.928   3.453  0.5581 -0.4098 -0.0914
  784MOL0     C 8065   0.185   5.041   3.423 -0.1234 -0.2109  0.1796
  784MOL0     C 8066   0.040   4.977   3.398 -0.9922  0.1439  0.6475
  784MOL0     C 8067  -0.054   5.073   3.327  0.9823  0.3405  0.4555
  784MOL0     C 8068  -0.013   5.080   3.174 -0.7492 -0.0285  0.0095
  784MOL0     C 8069  -0.084   5.199   3.094  0.1732  0.5971 -0.1610
  784MOL0     C 8070  -0.218   5.162   3.048 -0.2591 -0.0749 -1.0227
  784MOL0     N 8071  -0.279   5.264   2.955  0.1496  0.7073  0.1634
  784MOL0     C 8072  -0.214   5.308   2.841 -0.9607  0.6380 -1.0549
  784MOL0     C 8073  -0.282   5.418   2.802 -0.9351 -0.0774 -0.0212
  784MOL0     C 8074  -0.240   5.499   2.693  0.1824 -0.7147 -0.9130
  784MOL0     C 8075  -0.114   5.574   2.743 -0.2183 -0.7521  0.4929
  784MOL0     C 8076  -0.062   5.641   2.609  1.1192 -0.0784 -1.1265
  784MOL0     C 8077   0.080   5.698   2.637  0.3122 -0.2431 -0.0412
  784MOL0     O 8078   0.118   5.794   2.538 -0.1762  0.1101 -0.3214
  784MOL0     C 8079   0.219   5.885   2.570 -0.3948 -0.5359  0.0838
  784MOL0     C 8080   0.328   5.851   2.653 -0.3830  0.2718 -0.2800
  784MOL0     C 8081   0.434   5.935   2.661 -0.1512 -0.3935 -0.6107
  784MOL0     C 8082   0.539   5.900   2.773  0.7562 -0.0534 -0.4972
  784MOL0     C 8083   0.444   6.057   2.587 -0.3498  0.1849  0.4686
  784MOL0     C 8084   0.563   6.138   2.574 -0.6101 -0.5266  0.1127
  784MOL0     O 8085   0.547   6.258   2.516 -0.5333  0.5785 -0.3899
  784MOL0     C 8086   0.646   6.354   2.530  0.5194 -0.6246  0.5827
  784MOL0     C 8087   0.756   6.365   2.445 -0.5549  0.3290  0.0349
  784MOL0     C 8088   0.845   6.473   2.462 -0.5586 -0.1663 -0.3346
  784MOL0     C 8089   0.819   6.578   2.550  0.0385  0.4276 -0.0765
  784MOL0     O 8090   0.903   6.680   2.533 -0.2995 -0.3968 -0.3140
  784MOL0     C 8091   0.884   6.799   2.613  0.2518 -0.7468  1.0877
  784MOL0     C 8092   0.887   6.922   2.539 -0.3464 -0.4792  0.9135
  784MOL0     C 8093   0.761   6.939   2.446 -0.0009  0.3038 -0.1989
  784MOL0     C 8094   0.736   7.072   2.367  0.0268  0.3659  0.3766
  784MOL0     C 8095   0.593   7.087   2.331  0.4777 -0.6465 -0.6792
  784MOL0     C 8096   0.550   6.995   2.219  0.0849 -0.0270 -0.5920
  784MOL0     C 8097   0.435   7.065   2.142  0.3283  0.7267 -0.7937
  784MOL0     C 8098   0.292   6.998   2.154 -0.2490 -0.1107  0.6004
  784MOL0    Cl 8099   0.257   6.926   2.316 -0.2053 -0.0477 -0.0234
  784MOL0     C 8100   0.705   6.562   2.639 -0.2544  0.6104 -0.0705
  784MOL0     C 8101   0.621   6.452   2.627 -0.8602  0.7824 -0.1588
  784MOL0     O 8102   0.673   6.111   2.620 -0.7272  0.1696  0.6423
  784MOL0     C 8103   0.333   6.093   2.506 -0.2192  0.2004  0.3079
  784MOL0     C 8104   0.221   6.000   2.491 -0.6218  0.0618 -0.5882
  784MOL0     N 8105  -0.381   5.449   2.893  0.9037  0.2433  0.1144
  784MOL0     N 8106  -0.379   5.354   2.984  0.4615  0.3449  0.6421
  784MOL0     C 8107   0.564   4.939   3.831  0.7854  0.4451  0.7128
  784MOL0     C 8108   0.697   4.942   3.879  0.0428 -0.1452  0.4108
  784MOL0     C 8109   1.138   5.143   3.922 -0.8035 -0.5133  0.2594
  784MOL0     C 8110   1.074   5.244   3.983 -0.3268 -0.6350  0.0096
  784MOL0     C 8111   1.139   5.340   4.043 -0.8475 -0.4040 -0.3346
  784MOL0     C 8112   1.277   5.339   4.060  0.6776  0.7264 -0.0723
  784MOL0     O 8113   1.306   5.455   4.125 -0.0243 -0.3417  0.4531
  784MOL0     C 8114   1.433   5.514   4.102  0.0924  0.4456 -0.2094
  784MOL0     C 8115   1.464   5.553   3.951 -0.6679 -0.3704  0.6486
  784MOL0     C 8116   1.367   5.666   3.900  0.2865 -0.2751 -1.2557
  784MOL0     C 8117   1.402   5.700   3.755  0.1354  0.4363 -0.1708
  784MOL0     C 8118   1.357   5.837   3.718 -0.5266  1.0626 -0.1778
  784MOL0     C 8119   1.331   5.947   3.682 -0.1137  0.9965  0.2498
  784MOL0     C 8120   1.350   5.235   3.989 -0.4361 -0.5938  0.2518
  784MOL0     C 8121   1.283   5.131   3.920 -1.2076  0.1708  0.3928
  784MOL0     C 8122   1.365   5.020   3.845 -0.1639  0.4010 -0.0555
  784MOL0     H 8123   0.867   5.128   3.658 -0.1691  0.9802 -0.3004
  784MOL0     H 8124   0.645   5.105   3.547  0.9344 -1.1949 -0.2762
  784MOL0     H 8125   0.504   4.913   3.486 -0.4079 -0.0355 -0.5624
  784MOL0     H 8126   0.442   5.067   3.448  1.6427  0.8538  0.1040
  784MOL0     H 8127   0.290   4.864   3.365 -1.6700  0.0922 -0.6354
  784MOL0     H 8128   0.243   4.858   3.525  0.4847 -2.2795 -1.8475
  784MOL0     H 8129   0.189   5.112   3.507  0.6956  2.4298 -1.9510
  784MOL0     H 8130   0.226   5.101   3.341 -1.0030  0.7599  0.4185
  784MOL0     H 8131   0.045   4.879   3.349 -0.3903  0.7925 -0.6664
  784MOL0     H 8132  -0.002   4.966   3.498 -2.9839  0.6368 -0.0781
  784MOL0     H 8133  -0.045   5.173   3.370 -2.2260  0.7829  0.3493
  784MOL0     H 8134  -0.158   5.046   3.348  0.8122  1.8714  1.7662
  784MOL0     H 8135   0.095   5.098   3.175 -0.8800  0.9456  1.6165
  784MOL0     H 8136  -0.026   4.981   3.131 -1.9043 -0.3242  0.9768
  784MOL0     H 8137  -0.025   5.232   3.008 -0.0818  4.2324  0.9130
  784MOL0     H 8138  -0.112   5.290   3.148  0.6974  1.1828 -0.8522
  784MOL0     H 8139  -0.211   5.066   2.995 -0.6892  0.7895 -2.7365
  784MOL0     H 8140  -0.284   5.144   3.133 -1.0717  0.0613 -1.6091
  784MOL0     H 8141  -0.121   5.269   2.801 -2.0072 -0.0602 -2.9274
  784MOL0     H 8142  -0.309   5.576   2.658  2.5004  1.4960 -0.8798
  784MOL0     H 8143  -0.226   5.430   2.609  0.4722 -3.7243  1.4379
  784MOL0     H 8144  -0.155   5.655   2.804 -1.1432  1.0813 -2.3753
  784MOL0     H 8145  -0.038   5.504   2.781  1.7632  0.6214 -0.7583
  784MOL0     H 8146  -0.048   5.565   2.531  2.6150  1.3332 -2.3095
  784MOL0     H 8147  -0.131   5.715   2.566  0.2249  1.5921  2.7308
  784MOL0     H 8148   0.067   5.755   2.730  0.6532 -0.4553  0.1399
  784MOL0     H 8149   0.141   5.610   2.659 -0.2113 -0.5074  0.4085
  784MOL0     H 8150   0.333   5.754   2.701  0.1064  1.1630  1.5441
  784MOL0     H 8151   0.635   5.864   2.733  0.0665 -2.0447 -0.4747
  784MOL0     H 8152   0.501   5.818   2.835  1.9309 -0.9823 -0.9406
  784MOL0     H 8153   0.565   5.979   2.844  0.1141  0.0075 -0.3232
  784MOL0     H 8154   0.773   6.285   2.373 -0.3748 -0.3842  0.8512
  784MOL0     H 8155   0.935   6.463   2.402  1.3138  0.5654  2.1687
  784MOL0     H 8156   0.785   6.787   2.659 -0.1387  0.3630  0.5630
  784MOL0     H 8157   0.949   6.797   2.701 -0.3459  0.9674  1.5967
  784MOL0     H 8158   0.880   7.006   2.609  1.9402  0.5053  0.0401
  784MOL0     H 8159   0.980   6.928   2.482 -0.7093  2.1188  0.4601
  784MOL0     H 8160   0.674   6.931   2.511 -2.7160  1.0132 -3.4482
  784MOL0     H 8161   0.752   6.859   2.372 -1.1754 -0.2475  0.5171
  784MOL0     H 8162   0.799   7.072   2.278  2.0195  1.7165  1.6852
  784MOL0     H 8163   0.776   7.153   2.430  2.8087 -1.7489  1.5311
  784MOL0     H 8164   0.524   7.087   2.415  0.5317 -0.0734 -0.6294
  784MOL0     H 8165   0.592   7.196   2.314  1.2423 -0.1769  1.8460
  784MOL0     H 8166   0.516   6.899   2.258 -1.5971  0.8332  0.1965
  784MOL0     H 8167   0.628   6.987   2.143  1.0568  2.5961  0.0156
  784MOL0     H 8168   0.453   7.061   2.034  0.6901  0.9709 -0.7447
  784MOL0     H 8169   0.424   7.170   2.170 -1.1551  0.8840 -1.8586
  784MOL0     H 8170   0.279   6.926   2.074  1.2371 -0.1120  0.3459
  784MOL0     H 8171   0.216   7.077   2.143  0.7381  1.1892  2.4590
  784MOL0     H 8172   0.677   6.625   2.723 -0.7461 -0.8849  0.9212
  784MOL0     H 8173   0.531   6.445   2.686 -2.1867  2.7261 -1.8005
  784MOL0     H 8174   0.328   6.188   2.454 -0.2168  0.5197  0.8829
  784MOL0     H 8175   0.137   6.032   2.431 -1.9289 -0.9495  0.6167
  784MOL0     H 8176   0.485   4.895   3.890  1.1311 -2.0391 -0.5571
  784MOL0     H 8177   0.714   4.902   3.979  0.7990  0.0425  0.3644
  784MOL0     H 8178   0.967   5.260   3.995  0.0103  2.5946 -0.3028
  784MOL0     H 8179   1.085   5.424   4.085 -0.4840 -0.8384  1.0753
  784MOL0     H 8180   1.434   5.607   4.158 -2.9907 -1.0435  2.6203
  784MOL0     H 8181   1.503   5.436   4.134 -0.5645 -1.9993 -3.9571
  784MOL0     H 8182   1.443   5.466   3.888  2.1589  2.2207 -4.5607
  784MOL0     H 8183   1.570   5.568   3.928 -0.8702 -0.0397 -0.0960
  784MOL0     H 8184   1.265   5.626   3.900  0.8171 -1.6732 -1.2165
  784MOL0     H 8185   1.378   5.761   3.954  1.1615 -1.1272  0.1337
  784MOL0     H 8186   1.375   5.623   3.682  0.5135  0.3974 -0.2734
  784MOL0     H 8187   1.511   5.713   3.752  0.0263  1.4551 -0.1481
  784MOL0     H 8188   1.320   6.047   3.645  1.7830  1.4175  0.7249
  784MOL0     H 8189   1.458   5.233   3.989 -0.4200 -1.0669 -1.2669
  784MOL0     H 8190   1.323   5.021   3.745  0.3526  3.0827 -0.3249
  784MOL0     H 8191   1.471   5.044   3.833  0.1620 -1.4677 -1.3341
  784MOL0     H 8192   1.360   4.918   3.884 -1.8191  1.6811  3.6010
  785MOL0     O 8193   3.754   2.956   9.001  0.8726  0.5207  0.4116
  785MOL0     C 8194   3.802   2.907   8.901  0.4784 -0.2013 -0.7554
  785MOL0     O 8195   3.895   2.814   8.902  0.0354 -0.2170  0.0944
  785MOL0     C 8196   3.921   2.730   9.003  0.4529  0.3266 -0.3251
  785MOL0     C 8197   4.026   2.739   9.090 -0.4375  0.1542 -0.9155
  785MOL0     C 8198   4.052   2.642   9.186  0.6534 -0.0269 -0.6009
  785MOL0     C 8199   3.972   2.528   9.197 -0.5215 -0.1293 -0.2114
  785MOL0     O 8200   3.993   2.433   9.291  0.6600 -0.0268 -0.2981
  785MOL0     C 8201   4.079   2.465   9.401  0.1147  0.0063 -0.4295
  785MOL0     C 8202   4.074   2.352   9.502  0.7750 -0.2530 -1.4699
  785MOL0     C 8203   4.139   2.378   9.646  0.0230  0.2016  0.7107
  785MOL0     C 8204   4.265   2.469   9.633  0.7686 -0.6582  0.8809
  785MOL0     C 8205   4.351   2.470   9.762  0.3661  0.2094  0.2067
  785MOL0     C 8206   4.273   2.535   9.877  0.2121  0.3212  0.3627
  785MOL0     C 8207   4.363   2.559  10.002 -1.1581  0.0557  0.0540
  785MOL0     C 8208   4.449   2.688   9.973 -0.0173  0.7722 -0.2384
  785MOL0     N 8209   4.541   2.716  10.094  0.1800 -0.2870  0.0500
  785MOL0     C 8210   4.672   2.707  10.084  0.1187 -0.3224 -0.7802
  785MOL0     C 8211   4.723   2.742  10.210  0.1339 -0.1078  0.3482
  785MOL0     C 8212   4.868   2.734  10.233  0.2341  0.1204 -0.0388
  785MOL0     C 8213   4.913   2.583  10.217  0.6780  0.7419  0.1501
  785MOL0     C 8214   5.045   2.558  10.294 -0.3769  0.2639 -0.3649
  785MOL0     C 8215   5.072   2.410  10.290  0.3985  0.4491  0.5200
  785MOL0     O 8216   5.067   2.334  10.165 -0.0620 -0.7739 -0.1030
  785MOL0     C 8217   5.181   2.343  10.071 -0.4420 -0.2229  0.0116
  785MOL0     C 8218   5.151   2.353   9.936 -0.0184 -0.5432 -0.1775
  785MOL0     C 8219   5.250   2.352   9.836 -0.3573  0.2394 -0.7073
  785MOL0     C 8220   5.206   2.365   9.695 -0.5816  0.3866 -0.6493
  785MOL0     C 8221   5.386   2.359   9.874 -0.0287  0.3571 -0.1739
  785MOL0     C 8222   5.504   2.356   9.785  0.3875  0.5762  0.6404
  785MOL0     O 8223   5.487   2.345   9.648  0.4997  0.2585 -0.8832
  785MOL0     C 8224   5.583   2.379   9.563 -0.0241 -0.0120 -0.9579
  785MOL0     C 8225   5.578   2.324   9.434  0.3802 -0.2588  0.5916
  785MOL0     C 8226   5.679   2.353   9.349 -0.7817 -0.7726  0.5172
  785MOL0     C 8227   5.785   2.441   9.381  0.0107 -0.6077 -0.9402
  785MOL0     O 8228   5.883   2.452   9.288  0.3598  0.2590 -0.0902
  785MOL0     C 8229   6.015   2.459   9.327 -0.1629 -0.5786 -0.1002
  785MOL0     C 8230   6.097   2.490   9.197  0.8615  0.1487  0.5405
  785MOL0     C 8231   6.244   2.489   9.210 -0.4994 -0.6431 -0.5119
  785MOL0     C 8232   6.283   2.597   9.307  0.5867  1.0939 -0.2240
  785MOL0     C 8233   6.272   2.748   9.258 -0.0612  0.4756  0.0834
  785MOL0     C 8234   6.335   2.842   9.365  0.6347 -0.2084  1.2146
  785MOL0     C 8235   6.312   2.986   9.344  1.0001  0.6050  0.1968
  785MOL0     C 8236   6.388   3.072   9.445 -0.1687  0.0380 -0.1236
  785MOL0    Cl 8237   6.391   3.236   9.357 -0.1432  0.5998  0.7376
  785MOL0     C 8238   5.786   2.487   9.514  0.3758  0.4280  0.4396
  785MOL0     C 8239   5.685   2.468   9.598  0.6713 -0.7004 -0.0880
  785MOL0     O 8240   5.616   2.341   9.846 -0.7903  1.1348  0.1160
  785MOL0     C 8241   5.413   2.357  10.011  0.4818  0.0590 -0.8418
  785MOL0     C 8242   5.316   2.356  10.104 -0.1863 -0.0558 -1.2663
  785MOL0     N 8243   4.615   2.771  10.290  0.0623  0.2679 -0.8746
  785MOL0     N 8244   4.504   2.764  10.218  0.2216 -0.3377 -0.4018
  785MOL0     C 8245   3.870   2.517   9.099 -0.3258 -0.7723 -0.8310
  785MOL0     C 8246   3.845   2.609   9.009 -0.5770 -0.0212  0.3877
  785MOL0     C 8247   3.775   2.978   8.773 -0.1116  0.3236  0.2768
  785MOL0     C 8248   3.649   3.029   8.756 -0.1256  0.8392 -0.2262
  785MOL0     C 8249   3.605   3.099   8.641  0.6048 -0.6588  0.0668
  785MOL0     C 8250   3.696   3.111   8.532  0.2292 -0.0560  0.3526
  785MOL0     O 8251   3.673   3.178   8.409  0.3671 -0.0105  0.6360
  785MOL0     C 8252   3.534   3.174   8.359  0.2727 -0.3269  0.5184
  785MOL0     C 8253   3.546   3.155   8.202 -0.6634 -0.2069  0.4777
  785MOL0     C 8254   3.625   3.255   8.120 -0.3099 -0.0704  0.2395
  785MOL0     C 8255   3.620   3.224   7.977  0.3892  0.1241 -0.1456
  785MOL0     C 8256   3.710   3.296   7.897  0.1592  0.0160  0.1926
  785MOL0     C 8257   3.796   3.349   7.827  0.1919  0.2196 -0.0322
  785MOL0     C 8258   3.817   3.040   8.544 -0.2826 -0.6977  0.3325
  785MOL0     C 8259   3.865   2.989   8.665  0.2071  0.1870 -0.3935
  785MOL0     C 8260   4.012   2.946   8.668 -0.8355  0.4174  0.1694
  785MOL0     H 8261   4.071   2.837   9.079 -0.8832  0.3412 -1.0962
  785MOL0     H 8262   4.132   2.665   9.256  0.7659 -2.8837  0.3399
  785MOL0     H 8263   4.054   2.554   9.459  0.3932 -0.9494  1.2180
  785MOL0     H 8264   4.184   2.466   9.369  0.0791  2.3206 -0.6799
  785MOL0     H 8265   3.972   2.321   9.525  2.4535 -4.8582  1.0688
  785MOL0     H 8266   4.123   2.273   9.445 -0.3005 -0.0488 -2.7187
  785MOL0     H 8267   4.066   2.423   9.714 -0.6389 -2.6391  2.0298
  785MOL0     H 8268   4.178   2.285   9.690  1.6397  1.4214  2.0016
  785MOL0     H 8269   4.330   2.441   9.550  3.9155  0.8906  2.6064
  785MOL0     H 8270   4.225   2.568   9.610 -0.9377 -1.3411  0.8257
  785MOL0     H 8271   4.448   2.520   9.752  0.7925 -0.1574  2.0575
  785MOL0     H 8272   4.374   2.366   9.785  2.1567  0.5296  0.0159
  785MOL0     H 8273   4.229   2.632   9.852  0.8563  0.8497  1.2071
  785MOL0     H 8274   4.204   2.456   9.905  1.5685 -1.3035 -0.6677
  785MOL0     H 8275   4.428   2.479  10.038  0.1240  0.6363 -0.8991
  785MOL0     H 8276   4.297   2.588  10.084 -5.5594 -2.5618 -2.1773
  785MOL0     H 8277   4.505   2.683   9.879  0.2981 -1.4615  0.0117
  785MOL0     H 8278   4.375   2.768   9.973  1.4448  2.1676 -0.9691
  785MOL0     H 8279   4.726   2.692   9.991 -0.9759  0.3232 -1.5396
  785MOL0     H 8280   4.892   2.776  10.331 -0.9120  1.5486 -0.3375
  785MOL0     H 8281   4.926   2.802  10.171 -1.9409  1.8878 -0.2636
  785MOL0     H 8282   4.834   2.510  10.235  1.8271 -1.4128 -2.6255
  785MOL0     H 8283   4.932   2.564  10.111 -2.1658 -3.1488  0.1377
  785MOL0     H 8284   5.131   2.613  10.256 -0.0314 -0.8671 -1.3164
  785MOL0     H 8285   5.031   2.584  10.399  2.1917 -1.2284  0.4470
  785MOL0     H 8286   5.171   2.393  10.334  0.1117 -0.9136  0.6853
  785MOL0     H 8287   4.999   2.354  10.349 -2.7376  0.0012 -3.3959
  785MOL0     H 8288   5.046   2.351   9.909 -0.9774  0.3169  3.0865
  785MOL0     H 8289   5.245   2.284   9.634 -4.4577 -1.0353 -1.5581
  785MOL0     H 8290   5.228   2.466   9.661 -2.3778  1.4771  1.1586
  785MOL0     H 8291   5.099   2.370   9.671 -0.1404 -0.8363 -3.1822
  785MOL0     H 8292   5.494   2.270   9.392  1.0683  0.4963 -1.9465
  785MOL0     H 8293   5.671   2.309   9.250 -1.4708  0.9545 -0.2258
  785MOL0     H 8294   6.025   2.553   9.382  1.4399 -1.1476  0.6595
  785MOL0     H 8295   6.046   2.370   9.382 -1.0012 -0.5664  0.3936
  785MOL0     H 8296   6.071   2.406   9.131 -1.8964  0.9472  0.4873
  785MOL0     H 8297   6.049   2.577   9.151 -2.5201 -1.0271  1.5213
  785MOL0     H 8298   6.285   2.517   9.112 -0.3313  2.4504  0.3471
  785MOL0     H 8299   6.266   2.387   9.244 -3.7197 -1.6826 -1.1740
  785MOL0     H 8300   6.384   2.573   9.343  0.4953 -1.5776 -1.5140
  785MOL0     H 8301   6.222   2.583   9.397 -3.2032 -1.3192 -2.8660
  785MOL0     H 8302   6.315   2.758   9.158 -4.1894 -1.0076 -2.1110
  785MOL0     H 8303   6.166   2.773   9.241 -0.9521 -0.4312  3.5411
  785MOL0     H 8304   6.444   2.828   9.367  0.7355 -0.1151 -0.9659
  785MOL0     H 8305   6.300   2.807   9.462  2.0123 -1.3665  1.3252
  785MOL0     H 8306   6.207   3.016   9.348  1.5386  3.0818 -1.6149
  785MOL0     H 8307   6.335   3.002   9.238  1.0657  1.0386  0.2742
  785MOL0     H 8308   6.494   3.045   9.457 -0.3838 -2.8073 -3.1859
  785MOL0     H 8309   6.322   3.083   9.531 -1.5211  0.5378 -1.1824
  785MOL0     H 8310   5.876   2.540   9.542  0.1824  0.5745  0.8039
  785MOL0     H 8311   5.670   2.523   9.690 -2.9291 -1.7713  0.1078
  785MOL0     H 8312   5.513   2.360  10.052  0.2261 -0.5844 -0.1402
  785MOL0     H 8313   5.342   2.355  10.210 -0.9450  1.8448 -1.0369
  785MOL0     H 8314   3.805   2.432   9.114 -2.3057  0.5561 -1.4598
  785MOL0     H 8315   3.776   2.590   8.928  1.0648 -3.0508 -0.4836
  785MOL0     H 8316   3.582   3.032   8.840  0.6335 -2.3051  0.6212
  785MOL0     H 8317   3.507   3.146   8.640 -0.7869 -3.3328 -2.2401
  785MOL0     H 8318   3.476   3.093   8.405 -2.9199  1.1688 -0.6019
  785MOL0     H 8319   3.481   3.261   8.397  0.4240  0.1714 -0.3848
  785MOL0     H 8320   3.441   3.155   8.171 -0.8736 -2.9264  0.9591
  785MOL0     H 8321   3.584   3.054   8.185  0.0350 -0.3307  2.4957
  785MOL0     H 8322   3.582   3.354   8.135 -1.2696 -0.4878  0.3115
  785MOL0     H 8323   3.724   3.253   8.166 -0.2111 -0.8626  0.0105
  785MOL0     H 8324   3.521   3.239   7.931  0.9834 -2.3780 -2.5196
  785MOL0     H 8325   3.645   3.120   7.953 -1.6112 -0.2688 -0.8099
  785MOL0     H 8326   3.869   3.401   7.768  0.9332  0.4276  1.0452
  785MOL0     H 8327   3.881   3.051   8.457 -0.3629 -1.7593  0.1227
  785MOL0     H 8328   4.046   2.958   8.772  0.1255 -0.2125 -0.0575
  785MOL0     H 8329   4.014   2.840   8.642 -1.9100  0.5230 -0.4004
  785MOL0     H 8330   4.075   3.004   8.600 -0.5104 -1.3113 -1.0863
  786MOL0     O 8331   0.123   5.310   2.704 -0.2596 -0.0389  0.7007
  786MOL0     C 8332   0.207   5.239   2.651  0.8846 -0.8097  1.2540
  786MOL0     O 8333   0.190   5.105   2.624  0.3596 -0.7481 -0.2156
  786MOL0     C 8334   0.065   5.050   2.648 -0.2219  0.4025 -0.2434
  786MOL0     C 8335  -0.044   5.101   2.570  0.4651  0.2024 -0.0839
  786MOL0     C 8336  -0.169   5.040   2.576  0.0192  0.2237 -0.4053
  786MOL0     C 8337  -0.186   4.937   2.665 -0.9382 -0.6337  1.4394
  786MOL0     O 8338  -0.306   4.883   2.694  0.0157 -0.1407 -0.1283
  786MOL0     C 8339  -0.411   4.977   2.701 -0.5258  0.3379 -0.4403
  786MOL0     C 8340  -0.523   4.917   2.788 -0.4918 -0.7802  0.9165
  786MOL0     C 8341  -0.664   4.966   2.756 -1.1704  1.0220 -1.0070
  786MOL0     C 8342  -0.685   5.103   2.829 -0.8694  0.6223 -0.2374
  786MOL0     C 8343  -0.829   5.155   2.808 -0.7239  0.0443  0.3072
  786MOL0     C 8344  -0.853   5.304   2.808  0.1987 -0.7018 -0.1395
  786MOL0     C 8345  -1.007   5.344   2.787 -0.0699  0.5567  0.1418
  786MOL0     C 8346  -1.099   5.307   2.905  0.7345  0.4657  0.1032
  786MOL0     N 8347  -1.242   5.346   2.879 -0.5711  0.2807  0.7447
  786MOL0     C 8348  -1.326   5.309   2.772  0.0948 -0.2770 -0.5320
  786MOL0     C 8349  -1.445   5.367   2.794 -0.6013  0.6674  0.3357
  786MOL0     C 8350  -1.554   5.346   2.700  0.3444 -0.4774 -0.5200
  786MOL0     C 8351  -1.685   5.392   2.764 -0.0925  0.6726 -0.3118
  786MOL0     C 8352  -1.737   5.280   2.856 -0.1663  0.0496 -0.0602
  786MOL0     C 8353  -1.858   5.337   2.926  1.1557 -0.8829 -0.2240
  786MOL0     O 8354  -1.827   5.444   3.018 -0.2741  0.3063  0.4554
  786MOL0     C 8355  -1.780   5.423   3.145 -0.0775 -1.4672  0.2186
  786MOL0     C 8356  -1.802   5.307   3.214  0.0481 -0.0013 -0.1663
  786MOL0     C 8357  -1.747   5.282   3.340 -0.4388  1.1052 -0.2934
  786MOL0     C 8358  -1.778   5.148   3.404  0.6081 -0.0169  0.3506
  786MOL0     C 8359  -1.672   5.389   3.399 -0.7012 -0.3623 -1.5977
  786MOL0     C 8360  -1.596   5.376   3.525  0.5090 -0.3527 -0.5171
  786MOL0     O 8361  -1.567   5.497   3.588  0.0540 -0.1784 -0.2607
  786MOL0     C 8362  -1.465   5.499   3.684 -0.3657  0.4831 -0.2346
  786MOL0     C 8363  -1.346   5.429   3.661 -0.1423 -0.0236 -0.0860
  786MOL0     C 8364  -1.236   5.431   3.751  0.4736  0.5800  0.2759
  786MOL0     C 8365  -1.249   5.495   3.874  0.4998 -0.3510  0.1449
  786MOL0     O 8366  -1.134   5.508   3.954 -0.5770 -0.8875 -0.1605
  786MOL0     C 8367  -1.149   5.517   4.102 -0.0799  0.4852  0.1090
  786MOL0     C 8368  -1.022   5.548   4.174 -1.0428  0.5063 -0.0287
  786MOL0     C 8369  -0.908   5.471   4.106  0.3210 -0.1390 -0.2069
  786MOL0     C 8370  -0.774   5.486   4.188  0.2252 -0.8262 -0.4093
  786MOL0     C 8371  -0.662   5.386   4.163 -0.0710  0.0323  0.5815
  786MOL0     C 8372  -0.539   5.408   4.249  0.3578 -0.1046  0.6866
  786MOL0     C 8373  -0.431   5.312   4.201 -0.0748 -0.2299 -1.0314
  786MOL0     C 8374  -0.317   5.304   4.302  0.1459  0.1722 -0.5306
  786MOL0    Cl 8375  -0.199   5.189   4.237  0.5052 -0.3911 -0.6711
  786MOL0     C 8376  -1.371   5.559   3.900  0.2730 -0.4461  0.3043
  786MOL0     C 8377  -1.476   5.560   3.804  0.3358 -0.0675 -0.8042
  786MOL0     O 8378  -1.567   5.265   3.561  0.0560 -0.9292 -0.1913
  786MOL0     C 8379  -1.663   5.513   3.326  0.6828  0.3122 -0.3119
  786MOL0     C 8380  -1.706   5.525   3.196 -0.6928  0.2513  0.2321
  786MOL0     N 8381  -1.431   5.444   2.905 -0.0198 -0.3398  0.5501
  786MOL0     N 8382  -1.314   5.435   2.952 -0.1192 -0.6688 -1.0888
  786MOL0     C 8383  -0.077   4.875   2.723 -0.5621 -0.3805 -0.4932
  786MOL0     C 8384   0.055   4.934   2.727 -0.1485  0.7843 -0.5784
  786MOL0     C 8385   0.336   5.305   2.620  0.0089 -0.6566 -0.8673
  786MOL0     C 8386   0.407   5.279   2.500 -0.0655 -0.1231 -0.6458
  786MOL0     C 8387   0.509   5.355   2.447 -0.5483  0.6039 -0.3140
  786MOL0     C 8388   0.562   5.458   2.526 -0.0763  0.7197  0.6994
  786MOL0     O 8389   0.678   5.519   2.482 -0.8819  0.1854  0.0213
  786MOL0     C 8390   0.706   5.647   2.533  0.5384 -0.5142 -0.9607
  786MOL0     C 8391   0.834   5.702   2.460 -0.5035 -0.3216 -0.0286
  786MOL0     C 8392   0.867   5.858   2.478  0.0626  0.2867  0.0709
  786MOL0     C 8393   0.956   5.906   2.363 -0.4526  0.4665  0.4044
  786MOL0     C 8394   1.002   6.039   2.392 -1.6338  1.3866 -0.0766
  786MOL0     C 8395   1.052   6.153   2.407 -0.2544 -0.1739 -0.4056
  786MOL0     C 8396   0.503   5.482   2.654 -0.3117  0.1126  0.2448
  786MOL0     C 8397   0.392   5.408   2.697  0.5150  0.7775  0.2323
  786MOL0     C 8398   0.348   5.427   2.842  0.2446  0.7199  0.2595
  786MOL0     H 8399  -0.038   5.200   2.527 -0.3728  1.1273  1.7906
  786MOL0     H 8400  -0.252   5.080   2.518  0.5241  4.7528  1.6420
  786MOL0     H 8401  -0.448   5.004   2.602 -1.4702 -2.9434 -1.0971
  786MOL0     H 8402  -0.373   5.071   2.744  0.3479  1.8087 -4.0322
  786MOL0     H 8403  -0.512   4.810   2.771 -0.8354 -0.9401  1.6745
  786MOL0     H 8404  -0.493   4.928   2.893  1.2469 -1.1567  0.4880
  786MOL0     H 8405  -0.665   4.983   2.648 -3.5482 -1.1249 -1.3937
  786MOL0     H 8406  -0.734   4.888   2.784 -0.6612  1.0177  0.3679
  786MOL0     H 8407  -0.653   5.113   2.934 -2.0665  0.8646  0.1204
  786MOL0     H 8408  -0.619   5.176   2.781  3.0816 -2.6622 -0.3239
  786MOL0     H 8409  -0.890   5.104   2.883  1.2706 -0.7440  1.4840
  786MOL0     H 8410  -0.858   5.119   2.709 -0.3179  0.2018  0.1283
  786MOL0     H 8411  -0.811   5.351   2.897 -1.5229  0.9668 -0.1231
  786MOL0     H 8412  -0.797   5.343   2.723 -0.0062  2.7371  1.1513
  786MOL0     H 8413  -1.049   5.304   2.695 -1.3002 -1.4989  1.5206
  786MOL0     H 8414  -1.010   5.453   2.788 -1.5286  0.5362  1.4579
  786MOL0     H 8415  -1.074   5.200   2.911  1.2238  0.4841 -1.2567
  786MOL0     H 8416  -1.064   5.363   2.992  2.6113  3.5441 -2.4341
  786MOL0     H 8417  -1.299   5.240   2.693  0.8660 -0.8054  0.1828
  786MOL0     H 8418  -1.571   5.243   2.666  1.8530 -1.9535  2.8115
  786MOL0     H 8419  -1.534   5.415   2.617  2.6641  1.0502  1.1980
  786MOL0     H 8420  -1.680   5.480   2.830  1.8140 -0.8430  1.7321
  786MOL0     H 8421  -1.758   5.405   2.684  1.6447 -1.5738 -2.4078
  786MOL0     H 8422  -1.762   5.187   2.804 -0.9831  1.7428 -2.9205
  786MOL0     H 8423  -1.675   5.243   2.939 -0.9719  0.6851  0.8429
  786MOL0     H 8424  -1.919   5.380   2.846 -0.2318  0.0055  1.2438
  786MOL0     H 8425  -1.922   5.258   2.968 -1.0045  0.9917  0.2136
  786MOL0     H 8426  -1.867   5.234   3.167  1.1423 -2.6095  2.0800
  786MOL0     H 8427  -1.886   5.135   3.420 -0.0139 -0.2895 -3.1634
  786MOL0     H 8428  -1.733   5.126   3.500  1.0228  1.3124  0.4830
  786MOL0     H 8429  -1.740   5.080   3.327 -1.2385 -1.7272  0.8671
  786MOL0     H 8430  -1.332   5.353   3.585 -3.2939 -2.3558  1.4007
  786MOL0     H 8431  -1.146   5.376   3.726 -0.2938 -0.4398 -0.3129
  786MOL0     H 8432  -1.212   5.602   4.130  0.9876  1.0808  0.7748
  786MOL0     H 8433  -1.196   5.422   4.129 -1.6189  0.9701 -0.6949
  786MOL0     H 8434  -1.008   5.657   4.166  3.0474  0.0268 -4.2995
  786MOL0     H 8435  -1.013   5.528   4.281  1.5006  3.1070  0.3822
  786MOL0     H 8436  -0.900   5.500   4.001  0.7115 -0.1480 -0.1822
  786MOL0     H 8437  -0.925   5.363   4.096 -0.9100  0.1762 -2.1387
  786MOL0     H 8438  -0.795   5.492   4.295 -0.4813  1.4163 -0.6195
  786MOL0     H 8439  -0.740   5.588   4.168  2.3586 -1.0858  1.3953
  786MOL0     H 8440  -0.699   5.284   4.181  2.4471 -1.2416 -0.9114
  786MOL0     H 8441  -0.635   5.402   4.059 -1.5121  2.1353  0.4806
  786MOL0     H 8442  -0.562   5.382   4.352  2.6535 -2.2905  0.7543
  786MOL0     H 8443  -0.500   5.510   4.255  3.4598 -1.0761 -0.7363
  786MOL0     H 8444  -0.384   5.355   4.112 -1.4456  0.7048 -1.3421
  786MOL0     H 8445  -0.481   5.217   4.178 -0.0752 -0.2377 -0.9980
  786MOL0     H 8446  -0.352   5.284   4.404  0.4182  2.1401 -0.0168
  786MOL0     H 8447  -0.269   5.402   4.309 -1.7931  1.0659  2.0104
  786MOL0     H 8448  -1.405   5.615   3.986 -0.8947 -2.7051  1.3872
  786MOL0     H 8449  -1.568   5.616   3.820 -0.5792 -1.7369  0.1536
  786MOL0     H 8450  -1.618   5.601   3.370  0.5378  0.2790 -0.0964
  786MOL0     H 8451  -1.711   5.615   3.136 -1.9555  0.6304  0.8856
  786MOL0     H 8452  -0.083   4.791   2.791 -1.7279 -0.1121 -0.2435
  786MOL0     H 8453   0.137   4.893   2.784 -0.2342  1.6034  0.1404
  786MOL0     H 8454   0.372   5.193   2.442 -1.1982  0.8424 -1.4435
  786MOL0     H 8455   0.541   5.332   2.346 -1.4167  0.8533 -0.6577
  786MOL0     H 8456   0.625   5.715   2.504  0.6704  0.0233 -0.0920
  786MOL0     H 8457   0.719   5.646   2.641 -1.0768  2.3694 -0.6201
  786MOL0     H 8458   0.823   5.690   2.352 -4.0243 -3.9353  0.4897
  786MOL0     H 8459   0.920   5.639   2.483  2.4335  2.9926 -1.0297
  786MOL0     H 8460   0.771   5.912   2.479  0.8092  1.7025 -0.8532
  786MOL0     H 8461   0.896   5.876   2.581  0.2991  0.1469  0.0276
  786MOL0     H 8462   0.900   5.910   2.269  0.2883 -3.8303 -0.4647
  786MOL0     H 8463   1.038   5.834   2.349 -1.8240 -0.6718 -2.8084
  786MOL0     H 8464   1.109   6.242   2.424 -0.0336  0.2444 -3.0210
  786MOL0     H 8465   0.528   5.549   2.735 -1.1363 -0.3899  0.9315
  786MOL0     H 8466   0.313   5.531   2.847 -0.9218  0.4232 -1.0521
  786MOL0     H 8467   0.274   5.358   2.883  0.9619  0.3554  0.9508
  786MOL0     H 8468   0.436   5.417   2.905  0.9630 -0.8914 -0.9125
  787MOL0     O 8469   0.601   2.411   8.507 -1.2312  0.0497 -0.9017
  787MOL0     C 8470   0.709   2.485   8.489 -0.5727 -0.1998  0.2598
  787MOL0     O 8471   0.766   2.515   8.369  0.0261  0.1877 -0.1161
  787MOL0     C 8472   0.680   2.504   8.261  0.8678  0.4698  1.0303
  787MOL0     C 8473   0.723   2.443   8.144  0.4456 -0.4642 -0.5901
  787MOL0     C 8474   0.629   2.448   8.039 -0.2385  0.2689  1.0074
  787MOL0     C 8475   0.510   2.513   8.042  0.4205 -0.2467  1.2928
  787MOL0     O 8476   0.421   2.518   7.933 -0.7634  0.4108 -0.3870
  787MOL0     C 8477   0.482   2.559   7.805 -0.2350 -0.0397  0.2067
  787MOL0     C 8478   0.380   2.560   7.689  0.6242 -0.3936 -0.5803
  787MOL0     C 8479   0.254   2.642   7.715 -0.4508 -0.2599  0.3787
  787MOL0     C 8480   0.140   2.633   7.611  0.3473 -0.5139  0.1863
  787MOL0     C 8481   0.176   2.700   7.475 -0.2211 -0.4343  0.8171
  787MOL0     C 8482   0.155   2.856   7.477 -0.0641 -0.3622 -0.6877
  787MOL0     C 8483   0.190   2.933   7.349 -0.4173  0.3361 -0.6608
  787MOL0     C 8484   0.340   2.957   7.331  0.3425  0.3692 -0.0453
  787MOL0     N 8485   0.354   2.991   7.188 -0.7383 -0.4150 -1.5570
  787MOL0     C 8486   0.330   2.911   7.082 -0.1491 -0.0635  0.3911
  787MOL0     C 8487   0.363   2.983   6.964 -1.1860 -0.0240 -0.1116
  787MOL0     C 8488   0.363   2.934   6.822 -0.1926 -0.4147 -0.5560
  787MOL0     C 8489   0.233   2.998   6.762 -0.7623 -0.5120 -1.2866
  787MOL0     C 8490   0.156   2.901   6.679  0.0281 -0.6808 -1.6104
  787MOL0     C 8491   0.104   2.788   6.765  0.3781  0.9838 -0.6764
  787MOL0     O 8492  -0.003   2.720   6.701 -0.4390 -0.9104 -0.5012
  787MOL0     C 8493   0.012   2.598   6.644  1.1273  0.0048 -1.2140
  787MOL0     C 8494   0.134   2.559   6.599 -0.5593  0.9169  0.3181
  787MOL0     C 8495   0.149   2.444   6.529  0.0581 -0.7883  0.6887
  787MOL0     C 8496   0.288   2.406   6.488 -0.1253  0.7414  0.9592
  787MOL0     C 8497   0.035   2.350   6.516  0.2878  0.1736 -0.9736
  787MOL0     C 8498   0.032   2.224   6.441 -0.2090 -0.7620 -0.5467
  787MOL0     O 8499   0.112   2.224   6.327 -0.3305  0.3881 -0.1976
  787MOL0     C 8500   0.136   2.120   6.236  0.7921 -1.0227 -1.0686
  787MOL0     C 8501   0.033   2.018   6.217 -0.3039 -1.2049 -0.1571
  787MOL0     C 8502   0.049   1.926   6.115 -1.3749 -0.1189 -0.1928
  787MOL0     C 8503   0.173   1.934   6.037 -0.2929 -0.4028  0.5948
  787MOL0     O 8504   0.194   1.851   5.931 -0.5071  0.3284 -0.2180
  787MOL0     C 8505   0.221   1.716   5.976 -0.1321 -0.3335 -0.2930
  787MOL0     C 8506   0.248   1.627   5.854  0.7663  0.5138  0.2815
  787MOL0     C 8507   0.270   1.478   5.891  0.6353  0.1750  0.1360
  787MOL0     C 8508   0.373   1.442   5.993 -0.1991  1.3616  0.9065
  787MOL0     C 8509   0.427   1.295   5.981  1.0719  0.4365 -0.7156
  787MOL0     C 8510   0.562   1.292   6.059 -0.1208 -0.1141 -1.2439
  787MOL0     C 8511   0.650   1.187   5.985 -0.1794 -0.5281  0.3570
  787MOL0     C 8512   0.787   1.178   6.057 -0.3323  0.1737  0.1317
  787MOL0    Cl 8513   0.875   1.043   5.975 -0.3089 -0.0934  0.2769
  787MOL0     C 8514   0.266   2.040   6.058 -0.0080  0.6631 -0.1468
  787MOL0     C 8515   0.249   2.129   6.161  0.1996 -0.4733  0.0145
  787MOL0     O 8516  -0.039   2.134   6.484 -0.1682  0.3166  0.2485
  787MOL0     C 8517  -0.089   2.399   6.557  0.3404  0.1442  0.4160
  787MOL0     C 8518  -0.098   2.523   6.623 -0.6615  0.5625 -0.5010
  787MOL0     N 8519   0.403   3.102   7.014  0.1260 -0.8454  0.0509
  787MOL0     N 8520   0.409   3.108   7.143 -0.4447 -0.2865  0.7501
  787MOL0     C 8521   0.469   2.577   8.157  0.0118 -0.8391  0.3749
  787MOL0     C 8522   0.558   2.578   8.263 -0.1802  0.4334 -0.5345
  787MOL0     C 8523   0.795   2.507   8.611 -0.3648  0.2520  0.0618
  787MOL0     C 8524   0.738   2.529   8.738  0.2737  1.0639 -0.5361
  787MOL0     C 8525   0.814   2.540   8.851  0.2406  0.9194  0.1656
  787MOL0     C 8526   0.956   2.532   8.850  0.8633 -0.4742  0.0033
  787MOL0     O 8527   1.039   2.553   8.952  0.2747  0.2194 -0.5597
  787MOL0     C 8528   1.111   2.670   8.953  0.4721  0.3816  0.7199
  787MOL0     C 8529   1.031   2.798   8.957  0.1981  1.5589 -0.3303
  787MOL0     C 8530   0.907   2.809   9.046 -0.7704 -0.4525  0.0517
  787MOL0     C 8531   0.876   2.969   9.067  0.1375  0.0990 -0.2670
  787MOL0     C 8532   0.974   3.021   9.158  0.2158  0.4388  0.5067
  787MOL0     C 8533   1.067   3.050   9.229 -0.3941 -0.4387 -0.4818
  787MOL0     C 8534   1.012   2.507   8.722 -0.2435 -0.9142 -0.3798
  787MOL0     C 8535   0.936   2.489   8.607  0.2806  0.2435 -0.2246
  787MOL0     C 8536   1.023   2.444   8.486  0.1399 -0.2705 -0.4314
  787MOL0     H 8537   0.817   2.388   8.140 -0.0920 -1.5956  1.2812
  787MOL0     H 8538   0.648   2.385   7.954  0.9737 -0.0631  1.5063
  787MOL0     H 8539   0.564   2.493   7.775 -1.3100 -2.6556  2.5703
  787MOL0     H 8540   0.512   2.664   7.814 -1.0874  0.3868 -1.4770
  787MOL0     H 8541   0.437   2.588   7.600  0.7253 -0.8646 -0.6665
  787MOL0     H 8542   0.350   2.455   7.682  3.0570 -1.2974  0.9079
  787MOL0     H 8543   0.217   2.615   7.814  2.1614 -0.7061  1.3281
  787MOL0     H 8544   0.288   2.745   7.723  4.6859 -1.6473  0.2036
  787MOL0     H 8545   0.126   2.531   7.576 -0.8344  0.0991 -1.2116
  787MOL0     H 8546   0.058   2.673   7.672  1.0662  0.1607  0.7346
  787MOL0     H 8547   0.115   2.655   7.397  0.6351 -0.7055  0.2914
  787MOL0     H 8548   0.282   2.694   7.451 -0.2580  3.0516 -0.8731
  787MOL0     H 8549   0.052   2.879   7.506  0.9468  4.1204  0.1215
  787MOL0     H 8550   0.217   2.886   7.562 -0.0832 -0.0294 -0.7918
  787MOL0     H 8551   0.151   3.035   7.357  0.3546  0.6204 -0.3927
  787MOL0     H 8552   0.144   2.882   7.264  0.6873 -0.7934 -0.6101
  787MOL0     H 8553   0.373   3.035   7.400 -1.4726  0.5021  0.7126
  787MOL0     H 8554   0.396   2.865   7.352 -0.2467  0.0984  0.3585
  787MOL0     H 8555   0.287   2.812   7.093  2.7202 -1.2506  2.2144
  787MOL0     H 8556   0.360   2.825   6.827 -1.0856 -0.4154 -1.0031
  787MOL0     H 8557   0.446   2.954   6.754 -2.1765  2.1913 -2.4254
  787MOL0     H 8558   0.161   3.042   6.832  1.1541 -2.8634  2.4685
  787MOL0     H 8559   0.267   3.081   6.699  1.1805  0.7989  1.2636
  787MOL0     H 8560   0.072   2.945   6.625  1.6026  0.6613 -3.1000
  787MOL0     H 8561   0.235   2.865   6.612  1.0769 -2.1880  0.3377
  787MOL0     H 8562   0.183   2.720   6.797 -1.1408  0.3442  2.0550
  787MOL0     H 8563   0.064   2.827   6.860 -0.2344  0.4082 -0.6876
  787MOL0     H 8564   0.226   2.614   6.620  1.8308 -1.9228 -1.8042
  787MOL0     H 8565   0.361   2.476   6.529  0.3804  0.3214  0.7793
  787MOL0     H 8566   0.296   2.389   6.380 -1.7511  0.4044  0.8633
  787MOL0     H 8567   0.311   2.311   6.535 -0.4513  0.7826  1.2051
  787MOL0     H 8568  -0.059   2.024   6.274 -1.0312 -5.0461 -0.6799
  787MOL0     H 8569  -0.023   1.849   6.089 -1.0178 -1.4577  2.4479
  787MOL0     H 8570   0.308   1.719   6.043 -2.5450  0.6855  3.1063
  787MOL0     H 8571   0.138   1.689   6.043 -0.8080  4.0628  0.9736
  787MOL0     H 8572   0.161   1.643   5.790  0.7574 -0.8836 -0.0673
  787MOL0     H 8573   0.333   1.667   5.797 -0.0056 -2.1843 -3.0703
  787MOL0     H 8574   0.288   1.419   5.800 -1.3315 -0.8770  0.3840
  787MOL0     H 8575   0.171   1.456   5.931 -0.7382  1.8164 -2.1256
  787MOL0     H 8576   0.326   1.456   6.091 -2.6596 -2.9492  0.6128
  787MOL0     H 8577   0.461   1.505   5.980  1.0696 -0.5427 -0.3509
  787MOL0     H 8578   0.358   1.218   6.017  2.0132 -0.4083 -0.6882
  787MOL0     H 8579   0.459   1.273   5.879 -0.9029  0.1109 -1.3165
  787MOL0     H 8580   0.554   1.280   6.168 -0.3274  0.0868 -1.2353
  787MOL0     H 8581   0.609   1.389   6.047 -2.2451  0.9335 -1.5807
  787MOL0     H 8582   0.679   1.214   5.883 -0.0288 -0.6009  0.3797
  787MOL0     H 8583   0.598   1.091   5.989 -0.9829 -0.1890 -1.1975
  787MOL0     H 8584   0.777   1.162   6.165  0.0051  0.0622  0.1465
  787MOL0     H 8585   0.854   1.264   6.048  1.1217 -0.9007  0.3210
  787MOL0     H 8586   0.358   2.050   6.001  0.0314  1.6004  0.0602
  787MOL0     H 8587   0.324   2.206   6.178 -1.3841  1.7227 -2.1804
  787MOL0     H 8588  -0.176   2.335   6.548 -0.7976  1.6145  0.4699
  787MOL0     H 8589  -0.193   2.568   6.651  0.7905  4.0724 -0.7605
  787MOL0     H 8590   0.378   2.635   8.164 -0.4622 -1.2275 -1.9201
  787MOL0     H 8591   0.527   2.634   8.350 -2.3206 -1.5395  0.0808
  787MOL0     H 8592   0.630   2.524   8.736  0.2436  1.7161 -1.4548
  787MOL0     H 8593   0.754   2.549   8.941 -1.0247  0.1708 -0.5630
  787MOL0     H 8594   1.155   2.677   9.053 -2.5357  0.9261  2.1309
  787MOL0     H 8595   1.181   2.675   8.869  1.1442  3.4614  1.3219
  787MOL0     H 8596   1.017   2.809   8.849  0.2772 -3.4286 -1.0979
  787MOL0     H 8597   1.097   2.879   8.991 -3.4533  3.3467  3.5856
  787MOL0     H 8598   0.816   2.764   9.006 -3.0280  0.1401  3.9880
  787MOL0     H 8599   0.931   2.763   9.143  2.5512  3.4003  1.3477
  787MOL0     H 8600   0.781   2.975   9.121 -0.5526  1.0331 -1.5338
  787MOL0     H 8601   0.867   3.030   8.977  0.0014 -0.5797 -0.7192
  787MOL0     H 8602   1.140   3.099   9.290 -0.9474  1.8184 -1.5222
  787MOL0     H 8603   1.118   2.496   8.705 -0.0999  0.3703 -0.3667
  787MOL0     H 8604   1.100   2.375   8.521 -3.0484 -4.1043 -0.1602
  787MOL0     H 8605   0.967   2.392   8.407  1.0972 -2.4575  0.2487
  787MOL0     H 8606   1.072   2.532   8.444  0.6538  1.0374  2.6418
  788MOL0     O 8607   6.878   2.949   3.077 -0.5061 -0.1560 -0.2215
  788MOL0     C 8608   6.944   3.055   3.076  0.2643  0.1664  0.2117
  788MOL0     O 8609   6.919   3.153   2.980 -0.0808  0.0847 -0.3026
  788MOL0     C 8610   6.834   3.142   2.876  0.0985 -0.4970 -0.0723
  788MOL0     C 8611   6.865   3.058   2.774 -0.3937 -0.0497  0.5440
  788MOL0     C 8612   6.768   3.039   2.673 -0.6760  0.1745  0.3200
  788MOL0     C 8613   6.647   3.109   2.672  0.1867 -0.3992 -0.6557
  788MOL0     O 8614   6.568   3.102   2.566 -0.2066 -0.1187 -1.1507
  788MOL0     C 8615   6.587   3.214   2.482  0.1569 -0.2762  0.4684
  788MOL0     C 8616   6.450   3.282   2.467 -0.6112 -0.0920  0.2915
  788MOL0     C 8617   6.462   3.413   2.390 -0.7371  0.8012  0.1771
  788MOL0     C 8618   6.328   3.467   2.346  0.4419 -1.0138 -1.0137
  788MOL0     C 8619   6.324   3.607   2.280  0.5084  0.7232 -0.7886
  788MOL0     C 8620   6.379   3.604   2.128 -0.7260  0.0717  0.5812
  788MOL0     C 8621   6.340   3.737   2.063  0.2977 -0.0273  0.5358
  788MOL0     C 8622   6.293   3.717   1.919 -1.4025  0.2993 -0.3700
  788MOL0     N 8623   6.224   3.837   1.866  0.1577  0.2343 -0.6202
  788MOL0     C 8624   6.089   3.859   1.855  0.3019  0.5739 -0.8740
  788MOL0     C 8625   6.089   3.992   1.839 -0.4128 -0.1733 -0.6996
  788MOL0     C 8626   5.963   4.076   1.847 -0.5222  0.3191  0.8041
  788MOL0     C 8627   5.959   4.173   1.965 -0.2030 -0.2252  0.4062
  788MOL0     C 8628   5.814   4.214   2.003 -0.2087  0.1982 -0.0427
  788MOL0     C 8629   5.750   4.312   1.897 -0.2523 -0.1322 -1.2139
  788MOL0     O 8630   5.702   4.247   1.785 -0.4731  0.4506  0.2407
  788MOL0     C 8631   5.569   4.272   1.768 -0.4742  0.5950  0.0413
  788MOL0     C 8632   5.465   4.185   1.803  0.2985  0.6542 -0.1236
  788MOL0     C 8633   5.334   4.229   1.808 -0.2662 -0.4465  0.2797
  788MOL0     C 8634   5.231   4.123   1.833  0.5075  0.0141 -0.0965
  788MOL0     C 8635   5.302   4.361   1.775  1.0880  0.1335  0.3884
  788MOL0     C 8636   5.158   4.417   1.757  0.4145 -0.0607  0.1028
  788MOL0     O 8637   5.142   4.540   1.702  0.0367 -0.3936  1.0334
  788MOL0     C 8638   5.005   4.571   1.682 -1.1709 -0.8979  0.2351
  788MOL0     C 8639   4.925   4.615   1.789  0.0227 -0.5497 -0.5398
  788MOL0     C 8640   4.784   4.635   1.774  0.0131  0.0393 -0.6361
  788MOL0     C 8641   4.731   4.626   1.642  0.6322  0.7194 -0.4677
  788MOL0     O 8642   4.601   4.663   1.640 -0.3102  0.0519  0.1726
  788MOL0     C 8643   4.517   4.642   1.524  0.5278  0.0767 -0.0084
  788MOL0     C 8644   4.383   4.680   1.570  0.0640  0.2257  0.4675
  788MOL0     C 8645   4.274   4.678   1.460  0.0014  0.4379 -0.3423
  788MOL0     C 8646   4.147   4.724   1.526 -0.9426  0.2331 -0.1157
  788MOL0     C 8647   4.028   4.686   1.436  0.8547 -0.5473  0.3592
  788MOL0     C 8648   3.899   4.748   1.497 -0.5842  0.0194 -0.5990
  788MOL0     C 8649   3.795   4.773   1.388  0.0061  0.7387 -0.0830
  788MOL0     C 8650   3.666   4.847   1.446 -0.3622  0.4004  0.1291
  788MOL0    Cl 8651   3.566   4.750   1.558 -0.3912  0.1083  0.0470
  788MOL0     C 8652   4.816   4.599   1.534 -0.3853  0.5469 -0.4906
  788MOL0     C 8653   4.948   4.574   1.557 -0.6810  0.0701  0.4919
  788MOL0     O 8654   5.065   4.341   1.794 -0.2729  1.0681 -0.1079
  788MOL0     C 8655   5.406   4.445   1.745  0.9909  0.0963  0.3682
  788MOL0     C 8656   5.536   4.405   1.733 -0.2783 -0.2958 -0.3118
  788MOL0     N 8657   6.217   4.045   1.827 -0.3156  0.3040  0.2165
  788MOL0     N 8658   6.302   3.944   1.833  0.2176 -0.1740 -0.0118
  788MOL0     C 8659   6.624   3.199   2.770  0.1488 -0.9172  0.0344
  788MOL0     C 8660   6.718   3.212   2.874 -0.0773 -0.4572  0.8217
  788MOL0     C 8661   7.048   3.086   3.166 -0.2623 -0.2579 -0.5704
  788MOL0     C 8662   7.164   3.154   3.108 -0.3811 -0.0107  0.3442
  788MOL0     C 8663   7.271   3.207   3.178  0.0306 -0.6028 -0.2939
  788MOL0     C 8664   7.268   3.190   3.315 -0.6929  1.7438 -1.2727
  788MOL0     O 8665   7.367   3.246   3.393 -0.6953  0.5108  0.2858
  788MOL0     C 8666   7.326   3.297   3.515 -0.7551 -0.2875 -0.0364
  788MOL0     C 8667   7.410   3.418   3.566 -0.5903  0.9888 -0.7972
  788MOL0     C 8668   7.416   3.524   3.461 -0.6355 -0.0390 -0.0288
  788MOL0     C 8669   7.536   3.504   3.369  0.1563  0.4524 -0.9247
  788MOL0     C 8670   7.530   3.591   3.256 -0.3071 -0.3805 -0.0063
  788MOL0     C 8671   7.532   3.670   3.161  0.0994  0.3217  0.4863
  788MOL0     C 8672   7.168   3.111   3.378  0.7700 -0.8058  0.5366
  788MOL0     C 8673   7.059   3.057   3.307 -0.8097 -0.0666  0.2026
  788MOL0     C 8674   6.944   2.981   3.394 -0.3934  1.0961 -0.0147
  788MOL0     H 8675   6.958   3.002   2.768  1.1954  2.3677  0.6911
  788MOL0     H 8676   6.783   2.968   2.592  1.3208  0.4686  0.3731
  788MOL0     H 8677   6.611   3.173   2.383 -0.7205  2.7379 -1.1061
  788MOL0     H 8678   6.664   3.282   2.518  1.0790 -1.5515  1.0038
  788MOL0     H 8679   6.381   3.211   2.421  1.0840 -2.4619  1.1774
  788MOL0     H 8680   6.415   3.305   2.568 -1.3185 -0.2417  0.0850
  788MOL0     H 8681   6.517   3.482   2.455 -0.4365  0.6724  0.0622
  788MOL0     H 8682   6.524   3.393   2.302 -0.6596  0.7889  0.2344
  788MOL0     H 8683   6.280   3.391   2.284 -0.4742 -1.6085  0.3658
  788MOL0     H 8684   6.278   3.492   2.440  1.6191 -2.7610  0.1313
  788MOL0     H 8685   6.366   3.690   2.337 -0.6343  2.0772 -1.8141
  788MOL0     H 8686   6.216   3.625   2.268  0.5273  2.1277  0.8759
  788MOL0     H 8687   6.486   3.593   2.111 -0.3990 -1.2866  3.0807
  788MOL0     H 8688   6.328   3.522   2.078 -0.6908  1.7847 -2.5143
  788MOL0     H 8689   6.424   3.807   2.063  0.6780 -0.4742 -0.3829
  788MOL0     H 8690   6.262   3.782   2.125  1.8697 -0.0887  2.6793
  788MOL0     H 8691   6.380   3.691   1.859 -2.8115 -4.6197 -0.7139
  788MOL0     H 8692   6.230   3.628   1.915 -1.3207  0.2315 -0.1595
  788MOL0     H 8693   6.003   3.792   1.857 -0.5434  1.6211  1.6256
  788MOL0     H 8694   5.866   4.027   1.841 -1.9865  3.1758 -0.6189
  788MOL0     H 8695   5.969   4.134   1.755  0.9883  2.2893  2.0645
  788MOL0     H 8696   5.998   4.121   2.052 -0.0629  0.5032  0.7884
  788MOL0     H 8697   6.023   4.261   1.950  0.6162 -0.7356  0.8484
  788MOL0     H 8698   5.761   4.119   2.015  0.9466 -1.1842 -4.1870
  788MOL0     H 8699   5.813   4.269   2.098 -1.5206  1.3654 -0.6920
  788MOL0     H 8700   5.679   4.371   1.955  0.7834  0.0028 -0.0372
  788MOL0     H 8701   5.819   4.390   1.861  0.2061 -0.3344 -0.7944
  788MOL0     H 8702   5.479   4.078   1.817  1.1425  0.6441 -0.9717
  788MOL0     H 8703   5.165   4.138   1.919  2.9550 -1.0232  2.1128
  788MOL0     H 8704   5.290   4.034   1.857  2.1429  0.9066 -0.6528
  788MOL0     H 8705   5.173   4.100   1.743  2.9661 -0.0657 -1.7555
  788MOL0     H 8706   4.963   4.620   1.891  0.6602  0.8218 -0.8064
  788MOL0     H 8707   4.715   4.673   1.849 -0.6906  0.2054 -1.3564
  788MOL0     H 8708   4.549   4.704   1.439  3.7699 -0.9400  0.3424
  788MOL0     H 8709   4.525   4.536   1.496  0.8144 -0.0130  0.4038
  788MOL0     H 8710   4.342   4.618   1.650 -4.9755  1.7447 -0.5697
  788MOL0     H 8711   4.394   4.783   1.607  3.3687  1.0119 -2.1538
  788MOL0     H 8712   4.267   4.573   1.430  3.1386 -0.2077  0.8691
  788MOL0     H 8713   4.286   4.737   1.369  1.0651  1.0439  0.1781
  788MOL0     H 8714   4.156   4.828   1.558  5.2246 -0.3372  1.3510
  788MOL0     H 8715   4.129   4.663   1.616 -3.1156  0.2653 -0.4685
  788MOL0     H 8716   4.052   4.735   1.341 -0.1565 -1.7589 -0.5506
  788MOL0     H 8717   4.012   4.580   1.417 -1.8165  0.2112 -2.5597
  788MOL0     H 8718   3.908   4.844   1.549 -2.5657 -1.3378  2.5670
  788MOL0     H 8719   3.870   4.676   1.574  0.7831  1.4852  1.3878
  788MOL0     H 8720   3.765   4.675   1.351  0.8396  0.1655  0.7216
  788MOL0     H 8721   3.833   4.837   1.308 -1.3757  0.2710 -1.1386
  788MOL0     H 8722   3.601   4.867   1.360 -2.3560 -1.1321  1.1856
  788MOL0     H 8723   3.690   4.950   1.473  2.4108  1.2272 -4.4203
  788MOL0     H 8724   4.772   4.590   1.435  3.2402 -1.1479 -2.1503
  788MOL0     H 8725   5.001   4.541   1.468 -1.7793  1.6021 -0.7722
  788MOL0     H 8726   5.379   4.543   1.707 -2.3717 -1.0385 -0.5451
  788MOL0     H 8727   5.613   4.481   1.723  1.8204 -2.0190  1.4903
  788MOL0     H 8728   6.535   3.259   2.754  0.8979  0.3587  0.4528
  788MOL0     H 8729   6.687   3.282   2.951 -1.8272 -0.8342  0.5108
  788MOL0     H 8730   7.156   3.180   3.002 -1.5336  3.1943  1.0824
  788MOL0     H 8731   7.343   3.277   3.136 -0.8862  0.3326 -0.3569
  788MOL0     H 8732   7.221   3.326   3.529 -0.9866 -1.7275  1.5899
  788MOL0     H 8733   7.325   3.218   3.591  0.4246  2.0577  2.6329
  788MOL0     H 8734   7.510   3.375   3.572 -0.6761  0.8819 -0.0340
  788MOL0     H 8735   7.390   3.451   3.668  3.6324  0.5524  0.3419
  788MOL0     H 8736   7.322   3.537   3.406  0.2215 -1.6234 -1.9965
  788MOL0     H 8737   7.440   3.617   3.512  0.8700  0.4332 -1.5178
  788MOL0     H 8738   7.543   3.399   3.339  1.9693  0.3486 -0.3007
  788MOL0     H 8739   7.621   3.523   3.435 -2.7719  1.9259  2.7305
  788MOL0     H 8740   7.545   3.752   3.093  3.0283  1.7848  2.5592
  788MOL0     H 8741   7.181   3.102   3.486  2.0687  1.5815  0.6564
  788MOL0     H 8742   6.846   2.997   3.348 -1.9286 -2.3895  1.6817
  788MOL0     H 8743   6.963   2.875   3.413 -2.2200  1.2609  3.6072
  788MOL0     H 8744   6.938   3.032   3.491  2.7946  0.0595  0.8692
  789MOL0     O 8745  11.533   1.258   3.114 -0.3403 -0.0160  0.2484
  789MOL0     C 8746  11.493   1.285   3.222  0.0886 -0.1945 -0.3440
  789MOL0     O 8747  11.365   1.329   3.248 -1.0958 -0.0278 -0.5490
  789MOL0     C 8748  11.260   1.327   3.163  0.1804 -0.1042 -1.1344
  789MOL0     C 8749  11.153   1.423   3.198 -0.4538 -0.8329 -0.1736
  789MOL0     C 8750  11.043   1.443   3.109 -0.1697 -0.2812  0.1051
  789MOL0     C 8751  11.036   1.360   2.996 -0.2920  0.7639  0.0156
  789MOL0     O 8752  10.927   1.380   2.916 -0.0732  0.4757 -0.1459
  789MOL0     C 8753  10.966   1.384   2.776 -0.4014  0.5075 -0.7251
  789MOL0     C 8754  10.841   1.443   2.700  1.2841 -0.4879  0.4104
  789MOL0     C 8755  10.733   1.344   2.676  0.0336  0.7093  0.4323
  789MOL0     C 8756  10.632   1.403   2.569  0.6874  0.3730  0.2131
  789MOL0     C 8757  10.520   1.296   2.554  0.2216  0.1279  0.4970
  789MOL0     C 8758  10.423   1.330   2.447  0.0417 -0.5606  1.0709
  789MOL0     C 8759  10.321   1.226   2.435  0.2409  0.7112  0.0868
  789MOL0     C 8760  10.190   1.273   2.384  0.1246  0.3676  0.3563
  789MOL0     N 8761  10.205   1.315   2.246  0.1345 -0.7089 -0.4979
  789MOL0     C 8762  10.172   1.256   2.127  0.1009  0.1151 -0.0967
  789MOL0     C 8763  10.199   1.347   2.030  0.0094  0.8747  0.6180
  789MOL0     C 8764  10.181   1.329   1.884 -1.0687 -0.6370  0.3431
  789MOL0     C 8765  10.041   1.357   1.829 -0.2479  0.3407  0.2839
  789MOL0     C 8766  10.031   1.301   1.688  1.1127  0.1086  0.6729
  789MOL0     C 8767   9.885   1.256   1.663  0.2806  0.9427  0.2823
  789MOL0     O 8768   9.860   1.204   1.526  0.5445  0.3287 -1.4520
  789MOL0     C 8769   9.878   1.274   1.420 -0.7085  0.5284  0.6890
  789MOL0     C 8770   9.886   1.191   1.303  0.2358  0.0445 -0.1503
  789MOL0     C 8771   9.907   1.241   1.173 -0.2868  1.0996 -0.8715
  789MOL0     C 8772   9.886   1.141   1.061 -0.7188 -0.1554  0.2533
  789MOL0     C 8773   9.946   1.379   1.161  0.2750  0.5718 -0.3762
  789MOL0     C 8774   9.964   1.445   1.029 -1.3383 -1.1317  0.3747
  789MOL0     O 8775  10.016   1.573   1.030  0.3852 -0.4401  0.9476
  789MOL0     C 8776  10.036   1.636   0.902 -0.5446 -1.0143 -0.7201
  789MOL0     C 8777   9.973   1.616   0.778 -0.2197  0.0689 -0.1682
  789MOL0     C 8778   9.998   1.702   0.673  0.1207  0.2898  0.7129
  789MOL0     C 8779  10.057   1.825   0.694 -0.4669 -0.1246 -0.8326
  789MOL0     O 8780  10.058   1.912   0.582 -0.5233 -0.0079 -0.3677
  789MOL0     C 8781  10.050   2.051   0.606 -0.2513  0.4115 -0.2147
  789MOL0     C 8782   9.913   2.100   0.546  0.5365  0.5021  0.0597
  789MOL0     C 8783   9.886   2.248   0.567  0.1145  0.2297  1.0110
  789MOL0     C 8784   9.977   2.329   0.483 -0.2081  0.3229 -1.4484
  789MOL0     C 8785   9.934   2.471   0.472  0.0845  0.4174  0.2412
  789MOL0     C 8786  10.039   2.546   0.397 -0.0205  0.6124  0.2851
  789MOL0     C 8787   9.987   2.698   0.396 -1.2539 -0.5655  1.0997
  789MOL0     C 8788  10.082   2.794   0.325 -1.4736 -0.3916 -0.7006
  789MOL0    Cl 8789  10.007   2.941   0.258 -0.2339 -0.3278  0.0018
  789MOL0     C 8790  10.119   1.850   0.819  0.2985  0.1776 -0.4514
  789MOL0     C 8791  10.103   1.757   0.927  0.9713 -0.2947  0.7205
  789MOL0     O 8792   9.931   1.387   0.923  0.3403 -0.2539  1.0457
  789MOL0     C 8793   9.949   1.458   1.276 -0.5816 -0.1253  0.0154
  789MOL0     C 8794   9.923   1.407   1.411  0.1247 -0.0367  0.0268
  789MOL0     N 8795  10.253   1.458   2.088  0.6801  1.2469 -0.4736
  789MOL0     N 8796  10.262   1.442   2.217 -0.2264 -0.2888 -0.3634
  789MOL0     C 8797  11.131   1.251   2.975 -0.1283 -0.1389  0.1637
  789MOL0     C 8798  11.244   1.247   3.051  0.3212  0.6841 -0.6695
  789MOL0     C 8799  11.582   1.269   3.339  0.3206  0.0286 -0.1904
  789MOL0     C 8800  11.530   1.294   3.474  0.6451  0.2759 -0.2704
  789MOL0     C 8801  11.607   1.271   3.584  0.3432 -0.1167  0.3817
  789MOL0     C 8802  11.741   1.233   3.582  0.7082 -1.1602 -0.1248
  789MOL0     O 8803  11.833   1.234   3.689 -0.1004  0.2563 -0.3347
  789MOL0     C 8804  11.779   1.185   3.814  0.4670 -0.0878  0.0308
  789MOL0     C 8805  11.883   1.099   3.890 -0.6086 -0.4022 -0.4129
  789MOL0     C 8806  11.935   0.977   3.809  0.1726 -0.0652  0.5293
  789MOL0     C 8807  11.807   0.884   3.775  0.0436  0.2275 -0.2748
  789MOL0     C 8808  11.870   0.769   3.713 -0.0707  0.0472  0.0337
  789MOL0     C 8809  11.929   0.684   3.658 -0.4841  0.5418 -0.1596
  789MOL0     C 8810  11.790   1.217   3.455  1.0337  0.1864  1.5086
  789MOL0     C 8811  11.722   1.240   3.334 -0.1843  0.0594  0.4519
  789MOL0     C 8812  11.795   1.235   3.197 -0.4653  0.1153 -0.2550
  789MOL0     H 8813  11.146   1.478   3.291  0.4509  1.1091 -1.2021
  789MOL0     H 8814  10.957   1.507   3.126 -1.0091 -1.2300 -0.4987
  789MOL0     H 8815  10.991   1.284   2.738 -2.3357  0.1374 -1.0973
  789MOL0     H 8816  11.050   1.454   2.773 -0.1596  0.1939 -3.0153
  789MOL0     H 8817  10.795   1.521   2.761  2.1541 -1.0081  1.7570
  789MOL0     H 8818  10.879   1.492   2.610 -0.0271  1.8064  1.0383
  789MOL0     H 8819  10.784   1.253   2.644  3.5153  2.8413 -0.5916
  789MOL0     H 8820  10.679   1.329   2.770 -0.1182  0.0363  0.2431
  789MOL0     H 8821  10.588   1.498   2.598 -1.1048 -0.3629  0.0112
  789MOL0     H 8822  10.677   1.404   2.469 -1.4599  1.2016 -0.8029
  789MOL0     H 8823  10.465   1.285   2.648 -3.7463 -0.3923 -1.6863
  789MOL0     H 8824  10.564   1.199   2.530 -1.4275 -0.2822 -0.9699
  789MOL0     H 8825  10.374   1.424   2.471 -1.5597 -0.1876 -2.8651
  789MOL0     H 8826  10.463   1.333   2.345 -1.4035  0.9591  0.5093
  789MOL0     H 8827  10.311   1.168   2.527  3.7801  0.9631  0.7961
  789MOL0     H 8828  10.355   1.154   2.360  1.2103  3.0156 -1.8066
  789MOL0     H 8829  10.109   1.200   2.397 -3.3975  3.9156  0.2262
  789MOL0     H 8830  10.153   1.345   2.457 -4.1409 -2.1263  1.0229
  789MOL0     H 8831  10.133   1.155   2.120  4.1867 -2.0304  3.4358
  789MOL0     H 8832  10.214   1.227   1.862 -0.9231 -0.3777 -0.6701
  789MOL0     H 8833  10.236   1.411   1.836 -0.3625 -0.7417  0.9491
  789MOL0     H 8834   9.968   1.304   1.892 -0.4923  0.4534  0.1000
  789MOL0     H 8835  10.011   1.461   1.821 -0.3695  0.3827  1.2175
  789MOL0     H 8836  10.067   1.374   1.615  2.8381 -2.1410 -0.8333
  789MOL0     H 8837  10.100   1.220   1.664  1.3854  0.0450  1.6350
  789MOL0     H 8838   9.857   1.170   1.724  1.9124 -0.1952 -0.4975
  789MOL0     H 8839   9.813   1.338   1.673 -1.1287 -0.5190  3.2495
  789MOL0     H 8840   9.869   1.086   1.324  2.4509 -0.3568 -0.1744
  789MOL0     H 8841   9.787   1.156   1.019 -0.6517  0.5778  0.3443
  789MOL0     H 8842   9.890   1.041   1.104 -3.7949 -0.6737 -0.4817
  789MOL0     H 8843   9.962   1.159   0.984 -0.2906  0.8958  0.8938
  789MOL0     H 8844   9.922   1.528   0.741  1.2467 -0.4764 -0.9304
  789MOL0     H 8845   9.960   1.683   0.573  1.1680  3.1023 -0.3061
  789MOL0     H 8846  10.054   2.070   0.714  0.2511  2.5541 -0.5549
  789MOL0     H 8847  10.131   2.108   0.560  0.9945  2.5790  4.1302
  789MOL0     H 8848   9.894   2.078   0.440  1.1132 -1.5965  0.3354
  789MOL0     H 8849   9.845   2.040   0.608  1.3263 -2.3762 -1.6448
  789MOL0     H 8850   9.897   2.266   0.675 -0.4406 -0.7807  1.2454
  789MOL0     H 8851   9.784   2.280   0.543  0.6392  1.9595  0.9174
  789MOL0     H 8852  10.004   2.280   0.389 -0.7415 -3.0149 -0.0007
  789MOL0     H 8853  10.071   2.335   0.539 -0.3295 -3.2310 -0.6618
  789MOL0     H 8854   9.837   2.479   0.423  0.8743  1.0682 -1.3082
  789MOL0     H 8855   9.921   2.514   0.571 -3.3070  2.7445 -1.0278
  789MOL0     H 8856  10.068   2.519   0.295  1.0101 -0.8792  0.9413
  789MOL0     H 8857  10.130   2.545   0.457  0.6609  2.4019 -0.6366
  789MOL0     H 8858   9.973   2.727   0.501  0.1324  1.1726  0.8544
  789MOL0     H 8859   9.887   2.701   0.352 -0.2684  0.4268 -1.2593
  789MOL0     H 8860  10.129   2.745   0.239  2.5792  0.6457  0.6723
  789MOL0     H 8861  10.160   2.821   0.397 -2.0229  2.6130 -1.0721
  789MOL0     H 8862  10.162   1.949   0.832  1.3300 -0.3245  0.0519
  789MOL0     H 8863  10.136   1.787   1.026  0.3276  1.4957  0.4316
  789MOL0     H 8864   9.961   1.566   1.278  1.3202 -0.2557 -1.5231
  789MOL0     H 8865   9.924   1.484   1.487 -1.5439 -0.6487  0.7092
  789MOL0     H 8866  11.112   1.180   2.895  3.4821 -2.1324  0.8681
  789MOL0     H 8867  11.331   1.183   3.038  3.9481  3.9508  4.0265
  789MOL0     H 8868  11.425   1.321   3.481  0.1553 -1.4830 -0.3352
  789MOL0     H 8869  11.551   1.310   3.669  1.8793  2.3896  0.3305
  789MOL0     H 8870  11.749   1.268   3.879  0.0426  1.7644 -2.3458
  789MOL0     H 8871  11.690   1.124   3.797 -0.5347  1.7101 -1.6458
  789MOL0     H 8872  11.857   1.074   3.993  2.6356 -1.0583  0.3316
  789MOL0     H 8873  11.965   1.170   3.907 -1.6891  1.2549 -1.6909
  789MOL0     H 8874  11.978   1.015   3.717 -0.2713  2.5326  1.3315
  789MOL0     H 8875  12.014   0.919   3.859  1.3340 -2.7955 -3.9418
  789MOL0     H 8876  11.737   0.942   3.715 -0.3511  0.9498  0.8551
  789MOL0     H 8877  11.761   0.858   3.871  0.1134  1.1217  0.0125
  789MOL0     H 8878  11.977   0.598   3.617 -1.7750 -0.9606  1.3004
  789MOL0     H 8879  11.893   1.183   3.456  1.2253  0.7093  0.6329
  789MOL0     H 8880  11.757   1.324   3.146 -0.8717 -0.5098 -1.0539
  789MOL0     H 8881  11.903   1.245   3.213 -0.8632  1.6485  1.9539
  789MOL0     H 8882  11.785   1.144   3.137 -0.7759 -2.8237  3.7903
  790MOL0     O 8883   3.142   4.212   2.729 -0.1031  0.8687  0.1586
  790MOL0     C 8884   3.075   4.246   2.633  1.1647  0.3819 -0.9226
  790MOL0     O 8885   3.050   4.170   2.524 -0.3014  0.0071  0.7507
  790MOL0     C 8886   3.106   4.050   2.493  0.2718  0.1592  0.9043
  790MOL0     C 8887   3.225   3.999   2.536 -0.0226 -0.0490 -0.5162
  790MOL0     C 8888   3.267   3.875   2.507 -0.0225 -0.0144  0.7161
  790MOL0     C 8889   3.195   3.787   2.431  0.5913 -0.1738 -0.0856
  790MOL0     O 8890   3.236   3.664   2.402 -0.7312  0.1526 -1.4471
  790MOL0     C 8891   3.131   3.565   2.367 -0.5745 -0.1469 -0.2783
  790MOL0     C 8892   3.191   3.427   2.350 -0.0672  0.7589 -1.0139
  790MOL0     C 8893   3.307   3.434   2.248 -0.0653  0.1206 -0.0590
  790MOL0     C 8894   3.349   3.291   2.207 -0.9230  0.0334  0.2228
  790MOL0     C 8895   3.468   3.292   2.124 -0.2596  0.2174 -0.8404
  790MOL0     C 8896   3.536   3.154   2.138 -0.1168  0.7725 -0.1345
  790MOL0     C 8897   3.444   3.042   2.093 -0.2098  0.4257 -0.7904
  790MOL0     C 8898   3.534   2.931   2.036  0.2446 -0.8255  0.2710
  790MOL0     N 8899   3.453   2.813   2.003 -0.0673 -0.3680  0.4043
  790MOL0     C 8900   3.407   2.786   1.880  0.0504  0.0433  0.7548
  790MOL0     C 8901   3.360   2.656   1.884  0.0495 -0.4788  0.0375
  790MOL0     C 8902   3.320   2.577   1.765 -0.0042 -0.1662  0.0023
  790MOL0     C 8903   3.195   2.484   1.776  0.5435  0.7390  0.8286
  790MOL0     C 8904   3.183   2.411   1.635 -0.3493 -0.2317  0.7926
  790MOL0     C 8905   3.066   2.307   1.640  0.2380 -0.0603  0.6768
  790MOL0     O 8906   2.942   2.368   1.667 -0.0648  0.1409 -0.2055
  790MOL0     C 8907   2.874   2.421   1.558 -0.6286  0.2156 -0.9723
  790MOL0     C 8908   2.909   2.407   1.430  0.9287  0.3701 -0.3592
  790MOL0     C 8909   2.829   2.435   1.322 -0.6109 -0.3050  0.3431
  790MOL0     C 8910   2.873   2.392   1.179  0.3322  0.0775 -0.0946
  790MOL0     C 8911   2.703   2.484   1.347  0.2314 -1.1339  0.6592
  790MOL0     C 8912   2.593   2.499   1.256  0.4185  0.2846 -0.0473
  790MOL0     O 8913   2.509   2.604   1.264 -0.1043 -0.6830 -0.6390
  790MOL0     C 8914   2.413   2.657   1.186  0.0756 -0.4821  0.7345
  790MOL0     C 8915   2.351   2.775   1.230  0.2331 -0.6262  0.7666
  790MOL0     C 8916   2.256   2.838   1.145 -0.1567 -0.2371  0.2738
  790MOL0     C 8917   2.224   2.785   1.017 -0.3674 -0.0730 -0.2828
  790MOL0     O 8918   2.136   2.839   0.933 -1.1541 -0.8354  0.5446
  790MOL0     C 8919   2.050   2.946   0.965  0.1083 -0.1925  0.2426
  790MOL0     C 8920   1.938   2.966   0.853  0.1456 -0.0978 -0.2300
  790MOL0     C 8921   1.986   3.004   0.711  0.4749  0.0727 -0.5186
  790MOL0     C 8922   1.891   2.972   0.597  0.4943 -0.4050 -0.2765
  790MOL0     C 8923   1.740   3.019   0.628 -1.2319 -0.7461  0.3257
  790MOL0     C 8924   1.659   3.001   0.496 -0.6340 -1.0274  0.1157
  790MOL0     C 8925   1.632   2.853   0.451  0.1020 -1.1338 -0.8967
  790MOL0     C 8926   1.505   2.793   0.514 -0.7526 -0.5432  0.5025
  790MOL0    Cl 8927   1.510   2.627   0.471  0.1092 -0.3518 -0.3003
  790MOL0     C 8928   2.299   2.677   0.970 -1.7391  0.1307 -0.0369
  790MOL0     C 8929   2.391   2.616   1.062  0.0751  0.3638  0.2750
  790MOL0     O 8930   2.583   2.409   1.171  0.0495  0.3202  0.0691
  790MOL0     C 8931   2.665   2.501   1.483 -0.8776  0.5622  0.0314
  790MOL0     C 8932   2.743   2.465   1.589 -1.4193 -0.3258 -0.8019
  790MOL0     N 8933   3.376   2.610   2.013  0.1961 -0.0678  0.0959
  790MOL0     N 8934   3.437   2.707   2.086  0.3678  0.2221 -0.4457
  790MOL0     C 8935   3.074   3.833   2.371 -0.4331 -0.3552 -0.4771
  790MOL0     C 8936   3.037   3.968   2.401 -0.8714 -0.2935  0.5588
  790MOL0     C 8937   2.987   4.367   2.644 -0.9599  0.1787 -0.5861
  790MOL0     C 8938   2.963   4.409   2.777  0.3910 -0.4437 -0.7452
  790MOL0     C 8939   2.884   4.526   2.806  1.0465 -0.3096  0.7608
  790MOL0     C 8940   2.814   4.583   2.691 -0.2383  0.3772  0.0456
  790MOL0     O 8941   2.727   4.681   2.704  0.3012 -0.1842  0.6763
  790MOL0     C 8942   2.668   4.709   2.830 -0.2804  0.2482  0.3286
  790MOL0     C 8943   2.552   4.808   2.812  1.5148 -0.4862  0.2536
  790MOL0     C 8944   2.597   4.957   2.813  0.3525 -0.1891 -0.2834
  790MOL0     C 8945   2.487   5.031   2.759 -0.6809 -0.4406  0.5072
  790MOL0     C 8946   2.525   5.173   2.783  0.4027  0.3724 -0.7429
  790MOL0     C 8947   2.548   5.363   2.830  0.4264  0.1088 -0.4254
  790MOL0     C 8948   2.856   4.550   2.567  0.0526 -0.1631  0.1346
  790MOL0     C 8949   2.940   4.442   2.539 -1.1422  0.2468  0.2555
  790MOL0     C 8950   2.976   4.422   2.392  0.2046  1.1082  0.8292
  790MOL0     H 8951   3.287   4.071   2.589 -0.0845  0.2451 -0.8358
  790MOL0     H 8952   3.357   3.833   2.551  0.0059 -0.8246 -0.0883
  790MOL0     H 8953   3.091   3.584   2.267  3.0403 -0.5117 -1.9529
  790MOL0     H 8954   3.045   3.573   2.434 -0.8862  5.2852 -0.9572
  790MOL0     H 8955   3.225   3.380   2.443 -2.5044  1.1673  0.1758
  790MOL0     H 8956   3.107   3.364   2.317 -1.1052  0.4729  1.8870
  790MOL0     H 8957   3.282   3.488   2.156 -0.2506 -0.9341 -0.6475
  790MOL0     H 8958   3.387   3.494   2.291  1.7333 -1.4594 -1.0662
  790MOL0     H 8959   3.359   3.227   2.295 -2.9944 -0.9231 -0.1717
  790MOL0     H 8960   3.270   3.252   2.142  0.3388 -1.8608 -0.2514
  790MOL0     H 8961   3.542   3.372   2.138  0.0014  0.7419 -4.2602
  790MOL0     H 8962   3.445   3.316   2.020  1.9984 -0.8621 -1.6573
  790MOL0     H 8963   3.607   3.172   2.056 -0.7150  2.4832 -0.3153
  790MOL0     H 8964   3.594   3.142   2.229  0.3660 -0.6846 -0.6098
  790MOL0     H 8965   3.381   3.073   2.010 -2.1179  1.4876  0.9720
  790MOL0     H 8966   3.375   3.016   2.173 -0.7808  0.7112 -1.1841
  790MOL0     H 8967   3.593   2.970   1.953 -0.4259  0.0451  0.1873
  790MOL0     H 8968   3.605   2.896   2.112  0.9418 -1.4225 -0.6321
  790MOL0     H 8969   3.422   2.833   1.783 -0.3811 -1.9490 -0.3293
  790MOL0     H 8970   3.406   2.512   1.748  0.1112  0.5092 -2.3205
  790MOL0     H 8971   3.307   2.641   1.678  5.0611  0.5213 -0.5289
  790MOL0     H 8972   3.202   2.395   1.841 -1.3059 -1.6613 -2.0071
  790MOL0     H 8973   3.102   2.538   1.792 -1.1371 -1.3306 -1.2614
  790MOL0     H 8974   3.168   2.496   1.568 -0.8456 -0.2395  0.8878
  790MOL0     H 8975   3.280   2.364   1.615 -0.8055 -0.4845 -0.9323
  790MOL0     H 8976   3.063   2.239   1.555 -0.0299 -0.1567  0.7616
  790MOL0     H 8977   3.083   2.244   1.728 -0.1995 -1.4072 -0.1681
  790MOL0     H 8978   3.003   2.360   1.402 -0.8064 -3.9305  0.2199
  790MOL0     H 8979   2.822   2.433   1.091  0.5998 -0.7955 -0.6748
  790MOL0     H 8980   2.845   2.287   1.173  0.0561  0.1476 -0.0178
  790MOL0     H 8981   2.982   2.399   1.170  0.3140 -0.4102 -0.7760
  790MOL0     H 8982   2.366   2.821   1.327 -0.1955 -0.7262  0.8849
  790MOL0     H 8983   2.203   2.929   1.169 -2.6961 -1.7274  0.6886
  790MOL0     H 8984   2.002   2.918   1.060  0.4690 -0.0643  0.4667
  790MOL0     H 8985   2.107   3.039   0.973  1.8550 -1.1411 -0.6656
  790MOL0     H 8986   1.872   2.880   0.842 -0.0469  0.1781 -1.4844
  790MOL0     H 8987   1.863   3.031   0.900 -1.9764 -1.2696 -1.8157
  790MOL0     H 8988   2.068   2.938   0.683 -2.5935 -3.4140 -2.2495
  790MOL0     H 8989   2.017   3.108   0.700  0.4505  0.1912  0.4463
  790MOL0     H 8990   1.901   2.864   0.586  1.1771 -0.1601 -2.5380
  790MOL0     H 8991   1.926   3.005   0.499 -3.6735  0.7334 -1.6019
  790MOL0     H 8992   1.695   2.963   0.710 -0.3843  0.2496  1.5023
  790MOL0     H 8993   1.742   3.122   0.666  2.8290 -0.1643 -0.8760
  790MOL0     H 8994   1.701   3.057   0.413  0.4545  0.3654  1.5515
  790MOL0     H 8995   1.561   3.045   0.517  0.5248  1.6914  0.2135
  790MOL0     H 8996   1.715   2.789   0.483 -1.1536 -3.1948 -1.6008
  790MOL0     H 8997   1.620   2.856   0.343 -2.4101  1.9326 -0.6895
  790MOL0     H 8998   1.419   2.853   0.483  0.1862  1.4341  1.5588
  790MOL0     H 8999   1.525   2.812   0.620 -0.9239 -4.1372  1.2969
  790MOL0     H 9000   2.291   2.636   0.870 -1.9676 -1.2192  0.5058
  790MOL0     H 9001   2.437   2.523   1.030 -1.5858 -0.5891  0.5228
  790MOL0     H 9002   2.573   2.553   1.506 -1.0606  0.6284 -0.8283
  790MOL0     H 9003   2.706   2.490   1.688  1.1687 -0.4272  0.2707
  790MOL0     H 9004   3.010   3.779   2.302 -2.0349 -0.1839  0.8005
  790MOL0     H 9005   2.945   4.010   2.363 -0.1198  1.0139  0.0937
  790MOL0     H 9006   3.014   4.354   2.855  3.1200  2.2573 -0.4021
  790MOL0     H 9007   2.877   4.562   2.908 -2.5282  3.9263 -0.6527
  790MOL0     H 9008   2.620   4.617   2.864 -1.5352  0.6079 -0.3620
  790MOL0     H 9009   2.741   4.752   2.899 -0.2741 -1.9056  1.7457
  790MOL0     H 9010   2.485   4.790   2.896  0.3651  2.7654  0.1452
  790MOL0     H 9011   2.487   4.788   2.726 -1.3102  1.5221  1.7301
  790MOL0     H 9012   2.621   4.971   2.919  0.3023 -1.4139 -0.1006
  790MOL0     H 9013   2.687   4.961   2.750  1.0469 -2.0472  0.5379
  790MOL0     H 9014   2.395   5.002   2.810 -1.3104  0.2186 -0.2342
  790MOL0     H 9015   2.471   5.010   2.653  0.2137  0.2643  0.2097
  790MOL0     H 9016   2.567   5.465   2.859 -0.7204  0.1912  0.0607
  790MOL0     H 9017   2.813   4.606   2.484  4.1785 -2.2427 -3.8744
  790MOL0     H 9018   2.894   4.379   2.334  0.9394  2.1919 -1.1025
  790MOL0     H 9019   2.997   4.523   2.356  5.4249  0.0450  0.1611
  790MOL0     H 9020   3.072   4.371   2.385 -0.4417  0.1073 -2.3012
  791MOL0     O 9021   1.391   9.572   1.788  0.2791 -1.0842  0.1424
  791MOL0     C 9022   1.441   9.513   1.689  0.4717 -0.8184 -0.0578
  791MOL0     O 9023   1.372   9.433   1.607  0.0255  0.0037 -0.1996
  791MOL0     C 9024   1.235   9.441   1.614  1.6789 -0.9759 -0.5821
  791MOL0     C 9025   1.163   9.532   1.530  0.9593 -0.2995 -0.4064
  791MOL0     C 9026   1.026   9.545   1.534  0.4048  0.4098 -0.3277
  791MOL0     C 9027   0.955   9.480   1.640  0.5005  0.1439 -0.3697
  791MOL0     O 9028   0.823   9.489   1.657 -0.2500 -0.5366  0.0854
  791MOL0     C 9029   0.733   9.532   1.549  0.3495  0.5259 -0.3755
  791MOL0     C 9030   0.722   9.423   1.438 -0.2028 -1.2054 -0.1966
  791MOL0     C 9031   0.583   9.383   1.393 -0.4562 -0.2859 -0.1806
  791MOL0     C 9032   0.568   9.249   1.317 -0.1325 -0.1914  0.4590
  791MOL0     C 9033   0.619   9.273   1.174  0.4917  0.5309  0.5784
  791MOL0     C 9034   0.613   9.144   1.085 -0.3221 -0.1060  0.2025
  791MOL0     C 9035   0.521   9.157   0.974  0.3760 -0.4160  0.4676
  791MOL0     C 9036   0.373   9.186   1.011 -0.1475 -0.1082  0.1419
  791MOL0     N 9037   0.303   9.283   0.923  0.6141 -0.3447 -0.5191
  791MOL0     C 9038   0.278   9.273   0.786 -0.4274 -0.2237  0.5062
  791MOL0     C 9039   0.188   9.378   0.765 -0.4010 -0.0203 -0.0054
  791MOL0     C 9040   0.126   9.399   0.627 -0.2432  0.6858  0.6621
  791MOL0     C 9041   0.002   9.495   0.616 -1.2581  0.6490  0.3183
  791MOL0     C 9042  -0.052   9.516   0.475  0.5488 -0.8308 -0.0455
  791MOL0     C 9043  -0.152   9.642   0.455  0.5494  0.4624  0.1976
  791MOL0     O 9044  -0.277   9.619   0.516 -0.4880  0.3633  0.3466
  791MOL0     C 9045  -0.373   9.722   0.517  0.2307 -0.1363  0.1059
  791MOL0     C 9046  -0.499   9.713   0.579 -0.5711 -0.5295  0.0656
  791MOL0     C 9047  -0.573   9.828   0.604  0.2330  0.0276 -0.4030
  791MOL0     C 9048  -0.709   9.808   0.678 -0.5445 -0.8913 -0.7271
  791MOL0     C 9049  -0.525   9.955   0.573 -0.1130 -0.6001  0.9003
  791MOL0     C 9050  -0.588  10.083   0.617 -0.0462  0.4914  0.0012
  791MOL0     O 9051  -0.578  10.191   0.534  0.5714  0.4498 -0.5457
  791MOL0     C 9052  -0.635  10.311   0.577  0.2735  0.0450  0.6487
  791MOL0     C 9053  -0.773  10.341   0.574 -0.0283 -0.2292 -0.4727
  791MOL0     C 9054  -0.817  10.471   0.609 -0.7580  0.9643  0.0086
  791MOL0     C 9055  -0.727  10.570   0.651 -0.3206  0.0728  0.1365
  791MOL0     O 9056  -0.788  10.689   0.685  0.2960  0.0018 -0.2739
  791MOL0     C 9057  -0.694  10.790   0.723  1.0438 -1.0349  0.4470
  791MOL0     C 9058  -0.773  10.905   0.783 -0.0016  0.1225  0.6721
  791MOL0     C 9059  -0.706  11.041   0.756 -0.0031 -0.8182 -0.5194
  791MOL0     C 9060  -0.576  11.055   0.833  0.3541  0.3191 -0.7506
  791MOL0     C 9061  -0.517  11.191   0.818  0.3342  0.0422  0.1733
  791MOL0     C 9062  -0.610  11.297   0.881 -0.7502  0.1107 -0.6047
  791MOL0     C 9063  -0.544  11.434   0.892 -0.1813 -0.4672 -0.1906
  791MOL0     C 9064  -0.489  11.484   0.765 -0.2935  0.4302  0.3766
  791MOL0    Cl 9065  -0.440  11.652   0.792  0.3855  0.3824 -0.1790
  791MOL0     C 9066  -0.594  10.534   0.663 -0.0288  0.5388 -0.5079
  791MOL0     C 9067  -0.549  10.414   0.617 -0.0712  0.5498 -0.4830
  791MOL0     O 9068  -0.633  10.085   0.726 -0.7432  0.7029  0.0217
  791MOL0     C 9069  -0.421   9.958   0.481  0.8663  0.2756  0.8033
  791MOL0     C 9070  -0.346   9.845   0.452  0.0474  0.4538  0.2662
  791MOL0     N 9071   0.161   9.441   0.879  0.0415 -0.2915 -0.2991
  791MOL0     N 9072   0.234   9.388   0.971 -0.2962 -0.0422 -0.4437
  791MOL0     C 9073   1.030   9.396   1.723  0.2231  0.4335  0.4001
  791MOL0     C 9074   1.168   9.371   1.710  0.1421 -0.7684  0.6921
  791MOL0     C 9075   1.580   9.550   1.668 -0.2314 -0.3803 -0.2970
  791MOL0     C 9076   1.661   9.600   1.778 -0.2529 -0.0708 -0.0181
  791MOL0     C 9077   1.790   9.646   1.765 -0.4804 -0.5933 -0.2478
  791MOL0     C 9078   1.855   9.631   1.644 -0.0603 -0.3946  0.4066
  791MOL0     O 9079   1.986   9.682   1.637 -0.1811 -0.6372 -1.0220
  791MOL0     C 9080   2.046   9.682   1.507 -0.3638  0.2333  1.5797
  791MOL0     C 9081   2.201   9.710   1.519 -0.3311  0.6497 -0.1843
  791MOL0     C 9082   2.237   9.849   1.556  0.2943 -0.3308 -0.5099
  791MOL0     C 9083   2.228   9.950   1.442  0.3429 -0.1507 -0.3966
  791MOL0     C 9084   2.265  10.092   1.475  0.1320 -0.1327 -0.5212
  791MOL0     C 9085   2.299  10.207   1.506  0.5849  0.1479  0.2753
  791MOL0     C 9086   1.780   9.594   1.536 -0.4956 -0.4657 -0.6926
  791MOL0     C 9087   1.645   9.557   1.544 -0.7144 -0.3793  0.0601
  791MOL0     C 9088   1.575   9.525   1.414 -0.5261 -1.0261 -0.2653
  791MOL0     H 9089   1.232   9.577   1.458  2.0705 -3.3933 -1.4411
  791MOL0     H 9090   0.986   9.621   1.468 -1.2708  2.5947  2.9186
  791MOL0     H 9091   0.769   9.619   1.493 -1.4444  0.7387 -1.2426
  791MOL0     H 9092   0.635   9.547   1.594  1.6488 -1.7580  3.7665
  791MOL0     H 9093   0.794   9.455   1.361 -0.1497  2.1391  1.0912
  791MOL0     H 9094   0.777   9.334   1.473  0.3947 -2.0462 -2.9710
  791MOL0     H 9095   0.528   9.369   1.486  1.6856  2.0030  1.5671
  791MOL0     H 9096   0.530   9.468   1.348 -0.4901 -0.5837 -0.7163
  791MOL0     H 9097   0.617   9.166   1.368  0.5748  0.8621  1.5560
  791MOL0     H 9098   0.461   9.228   1.306 -0.2994  1.2237 -1.1383
  791MOL0     H 9099   0.717   9.321   1.180 -0.0434  1.9477 -1.1714
  791MOL0     H 9100   0.551   9.350   1.137 -0.0117  0.1013  0.6047
  791MOL0     H 9101   0.709   9.142   1.032  0.5259 -2.5250  1.6678
  791MOL0     H 9102   0.597   9.048   1.135  0.2222  0.0138  0.6271
  791MOL0     H 9103   0.531   9.062   0.919 -0.7762  1.5790 -3.5930
  791MOL0     H 9104   0.553   9.233   0.902  0.3420 -2.0138 -1.3250
  791MOL0     H 9105   0.322   9.090   1.005 -0.2450 -0.1035  0.8010
  791MOL0     H 9106   0.355   9.219   1.114 -1.8196  0.1749 -0.2192
  791MOL0     H 9107   0.337   9.213   0.718 -0.9105 -1.0549  0.7982
  791MOL0     H 9108   0.111   9.300   0.583 -1.0883  2.0931 -2.5527
  791MOL0     H 9109   0.208   9.449   0.573 -0.9360  1.0771 -0.0453
  791MOL0     H 9110  -0.075   9.437   0.667 -0.9231 -3.5030 -3.2649
  791MOL0     H 9111   0.026   9.596   0.650  2.3226  0.2539 -0.5392
  791MOL0     H 9112   0.034   9.533   0.409 -0.4885  0.1348 -1.1926
  791MOL0     H 9113  -0.105   9.431   0.431 -2.4151  0.9648 -0.1726
  791MOL0     H 9114  -0.099   9.727   0.499 -2.5762  2.3932  0.5431
  791MOL0     H 9115  -0.169   9.661   0.348  0.9983  0.6838  0.1605
  791MOL0     H 9116  -0.517   9.612   0.612  5.0851 -1.8854  0.0318
  791MOL0     H 9117  -0.736   9.876   0.760  1.0886 -1.0839  0.0073
  791MOL0     H 9118  -0.724   9.705   0.709  0.1895 -0.7620  0.1260
  791MOL0     H 9119  -0.784   9.843   0.607 -0.2687 -1.7123 -1.4403
  791MOL0     H 9120  -0.857  10.280   0.542 -0.9455  0.6025  0.2735
  791MOL0     H 9121  -0.925  10.486   0.603 -0.8250  0.2674 -0.9609
  791MOL0     H 9122  -0.628  10.753   0.802  3.1088 -3.7391 -2.2981
  791MOL0     H 9123  -0.624  10.822   0.645  3.3451 -4.2673  0.9652
  791MOL0     H 9124  -0.873  10.907   0.738  0.6975  0.6836 -0.9302
  791MOL0     H 9125  -0.784  10.884   0.890  1.9586  3.5504  1.7148
  791MOL0     H 9126  -0.772  11.119   0.794  1.4415 -1.4703  3.9636
  791MOL0     H 9127  -0.692  11.065   0.650 -3.9721  1.0421 -0.7838
  791MOL0     H 9128  -0.505  10.974   0.812  0.3333 -0.3861  1.6050
  791MOL0     H 9129  -0.602  11.057   0.940 -0.9909  5.0673 -0.9522
  791MOL0     H 9130  -0.416  11.198   0.860  1.2026  0.6600 -1.8857
  791MOL0     H 9131  -0.502  11.205   0.710 -1.6848 -1.7801 -0.3980
  791MOL0     H 9132  -0.632  11.265   0.983 -1.2977 -1.6738 -1.2504
  791MOL0     H 9133  -0.705  11.308   0.828 -0.6928 -3.6842 -1.8155
  791MOL0     H 9134  -0.471  11.418   0.973 -0.7256 -1.3271  0.1520
  791MOL0     H 9135  -0.627  11.497   0.923 -0.3192 -0.0169 -1.4318
  791MOL0     H 9136  -0.574  11.478   0.695 -0.0548 -0.4371  0.1499
  791MOL0     H 9137  -0.406  11.423   0.728  0.1580  0.8708  0.6501
  791MOL0     H 9138  -0.518  10.599   0.706 -0.7934 -0.9226  3.5152
  791MOL0     H 9139  -0.446  10.381   0.622 -0.3261 -0.6042 -1.8766
  791MOL0     H 9140  -0.399  10.055   0.438  3.5181  0.8736  3.2636
  791MOL0     H 9141  -0.267   9.858   0.378  1.4930  0.8878  1.8105
  791MOL0     H 9142   0.970   9.340   1.794  1.5790 -0.8563  0.5692
  791MOL0     H 9143   1.206   9.294   1.776  0.0092 -0.5118  1.0707
  791MOL0     H 9144   1.606   9.595   1.871 -1.2033 -1.2810 -0.6207
  791MOL0     H 9145   1.840   9.692   1.850 -0.2611  2.0148 -1.6755
  791MOL0     H 9146   2.039   9.583   1.462  1.2834 -0.0161  1.8128
  791MOL0     H 9147   2.002   9.756   1.440  0.3143 -0.9990 -0.3094
  791MOL0     H 9148   2.258   9.682   1.430  1.8072  1.1525  0.9521
  791MOL0     H 9149   2.236   9.646   1.601 -3.0464 -1.7423 -0.7017
  791MOL0     H 9150   2.166   9.878   1.634 -1.6108  0.6300 -2.5056
  791MOL0     H 9151   2.335   9.850   1.604 -0.7441  1.0646  1.7315
  791MOL0     H 9152   2.126   9.951   1.401  0.5236 -0.4871 -0.8661
  791MOL0     H 9153   2.302   9.930   1.364 -0.3305 -2.6935 -0.4665
  791MOL0     H 9154   2.323  10.306   1.539  0.6627 -0.0531  0.8330
  791MOL0     H 9155   1.823   9.579   1.438 -0.0922 -1.2329 -0.4084
  791MOL0     H 9156   1.605   9.590   1.331 -1.5441 -0.9389 -0.5725
  791MOL0     H 9157   1.613   9.425   1.391  0.7658 -1.1761  2.1911
  791MOL0     H 9158   1.467   9.513   1.409 -0.8614  1.1007  0.8737
  792MOL0     O 9159   0.867   2.544   2.383  0.3126 -0.3315  0.0521
  792MOL0     C 9160   0.842   2.541   2.504 -0.4492  0.4396  0.1258
  792MOL0     O 9161   0.738   2.607   2.561  0.2998 -0.1854  0.0541
  792MOL0     C 9162   0.624   2.643   2.494  0.6104 -0.0230 -0.3736
  792MOL0     C 9163   0.553   2.749   2.543  0.1092  0.6634  0.4415
  792MOL0     C 9164   0.423   2.784   2.501  0.0412 -0.0607 -0.3399
  792MOL0     C 9165   0.372   2.721   2.385  1.2463  0.5653 -0.7289
  792MOL0     O 9166   0.243   2.749   2.337 -0.2503 -0.2581 -0.4748
  792MOL0     C 9167   0.148   2.827   2.413 -0.2642  0.4648  0.8351
  792MOL0     C 9168   0.020   2.835   2.333 -0.5803  0.1537  0.6699
  792MOL0     C 9169  -0.087   2.924   2.383 -0.7643  0.1868 -0.3475
  792MOL0     C 9170  -0.178   2.948   2.257 -0.5704  0.3920 -0.2940
  792MOL0     C 9171  -0.309   3.014   2.284  0.1903 -0.0320 -0.2862
  792MOL0     C 9172  -0.409   3.048   2.176 -0.6636  0.1951  0.1357
  792MOL0     C 9173  -0.515   3.151   2.215  0.1598 -0.3416  0.4951
  792MOL0     C 9174  -0.598   3.116   2.337  0.2884 -0.1072 -0.6029
  792MOL0     N 9175  -0.659   3.244   2.403 -0.0862  0.3359 -0.1242
  792MOL0     C 9176  -0.596   3.308   2.506 -0.0916 -0.4622 -0.9140
  792MOL0     C 9177  -0.684   3.404   2.542 -0.4975 -0.6593 -0.0600
  792MOL0     C 9178  -0.672   3.479   2.664  0.3822 -0.5225 -0.2003
  792MOL0     C 9179  -0.614   3.406   2.794  0.2468 -0.2324  1.0177
  792MOL0     C 9180  -0.466   3.445   2.833  0.9214  0.2863 -0.5570
  792MOL0     C 9181  -0.442   3.382   2.968 -0.4005 -0.0359  0.6781
  792MOL0     O 9182  -0.437   3.232   2.960 -0.1502 -0.4263 -0.0856
  792MOL0     C 9183  -0.334   3.158   2.909  0.3722  0.1618 -0.2444
  792MOL0     C 9184  -0.368   3.026   2.862  0.0188  0.0116  0.8155
  792MOL0     C 9185  -0.261   2.948   2.805 -0.5822  0.5025 -0.2039
  792MOL0     C 9186  -0.299   2.801   2.751 -0.4901 -1.2074 -0.3989
  792MOL0     C 9187  -0.125   2.993   2.807 -0.8258 -0.8217  0.9669
  792MOL0     C 9188  -0.006   2.909   2.776 -0.1271  0.3733 -0.1073
  792MOL0     O 9189  -0.009   2.786   2.841  0.1513  0.1616 -0.0670
  792MOL0     C 9190   0.085   2.691   2.812 -0.0398 -0.3252  1.0801
  792MOL0     C 9191   0.037   2.583   2.729  0.8698 -0.0466  0.3786
  792MOL0     C 9192   0.130   2.482   2.692 -0.4181 -0.9694 -0.5007
  792MOL0     C 9193   0.270   2.484   2.736 -0.2373 -0.7932 -0.4457
  792MOL0     O 9194   0.349   2.381   2.681  0.6763  0.8514 -1.1221
  792MOL0     C 9195   0.487   2.391   2.707 -0.0727  0.8200 -0.2941
  792MOL0     C 9196   0.565   2.269   2.640 -0.3056  0.4253 -0.0863
  792MOL0     C 9197   0.500   2.131   2.666 -0.9911  0.0718  0.6975
  792MOL0     C 9198   0.566   2.018   2.574  0.0040  0.0059 -0.2422
  792MOL0     C 9199   0.712   1.989   2.631 -0.7533 -0.3454 -0.6478
  792MOL0     C 9200   0.764   1.855   2.558  0.3376 -0.1309 -0.2495
  792MOL0     C 9201   0.911   1.817   2.605  0.8662  0.3871  0.0726
  792MOL0     C 9202   0.958   1.688   2.536 -0.3914 -0.2615 -0.9043
  792MOL0    Cl 9203   0.852   1.542   2.575  0.0744 -0.3049 -0.4348
  792MOL0     C 9204   0.310   2.598   2.813 -0.8713 -0.1166  0.7070
  792MOL0     C 9205   0.216   2.696   2.856  0.1006  0.7668  0.5611
  792MOL0     O 9206   0.079   2.946   2.691  0.5819 -0.2796  0.2378
  792MOL0     C 9207  -0.101   3.127   2.848  0.5502 -0.1673 -0.1898
  792MOL0     C 9208  -0.213   3.209   2.889 -0.2944  0.5170 -0.4359
  792MOL0     N 9209  -0.794   3.394   2.466 -0.7698  0.5110 -0.3055
  792MOL0     N 9210  -0.782   3.304   2.381  0.4372 -0.0073  0.6343
  792MOL0     C 9211   0.441   2.597   2.348 -0.2474 -0.1075  0.4449
  792MOL0     C 9212   0.565   2.559   2.402  0.5531  0.0243  0.2067
  792MOL0     C 9213   0.941   2.480   2.586 -0.1996 -0.8003 -0.1270
  792MOL0     C 9214   0.961   2.547   2.709  0.1914  0.5780  0.1841
  792MOL0     C 9215   1.060   2.501   2.799  0.2977 -0.5948 -0.0461
  792MOL0     C 9216   1.124   2.380   2.771  0.3318 -0.7036 -0.5858
  792MOL0     O 9217   1.222   2.317   2.849 -0.1217 -0.7525 -0.7646
  792MOL0     C 9218   1.283   2.400   2.950 -0.4402  0.4793 -0.0882
  792MOL0     C 9219   1.360   2.316   3.056  0.8305 -0.3744  0.2209
  792MOL0     C 9220   1.421   2.409   3.170 -0.2903  0.2809  0.5982
  792MOL0     C 9221   1.502   2.323   3.278 -0.5259 -0.2805  0.0203
  792MOL0     C 9222   1.552   2.406   3.391  0.0500 -0.2362 -0.4176
  792MOL0     C 9223   1.599   2.462   3.488  1.0750 -0.1450 -0.4093
  792MOL0     C 9224   1.099   2.309   2.656 -0.7306 -0.0379  1.0017
  792MOL0     C 9225   1.011   2.360   2.561 -0.5643 -0.8433 -0.2799
  792MOL0     C 9226   1.000   2.284   2.436  0.4350  0.1711  1.2432
  792MOL0     H 9227   0.590   2.799   2.632 -3.8767  0.7487  2.2221
  792MOL0     H 9228   0.370   2.869   2.542 -1.7856 -0.2264 -2.1895
  792MOL0     H 9229   0.191   2.926   2.432 -1.8856  2.1070 -3.0034
  792MOL0     H 9230   0.126   2.779   2.509 -0.7844 -0.6910  0.1643
  792MOL0     H 9231   0.047   2.862   2.230 -0.9550  2.2552  1.0733
  792MOL0     H 9232  -0.016   2.733   2.322  1.4132 -0.6975  1.5225
  792MOL0     H 9233  -0.146   2.869   2.457 -1.9662 -0.7992 -1.9606
  792MOL0     H 9234  -0.035   3.013   2.418  4.2765 -2.0333 -1.2451
  792MOL0     H 9235  -0.120   3.005   2.185  1.0550 -1.9136 -0.9221
  792MOL0     H 9236  -0.209   2.849   2.224 -0.9664 -1.3891  4.5369
  792MOL0     H 9237  -0.284   3.117   2.312 -0.1351 -0.1501  0.4859
  792MOL0     H 9238  -0.354   2.965   2.371  0.0042 -0.7553 -0.7750
  792MOL0     H 9239  -0.346   3.092   2.098  1.3824 -1.1310  0.9254
  792MOL0     H 9240  -0.456   2.957   2.138 -1.7348 -0.2473  2.3415
  792MOL0     H 9241  -0.578   3.183   2.131  1.2524  1.9564  0.4563
  792MOL0     H 9242  -0.465   3.246   2.238  2.1569 -0.7077 -1.8806
  792MOL0     H 9243  -0.677   3.047   2.306  2.0858 -3.7115  2.1062
  792MOL0     H 9244  -0.544   3.058   2.412  1.3121  0.9563 -0.4833
  792MOL0     H 9245  -0.493   3.299   2.539 -0.4208  1.8736  1.0201
  792MOL0     H 9246  -0.770   3.521   2.686  0.1983  0.0775 -2.0729
  792MOL0     H 9247  -0.609   3.566   2.648 -1.3764  1.3278  2.2483
  792MOL0     H 9248  -0.684   3.433   2.874 -2.2705 -2.3753 -0.3074
  792MOL0     H 9249  -0.622   3.297   2.785 -1.4153  0.0512 -3.1624
  792MOL0     H 9250  -0.398   3.408   2.756  1.4877  1.5341 -0.6795
  792MOL0     H 9251  -0.454   3.554   2.835  0.8766  0.3230 -1.6852
  792MOL0     H 9252  -0.353   3.421   3.018 -0.8062  0.0652  1.3382
  792MOL0     H 9253  -0.517   3.409   3.042 -1.6364  1.2615 -0.9808
  792MOL0     H 9254  -0.471   2.997   2.846  1.5358 -4.7525 -2.3979
  792MOL0     H 9255  -0.390   2.799   2.690  0.4266  1.7764 -2.0414
  792MOL0     H 9256  -0.294   2.739   2.841  0.6405  1.0707  1.1729
  792MOL0     H 9257  -0.222   2.776   2.678 -1.0347  1.1584 -1.8722
  792MOL0     H 9258  -0.068   2.560   2.709  0.3725  1.5281  1.0453
  792MOL0     H 9259   0.094   2.404   2.626  1.8130 -1.1154 -1.6315
  792MOL0     H 9260   0.534   2.483   2.673 -0.1950  0.8266 -0.4498
  792MOL0     H 9261   0.512   2.387   2.813  1.1433 -2.4945 -0.5822
  792MOL0     H 9262   0.563   2.287   2.532  1.2219 -1.3023 -0.4483
  792MOL0     H 9263   0.672   2.270   2.660 -0.6096 -1.3971  2.0511
  792MOL0     H 9264   0.394   2.134   2.640 -0.8627 -0.7642  0.0226
  792MOL0     H 9265   0.504   2.108   2.773  0.0732  1.2354  0.9266
  792MOL0     H 9266   0.570   2.050   2.469 -0.3222 -0.8728 -0.5337
  792MOL0     H 9267   0.512   1.923   2.565  0.2070 -0.0886 -0.4676
  792MOL0     H 9268   0.778   2.071   2.602  1.3815 -1.5751  0.4509
  792MOL0     H 9269   0.724   1.990   2.740  0.1783 -0.8308 -0.7344
  792MOL0     H 9270   0.786   1.872   2.453  0.6148  1.1061 -0.0089
  792MOL0     H 9271   0.695   1.770   2.566 -3.0130  2.2560 -1.4617
  792MOL0     H 9272   0.907   1.807   2.714  0.2674 -1.6628 -0.0973
  792MOL0     H 9273   0.983   1.897   2.584  3.2095 -2.1609 -2.5914
  792MOL0     H 9274   1.061   1.664   2.562 -0.5343 -0.2079 -0.2775
  792MOL0     H 9275   0.954   1.697   2.427 -1.4399  1.6256 -0.7660
  792MOL0     H 9276   0.416   2.610   2.837 -0.4922  0.2070 -0.9692
  792MOL0     H 9277   0.229   2.780   2.924 -0.7705 -1.2435  3.4092
  792MOL0     H 9278  -0.001   3.168   2.841  1.0981 -0.8897  2.4989
  792MOL0     H 9279  -0.186   3.310   2.920  0.7319 -0.3811  1.8520
  792MOL0     H 9280   0.398   2.529   2.274 -1.7075 -1.1690  2.1727
  792MOL0     H 9281   0.612   2.465   2.376 -1.8144 -1.1989  0.0599
  792MOL0     H 9282   0.900   2.635   2.730 -0.4779  0.5424 -1.4405
  792MOL0     H 9283   1.079   2.564   2.885  0.0132 -0.9492  0.2826
  792MOL0     H 9284   1.361   2.469   2.917  2.8030 -1.3232  3.1378
  792MOL0     H 9285   1.196   2.439   3.004 -1.8743 -1.4182 -0.9152
  792MOL0     H 9286   1.431   2.253   3.002 -1.6397 -3.5727  0.4265
  792MOL0     H 9287   1.300   2.239   3.105 -0.1614 -1.0746 -2.0021
  792MOL0     H 9288   1.488   2.484   3.125  2.3237 -3.3854 -2.2273
  792MOL0     H 9289   1.337   2.470   3.205 -1.8127 -0.3032 -1.7885
  792MOL0     H 9290   1.583   2.280   3.219 -1.4987 -1.0151 -0.7928
  792MOL0     H 9291   1.428   2.254   3.319 -0.9183 -0.5973 -1.1929
  792MOL0     H 9292   1.624   2.528   3.569 -2.2623  1.8274 -0.8091
  792MOL0     H 9293   1.137   2.208   2.645  1.5293  0.5489  2.6210
  792MOL0     H 9294   1.015   2.178   2.457  2.7806  0.4192  1.0553
  792MOL0     H 9295   0.899   2.283   2.394 -0.1691  2.6799  2.4331
  792MOL0     H 9296   1.076   2.318   2.365  0.5154  0.8645  1.6490
  793MOL0     O 9297   5.966   5.743   7.919 -0.1790 -0.2166 -0.5601
  793MOL0     C 9298   5.979   5.860   7.912  0.5341 -1.9175  0.0143
  793MOL0     O 9299   5.938   5.950   8.002 -0.3405 -0.3851 -0.9443
  793MOL0     C 9300   5.858   5.922   8.110 -0.2471  0.2857  0.4432
  793MOL0     C 9301   5.827   5.793   8.156 -0.2648 -0.4658 -0.5161
  793MOL0     C 9302   5.750   5.774   8.273  0.7391  0.9353  0.0493
  793MOL0     C 9303   5.708   5.878   8.353 -0.4035  1.1312  0.9379
  793MOL0     O 9304   5.648   5.846   8.468  0.3672 -0.7846  0.2050
  793MOL0     C 9305   5.609   5.954   8.555  0.8794  0.2178 -0.7287
  793MOL0     C 9306   5.537   5.877   8.665 -0.2343 -0.1712 -0.1185
  793MOL0     C 9307   5.622   5.803   8.767  0.0998  0.7750 -0.3139
  793MOL0     C 9308   5.547   5.748   8.888 -0.7188 -0.1617  0.8357
  793MOL0     C 9309   5.629   5.668   8.974  0.4255 -0.6151 -0.6063
  793MOL0     C 9310   5.530   5.602   9.082 -0.7936  0.1091 -0.4698
  793MOL0     C 9311   5.597   5.488   9.161  1.2874 -0.2484 -0.6754
  793MOL0     C 9312   5.639   5.367   9.087 -0.0596  0.5205 -1.0728
  793MOL0     N 9313   5.536   5.282   9.017 -0.3438 -0.3355 -0.0642
  793MOL0     C 9314   5.480   5.316   8.889 -0.3876 -0.1446  0.0084
  793MOL0     C 9315   5.385   5.223   8.869  0.1629 -0.5243  0.8329
  793MOL0     C 9316   5.287   5.212   8.750  0.6874  0.1858 -1.2008
  793MOL0     C 9317   5.239   5.072   8.714  0.1422 -0.0876  0.4454
  793MOL0     C 9318   5.351   4.978   8.665 -0.1917 -0.2533 -0.1543
  793MOL0     C 9319   5.301   4.834   8.626  0.9570  0.4709 -0.4452
  793MOL0     O 9320   5.245   4.850   8.494 -0.4138  0.5096 -0.0644
  793MOL0     C 9321   5.214   4.730   8.427  0.2295 -0.9666  0.2739
  793MOL0     C 9322   5.252   4.598   8.453  0.2236  0.3241 -0.5771
  793MOL0     C 9323   5.228   4.490   8.372  0.9804 -0.1092  0.4353
  793MOL0     C 9324   5.265   4.352   8.421 -0.2238 -0.1667 -0.2631
  793MOL0     C 9325   5.168   4.504   8.247  0.3195  0.1121  0.4142
  793MOL0     C 9326   5.144   4.392   8.149 -0.2209  0.1669  0.1987
  793MOL0     O 9327   5.031   4.406   8.059 -0.6990 -0.2619  0.0903
  793MOL0     C 9328   5.004   4.316   7.961 -0.6371 -0.5982 -0.6459
  793MOL0     C 9329   5.022   4.178   7.972 -0.5172  0.6840  0.6992
  793MOL0     C 9330   4.996   4.098   7.858  0.3573  0.7993  0.2593
  793MOL0     C 9331   4.951   4.149   7.740  0.5842  0.4771  1.0436
  793MOL0     O 9332   4.909   4.061   7.644 -0.0279 -0.4024 -0.2764
  793MOL0     C 9333   4.871   4.093   7.507  0.6280  0.0832  0.3830
  793MOL0     C 9334   4.878   3.974   7.429  0.0907  0.9365  0.0123
  793MOL0     C 9335   4.804   3.983   7.296 -0.7546 -0.0832 -0.0660
  793MOL0     C 9336   4.793   3.841   7.241  0.3305  0.0229 -0.0407
  793MOL0     C 9337   4.722   3.849   7.111  0.0509  0.4911  0.8680
  793MOL0     C 9338   4.663   3.713   7.063  0.4117 -0.4342 -1.3801
  793MOL0     C 9339   4.575   3.747   6.941 -0.1315 -0.3502  0.0082
  793MOL0     C 9340   4.451   3.655   6.905 -0.4125 -0.1239 -0.1024
  793MOL0    Cl 9341   4.508   3.488   6.886  0.1712 -0.4067  0.1529
  793MOL0     C 9342   4.928   4.287   7.729  0.8335  0.0239 -0.0888
  793MOL0     C 9343   4.953   4.369   7.840  0.1352 -0.6118  0.4131
  793MOL0     O 9344   5.212   4.290   8.158 -0.1359  0.9452  0.4686
  793MOL0     C 9345   5.137   4.636   8.212 -1.2236  0.1062  0.6373
  793MOL0     C 9346   5.164   4.745   8.302 -0.0711 -0.5326  0.4775
  793MOL0     N 9347   5.386   5.150   8.980  0.3994  0.0829 -0.2018
  793MOL0     N 9348   5.475   5.177   9.067 -0.2532 -0.8969  0.7416
  793MOL0     C 9349   5.751   6.004   8.308  0.9239 -0.5850  0.4206
  793MOL0     C 9350   5.819   6.032   8.188 -0.8333 -0.1334 -0.2410
  793MOL0     C 9351   6.049   5.919   7.791 -0.3442 -0.4961 -0.2155
  793MOL0     C 9352   6.083   6.060   7.799  0.7632  1.4578  0.7345
  793MOL0     C 9353   6.151   6.116   7.691  0.8994 -0.1949  0.2825
  793MOL0     C 9354   6.188   6.039   7.583 -0.1772  0.4404  0.8864
  793MOL0     O 9355   6.240   6.095   7.473  0.3394  0.1356  0.3647
  793MOL0     C 9356   6.364   6.158   7.502 -0.4267  1.2138 -0.6763
  793MOL0     C 9357   6.417   6.192   7.367  0.1061 -0.3458 -0.3753
  793MOL0     C 9358   6.474   6.074   7.284  0.4936  1.3137 -0.3266
  793MOL0     C 9359   6.465   6.107   7.135  0.9155 -0.1237 -0.6662
  793MOL0     C 9360   6.565   6.212   7.089  0.5364  0.6871  0.0237
  793MOL0     C 9361   6.633   6.299   7.039 -0.1912  0.1907 -0.5261
  793MOL0     C 9362   6.158   5.903   7.579 -0.3775  0.1634  0.0418
  793MOL0     C 9363   6.090   5.841   7.680  0.0275  0.9353 -0.5917
  793MOL0     C 9364   6.045   5.697   7.650  0.1778  0.7590  0.2085
  793MOL0     H 9365   5.850   5.696   8.114  0.4451 -1.5485  2.1471
  793MOL0     H 9366   5.714   5.674   8.297  0.0443  0.7331 -1.7028
  793MOL0     H 9367   5.545   6.022   8.499 -1.5934 -0.4229  1.1378
  793MOL0     H 9368   5.699   6.001   8.597  0.7517 -0.5166  0.4115
  793MOL0     H 9369   5.476   5.946   8.723 -3.1772 -0.0296 -3.1115
  793MOL0     H 9370   5.464   5.807   8.623 -0.0161 -0.2180 -0.4322
  793MOL0     H 9371   5.659   5.714   8.716 -3.6185  0.3341 -2.6162
  793MOL0     H 9372   5.702   5.872   8.795 -0.5085  3.5357 -4.4163
  793MOL0     H 9373   5.494   5.831   8.936 -2.4673  0.9082 -2.5522
  793MOL0     H 9374   5.465   5.686   8.850  0.0489 -1.3343  1.0388
  793MOL0     H 9375   5.693   5.736   9.031 -0.5048 -0.1936 -0.0400
  793MOL0     H 9376   5.684   5.598   8.911 -0.0918  0.5679 -2.4486
  793MOL0     H 9377   5.493   5.675   9.154 -0.1034  0.6149 -0.6204
  793MOL0     H 9378   5.436   5.562   9.042  0.5425 -4.3725  0.2923
  793MOL0     H 9379   5.527   5.462   9.241 -1.5421 -0.2771 -3.0039
  793MOL0     H 9380   5.681   5.529   9.218  1.6629  1.6181 -2.4373
  793MOL0     H 9381   5.723   5.393   9.021  0.8634  3.7451  1.1351
  793MOL0     H 9382   5.669   5.304   9.171 -0.2153  2.1354  0.2301
  793MOL0     H 9383   5.524   5.394   8.828  2.4307 -1.2501  0.4556
  793MOL0     H 9384   5.343   5.241   8.661 -1.3128 -1.2477 -3.0386
  793MOL0     H 9385   5.196   5.269   8.773  2.0394  0.7895  3.7982
  793MOL0     H 9386   5.180   5.037   8.799  0.7697  1.0709  1.3949
  793MOL0     H 9387   5.180   5.087   8.623  2.8784  1.2789 -1.2505
  793MOL0     H 9388   5.410   5.016   8.581 -0.0014  0.3342  0.2407
  793MOL0     H 9389   5.421   4.971   8.750 -2.0936  1.9348  1.7183
  793MOL0     H 9390   5.387   4.766   8.625 -0.8075 -1.9228  0.3811
  793MOL0     H 9391   5.234   4.796   8.704  1.0224  2.1988  0.4865
  793MOL0     H 9392   5.298   4.585   8.550  0.8272  1.9585 -0.6177
  793MOL0     H 9393   5.191   4.272   8.411 -1.2366  0.4938  1.6402
  793MOL0     H 9394   5.296   4.350   8.526  1.7575 -1.3328 -0.8038
  793MOL0     H 9395   5.355   4.320   8.367 -0.1186 -0.7684  0.2603
  793MOL0     H 9396   5.048   4.127   8.064 -2.5891  2.4513  2.3963
  793MOL0     H 9397   5.022   3.993   7.851  2.5594  1.3667 -1.3079
  793MOL0     H 9398   4.766   4.121   7.520  0.3122 -1.6745  2.1221
  793MOL0     H 9399   4.930   4.178   7.472  0.2357  1.5530  3.0093
  793MOL0     H 9400   4.986   3.962   7.411  0.0276 -0.6105  0.4610
  793MOL0     H 9401   4.835   3.891   7.487 -1.2492 -2.0418 -4.7115
  793MOL0     H 9402   4.865   4.049   7.233  1.1525 -0.4042  1.3724
  793MOL0     H 9403   4.704   4.028   7.306 -2.1407 -2.4909 -2.0476
  793MOL0     H 9404   4.722   3.796   7.311  1.4499 -0.8163  0.5923
  793MOL0     H 9405   4.882   3.778   7.248  0.3735  0.0495 -0.3666
  793MOL0     H 9406   4.640   3.921   7.126 -0.0401  0.2823  1.3999
  793MOL0     H 9407   4.788   3.877   7.028 -1.7854 -3.3865 -2.2114
  793MOL0     H 9408   4.598   3.660   7.134  1.4820 -1.7288 -1.3272
  793MOL0     H 9409   4.743   3.648   7.028 -0.2007 -1.8524 -0.2341
  793MOL0     H 9410   4.635   3.749   6.850  0.9733  1.3674  0.7206
  793MOL0     H 9411   4.531   3.847   6.950 -1.6637 -0.7753 -2.0576
  793MOL0     H 9412   4.400   3.693   6.816 -1.5264 -1.7499 -0.1933
  793MOL0     H 9413   4.377   3.659   6.986  1.0647 -3.0598  1.5443
  793MOL0     H 9414   4.895   4.340   7.641  0.2522 -2.1047 -1.2198
  793MOL0     H 9415   4.948   4.478   7.841  0.6973 -0.5668  2.1421
  793MOL0     H 9416   5.115   4.666   8.110  2.7853 -0.1566 -0.4609
  793MOL0     H 9417   5.154   4.847   8.265  1.6603 -0.2281  0.7643
  793MOL0     H 9418   5.724   6.088   8.371 -0.1523 -0.0058 -0.7652
  793MOL0     H 9419   5.845   6.134   8.159  0.3104 -0.4463 -0.3538
  793MOL0     H 9420   6.055   6.129   7.878 -0.7147  3.0481 -1.0582
  793MOL0     H 9421   6.156   6.224   7.695 -0.9799 -0.0609  0.0620
  793MOL0     H 9422   6.354   6.246   7.565 -1.1283  1.3301 -0.9454
  793MOL0     H 9423   6.426   6.081   7.549 -0.4663  1.7793  0.3307
  793MOL0     H 9424   6.503   6.260   7.368 -0.3976  0.4647  3.6989
  793MOL0     H 9425   6.334   6.236   7.312 -1.4026 -2.2649  0.2580
  793MOL0     H 9426   6.580   6.052   7.296  0.1920 -0.1809 -0.2069
  793MOL0     H 9427   6.423   5.981   7.313  0.2609  1.4027 -0.4499
  793MOL0     H 9428   6.367   6.135   7.096  1.2388  0.0589 -1.3617
  793MOL0     H 9429   6.496   6.017   7.081 -0.2020 -0.6528 -0.4542
  793MOL0     H 9430   6.684   6.383   6.996 -2.7275  0.4487 -3.3557
  793MOL0     H 9431   6.194   5.838   7.500 -0.8165  0.2855 -0.2656
  793MOL0     H 9432   6.129   5.639   7.688  0.7934  0.9029 -0.8976
  793MOL0     H 9433   5.945   5.670   7.687  0.3398 -0.3294 -0.1015
  793MOL0     H 9434   6.034   5.685   7.542 -1.6726  1.4282  0.2806
  794MOL0     O 9435   4.065  11.519   4.686  0.1148 -0.2467  0.3274
  794MOL0     C 9436   3.981  11.436   4.656 -0.2376  0.8054  0.3995
  794MOL0     O 9437   3.935  11.339   4.734 -0.0458  0.4036 -0.2413
  794MOL0     C 9438   3.974  11.342   4.866  0.4412  0.3110 -0.1981
  794MOL0     C 9439   3.905  11.423   4.957 -0.9564 -1.5307  0.0153
  794MOL0     C 9440   3.933  11.428   5.092 -0.4137  0.4670 -0.0907
  794MOL0     C 9441   4.033  11.342   5.143  1.0774  1.5170 -0.0879
  794MOL0     O 9442   4.053  11.331   5.272  0.8072  0.0452 -0.7839
  794MOL0     C 9443   4.026  11.444   5.362  1.0680 -0.2368 -0.2234
  794MOL0     C 9444   4.121  11.439   5.481 -0.1041  0.1447  0.6024
  794MOL0     C 9445   4.263  11.475   5.439  0.4355 -0.3554  0.1250
  794MOL0     C 9446   4.355  11.462   5.551  0.9977 -1.2958  0.3446
  794MOL0     C 9447   4.485  11.536   5.526  0.1968  0.5606 -0.3122
  794MOL0     C 9448   4.589  11.524   5.638 -0.7541  0.3492  0.6396
  794MOL0     C 9449   4.543  11.628   5.738  0.5053 -0.6428 -0.2809
  794MOL0     C 9450   4.635  11.644   5.865  1.4750  0.8394  1.2222
  794MOL0     N 9451   4.779  11.635   5.835  0.0375 -0.4285 -0.7451
  794MOL0     C 9452   4.858  11.526   5.833  0.2973  0.1227  0.0915
  794MOL0     C 9453   4.979  11.572   5.805 -0.6715  0.6392  1.1416
  794MOL0     C 9454   5.091  11.484   5.757  0.3309  0.0195 -0.7242
  794MOL0     C 9455   5.198  11.554   5.670 -0.4257 -0.3786  0.3797
  794MOL0     C 9456   5.134  11.599   5.539 -0.4290  0.3316 -0.0733
  794MOL0     C 9457   5.240  11.667   5.445 -1.5065 -0.3952  0.7522
  794MOL0     O 9458   5.314  11.770   5.519  0.0693  1.0584  0.0901
  794MOL0     C 9459   5.258  11.882   5.517  0.1372 -0.8890 -0.1624
  794MOL0     C 9460   5.247  11.971   5.407  0.4846  0.1526 -0.2858
  794MOL0     C 9461   5.168  12.083   5.408  0.9898  0.8882  0.0731
  794MOL0     C 9462   5.172  12.164   5.280  0.2597 -0.0971 -0.2489
  794MOL0     C 9463   5.109  12.131   5.532  0.0543 -0.3524  0.5900
  794MOL0     C 9464   5.047  12.256   5.539 -0.1501  0.9745 -0.0460
  794MOL0     O 9465   4.933  12.254   5.613  0.0785  0.6763  0.6414
  794MOL0     C 9466   4.856  12.368   5.600  0.0152 -0.0717 -0.8607
  794MOL0     C 9467   4.789  12.394   5.718  0.3204  0.4059 -0.0054
  794MOL0     C 9468   4.690  12.484   5.715  0.4950 -0.9957  0.3697
  794MOL0     C 9469   4.653  12.554   5.600  0.2314 -0.2334  0.2382
  794MOL0     O 9470   4.551  12.645   5.613  0.0970  0.6343 -0.4293
  794MOL0     C 9471   4.493  12.701   5.494  0.5829  0.2344  0.5532
  794MOL0     C 9472   4.388  12.799   5.554 -0.9933 -0.3257  0.3501
  794MOL0     C 9473   4.288  12.742   5.651 -0.0644  0.2891  0.3716
  794MOL0     C 9474   4.188  12.638   5.584 -0.0369 -0.0301  0.7868
  794MOL0     C 9475   4.109  12.558   5.689  0.4153 -0.4131 -0.1605
  794MOL0     C 9476   4.031  12.441   5.621  0.7083  0.9918 -0.0594
  794MOL0     C 9477   3.940  12.384   5.723 -0.5774 -0.2645  0.4593
  794MOL0     C 9478   3.851  12.289   5.663 -0.1708  0.3674 -0.0239
  794MOL0    Cl 9479   3.763  12.212   5.810 -0.0733 -0.1442  0.3079
  794MOL0     C 9480   4.709  12.511   5.476  0.2084  0.2404  0.0156
  794MOL0     C 9481   4.805  12.413   5.478 -0.3780 -0.1175  0.9395
  794MOL0     O 9482   5.103  12.349   5.485  0.3175 -0.0285 -0.7616
  794MOL0     C 9483   5.114  12.044   5.642 -1.0030  0.1581  0.0421
  794MOL0     C 9484   5.190  11.930   5.632 -0.3879  0.1775  0.1943
  794MOL0     N 9485   4.981  11.710   5.804  0.8591 -0.0282 -0.2448
  794MOL0     N 9486   4.861  11.742   5.834 -0.6072 -0.0911 -0.5937
  794MOL0     C 9487   4.109  11.266   5.050  0.2084  1.3220  0.0565
  794MOL0     C 9488   4.091  11.270   4.912  0.9769 -0.0198 -0.0344
  794MOL0     C 9489   3.884  11.462   4.539  0.1587 -0.7096  0.2307
  794MOL0     C 9490   3.749  11.422   4.549 -1.0787  0.0819 -0.5076
  794MOL0     C 9491   3.659  11.441   4.447  0.4413  0.4650 -0.1332
  794MOL0     C 9492   3.690  11.487   4.320  1.0008 -0.5364  0.1028
  794MOL0     O 9493   3.598  11.480   4.219  0.0915  0.1178  0.6936
  794MOL0     C 9494   3.650  11.425   4.095 -0.0027 -0.5768  0.3442
  794MOL0     C 9495   3.543  11.392   3.993 -1.1373  0.0111  0.2029
  794MOL0     C 9496   3.442  11.285   4.037  0.6117  0.6064  0.0850
  794MOL0     C 9497   3.335  11.258   3.935  0.4179 -0.1259  0.2423
  794MOL0     C 9498   3.259  11.150   3.981  0.6142 -1.1863  0.5561
  794MOL0     C 9499   3.201  11.054   4.018 -1.5172  0.4605  0.3591
  794MOL0     C 9500   3.821  11.539   4.317 -0.4166 -0.3083  0.2550
  794MOL0     C 9501   3.917  11.518   4.416 -0.1797 -0.0100 -0.6368
  794MOL0     C 9502   4.057  11.567   4.388  0.6136 -0.3098  0.4506
  794MOL0     H 9503   3.823  11.483   4.920  0.2852 -0.1318 -0.5924
  794MOL0     H 9504   3.856  11.474   5.154  0.1908 -0.2462  1.2366
  794MOL0     H 9505   3.920  11.437   5.390  1.1038 -0.8582 -0.2393
  794MOL0     H 9506   4.047  11.533   5.301 -0.6544  0.0987 -0.3769
  794MOL0     H 9507   4.092  11.526   5.542  2.0096  0.4725  1.2047
  794MOL0     H 9508   4.116  11.346   5.538 -1.2454  0.1173  0.4844
  794MOL0     H 9509   4.282  11.402   5.361  1.1676 -1.7827  1.5947
  794MOL0     H 9510   4.273  11.576   5.399  2.3329 -1.4818 -2.4768
  794MOL0     H 9511   4.295  11.501   5.634 -2.6225 -1.7055 -1.8684
  794MOL0     H 9512   4.367  11.353   5.559 -0.9472 -1.7674 -2.0393
  794MOL0     H 9513   4.472  11.640   5.497  2.6719  0.9361 -0.2516
  794MOL0     H 9514   4.533  11.498   5.436  0.6130  0.5657 -0.0926
  794MOL0     H 9515   4.593  11.418   5.664 -1.1843 -0.2381 -1.4861
  794MOL0     H 9516   4.692  11.529   5.603 -0.6316 -3.6668 -0.0174
  794MOL0     H 9517   4.444  11.610   5.780 -0.4642 -0.6695 -2.4586
  794MOL0     H 9518   4.531  11.726   5.691 -2.6912 -0.1391  1.3315
  794MOL0     H 9519   4.609  11.741   5.909  1.9584  0.1206  3.2157
  794MOL0     H 9520   4.612  11.571   5.943 -0.0300  1.4364  1.3855
  794MOL0     H 9521   4.829  11.422   5.839  2.6903 -0.5015  3.2114
  794MOL0     H 9522   5.053  11.395   5.706 -1.1397 -0.6981  1.4735
  794MOL0     H 9523   5.149  11.453   5.845  2.4277  3.7569 -0.6034
  794MOL0     H 9524   5.218  11.651   5.716 -2.0491  0.3348 -0.3307
  794MOL0     H 9525   5.286  11.493   5.651  0.5196  1.5428 -2.0214
  794MOL0     H 9526   5.085  11.517   5.485 -2.7298  1.8983 -0.5229
  794MOL0     H 9527   5.054  11.666   5.572  0.1306  0.9817 -0.0165
  794MOL0     H 9528   5.318  11.595   5.418  0.5503  1.3295  1.7980
  794MOL0     H 9529   5.188  11.716   5.362 -0.7742  1.8446  1.5633
  794MOL0     H 9530   5.300  11.926   5.324  0.0808 -2.7675  0.9208
  794MOL0     H 9531   5.102  12.247   5.276  1.4391  0.9409  0.0946
  794MOL0     H 9532   5.149  12.098   5.196  1.0889 -2.4144  1.2370
  794MOL0     H 9533   5.267  12.216   5.264  0.1911  0.3788  0.8057
  794MOL0     H 9534   4.826  12.361   5.814  1.1549 -0.5973 -0.6481
  794MOL0     H 9535   4.634  12.509   5.804 -3.0009 -2.9416 -1.1035
  794MOL0     H 9536   4.568  12.746   5.428 -0.7093  0.7273 -0.6362
  794MOL0     H 9537   4.444  12.638   5.420  1.0470 -0.4027  0.7868
  794MOL0     H 9538   4.444  12.881   5.599 -1.3801  0.5057 -0.6231
  794MOL0     H 9539   4.338  12.854   5.473 -0.9182 -2.0361 -0.9001
  794MOL0     H 9540   4.235  12.827   5.695  0.0767 -0.0814  1.2755
  794MOL0     H 9541   4.335  12.695   5.738  1.2147 -0.2766 -0.5951
  794MOL0     H 9542   4.249  12.566   5.529  3.0613  1.0832  2.4879
  794MOL0     H 9543   4.121  12.686   5.512  1.1986  0.6484  0.0437
  794MOL0     H 9544   4.179  12.501   5.751  1.5035  1.2382  0.1818
  794MOL0     H 9545   4.050  12.626   5.750  2.8630  0.8125  0.9729
  794MOL0     H 9546   4.092  12.363   5.575  0.3602  0.8517 -0.2913
  794MOL0     H 9547   3.983  12.479   5.530  1.3028 -0.7025 -1.1323
  794MOL0     H 9548   3.880  12.467   5.762 -0.9455  0.5721 -1.6914
  794MOL0     H 9549   3.988  12.332   5.806 -1.0376 -1.5501 -0.0507
  794MOL0     H 9550   3.908  12.211   5.611 -0.2408  1.5701 -2.0115
  794MOL0     H 9551   3.786  12.340   5.591  1.4698 -1.6134 -3.1275
  794MOL0     H 9552   4.670  12.538   5.378 -2.0178 -1.2351  0.4106
  794MOL0     H 9553   4.832  12.364   5.386 -0.9563 -1.1932  1.3171
  794MOL0     H 9554   5.071  12.053   5.741  1.8304 -2.1034  1.6644
  794MOL0     H 9555   5.176  11.851   5.705 -0.2684 -1.2011 -1.2404
  794MOL0     H 9556   4.193  11.211   5.092  0.0786  2.0031  1.2455
  794MOL0     H 9557   4.141  11.220   4.829 -0.8617 -0.9688 -0.6300
  794MOL0     H 9558   3.705  11.387   4.641  0.3061 -2.9244 -0.8683
  794MOL0     H 9559   3.562  11.401   4.475  2.1151 -2.2298  2.3745
  794MOL0     H 9560   3.723  11.497   4.056 -0.7670 -0.0774 -0.2133
  794MOL0     H 9561   3.710  11.338   4.121  0.8608 -0.2722 -0.5618
  794MOL0     H 9562   3.610  11.356   3.915  1.0190  0.9141  1.5598
  794MOL0     H 9563   3.496  11.484   3.957 -0.4235 -0.6652 -2.6709
  794MOL0     H 9564   3.481  11.184   4.049 -1.3538 -0.0735  1.1704
  794MOL0     H 9565   3.397  11.323   4.129  2.3723  1.8494  0.4860
  794MOL0     H 9566   3.390  11.228   3.845 -0.0982  0.0986 -0.1536
  794MOL0     H 9567   3.277  11.349   3.915  1.7000  0.0655 -3.3936
  794MOL0     H 9568   3.156  10.963   4.052 -1.2513 -0.3244 -1.3062
  794MOL0     H 9569   3.850  11.608   4.238 -1.5213  0.9093  0.8645
  794MOL0     H 9570   4.075  11.596   4.284 -1.2338  1.9362  0.6670
  794MOL0     H 9571   4.073  11.669   4.426  2.6461  0.5625 -2.3822
  794MOL0     H 9572   4.129  11.493   4.423 -1.1733 -2.0949  0.5151
  795MOL0     O 9573   0.287   3.351  11.338 -1.1454 -0.7948  0.2418
  795MOL0     C 9574   0.282   3.463  11.384  0.0986  0.3373 -0.7724
  795MOL0     O 9575   0.395   3.547  11.395 -0.5286  0.2333  1.3513
  795MOL0     C 9576   0.372   3.661  11.468  0.4643 -0.3666  0.6576
  795MOL0     C 9577   0.381   3.663  11.604 -0.4997 -0.1691  0.5911
  795MOL0     C 9578   0.393   3.781  11.668  1.0324  0.0283  0.6788
  795MOL0     C 9579   0.386   3.906  11.600  0.1607 -0.6914 -0.8732
  795MOL0     O 9580   0.388   4.019  11.681  0.0863 -0.2769  0.2748
  795MOL0     C 9581   0.345   4.150  11.631  0.2887  1.1838  0.3721
  795MOL0     C 9582   0.365   4.259  11.743  0.3865  0.4218  0.1054
  795MOL0     C 9583   0.498   4.330  11.761  0.0194  0.7940 -0.2960
  795MOL0     C 9584   0.488   4.423  11.884  0.0444  0.6266  0.2629
  795MOL0     C 9585   0.585   4.540  11.893 -0.8380  0.3993  0.1101
  795MOL0     C 9586   0.726   4.487  11.854  0.4525 -0.1516 -0.9679
  795MOL0     C 9587   0.841   4.569  11.916  0.2541 -0.5541  0.2127
  795MOL0     C 9588   0.973   4.541  11.848  0.1851  0.2700  0.3917
  795MOL0     N 9589   1.086   4.562  11.937 -0.3327  1.2319 -0.4067
  795MOL0     C 9590   1.139   4.677  11.980 -0.0740  0.7434 -0.7474
  795MOL0     C 9591   1.240   4.641  12.066 -0.0888  0.0614 -0.2196
  795MOL0     C 9592   1.336   4.729  12.148  0.0005 -0.8131 -0.3578
  795MOL0     C 9593   1.314   4.708  12.290 -0.0681  0.1417 -1.0077
  795MOL0     C 9594   1.379   4.807  12.381  0.2036 -0.0215  0.5820
  795MOL0     C 9595   1.525   4.827  12.356 -0.5748 -0.5333 -0.6097
  795MOL0     O 9596   1.580   4.900  12.468 -0.0789  0.4764 -0.7655
  795MOL0     C 9597   1.664   4.815  12.548  0.3176 -0.2336 -0.5301
  795MOL0     C 9598   1.774   4.873  12.615  0.4541 -0.3863  0.2570
  795MOL0     C 9599   1.861   4.798  12.704 -0.1650  0.2071 -0.6250
  795MOL0     C 9600   1.978   4.864  12.774  0.0295 -0.1027 -0.7284
  795MOL0     C 9601   1.829   4.662  12.725  0.4276 -0.1078 -0.1375
  795MOL0     C 9602   1.915   4.577  12.805 -0.3229  0.3985 -0.6984
  795MOL0     O 9603   1.970   4.633  12.922  0.7738 -0.2424 -0.1501
  795MOL0     C 9604   2.047   4.547  13.000 -0.9486  0.3698 -0.3517
  795MOL0     C 9605   2.005   4.509  13.132  0.2728  0.8638  0.8447
  795MOL0     C 9606   2.085   4.438  13.222 -1.0242 -1.1459  0.2808
  795MOL0     C 9607   2.215   4.400  13.182  0.1026 -0.4875  1.0088
  795MOL0     O 9608   2.286   4.335  13.283 -0.2926  0.0611 -0.2717
  795MOL0     C 9609   2.400   4.254  13.249 -0.3307 -0.7577 -0.7892
  795MOL0     C 9610   2.439   4.158  13.358  0.1130 -0.6411 -0.0607
  795MOL0     C 9611   2.354   4.030  13.366 -0.2179 -0.3168  0.7018
  795MOL0     C 9612   2.379   3.947  13.493  0.6879  1.3587  0.1057
  795MOL0     C 9613   2.346   3.797  13.473  0.2083 -0.7563  0.3606
  795MOL0     C 9614   2.215   3.757  13.414  0.9132  0.4993 -0.4198
  795MOL0     C 9615   2.191   3.607  13.394  0.6675  0.0060  1.0034
  795MOL0     C 9616   2.040   3.573  13.380 -1.0885 -0.0714 -0.2551
  795MOL0    Cl 9617   1.965   3.636  13.237 -0.1578  0.4421 -0.1983
  795MOL0     C 9618   2.262   4.448  13.054 -0.1987 -0.8996 -0.2039
  795MOL0     C 9619   2.181   4.520  12.966  0.3797  0.1765 -0.5867
  795MOL0     O 9620   1.934   4.457  12.781 -0.1885  0.5483 -0.2174
  795MOL0     C 9621   1.718   4.603  12.671  0.1259  1.1436  0.0942
  795MOL0     C 9622   1.639   4.682  12.589 -0.2515 -0.5776 -0.6150
  795MOL0     N 9623   1.250   4.499  12.059 -0.3429  0.0768 -0.5362
  795MOL0     N 9624   1.156   4.455  11.980 -0.2958 -0.4951  0.0793
  795MOL0     C 9625   0.373   3.902  11.458 -0.9236  0.2329 -0.3324
  795MOL0     C 9626   0.367   3.782  11.396 -0.0579  0.6110 -0.4802
  795MOL0     C 9627   0.145   3.514  11.413  0.4860  0.9143  0.2167
  795MOL0     C 9628   0.088   3.469  11.531 -0.8086 -0.4202  0.7318
  795MOL0     C 9629  -0.039   3.520  11.572 -0.1518  0.6481  0.4151
  795MOL0     C 9630  -0.112   3.599  11.484 -0.0476 -0.1766 -0.3586
  795MOL0     O 9631  -0.241   3.640  11.507 -0.1360  0.0558 -0.8013
  795MOL0     C 9632  -0.308   3.636  11.639  0.4507  0.3391  1.2047
  795MOL0     C 9633  -0.374   3.502  11.648  0.1621  0.5191  0.4698
  795MOL0     C 9634  -0.498   3.472  11.557 -0.6548 -0.0942  0.0871
  795MOL0     C 9635  -0.531   3.326  11.538 -0.1098  0.3757  0.5369
  795MOL0     C 9636  -0.558   3.264  11.670 -0.0132 -0.2568  0.1058
  795MOL0     C 9637  -0.568   3.237  11.788  0.7587  0.4565  1.4072
  795MOL0     C 9638  -0.053   3.639  11.362 -0.1310  0.3190  0.3910
  795MOL0     C 9639   0.077   3.598  11.318 -0.1775  0.3414 -0.0187
  795MOL0     C 9640   0.136   3.644  11.187 -0.3823 -0.7227 -0.1233
  795MOL0     H 9641   0.374   3.568  11.657 -2.8918  0.1008  0.8688
  795MOL0     H 9642   0.398   3.803  11.775  1.8196  1.3448  0.3996
  795MOL0     H 9643   0.239   4.138  11.607  0.4887 -0.1603  0.0619
  795MOL0     H 9644   0.411   4.176  11.548  1.6092  1.1721  1.3823
  795MOL0     H 9645   0.296   4.343  11.733  0.9690  0.7232 -1.6618
  795MOL0     H 9646   0.335   4.216  11.839 -3.1845  0.8648 -0.6703
  795MOL0     H 9647   0.576   4.257  11.785 -0.6361 -0.6259 -2.2407
  795MOL0     H 9648   0.520   4.395  11.675  2.3228  0.1433 -0.2661
  795MOL0     H 9649   0.387   4.460  11.905 -1.3823 -3.9424  2.7617
  795MOL0     H 9650   0.502   4.360  11.972 -0.8230 -1.5305 -1.0704
  795MOL0     H 9651   0.582   4.571  11.998 -1.7038 -4.2157  1.6603
  795MOL0     H 9652   0.554   4.626  11.834 -1.2493  1.1273  1.3456
  795MOL0     H 9653   0.737   4.383  11.886  0.1935 -0.5740 -2.1916
  795MOL0     H 9654   0.740   4.490  11.745  1.9477 -1.9840 -0.8893
  795MOL0     H 9655   0.850   4.541  12.021 -0.1052  1.5574  0.8564
  795MOL0     H 9656   0.818   4.676  11.907 -0.1969 -0.6703 -0.0650
  795MOL0     H 9657   0.977   4.436  11.815 -0.7114  0.3776 -0.0867
  795MOL0     H 9658   0.982   4.606  11.760 -0.7039 -0.0276  0.0750
  795MOL0     H 9659   1.094   4.775  11.962  0.6608  1.7967  2.5166
  795MOL0     H 9660   1.322   4.835  12.124  0.7769 -0.8407 -0.9865
  795MOL0     H 9661   1.433   4.699  12.108  0.5019 -0.6821  0.7143
  795MOL0     H 9662   1.207   4.711  12.311 -0.5606 -2.5881 -2.6902
  795MOL0     H 9663   1.348   4.605  12.307 -1.8511 -0.4539 -0.8970
  795MOL0     H 9664   1.325   4.902  12.374 -2.3382 -1.4463 -0.4919
  795MOL0     H 9665   1.364   4.770  12.482  2.3277 -1.4423  0.4515
  795MOL0     H 9666   1.580   4.736  12.330  0.1475 -0.9669  2.1996
  795MOL0     H 9667   1.539   4.896  12.271  1.6226 -0.4151 -0.2248
  795MOL0     H 9668   1.794   4.978  12.598  1.4741 -0.7955 -1.1604
  795MOL0     H 9669   2.063   4.798  12.793 -2.0405 -2.3662  1.4578
  795MOL0     H 9670   1.939   4.897  12.871  0.8029  1.3837 -0.8837
  795MOL0     H 9671   2.011   4.954  12.721  1.3334  0.5135  0.9995
  795MOL0     H 9672   1.907   4.540  13.167 -0.7071 -0.5750 -0.4574
  795MOL0     H 9673   2.055   4.425  13.325  3.0230  1.3642  2.0233
  795MOL0     H 9674   2.363   4.188  13.169 -3.5973 -0.9065  0.7099
  795MOL0     H 9675   2.482   4.319  13.216 -0.1750 -0.3264  0.3959
  795MOL0     H 9676   2.547   4.140  13.353  0.6829  2.3061 -0.0719
  795MOL0     H 9677   2.439   4.205  13.457 -2.3142  3.6277 -1.8366
  795MOL0     H 9678   2.386   3.974  13.278 -1.6509 -0.8981  0.5210
  795MOL0     H 9679   2.247   4.046  13.351 -1.1868 -5.3438  0.7368
  795MOL0     H 9680   2.306   3.983  13.566  0.7649  0.5424  0.6039
  795MOL0     H 9681   2.484   3.946  13.524  0.7517 -1.3518  0.0536
  795MOL0     H 9682   2.418   3.755  13.401 -0.4579 -0.0671 -0.7379
  795MOL0     H 9683   2.354   3.737  13.564  0.3079 -1.1874  0.0717
  795MOL0     H 9684   2.192   3.803  13.317  0.2345  2.4191  0.6123
  795MOL0     H 9685   2.144   3.803  13.483  0.9966 -0.1323  0.0962
  795MOL0     H 9686   2.235   3.547  13.475  1.0793  0.8550  1.4132
  795MOL0     H 9687   2.229   3.580  13.295 -2.9948  0.4856 -0.6850
  795MOL0     H 9688   1.989   3.605  13.472  0.2491 -1.0660  0.8685
  795MOL0     H 9689   2.017   3.466  13.374 -1.6877  0.0356  0.0026
  795MOL0     H 9690   2.368   4.430  13.039  0.1636  0.3687  0.7258
  795MOL0     H 9691   2.222   4.557  12.873 -1.2881  3.8757 -0.0369
  795MOL0     H 9692   1.691   4.499  12.689  3.1638 -1.1530 -5.7394
  795MOL0     H 9693   1.549   4.639  12.547 -1.6455  2.4456 -0.9454
  795MOL0     H 9694   0.374   3.998  11.408  2.2299  1.1311  1.1844
  795MOL0     H 9695   0.366   3.777  11.287  1.6797  1.3686 -0.5664
  795MOL0     H 9696   0.150   3.404  11.591  2.1128 -1.5561 -3.1263
  795MOL0     H 9697  -0.080   3.497  11.670  1.0834  0.9423  1.0189
  795MOL0     H 9698  -0.239   3.641  11.724 -1.0215 -0.1599  2.4663
  795MOL0     H 9699  -0.380   3.719  11.639 -0.3265 -0.2365 -1.1701
  795MOL0     H 9700  -0.404   3.496  11.753 -1.0719  2.4611  0.2936
  795MOL0     H 9701  -0.297   3.430  11.620  2.9904  4.2575 -2.5017
  795MOL0     H 9702  -0.579   3.528  11.606  0.8294  1.3510  1.0030
  795MOL0     H 9703  -0.471   3.512  11.459 -1.6961 -3.3894 -1.6617
  795MOL0     H 9704  -0.448   3.272  11.492  0.4001  2.9573 -1.7864
  795MOL0     H 9705  -0.608   3.316  11.460  1.5747 -2.8865 -0.9189
  795MOL0     H 9706  -0.571   3.201  11.889  1.3015 -0.6643  1.0384
  795MOL0     H 9707  -0.122   3.708  11.314 -0.8559  0.3880  1.4777
  795MOL0     H 9708   0.238   3.617  11.161 -0.1234 -2.2218  2.1832
  795MOL0     H 9709   0.089   3.590  11.104  2.3710 -3.1532 -0.2722
  795MOL0     H 9710   0.115   3.750  11.171  2.0391 -0.5042 -2.5923
  796MOL0     O 9711   4.747   9.764   3.264 -0.5047 -0.4934 -0.5858
  796MOL0     C 9712   4.874   9.795   3.262 -0.5283 -0.9365  0.8839
  796MOL0     O 9713   4.930   9.913   3.303  0.0868  0.1511 -0.2177
  796MOL0     C 9714   4.854   9.994   3.378 -1.3277 -0.0887 -0.1169
  796MOL0     C 9715   4.759  10.068   3.313 -0.5719 -0.5212  0.4721
  796MOL0     C 9716   4.685  10.156   3.399 -0.3595  0.8179 -0.4593
  796MOL0     C 9717   4.710  10.192   3.528  0.8125  0.1810 -0.7011
  796MOL0     O 9718   4.647  10.283   3.598  0.0074  0.4331 -0.5248
  796MOL0     C 9719   4.562  10.379   3.532  0.6266  0.7534 -0.9447
  796MOL0     C 9720   4.553  10.505   3.609  0.1234  1.1144  0.6099
  796MOL0     C 9721   4.451  10.504   3.725 -0.2639  0.0280  0.1632
  796MOL0     C 9722   4.522  10.581   3.848  0.5060 -0.2337 -0.2735
  796MOL0     C 9723   4.433  10.599   3.967 -0.3535  0.1778 -0.5708
  796MOL0     C 9724   4.523  10.588   4.093  1.0317  0.1848  0.1940
  796MOL0     C 9725   4.452  10.625   4.222 -0.4191 -0.4259  0.0553
  796MOL0     C 9726   4.568  10.654   4.324  0.0436 -1.0266  0.1125
  796MOL0     N 9727   4.530  10.643   4.467  0.7919 -0.0762  0.4312
  796MOL0     C 9728   4.565  10.530   4.535  0.1788 -0.5175  0.0165
  796MOL0     C 9729   4.557  10.566   4.665  0.1126  0.0730  0.9631
  796MOL0     C 9730   4.597  10.488   4.780 -0.5677  0.7564 -0.2802
  796MOL0     C 9731   4.744  10.516   4.820  0.6345  0.9750 -0.1554
  796MOL0     C 9732   4.788  10.417   4.933 -0.4688  0.0721  0.0302
  796MOL0     C 9733   4.939  10.427   4.957 -0.3910  0.2956  0.0129
  796MOL0     O 9734   5.008  10.372   4.842 -0.0723 -0.8473  0.4109
  796MOL0     C 9735   5.145  10.346   4.867  0.0319 -0.6616 -0.0890
  796MOL0     C 9736   5.227  10.434   4.949  0.8844  0.1016  0.5424
  796MOL0     C 9737   5.356  10.404   4.967  0.0235  0.5217 -0.0730
  796MOL0     C 9738   5.428  10.496   5.058  1.5737  0.0982 -0.4407
  796MOL0     C 9739   5.417  10.288   4.908 -0.5405  0.4159 -1.1936
  796MOL0     C 9740   5.562  10.255   4.909 -0.1509 -0.5194 -0.2090
  796MOL0     O 9741   5.613  10.194   4.793  0.9012 -0.2405 -0.1367
  796MOL0     C 9742   5.748  10.172   4.792 -0.3246 -0.1073 -1.1418
  796MOL0     C 9743   5.838  10.277   4.758  1.8702 -0.5266  0.6583
  796MOL0     C 9744   5.974  10.255   4.775  0.3547 -1.5532 -0.0527
  796MOL0     C 9745   6.018  10.134   4.813  0.0440  0.1821  0.2435
  796MOL0     O 9746   6.150  10.115   4.836  0.3210 -0.2630  0.2868
  796MOL0     C 9747   6.185  10.132   4.974 -0.0205 -0.6858 -0.2912
  796MOL0     C 9748   6.339  10.105   4.995 -0.9188 -0.1702 -1.1270
  796MOL0     C 9749   6.389  10.119   5.138 -0.0445 -0.0930 -0.0763
  796MOL0     C 9750   6.536  10.080   5.156  0.5700  0.6432  0.0066
  796MOL0     C 9751   6.587  10.070   5.300  0.4376  0.8196 -0.1383
  796MOL0     C 9752   6.492   9.999   5.385 -0.3324 -0.6319 -0.0290
  796MOL0     C 9753   6.574   9.958   5.515 -0.3675 -0.0321 -0.8354
  796MOL0     C 9754   6.481   9.875   5.610 -0.1003 -0.2176 -0.0628
  796MOL0    Cl 9755   6.514   9.686   5.568 -0.0568 -0.1364 -0.2546
  796MOL0     C 9756   5.932  10.022   4.816  0.1548  1.0187  0.2319
  796MOL0     C 9757   5.798  10.043   4.806  0.4002  0.0117 -0.8306
  796MOL0     O 9758   5.627  10.292   5.009 -0.5839 -0.1054  0.6371
  796MOL0     C 9759   5.342  10.222   4.815 -0.4713  0.4482 -0.5736
  796MOL0     C 9760   5.211  10.246   4.785 -0.6467  0.0022  0.0257
  796MOL0     N 9761   4.503  10.698   4.677 -0.3583 -0.7634 -0.4069
  796MOL0     N 9762   4.499  10.746   4.555 -0.7213  0.5772  1.3774
  796MOL0     C 9763   4.810  10.110   3.587 -0.1563 -0.5167 -0.8611
  796MOL0     C 9764   4.874  10.005   3.516  0.1321  0.0665  0.6333
  796MOL0     C 9765   4.979   9.711   3.199 -0.3053  0.7537  0.4958
  796MOL0     C 9766   5.086   9.766   3.120  0.0950  0.4041  0.9611
  796MOL0     C 9767   5.175   9.676   3.056  0.2060 -0.4831 -0.2482
  796MOL0     C 9768   5.165   9.537   3.070 -0.0355  0.0294  0.0588
  796MOL0     O 9769   5.252   9.454   3.008  0.3109 -0.3372  0.3784
  796MOL0     C 9770   5.384   9.488   3.058  1.1671 -0.1155  0.2540
  796MOL0     C 9771   5.474   9.370   3.002  1.5366 -1.1090  0.3396
  796MOL0     C 9772   5.633   9.409   3.009 -0.2900  1.0119  0.3575
  796MOL0     C 9773   5.695   9.360   3.146  0.2058  0.0931 -0.7905
  796MOL0     C 9774   5.644   9.442   3.257 -0.5621 -0.2895 -0.5742
  796MOL0     C 9775   5.598   9.515   3.351 -0.8483  0.9188 -0.6354
  796MOL0     C 9776   5.070   9.486   3.157  1.2173 -0.2698 -0.3702
  796MOL0     C 9777   4.978   9.570   3.228 -0.7782  1.0206 -0.3911
  796MOL0     C 9778   4.881   9.500   3.321  0.2225 -1.2581 -0.6181
  796MOL0     H 9779   4.734  10.078   3.208 -0.3142 -0.3286  0.4285
  796MOL0     H 9780   4.601  10.200   3.345  0.5687  0.3579 -2.3604
  796MOL0     H 9781   4.463  10.335   3.512  0.7908  0.1936 -0.5421
  796MOL0     H 9782   4.597  10.392   3.429  1.4101 -4.0521 -1.5123
  796MOL0     H 9783   4.653  10.541   3.634  0.6818 -0.0757  0.1942
  796MOL0     H 9784   4.500  10.577   3.546 -0.0336  0.8967  0.4910
  796MOL0     H 9785   4.361  10.563   3.706  0.5919  0.9299 -1.3037
  796MOL0     H 9786   4.439  10.398   3.750  0.6674 -0.4966 -1.4712
  796MOL0     H 9787   4.600  10.508   3.873  0.0147 -0.7136 -0.1253
  796MOL0     H 9788   4.562  10.677   3.815 -2.0459  0.8947 -0.2993
  796MOL0     H 9789   4.359  10.519   3.969  1.5692 -1.6751  1.3769
  796MOL0     H 9790   4.386  10.697   3.959  0.2171  0.8669  2.8899
  796MOL0     H 9791   4.572  10.490   4.097  0.0706 -0.2697  1.6378
  796MOL0     H 9792   4.601  10.663   4.078  0.1910  1.1216  0.4167
  796MOL0     H 9793   4.387  10.545   4.257 -0.6648  0.5141  1.8830
  796MOL0     H 9794   4.401  10.721   4.209 -0.1465 -0.7076 -5.9592
  796MOL0     H 9795   4.656  10.592   4.306  1.5829 -0.0705  3.5095
  796MOL0     H 9796   4.591  10.760   4.309  2.9637 -0.8280  4.3148
  796MOL0     H 9797   4.608  10.441   4.490  1.3102  1.0170 -2.1140
  796MOL0     H 9798   4.579  10.385   4.749  0.6566  0.0653  1.1643
  796MOL0     H 9799   4.530  10.509   4.864 -2.2376  1.1637 -1.6653
  796MOL0     H 9800   4.814  10.494   4.739  0.2528 -0.7128 -0.0645
  796MOL0     H 9801   4.763  10.619   4.851 -0.2921  1.7150 -1.9405
  796MOL0     H 9802   4.737  10.417   5.030  2.2664  1.1252  1.5716
  796MOL0     H 9803   4.771  10.318   4.889 -1.9043  0.4296 -0.2855
  796MOL0     H 9804   4.969  10.533   4.955  2.7412 -0.4730 -0.4829
  796MOL0     H 9805   4.966  10.367   5.044 -0.7180 -2.3995 -1.6219
  796MOL0     H 9806   5.182  10.521   4.995 -2.2154 -1.2075  0.2167
  796MOL0     H 9807   5.503  10.546   4.997  1.8601  0.5443  0.2621
  796MOL0     H 9808   5.472  10.439   5.141  1.3637 -1.6788 -1.4845
  796MOL0     H 9809   5.358  10.572   5.094  1.4840  1.6548 -3.5523
  796MOL0     H 9810   5.803  10.371   4.717  0.0771 -1.2086  0.5227
  796MOL0     H 9811   6.042  10.334   4.744 -0.5567 -1.0825 -0.9168
  796MOL0     H 9812   6.150  10.227   5.014 -0.8404 -0.7878 -0.7460
  796MOL0     H 9813   6.135  10.052   5.031 -0.9729  0.7576  0.9757
  796MOL0     H 9814   6.370  10.007   4.958 -1.0389 -1.3038  1.5034
  796MOL0     H 9815   6.392  10.175   4.930 -0.1542 -1.0852 -1.5126
  796MOL0     H 9816   6.323  10.058   5.200 -0.1023  1.6452  1.6728
  796MOL0     H 9817   6.376  10.223   5.169 -3.4677 -0.5960  0.6359
  796MOL0     H 9818   6.587  10.160   5.102 -0.3650  1.5889  0.4791
  796MOL0     H 9819   6.553   9.985   5.104  0.5281 -0.6234  2.1686
  796MOL0     H 9820   6.684  10.020   5.307  0.8694  1.8474  4.2820
  796MOL0     H 9821   6.600  10.169   5.345 -1.6204 -0.0977  2.8220
  796MOL0     H 9822   6.442   9.915   5.336  0.6473 -0.8957 -0.6120
  796MOL0     H 9823   6.420  10.076   5.414  0.6724 -0.7455  3.1447
  796MOL0     H 9824   6.598  10.043   5.579 -0.8951 -1.8057  1.8514
  796MOL0     H 9825   6.666   9.901   5.500 -1.7655 -2.1057 -2.1209
  796MOL0     H 9826   6.375   9.890   5.589 -0.2328 -1.0631 -0.0023
  796MOL0     H 9827   6.509   9.880   5.716 -3.0863  0.8087  0.7600
  796MOL0     H 9828   5.965   9.922   4.844 -2.4219 -0.1219 -0.4245
  796MOL0     H 9829   5.731   9.959   4.800 -0.9885  0.9917  0.1878
  796MOL0     H 9830   5.389  10.138   4.765 -2.5839 -1.9146  1.1034
  796MOL0     H 9831   5.161  10.183   4.713  1.3948 -0.1836 -1.2844
  796MOL0     H 9832   4.821  10.121   3.694 -1.3299  1.5910 -0.8886
  796MOL0     H 9833   4.936   9.937   3.573  0.7384  1.3944  1.6247
  796MOL0     H 9834   5.075   9.872   3.101  0.8848  0.3992  0.4614
  796MOL0     H 9835   5.246   9.711   2.981 -0.3453  0.7956 -0.2098
  796MOL0     H 9836   5.415   9.586   3.021 -1.4655 -0.3598 -3.0981
  796MOL0     H 9837   5.375   9.498   3.167 -1.8919  2.2262 -0.0830
  796MOL0     H 9838   5.451   9.363   2.896  0.7210  2.5355  0.1597
  796MOL0     H 9839   5.460   9.275   3.055  1.9929 -2.2633 -1.5191
  796MOL0     H 9840   5.685   9.362   2.926 -0.6868  1.1087  0.0499
  796MOL0     H 9841   5.649   9.515   2.988  0.2846  0.5315 -1.8786
  796MOL0     H 9842   5.804   9.350   3.142  0.5414  2.6920  0.3619
  796MOL0     H 9843   5.657   9.260   3.169 -0.4806  0.5472  0.1117
  796MOL0     H 9844   5.566   9.583   3.427 -0.5371  2.5942 -1.9250
  796MOL0     H 9845   5.081   9.380   3.175  1.0579 -0.0901  0.8433
  796MOL0     H 9846   4.903   9.397   3.349  1.5778 -1.0900 -1.0179
  796MOL0     H 9847   4.876   9.560   3.412 -0.9526 -2.7298  0.3458
  796MOL0     H 9848   4.786   9.513   3.269 -0.6133  1.3584  1.3558
  797MOL0     O 9849   7.802   3.089   2.599  0.4346 -0.3005  0.2401
  797MOL0     C 9850   7.760   3.007   2.523  0.9362  0.7310 -0.2576
  797MOL0     O 9851   7.681   3.035   2.413  0.5169  0.1477 -0.2052
  797MOL0     C 9852   7.640   3.163   2.408 -0.3472 -0.0128  0.3171
  797MOL0     C 9853   7.514   3.193   2.441 -0.2229 -0.1652  0.6960
  797MOL0     C 9854   7.465   3.317   2.396  0.2759 -0.5071 -0.5422
  797MOL0     C 9855   7.537   3.401   2.316  0.0249 -0.0011  0.1468
  797MOL0     O 9856   7.469   3.514   2.262 -0.2185  0.7692 -0.2743
  797MOL0     C 9857   7.551   3.624   2.221 -0.7280  1.1206 -0.5844
  797MOL0     C 9858   7.454   3.738   2.185  0.4060 -0.0719 -0.5468
  797MOL0     C 9859   7.356   3.767   2.300  0.1700  0.5450  0.4169
  797MOL0     C 9860   7.303   3.914   2.299 -0.1543  1.2887 -0.5172
  797MOL0     C 9861   7.281   3.991   2.167 -0.1426  0.6077 -0.9965
  797MOL0     C 9862   7.167   3.928   2.075  0.1604  0.3039 -0.3751
  797MOL0     C 9863   7.066   4.035   2.042 -0.8714  0.8540 -0.1305
  797MOL0     C 9864   6.962   3.978   1.940 -0.2943 -0.2542 -0.5026
  797MOL0     N 9865   7.017   3.959   1.812  0.8296  0.2532  0.1996
  797MOL0     C 9866   7.060   3.853   1.748 -0.9662  0.0375  0.0562
  797MOL0     C 9867   7.122   3.903   1.635  0.0890 -1.0393  0.5056
  797MOL0     C 9868   7.191   3.843   1.516  0.9376 -0.1895  0.2544
  797MOL0     C 9869   7.087   3.848   1.401 -0.3785 -0.4378 -0.5965
  797MOL0     C 9870   6.959   3.771   1.426 -0.0900  0.8320  0.5441
  797MOL0     C 9871   6.856   3.765   1.318  0.3283  0.2322  0.1891
  797MOL0     O 9872   6.790   3.894   1.317  0.2760  0.0293 -0.5931
  797MOL0     C 9873   6.707   3.907   1.206  0.1372 -0.0898  1.1554
  797MOL0     C 9874   6.637   3.809   1.125  0.2501  0.8285  0.6655
  797MOL0     C 9875   6.549   3.844   1.017 -1.3814  0.0447 -0.3921
  797MOL0     C 9876   6.476   3.732   0.950 -0.3831 -0.7390 -0.4054
  797MOL0     C 9877   6.532   3.987   0.986  0.5711 -0.4329 -0.5262
  797MOL0     C 9878   6.448   4.036   0.878  0.5177  0.3893 -0.4666
  797MOL0     O 9879   6.354   4.129   0.914 -0.0481  0.2560  0.0149
  797MOL0     C 9880   6.264   4.173   0.827  0.8339 -0.6888  0.1916
  797MOL0     C 9881   6.200   4.088   0.734  0.0819  0.3770  0.2376
  797MOL0     C 9882   6.100   4.147   0.650  0.1089  0.0120 -0.1869
  797MOL0     C 9883   6.062   4.281   0.653  0.4089  0.3559 -0.0120
  797MOL0     O 9884   5.979   4.325   0.551  0.4495 -0.0528 -0.0776
  797MOL0     C 9885   5.850   4.383   0.595  0.7700  0.5659  1.0160
  797MOL0     C 9886   5.736   4.285   0.553 -0.9041 -0.5981 -1.0049
  797MOL0     C 9887   5.743   4.243   0.410 -0.5933 -0.0871  1.1347
  797MOL0     C 9888   5.647   4.127   0.378 -0.5057 -0.3228  0.3351
  797MOL0     C 9889   5.618   4.085   0.232  0.5474 -1.4465  0.1350
  797MOL0     C 9890   5.536   3.960   0.237 -0.8180  0.0103  0.8214
  797MOL0     C 9891   5.492   3.918   0.096  0.6135 -0.0641  0.3640
  797MOL0     C 9892   5.385   4.021   0.036 -0.1964  0.2847 -0.3274
  797MOL0    Cl 9893   5.236   4.035   0.142  0.1707  0.2601  0.2422
  797MOL0     C 9894   6.123   4.359   0.755  0.2781  0.0147  0.3475
  797MOL0     C 9895   6.215   4.302   0.841 -0.6274 -0.0361 -0.3184
  797MOL0     O 9896   6.463   3.992   0.766 -0.3365 -0.5387  0.5628
  797MOL0     C 9897   6.602   4.084   1.054 -0.3356 -0.0509  0.7386
  797MOL0     C 9898   6.682   4.044   1.162 -0.0803  0.2020  0.2516
  797MOL0     N 9899   7.099   4.040   1.634  0.0743 -0.7829  0.2508
  797MOL0     N 9900   7.038   4.072   1.743  0.2823  0.5237 -0.2223
  797MOL0     C 9901   7.670   3.370   2.301 -0.8742 -0.0535  0.2957
  797MOL0     C 9902   7.724   3.254   2.348 -0.2186 -0.6273  0.0841
  797MOL0     C 9903   7.798   2.868   2.559  0.3089  1.0046  0.4178
  797MOL0     C 9904   7.730   2.752   2.502 -0.3945  0.3415 -0.4252
  797MOL0     C 9905   7.781   2.622   2.525 -0.4114 -0.4433 -0.6021
  797MOL0     C 9906   7.899   2.608   2.589  0.4800 -0.5848 -0.0517
  797MOL0     O 9907   7.966   2.492   2.618 -0.6178  0.1588  0.2742
  797MOL0     C 9908   8.044   2.451   2.505 -0.3491  0.8028  0.2077
  797MOL0     C 9909   7.976   2.331   2.455  0.2381  0.3778  0.4974
  797MOL0     C 9910   8.065   2.236   2.380 -0.2281  0.0638  0.4334
  797MOL0     C 9911   7.990   2.154   2.260 -0.0763 -0.4445  0.5145
  797MOL0     C 9912   7.880   2.084   2.325 -0.1460  1.1003 -0.2577
  797MOL0     C 9913   7.773   2.047   2.354 -0.3633  0.1481  0.0949
  797MOL0     C 9914   7.966   2.722   2.641 -0.0604 -1.6443 -0.8539
  797MOL0     C 9915   7.924   2.854   2.613 -0.8048  1.0055  0.3780
  797MOL0     C 9916   8.027   2.950   2.661  0.1298 -0.2580  0.0957
  797MOL0     H 9917   7.450   3.118   2.486 -0.7910 -1.2041 -1.6787
  797MOL0     H 9918   7.370   3.359   2.427  0.7672  0.0563  0.2379
  797MOL0     H 9919   7.596   3.587   2.129 -0.9841 -3.4964  0.9042
  797MOL0     H 9920   7.621   3.650   2.301 -1.8281 -2.1328  1.6364
  797MOL0     H 9921   7.510   3.831   2.171 -0.0794  0.2680 -0.2557
  797MOL0     H 9922   7.405   3.717   2.090 -0.1134  0.3498 -0.3801
  797MOL0     H 9923   7.273   3.701   2.272 -2.3566  2.4730  2.9373
  797MOL0     H 9924   7.392   3.729   2.396 -1.6421 -0.1889  0.8384
  797MOL0     H 9925   7.206   3.909   2.349  0.2132  1.5668  0.2443
  797MOL0     H 9926   7.367   3.979   2.359  2.2609  2.6875 -4.3017
  797MOL0     H 9927   7.377   3.983   2.116  1.6556 -0.3671  2.2467
  797MOL0     H 9928   7.251   4.096   2.176  0.0156  0.6515 -0.9709
  797MOL0     H 9929   7.208   3.893   1.980 -0.4748  1.7763 -1.2171
  797MOL0     H 9930   7.114   3.848   2.127 -2.5140  2.2111  0.0215
  797MOL0     H 9931   7.119   4.122   2.001  2.1109 -1.2703 -1.1385
  797MOL0     H 9932   7.016   4.062   2.135  0.6204  4.5175 -0.2252
  797MOL0     H 9933   6.926   3.882   1.978  0.9036 -0.5073  0.0250
  797MOL0     H 9934   6.880   4.050   1.925  1.9121  2.7345  0.7722
  797MOL0     H 9935   7.049   3.748   1.775  0.8322  0.0148  0.8276
  797MOL0     H 9936   7.222   3.741   1.541 -0.0762 -0.4549  0.4818
  797MOL0     H 9937   7.285   3.898   1.503  0.7128  0.3489  0.8678
  797MOL0     H 9938   7.068   3.950   1.367  0.8522 -0.4550 -1.4212
  797MOL0     H 9939   7.137   3.798   1.318  4.5343  2.2093  0.3880
  797MOL0     H 9940   6.982   3.669   1.457 -3.8074  0.0762  1.3220
  797MOL0     H 9941   6.908   3.808   1.516 -0.5126 -2.0493  1.5887
  797MOL0     H 9942   6.910   3.737   1.226 -0.0865  0.3254 -0.0853
  797MOL0     H 9943   6.784   3.683   1.320 -0.5939  0.8422 -2.8249
  797MOL0     H 9944   6.650   3.701   1.128 -3.9735 -0.0950 -3.3636
  797MOL0     H 9945   6.505   3.637   0.996  2.6047  0.6742  0.9138
  797MOL0     H 9946   6.490   3.730   0.841  1.1203  1.1508 -0.2903
  797MOL0     H 9947   6.371   3.753   0.971  0.2176  0.4750  1.6906
  797MOL0     H 9948   6.229   3.989   0.700 -0.5727  1.2997 -3.4235
  797MOL0     H 9949   6.058   4.089   0.568  0.0873 -1.9328  1.1438
  797MOL0     H 9950   5.855   4.411   0.701  1.3533  4.1415  0.1660
  797MOL0     H 9951   5.834   4.475   0.538  0.2002  0.7965  1.5319
  797MOL0     H 9952   5.746   4.193   0.612 -0.2607 -1.3474 -2.2534
  797MOL0     H 9953   5.640   4.333   0.576  0.2259  2.1365 -1.6215
  797MOL0     H 9954   5.844   4.210   0.384 -1.1955 -1.1275  0.0360
  797MOL0     H 9955   5.722   4.326   0.342  1.4794 -2.3020 -2.5432
  797MOL0     H 9956   5.552   4.158   0.423 -1.2670 -2.2492  0.1356
  797MOL0     H 9957   5.677   4.038   0.434 -0.2101 -1.9720 -2.2901
  797MOL0     H 9958   5.570   4.171   0.184  0.6550 -0.2300  2.0610
  797MOL0     H 9959   5.718   4.070   0.190  0.2260  1.5029 -2.0763
  797MOL0     H 9960   5.448   3.981   0.298 -1.1082  0.8453  0.1347
  797MOL0     H 9961   5.600   3.882   0.279 -0.8331  2.2795  5.7550
  797MOL0     H 9962   5.450   3.818   0.109 -1.5770  1.0393  2.8103
  797MOL0     H 9963   5.575   3.903   0.026 -0.7787 -0.5970 -1.2631
  797MOL0     H 9964   5.349   3.996  -0.064 -4.4333  1.0194  0.7946
  797MOL0     H 9965   5.428   4.121   0.028  1.5118 -0.1150  2.4079
  797MOL0     H 9966   6.089   4.461   0.767  0.6231 -0.0429  2.1277
  797MOL0     H 9967   6.264   4.360   0.919  3.4356 -1.3236 -1.6232
  797MOL0     H 9968   6.580   4.189   1.040 -0.7852 -0.1893  0.3718
  797MOL0     H 9969   6.721   4.130   1.215  0.0080 -1.0369  2.2741
  797MOL0     H 9970   7.731   3.433   2.238 -0.4093 -0.4277  0.3664
  797MOL0     H 9971   7.825   3.221   2.326 -0.3684 -2.6837  2.1867
  797MOL0     H 9972   7.635   2.771   2.454 -1.9305 -1.0746  1.8396
  797MOL0     H 9973   7.738   2.528   2.491 -0.5412 -0.4208 -0.5008
  797MOL0     H 9974   8.049   2.528   2.427 -2.4414 -0.6170 -1.4415
  797MOL0     H 9975   8.143   2.420   2.541  1.2590 -0.4505 -4.5147
  797MOL0     H 9976   7.890   2.368   2.397 -0.9539  1.2773  2.7094
  797MOL0     H 9977   7.926   2.272   2.532 -0.3205  1.4658  0.9907
  797MOL0     H 9978   8.148   2.290   2.334 -1.2005  3.4355  2.3253
  797MOL0     H 9979   8.112   2.174   2.456  0.2226  1.0638  0.9837
  797MOL0     H 9980   8.067   2.089   2.217  2.0023  1.5465  0.9891
  797MOL0     H 9981   7.961   2.221   2.178  1.1786  0.2909  0.6294
  797MOL0     H 9982   7.669   2.021   2.348 -0.4517  0.7520 -4.6340
  797MOL0     H 9983   8.064   2.699   2.683 -0.5255 -1.0522  0.6145
  797MOL0     H 9984   8.073   3.006   2.580 -1.3633  0.9331  0.0396
  797MOL0     H 9985   7.982   3.021   2.731  0.8843  0.3739 -0.0418
  797MOL0     H 9986   8.104   2.904   2.725 -0.9094 -0.7120  1.0678
  798MOL0     O 9987   9.764   4.585   0.124  0.2177 -0.2126 -0.2011
  798MOL0     C 9988   9.722   4.699   0.109 -0.1114 -0.0439 -0.4980
  798MOL0     O 9989   9.598   4.740   0.080  0.3770 -0.1439  0.4023
  798MOL0     C 9990   9.507   4.652   0.026  0.4083 -0.3302  0.5716
  798MOL0     C 9991   9.537   4.578  -0.098 -0.1952  0.3526  0.0773
  798MOL0     C 9992   9.461   4.470  -0.136 -0.0377 -0.2375  0.1137
  798MOL0     C 9993   9.343   4.439  -0.066 -0.1774  0.1359 -0.1593
  798MOL0     O 9994   9.276   4.332  -0.117  0.1867  0.8933  0.6378
  798MOL0     C 9995   9.174   4.254  -0.039  0.4548 -0.2093  0.5223
  798MOL0     C 9996   9.063   4.206  -0.133  0.5277 -0.4634  0.3236
  798MOL0     C 9997   9.103   4.091  -0.221 -0.0628 -0.0275  0.5537
  798MOL0     C 9998   9.077   3.953  -0.143  0.4921 -0.4732  0.4213
  798MOL0     C 9999   9.123   3.829  -0.225 -0.1284 -0.3295 -0.6100
  798MOL0     C10000   9.087   3.697  -0.155 -0.2660  0.6982  0.0440
  798MOL0     C10001   9.189   3.634  -0.047 -0.5020 -0.1297  0.2528
  798MOL0     C10002   9.132   3.494   0.003 -0.2233 -0.3713  0.4832
  798MOL0     N10003   9.131   3.395  -0.105  1.0513 -0.0552 -0.2901
  798MOL0     C10004   9.232   3.356  -0.186  0.3913  0.0874 -0.0268
  798MOL0     C10005   9.164   3.272  -0.276 -0.9157 -0.5837 -0.7368
  798MOL0     C10006   9.234   3.202  -0.390  0.1414 -0.6725 -0.2920
  798MOL0     C10007   9.135   3.157  -0.493  0.2338 -0.7265  0.0412
  798MOL0     C10008   9.193   3.094  -0.622 -0.7101 -0.0891  0.0270
  798MOL0     C10009   9.262   3.192  -0.712 -0.1526 -1.0173  0.4481
  798MOL0     O10010   9.346   3.116  -0.798  0.2420  0.3370 -0.0315
  798MOL0     C10011   9.468   3.161  -0.846  0.4099 -0.0198 -0.8149
  798MOL0     C10012   9.518   3.289  -0.828  0.4222  0.3142 -0.0709
  798MOL0     C10013   9.650   3.322  -0.869 -0.2849 -1.3339  0.3024
  798MOL0     C10014   9.685   3.465  -0.834 -1.7601 -0.2021 -0.5136
  798MOL0     C10015   9.727   3.225  -0.943  0.8683 -0.9295  0.0088
  798MOL0     C10016   9.860   3.252  -1.000  0.0338 -0.2735 -0.1540
  798MOL0     O10017   9.943   3.149  -1.027  0.6259  0.4296  0.1785
  798MOL0     C10018  10.081   3.156  -1.041 -0.1882  0.3233  0.6226
  798MOL0     C10019  10.151   3.224  -0.943  0.0323 -0.3856  0.9853
  798MOL0     C10020  10.295   3.224  -0.963 -0.5615 -0.5730 -0.8137
  798MOL0     C10021  10.353   3.152  -1.068 -0.0585 -1.1823 -0.0196
  798MOL0     O10022  10.485   3.172  -1.104 -0.1005  0.4853 -0.5772
  798MOL0     C10023  10.520   3.312  -1.134  0.1287  0.8437  0.0746
  798MOL0     C10024  10.668   3.334  -1.174 -0.3246  0.6573 -0.4467
  798MOL0     C10025  10.758   3.352  -1.055  0.1868 -0.1108 -0.0104
  798MOL0     C10026  10.898   3.397  -1.091  0.2881  0.6541  0.3788
  798MOL0     C10027  10.981   3.427  -0.979 -0.2492  0.2344  0.1451
  798MOL0     C10028  10.931   3.550  -0.901 -0.0794  0.3290  0.4479
  798MOL0     C10029  11.019   3.595  -0.785 -0.6099  0.1304 -0.1841
  798MOL0     C10030  10.991   3.527  -0.649 -0.1037 -0.8961 -0.7884
  798MOL0    Cl10031  10.817   3.553  -0.619 -0.4663 -0.3285 -0.1243
  798MOL0     C10032  10.275   3.090  -1.164 -0.0197  0.8502 -0.0015
  798MOL0     C10033  10.144   3.084  -1.143  0.2752 -0.4039  0.4517
  798MOL0     O10034   9.894   3.370  -0.989  0.0837  0.0953  0.7998
  798MOL0     C10035   9.673   3.103  -0.961  0.7647  0.2567  0.5821
  798MOL0     C10036   9.544   3.067  -0.907  0.0987 -0.4320 -0.3405
  798MOL0     N10037   9.040   3.244  -0.231  0.6351 -0.8226 -0.4804
  798MOL0     N10038   9.013   3.319  -0.132 -0.3263 -0.7928  0.0697
  798MOL0     C10039   9.306   4.519   0.048 -0.2168  0.5984  0.0950
  798MOL0     C10040   9.380   4.630   0.089  0.7476 -0.3524  0.0162
  798MOL0     C10041   9.820   4.808   0.138  0.0450  0.1987  0.1069
  798MOL0     C10042   9.763   4.922   0.205  0.2148  0.5388  0.3877
  798MOL0     C10043   9.848   5.023   0.241 -0.2171 -0.0588 -0.1515
  798MOL0     C10044   9.989   5.019   0.213  0.6353 -0.0786  0.5196
  798MOL0     O10045  10.083   5.112   0.243 -0.0489  0.6282  0.7057
  798MOL0     C10046  10.048   5.239   0.292 -0.2574  0.9498 -0.1856
  798MOL0     C10047   9.981   5.327   0.186 -0.2601 -0.3709 -0.1480
  798MOL0     C10048  10.020   5.300   0.038 -0.0064  0.1139  0.1040
  798MOL0     C10049  10.165   5.323   0.013 -0.2798  0.1262 -0.3645
  798MOL0     C10050  10.211   5.462  -0.015 -0.7005  0.0177  0.3976
  798MOL0     C10051  10.238   5.584  -0.026  0.1502  0.0963  0.3411
  798MOL0     C10052  10.045   4.900   0.164 -1.0321  0.1128 -0.7625
  798MOL0     C10053   9.969   4.793   0.125  0.3055 -0.1336 -0.1060
  798MOL0     C10054  10.043   4.678   0.074  0.3978  0.4565  0.8306
  798MOL0     H10055   9.629   4.597  -0.152 -0.2314 -1.0072 -0.5135
  798MOL0     H10056   9.504   4.407  -0.213 -0.3985  0.4060 -0.6247
  798MOL0     H10057   9.132   4.319   0.038 -0.0277 -1.4650  1.3569
  798MOL0     H10058   9.227   4.177   0.017  0.8924 -0.3076 -0.0139
  798MOL0     H10059   8.973   4.178  -0.077 -0.6547  2.1004 -0.1718
  798MOL0     H10060   9.040   4.290  -0.199  3.1602  1.0658  1.1935
  798MOL0     H10061   9.034   4.094  -0.305 -0.8663  0.2449  1.2047
  798MOL0     H10062   9.205   4.110  -0.253 -1.4326  2.9984 -2.6227
  798MOL0     H10063   9.138   3.962  -0.053 -0.5475 -3.3618  1.5248
  798MOL0     H10064   8.969   3.946  -0.128  0.1531  0.7588 -1.1064
  798MOL0     H10065   9.230   3.847  -0.237 -0.3780  3.4186  1.0061
  798MOL0     H10066   9.070   3.839  -0.320 -2.4637  1.9094  0.7809
  798MOL0     H10067   8.997   3.709  -0.094 -0.1219  1.1545  0.1721
  798MOL0     H10068   9.058   3.629  -0.236 -1.0639  0.1096  0.8053
  798MOL0     H10069   9.215   3.696   0.040  2.9954 -3.2159  1.6826
  798MOL0     H10070   9.283   3.623  -0.101 -0.4160  0.8776  0.1774
  798MOL0     H10071   9.196   3.459   0.084 -1.7512 -0.6063  1.6416
  798MOL0     H10072   9.027   3.500   0.035  0.0893 -1.5644  1.8563
  798MOL0     H10073   9.339   3.373  -0.185  0.6331 -1.1297 -1.1735
  798MOL0     H10074   9.300   3.126  -0.349  0.8552 -1.1808 -2.2547
  798MOL0     H10075   9.298   3.273  -0.444 -3.2397  0.6817 -2.9574
  798MOL0     H10076   9.078   3.078  -0.444 -0.3451 -0.6985 -0.5706
  798MOL0     H10077   9.072   3.242  -0.519  1.8470  1.6684  3.2634
  798MOL0     H10078   9.261   3.010  -0.607 -0.7064 -0.3984 -1.5336
  798MOL0     H10079   9.113   3.048  -0.681 -0.3012 -3.8628  2.1184
  798MOL0     H10080   9.187   3.248  -0.768  1.8141  0.2097 -1.1030
  798MOL0     H10081   9.320   3.273  -0.667 -0.6629  0.1865 -1.0028
  798MOL0     H10082   9.444   3.351  -0.779  0.5420 -1.6848  2.9839
  798MOL0     H10083   9.782   3.470  -0.785 -0.7749  2.5330 -2.4997
  798MOL0     H10084   9.610   3.512  -0.770 -3.0434 -1.8449 -0.7292
  798MOL0     H10085   9.693   3.530  -0.922 -0.8768 -1.6016 -1.5045
  798MOL0     H10086  10.110   3.280  -0.859  0.3651 -1.4678  1.8986
  798MOL0     H10087  10.361   3.280  -0.898 -2.7494 -1.4262  2.3819
  798MOL0     H10088  10.463   3.341  -1.223 -0.7162 -0.5650  0.1343
  798MOL0     H10089  10.500   3.372  -1.045  4.9838  1.0623  1.3016
  798MOL0     H10090  10.696   3.247  -1.234 -2.5588 -0.5348  0.1153
  798MOL0     H10091  10.668   3.423  -1.237  0.7724  1.2050  0.2998
  798MOL0     H10092  10.771   3.256  -1.005 -0.7868 -0.5386 -0.5418
  798MOL0     H10093  10.714   3.426  -0.987 -2.1610 -0.4279 -1.0938
  798MOL0     H10094  10.892   3.486  -1.154  1.1941  0.6728  0.3160
  798MOL0     H10095  10.951   3.320  -1.146 -0.3064 -3.2943  4.6965
  798MOL0     H10096  10.993   3.346  -0.906  0.4185 -0.8659 -1.1554
  798MOL0     H10097  11.081   3.436  -1.022 -0.0871  1.9459  0.7821
  798MOL0     H10098  10.831   3.526  -0.863 -1.7801  3.5844 -1.4912
  798MOL0     H10099  10.929   3.631  -0.974  2.5591 -1.8406 -2.3110
  798MOL0     H10100  11.006   3.701  -0.762  0.0513  0.1632  0.0745
  798MOL0     H10101  11.127   3.590  -0.801 -0.1543  0.7844  2.2583
  798MOL0     H10102  11.046   3.574  -0.567 -0.4756 -1.8353  0.0183
  798MOL0     H10103  11.019   3.421  -0.656 -0.2633 -0.8892 -1.6579
  798MOL0     H10104  10.319   3.046  -1.253  2.0994  1.8351  0.4920
  798MOL0     H10105  10.076   3.016  -1.193  0.9865 -0.6893 -0.1628
  798MOL0     H10106   9.733   3.030  -1.015 -0.2586 -1.1454  1.2780
  798MOL0     H10107   9.493   2.972  -0.922 -1.5167  0.2222  0.7854
  798MOL0     H10108   9.219   4.499   0.110 -0.8917  2.7648 -0.0663
  798MOL0     H10109   9.379   4.690   0.180  0.7002  1.8423 -1.3615
  798MOL0     H10110   9.657   4.942   0.222 -0.4831  1.1722 -3.7829
  798MOL0     H10111   9.807   5.116   0.279  0.3109  1.2027 -2.4345
  798MOL0     H10112   9.992   5.248   0.385  0.4710  3.0239  0.1051
  798MOL0     H10113  10.133   5.295   0.330 -1.9232  2.0629  2.1372
  798MOL0     H10114  10.003   5.431   0.209  1.4725 -0.1695 -2.3728
  798MOL0     H10115   9.872   5.319   0.195 -0.2785 -1.2638 -0.9724
  798MOL0     H10116  10.014   5.193   0.016  1.1927  0.1959 -0.6525
  798MOL0     H10117   9.956   5.361  -0.027  0.5851 -0.3089 -0.8809
  798MOL0     H10118  10.190   5.273  -0.081  0.2893  1.9605 -1.2417
  798MOL0     H10119  10.224   5.273   0.091 -2.9342 -1.2803  0.8741
  798MOL0     H10120  10.289   5.678  -0.040  0.8635 -0.3975 -0.5318
  798MOL0     H10121  10.152   4.905   0.143 -0.1908  2.6153  3.1163
  798MOL0     H10122  10.073   4.607   0.151  2.7660 -2.1016 -2.1577
  798MOL0     H10123   9.988   4.620  -0.001  0.4230 -1.3709  2.1679
  798MOL0     H10124  10.129   4.712   0.016 -0.2356 -1.0681 -1.1099
  799MOL0     O10125   7.010   9.947   4.082 -0.8756 -0.0305  0.0817
  799MOL0     C10126   6.966   9.841   4.039  0.3631  1.0417  0.5511
  799MOL0     O10127   6.920   9.817   3.921 -0.2937  0.0297 -0.4663
  799MOL0     C10128   6.923   9.918   3.838  0.4842 -0.6533 -0.0197
  799MOL0     C10129   7.007   9.937   3.723  0.4861  0.2717  0.1863
  799MOL0     C10130   7.000  10.054   3.643  0.1442  0.0253 -0.3820
  799MOL0     C10131   6.900  10.148   3.670 -0.2699 -0.1602 -0.3784
  799MOL0     O10132   6.877  10.261   3.602  1.0021 -0.6322  0.3553
  799MOL0     C10133   6.948  10.284   3.475  1.0086 -0.5591 -0.7932
  799MOL0     C10134   6.911  10.429   3.415  0.1914 -0.2069  0.2944
  799MOL0     C10135   6.916  10.530   3.529  0.3654 -0.0313  0.0334
  799MOL0     C10136   6.911  10.668   3.465  0.0675 -0.2699 -0.1314
  799MOL0     C10137   6.886  10.788   3.567  0.5970 -0.1442 -0.2994
  799MOL0     C10138   6.911  10.926   3.493  0.3601  0.3208  0.4207
  799MOL0     C10139   7.058  10.964   3.495  0.0403 -0.0754 -0.4093
  799MOL0     C10140   7.120  11.014   3.627  0.7616 -0.0975  0.0469
  799MOL0     N10141   7.112  11.158   3.654  0.5150 -0.0517  0.3829
  799MOL0     C10142   6.994  11.228   3.677  0.0194  0.7923 -0.0967
  799MOL0     C10143   7.023  11.350   3.717 -0.2492  0.5920  0.7433
  799MOL0     C10144   6.912  11.446   3.751  0.2069 -0.6676  0.2956
  799MOL0     C10145   6.949  11.591   3.737 -0.2018  0.2523 -0.0924
  799MOL0     C10146   6.922  11.642   3.593  0.3393  0.3915  0.4006
  799MOL0     C10147   6.977  11.783   3.572  0.5242  0.2195 -0.2906
  799MOL0     O10148   6.946  11.858   3.679 -0.1893  0.0876 -0.1355
  799MOL0     C10149   6.987  11.993   3.678 -0.8867  0.2189 -0.4035
  799MOL0     C10150   6.958  12.073   3.782  0.1107 -0.1748 -0.2284
  799MOL0     C10151   7.007  12.205   3.796  0.0672 -0.8993 -0.2730
  799MOL0     C10152   6.972  12.271   3.929  0.7785  0.4982  0.7856
  799MOL0     C10153   7.094  12.264   3.701  0.8825 -1.0023 -0.9340
  799MOL0     C10154   7.174  12.389   3.713 -0.0416 -0.4451  0.4236
  799MOL0     O10155   7.274  12.396   3.610  0.4048  0.9522  0.3592
  799MOL0     C10156   7.346  12.502   3.588 -0.3126 -0.4076 -0.0851
  799MOL0     C10157   7.337  12.581   3.480 -0.0940 -0.0695 -0.0386
  799MOL0     C10158   7.417  12.691   3.455 -0.4207  0.2507  0.1305
  799MOL0     C10159   7.519  12.721   3.543  0.6930  0.1695 -0.2363
  799MOL0     O10160   7.593  12.836   3.510 -0.3081 -0.1114 -1.1527
  799MOL0     C10161   7.652  12.903   3.619 -0.3284  0.0041 -0.5465
  799MOL0     C10162   7.676  13.044   3.573  0.2590  0.8083  0.9164
  799MOL0     C10163   7.563  13.134   3.600 -1.7216 -0.8538 -0.0428
  799MOL0     C10164   7.447  13.110   3.502  0.5646  0.2119  0.3529
  799MOL0     C10165   7.355  13.233   3.477  0.2515  0.7336 -0.3884
  799MOL0     C10166   7.269  13.275   3.599  0.4141  0.2763  0.1881
  799MOL0     C10167   7.216  13.421   3.581  0.3859  0.9400 -0.5254
  799MOL0     C10168   7.121  13.459   3.688 -0.6563 -0.1032  0.2260
  799MOL0    Cl10169   7.218  13.457   3.838  0.3673 -0.2179  0.0341
  799MOL0     C10170   7.530  12.643   3.658  0.5640  0.1875 -0.0946
  799MOL0     C10171   7.448  12.529   3.672 -0.1737 -0.3672 -0.1857
  799MOL0     O10172   7.158  12.473   3.799  0.3520 -0.3348 -0.9001
  799MOL0     C10173   7.118  12.189   3.586 -0.0485 -0.2768  0.7081
  799MOL0     C10174   7.074  12.053   3.582  0.3620  0.3485  0.1229
  799MOL0     N10175   7.164  11.352   3.730 -0.4319 -0.2883  0.3486
  799MOL0     N10176   7.210  11.235   3.710 -0.4382 -0.4427 -0.4052
  799MOL0     C10177   6.812  10.127   3.779 -1.3483 -0.2392  0.6182
  799MOL0     C10178   6.836  10.023   3.868  0.3709  0.7303  0.7402
  799MOL0     C10179   6.978   9.729   4.138 -0.1450 -0.1295  0.7399
  799MOL0     C10180   7.011   9.760   4.272  0.6530  0.0389  0.5940
  799MOL0     C10181   7.017   9.662   4.372  0.6921 -0.1589 -0.7052
  799MOL0     C10182   6.990   9.531   4.338  0.0682 -0.0977 -0.2955
  799MOL0     O10183   6.996   9.426   4.432  0.6614 -0.1574 -0.1382
  799MOL0     C10184   7.123   9.432   4.501 -0.0560 -0.4859  0.2315
  799MOL0     C10185   7.168   9.304   4.541  0.5612  0.2985  0.7931
  799MOL0     C10186   7.067   9.219   4.612  0.8911  0.8282  0.4454
  799MOL0     C10187   7.129   9.087   4.653  0.3851  0.1592  0.1982
  799MOL0     C10188   7.032   9.022   4.744 -0.5201 -0.7569 -0.6860
  799MOL0     C10189   6.963   8.977   4.836 -0.2942 -0.0335 -0.2387
  799MOL0     C10190   6.956   9.494   4.203 -0.0845 -0.5973 -0.8738
  799MOL0     C10191   6.949   9.589   4.104 -0.4092 -0.5830  0.4574
  799MOL0     C10192   6.901   9.539   3.961 -0.4958  0.2573 -0.0025
  799MOL0     H10193   7.079   9.862   3.692 -0.8382 -0.4848 -1.1400
  799MOL0     H10194   7.070  10.062   3.561 -2.6501 -2.8085 -3.3758
  799MOL0     H10195   6.926  10.203   3.405  2.3087 -2.7401  1.1994
  799MOL0     H10196   7.055  10.285   3.495  0.5539  2.4871  2.4018
  799MOL0     H10197   6.977  10.452   3.331 -0.7693 -2.7054 -1.2569
  799MOL0     H10198   6.807  10.429   3.381  0.1456 -2.1119  0.2762
  799MOL0     H10199   6.832  10.521   3.599  1.5404  0.4657  1.5607
  799MOL0     H10200   7.008  10.526   3.588  0.4102  0.7963  0.0335
  799MOL0     H10201   7.002  10.691   3.409 -0.7236 -0.4660 -1.5228
  799MOL0     H10202   6.831  10.671   3.390 -0.1909 -1.8871  0.0496
  799MOL0     H10203   6.941  10.767   3.659 -1.6620 -1.0751  0.9244
  799MOL0     H10204   6.783  10.783   3.603  1.1234 -0.2516  1.2525
  799MOL0     H10205   6.878  10.912   3.390  0.6619  0.9306  0.2347
  799MOL0     H10206   6.853  11.011   3.531  2.3317  1.7006  0.4975
  799MOL0     H10207   7.068  11.047   3.425 -0.9090 -0.3989 -0.9468
  799MOL0     H10208   7.116  10.876   3.467 -0.4196  0.3972 -3.0766
  799MOL0     H10209   7.061  10.975   3.709  2.0947 -1.9942  0.1656
  799MOL0     H10210   7.228  10.995   3.629  1.6308  3.9088  0.9652
  799MOL0     H10211   6.894  11.190   3.661  0.3845 -1.2580  1.8800
  799MOL0     H10212   6.879  11.421   3.853  2.2359  1.9433  1.7061
  799MOL0     H10213   6.823  11.429   3.691  0.8141 -0.1469 -0.7719
  799MOL0     H10214   6.883  11.643   3.807 -0.0133  0.4762 -0.0796
  799MOL0     H10215   7.045  11.619   3.783 -0.6479 -1.6060  2.1680
  799MOL0     H10216   6.970  11.568   3.529  0.1867 -3.8337  4.6441
  799MOL0     H10217   6.813  11.634   3.584  0.0420  0.5564  2.9615
  799MOL0     H10218   7.086  11.788   3.563  0.3810  2.1464 -1.4941
  799MOL0     H10219   6.945  11.825   3.476 -0.3413 -2.3798 -1.2391
  799MOL0     H10220   6.902  12.041   3.870 -1.8328  1.3876 -0.8319
  799MOL0     H10221   6.917  12.202   3.994  1.7763  0.2656  1.3975
  799MOL0     H10222   6.910  12.360   3.915  0.7545  0.2138 -1.2266
  799MOL0     H10223   7.069  12.293   3.973  0.2473  2.4084  1.0967
  799MOL0     H10224   7.269  12.556   3.399  0.1896  0.4571 -0.4443
  799MOL0     H10225   7.399  12.753   3.368  0.0102 -1.7061 -1.4402
  799MOL0     H10226   7.589  12.904   3.708  0.2906  1.1787 -0.1025
  799MOL0     H10227   7.748  12.856   3.644 -1.2429 -0.6881  1.9652
  799MOL0     H10228   7.760  13.055   3.642  3.2030 -1.9605 -1.9018
  799MOL0     H10229   7.703  13.044   3.467  0.3093  2.8014  0.9034
  799MOL0     H10230   7.605  13.235   3.603 -2.5333 -0.5221  0.1282
  799MOL0     H10231   7.530  13.113   3.702  0.4696 -1.0450  0.6788
  799MOL0     H10232   7.384  13.025   3.529  0.4838  0.1405 -0.0450
  799MOL0     H10233   7.492  13.079   3.407  1.8275  1.0596  0.6528
  799MOL0     H10234   7.424  13.313   3.448  2.1410 -0.5623  0.3823
  799MOL0     H10235   7.289  13.221   3.391 -0.4876  2.2515 -0.0627
  799MOL0     H10236   7.338  13.273   3.684 -0.3106  0.4211  0.7917
  799MOL0     H10237   7.180  13.212   3.603 -1.5424  2.6777 -1.7234
  799MOL0     H10238   7.164  13.433   3.486 -1.3617 -0.1346  0.2447
  799MOL0     H10239   7.299  13.492   3.585 -0.5432  2.1820  4.2230
  799MOL0     H10240   7.026  13.406   3.694 -0.6017 -0.4744 -1.6703
  799MOL0     H10241   7.091  13.562   3.664 -2.5619 -0.3603  1.3659
  799MOL0     H10242   7.613  12.666   3.724  0.5066  1.8045 -0.5499
  799MOL0     H10243   7.460  12.473   3.764 -1.0841  0.0475  0.1948
  799MOL0     H10244   7.168  12.223   3.497  1.2502 -2.6018  0.4559
  799MOL0     H10245   7.107  11.997   3.495 -1.9068 -0.4288 -0.3187
  799MOL0     H10246   6.744  10.205   3.811 -0.7690  0.6756 -0.3130
  799MOL0     H10247   6.761  10.012   3.945  0.2457 -1.5998  0.3438
  799MOL0     H10248   7.026   9.863   4.302 -2.2755  0.2252  1.7170
  799MOL0     H10249   7.040   9.681   4.477 -3.3366 -1.0990  0.5064
  799MOL0     H10250   7.191   9.492   4.439 -0.4898  1.2407  1.3286
  799MOL0     H10251   7.094   9.487   4.592 -3.1738 -0.8257 -0.4446
  799MOL0     H10252   7.262   9.308   4.597  1.4929 -1.2398 -0.5600
  799MOL0     H10253   7.195   9.263   4.443 -0.8120  0.9345  0.1130
  799MOL0     H10254   7.012   9.270   4.691 -1.9374 -2.6862  1.0040
  799MOL0     H10255   6.996   9.191   4.534 -0.7539  1.0387  1.8118
  799MOL0     H10256   7.227   9.104   4.699  0.3604  0.9382 -0.0297
  799MOL0     H10257   7.146   9.023   4.565 -2.8467 -0.8915  0.2006
  799MOL0     H10258   6.897   8.940   4.911  0.1057 -0.0806  0.0918
  799MOL0     H10259   6.913   9.396   4.182  0.9400 -0.5861 -3.3939
  799MOL0     H10260   6.973   9.572   3.886  1.3634 -1.5029  0.9458
  799MOL0     H10261   6.892   9.431   3.964 -0.6608  0.2899  1.0744
  799MOL0     H10262   6.799   9.580   3.950 -1.2439 -1.7896 -1.0913
  800MOL0     O10263   0.966   9.112   2.559  0.5856 -0.4981  0.5130
  800MOL0     C10264   1.004   8.996   2.541 -0.1251  0.1200  0.2786
  800MOL0     O10265   0.922   8.886   2.550 -0.5889  0.6759  0.2249
  800MOL0     C10266   0.795   8.910   2.581 -0.1508 -0.1165  0.6630
  800MOL0     C10267   0.693   8.936   2.487  0.4061  0.0466 -0.0052
  800MOL0     C10268   0.563   8.959   2.527  0.3700  0.9470 -0.6938
  800MOL0     C10269   0.521   8.953   2.663  1.2304  1.2452 -0.9471
  800MOL0     O10270   0.395   8.987   2.701 -0.0752 -0.0033 -0.7558
  800MOL0     C10271   0.376   9.123   2.755 -0.0618  0.4290  0.4970
  800MOL0     C10272   0.333   9.215   2.637  0.5242 -0.5752 -0.2353
  800MOL0     C10273   0.240   9.147   2.537  0.1851  0.0380  0.1836
  800MOL0     C10274   0.226   9.244   2.419 -0.5858 -0.2343 -0.4608
  800MOL0     C10275   0.188   9.170   2.281  0.7888  0.0592 -0.1342
  800MOL0     C10276   0.127   9.265   2.189 -0.1671 -0.1240  0.4427
  800MOL0     C10277   0.226   9.370   2.133 -0.4537 -1.2027 -0.0050
  800MOL0     C10278   0.171   9.518   2.131  0.1670 -0.3506 -0.8947
  800MOL0     N10279   0.165   9.564   2.274  0.0613 -0.1501  0.0696
  800MOL0     C10280   0.052   9.567   2.360 -0.6372 -0.4757  0.6357
  800MOL0     C10281   0.101   9.612   2.479  0.5807 -0.2981  0.3968
  800MOL0     C10282   0.020   9.619   2.602 -0.4182 -0.3153  0.2205
  800MOL0     C10283  -0.031   9.484   2.657  0.4731  0.4729 -0.8077
  800MOL0     C10284  -0.036   9.489   2.807  0.3982 -0.0571 -0.5826
  800MOL0     C10285  -0.089   9.370   2.880 -0.0872  0.5494  0.0920
  800MOL0     O10286  -0.076   9.368   3.023  0.0498 -0.6353 -0.5734
  800MOL0     C10287   0.029   9.297   3.085  0.2173 -0.1616  0.2862
  800MOL0     C10288   0.025   9.256   3.221  0.0844 -0.4484 -0.1537
  800MOL0     C10289   0.149   9.210   3.282 -0.2392 -0.1069 -0.4421
  800MOL0     C10290   0.130   9.142   3.414 -0.2306 -0.6465  0.6240
  800MOL0     C10291   0.273   9.213   3.217  0.7814 -0.5782 -0.7842
  800MOL0     C10292   0.405   9.175   3.277 -0.1305 -0.1303  0.0965
  800MOL0     O10293   0.505   9.168   3.193  0.1861 -0.3436  0.2088
  800MOL0     C10294   0.633   9.144   3.233  0.0065  0.9712  0.4030
  800MOL0     C10295   0.658   9.018   3.288  0.1875 -0.1464  0.4687
  800MOL0     C10296   0.782   8.990   3.348 -0.6582  0.0753  0.1575
  800MOL0     C10297   0.900   9.077   3.330  1.0111  0.0454 -0.1488
  800MOL0     O10298   1.021   9.028   3.379  0.3540  0.6818  0.3538
  800MOL0     C10299   1.114   9.126   3.443 -0.0670 -0.0216  0.1235
  800MOL0     C10300   1.235   9.051   3.509 -0.9838 -0.3123  0.4160
  800MOL0     C10301   1.325   8.984   3.395 -0.0959 -1.0033  0.3345
  800MOL0     C10302   1.469   8.933   3.438 -0.0950  0.3261 -0.0498
  800MOL0     C10303   1.468   8.828   3.547 -0.2410  0.7789 -0.4018
  800MOL0     C10304   1.608   8.773   3.581  0.0294  0.5644  0.9191
  800MOL0     C10305   1.598   8.666   3.686 -0.6642 -0.4396 -0.2436
  800MOL0     C10306   1.560   8.528   3.636  0.4208 -0.4721  0.2030
  800MOL0    Cl10307   1.689   8.461   3.522  0.0621 -0.1006 -0.1376
  800MOL0     C10308   0.882   9.187   3.251  0.4488  0.0601  0.7897
  800MOL0     C10309   0.753   9.228   3.212 -0.5476  0.7296 -0.2192
  800MOL0     O10310   0.417   9.164   3.399  0.7495 -0.2176  0.2677
  800MOL0     C10311   0.267   9.244   3.084 -0.0411  0.1217  0.3822
  800MOL0     C10312   0.153   9.280   3.020  0.2478 -1.6613 -0.3727
  800MOL0     N10313   0.236   9.627   2.460 -0.0871 -0.3616 -0.5239
  800MOL0     N10314   0.277   9.601   2.341 -0.0943  0.3090 -0.5460
  800MOL0     C10315   0.629   8.931   2.758 -0.2482  1.4096  0.6360
  800MOL0     C10316   0.761   8.907   2.717 -0.4629  0.7134  0.3846
  800MOL0     C10317   1.149   8.985   2.485 -0.3406  0.7788 -0.9564
  800MOL0     C10318   1.230   9.097   2.500 -0.4027 -0.2478 -0.0573
  800MOL0     C10319   1.355   9.100   2.439  0.3791 -0.1549 -0.8152
  800MOL0     C10320   1.423   8.991   2.386 -0.8469 -0.3040  1.4479
  800MOL0     O10321   1.548   9.005   2.332 -0.3559  0.4632  0.7939
  800MOL0     C10322   1.579   8.934   2.208  0.1130  0.1805  0.6002
  800MOL0     C10323   1.737   8.940   2.181 -0.5112  0.0047 -0.1028
  800MOL0     C10324   1.769   9.069   2.110  0.4342  0.6288 -0.7194
  800MOL0     C10325   1.919   9.089   2.102  0.0895 -0.1266 -0.8776
  800MOL0     C10326   1.985   9.131   2.225 -0.4364  0.1649  0.0825
  800MOL0     C10327   2.045   9.181   2.325  0.2570  0.1644  0.3125
  800MOL0     C10328   1.355   8.869   2.396 -0.5663 -0.0956 -0.1300
  800MOL0     C10329   1.214   8.863   2.430 -0.4506  0.0625  0.7320
  800MOL0     C10330   1.143   8.736   2.398 -0.5926 -1.0640 -0.3005
  800MOL0     H10331   0.708   8.932   2.380 -0.9816  2.0460 -0.3369
  800MOL0     H10332   0.492   9.000   2.455  0.6794 -3.1968 -3.7043
  800MOL0     H10333   0.468   9.155   2.804  0.0681 -1.7747  1.8101
  800MOL0     H10334   0.289   9.118   2.821  0.3704  1.1391  1.1327
  800MOL0     H10335   0.321   9.313   2.683 -0.8655 -2.8531  4.8925
  800MOL0     H10336   0.425   9.220   2.578  0.4555 -1.9385 -0.5055
  800MOL0     H10337   0.290   9.056   2.504  0.3023  0.1725 -0.0131
  800MOL0     H10338   0.140   9.115   2.565 -0.7589 -3.4639 -5.6299
  800MOL0     H10339   0.138   9.305   2.441  1.1240  1.2098  3.1327
  800MOL0     H10340   0.315   9.305   2.402  0.1777 -0.9362  0.8304
  800MOL0     H10341   0.100   9.108   2.304  1.3311  0.3204  2.9691
  800MOL0     H10342   0.268   9.105   2.244 -0.4791 -1.6177 -0.0559
  800MOL0     H10343   0.085   9.212   2.102 -0.3524 -1.5253  1.3485
  800MOL0     H10344   0.052   9.317   2.249 -1.9775 -1.8846 -0.1710
  800MOL0     H10345   0.231   9.349   2.025 -6.8177 -1.6012 -0.6419
  800MOL0     H10346   0.330   9.367   2.165 -0.1126 -3.9236 -1.0983
  800MOL0     H10347   0.245   9.581   2.082  1.9515 -1.2335  0.5312
  800MOL0     H10348   0.073   9.526   2.084 -0.4495 -0.6141  0.3083
  800MOL0     H10349  -0.045   9.536   2.324  1.1980 -2.0232 -3.6327
  800MOL0     H10350  -0.068   9.683   2.597 -0.8233 -0.8778  0.0291
  800MOL0     H10351   0.087   9.655   2.681  0.5044  0.9795 -1.0926
  800MOL0     H10352  -0.126   9.456   2.611 -0.3969 -0.0595  1.1780
  800MOL0     H10353   0.040   9.406   2.632 -0.7997 -1.7249  1.8097
  800MOL0     H10354   0.066   9.504   2.845 -0.3161  0.1747  1.3725
  800MOL0     H10355  -0.090   9.577   2.845 -0.1067 -1.3033  1.8144
  800MOL0     H10356  -0.197   9.365   2.864 -0.3133  1.3163  1.2486
  800MOL0     H10357  -0.056   9.278   2.829  0.3689  0.5607  0.3622
  800MOL0     H10358  -0.056   9.267   3.293  1.0920  0.5898  0.8723
  800MOL0     H10359   0.189   9.187   3.495  0.1379 -1.7286  0.9766
  800MOL0     H10360   0.166   9.039   3.411  2.2556  0.1909 -0.9382
  800MOL0     H10361   0.027   9.161   3.448 -1.0718  5.9799 -3.6004
  800MOL0     H10362   0.574   8.954   3.311  0.8145 -2.3826 -2.6991
  800MOL0     H10363   0.799   8.897   3.401  1.2176  0.2531 -0.0764
  800MOL0     H10364   1.148   9.200   3.370  0.1463 -1.3198 -1.1359
  800MOL0     H10365   1.061   9.185   3.518 -0.6195 -0.9545  0.4822
  800MOL0     H10366   1.294   9.117   3.574 -2.5767  1.4446  0.1915
  800MOL0     H10367   1.199   8.964   3.565 -1.4227 -0.6080 -0.3128
  800MOL0     H10368   1.342   9.069   3.328 -2.8567 -0.7856 -0.1892
  800MOL0     H10369   1.278   8.901   3.342  0.2827 -2.2016  1.8040
  800MOL0     H10370   1.540   9.009   3.473 -0.1735 -1.1297  3.6823
  800MOL0     H10371   1.515   8.899   3.345 -0.3277  3.2470 -1.3723
  800MOL0     H10372   1.423   8.866   3.639 -0.4413 -2.4734  0.9861
  800MOL0     H10373   1.411   8.740   3.514  0.1375  0.9125 -1.4458
  800MOL0     H10374   1.658   8.866   3.609 -1.5930  2.3428 -1.6490
  800MOL0     H10375   1.648   8.739   3.485 -1.0935 -0.6957  0.8657
  800MOL0     H10376   1.532   8.683   3.771  1.4383 -1.8439  1.8109
  800MOL0     H10377   1.692   8.652   3.741 -2.8743 -3.4472  3.2223
  800MOL0     H10378   1.475   8.523   3.568 -0.4734 -0.0905  1.2668
  800MOL0     H10379   1.535   8.456   3.715 -1.0126 -0.6331 -0.3671
  800MOL0     H10380   0.969   9.250   3.232  0.0826  0.6816  1.1343
  800MOL0     H10381   0.747   9.318   3.152  2.0925  0.1559 -1.4806
  800MOL0     H10382   0.358   9.248   3.024 -0.3981  0.6898 -0.1410
  800MOL0     H10383   0.153   9.296   2.913 -0.6747 -1.2019 -0.3152
  800MOL0     H10384   0.627   8.933   2.867 -1.9877  0.6516  0.6548
  800MOL0     H10385   0.835   8.879   2.791 -3.6623 -0.2374  3.5370
  800MOL0     H10386   1.188   9.183   2.551 -0.7822  0.2131 -1.1194
  800MOL0     H10387   1.401   9.198   2.430  3.1878 -1.3686 -0.7721
  800MOL0     H10388   1.543   8.830   2.209  3.4063 -1.0793  1.8356
  800MOL0     H10389   1.537   9.000   2.131  2.0623  0.5586 -0.1931
  800MOL0     H10390   1.786   8.868   2.116 -0.1174  0.8361 -0.7458
  800MOL0     H10391   1.785   8.940   2.279 -2.2569 -2.9233  0.8673
  800MOL0     H10392   1.728   9.069   2.009 -0.5857  2.4485 -0.3672
  800MOL0     H10393   1.721   9.150   2.166  0.9513 -0.6149  1.6534
  800MOL0     H10394   1.932   9.173   2.034  0.4161  0.9773  0.5162
  800MOL0     H10395   1.971   9.000   2.063  2.6539  0.7507  0.3152
  800MOL0     H10396   2.100   9.219   2.409  3.0903 -1.4849 -0.6621
  800MOL0     H10397   1.408   8.778   2.370  1.0008  0.6675  0.2668
  800MOL0     H10398   1.105   8.688   2.489 -0.8122  1.0325  0.7766
  800MOL0     H10399   1.058   8.762   2.335 -0.8297  5.9802  2.0448
  800MOL0     H10400   1.219   8.674   2.348 -0.6866 -2.0220  0.6883
  801MOL0     O10401   3.712   9.078   2.846  0.0644 -0.2875 -0.3363
  801MOL0     C10402   3.612   9.146   2.862 -0.2272 -0.2685 -0.0012
  801MOL0     O10403   3.597   9.235   2.964  0.0366 -0.4310 -0.4033
  801MOL0     C10404   3.638   9.208   3.096  0.5477  0.0218  0.5970
  801MOL0     C10405   3.682   9.085   3.150  0.3859  0.1160  0.3361
  801MOL0     C10406   3.730   9.069   3.274  0.2187 -0.4293  0.2630
  801MOL0     C10407   3.748   9.179   3.360  0.6394 -0.5458 -0.0987
  801MOL0     O10408   3.807   9.166   3.483 -0.1679  0.4899 -0.0135
  801MOL0     C10409   3.840   9.285   3.566 -0.9750  0.1512  0.9663
  801MOL0     C10410   3.880   9.228   3.708 -0.6059 -0.0042 -0.1233
  801MOL0     C10411   3.877   9.324   3.832  0.4717  0.3935  0.8393
  801MOL0     C10412   3.951   9.449   3.833 -0.3166 -0.5925  1.3266
  801MOL0     C10413   3.929   9.537   3.958  0.9355  0.2309  0.2227
  801MOL0     C10414   4.048   9.631   3.976 -0.3572  0.3829 -1.0573
  801MOL0     C10415   4.009   9.730   4.094 -0.4272 -0.5267  0.6960
  801MOL0     C10416   4.137   9.803   4.124 -0.4421 -1.0477 -0.2177
  801MOL0     N10417   4.110   9.893   4.238 -0.3276  0.3172 -0.0678
  801MOL0     C10418   4.058  10.017   4.237  0.8035 -0.7068 -0.0077
  801MOL0     C10419   4.025  10.052   4.360  1.3573 -0.7011 -0.1693
  801MOL0     C10420   3.971  10.180   4.402  0.8147  0.2866  0.8083
  801MOL0     C10421   3.811  10.164   4.412 -0.0276  0.0628  0.5844
  801MOL0     C10422   3.768  10.115   4.556 -0.2106  0.2028  0.9148
  801MOL0     C10423   3.620  10.129   4.554  0.3755  0.1837 -0.1519
  801MOL0     O10424   3.581  10.156   4.685 -0.0587 -0.5983  0.4725
  801MOL0     C10425   3.445  10.170   4.688 -0.3846 -0.2750  0.6186
  801MOL0     C10426   3.402  10.226   4.815 -0.6992  0.0067  0.1379
  801MOL0     C10427   3.272  10.265   4.842 -0.0438 -0.0218 -0.3688
  801MOL0     C10428   3.246  10.323   4.978  1.0960  0.3496 -0.6176
  801MOL0     C10429   3.174  10.242   4.745 -0.3548 -0.2775  0.0366
  801MOL0     C10430   3.026  10.270   4.768  0.0854 -0.3373 -0.2823
  801MOL0     O10431   2.930  10.219   4.671 -0.4094 -0.0501 -0.3418
  801MOL0     C10432   2.801  10.263   4.677 -0.0463  0.3779  0.1509
  801MOL0     C10433   2.699  10.168   4.665  0.4795  0.4308 -0.1104
  801MOL0     C10434   2.566  10.203   4.654  0.4251 -0.0401 -0.9532
  801MOL0     C10435   2.518  10.336   4.655 -0.3642  0.2380  0.5668
  801MOL0     O10436   2.384  10.372   4.633 -0.3377  0.1031  0.9841
  801MOL0     C10437   2.291  10.270   4.594 -0.3428  0.4774  0.2833
  801MOL0     C10438   2.192  10.215   4.705  0.4215 -0.1433 -0.0229
  801MOL0     C10439   2.070  10.166   4.626  0.5084  0.1874  0.4009
  801MOL0     C10440   1.948  10.130   4.714  0.0374  0.3500 -0.0770
  801MOL0     C10441   1.823  10.114   4.624  0.1603  0.1405 -0.1952
  801MOL0     C10442   1.758  10.255   4.607  1.1634  0.1192  0.6436
  801MOL0     C10443   1.605  10.239   4.584  0.5196 -0.5226 -0.6864
  801MOL0     C10444   1.560  10.385   4.583  0.6043 -0.4314  0.5131
  801MOL0    Cl10445   1.384  10.385   4.532  0.6423 -0.2810 -0.1075
  801MOL0     C10446   2.621  10.428   4.686 -0.0781  0.5847  0.0472
  801MOL0     C10447   2.759  10.392   4.686  0.2596  0.2046  0.6807
  801MOL0     O10448   2.988  10.336   4.863  0.2911  0.3784 -0.4054
  801MOL0     C10449   3.207  10.184   4.622 -0.2876  0.3215 -0.1321
  801MOL0     C10450   3.337  10.143   4.606  1.0614 -1.0023  0.3057
  801MOL0     N10451   4.064   9.949   4.448 -0.8258  0.3066  0.4788
  801MOL0     N10452   4.122   9.860   4.372  0.2996  0.8736  0.0615
  801MOL0     C10453   3.698   9.303   3.310 -0.4596 -0.6783  0.2480
  801MOL0     C10454   3.632   9.316   3.191 -0.3331 -0.8361  0.3966
  801MOL0     C10455   3.511   9.150   2.761  0.1716 -0.6086  1.2454
  801MOL0     C10456   3.375   9.163   2.785  0.5140 -0.0146 -1.0115
  801MOL0     C10457   3.274   9.146   2.693  0.6880 -0.0237  0.6762
  801MOL0     C10458   3.303   9.117   2.559 -0.7357  0.4459 -0.6604
  801MOL0     O10459   3.220   9.101   2.453 -0.5336  0.2070 -0.1879
  801MOL0     C10460   3.105   9.181   2.445  0.1746 -0.1608  0.5427
  801MOL0     C10461   3.019   9.144   2.330 -0.1202  0.6228 -0.6438
  801MOL0     C10462   3.105   9.155   2.201  0.3722 -0.2687  0.0177
  801MOL0     C10463   3.026   9.126   2.077 -0.2838  0.7121 -0.0153
  801MOL0     C10464   2.979   9.237   2.007 -0.1558  0.2045  0.6774
  801MOL0     C10465   2.931   9.327   1.933  0.3544  0.3304 -0.1109
  801MOL0     C10466   3.442   9.102   2.527 -0.0381 -0.1215 -0.1582
  801MOL0     C10467   3.545   9.126   2.624  0.1477  0.1488 -0.1371
  801MOL0     C10468   3.688   9.135   2.572 -0.0254 -0.3564  0.6677
  801MOL0     H10469   3.693   9.000   3.083 -0.6747 -1.3450  1.9209
  801MOL0     H10470   3.768   8.971   3.299  0.4166 -0.4769 -0.2112
  801MOL0     H10471   3.760   9.359   3.578 -0.1634  0.9783  1.3256
  801MOL0     H10472   3.931   9.335   3.533 -1.7177  0.9116 -0.0065
  801MOL0     H10473   3.811   9.146   3.729 -1.2259  0.7368  0.7788
  801MOL0     H10474   3.981   9.184   3.705 -1.8243 -3.2965  1.7462
  801MOL0     H10475   3.777   9.363   3.852  1.4424  2.8933  1.1671
  801MOL0     H10476   3.903   9.273   3.925 -0.6635 -1.1624  0.3550
  801MOL0     H10477   4.054   9.416   3.819 -0.6208 -0.6029 -1.4159
  801MOL0     H10478   3.923   9.508   3.746  0.1138 -0.1751  1.4704
  801MOL0     H10479   3.920   9.477   4.049  1.3835 -2.2702 -1.2572
  801MOL0     H10480   3.831   9.582   3.941 -0.1184 -0.9834  2.5846
  801MOL0     H10481   4.135   9.567   3.994 -0.8002 -0.2179 -1.0124
  801MOL0     H10482   4.066   9.695   3.889  0.5870  2.2728  0.4655
  801MOL0     H10483   3.978   9.675   4.183  2.3149 -1.2578  1.2842
  801MOL0     H10484   3.930   9.797   4.057 -1.1324 -2.6589 -2.0126
  801MOL0     H10485   4.221   9.737   4.145 -0.9571 -2.1200 -1.4000
  801MOL0     H10486   4.166   9.871   4.044 -0.6829  1.5181  1.7330
  801MOL0     H10487   4.045  10.080   4.149  2.6513  0.2571  0.3688
  801MOL0     H10488   3.987  10.266   4.336 -4.4749  1.8933  1.0881
  801MOL0     H10489   4.009  10.208   4.501 -0.9480 -2.0288  2.2323
  801MOL0     H10490   3.766  10.263   4.396  0.6670  0.1238 -1.2103
  801MOL0     H10491   3.763  10.102   4.336  1.1268  1.2665 -1.1977
  801MOL0     H10492   3.796  10.009   4.557 -1.7353 -0.2359  0.1538
  801MOL0     H10493   3.813  10.177   4.634  0.2470  2.6049 -1.1176
  801MOL0     H10494   3.576  10.208   4.492 -2.9089 -2.3876 -1.3898
  801MOL0     H10495   3.575  10.036   4.519  1.4452 -0.1720 -0.6327
  801MOL0     H10496   3.487  10.251   4.878 -1.3147 -2.0249  1.8759
  801MOL0     H10497   3.228  10.431   4.978 -1.1995  0.0470  1.3910
  801MOL0     H10498   3.344  10.315   5.027 -0.6924 -2.3975  2.9412
  801MOL0     H10499   3.171  10.271   5.038  1.0160  3.7487  2.6769
  801MOL0     H10500   2.721  10.062   4.667  2.3196  0.6950 -2.1315
  801MOL0     H10501   2.487  10.129   4.655  0.5122 -0.1798  1.2074
  801MOL0     H10502   2.223  10.322   4.526 -1.6076 -3.0476 -1.4298
  801MOL0     H10503   2.333  10.191   4.530 -1.0080  0.0408  0.3715
  801MOL0     H10504   2.235  10.125   4.749  0.1073 -1.1677 -1.7309
  801MOL0     H10505   2.162  10.283   4.785 -1.3969 -3.0838  1.9806
  801MOL0     H10506   2.097  10.084   4.559 -2.2285  0.7097 -1.5209
  801MOL0     H10507   2.031  10.249   4.566  0.2756  0.0235  0.3202
  801MOL0     H10508   1.938  10.203   4.795 -0.6573 -1.0467  1.1352
  801MOL0     H10509   1.983  10.048   4.777 -0.1293  0.7110  0.4946
  801MOL0     H10510   1.836  10.061   4.529 -4.1681  0.8835 -1.4350
  801MOL0     H10511   1.740  10.059   4.668  1.6832 -0.2725  2.3890
  801MOL0     H10512   1.810  10.303   4.524  0.6959 -0.2873  0.1042
  801MOL0     H10513   1.772  10.313   4.699 -0.2690  0.6889  0.5386
  801MOL0     H10514   1.551  10.178   4.659 -2.0922 -1.8252 -3.4110
  801MOL0     H10515   1.586  10.186   4.490 -0.0698  1.4869 -1.7516
  801MOL0     H10516   1.614  10.448   4.513 -0.0755  2.3784  2.3643
  801MOL0     H10517   1.585  10.437   4.676  0.2112 -3.0279  2.1712
  801MOL0     H10518   2.597  10.533   4.692 -1.7031  0.1444  3.2731
  801MOL0     H10519   2.826  10.472   4.713 -0.6389  0.4396  2.3679
  801MOL0     H10520   3.130  10.163   4.548 -1.5030 -1.2218  1.4706
  801MOL0     H10521   3.345  10.103   4.505  0.3858  2.9688 -1.5099
  801MOL0     H10522   3.710   9.395   3.366  0.1823  0.1817 -1.2494
  801MOL0     H10523   3.596   9.414   3.164  2.4902  0.9743  2.5613
  801MOL0     H10524   3.353   9.183   2.889 -3.0064  1.2790 -1.8596
  801MOL0     H10525   3.168   9.148   2.717  0.4347 -0.2686 -0.3774
  801MOL0     H10526   3.050   9.184   2.539 -0.0280  2.3697  0.4218
  801MOL0     H10527   3.133   9.286   2.428  0.4823 -0.4629 -0.9823
  801MOL0     H10528   2.945   9.223   2.316  1.0096  1.6622 -0.9542
  801MOL0     H10529   2.977   9.044   2.338 -0.1777  0.8044  3.4785
  801MOL0     H10530   3.150   9.255   2.194  0.9410 -0.4883  0.4166
  801MOL0     H10531   3.182   9.078   2.207  1.9143  1.2931  3.5761
  801MOL0     H10532   2.937   9.063   2.084  0.8629 -1.2291 -1.7639
  801MOL0     H10533   3.100   9.074   2.015  0.8929  1.6354  0.5726
  801MOL0     H10534   2.905   9.408   1.868  1.0385  0.5801 -0.0892
  801MOL0     H10535   3.463   9.067   2.427 -0.9630  0.8126 -0.7060
  801MOL0     H10536   3.737   9.218   2.624 -1.3224  1.4875 -0.9005
  801MOL0     H10537   3.733   9.035   2.576 -2.1416 -1.5504 -1.9949
  801MOL0     H10538   3.693   9.165   2.467  2.8299 -1.6117  0.3349
  802MOL0     O10539   6.533   9.821  11.187 -0.2811 -0.1853 -0.2924
  802MOL0     C10540   6.478   9.710  11.198  0.6463 -0.1537  0.1469
  802MOL0     O10541   6.458   9.614  11.101  0.3130  0.6391  0.3327
  802MOL0     C10542   6.503   9.614  10.975  0.1054  0.1544  1.0316
  802MOL0     C10543   6.636   9.651  10.952 -0.4359  0.5290 -0.4339
  802MOL0     C10544   6.680   9.680  10.822 -0.2167 -0.9643  0.1710
  802MOL0     C10545   6.589   9.665  10.709  0.7011 -0.2694 -0.4627
  802MOL0     O10546   6.622   9.684  10.575 -0.0478 -0.6593 -0.2866
  802MOL0     C10547   6.741   9.753  10.554 -0.6654  0.1858  0.4327
  802MOL0     C10548   6.779   9.756  10.408  0.2377  0.5629 -0.5890
  802MOL0     C10549   6.923   9.809  10.393 -0.4010  0.2209 -0.9667
  802MOL0     C10550   6.977   9.806  10.251  0.3429  0.1966  0.3185
  802MOL0     C10551   7.124   9.850  10.243 -0.8543  1.2432  0.5051
  802MOL0     C10552   7.125  10.008  10.257 -0.6657  0.4552  1.5470
  802MOL0     C10553   7.261  10.080  10.213 -0.0904 -0.3322  0.3135
  802MOL0     C10554   7.355  10.059  10.331 -0.0444 -0.1591 -0.3900
  802MOL0     N10555   7.486  10.134  10.307  0.1036 -0.4287  0.5404
  802MOL0     C10556   7.507  10.270  10.337  0.4890  0.5161  0.0999
  802MOL0     C10557   7.621  10.285  10.270 -0.2479  0.4815  0.0097
  802MOL0     C10558   7.670  10.425  10.243  0.1900  0.5028  0.4834
  802MOL0     C10559   7.592  10.495  10.133  0.0017 -0.6823 -0.2483
  802MOL0     C10560   7.598  10.440   9.993  0.3756  0.2409  0.2679
  802MOL0     C10561   7.732  10.388   9.947 -0.1193  0.3891  0.1102
  802MOL0     O10562   7.822  10.499   9.942 -0.7624  0.0979 -0.4277
  802MOL0     C10563   7.828  10.570   9.823  0.0983 -0.0464  0.2567
  802MOL0     C10564   7.735  10.548   9.719  0.0441  0.0166  0.6019
  802MOL0     C10565   7.746  10.629   9.603 -0.1736  0.2652  0.7121
  802MOL0     C10566   7.661  10.587   9.484  0.1376 -0.3866 -0.8903
  802MOL0     C10567   7.856  10.730   9.582  0.4045  1.1398 -0.1884
  802MOL0     C10568   7.873  10.819   9.463  0.8635  1.3093 -0.3137
  802MOL0     O10569   8.000  10.858   9.436 -0.1462  0.0205  0.6397
  802MOL0     C10570   8.021  10.951   9.337 -0.8903 -0.2222  0.8933
  802MOL0     C10571   8.133  10.943   9.253 -0.9259 -0.3015 -0.2730
  802MOL0     C10572   8.162  11.043   9.157  0.3356 -0.5772  0.3890
  802MOL0     C10573   8.077  11.151   9.146 -0.3262 -0.1068  0.0463
  802MOL0     O10574   8.096  11.233   9.040  0.8220 -0.1460  0.1762
  802MOL0     C10575   8.182  11.342   9.090  0.4708  1.2481 -1.0463
  802MOL0     C10576   8.151  11.481   9.023 -0.8824 -0.4728 -0.2918
  802MOL0     C10577   8.199  11.472   8.875 -1.1884  0.7445  0.2266
  802MOL0     C10578   8.349  11.491   8.868 -0.5666  0.8968 -0.6130
  802MOL0     C10579   8.399  11.552   8.734  0.0746 -0.1685 -0.9106
  802MOL0     C10580   8.547  11.546   8.740  0.4886 -0.2784  0.1083
  802MOL0     C10581   8.582  11.643   8.623  0.4145 -0.0671 -0.4898
  802MOL0     C10582   8.724  11.682   8.638  0.2163  1.1752 -0.3829
  802MOL0    Cl10583   8.839  11.546   8.658  0.3969 -0.4702  0.2207
  802MOL0     C10584   7.961  11.160   9.226 -0.2998  0.2074 -0.7162
  802MOL0     C10585   7.940  11.059   9.326 -0.1658  0.1852  1.2775
  802MOL0     O10586   7.772  10.840   9.394  0.3099 -0.3175  0.3711
  802MOL0     C10587   7.948  10.735   9.684  0.4978  0.7986 -0.3634
  802MOL0     C10588   7.935  10.653   9.802  0.7611 -0.3195  0.3383
  802MOL0     N10589   7.689  10.166  10.233  0.1622 -0.2069  0.0896
  802MOL0     N10590   7.592  10.083  10.238  0.4450 -0.4357 -0.6938
  802MOL0     C10591   6.459   9.623  10.732 -0.2960  0.0337  0.3333
  802MOL0     C10592   6.415   9.603  10.863  0.1125  0.3913  0.2737
  802MOL0     C10593   6.439   9.666  11.331 -0.1258  0.8542  0.0101
  802MOL0     C10594   6.338   9.736  11.409 -0.0145 -0.4396  0.2057
  802MOL0     C10595   6.284   9.673  11.526 -0.2921 -0.8468  0.2743
  802MOL0     C10596   6.336   9.545  11.562  0.1895 -0.1015  0.0226
  802MOL0     O10597   6.292   9.490  11.674 -0.5893  0.0157  0.0713
  802MOL0     C10598   6.253   9.585  11.779 -0.2650  0.0400 -0.4255
  802MOL0     C10599   6.276   9.519  11.915 -0.2828 -0.4389 -0.2524
  802MOL0     C10600   6.232   9.627  12.003  0.1364 -0.4563  0.6486
  802MOL0     C10601   6.252   9.576  12.150  0.6814 -0.2117  0.5616
  802MOL0     C10602   6.155   9.641  12.237  0.1643 -0.3187  0.0540
  802MOL0     C10603   6.105   9.708  12.325 -0.3266  0.5850  0.1997
  802MOL0     C10604   6.456   9.490  11.497 -0.0258  0.0139 -0.4728
  802MOL0     C10605   6.506   9.552  11.381  0.3115 -0.1027  0.5384
  802MOL0     C10606   6.638   9.494  11.320  0.0600 -0.3278 -0.1628
  802MOL0     H10607   6.706   9.662  11.035  4.5829  2.8448 -4.4121
  802MOL0     H10608   6.779   9.716  10.800  0.4441 -0.1409  3.8509
  802MOL0     H10609   6.822   9.696  10.601 -0.4575  0.7205  0.7323
  802MOL0     H10610   6.728   9.857  10.587 -2.9091  0.5305 -1.2865
  802MOL0     H10611   6.762   9.654  10.371 -0.3777  0.0030  1.1321
  802MOL0     H10612   6.714   9.830  10.362  0.2525 -0.4566 -2.3307
  802MOL0     H10613   6.921   9.913  10.428 -1.9035 -0.5216  1.3545
  802MOL0     H10614   6.990   9.762  10.465 -0.8868  0.8946 -0.0523
  802MOL0     H10615   6.977   9.706  10.207 -0.0820  0.2951  0.0822
  802MOL0     H10616   6.909   9.863  10.187  1.6964  2.3432  0.7017
  802MOL0     H10617   7.166   9.806  10.152 -0.0080 -4.0257  3.0842
  802MOL0     H10618   7.187   9.801  10.318  0.5931 -0.6532 -1.8000
  802MOL0     H10619   7.041  10.047  10.199  0.5559  1.9106  0.6900
  802MOL0     H10620   7.106  10.040  10.360 -2.8360  0.2317  1.2784
  802MOL0     H10621   7.249  10.186  10.186  2.7756  0.3955  1.5107
  802MOL0     H10622   7.303  10.038  10.121 -1.0172  0.9464 -0.7255
  802MOL0     H10623   7.307  10.095  10.422  3.9661 -0.0253  1.9069
  802MOL0     H10624   7.384   9.954  10.342  0.8317  0.0104 -0.9791
  802MOL0     H10625   7.451  10.349  10.386  2.8150  1.6582  1.0383
  802MOL0     H10626   7.774  10.422  10.211 -0.1950 -0.0666 -0.7628
  802MOL0     H10627   7.651  10.477  10.338  0.6229 -1.7648  1.8929
  802MOL0     H10628   7.486  10.501  10.161 -0.5525 -1.9457 -1.9237
  802MOL0     H10629   7.618  10.601  10.126 -0.5721 -0.6096 -1.8778
  802MOL0     H10630   7.515  10.368   9.988  0.3081  0.0619  2.8888
  802MOL0     H10631   7.578  10.515   9.916 -2.3833  1.1243  1.6987
  802MOL0     H10632   7.757  10.303  10.012  2.1948 -1.4260 -2.8549
  802MOL0     H10633   7.716  10.327   9.857  0.5458  1.5135 -0.7953
  802MOL0     H10634   7.655  10.475   9.725  0.6458 -0.6404  0.8995
  802MOL0     H10635   7.725  10.557   9.401 -0.5425 -2.6404 -0.6487
  802MOL0     H10636   7.605  10.680   9.470  3.0168  1.9992  1.5997
  802MOL0     H10637   7.600  10.501   9.513  0.1494 -0.8876 -2.3097
  802MOL0     H10638   8.194  10.854   9.264  0.8025  0.5178 -2.4305
  802MOL0     H10639   8.242  11.022   9.086  0.5485 -0.0404  0.4620
  802MOL0     H10640   8.168  11.360   9.197  0.2993 -0.0454 -0.8318
  802MOL0     H10641   8.288  11.316   9.088  0.7615  2.3028 -0.2584
  802MOL0     H10642   8.045  11.509   9.022 -0.5519  1.0321  1.7999
  802MOL0     H10643   8.202  11.556   9.084 -2.0743 -1.8535  2.6100
  802MOL0     H10644   8.141  11.536   8.808 -0.8359 -2.4052 -3.4407
  802MOL0     H10645   8.184  11.373   8.832  1.0598  0.0326  0.9525
  802MOL0     H10646   8.383  11.389   8.887 -3.7024 -0.7901 -3.0615
  802MOL0     H10647   8.377  11.563   8.945 -1.0487  1.0263 -0.5574
  802MOL0     H10648   8.350  11.485   8.662 -1.5673  0.6233 -0.5704
  802MOL0     H10649   8.368  11.656   8.728 -1.4290 -0.5539 -0.3734
  802MOL0     H10650   8.584  11.444   8.722  0.0656 -1.1308  3.5028
  802MOL0     H10651   8.586  11.571   8.839  1.6152 -2.6096  0.3251
  802MOL0     H10652   8.528  11.738   8.634  2.4391  1.0066  0.7480
  802MOL0     H10653   8.577  11.602   8.522  1.0886  0.2434 -0.6548
  802MOL0     H10654   8.734  11.747   8.726 -2.3240 -0.8291  1.5470
  802MOL0     H10655   8.751  11.732   8.544  4.5434 -3.1307 -1.8328
  802MOL0     H10656   7.896  11.243   9.203 -0.0640  0.1473 -1.6191
  802MOL0     H10657   7.849  11.062   9.384 -2.5544 -1.9357 -1.9790
  802MOL0     H10658   8.027  10.809   9.674  1.1305  0.1655 -0.1337
  802MOL0     H10659   7.999  10.653   9.890  2.7088 -0.1992 -1.0131
  802MOL0     H10660   6.401   9.607  10.642 -0.5254 -0.5803  0.5828
  802MOL0     H10661   6.308   9.589  10.879 -0.0948 -1.2648 -2.0761
  802MOL0     H10662   6.284   9.825  11.377 -3.1883 -2.4313 -0.4701
  802MOL0     H10663   6.202   9.727  11.572 -1.6048 -1.2910 -1.4553
  802MOL0     H10664   6.325   9.667  11.774 -1.0157  0.6972 -4.1762
  802MOL0     H10665   6.150   9.621  11.765 -1.7472 -3.4226  0.3172
  802MOL0     H10666   6.381   9.493  11.935 -0.4609  1.2436  3.8019
  802MOL0     H10667   6.206   9.436  11.916 -0.9726  0.1266 -0.7011
  802MOL0     H10668   6.284   9.723  11.993 -0.8638  0.2430  1.8816
  802MOL0     H10669   6.125   9.645  11.987  0.1173 -0.1069  1.1651
  802MOL0     H10670   6.355   9.597  12.179  0.3292  0.4121  1.3926
  802MOL0     H10671   6.233   9.468  12.158 -0.4853 -0.1341 -0.8033
  802MOL0     H10672   6.047   9.764  12.395  0.6304  1.0304  0.6593
  802MOL0     H10673   6.505   9.398  11.528 -2.3573 -0.9799  0.4991
  802MOL0     H10674   6.689   9.563  11.253  2.3847 -0.2240  1.6133
  802MOL0     H10675   6.710   9.482  11.401 -0.4670  1.2608  0.5831
  802MOL0     H10676   6.629   9.393  11.278 -0.3669 -0.5786  0.5190
  803MOL0     O10677  10.794   7.405   9.095  0.3274  0.6721 -0.7916
  803MOL0     C10678  10.781   7.315   9.006 -0.4717 -0.1206  0.8024
  803MOL0     O10679  10.693   7.318   8.900 -0.6725 -0.0482 -0.2630
  803MOL0     C10680  10.631   7.428   8.843  0.2771  0.8306  0.1205
  803MOL0     C10681  10.668   7.561   8.877  0.1339  0.1864  0.4872
  803MOL0     C10682  10.592   7.673   8.831 -0.8846 -0.3649 -0.8204
  803MOL0     C10683  10.481   7.651   8.744  0.2362  0.4871  0.1541
  803MOL0     O10684  10.400   7.762   8.703 -0.4182 -0.0789  0.9886
  803MOL0     C10685  10.329   7.829   8.807  0.4142  0.5402 -0.6840
  803MOL0     C10686  10.181   7.839   8.763 -1.0161  0.2738 -0.0325
  803MOL0     C10687  10.129   7.968   8.691  1.0133  1.0154 -0.7297
  803MOL0     C10688   9.993   7.942   8.622 -0.1661  0.1824  0.3119
  803MOL0     C10689   9.954   8.062   8.527 -0.9716  0.4345 -0.3631
  803MOL0     C10690   9.943   8.190   8.597 -0.4814 -0.2864  0.7689
  803MOL0     C10691   9.836   8.192   8.704  0.1766  0.1657  0.8529
  803MOL0     C10692   9.796   8.332   8.755 -0.1143  0.0417 -0.1157
  803MOL0     N10693   9.912   8.405   8.822  1.1424  0.4473 -0.1342
  803MOL0     C10694   9.949   8.411   8.957 -0.2550 -0.7831  0.1618
  803MOL0     C10695  10.066   8.476   8.961  0.3784 -0.7786  0.0782
  803MOL0     C10696  10.135   8.508   9.093  0.7646 -0.4343  0.4867
  803MOL0     C10697  10.285   8.531   9.069  0.3153  0.7062 -0.1941
  803MOL0     C10698  10.363   8.408   9.011  0.4117 -0.3720  0.3038
  803MOL0     C10699  10.519   8.433   9.000 -0.1515  0.7241  0.6619
  803MOL0     O10700  10.570   8.427   9.136 -0.0045 -0.4931 -0.5051
  803MOL0     C10701  10.694   8.389   9.182 -0.9205  0.3314 -0.9528
  803MOL0     C10702  10.691   8.317   9.297 -0.7257  0.3590  0.6270
  803MOL0     C10703  10.803   8.262   9.349  0.4990  0.4365 -0.2159
  803MOL0     C10704  10.787   8.172   9.467  0.3251 -0.1212 -0.4083
  803MOL0     C10705  10.924   8.268   9.283  1.5521  0.0046  0.1433
  803MOL0     C10706  11.050   8.206   9.329  0.3037  0.9311  0.3363
  803MOL0     O10707  11.135   8.165   9.231 -0.4983  0.3834 -0.5068
  803MOL0     C10708  11.265   8.128   9.270  1.0532 -0.7380  0.2225
  803MOL0     C10709  11.300   7.989   9.267  0.7518 -1.1106  0.1833
  803MOL0     C10710  11.434   7.949   9.278  0.6586 -0.6326 -0.9882
  803MOL0     C10711  11.533   8.055   9.291 -0.8042  0.4002 -0.9916
  803MOL0     O10712  11.667   8.032   9.324  0.8003 -0.2537 -0.4069
  803MOL0     C10713  11.724   7.920   9.259 -0.3554  0.6991 -0.5519
  803MOL0     C10714  11.876   7.926   9.271  0.0443 -0.3112  0.9938
  803MOL0     C10715  11.934   7.800   9.204  0.2387 -0.6513 -0.4545
  803MOL0     C10716  12.091   7.809   9.217 -0.3700 -0.6970  1.3226
  803MOL0     C10717  12.158   7.701   9.129 -0.0198  1.1507 -0.1638
  803MOL0     C10718  12.282   7.636   9.190 -0.3291 -0.0495  0.7242
  803MOL0     C10719  12.348   7.532   9.102 -1.0380  0.1744  0.0863
  803MOL0     C10720  12.381   7.591   8.961 -0.1392 -0.6975 -0.2633
  803MOL0    Cl10721  12.467   7.482   8.853  0.1795  0.0973 -0.4582
  803MOL0     C10722  11.496   8.184   9.282  0.8886 -0.0513  0.0224
  803MOL0     C10723  11.358   8.222   9.271 -0.0384  0.6450 -0.1972
  803MOL0     O10724  11.063   8.192   9.447  0.5527  0.2868  0.4753
  803MOL0     C10725  10.925   8.337   9.162  0.1458  0.9407  0.3008
  803MOL0     C10726  10.813   8.399   9.115 -0.2572  0.2222  0.4164
  803MOL0     N10727  10.096   8.503   8.828  0.6722 -0.9317  0.3905
  803MOL0     N10728  10.020   8.447   8.746 -0.4365 -0.0593  0.9777
  803MOL0     C10729  10.453   7.518   8.709 -0.3185 -0.1110 -0.5805
  803MOL0     C10730  10.526   7.411   8.763  0.6273  0.2278  0.1037
  803MOL0     C10731  10.846   7.180   9.037 -0.2606  0.6011 -0.0184
  803MOL0     C10732  10.784   7.062   9.006 -1.0067  0.1135 -0.6675
  803MOL0     C10733  10.843   6.939   9.030  0.0379  0.2307 -0.2221
  803MOL0     C10734  10.981   6.927   9.072 -0.2000  0.2244 -0.5203
  803MOL0     O10735  11.022   6.800   9.117 -0.6536  0.4351 -0.4470
  803MOL0     C10736  11.169   6.793   9.137  0.1580  0.0184 -0.2307
  803MOL0     C10737  11.219   6.650   9.155 -0.6997  0.2547 -0.5664
  803MOL0     C10738  11.151   6.588   9.277 -0.0185 -0.1306  0.3579
  803MOL0     C10739  11.107   6.435   9.251 -0.0257 -0.5126  0.2572
  803MOL0     C10740  11.227   6.352   9.249 -0.1560  0.1979 -0.0981
  803MOL0     C10741  11.328   6.283   9.247 -0.0106  0.3303 -0.5378
  803MOL0     C10742  11.041   7.045   9.100  0.3595 -0.5140  0.0760
  803MOL0     C10743  10.981   7.173   9.079  0.1537  0.5089  1.5244
  803MOL0     C10744  11.084   7.286   9.080  0.6165  0.1855 -0.5119
  803MOL0     H10745  10.760   7.587   8.929  1.5608  1.5502 -2.4943
  803MOL0     H10746  10.621   7.772   8.863  0.3509 -0.4030 -1.7490
  803MOL0     H10747  10.381   7.924   8.822  1.6062 -0.0213 -1.1150
  803MOL0     H10748  10.335   7.770   8.898  3.8649  1.8275  0.1056
  803MOL0     H10749  10.167   7.747   8.704 -1.5004 -1.7393  3.0027
  803MOL0     H10750  10.117   7.805   8.845 -0.7240 -1.2698 -0.4111
  803MOL0     H10751  10.115   8.040   8.772 -0.8666 -1.1447  1.0107
  803MOL0     H10752  10.210   7.992   8.621  1.9492  1.5723  0.5100
  803MOL0     H10753   9.991   7.847   8.567 -0.3394 -0.7104  1.7954
  803MOL0     H10754   9.917   7.919   8.697  0.4349 -1.2598  0.5303
  803MOL0     H10755   9.864   8.037   8.470  0.0246  0.6038 -2.0634
  803MOL0     H10756  10.045   8.084   8.470  0.0692 -0.7203  0.7720
  803MOL0     H10757  10.039   8.226   8.635  1.0111 -2.3104 -0.8404
  803MOL0     H10758   9.911   8.260   8.520 -1.3588 -0.6634  0.7737
  803MOL0     H10759   9.878   8.136   8.788  1.2809  0.2963  0.4050
  803MOL0     H10760   9.757   8.141   8.649 -1.3719  1.6443  1.6198
  803MOL0     H10761   9.753   8.395   8.676  0.7211  0.6096 -0.1335
  803MOL0     H10762   9.720   8.322   8.832 -0.1502  0.4168 -0.0992
  803MOL0     H10763   9.898   8.380   9.047  1.1888  1.1023  1.7242
  803MOL0     H10764  10.114   8.431   9.167 -1.6796 -1.7767 -1.4521
  803MOL0     H10765  10.096   8.593   9.150  0.3060 -0.9019  0.8743
  803MOL0     H10766  10.291   8.615   9.000 -0.8697  0.3325 -0.7792
  803MOL0     H10767  10.322   8.564   9.167  0.4080 -1.5475  0.5920
  803MOL0     H10768  10.338   8.321   9.073  4.3620 -3.0560 -1.4437
  803MOL0     H10769  10.324   8.384   8.912  0.6696 -1.7882  0.5244
  803MOL0     H10770  10.561   8.351   8.940 -2.1632  0.0449  0.0791
  803MOL0     H10771  10.541   8.529   8.954 -2.9187  1.3880  0.5589
  803MOL0     H10772  10.596   8.310   9.350 -1.0617 -1.5314 -0.1320
  803MOL0     H10773  10.838   8.208   9.557 -0.3175 -1.4560  0.5294
  803MOL0     H10774  10.821   8.069   9.448 -2.6336 -1.3610  0.4607
  803MOL0     H10775  10.684   8.156   9.500  0.4537  0.3129  0.2151
  803MOL0     H10776  11.220   7.916   9.271 -0.1207 -0.1383  2.4174
  803MOL0     H10777  11.451   7.843   9.289  1.2940 -0.3608  1.0487
  803MOL0     H10778  11.694   7.829   9.311  2.4020 -0.4188 -0.7333
  803MOL0     H10779  11.701   7.906   9.153 -1.3191  1.7044 -0.4932
  803MOL0     H10780  11.917   8.018   9.228 -1.2991  0.6756  1.7531
  803MOL0     H10781  11.914   7.948   9.371  3.0604 -0.3390 -0.0226
  803MOL0     H10782  11.907   7.787   9.099  0.7093  1.6729 -0.9146
  803MOL0     H10783  11.904   7.712   9.262 -1.3989 -2.0759 -3.2405
  803MOL0     H10784  12.120   7.785   9.319  0.2924 -0.6668  1.1446
  803MOL0     H10785  12.138   7.903   9.188 -3.0432  0.3726  0.1490
  803MOL0     H10786  12.092   7.617   9.109  1.3601 -0.1450  0.4904
  803MOL0     H10787  12.179   7.752   9.034 -2.1376 -0.8868 -1.8388
  803MOL0     H10788  12.252   7.592   9.285  0.0774 -2.7867 -0.3358
  803MOL0     H10789  12.360   7.713   9.196  1.2388 -1.4293 -0.5659
  803MOL0     H10790  12.279   7.449   9.092 -1.2270  0.0181  2.3208
  803MOL0     H10791  12.436   7.498   9.157 -1.7579  0.3805  1.4072
  803MOL0     H10792  12.432   7.687   8.967 -1.5193  0.1213 -1.1512
  803MOL0     H10793  12.284   7.622   8.920 -0.2808 -1.5445 -0.5994
  803MOL0     H10794  11.573   8.260   9.278  2.8289 -1.9923 -1.9039
  803MOL0     H10795  11.325   8.325   9.263 -0.9185  0.3915  0.0256
  803MOL0     H10796  11.006   8.348   9.091  0.4276  0.5877  0.5705
  803MOL0     H10797  10.801   8.459   9.025  0.2363  0.8076  0.7318
  803MOL0     H10798  10.374   7.516   8.635  0.7232  1.5975 -1.8066
  803MOL0     H10799  10.498   7.308   8.743  6.3609 -1.0452 -3.6264
  803MOL0     H10800  10.694   7.071   8.946 -1.2695  0.5080 -0.2272
  803MOL0     H10801  10.794   6.847   9.003 -2.1093  1.2014  0.1153
  803MOL0     H10802  11.215   6.821   9.042  4.4848 -0.0429  1.5953
  803MOL0     H10803  11.207   6.861   9.214  1.3711 -1.4286  0.5021
  803MOL0     H10804  11.328   6.652   9.170 -0.8390  0.9013  0.4497
  803MOL0     H10805  11.199   6.594   9.063 -1.3202  1.0506 -0.9233
  803MOL0     H10806  11.224   6.596   9.359  1.2615  1.2220 -0.8426
  803MOL0     H10807  11.068   6.655   9.298 -0.7277  0.2375 -3.1198
  803MOL0     H10808  11.063   6.415   9.153 -0.0610 -1.5014  0.4638
  803MOL0     H10809  11.039   6.395   9.326  1.0591 -1.3991  0.8058
  803MOL0     H10810  11.416   6.223   9.249 -2.4215 -3.7075  3.5647
  803MOL0     H10811  11.141   7.052   9.141  0.1004  2.1629  0.4320
  803MOL0     H10812  11.183   7.249   9.108  0.5707  1.4296  1.5234
  803MOL0     H10813  11.093   7.325   8.979  0.0544 -1.5266 -1.2586
  803MOL0     H10814  11.048   7.363   9.150 -4.2598 -1.9524 -0.2165
  804MOL0     O10815   4.811   8.025   3.837  0.8093 -0.6126  0.1952
  804MOL0     C10816   4.760   7.929   3.774 -0.5479  0.5365 -0.3784
  804MOL0     O10817   4.636   7.876   3.813  0.0508  1.0533  0.2081
  804MOL0     C10818   4.575   7.937   3.917 -0.3925  0.3409  0.0211
  804MOL0     C10819   4.470   8.025   3.897  0.0779 -0.7658 -0.0817
  804MOL0     C10820   4.391   8.076   3.997 -0.5486 -0.0213  0.1799
  804MOL0     C10821   4.418   8.034   4.137  0.1809  0.5592  0.6081
  804MOL0     O10822   4.336   8.083   4.238  0.0809 -0.0154 -0.2251
  804MOL0     C10823   4.359   8.049   4.369  0.5910 -0.0188 -0.1225
  804MOL0     C10824   4.246   8.103   4.458  0.0583 -0.1407  0.2330
  804MOL0     C10825   4.271   8.085   4.613  0.0209 -0.3868 -0.9204
  804MOL0     C10826   4.275   7.944   4.658 -0.3850  1.2747  0.3254
  804MOL0     C10827   4.156   7.845   4.625  0.6603 -0.3028 -0.3761
  804MOL0     C10828   4.130   7.752   4.737  0.2832  0.7418 -0.2372
  804MOL0     C10829   4.014   7.665   4.691 -0.2407  0.6058 -0.1585
  804MOL0     C10830   3.901   7.693   4.787  0.8270  0.7761  0.1634
  804MOL0     N10831   3.806   7.805   4.757  0.4816  0.0982  0.1098
  804MOL0     C10832   3.850   7.940   4.762  0.4326 -0.2105 -0.2879
  804MOL0     C10833   3.739   8.010   4.723 -1.1404  0.2717  0.1981
  804MOL0     C10834   3.737   8.159   4.727  1.0198  1.2447 -0.2172
  804MOL0     C10835   3.865   8.206   4.653  0.0890  0.0770  0.2604
  804MOL0     C10836   3.864   8.363   4.655  0.3734 -0.0345  0.1480
  804MOL0     C10837   3.970   8.428   4.563 -0.0848  0.1604  0.3135
  804MOL0     O10838   4.109   8.395   4.603 -0.0222  0.1176  0.9330
  804MOL0     C10839   4.179   8.481   4.690  0.5217  0.0928 -0.1108
  804MOL0     C10840   4.316   8.464   4.705 -0.8915  0.2003 -1.3965
  804MOL0     C10841   4.394   8.543   4.791  0.0629 -0.4295 -0.6170
  804MOL0     C10842   4.541   8.506   4.810  0.5744  0.3054  0.1264
  804MOL0     C10843   4.326   8.642   4.866  0.4433 -1.1344  0.2828
  804MOL0     C10844   4.390   8.739   4.958 -0.2836 -0.6950 -0.2396
  804MOL0     O10845   4.308   8.826   5.022  0.2563 -0.1192  0.6089
  804MOL0     C10846   4.374   8.921   5.105 -0.0785  0.1014  0.7116
  804MOL0     C10847   4.428   8.876   5.229  1.3246 -0.3894 -1.2445
  804MOL0     C10848   4.473   8.973   5.318  0.2947  0.1828 -0.0819
  804MOL0     C10849   4.480   9.106   5.287 -0.0368 -0.4953 -0.8505
  804MOL0     O10850   4.539   9.191   5.381  0.1237 -0.1690  0.3509
  804MOL0     C10851   4.613   9.304   5.315  0.1289  0.0912  0.0752
  804MOL0     C10852   4.701   9.380   5.416  0.4996  0.5355  0.1001
  804MOL0     C10853   4.833   9.289   5.423  0.3045  0.1708  0.6995
  804MOL0     C10854   4.920   9.303   5.549  0.7603 -0.7080 -0.3392
  804MOL0     C10855   5.051   9.225   5.555  0.7229  1.1384 -0.5104
  804MOL0     C10856   5.106   9.236   5.700  1.0796 -0.0201  1.0385
  804MOL0     C10857   5.228   9.149   5.718 -0.1087 -0.2885  0.1849
  804MOL0     C10858   5.259   9.133   5.862  0.2855 -0.3963 -0.4033
  804MOL0    Cl10859   5.413   9.058   5.900  0.5012 -0.1453  0.0932
  804MOL0     C10860   4.421   9.150   5.167 -0.5431  0.3363  0.7187
  804MOL0     C10861   4.364   9.055   5.080  0.1375 -0.1370  0.6941
  804MOL0     O10862   4.515   8.746   4.972  0.4829 -0.5177  0.7949
  804MOL0     C10863   4.194   8.676   4.831  0.3077 -0.1122  1.0020
  804MOL0     C10864   4.115   8.593   4.747 -1.3346  0.0743  0.9160
  804MOL0     N10865   3.643   7.922   4.687 -0.5492 -0.2481 -0.2048
  804MOL0     N10866   3.680   7.797   4.699 -0.6482 -0.1439 -0.7054
  804MOL0     C10867   4.532   7.954   4.154 -0.2312 -0.9478 -0.4148
  804MOL0     C10868   4.610   7.902   4.052  1.3145  0.5085  0.2377
  804MOL0     C10869   4.826   7.872   3.646  0.8615 -1.0638  0.7298
  804MOL0     C10870   4.766   7.755   3.599 -0.5278 -0.1974 -0.4747
  804MOL0     C10871   4.814   7.697   3.484 -1.1155 -0.0781  0.3663
  804MOL0     C10872   4.928   7.744   3.418  1.2854 -0.9491  0.7549
  804MOL0     O10873   4.972   7.683   3.308  0.6792 -0.1263  0.4507
  804MOL0     C10874   5.111   7.673   3.264  1.0446  0.4757 -0.3501
  804MOL0     C10875   5.149   7.533   3.201  0.5885 -0.1717 -0.3351
  804MOL0     C10876   5.142   7.400   3.281  0.0283  0.8662 -0.1586
  804MOL0     C10877   5.233   7.382   3.394  0.7194  0.0944 -0.8445
  804MOL0     C10878   5.176   7.441   3.516 -1.7423 -0.0958 -0.6385
  804MOL0     C10879   5.125   7.493   3.609 -0.3866  0.7555 -0.2416
  804MOL0     C10880   4.985   7.862   3.470 -0.0837 -0.2095 -0.5699
  804MOL0     C10881   4.939   7.935   3.582  0.4799  0.0129 -0.5398
  804MOL0     C10882   5.003   8.053   3.628 -0.7305 -1.1457  0.0211
  804MOL0     H10883   4.451   8.058   3.795 -2.0914 -4.2213 -0.9603
  804MOL0     H10884   4.319   8.148   3.959 -0.7601 -0.5540 -0.4510
  804MOL0     H10885   4.452   8.093   4.405  0.9920 -1.5630  0.8560
  804MOL0     H10886   4.365   7.940   4.378 -0.4649 -0.2401 -1.6143
  804MOL0     H10887   4.246   8.208   4.429 -2.4369 -1.0678 -4.0974
  804MOL0     H10888   4.147   8.065   4.430  0.8398 -1.5822 -0.7605
  804MOL0     H10889   4.364   8.133   4.645  0.0341  0.6632 -2.4283
  804MOL0     H10890   4.183   8.129   4.659 -0.5937 -0.6297 -1.8437
  804MOL0     H10891   4.362   7.890   4.618 -1.1400 -1.3048  1.9380
  804MOL0     H10892   4.290   7.950   4.766 -0.1589  1.3452  0.2914
  804MOL0     H10893   4.174   7.789   4.533  1.3590  0.2456 -0.5818
  804MOL0     H10894   4.064   7.899   4.600 -0.4241  0.0541  3.5808
  804MOL0     H10895   4.223   7.696   4.755 -0.8190 -0.9774  0.4267
  804MOL0     H10896   4.111   7.808   4.829 -0.4216  1.2972 -0.7195
  804MOL0     H10897   4.045   7.562   4.710 -0.7316  0.2141 -1.4342
  804MOL0     H10898   3.994   7.680   4.585 -0.7307  0.9977 -0.0141
  804MOL0     H10899   3.841   7.603   4.800  2.6699 -0.7455 -1.3107
  804MOL0     H10900   3.940   7.702   4.888 -3.8529 -0.1736  2.3111
  804MOL0     H10901   3.941   7.980   4.806 -0.3121 -2.0119  3.2082
  804MOL0     H10902   3.740   8.200   4.828  0.1340 -2.3530  1.4529
  804MOL0     H10903   3.647   8.201   4.683  1.2944  0.6962 -1.3360
  804MOL0     H10904   3.952   8.171   4.709 -0.9418  1.5224  2.9916
  804MOL0     H10905   3.859   8.164   4.552 -2.7077  2.8279 -0.9149
  804MOL0     H10906   3.766   8.391   4.616 -0.3451 -1.3595  0.9369
  804MOL0     H10907   3.885   8.397   4.757 -2.7345 -0.9048  1.1911
  804MOL0     H10908   3.943   8.393   4.463 -4.8605  3.7747 -0.0179
  804MOL0     H10909   3.965   8.536   4.547 -1.3018  0.2587  1.2016
  804MOL0     H10910   4.360   8.387   4.643 -1.2870 -1.0149 -0.2096
  804MOL0     H10911   4.557   8.494   4.917 -4.6985  0.6780  1.2583
  804MOL0     H10912   4.592   8.590   4.762 -2.8172  1.3424 -2.0247
  804MOL0     H10913   4.563   8.411   4.761  0.4796  0.2953  0.1032
  804MOL0     H10914   4.430   8.770   5.256  2.1610 -0.1296 -0.2196
  804MOL0     H10915   4.509   8.928   5.410 -1.7724 -1.8266 -0.1648
  804MOL0     H10916   4.680   9.263   5.239  2.6014 -0.0323  2.1985
  804MOL0     H10917   4.545   9.371   5.261 -2.7497 -1.9731  0.9392
  804MOL0     H10918   4.721   9.480   5.376 -0.4375 -0.4976 -3.2967
  804MOL0     H10919   4.643   9.397   5.507 -2.3233 -0.3957 -1.4135
  804MOL0     H10920   4.880   9.297   5.324  0.7519 -1.8870  0.7042
  804MOL0     H10921   4.795   9.186   5.418  0.9744 -0.0141 -1.6999
  804MOL0     H10922   4.867   9.275   5.641  1.3361  2.2818  1.0245
  804MOL0     H10923   4.944   9.409   5.555  2.6382 -1.1543  4.4325
  804MOL0     H10924   5.033   9.121   5.527 -4.0730  2.0589 -1.7802
  804MOL0     H10925   5.127   9.268   5.489  1.4674 -0.5785 -0.8225
  804MOL0     H10926   5.028   9.196   5.766  0.1891  1.4722  0.9570
  804MOL0     H10927   5.136   9.339   5.722  0.2233  0.1248  1.5816
  804MOL0     H10928   5.313   9.180   5.657  0.3700 -3.0685 -0.6926
  804MOL0     H10929   5.206   9.054   5.667 -0.1107  0.6504 -1.6334
  804MOL0     H10930   5.188   9.059   5.900 -0.8097 -0.0425 -1.6800
  804MOL0     H10931   5.247   9.228   5.916 -2.3486  0.0346 -1.5873
  804MOL0     H10932   4.416   9.257   5.150 -0.3755  0.2353 -0.0074
  804MOL0     H10933   4.323   9.099   4.990  3.7861  1.2041 -0.5099
  804MOL0     H10934   4.143   8.754   4.887 -1.9368  0.9125 -2.1637
  804MOL0     H10935   4.011   8.623   4.751 -0.8228  2.1334  0.3128
  804MOL0     H10936   4.568   7.928   4.253 -1.1008 -1.7758 -0.2982
  804MOL0     H10937   4.706   7.856   4.069  2.7681  2.0061 -3.0580
  804MOL0     H10938   4.678   7.709   3.642 -0.7570  0.0387 -0.6838
  804MOL0     H10939   4.758   7.613   3.444  1.3346 -1.3688 -0.5733
  804MOL0     H10940   5.155   7.750   3.199 -3.7870  0.4900 -4.1865
  804MOL0     H10941   5.158   7.679   3.362  0.6192  1.8373 -0.2002
  804MOL0     H10942   5.251   7.525   3.163  1.0096 -1.6748  1.0047
  804MOL0     H10943   5.084   7.515   3.114  1.1029  3.1453 -1.5534
  804MOL0     H10944   5.034   7.381   3.288 -0.8070  4.4720 -1.0545
  804MOL0     H10945   5.171   7.332   3.201 -2.4948  0.4519 -0.8088
  804MOL0     H10946   5.326   7.423   3.355  0.3750  1.0396 -0.7193
  804MOL0     H10947   5.236   7.277   3.423 -2.5923  0.8557  3.4747
  804MOL0     H10948   5.097   7.537   3.703  1.6965 -2.6577  2.2325
  804MOL0     H10949   5.066   7.913   3.418 -1.0829  1.9647 -0.0937
  804MOL0     H10950   5.023   8.060   3.736 -1.8849  1.7267  0.1326
  804MOL0     H10951   5.103   8.054   3.584  0.2536  1.8091  1.9749
  804MOL0     H10952   4.934   8.133   3.600  2.3351  1.4474 -0.7159
  805MOL0     O10953   6.890   8.794   9.493 -0.4796 -0.3119 -0.4107
  805MOL0     C10954   6.800   8.765   9.571  0.1903  0.3823  0.7892
  805MOL0     O10955   6.797   8.662   9.662 -0.3924 -0.2431 -0.7192
  805MOL0     C10956   6.892   8.565   9.658 -0.0085 -0.2587  0.0905
  805MOL0     C10957   6.909   8.489   9.541 -0.3013 -0.1099 -0.8882
  805MOL0     C10958   7.023   8.407   9.529 -0.6603  0.6663 -0.3748
  805MOL0     C10959   7.118   8.402   9.638  1.1612  0.4121  1.1587
  805MOL0     O10960   7.223   8.323   9.634 -0.1702 -0.1719 -0.5352
  805MOL0     C10961   7.280   8.273   9.513 -0.5694  1.0334  0.3121
  805MOL0     C10962   7.411   8.201   9.536  0.4326  0.3984 -0.5313
  805MOL0     C10963   7.524   8.298   9.570  0.5106 -0.2175 -0.1930
  805MOL0     C10964   7.637   8.209   9.608  0.1870  0.4190  0.0637
  805MOL0     C10965   7.752   8.290   9.665 -0.5852  0.4573  0.3251
  805MOL0     C10966   7.885   8.208   9.670 -0.5681 -0.3389 -0.4310
  805MOL0     C10967   7.984   8.284   9.750  1.2979 -0.1750 -0.6474
  805MOL0     C10968   8.126   8.218   9.736  0.5947 -0.6207 -0.4951
  805MOL0     N10969   8.120   8.072   9.772  0.9042 -0.0151 -0.5940
  805MOL0     C10970   8.148   7.960   9.694  0.4516  0.4148 -1.5233
  805MOL0     C10971   8.131   7.848   9.762 -0.1368 -0.8888  0.4192
  805MOL0     C10972   8.166   7.715   9.701  0.9918  0.2513 -0.0177
  805MOL0     C10973   8.283   7.634   9.760 -0.1455 -0.6330  0.2301
  805MOL0     C10974   8.419   7.701   9.778  0.1533  0.5119  0.5725
  805MOL0     C10975   8.462   7.789   9.663 -0.1522 -0.3868 -0.4203
  805MOL0     O10976   8.516   7.704   9.561 -0.0077 -0.1911 -0.3835
  805MOL0     C10977   8.642   7.655   9.552  0.7001  0.8785 -0.7130
  805MOL0     C10978   8.757   7.727   9.537 -0.9856  0.1016 -1.9992
  805MOL0     C10979   8.885   7.665   9.528 -0.8873  0.2120 -1.1187
  805MOL0     C10980   9.005   7.766   9.515 -0.2694  0.4661 -0.4158
  805MOL0     C10981   8.893   7.522   9.532 -0.2233 -0.9364  0.0558
  805MOL0     C10982   9.024   7.450   9.519  0.4134 -0.3307 -0.1787
  805MOL0     O10983   9.120   7.501   9.433  0.0153  0.5065 -0.3266
  805MOL0     C10984   9.248   7.457   9.444  0.1632  0.1398 -0.1884
  805MOL0     C10985   9.312   7.389   9.341 -0.2108 -0.3188 -0.3916
  805MOL0     C10986   9.443   7.333   9.356  0.0744 -0.5047  0.3411
  805MOL0     C10987   9.506   7.345   9.473 -0.4639  0.9159 -0.3301
  805MOL0     O10988   9.625   7.284   9.484  0.3154  0.8343  0.3986
  805MOL0     C10989   9.695   7.266   9.613  0.1245  0.8810 -0.2980
  805MOL0     C10990   9.812   7.161   9.586 -0.3277  0.3008  0.3234
  805MOL0     C10991   9.778   7.016   9.600 -0.2329  0.6219  0.9941
  805MOL0     C10992   9.867   6.925   9.503  0.3576 -0.8255  0.0408
  805MOL0     C10993   9.875   6.773   9.538 -0.6131 -0.0610  0.2746
  805MOL0     C10994   9.733   6.723   9.510  1.1222 -0.2088  0.1591
  805MOL0     C10995   9.706   6.579   9.548 -0.0326  0.6723  1.1715
  805MOL0     C10996   9.564   6.532   9.496 -0.3580 -0.5672  0.3992
  805MOL0    Cl10997   9.441   6.586   9.597  0.1190 -0.5025 -0.0040
  805MOL0     C10998   9.447   7.411   9.575  0.0570 -0.3321 -0.0361
  805MOL0     C10999   9.321   7.470   9.557 -0.2006 -0.6235  0.3864
  805MOL0     O11000   9.034   7.347   9.581 -0.4977  0.1893 -0.4068
  805MOL0     C11001   8.779   7.453   9.554  0.2065  0.5532  0.2446
  805MOL0     C11002   8.654   7.515   9.567  0.5288 -0.2017  0.9455
  805MOL0     N11003   8.088   7.893   9.886  0.8462 -0.5128  0.5738
  805MOL0     N11004   8.062   8.029   9.887  0.0241  0.2517 -0.4810
  805MOL0     C11005   7.106   8.482   9.749  0.3942  0.4140  0.2878
  805MOL0     C11006   6.986   8.559   9.759 -0.6304  0.7156 -0.1502
  805MOL0     C11007   6.705   8.869   9.607 -0.1138  0.1688 -0.3958
  805MOL0     C11008   6.687   8.910   9.736  1.0324 -0.3628 -0.4624
  805MOL0     C11009   6.594   9.003   9.769 -0.3669  0.0390 -1.1914
  805MOL0     C11010   6.524   9.078   9.674  0.8604  0.2051 -0.1038
  805MOL0     O11011   6.441   9.183   9.704  0.0037  1.0226  0.2732
  805MOL0     C11012   6.393   9.210   9.833  0.0711 -0.3866  0.0152
  805MOL0     C11013   6.273   9.292   9.810  1.0222  0.7872 -0.3359
  805MOL0     C11014   6.205   9.347   9.936  0.3500  0.2024  1.2969
  805MOL0     C11015   6.111   9.468   9.908  0.7862  0.2742  0.5993
  805MOL0     C11016   5.980   9.406   9.874  0.1240  0.4916  0.0050
  805MOL0     C11017   5.873   9.354   9.837  0.5425 -1.1600 -1.3182
  805MOL0     C11018   6.544   9.043   9.538  0.1711 -0.2686 -0.5878
  805MOL0     C11019   6.634   8.947   9.505  0.0260  0.4560 -0.1261
  805MOL0     C11020   6.670   8.929   9.355  0.9128 -0.2170  1.0645
  805MOL0     H11021   6.847   8.509   9.454  0.1963  0.4648 -1.1180
  805MOL0     H11022   7.050   8.348   9.442 -1.5882  2.0386 -1.6339
  805MOL0     H11023   7.293   8.352   9.439  0.1483  0.0782 -0.6100
  805MOL0     H11024   7.211   8.199   9.469  1.8782 -2.5997  2.0721
  805MOL0     H11025   7.387   8.132   9.617  1.7368 -0.3266 -0.7479
  805MOL0     H11026   7.449   8.145   9.451  0.4997 -0.0354 -0.2163
  805MOL0     H11027   7.527   8.362   9.481 -2.3411  2.4342  1.3945
  805MOL0     H11028   7.493   8.359   9.656  1.1347 -2.7482  1.9566
  805MOL0     H11029   7.613   8.123   9.672  1.8513 -0.5841 -0.5766
  805MOL0     H11030   7.674   8.159   9.518 -3.2797  0.1506 -1.3845
  805MOL0     H11031   7.720   8.332   9.761 -3.2373  0.1037 -0.3286
  805MOL0     H11032   7.764   8.381   9.606 -0.7957  1.7454  2.1869
  805MOL0     H11033   7.860   8.106   9.702 -0.0887 -0.1918  0.4488
  805MOL0     H11034   7.920   8.196   9.568 -3.9084  0.7560 -1.8427
  805MOL0     H11035   7.941   8.284   9.851  1.9381 -1.8775 -0.3408
  805MOL0     H11036   7.997   8.387   9.716 -1.3493  0.8832  1.1306
  805MOL0     H11037   8.157   8.223   9.631  0.7151 -0.6878 -0.4629
  805MOL0     H11038   8.198   8.267   9.802 -1.7222 -0.4116  2.0782
  805MOL0     H11039   8.168   7.961   9.587  1.7124 -0.7583 -1.3287
  805MOL0     H11040   8.187   7.730   9.594  1.2327  0.5754  0.0741
  805MOL0     H11041   8.071   7.660   9.697  1.3556 -0.3368 -1.9168
  805MOL0     H11042   8.255   7.595   9.858 -2.0812  2.1952  0.9351
  805MOL0     H11043   8.308   7.551   9.694  0.1043  1.0166 -1.8746
  805MOL0     H11044   8.403   7.758   9.870 -3.6997 -0.3815  0.6334
  805MOL0     H11045   8.494   7.624   9.801 -0.6540  0.0053  1.5964
  805MOL0     H11046   8.389   7.855   9.615  0.2255  1.4264  1.3569
  805MOL0     H11047   8.541   7.860   9.693 -0.7153 -0.5017  1.4553
  805MOL0     H11048   8.751   7.835   9.531  2.7735  0.8153  2.0402
  805MOL0     H11049   9.099   7.719   9.545 -1.4891 -2.0394 -0.2155
  805MOL0     H11050   8.988   7.853   9.580  0.2335  1.1155 -1.1346
  805MOL0     H11051   9.011   7.798   9.411  1.0721 -0.8470 -0.7676
  805MOL0     H11052   9.245   7.383   9.256 -0.3031  4.5710 -0.9312
  805MOL0     H11053   9.496   7.276   9.280  1.1351 -0.9051  1.3561
  805MOL0     H11054   9.729   7.358   9.661  0.2555  0.7926 -0.2207
  805MOL0     H11055   9.630   7.215   9.684 -1.5038  1.9592 -0.9539
  805MOL0     H11056   9.870   7.171   9.494  3.3267  1.2479  2.5152
  805MOL0     H11057   9.890   7.182   9.660  1.3426  0.0978 -1.2921
  805MOL0     H11058   9.670   7.003   9.595 -1.0124  3.1817  5.3781
  805MOL0     H11059   9.807   7.000   9.705 -1.3528  0.2712  1.2598
  805MOL0     H11060   9.968   6.968   9.501 -0.7364  1.9314 -0.0027
  805MOL0     H11061   9.828   6.937   9.401 -2.6781  1.1005  1.3073
  805MOL0     H11062   9.954   6.729   9.475  1.3072 -1.5497  3.4599
  805MOL0     H11063   9.903   6.750   9.641 -2.0430 -2.2424  0.2310
  805MOL0     H11064   9.715   6.735   9.403  0.7056 -2.2701 -0.0379
  805MOL0     H11065   9.665   6.793   9.560 -0.5211  0.1686 -2.3965
  805MOL0     H11066   9.702   6.555   9.654  0.7316 -2.3542  0.6059
  805MOL0     H11067   9.786   6.521   9.502 -0.6024  2.8130 -3.0063
  805MOL0     H11068   9.573   6.423   9.488  2.5707 -0.4943  1.4221
  805MOL0     H11069   9.542   6.581   9.401  1.1512  1.0094  0.8085
  805MOL0     H11070   9.489   7.418   9.674  1.5200 -1.5474 -0.5256
  805MOL0     H11071   9.277   7.525   9.640 -1.3939  0.1762 -0.7415
  805MOL0     H11072   8.784   7.346   9.572 -1.4557  0.7968  2.7277
  805MOL0     H11073   8.561   7.462   9.583  0.7828 -0.4209  1.7402
  805MOL0     H11074   7.173   8.492   9.833  0.1656 -1.9346  0.7985
  805MOL0     H11075   6.972   8.623   9.845 -2.2225 -0.0518  0.2021
  805MOL0     H11076   6.754   8.867   9.811 -2.5882 -0.9641  2.7415
  805MOL0     H11077   6.599   9.017   9.876 -2.5180 -4.2700 -0.3079
  805MOL0     H11078   6.360   9.121   9.887 -2.2718  0.9133  0.8461
  805MOL0     H11079   6.457   9.279   9.890 -1.8056  1.5148 -0.0448
  805MOL0     H11080   6.196   9.245   9.749 -0.8551 -0.1861  2.6114
  805MOL0     H11081   6.315   9.372   9.748 -1.1674  1.0888 -1.5146
  805MOL0     H11082   6.154   9.266   9.989  4.7974 -0.7869  4.6641
  805MOL0     H11083   6.288   9.367  10.005 -0.5106 -3.9837  3.8569
  805MOL0     H11084   6.148   9.529   9.825 -0.6543 -0.0901 -0.3390
  805MOL0     H11085   6.103   9.540   9.990 -1.9748  4.8544 -3.1420
  805MOL0     H11086   5.780   9.326   9.793 -0.7675  1.8757 -0.7732
  805MOL0     H11087   6.481   9.092   9.464 -1.7958 -0.0087  1.1544
  805MOL0     H11088   6.594   8.977   9.292  3.5715 -1.5181 -3.5850
  805MOL0     H11089   6.761   8.987   9.337  1.4670 -0.8309  1.8491
  805MOL0     H11090   6.685   8.823   9.332  1.0475 -0.8440  3.7081
  806MOL0     O11091   5.663   6.417   5.785  0.2498 -0.3308  0.3541
  806MOL0     C11092   5.757   6.365   5.727  0.4779  1.0829  0.4876
  806MOL0     O11093   5.890   6.398   5.726  0.2882  0.4157 -0.2130
  806MOL0     C11094   5.910   6.525   5.761  0.0157 -0.7558  0.6637
  806MOL0     C11095   5.914   6.576   5.894 -0.4696  0.9907  0.7244
  806MOL0     C11096   5.923   6.711   5.922 -0.6679  0.1432 -0.0539
  806MOL0     C11097   5.941   6.802   5.818 -0.3525 -0.0296  0.1732
  806MOL0     O11098   5.988   6.922   5.854 -0.5762  0.2418  0.5220
  806MOL0     C11099   5.935   7.037   5.788  1.4523 -0.5262  0.1286
  806MOL0     C11100   5.938   7.157   5.875 -0.2970  0.2953 -0.5561
  806MOL0     C11101   5.824   7.161   5.985  0.7455  0.4986 -0.8319
  806MOL0     C11102   5.716   7.049   5.977 -0.5947  0.2257  0.2516
  806MOL0     C11103   5.629   7.050   6.110 -0.1575  0.3935  0.4388
  806MOL0     C11104   5.667   6.942   6.210 -0.0022 -0.9589 -0.5803
  806MOL0     C11105   5.600   6.932   6.342  0.3710 -0.4843 -0.2786
  806MOL0     C11106   5.702   6.898   6.448 -0.5311  0.0150  0.4337
  806MOL0     N11107   5.636   6.884   6.582 -1.1713 -0.3129  0.6159
  806MOL0     C11108   5.535   6.961   6.626  0.2367  0.0297  0.2915
  806MOL0     C11109   5.493   6.899   6.745  0.4060 -0.1199 -0.3268
  806MOL0     C11110   5.390   6.956   6.837 -1.1456  0.4158 -0.4380
  806MOL0     C11111   5.262   6.880   6.846 -0.1718  0.0936  0.7387
  806MOL0     C11112   5.205   6.823   6.716 -1.0366  0.3897  0.7352
  806MOL0     C11113   5.068   6.757   6.734 -0.3157 -0.2880  0.1401
  806MOL0     O11114   4.974   6.872   6.741  0.6872 -0.1964 -0.0830
  806MOL0     C11115   4.853   6.823   6.726  0.2041  1.0430  0.2433
  806MOL0     C11116   4.763   6.783   6.835 -0.2508  0.5886  0.1161
  806MOL0     C11117   4.629   6.750   6.810 -0.3439 -0.0388  0.2471
  806MOL0     C11118   4.535   6.739   6.923 -0.2630 -0.2675 -0.6716
  806MOL0     C11119   4.582   6.734   6.678  1.0783  0.4525 -0.4662
  806MOL0     C11120   4.447   6.717   6.626  0.6016  0.2277 -0.8035
  806MOL0     O11121   4.413   6.763   6.498 -0.0602  0.6361 -0.2513
  806MOL0     C11122   4.285   6.726   6.438 -0.2458 -0.1942 -0.4410
  806MOL0     C11123   4.278   6.604   6.365  0.0922  0.0321  0.0590
  806MOL0     C11124   4.168   6.578   6.287  1.0119 -0.0743  0.4301
  806MOL0     C11125   4.063   6.668   6.285  0.4426  0.1097 -0.1851
  806MOL0     O11126   3.955   6.638   6.211 -0.3464  0.8066 -0.3148
  806MOL0     C11127   3.949   6.625   6.071  0.0319 -0.8892  0.1064
  806MOL0     C11128   3.952   6.479   6.033  0.7617  1.2579  0.8181
  806MOL0     C11129   3.873   6.457   5.902  1.3373 -0.4769  0.8573
  806MOL0     C11130   3.879   6.311   5.856 -0.1364  0.8101 -0.0054
  806MOL0     C11131   3.794   6.292   5.734  0.1277 -0.5608 -0.2417
  806MOL0     C11132   3.640   6.309   5.753 -0.5859 -0.0646 -0.2750
  806MOL0     C11133   3.562   6.279   5.624 -0.5612 -0.3187 -0.7569
  806MOL0     C11134   3.407   6.286   5.636 -0.7999 -0.4419 -0.5197
  806MOL0    Cl11135   3.326   6.141   5.690 -0.1671  0.4575 -0.6156
  806MOL0     C11136   4.056   6.785   6.360 -0.5613  0.1811 -0.0310
  806MOL0     C11137   4.181   6.819   6.428 -0.0475  0.2440 -0.6041
  806MOL0     O11138   4.369   6.642   6.689 -0.1615 -0.1384 -0.5982
  806MOL0     C11139   4.667   6.766   6.564  0.0058  0.2087  0.2967
  806MOL0     C11140   4.797   6.809   6.594  0.5386 -0.2933  0.8233
  806MOL0     N11141   5.583   6.792   6.768 -0.1963 -0.2695  1.0476
  806MOL0     N11142   5.654   6.779   6.659 -0.2390  0.8361  0.1235
  806MOL0     C11143   5.943   6.750   5.689  0.4862  0.5286  0.6897
  806MOL0     C11144   5.924   6.612   5.657  0.6393  0.0904  0.4405
  806MOL0     C11145   5.744   6.235   5.655 -0.0002 -1.1546  0.0236
  806MOL0     C11146   5.864   6.158   5.636  0.2444  0.3577  0.1032
  806MOL0     C11147   5.851   6.037   5.577  0.3399 -0.3157 -0.7501
  806MOL0     C11148   5.732   5.987   5.519  0.7776 -0.6541 -0.7385
  806MOL0     O11149   5.743   5.861   5.461  0.1361 -0.1186  0.3753
  806MOL0     C11150   5.779   5.871   5.321 -0.7232 -0.4895  0.0841
  806MOL0     C11151   5.737   5.760   5.234 -0.8363 -0.1766 -0.4665
  806MOL0     C11152   5.785   5.626   5.293 -0.4387  0.0012 -0.9362
  806MOL0     C11153   5.765   5.515   5.192  0.0642  0.4431  0.4265
  806MOL0     C11154   5.865   5.497   5.077 -0.1133  0.3143 -0.3409
  806MOL0     C11155   5.946   5.488   4.992 -0.3926 -0.9137 -0.1973
  806MOL0     C11156   5.612   6.053   5.542  0.1099 -0.1617  0.0968
  806MOL0     C11157   5.613   6.177   5.615  0.8859 -0.6380  0.7289
  806MOL0     C11158   5.482   6.226   5.648 -0.5931 -0.8483 -0.9796
  806MOL0     H11159   5.898   6.514   5.982 -0.7336 -1.4432 -0.9499
  806MOL0     H11160   5.915   6.753   6.021 -1.2967  2.0623 -0.8703
  806MOL0     H11161   5.835   7.025   5.746  1.8498 -1.9684 -0.4921
  806MOL0     H11162   5.998   7.049   5.699  0.1462  0.8520 -0.6369
  806MOL0     H11163   6.038   7.158   5.920 -1.1651  2.6786  1.5569
  806MOL0     H11164   5.931   7.251   5.820 -1.7844  0.1169 -0.7058
  806MOL0     H11165   5.864   7.152   6.087 -0.2394  0.5255 -0.4337
  806MOL0     H11166   5.779   7.260   5.982 -1.0249 -0.2920 -3.4188
  806MOL0     H11167   5.646   7.069   5.896 -0.9492  1.1619  0.7729
  806MOL0     H11168   5.758   6.949   5.968  0.6221  0.8831 -2.3200
  806MOL0     H11169   5.522   7.035   6.094 -0.6436  1.9764  1.9304
  806MOL0     H11170   5.641   7.148   6.155  1.2617  0.6264 -0.3766
  806MOL0     H11171   5.654   6.843   6.163  0.1028 -1.7876  1.0622
  806MOL0     H11172   5.776   6.942   6.212 -0.0074 -1.1396  0.1649
  806MOL0     H11173   5.524   6.855   6.330 -0.5375  0.5041 -1.1001
  806MOL0     H11174   5.542   7.024   6.358 -0.4612 -1.0178 -0.1791
  806MOL0     H11175   5.750   6.803   6.421 -2.3366 -0.8002 -0.0660
  806MOL0     H11176   5.783   6.971   6.457  0.0282 -0.8163  2.8941
  806MOL0     H11177   5.487   7.042   6.572 -0.1789  1.0341  2.0958
  806MOL0     H11178   5.367   7.062   6.822  2.5323  0.9999 -3.3580
  806MOL0     H11179   5.436   6.960   6.936 -0.6570 -0.8047 -0.5953
  806MOL0     H11180   5.277   6.791   6.907 -0.0007 -1.9318 -2.0550
  806MOL0     H11181   5.194   6.958   6.882  1.1737  2.3514 -1.2355
  806MOL0     H11182   5.193   6.908   6.648  2.3020  1.1936  0.9846
  806MOL0     H11183   5.282   6.761   6.668  0.0022  0.5368  2.1619
  806MOL0     H11184   5.039   6.699   6.646 -1.9279  2.8118 -1.5573
  806MOL0     H11185   5.068   6.700   6.827 -0.1876 -1.5093 -0.5848
  806MOL0     H11186   4.814   6.781   6.931  1.8237 -0.8483 -0.9374
  806MOL0     H11187   4.445   6.798   6.909 -0.9220 -0.2284  2.8180
  806MOL0     H11188   4.572   6.770   7.021 -0.7475  0.6586 -0.7693
  806MOL0     H11189   4.506   6.634   6.938  2.1509 -0.5848  3.2410
  806MOL0     H11190   4.362   6.535   6.375 -0.2833 -0.4793 -0.2219
  806MOL0     H11191   4.142   6.477   6.260 -2.7383  1.3523 -2.1284
  806MOL0     H11192   3.852   6.664   6.039  1.5353  2.8193 -0.5143
  806MOL0     H11193   4.024   6.696   6.034 -1.3496  1.0325  0.8695
  806MOL0     H11194   4.056   6.456   6.007  0.2133  0.9259 -1.2644
  806MOL0     H11195   3.900   6.421   6.110  1.6637 -0.8070 -0.0334
  806MOL0     H11196   3.906   6.521   5.820  0.5175 -2.8730 -1.4862
  806MOL0     H11197   3.768   6.478   5.928  1.2429 -0.4346  0.4488
  806MOL0     H11198   3.841   6.250   5.939  0.1584  2.3318  1.2950
  806MOL0     H11199   3.980   6.284   5.823 -0.6240 -1.1959  0.0507
  806MOL0     H11200   3.823   6.350   5.645 -1.4873 -3.5322 -2.9020
  806MOL0     H11201   3.812   6.188   5.708  1.7266 -0.5079  0.4959
  806MOL0     H11202   3.606   6.409   5.781 -2.9037 -0.5481 -1.0761
  806MOL0     H11203   3.607   6.244   5.834  1.4851 -2.3378 -1.1213
  806MOL0     H11204   3.589   6.179   5.589 -0.9081 -0.3927 -0.8194
  806MOL0     H11205   3.602   6.359   5.561 -1.1748  0.4848 -0.1485
  806MOL0     H11206   3.371   6.332   5.543 -2.4561 -0.3438  0.1414
  806MOL0     H11207   3.383   6.363   5.710  3.5814 -0.7871  1.5435
  806MOL0     H11208   3.973   6.854   6.370 -2.2481 -1.7371  0.1145
  806MOL0     H11209   4.177   6.924   6.456  1.2756  0.0057  0.5859
  806MOL0     H11210   4.632   6.753   6.463 -1.8663  1.3698  0.7326
  806MOL0     H11211   4.862   6.842   6.513 -1.1261  0.4466 -0.2719
  806MOL0     H11212   5.941   6.821   5.607 -0.6548  0.2504  0.4524
  806MOL0     H11213   5.933   6.578   5.554 -0.9976  0.6309  0.0970
  806MOL0     H11214   5.959   6.183   5.683 -0.5854 -0.0830  2.1597
  806MOL0     H11215   5.940   5.975   5.566  0.2194  0.0458 -6.0145
  806MOL0     H11216   5.739   5.960   5.272 -0.1109  1.1575  2.3917
  806MOL0     H11217   5.888   5.881   5.316 -0.8321  0.1108 -1.2039
  806MOL0     H11218   5.809   5.765   5.152 -0.7644 -3.1011 -0.7096
  806MOL0     H11219   5.632   5.762   5.203 -1.9001 -0.0553  2.7809
  806MOL0     H11220   5.891   5.641   5.317 -0.8011 -2.0227  2.6608
  806MOL0     H11221   5.738   5.619   5.392  2.6183  0.9505  0.7260
  806MOL0     H11222   5.670   5.540   5.145 -0.0110 -0.0309  0.3178
  806MOL0     H11223   5.762   5.420   5.246  0.5065  0.5132  0.5814
  806MOL0     H11224   6.018   5.472   4.914 -0.2803 -1.5366  0.0277
  806MOL0     H11225   5.519   6.009   5.508  0.5553  1.8407 -4.5613
  806MOL0     H11226   5.404   6.163   5.605 -0.6881 -0.2691 -1.6774
  806MOL0     H11227   5.479   6.217   5.757  0.0457  0.0205 -0.8791
  806MOL0     H11228   5.473   6.331   5.619  0.0356 -0.1830  1.0568
  807MOL0     O11229   9.405   5.022   7.546  0.8121  0.6661 -0.0031
  807MOL0     C11230   9.433   5.080   7.435  0.0016 -0.1961 -0.3827
  807MOL0     O11231   9.557   5.087   7.386  0.0249  0.1627  0.1142
  807MOL0     C11232   9.673   5.078   7.459  1.1394 -0.5471 -0.4404
  807MOL0     C11233   9.705   4.960   7.526  0.4584 -0.2863  0.0648
  807MOL0     C11234   9.809   4.967   7.615  0.4454  0.0742 -0.4238
  807MOL0     C11235   9.887   5.089   7.629 -0.5781  0.3165 -0.0327
  807MOL0     O11236   9.989   5.097   7.727  0.1667  0.2587 -0.1665
  807MOL0     C11237  10.124   5.135   7.679  0.1040 -0.9066  0.2605
  807MOL0     C11238  10.169   5.059   7.550 -0.2769  0.0641 -0.5528
  807MOL0     C11239  10.322   5.064   7.523  0.0508 -0.2760 -0.4725
  807MOL0     C11240  10.359   4.980   7.389 -0.2568  0.5613  0.1839
  807MOL0     C11241  10.483   5.018   7.319  0.6989  0.1089 -0.0598
  807MOL0     C11242  10.524   4.916   7.211  0.5333 -0.3379  0.8902
  807MOL0     C11243  10.420   4.929   7.099 -0.3535  1.0530  0.5702
  807MOL0     C11244  10.465   4.879   6.957  0.9183 -0.0608 -0.0607
  807MOL0     N11245  10.369   4.890   6.849 -0.3264 -0.4400  0.2693
  807MOL0     C11246  10.407   4.921   6.723  0.3627 -0.0363 -0.2060
  807MOL0     C11247  10.288   4.906   6.658 -0.0193  0.8873 -0.2377
  807MOL0     C11248  10.271   4.941   6.514  0.8100  0.2349 -0.4715
  807MOL0     C11249  10.377   5.038   6.454  1.5382 -0.4189  0.0965
  807MOL0     C11250  10.357   5.061   6.296 -0.2089 -0.8313  0.0089
  807MOL0     C11251  10.255   5.163   6.262  0.6098 -0.4736  0.1413
  807MOL0     O11252  10.302   5.296   6.284 -0.6440  0.1803 -0.0644
  807MOL0     C11253  10.232   5.397   6.225 -0.4493 -0.0188  1.2862
  807MOL0     C11254  10.292   5.493   6.147  0.3391 -0.3383  0.2316
  807MOL0     C11255  10.226   5.606   6.104  0.4493 -0.3000  0.4338
  807MOL0     C11256  10.304   5.704   6.034  0.5671  0.3419  0.2342
  807MOL0     C11257  10.092   5.623   6.134  0.6078 -0.6866  0.0555
  807MOL0     C11258  10.009   5.737   6.096 -1.0228 -0.1138  0.2296
  807MOL0     O11259  10.036   5.865   6.129 -0.0435  0.5419  0.4615
  807MOL0     C11260   9.930   5.953   6.104 -1.2325  0.6186  0.3177
  807MOL0     C11261   9.879   5.960   5.975  0.3448 -0.5828 -0.2108
  807MOL0     C11262   9.774   6.048   5.948  0.1882 -0.6704 -0.0958
  807MOL0     C11263   9.714   6.125   6.048 -0.3794 -0.3934  0.5047
  807MOL0     O11264   9.606   6.208   6.051  0.0080 -0.2280 -0.3707
  807MOL0     C11265   9.536   6.241   5.937 -1.2027  0.3563 -0.3937
  807MOL0     C11266   9.440   6.356   5.988  0.6290 -0.3582  0.1482
  807MOL0     C11267   9.353   6.394   5.864  0.1989  0.0171 -0.1203
  807MOL0     C11268   9.228   6.473   5.890  0.2815 -0.3366 -0.3549
  807MOL0     C11269   9.146   6.476   5.758 -2.0593 -0.0090  0.3633
  807MOL0     C11270   9.013   6.542   5.769 -0.0700  0.1684 -0.7096
  807MOL0     C11271   8.910   6.474   5.866  0.4727 -0.2285 -0.0817
  807MOL0     C11272   8.789   6.562   5.890 -1.0345  0.0859 -0.2907
  807MOL0    Cl11273   8.657   6.512   5.782 -0.0828  0.3972 -0.3333
  807MOL0     C11274   9.769   6.114   6.175  1.1156  1.0730 -0.6313
  807MOL0     C11275   9.869   6.023   6.208 -0.3921  1.0441  0.8435
  807MOL0     O11276   9.911   5.696   6.037 -0.0417 -0.4442  0.4181
  807MOL0     C11277  10.021   5.511   6.194 -1.4316 -0.1399 -0.8387
  807MOL0     C11278  10.096   5.401   6.234 -0.0157 -0.3792  1.1698
  807MOL0     N11279  10.183   4.876   6.749 -0.0294 -0.3421 -0.1981
  807MOL0     N11280  10.233   4.871   6.865 -0.4326  0.7500 -1.4055
  807MOL0     C11281   9.870   5.202   7.541  1.1441  0.0592  0.4583
  807MOL0     C11282   9.759   5.187   7.449 -0.1778  0.8390  0.0978
  807MOL0     C11283   9.320   5.125   7.348 -0.8900  0.6465 -0.2864
  807MOL0     C11284   9.321   5.096   7.206  1.4601 -0.0600 -0.3041
  807MOL0     C11285   9.208   5.124   7.132 -0.0758 -1.0586 -0.1859
  807MOL0     C11286   9.085   5.167   7.187 -0.0768 -0.1843 -0.5195
  807MOL0     O11287   8.974   5.181   7.112  0.6082  0.4436 -0.6120
  807MOL0     C11288   9.002   5.191   6.971 -0.6085 -0.1587 -1.1422
  807MOL0     C11289   8.883   5.245   6.897 -0.0504  0.5011 -0.0167
  807MOL0     C11290   8.876   5.399   6.935  0.3757  0.4754 -0.4551
  807MOL0     C11291   8.738   5.446   6.870 -0.4754  0.1488  0.3566
  807MOL0     C11292   8.622   5.370   6.912  0.0939  0.2734  0.5577
  807MOL0     C11293   8.521   5.312   6.936 -0.4688  0.3659 -0.8053
  807MOL0     C11294   9.089   5.208   7.323 -0.2213  0.1604 -0.0398
  807MOL0     C11295   9.207   5.197   7.401 -0.0515 -0.1571 -0.9079
  807MOL0     C11296   9.204   5.269   7.531  0.3977  0.6524  0.2129
  807MOL0     H11297   9.631   4.882   7.515 -1.0454  1.3961 -2.7941
  807MOL0     H11298   9.823   4.880   7.678  0.1380  2.0732  2.6403
  807MOL0     H11299  10.184   5.100   7.763  0.1453 -3.6808 -0.8273
  807MOL0     H11300  10.150   5.241   7.664 -2.1755 -0.3116  0.0266
  807MOL0     H11301  10.145   4.953   7.563  1.4132 -0.1907  0.9074
  807MOL0     H11302  10.125   5.103   7.460  0.7331  4.3579  0.8278
  807MOL0     H11303  10.366   5.161   7.498  1.5980 -0.6520  0.6503
  807MOL0     H11304  10.376   5.024   7.609 -0.9381  0.8029  0.6870
  807MOL0     H11305  10.367   4.873   7.413 -1.8784  0.1681 -0.9220
  807MOL0     H11306  10.280   4.989   7.315  0.5399  0.0899 -0.7543
  807MOL0     H11307  10.563   5.030   7.393  2.7611 -2.4621 -1.6815
  807MOL0     H11308  10.463   5.115   7.273 -1.8691 -1.9204 -3.7929
  807MOL0     H11309  10.623   4.941   7.172 -0.0425 -0.7944 -0.9457
  807MOL0     H11310  10.525   4.812   7.244  2.3698 -0.7958 -0.4400
  807MOL0     H11311  10.395   5.035   7.094 -0.7726  0.9221 -0.4306
  807MOL0     H11312  10.324   4.881   7.120 -0.2445  0.5808  0.0125
  807MOL0     H11313  10.543   4.941   6.912 -0.1728  0.2489 -1.5792
  807MOL0     H11314  10.511   4.780   6.966  1.4826 -0.2557 -3.8292
  807MOL0     H11315  10.498   4.958   6.677  0.8279 -0.2924  0.4906
  807MOL0     H11316  10.178   4.991   6.487  1.9138  1.6365 -1.8022
  807MOL0     H11317  10.283   4.852   6.452 -1.2422  0.0200 -0.6205
  807MOL0     H11318  10.371   5.137   6.500 -1.8469  1.6806 -4.2212
  807MOL0     H11319  10.474   4.987   6.460  0.6276 -2.4698 -1.5168
  807MOL0     H11320  10.454   5.084   6.253  0.5489  0.2472  2.1268
  807MOL0     H11321  10.325   4.963   6.260  0.5771 -0.5013 -1.6487
  807MOL0     H11322  10.212   5.146   6.163  0.0344 -0.9689  0.4683
  807MOL0     H11323  10.167   5.154   6.326  0.5883  4.7594  1.2795
  807MOL0     H11324  10.400   5.496   6.139  0.4244 -1.6771  0.7048
  807MOL0     H11325  10.399   5.660   6.006 -0.7892 -1.5189 -1.6626
  807MOL0     H11326  10.331   5.783   6.106 -0.3978 -1.3846  2.6396
  807MOL0     H11327  10.248   5.738   5.946  2.2813 -0.4372 -1.2095
  807MOL0     H11328   9.922   5.912   5.888  2.3766  3.3094 -1.5811
  807MOL0     H11329   9.739   6.046   5.846 -1.5351  0.2898  0.4317
  807MOL0     H11330   9.601   6.287   5.861  0.6082  0.8019  1.3437
  807MOL0     H11331   9.494   6.148   5.898  2.3703 -2.5732  2.0575
  807MOL0     H11332   9.380   6.312   6.069 -0.9365 -2.3877 -1.9830
  807MOL0     H11333   9.500   6.439   6.026  0.9660 -0.4912 -0.0945
  807MOL0     H11334   9.328   6.300   5.815  1.7632 -0.6318  0.2785
  807MOL0     H11335   9.413   6.450   5.791 -1.4525  1.3064 -0.5531
  807MOL0     H11336   9.252   6.572   5.930 -1.2789  0.0924 -0.4183
  807MOL0     H11337   9.177   6.418   5.969  0.2194  1.5401  0.9789
  807MOL0     H11338   9.212   6.519   5.682  0.2608 -1.7025  1.2867
  807MOL0     H11339   9.135   6.371   5.730 -0.2496 -0.2317  0.3555
  807MOL0     H11340   8.974   6.536   5.667  2.5301 -2.4562 -1.6850
  807MOL0     H11341   9.038   6.643   5.803  1.3288 -0.3545 -0.1234
  807MOL0     H11342   8.966   6.466   5.960  1.4502 -2.5970 -0.8072
  807MOL0     H11343   8.883   6.374   5.832 -0.2532 -0.7271  1.8409
  807MOL0     H11344   8.831   6.661   5.872  1.9375 -0.7771  1.2146
  807MOL0     H11345   8.759   6.551   5.995  0.4667  0.2594  0.1787
  807MOL0     H11346   9.725   6.183   6.246  0.5681 -1.0754  1.2214
  807MOL0     H11347   9.886   5.990   6.310 -1.0944 -3.4324 -0.2341
  807MOL0     H11348   9.919   5.524   6.228 -0.7082  2.5898  0.6475
  807MOL0     H11349  10.037   5.317   6.272  0.4775 -0.2831  2.1883
  807MOL0     H11350   9.930   5.293   7.539  2.0316 -0.5226 -0.3094
  807MOL0     H11351   9.753   5.276   7.387  1.6237 -0.1275 -1.5805
  807MOL0     H11352   9.410   5.050   7.165  1.6720  0.5545 -0.5483
  807MOL0     H11353   9.210   5.102   7.026 -0.3216  0.5536 -0.5474
  807MOL0     H11354   9.097   5.242   6.952  1.7443 -4.3716 -1.8675
  807MOL0     H11355   9.018   5.091   6.931 -1.1246 -0.2179 -1.2033
  807MOL0     H11356   8.800   5.188   6.940 -0.1798  2.2502  2.2319
  807MOL0     H11357   8.894   5.223   6.790 -0.2309  1.2860 -0.2059
  807MOL0     H11358   8.861   5.410   7.043  0.2336 -0.0884 -0.4191
  807MOL0     H11359   8.957   5.467   6.907  0.0116  1.4422  0.7252
  807MOL0     H11360   8.747   5.434   6.762  2.5271  2.7085  0.1749
  807MOL0     H11361   8.721   5.553   6.888 -0.5683  0.4931 -1.5894
  807MOL0     H11362   8.427   5.263   6.951 -0.1850  0.4777  1.6918
  807MOL0     H11363   8.997   5.246   7.367 -0.8719 -0.8121 -0.5046
  807MOL0     H11364   9.173   5.371   7.507  0.7012  0.3116 -1.8154
  807MOL0     H11365   9.150   5.214   7.608  0.8423 -1.8484 -1.1421
  807MOL0     H11366   9.305   5.284   7.570  1.8177 -0.0600 -2.8285
  808MOL0     O11367   3.538   5.022   9.563 -0.2682 -0.1146  0.0466
  808MOL0     C11368   3.521   4.910   9.614  0.4712 -1.3451  0.5850
  808MOL0     O11369   3.509   4.800   9.542  0.6767  0.4156 -0.2893
  808MOL0     C11370   3.513   4.796   9.401  0.1348 -0.4362 -0.4161
  808MOL0     C11371   3.419   4.719   9.332 -0.5358 -1.0557 -0.7819
  808MOL0     C11372   3.418   4.706   9.199 -0.4498 -0.5787  0.5853
  808MOL0     C11373   3.515   4.775   9.118  0.6984 -0.6162  0.6854
  808MOL0     O11374   3.525   4.751   8.981  0.1717  0.1329  0.1971
  808MOL0     C11375   3.407   4.776   8.908  0.6206 -0.1780 -0.0751
  808MOL0     C11376   3.437   4.831   8.765 -0.9119  0.5683 -0.6008
  808MOL0     C11377   3.308   4.854   8.686  0.0551  0.1193 -0.3114
  808MOL0     C11378   3.339   4.900   8.538  0.7133 -0.8864 -0.2882
  808MOL0     C11379   3.206   4.923   8.464 -0.3784  0.3841 -1.1292
  808MOL0     C11380   3.160   5.067   8.457  0.6281 -0.1334 -0.5238
  808MOL0     C11381   3.024   5.089   8.394 -0.8529 -0.2085 -0.1627
  808MOL0     C11382   3.001   5.046   8.251  0.4142  0.2571  0.2529
  808MOL0     N11383   3.091   5.116   8.159  0.2048  0.5019  0.5132
  808MOL0     C11384   3.219   5.067   8.119 -0.3457  0.1908 -0.3596
  808MOL0     C11385   3.256   5.125   8.011 -0.1020 -0.1717  0.0691
  808MOL0     C11386   3.366   5.088   7.919 -0.0498 -0.5561 -0.1345
  808MOL0     C11387   3.321   5.001   7.794 -1.3225 -0.4385 -0.4280
  808MOL0     C11388   3.440   4.914   7.743  0.5747  0.3258 -0.0118
  808MOL0     C11389   3.383   4.827   7.631  0.3700 -0.0862  0.7683
  808MOL0     O11390   3.386   4.898   7.510 -0.5337 -0.2524  0.7593
  808MOL0     C11391   3.297   4.868   7.413 -0.0277 -0.4606  0.2562
  808MOL0     C11392   3.283   4.958   7.312  0.8684  0.7207 -0.1156
  808MOL0     C11393   3.187   4.955   7.210 -0.7871 -0.6806  0.1555
  808MOL0     C11394   3.198   5.065   7.107  0.3903 -0.3513  0.2478
  808MOL0     C11395   3.104   4.841   7.205 -0.6451 -0.1697 -0.2486
  808MOL0     C11396   2.994   4.816   7.108  0.4229  0.0965  0.0312
  808MOL0     O11397   2.951   4.683   7.105  0.6048 -0.4112  0.3928
  808MOL0     C11398   2.868   4.644   7.002 -0.5757  0.6072 -0.0458
  808MOL0     C11399   2.861   4.505   6.991  1.2465 -0.2545  0.2028
  808MOL0     C11400   2.779   4.448   6.891  1.3977  0.1859 -0.3916
  808MOL0     C11401   2.681   4.529   6.836 -0.6023 -0.0957  0.4686
  808MOL0     O11402   2.592   4.479   6.743  0.2582 -0.8938 -0.2667
  808MOL0     C11403   2.509   4.373   6.792 -0.4860  0.3205 -0.1862
  808MOL0     C11404   2.415   4.338   6.674  0.1933  0.0304  0.8192
  808MOL0     C11405   2.315   4.231   6.694  0.6068 -0.2345 -0.6687
  808MOL0     C11406   2.378   4.086   6.709  1.2578 -0.5727  0.5736
  808MOL0     C11407   2.274   3.972   6.717 -0.4377 -0.1213 -0.2143
  808MOL0     C11408   2.346   3.842   6.702  0.9075  0.7774  0.1092
  808MOL0     C11409   2.243   3.728   6.700  0.2001  0.8850  0.5624
  808MOL0     C11410   2.318   3.589   6.699  0.2074  0.3162 -0.3079
  808MOL0    Cl11411   2.374   3.550   6.535  0.0546 -0.7123  0.1594
  808MOL0     C11412   2.682   4.662   6.861  0.6763  0.0329  0.6850
  808MOL0     C11413   2.775   4.716   6.937  0.9140 -0.7744 -0.3426
  808MOL0     O11414   2.957   4.903   7.035  0.3180 -0.3766 -0.1262
  808MOL0     C11415   3.127   4.734   7.303 -1.2348  0.1503  0.5274
  808MOL0     C11416   3.219   4.751   7.408  0.0033 -1.0069  0.1335
  808MOL0     N11417   3.158   5.222   7.980 -0.6540 -1.3832  0.1450
  808MOL0     N11418   3.059   5.205   8.062 -0.0732  0.0103 -0.0943
  808MOL0     C11419   3.616   4.850   9.186 -0.3896  0.1440 -0.3610
  808MOL0     C11420   3.608   4.868   9.327  0.1171  0.4864 -0.6328
  808MOL0     C11421   3.468   4.895   9.753 -0.2481 -0.6523 -0.8730
  808MOL0     C11422   3.394   4.780   9.780  0.5434 -0.0073 -0.9505
  808MOL0     C11423   3.328   4.761   9.899 -0.4364  0.7315 -1.1045
  808MOL0     C11424   3.346   4.856  10.007 -0.1667  0.5735 -0.3380
  808MOL0     O11425   3.299   4.837  10.139  0.3748 -0.0989  0.3026
  808MOL0     C11426   3.192   4.748  10.156  0.3355  0.0361 -0.4064
  808MOL0     C11427   3.153   4.749  10.308 -0.3462  0.0767 -0.1171
  808MOL0     C11428   3.048   4.637  10.318  0.0875  0.3153  0.5302
  808MOL0     C11429   3.025   4.592  10.463  0.1661  0.3119 -0.4834
  808MOL0     C11430   3.124   4.511  10.516  1.2178  0.0699  0.2637
  808MOL0     C11431   3.211   4.434  10.556 -0.5618 -0.5948 -0.2001
  808MOL0     C11432   3.423   4.967   9.989  0.0149 -0.0722  0.2178
  808MOL0     C11433   3.490   4.993   9.859  0.3486 -0.4548 -0.1079
  808MOL0     C11434   3.551   5.131   9.843 -0.6888  0.7234  0.1816
  808MOL0     H11435   3.331   4.694   9.390  0.1054  3.3458  2.5724
  808MOL0     H11436   3.328   4.662   9.159 -0.4007  0.5465 -0.8656
  808MOL0     H11437   3.346   4.848   8.964 -0.1996 -0.6470 -0.3487
  808MOL0     H11438   3.335   4.694   8.902  0.5951 -0.0912 -1.0090
  808MOL0     H11439   3.502   4.917   8.778 -1.1982  0.8126 -0.7535
  808MOL0     H11440   3.502   4.769   8.703 -1.7146  0.6675 -1.5648
  808MOL0     H11441   3.246   4.765   8.690  1.1785 -0.8384 -2.4020
  808MOL0     H11442   3.255   4.940   8.728 -2.8577 -0.5751 -2.2785
  808MOL0     H11443   3.402   4.989   8.548 -0.4305 -0.2108  1.3023
  808MOL0     H11444   3.405   4.831   8.485  0.7798  0.5503 -2.1640
  808MOL0     H11445   3.128   4.865   8.513 -0.4027 -0.2212 -1.8688
  808MOL0     H11446   3.217   4.872   8.368 -2.5053  0.5220 -1.4838
  808MOL0     H11447   3.144   5.084   8.564  1.8720 -2.0763  0.0209
  808MOL0     H11448   3.237   5.129   8.412  1.9775 -0.6737  0.9587
  808MOL0     H11449   2.993   5.194   8.402 -1.7021 -0.2740 -2.0446
  808MOL0     H11450   2.946   5.038   8.452 -1.7783  1.0627 -0.2267
  808MOL0     H11451   3.017   4.938   8.238 -1.3913 -0.1091  0.7633
  808MOL0     H11452   2.897   5.068   8.225 -0.1485 -2.5571 -0.2158
  808MOL0     H11453   3.281   4.990   8.163 -0.0453  2.1735  3.0278
  808MOL0     H11454   3.451   5.045   7.973  0.4978  1.0100  0.3109
  808MOL0     H11455   3.402   5.184   7.879  0.0510  0.4191  2.1555
  808MOL0     H11456   3.237   4.936   7.816  0.9042 -4.6002 -2.9221
  808MOL0     H11457   3.286   5.059   7.708 -2.2695 -0.7977 -0.2971
  808MOL0     H11458   3.520   4.976   7.701 -2.0613  5.3747  1.5696
  808MOL0     H11459   3.476   4.847   7.821  1.2247  0.1738 -0.4416
  808MOL0     H11460   3.445   4.738   7.614 -1.4196 -0.9908 -1.5548
  808MOL0     H11461   3.286   4.792   7.667  0.3942 -1.4872 -0.4475
  808MOL0     H11462   3.350   5.043   7.322  0.1465  1.3226 -0.3537
  808MOL0     H11463   3.301   5.076   7.074  0.1061 -1.1759 -0.9919
  808MOL0     H11464   3.156   5.162   7.138  3.1312  1.2027 -0.6195
  808MOL0     H11465   3.150   5.031   7.015  2.2342  1.1910 -1.3506
  808MOL0     H11466   2.915   4.441   7.061 -1.5759  0.2774  3.1189
  808MOL0     H11467   2.775   4.342   6.868 -2.5804  0.0003  0.4327
  808MOL0     H11468   2.571   4.284   6.801 -2.0403 -0.8079 -0.2987
  808MOL0     H11469   2.459   4.386   6.888  1.1963  3.4341  0.3889
  808MOL0     H11470   2.353   4.424   6.647 -0.5602 -0.8430 -0.3099
  808MOL0     H11471   2.483   4.308   6.594 -0.3196  2.7770 -0.7535
  808MOL0     H11472   2.249   4.229   6.607 -0.2968  2.3289 -0.1461
  808MOL0     H11473   2.259   4.263   6.783  3.5137  0.2561  1.1326
  808MOL0     H11474   2.440   4.084   6.799 -1.7256  2.1443  2.9800
  808MOL0     H11475   2.440   4.066   6.622 -0.2476 -0.1190 -0.6506
  808MOL0     H11476   2.228   3.967   6.816 -0.9840  1.7779 -0.3349
  808MOL0     H11477   2.194   3.998   6.647 -0.9276  1.4430  0.8844
  808MOL0     H11478   2.416   3.831   6.787  0.5382 -1.4819  0.1897
  808MOL0     H11479   2.412   3.847   6.615  1.8656 -1.4190  0.6304
  808MOL0     H11480   2.182   3.737   6.610  2.8637  0.4198 -1.3877
  808MOL0     H11481   2.180   3.743   6.788 -2.0349  4.4366 -1.3962
  808MOL0     H11482   2.258   3.504   6.733  2.1098 -1.1995 -0.5884
  808MOL0     H11483   2.409   3.603   6.758 -0.4450  3.0320  0.1775
  808MOL0     H11484   2.603   4.732   6.833 -1.6904 -3.2156 -1.6504
  808MOL0     H11485   2.769   4.823   6.952 -0.8101 -0.5899 -2.0554
  808MOL0     H11486   3.078   4.638   7.293  0.8534 -0.8796 -0.4248
  808MOL0     H11487   3.245   4.666   7.470  1.0451 -0.8081 -0.0048
  808MOL0     H11488   3.694   4.897   9.127 -0.4480  0.9299  0.1621
  808MOL0     H11489   3.693   4.916   9.375  1.1982 -2.9667  1.2512
  808MOL0     H11490   3.386   4.704   9.703  1.5101  0.9741 -2.0627
  808MOL0     H11491   3.256   4.681   9.911 -3.5871  3.4578 -0.1121
  808MOL0     H11492   3.114   4.788  10.090  0.2075  3.5039  1.5768
  808MOL0     H11493   3.219   4.649  10.121  1.3405 -0.2989  1.2214
  808MOL0     H11494   3.107   4.847  10.327 -0.8237 -0.6503  2.8778
  808MOL0     H11495   3.239   4.727  10.371 -1.8549 -1.1389  1.6121
  808MOL0     H11496   2.951   4.670  10.277  1.0031  1.2085 -1.0186
  808MOL0     H11497   3.073   4.543  10.268  1.9518 -0.6442  3.0406
  808MOL0     H11498   2.927   4.544  10.460  0.6147 -0.5814 -1.9162
  808MOL0     H11499   3.023   4.679  10.529  2.6362  0.9355 -1.1062
  808MOL0     H11500   3.277   4.355  10.584 -0.7169 -0.7518 -0.2747
  808MOL0     H11501   3.415   5.037  10.071 -2.9439 -0.2466  0.1966
  808MOL0     H11502   3.538   5.178   9.942 -0.1977 -1.0203  1.1074
  808MOL0     H11503   3.651   5.129   9.800 -1.2034  1.2844 -1.0754
  808MOL0     H11504   3.502   5.189   9.764  0.1620  2.7607  1.0725
  809MOL0     O11505   9.524  10.427   3.871  0.1581  0.4792  0.2766
  809MOL0     C11506   9.410  10.386   3.886 -0.2053  0.5728 -0.5690
  809MOL0     O11507   9.376  10.264   3.944  0.1992  0.0779  0.1156
  809MOL0     C11508   9.477  10.184   3.985  0.3870 -0.7717  0.9479
  809MOL0     C11509   9.565  10.115   3.903  0.4191 -0.4101 -0.0513
  809MOL0     C11510   9.653  10.030   3.969 -0.0934 -0.2045  0.5414
  809MOL0     C11511   9.680  10.033   4.100 -0.0119  0.0246 -0.5544
  809MOL0     O11512   9.784   9.962   4.141 -0.3817  0.9645  0.4668
  809MOL0     C11513   9.795   9.903   4.266  1.1093 -0.2920  0.1887
  809MOL0     C11514   9.926   9.836   4.277  1.0578 -0.2836 -1.3163
  809MOL0     C11515   9.918   9.766   4.423 -0.3910  0.1251 -0.5904
  809MOL0     C11516  10.068   9.751   4.465  0.2812  0.0074 -1.0206
  809MOL0     C11517  10.088   9.670   4.601  0.2856 -0.7789  0.4360
  809MOL0     C11518  10.022   9.735   4.731 -0.0009 -0.1235 -0.3232
  809MOL0     C11519  10.039   9.641   4.858 -0.5974 -0.4813 -0.3895
  809MOL0     C11520  10.057   9.728   4.988  0.2182  0.0199 -0.2461
  809MOL0     N11521   9.921   9.782   5.018 -0.2177  0.4393 -1.1012
  809MOL0     C11522   9.895   9.912   5.000  0.2383 -1.1472 -0.0892
  809MOL0     C11523   9.785   9.941   5.066  0.1071  0.0396 -0.3674
  809MOL0     C11524   9.706  10.065   5.052 -0.1258  0.3095 -0.3494
  809MOL0     C11525   9.737  10.155   5.170  0.2512 -0.3424 -0.9474
  809MOL0     C11526   9.656  10.286   5.162 -0.2657 -0.2200  0.0366
  809MOL0     C11527   9.683  10.381   5.042  0.4987  0.3991  1.0796
  809MOL0     O11528   9.820  10.384   5.001 -0.6140 -0.0902 -0.1935
  809MOL0     C11529   9.867  10.471   4.900  0.2996  0.3155 -0.3041
  809MOL0     C11530   9.782  10.563   4.833 -0.1318  1.2585  0.4589
  809MOL0     C11531   9.814  10.619   4.706 -0.2586  0.5980  0.1073
  809MOL0     C11532   9.699  10.695   4.633  0.7755  0.5343  0.0174
  809MOL0     C11533   9.945  10.612   4.658  0.4504  0.1760  0.4453
  809MOL0     C11534  10.006  10.689   4.544  0.4285 -0.7950  0.2729
  809MOL0     O11535   9.926  10.746   4.450  0.6346  0.6879 -0.2888
  809MOL0     C11536   9.985  10.807   4.336  0.8954  0.5292  1.1889
  809MOL0     C11537  10.083  10.743   4.248  0.2931  0.4229 -0.0756
  809MOL0     C11538  10.168  10.818   4.163 -0.2418  0.5342 -0.6225
  809MOL0     C11539  10.152  10.961   4.161  0.6959 -1.0226  1.2695
  809MOL0     O11540  10.233  11.035   4.071  0.7210  0.1205 -0.4064
  809MOL0     C11541  10.365  10.988   4.063 -0.6847 -0.3986 -0.0565
  809MOL0     C11542  10.452  11.102   4.001 -0.2748 -0.2485 -0.7809
  809MOL0     C11543  10.452  11.231   4.072 -0.3298 -0.6028  0.7354
  809MOL0     C11544  10.583  11.316   4.053 -0.4936  0.0150  0.2558
  809MOL0     C11545  10.560  11.466   4.001  0.4841 -1.0557  0.2243
  809MOL0     C11546  10.492  11.469   3.860  0.3821 -0.0659 -0.2212
  809MOL0     C11547  10.531  11.600   3.784 -0.1000  0.1353 -0.2757
  809MOL0     C11548  10.481  11.600   3.637  0.8580  0.5688  0.6977
  809MOL0    Cl11549  10.303  11.603   3.614 -0.1236 -0.2030 -0.3605
  809MOL0     C11550  10.047  11.017   4.234  0.5840  0.3342  0.1759
  809MOL0     C11551   9.956  10.941   4.319  0.8811  0.7560 -0.2654
  809MOL0     O11552  10.126  10.679   4.525 -0.7222 -0.7818  0.0042
  809MOL0     C11553  10.039  10.525   4.728  0.2258  0.4103  0.7922
  809MOL0     C11554  10.000  10.469   4.848 -1.0773 -0.8013 -0.0593
  809MOL0     N11555   9.734   9.828   5.123  1.0375  0.0585  0.2725
  809MOL0     N11556   9.826   9.730   5.102 -0.0407  0.2954  0.4763
  809MOL0     C11557   9.600  10.109   4.179 -0.3327 -0.4679 -1.0539
  809MOL0     C11558   9.495  10.172   4.123  0.1479 -0.5946 -0.5657
  809MOL0     C11559   9.294  10.458   3.834  0.1345 -1.1034  0.7433
  809MOL0     C11560   9.171  10.389   3.819 -0.8180 -0.0795  0.0852
  809MOL0     C11561   9.058  10.441   3.763  0.0525  0.2616  0.7260
  809MOL0     C11562   9.059  10.576   3.717 -0.4362  0.7689  0.1597
  809MOL0     O11563   8.942  10.625   3.675  0.4699  0.5292 -0.1942
  809MOL0     C11564   8.925  10.767   3.630  0.3791  0.5372 -0.5709
  809MOL0     C11565   8.969  10.791   3.489  0.3505  0.3683 -0.1480
  809MOL0     C11566   8.983  10.937   3.455 -0.0740 -1.1675  0.1828
  809MOL0     C11567   9.099  11.008   3.526 -0.6328 -0.1845 -0.6751
  809MOL0     C11568   9.229  10.956   3.476 -0.3994  0.6560 -1.1025
  809MOL0     C11569   9.343  10.919   3.449 -0.1045 -1.1909  0.1463
  809MOL0     C11570   9.179  10.646   3.724 -0.0748  0.1334  0.2546
  809MOL0     C11571   9.297  10.593   3.792  0.5993 -0.1854  0.6289
  809MOL0     C11572   9.423  10.678   3.796 -0.1074  0.1683  0.3875
  809MOL0     H11573   9.555  10.100   3.796  0.2301 -2.6810  0.2358
  809MOL0     H11574   9.720   9.975   3.904  1.3700  2.2743 -0.1798
  809MOL0     H11575   9.715   9.830   4.282 -0.9145  1.7753 -0.1512
  809MOL0     H11576   9.786   9.976   4.347  2.0031 -1.3160  1.2639
  809MOL0     H11577   9.952   9.761   4.201  0.5947 -0.0073 -1.7572
  809MOL0     H11578  10.005   9.911   4.278  1.6960 -0.9415  0.1831
  809MOL0     H11579   9.862   9.820   4.500  1.2693  1.2214 -0.1081
  809MOL0     H11580   9.886   9.662   4.418  3.1424 -1.1555  0.4283
  809MOL0     H11581  10.125   9.694   4.390  1.9967  4.8574 -3.8191
  809MOL0     H11582  10.121   9.846   4.477  2.7543 -1.4527  0.5701
  809MOL0     H11583  10.196   9.661   4.617  0.4886  0.0034 -0.4102
  809MOL0     H11584  10.055   9.566   4.590  1.5475 -1.0178 -1.6128
  809MOL0     H11585  10.079   9.828   4.743 -2.0146  1.0598  0.4095
  809MOL0     H11586   9.922   9.771   4.708 -0.6091 -1.6176 -0.1484
  809MOL0     H11587  10.128   9.582   4.834  0.7222  1.7353 -1.3170
  809MOL0     H11588   9.950   9.580   4.875  0.9921 -2.6663  0.6415
  809MOL0     H11589  10.090   9.679   5.080  0.7208  0.9881  0.1079
  809MOL0     H11590  10.128   9.809   4.967 -2.0437  2.2179  0.0002
  809MOL0     H11591   9.944   9.990   4.943 -2.1316  1.0567  0.6768
  809MOL0     H11592   9.597  10.053   5.045 -0.0022 -0.5166 -0.9425
  809MOL0     H11593   9.747  10.111   4.962 -0.1012 -1.7761 -1.4572
  809MOL0     H11594   9.707  10.108   5.264  1.1877  0.6261 -0.1398
  809MOL0     H11595   9.842  10.181   5.179  0.1719 -0.6828  1.5689
  809MOL0     H11596   9.551  10.272   5.189 -0.7607  0.2754 -1.5249
  809MOL0     H11597   9.679  10.345   5.251  0.5475 -0.9238  0.3144
  809MOL0     H11598   9.620  10.341   4.962  1.1643 -0.7438  1.1194
  809MOL0     H11599   9.641  10.478   5.072 -0.7163 -1.0909  4.6782
  809MOL0     H11600   9.679  10.576   4.867 -0.4558 -0.9856  0.4746
  809MOL0     H11601   9.730  10.798   4.617  4.3020 -0.4288 -0.1127
  809MOL0     H11602   9.602  10.695   4.683  1.0782  2.5887  0.6821
  809MOL0     H11603   9.699  10.658   4.530  2.1250  0.8353 -0.1091
  809MOL0     H11604  10.090  10.635   4.245  3.0020  0.5627 -2.4833
  809MOL0     H11605  10.234  10.769   4.093 -0.0840 -1.5642  0.9094
  809MOL0     H11606  10.406  10.967   4.162  0.2906  0.7947 -0.1799
  809MOL0     H11607  10.363  10.897   4.001  0.0068 -1.8453  1.9525
  809MOL0     H11608  10.555  11.066   4.002  1.5210  4.2671 -0.2098
  809MOL0     H11609  10.409  11.125   3.903 -0.6679  0.7801 -0.3776
  809MOL0     H11610  10.435  11.223   4.180 -2.4365 -0.1623  0.4961
  809MOL0     H11611  10.363  11.283   4.033  0.2465 -0.4149 -0.3765
  809MOL0     H11612  10.655  11.278   3.981 -2.8192  0.5454 -2.5118
  809MOL0     H11613  10.638  11.318   4.148 -0.3805 -4.2367  0.4852
  809MOL0     H11614  10.496  11.518   4.073  0.6375 -0.0057 -0.3675
  809MOL0     H11615  10.660  11.511   4.004  0.1360 -0.2682  0.3016
  809MOL0     H11616  10.384  11.461   3.870  0.3713 -3.0244 -1.7421
  809MOL0     H11617  10.514  11.384   3.796 -0.3488 -0.2978 -0.1696
  809MOL0     H11618  10.639  11.615   3.782 -0.4059  3.1331  0.2637
  809MOL0     H11619  10.488  11.686   3.837 -1.5949 -0.8580  0.1934
  809MOL0     H11620  10.518  11.516   3.578 -0.6963  0.7054 -0.5538
  809MOL0     H11621  10.531  11.689   3.597  2.7254 -1.3072 -1.3914
  809MOL0     H11622  10.034  11.124   4.224  1.3862  0.8317  3.2679
  809MOL0     H11623   9.868  10.974   4.373  0.8747 -2.2527  1.8619
  809MOL0     H11624  10.143  10.510   4.700  0.7295  0.9040  2.3041
  809MOL0     H11625  10.076  10.405   4.891  0.6902  1.8416  1.0334
  809MOL0     H11626   9.610  10.121   4.287 -0.0624  0.0572 -1.1353
  809MOL0     H11627   9.428  10.223   4.192 -0.2489 -2.5325  0.5612
  809MOL0     H11628   9.164  10.289   3.861 -1.1482  0.1984  0.7172
  809MOL0     H11629   8.972  10.375   3.757 -0.5434  1.0066  1.0705
  809MOL0     H11630   8.823  10.800   3.653  0.2622 -0.8581  1.1977
  809MOL0     H11631   8.996  10.819   3.695 -0.0815  2.4086 -1.5138
  809MOL0     H11632   8.905  10.740   3.416  3.1799 -0.1562 -2.4670
  809MOL0     H11633   9.066  10.742   3.488 -1.0817 -2.8209  1.8579
  809MOL0     H11634   9.007  10.939   3.348  1.6071 -2.7718  0.4807
  809MOL0     H11635   8.892  10.995   3.470  0.0451 -0.5963 -1.1066
  809MOL0     H11636   9.099  11.012   3.636 -0.8109  2.9153 -0.6995
  809MOL0     H11637   9.091  11.113   3.499 -2.6520  0.3172  1.4735
  809MOL0     H11638   9.442  10.887   3.425  1.4415  1.0620  2.9325
  809MOL0     H11639   9.189  10.751   3.696 -0.7482  0.3633  0.8618
  809MOL0     H11640   9.483  10.658   3.885  1.5804  1.9047 -0.2967
  809MOL0     H11641   9.480  10.656   3.705  0.2535  0.2979  0.5827
  809MOL0     H11642   9.389  10.782   3.800 -1.5457 -0.2602  0.1302
  810MOL0     O11643   0.876   9.708   4.423 -0.0667 -0.5870  0.1931
  810MOL0     C11644   0.761   9.743   4.379 -0.2968  0.9990  1.1150
  810MOL0     O11645   0.644   9.718   4.445  0.1538  0.2689  0.2232
  810MOL0     C11646   0.646   9.675   4.575 -0.1345 -1.3144 -0.7149
  810MOL0     C11647   0.633   9.783   4.666  0.0758  0.3146 -0.3253
  810MOL0     C11648   0.642   9.766   4.806  0.0275  0.2889  0.9285
  810MOL0     C11649   0.665   9.633   4.849  0.2959  0.1182 -1.1649
  810MOL0     O11650   0.671   9.578   4.984  0.2239 -0.5408  0.5254
  810MOL0     C11651   0.699   9.683   5.069  0.0540 -0.2106 -0.6103
  810MOL0     C11652   0.728   9.630   5.212  0.2038  0.5650  0.3420
  810MOL0     C11653   0.868   9.563   5.227 -0.8968  0.9932 -0.5359
  810MOL0     C11654   0.884   9.525   5.370  0.4425 -0.0386 -0.4183
  810MOL0     C11655   1.038   9.517   5.390  0.0789  0.3177 -0.8294
  810MOL0     C11656   1.065   9.464   5.537 -1.2753  0.2821  0.1656
  810MOL0     C11657   1.000   9.334   5.577  0.4747  0.2517  0.6298
  810MOL0     C11658   1.037   9.219   5.482  1.1111 -0.3162 -0.8470
  810MOL0     N11659   0.972   9.094   5.515 -0.3819 -0.0442  0.9180
  810MOL0     C11660   0.975   9.026   5.640 -0.2470 -0.1123  0.6876
  810MOL0     C11661   0.957   8.897   5.615 -0.3099 -0.3615 -0.6203
  810MOL0     C11662   0.937   8.795   5.723 -0.6609  1.1163 -0.3763
  810MOL0     C11663   0.796   8.811   5.773 -0.1256  0.6142 -0.6201
  810MOL0     C11664   0.743   8.717   5.877  0.2866  0.8007  0.7660
  810MOL0     C11665   0.739   8.566   5.840  0.5250 -0.1243  0.2120
  810MOL0     O11666   0.718   8.477   5.951 -0.1033 -0.2099 -0.4756
  810MOL0     C11667   0.746   8.346   5.938  0.5834  0.8680  0.0414
  810MOL0     C11668   0.732   8.288   5.810  0.2336  0.4429 -0.5662
  810MOL0     C11669   0.741   8.157   5.793  0.4283 -0.7233 -0.1949
  810MOL0     C11670   0.746   8.113   5.647  0.0155 -0.1358 -0.2175
  810MOL0     C11671   0.735   8.071   5.908 -0.4631  0.4900 -0.0772
  810MOL0     C11672   0.727   7.922   5.899 -0.2056 -0.4609  0.0821
  810MOL0     O11673   0.663   7.844   5.991  0.5981 -0.6403 -0.6623
  810MOL0     C11674   0.662   7.703   5.979  0.0725  0.4699 -0.1993
  810MOL0     C11675   0.538   7.640   6.022 -0.0262  0.1228 -0.5525
  810MOL0     C11676   0.526   7.499   6.019 -0.7309  0.2465  0.1335
  810MOL0     C11677   0.622   7.414   5.955  0.1283  0.0752  0.7043
  810MOL0     O11678   0.595   7.282   5.939 -0.0977  0.2024 -0.2325
  810MOL0     C11679   0.654   7.209   5.829  0.1231 -0.7602 -0.7872
  810MOL0     C11680   0.575   7.078   5.814 -0.4760 -0.0426 -0.4333
  810MOL0     C11681   0.584   6.978   5.929  0.2290 -0.6756  0.8267
  810MOL0     C11682   0.551   6.837   5.873  0.0786 -0.4554  0.2446
  810MOL0     C11683   0.581   6.732   5.973 -0.0277 -0.2932 -0.7106
  810MOL0     C11684   0.574   6.595   5.920  0.1446 -0.8157 -0.5097
  810MOL0     C11685   0.547   6.496   6.039 -0.6299  0.0125  0.4091
  810MOL0     C11686   0.673   6.469   6.127 -0.1777  0.0301 -0.6574
  810MOL0    Cl11687   0.787   6.401   6.010  0.2992 -0.2662 -0.2406
  810MOL0     C11688   0.742   7.486   5.909 -0.4628  0.2743  1.2059
  810MOL0     C11689   0.764   7.623   5.931  0.4850 -0.8074 -0.3862
  810MOL0     O11690   0.787   7.878   5.807  0.5873  0.4302 -0.4983
  810MOL0     C11691   0.733   8.129   6.035  0.6021  0.3428 -0.4056
  810MOL0     C11692   0.747   8.266   6.052  0.3229  0.2639  0.0118
  810MOL0     N11693   0.939   8.883   5.473  0.3714 -0.6099 -0.7917
  810MOL0     N11694   0.954   9.001   5.421  0.2126 -0.5161  0.0081
  810MOL0     C11695   0.692   9.537   4.750 -0.9149 -0.5902  0.1761
  810MOL0     C11696   0.680   9.548   4.615 -0.2713  0.9373  0.8089
  810MOL0     C11697   0.752   9.783   4.232  0.1805  0.0331  1.3023
  810MOL0     C11698   0.622   9.821   4.185  0.9813  0.5783 -0.7230
  810MOL0     C11699   0.611   9.873   4.060  0.3316 -1.2139  0.2703
  810MOL0     C11700   0.716   9.900   3.971 -0.4592 -0.2688  0.3568
  810MOL0     O11701   0.702   9.949   3.843 -0.6848  0.1131 -0.5578
  810MOL0     C11702   0.610  10.055   3.837  0.1103 -0.1326  0.2122
  810MOL0     C11703   0.593  10.099   3.692  0.7577 -1.0231 -1.2305
  810MOL0     C11704   0.513  10.231   3.695 -0.7874  0.0381  0.4876
  810MOL0     C11705   0.371  10.222   3.733 -0.6363 -0.1538  0.2169
  810MOL0     C11706   0.291  10.153   3.631 -0.1245  0.0750  0.1794
  810MOL0     C11707   0.226  10.097   3.548 -0.1972  0.2303  0.3891
  810MOL0     C11708   0.840   9.853   4.012  0.4467  0.5935 -1.0974
  810MOL0     C11709   0.858   9.793   4.145  0.2340  0.0622  0.2378
  810MOL0     C11710   0.999   9.742   4.181 -0.4367  0.5884  0.4885
  810MOL0     H11711   0.619   9.885   4.632  1.8302  0.9975  0.8555
  810MOL0     H11712   0.662   9.857   4.861  1.8368  2.2015 -2.5147
  810MOL0     H11713   0.607   9.742   5.066  1.1402  1.5079 -2.6308
  810MOL0     H11714   0.777   9.756   5.046  1.3797 -1.7210 -1.0771
  810MOL0     H11715   0.729   9.716   5.279 -0.1837 -0.2428  1.4111
  810MOL0     H11716   0.657   9.554   5.246 -1.5026  1.0372 -1.9805
  810MOL0     H11717   0.885   9.470   5.173  1.1724 -0.3578  2.2125
  810MOL0     H11718   0.944   9.636   5.195 -1.6590  2.6046  1.1403
  810MOL0     H11719   0.842   9.598   5.441  1.5778 -0.2851  0.5310
  810MOL0     H11720   0.827   9.436   5.400  2.1272  0.0682  3.7173
  810MOL0     H11721   1.085   9.615   5.389  2.1609 -0.5599  1.2140
  810MOL0     H11722   1.081   9.442   5.322  1.4939 -0.2506  0.6408
  810MOL0     H11723   1.171   9.458   5.564 -1.1538 -2.8347 -0.6197
  810MOL0     H11724   1.035   9.542   5.608  2.9726  0.5544  1.9801
  810MOL0     H11725   0.892   9.351   5.580  0.1893 -1.4810  2.7349
  810MOL0     H11726   1.022   9.308   5.681  0.1463 -1.0256  0.3900
  810MOL0     H11727   1.006   9.237   5.379 -0.8174 -0.1203 -0.2743
  810MOL0     H11728   1.145   9.205   5.494  0.5355 -4.0020  2.4605
  810MOL0     H11729   0.994   9.066   5.739 -1.7398 -2.2192  1.8928
  810MOL0     H11730   1.008   8.810   5.805  0.2412  3.5674 -1.5067
  810MOL0     H11731   0.943   8.692   5.686 -1.6019  0.6879  0.6168
  810MOL0     H11732   0.767   8.907   5.818 -3.2947 -0.8338  0.7387
  810MOL0     H11733   0.732   8.791   5.686  1.7387  3.7308 -2.9291
  810MOL0     H11734   0.818   8.734   5.955  0.8610 -1.5057  0.7661
  810MOL0     H11735   0.641   8.749   5.902 -1.6841 -1.1602 -3.7531
  810MOL0     H11736   0.662   8.567   5.761  1.0983  1.4836 -0.3760
  810MOL0     H11737   0.829   8.536   5.785  0.3759 -2.5505  1.1918
  810MOL0     H11738   0.718   8.361   5.731  2.7806  2.6999  0.9030
  810MOL0     H11739   0.843   8.066   5.626 -0.5745 -1.2727 -0.4638
  810MOL0     H11740   0.738   8.197   5.578  1.1732  0.3316  0.1909
  810MOL0     H11741   0.675   8.031   5.633 -1.0274 -0.9479  6.4753
  810MOL0     H11742   0.468   7.712   6.064  2.4187  2.7090 -0.5947
  810MOL0     H11743   0.442   7.444   6.062  0.7161 -3.9187 -1.7533
  810MOL0     H11744   0.639   7.264   5.736  0.7599  0.2515 -0.3037
  810MOL0     H11745   0.761   7.193   5.841  0.0641 -0.2128  0.7284
  810MOL0     H11746   0.468   7.096   5.797 -0.8297 -0.7672  0.8694
  810MOL0     H11747   0.617   7.030   5.725 -0.5450  1.1184 -1.1128
  810MOL0     H11748   0.523   7.008   6.014  0.0168 -1.4954  0.9723
  810MOL0     H11749   0.687   6.974   5.966  1.4612 -0.9001 -2.3165
  810MOL0     H11750   0.606   6.805   5.784  3.8612  1.7795  1.5403
  810MOL0     H11751   0.443   6.845   5.854 -0.6661  0.7325  4.0576
  810MOL0     H11752   0.684   6.738   6.010 -0.4533 -1.2805  0.6814
  810MOL0     H11753   0.515   6.749   6.058  0.6992  3.3246 -0.6830
  810MOL0     H11754   0.663   6.576   5.859 -1.9430 -0.8266 -3.7990
  810MOL0     H11755   0.488   6.587   5.852 -0.4272  2.2679 -0.2744
  810MOL0     H11756   0.523   6.405   5.983  3.3115 -1.4493  0.7699
  810MOL0     H11757   0.465   6.521   6.107 -0.9089  0.7863 -0.2029
  810MOL0     H11758   0.658   6.406   6.215  3.2885 -1.5227 -1.0092
  810MOL0     H11759   0.708   6.564   6.169  0.1826 -0.3810 -0.0112
  810MOL0     H11760   0.822   7.421   5.874  1.6837  2.3776  1.9013
  810MOL0     H11761   0.860   7.670   5.909 -0.6868  0.3232 -3.5927
  810MOL0     H11762   0.714   8.059   6.116  0.2760 -0.1184 -0.8796
  810MOL0     H11763   0.741   8.319   6.146 -2.4496  1.8915 -0.9697
  810MOL0     H11764   0.726   9.441   4.786  1.6534  0.4599  0.7407
  810MOL0     H11765   0.669   9.459   4.554 -1.0689  1.0146  0.8305
  810MOL0     H11766   0.536   9.817   4.251  0.3566  0.0774 -1.5417
  810MOL0     H11767   0.511   9.899   4.027  0.7331 -1.3525 -1.0889
  810MOL0     H11768   0.509  10.035   3.874  1.3765 -3.0430  2.5493
  810MOL0     H11769   0.640  10.140   3.899 -1.7060 -0.7416  2.0232
  810MOL0     H11770   0.536  10.030   3.629  0.3901 -1.2111 -0.6939
  810MOL0     H11771   0.688  10.137   3.653 -0.2716  2.1756 -0.9646
  810MOL0     H11772   0.561  10.311   3.753 -0.9189  0.8339 -0.4919
  810MOL0     H11773   0.514  10.278   3.596 -0.2812 -1.1139 -0.0700
  810MOL0     H11774   0.330  10.323   3.721 -0.5175 -0.0748  0.4685
  810MOL0     H11775   0.341  10.183   3.830 -1.4262 -1.1093 -0.3911
  810MOL0     H11776   0.178  10.055   3.462 -1.1878  0.9085  0.5894
  810MOL0     H11777   0.927   9.863   3.948  0.2912  2.5918 -1.0539
  810MOL0     H11778   1.064   9.755   4.093  1.8716  2.3179  2.3286
  810MOL0     H11779   1.040   9.801   4.263 -1.0315  2.2362 -0.3381
  810MOL0     H11780   1.007   9.640   4.220  1.3199 -0.0944 -1.4640
  811MOL0     O11781   9.032   7.309   0.031 -0.5051 -0.2278  0.3632
  811MOL0     C11782   9.093   7.342   0.127  0.4041 -0.3935 -0.9253
  811MOL0     O11783   9.170   7.447   0.129  0.4157  0.2399  0.8024
  811MOL0     C11784   9.185   7.534   0.016  0.1828  0.2341 -0.0621
  811MOL0     C11785   9.078   7.597  -0.052 -0.4450  0.2396  0.8183
  811MOL0     C11786   9.104   7.693  -0.157 -0.1345 -0.4216 -0.7840
  811MOL0     C11787   9.236   7.733  -0.178 -0.0295  0.5951 -0.2557
  811MOL0     O11788   9.265   7.812  -0.284 -0.6063  0.2308  0.6606
  811MOL0     C11789   9.369   7.910  -0.279 -0.3342  0.4680  0.1034
  811MOL0     C11790   9.375   7.981  -0.422  0.0659 -0.2327 -0.5435
  811MOL0     C11791   9.456   8.110  -0.426  0.1460  0.9401  0.4727
  811MOL0     C11792   9.601   8.079  -0.380  0.4061  0.1326  0.1356
  811MOL0     C11793   9.689   8.204  -0.393 -0.5610  0.2074 -0.1047
  811MOL0     C11794   9.773   8.229  -0.269  0.4528 -0.1369  0.4347
  811MOL0     C11795   9.903   8.143  -0.270 -0.0805  0.1303  0.4759
  811MOL0     C11796   9.966   8.116  -0.134  0.9016 -0.0328  0.2830
  811MOL0     N11797  10.051   7.987  -0.146  0.8158  0.0889  0.4067
  811MOL0     C11798  10.191   7.994  -0.165  0.6401 -0.7196 -0.1729
  811MOL0     C11799  10.230   7.863  -0.154  0.1173 -0.6871  0.8169
  811MOL0     C11800  10.364   7.814  -0.162 -0.6017  0.4920  0.4914
  811MOL0     C11801  10.431   7.859  -0.289 -0.7460  0.1299 -0.4248
  811MOL0     C11802  10.398   7.766  -0.406  0.0697  0.8198  0.1651
  811MOL0     C11803  10.420   7.833  -0.541 -0.1543 -0.7019  0.2579
  811MOL0     O11804  10.559   7.870  -0.567  0.0749  0.9221  0.6906
  811MOL0     C11805  10.652   7.769  -0.579 -0.1941 -0.0115 -0.0536
  811MOL0     C11806  10.627   7.635  -0.610 -0.3370  0.1360  0.5218
  811MOL0     C11807  10.725   7.533  -0.613  0.3830 -0.1774 -0.7308
  811MOL0     C11808  10.678   7.392  -0.641 -0.2566 -0.5269 -0.4793
  811MOL0     C11809  10.861   7.569  -0.586 -0.1312  0.0616  0.3855
  811MOL0     C11810  10.976   7.479  -0.599 -1.3268  0.9051  0.0050
  811MOL0     O11811  11.082   7.508  -0.536 -0.3933 -0.2687  0.0511
  811MOL0     C11812  11.195   7.430  -0.527  0.2886  0.0608  0.4677
  811MOL0     C11813  11.319   7.503  -0.542  0.6028  0.1742 -0.2073
  811MOL0     C11814  11.439   7.429  -0.552  0.4953 -0.5745  0.1950
  811MOL0     C11815  11.444   7.286  -0.528  0.2911 -0.9599  0.4582
  811MOL0     O11816  11.554   7.198  -0.536  1.0640 -1.0098 -0.1891
  811MOL0     C11817  11.687   7.256  -0.517  0.0538 -0.0826  0.1943
  811MOL0     C11818  11.717   7.228  -0.366 -0.3910 -0.2779  0.1900
  811MOL0     C11819  11.846   7.303  -0.320 -0.0098 -0.0955  0.6565
  811MOL0     C11820  11.969   7.232  -0.372 -1.2586  1.1357  0.5127
  811MOL0     C11821  12.089   7.328  -0.351  0.0012 -0.3232 -1.0219
  811MOL0     C11822  12.218   7.261  -0.410 -0.1678 -0.2669 -0.2417
  811MOL0     C11823  12.347   7.349  -0.404 -0.1646  0.3215  0.3731
  811MOL0     C11824  12.480   7.276  -0.455  0.5084 -0.0476 -1.1168
  811MOL0    Cl11825  12.471   7.253  -0.632 -0.1840  0.4537  0.0672
  811MOL0     C11826  11.324   7.229  -0.506  0.0221  0.1332 -1.4349
  811MOL0     C11827  11.196   7.296  -0.504 -0.6165 -0.5549 -1.1082
  811MOL0     O11828  10.974   7.384  -0.682 -0.4461  0.5651  0.1288
  811MOL0     C11829  10.896   7.700  -0.547 -0.2991  0.0115 -0.5514
  811MOL0     C11830  10.791   7.804  -0.552  0.4849 -0.7067  0.7122
  811MOL0     N11831  10.118   7.786  -0.121 -0.3269 -0.1039  0.6176
  811MOL0     N11832  10.012   7.863  -0.118 -0.7592 -0.1332  0.2070
  811MOL0     C11833   9.347   7.671  -0.114  0.3922  1.0109  0.1707
  811MOL0     C11834   9.321   7.574  -0.010 -0.7041  0.0738 -0.1805
  811MOL0     C11835   9.039   7.282   0.256  0.4631 -0.2227  0.4047
  811MOL0     C11836   8.900   7.247   0.260  0.1532  0.3696 -0.6159
  811MOL0     C11837   8.843   7.201   0.376  0.1371 -0.1463  0.2419
  811MOL0     C11838   8.920   7.207   0.501  0.3629  0.4647  0.0025
  811MOL0     O11839   8.870   7.179   0.628  0.5028 -1.1201  0.4198
  811MOL0     C11840   8.722   7.192   0.640  0.2145  0.2222 -0.0931
  811MOL0     C11841   8.670   7.336   0.619  0.4089 -0.4980 -0.4771
  811MOL0     C11842   8.547   7.351   0.710  0.3843 -0.0092  0.9204
  811MOL0     C11843   8.514   7.490   0.765  0.0100  0.1808 -0.2054
  811MOL0     C11844   8.604   7.548   0.868  0.0643  0.3385 -0.8312
  811MOL0     C11845   8.687   7.612   0.939 -0.5557  0.3977  0.1460
  811MOL0     C11846   9.060   7.240   0.497 -0.2783 -0.2537  0.5547
  811MOL0     C11847   9.117   7.272   0.374 -0.5861 -0.0115  0.1206
  811MOL0     C11848   9.267   7.304   0.382  0.3548  0.0600 -0.0029
  811MOL0     H11849   8.977   7.574  -0.022 -0.7907  2.4535  1.4950
  811MOL0     H11850   9.024   7.739  -0.213 -1.2057 -0.9102  0.3041
  811MOL0     H11851   9.462   7.854  -0.262  0.2110  1.1330 -0.6222
  811MOL0     H11852   9.351   7.979  -0.196 -1.0495 -2.4780  2.6075
  811MOL0     H11853   9.413   7.901  -0.486  0.5968 -3.0111  2.9155
  811MOL0     H11854   9.275   8.012  -0.456  0.5594  5.0809  1.8996
  811MOL0     H11855   9.467   8.146  -0.528  4.3596 -2.8758 -0.7122
  811MOL0     H11856   9.410   8.178  -0.354 -2.8501 -2.4465  2.0891
  811MOL0     H11857   9.598   8.053  -0.274  0.4695  0.8693  0.3243
  811MOL0     H11858   9.637   7.996  -0.441  3.2229  0.6141  0.9971
  811MOL0     H11859   9.631   8.296  -0.402 -0.8641  0.1426  1.0069
  811MOL0     H11860   9.746   8.195  -0.486 -0.2747  1.1812 -0.0393
  811MOL0     H11861   9.821   8.327  -0.266 -0.8260  0.5339 -0.2591
  811MOL0     H11862   9.703   8.212  -0.186  1.0307  0.5116  1.0675
  811MOL0     H11863   9.975   8.188  -0.339  0.9304 -0.0811  1.3600
  811MOL0     H11864   9.877   8.048  -0.317 -1.2349  0.5934  0.1376
  811MOL0     H11865  10.030   8.196  -0.098  1.2203 -0.6411  1.0939
  811MOL0     H11866   9.879   8.100  -0.070 -0.0808  0.9192 -0.7729
  811MOL0     H11867  10.257   8.078  -0.185  4.8632 -3.9887 -1.5723
  811MOL0     H11868  10.357   7.706  -0.145  1.0717  0.0050 -1.4759
  811MOL0     H11869  10.424   7.842  -0.075  1.5905 -3.0649  0.3297
  811MOL0     H11870  10.411   7.966  -0.298 -4.1677 -0.5850 -5.2981
  811MOL0     H11871  10.537   7.848  -0.265 -0.2713  3.9570 -0.1363
  811MOL0     H11872  10.462   7.678  -0.402 -0.4873  0.4364  2.5327
  811MOL0     H11873  10.293   7.734  -0.404  0.3090 -0.2972 -2.0505
  811MOL0     H11874  10.395   7.762  -0.620 -0.6667  2.3136 -2.4993
  811MOL0     H11875  10.360   7.924  -0.541 -1.0095 -1.2445  1.4751
  811MOL0     H11876  10.528   7.607  -0.643 -0.0462  0.0988 -0.3648
  811MOL0     H11877  10.744   7.322  -0.589  2.2828  2.2971  0.4436
  811MOL0     H11878  10.659   7.364  -0.745 -0.7726  4.6354 -2.0419
  811MOL0     H11879  10.578   7.371  -0.602 -0.5569  2.2617  0.4647
  811MOL0     H11880  11.327   7.610  -0.558 -1.8762  0.5261  0.6202
  811MOL0     H11881  11.530   7.487  -0.566  0.5091  0.7162  4.2385
  811MOL0     H11882  11.762   7.205  -0.577  1.6793  2.5931 -0.2269
  811MOL0     H11883  11.694   7.365  -0.525 -1.1902  0.2606  2.7430
  811MOL0     H11884  11.631   7.273  -0.315 -1.5774 -1.3867 -0.7553
  811MOL0     H11885  11.733   7.127  -0.327  1.5445  0.2228  0.7873
  811MOL0     H11886  11.840   7.312  -0.211  3.1822 -2.0232  1.1192
  811MOL0     H11887  11.829   7.403  -0.361 -1.5224 -1.0613 -1.2140
  811MOL0     H11888  11.966   7.205  -0.478  0.6728 -0.8226  0.8667
  811MOL0     H11889  11.983   7.138  -0.318 -0.4422  1.7748  1.4576
  811MOL0     H11890  12.073   7.424  -0.401  2.9956  0.3399 -0.9127
  811MOL0     H11891  12.100   7.345  -0.244  0.6137 -1.5903 -0.8553
  811MOL0     H11892  12.204   7.230  -0.513  3.7668 -2.1565 -0.3879
  811MOL0     H11893  12.227   7.175  -0.342  2.3662 -2.0468 -2.6048
  811MOL0     H11894  12.353   7.395  -0.305 -2.0015 -0.5265  0.9317
  811MOL0     H11895  12.332   7.430  -0.475  2.9340  1.2021  0.6084
  811MOL0     H11896  12.490   7.181  -0.403  0.6335  0.1029 -0.8654
  811MOL0     H11897  12.569   7.335  -0.433  1.2539 -1.5024 -0.1382
  811MOL0     H11898  11.321   7.122  -0.487 -3.0322 -0.0737 -2.4580
  811MOL0     H11899  11.107   7.237  -0.491 -0.7177  0.1144  1.7023
  811MOL0     H11900  11.002   7.721  -0.542 -0.3474  0.1289  0.0288
  811MOL0     H11901  10.813   7.905  -0.521 -0.6592 -0.4935  0.8574
  811MOL0     H11902   9.452   7.695  -0.128  1.1431 -2.2401 -0.5261
  811MOL0     H11903   9.400   7.532   0.051 -1.5778 -1.5721 -0.1243
  811MOL0     H11904   8.841   7.248   0.169 -3.0951 -1.9074  1.2661
  811MOL0     H11905   8.747   7.151   0.363  0.7596 -1.2563 -0.2029
  811MOL0     H11906   8.672   7.124   0.571 -1.3646  1.6030 -0.3626
  811MOL0     H11907   8.688   7.148   0.734  1.0490  1.2967  0.7402
  811MOL0     H11908   8.649   7.352   0.513  0.2892  0.6645 -0.2965
  811MOL0     H11909   8.756   7.397   0.646  1.2272 -0.3210 -3.2078
  811MOL0     H11910   8.460   7.321   0.650  0.1579  0.5955  0.9413
  811MOL0     H11911   8.540   7.281   0.795 -0.2224  0.5398  1.3322
  811MOL0     H11912   8.412   7.479   0.803 -0.2498 -1.3544 -1.2357
  811MOL0     H11913   8.504   7.557   0.678 -0.8578  0.6347  0.2299
  811MOL0     H11914   8.734   7.662   1.021 -2.5981  1.0356  1.0077
  811MOL0     H11915   9.109   7.245   0.594 -2.9661  0.4137  1.9708
  811MOL0     H11916   9.334   7.249   0.315  0.4418 -0.8850  0.8471
  811MOL0     H11917   9.283   7.412   0.382 -3.6965  0.8605  2.0366
  811MOL0     H11918   9.298   7.297   0.486 -0.7348  1.1346  0.4151
  812MOL0     O11919   0.356   5.660  11.243 -0.6072 -0.9990  0.4329
  812MOL0     C11920   0.279   5.747  11.210  0.5526 -0.9366  0.5924
  812MOL0     O11921   0.288   5.817  11.094 -0.0195 -0.0219 -0.5722
  812MOL0     C11922   0.407   5.859  11.038 -0.3201  0.4174 -0.4227
  812MOL0     C11923   0.379   5.896  10.909 -0.6153  0.1532 -0.1591
  812MOL0     C11924   0.486   5.907  10.817 -0.3426  0.0147 -0.3872
  812MOL0     C11925   0.612   5.895  10.869 -1.0143 -0.8913  0.5868
  812MOL0     O11926   0.720   5.907  10.778 -0.0648 -0.1785  0.3156
  812MOL0     C11927   0.847   5.859  10.807 -0.5630  0.9265  0.5206
  812MOL0     C11928   0.943   5.916  10.704  0.1819 -0.7195 -0.2214
  812MOL0     C11929   0.925   6.073  10.686 -0.2127  1.5259  0.5682
  812MOL0     C11930   1.055   6.130  10.618  0.2116 -0.6362 -0.2442
  812MOL0     C11931   1.010   6.249  10.530  1.0509 -0.1558  0.7903
  812MOL0     C11932   1.130   6.311  10.459 -0.1661  0.1441 -0.2620
  812MOL0     C11933   1.093   6.424  10.350 -0.1163  0.3481  0.0960
  812MOL0     C11934   1.083   6.564  10.406 -0.5315 -0.1928 -0.2636
  812MOL0     N11935   1.105   6.667  10.301  0.1385 -0.8473 -0.6691
  812MOL0     C11936   1.063   6.650  10.173 -0.5202 -0.0451  0.9484
  812MOL0     C11937   1.123   6.753  10.111  0.9903  1.2990  0.0225
  812MOL0     C11938   1.098   6.799   9.973 -0.7036  0.5914  0.2020
  812MOL0     C11939   1.219   6.755   9.889 -0.0759 -0.3490  0.1840
  812MOL0     C11940   1.251   6.860   9.784  0.0622 -0.0480 -0.2941
  812MOL0     C11941   1.399   6.863   9.771 -1.0641 -0.3470  0.2529
  812MOL0     O11942   1.471   6.902   9.884 -0.0837  0.1065 -0.0648
  812MOL0     C11943   1.606   6.882   9.899 -0.4781 -0.8863 -0.8947
  812MOL0     C11944   1.699   6.837   9.812  1.1380 -0.2056  0.4695
  812MOL0     C11945   1.838   6.822   9.834  0.1982  0.5793 -0.5456
  812MOL0     C11946   1.904   6.747   9.714  0.1328 -0.1343 -0.0536
  812MOL0     C11947   1.898   6.876   9.949 -0.3263 -0.8520  0.6862
  812MOL0     C11948   2.039   6.878   9.970 -0.5433 -0.2819 -0.1305
  812MOL0     O11949   2.122   6.861   9.872 -0.8969 -0.3516 -0.6025
  812MOL0     C11950   2.239   6.944   9.845  0.3641  1.0537 -0.0953
  812MOL0     C11951   2.259   7.071   9.904  0.0328  0.1765 -0.7613
  812MOL0     C11952   2.363   7.155   9.857  0.2311  0.6895  0.0476
  812MOL0     C11953   2.441   7.120   9.752  0.7190  0.9075 -0.0814
  812MOL0     O11954   2.536   7.207   9.715 -0.4114  0.2242  1.1009
  812MOL0     C11955   2.642   7.172   9.636 -0.7069  0.5239  0.2690
  812MOL0     C11956   2.752   7.110   9.718 -0.8851 -0.1325 -0.2117
  812MOL0     C11957   2.806   7.199   9.834  0.0127 -0.6228 -1.2204
  812MOL0     C11958   2.822   7.349   9.800 -0.0072  0.6930 -0.2137
  812MOL0     C11959   2.877   7.430   9.925 -0.0186  0.8340  1.2975
  812MOL0     C11960   2.933   7.566   9.868  0.0002  0.1533  0.3724
  812MOL0     C11961   3.006   7.634   9.979 -0.1388 -0.9969  0.0589
  812MOL0     C11962   2.919   7.688  10.090  0.0947 -0.3971  0.0169
  812MOL0    Cl11963   3.014   7.780  10.215 -0.5862  0.3360 -0.3074
  812MOL0     C11964   2.426   6.984   9.698  0.4079 -0.3911 -0.4896
  812MOL0     C11965   2.326   6.901   9.746 -1.0111  0.0267 -1.3172
  812MOL0     O11966   2.076   6.902  10.089  0.4587  0.4237  0.2328
  812MOL0     C11967   1.804   6.921  10.045  0.1064 -0.1749  0.7511
  812MOL0     C11968   1.663   6.918  10.022 -0.4512  0.1793 -0.0245
  812MOL0     N11969   1.185   6.830  10.202 -0.9967 -0.7454  0.2510
  812MOL0     N11970   1.180   6.782  10.318  0.3244 -0.1604  0.2710
  812MOL0     C11971   0.642   5.873  11.003  0.5286  0.5611  0.4683
  812MOL0     C11972   0.542   5.849  11.095  0.5589  0.0699 -0.0551
  812MOL0     C11973   0.149   5.765  11.288 -0.0125 -0.4168 -1.0379
  812MOL0     C11974   0.141   5.681  11.402  0.7263  0.4730  0.3347
  812MOL0     C11975   0.034   5.693  11.480  1.3317 -0.8581 -1.0958
  812MOL0     C11976  -0.062   5.799  11.471  0.4830 -0.7423  0.2760
  812MOL0     O11977  -0.166   5.821  11.562 -0.1727 -0.2067 -0.2285
  812MOL0     C11978  -0.151   5.775  11.702  0.2604 -0.5857 -0.1659
  812MOL0     C11979  -0.051   5.842  11.788 -0.3099 -0.1947 -0.2201
  812MOL0     C11980  -0.042   6.001  11.781 -0.0841  0.0063 -1.2798
  812MOL0     C11981   0.056   6.049  11.666 -0.1387 -0.3915 -0.4149
  812MOL0     C11982   0.197   6.031  11.708  0.3542  0.3449  1.0775
  812MOL0     C11983   0.317   6.001  11.718 -0.6578 -0.0338 -0.7853
  812MOL0     C11984  -0.060   5.866  11.348  0.1816  1.0095 -0.7112
  812MOL0     C11985   0.045   5.852  11.255  0.6041 -0.6217 -0.2689
  812MOL0     C11986   0.043   5.951  11.129 -0.1907  0.0446 -0.0373
  812MOL0     H11987   0.277   5.911  10.875 -0.1343 -0.8457 -2.2046
  812MOL0     H11988   0.469   5.915  10.710  2.3261 -0.6348 -0.9391
  812MOL0     H11989   0.850   5.752  10.786 -1.3365  0.8390  0.8370
  812MOL0     H11990   0.888   5.894  10.903  2.8969  2.4294 -1.3291
  812MOL0     H11991   1.041   5.899  10.748 -0.0901  2.1062  1.7642
  812MOL0     H11992   0.934   5.872  10.604  0.9049 -0.9815 -0.1738
  812MOL0     H11993   0.830   6.095  10.637 -0.0256 -3.0247 -2.5806
  812MOL0     H11994   0.913   6.129  10.779  0.9704  0.5037  1.3697
  812MOL0     H11995   1.120   6.177  10.693  0.2554  2.5321 -2.0730
  812MOL0     H11996   1.100   6.050  10.558 -3.1940 -1.4087 -2.0097
  812MOL0     H11997   0.961   6.332  10.582 -0.7768 -0.3681 -0.5305
  812MOL0     H11998   0.938   6.207  10.459 -1.2167  1.3093  2.1106
  812MOL0     H11999   1.198   6.365  10.525 -2.7834  3.7033 -0.1683
  812MOL0     H12000   1.178   6.226  10.411 -1.5901  0.7218 -2.8936
  812MOL0     H12001   0.995   6.396  10.312 -1.0355  0.7446  2.0605
  812MOL0     H12002   1.159   6.418  10.262 -1.9780 -0.3309 -1.3306
  812MOL0     H12003   0.985   6.568  10.455 -0.3292 -0.9290  0.2170
  812MOL0     H12004   1.156   6.577  10.486  0.6329 -0.9797 -1.1665
  812MOL0     H12005   1.001   6.571  10.130  2.7971 -2.8203  0.8337
  812MOL0     H12006   1.096   6.909   9.978 -0.8341  0.5817  0.3694
  812MOL0     H12007   1.007   6.763   9.925 -0.8280  2.3644 -0.9938
  812MOL0     H12008   1.314   6.759   9.943  0.5989  2.1933 -1.0206
  812MOL0     H12009   1.204   6.657   9.843  0.7595 -0.5024  0.2136
  812MOL0     H12010   1.217   6.824   9.687  1.2375  0.7183 -1.0166
  812MOL0     H12011   1.225   6.963   9.807  1.8971  0.4089 -0.0888
  812MOL0     H12012   1.427   6.765   9.732  0.0237 -0.4864  1.3380
  812MOL0     H12013   1.430   6.943   9.702  1.7713  1.0966  2.9312
  812MOL0     H12014   1.669   6.793   9.718  2.8571 -2.0355  0.7069
  812MOL0     H12015   1.837   6.743   9.628  2.1175  2.2286 -1.8230
  812MOL0     H12016   1.944   6.650   9.744 -0.2015 -1.1028 -2.5286
  812MOL0     H12017   1.977   6.825   9.692  1.5551 -1.0146  1.3214
  812MOL0     H12018   2.193   7.101   9.985  0.8676 -0.1210  0.0514
  812MOL0     H12019   2.386   7.246   9.910 -5.2621  1.7773  1.1636
  812MOL0     H12020   2.612   7.102   9.558 -1.5511 -1.6027  2.4016
  812MOL0     H12021   2.686   7.256   9.580  2.7322 -2.4926 -2.0326
  812MOL0     H12022   2.719   7.011   9.751 -1.3093 -0.2448 -0.9364
  812MOL0     H12023   2.829   7.072   9.650 -1.4413 -1.1157 -0.3171
  812MOL0     H12024   2.900   7.157   9.870  1.2348  1.9982 -1.1279
  812MOL0     H12025   2.730   7.187   9.912  1.4593 -0.7918  0.2095
  812MOL0     H12026   2.729   7.393   9.762  1.1688  0.6557 -3.3697
  812MOL0     H12027   2.893   7.355   9.718  1.4869 -1.0138  0.8572
  812MOL0     H12028   2.797   7.453   9.996 -2.6597 -2.3395 -0.4035
  812MOL0     H12029   2.952   7.377   9.985 -0.3181  0.5337  1.4152
  812MOL0     H12030   2.863   7.618   9.802 -1.8172 -2.3538  0.1467
  812MOL0     H12031   3.008   7.522   9.801  2.1033  0.2928  2.5219
  812MOL0     H12032   3.062   7.717   9.933  2.3531 -3.2391 -1.2229
  812MOL0     H12033   3.084   7.567  10.015  0.9154  0.8854  1.4670
  812MOL0     H12034   2.868   7.602  10.134 -0.4108 -1.3715 -2.3650
  812MOL0     H12035   2.843   7.759  10.057  0.7716  0.3694  0.0670
  812MOL0     H12036   2.488   6.949   9.616  1.0126 -0.4370 -0.0248
  812MOL0     H12037   2.309   6.802   9.704 -3.7890 -0.8102  1.3891
  812MOL0     H12038   1.847   6.961  10.137 -1.0304  0.6785  0.9365
  812MOL0     H12039   1.606   6.968  10.100  1.8050  2.6180  0.2068
  812MOL0     H12040   0.744   5.873  11.038  0.4174  2.4765  0.9300
  812MOL0     H12041   0.555   5.805  11.193  0.8135  1.4111  0.5459
  812MOL0     H12042   0.207   5.596  11.418  2.5570  1.3736 -1.7484
  812MOL0     H12043   0.007   5.615  11.549 -2.5184 -0.1251 -1.5298
  812MOL0     H12044  -0.251   5.793  11.741  1.1012 -1.0779  2.3822
  812MOL0     H12045  -0.142   5.666  11.696 -1.1022 -0.7001 -0.2689
  812MOL0     H12046   0.050   5.818  11.753 -0.5331 -1.7787  0.1457
  812MOL0     H12047  -0.071   5.809  11.890 -2.7212 -0.4431 -0.7135
  812MOL0     H12048  -0.141   6.046  11.767 -1.1348 -2.2237 -1.4032
  812MOL0     H12049  -0.002   6.040  11.875  0.6966 -1.9248 -0.7815
  812MOL0     H12050   0.037   6.156  11.654 -2.8611 -0.5454  1.5954
  812MOL0     H12051   0.038   6.005  11.568  1.4036 -3.1892  0.4311
  812MOL0     H12052   0.415   5.959  11.734 -1.9472 -4.0069 -2.1594
  812MOL0     H12053  -0.133   5.946  11.349  2.9345  3.7603  2.1471
  812MOL0     H12054  -0.044   6.016  11.118 -1.3911 -1.5315 -0.2804
  812MOL0     H12055   0.136   6.008  11.136  0.7799 -1.6438  2.2877
  812MOL0     H12056   0.045   5.895  11.035  2.1064 -1.1736  0.6624
  813MOL0     O12057   5.448   3.718   8.921 -0.4709 -0.3947  0.2593
  813MOL0     C12058   5.527   3.760   8.828  0.2139 -0.0173 -0.5104
  813MOL0     O12059   5.614   3.861   8.848 -0.2216 -0.2498 -0.7698
  813MOL0     C12060   5.659   3.871   8.977  0.7112 -0.5510  0.3949
  813MOL0     C12061   5.737   3.768   9.019  0.1774  0.3805 -0.0243
  813MOL0     C12062   5.786   3.777   9.148 -0.0928  0.4080  0.4370
  813MOL0     C12063   5.742   3.878   9.234 -0.4440  0.3440 -0.0203
  813MOL0     O12064   5.789   3.875   9.357 -0.7706 -0.4106 -0.0265
  813MOL0     C12065   5.836   3.991   9.428 -0.2395 -0.1727  0.3245
  813MOL0     C12066   5.975   3.966   9.467  0.1268 -0.6644  0.2276
  813MOL0     C12067   6.050   4.088   9.498 -0.4462 -0.7926 -0.2534
  813MOL0     C12068   6.012   4.149   9.634 -0.0188  0.3428 -0.3584
  813MOL0     C12069   6.115   4.249   9.677 -0.0765 -0.8494  0.8332
  813MOL0     C12070   6.080   4.328   9.806 -0.2767  0.5110 -0.5198
  813MOL0     C12071   5.974   4.442   9.782 -0.8167  0.2720  0.5393
  813MOL0     C12072   5.830   4.417   9.822  0.2397 -0.5443 -0.1824
  813MOL0     N12073   5.753   4.546   9.831 -0.8343  1.0122  0.0844
  813MOL0     C12074   5.616   4.556   9.831 -0.1663 -0.4936 -0.1116
  813MOL0     C12075   5.589   4.693   9.825 -0.0632  0.2773  0.6981
  813MOL0     C12076   5.444   4.744   9.799 -0.8460 -0.5131 -0.3235
  813MOL0     C12077   5.392   4.685   9.667  0.5048 -0.2219  0.4505
  813MOL0     C12078   5.243   4.725   9.643 -0.2457  0.4293  0.7555
  813MOL0     C12079   5.199   4.679   9.508  0.7217  1.0674 -0.0337
  813MOL0     O12080   5.264   4.756   9.406  0.2571  0.3974 -0.2962
  813MOL0     C12081   5.274   4.699   9.283  0.0927  0.0699  0.1483
  813MOL0     C12082   5.351   4.766   9.186  0.3818  0.1472  0.0760
  813MOL0     C12083   5.386   4.707   9.063 -0.3867  0.5613 -0.0447
  813MOL0     C12084   5.478   4.784   8.964  0.4441 -0.0169  0.8890
  813MOL0     C12085   5.349   4.579   9.026  0.2300 -0.6251 -0.0174
  813MOL0     C12086   5.390   4.510   8.899 -0.4757  0.5236 -0.9794
  813MOL0     O12087   5.413   4.376   8.906  0.3413 -0.2241 -0.0765
  813MOL0     C12088   5.454   4.305   8.790  0.2174  0.4534  0.4450
  813MOL0     C12089   5.408   4.177   8.777 -0.7896 -0.3203  0.0334
  813MOL0     C12090   5.443   4.098   8.664 -0.8693  1.2374  0.6129
  813MOL0     C12091   5.527   4.149   8.562  0.6592 -0.2896 -0.6150
  813MOL0     O12092   5.555   4.088   8.446 -0.1212  0.1466  0.1318
  813MOL0     C12093   5.498   3.958   8.433 -0.1012  0.5647 -0.4847
  813MOL0     C12094   5.504   3.894   8.287 -0.1832 -0.7586 -0.1578
  813MOL0     C12095   5.463   3.996   8.182  0.3758 -0.8884 -0.6705
  813MOL0     C12096   5.421   3.918   8.054 -0.2702  0.3785 -0.3430
  813MOL0     C12097   5.341   3.999   7.955 -0.6476 -0.7338  0.2875
  813MOL0     C12098   5.352   3.932   7.815 -0.0369  0.4473  0.6519
  813MOL0     C12099   5.292   4.008   7.700  0.9291  0.4632  0.3591
  813MOL0     C12100   5.213   3.918   7.602 -1.1274  0.0008  0.5489
  813MOL0    Cl12101   5.280   3.746   7.572 -0.1489  0.3919 -0.4795
  813MOL0     C12102   5.575   4.277   8.588 -0.0557  0.2425 -0.1315
  813MOL0     C12103   5.542   4.359   8.701 -0.6665  0.3006  1.2517
  813MOL0     O12104   5.387   4.582   8.799 -0.4224  1.2822 -0.2486
  813MOL0     C12105   5.261   4.510   9.118 -0.7301 -0.3223 -0.0279
  813MOL0     C12106   5.225   4.577   9.243 -0.4068  0.0212 -0.0926
  813MOL0     N12107   5.709   4.755   9.811  0.1549  0.9553 -0.0044
  813MOL0     N12108   5.799   4.672   9.829 -0.4078  0.1124  0.0180
  813MOL0     C12109   5.666   3.983   9.189 -0.5798 -0.5845  0.1131
  813MOL0     C12110   5.620   3.980   9.055 -1.0059  0.9339  0.1874
  813MOL0     C12111   5.543   3.686   8.701 -0.2397 -0.3500 -0.4520
  813MOL0     C12112   5.659   3.691   8.620  0.4513  0.2947  0.4195
  813MOL0     C12113   5.680   3.633   8.495  0.0789 -0.1176  0.0467
  813MOL0     C12114   5.573   3.583   8.436 -0.7805 -0.1621 -0.0896
  813MOL0     O12115   5.575   3.528   8.310 -0.1792 -0.1499 -0.3152
  813MOL0     C12116   5.650   3.413   8.282  1.3466  0.4354  0.7296
  813MOL0     C12117   5.618   3.317   8.161 -0.0123  0.8364 -0.7005
  813MOL0     C12118   5.610   3.402   8.039  0.4423  0.5151  0.5403
  813MOL0     C12119   5.568   3.312   7.908  0.8945 -0.4200  0.0183
  813MOL0     C12120   5.536   3.410   7.795  0.6199  0.8188 -0.1256
  813MOL0     C12121   5.496   3.468   7.691 -0.7409 -0.2466 -0.3649
  813MOL0     C12122   5.451   3.577   8.501  0.0874  0.1828 -0.7432
  813MOL0     C12123   5.432   3.627   8.632 -0.4334 -0.2453 -0.3224
  813MOL0     C12124   5.301   3.618   8.700 -0.0642 -0.8450  1.3588
  813MOL0     H12125   5.762   3.681   8.959 -1.4965 -0.1872  0.0678
  813MOL0     H12126   5.857   3.704   9.185 -0.8141  0.2674  1.5903
  813MOL0     H12127   5.770   4.003   9.515 -0.3006 -3.0199  0.7909
  813MOL0     H12128   5.836   4.083   9.370 -1.3662 -1.7859 -2.4639
  813MOL0     H12129   5.972   3.902   9.555  2.5958  0.0475  0.9017
  813MOL0     H12130   6.025   3.903   9.393  1.9280 -1.1229  1.7363
  813MOL0     H12131   6.150   4.048   9.513  0.7589  2.4468  1.3481
  813MOL0     H12132   6.058   4.164   9.420 -2.1105 -2.3410 -2.0415
  813MOL0     H12133   5.914   4.197   9.629 -1.0946 -1.7995 -0.6864
  813MOL0     H12134   5.999   4.065   9.703  0.5442  1.7706  1.5842
  813MOL0     H12135   6.131   4.318   9.593 -1.8356 -1.0260  0.3186
  813MOL0     H12136   6.205   4.190   9.696  0.0093 -0.9719  0.0864
  813MOL0     H12137   6.042   4.264   9.887  1.6537 -0.3197 -0.2244
  813MOL0     H12138   6.176   4.359   9.847 -1.7089  3.4300  0.9717
  813MOL0     H12139   5.984   4.463   9.675 -2.0667  0.1212  0.3795
  813MOL0     H12140   6.009   4.526   9.843  0.4336 -0.1118  0.3678
  813MOL0     H12141   5.784   4.352   9.747 -1.6995  0.6681 -0.0982
  813MOL0     H12142   5.839   4.364   9.918 -0.7472 -0.4019 -0.0051
  813MOL0     H12143   5.541   4.479   9.820 -1.7817  0.6209  2.3919
  813MOL0     H12144   5.449   4.854   9.794 -1.4194 -0.4782 -0.1725
  813MOL0     H12145   5.384   4.716   9.886  1.4539  0.4128  1.7006
  813MOL0     H12146   5.462   4.724   9.591 -0.8800 -0.0719 -0.7882
  813MOL0     H12147   5.395   4.577   9.685  2.7800  0.1485  2.9483
  813MOL0     H12148   5.174   4.690   9.719 -0.6340  0.0051  0.2114
  813MOL0     H12149   5.232   4.834   9.642 -1.5722  0.3605 -1.7482
  813MOL0     H12150   5.215   4.570   9.503  1.8176  1.2526 -1.0716
  813MOL0     H12151   5.092   4.702   9.502  0.1730 -1.2137 -0.1135
  813MOL0     H12152   5.403   4.859   9.206  4.2097 -1.4434 -1.4500
  813MOL0     H12153   5.498   4.885   9.002 -1.9491  1.1224 -0.6157
  813MOL0     H12154   5.416   4.799   8.875  0.4752 -1.2652  0.6333
  813MOL0     H12155   5.570   4.728   8.945  0.8970  1.6216 -2.4067
  813MOL0     H12156   5.331   4.135   8.841 -2.6187 -1.8136 -2.9434
  813MOL0     H12157   5.394   4.001   8.666  0.2937  0.4985 -1.8998
  813MOL0     H12158   5.548   3.880   8.491  2.4347  0.0242 -3.1413
  813MOL0     H12159   5.391   3.950   8.450  0.3640  0.1454  2.8461
  813MOL0     H12160   5.611   3.880   8.270  0.2750  3.1683 -1.4761
  813MOL0     H12161   5.448   3.800   8.294  0.1275 -0.9109  0.3741
  813MOL0     H12162   5.533   4.076   8.157 -1.2771  0.1598 -2.0939
  813MOL0     H12163   5.381   4.055   8.223  1.5735 -0.3372  1.0426
  813MOL0     H12164   5.367   3.826   8.078 -1.5648  0.9727 -0.9042
  813MOL0     H12165   5.511   3.881   8.004  0.4625 -0.0378  1.2053
  813MOL0     H12166   5.244   4.032   7.992  0.0320 -0.1850  1.6690
  813MOL0     H12167   5.395   4.094   7.954 -2.4631  0.3462  0.5566
  813MOL0     H12168   5.305   3.836   7.837  2.9170 -1.1047  0.6613
  813MOL0     H12169   5.457   3.920   7.788 -0.1900 -1.6207  0.8670
  813MOL0     H12170   5.368   4.059   7.641  3.4944 -0.3580  2.7186
  813MOL0     H12171   5.224   4.092   7.717 -0.5272 -0.4429 -0.8209
  813MOL0     H12172   5.191   3.965   7.506 -0.7600 -1.7915 -0.4479
  813MOL0     H12173   5.114   3.892   7.641 -1.2106 -2.2298 -0.9796
  813MOL0     H12174   5.633   4.320   8.507  0.8429  2.2868  1.5105
  813MOL0     H12175   5.588   4.458   8.703  1.2476 -0.5592  2.4430
  813MOL0     H12176   5.219   4.413   9.092  0.7562 -0.6669 -1.2745
  813MOL0     H12177   5.160   4.529   9.314  4.1793 -0.2080  4.5185
  813MOL0     H12178   5.637   4.067   9.251  0.4068  1.1180 -1.6247
  813MOL0     H12179   5.561   4.055   9.002  1.2972  1.3856 -1.9089
  813MOL0     H12180   5.748   3.734   8.666  0.8940 -0.9408  0.7674
  813MOL0     H12181   5.781   3.627   8.455 -0.1927 -1.7487 -0.4968
  813MOL0     H12182   5.747   3.459   8.264  1.6584 -0.4863  0.0102
  813MOL0     H12183   5.670   3.348   8.368  3.6199 -0.8906 -0.6984
  813MOL0     H12184   5.526   3.258   8.171  1.0541 -0.5564  1.7900
  813MOL0     H12185   5.697   3.241   8.165 -0.5101  0.3361  2.4961
  813MOL0     H12186   5.547   3.490   8.052  0.0156  0.4269 -0.7809
  813MOL0     H12187   5.715   3.432   8.042  0.6507  0.3828 -2.4302
  813MOL0     H12188   5.486   3.247   7.941  0.7774 -0.4600 -0.3476
  813MOL0     H12189   5.659   3.256   7.884 -0.0365 -1.2283 -1.8338
  813MOL0     H12190   5.453   3.509   7.601  0.2549  1.7914  0.0216
  813MOL0     H12191   5.365   3.529   8.455  0.0163 -0.7449  0.3251
  813MOL0     H12192   5.295   3.557   8.791 -3.9172 -0.2043  1.7006
  813MOL0     H12193   5.255   3.716   8.709  1.5737 -0.0485  1.4239
  813MOL0     H12194   5.239   3.574   8.622  1.7186  0.6569 -1.0137
  814MOL0     O12195   1.807   1.836   6.558 -0.5994  0.1371  0.7741
  814MOL0     C12196   1.715   1.775   6.501  0.4006  0.0157 -0.4854
  814MOL0     O12197   1.595   1.748   6.562 -0.0879  0.6809  0.3390
  814MOL0     C12198   1.594   1.732   6.690  0.1372 -0.5647  0.0309
  814MOL0     C12199   1.552   1.610   6.749  0.2110 -0.0382  0.2203
  814MOL0     C12200   1.563   1.595   6.884  0.0310 -0.0357 -0.4061
  814MOL0     C12201   1.586   1.702   6.969  0.4272 -0.6633  0.9009
  814MOL0     O12202   1.567   1.675   7.103 -0.1220 -0.2790 -0.4934
  814MOL0     C12203   1.650   1.743   7.202 -0.4751 -0.0106 -0.4959
  814MOL0     C12204   1.573   1.850   7.282  1.6874  0.6435 -0.7395
  814MOL0     C12205   1.438   1.809   7.326 -0.0652 -0.1989  0.5964
  814MOL0     C12206   1.362   1.903   7.415  0.0249  0.0531  0.7677
  814MOL0     C12207   1.264   1.814   7.490  0.0932 -0.5823 -0.4010
  814MOL0     C12208   1.193   1.893   7.605  1.0073  0.0648  0.0645
  814MOL0     C12209   1.075   1.816   7.674 -0.4355 -0.8429 -0.2526
  814MOL0     C12210   1.042   1.878   7.814 -0.4687  0.1656  0.2543
  814MOL0     N12211   0.936   1.802   7.884  0.0361  0.4416 -0.5583
  814MOL0     C12212   0.816   1.777   7.844  0.7305  0.7322  1.4980
  814MOL0     C12213   0.756   1.699   7.929 -0.1699 -0.0861 -0.1826
  814MOL0     C12214   0.619   1.638   7.935 -0.6840 -0.1864  0.1785
  814MOL0     C12215   0.519   1.720   7.997  0.6292 -0.2532  0.5783
  814MOL0     C12216   0.379   1.662   8.019  0.2882  0.2080 -0.5786
  814MOL0     C12217   0.371   1.564   8.138 -0.3513 -0.1620 -0.2058
  814MOL0     O12218   0.385   1.621   8.264 -0.1055 -0.1162  0.3962
  814MOL0     C12219   0.374   1.528   8.364 -0.9468  0.7037 -0.2816
  814MOL0     C12220   0.251   1.495   8.414 -0.9302 -0.1155  0.3051
  814MOL0     C12221   0.232   1.399   8.511  0.5539 -0.0867 -0.5817
  814MOL0     C12222   0.087   1.384   8.550 -0.5270  0.0663 -0.1001
  814MOL0     C12223   0.339   1.332   8.561 -0.2416 -0.2173 -0.7014
  814MOL0     C12224   0.311   1.249   8.673 -0.1192  0.0813  0.0783
  814MOL0     O12225   0.357   1.280   8.798  0.3627  0.2933  0.0362
  814MOL0     C12226   0.342   1.182   8.886 -0.3348  0.6467  0.4578
  814MOL0     C12227   0.450   1.104   8.942  0.4007 -0.8073  0.1418
  814MOL0     C12228   0.433   1.015   9.049 -0.0050  0.0576  0.1838
  814MOL0     C12229   0.309   0.998   9.100 -0.1018 -0.0933 -0.4163
  814MOL0     O12230   0.293   0.903   9.196 -0.8305 -0.3344 -0.1536
  814MOL0     C12231   0.333   0.776   9.149  0.2860  0.0880 -0.2551
  814MOL0     C12232   0.220   0.687   9.204 -0.4019  0.0496  0.0950
  814MOL0     C12233   0.110   0.640   9.104 -0.0061 -0.2789 -0.3725
  814MOL0     C12234   0.002   0.752   9.082 -0.4975 -1.0766 -0.7141
  814MOL0     C12235  -0.126   0.702   9.015 -0.7450 -0.1773 -1.0218
  814MOL0     C12236  -0.105   0.609   8.903  0.4799 -0.1073  0.1286
  814MOL0     C12237  -0.234   0.599   8.813 -0.2577  0.5781 -0.4669
  814MOL0     C12238  -0.263   0.456   8.774  0.6018 -0.5921  0.9193
  814MOL0    Cl12239  -0.430   0.433   8.732  0.7341  0.0081 -0.0500
  814MOL0     C12240   0.211   1.075   9.058 -0.1597 -0.8644  0.6277
  814MOL0     C12241   0.221   1.169   8.950 -0.7049 -0.3888  0.4387
  814MOL0     O12242   0.246   1.151   8.641  0.7302  0.6991 -0.3289
  814MOL0     C12243   0.464   1.368   8.517  0.1920 -0.0631 -0.0406
  814MOL0     C12244   0.480   1.454   8.412 -0.7600  0.6127 -0.2941
  814MOL0     N12245   0.837   1.665   8.032  0.2098  0.8822  0.6147
  814MOL0     N12246   0.944   1.733   8.010 -0.4470 -0.1096  0.3422
  814MOL0     C12247   1.622   1.829   6.910 -0.5563  0.3033  0.6542
  814MOL0     C12248   1.626   1.843   6.771  0.2825 -0.5128 -0.9685
  814MOL0     C12249   1.730   1.729   6.362  0.0547  0.0493 -0.2772
  814MOL0     C12250   1.625   1.659   6.305  0.5386 -0.7429  0.7111
  814MOL0     C12251   1.619   1.639   6.169  0.3362 -0.8108  0.3329
  814MOL0     C12252   1.731   1.659   6.092 -0.7502 -0.2443 -0.5266
  814MOL0     O12253   1.724   1.639   5.958  0.3500  0.0761 -0.4645
  814MOL0     C12254   1.649   1.723   5.871  0.1148  0.4825 -0.7282
  814MOL0     C12255   1.511   1.651   5.856  0.2397 -0.7862  1.2730
  814MOL0     C12256   1.515   1.506   5.819 -0.2182  0.2663 -0.0453
  814MOL0     C12257   1.385   1.459   5.768 -0.0921 -1.1535  0.2902
  814MOL0     C12258   1.283   1.440   5.877  0.3696  0.9288 -1.1606
  814MOL0     C12259   1.196   1.433   5.954 -0.5051  0.1910 -0.7171
  814MOL0     C12260   1.842   1.710   6.148 -0.3906  0.2133  0.1325
  814MOL0     C12261   1.853   1.740   6.286  0.2673  0.0305 -1.3689
  814MOL0     C12262   1.991   1.786   6.335 -0.8464  0.3872 -0.7129
  814MOL0     H12263   1.545   1.528   6.678 -3.0492  0.9527 -0.7548
  814MOL0     H12264   1.537   1.497   6.923 -1.9808 -0.0593 -1.6333
  814MOL0     H12265   1.735   1.795   7.157 -1.4410  1.8351 -0.3008
  814MOL0     H12266   1.683   1.669   7.276 -0.4563 -1.3953 -1.8493
  814MOL0     H12267   1.627   1.864   7.376 -0.4155 -3.2062  1.2984
  814MOL0     H12268   1.574   1.940   7.219  1.4497  0.6252 -0.7704
  814MOL0     H12269   1.365   1.781   7.250  1.0639 -1.8550  0.0699
  814MOL0     H12270   1.462   1.714   7.376  1.5781 -0.9444 -1.4648
  814MOL0     H12271   1.435   1.951   7.482  0.8961  1.0735 -0.8438
  814MOL0     H12272   1.302   1.970   7.353  0.3761  1.2787  1.6867
  814MOL0     H12273   1.301   1.717   7.526  2.1531  0.6573  1.0721
  814MOL0     H12274   1.185   1.787   7.420 -2.0846 -0.5944  1.9254
  814MOL0     H12275   1.280   1.914   7.668  2.0960 -1.1227 -0.9807
  814MOL0     H12276   1.156   1.986   7.563  0.8654  0.2683  0.6311
  814MOL0     H12277   1.092   1.709   7.688 -2.1349 -1.0882  0.2249
  814MOL0     H12278   0.991   1.830   7.605 -1.1973  0.3087  0.8465
  814MOL0     H12279   1.130   1.854   7.875 -0.8558  0.9894  1.1705
  814MOL0     H12280   1.003   1.980   7.811 -1.9040 -0.3700 -0.1964
  814MOL0     H12281   0.764   1.813   7.755 -0.1432  0.6271  1.9515
  814MOL0     H12282   0.626   1.543   7.987  0.4459  0.4816  1.3108
  814MOL0     H12283   0.588   1.630   7.830  0.9543 -1.0207 -0.2881
  814MOL0     H12284   0.566   1.737   8.094  1.7855  0.7499 -0.1303
  814MOL0     H12285   0.509   1.814   7.941 -3.3201 -1.4207 -1.0380
  814MOL0     H12286   0.303   1.739   8.032 -1.7015 -1.5312 -1.2583
  814MOL0     H12287   0.345   1.610   7.929  1.4858  0.9791 -1.4988
  814MOL0     H12288   0.277   1.510   8.130  0.7939 -2.1036 -1.4137
  814MOL0     H12289   0.456   1.494   8.136  0.5172  0.2185  5.3191
  814MOL0     H12290   0.174   1.567   8.389  0.4482  1.5939  0.7642
  814MOL0     H12291   0.053   1.298   8.607 -2.7701  1.5054  0.8679
  814MOL0     H12292   0.026   1.406   8.462  2.4847  0.6787 -2.2218
  814MOL0     H12293   0.069   1.457   8.629  2.0429 -2.2497  2.8968
  814MOL0     H12294   0.544   1.118   8.889 -0.6207  1.4040 -1.2309
  814MOL0     H12295   0.516   0.953   9.082 -0.5713 -0.4666  0.6580
  814MOL0     H12296   0.324   0.758   9.041 -5.7296  1.7841 -0.3675
  814MOL0     H12297   0.430   0.746   9.190  2.4025  2.4033 -3.1236
  814MOL0     H12298   0.272   0.602   9.247 -3.8929 -1.6304  1.3646
  814MOL0     H12299   0.163   0.729   9.288 -0.9647  2.7861 -1.5188
  814MOL0     H12300   0.053   0.555   9.141 -3.8779  1.5480 -1.6635
  814MOL0     H12301   0.161   0.610   9.011  0.3030 -1.6594  0.2127
  814MOL0     H12302   0.041   0.831   9.017  3.8028 -3.5768 -1.5442
  814MOL0     H12303  -0.012   0.803   9.179 -0.4781  1.6880 -2.0598
  814MOL0     H12304  -0.186   0.662   9.097 -0.5992 -1.3189 -1.4549
  814MOL0     H12305  -0.171   0.794   8.977 -0.3430  1.2206  1.6750
  814MOL0     H12306  -0.089   0.507   8.939 -1.2148 -0.5485 -0.2722
  814MOL0     H12307  -0.020   0.643   8.843  1.7286 -2.6822  0.3021
  814MOL0     H12308  -0.225   0.657   8.721  1.3077 -0.5880 -1.0915
  814MOL0     H12309  -0.322   0.643   8.861 -0.0033  1.7840 -1.0703
  814MOL0     H12310  -0.249   0.397   8.865 -0.4348  0.4323  1.7662
  814MOL0     H12311  -0.196   0.418   8.697  2.3412 -1.3742  2.7143
  814MOL0     H12312   0.118   1.065   9.114 -1.4386  0.7932 -1.0670
  814MOL0     H12313   0.135   1.231   8.926  0.0472 -0.1032 -1.7795
  814MOL0     H12314   0.552   1.322   8.562  1.0780  1.1602 -0.4783
  814MOL0     H12315   0.575   1.497   8.381  0.6832 -1.7912  0.5854
  814MOL0     H12316   1.631   1.904   6.988  1.0487  0.8855 -0.0522
  814MOL0     H12317   1.651   1.943   6.736  0.8971  0.1547  1.2172
  814MOL0     H12318   1.530   1.647   6.355  0.4712 -1.9944  0.3146
  814MOL0     H12319   1.528   1.601   6.124 -0.7108  1.9495 -0.0995
  814MOL0     H12320   1.629   1.816   5.925  4.9758  1.5827 -0.4510
  814MOL0     H12321   1.700   1.742   5.776  2.2403  0.2090  0.3088
  814MOL0     H12322   1.463   1.700   5.771  1.5984  0.7515  1.3514
  814MOL0     H12323   1.449   1.670   5.944 -0.5996  0.5579  0.4350
  814MOL0     H12324   1.587   1.493   5.738 -1.8468  2.0998 -1.8985
  814MOL0     H12325   1.545   1.436   5.898 -1.8086 -2.5082 -1.7244
  814MOL0     H12326   1.398   1.362   5.718  1.6387 -1.0728  0.5176
  814MOL0     H12327   1.343   1.526   5.693  3.4553  1.1426  0.0913
  814MOL0     H12328   1.115   1.407   6.019 -0.5470  0.3090 -0.7218
  814MOL0     H12329   1.925   1.738   6.084 -0.7922 -2.1722 -1.5590
  814MOL0     H12330   2.037   1.725   6.412  1.5612  2.7388 -0.1442
  814MOL0     H12331   2.065   1.798   6.255 -0.0099  2.3758  0.2884
  814MOL0     H12332   1.988   1.885   6.383  0.9628  0.5610 -0.9100
  815MOL0     O12333   2.293   1.142   1.537 -0.6145 -0.0075  0.2110
  815MOL0     C12334   2.280   1.103   1.420 -0.2852 -0.6232  0.3501
  815MOL0     O12335   2.361   1.136   1.313  0.6964  0.0385 -0.5003
  815MOL0     C12336   2.365   1.265   1.277 -0.1338  0.4215 -0.0452
  815MOL0     C12337   2.267   1.357   1.307  0.8542 -0.7402  0.1226
  815MOL0     C12338   2.277   1.490   1.262  0.0565  0.2133  0.9016
  815MOL0     C12339   2.393   1.537   1.191  0.4703  0.8162 -0.5686
  815MOL0     O12340   2.412   1.668   1.159  0.0847 -0.0863  0.5156
  815MOL0     C12341   2.467   1.712   1.032  0.8006  0.4148 -0.9589
  815MOL0     C12342   2.501   1.867   1.031 -0.2038 -0.1981 -0.1504
  815MOL0     C12343   2.581   1.916   0.907  1.1269 -0.2848  0.3481
  815MOL0     C12344   2.641   2.052   0.936 -0.6213  0.6615 -0.1077
  815MOL0     C12345   2.654   2.151   0.826 -0.2480  0.2021  0.2471
  815MOL0     C12346   2.761   2.121   0.721  0.6110 -0.0365  1.0658
  815MOL0     C12347   2.763   2.217   0.605 -0.4227 -0.2934  0.6687
  815MOL0     C12348   2.722   2.369   0.630  0.3126 -0.0261 -0.1641
  815MOL0     N12349   2.814   2.451   0.715 -0.2946 -0.1179  0.6095
  815MOL0     C12350   2.954   2.454   0.719  1.0184 -0.2278  0.4744
  815MOL0     C12351   2.993   2.526   0.825 -0.0404  0.2237  0.6582
  815MOL0     C12352   3.135   2.542   0.852 -0.6547  0.2941  0.2766
  815MOL0     C12353   3.187   2.399   0.889 -0.0674 -1.2074 -0.2905
  815MOL0     C12354   3.342   2.398   0.900  0.4190 -0.7813 -0.7774
  815MOL0     C12355   3.420   2.507   0.983  0.6188  0.5619 -0.4118
  815MOL0     O12356   3.554   2.497   0.956 -0.0841  0.4353 -0.4190
  815MOL0     C12357   3.643   2.452   1.049  0.0428 -0.6876  0.7497
  815MOL0     C12358   3.702   2.542   1.134 -0.8561 -0.0021  0.8550
  815MOL0     C12359   3.781   2.503   1.238 -1.0979  0.3794  0.0650
  815MOL0     C12360   3.844   2.614   1.330 -0.0594 -0.9528  0.6579
  815MOL0     C12361   3.786   2.363   1.275  1.0334 -0.4786 -0.6626
  815MOL0     C12362   3.854   2.314   1.395 -0.0245 -0.5316  0.2374
  815MOL0     O12363   3.963   2.387   1.422 -0.2153  0.6850 -0.3283
  815MOL0     C12364   4.039   2.353   1.529  1.3061  0.8176 -1.0901
  815MOL0     C12365   4.096   2.457   1.598 -1.0236  0.1619  0.1899
  815MOL0     C12366   4.186   2.428   1.704  0.9494 -0.4409 -0.1258
  815MOL0     C12367   4.215   2.299   1.739  0.3633  0.5504  0.1813
  815MOL0     O12368   4.296   2.292   1.851 -0.7269  0.0748 -0.9290
  815MOL0     C12369   4.297   2.166   1.930  0.4059 -0.8880 -0.4706
  815MOL0     C12370   4.167   2.150   2.009 -0.3455  0.0677  0.5344
  815MOL0     C12371   4.121   2.263   2.099 -0.1991  0.1431 -1.5159
  815MOL0     C12372   4.236   2.303   2.203 -0.4999  0.6120  0.2219
  815MOL0     C12373   4.183   2.396   2.299  0.4760  0.0677 -0.4086
  815MOL0     C12374   4.284   2.405   2.401 -0.2393  0.1716  0.3671
  815MOL0     C12375   4.251   2.510   2.508  0.7235  0.4125  1.2078
  815MOL0     C12376   4.370   2.541   2.598  0.7608  0.3512  0.5319
  815MOL0    Cl12377   4.407   2.396   2.711  0.4864  0.0285  0.2727
  815MOL0     C12378   4.185   2.195   1.649  0.5917  0.5067  0.3928
  815MOL0     C12379   4.089   2.221   1.549 -0.0090  0.4965  0.9910
  815MOL0     O12380   3.807   2.233   1.471 -0.3763  0.2128 -0.0016
  815MOL0     C12381   3.733   2.276   1.186  0.8172 -0.6703 -0.6879
  815MOL0     C12382   3.659   2.322   1.075 -0.1928 -0.7371  0.0797
  815MOL0     N12383   2.880   2.586   0.884 -0.7653 -0.4162  0.4442
  815MOL0     N12384   2.776   2.523   0.825 -0.2441 -0.5008 -0.9341
  815MOL0     C12385   2.482   1.438   1.153  0.3728 -0.0374 -0.2696
  815MOL0     C12386   2.467   1.310   1.200  0.1308  0.3208  0.9817
  815MOL0     C12387   2.189   0.986   1.390 -0.2472 -0.2136  0.6052
  815MOL0     C12388   2.225   0.883   1.304 -0.6905  0.1016  1.1413
  815MOL0     C12389   2.143   0.773   1.285  0.0924 -0.3180  0.3936
  815MOL0     C12390   2.025   0.753   1.353 -0.7037  0.6206 -0.8928
  815MOL0     O12391   1.953   0.633   1.335 -0.4058  0.2988 -0.6769
  815MOL0     C12392   1.834   0.646   1.252  0.3011  0.0014 -0.5013
  815MOL0     C12393   1.881   0.638   1.107  0.6217 -1.2341 -1.4691
  815MOL0     C12394   1.765   0.600   1.012  0.4605  0.0329  0.4608
  815MOL0     C12395   1.678   0.721   0.967  0.2634  0.3269  0.0691
  815MOL0     C12396   1.607   0.697   0.838  0.6145  0.3042  0.1328
  815MOL0     C12397   1.540   0.674   0.741 -0.8891  0.1777  0.5294
  815MOL0     C12398   1.987   0.853   1.450 -1.4787  0.3464  0.5376
  815MOL0     C12399   2.067   0.972   1.464  0.8536  0.7498  0.4183
  815MOL0     C12400   2.021   1.074   1.569 -0.7073  0.0530 -0.3791
  815MOL0     H12401   2.180   1.348   1.371  2.6671 -0.6822  2.7783
  815MOL0     H12402   2.201   1.562   1.290 -1.8945 -1.0780 -0.7157
  815MOL0     H12403   2.405   1.695   0.943  0.0575 -0.9618 -0.2150
  815MOL0     H12404   2.559   1.652   1.030 -0.6792 -1.9756 -1.0242
  815MOL0     H12405   2.413   1.928   1.055  2.2524  3.2394  0.9062
  815MOL0     H12406   2.568   1.878   1.116  1.7218 -0.8607 -1.5119
  815MOL0     H12407   2.654   1.839   0.879  0.7189 -0.3538 -0.5634
  815MOL0     H12408   2.514   1.928   0.821  1.1669 -2.8425 -0.1357
  815MOL0     H12409   2.582   2.103   1.013  0.0737 -1.2639  1.7772
  815MOL0     H12410   2.741   2.034   0.975  0.1436  3.6539 -0.4155
  815MOL0     H12411   2.683   2.250   0.861  4.5011 -0.8022 -0.2781
  815MOL0     H12412   2.553   2.149   0.783 -0.0273  2.5911 -0.5094
  815MOL0     H12413   2.859   2.124   0.769  1.0115 -1.6229  0.4002
  815MOL0     H12414   2.746   2.018   0.690 -1.7923  0.7714 -0.7921
  815MOL0     H12415   2.691   2.181   0.531  1.2709 -1.2294 -0.5960
  815MOL0     H12416   2.861   2.200   0.560 -0.4266 -0.7999  0.8383
  815MOL0     H12417   2.729   2.409   0.528  0.3091 -1.7932 -0.8960
  815MOL0     H12418   2.616   2.374   0.659  0.8767 -1.0877  2.2942
  815MOL0     H12419   3.022   2.417   0.642  0.2542 -3.2961  1.1383
  815MOL0     H12420   3.145   2.594   0.948 -0.5144 -0.6337  0.7724
  815MOL0     H12421   3.182   2.599   0.771 -3.6967 -1.2612 -2.8209
  815MOL0     H12422   3.148   2.367   0.986  0.4338 -1.6765 -0.2377
  815MOL0     H12423   3.154   2.327   0.813  1.9424 -2.3755 -0.1498
  815MOL0     H12424   3.373   2.304   0.945 -2.2759 -1.0617  0.6886
  815MOL0     H12425   3.375   2.391   0.796 -2.8905 -1.9614 -1.9032
  815MOL0     H12426   3.387   2.600   0.936  1.0773 -0.8006 -3.7639
  815MOL0     H12427   3.400   2.499   1.090  2.1981 -2.3226 -0.2303
  815MOL0     H12428   3.699   2.648   1.110  0.9942 -0.2410 -0.6425
  815MOL0     H12429   3.802   2.713   1.310  1.5465 -0.0582  1.4847
  815MOL0     H12430   3.953   2.608   1.321 -0.0880 -0.7277  0.1070
  815MOL0     H12431   3.839   2.584   1.435  0.5255 -0.1692  0.9194
  815MOL0     H12432   4.077   2.560   1.569  1.7867  1.4904  2.6131
  815MOL0     H12433   4.199   2.519   1.762 -5.2642  0.7402  0.0992
  815MOL0     H12434   4.327   2.079   1.871 -2.6848 -2.2558 -0.2115
  815MOL0     H12435   4.373   2.170   2.009  0.7183  2.4981 -0.7739
  815MOL0     H12436   4.086   2.123   1.941  0.5220 -0.7773 -0.1874
  815MOL0     H12437   4.185   2.059   2.067 -1.6845 -0.5870 -0.0543
  815MOL0     H12438   4.035   2.224   2.154  0.8201 -0.6450 -0.4162
  815MOL0     H12439   4.089   2.350   2.042  1.7329  1.9596  0.0192
  815MOL0     H12440   4.316   2.353   2.147 -3.0663  2.7796 -1.7853
  815MOL0     H12441   4.278   2.217   2.256  1.4369  1.4591  0.1494
  815MOL0     H12442   4.172   2.488   2.241  2.9192  0.0518 -1.0218
  815MOL0     H12443   4.096   2.351   2.346 -0.3963  1.7918 -0.2778
  815MOL0     H12444   4.376   2.437   2.350 -0.3147 -1.6545 -1.0327
  815MOL0     H12445   4.295   2.308   2.451 -0.6917 -0.0976 -0.0447
  815MOL0     H12446   4.168   2.472   2.569 -1.2328 -0.2388 -1.6578
  815MOL0     H12447   4.218   2.600   2.455  2.8887  0.9305  0.6524
  815MOL0     H12448   4.341   2.633   2.651  1.7427  0.7813  0.3480
  815MOL0     H12449   4.459   2.575   2.545  0.3840  1.8866  0.8255
  815MOL0     H12450   4.218   2.093   1.665 -3.1366 -1.1271 -1.2469
  815MOL0     H12451   4.049   2.135   1.496 -1.9291  2.1739 -0.4323
  815MOL0     H12452   3.736   2.171   1.212  0.9253 -0.4158  0.3585
  815MOL0     H12453   3.617   2.254   1.001 -2.1452  0.7772 -0.2950
  815MOL0     H12454   2.573   1.459   1.098 -0.2859 -3.9706 -3.2774
  815MOL0     H12455   2.548   1.251   1.158  0.7812  2.8313 -1.6192
  815MOL0     H12456   2.318   0.901   1.250 -1.8736  1.6164 -0.5531
  815MOL0     H12457   2.175   0.691   1.222 -0.3367 -1.0038  1.0474
  815MOL0     H12458   1.764   0.566   1.280 -0.1408 -0.0163 -1.6030
  815MOL0     H12459   1.783   0.740   1.274 -2.3107 -1.9263  2.7355
  815MOL0     H12460   1.959   0.562   1.107  1.5230 -0.4163  1.4123
  815MOL0     H12461   1.925   0.735   1.081 -2.4580  1.8051  3.1197
  815MOL0     H12462   1.805   0.552   0.923 -2.3270 -0.7988 -0.4522
  815MOL0     H12463   1.718   0.519   1.068  2.6655 -1.7625 -0.1483
  815MOL0     H12464   1.744   0.808   0.959 -1.2258  1.4099 -1.1976
  815MOL0     H12465   1.602   0.734   1.045 -2.0173 -2.5921 -1.4342
  815MOL0     H12466   1.488   0.661   0.648 -1.9812  2.2416  0.8009
  815MOL0     H12467   1.897   0.838   1.508  0.0965  0.2021  3.0933
  815MOL0     H12468   2.045   1.175   1.534 -2.9760  0.7233 -0.2122
  815MOL0     H12469   1.914   1.054   1.583 -1.9594  4.2899 -2.0389
  815MOL0     H12470   2.065   1.064   1.668 -3.0683  1.7346  0.9535
  816MOL0     O12471  10.796  10.503   1.635  0.8179  0.1512 -0.3137
  816MOL0     C12472  10.797  10.502   1.514  0.5132  0.3101  1.1710
  816MOL0     O12473  10.766  10.604   1.423  0.4830 -0.3073 -0.5664
  816MOL0     C12474  10.722  10.724   1.473 -0.3574  0.6904 -0.7555
  816MOL0     C12475  10.590  10.768   1.424 -0.7475 -0.3096 -0.2853
  816MOL0     C12476  10.543  10.895   1.474 -0.1202 -0.1236 -0.6849
  816MOL0     C12477  10.628  10.975   1.549  0.2331 -0.4001  0.0414
  816MOL0     O12478  10.574  11.094   1.587 -0.4244  0.1940  0.0096
  816MOL0     C12479  10.602  11.149   1.718 -0.3339 -0.2296 -0.1090
  816MOL0     C12480  10.501  11.264   1.737  0.2621  0.1438 -0.2135
  816MOL0     C12481  10.357  11.226   1.725  0.1267  0.6723  0.2972
  816MOL0     C12482  10.274  11.323   1.805 -0.0994 -0.2172  0.4224
  816MOL0     C12483  10.286  11.470   1.757 -0.1228 -0.2153 -0.2492
  816MOL0     C12484  10.170  11.544   1.827 -0.6949 -0.5964  0.2062
  816MOL0     C12485  10.176  11.693   1.817  0.1013  0.1035 -0.1020
  816MOL0     C12486  10.180  11.757   1.673 -0.1899 -0.3210  0.5874
  816MOL0     N12487  10.130  11.889   1.670 -0.1636 -0.6938  0.3271
  816MOL0     C12488  10.203  12.003   1.642  0.4038  0.9013  0.7233
  816MOL0     C12489  10.118  12.111   1.645 -0.2593  0.3972 -0.0825
  816MOL0     C12490  10.151  12.249   1.607 -0.1202 -0.6431 -0.1228
  816MOL0     C12491  10.226  12.313   1.725  0.7271  0.7932 -0.4911
  816MOL0     C12492  10.274  12.460   1.691  0.4149 -0.0947 -0.2276
  816MOL0     C12493  10.357  12.534   1.813  0.9765  0.5294 -0.7697
  816MOL0     O12494  10.438  12.442   1.893  0.8455  0.2481  0.0860
  816MOL0     C12495  10.525  12.497   1.986  0.4121 -0.3456  0.1285
  816MOL0     C12496  10.585  12.400   2.065 -0.4716 -0.0512 -0.6734
  816MOL0     C12497  10.667  12.420   2.173 -0.0639 -0.0981  0.2905
  816MOL0     C12498  10.716  12.290   2.225 -0.2297  0.6967  0.3352
  816MOL0     C12499  10.691  12.551   2.212 -0.3796  0.0223 -0.3622
  816MOL0     C12500  10.786  12.574   2.319 -0.4771  0.2356 -1.3979
  816MOL0     O12501  10.870  12.685   2.309 -0.1470  0.4000 -0.2589
  816MOL0     C12502  10.968  12.714   2.394  0.7555  0.1672 -1.0184
  816MOL0     C12503  11.017  12.842   2.374 -0.5660 -0.6188  0.6727
  816MOL0     C12504  11.135  12.879   2.434  1.4705  0.2515 -0.1434
  816MOL0     C12505  11.200  12.800   2.528 -0.7798 -0.2492  0.3739
  816MOL0     O12506  11.320  12.840   2.567 -0.8073 -0.5050  0.0351
  816MOL0     C12507  11.371  12.792   2.693 -0.3507 -0.2132 -0.1651
  816MOL0     C12508  11.468  12.899   2.767  0.4206 -0.4469 -0.1862
  816MOL0     C12509  11.600  12.903   2.691 -0.0122 -0.5233  0.0503
  816MOL0     C12510  11.699  13.006   2.756  0.0863 -0.2934 -0.0031
  816MOL0     C12511  11.843  12.990   2.701  1.0038 -0.4706 -0.3961
  816MOL0     C12512  11.943  13.075   2.781 -0.4843 -0.5058  0.7216
  816MOL0     C12513  12.090  13.017   2.777 -0.1976 -0.8200 -0.3681
  816MOL0     C12514  12.175  13.059   2.906  0.1045 -0.1940  0.3108
  816MOL0    Cl12515  12.102  12.985   3.059  0.2424 -0.2379  0.1480
  816MOL0     C12516  11.147  12.660   2.544 -0.7883  0.2853  0.6205
  816MOL0     C12517  11.027  12.620   2.480 -1.3480  0.6998 -0.3833
  816MOL0     O12518  10.758  12.525   2.430 -0.6486 -0.2050  0.7651
  816MOL0     C12519  10.631  12.654   2.140 -1.0694  0.4775 -0.2860
  816MOL0     C12520  10.543  12.633   2.027 -0.2383  0.1822 -0.1264
  816MOL0     N12521   9.992  12.060   1.671 -0.5338  0.4988 -0.5256
  816MOL0     N12522   9.994  11.932   1.672  0.7969  0.1273 -0.0557
  816MOL0     C12523  10.747  10.930   1.596  0.5335 -0.1604 -0.7873
  816MOL0     C12524  10.785  10.798   1.570  0.8623 -0.4502  0.0698
  816MOL0     C12525  10.831  10.371   1.454  0.5660 -0.4430 -0.0196
  816MOL0     C12526  10.756  10.255   1.466  0.2774 -0.7362  0.0570
  816MOL0     C12527  10.794  10.139   1.404 -0.3200  0.6108  0.2225
  816MOL0     C12528  10.920  10.131   1.343  0.4396 -0.1871  0.5699
  816MOL0     O12529  10.977  10.018   1.292 -0.3261  0.3999  0.1521
  816MOL0     C12530  10.891   9.914   1.244  0.3614  0.2197  0.5734
  816MOL0     C12531  10.935   9.887   1.097 -0.7552 -1.3807 -0.3421
  816MOL0     C12532  11.067   9.806   1.078  0.2862 -0.4829 -0.3292
  816MOL0     C12533  11.140   9.812   0.941  0.0694 -1.1630 -0.1130
  816MOL0     C12534  11.284   9.778   0.947 -0.8298  0.4949  0.4347
  816MOL0     C12535  11.398   9.742   0.968 -0.4753  0.2975  0.9047
  816MOL0     C12536  10.991  10.247   1.323  0.1895  0.7063 -0.4014
  816MOL0     C12537  10.955  10.364   1.382  0.1928 -0.3874  0.1578
  816MOL0     C12538  11.042  10.486   1.361  0.1436 -0.1364  0.4743
  816MOL0     H12539  10.533  10.705   1.356 -2.8889 -0.8801  1.8848
  816MOL0     H12540  10.444  10.920   1.436 -0.3597 -0.6185 -0.3891
  816MOL0     H12541  10.707  11.178   1.733 -0.9920  0.7483  3.7535
  816MOL0     H12542  10.597  11.069   1.792  3.9025 -1.4950 -0.8891
  816MOL0     H12543  10.518  11.297   1.840 -3.2862 -1.4711  1.0453
  816MOL0     H12544  10.517  11.342   1.662  1.4379 -0.4920 -0.6576
  816MOL0     H12545  10.327  11.224   1.620 -1.0566 -2.0757  0.5935
  816MOL0     H12546  10.349  11.127   1.770  0.6433  0.5749  0.1770
  816MOL0     H12547  10.169  11.290   1.809  0.4695 -1.9733  3.2323
  816MOL0     H12548  10.315  11.323   1.906  1.7001  3.3456 -0.1458
  816MOL0     H12549  10.283  11.478   1.648 -0.9484  1.6857 -0.1318
  816MOL0     H12550  10.379  11.516   1.793 -0.6023 -0.4019  1.2804
  816MOL0     H12551  10.077  11.508   1.782  1.1589 -4.4643 -1.0241
  816MOL0     H12552  10.165  11.511   1.931 -1.8662  2.7415  1.3492
  816MOL0     H12553  10.261  11.742   1.866  1.9251 -1.8366 -1.1553
  816MOL0     H12554  10.081  11.725   1.860  0.5934 -0.5843  1.5849
  816MOL0     H12555  10.276  11.750   1.620  0.6463  1.2112  1.8208
  816MOL0     H12556  10.115  11.693   1.612 -0.5645  1.3826 -0.8717
  816MOL0     H12557  10.306  11.992   1.613  0.2304 -1.4956  0.8258
  816MOL0     H12558  10.055  12.298   1.589  0.0185  1.9437  4.5674
  816MOL0     H12559  10.219  12.258   1.522  1.3711  0.1155  1.1075
  816MOL0     H12560  10.146  12.312   1.800 -0.1577 -1.5233 -1.3461
  816MOL0     H12561  10.301  12.246   1.766 -3.3964 -3.2573  1.4014
  816MOL0     H12562  10.340  12.457   1.604  1.5419  6.1891 -0.0081
  816MOL0     H12563  10.186  12.521   1.669 -1.0772 -0.4278  3.9181
  816MOL0     H12564  10.413  12.619   1.772 -0.7592  2.3821  0.5604
  816MOL0     H12565  10.284  12.576   1.882  0.0020 -2.2200 -0.0197
  816MOL0     H12566  10.581  12.293   2.049  3.1845 -0.6747  1.5448
  816MOL0     H12567  10.625  12.238   2.256 -2.9742  5.2556  0.8900
  816MOL0     H12568  10.799  12.306   2.295  0.7457  1.6764 -0.9783
  816MOL0     H12569  10.767  12.231   2.148  1.0590 -0.9863  2.3603
  816MOL0     H12570  10.967  12.917   2.314 -0.5480 -1.3051 -0.2233
  816MOL0     H12571  11.173  12.972   2.392 -0.4358  0.4511 -1.5483
  816MOL0     H12572  11.287  12.765   2.759  0.9374  0.1855  1.7190
  816MOL0     H12573  11.434  12.703   2.685 -4.5624 -3.5645 -0.1737
  816MOL0     H12574  11.421  12.998   2.767  1.0496 -0.0366  3.1472
  816MOL0     H12575  11.495  12.869   2.869 -0.9967  0.9969  0.6728
  816MOL0     H12576  11.580  12.930   2.587  1.5634 -2.5685 -0.8711
  816MOL0     H12577  11.643  12.802   2.683  0.2863 -0.2971 -1.5895
  816MOL0     H12578  11.697  12.983   2.863 -1.0773 -2.1253 -0.3644
  816MOL0     H12579  11.672  13.110   2.739 -0.5673 -0.4091  0.2801
  816MOL0     H12580  11.879  12.888   2.717  1.2262 -0.3406 -0.0744
  816MOL0     H12581  11.849  13.030   2.599 -2.8625  1.4556 -0.0384
  816MOL0     H12582  11.918  13.083   2.888  0.3415 -0.2983  0.9059
  816MOL0     H12583  11.940  13.173   2.732  0.1134 -0.5518  0.5849
  816MOL0     H12584  12.144  13.055   2.689  2.1689 -1.1007  0.8850
  816MOL0     H12585  12.080  12.908   2.770  1.5542 -0.9453 -1.7466
  816MOL0     H12586  12.174  13.168   2.917 -0.2715 -0.4097  3.5254
  816MOL0     H12587  12.280  13.027   2.898 -0.2583 -1.5248  0.6593
  816MOL0     H12588  11.205  12.582   2.592 -0.2010 -0.2238 -0.8826
  816MOL0     H12589  10.991  12.520   2.503  1.0228  0.1680  1.4019
  816MOL0     H12590  10.645  12.760   2.158  1.6901  0.4193 -1.5290
  816MOL0     H12591  10.484  12.710   1.980 -1.9436 -0.7667  0.3703
  816MOL0     H12592  10.816  10.989   1.655  1.1983 -2.6690  1.1145
  816MOL0     H12593  10.879  10.773   1.617  1.6867  0.3110 -1.1244
  816MOL0     H12594  10.661  10.257   1.518 -0.6380 -0.9679 -1.5423
  816MOL0     H12595  10.736  10.048   1.416  0.8424 -0.9926 -4.2534
  816MOL0     H12596  10.886   9.820   1.301  2.0211 -0.3975 -0.2311
  816MOL0     H12597  10.791   9.956   1.232  1.4647  3.0922  0.7446
  816MOL0     H12598  10.948   9.983   1.045 -1.0868 -2.0267 -1.6471
  816MOL0     H12599  10.847   9.828   1.070 -1.2771 -0.9521  0.3651
  816MOL0     H12600  11.135   9.838   1.158 -2.2098  1.3515  1.2183
  816MOL0     H12601  11.048   9.702   1.103  0.1716 -0.2058  0.7993
  816MOL0     H12602  11.137   9.913   0.900  1.3153  0.1676  2.7980
  816MOL0     H12603  11.089   9.738   0.879  1.9567 -1.5185 -1.3201
  816MOL0     H12604  11.502   9.723   0.984 -0.4812 -1.5406 -0.8344
  816MOL0     H12605  11.091  10.238   1.282  1.8851 -0.1872  3.4789
  816MOL0     H12606  10.988  10.573   1.322 -0.9923 -2.2430 -3.1971
  816MOL0     H12607  11.097  10.515   1.451  3.3974 -2.6429 -0.5088
  816MOL0     H12608  11.108  10.457   1.279 -1.3530 -1.3914 -0.3451
  817MOL0     O12609   3.840  10.157   2.061  0.1086 -0.7273 -0.0002
  817MOL0     C12610   3.921  10.186   2.152  0.3307 -0.4228 -0.1442
  817MOL0     O12611   3.978  10.102   2.231  0.2516  0.1332  0.3711
  817MOL0     C12612   3.996   9.974   2.185  0.0961 -0.1084  0.6554
  817MOL0     C12613   4.045   9.938   2.058 -0.7622  0.3447  0.8264
  817MOL0     C12614   4.069   9.802   2.022  1.0640  0.8794  1.4671
  817MOL0     C12615   4.044   9.697   2.109 -0.1565 -0.0816 -0.0800
  817MOL0     O12616   4.082   9.569   2.067 -0.7770  0.3181  0.1723
  817MOL0     C12617   4.000   9.460   2.108  0.3614  1.0091  0.1193
  817MOL0     C12618   4.069   9.327   2.058  0.3381  0.0167  0.9077
  817MOL0     C12619   4.058   9.312   1.901  0.4581  0.1329 -0.1533
  817MOL0     C12620   4.156   9.391   1.814 -0.0078 -0.6711  0.2283
  817MOL0     C12621   4.126   9.379   1.665 -0.8610 -0.5129 -0.3661
  817MOL0     C12622   4.225   9.452   1.577 -0.3979  0.3647  0.5885
  817MOL0     C12623   4.229   9.604   1.570  1.2589 -0.5895 -0.1683
  817MOL0     C12624   4.091   9.671   1.532 -0.3755 -0.1655  0.5924
  817MOL0     N12625   4.058   9.638   1.389  0.0438  0.8044 -0.0158
  817MOL0     C12626   4.102   9.692   1.276  0.9184 -0.8584 -1.1644
  817MOL0     C12627   4.050   9.619   1.168 -0.2811 -0.1219  0.2018
  817MOL0     C12628   4.055   9.673   1.025 -0.4408 -0.0968 -0.9256
  817MOL0     C12629   4.192   9.695   0.967  0.1954  0.4446 -0.8588
  817MOL0     C12630   4.287   9.588   1.000 -0.5843  0.3332 -0.5671
  817MOL0     C12631   4.423   9.621   0.940 -0.2519 -0.3770 -0.0175
  817MOL0     O12632   4.540   9.550   0.985  0.0392  0.1541  0.2865
  817MOL0     C12633   4.580   9.434   0.921  0.5412  0.7752  0.5039
  817MOL0     C12634   4.575   9.401   0.782 -0.1310  0.0092 -0.0336
  817MOL0     C12635   4.612   9.271   0.732  0.1429  0.0558 -0.1186
  817MOL0     C12636   4.600   9.245   0.584 -0.2702 -0.1887  0.4325
  817MOL0     C12637   4.639   9.163   0.822  0.3886  0.0076  0.3513
  817MOL0     C12638   4.645   9.020   0.779  0.1567 -0.2881 -0.3059
  817MOL0     O12639   4.664   8.931   0.890  0.2698  0.6137  0.0282
  817MOL0     C12640   4.708   8.801   0.865  0.4587  0.1539  0.0119
  817MOL0     C12641   4.625   8.691   0.878 -0.7572  0.6096 -0.5672
  817MOL0     C12642   4.649   8.560   0.837 -0.0028 -0.5536  0.2093
  817MOL0     C12643   4.779   8.536   0.780 -0.1950  0.3690  0.4385
  817MOL0     O12644   4.827   8.418   0.729 -0.8492 -0.7197  0.0570
  817MOL0     C12645   4.743   8.309   0.716 -0.8871  0.2384  0.8309
  817MOL0     C12646   4.811   8.217   0.621  0.2163 -0.0301  0.4027
  817MOL0     C12647   4.767   8.078   0.663 -0.2294 -1.0066  0.2143
  817MOL0     C12648   4.838   7.974   0.578  0.4533  0.4144 -0.1496
  817MOL0     C12649   4.763   7.832   0.563 -0.2053  1.0969 -1.1261
  817MOL0     C12650   4.725   7.762   0.702 -0.3668 -0.0369  0.6247
  817MOL0     C12651   4.841   7.744   0.797 -0.2878 -0.0033  0.1031
  817MOL0     C12652   4.937   7.631   0.758  0.7348  0.4844  0.3233
  817MOL0    Cl12653   4.912   7.489   0.851 -0.0407  0.4025  0.0892
  817MOL0     C12654   4.867   8.649   0.783 -0.2667  0.1455  0.0166
  817MOL0     C12655   4.836   8.781   0.809  0.2817 -0.1171  0.9824
  817MOL0     O12656   4.628   8.984   0.665 -0.0769 -0.0088  0.4199
  817MOL0     C12657   4.656   9.195   0.956  0.0241  0.2469 -0.5915
  817MOL0     C12658   4.633   9.332   1.004 -1.0793 -0.4931 -0.1561
  817MOL0     N12659   3.992   9.515   1.220  0.0278  1.0248 -0.1825
  817MOL0     N12660   3.996   9.522   1.348  0.1660  0.0223  0.3086
  817MOL0     C12661   4.007   9.733   2.242  0.4425  0.1107  0.6440
  817MOL0     C12662   3.970   9.866   2.269  0.0548 -0.5295  0.9562
  817MOL0     C12663   3.938  10.318   2.178  0.1077  0.4349 -0.0806
  817MOL0     C12664   4.065  10.344   2.238 -0.3288  0.7659  0.1852
  817MOL0     C12665   4.094  10.471   2.284 -0.3087 -0.2400 -0.3676
  817MOL0     C12666   4.000  10.574   2.269 -0.1878  0.1430 -0.0745
  817MOL0     O12667   4.037  10.687   2.332 -1.3172 -0.0387  0.7326
  817MOL0     C12668   3.949  10.801   2.319  0.2421  0.9328 -0.4573
  817MOL0     C12669   4.035  10.919   2.369 -0.0359 -0.2620 -0.3134
  817MOL0     C12670   4.153  10.947   2.274 -0.0441  0.7272 -0.3609
  817MOL0     C12671   4.242  11.064   2.313  0.4676  0.3896  0.1197
  817MOL0     C12672   4.367  11.047   2.244  0.2724  0.1787  0.1047
  817MOL0     C12673   4.482  11.028   2.205 -0.2417 -0.4202  0.3675
  817MOL0     C12674   3.880  10.550   2.196 -0.8464 -1.4074  0.3994
  817MOL0     C12675   3.844  10.424   2.151 -0.1157  0.3639  0.5213
  817MOL0     C12676   3.718  10.415   2.070  0.1531 -0.1194 -0.7614
  817MOL0     H12677   4.060  10.009   1.978  0.7831 -0.1986  0.5893
  817MOL0     H12678   4.099   9.771   1.922 -1.9087 -3.5594  1.6485
  817MOL0     H12679   3.898   9.461   2.067  0.6990 -3.3236 -1.3591
  817MOL0     H12680   3.985   9.455   2.216  0.0479  1.3038  0.0914
  817MOL0     H12681   4.174   9.312   2.084  0.4438 -2.0276 -0.4767
  817MOL0     H12682   4.010   9.246   2.100 -1.1896  1.1035  0.9486
  817MOL0     H12683   4.073   9.206   1.878  1.5130  0.4114 -0.8105
  817MOL0     H12684   3.952   9.326   1.878 -0.2788 -2.6300  1.0492
  817MOL0     H12685   4.156   9.494   1.851  3.2173 -1.1946  2.1288
  817MOL0     H12686   4.258   9.352   1.826  0.0819 -0.4864  0.0570
  817MOL0     H12687   4.025   9.403   1.629 -1.9483 -2.8511  0.8823
  817MOL0     H12688   4.128   9.270   1.655 -0.1760 -0.4251 -1.3115
  817MOL0     H12689   4.317   9.401   1.607 -0.6315 -0.8936 -0.7436
  817MOL0     H12690   4.215   9.414   1.475  0.9809 -1.9990  1.2604
  817MOL0     H12691   4.310   9.630   1.502 -0.0789 -0.6820 -1.8531
  817MOL0     H12692   4.251   9.644   1.670 -0.6707 -1.2182  0.5703
  817MOL0     H12693   4.023   9.628   1.606 -0.8419 -3.9536 -1.7583
  817MOL0     H12694   4.086   9.779   1.551  1.5208  0.0291  0.1565
  817MOL0     H12695   4.153   9.788   1.286  3.5104 -2.1687 -0.9727
  817MOL0     H12696   4.010   9.773   1.016  0.8200  0.7121  1.1013
  817MOL0     H12697   3.989   9.612   0.963 -1.4167 -1.7994  1.6293
  817MOL0     H12698   4.172   9.713   0.861 -0.6145  2.4096 -0.4188
  817MOL0     H12699   4.236   9.790   1.002  4.8256 -1.7089 -0.0257
  817MOL0     H12700   4.311   9.597   1.106 -0.9695  4.8773 -0.6642
  817MOL0     H12701   4.256   9.488   0.967 -0.6269  1.1919 -3.3965
  817MOL0     H12702   4.413   9.614   0.832  0.0370  0.3170 -0.0966
  817MOL0     H12703   4.447   9.726   0.960  1.2651 -1.0324  1.9729
  817MOL0     H12704   4.537   9.479   0.717  2.0922  2.0842  1.0073
  817MOL0     H12705   4.683   9.190   0.539 -0.3034 -0.0867  0.2461
  817MOL0     H12706   4.596   9.344   0.538  0.1432  0.2572  1.3336
  817MOL0     H12707   4.506   9.194   0.560 -0.4845  0.0194  0.8292
  817MOL0     H12708   4.536   8.719   0.932  0.1068  2.0646  0.1542
  817MOL0     H12709   4.582   8.475   0.847  1.7629 -1.9749  0.4617
  817MOL0     H12710   4.740   8.262   0.814 -1.3572  0.1014  0.7513
  817MOL0     H12711   4.644   8.336   0.679 -0.7735 -2.3225 -1.7183
  817MOL0     H12712   4.781   8.231   0.516  1.9646  0.1760 -0.1074
  817MOL0     H12713   4.920   8.218   0.623  0.2738 -0.6043 -1.0633
  817MOL0     H12714   4.662   8.090   0.636  0.0007  1.9685  0.2906
  817MOL0     H12715   4.785   8.069   0.770 -3.4120  2.3576  1.2322
  817MOL0     H12716   4.937   7.954   0.622 -0.2284 -0.7032  0.9366
  817MOL0     H12717   4.848   8.017   0.478 -4.1502 -2.7105 -2.3273
  817MOL0     H12718   4.674   7.855   0.504  0.8893  2.6890 -2.2564
  817MOL0     H12719   4.827   7.766   0.504  0.3350  0.4675  0.1291
  817MOL0     H12720   4.682   7.662   0.691  1.6987 -0.7537 -1.9244
  817MOL0     H12721   4.640   7.818   0.743 -1.8806 -1.8740  0.1644
  817MOL0     H12722   4.794   7.723   0.894 -1.9147  1.4971 -0.3090
  817MOL0     H12723   4.895   7.839   0.804  0.9225 -0.7443  1.5189
  817MOL0     H12724   5.038   7.664   0.783  0.5397  0.0755  1.7418
  817MOL0     H12725   4.944   7.600   0.653 -0.1046 -1.3512  0.7666
  817MOL0     H12726   4.963   8.629   0.737  0.6706 -1.5119  2.4670
  817MOL0     H12727   4.888   8.870   0.777 -1.3056  0.2380 -0.7802
  817MOL0     H12728   4.688   9.117   1.023 -0.8196 -1.6828 -2.3396
  817MOL0     H12729   4.637   9.356   1.109 -2.0294 -0.6706 -0.0699
  817MOL0     H12730   4.009   9.653   2.316  3.3138  1.8074  2.5919
  817MOL0     H12731   3.934   9.894   2.368  1.1033  2.2952  0.6351
  817MOL0     H12732   4.143  10.269   2.247 -1.4561 -0.5395 -0.6172
  817MOL0     H12733   4.189  10.479   2.335 -0.4661  1.7502 -0.2904
  817MOL0     H12734   3.924  10.820   2.214  4.3532  1.2291 -1.5505
  817MOL0     H12735   3.863  10.789   2.387  0.4337  0.8618 -0.2278
  817MOL0     H12736   4.077  10.894   2.466  5.5533  0.4665 -2.1990
  817MOL0     H12737   3.963  11.001   2.376  0.3131 -0.0100  0.4076
  817MOL0     H12738   4.212  10.854   2.272 -1.5415 -0.3597  1.9942
  817MOL0     H12739   4.111  10.970   2.175 -0.9286  1.3650  0.1461
  817MOL0     H12740   4.269  11.072   2.419  2.3546  0.8866 -0.3508
  817MOL0     H12741   4.200  11.151   2.261  3.5305  1.5612 -0.6080
  817MOL0     H12742   4.581  11.011   2.169 -0.5636 -0.3267 -0.5867
  817MOL0     H12743   3.801  10.623   2.183  0.4674 -0.0543 -0.2159
  817MOL0     H12744   3.665  10.508   2.047 -1.9471 -1.2080 -0.5741
  817MOL0     H12745   3.745  10.393   1.966 -2.0227  2.5902 -2.0254
  817MOL0     H12746   3.641  10.343   2.101  0.2080 -1.2282 -2.9907
  818MOL0     O12747  10.054   6.268   1.698 -0.8937  0.3580  0.0686
  818MOL0     C12748  10.113   6.316   1.794 -0.5994  0.2777  0.2239
  818MOL0     O12749  10.075   6.293   1.923 -0.3529  0.2150  0.9553
  818MOL0     C12750   9.955   6.224   1.933 -0.4868 -0.8086 -0.4953
  818MOL0     C12751   9.950   6.078   1.930  0.5591 -0.4499 -0.4409
  818MOL0     C12752   9.835   6.013   1.969  0.8192 -0.4420  0.1552
  818MOL0     C12753   9.726   6.084   2.033  0.0654 -0.2731  0.3047
  818MOL0     O12754   9.632   6.018   2.106 -0.0974  0.4726 -0.5514
  818MOL0     C12755   9.611   6.058   2.243 -0.0029 -0.1830  0.1714
  818MOL0     C12756   9.514   5.971   2.322 -0.4792 -1.3948  0.0922
  818MOL0     C12757   9.372   5.983   2.255  0.6467 -0.0488 -0.1697
  818MOL0     C12758   9.276   5.874   2.317  0.5043 -0.2381  0.0228
  818MOL0     C12759   9.212   5.917   2.452 -0.1602  0.5943  0.4072
  818MOL0     C12760   9.108   5.827   2.507  1.3042  0.9755 -0.1137
  818MOL0     C12761   9.066   5.871   2.647  0.4153 -0.3648  0.6105
  818MOL0     C12762   9.163   5.831   2.761 -0.0627 -0.3059 -0.0921
  818MOL0     N12763   9.109   5.850   2.902 -0.0305  0.6800  0.2414
  818MOL0     C12764   9.174   5.908   3.007 -1.1937  0.7644 -0.5971
  818MOL0     C12765   9.085   5.909   3.100  0.4557  0.5090  0.6509
  818MOL0     C12766   9.094   5.968   3.240 -0.5703 -0.4440 -0.4828
  818MOL0     C12767   8.962   6.006   3.299  0.0491 -0.6512 -0.7477
  818MOL0     C12768   8.964   6.005   3.451  0.3520  0.2814  0.7374
  818MOL0     C12769   9.067   6.096   3.512 -0.0153 -0.1737  0.6064
  818MOL0     O12770   9.067   6.227   3.460  0.3586 -0.5129  1.0875
  818MOL0     C12771   9.078   6.322   3.555  0.7083 -0.7686  0.1289
  818MOL0     C12772   9.199   6.343   3.614 -0.5618  0.0393  0.1542
  818MOL0     C12773   9.225   6.445   3.716  0.0466 -0.0067 -0.1944
  818MOL0     C12774   9.368   6.458   3.773  0.2959 -0.1564  0.6444
  818MOL0     C12775   9.112   6.521   3.752  1.9278  0.7777 -0.3723
  818MOL0     C12776   9.110   6.629   3.852 -0.6249  0.3645  0.0829
  818MOL0     O12777   8.988   6.673   3.900 -0.0506  0.3611  0.0045
  818MOL0     C12778   8.982   6.778   3.997 -1.4335  0.7647  0.0821
  818MOL0     C12779   8.920   6.897   3.968 -0.3654  0.1135  0.2503
  818MOL0     C12780   8.891   6.994   4.061  0.1621  0.1266  0.2135
  818MOL0     C12781   8.938   6.980   4.186 -0.1417  0.3332  0.0484
  818MOL0     O12782   8.905   7.079   4.275  0.9063  0.7900 -0.3316
  818MOL0     C12783   8.998   7.111   4.381  0.6461  1.2088  0.2164
  818MOL0     C12784   8.953   7.045   4.510  0.1762 -0.6031 -0.2926
  818MOL0     C12785   8.813   7.090   4.557  0.4558  0.8249  0.4271
  818MOL0     C12786   8.778   7.027   4.697 -0.8056  0.5950 -0.8429
  818MOL0     C12787   8.635   7.048   4.755 -0.7627 -0.1166  0.2408
  818MOL0     C12788   8.538   6.982   4.655  0.3743  0.2681  0.1730
  818MOL0     C12789   8.397   7.031   4.685  0.3613  0.1343  0.3842
  818MOL0     C12790   8.289   6.934   4.631 -0.4386 -0.0641 -0.2231
  818MOL0    Cl12791   8.316   6.881   4.458  0.4235 -0.5198 -0.1356
  818MOL0     C12792   9.014   6.861   4.213  0.5737 -0.3936 -0.4867
  818MOL0     C12793   9.037   6.760   4.122 -0.4315 -0.5524 -1.6572
  818MOL0     O12794   9.215   6.680   3.886  0.0438  0.0954  0.2515
  818MOL0     C12795   8.978   6.492   3.698 -0.1674 -0.2850  0.6444
  818MOL0     C12796   8.960   6.401   3.589 -0.1347  0.1349 -0.4871
  818MOL0     N12797   8.962   5.869   3.048 -0.3612 -0.3436 -0.0048
  818MOL0     N12798   8.978   5.835   2.931 -0.2058  0.0246  0.7071
  818MOL0     C12799   9.738   6.223   2.043  0.3652 -0.0169  0.6907
  818MOL0     C12800   9.847   6.292   2.000 -0.6374  0.6247  1.1546
  818MOL0     C12801  10.243   6.384   1.775 -1.5142  0.4080 -0.8581
  818MOL0     C12802  10.326   6.402   1.889  0.9368 -0.2403  0.4174
  818MOL0     C12803  10.427   6.500   1.876  0.2451 -0.2618 -0.2700
  818MOL0     C12804  10.468   6.563   1.759 -1.0483 -0.4078  0.8389
  818MOL0     O12805  10.569   6.655   1.749  0.3613  0.0459  0.0233
  818MOL0     C12806  10.599   6.705   1.617 -0.1837 -0.0206  0.1918
  818MOL0     C12807  10.714   6.802   1.627  0.0291  0.2567 -0.0323
  818MOL0     C12808  10.760   6.845   1.483 -0.7724 -0.1670 -0.1363
  818MOL0     C12809  10.883   6.937   1.474  0.4659  0.3387 -0.0858
  818MOL0     C12810  11.011   6.874   1.530 -0.3403 -0.3026  0.1299
  818MOL0     C12811  11.118   6.829   1.552  0.5973  0.3123  0.6563
  818MOL0     C12812  10.394   6.523   1.643  0.2927  0.3852 -0.2571
  818MOL0     C12813  10.284   6.442   1.649 -0.0115  0.7427 -0.3100
  818MOL0     C12814  10.207   6.425   1.518  0.1379 -0.7406 -0.6832
  818MOL0     H12815  10.023   6.008   1.890  0.7802 -0.8566  0.6571
  818MOL0     H12816   9.837   5.905   1.961  1.2909 -0.6377  2.3377
  818MOL0     H12817   9.565   6.156   2.255  1.5862  0.4353  1.7799
  818MOL0     H12818   9.707   6.057   2.297 -0.8443  0.3166  1.7407
  818MOL0     H12819   9.544   5.867   2.338  2.4492 -0.6110  0.3244
  818MOL0     H12820   9.503   6.008   2.424 -0.3099 -0.2662 -0.2827
  818MOL0     H12821   9.328   6.082   2.276 -0.6534 -0.5795 -0.2641
  818MOL0     H12822   9.369   5.964   2.148  1.0296 -3.6770  0.3514
  818MOL0     H12823   9.186   5.862   2.255  0.3349  1.8328 -0.2146
  818MOL0     H12824   9.337   5.784   2.328  0.6465  0.1292  3.3117
  818MOL0     H12825   9.172   6.017   2.436  1.4125  1.4524  1.5245
  818MOL0     H12826   9.295   5.922   2.523  2.2832 -0.6782 -2.1717
  818MOL0     H12827   9.030   5.822   2.430  2.2412  3.6778 -1.3475
  818MOL0     H12828   9.151   5.728   2.526  1.3781  1.0612  0.1678
  818MOL0     H12829   8.970   5.828   2.677 -0.2195 -0.8433 -1.8641
  818MOL0     H12830   9.069   5.980   2.648 -3.3512 -0.0492 -2.0349
  818MOL0     H12831   9.184   5.724   2.749  2.2370  0.2598 -1.5813
  818MOL0     H12832   9.256   5.886   2.747 -0.0438 -0.6921 -1.6929
  818MOL0     H12833   9.277   5.942   3.013 -0.9009  0.0805 -1.5431
  818MOL0     H12834   9.152   6.060   3.244 -2.7475  1.0687 -1.2803
  818MOL0     H12835   9.149   5.890   3.293 -0.4426 -0.7903 -1.1029
  818MOL0     H12836   8.931   6.107   3.271  0.8623 -0.0175  0.5489
  818MOL0     H12837   8.879   5.942   3.267 -1.7241  1.0015  0.3349
  818MOL0     H12838   8.868   6.041   3.488 -1.1839 -1.4198 -1.3360
  818MOL0     H12839   8.986   5.903   3.483  1.5836 -0.7673 -2.9417
  818MOL0     H12840   9.062   6.090   3.621 -1.1403 -1.7692  0.5000
  818MOL0     H12841   9.161   6.048   3.484 -1.1115 -2.1449  0.1491
  818MOL0     H12842   9.284   6.292   3.570 -0.1091  0.4564  0.5250
  818MOL0     H12843   9.434   6.375   3.748  0.7339 -0.0262  1.3379
  818MOL0     H12844   9.355   6.457   3.881  1.5593  1.3650  0.8582
  818MOL0     H12845   9.403   6.560   3.750 -0.4057 -0.3093 -1.2616
  818MOL0     H12846   8.871   6.906   3.872 -0.4093  2.5903  0.4326
  818MOL0     H12847   8.833   7.083   4.038  0.3248  2.0056  5.5862
  818MOL0     H12848   9.099   7.080   4.355 -0.2499 -0.4795 -1.4946
  818MOL0     H12849   9.013   7.217   4.404 -0.2894  1.5704 -0.7459
  818MOL0     H12850   8.951   6.936   4.514  0.4839 -0.6662 -1.3931
  818MOL0     H12851   9.033   7.092   4.568 -0.4264  0.4001 -0.2324
  818MOL0     H12852   8.745   7.045   4.484  0.6512 -0.3326  0.9458
  818MOL0     H12853   8.799   7.199   4.555 -2.9779  0.5029  0.9538
  818MOL0     H12854   8.844   7.061   4.777 -1.8799 -2.8644  1.7277
  818MOL0     H12855   8.790   6.919   4.695  0.9378  0.7115  0.8190
  818MOL0     H12856   8.613   7.010   4.855  0.0149 -2.9200 -0.5552
  818MOL0     H12857   8.616   7.155   4.749  1.6746  0.3155 -1.2770
  818MOL0     H12858   8.558   6.874   4.653  1.3047  0.4441 -1.8445
  818MOL0     H12859   8.564   7.005   4.552  3.1330 -1.1023  0.4804
  818MOL0     H12860   8.374   7.129   4.643 -1.5786 -0.7230 -0.6596
  818MOL0     H12861   8.389   7.043   4.794  1.6423  2.4673  0.2780
  818MOL0     H12862   8.187   6.971   4.643 -0.5944 -0.5828  0.1189
  818MOL0     H12863   8.296   6.837   4.683 -1.3828  0.9192  1.8557
  818MOL0     H12864   9.051   6.846   4.314  1.0957  0.9797 -0.4595
  818MOL0     H12865   9.085   6.668   4.153 -1.2630 -0.5836 -0.3794
  818MOL0     H12866   8.881   6.529   3.729 -1.5195  0.5883 -3.8837
  818MOL0     H12867   8.864   6.378   3.545 -1.9604  2.2948  2.0540
  818MOL0     H12868   9.671   6.290   2.095  0.4837  1.7907 -1.3546
  818MOL0     H12869   9.857   6.399   2.008  0.2902  0.7196 -0.5637
  818MOL0     H12870  10.302   6.353   1.983  0.9386 -1.2760 -0.1055
  818MOL0     H12871  10.487   6.512   1.966 -1.5788 -4.3674  1.7964
  818MOL0     H12872  10.634   6.621   1.556 -2.4325 -0.7207 -0.2128
  818MOL0     H12873  10.512   6.757   1.576 -1.3066 -2.3327 -0.4777
  818MOL0     H12874  10.798   6.758   1.681  1.3648  0.6433 -1.6791
  818MOL0     H12875  10.686   6.885   1.692 -1.4554 -1.4968  1.6663
  818MOL0     H12876  10.797   6.756   1.430 -0.0672 -0.2915  0.5357
  818MOL0     H12877  10.671   6.881   1.432 -1.7383 -2.1505  0.0604
  818MOL0     H12878  10.872   7.033   1.525  0.1177 -0.6646  1.8144
  818MOL0     H12879  10.904   6.946   1.367  1.4653  0.4076  0.1048
  818MOL0     H12880  11.221   6.803   1.567  0.7743  0.7225  0.1886
  818MOL0     H12881  10.420   6.556   1.543 -0.0091  1.4359  0.0039
  818MOL0     H12882  10.232   6.334   1.463  1.3006  0.4618 -2.2362
  818MOL0     H12883  10.098   6.425   1.522  0.0862  2.2737  2.4558
  818MOL0     H12884  10.226   6.511   1.453 -0.5032  0.8657  1.1551
  819MOL0     O12885   0.566   7.570  10.249 -0.0987 -0.1910  0.3519
  819MOL0     C12886   0.556   7.692  10.244 -0.1587 -1.1413  0.5128
  819MOL0     O12887   0.661   7.774  10.242  0.4190 -0.2556  0.8479
  819MOL0     C12888   0.794   7.750  10.207  0.7470  0.2920  0.4334
  819MOL0     C12889   0.893   7.833  10.255 -0.3658  0.1573 -0.0091
  819MOL0     C12890   1.026   7.831  10.202  0.6215 -0.0715 -0.3257
  819MOL0     C12891   1.058   7.744  10.102  0.2560 -1.5544  0.4153
  819MOL0     O12892   1.185   7.763  10.050  0.2531  0.1930  1.1076
  819MOL0     C12893   1.202   7.728   9.909 -0.3645  0.9478 -0.0983
  819MOL0     C12894   1.341   7.765   9.860 -0.0896 -0.5211  0.2635
  819MOL0     C12895   1.347   7.749   9.704  0.1446  0.2101 -0.3579
  819MOL0     C12896   1.446   7.845   9.647  0.2643 -0.1019  1.2002
  819MOL0     C12897   1.464   7.830   9.498 -0.8635 -0.5532  0.2625
  819MOL0     C12898   1.550   7.707   9.459  0.2582  0.4299 -0.1093
  819MOL0     C12899   1.552   7.703   9.307 -0.0788  0.1881 -0.6902
  819MOL0     C12900   1.670   7.601   9.265  0.4109  0.5269 -0.5266
  819MOL0     N12901   1.653   7.553   9.124 -0.1302 -0.9016 -0.1656
  819MOL0     C12902   1.724   7.447   9.070  0.0683 -0.5068  0.2749
  819MOL0     C12903   1.755   7.482   8.945  0.6449 -0.3361  0.1013
  819MOL0     C12904   1.822   7.406   8.845 -1.1571 -0.5838  1.0508
  819MOL0     C12905   1.945   7.490   8.783 -0.0022 -0.0203  0.4845
  819MOL0     C12906   2.059   7.529   8.885 -0.5428  0.6379  0.7011
  819MOL0     C12907   2.023   7.644   8.988  0.0784  0.8690  0.7883
  819MOL0     O12908   2.140   7.718   9.039 -0.7829  0.2778  1.0446
  819MOL0     C12909   2.198   7.823   8.969  1.0208  0.5734  0.5066
  819MOL0     C12910   2.174   7.849   8.830  0.4708  0.6466  1.1113
  819MOL0     C12911   2.234   7.955   8.757  0.7407  0.3372  0.5990
  819MOL0     C12912   2.204   7.963   8.604 -0.4971 -0.0768 -0.1001
  819MOL0     C12913   2.324   8.047   8.822  0.8157  0.0979  0.1472
  819MOL0     C12914   2.389   8.165   8.767  0.7455 -0.5274  0.5388
  819MOL0     O12915   2.479   8.229   8.848 -0.4173 -0.4683  0.1410
  819MOL0     C12916   2.514   8.361   8.819 -0.0531 -0.1505  0.4481
  819MOL0     C12917   2.611   8.420   8.898 -0.4487  0.3589  0.2688
  819MOL0     C12918   2.658   8.549   8.888 -0.2748 -0.2869  0.0030
  819MOL0     C12919   2.601   8.632   8.791 -0.6815  0.0548 -0.6984
  819MOL0     O12920   2.638   8.767   8.790  0.7381  0.5276  0.4892
  819MOL0     C12921   2.700   8.828   8.904  0.1982 -0.4247 -0.3410
  819MOL0     C12922   2.655   8.968   8.894 -0.4643 -0.6151  0.4852
  819MOL0     C12923   2.708   9.048   9.016 -0.9862  0.6040 -0.8416
  819MOL0     C12924   2.674   9.198   9.005  0.0138 -0.0136 -0.0587
  819MOL0     C12925   2.754   9.290   9.087  0.2365  0.4325 -0.0658
  819MOL0     C12926   2.719   9.302   9.238  0.9755  0.4261 -0.1640
  819MOL0     C12927   2.781   9.423   9.318 -0.0414 -0.4165  0.6695
  819MOL0     C12928   2.719   9.561   9.304 -0.3457  0.1724  0.0805
  819MOL0    Cl12929   2.765   9.663   9.442 -0.0099  0.2599  0.2125
  819MOL0     C12930   2.500   8.581   8.701 -0.8103 -0.7551 -0.7509
  819MOL0     C12931   2.461   8.446   8.719  0.6768 -0.4182 -0.1786
  819MOL0     O12932   2.352   8.206   8.649  0.1644  0.2031  0.3341
  819MOL0     C12933   2.348   8.009   8.957  0.4454  0.6334 -0.4862
  819MOL0     C12934   2.284   7.906   9.038 -0.9023  0.2180  0.7619
  819MOL0     N12935   1.701   7.611   8.925 -0.5165 -1.0420  0.0078
  819MOL0     N12936   1.652   7.658   9.036 -0.3680  0.2619 -0.6100
  819MOL0     C12937   0.964   7.653  10.057 -0.2152  0.0383 -0.0387
  819MOL0     C12938   0.831   7.664  10.102  0.5006 -0.1554 -0.1068
  819MOL0     C12939   0.430   7.752  10.258 -0.1120 -0.0059 -0.3152
  819MOL0     C12940   0.391   7.853  10.171 -0.3315  0.1856 -0.3585
  819MOL0     C12941   0.273   7.925  10.182 -0.2581  0.1946 -0.6969
  819MOL0     C12942   0.178   7.867  10.273  0.1372 -0.4324 -0.4191
  819MOL0     O12943   0.054   7.918  10.305  0.0185 -0.0660  0.0465
  819MOL0     C12944   0.003   8.041  10.252 -0.4675 -0.6228  0.6703
  819MOL0     C12945  -0.144   8.069  10.300 -0.2005  0.7010 -0.2442
  819MOL0     C12946  -0.226   7.987  10.203  0.6647  1.2641 -0.6123
  819MOL0     C12947  -0.365   7.987  10.242  0.5410  0.7506 -0.6466
  819MOL0     C12948  -0.425   8.122  10.212 -0.0009  1.0510  0.9138
  819MOL0     C12949  -0.478   8.225  10.196  0.2146  0.1530 -0.3174
  819MOL0     C12950   0.205   7.759  10.347 -0.3148  0.0123 -0.7816
  819MOL0     C12951   0.332   7.695  10.351  0.0660 -0.0961  0.2283
  819MOL0     C12952   0.353   7.595  10.444 -0.4267 -0.1075  0.5672
  819MOL0     H12953   0.855   7.902  10.329 -0.4825 -1.3302  1.3590
  819MOL0     H12954   1.103   7.896  10.242  0.2206  1.0898 -1.3882
  819MOL0     H12955   1.125   7.781   9.852 -0.0684  2.2294  0.6380
  819MOL0     H12956   1.189   7.621   9.893 -5.8186  1.3092  0.3258
  819MOL0     H12957   1.361   7.868   9.891  1.0688  1.3872 -5.6449
  819MOL0     H12958   1.410   7.692   9.904  0.7968  0.5316  0.6746
  819MOL0     H12959   1.390   7.648   9.695 -1.3350 -0.4988  0.2209
  819MOL0     H12960   1.251   7.753   9.652 -0.0681  2.5936  0.1130
  819MOL0     H12961   1.418   7.950   9.664  1.9781  0.7503 -0.7892
  819MOL0     H12962   1.536   7.810   9.698 -0.0262 -5.3585 -1.2806
  819MOL0     H12963   1.515   7.920   9.463 -2.7030  1.1687  1.7896
  819MOL0     H12964   1.365   7.830   9.451 -0.1080  0.2915 -1.4188
  819MOL0     H12965   1.652   7.724   9.494 -0.6534  3.0864  1.4992
  819MOL0     H12966   1.508   7.613   9.497 -2.8525  2.2198  1.2283
  819MOL0     H12967   1.591   7.798   9.270  2.8780 -1.8014 -3.2627
  819MOL0     H12968   1.455   7.677   9.264 -1.3840  5.0347 -1.2761
  819MOL0     H12969   1.757   7.665   9.279  2.3798 -2.4432  2.1439
  819MOL0     H12970   1.675   7.514   9.331 -2.1143  1.2524  0.7689
  819MOL0     H12971   1.767   7.366   9.128 -1.9883 -2.1239 -0.3112
  819MOL0     H12972   1.749   7.389   8.766  1.0621 -1.9517 -0.8232
  819MOL0     H12973   1.854   7.304   8.870 -0.5799 -0.6554  0.0786
  819MOL0     H12974   1.997   7.430   8.709  1.9447  3.3369 -1.0988
  819MOL0     H12975   1.899   7.576   8.733 -0.8293  0.6391  2.2662
  819MOL0     H12976   2.096   7.448   8.950 -0.9216 -0.3147 -0.2374
  819MOL0     H12977   2.147   7.567   8.832  0.0975 -0.5724  0.8326
  819MOL0     H12978   1.962   7.714   8.930 -1.2181 -2.5651 -2.4145
  819MOL0     H12979   1.954   7.611   9.067 -1.7692  1.5056 -0.4954
  819MOL0     H12980   2.099   7.785   8.784  0.8911 -0.2123  1.6004
  819MOL0     H12981   2.136   8.037   8.560  0.9474 -0.7116 -3.7015
  819MOL0     H12982   2.175   7.862   8.576 -3.3521  0.8084 -0.7312
  819MOL0     H12983   2.295   7.985   8.549 -0.0319 -1.5004  0.0649
  819MOL0     H12984   2.640   8.354   8.979 -1.6865 -1.5715 -0.7956
  819MOL0     H12985   2.728   8.589   8.961 -0.3721  1.4946 -0.8170
  819MOL0     H12986   2.663   8.787   8.998 -2.8279 -2.8989 -2.4030
  819MOL0     H12987   2.809   8.820   8.898  0.0957 -2.0957 -0.5024
  819MOL0     H12988   2.671   9.029   8.805  1.5725 -0.4141  0.9470
  819MOL0     H12989   2.546   8.971   8.904 -0.2853 -1.7797  4.5382
  819MOL0     H12990   2.818   9.043   9.019 -1.0226 -2.1378 -1.5085
  819MOL0     H12991   2.679   9.013   9.116  0.3183 -1.7630 -1.2077
  819MOL0     H12992   2.569   9.205   9.033 -0.3578  2.6021 -1.8266
  819MOL0     H12993   2.699   9.229   8.903 -1.3173  0.2346 -0.3159
  819MOL0     H12994   2.860   9.266   9.075 -0.1817 -2.0950  0.5629
  819MOL0     H12995   2.746   9.392   9.049  3.0252  1.6536  2.2323
  819MOL0     H12996   2.747   9.209   9.287  2.5416  0.8918 -0.1230
  819MOL0     H12997   2.611   9.318   9.237  0.7314 -0.5477  2.7425
  819MOL0     H12998   2.889   9.435   9.301 -0.5455  0.6096 -2.5683
  819MOL0     H12999   2.770   9.403   9.425 -0.6516  0.0904  0.7055
  819MOL0     H13000   2.611   9.544   9.299 -0.0067 -1.9884 -4.3108
  819MOL0     H13001   2.747   9.599   9.206 -0.4202 -1.1451 -0.4749
  819MOL0     H13002   2.454   8.647   8.628 -2.0620  2.2903  2.4906
  819MOL0     H13003   2.388   8.418   8.644  0.3610 -3.8970  1.2137
  819MOL0     H13004   2.415   8.065   9.020  1.3916 -1.7575  0.7640
  819MOL0     H13005   2.302   7.892   9.144 -3.6309 -0.7410  1.1773
  819MOL0     H13006   0.991   7.569   9.993  0.8031 -1.2728  2.0371
  819MOL0     H13007   0.751   7.599  10.068 -3.1364  2.5249  2.5573
  819MOL0     H13008   0.454   7.897  10.094 -0.9218  3.1109  0.6987
  819MOL0     H13009   0.243   8.016  10.130 -0.4490 -1.3425 -3.4699
  819MOL0     H13010   0.071   8.119  10.288 -0.5982 -0.1550 -0.0702
  819MOL0     H13011   0.016   8.057  10.145  2.2197  1.6098  1.2232
  819MOL0     H13012  -0.169   8.175  10.298 -1.4525  0.4299 -0.1317
  819MOL0     H13013  -0.149   8.034  10.403  0.1283  0.8731 -0.1712
  819MOL0     H13014  -0.196   8.009  10.101 -0.8322 -1.1306 -1.6573
  819MOL0     H13015  -0.201   7.881  10.212  0.2646  0.9401 -2.8789
  819MOL0     H13016  -0.373   7.958  10.348  2.2929 -3.4059 -1.4665
  819MOL0     H13017  -0.431   7.914  10.193 -2.6567  1.7250  1.8300
  819MOL0     H13018  -0.541   8.311  10.186  1.4259  1.0447 -0.4788
  819MOL0     H13019   0.119   7.716  10.396 -2.8761  1.6346 -3.5353
  819MOL0     H13020   0.423   7.630  10.520 -0.8082  2.6718 -0.2814
  819MOL0     H13021   0.261   7.568  10.497  0.7428 -0.5896  2.4599
  819MOL0     H13022   0.393   7.507  10.393 -0.8814  0.5534 -0.9730
  820MOL0     O13023  10.850   8.042   7.793  0.4577 -0.0669 -0.8104
  820MOL0     C13024  10.807   7.969   7.706  0.1310 -0.3477  0.4591
  820MOL0     O13025  10.678   7.928   7.708  0.7128 -0.3951  0.4857
  820MOL0     C13026  10.590   7.980   7.797 -0.7477  0.1683 -0.3095
  820MOL0     C13027  10.584   7.945   7.927  0.0969 -0.3299 -0.4722
  820MOL0     C13028  10.511   8.019   8.020 -0.2158 -0.2230 -0.1556
  820MOL0     C13029  10.443   8.134   7.989  0.2098  0.6552  0.6200
  820MOL0     O13030  10.373   8.214   8.080  0.2446  0.2091 -0.2415
  820MOL0     C13031  10.423   8.348   8.082 -0.7814  0.5400  0.4080
  820MOL0     C13032  10.524   8.367   8.204  0.1514  0.3334 -0.1426
  820MOL0     C13033  10.668   8.315   8.169 -0.1182 -0.2207 -0.8397
  820MOL0     C13034  10.779   8.419   8.128  0.7883  0.6610  0.5223
  820MOL0     C13035  10.736   8.469   7.983 -0.4611 -0.2586  0.8848
  820MOL0     C13036  10.768   8.378   7.860 -0.1001 -0.1077  0.2012
  820MOL0     C13037  10.760   8.456   7.727  0.1682  0.3731 -0.0634
  820MOL0     C13038  10.778   8.352   7.611 -0.2824 -0.5993  0.1272
  820MOL0     N13039  10.688   8.389   7.505  0.0279 -0.4907  0.1405
  820MOL0     C13040  10.692   8.500   7.419  0.3687  0.1804 -0.0964
  820MOL0     C13041  10.587   8.483   7.340  1.0219 -0.2221 -0.0693
  820MOL0     C13042  10.561   8.571   7.220  0.7920  0.3817 -0.0636
  820MOL0     C13043  10.427   8.648   7.237  0.0669 -0.0491 -0.0801
  820MOL0     C13044  10.403   8.743   7.119 -0.2766 -0.9656 -0.4759
  820MOL0     C13045  10.262   8.754   7.081  0.9620  0.0055 -0.1019
  820MOL0     O13046  10.216   8.637   7.017 -0.4695 -0.6347  0.3200
  820MOL0     C13047  10.087   8.627   6.977 -0.4716 -0.5547  0.9343
  820MOL0     C13048  10.035   8.499   6.949  0.5573 -0.6247  0.1483
  820MOL0     C13049   9.915   8.472   6.887  0.3340  0.1992  0.5441
  820MOL0     C13050   9.867   8.328   6.857  1.1159 -0.9465  0.2986
  820MOL0     C13051   9.830   8.581   6.863  0.2945  0.2328 -0.4929
  820MOL0     C13052   9.699   8.576   6.812 -0.5766 -0.3377 -0.3633
  820MOL0     O13053   9.607   8.545   6.907 -0.1214  0.4790  0.4590
  820MOL0     C13054   9.474   8.577   6.872  0.6121 -0.4258 -0.3250
  820MOL0     C13055   9.383   8.490   6.804  0.2201  1.2787 -0.1743
  820MOL0     C13056   9.258   8.532   6.760 -0.5877  0.2918 -0.3616
  820MOL0     C13057   9.216   8.661   6.786 -0.3632 -0.1050  1.0792
  820MOL0     O13058   9.093   8.710   6.752  0.7180  0.3078  0.0767
  820MOL0     C13059   9.037   8.667   6.635  0.5784  0.7890 -0.4965
  820MOL0     C13060   9.101   8.724   6.509 -0.0388 -0.4523 -0.5812
  820MOL0     C13061   9.151   8.874   6.520  0.7035 -0.8013 -0.2546
  820MOL0     C13062   9.050   8.984   6.532 -0.5110  0.1891 -0.5204
  820MOL0     C13063   8.943   8.964   6.420  0.5814 -0.4648 -0.7609
  820MOL0     C13064   8.876   9.098   6.382  0.9436 -0.2347  0.7028
  820MOL0     C13065   8.827   9.095   6.241  0.0131 -0.2890  1.0610
  820MOL0     C13066   8.708   9.000   6.206  0.1537  0.6868 -0.4491
  820MOL0    Cl13067   8.686   9.026   6.026 -0.1922  0.3432 -0.0432
  820MOL0     C13068   9.296   8.741   6.863  0.2610  0.1401 -1.6236
  820MOL0     C13069   9.427   8.709   6.900  0.5730 -0.3444 -0.2834
  820MOL0     O13070   9.689   8.633   6.707 -0.9099  0.5600  0.0773
  820MOL0     C13071   9.875   8.707   6.901 -0.7171 -0.4060 -0.1417
  820MOL0     C13072   9.997   8.737   6.961 -0.3035  0.2902  0.5672
  820MOL0     N13073  10.502   8.385   7.383 -0.3895 -0.6941  0.2834
  820MOL0     N13074  10.570   8.326   7.481 -0.5019  0.4040 -0.3664
  820MOL0     C13075  10.433   8.160   7.848  0.3220 -0.3411 -0.0741
  820MOL0     C13076  10.508   8.089   7.752  0.2490  0.9120 -0.7238
  820MOL0     C13077  10.898   7.915   7.601 -0.5344  0.1876  0.0240
  820MOL0     C13078  10.840   7.822   7.513 -0.4716 -0.5532  0.5419
  820MOL0     C13079  10.911   7.770   7.410  0.3558  0.7783 -0.3303
  820MOL0     C13080  11.039   7.814   7.378  1.0194  0.4176  0.4553
  820MOL0     O13081  11.088   7.755   7.261  0.1473  0.0742  0.4774
  820MOL0     C13082  11.226   7.786   7.216 -0.8711 -0.3617  0.6906
  820MOL0     C13083  11.251   7.733   7.076  0.1453  0.2482 -0.8004
  820MOL0     C13084  11.160   7.782   6.956 -0.6739  0.7788 -0.2816
  820MOL0     C13085  11.127   7.933   6.966 -0.2232 -0.2910 -0.6173
  820MOL0     C13086  11.240   8.024   6.951  0.1850 -0.4309 -0.9257
  820MOL0     C13087  11.314   8.115   6.936 -0.0331  0.1720 -0.0601
  820MOL0     C13088  11.099   7.911   7.463 -0.8531 -0.7797  0.4852
  820MOL0     C13089  11.036   7.959   7.576  0.0333 -0.6836 -0.1095
  820MOL0     C13090  11.102   8.065   7.648  0.2557  0.6738 -0.7180
  820MOL0     H13091  10.639   7.863   7.972  3.0693  1.5085 -0.5039
  820MOL0     H13092  10.514   7.991   8.125 -0.9856  1.9370  0.5084
  820MOL0     H13093  10.341   8.417   8.104  0.8494  2.4300  0.8294
  820MOL0     H13094  10.460   8.380   7.985  0.3073  1.5756  1.1409
  820MOL0     H13095  10.526   8.471   8.237  0.7363 -0.3170  2.0598
  820MOL0     H13096  10.482   8.305   8.284 -3.8084 -1.3592 -3.2157
  820MOL0     H13097  10.693   8.259   8.260 -0.2615  0.4457 -0.3815
  820MOL0     H13098  10.655   8.243   8.088 -0.8385 -2.8361  1.4286
  820MOL0     H13099  10.767   8.501   8.200  2.4818  2.7318 -1.3899
  820MOL0     H13100  10.882   8.382   8.138  1.1174  2.0745  4.1282
  820MOL0     H13101  10.784   8.565   7.962 -0.5476 -0.5094 -0.5633
  820MOL0     H13102  10.628   8.481   7.975 -0.6953 -0.6782  2.8788
  820MOL0     H13103  10.873   8.349   7.871  0.0359 -0.2259 -1.2304
  820MOL0     H13104  10.710   8.284   7.864 -1.7235  0.5497 -3.8017
  820MOL0     H13105  10.843   8.527   7.727  1.1963 -0.7348 -1.7935
  820MOL0     H13106  10.659   8.493   7.710  0.2205 -0.0601 -1.5169
  820MOL0     H13107  10.879   8.335   7.571 -0.2605 -3.7663  1.2723
  820MOL0     H13108  10.735   8.255   7.635 -0.5017  0.3198  4.1511
  820MOL0     H13109  10.770   8.575   7.422 -1.3795  2.0907  3.5062
  820MOL0     H13110  10.567   8.516   7.125 -3.6557  3.1152 -2.2962
  820MOL0     H13111  10.641   8.645   7.226 -0.6699  1.9704  0.4692
  820MOL0     H13112  10.341   8.581   7.252 -0.2308  0.4786  0.6246
  820MOL0     H13113  10.433   8.709   7.327  1.2255  0.0891 -0.2311
  820MOL0     H13114  10.443   8.842   7.140 -0.5742 -0.9066 -0.1699
  820MOL0     H13115  10.465   8.707   7.037  0.2762  2.3699 -1.6707
  820MOL0     H13116  10.196   8.770   7.167 -1.5001  0.9562 -2.0218
  820MOL0     H13117  10.242   8.833   7.008  2.1860  1.5788  1.2038
  820MOL0     H13118  10.106   8.417   6.952  1.4383  0.1027 -0.2537
  820MOL0     H13119   9.952   8.260   6.865  0.3943 -2.4948 -3.1410
  820MOL0     H13120   9.840   8.318   6.751  0.5955  0.8934  0.2196
  820MOL0     H13121   9.785   8.303   6.924  1.4564  2.8678  2.4535
  820MOL0     H13122   9.405   8.388   6.774 -2.2663  0.3169  1.0480
  820MOL0     H13123   9.197   8.457   6.710  0.3348 -1.8486  1.5478
  820MOL0     H13124   9.037   8.558   6.623  3.1497  0.3775  2.1709
  820MOL0     H13125   8.941   8.718   6.648  1.4340  1.7397  3.3505
  820MOL0     H13126   9.187   8.661   6.481 -0.6807 -2.0345  0.7875
  820MOL0     H13127   9.042   8.722   6.417 -0.3181 -1.7903 -0.3955
  820MOL0     H13128   9.215   8.900   6.435  1.5395 -2.4802 -0.1741
  820MOL0     H13129   9.212   8.882   6.611  2.0086 -1.2386 -1.0499
  820MOL0     H13130   9.089   9.084   6.510 -0.4283  0.1402 -0.5965
  820MOL0     H13131   9.017   8.975   6.636  1.1211 -1.9974 -0.1371
  820MOL0     H13132   9.007   8.943   6.334  2.9666  0.2765  0.7114
  820MOL0     H13133   8.876   8.880   6.440 -0.6454  1.3177  3.9459
  820MOL0     H13134   8.943   9.184   6.390  0.8604 -0.3401  3.3390
  820MOL0     H13135   8.792   9.107   6.452  1.2733  2.0768  0.8641
  820MOL0     H13136   8.914   9.069   6.179 -1.2253 -0.9803 -0.4550
  820MOL0     H13137   8.798   9.197   6.214  0.8555 -0.0383  1.0731
  820MOL0     H13138   8.612   9.031   6.248 -1.5805  1.0547 -4.3260
  820MOL0     H13139   8.727   8.895   6.228 -0.4540  0.1599 -2.2918
  820MOL0     H13140   9.269   8.844   6.883  0.0299 -0.1859 -0.1217
  820MOL0     H13141   9.484   8.789   6.946  0.0834 -1.7029  2.9624
  820MOL0     H13142   9.804   8.789   6.903  0.8853  1.0340  2.2918
  820MOL0     H13143  10.029   8.838   6.984  0.0726  0.6256 -1.2808
  820MOL0     H13144  10.356   8.234   7.828  0.9947  0.9897  1.9819
  820MOL0     H13145  10.504   8.113   7.646 -2.6129  1.5675 -0.5551
  820MOL0     H13146  10.738   7.785   7.512  0.0650 -2.1341 -1.0883
  820MOL0     H13147  10.862   7.693   7.351 -0.6846  2.3558 -1.6390
  820MOL0     H13148  11.246   7.893   7.210  2.4583 -0.8836  0.5289
  820MOL0     H13149  11.308   7.747   7.278  0.9747  1.0103 -0.7676
  820MOL0     H13150  11.244   7.627   7.098 -0.2564  0.4138 -0.1073
  820MOL0     H13151  11.352   7.760   7.042 -0.6276  2.7052 -1.3910
  820MOL0     H13152  11.213   7.764   6.861 -2.1507  0.7706 -1.1230
  820MOL0     H13153  11.074   7.714   6.955 -0.4631  0.4621 -2.3797
  820MOL0     H13154  11.081   7.955   7.063 -0.7264 -3.0181 -0.1719
  820MOL0     H13155  11.054   7.958   6.889  2.3221  0.0265 -3.0933
  820MOL0     H13156  11.370   8.205   6.925  1.5100 -1.0733 -4.8036
  820MOL0     H13157  11.191   7.955   7.425 -0.8837 -2.3220 -1.5857
  820MOL0     H13158  11.037   8.150   7.669  0.0135  0.2022  0.5829
  820MOL0     H13159  11.132   8.026   7.746 -0.2650 -1.0234 -1.1899
  820MOL0     H13160  11.190   8.108   7.599  0.1245  2.8942  0.8425
  821MOL0     O13161   2.484   2.305  11.301  0.4126  0.0516  0.1586
  821MOL0     C13162   2.572   2.223  11.290  0.4955 -0.6003 -0.2275
  821MOL0     O13163   2.603   2.154  11.173  0.7152 -0.3322 -0.1280
  821MOL0     C13164   2.552   2.179  11.048 -1.2019 -0.0876  0.0096
  821MOL0     C13165   2.502   2.307  11.006 -0.1554  0.8254 -0.0147
  821MOL0     C13166   2.440   2.326  10.880 -0.3856  0.6022  1.2024
  821MOL0     C13167   2.460   2.224  10.787  0.4260  0.2386  0.6121
  821MOL0     O13168   2.403   2.236  10.661  0.1101 -0.0565 -0.1389
  821MOL0     C13169   2.362   2.364  10.607 -0.0938  0.6351 -0.6213
  821MOL0     C13170   2.340   2.333  10.463  0.1665 -0.1272  0.4285
  821MOL0     C13171   2.475   2.318  10.389  0.3652  0.5749  0.6464
  821MOL0     C13172   2.450   2.279  10.243  0.4444 -1.1059 -0.4027
  821MOL0     C13173   2.588   2.277  10.179 -0.7988  0.8121 -1.0156
  821MOL0     C13174   2.583   2.217  10.037 -0.4114  0.1176  0.2524
  821MOL0     C13175   2.721   2.173   9.992 -0.8187 -0.5794  0.3144
  821MOL0     C13176   2.737   2.153   9.846 -1.1899  0.7102  0.2219
  821MOL0     N13177   2.659   2.039   9.790  0.1015  0.5546 -0.1179
  821MOL0     C13178   2.524   2.038   9.778 -0.5263 -0.6305  0.0256
  821MOL0     C13179   2.489   1.920   9.714 -0.2665 -0.6563  0.5279
  821MOL0     C13180   2.341   1.887   9.705 -0.3445  0.4741  0.0424
  821MOL0     C13181   2.301   1.825   9.835 -0.2366 -0.8163  0.6907
  821MOL0     C13182   2.168   1.750   9.834  0.0287 -1.0588 -0.9902
  821MOL0     C13183   2.116   1.701   9.967 -0.5228 -0.1671  0.6974
  821MOL0     O13184   1.997   1.619   9.963 -0.6312 -0.4566 -0.3459
  821MOL0     C13185   1.998   1.514  10.056 -0.0856 -0.7171  0.3389
  821MOL0     C13186   2.025   1.384  10.019 -0.0648  0.4478  0.1347
  821MOL0     C13187   2.008   1.273  10.102 -0.0644 -0.1472 -0.0654
  821MOL0     C13188   2.046   1.143  10.054  0.9435 -0.4830  0.4120
  821MOL0     C13189   1.947   1.296  10.230  0.0912 -0.5803 -0.6832
  821MOL0     C13190   1.917   1.185  10.326 -0.2830  0.1537 -0.7627
  821MOL0     O13191   1.973   1.061  10.302 -0.3755  0.5676 -0.0871
  821MOL0     C13192   1.894   0.944  10.314  0.1081 -1.5190 -0.7336
  821MOL0     C13193   1.966   0.825  10.348 -0.1725 -0.3700 -0.0990
  821MOL0     C13194   1.901   0.701  10.348 -0.4879  0.0832 -1.0873
  821MOL0     C13195   1.767   0.690  10.340 -0.2616  0.6950 -0.5018
  821MOL0     O13196   1.723   0.555  10.341 -0.3860 -0.2193  0.1619
  821MOL0     C13197   1.586   0.536  10.345  0.4306 -0.1757 -0.2370
  821MOL0     C13198   1.569   0.383  10.362 -0.7218 -0.1137 -0.3144
  821MOL0     C13199   1.423   0.336  10.421  1.2034 -0.6803 -0.1234
  821MOL0     C13200   1.392   0.204  10.356 -0.5997  1.0165 -0.7910
  821MOL0     C13201   1.279   0.137  10.434  0.1961  0.6227 -1.0945
  821MOL0     C13202   1.249  -0.014  10.387 -0.9978 -1.9566 -0.2119
  821MOL0     C13203   1.115  -0.061  10.442 -0.2330 -0.0317  0.0961
  821MOL0     C13204   1.062  -0.193  10.377  0.6951  0.0982  0.1389
  821MOL0    Cl13205   1.109  -0.329  10.477 -0.1826  0.2090 -0.1866
  821MOL0     C13206   1.689   0.807  10.315 -0.3248  0.1775 -0.7113
  821MOL0     C13207   1.751   0.932  10.314  0.0992  0.2470  0.1230
  821MOL0     O13208   1.833   1.210  10.417 -1.2524 -0.0664  0.0251
  821MOL0     C13209   1.930   1.428  10.276 -0.1019 -0.4347  0.4047
  821MOL0     C13210   1.945   1.539  10.179 -1.0339 -0.1812 -0.6066
  821MOL0     N13211   2.604   1.854   9.683  1.0660  0.6265 -0.3162
  821MOL0     N13212   2.704   1.921   9.732  1.1678 -0.5001 -0.0685
  821MOL0     C13213   2.528   2.106  10.817  0.3234 -0.0594 -0.2735
  821MOL0     C13214   2.576   2.082  10.950  1.5340  0.1357  0.2502
  821MOL0     C13215   2.629   2.167  11.411 -0.1580  0.4538 -0.9209
  821MOL0     C13216   2.675   2.029  11.399 -0.2309 -0.3257  0.2972
  821MOL0     C13217   2.720   1.958  11.507 -0.3820 -0.7725 -0.0627
  821MOL0     C13218   2.720   2.010  11.632  0.5758 -0.8802 -0.8453
  821MOL0     O13219   2.741   1.940  11.744 -0.0232  0.6413  0.3017
  821MOL0     C13220   2.860   1.863  11.749 -0.9412  0.6703 -0.1941
  821MOL0     C13221   2.840   1.808  11.895 -0.7932  0.5186  0.7218
  821MOL0     C13222   2.902   1.900  12.003  0.0162  0.1998 -0.0389
  821MOL0     C13223   3.052   1.914  11.996 -0.1041 -0.2813 -0.1302
  821MOL0     C13224   3.120   1.816  12.096 -0.0834 -0.2915  1.0507
  821MOL0     C13225   3.174   1.744  12.178  0.9726 -1.2306  0.1487
  821MOL0     C13226   2.686   2.148  11.650  0.3816  0.1898  0.6876
  821MOL0     C13227   2.643   2.226  11.540 -0.1825 -0.9943 -0.0146
  821MOL0     C13228   2.578   2.362  11.570 -0.1679  0.6181  1.1169
  821MOL0     H13229   2.502   2.387  11.079  2.3416  0.7709  0.1329
  821MOL0     H13230   2.388   2.420  10.867 -2.0093  0.0434  3.0157
  821MOL0     H13231   2.444   2.427  10.641 -0.8487  1.0855  0.3747
  821MOL0     H13232   2.272   2.409  10.648  0.4718  1.4679 -0.2799
  821MOL0     H13233   2.288   2.237  10.467 -2.7678  1.3540  0.2970
  821MOL0     H13234   2.272   2.411  10.428 -0.8680 -0.0800  2.3690
  821MOL0     H13235   2.514   2.421  10.391 -1.4843  1.3566 -0.4773
  821MOL0     H13236   2.537   2.252  10.450  1.4227  0.9822  0.0550
  821MOL0     H13237   2.406   2.179  10.234 -2.8082 -0.1558  2.5577
  821MOL0     H13238   2.382   2.357  10.209  1.3568 -1.3337 -2.9711
  821MOL0     H13239   2.664   2.222  10.236 -2.2110 -0.7816 -0.5735
  821MOL0     H13240   2.623   2.380  10.170  0.9619  0.7204  2.8199
  821MOL0     H13241   2.516   2.131  10.047  0.5030 -0.5938  0.3584
  821MOL0     H13242   2.539   2.289   9.968  1.1676  2.4220  1.4867
  821MOL0     H13243   2.746   2.080  10.045 -0.3574  1.2853  3.6120
  821MOL0     H13244   2.805   2.237  10.020 -1.7258  0.8014 -0.0244
  821MOL0     H13245   2.713   2.246   9.792  1.9561 -0.8441 -4.4861
  821MOL0     H13246   2.840   2.133   9.816 -1.2394  3.0786 -1.8950
  821MOL0     H13247   2.456   2.110   9.821  0.2213  0.8077 -1.1107
  821MOL0     H13248   2.334   1.811   9.626  1.7514  0.7487 -0.4663
  821MOL0     H13249   2.285   1.972   9.664 -1.7328 -1.5322 -2.5995
  821MOL0     H13250   2.373   1.748   9.864 -1.8400 -1.2068  4.1165
  821MOL0     H13251   2.308   1.904   9.910  0.1639 -0.9107  0.7529
  821MOL0     H13252   2.090   1.816   9.795  0.2339  0.0518  0.4126
  821MOL0     H13253   2.178   1.667   9.764 -0.2470 -1.6018 -0.3889
  821MOL0     H13254   2.203   1.655  10.016 -0.6097 -0.3549  0.6758
  821MOL0     H13255   2.094   1.788  10.030  2.4685  1.2565 -0.0321
  821MOL0     H13256   2.066   1.370   9.919 -2.5723  2.1985 -1.2592
  821MOL0     H13257   1.955   1.087  10.029 -1.7485  3.7473 -0.4505
  821MOL0     H13258   2.108   1.085  10.122 -2.1244 -3.7478  0.7359
  821MOL0     H13259   2.100   1.165   9.961 -2.8059 -0.4836 -1.9860
  821MOL0     H13260   2.073   0.821  10.361  0.3098 -0.5750 -3.3802
  821MOL0     H13261   1.947   0.605  10.371 -0.0394  0.2016 -1.4874
  821MOL0     H13262   1.536   0.588  10.428  1.2195 -0.5794  0.5144
  821MOL0     H13263   1.544   0.570  10.250  2.4566 -0.3996 -1.2664
  821MOL0     H13264   1.592   0.333  10.268  0.4576 -0.4756  0.1521
  821MOL0     H13265   1.643   0.350  10.435  0.7155  0.2348 -1.5563
  821MOL0     H13266   1.328   0.390  10.422 -1.1449 -4.3992  2.8611
  821MOL0     H13267   1.447   0.337  10.528 -0.8767  4.1239  0.5422
  821MOL0     H13268   1.479   0.139  10.368 -1.5179  0.1110  1.3886
  821MOL0     H13269   1.380   0.216  10.248  1.1647  1.5705 -0.9493
  821MOL0     H13270   1.288   0.154  10.542 -1.6329  0.6276 -0.9156
  821MOL0     H13271   1.189   0.197  10.416  0.1508  0.8355 -0.2329
  821MOL0     H13272   1.336  -0.070  10.423  0.5987  0.8765  0.6954
  821MOL0     H13273   1.259  -0.021  10.278 -0.9315 -1.0649 -0.2736
  821MOL0     H13274   1.045   0.018  10.416 -0.4208 -0.8617 -2.0533
  821MOL0     H13275   1.119  -0.068  10.551 -0.1103  0.6962  0.1435
  821MOL0     H13276   1.080  -0.202  10.270  2.7852 -1.1316  0.5442
  821MOL0     H13277   0.953  -0.190  10.384  0.6844  0.2858 -0.1265
  821MOL0     H13278   1.582   0.808  10.296 -0.6387 -1.7234  0.6233
  821MOL0     H13279   1.696   1.024  10.301 -3.3281 -1.6638  0.0023
  821MOL0     H13280   1.916   1.448  10.382  0.9122  1.4735  0.2306
  821MOL0     H13281   1.906   1.635  10.212 -1.3019  0.0769 -1.6376
  821MOL0     H13282   2.534   2.023  10.747 -3.2835 -2.8147  2.2836
  821MOL0     H13283   2.622   1.987  10.976  0.8603 -0.2171  0.1723
  821MOL0     H13284   2.680   1.975  11.306  2.7076 -1.9250  1.2704
  821MOL0     H13285   2.757   1.857  11.497 -1.0160 -1.5155  3.5475
  821MOL0     H13286   2.852   1.776  11.683 -1.5174  1.1398 -0.7643
  821MOL0     H13287   2.950   1.916  11.715 -1.7856  1.1077 -1.8756
  821MOL0     H13288   2.900   1.719  11.912  0.1373  1.0746  0.4284
  821MOL0     H13289   2.733   1.789  11.911 -1.3321 -0.4099 -2.9712
  821MOL0     H13290   2.851   1.996  11.988  0.3394  1.2799  4.3679
  821MOL0     H13291   2.874   1.866  12.103 -0.2547  2.0006  0.5379
  821MOL0     H13292   3.074   2.016  12.027 -0.7982 -0.6355  1.6672
  821MOL0     H13293   3.086   1.909  11.892 -1.8071  2.4051 -0.9004
  821MOL0     H13294   3.216   1.681  12.254  0.7072 -2.8787 -1.0373
  821MOL0     H13295   2.687   2.189  11.750  0.6848 -3.1659  2.1916
  821MOL0     H13296   2.584   2.396  11.674 -0.6566  2.1731  0.6622
  821MOL0     H13297   2.634   2.428  11.504 -1.7778  0.7686 -0.1376
  821MOL0     H13298   2.470   2.348  11.561 -0.0912  1.1951 -1.1291
  822MOL0     O13299   8.192   9.691  10.327  0.1042  0.4833 -0.1107
  822MOL0     C13300   8.301   9.667  10.275  0.6366  0.3611 -0.4286
  822MOL0     O13301   8.358   9.539  10.272 -0.3171 -0.0609 -0.4442
  822MOL0     C13302   8.295   9.440  10.340  0.1006 -0.1472  0.2852
  822MOL0     C13303   8.192   9.360  10.283 -0.0017  0.0453 -0.9454
  822MOL0     C13304   8.130   9.270  10.368  0.5195  0.5706  0.1761
  822MOL0     C13305   8.181   9.240  10.496 -0.5284 -0.1676 -0.3782
  822MOL0     O13306   8.109   9.161  10.579  0.7407  0.0685  0.2037
  822MOL0     C13307   8.097   9.201  10.717  0.1990 -0.0216  0.6883
  822MOL0     C13308   8.010   9.101  10.787 -0.3958  0.2137 -0.6037
  822MOL0     C13309   8.041   9.110  10.938 -0.5227  0.7294  0.3007
  822MOL0     C13310   7.917   9.061  11.016 -0.7242  0.2912  0.9319
  822MOL0     C13311   7.931   9.076  11.170  0.0121 -0.0963  0.0225
  822MOL0     C13312   7.811   9.017  11.250  0.0397  0.3237 -0.0741
  822MOL0     C13313   7.849   9.011  11.407 -0.6544  0.3959  0.3271
  822MOL0     C13314   7.744   8.939  11.496 -0.0857  0.2353 -0.2984
  822MOL0     N13315   7.720   8.800  11.456  0.8962  0.2225 -0.0811
  822MOL0     C13316   7.625   8.761  11.366  0.1992  0.2543  0.5688
  822MOL0     C13317   7.600   8.623  11.397  0.4096 -1.2200  0.8630
  822MOL0     C13318   7.507   8.532  11.329 -0.6957 -0.6564 -0.4022
  822MOL0     C13319   7.407   8.472  11.429 -0.0628  0.5043  0.1438
  822MOL0     C13320   7.310   8.372  11.385  0.8321  0.1260  0.3019
  822MOL0     C13321   7.214   8.325  11.495 -0.3301 -0.0231  0.3360
  822MOL0     O13322   7.283   8.248  11.590  0.9167  0.3166 -0.1814
  822MOL0     C13323   7.257   8.285  11.718  0.3084  0.6835 -0.0248
  822MOL0     C13324   7.349   8.355  11.797 -0.0107  0.2024  0.0368
  822MOL0     C13325   7.309   8.406  11.918 -1.0074  1.4312 -0.9461
  822MOL0     C13326   7.415   8.470  12.002 -0.5138  0.3235  0.0768
  822MOL0     C13327   7.170   8.393  11.962 -0.1476 -0.4163  0.8402
  822MOL0     C13328   7.103   8.432  12.090  0.0223 -0.0238  0.0191
  822MOL0     O13329   6.964   8.436  12.088 -0.0497 -0.0238 -0.1234
  822MOL0     C13330   6.893   8.480  12.202 -0.3738 -0.4111 -0.6790
  822MOL0     C13331   6.764   8.434  12.206  1.1206  0.3931 -0.6347
  822MOL0     C13332   6.676   8.473  12.296 -0.2610 -0.2105  0.5444
  822MOL0     C13333   6.709   8.566  12.395  0.0709 -0.5729 -0.0029
  822MOL0     O13334   6.608   8.601  12.486  0.4173 -0.0495  0.0660
  822MOL0     C13335   6.621   8.719  12.566  0.6671  1.0748  0.3244
  822MOL0     C13336   6.502   8.711  12.660 -0.1378  0.3653 -0.0339
  822MOL0     C13337   6.487   8.829  12.754 -0.4355 -0.3335 -0.2855
  822MOL0     C13338   6.372   8.815  12.860 -0.1130  0.6523 -0.1606
  822MOL0     C13339   6.376   8.939  12.940  1.1418  0.6586 -0.3842
  822MOL0     C13340   6.241   8.958  13.020 -0.7446  0.1190 -0.7378
  822MOL0     C13341   6.256   9.045  13.145 -1.0789 -1.1317  0.4685
  822MOL0     C13342   6.116   9.098  13.187 -0.5570 -0.5025 -0.5739
  822MOL0    Cl13343   6.023   9.194  13.052  0.1969  0.4986  0.0793
  822MOL0     C13344   6.842   8.618  12.387  0.2217  0.3294  0.1398
  822MOL0     C13345   6.939   8.579  12.293  1.1135 -0.0688 -0.0943
  822MOL0     O13346   7.175   8.439  12.189  1.3745 -0.6627 -0.0479
  822MOL0     C13347   7.082   8.318  11.879  0.6362 -0.5378  0.5206
  822MOL0     C13348   7.134   8.252  11.765 -0.0362  0.8858  0.0659
  822MOL0     N13349   7.665   8.604  11.511  0.9557  0.9889  0.3358
  822MOL0     N13350   7.741   8.702  11.543  0.1611 -0.0771  0.2311
  822MOL0     C13351   8.293   9.304  10.539  0.0821  0.5968 -0.1622
  822MOL0     C13352   8.351   9.403  10.464  0.0755  0.8532 -0.1250
  822MOL0     C13353   8.354   9.754  10.168 -0.4128 -0.3353 -0.0873
  822MOL0     C13354   8.396   9.707  10.038 -0.2090 -1.0897 -0.7455
  822MOL0     C13355   8.449   9.802   9.949 -1.3343  0.4059  0.2400
  822MOL0     C13356   8.474   9.929   9.984  0.1183 -0.3760  0.3826
  822MOL0     O13357   8.514  10.022   9.880 -0.0982  0.3163 -0.2283
  822MOL0     C13358   8.434  10.030   9.767 -0.3246 -0.2011  0.1796
  822MOL0     C13359   8.517  10.116   9.677  0.5957  0.0131  0.0269
  822MOL0     C13360   8.512  10.264   9.709 -0.9723  0.4530  0.0164
  822MOL0     C13361   8.618  10.311   9.813 -0.4669  0.0237 -0.1438
  822MOL0     C13362   8.600  10.456   9.846 -0.9680 -1.4618  0.1764
  822MOL0     C13363   8.575  10.572   9.876  0.8502  0.5800  0.2380
  822MOL0     C13364   8.440   9.974  10.112 -0.3658  0.4115  0.7557
  822MOL0     C13365   8.369   9.892  10.200 -0.1194 -0.5385 -0.9265
  822MOL0     C13366   8.330   9.955  10.340 -0.1905  0.1070 -0.3457
  822MOL0     H13367   8.158   9.393  10.186  2.9607  1.2538 -1.6789
  822MOL0     H13368   8.057   9.210  10.313  0.8309  0.8436 -0.5492
  822MOL0     H13369   8.045   9.297  10.729 -0.2775 -0.0456 -0.9541
  822MOL0     H13370   8.198   9.213  10.756  2.1096 -0.0110 -3.6332
  822MOL0     H13371   7.905   9.126  10.770 -0.4561  0.7355  0.4570
  822MOL0     H13372   8.031   9.009  10.731  0.4974  1.0124 -1.6341
  822MOL0     H13373   8.132   9.052  10.954 -1.0559  0.2601  1.8634
  822MOL0     H13374   8.060   9.215  10.961  1.3135  0.7510 -1.1098
  822MOL0     H13375   7.837   9.127  10.980  0.1429  2.7820  3.1854
  822MOL0     H13376   7.901   8.957  10.987  1.2314  0.0749  0.4753
  822MOL0     H13377   7.940   9.184  11.184  1.7452 -0.1907 -0.1335
  822MOL0     H13378   8.023   9.034  11.213 -0.3448 -0.2064  0.6839
  822MOL0     H13379   7.724   9.082  11.239  0.2395  0.2092 -2.9483
  822MOL0     H13380   7.794   8.918  11.206  2.5029  0.4213 -1.4631
  822MOL0     H13381   7.876   9.113  11.436  3.3561 -0.2207 -0.6472
  822MOL0     H13382   7.939   8.950  11.419 -1.7560 -1.6853 -1.3262
  822MOL0     H13383   7.796   8.933  11.592  0.4771  2.7706 -0.3910
  822MOL0     H13384   7.649   8.992  11.506 -1.9105 -2.8649  0.0688
  822MOL0     H13385   7.578   8.808  11.280 -1.5156 -1.9863  0.2043
  822MOL0     H13386   7.571   8.446  11.307  0.9132 -0.0190  1.4235
  822MOL0     H13387   7.465   8.586  11.243 -0.5678  0.0530 -0.0283
  822MOL0     H13388   7.462   8.418  11.506 -0.0421 -3.1892 -2.2580
  822MOL0     H13389   7.344   8.557  11.458  1.5134  2.2046 -1.1268
  822MOL0     H13390   7.252   8.405  11.298  1.5617 -0.6304 -0.4962
  822MOL0     H13391   7.365   8.284  11.352 -1.0171 -0.7443 -0.5877
  822MOL0     H13392   7.150   8.402  11.538 -1.1717 -1.6386  2.1520
  822MOL0     H13393   7.155   8.251  11.440  0.2441 -1.1830  1.2115
  822MOL0     H13394   7.449   8.365  11.756 -0.4749  0.0742 -1.1647
  822MOL0     H13395   7.444   8.566  11.958 -0.4011 -0.7263 -2.3236
  822MOL0     H13396   7.505   8.408  11.996  0.9496  2.3446  0.3561
  822MOL0     H13397   7.393   8.479  12.108 -1.8320 -1.8099  0.0556
  822MOL0     H13398   6.727   8.357  12.139 -1.4317 -1.8222  2.9351
  822MOL0     H13399   6.574   8.440  12.281 -0.1522 -0.5367  0.5363
  822MOL0     H13400   6.707   8.704  12.632 -0.3612 -1.6504  1.2044
  822MOL0     H13401   6.612   8.810  12.506 -2.0065  1.1533  0.7004
  822MOL0     H13402   6.410   8.695  12.602 -2.4543  2.1941  2.8424
  822MOL0     H13403   6.517   8.626  12.727  1.3329 -2.7311 -3.8445
  822MOL0     H13404   6.457   8.915  12.693 -3.1856 -0.1508  1.1623
  822MOL0     H13405   6.583   8.850  12.802  1.4810 -3.8115 -2.2854
  822MOL0     H13406   6.373   8.733  12.933  0.2682  0.3446 -0.5050
  822MOL0     H13407   6.281   8.801  12.801  1.8723 -1.1110 -3.0920
  822MOL0     H13408   6.455   8.925  13.013 -0.9091 -2.1946  1.5198
  822MOL0     H13409   6.396   9.024  12.874 -0.9831 -0.3468 -2.4907
  822MOL0     H13410   6.196   8.862  13.047  3.5350 -1.4691  1.7093
  822MOL0     H13411   6.176   9.020  12.957 -4.7608 -2.2134  0.7838
  822MOL0     H13412   6.321   9.131  13.125 -0.9640 -1.4380 -0.5200
  822MOL0     H13413   6.313   8.990  13.220 -0.2783 -0.8720  0.0563
  822MOL0     H13414   6.149   9.153  13.275  0.4794 -1.5185 -0.3084
  822MOL0     H13415   6.049   9.022  13.227 -0.5107 -0.3979 -0.2971
  822MOL0     H13416   6.879   8.700  12.447  0.4511  1.5834 -1.6276
  822MOL0     H13417   7.031   8.635  12.284 -0.1804  2.2460  0.1560
  822MOL0     H13418   6.978   8.311  11.909  0.7390  2.1007  1.7608
  822MOL0     H13419   7.060   8.190  11.715  2.9436 -2.8146 -0.1655
  822MOL0     H13420   8.347   9.292  10.633 -0.0584 -1.8313 -0.3292
  822MOL0     H13421   8.436   9.462  10.498 -1.4577  2.4738  1.0470
  822MOL0     H13422   8.394   9.602  10.010 -0.7344 -0.9591 -1.2123
  822MOL0     H13423   8.476   9.781   9.846  0.0816 -0.5284  0.7677
  822MOL0     H13424   8.414   9.934   9.717 -2.8828  0.7447 -0.7874
  822MOL0     H13425   8.339  10.074   9.799 -0.2834 -0.9811  1.4633
  822MOL0     H13426   8.505  10.096   9.570  5.2234  0.3536 -0.7343
  822MOL0     H13427   8.621  10.091   9.699 -0.1731 -3.3557  0.3575
  822MOL0     H13428   8.532  10.325   9.621  1.1391  1.0585  0.8647
  822MOL0     H13429   8.411  10.294   9.739 -2.5199 -1.4237 -2.8850
  822MOL0     H13430   8.717  10.295   9.771 -0.5002 -2.2986  0.5241
  822MOL0     H13431   8.610  10.236   9.892  1.4299  0.1040  0.1670
  822MOL0     H13432   8.553  10.675   9.895  0.2902  0.8565 -1.7404
  822MOL0     H13433   8.456  10.080  10.131  1.7123  0.5186 -1.1804
  822MOL0     H13434   8.359  10.058  10.361 -0.4766  0.2948 -0.8684
  822MOL0     H13435   8.220   9.954  10.341 -0.2527  1.8941 -1.8301
  822MOL0     H13436   8.376   9.905  10.426 -0.7785  1.3685  0.7490
  823MOL0     O13437   9.593   0.604   8.815  0.1028  0.0504 -0.0614
  823MOL0     C13438   9.560   0.654   8.920 -0.5549 -1.1976 -0.2789
  823MOL0     O13439   9.629   0.750   8.976 -0.1848  0.1209 -0.2844
  823MOL0     C13440   9.746   0.795   8.929  0.0364 -0.2642 -0.1258
  823MOL0     C13441   9.854   0.713   8.887 -0.3923 -0.9784 -0.5437
  823MOL0     C13442   9.961   0.776   8.814  0.4292  1.1416 -0.2104
  823MOL0     C13443   9.976   0.917   8.818  0.2351 -0.7306  0.4735
  823MOL0     O13444  10.072   0.991   8.760  0.7455  0.5031  1.1836
  823MOL0     C13445  10.193   0.919   8.719 -0.6554  0.5503  0.0143
  823MOL0     C13446  10.316   1.013   8.704 -1.1335 -0.0295 -0.9381
  823MOL0     C13447  10.457   0.942   8.697  0.3876 -0.2237  0.2275
  823MOL0     C13448  10.449   0.837   8.584 -0.1919 -0.2048  0.3980
  823MOL0     C13449  10.589   0.779   8.551 -0.2184  0.5969  0.3673
  823MOL0     C13450  10.682   0.883   8.485  0.3115 -0.5979  0.1465
  823MOL0     C13451  10.817   0.818   8.455  0.6932 -0.1574  0.2292
  823MOL0     C13452  10.814   0.752   8.312 -0.6056 -0.0894 -0.6933
  823MOL0     N13453  10.950   0.693   8.290 -1.1582 -0.1220 -0.3865
  823MOL0     C13454  10.974   0.566   8.283  0.3762  1.1205  0.0357
  823MOL0     C13455  11.099   0.557   8.238 -0.2755  0.4263 -0.3078
  823MOL0     C13456  11.187   0.432   8.238 -0.3095 -0.0700 -0.8657
  823MOL0     C13457  11.262   0.405   8.371  0.5944  0.3954  0.3780
  823MOL0     C13458  11.377   0.497   8.370 -0.4307  0.3383 -0.6778
  823MOL0     C13459  11.515   0.429   8.344  0.4386  1.6166  0.4121
  823MOL0     O13460  11.514   0.424   8.200  0.1625  0.1879 -0.5923
  823MOL0     C13461  11.614   0.365   8.130 -0.0782 -0.0808 -0.0767
  823MOL0     C13462  11.717   0.288   8.186 -0.0903  0.7252  0.2517
  823MOL0     C13463  11.806   0.208   8.111  0.0003  0.4706  0.4262
  823MOL0     C13464  11.889   0.096   8.181  0.2459 -0.0120  0.2710
  823MOL0     C13465  11.805   0.233   7.973 -0.7222 -0.9771 -0.3497
  823MOL0     C13466  11.902   0.175   7.878 -0.9660 -0.3029  0.7410
  823MOL0     O13467  12.022   0.130   7.921 -0.1168  0.4107  0.0723
  823MOL0     C13468  12.094   0.052   7.838 -0.6449  0.5188  0.0022
  823MOL0     C13469  12.145   0.099   7.714 -0.3633 -0.0479  0.3101
  823MOL0     C13470  12.241   0.020   7.646  0.2210 -0.5216 -0.5732
  823MOL0     C13471  12.270  -0.110   7.689  0.8221 -0.2298 -0.6469
  823MOL0     O13472  12.364  -0.187   7.630 -0.3134  0.4736 -0.1994
  823MOL0     C13473  12.363  -0.210   7.483 -0.0988  0.1387  0.7772
  823MOL0     C13474  12.485  -0.298   7.455  0.9186  0.3064 -1.0122
  823MOL0     C13475  12.520  -0.305   7.302 -0.0564  0.6287 -0.0562
  823MOL0     C13476  12.662  -0.358   7.284  0.2034  0.7821 -1.2491
  823MOL0     C13477  12.703  -0.347   7.133 -1.0421 -0.0025  0.4917
  823MOL0     C13478  12.620  -0.452   7.055  0.7683 -0.5963 -0.1655
  823MOL0     C13479  12.666  -0.457   6.906 -0.9042 -0.2586 -0.3153
  823MOL0     C13480  12.758  -0.577   6.872 -0.4236 -0.7948  0.2997
  823MOL0    Cl13481  12.927  -0.547   6.927 -0.2399 -0.1865 -0.2137
  823MOL0     C13482  12.213  -0.152   7.810 -0.1546 -0.2805 -0.7599
  823MOL0     C13483  12.135  -0.070   7.892  0.4202 -0.4082  0.3997
  823MOL0     O13484  11.864   0.157   7.760  0.5812 -0.6138  0.8617
  823MOL0     C13485  11.719   0.329   7.919 -0.6607 -0.0634 -0.2720
  823MOL0     C13486  11.621   0.389   7.994  0.0206  0.5014 -0.7217
  823MOL0     N13487  11.139   0.680   8.197 -0.2027 -0.0200 -0.1642
  823MOL0     N13488  11.042   0.761   8.226 -0.1962 -0.5979  0.2812
  823MOL0     C13489   9.876   0.992   8.873 -0.4288 -0.1658 -0.6300
  823MOL0     C13490   9.762   0.931   8.928 -0.3423  0.0347  1.3434
  823MOL0     C13491   9.439   0.612   8.999  0.3475  0.3157  0.5003
  823MOL0     C13492   9.444   0.616   9.136 -0.2198 -0.3704  0.0009
  823MOL0     C13493   9.339   0.571   9.221  1.3100 -0.2114 -0.0872
  823MOL0     C13494   9.226   0.507   9.162  0.5168  1.3076  0.9019
  823MOL0     O13495   9.123   0.441   9.227  0.1859 -0.0661  0.0155
  823MOL0     C13496   9.150   0.345   9.334 -0.7258  0.0031  0.3886
  823MOL0     C13497   9.024   0.295   9.409  0.0634 -0.4894  0.1018
  823MOL0     C13498   9.072   0.212   9.529  0.7118 -0.2083 -0.0190
  823MOL0     C13499   8.974   0.092   9.561 -0.6021  0.1096 -0.2766
  823MOL0     C13500   9.033   0.021   9.678 -0.6720 -0.7226  0.0776
  823MOL0     C13501   9.085  -0.039   9.765 -0.1785  0.3309 -0.2667
  823MOL0     C13502   9.234   0.497   9.021 -0.9413  0.8064  0.2960
  823MOL0     C13503   9.334   0.548   8.940  0.0012 -0.2675 -0.1060
  823MOL0     C13504   9.321   0.509   8.792  0.2816 -0.4492 -0.1068
  823MOL0     H13505   9.852   0.606   8.907 -0.0161 -1.0751 -1.0101
  823MOL0     H13506  10.034   0.711   8.768 -0.1623  0.1372  0.2330
  823MOL0     H13507  10.176   0.868   8.624  2.6060  1.6407 -1.2961
  823MOL0     H13508  10.229   0.848   8.795  2.9172 -1.1392 -2.9284
  823MOL0     H13509  10.309   1.078   8.616 -2.2989  3.9629  1.8489
  823MOL0     H13510  10.315   1.068   8.798  0.6203 -1.3875 -0.0841
  823MOL0     H13511  10.533   1.016   8.668  2.9615 -2.1321  1.6701
  823MOL0     H13512  10.493   0.901   8.792 -1.3038  2.9324  2.4092
  823MOL0     H13513  10.366   0.768   8.601  0.1348 -0.8012 -0.3714
  823MOL0     H13514  10.421   0.887   8.491  0.7998 -3.1358 -1.5884
  823MOL0     H13515  10.574   0.700   8.477  2.0518  0.6550 -0.2302
  823MOL0     H13516  10.632   0.733   8.641 -2.8197 -1.8010  0.5286
  823MOL0     H13517  10.634   0.913   8.391 -2.7894 -1.8695  1.1964
  823MOL0     H13518  10.698   0.973   8.547 -0.8514  1.3406 -2.1816
  823MOL0     H13519  10.839   0.734   8.523 -0.7001 -1.5171 -0.9224
  823MOL0     H13520  10.887   0.902   8.449 -1.4561  1.6204 -1.1043
  823MOL0     H13521  10.728   0.684   8.308 -0.9916  0.3357  0.1443
  823MOL0     H13522  10.796   0.833   8.240  0.2802  1.8956  1.2016
  823MOL0     H13523  10.924   0.487   8.339 -1.4692  0.3948 -2.4286
  823MOL0     H13524  11.262   0.444   8.159  0.5301  1.5588  0.1093
  823MOL0     H13525  11.122   0.348   8.216 -0.0126 -0.4236 -0.3994
  823MOL0     H13526  11.195   0.418   8.456  2.7252  2.1797  1.8980
  823MOL0     H13527  11.294   0.301   8.385  1.7619  0.8630  1.3524
  823MOL0     H13528  11.375   0.584   8.304  2.6733  1.0177 -0.0415
  823MOL0     H13529  11.380   0.529   8.475 -2.7122 -1.4641  0.0069
  823MOL0     H13530  11.584   0.504   8.385  1.6015  0.9948 -0.3529
  823MOL0     H13531  11.523   0.328   8.385 -1.3064  1.5287  0.6292
  823MOL0     H13532  11.708   0.264   8.291 -2.2831 -0.9652 -0.2350
  823MOL0     H13533  11.993   0.124   8.163 -0.2068 -0.4060 -3.9543
  823MOL0     H13534  11.865  -0.002   8.139 -0.1036 -0.6331  1.8285
  823MOL0     H13535  11.875   0.088   8.289  4.1761 -2.0929  0.7976
  823MOL0     H13536  12.132   0.195   7.665  0.3979 -0.9512 -1.7753
  823MOL0     H13537  12.278   0.058   7.551  1.7706 -2.6117 -0.8973
  823MOL0     H13538  12.274  -0.259   7.441 -0.3782  2.6847 -1.9351
  823MOL0     H13539  12.384  -0.115   7.433  1.9209 -0.4909  0.3635
  823MOL0     H13540  12.570  -0.263   7.514  0.8359 -1.9405  0.5728
  823MOL0     H13541  12.467  -0.398   7.496 -2.4552  1.6180  1.0712
  823MOL0     H13542  12.488  -0.215   7.247 -3.4997 -0.7870 -0.6707
  823MOL0     H13543  12.456  -0.388   7.269  1.5341 -1.1765  1.1959
  823MOL0     H13544  12.665  -0.460   7.322 -3.0769  0.6968 -0.9369
  823MOL0     H13545  12.735  -0.301   7.341  0.3544 -0.5444 -0.0736
  823MOL0     H13546  12.686  -0.252   7.081 -0.1691  0.0909  0.3666
  823MOL0     H13547  12.808  -0.361   7.106 -1.7601 -0.1959 -2.6152
  823MOL0     H13548  12.517  -0.414   7.048  1.2213  0.6145 -0.5208
  823MOL0     H13549  12.618  -0.551   7.101 -1.0573 -0.6675 -0.3282
  823MOL0     H13550  12.720  -0.364   6.887 -1.5991  0.3386  0.5385
  823MOL0     H13551  12.578  -0.464   6.841 -1.3257 -0.8136  0.3000
  823MOL0     H13552  12.760  -0.594   6.764 -2.7596  3.5515 -0.6609
  823MOL0     H13553  12.730  -0.674   6.914  3.6152 -1.0052  3.0135
  823MOL0     H13554  12.232  -0.250   7.853 -0.3668  0.2920  0.7276
  823MOL0     H13555  12.117  -0.107   7.992 -0.6898 -1.6011 -0.2174
  823MOL0     H13556  11.713   0.343   7.811 -1.4321 -4.7373 -1.0564
  823MOL0     H13557  11.557   0.461   7.945  0.3548  1.1754 -0.1846
  823MOL0     H13558   9.886   1.099   8.860 -3.7640  0.5331  1.3000
  823MOL0     H13559   9.674   0.991   8.951 -2.2975 -1.5021 -1.4361
  823MOL0     H13560   9.524   0.668   9.187 -0.9959  2.7689 -1.7032
  823MOL0     H13561   9.344   0.581   9.329 -1.2756 -3.8084  0.5269
  823MOL0     H13562   9.212   0.259   9.306  2.1138  1.6395  1.1811
  823MOL0     H13563   9.209   0.399   9.409 -1.6637 -0.8493  1.7883
  823MOL0     H13564   8.962   0.242   9.337  0.4773 -0.2174 -0.4623
  823MOL0     H13565   8.967   0.378   9.452 -2.9378 -2.2048 -0.3532
  823MOL0     H13566   9.179   0.191   9.535  0.9928  0.1044 -2.8655
  823MOL0     H13567   9.061   0.269   9.622 -2.7690 -0.6387 -0.0336
  823MOL0     H13568   8.966   0.022   9.477 -1.0635 -2.8135  1.9945
  823MOL0     H13569   8.872   0.119   9.588 -1.3492 -2.6821  0.0380
  823MOL0     H13570   9.142  -0.095   9.837  0.9582  3.4344  1.4312
  823MOL0     H13571   9.150   0.453   8.969 -0.4972  2.5361 -2.0568
  823MOL0     H13572   9.233   0.452   8.762 -0.9834  0.8531  0.9744
  823MOL0     H13573   9.308   0.606   8.743 -0.5196 -0.1085  0.7611
  823MOL0     H13574   9.409   0.464   8.744  0.2547 -1.6196  0.9018
  824MOL0     O13575   1.084   3.239   5.437 -0.0833  0.0940  0.2381
  824MOL0     C13576   1.175   3.202   5.508 -0.2434  0.7226  0.1113
  824MOL0     O13577   1.263   3.284   5.572 -0.2226  0.2966  0.6347
  824MOL0     C13578   1.353   3.241   5.667  0.6335  0.6422 -0.6234
  824MOL0     C13579   1.325   3.167   5.782 -0.2403 -0.1970 -0.3597
  824MOL0     C13580   1.425   3.104   5.855  0.2749 -0.6859 -0.3417
  824MOL0     C13581   1.552   3.122   5.821 -0.5631  1.5517  0.1870
  824MOL0     O13582   1.637   3.052   5.908 -0.0516 -0.4067  0.6774
  824MOL0     C13583   1.775   3.089   5.918  0.2541 -0.1133  0.8292
  824MOL0     C13584   1.791   3.220   5.997 -0.4905  0.6348  0.1317
  824MOL0     C13585   1.929   3.246   6.059 -0.0908  0.3170 -0.3768
  824MOL0     C13586   2.054   3.224   5.969 -0.4833  0.2395  0.5454
  824MOL0     C13587   2.181   3.256   6.053  0.0583  0.6100  0.5386
  824MOL0     C13588   2.306   3.289   5.977  0.0484 -0.1263  0.3883
  824MOL0     C13589   2.436   3.250   6.040 -1.0369 -0.0789 -0.1937
  824MOL0     C13590   2.434   3.296   6.194 -0.5048 -0.2029  0.4263
  824MOL0     N13591   2.568   3.253   6.242  0.2128 -0.6269  0.9002
  824MOL0     C13592   2.687   3.325   6.218  0.2333  0.4997 -0.0939
  824MOL0     C13593   2.787   3.223   6.227  0.1731 -0.5319 -0.4515
  824MOL0     C13594   2.936   3.261   6.217 -0.8362  0.2992  0.5262
  824MOL0     C13595   3.007   3.281   6.359 -0.3886 -0.5804  0.4645
  824MOL0     C13596   3.053   3.160   6.435 -0.2818  0.6842  0.5605
  824MOL0     C13597   3.157   3.167   6.553 -0.1489  0.0880  0.7515
  824MOL0     O13598   3.118   3.281   6.636 -0.2121 -0.0436 -0.7704
  824MOL0     C13599   3.214   3.329   6.728 -0.9241  0.4849  0.1732
  824MOL0     C13600   3.187   3.455   6.772  0.7486  0.4511  0.1081
  824MOL0     C13601   3.274   3.526   6.861  0.8742  0.6435  0.3080
  824MOL0     C13602   3.225   3.662   6.893 -0.7614  0.8835 -0.0823
  824MOL0     C13603   3.388   3.453   6.920 -0.2559 -0.1862 -0.2665
  824MOL0     C13604   3.491   3.515   7.018 -0.3463  0.4154 -0.5206
  824MOL0     O13605   3.523   3.442   7.126 -0.0394 -0.3303  0.5207
  824MOL0     C13606   3.595   3.478   7.230  0.8244 -0.8447  0.0263
  824MOL0     C13607   3.572   3.601   7.287  0.0343  0.0450 -0.4324
  824MOL0     C13608   3.634   3.637   7.411 -0.2599  0.4387 -0.1511
  824MOL0     C13609   3.719   3.543   7.471  0.8057 -0.8939  0.0233
  824MOL0     O13610   3.782   3.569   7.589  0.8294  0.0099  0.5274
  824MOL0     C13611   3.778   3.703   7.645  0.2732 -0.1741  0.6741
  824MOL0     C13612   3.839   3.713   7.787 -0.2807 -0.1120 -0.5189
  824MOL0     C13613   3.990   3.751   7.781  0.1663 -0.0182 -0.5655
  824MOL0     C13614   4.085   3.734   7.902 -0.6835  0.4802  0.5088
  824MOL0     C13615   4.101   3.580   7.946  0.1868  0.0675 -0.9031
  824MOL0     C13616   4.178   3.561   8.079 -0.5176 -0.6652  0.0732
  824MOL0     C13617   4.322   3.508   8.078 -0.9893 -0.8094 -0.4689
  824MOL0     C13618   4.438   3.597   8.022  0.0543 -0.1544 -0.3754
  824MOL0    Cl13619   4.441   3.740   8.122 -0.2751 -0.0585 -0.2420
  824MOL0     C13620   3.734   3.416   7.412 -0.3535  0.5010 -1.2246
  824MOL0     C13621   3.670   3.390   7.290  0.3004  0.3391 -0.3026
  824MOL0     O13622   3.518   3.634   7.000  0.2079  0.3134 -0.4173
  824MOL0     C13623   3.403   3.324   6.879 -0.4262 -0.1405 -0.2477
  824MOL0     C13624   3.324   3.264   6.781  0.9453 -0.0293 -0.2871
  824MOL0     N13625   2.733   3.111   6.280 -0.3629 -0.6214 -0.7494
  824MOL0     N13626   2.602   3.129   6.290 -0.1101 -1.4718  0.4074
  824MOL0     C13627   1.594   3.198   5.708  0.5652 -0.0384 -0.4329
  824MOL0     C13628   1.489   3.265   5.641 -0.0734 -0.1970 -0.0425
  824MOL0     C13629   1.191   3.056   5.527  0.8797 -0.9661  0.5083
  824MOL0     C13630   1.312   3.001   5.495  0.4763  0.4541 -0.3793
  824MOL0     C13631   1.333   2.865   5.494 -0.0186  0.3735  0.7960
  824MOL0     C13632   1.232   2.775   5.531  0.0266 -0.0933 -0.2406
  824MOL0     O13633   1.229   2.637   5.542 -0.2393 -0.3188  0.1079
  824MOL0     C13634   1.353   2.562   5.551 -0.9557  0.2261  0.1585
  824MOL0     C13635   1.398   2.505   5.414  0.6806 -0.5601  0.1156
  824MOL0     C13636   1.317   2.384   5.385 -0.2500 -0.8247  0.2096
  824MOL0     C13637   1.317   2.354   5.226  0.8846  0.5104 -0.2876
  824MOL0     C13638   1.217   2.443   5.154 -0.2788  0.4533  0.8770
  824MOL0     C13639   1.141   2.499   5.080  0.5506 -0.3645 -0.8218
  824MOL0     C13640   1.113   2.836   5.582  0.4059  0.1250 -0.4650
  824MOL0     C13641   1.082   2.966   5.569  1.1478 -0.7456 -0.4966
  824MOL0     C13642   0.953   3.014   5.618  1.3718 -0.3558 -0.1634
  824MOL0     H13643   1.219   3.162   5.804 -0.5952  3.1335 -0.8348
  824MOL0     H13644   1.404   3.044   5.943  1.1152 -2.0742 -1.0619
  824MOL0     H13645   1.829   3.107   5.825 -0.9117  1.7484  0.4639
  824MOL0     H13646   1.819   3.006   5.975  0.9464  0.3949  1.0358
  824MOL0     H13647   1.749   3.305   5.941 -1.4018  0.6528  0.8132
  824MOL0     H13648   1.718   3.213   6.078 -0.8704  4.5656  0.3426
  824MOL0     H13649   1.936   3.349   6.094  0.0090  1.2870 -3.0100
  824MOL0     H13650   1.941   3.179   6.145 -0.8487 -0.3028 -0.7348
  824MOL0     H13651   2.063   3.116   5.949 -1.1125  0.0808  1.0802
  824MOL0     H13652   2.053   3.289   5.882  0.9137  0.9740  1.0464
  824MOL0     H13653   2.198   3.171   6.121  0.4221  0.6485  0.4953
  824MOL0     H13654   2.152   3.344   6.110 -0.1328  0.9419 -0.0625
  824MOL0     H13655   2.302   3.237   5.881 -0.1848 -0.1919  0.4333
  824MOL0     H13656   2.311   3.398   5.970  1.4357 -0.2190 -0.4732
  824MOL0     H13657   2.526   3.277   5.985 -0.8515 -2.6302 -1.2618
  824MOL0     H13658   2.440   3.140   6.039 -0.9877 -0.1068 -3.0924
  824MOL0     H13659   2.427   3.404   6.207 -0.0404 -0.2982  1.5971
  824MOL0     H13660   2.354   3.253   6.255 -1.4634 -0.6508 -1.0847
  824MOL0     H13661   2.704   3.429   6.193  2.6119  1.2148  3.6557
  824MOL0     H13662   2.952   3.350   6.157  1.1957  0.8112  1.7189
  824MOL0     H13663   2.997   3.184   6.168  0.5890  0.4049  2.0168
  824MOL0     H13664   3.097   3.335   6.327 -0.9780  1.2122  1.7268
  824MOL0     H13665   2.940   3.348   6.413  0.6389  2.2773 -1.5716
  824MOL0     H13666   2.959   3.120   6.475  0.1835 -0.3486  0.6305
  824MOL0     H13667   3.085   3.085   6.363 -0.8123  0.3846  0.6296
  824MOL0     H13668   3.150   3.074   6.610  0.5758 -0.1452  0.4667
  824MOL0     H13669   3.257   3.169   6.509 -1.0848  0.3995 -1.5105
  824MOL0     H13670   3.101   3.496   6.721 -1.5333 -2.5918  1.2461
  824MOL0     H13671   3.305   3.736   6.884 -0.8165  0.7988 -1.4664
  824MOL0     H13672   3.198   3.662   6.999  1.9516  1.4881  0.6756
  824MOL0     H13673   3.140   3.692   6.832 -1.7209 -0.2887  0.6383
  824MOL0     H13674   3.508   3.665   7.226 -1.4078 -3.4344 -2.9358
  824MOL0     H13675   3.610   3.737   7.443  2.4918  0.8346  1.0021
  824MOL0     H13676   3.838   3.769   7.582  3.6329 -2.6270  1.0311
  824MOL0     H13677   3.675   3.739   7.645  0.4468  0.3365  1.0603
  824MOL0     H13678   3.786   3.787   7.847 -0.8550  0.6216 -1.8832
  824MOL0     H13679   3.845   3.619   7.844  5.3830  0.3775  0.2861
  824MOL0     H13680   3.988   3.857   7.752 -2.9738  2.2003  5.8935
  824MOL0     H13681   4.046   3.693   7.707  1.5031 -2.5768  2.2398
  824MOL0     H13682   4.059   3.788   7.994  1.5542 -0.4793  1.7839
  824MOL0     H13683   4.187   3.763   7.880  0.5867 -2.1179  2.3311
  824MOL0     H13684   4.003   3.531   7.955  0.0426  0.4873 -0.1151
  824MOL0     H13685   4.160   3.524   7.872 -1.4198  0.0894 -2.2884
  824MOL0     H13686   4.123   3.479   8.127  2.3609 -2.3744  0.7323
  824MOL0     H13687   4.167   3.650   8.142  1.0010 -1.9636  2.3459
  824MOL0     H13688   4.318   3.414   8.022  1.3575 -0.7235 -0.8460
  824MOL0     H13689   4.346   3.493   8.184 -1.3720 -2.3827 -0.5805
  824MOL0     H13690   4.415   3.630   7.920  0.3565 -0.3734 -0.5141
  824MOL0     H13691   4.533   3.544   8.024 -0.5939 -1.3000  0.9773
  824MOL0     H13692   3.805   3.349   7.460 -1.9694 -1.0441 -0.8928
  824MOL0     H13693   3.682   3.294   7.240 -2.4417 -2.4622  3.7251
  824MOL0     H13694   3.497   3.273   6.895  0.7656  1.9893 -0.1011
  824MOL0     H13695   3.325   3.158   6.755 -0.2757 -1.0420  3.1820
  824MOL0     H13696   1.697   3.203   5.676  1.4479 -2.7298  1.6630
  824MOL0     H13697   1.519   3.337   5.565 -1.7286  1.5133  0.8371
  824MOL0     H13698   1.371   3.077   5.444  1.1090  0.2042 -0.0294
  824MOL0     H13699   1.427   2.828   5.456  0.0774  2.1212 -0.8169
  824MOL0     H13700   1.433   2.627   5.589 -1.8140  2.2865 -1.3503
  824MOL0     H13701   1.346   2.476   5.617  2.2253  0.5361  1.0805
  824MOL0     H13702   1.503   2.481   5.432  0.4254 -0.0114  2.7429
  824MOL0     H13703   1.387   2.586   5.342  5.9463  1.2586  0.9059
  824MOL0     H13704   1.369   2.300   5.431 -1.5071 -1.6824  0.1239
  824MOL0     H13705   1.216   2.383   5.427 -0.3457  2.4226  0.2654
  824MOL0     H13706   1.292   2.249   5.209 -0.9062  1.0313 -1.0999
  824MOL0     H13707   1.415   2.367   5.181  3.2778 -1.9985  3.5927
  824MOL0     H13708   1.079   2.551   5.010 -0.1043 -1.0263 -0.7422
  824MOL0     H13709   1.035   2.771   5.621 -0.3013  1.4758  0.4264
  824MOL0     H13710   0.968   3.087   5.698 -2.5476 -1.6993  2.1032
  824MOL0     H13711   0.909   3.075   5.539  0.7727  2.2747  2.0483
  824MOL0     H13712   0.891   2.931   5.655  0.4823  0.9581  1.4351
  825MOL0     O13713   8.004   1.512   3.002 -0.0364  0.2509  0.4861
  825MOL0     C13714   7.918   1.434   3.041  0.4957  0.4441  0.4676
  825MOL0     O13715   7.929   1.348   3.154  0.2935 -0.3492 -0.0318
  825MOL0     C13716   8.039   1.368   3.229  0.6243 -0.2591 -0.2523
  825MOL0     C13717   8.053   1.471   3.324  1.0169 -0.0063 -0.0960
  825MOL0     C13718   8.166   1.485   3.407 -0.1413 -0.2395  0.2900
  825MOL0     C13719   8.269   1.390   3.391 -0.1778  0.1775 -0.2253
  825MOL0     O13720   8.372   1.417   3.473 -0.2649 -0.3077 -0.1696
  825MOL0     C13721   8.435   1.302   3.528 -0.2585  1.2059  0.4154
  825MOL0     C13722   8.497   1.337   3.667 -0.0607  0.6208  1.7488
  825MOL0     C13723   8.583   1.461   3.645 -0.2789 -0.0888 -0.0862
  825MOL0     C13724   8.664   1.484   3.769  0.6401 -0.5151  0.0645
  825MOL0     C13725   8.584   1.495   3.902  0.3907 -0.9419 -0.0499
  825MOL0     C13726   8.490   1.623   3.894  0.3794 -0.3232 -0.7016
  825MOL0     C13727   8.398   1.629   4.019  0.3053 -0.0779 -0.6821
  825MOL0     C13728   8.290   1.744   4.020 -0.2782 -0.1563  0.1227
  825MOL0     N13729   8.210   1.767   4.140  0.1499  1.1864 -0.3842
  825MOL0     C13730   8.226   1.704   4.266  0.0922  0.0487  0.8576
  825MOL0     C13731   8.123   1.758   4.341 -0.3476 -0.2650 -0.0362
  825MOL0     C13732   8.097   1.744   4.489 -0.2364  0.3891  0.7609
  825MOL0     C13733   8.006   1.847   4.548  0.7584  0.1476 -0.2014
  825MOL0     C13734   7.988   1.818   4.692 -0.5034  0.2988  0.4091
  825MOL0     C13735   7.907   1.909   4.787 -0.3338 -0.3368 -0.2571
  825MOL0     O13736   7.925   2.051   4.747  0.3471  0.0255 -0.4150
  825MOL0     C13737   7.985   2.132   4.830  0.0979 -0.6831 -0.7911
  825MOL0     C13738   7.960   2.262   4.811  0.1446 -0.6220  0.3401
  825MOL0     C13739   8.018   2.367   4.898 -0.3853  0.1709 -0.7160
  825MOL0     C13740   7.978   2.510   4.873  0.3022 -0.3222  0.2908
  825MOL0     C13741   8.112   2.327   4.999 -0.0759  0.4957  0.2455
  825MOL0     C13742   8.179   2.430   5.077  0.4761 -0.1054 -1.3108
  825MOL0     O13743   8.148   2.438   5.207  0.0254 -1.0834 -0.1652
  825MOL0     C13744   8.188   2.552   5.276 -1.2656 -0.7777 -0.5249
  825MOL0     C13745   8.117   2.674   5.265 -0.5129 -0.3529 -0.3375
  825MOL0     C13746   8.142   2.789   5.342 -0.6758 -0.6480  0.5010
  825MOL0     C13747   8.255   2.791   5.427 -0.5580 -0.5247  0.7100
  825MOL0     O13748   8.284   2.896   5.511 -0.3230 -0.4521  0.2110
  825MOL0     C13749   8.421   2.945   5.518  0.1450  0.4250 -0.9314
  825MOL0     C13750   8.436   3.061   5.613 -0.2418  0.4896 -0.1006
  825MOL0     C13751   8.584   3.073   5.650 -0.1327 -0.0937  0.4416
  825MOL0     C13752   8.632   3.190   5.718 -0.1446  0.1411 -0.0062
  825MOL0     C13753   8.632   3.319   5.639  0.7326  0.1731 -0.2855
  825MOL0     C13754   8.684   3.436   5.717  0.1104 -0.1000  0.5748
  825MOL0     C13755   8.664   3.575   5.637  1.0843 -0.1155  0.6030
  825MOL0     C13756   8.705   3.698   5.724 -0.6378 -0.6628 -0.3080
  825MOL0    Cl13757   8.880   3.677   5.786  0.0276  0.4166  0.4537
  825MOL0     C13758   8.333   2.676   5.430 -0.3490 -0.0636 -0.4007
  825MOL0     C13759   8.299   2.552   5.363  0.0162 -0.7966 -0.2666
  825MOL0     O13760   8.255   2.507   5.016  0.6859 -0.1273 -0.2449
  825MOL0     C13761   8.139   2.189   5.010  0.3108  0.5292 -0.7849
  825MOL0     C13762   8.081   2.097   4.931 -0.0059 -0.3609  0.2279
  825MOL0     N13763   8.046   1.836   4.259 -0.1174 -0.3777  0.5375
  825MOL0     N13764   8.099   1.843   4.145 -0.3254 -0.4569  0.4901
  825MOL0     C13765   8.263   1.287   3.293  0.5912 -0.4313  1.0199
  825MOL0     C13766   8.140   1.270   3.222 -0.0521  0.2039 -0.7213
  825MOL0     C13767   7.792   1.423   2.970  0.4376  0.6651  0.4800
  825MOL0     C13768   7.779   1.461   2.828  0.7708 -0.3806  0.1014
  825MOL0     C13769   7.666   1.450   2.750  0.0024 -0.5433  0.3351
  825MOL0     C13770   7.554   1.405   2.798  0.0754  0.5957 -0.5778
  825MOL0     O13771   7.433   1.400   2.732 -0.2616 -0.8107  0.7527
  825MOL0     C13772   7.433   1.432   2.588 -0.1499  0.7203  0.0211
  825MOL0     C13773   7.289   1.438   2.543  0.0211  0.7796  1.1884
  825MOL0     C13774   7.192   1.526   2.627  0.3796 -0.2618 -0.3843
  825MOL0     C13775   7.186   1.674   2.584 -1.1004 -0.4115  0.0891
  825MOL0     C13776   7.312   1.746   2.612  0.3494 -0.0200  0.2835
  825MOL0     C13777   7.417   1.793   2.647 -0.0871 -0.1398  0.0407
  825MOL0     C13778   7.551   1.359   2.931  0.3699  0.4564 -0.3134
  825MOL0     C13779   7.664   1.367   3.017 -0.1855  0.2222  0.0304
  825MOL0     C13780   7.637   1.315   3.161 -0.3670  0.6355  0.0617
  825MOL0     H13781   7.976   1.548   3.327 -0.4284 -1.3929  2.6336
  825MOL0     H13782   8.176   1.575   3.467 -2.3391 -2.0529  3.6894
  825MOL0     H13783   8.515   1.265   3.464 -1.0214 -0.9949  0.6525
  825MOL0     H13784   8.375   1.211   3.537  0.3918  0.9524  2.8490
  825MOL0     H13785   8.419   1.339   3.744 -0.2202 -0.1400  1.6158
  825MOL0     H13786   8.571   1.261   3.690 -1.7488 -1.9845 -0.7546
  825MOL0     H13787   8.651   1.436   3.563  0.8293 -1.4420  1.1941
  825MOL0     H13788   8.527   1.550   3.612 -0.9761 -0.3465  0.3819
  825MOL0     H13789   8.747   1.412   3.766 -0.3763 -1.7554 -2.9748
  825MOL0     H13790   8.711   1.582   3.757  0.9642 -0.6978 -0.2194
  825MOL0     H13791   8.652   1.499   3.987 -1.5331 -4.1035  1.8100
  825MOL0     H13792   8.521   1.408   3.922 -2.3072  0.8444 -0.1862
  825MOL0     H13793   8.551   1.713   3.886  0.9833 -0.6837 -0.2959
  825MOL0     H13794   8.430   1.611   3.804  0.3391 -1.9918 -0.4810
  825MOL0     H13795   8.462   1.637   4.107  2.1469  1.8238 -2.1092
  825MOL0     H13796   8.342   1.535   4.018  1.0378 -0.5112 -1.3677
  825MOL0     H13797   8.347   1.833   3.993 -1.0914  0.8948  1.6767
  825MOL0     H13798   8.225   1.729   3.933  0.9992 -1.4970 -0.6299
  825MOL0     H13799   8.302   1.630   4.290 -0.3712 -0.4109  0.9076
  825MOL0     H13800   8.192   1.766   4.538  0.8659 -1.5743 -0.3607
  825MOL0     H13801   8.062   1.641   4.502  0.0978 -0.0408 -1.3229
  825MOL0     H13802   8.049   1.945   4.532  2.6286 -0.4853  0.7041
  825MOL0     H13803   7.909   1.849   4.497  0.6320  3.5250 -0.0178
  825MOL0     H13804   7.936   1.722   4.691 -1.1440  0.6419  0.2770
  825MOL0     H13805   8.088   1.805   4.734 -1.0255  3.1633  2.9236
  825MOL0     H13806   7.801   1.885   4.774 -0.7694  1.0961  0.4522
  825MOL0     H13807   7.941   1.888   4.889 -0.4194 -0.9145 -0.3445
  825MOL0     H13808   7.885   2.288   4.737  0.3087  1.6427  0.8835
  825MOL0     H13809   7.934   2.527   4.775 -1.0054  3.0099  1.3213
  825MOL0     H13810   8.067   2.573   4.864 -0.5061  0.9725  1.0326
  825MOL0     H13811   7.904   2.541   4.947 -0.2618 -0.7476 -0.0870
  825MOL0     H13812   8.028   2.673   5.204 -1.8411 -1.8652  1.5001
  825MOL0     H13813   8.079   2.876   5.332  0.3271  0.1003  0.4919
  825MOL0     H13814   8.482   2.865   5.561 -1.5476  0.0331  0.8713
  825MOL0     H13815   8.457   2.985   5.423  0.7687 -1.1931 -1.4081
  825MOL0     H13816   8.391   3.154   5.576  1.2365  0.8736 -1.0654
  825MOL0     H13817   8.380   3.039   5.704 -1.7838  2.3257 -0.5416
  825MOL0     H13818   8.635   3.061   5.555 -0.3460 -0.1195  0.3287
  825MOL0     H13819   8.617   2.993   5.717  2.2274  0.8592  0.4998
  825MOL0     H13820   8.731   3.172   5.760 -0.3236  1.8538  1.2951
  825MOL0     H13821   8.568   3.185   5.808 -0.9016 -1.4783 -0.6080
  825MOL0     H13822   8.683   3.315   5.542 -0.7434  3.3339 -1.3146
  825MOL0     H13823   8.532   3.344   5.603  1.1302 -1.3166 -2.6468
  825MOL0     H13824   8.787   3.408   5.742  1.0014  1.3154 -1.2572
  825MOL0     H13825   8.629   3.448   5.811 -3.2706 -1.8800 -1.0035
  825MOL0     H13826   8.559   3.598   5.617  0.7546 -2.0824 -0.1227
  825MOL0     H13827   8.731   3.595   5.553 -2.1502  2.6549 -1.5630
  825MOL0     H13828   8.634   3.720   5.803 -0.1698  1.2602 -0.3667
  825MOL0     H13829   8.706   3.782   5.654 -1.3127 -0.3173  0.0939
  825MOL0     H13830   8.414   2.671   5.502  0.2054 -1.0589 -1.0686
  825MOL0     H13831   8.351   2.458   5.380 -0.5431 -1.0391  0.1333
  825MOL0     H13832   8.211   2.153   5.083  0.0968 -2.5812 -1.9235
  825MOL0     H13833   8.113   1.993   4.939 -0.5427 -0.5579 -0.1267
  825MOL0     H13834   8.349   1.228   3.264  1.0290  0.0970  1.2317
  825MOL0     H13835   8.115   1.194   3.149  1.7917  0.3268 -1.5178
  825MOL0     H13836   7.871   1.478   2.772  0.6503  0.3395  0.1225
  825MOL0     H13837   7.680   1.488   2.649  3.2612 -1.9235  0.1227
  825MOL0     H13838   7.486   1.527   2.573  0.3024  0.0863 -2.9948
  825MOL0     H13839   7.477   1.357   2.523 -1.9471 -0.1314 -0.2871
  825MOL0     H13840   7.268   1.330   2.537  0.1109  0.8484 -1.1951
  825MOL0     H13841   7.282   1.479   2.442 -0.4289  0.2501  0.9975
  825MOL0     H13842   7.090   1.489   2.614  0.3349 -0.0210 -0.7238
  825MOL0     H13843   7.208   1.530   2.736  0.1398 -0.2143 -0.3505
  825MOL0     H13844   7.113   1.734   2.639 -0.2247  1.8247 -1.0610
  825MOL0     H13845   7.142   1.674   2.484 -4.1716  0.9577  1.2899
  825MOL0     H13846   7.511   1.814   2.693 -1.0293 -0.7899  2.4104
  825MOL0     H13847   7.460   1.308   2.965  1.0114 -0.7187 -0.2945
  825MOL0     H13848   7.535   1.279   3.174  0.0618 -1.5549 -2.0142
  825MOL0     H13849   7.701   1.229   3.182  0.2387  1.1120  0.2119
  825MOL0     H13850   7.667   1.387   3.238 -1.7111  3.1555 -1.6311
  826MOL0     O13851   5.490   1.358   1.645  0.3164 -0.1051  0.3160
  826MOL0     C13852   5.542   1.468   1.621  0.1914 -0.7773  0.2859
  826MOL0     O13853   5.633   1.495   1.521  0.7299  0.7872 -0.1661
  826MOL0     C13854   5.636   1.414   1.412 -0.3973  0.2556 -0.1561
  826MOL0     C13855   5.700   1.293   1.425  0.0850  0.2171  0.0507
  826MOL0     C13856   5.713   1.214   1.312  1.6731  0.1962 -0.3117
  826MOL0     C13857   5.662   1.245   1.191  0.7793  0.1708 -0.2203
  826MOL0     O13858   5.677   1.156   1.083  0.1071 -0.2965  0.4305
  826MOL0     C13859   5.577   1.168   0.981  0.0032  0.7757  0.4834
  826MOL0     C13860   5.570   1.041   0.891 -0.9865  0.6152 -0.0835
  826MOL0     C13861   5.699   1.025   0.797  0.6606 -0.1276  0.5242
  826MOL0     C13862   5.701   1.117   0.674  0.2955 -0.0207 -0.6044
  826MOL0     C13863   5.842   1.107   0.617 -0.5261  1.0173  0.6070
  826MOL0     C13864   5.902   0.961   0.613 -0.8570  0.6319 -0.2155
  826MOL0     C13865   6.012   0.953   0.514  0.6912  0.4550  0.1602
  826MOL0     C13866   6.060   0.801   0.495 -0.2038  0.3685 -0.6968
  826MOL0     N13867   6.187   0.782   0.425  0.0431 -0.6699 -0.7003
  826MOL0     C13868   6.290   0.873   0.436 -0.5457 -0.2390  0.0033
  826MOL0     C13869   6.401   0.807   0.375 -0.0368 -0.5791 -0.0507
  826MOL0     C13870   6.535   0.876   0.333 -0.2031  0.1892  0.1218
  826MOL0     C13871   6.663   0.794   0.370  0.4087  0.5083  0.2312
  826MOL0     C13872   6.811   0.848   0.329  0.0455 -0.4603 -0.4102
  826MOL0     C13873   6.839   0.876   0.182 -0.5851  0.3556  0.2859
  826MOL0     O13874   6.754   0.971   0.111  0.1194 -0.5256  0.4563
  826MOL0     C13875   6.811   1.036  -0.005 -0.9208 -0.8043 -0.8748
  826MOL0     C13876   6.738   1.146  -0.048 -0.1891 -0.0374  0.3779
  826MOL0     C13877   6.772   1.217  -0.167 -0.1021  0.5178  0.5116
  826MOL0     C13878   6.672   1.331  -0.204 -0.5103  0.2379 -0.0172
  826MOL0     C13879   6.894   1.173  -0.236  0.9857 -0.7151  0.7362
  826MOL0     C13880   6.940   1.236  -0.360 -0.1629 -1.0453 -0.0671
  826MOL0     O13881   7.058   1.192  -0.422 -0.0970  0.2722 -0.0491
  826MOL0     C13882   7.121   1.278  -0.516  1.2218  0.1294 -0.4003
  826MOL0     C13883   7.148   1.411  -0.471 -0.2983 -0.5061  0.1966
  826MOL0     C13884   7.222   1.500  -0.547 -0.1685  0.3894  0.9016
  826MOL0     C13885   7.269   1.447  -0.667  0.2662 -0.7299  0.6060
  826MOL0     O13886   7.363   1.522  -0.731  0.6742 -0.0383 -0.6834
  826MOL0     C13887   7.497   1.472  -0.748  0.2911  0.2299  0.7245
  826MOL0     C13888   7.577   1.504  -0.633  0.4078 -0.0798  1.4669
  826MOL0     C13889   7.578   1.658  -0.587  0.2368 -0.8250  0.5950
  826MOL0     C13890   7.649   1.755  -0.697  1.1463 -0.0232  0.1714
  826MOL0     C13891   7.802   1.723  -0.707  1.4709 -0.1589  1.5507
  826MOL0     C13892   7.874   1.805  -0.802 -0.4013 -0.2265  0.0957
  826MOL0     C13893   8.032   1.786  -0.806 -0.9556 -0.4086 -0.2817
  826MOL0     C13894   8.078   1.656  -0.853  0.5999 -0.7518  0.5925
  826MOL0    Cl13895   8.029   1.533  -0.736 -0.0686 -0.3208  0.1360
  826MOL0     C13896   7.250   1.315  -0.711 -0.0106 -0.1047  0.0402
  826MOL0     C13897   7.168   1.235  -0.631 -0.3523 -0.1090 -0.2702
  826MOL0     O13898   6.870   1.327  -0.405  0.5769 -0.7916 -0.1021
  826MOL0     C13899   6.963   1.056  -0.192 -0.0884  0.0700  1.2758
  826MOL0     C13900   6.921   0.996  -0.077  0.3747 -1.0072  0.1000
  826MOL0     N13901   6.350   0.691   0.327  0.2636 -0.3147 -0.5533
  826MOL0     N13902   6.231   0.666   0.366  0.3012  0.2838  0.7032
  826MOL0     C13903   5.601   1.363   1.179 -0.0788 -0.0149  0.1644
  826MOL0     C13904   5.590   1.453   1.285  0.2031  0.3071 -0.4696
  826MOL0     C13905   5.500   1.582   1.708 -0.0128 -0.5701  0.3376
  826MOL0     C13906   5.451   1.554   1.840 -0.3126 -0.6971 -1.0775
  826MOL0     C13907   5.414   1.666   1.920  0.5801 -0.0366 -0.0112
  826MOL0     C13908   5.425   1.803   1.878  0.3500  0.6912  0.0235
  826MOL0     O13909   5.379   1.904   1.949 -0.0785 -0.3113 -1.0860
  826MOL0     C13910   5.332   1.881   2.088 -0.8947  0.2866  0.7040
  826MOL0     C13911   5.363   1.994   2.182  0.1128 -0.0521  0.4287
  826MOL0     C13912   5.319   2.132   2.131 -0.4598 -0.4216 -0.0913
  826MOL0     C13913   5.167   2.148   2.126  0.0341  0.4823 -0.0238
  826MOL0     C13914   5.085   2.125   2.255  0.4014  0.3571  1.2402
  826MOL0     C13915   5.026   2.069   2.343  1.3276 -0.1552  0.6102
  826MOL0     C13916   5.472   1.824   1.751 -0.1606 -0.0659  0.0343
  826MOL0     C13917   5.516   1.720   1.670 -0.7715  0.2119  0.2716
  826MOL0     C13918   5.543   1.763   1.528  0.1610  0.6256  0.0689
  826MOL0     H13919   5.755   1.259   1.513  1.2242 -1.4814 -1.2486
  826MOL0     H13920   5.755   1.115   1.330 -1.4287 -1.2369 -0.1516
  826MOL0     H13921   5.591   1.260   0.922  0.6320  0.3124 -0.1041
  826MOL0     H13922   5.481   1.169   1.033 -0.3466  0.4162 -0.1384
  826MOL0     H13923   5.573   0.956   0.960  1.9746 -2.2803 -3.3625
  826MOL0     H13924   5.481   1.014   0.833  0.0247 -2.2599 -0.4553
  826MOL0     H13925   5.781   1.048   0.865 -0.9850  1.6660  2.0245
  826MOL0     H13926   5.704   0.920   0.767 -0.9125 -0.4483  1.2817
  826MOL0     H13927   5.621   1.092   0.604 -0.1983 -0.0857 -0.0258
  826MOL0     H13928   5.689   1.223   0.697  1.3202  0.2411 -1.1886
  826MOL0     H13929   5.914   1.169   0.672  3.4892 -0.4365 -2.5576
  826MOL0     H13930   5.836   1.146   0.515  1.7218  0.8967  0.3814
  826MOL0     H13931   5.942   0.927   0.709  0.7415 -0.5913 -1.2615
  826MOL0     H13932   5.824   0.893   0.577 -0.0244 -2.0540  2.5922
  826MOL0     H13933   6.099   1.016   0.538  1.5286 -0.1154 -1.2279
  826MOL0     H13934   5.977   0.988   0.416  0.1922  2.6595  1.0794
  826MOL0     H13935   6.075   0.761   0.596 -0.0290  1.1360 -0.4109
  826MOL0     H13936   5.980   0.739   0.455  0.2846 -0.1817 -0.8351
  826MOL0     H13937   6.290   0.974   0.475 -2.3591  0.2189 -1.0595
  826MOL0     H13938   6.537   0.972   0.385 -0.4740  2.0283 -2.9740
  826MOL0     H13939   6.533   0.887   0.224  1.6090 -2.3708 -0.2561
  826MOL0     H13940   6.663   0.780   0.478  1.6070 -2.2471 -0.0359
  826MOL0     H13941   6.652   0.697   0.321 -1.3013  0.5504  0.4976
  826MOL0     H13942   6.832   0.937   0.389 -0.1235  0.5104 -1.7451
  826MOL0     H13943   6.887   0.780   0.369  0.9046  0.5706 -0.2588
  826MOL0     H13944   6.944   0.905   0.189 -0.3422 -0.8202  1.9705
  826MOL0     H13945   6.832   0.775   0.141  0.3960 -0.0661  1.1249
  826MOL0     H13946   6.664   1.185   0.021 -1.4676 -1.3852 -0.1761
  826MOL0     H13947   6.593   1.331  -0.128 -0.5480 -1.2359 -0.0307
  826MOL0     H13948   6.629   1.316  -0.304 -1.2337  0.7791  0.2009
  826MOL0     H13949   6.726   1.426  -0.204  1.2188 -0.6970 -0.3529
  826MOL0     H13950   7.120   1.455  -0.376  4.0216  3.5266 -0.0187
  826MOL0     H13951   7.255   1.601  -0.523  0.2326  1.0892 -2.1269
  826MOL0     H13952   7.501   1.370  -0.787  1.8735  0.1571  1.0021
  826MOL0     H13953   7.548   1.518  -0.833 -0.3202 -2.0595 -0.9560
  826MOL0     H13954   7.545   1.452  -0.542  2.2653 -0.0944  2.1617
  826MOL0     H13955   7.681   1.476  -0.655  0.8553  2.9624 -0.9556
  826MOL0     H13956   7.644   1.671  -0.500  1.0120  2.4858 -0.3259
  826MOL0     H13957   7.475   1.682  -0.562 -1.0317 -2.6957 -2.2649
  826MOL0     H13958   7.643   1.861  -0.673  2.8243 -0.0981  1.0739
  826MOL0     H13959   7.605   1.739  -0.796  3.7622 -0.5872 -0.9717
  826MOL0     H13960   7.843   1.718  -0.606 -0.7667 -0.7890  2.4919
  826MOL0     H13961   7.790   1.625  -0.756 -0.8916  1.3297 -1.1464
  826MOL0     H13962   7.864   1.910  -0.773  2.0267  0.1725 -0.2682
  826MOL0     H13963   7.839   1.794  -0.906  1.6414  0.1668 -0.6763
  826MOL0     H13964   8.062   1.802  -0.702 -1.4875 -0.1822 -0.1587
  826MOL0     H13965   8.086   1.854  -0.873  1.1376 -4.2223 -2.8405
  826MOL0     H13966   8.186   1.657  -0.837  0.3328  0.4348  2.7544
  826MOL0     H13967   8.044   1.641  -0.955 -1.4062  1.4300  0.8559
  826MOL0     H13968   7.295   1.276  -0.801 -0.8221 -1.0890  0.0461
  826MOL0     H13969   7.162   1.131  -0.661  2.3012  0.1619 -2.1583
  826MOL0     H13970   7.036   1.020  -0.263 -0.9461 -0.1469  0.4815
  826MOL0     H13971   6.979   0.911  -0.041  1.8152 -1.3069 -2.6448
  826MOL0     H13972   5.554   1.398   1.087 -0.1615 -5.2424 -2.1462
  826MOL0     H13973   5.525   1.538   1.267 -0.4610 -0.5368 -2.3753
  826MOL0     H13974   5.448   1.450   1.874  2.0527  0.0097  1.6373
  826MOL0     H13975   5.375   1.640   2.018  4.1024 -1.1934  1.2227
  826MOL0     H13976   5.225   1.868   2.070 -0.5494  1.4045 -3.1460
  826MOL0     H13977   5.373   1.793   2.138 -2.0557 -1.8952 -1.9356
  826MOL0     H13978   5.472   2.001   2.187  0.1899 -0.3580 -0.5767
  826MOL0     H13979   5.313   1.971   2.277  0.1646 -2.2599 -0.0234
  826MOL0     H13980   5.377   2.200   2.194  0.4805 -1.2307 -0.0596
  826MOL0     H13981   5.349   2.145   2.027 -4.1494 -0.1201 -1.2724
  826MOL0     H13982   5.129   2.070   2.060  1.7777 -0.3673 -0.0621
  826MOL0     H13983   5.132   2.245   2.088 -2.5391  0.8895  2.9293
  826MOL0     H13984   4.978   2.018   2.424  0.9021 -1.0927 -0.2100
  826MOL0     H13985   5.472   1.922   1.705 -0.2915 -0.7930 -1.5757
  826MOL0     H13986   5.648   1.751   1.502  0.5610  1.4727  1.2260
  826MOL0     H13987   5.476   1.713   1.457  2.7360 -1.0607 -1.2939
  826MOL0     H13988   5.533   1.871   1.514  2.0732  0.8662  0.3131
  827MOL0     O13989   3.469  10.301   5.625 -0.1066 -0.3645 -0.0246
  827MOL0     C13990   3.443  10.222   5.533 -0.8253  0.2370 -0.7125
  827MOL0     O13991   3.531  10.123   5.499 -0.8025  0.6919  0.8344
  827MOL0     C13992   3.661  10.114   5.540  0.4785 -0.1224 -0.3747
  827MOL0     C13993   3.763  10.075   5.444  1.5849  0.5481  0.0222
  827MOL0     C13994   3.894  10.054   5.485  0.8758  0.5162  1.5069
  827MOL0     C13995   3.930  10.076   5.617  0.6613  0.6149  0.3066
  827MOL0     O13996   4.053  10.027   5.652 -0.4158  0.5173 -0.1096
  827MOL0     C13997   4.061   9.943   5.766 -0.5680  0.0821  0.6660
  827MOL0     C13998   4.202   9.891   5.798 -0.5841 -0.0924 -0.3783
  827MOL0     C13999   4.195   9.781   5.911 -0.9296  0.5274 -0.4930
  827MOL0     C14000   4.125   9.650   5.884 -0.6593 -0.9547 -1.0436
  827MOL0     C14001   4.112   9.554   5.995  0.2141 -0.2538 -0.0450
  827MOL0     C14002   4.007   9.445   5.955  0.2309 -0.4822  0.4886
  827MOL0     C14003   3.866   9.489   5.947  0.6330 -0.5369  0.3365
  827MOL0     C14004   3.759   9.378   5.928 -0.1711  0.0821 -0.3690
  827MOL0     N14005   3.732   9.301   6.047  0.1103 -0.3336 -0.4532
  827MOL0     C14006   3.664   9.330   6.164 -1.2127 -0.3510  0.4656
  827MOL0     C14007   3.698   9.245   6.256  0.0706  0.1784  0.4638
  827MOL0     C14008   3.659   9.225   6.408 -0.9013 -0.2186  1.1154
  827MOL0     C14009   3.565   9.106   6.412  0.1039 -0.6250  0.0138
  827MOL0     C14010   3.569   9.019   6.543 -0.4941  0.0474  0.5461
  827MOL0     C14011   3.430   8.956   6.557  1.0525 -1.0387 -1.0420
  827MOL0     O14012   3.338   9.051   6.636  0.0956  0.0587 -0.0057
  827MOL0     C14013   3.222   9.104   6.579  0.1527  0.7990 -0.5167
  827MOL0     C14014   3.160   9.209   6.644 -0.2226 -0.0252  0.0484
  827MOL0     C14015   3.034   9.252   6.603 -0.9709 -0.2581 -0.5275
  827MOL0     C14016   2.968   9.355   6.697  0.1739 -0.8002  0.8631
  827MOL0     C14017   2.975   9.207   6.485 -0.6623 -0.2278  0.7093
  827MOL0     C14018   2.851   9.267   6.433 -1.0500 -1.0013  0.2661
  827MOL0     O14019   2.758   9.184   6.386 -0.9070  0.8540  1.0916
  827MOL0     C14020   2.668   9.237   6.300 -0.1345  0.7955 -0.5324
  827MOL0     C14021   2.537   9.203   6.307  0.9907  0.6244  0.8261
  827MOL0     C14022   2.437   9.262   6.231 -0.2590 -0.3489 -0.7728
  827MOL0     C14023   2.474   9.366   6.141  0.2783  0.7813  0.0880
  827MOL0     O14024   2.364   9.434   6.087 -0.7556  0.4200 -0.1596
  827MOL0     C14025   2.394   9.492   5.961 -1.1367  0.1868  0.7337
  827MOL0     C14026   2.269   9.558   5.890  0.7537  0.1768 -0.5484
  827MOL0     C14027   2.161   9.453   5.871  0.4976 -0.1365 -0.8608
  827MOL0     C14028   2.032   9.511   5.799  0.0999 -0.4936 -0.6983
  827MOL0     C14029   1.933   9.399   5.765 -0.9552 -0.7092  0.8359
  827MOL0     C14030   1.797   9.458   5.708 -0.1143  0.7622  0.1897
  827MOL0     C14031   1.805   9.480   5.554 -0.1345  0.4863  0.0129
  827MOL0     C14032   1.700   9.579   5.498  1.5719 -0.4145  0.4183
  827MOL0    Cl14033   1.539   9.522   5.549 -0.1531  0.0136  0.0415
  827MOL0     C14034   2.616   9.387   6.118 -0.5043  0.3651  0.7468
  827MOL0     C14035   2.707   9.325   6.196 -0.9682  0.1218  0.3847
  827MOL0     O14036   2.834   9.388   6.446 -0.0084  0.6230  0.3411
  827MOL0     C14037   3.049   9.119   6.401 -0.3649  0.3731 -0.1963
  827MOL0     C14038   3.167   9.063   6.451  0.8127 -0.8084 -0.2008
  827MOL0     N14039   3.783   9.155   6.201 -0.1540  0.7437  0.7965
  827MOL0     N14040   3.796   9.186   6.072  0.3069  0.7433  0.1174
  827MOL0     C14041   3.832  10.128   5.714 -0.4126  1.2712 -0.5517
  827MOL0     C14042   3.703  10.144   5.670  0.2285  0.1478  0.8012
  827MOL0     C14043   3.314  10.233   5.468 -0.1119  0.2992 -1.0991
  827MOL0     C14044   3.216  10.322   5.524  0.9576  0.2987  0.0012
  827MOL0     C14045   3.093  10.337   5.464  0.1580  0.2300 -0.3375
  827MOL0     C14046   3.058  10.268   5.345 -0.6242  0.1676  0.2822
  827MOL0     O14047   2.936  10.296   5.293 -0.7586  0.0302 -0.2463
  827MOL0     C14048   2.856  10.196   5.248  0.4682 -0.7560 -0.2515
  827MOL0     C14049   2.820  10.202   5.095 -0.1354 -0.3724  0.2682
  827MOL0     C14050   2.685  10.131   5.060  0.3446 -0.3135  0.4421
  827MOL0     C14051   2.570  10.181   5.148  0.5211  0.3714  0.5400
  827MOL0     C14052   2.437  10.155   5.088  0.5640 -0.1590 -0.8028
  827MOL0     C14053   2.325  10.113   5.064  0.3714 -0.0151 -0.2489
  827MOL0     C14054   3.151  10.178   5.293  0.7871  0.4145 -0.6637
  827MOL0     C14055   3.274  10.158   5.355  0.7111 -0.3331  0.0677
  827MOL0     C14056   3.356  10.043   5.290 -0.7548 -0.7964 -0.0712
  827MOL0     H14057   3.735  10.052   5.342 -1.6163  2.9982  0.1969
  827MOL0     H14058   3.958  10.023   5.403 -2.6623  0.4626 -1.4557
  827MOL0     H14059   4.008   9.850   5.744  0.0434 -0.3866  1.1559
  827MOL0     H14060   4.012   9.977   5.858 -0.4710 -0.0688  0.7733
  827MOL0     H14061   4.241   9.845   5.707 -2.7472  0.0880 -1.4569
  827MOL0     H14062   4.266   9.974   5.830 -2.6462  0.7819  1.7390
  827MOL0     H14063   4.299   9.763   5.940 -1.0111 -0.2268 -0.6606
  827MOL0     H14064   4.148   9.831   5.996 -1.6325 -0.3797 -0.3381
  827MOL0     H14065   4.026   9.685   5.855  0.3779  2.7424 -0.5729
  827MOL0     H14066   4.164   9.598   5.796  0.2509 -1.9250 -0.0981
  827MOL0     H14067   4.093   9.601   6.092  1.5849  0.8251 -0.2684
  827MOL0     H14068   4.209   9.506   6.009  2.0647  3.0023 -0.6671
  827MOL0     H14069   4.025   9.390   5.862  0.5339 -0.0290  0.2774
  827MOL0     H14070   4.008   9.368   6.033 -0.3422  0.6554  1.6554
  827MOL0     H14071   3.861   9.556   5.861  4.1229 -1.3257 -0.6448
  827MOL0     H14072   3.845   9.546   6.038  0.0942 -1.4561  0.8059
  827MOL0     H14073   3.665   9.434   5.918  0.5074  1.5985  1.2436
  827MOL0     H14074   3.777   9.312   5.843  0.9410  0.0823 -0.1454
  827MOL0     H14075   3.597   9.416   6.162  3.2343  3.5593  0.4923
  827MOL0     H14076   3.624   9.315   6.458 -0.3447  0.0128  1.0990
  827MOL0     H14077   3.750   9.187   6.454 -0.2942 -2.7412 -1.8035
  827MOL0     H14078   3.458   9.128   6.405  0.0683 -0.2686  1.3241
  827MOL0     H14079   3.591   9.033   6.335  0.4522  0.7289 -1.1817
  827MOL0     H14080   3.648   8.944   6.530  0.8454  1.4523  0.3242
  827MOL0     H14081   3.598   9.076   6.632 -0.5332 -2.8261  2.5282
  827MOL0     H14082   3.400   8.929   6.455 -0.1884 -2.5577 -0.3041
  827MOL0     H14083   3.448   8.870   6.622  0.9405 -0.5053 -0.2952
  827MOL0     H14084   3.201   9.252   6.735 -0.0583 -0.0603 -0.0094
  827MOL0     H14085   2.989   9.457   6.663  0.5262 -1.4826 -1.0578
  827MOL0     H14086   3.012   9.346   6.797 -2.2184 -4.0361  1.8010
  827MOL0     H14087   2.864   9.321   6.703  0.1554 -0.6975  1.1607
  827MOL0     H14088   2.513   9.128   6.381 -0.0680 -1.8215 -1.8077
  827MOL0     H14089   2.331   9.244   6.245 -0.9386  1.5722 -2.8565
  827MOL0     H14090   2.468   9.572   5.970 -1.7884  0.8942 -0.0261
  827MOL0     H14091   2.426   9.415   5.890  0.5716  3.6977 -2.6464
  827MOL0     H14092   2.229   9.643   5.945 -1.3918 -0.2378 -1.3783
  827MOL0     H14093   2.285   9.586   5.786  0.2177  0.1451 -0.6432
  827MOL0     H14094   2.133   9.405   5.965  2.8523  2.3899  1.3348
  827MOL0     H14095   2.212   9.382   5.805 -1.6471  0.3414 -3.1703
  827MOL0     H14096   2.046   9.579   5.715 -3.0102  0.7161 -0.4063
  827MOL0     H14097   1.977   9.561   5.879  1.6874  0.3680 -0.1106
  827MOL0     H14098   1.971   9.327   5.691 -1.4442  0.6260 -0.7859
  827MOL0     H14099   1.913   9.339   5.854 -2.6500 -1.3151  0.0909
  827MOL0     H14100   1.770   9.544   5.770 -2.4890 -1.9859  3.2925
  827MOL0     H14101   1.724   9.377   5.716  0.4362 -0.8237 -5.8206
  827MOL0     H14102   1.793   9.389   5.494 -3.6095  1.4776 -1.0600
  827MOL0     H14103   1.904   9.519   5.532 -0.0071 -1.2125 -2.8453
  827MOL0     H14104   1.699   9.584   5.388 -0.4551 -4.1554  0.0995
  827MOL0     H14105   1.717   9.681   5.533 -1.8023  0.7398 -0.9174
  827MOL0     H14106   2.654   9.454   6.042 -0.4363 -0.9803 -0.4682
  827MOL0     H14107   2.814   9.335   6.182 -1.1892  0.4551 -1.1994
  827MOL0     H14108   3.011   9.098   6.302  2.0247  1.3010 -1.3979
  827MOL0     H14109   3.218   8.987   6.392 -1.4064 -2.5042 -0.0608
  827MOL0     H14110   3.848  10.136   5.821  0.6423 -2.4253 -0.2732
  827MOL0     H14111   3.625  10.179   5.737 -1.5198  1.4886 -1.7853
  827MOL0     H14112   3.245  10.390   5.604  0.5248  2.2771 -1.4518
  827MOL0     H14113   3.021  10.393   5.523  1.7958  1.9486  0.1149
  827MOL0     H14114   2.887  10.094   5.272  2.4226  0.3435  2.4285
  827MOL0     H14115   2.772  10.219   5.313  0.7260 -0.9115  0.1436
  827MOL0     H14116   2.895  10.161   5.027  1.4637  1.0489  1.1016
  827MOL0     H14117   2.790  10.300   5.057 -2.6957 -1.7038 -1.4508
  827MOL0     H14118   2.656  10.145   4.955  1.6919  2.1723  0.3258
  827MOL0     H14119   2.684  10.023   5.078 -0.7376 -0.5659 -0.9730
  827MOL0     H14120   2.576  10.290   5.157 -2.0339  0.5636  0.6062
  827MOL0     H14121   2.563  10.137   5.248  2.3113  2.8922  1.8914
  827MOL0     H14122   2.227  10.075   5.043  2.0616 -5.1209 -0.2608
  827MOL0     H14123   3.121  10.112   5.212  0.0117  3.0109 -2.6599
  827MOL0     H14124   3.386   9.960   5.356 -0.9157 -1.8750 -1.3066
  827MOL0     H14125   3.309   9.994   5.204 -1.8674  0.7961 -0.4149
  827MOL0     H14126   3.453  10.091   5.273 -0.1074 -1.7663  0.7358
  828MOL0     O14127   3.740   7.467  10.021 -0.4626  0.0790  1.2126
  828MOL0     C14128   3.784   7.572   9.989 -0.6996  0.9102  0.6449
  828MOL0     O14129   3.817   7.679  10.062  1.0637 -0.3973 -0.9342
  828MOL0     C14130   3.850   7.669  10.196  0.2163 -0.3877 -1.0935
  828MOL0     C14131   3.908   7.785  10.260  0.5918 -0.5194  0.5333
  828MOL0     C14132   3.939   7.793  10.398 -0.9354 -0.3138  0.1556
  828MOL0     C14133   3.924   7.683  10.482 -0.8391  0.0122  0.0058
  828MOL0     O14134   3.978   7.694  10.612 -0.2921 -0.1520  0.4074
  828MOL0     C14135   3.905   7.643  10.721  0.1307 -0.5033 -0.3856
  828MOL0     C14136   3.773   7.713  10.748  0.2277 -0.3209  0.4873
  828MOL0     C14137   3.743   7.709  10.895 -0.2429  0.2648  0.5519
  828MOL0     C14138   3.615   7.788  10.907 -0.6773  0.3232  0.7077
  828MOL0     C14139   3.571   7.782  11.053  0.4166  0.0308  0.0524
  828MOL0     C14140   3.428   7.824  11.093 -0.3284 -0.6461 -0.6085
  828MOL0     C14141   3.410   7.848  11.243 -0.3241 -0.8420  0.3721
  828MOL0     C14142   3.422   7.708  11.314 -0.3397 -0.2482 -0.0436
  828MOL0     N14143   3.365   7.715  11.446 -0.0253 -0.7128  0.7214
  828MOL0     C14144   3.230   7.756  11.459 -0.5267 -0.9294  0.1989
  828MOL0     C14145   3.235   7.815  11.582  0.2689 -0.8335 -0.2198
  828MOL0     C14146   3.103   7.851  11.660 -0.2300 -0.4123  1.0715
  828MOL0     C14147   3.074   7.769  11.780  0.8727 -0.4908  0.4524
  828MOL0     C14148   3.067   7.617  11.755  0.2657 -0.4882  0.0113
  828MOL0     C14149   3.205   7.552  11.792  0.5106 -0.2371 -0.1230
  828MOL0     O14150   3.235   7.577  11.938  0.5188 -0.8450  0.3871
  828MOL0     C14151   3.214   7.470  12.018 -0.9150  0.9470  0.0079
  828MOL0     C14152   3.324   7.397  12.064  0.1458  0.9984 -0.1421
  828MOL0     C14153   3.312   7.276  12.144  0.4810  0.1702  0.5226
  828MOL0     C14154   3.431   7.201  12.200  0.0334  0.7745  0.6232
  828MOL0     C14155   3.183   7.243  12.190  0.2020 -0.9250  0.7405
  828MOL0     C14156   3.155   7.130  12.287 -0.0101 -0.8853  0.4324
  828MOL0     O14157   3.127   7.019  12.210  0.5283 -0.1147  0.7871
  828MOL0     C14158   3.151   6.900  12.275 -0.1381 -0.5588  0.5702
  828MOL0     C14159   3.042   6.809  12.269 -0.0129 -0.1056 -0.6042
  828MOL0     C14160   3.051   6.694  12.351 -0.0639  1.0138  0.4762
  828MOL0     C14161   3.170   6.659  12.421  0.2453  1.1844 -0.6912
  828MOL0     O14162   3.167   6.531  12.482  0.2109  0.4814 -0.5933
  828MOL0     C14163   3.269   6.492  12.574 -0.0063  0.6427 -1.2109
  828MOL0     C14164   3.264   6.356  12.638 -0.8800  0.6078 -0.9058
  828MOL0     C14165   3.132   6.328  12.715  0.0427 -0.4050  0.3743
  828MOL0     C14166   3.115   6.229  12.834 -1.2957  0.5018  0.2856
  828MOL0     C14167   3.068   6.089  12.804 -0.5875  0.0491 -0.3193
  828MOL0     C14168   3.041   6.013  12.935 -0.1675  0.4774 -0.2641
  828MOL0     C14169   2.993   5.868  12.909  0.3121  0.2836  0.2585
  828MOL0     C14170   2.946   5.799  13.021 -0.0951  0.2848  0.3509
  828MOL0    Cl14171   3.024   5.636  13.044 -0.1240 -0.1748 -0.2004
  828MOL0     C14172   3.279   6.743  12.412 -0.3901  0.2318 -0.5049
  828MOL0     C14173   3.267   6.870  12.347  0.6632 -0.0528 -0.1669
  828MOL0     O14174   3.170   7.136  12.408  0.2735 -0.2186 -0.0288
  828MOL0     C14175   3.073   7.320  12.145  0.0453  1.0118  0.1346
  828MOL0     C14176   3.081   7.424  12.056 -0.3385 -0.8112 -0.4364
  828MOL0     N14177   3.357   7.817  11.639 -0.4710  0.3547  0.2128
  828MOL0     N14178   3.438   7.757  11.556 -0.1894  0.0201  0.1685
  828MOL0     C14179   3.876   7.566  10.421  0.3995  0.0695 -0.1947
  828MOL0     C14180   3.848   7.557  10.277 -0.3449 -0.3140 -0.7802
  828MOL0     C14181   3.811   7.579   9.840 -0.2505 -0.3412 -1.0035
  828MOL0     C14182   3.825   7.710   9.781  0.9399  1.1380  0.1378
  828MOL0     C14183   3.889   7.718   9.658  0.2503 -0.8363 -0.6238
  828MOL0     C14184   3.948   7.613   9.597  0.4824  0.1106  0.1430
  828MOL0     O14185   4.008   7.630   9.475 -0.3777  0.3978  0.1575
  828MOL0     C14186   4.114   7.539   9.439 -0.3652 -0.4887  0.2240
  828MOL0     C14187   4.163   7.585   9.308 -0.3546  0.7734 -0.0468
  828MOL0     C14188   4.270   7.489   9.248 -0.3395 -0.5240 -1.0485
  828MOL0     C14189   4.290   7.513   9.100 -0.4467 -0.0044 -0.5520
  828MOL0     C14190   4.386   7.423   9.035  0.7497  0.2480  0.7608
  828MOL0     C14191   4.466   7.349   8.972  0.8333 -0.3342 -0.3175
  828MOL0     C14192   3.927   7.486   9.645  0.0505  0.4670  0.0702
  828MOL0     C14193   3.857   7.467   9.764  0.2007  0.1526 -0.4422
  828MOL0     C14194   3.855   7.315   9.805 -0.4363 -1.1135  0.2494
  828MOL0     H14195   3.938   7.855  10.183  2.9417 -0.5101  1.3887
  828MOL0     H14196   3.971   7.891  10.432  0.4333 -0.4335 -0.7158
  828MOL0     H14197   3.963   7.651  10.813 -2.9541 -5.9750  2.5162
  828MOL0     H14198   3.890   7.535  10.711  2.1701 -0.6719 -2.5403
  828MOL0     H14199   3.786   7.819  10.721 -2.7953 -0.8604 -4.2197
  828MOL0     H14200   3.695   7.674  10.684  0.9439 -0.6580 -0.1947
  828MOL0     H14201   3.737   7.606  10.932  3.3390  0.4473  2.0416
  828MOL0     H14202   3.827   7.756  10.946 -1.2703  2.1326  0.6155
  828MOL0     H14203   3.632   7.891  10.874  3.2010 -0.5109 -0.3947
  828MOL0     H14204   3.538   7.740  10.846 -1.0892 -0.9848  2.1775
  828MOL0     H14205   3.653   7.838  11.099 -0.6022  2.1681 -0.5957
  828MOL0     H14206   3.578   7.683  11.098 -2.6614 -0.6262 -0.6986
  828MOL0     H14207   3.398   7.910  11.031  0.2508  0.9265  1.1997
  828MOL0     H14208   3.357   7.743  11.078  0.4007 -1.2006 -1.1727
  828MOL0     H14209   3.311   7.893  11.255  0.0698  0.1077  0.1608
  828MOL0     H14210   3.489   7.913  11.282 -1.9006  1.0280  0.5691
  828MOL0     H14211   3.376   7.622  11.265 -0.7035 -1.3708  2.1576
  828MOL0     H14212   3.530   7.688  11.313 -0.6121 -2.0787 -2.2847
  828MOL0     H14213   3.147   7.734  11.393  1.2388 -1.1428 -2.0682
  828MOL0     H14214   3.021   7.845  11.588  0.0534 -3.5966  0.8523
  828MOL0     H14215   3.096   7.952  11.701 -3.0951  0.6282 -1.5997
  828MOL0     H14216   3.140   7.790  11.865 -1.3988  0.8584  2.0080
  828MOL0     H14217   2.973   7.800  11.809  0.8801  0.0090 -0.0369
  828MOL0     H14218   2.986   7.589  11.824 -0.9889  2.7003  0.0221
  828MOL0     H14219   3.019   7.582  11.663 -1.5809 -0.7487  1.0059
  828MOL0     H14220   3.200   7.443  11.782  1.4172 -0.2337 -0.8393
  828MOL0     H14221   3.289   7.596  11.737 -0.6477  1.8675 -0.2818
  828MOL0     H14222   3.425   7.417  12.031  0.2797  4.4506  1.8018
  828MOL0     H14223   3.528   7.229  12.158 -0.5409  1.5254 -0.2494
  828MOL0     H14224   3.422   7.094  12.175  1.7563  0.6033  0.5644
  828MOL0     H14225   3.438   7.207  12.309 -0.0973 -1.3065  0.7855
  828MOL0     H14226   2.948   6.828  12.218 -0.7463 -2.4556 -0.2632
  828MOL0     H14227   2.973   6.621  12.370  2.1150 -1.5682  0.0739
  828MOL0     H14228   3.366   6.500  12.523  1.7811 -0.8621  1.6507
  828MOL0     H14229   3.279   6.570  12.650  2.0893 -2.4149  1.9984
  828MOL0     H14230   3.280   6.299  12.546  0.8660 -2.4385  1.1136
  828MOL0     H14231   3.352   6.343  12.701 -2.5090 -1.0107  1.1895
  828MOL0     H14232   3.050   6.304  12.645  0.2197  1.3900 -0.5182
  828MOL0     H14233   3.102   6.427  12.751 -2.1295 -0.6424 -0.6243
  828MOL0     H14234   3.035   6.269  12.896 -2.5047 -3.6431  1.7326
  828MOL0     H14235   3.212   6.222  12.885 -2.7436  0.1858  3.2205
  828MOL0     H14236   2.977   6.087  12.744 -0.0765 -0.4056 -1.0944
  828MOL0     H14237   3.142   6.041  12.739 -3.5324 -2.2768 -2.2368
  828MOL0     H14238   2.969   6.064  12.999 -1.0028 -0.8564 -0.1080
  828MOL0     H14239   3.136   6.005  12.988  0.3811  2.3438 -0.8879
  828MOL0     H14240   3.070   5.805  12.863 -2.1489 -2.5754 -0.2389
  828MOL0     H14241   2.908   5.869  12.841  0.6206  0.0817 -0.1385
  828MOL0     H14242   2.838   5.786  13.011  0.2097 -1.4983 -1.3976
  828MOL0     H14243   2.966   5.856  13.112 -1.4764  0.0418  0.8349
  828MOL0     H14244   3.379   6.719  12.446 -0.4256  1.4210  0.5243
  828MOL0     H14245   3.359   6.927  12.353  2.7926 -2.9037 -2.5279
  828MOL0     H14246   2.970   7.291  12.166 -1.0027  2.5326 -2.3689
  828MOL0     H14247   2.995   7.478  12.018  0.8117  0.4576 -1.3546
  828MOL0     H14248   3.871   7.474  10.477 -3.2846 -1.5844 -2.8266
  828MOL0     H14249   3.815   7.459  10.245  0.5441 -1.4018  1.3875
  828MOL0     H14250   3.795   7.801   9.831  0.5606  0.4771  1.1468
  828MOL0     H14251   3.891   7.815   9.610 -0.8784  0.2455  1.3488
  828MOL0     H14252   4.192   7.548   9.514 -0.9339  3.6567  0.5575
  828MOL0     H14253   4.080   7.436   9.428  3.1938 -1.6440 -1.1880
  828MOL0     H14254   4.204   7.686   9.322  0.7684  0.3752 -0.3081
  828MOL0     H14255   4.078   7.593   9.240  0.6647  0.9888 -1.3417
  828MOL0     H14256   4.362   7.494   9.308 -2.1134  1.6506  1.7614
  828MOL0     H14257   4.238   7.388   9.275  1.4012 -0.5177  1.4727
  828MOL0     H14258   4.331   7.613   9.083  0.5665  0.3325  3.0179
  828MOL0     H14259   4.196   7.492   9.049  0.5663 -0.6571 -2.2394
  828MOL0     H14260   4.534   7.308   8.901  0.2955  1.9698 -2.3202
  828MOL0     H14261   3.958   7.402   9.584 -1.8197  0.7853 -1.4177
  828MOL0     H14262   3.878   7.255   9.717  3.1272 -0.3709  0.5433
  828MOL0     H14263   3.925   7.302   9.888  3.9467 -0.8571 -3.0670
  828MOL0     H14264   3.754   7.283   9.833 -0.1665 -2.6181 -0.3860
  829MOL0     O14265   8.002   3.607   8.715  0.0966  0.5100  0.1713
  829MOL0     C14266   7.957   3.702   8.780 -0.5507  0.1541  0.0087
  829MOL0     O14267   8.008   3.730   8.897  0.1614 -0.7425 -0.0017
  829MOL0     C14268   8.086   3.648   8.979  0.6088  0.0171  0.0603
  829MOL0     C14269   8.080   3.507   8.984  0.1172 -0.2853  0.9606
  829MOL0     C14270   8.154   3.438   9.076 -0.4979 -0.1844  0.6001
  829MOL0     C14271   8.237   3.504   9.167 -0.6257 -0.0525  0.0585
  829MOL0     O14272   8.324   3.438   9.245 -0.1363 -0.0981  0.1222
  829MOL0     C14273   8.296   3.296   9.285 -1.0540 -0.6962 -0.0917
  829MOL0     C14274   8.395   3.286   9.404 -0.2687  0.2219 -0.2834
  829MOL0     C14275   8.540   3.296   9.347  0.0380  0.1362 -0.8477
  829MOL0     C14276   8.641   3.218   9.435  0.0818  0.1273  0.6631
  829MOL0     C14277   8.775   3.226   9.368 -0.4875  0.2646 -0.3294
  829MOL0     C14278   8.841   3.361   9.394 -0.8539  0.3093 -0.2060
  829MOL0     C14279   8.985   3.348   9.349 -0.2879  0.1754  0.5432
  829MOL0     C14280   9.069   3.482   9.364  0.5165  0.0720  0.1445
  829MOL0     N14281   9.125   3.500   9.498  0.1620  0.2084 -1.5412
  829MOL0     C14282   9.180   3.403   9.581 -0.4078  0.6044  0.5437
  829MOL0     C14283   9.216   3.469   9.694  0.8014  0.8555  0.2494
  829MOL0     C14284   9.252   3.412   9.828 -0.2317  0.0138 -0.3409
  829MOL0     C14285   9.271   3.257   9.835 -0.8791 -0.3235  0.6247
  829MOL0     C14286   9.415   3.236   9.786  0.4133  0.3910  0.8985
  829MOL0     C14287   9.445   3.093   9.783 -0.7793 -0.5166 -0.9572
  829MOL0     O14288   9.349   3.014   9.704 -0.3513 -0.1296 -0.0507
  829MOL0     C14289   9.346   3.041   9.571  0.2085  0.0948  0.7968
  829MOL0     C14290   9.244   2.987   9.489 -0.9727  0.3897 -0.6005
  829MOL0     C14291   9.236   3.018   9.349  0.6184 -0.4498 -1.2534
  829MOL0     C14292   9.117   2.971   9.266  0.4724 -0.5522  0.4320
  829MOL0     C14293   9.335   3.101   9.283  0.0337  0.8745 -0.1356
  829MOL0     C14294   9.345   3.134   9.147 -0.4438 -1.3908  1.0025
  829MOL0     O14295   9.264   3.220   9.093  0.0474  0.3320 -0.4876
  829MOL0     C14296   9.285   3.269   8.971  0.2536 -0.3483  0.7140
  829MOL0     C14297   9.258   3.189   8.861 -0.9293  0.0143 -0.4723
  829MOL0     C14298   9.289   3.241   8.733 -0.3043  1.3165 -0.0568
  829MOL0     C14299   9.318   3.372   8.709 -0.7071  0.5404  0.3420
  829MOL0     O14300   9.327   3.421   8.585  0.0260  0.8424 -0.1092
  829MOL0     C14301   9.457   3.405   8.536  0.6322 -0.0563  0.4157
  829MOL0     C14302   9.509   3.536   8.493 -0.0881  0.5003 -0.3872
  829MOL0     C14303   9.434   3.608   8.384 -0.4805  0.0992  0.7024
  829MOL0     C14304   9.446   3.539   8.249  0.1514 -0.5070  0.7780
  829MOL0     C14305   9.398   3.642   8.149 -0.7690  0.1262  0.5406
  829MOL0     C14306   9.428   3.633   7.995 -0.2698 -0.1922  0.0150
  829MOL0     C14307   9.469   3.489   7.961  0.7897  0.9314 -0.1410
  829MOL0     C14308   9.485   3.473   7.813 -0.2544  0.0428  0.4898
  829MOL0    Cl14309   9.491   3.302   7.772 -0.2961 -0.3317 -0.0841
  829MOL0     C14310   9.333   3.453   8.823  0.4749  0.8242  0.1788
  829MOL0     C14311   9.322   3.402   8.953  0.6597 -0.0820 -0.0651
  829MOL0     O14312   9.453   3.102   9.090  0.8320  0.0829 -0.1669
  829MOL0     C14313   9.434   3.147   9.363 -1.2435  0.8100  1.1107
  829MOL0     C14314   9.446   3.119   9.499  0.1253 -0.1041  0.2385
  829MOL0     N14315   9.184   3.598   9.683  0.4526 -0.2878 -0.2553
  829MOL0     N14316   9.122   3.617   9.561  0.1833 -0.3332 -0.1385
  829MOL0     C14317   8.233   3.646   9.175  0.4090 -0.5773  0.1306
  829MOL0     C14318   8.159   3.715   9.078 -0.0607  0.3452  0.5382
  829MOL0     C14319   7.864   3.798   8.709  0.9656 -0.9598 -0.7794
  829MOL0     C14320   7.772   3.752   8.609 -0.4903 -0.3562 -0.6219
  829MOL0     C14321   7.682   3.842   8.537  0.0668 -0.4531 -0.4679
  829MOL0     C14322   7.684   3.973   8.573  0.4893 -1.1366 -0.7820
  829MOL0     O14323   7.599   4.069   8.522 -0.3815 -0.1960  0.3141
  829MOL0     C14324   7.474   4.037   8.451 -0.4458 -0.2397  0.1754
  829MOL0     C14325   7.514   4.017   8.300  0.6544  0.5941 -0.6734
  829MOL0     C14326   7.493   4.143   8.216  0.6471  0.3693  0.4557
  829MOL0     C14327   7.607   4.242   8.258 -0.0821  0.4030 -0.4630
  829MOL0     C14328   7.745   4.200   8.222 -0.6396 -0.8160 -0.0600
  829MOL0     C14329   7.845   4.145   8.175 -0.5501 -0.1941  0.3357
  829MOL0     C14330   7.777   4.024   8.662 -1.4109  1.0719  0.0827
  829MOL0     C14331   7.867   3.944   8.728  0.2882  0.3624  0.0176
  829MOL0     C14332   7.971   4.018   8.820  0.5693 -0.2889 -0.3391
  829MOL0     H14333   8.032   3.442   8.911  0.0376 -1.9428  2.4214
  829MOL0     H14334   8.152   3.330   9.069 -1.9965 -0.1296 -0.2339
  829MOL0     H14335   8.320   3.223   9.207 -0.9580  1.2766 -1.9815
  829MOL0     H14336   8.194   3.294   9.325 -1.5251  1.9392 -0.9741
  829MOL0     H14337   8.378   3.363   9.479 -3.7846 -0.2565 -0.3872
  829MOL0     H14338   8.391   3.187   9.451  0.1778  1.4305  2.5109
  829MOL0     H14339   8.541   3.251   9.247  1.7574 -0.8974 -0.3964
  829MOL0     H14340   8.568   3.402   9.341 -0.4948  0.5056  2.0292
  829MOL0     H14341   8.642   3.260   9.536 -2.4962  3.0700 -0.3687
  829MOL0     H14342   8.613   3.113   9.446 -1.9542  0.4526 -0.7990
  829MOL0     H14343   8.773   3.196   9.263  1.4049  1.2879 -0.7018
  829MOL0     H14344   8.832   3.148   9.420 -0.4966  0.3379 -0.2107
  829MOL0     H14345   8.803   3.435   9.323  0.5919  1.0808 -0.1982
  829MOL0     H14346   8.836   3.401   9.495  0.9595  0.8022 -0.2883
  829MOL0     H14347   8.999   3.320   9.244  1.6790  0.8993  0.5701
  829MOL0     H14348   9.046   3.269   9.393 -0.2691 -1.3257 -1.9757
  829MOL0     H14349   9.151   3.475   9.291 -0.4772 -0.2194 -0.9738
  829MOL0     H14350   9.020   3.578   9.344  2.2228  2.0728  4.3805
  829MOL0     H14351   9.191   3.298   9.555  2.7567  1.4395 -2.1717
  829MOL0     H14352   9.169   3.444   9.892 -0.6811 -0.9934 -0.4009
  829MOL0     H14353   9.339   3.468   9.865 -1.3804 -0.1119  2.9044
  829MOL0     H14354   9.265   3.220   9.938  2.3837 -0.1038  1.0114
  829MOL0     H14355   9.194   3.203   9.779  0.2469 -0.6423 -0.6877
  829MOL0     H14356   9.427   3.282   9.687 -0.4243 -0.0264  0.5938
  829MOL0     H14357   9.484   3.275   9.862  2.3414 -3.0367  1.0832
  829MOL0     H14358   9.549   3.081   9.751 -0.8370 -0.3140 -1.2266
  829MOL0     H14359   9.442   3.052   9.884 -0.6315 -1.8343 -1.4645
  829MOL0     H14360   9.163   2.934   9.538  0.1195  0.0042  0.8560
  829MOL0     H14361   9.023   2.967   9.323 -0.8960  0.2072 -1.6387
  829MOL0     H14362   9.141   2.876   9.218 -1.3905 -1.0836  0.4809
  829MOL0     H14363   9.098   3.045   9.187 -0.7013 -0.9802  0.2870
  829MOL0     H14364   9.229   3.085   8.875 -1.8096  0.2333 -0.5705
  829MOL0     H14365   9.285   3.173   8.649 -3.6253  0.9781  0.2156
  829MOL0     H14366   9.518   3.361   8.616 -0.7735 -0.2817  1.4151
  829MOL0     H14367   9.447   3.337   8.451  0.1769 -0.5663  0.8684
  829MOL0     H14368   9.525   3.594   8.584  4.9793 -2.5092  0.9945
  829MOL0     H14369   9.608   3.516   8.451 -0.4716  1.5482 -1.8968
  829MOL0     H14370   9.473   3.710   8.382 -0.0756 -0.0358  1.3400
  829MOL0     H14371   9.328   3.620   8.407 -0.6079  0.8763 -0.2308
  829MOL0     H14372   9.376   3.455   8.261 -1.3513  0.9339  2.7379
  829MOL0     H14373   9.542   3.499   8.217 -0.0700  0.2939 -1.0232
  829MOL0     H14374   9.291   3.661   8.167 -0.3333  1.4137  2.0018
  829MOL0     H14375   9.456   3.731   8.175  3.1672 -1.6447 -1.3271
  829MOL0     H14376   9.512   3.697   7.967 -0.2640  0.0591  0.5912
  829MOL0     H14377   9.338   3.667   7.944  0.2021 -0.0801 -0.7690
  829MOL0     H14378   9.404   3.417   8.012 -0.2055  1.0255 -1.2230
  829MOL0     H14379   9.572   3.468   7.992  0.7082 -1.2968 -1.1603
  829MOL0     H14380   9.572   3.525   7.774  0.9005 -1.4395  1.0014
  829MOL0     H14381   9.395   3.517   7.768 -0.4735  2.0893  2.7204
  829MOL0     H14382   9.355   3.559   8.826  0.1157  0.9023  2.8594
  829MOL0     H14383   9.342   3.466   9.038  2.4300  0.2361 -0.6672
  829MOL0     H14384   9.516   3.203   9.319  1.8800 -2.0958  2.6914
  829MOL0     H14385   9.538   3.154   9.547 -1.0862 -0.4553  3.0379
  829MOL0     H14386   8.306   3.695   9.238  0.9128 -1.5688  0.3478
  829MOL0     H14387   8.174   3.823   9.075  2.1397  0.0965 -2.3948
  829MOL0     H14388   7.749   3.647   8.588 -1.0980 -2.1849  6.5641
  829MOL0     H14389   7.618   3.804   8.458  0.0763  2.6749 -2.1397
  829MOL0     H14390   7.435   3.942   8.490 -1.4558  0.0449 -0.1226
  829MOL0     H14391   7.397   4.113   8.463 -0.5088 -0.4013  0.8181
  829MOL0     H14392   7.445   3.948   8.251 -2.3977  2.2973  0.9635
  829MOL0     H14393   7.618   3.985   8.292  0.7653  1.3467 -3.3162
  829MOL0     H14394   7.490   4.119   8.109 -2.3253  0.7790  0.3671
  829MOL0     H14395   7.400   4.191   8.247  0.5778 -0.2909  1.3160
  829MOL0     H14396   7.597   4.269   8.364 -2.6477  1.9003 -0.9964
  829MOL0     H14397   7.593   4.342   8.217  1.8912  0.7808 -0.3066
  829MOL0     H14398   7.906   4.073   8.125 -0.5444 -0.7035  1.0674
  829MOL0     H14399   7.783   4.128   8.692  1.8001  1.1303 -0.3450
  829MOL0     H14400   7.964   4.123   8.791 -1.0549 -0.0121  0.9234
  829MOL0     H14401   7.940   4.004   8.924 -2.1896  1.4798 -0.8274
  829MOL0     H14402   8.074   3.983   8.810  1.8911  2.1356  2.7958
  830MOL0     O14403   0.642   6.391   2.145  0.0272  0.2389  1.0112
  830MOL0     C14404   0.519   6.360   2.141 -1.2755  0.2022 -0.0027
  830MOL0     O14405   0.464   6.275   2.048 -0.1208  0.0358 -0.4591
  830MOL0     C14406   0.542   6.208   1.955 -0.5443  0.4064 -0.2916
  830MOL0     C14407   0.514   6.075   1.927 -0.6829 -0.3263  0.5962
  830MOL0     C14408   0.574   6.012   1.818  0.4817 -0.8479  0.0755
  830MOL0     C14409   0.665   6.083   1.739 -0.4923 -0.1458  0.7529
  830MOL0     O14410   0.728   6.006   1.641  0.2266 -0.1460 -0.3913
  830MOL0     C14411   0.858   6.066   1.609  0.2949  0.5085 -0.2617
  830MOL0     C14412   0.900   5.962   1.501 -0.0757 -0.0624 -0.5281
  830MOL0     C14413   0.885   6.036   1.372  0.3050 -0.6107  0.5146
  830MOL0     C14414   0.892   5.942   1.252  0.1733  0.5509 -0.0950
  830MOL0     C14415   0.824   5.994   1.130  0.0236  0.5291 -0.1002
  830MOL0     C14416   0.887   6.120   1.071  0.0725  0.7109 -0.4413
  830MOL0     C14417   0.816   6.161   0.945  1.1047 -0.6553  0.2319
  830MOL0     C14418   0.838   6.064   0.823 -0.4145 -0.3137  0.9867
  830MOL0     N14419   0.744   6.077   0.718 -0.6394  0.2769 -0.0910
  830MOL0     C14420   0.602   6.058   0.725  0.2143 -0.3565  1.0047
  830MOL0     C14421   0.559   6.077   0.596  0.2021 -0.1833  0.0897
  830MOL0     C14422   0.408   6.058   0.575  0.7824 -0.0249  1.2552
  830MOL0     C14423   0.400   5.909   0.557 -0.2008  0.3751 -0.7907
  830MOL0     C14424   0.258   5.879   0.521  0.8925  0.3342 -0.3689
  830MOL0     C14425   0.245   5.733   0.494  0.3997  0.0529 -0.4593
  830MOL0     O14426   0.113   5.687   0.481 -0.6134 -0.7581 -0.3023
  830MOL0     C14427   0.097   5.548   0.495  0.6271 -1.3077 -0.3979
  830MOL0     C14428  -0.040   5.507   0.498  0.1937 -0.3121 -0.6090
  830MOL0     C14429  -0.061   5.369   0.499  0.1686  1.2711 -0.5382
  830MOL0     C14430  -0.210   5.343   0.501 -0.6741 -0.0800 -0.6386
  830MOL0     C14431   0.043   5.277   0.484  0.5391 -0.1488 -0.3778
  830MOL0     C14432   0.010   5.140   0.460  0.1562  0.1078 -0.4322
  830MOL0     O14433   0.104   5.076   0.383  0.0143  1.1983 -1.4697
  830MOL0     C14434   0.100   4.940   0.337  0.2332 -0.7600  0.3041
  830MOL0     C14435   0.218   4.905   0.271 -0.2556  0.0032 -0.4573
  830MOL0     C14436   0.232   4.772   0.226  0.0372  0.2262  0.5920
  830MOL0     C14437   0.127   4.677   0.234  0.3679  0.1591 -1.2844
  830MOL0     O14438   0.152   4.559   0.179 -0.8738 -0.0173  0.5601
  830MOL0     C14439   0.044   4.473   0.142 -1.1336  1.2454 -0.2742
  830MOL0     C14440  -0.020   4.523   0.018  0.4525  0.0482 -0.4368
  830MOL0     C14441  -0.107   4.420  -0.053 -0.3289  0.0148  0.2051
  830MOL0     C14442  -0.036   4.316  -0.131 -0.4987 -0.4260 -0.3950
  830MOL0     C14443  -0.137   4.231  -0.204 -0.0974 -0.8970  0.6584
  830MOL0     C14444  -0.067   4.113  -0.271 -0.3194  0.4174  0.0116
  830MOL0     C14445   0.024   4.147  -0.381  0.6287 -0.5358  0.3467
  830MOL0     C14446   0.164   4.105  -0.362 -0.3185 -0.7010 -0.3225
  830MOL0    Cl14447   0.265   4.205  -0.256 -0.0380  0.0512 -0.0205
  830MOL0     C14448   0.002   4.723   0.291 -0.8060 -0.4717  0.1083
  830MOL0     C14449  -0.010   4.857   0.335  0.0335 -0.6773 -0.5433
  830MOL0     O14450  -0.088   5.081   0.510  0.2253  0.0013 -0.1926
  830MOL0     C14451   0.172   5.326   0.476 -0.5341  0.1818 -0.7483
  830MOL0     C14452   0.201   5.458   0.488  0.0243  0.0220 -0.0616
  830MOL0     N14453   0.665   6.118   0.524 -0.5454 -0.3284  0.4596
  830MOL0     N14454   0.772   6.127   0.594  0.4686 -0.4087  0.5325
  830MOL0     C14455   0.698   6.221   1.769  0.6738 -0.1852 -0.8899
  830MOL0     C14456   0.639   6.278   1.883 -0.0032 -0.0443  0.3802
  830MOL0     C14457   0.432   6.435   2.235  0.4144 -0.4832  0.0098
  830MOL0     C14458   0.490   6.528   2.324 -0.5636  0.2914 -1.4605
  830MOL0     C14459   0.412   6.601   2.417  0.3853 -0.7397  0.3003
  830MOL0     C14460   0.276   6.575   2.433  0.6501 -0.4425  0.5696
  830MOL0     O14461   0.187   6.645   2.517  0.8898 -0.3561  0.4711
  830MOL0     C14462   0.241   6.731   2.621 -1.0430 -0.0563  1.0041
  830MOL0     C14463   0.306   6.661   2.737  0.9079 -0.0683  0.9384
  830MOL0     C14464   0.217   6.535   2.774  0.2509 -0.3761 -0.6633
  830MOL0     C14465   0.060   6.539   2.773 -0.9570 -0.5676  0.7154
  830MOL0     C14466   0.006   6.662   2.826  0.4218  1.6758 -0.5996
  830MOL0     C14467  -0.045   6.770   2.855  0.2212 -0.1492 -0.5551
  830MOL0     C14468   0.214   6.487   2.341 -0.0212 -0.0726 -0.7669
  830MOL0     C14469   0.286   6.416   2.242  0.7449  0.1147 -0.5159
  830MOL0     C14470   0.196   6.350   2.140  0.2159 -0.2875  0.3497
  830MOL0     H14471   0.431   6.033   1.982 -0.2137 -0.3177  1.3250
  830MOL0     H14472   0.555   5.909   1.788 -0.3394 -0.9208  0.8177
  830MOL0     H14473   0.931   6.050   1.689 -0.6664 -1.5709  0.2470
  830MOL0     H14474   0.847   6.167   1.567 -3.5200  0.4128  0.1798
  830MOL0     H14475   1.007   5.943   1.515 -0.2532  0.9136  2.9999
  830MOL0     H14476   0.839   5.872   1.499  0.2874 -0.3167 -0.2164
  830MOL0     H14477   0.791   6.092   1.371  0.6078  0.1940  3.8794
  830MOL0     H14478   0.962   6.111   1.353 -0.8016 -0.3958 -4.2589
  830MOL0     H14479   0.993   5.910   1.225  1.3500  1.4112  2.9521
  830MOL0     H14480   0.846   5.844   1.270  0.2002  0.8878  2.0765
  830MOL0     H14481   0.727   6.030   1.165  1.5035  1.1282  3.9074
  830MOL0     H14482   0.799   5.918   1.055  0.2805 -0.1675  0.5135
  830MOL0     H14483   0.882   6.202   1.142  2.6512 -0.6553  1.4867
  830MOL0     H14484   0.993   6.095   1.057 -0.8958 -4.4449 -0.5467
  830MOL0     H14485   0.847   6.263   0.919 -1.0441  0.5881  2.2100
  830MOL0     H14486   0.708   6.165   0.962  0.6392 -1.1122 -2.1550
  830MOL0     H14487   0.931   6.089   0.771 -0.7381 -0.3699  0.3653
  830MOL0     H14488   0.840   5.958   0.851 -2.7232 -0.7650 -0.2385
  830MOL0     H14489   0.540   6.005   0.797  0.0672 -1.4026  0.1381
  830MOL0     H14490   0.371   6.115   0.489  1.0248 -0.1245  1.0822
  830MOL0     H14491   0.353   6.093   0.662  1.4695  0.8792  1.3297
  830MOL0     H14492   0.470   5.878   0.479  0.7054 -0.8038  0.4425
  830MOL0     H14493   0.434   5.857   0.647 -1.6365 -1.2331 -1.1102
  830MOL0     H14494   0.202   5.893   0.614  1.0944  1.1694 -0.3686
  830MOL0     H14495   0.220   5.935   0.435  0.4948 -2.3181 -2.0526
  830MOL0     H14496   0.287   5.714   0.395  0.1468 -4.6792  0.0976
  830MOL0     H14497   0.303   5.678   0.568  1.0341 -1.2463 -1.8559
  830MOL0     H14498  -0.116   5.584   0.501  0.1353 -0.1723 -3.4608
  830MOL0     H14499  -0.278   5.428   0.485 -1.1487 -0.0285  1.4554
  830MOL0     H14500  -0.251   5.302   0.593 -1.7419  0.2880 -0.9379
  830MOL0     H14501  -0.235   5.270   0.423  1.3515  1.4107 -2.8556
  830MOL0     H14502   0.299   4.976   0.263 -0.3224  0.3533  1.4864
  830MOL0     H14503   0.320   4.737   0.172 -0.2627 -1.6626  1.2533
  830MOL0     H14504   0.079   4.372   0.119 -0.7489  0.6721  2.5230
  830MOL0     H14505  -0.019   4.443   0.226  1.9226 -3.6803  0.6454
  830MOL0     H14506  -0.066   4.616   0.054  0.7515  0.0821 -0.1437
  830MOL0     H14507   0.054   4.558  -0.054 -1.1828  1.0047 -1.7330
  830MOL0     H14508  -0.175   4.471  -0.122 -0.8867  2.3304  2.3245
  830MOL0     H14509  -0.172   4.377   0.025  0.6178 -1.3840  0.2674
  830MOL0     H14510   0.012   4.247  -0.062 -1.2896  2.5561  3.5075
  830MOL0     H14511   0.031   4.357  -0.207  0.9533 -2.0505 -0.0546
  830MOL0     H14512  -0.207   4.185  -0.134 -1.7944 -0.1027 -0.4535
  830MOL0     H14513  -0.197   4.285  -0.277 -0.8511 -2.6642 -0.0861
  830MOL0     H14514  -0.154   4.055  -0.302 -0.3565 -0.8451  2.2394
  830MOL0     H14515  -0.004   4.068  -0.194 -0.7097  0.7623  0.5418
  830MOL0     H14516   0.019   4.254  -0.406 -2.3338 -1.3581 -3.5996
  830MOL0     H14517  -0.017   4.093  -0.467  1.3660 -0.9014  0.2178
  830MOL0     H14518   0.211   4.088  -0.459  0.0194  1.0212 -0.4822
  830MOL0     H14519   0.155   4.003  -0.322 -4.1948 -0.5847 -0.5095
  830MOL0     H14520  -0.091   4.667   0.291 -1.8588  1.1974  1.4459
  830MOL0     H14521  -0.106   4.895   0.369 -0.0389 -0.8361 -0.5661
  830MOL0     H14522   0.253   5.255   0.466 -0.9457 -0.6169  1.1849
  830MOL0     H14523   0.301   5.496   0.466  0.6408 -2.4861 -2.0094
  830MOL0     H14524   0.762   6.287   1.711  0.9830  0.3100  0.0023
  830MOL0     H14525   0.657   6.383   1.901 -0.6235  0.1939 -0.3078
  830MOL0     H14526   0.595   6.553   2.322 -0.3964 -0.2909 -0.4664
  830MOL0     H14527   0.466   6.673   2.478 -0.1556  1.0126 -1.2123
  830MOL0     H14528   0.314   6.802   2.580  0.2001 -1.5877  0.4825
  830MOL0     H14529   0.163   6.798   2.658 -0.5905 -0.1321  2.1202
  830MOL0     H14530   0.309   6.738   2.815 -2.2229  2.1436 -0.8903
  830MOL0     H14531   0.402   6.622   2.702 -0.3910  0.9024 -4.6126
  830MOL0     H14532   0.248   6.446   2.718 -1.8396 -1.5968  0.0134
  830MOL0     H14533   0.227   6.514   2.880  0.4644 -0.5670 -0.7205
  830MOL0     H14534   0.022   6.449   2.823 -1.4324 -1.6127 -1.3916
  830MOL0     H14535   0.030   6.522   2.669 -1.3528 -3.4261  1.1935
  830MOL0     H14536  -0.072   6.869   2.887 -1.3429 -0.8577  0.4288
  830MOL0     H14537   0.107   6.477   2.359 -0.3409  0.6357 -2.1392
  830MOL0     H14538   0.092   6.384   2.142  0.4621  0.4598  0.8793
  830MOL0     H14539   0.234   6.385   2.044 -0.9685  0.1634  0.0346
  830MOL0     H14540   0.206   6.241   2.147  1.5956 -0.4397 -2.6081
  831MOL0     O14541   1.582   4.482   2.495 -0.2606  0.0265 -0.6953
  831MOL0     C14542   1.684   4.477   2.566 -0.1929  0.2341 -0.9131
  831MOL0     O14543   1.692   4.505   2.701 -0.1387  0.0074 -0.3035
  831MOL0     C14544   1.575   4.564   2.756 -0.1728 -1.0137  0.2066
  831MOL0     C14545   1.525   4.696   2.713  0.6170  1.0477  0.1973
  831MOL0     C14546   1.411   4.746   2.781  0.8641  0.5085 -1.4518
  831MOL0     C14547   1.354   4.671   2.887 -0.9884 -0.3751  0.4495
  831MOL0     O14548   1.251   4.720   2.969  0.1276 -0.4870 -0.7818
  831MOL0     C14549   1.188   4.842   2.955  0.5785 -0.4435  0.3720
  831MOL0     C14550   1.087   4.850   3.071  0.1419  0.3096 -0.1550
  831MOL0     C14551   1.137   4.807   3.211 -0.8702  0.3113  0.4794
  831MOL0     C14552   1.043   4.841   3.319  0.7812 -0.4000 -0.1350
  831MOL0     C14553   0.916   4.744   3.306 -0.7880 -0.7015 -0.3958
  831MOL0     C14554   0.808   4.775   3.417  0.0569 -0.3352  0.8817
  831MOL0     C14555   0.680   4.680   3.421 -0.9381  0.3341 -0.0913
  831MOL0     C14556   0.712   4.535   3.409  0.1480 -0.8437  0.2863
  831MOL0     N14557   0.589   4.460   3.438  0.3116  0.3915 -0.0613
  831MOL0     C14558   0.509   4.423   3.331  0.1742  0.0736  0.5364
  831MOL0     C14559   0.403   4.355   3.386  0.3933 -0.0745 -0.3467
  831MOL0     C14560   0.299   4.279   3.309  0.7062 -0.0446 -0.1805
  831MOL0     C14561   0.168   4.354   3.340  0.7543  0.1271  0.0752
  831MOL0     C14562   0.135   4.497   3.296 -0.2399 -0.6942 -0.2141
  831MOL0     C14563   0.099   4.514   3.138 -0.1430 -0.0327 -0.3764
  831MOL0     O14564   0.100   4.643   3.077 -1.0217 -0.4330 -0.0484
  831MOL0     C14565   0.217   4.713   3.066 -0.0340  1.1313 -0.2003
  831MOL0     C14566   0.212   4.840   3.026  0.2999  0.3208 -0.7221
  831MOL0     C14567   0.327   4.925   3.013 -0.7379 -0.1616 -0.5868
  831MOL0     C14568   0.310   5.068   2.964 -0.5184  0.7196  0.4358
  831MOL0     C14569   0.455   4.878   3.055 -0.7226  0.2253 -0.0304
  831MOL0     C14570   0.582   4.949   3.050 -0.0889 -1.1836 -0.6876
  831MOL0     O14571   0.589   5.032   2.944  0.6417 -0.5649 -0.1623
  831MOL0     C14572   0.689   5.121   2.936  0.7310  0.6441  0.1485
  831MOL0     C14573   0.829   5.100   2.952 -0.2724  0.0885  0.9760
  831MOL0     C14574   0.930   5.184   2.902 -0.3535 -0.8445  0.1148
  831MOL0     C14575   0.891   5.297   2.836 -0.3535 -0.0525  0.0947
  831MOL0     O14576   0.990   5.382   2.784  0.4410 -0.3277 -0.4713
  831MOL0     C14577   1.063   5.339   2.663 -1.4253 -0.4834  0.3237
  831MOL0     C14578   1.194   5.406   2.633  0.0760 -0.6431 -0.5493
  831MOL0     C14579   1.175   5.552   2.598 -0.1185 -0.8331 -0.0441
  831MOL0     C14580   1.318   5.611   2.574 -0.9320  0.4525  1.3241
  831MOL0     C14581   1.306   5.749   2.554 -0.1523  0.7366 -0.0243
  831MOL0     C14582   1.431   5.811   2.484  1.2336  0.7194  0.5902
  831MOL0     C14583   1.415   5.962   2.449  0.2355  0.5819 -0.2414
  831MOL0     C14584   1.536   6.012   2.362  0.4200 -0.3298 -0.4477
  831MOL0    Cl14585   1.462   6.124   2.236 -0.0990  0.4374 -0.0343
  831MOL0     C14586   0.758   5.329   2.810  0.1657 -0.2427 -0.3376
  831MOL0     C14587   0.661   5.237   2.865 -0.2246 -0.0625  0.2598
  831MOL0     O14588   0.670   4.933   3.134  0.2576  0.2593 -1.0211
  831MOL0     C14589   0.459   4.741   3.088 -0.4334 -0.1014  0.4102
  831MOL0     C14590   0.347   4.664   3.094 -0.9913  0.0621  0.0752
  831MOL0     N14591   0.425   4.366   3.526  0.5005 -0.8462  0.7363
  831MOL0     N14592   0.534   4.427   3.559 -0.9029 -0.3209 -0.0457
  831MOL0     C14593   1.419   4.554   2.928 -0.8179  0.5271 -0.3697
  831MOL0     C14594   1.522   4.494   2.855  1.1254 -0.2759 -0.1563
  831MOL0     C14595   1.815   4.479   2.499 -0.6331  0.1754  0.5969
  831MOL0     C14596   1.820   4.528   2.369  0.1416 -1.3377  0.0810
  831MOL0     C14597   1.922   4.500   2.276  1.2466 -0.0272 -0.5218
  831MOL0     C14598   2.029   4.419   2.320 -0.6404  0.1452  0.4598
  831MOL0     O14599   2.130   4.403   2.219 -0.3443  0.0231 -0.3749
  831MOL0     C14600   2.204   4.277   2.229 -0.5654 -0.1658  0.1841
  831MOL0     C14601   2.128   4.149   2.220 -0.9313 -0.2172  1.0866
  831MOL0     C14602   2.061   4.132   2.086 -0.1521 -0.3365  0.7193
  831MOL0     C14603   1.970   4.001   2.077 -0.6924  0.9686  0.4060
  831MOL0     C14604   1.923   3.981   1.940  0.8126 -0.5960  0.4025
  831MOL0     C14605   1.902   3.949   1.827 -0.2447  0.1674 -0.9962
  831MOL0     C14606   2.032   4.378   2.452 -0.4178 -0.3012  0.6186
  831MOL0     C14607   1.926   4.406   2.552  0.1902 -0.4957  0.1803
  831MOL0     C14608   1.931   4.350   2.700 -0.2745  0.2799  0.3487
  831MOL0     H14609   1.573   4.754   2.635  0.4505  0.0372 -0.6770
  831MOL0     H14610   1.375   4.840   2.739 -1.7713  0.1629 -0.1752
  831MOL0     H14611   1.125   4.852   2.866 -0.8338 -1.8669  1.1710
  831MOL0     H14612   1.257   4.926   2.952 -0.4692  0.4929 -3.6391
  831MOL0     H14613   1.061   4.957   3.075 -0.3989  0.1514  0.7548
  831MOL0     H14614   0.993   4.801   3.048 -0.3684  0.8302  0.7615
  831MOL0     H14615   1.155   4.700   3.198  2.8032  0.8472 -0.1008
  831MOL0     H14616   1.236   4.847   3.236  0.0738 -2.5813  1.9045
  831MOL0     H14617   1.092   4.825   3.415  0.4949  2.0741  0.4812
  831MOL0     H14618   1.006   4.944   3.316  1.4804 -0.1188  0.6106
  831MOL0     H14619   0.959   4.644   3.296  0.6761 -0.1131 -0.2881
  831MOL0     H14620   0.864   4.769   3.213 -0.5597 -3.7691 -1.4663
  831MOL0     H14621   0.861   4.765   3.513  0.5065  4.0548  1.2909
  831MOL0     H14622   0.790   4.883   3.414  3.9202  0.4674 -1.4972
  831MOL0     H14623   0.623   4.700   3.329 -0.5297  0.0737 -0.4031
  831MOL0     H14624   0.615   4.691   3.508 -1.2584 -1.8433 -0.0195
  831MOL0     H14625   0.738   4.504   3.307 -3.2154 -1.0396 -0.6051
  831MOL0     H14626   0.790   4.513   3.483  2.2066  0.1215 -1.4880
  831MOL0     H14627   0.519   4.427   3.223 -0.4896 -1.3056  0.3979
  831MOL0     H14628   0.298   4.174   3.339 -0.5640  0.0099  0.0070
  831MOL0     H14629   0.317   4.283   3.201  1.1408  0.4587 -0.0945
  831MOL0     H14630   0.091   4.289   3.298  0.5179 -0.9317  2.0198
  831MOL0     H14631   0.153   4.341   3.448 -1.4468  0.3743 -0.1392
  831MOL0     H14632   0.065   4.545   3.365 -2.1688 -0.1889 -2.4131
  831MOL0     H14633   0.226   4.557   3.311 -0.3990 -0.8157  1.4210
  831MOL0     H14634   0.163   4.451   3.075  0.5637  1.0394 -0.7529
  831MOL0     H14635   0.001   4.466   3.128 -0.2483  0.0637  0.1288
  831MOL0     H14636   0.115   4.884   3.007  0.7340  2.0002  0.6610
  831MOL0     H14637   0.348   5.068   2.861  2.6013  0.7209  1.4905
  831MOL0     H14638   0.376   5.136   3.017  1.0158  1.2618 -1.9974
  831MOL0     H14639   0.204   5.098   2.962  0.1104  3.6180 -3.8862
  831MOL0     H14640   0.861   5.008   2.999  4.8226  1.4589  0.7588
  831MOL0     H14641   1.036   5.172   2.924 -0.3737 -4.4625 -1.2047
  831MOL0     H14642   1.096   5.235   2.665 -1.6678 -0.6349 -1.5649
  831MOL0     H14643   0.997   5.353   2.577  0.6745  2.2529 -0.9938
  831MOL0     H14644   1.260   5.399   2.720 -0.8443 -0.1862  0.1933
  831MOL0     H14645   1.242   5.367   2.542  3.0254  2.1748 -0.3973
  831MOL0     H14646   1.110   5.597   2.674  0.2735 -1.6830  0.8143
  831MOL0     H14647   1.119   5.563   2.505 -1.7594 -3.3171  0.5573
  831MOL0     H14648   1.370   5.568   2.488 -0.3421  4.7835 -0.7890
  831MOL0     H14649   1.387   5.586   2.655  0.0285 -2.3888 -0.2511
  831MOL0     H14650   1.211   5.763   2.502 -2.0545  2.6039  3.5648
  831MOL0     H14651   1.296   5.788   2.656 -3.2825 -0.1089  0.1025
  831MOL0     H14652   1.444   5.757   2.390 -0.1644 -0.5287  1.0928
  831MOL0     H14653   1.505   5.797   2.563 -1.0861 -1.2618  2.5479
  831MOL0     H14654   1.391   6.027   2.533 -1.9569  0.6430 -0.8458
  831MOL0     H14655   1.333   5.978   2.379 -1.4225  0.8556  1.6735
  831MOL0     H14656   1.600   5.933   2.321  1.0396 -0.6659  1.0919
  831MOL0     H14657   1.600   6.069   2.429 -0.4695 -0.3463  0.4344
  831MOL0     H14658   0.720   5.426   2.778 -1.2789  0.4021  2.9372
  831MOL0     H14659   0.557   5.251   2.837 -0.0709  1.3762  0.3219
  831MOL0     H14660   0.556   4.700   3.115 -0.7745 -0.3041  1.3561
  831MOL0     H14661   0.359   4.560   3.123 -0.4193  0.2586  0.5830
  831MOL0     H14662   1.388   4.505   3.020  0.0710  2.3309  0.9439
  831MOL0     H14663   1.547   4.399   2.902 -0.8108 -0.6555  0.1916
  831MOL0     H14664   1.723   4.562   2.334  0.4788 -2.7410 -2.4781
  831MOL0     H14665   1.915   4.528   2.172 -3.0978 -0.2237 -0.4839
  831MOL0     H14666   2.283   4.278   2.154 -4.8526 -0.9569 -4.9172
  831MOL0     H14667   2.252   4.270   2.327  0.7552 -1.5797 -0.5257
  831MOL0     H14668   2.048   4.155   2.295 -0.4205  0.9508  1.5645
  831MOL0     H14669   2.188   4.059   2.236 -0.1314  0.2904  1.0011
  831MOL0     H14670   2.003   4.217   2.049  0.8376 -0.8821 -2.3862
  831MOL0     H14671   2.137   4.131   2.007 -1.4012  0.9666 -0.5766
  831MOL0     H14672   1.884   4.024   2.141 -2.2284 -0.7621 -0.9687
  831MOL0     H14673   2.016   3.908   2.111 -0.4356  1.7571  2.3440
  831MOL0     H14674   1.906   3.932   1.721  1.6700 -2.1330 -0.6453
  831MOL0     H14675   2.129   4.333   2.473  0.7692  0.9090 -1.8221
  831MOL0     H14676   1.931   4.430   2.775  0.7315  1.2232 -0.6156
  831MOL0     H14677   1.860   4.269   2.721 -0.0112  0.3333  1.5136
  831MOL0     H14678   2.023   4.297   2.725 -0.9061 -1.3917 -0.6666
  832MOL0     O14679   6.812   0.280   9.224  0.2337 -0.3166 -0.3813
  832MOL0     C14680   6.920   0.242   9.183  0.0310  0.1769 -0.8773
  832MOL0     O14681   6.952   0.114   9.163 -0.5082 -0.3100 -0.1389
  832MOL0     C14682   6.862   0.008   9.166 -0.3087 -0.5022 -0.6942
  832MOL0     C14683   6.865  -0.074   9.049 -0.0975 -0.4727  0.5207
  832MOL0     C14684   6.792  -0.191   9.044  0.0222 -0.2885  0.5562
  832MOL0     C14685   6.722  -0.234   9.153  0.4158 -0.1797  0.4396
  832MOL0     O14686   6.646  -0.347   9.152  0.1171 -0.1825 -0.1107
  832MOL0     C14687   6.629  -0.414   9.024  0.0388 -0.1107 -0.6523
  832MOL0     C14688   6.551  -0.547   9.035  0.0709 -0.4015 -0.6237
  832MOL0     C14689   6.603  -0.647   8.930  0.6583 -0.5093 -0.3103
  832MOL0     C14690   6.698  -0.739   8.998 -0.8111 -0.8025  0.0537
  832MOL0     C14691   6.766  -0.839   8.898 -1.3171  0.7469 -0.6750
  832MOL0     C14692   6.874  -0.925   8.957 -0.6767 -0.4334 -0.7117
  832MOL0     C14693   6.918  -1.048   8.874 -0.2718  0.5278  0.3691
  832MOL0     C14694   6.821  -1.178   8.867 -0.4720 -0.0202  0.5138
  832MOL0     N14695   6.826  -1.254   8.986  0.8003  2.1338 -0.4262
  832MOL0     C14696   6.886  -1.226   9.106  0.3508 -0.6888 -0.4737
  832MOL0     C14697   6.829  -1.316   9.190  0.6108 -0.1491 -0.4563
  832MOL0     C14698   6.885  -1.351   9.321  0.1264 -1.0376  0.0907
  832MOL0     C14699   6.797  -1.351   9.446 -0.7425  0.3397  0.3383
  832MOL0     C14700   6.661  -1.436   9.435 -0.0759 -1.0327  0.3185
  832MOL0     C14701   6.606  -1.459   9.578 -0.5983  0.0141 -0.9680
  832MOL0     O14702   6.690  -1.406   9.688  0.9082  0.5370 -0.0890
  832MOL0     C14703   6.640  -1.424   9.817  0.8063 -0.4884  0.7160
  832MOL0     C14704   6.505  -1.439   9.845  0.1069 -0.0216 -1.1263
  832MOL0     C14705   6.453  -1.448   9.982  0.5429  0.3225  0.8181
  832MOL0     C14706   6.304  -1.423  10.005 -0.3497  0.7844 -1.6039
  832MOL0     C14707   6.550  -1.457  10.085 -0.6346  0.0971 -0.0655
  832MOL0     C14708   6.514  -1.476  10.231  0.6009  0.5945  0.2005
  832MOL0     O14709   6.377  -1.508  10.255 -0.1403  0.1983 -0.6291
  832MOL0     C14710   6.342  -1.502  10.388  0.2023 -0.4911  0.4334
  832MOL0     C14711   6.252  -1.411  10.431  0.7011  0.1445 -0.0383
  832MOL0     C14712   6.202  -1.413  10.567 -0.0251 -0.0766 -0.3817
  832MOL0     C14713   6.264  -1.497  10.659 -0.4292 -0.2623  0.1715
  832MOL0     O14714   6.221  -1.474  10.785 -0.8516 -0.5289 -0.1189
  832MOL0     C14715   6.245  -1.584  10.870 -0.7579  1.8583 -0.2506
  832MOL0     C14716   6.162  -1.575  10.994 -0.6094 -0.8364  0.1311
  832MOL0     C14717   6.186  -1.448  11.082 -0.6979 -0.2411 -0.2503
  832MOL0     C14718   6.090  -1.465  11.207  0.3774  0.9384  0.7178
  832MOL0     C14719   6.078  -1.335  11.279  0.1502  0.3093  0.3893
  832MOL0     C14720   6.044  -1.366  11.425  0.3629  0.2171 -0.9204
  832MOL0     C14721   5.906  -1.442  11.442 -0.8644 -0.4184 -1.1279
  832MOL0     C14722   5.862  -1.449  11.595  0.0177  0.6138 -0.0338
  832MOL0    Cl14723   5.963  -1.591  11.647  0.1997 -0.1082  0.6177
  832MOL0     C14724   6.362  -1.585  10.615  0.6052 -0.1458 -0.2662
  832MOL0     C14725   6.392  -1.596  10.480 -0.0327 -0.5052  0.3396
  832MOL0     O14726   6.605  -1.471  10.321  0.7679 -0.5524 -0.4698
  832MOL0     C14727   6.680  -1.443  10.045  0.7312 -0.4181 -0.0523
  832MOL0     C14728   6.726  -1.422   9.919 -0.6707 -0.4058 -0.3102
  832MOL0     N14729   6.756  -1.411   9.114 -0.3428  0.2204 -0.5759
  832MOL0     N14730   6.764  -1.372   8.985  0.3531  0.6313 -0.8492
  832MOL0     C14731   6.728  -0.155   9.265  0.1412 -0.2276  0.2367
  832MOL0     C14732   6.785  -0.027   9.272 -0.3398  0.1729 -0.2482
  832MOL0     C14733   7.010   0.357   9.161 -0.7022 -0.5859 -0.3145
  832MOL0     C14734   6.969   0.494   9.177  0.1518  0.1748 -0.6081
  832MOL0     C14735   7.051   0.608   9.171  0.3344 -0.1542 -1.2284
  832MOL0     C14736   7.190   0.591   9.159  0.6960 -0.6216  0.3988
  832MOL0     O14737   7.266   0.704   9.161  0.3175 -0.2606  0.5325
  832MOL0     C14738   7.255   0.801   9.266 -0.6634  0.1956  0.3556
  832MOL0     C14739   7.183   0.936   9.231  0.1903 -0.0617 -0.1616
  832MOL0     C14740   7.151   1.004   9.361  0.1517  0.6016 -0.4393
  832MOL0     C14741   7.280   1.058   9.422 -0.4842  0.2433  0.4152
  832MOL0     C14742   7.256   1.186   9.500 -0.4589  0.2902 -0.2559
  832MOL0     C14743   7.219   1.278   9.581 -0.8295 -0.3522 -0.0398
  832MOL0     C14744   7.233   0.462   9.146  0.4423 -0.7302 -0.7656
  832MOL0     C14745   7.145   0.351   9.135  0.3006 -0.0189  0.1654
  832MOL0     C14746   7.219   0.218   9.099  0.0480  0.4057 -0.3400
  832MOL0     H14747   6.941  -0.053   8.975 -0.9295 -2.2327 -0.8900
  832MOL0     H14748   6.799  -0.245   8.950  1.8944  3.9079 -1.9709
  832MOL0     H14749   6.726  -0.441   8.982 -0.2287 -0.9630 -0.7410
  832MOL0     H14750   6.579  -0.355   8.946 -0.7346 -2.0241 -1.6698
  832MOL0     H14751   6.536  -0.568   9.141 -0.2453  1.9639 -0.1417
  832MOL0     H14752   6.448  -0.525   9.004 -0.7445 -2.3686  0.4830
  832MOL0     H14753   6.531  -0.711   8.878  1.9062 -0.8772 -1.6258
  832MOL0     H14754   6.642  -0.586   8.848 -2.9508  2.3907 -0.1448
  832MOL0     H14755   6.780  -0.684   9.045 -0.7908  1.1018 -2.0250
  832MOL0     H14756   6.665  -0.798   9.084 -2.2332 -0.3969 -0.1863
  832MOL0     H14757   6.810  -0.784   8.813  3.3208  0.4665  1.2618
  832MOL0     H14758   6.694  -0.909   8.855 -1.0811 -0.2796  0.5826
  832MOL0     H14759   6.967  -0.878   8.990 -1.4805  1.5154 -1.0387
  832MOL0     H14760   6.832  -0.959   9.052  3.2339 -2.6519  0.4346
  832MOL0     H14761   7.021  -1.076   8.900 -0.4849  0.9278  1.6925
  832MOL0     H14762   6.927  -1.012   8.771 -2.8629 -2.6074 -1.1699
  832MOL0     H14763   6.718  -1.148   8.848 -0.4955 -0.7638 -0.5854
  832MOL0     H14764   6.853  -1.241   8.784 -1.0397 -1.5840  1.4387
  832MOL0     H14765   6.963  -1.156   9.139  1.5744 -2.1070 -0.2073
  832MOL0     H14766   6.971  -1.286   9.343  0.0230 -1.1880  0.9761
  832MOL0     H14767   6.918  -1.453   9.299 -2.3140 -1.6066 -1.1878
  832MOL0     H14768   6.858  -1.409   9.516 -2.2769  0.6371  2.0122
  832MOL0     H14769   6.774  -1.247   9.468  3.9163  2.3824 -3.0791
  832MOL0     H14770   6.592  -1.376   9.375  0.7951 -1.8316 -1.5615
  832MOL0     H14771   6.683  -1.527   9.379 -1.5534 -0.5242 -1.1576
  832MOL0     H14772   6.516  -1.396   9.576  1.4527  3.2481 -0.4271
  832MOL0     H14773   6.572  -1.561   9.597 -1.0680  0.6430  2.0927
  832MOL0     H14774   6.433  -1.441   9.763 -2.5396 -0.1828  1.0394
  832MOL0     H14775   6.299  -1.326  10.056  0.5227 -1.5624  3.5580
  832MOL0     H14776   6.251  -1.483  10.079  0.6170  2.9143  0.9973
  832MOL0     H14777   6.243  -1.422   9.914  1.3557  0.9382 -2.8113
  832MOL0     H14778   6.193  -1.354  10.360  2.5457  1.1520 -0.8619
  832MOL0     H14779   6.125  -1.346  10.605  0.4754 -0.1090  0.7070
  832MOL0     H14780   6.223  -1.683  10.831 -0.8326  1.0907  1.6074
  832MOL0     H14781   6.351  -1.586  10.897 -0.2239 -1.1807 -2.2042
  832MOL0     H14782   6.055  -1.590  10.973 -0.3625 -2.2252 -0.2394
  832MOL0     H14783   6.176  -1.662  11.057  0.7300 -1.3602 -0.8578
  832MOL0     H14784   6.158  -1.362  11.021 -1.1668 -0.3433 -0.1847
  832MOL0     H14785   6.287  -1.438  11.123 -2.0206 -1.2650  3.7031
  832MOL0     H14786   6.135  -1.543  11.269 -1.7430 -2.9806 -2.2453
  832MOL0     H14787   5.990  -1.503  11.186  1.2620 -0.2384 -1.7185
  832MOL0     H14788   6.172  -1.280  11.267  2.0696 -2.4277  1.9003
  832MOL0     H14789   5.998  -1.275  11.233  0.9831  0.7157 -0.5763
  832MOL0     H14790   6.055  -1.274  11.483 -0.2301  1.1870 -2.2858
  832MOL0     H14791   6.124  -1.429  11.464 -1.1135 -0.7791  0.6180
  832MOL0     H14792   5.919  -1.541  11.398  0.9353 -1.2193  1.0154
  832MOL0     H14793   5.822  -1.397  11.388 -1.3892 -1.0594 -0.8633
  832MOL0     H14794   5.754  -1.463  11.606 -0.0881  1.7938  0.5857
  832MOL0     H14795   5.892  -1.361  11.653 -0.1811  1.5255 -1.2747
  832MOL0     H14796   6.412  -1.657  10.679 -1.8888 -0.1201  1.8275
  832MOL0     H14797   6.475  -1.660  10.452  0.8899  0.7985  0.0151
  832MOL0     H14798   6.769  -1.445  10.107  0.7867 -2.5201 -0.1409
  832MOL0     H14799   6.829  -1.405   9.889  1.1056 -6.3258  1.1780
  832MOL0     H14800   6.686  -0.203   9.353  1.9497  0.4345  1.5234
  832MOL0     H14801   6.783   0.040   9.358  0.0708 -0.8221  0.5557
  832MOL0     H14802   6.864   0.520   9.186  0.1564  0.6110 -1.6762
  832MOL0     H14803   6.999   0.702   9.184 -0.3321 -0.6422 -0.2291
  832MOL0     H14804   7.215   0.750   9.354  0.2629  1.1217  1.3443
  832MOL0     H14805   7.357   0.833   9.291  0.6989 -0.4300 -3.7439
  832MOL0     H14806   7.085   0.905   9.193 -1.4656  1.8094  2.3350
  832MOL0     H14807   7.228   1.011   9.165 -0.7676 -1.3139 -2.3870
  832MOL0     H14808   7.082   1.087   9.341 -2.1284 -1.8068 -3.5364
  832MOL0     H14809   7.118   0.927   9.432  4.5098  0.2686  1.5358
  832MOL0     H14810   7.343   1.084   9.337  0.1816 -3.3580 -0.3484
  832MOL0     H14811   7.341   0.993   9.487 -0.7180  1.2920  1.7239
  832MOL0     H14812   7.175   1.338   9.658  0.4904  0.3457  0.1917
  832MOL0     H14813   7.336   0.436   9.125  0.4925 -3.6170  2.3397
  832MOL0     H14814   7.202   0.159   9.189 -1.9838  2.1949  0.5435
  832MOL0     H14815   7.194   0.165   9.006  1.5356  0.0807 -0.5863
  832MOL0     H14816   7.325   0.229   9.074  0.0249 -1.8591 -1.8004
  833MOL0     O14817   2.869   0.231   4.286 -0.0777 -0.0010 -0.0109
  833MOL0     C14818   2.943   0.131   4.299 -0.6613  0.1849 -0.7677
  833MOL0     O14819   2.998   0.063   4.198 -0.0390  1.2870  0.0036
  833MOL0     C14820   2.999   0.100   4.065 -0.0697 -0.4558 -0.0641
  833MOL0     C14821   2.922   0.202   4.006 -0.3112  0.7380  0.2877
  833MOL0     C14822   2.940   0.226   3.872 -0.5113  0.0880  0.6060
  833MOL0     C14823   3.046   0.169   3.793 -0.3311 -0.0466  0.6017
  833MOL0     O14824   3.078   0.208   3.660  0.3013  0.6865 -0.3098
  833MOL0     C14825   3.004   0.324   3.613  1.4787 -0.5220  0.0765
  833MOL0     C14826   3.043   0.354   3.469 -0.1172 -0.8439  1.0885
  833MOL0     C14827   3.045   0.236   3.380 -0.2428 -0.1455  0.3595
  833MOL0     C14828   3.021   0.293   3.235  0.1271  0.9124  0.8913
  833MOL0     C14829   3.037   0.168   3.136 -0.5378  0.0382 -0.3285
  833MOL0     C14830   3.020   0.212   2.991  0.7230  0.6785 -0.2263
  833MOL0     C14831   3.072   0.105   2.885  0.1034 -0.2768  0.0847
  833MOL0     C14832   3.039   0.147   2.729 -0.4751 -0.3946  0.4458
  833MOL0     N14833   3.090   0.051   2.634 -0.3225 -1.0306 -0.2035
  833MOL0     C14834   3.069  -0.085   2.631 -1.0495  0.5031  0.4871
  833MOL0     C14835   3.100  -0.124   2.504  0.1051 -0.2010  1.0646
  833MOL0     C14836   3.086  -0.262   2.445 -0.4863 -0.5395  0.4044
  833MOL0     C14837   3.057  -0.372   2.554  0.3066  1.1213 -0.0395
  833MOL0     C14838   3.026  -0.504   2.489  0.7869  0.1752  0.0059
  833MOL0     C14839   3.018  -0.606   2.598 -0.1291 -0.1347  0.3904
  833MOL0     O14840   3.155  -0.655   2.622  0.5372  0.0549  0.1494
  833MOL0     C14841   3.168  -0.786   2.681  0.3991 -0.0881  0.1770
  833MOL0     C14842   3.064  -0.875   2.723 -0.2527  0.2943  0.1509
  833MOL0     C14843   3.092  -1.001   2.771  0.1075 -0.8927  0.5432
  833MOL0     C14844   2.982  -1.097   2.807 -0.3354 -0.7654 -0.3819
  833MOL0     C14845   3.231  -1.040   2.785  0.5112 -0.0135  0.1896
  833MOL0     C14846   3.270  -1.186   2.828 -0.3451  0.1696 -0.3973
  833MOL0     O14847   3.399  -1.200   2.861  0.5355  0.4553  0.3132
  833MOL0     C14848   3.451  -1.318   2.905  0.8112  0.1138 -0.5263
  833MOL0     C14849   3.386  -1.436   2.967 -0.2416 -0.2226 -0.6576
  833MOL0     C14850   3.455  -1.550   3.013 -0.6516  0.3810 -0.2738
  833MOL0     C14851   3.599  -1.548   3.006 -0.1530 -0.6331 -0.9069
  833MOL0     O14852   3.669  -1.661   3.044  0.1773  1.0062  0.5910
  833MOL0     C14853   3.790  -1.646   3.107  0.4109 -0.7713 -0.2834
  833MOL0     C14854   3.842  -1.777   3.172 -0.3775 -0.5736 -0.9181
  833MOL0     C14855   3.743  -1.866   3.251  0.0939  0.9936  1.0660
  833MOL0     C14856   3.643  -1.793   3.331  0.2664 -0.2709 -0.0905
  833MOL0     C14857   3.707  -1.713   3.447 -0.3628  0.4035  0.1203
  833MOL0     C14858   3.833  -1.778   3.511  0.3556 -0.3202 -0.7488
  833MOL0     C14859   3.914  -1.688   3.608  0.0873  0.1350 -0.2365
  833MOL0     C14860   3.830  -1.598   3.707 -0.6146 -0.2276  0.2566
  833MOL0    Cl14861   3.955  -1.517   3.825 -0.4456  0.1989 -0.1989
  833MOL0     C14862   3.658  -1.427   2.968 -0.4251  0.1990 -0.2627
  833MOL0     C14863   3.588  -1.326   2.910  0.1998 -0.0771 -0.7290
  833MOL0     O14864   3.184  -1.274   2.829 -0.4770 -0.5315  0.1310
  833MOL0     C14865   3.332  -0.945   2.760  0.0693 -0.0994  0.1722
  833MOL0     C14866   3.297  -0.820   2.711 -0.1810 -0.3054  0.2463
  833MOL0     N14867   3.160  -0.014   2.438 -0.4546 -0.6485  0.3191
  833MOL0     N14868   3.154   0.089   2.516  0.3204 -0.6747 -0.4788
  833MOL0     C14869   3.109   0.057   3.850 -0.1689 -0.3502 -0.0280
  833MOL0     C14870   3.088   0.016   3.983 -0.0420 -0.7638  0.3802
  833MOL0     C14871   2.968   0.071   4.441 -0.0767 -0.7814  1.0343
  833MOL0     C14872   2.865   0.080   4.538  0.6714 -0.6316  0.0305
  833MOL0     C14873   2.875   0.018   4.660  0.5519  0.0849 -0.4576
  833MOL0     C14874   2.994  -0.050   4.700  0.9949  0.6278  0.6491
  833MOL0     O14875   3.023  -0.117   4.821  0.1823 -0.4041  0.6990
  833MOL0     C14876   2.922  -0.163   4.899  0.6999 -0.2676  1.0094
  833MOL0     C14877   2.874  -0.046   4.991 -0.0325 -0.8802 -0.5695
  833MOL0     C14878   2.980  -0.043   5.093  0.3498 -0.3169 -0.5067
  833MOL0     C14879   2.956   0.056   5.206  0.0372 -1.2386  0.5142
  833MOL0     C14880   2.946   0.202   5.155  0.2877 -0.6249 -0.5932
  833MOL0     C14881   2.924   0.320   5.126  0.9381 -0.0152 -1.1683
  833MOL0     C14882   3.098  -0.043   4.611 -0.0173  0.1712 -0.7869
  833MOL0     C14883   3.094   0.005   4.477  0.7311 -0.6568 -0.6141
  833MOL0     C14884   3.218   0.021   4.389 -0.0543 -0.5857 -0.3595
  833MOL0     H14885   2.846   0.260   4.058 -0.7367  0.8510 -0.4443
  833MOL0     H14886   2.883   0.309   3.832  0.1686 -0.0262 -0.6543
  833MOL0     H14887   3.028   0.412   3.673  1.0602 -0.9355  0.8653
  833MOL0     H14888   2.896   0.309   3.618  1.0926  2.2984  3.1689
  833MOL0     H14889   2.978   0.433   3.430 -2.1269 -3.6608 -1.7766
  833MOL0     H14890   3.140   0.399   3.491  1.1042 -2.9050  0.1879
  833MOL0     H14891   3.137   0.185   3.411  0.0749  1.5747  2.5405
  833MOL0     H14892   2.964   0.167   3.405  0.7373 -1.3938  0.1956
  833MOL0     H14893   2.928   0.349   3.219  0.6512  0.9894 -2.6106
  833MOL0     H14894   3.094   0.360   3.191 -2.1657  0.8454 -3.5624
  833MOL0     H14895   2.964   0.088   3.155  0.9259 -1.0384  1.0876
  833MOL0     H14896   3.135   0.123   3.154 -2.3174 -3.4289  1.9033
  833MOL0     H14897   2.917   0.238   2.969  0.0945 -1.5881 -0.2547
  833MOL0     H14898   3.068   0.307   2.968  3.7861 -0.3655  1.2670
  833MOL0     H14899   3.021   0.011   2.906 -1.5954  0.5462 -0.1451
  833MOL0     H14900   3.178   0.094   2.906 -0.2336 -3.8463  0.5599
  833MOL0     H14901   2.930   0.153   2.721 -0.4025 -0.9619 -1.2185
  833MOL0     H14902   3.084   0.244   2.706 -3.2787  0.7211 -0.8097
  833MOL0     H14903   3.033  -0.150   2.710 -2.8088  1.3610  0.4417
  833MOL0     H14904   3.177  -0.291   2.390 -2.5970 -0.1123 -3.7585
  833MOL0     H14905   3.004  -0.248   2.374 -0.6524 -1.4475  0.4124
  833MOL0     H14906   3.149  -0.378   2.613 -1.2897  1.0604  2.5804
  833MOL0     H14907   2.977  -0.344   2.623 -1.4137 -0.4564 -1.2812
  833MOL0     H14908   2.927  -0.498   2.442  0.3583  2.9923  1.0614
  833MOL0     H14909   3.103  -0.540   2.420  2.1422 -1.8583  2.4258
  833MOL0     H14910   2.984  -0.553   2.687 -1.6592 -1.5019  0.6742
  833MOL0     H14911   2.954  -0.688   2.564  0.3702  0.8028 -3.2402
  833MOL0     H14912   2.963  -0.849   2.693  0.3440 -0.1840 -2.5056
  833MOL0     H14913   2.982  -1.134   2.910 -2.4616  1.6686  0.6028
  833MOL0     H14914   2.968  -1.180   2.737  0.9655 -0.6467 -0.8095
  833MOL0     H14915   2.893  -1.034   2.808 -0.1611 -0.4885  1.6704
  833MOL0     H14916   3.278  -1.440   2.974 -0.3625  2.3934  0.1261
  833MOL0     H14917   3.411  -1.645   3.040 -0.4225  0.3901  0.1426
  833MOL0     H14918   3.860  -1.619   3.028  0.0107 -0.2208 -0.4535
  833MOL0     H14919   3.775  -1.566   3.179 -0.2430 -1.1821  0.0541
  833MOL0     H14920   3.884  -1.838   3.092 -0.1293 -3.5424  1.3104
  833MOL0     H14921   3.934  -1.759   3.229  0.9027 -1.9017 -2.4748
  833MOL0     H14922   3.800  -1.937   3.311 -0.7941 -0.8898 -0.2493
  833MOL0     H14923   3.695  -1.920   3.169  1.2475 -0.0708  1.0665
  833MOL0     H14924   3.584  -1.875   3.375  0.0478  0.5237  1.1720
  833MOL0     H14925   3.583  -1.720   3.276  2.8963  3.4815  1.5802
  833MOL0     H14926   3.739  -1.621   3.397 -4.0050  0.4076 -2.7032
  833MOL0     H14927   3.634  -1.691   3.526 -2.0900 -0.7861 -1.0651
  833MOL0     H14928   3.909  -1.807   3.438  1.7108  2.0342 -0.3648
  833MOL0     H14929   3.809  -1.869   3.567 -0.9133  0.4833  0.0473
  833MOL0     H14930   3.963  -1.610   3.549 -0.8780  1.4701  0.6535
  833MOL0     H14931   3.988  -1.753   3.656 -1.6918 -3.0877 -1.5431
  833MOL0     H14932   3.762  -1.662   3.765  0.5756 -1.5526  0.2555
  833MOL0     H14933   3.781  -1.516   3.654  0.3430  1.3155  1.6766
  833MOL0     H14934   3.766  -1.415   2.981 -0.6371  2.9396 -0.5226
  833MOL0     H14935   3.637  -1.239   2.868 -1.8571  0.0548 -3.0737
  833MOL0     H14936   3.433  -0.962   2.795  1.8802  3.5171 -2.6832
  833MOL0     H14937   3.370  -0.740   2.708 -1.0344  0.4894  0.1453
  833MOL0     H14938   3.181   0.005   3.787 -1.1231  0.0149 -1.4442
  833MOL0     H14939   3.139  -0.070   4.024 -0.1042 -0.2544  1.5843
  833MOL0     H14940   2.775   0.132   4.506  2.4797  1.3237 -2.2220
  833MOL0     H14941   2.782   0.030   4.714  0.7945  2.1670 -0.4141
  833MOL0     H14942   2.838  -0.197   4.837  0.9326  0.0497  0.5106
  833MOL0     H14943   2.956  -0.251   4.953  0.2558 -1.3826 -0.4660
  833MOL0     H14944   2.778  -0.065   5.041  0.2596 -1.1121 -0.0817
  833MOL0     H14945   2.855   0.050   4.943  1.0356  1.0539  2.5234
  833MOL0     H14946   3.007  -0.143   5.127  3.2357  0.0641 -1.4438
  833MOL0     H14947   3.075  -0.003   5.057  0.7455  1.0663  1.8418
  833MOL0     H14948   3.043   0.070   5.271 -0.1174 -0.1198  0.5095
  833MOL0     H14949   2.874   0.020   5.269 -1.8802 -0.4472 -1.3698
  833MOL0     H14950   2.911   0.420   5.090 -0.2897 -0.0604 -0.9016
  833MOL0     H14951   3.191  -0.088   4.644  0.1607  2.4495  2.2139
  833MOL0     H14952   3.207   0.112   4.330  1.4651 -0.3346 -0.2898
  833MOL0     H14953   3.308   0.026   4.451 -1.3271  0.6323  1.5100
  833MOL0     H14954   3.226  -0.069   4.327  2.5599 -2.4849  2.3918
  834MOL0     O14955   7.455   1.739   6.113 -0.8091 -0.4445 -0.1442
  834MOL0     C14956   7.457   1.717   5.996 -0.1580 -1.0736 -0.3677
  834MOL0     O14957   7.484   1.602   5.934  0.1996  0.5336  0.6591
  834MOL0     C14958   7.501   1.491   6.007  0.9341  0.1884 -0.4183
  834MOL0     C14959   7.630   1.439   6.003  0.4804 -0.0690  0.3653
  834MOL0     C14960   7.659   1.329   6.089 -0.8333  0.3628 -0.5651
  834MOL0     C14961   7.556   1.261   6.144 -0.3612 -0.7330  0.1551
  834MOL0     O14962   7.586   1.150   6.207  0.0158 -0.1842 -0.5051
  834MOL0     C14963   7.483   1.057   6.247  0.9269  0.2059  0.4167
  834MOL0     C14964   7.544   0.933   6.297  0.2158  0.1670  0.7049
  834MOL0     C14965   7.627   0.970   6.421  0.3954  0.2185 -1.0535
  834MOL0     C14966   7.688   0.836   6.480 -0.5441  0.2731 -0.7613
  834MOL0     C14967   7.800   0.868   6.580  0.4844  0.2001  0.9720
  834MOL0     C14968   7.838   0.742   6.662  0.1163  0.8372 -0.5740
  834MOL0     C14969   7.962   0.756   6.741 -0.3566  0.3214 -0.1682
  834MOL0     C14970   8.029   0.630   6.813  0.5810 -0.7700  0.8367
  834MOL0     N14971   8.046   0.532   6.711 -0.6394 -0.3089  0.1726
  834MOL0     C14972   8.136   0.536   6.611  0.0132 -0.7253  0.3762
  834MOL0     C14973   8.120   0.426   6.531 -1.2374  1.3342  0.5002
  834MOL0     C14974   8.235   0.384   6.452 -0.0172  0.2552  0.7514
  834MOL0     C14975   8.212   0.430   6.315 -0.7138  1.0777  0.4786
  834MOL0     C14976   8.312   0.369   6.222 -0.9061  0.2881  0.4415
  834MOL0     C14977   8.266   0.369   6.070 -0.2117  0.2985 -0.0373
  834MOL0     O14978   8.359   0.294   5.988  0.4840 -0.7471  1.0335
  834MOL0     C14979   8.349   0.156   5.969  0.0800  0.3175  0.6515
  834MOL0     C14980   8.276   0.072   6.039  0.0204 -0.8404 -0.1706
  834MOL0     C14981   8.282  -0.067   6.037  0.5895 -0.5488 -0.6237
  834MOL0     C14982   8.203  -0.129   6.150  0.0844  1.4196 -0.0073
  834MOL0     C14983   8.359  -0.125   5.940  0.5947 -0.0858  0.7486
  834MOL0     C14984   8.384  -0.275   5.931  0.3223  0.5977  0.1595
  834MOL0     O14985   8.475  -0.316   5.836  0.5541 -0.3314  1.1448
  834MOL0     C14986   8.480  -0.447   5.811  0.6183  0.1655 -0.6886
  834MOL0     C14987   8.589  -0.518   5.862  0.1198 -0.4677  1.2133
  834MOL0     C14988   8.597  -0.655   5.837  0.0907  0.2230 -0.2696
  834MOL0     C14989   8.499  -0.722   5.751 -0.5520  0.4085 -0.0340
  834MOL0     O14990   8.518  -0.859   5.733 -0.7948 -0.0119 -0.1634
  834MOL0     C14991   8.407  -0.948   5.759  0.5109 -0.4273 -0.1746
  834MOL0     C14992   8.411  -1.073   5.669 -0.2512  0.8009 -1.0007
  834MOL0     C14993   8.426  -1.051   5.529 -0.2990  0.3186  0.6329
  834MOL0     C14994   8.443  -1.191   5.453  0.3668  0.0199  0.7461
  834MOL0     C14995   8.439  -1.164   5.299  0.6850  0.1205  0.1437
  834MOL0     C14996   8.467  -1.289   5.220  0.2684 -0.4917 -0.5211
  834MOL0     C14997   8.602  -1.344   5.202 -0.7001  0.6675  1.0263
  834MOL0     C14998   8.619  -1.428   5.078  0.2246  0.9728  0.0200
  834MOL0    Cl14999   8.527  -1.581   5.100 -0.0671 -0.1854  0.4083
  834MOL0     C15000   8.389  -0.643   5.703  0.2895  0.7973 -0.1793
  834MOL0     C15001   8.379  -0.508   5.734 -0.4341  0.5547  0.0791
  834MOL0     O15002   8.301  -0.355   5.989 -0.5484 -0.2254 -0.8755
  834MOL0     C15003   8.429  -0.048   5.847  0.5887 -0.5169  0.4081
  834MOL0     C15004   8.428   0.092   5.872  0.0294 -0.6064 -0.3469
  834MOL0     N15005   8.011   0.359   6.578 -0.5053 -0.4154  0.3228
  834MOL0     N15006   7.962   0.427   6.676 -0.2600  0.2230 -0.0866
  834MOL0     C15007   7.420   1.300   6.125 -0.7627 -0.5086  0.3732
  834MOL0     C15008   7.396   1.423   6.075  0.1159  0.4288  0.2389
  834MOL0     C15009   7.455   1.832   5.892  0.3318  0.6060 -0.2242
  834MOL0     C15010   7.550   1.828   5.791 -0.1450  0.3609  1.1927
  834MOL0     C15011   7.555   1.924   5.685  0.6931 -0.4893 -0.2452
  834MOL0     C15012   7.464   2.028   5.690  0.6269 -0.1682 -1.0870
  834MOL0     O15013   7.481   2.123   5.595 -0.0637  0.3779 -0.0919
  834MOL0     C15014   7.369   2.198   5.550 -0.3160 -0.5121  0.3927
  834MOL0     C15015   7.384   2.249   5.398 -0.8328  0.9719  0.0447
  834MOL0     C15016   7.287   2.359   5.366 -0.2954 -0.2836  0.0984
  834MOL0     C15017   7.267   2.363   5.214 -0.1452 -0.0904 -0.1389
  834MOL0     C15018   7.183   2.476   5.180  0.4819  0.2454  0.4085
  834MOL0     C15019   7.115   2.573   5.175 -0.0047  0.7418  0.3241
  834MOL0     C15020   7.387   2.051   5.806 -0.5016 -0.0742 -1.0762
  834MOL0     C15021   7.381   1.950   5.905 -0.4844 -0.3648 -0.2659
  834MOL0     C15022   7.292   1.972   6.026  0.2303  0.2445  0.0692
  834MOL0     H15023   7.692   1.503   5.941 -0.2998 -0.0982 -0.4831
  834MOL0     H15024   7.762   1.295   6.096 -0.1359  1.7102 -2.9531
  834MOL0     H15025   7.422   1.025   6.163 -1.8177 -2.1421  3.0685
  834MOL0     H15026   7.422   1.099   6.328 -0.2159 -1.0845  0.2714
  834MOL0     H15027   7.457   0.873   6.325  0.2464 -0.3099 -0.1741
  834MOL0     H15028   7.609   0.887   6.222 -3.3828  1.1904 -3.4240
  834MOL0     H15029   7.711   1.037   6.399  0.7974 -0.4939 -1.7155
  834MOL0     H15030   7.559   1.017   6.494  1.2164  0.4234 -0.4053
  834MOL0     H15031   7.626   0.765   6.536 -2.5398  2.9371  0.6263
  834MOL0     H15032   7.737   0.785   6.397  0.0888  1.2137 -0.9809
  834MOL0     H15033   7.757   0.939   6.651  0.0516 -0.2018  1.1149
  834MOL0     H15034   7.893   0.898   6.529  0.1206 -0.5396 -0.1714
  834MOL0     H15035   7.764   0.719   6.740  1.1296  1.0028  0.4626
  834MOL0     H15036   7.848   0.670   6.580 -1.9270  1.6535 -1.6233
  834MOL0     H15037   7.949   0.840   6.810 -1.2230  1.8162 -2.0508
  834MOL0     H15038   8.045   0.773   6.672  0.1580 -4.2914 -1.0067
  834MOL0     H15039   8.121   0.669   6.856  0.6436  0.0109  0.0333
  834MOL0     H15040   7.959   0.578   6.879 -0.8100 -3.1290 -2.2042
  834MOL0     H15041   8.199   0.623   6.600  0.8199 -1.5157 -1.8694
  834MOL0     H15042   8.225   0.275   6.441  0.2837  0.1556  1.4389
  834MOL0     H15043   8.329   0.408   6.503  0.3153 -2.8096  1.8174
  834MOL0     H15044   8.109   0.428   6.276 -0.0854  2.6095 -1.4664
  834MOL0     H15045   8.246   0.534   6.309 -0.5752  0.9687 -0.9260
  834MOL0     H15046   8.408   0.420   6.234 -0.0226 -1.1048 -0.4918
  834MOL0     H15047   8.341   0.265   6.234  0.0728  0.5895  0.8191
  834MOL0     H15048   8.166   0.324   6.075  0.2393 -0.6139  1.3046
  834MOL0     H15049   8.250   0.469   6.030  2.1995  1.3008  1.2784
  834MOL0     H15050   8.208   0.122   6.107  1.1381  0.1646  0.2564
  834MOL0     H15051   8.167  -0.230   6.131  4.8629 -0.3080 -1.2584
  834MOL0     H15052   8.125  -0.061   6.186  0.4164  1.3483  0.8734
  834MOL0     H15053   8.275  -0.143   6.231  0.6380 -2.3384 -0.9597
  834MOL0     H15054   8.654  -0.444   5.908 -1.0198 -0.3053  2.6402
  834MOL0     H15055   8.686  -0.699   5.880 -1.0503 -0.6610  1.2439
  834MOL0     H15056   8.406  -0.973   5.866  0.7425 -1.7013 -0.4547
  834MOL0     H15057   8.307  -0.908   5.740  0.3726 -2.1295 -3.8001
  834MOL0     H15058   8.485  -1.142   5.709 -1.9416 -0.2573  0.4524
  834MOL0     H15059   8.321  -1.135   5.679 -0.1092  0.6290 -0.7871
  834MOL0     H15060   8.513  -0.989   5.505 -0.1027 -0.6954 -1.4306
  834MOL0     H15061   8.343  -0.994   5.486 -0.8214 -1.2390 -0.4829
  834MOL0     H15062   8.364  -1.263   5.473  1.3131 -0.2097  4.1980
  834MOL0     H15063   8.535  -1.235   5.492 -1.2553 -2.9158  1.5376
  834MOL0     H15064   8.336  -1.133   5.279  0.1532 -2.6153 -1.9653
  834MOL0     H15065   8.511  -1.088   5.268  1.3122 -0.7910 -0.6848
  834MOL0     H15066   8.457  -1.254   5.117 -0.1075  1.5706  0.1763
  834MOL0     H15067   8.393  -1.369   5.230 -0.4332  0.3622  1.7211
  834MOL0     H15068   8.627  -1.406   5.288 -1.6929  0.4358  1.1620
  834MOL0     H15069   8.674  -1.263   5.183  0.3432 -0.4592  0.0336
  834MOL0     H15070   8.721  -1.466   5.065 -0.6035 -2.0705  1.3388
  834MOL0     H15071   8.585  -1.370   4.992 -3.8857 -0.3352  0.5576
  834MOL0     H15072   8.317  -0.685   5.634 -0.9952 -2.2598  2.7537
  834MOL0     H15073   8.301  -0.447   5.691 -0.6285 -0.1985 -0.6833
  834MOL0     H15074   8.498  -0.088   5.774  2.2701  4.7638 -1.3759
  834MOL0     H15075   8.503   0.144   5.812  1.1692 -3.6521 -1.8115
  834MOL0     H15076   7.326   1.253   6.153 -1.8934  1.0622 -0.5634
  834MOL0     H15077   7.294   1.460   6.073 -0.3353 -0.7022 -2.6206
  834MOL0     H15078   7.617   1.744   5.772  3.7983  3.5937 -0.7396
  834MOL0     H15079   7.620   1.918   5.598 -1.1877  1.5014 -1.9161
  834MOL0     H15080   7.271   2.149   5.553 -0.7257  0.1559 -1.2385
  834MOL0     H15081   7.361   2.287   5.613  0.6602  1.1284 -1.6594
  834MOL0     H15082   7.377   2.162   5.332  0.7446  0.5844  0.3383
  834MOL0     H15083   7.486   2.288   5.384  0.3330 -1.6840  0.4694
  834MOL0     H15084   7.190   2.340   5.414  1.2667 -3.6589  2.3143
  834MOL0     H15085   7.336   2.449   5.404  2.6258 -1.3904 -0.8272
  834MOL0     H15086   7.223   2.267   5.184  0.0507 -0.5378  0.9545
  834MOL0     H15087   7.353   2.383   5.150 -1.1268  3.8174 -0.4859
  834MOL0     H15088   7.060   2.662   5.154  2.9278  2.4414 -0.7542
  834MOL0     H15089   7.325   2.139   5.821  0.7286  0.7656 -0.8145
  834MOL0     H15090   7.356   2.005   6.108  1.1017 -1.0144 -0.0792
  834MOL0     H15091   7.219   2.050   6.001 -0.6679 -1.2789 -2.4029
  834MOL0     H15092   7.236   1.881   6.049  1.2618 -0.5469 -0.5165
  835MOL0     O15093   7.744   1.718  10.127 -0.7539 -0.1723 -0.0343
  835MOL0     C15094   7.809   1.650  10.044 -0.2842 -0.1575  0.2151
  835MOL0     O15095   7.930   1.591  10.061 -0.2086  0.1530  0.2536
  835MOL0     C15096   8.036   1.666  10.114  0.2649 -0.0497  0.0231
  835MOL0     C15097   8.166   1.595  10.125 -0.0243 -0.0426  0.7149
  835MOL0     C15098   8.277   1.668  10.177  0.0891  0.0484 -0.2652
  835MOL0     C15099   8.268   1.805  10.201 -1.0566  0.7505  0.2036
  835MOL0     O15100   8.374   1.871  10.262 -0.2260  0.3999 -0.1951
  835MOL0     C15101   8.406   1.998  10.201 -0.4441 -0.1713  0.6508
  835MOL0     C15102   8.552   2.040  10.236 -0.0053  0.1960  0.4840
  835MOL0     C15103   8.654   1.953  10.145 -0.0552  0.1102  0.0886
  835MOL0     C15104   8.789   2.013  10.176  0.2313 -0.9614 -0.1482
  835MOL0     C15105   8.897   1.925  10.109 -0.5235 -0.3306 -0.3341
  835MOL0     C15106   8.882   1.914   9.959 -0.0243  0.7825 -0.4395
  835MOL0     C15107   8.993   1.852   9.869  0.6964  0.1928  0.5465
  835MOL0     C15108   8.982   1.699   9.892  0.2847  0.1169  0.1904
  835MOL0     N15109   9.070   1.660  10.003  0.4257  0.2840 -0.2453
  835MOL0     C15110   9.210   1.641   9.989  0.7902 -0.1709 -0.4896
  835MOL0     C15111   9.253   1.566  10.085  0.4562 -0.1183  0.0210
  835MOL0     C15112   9.385   1.489  10.097  0.5122  0.1911  0.0382
  835MOL0     C15113   9.504   1.585  10.140  0.0706  1.1531  0.4272
  835MOL0     C15114   9.631   1.503  10.170  0.5249 -0.7629 -0.8060
  835MOL0     C15115   9.690   1.425  10.057 -0.2094  0.5225  0.0682
  835MOL0     O15116   9.723   1.496   9.933 -0.8643 -0.7156  0.7744
  835MOL0     C15117   9.845   1.572   9.915  0.5707  0.0181 -0.5834
  835MOL0     C15118   9.853   1.648   9.798 -0.5107  0.2676 -0.1088
  835MOL0     C15119   9.962   1.732   9.766 -0.3928  1.0312 -0.4881
  835MOL0     C15120   9.935   1.811   9.634  0.1319  0.4373 -0.0069
  835MOL0     C15121  10.076   1.721   9.849  1.3899 -0.0918  0.3992
  835MOL0     C15122  10.204   1.794   9.816 -0.3980 -0.1186 -0.0858
  835MOL0     O15123  10.204   1.897   9.727 -0.0289 -0.1846  0.0215
  835MOL0     C15124  10.318   1.966   9.680  0.0958  0.3950 -0.1572
  835MOL0     C15125  10.288   2.059   9.586 -0.1533  1.0683 -0.3877
  835MOL0     C15126  10.391   2.131   9.528  0.5083  0.3190  0.0350
  835MOL0     C15127  10.523   2.114   9.570 -1.1284  0.0247  0.5344
  835MOL0     O15128  10.620   2.178   9.500  0.3824  0.3322 -0.4477
  835MOL0     C15129  10.751   2.111   9.492 -0.6970 -0.2187 -0.1613
  835MOL0     C15130  10.835   2.174   9.380 -0.9855  0.2639  0.3518
  835MOL0     C15131  10.967   2.099   9.365 -0.6687  0.5178 -0.2517
  835MOL0     C15132  11.041   2.172   9.257  0.3473 -0.2915 -0.1682
  835MOL0     C15133  11.021   2.105   9.121 -1.4255  0.0910 -0.1501
  835MOL0     C15134  11.063   2.196   9.007 -0.1803 -0.0233 -0.0146
  835MOL0     C15135  11.051   2.130   8.871 -0.5662 -0.2064 -0.1817
  835MOL0     C15136  11.159   2.198   8.776 -0.3906  0.8252  0.0821
  835MOL0    Cl15137  11.096   2.347   8.702 -0.2953  0.3588  0.4908
  835MOL0     C15138  10.550   2.031   9.680  0.1917 -0.0530  0.4775
  835MOL0     C15139  10.441   1.964   9.739 -0.0619 -0.1575 -0.6665
  835MOL0     O15140  10.304   1.742   9.866  0.6205 -0.9540  0.1938
  835MOL0     C15141  10.068   1.645   9.968 -0.6851 -0.6688  0.0320
  835MOL0     C15142   9.952   1.568  10.004 -0.2031  0.4453 -0.1695
  835MOL0     N15143   9.149   1.547  10.172 -0.0561  0.1463 -0.0565
  835MOL0     N15144   9.035   1.599  10.122 -0.3608 -0.2246 -0.6686
  835MOL0     C15145   8.143   1.869  10.193 -0.9436  0.5171 -0.0288
  835MOL0     C15146   8.030   1.806  10.147  0.0396  0.7518 -0.3028
  835MOL0     C15147   7.751   1.627   9.903 -0.3125 -0.6407 -0.0163
  835MOL0     C15148   7.831   1.652   9.782  0.6721 -0.1172 -0.2588
  835MOL0     C15149   7.767   1.647   9.660 -0.0117 -0.5588  0.6045
  835MOL0     C15150   7.627   1.631   9.650 -0.2641  0.0894 -1.0438
  835MOL0     O15151   7.564   1.639   9.529  0.6069 -0.1021 -0.4905
  835MOL0     C15152   7.501   1.772   9.509 -0.6672 -0.2386 -0.9382
  835MOL0     C15153   7.390   1.795   9.408 -1.0723 -0.3826 -0.9326
  835MOL0     C15154   7.312   1.667   9.373  0.8065 -0.8833 -0.2892
  835MOL0     C15155   7.217   1.679   9.251  0.8066 -0.3872  0.1459
  835MOL0     C15156   7.112   1.776   9.272 -0.1765  0.0310  0.6931
  835MOL0     C15157   7.028   1.859   9.253 -0.1457  1.0275  0.0572
  835MOL0     C15158   7.553   1.600   9.765  0.3208 -0.1945 -0.0238
  835MOL0     C15159   7.617   1.592   9.891 -0.0858  0.3923  1.5532
  835MOL0     C15160   7.531   1.545  10.012 -0.1499 -0.8066  0.5044
  835MOL0     H15161   8.177   1.495  10.084  2.4833  1.3233 -2.4045
  835MOL0     H15162   8.366   1.612  10.203  0.0880  0.3366  0.3869
  835MOL0     H15163   8.344   2.075  10.248  1.6055  1.8637  0.2352
  835MOL0     H15164   8.395   1.990  10.093  0.5067 -2.1316  0.6595
  835MOL0     H15165   8.573   2.146  10.218 -0.0235  0.4224  1.7111
  835MOL0     H15166   8.562   2.024  10.344 -1.7661  0.6010  0.7462
  835MOL0     H15167   8.650   1.845  10.161  0.7747 -0.0382 -0.6096
  835MOL0     H15168   8.626   1.974  10.041 -0.2843  2.1753  0.5323
  835MOL0     H15169   8.794   2.117  10.141 -5.0786 -0.4052 -0.1842
  835MOL0     H15170   8.795   2.015  10.285 -0.1835  0.0812 -0.1299
  835MOL0     H15171   8.888   1.820  10.139 -1.8476 -0.4379 -1.0371
  835MOL0     H15172   8.999   1.957  10.133 -0.5199  0.9795 -1.9563
  835MOL0     H15173   8.786   1.868   9.935 -1.7978  3.4247  1.0410
  835MOL0     H15174   8.870   2.019   9.930 -0.5768  0.9570  0.3911
  835MOL0     H15175   9.086   1.905   9.890  0.4310  0.0900  2.1064
  835MOL0     H15176   8.962   1.877   9.767  0.3257 -0.8669  0.3865
  835MOL0     H15177   8.877   1.669   9.897  0.9321 -2.6416 -1.0474
  835MOL0     H15178   9.007   1.647   9.799 -1.0646  0.5035 -0.4147
  835MOL0     H15179   9.267   1.667   9.901  0.3655 -2.8489 -1.6364
  835MOL0     H15180   9.408   1.450   9.997  0.4964 -2.1105  0.8777
  835MOL0     H15181   9.369   1.400  10.158 -4.0275 -0.9670 -2.3513
  835MOL0     H15182   9.525   1.648  10.053 -0.5154 -0.3218 -0.8300
  835MOL0     H15183   9.477   1.637  10.232  1.5182  2.9742 -0.1335
  835MOL0     H15184   9.702   1.576  10.209  1.8935  0.0019 -4.4127
  835MOL0     H15185   9.617   1.430  10.251  4.8545 -0.2495  0.6763
  835MOL0     H15186   9.782   1.373  10.086  0.3075 -0.2095 -2.6368
  835MOL0     H15187   9.617   1.349  10.027 -1.5451  2.4391 -1.8297
  835MOL0     H15188   9.765   1.655   9.735  2.0159  1.8593 -3.7640
  835MOL0     H15189  10.004   1.793   9.551  0.8447  0.3866  0.5931
  835MOL0     H15190   9.946   1.920   9.645  2.9877  0.2287 -0.1109
  835MOL0     H15191   9.834   1.795   9.596  0.9193 -2.6158 -1.0662
  835MOL0     H15192  10.186   2.061   9.551 -1.2568 -5.0460  1.3116
  835MOL0     H15193  10.371   2.187   9.437 -3.8554  0.1787  0.6671
  835MOL0     H15194  10.796   2.119   9.591  2.3337  0.5556 -1.4766
  835MOL0     H15195  10.744   2.007   9.460 -1.8620  0.6284 -2.9863
  835MOL0     H15196  10.779   2.165   9.287 -0.8239  0.1943  0.2624
  835MOL0     H15197  10.857   2.277   9.409  1.7749 -0.0561 -0.3563
  835MOL0     H15198  10.954   1.994   9.338 -0.6838  0.3800  0.2727
  835MOL0     H15199  11.015   2.105   9.463  1.9012  2.1774 -1.5056
  835MOL0     H15200  11.144   2.175   9.293  0.0225  0.0635  0.7540
  835MOL0     H15201  10.994   2.270   9.243 -2.9083 -1.3793  1.9301
  835MOL0     H15202  11.070   2.008   9.111  0.3072  1.0451 -1.3428
  835MOL0     H15203  10.913   2.087   9.109 -1.3297 -0.2995 -0.4306
  835MOL0     H15204  11.166   2.215   9.042 -0.1955  1.3969 -0.6814
  835MOL0     H15205  11.002   2.286   9.008  0.0882  0.2010 -1.7392
  835MOL0     H15206  10.952   2.162   8.837 -0.9038 -0.8996  0.1343
  835MOL0     H15207  11.065   2.022   8.875 -0.5963 -0.2535 -1.2009
  835MOL0     H15208  11.194   2.132   8.696 -2.3489 -0.7935  0.4715
  835MOL0     H15209  11.246   2.219   8.840  1.2812 -3.6956 -0.2918
  835MOL0     H15210  10.651   2.019   9.716  1.9576  0.7863 -3.6280
  835MOL0     H15211  10.476   1.904   9.822  3.1410  0.3783 -1.4996
  835MOL0     H15212  10.153   1.628  10.034  0.1802  0.1517 -0.8457
  835MOL0     H15213   9.948   1.504  10.091  0.8485 -1.1580 -1.2604
  835MOL0     H15214   8.129   1.965  10.243 -1.1911  2.1857 -3.0939
  835MOL0     H15215   7.940   1.866  10.134  0.4358  0.7030 -5.2405
  835MOL0     H15216   7.933   1.688   9.778  0.8304 -0.5760 -0.3727
  835MOL0     H15217   7.823   1.671   9.569 -0.8069  0.8772  0.4687
  835MOL0     H15218   7.463   1.789   9.610  1.2612  0.2334 -0.2636
  835MOL0     H15219   7.574   1.852   9.493  1.6895 -1.5580  2.2283
  835MOL0     H15220   7.448   1.821   9.319  0.3641 -0.8021 -0.1464
  835MOL0     H15221   7.330   1.876   9.450  1.6138  0.4101  1.6850
  835MOL0     H15222   7.382   1.585   9.356  1.0925 -0.4752 -1.1420
  835MOL0     H15223   7.239   1.642   9.451  1.2044  1.0567  0.7612
  835MOL0     H15224   7.179   1.578   9.233 -0.7317  0.3624 -1.0161
  835MOL0     H15225   7.268   1.715   9.161 -1.2353  3.8858  0.4219
  835MOL0     H15226   6.957   1.938   9.239 -1.6679 -0.7292 -3.1238
  835MOL0     H15227   7.445   1.590   9.757  0.3216 -0.0786 -0.1785
  835MOL0     H15228   7.480   1.629  10.060  0.7365  1.1946 -1.8515
  835MOL0     H15229   7.449   1.480   9.982 -2.7180  1.6902  1.6202
  835MOL0     H15230   7.592   1.494  10.087  2.2800 -0.5122 -1.1392
  836MOL0     O15231   0.073  10.473   1.674  0.6784  0.0104 -0.0187
  836MOL0     C15232   0.128  10.375   1.704 -0.8677 -0.3077  0.3634
  836MOL0     O15233   0.064  10.253   1.724 -0.2858 -0.8567  0.6416
  836MOL0     C15234  -0.069  10.240   1.762  0.3999  0.6102 -0.8477
  836MOL0     C15235  -0.171  10.291   1.686  0.5041  0.7056  0.6576
  836MOL0     C15236  -0.296  10.262   1.712  0.3043 -0.4348 -0.5791
  836MOL0     C15237  -0.334  10.185   1.826  0.9982  0.2432 -0.3086
  836MOL0     O15238  -0.466  10.167   1.851 -0.1681 -0.1703  0.5311
  836MOL0     C15239  -0.561  10.151   1.737  0.1098  0.3291  0.1428
  836MOL0     C15240  -0.682  10.071   1.785  0.3942  0.7081 -0.1157
  836MOL0     C15241  -0.672   9.926   1.758 -0.2616 -0.3464  0.0149
  836MOL0     C15242  -0.788   9.842   1.809 -0.0565  0.0552  0.3561
  836MOL0     C15243  -0.771   9.699   1.755  0.4589 -0.0314 -0.2523
  836MOL0     C15244  -0.765   9.594   1.870 -0.0746  0.1094 -0.0893
  836MOL0     C15245  -0.733   9.456   1.823 -0.3203  0.1672 -0.6749
  836MOL0     C15246  -0.838   9.390   1.743 -0.2347 -0.3832  0.0733
  836MOL0     N15247  -0.822   9.239   1.741 -0.2874 -0.2629  0.3087
  836MOL0     C15248  -0.708   9.171   1.754  0.5929  0.8609 -0.0649
  836MOL0     C15249  -0.744   9.039   1.738  0.3399  0.5734 -0.5652
  836MOL0     C15250  -0.665   8.916   1.743  0.1438  0.0410  0.4296
  836MOL0     C15251  -0.663   8.836   1.604 -0.5599 -0.0851 -0.0309
  836MOL0     C15252  -0.623   8.916   1.472 -0.5705 -1.3215  0.7608
  836MOL0     C15253  -0.648   8.835   1.341  0.3041  0.6474  0.6109
  836MOL0     O15254  -0.600   8.921   1.236 -0.4829  0.9813  0.5569
  836MOL0     C15255  -0.630   8.900   1.105 -0.1013  0.3603  0.0119
  836MOL0     C15256  -0.756   8.836   1.071 -0.1415  0.7069  0.7577
  836MOL0     C15257  -0.796   8.818   0.934 -0.1911 -0.9584 -0.0378
  836MOL0     C15258  -0.923   8.745   0.919  0.4806 -0.5868  0.0439
  836MOL0     C15259  -0.700   8.879   0.841  0.6507 -0.1297 -0.0935
  836MOL0     C15260  -0.727   8.867   0.693 -0.1763  0.0411  0.2658
  836MOL0     O15261  -0.664   8.947   0.608 -0.5464 -0.1758 -0.2844
  836MOL0     C15262  -0.687   8.954   0.474  0.1068 -0.2289  0.8643
  836MOL0     C15263  -0.809   8.915   0.414  0.9959  1.2657  0.0878
  836MOL0     C15264  -0.824   8.906   0.271  0.4523  1.0105 -0.1151
  836MOL0     C15265  -0.716   8.924   0.186 -0.8290 -0.1869 -0.1630
  836MOL0     O15266  -0.745   8.904   0.055 -0.5236 -0.2677 -0.6028
  836MOL0     C15267  -0.634   8.906  -0.040 -0.5645  0.0343 -0.1846
  836MOL0     C15268  -0.687   8.868  -0.175 -1.1334 -0.9428 -0.8030
  836MOL0     C15269  -0.778   8.974  -0.242  0.4576 -0.7383 -0.3436
  836MOL0     C15270  -0.874   8.921  -0.349 -0.3253 -0.3705 -0.1709
  836MOL0     C15271  -0.951   9.031  -0.413 -0.3092  0.7583 -0.3721
  836MOL0     C15272  -1.051   8.981  -0.515 -0.5298  0.0734 -0.9130
  836MOL0     C15273  -1.161   9.087  -0.527  0.1913 -0.3248 -0.2698
  836MOL0     C15274  -1.284   9.048  -0.613 -0.0336 -0.0173  0.0940
  836MOL0    Cl15275  -1.385   9.199  -0.627 -0.3350  0.1704  0.0053
  836MOL0     C15276  -0.593   8.961   0.250  0.8385 -0.6585  0.1078
  836MOL0     C15277  -0.581   8.972   0.388 -0.1725 -0.7564  0.3671
  836MOL0     O15278  -0.785   8.769   0.647 -0.0589 -0.5447 -0.0908
  836MOL0     C15279  -0.581   8.937   0.877 -0.2062  0.4930 -0.1547
  836MOL0     C15280  -0.545   8.952   1.008 -0.2621 -1.4674  0.0703
  836MOL0     N15281  -0.879   9.028   1.715  0.6057 -0.6066  0.2804
  836MOL0     N15282  -0.923   9.153   1.719  0.7193  1.0538  0.9948
  836MOL0     C15283  -0.233  10.128   1.900  0.5074 -0.4149  0.8377
  836MOL0     C15284  -0.101  10.154   1.869  1.4743  0.1050  0.3798
  836MOL0     C15285   0.284  10.367   1.689  0.0994 -0.1972  0.4772
  836MOL0     C15286   0.342  10.250   1.637 -0.1809  0.6001 -0.1227
  836MOL0     C15287   0.479  10.234   1.634  0.6386 -0.7002 -0.3031
  836MOL0     C15288   0.568  10.334   1.681  1.1953 -0.6032 -0.0112
  836MOL0     O15289   0.701  10.309   1.678  0.2533  0.0269  0.2207
  836MOL0     C15290   0.795  10.405   1.737 -0.3771 -0.7347 -0.0028
  836MOL0     C15291   0.935  10.345   1.703  0.7277  0.4061  0.0980
  836MOL0     C15292   0.973  10.194   1.722  0.7564  0.1710  0.4427
  836MOL0     C15293   1.086  10.155   1.629 -0.5709 -0.2922  0.6699
  836MOL0     C15294   1.037  10.152   1.492  0.3434 -0.8686  0.1435
  836MOL0     C15295   1.010  10.147   1.375 -0.4930 -0.2685 -0.0897
  836MOL0     C15296   0.505  10.454   1.715  0.2407  1.1553  0.7618
  836MOL0     C15297   0.367  10.473   1.725  0.4979 -1.0702  0.2731
  836MOL0     C15298   0.322  10.601   1.774  0.0760  0.0151 -0.7222
  836MOL0     H15299  -0.146  10.349   1.598  1.7972  1.4370  1.4783
  836MOL0     H15300  -0.374  10.299   1.646 -1.0244 -0.6416  0.8032
  836MOL0     H15301  -0.524  10.090   1.654 -1.7480 -1.0053  0.2518
  836MOL0     H15302  -0.609  10.242   1.698  1.1749 -0.6641 -4.0027
  836MOL0     H15303  -0.692  10.074   1.894 -0.3723 -3.1367  0.0546
  836MOL0     H15304  -0.770  10.123   1.744 -0.4443 -1.6529 -1.5088
  836MOL0     H15305  -0.649   9.903   1.653  1.7611 -3.8314  1.0616
  836MOL0     H15306  -0.583   9.887   1.808  0.1705 -1.3666 -1.5063
  836MOL0     H15307  -0.785   9.844   1.919  0.8141  2.4628  0.3398
  836MOL0     H15308  -0.882   9.876   1.765 -1.3857 -1.2189  2.0119
  836MOL0     H15309  -0.686   9.697   1.686 -1.2125  4.0776 -2.8006
  836MOL0     H15310  -0.853   9.671   1.687  2.6590 -1.5872 -2.4442
  836MOL0     H15311  -0.678   9.620   1.931 -0.3249  1.8636 -0.4313
  836MOL0     H15312  -0.866   9.590   1.911  0.8082  2.7107  2.7178
  836MOL0     H15313  -0.704   9.394   1.908 -2.7781 -3.1597 -2.0944
  836MOL0     H15314  -0.645   9.457   1.758  1.0926 -0.9307  1.1020
  836MOL0     H15315  -0.938   9.415   1.781  0.0372 -1.3213  1.5030
  836MOL0     H15316  -0.826   9.432   1.643  1.9213 -1.0665  0.0013
  836MOL0     H15317  -0.612   9.220   1.746 -0.1447  2.4920  0.7677
  836MOL0     H15318  -0.709   8.839   1.807  2.9061 -1.0154  1.2385
  836MOL0     H15319  -0.568   8.939   1.789  0.1408 -0.3417  0.6356
  836MOL0     H15320  -0.595   8.751   1.615  1.2472  1.0182 -2.0746
  836MOL0     H15321  -0.763   8.803   1.572 -0.7938 -0.5187  1.0742
  836MOL0     H15322  -0.676   9.010   1.462  2.4050  0.5022  0.7832
  836MOL0     H15323  -0.518   8.945   1.485 -0.3775 -1.2230 -0.8256
  836MOL0     H15324  -0.597   8.739   1.355 -0.5528  0.1360  0.3434
  836MOL0     H15325  -0.753   8.806   1.333  0.9937 -1.4669 -2.3067
  836MOL0     H15326  -0.824   8.802   1.149  0.5289  1.7224  1.8283
  836MOL0     H15327  -0.992   8.808   0.861  0.6452 -1.6882 -1.4132
  836MOL0     H15328  -0.977   8.704   1.005 -1.5695 -3.8413 -2.5071
  836MOL0     H15329  -0.905   8.656   0.858  2.8948 -0.7735  0.9487
  836MOL0     H15330  -0.900   8.889   0.467 -0.1771 -1.8469 -3.0332
  836MOL0     H15331  -0.912   8.882   0.214  0.8767  1.0082 -0.7833
  836MOL0     H15332  -0.594   9.008  -0.031 -1.9056  0.5518  0.1660
  836MOL0     H15333  -0.549   8.839  -0.023  0.6447  1.8418  1.4025
  836MOL0     H15334  -0.600   8.855  -0.241 -0.4111 -0.2739  0.0011
  836MOL0     H15335  -0.743   8.778  -0.148 -0.8222 -1.4100 -1.6588
  836MOL0     H15336  -0.708   9.054  -0.270  2.0174 -2.2121 -0.7909
  836MOL0     H15337  -0.835   9.021  -0.161  2.9061  3.6195 -0.8129
  836MOL0     H15338  -0.945   8.846  -0.312  1.3927 -0.5705  3.0793
  836MOL0     H15339  -0.820   8.873  -0.431  0.4096  0.6207 -0.2928
  836MOL0     H15340  -1.007   9.067  -0.327 -1.7994 -5.7494  1.9594
  836MOL0     H15341  -0.884   9.110  -0.447  2.4181 -1.4709 -0.4761
  836MOL0     H15342  -1.107   8.892  -0.486 -2.8003  1.5572 -0.4933
  836MOL0     H15343  -0.997   8.957  -0.607 -0.4763 -0.5784 -0.7157
  836MOL0     H15344  -1.113   9.176  -0.568  1.5608 -0.7083  0.4259
  836MOL0     H15345  -1.193   9.098  -0.423  1.9238 -2.5222  0.5855
  836MOL0     H15346  -1.348   8.970  -0.572 -0.1759  2.2103  4.8521
  836MOL0     H15347  -1.239   9.019  -0.708 -2.5956 -6.7402  0.4036
  836MOL0     H15348  -0.505   8.991   0.193  0.7608  1.7995  1.1299
  836MOL0     H15349  -0.481   8.997   0.423  0.5830 -0.3527 -1.8732
  836MOL0     H15350  -0.509   8.977   0.806 -0.7281 -2.6411 -2.7123
  836MOL0     H15351  -0.463   9.008   1.052 -1.6253  1.1893 -0.6230
  836MOL0     H15352  -0.247  10.051   1.976  3.2336 -2.5037 -0.6407
  836MOL0     H15353  -0.018  10.106   1.919 -0.9713 -0.4383  4.3046
  836MOL0     H15354   0.289  10.161   1.605  2.6608 -0.6184 -1.9534
  836MOL0     H15355   0.520  10.145   1.589  2.2349 -0.8762  1.3880
  836MOL0     H15356   0.793  10.505   1.693 -0.0497  0.0455  1.6663
  836MOL0     H15357   0.782  10.432   1.842  0.6289 -1.6431  0.3738
  836MOL0     H15358   1.012  10.402   1.755  0.0253  0.4310  1.1578
  836MOL0     H15359   0.958  10.377   1.601  0.6526  1.6199  0.4369
  836MOL0     H15360   1.006  10.193   1.827  3.0320  1.2555 -0.1945
  836MOL0     H15361   0.885  10.132   1.707  1.1652 -0.3616  0.2176
  836MOL0     H15362   1.115  10.052   1.653  1.0727  0.1189  0.5828
  836MOL0     H15363   1.171  10.224   1.638 -1.3932  0.7101  1.0247
  836MOL0     H15364   0.987  10.141   1.270  2.4204 -0.4784 -0.7935
  836MOL0     H15365   0.567  10.538   1.747 -0.0030  2.9675 -2.9524
  836MOL0     H15366   0.259  10.590   1.863 -0.5210  0.0486 -1.1314
  836MOL0     H15367   0.405  10.662   1.809 -1.9990  2.4834  0.1835
  836MOL0     H15368   0.267  10.664   1.703  0.6057 -0.6237 -1.7266
  837MOL0     O15369   8.259   3.973  11.249 -0.1147 -0.3906  0.5125
  837MOL0     C15370   8.323   4.001  11.147  0.4920  0.0137 -1.0745
  837MOL0     O15371   8.363   4.121  11.115  0.3144  1.0258  0.8737
  837MOL0     C15372   8.336   4.244  11.171  0.5026  0.2473  0.5308
  837MOL0     C15373   8.387   4.355  11.103 -0.2510  1.1078  0.0781
  837MOL0     C15374   8.361   4.482  11.142  0.0011  0.3213  0.0265
  837MOL0     C15375   8.294   4.508  11.261 -0.4861  0.5767 -0.0444
  837MOL0     O15376   8.284   4.631  11.327 -0.6964 -0.0422  0.4585
  837MOL0     C15377   8.307   4.751  11.246  0.3774  0.9057 -0.2103
  837MOL0     C15378   8.187   4.760  11.149  0.6521 -0.1904  0.0056
  837MOL0     C15379   8.195   4.899  11.080  0.3706  0.5196  1.0687
  837MOL0     C15380   8.059   4.909  10.987 -0.8422  0.1930 -0.5990
  837MOL0     C15381   8.048   5.037  10.912  0.3365  0.4224  0.4977
  837MOL0     C15382   8.014   5.152  11.008  0.6730 -0.3744 -0.5473
  837MOL0     C15383   7.864   5.146  11.032 -0.5642  0.0526 -0.1514
  837MOL0     C15384   7.828   5.260  11.119  0.6952  0.2404  0.4720
  837MOL0     N15385   7.814   5.388  11.040 -0.0981  0.5402  0.6650
  837MOL0     C15386   7.904   5.490  11.056 -0.1462  0.6507 -0.2627
  837MOL0     C15387   7.837   5.590  11.000  0.9412 -0.2237 -0.1837
  837MOL0     C15388   7.892   5.728  11.016 -0.3653  0.3963  0.4638
  837MOL0     C15389   8.001   5.747  10.900  0.3865  0.7256  0.0235
  837MOL0     C15390   8.075   5.878  10.908  0.0024  0.3464  0.6662
  837MOL0     C15391   8.145   5.904  10.775 -0.5285  0.1476 -0.0376
  837MOL0     O15392   8.151   6.042  10.755 -0.3714 -0.5924 -0.8697
  837MOL0     C15393   8.139   6.100  10.635 -0.3474  0.5031  0.8300
  837MOL0     C15394   8.166   6.037  10.504  0.6489  0.2289  0.0882
  837MOL0     C15395   8.140   6.111  10.389  0.9479  0.0127 -0.8108
  837MOL0     C15396   8.164   6.054  10.251  0.8449 -0.2174 -0.5012
  837MOL0     C15397   8.102   6.248  10.401  0.4260 -0.1074 -0.0559
  837MOL0     C15398   8.089   6.337  10.274  0.9683 -0.4250 -0.2696
  837MOL0     O15399   8.133   6.460  10.283  0.2140 -0.9860 -0.1683
  837MOL0     C15400   8.170   6.526  10.167  0.1982  0.2595  0.0082
  837MOL0     C15401   8.067   6.560  10.072 -0.0921  0.1453  0.2904
  837MOL0     C15402   8.108   6.620   9.952  1.0400 -0.5244 -0.1486
  837MOL0     C15403   8.241   6.653   9.928  0.9768  0.2989  0.3890
  837MOL0     O15404   8.277   6.707   9.807 -0.0669  0.3784 -0.6481
  837MOL0     C15405   8.406   6.669   9.769  0.8798 -0.8584  1.0939
  837MOL0     C15406   8.428   6.673   9.617  0.0623 -0.4878 -0.3798
  837MOL0     C15407   8.382   6.802   9.564 -0.1090  0.1222  0.1279
  837MOL0     C15408   8.432   6.831   9.425  0.0472  0.6388 -0.1767
  837MOL0     C15409   8.391   6.964   9.373  0.8572  0.5463  0.0907
  837MOL0     C15410   8.456   6.997   9.238  0.0132  0.2653  0.1206
  837MOL0     C15411   8.447   6.883   9.122  0.1222  0.4527 -0.4324
  837MOL0     C15412   8.484   6.957   8.996  0.3752  0.5698 -0.3444
  837MOL0    Cl15413   8.651   7.009   8.977 -0.6634  0.0683 -0.1465
  837MOL0     C15414   8.323   6.638  10.041 -1.5919  0.1463  1.3286
  837MOL0     C15415   8.293   6.578  10.157 -0.5187 -0.7288 -0.2711
  837MOL0     O15416   8.018   6.298  10.183  0.3108  0.7008  0.4704
  837MOL0     C15417   8.108   6.308  10.528  0.5895  0.4069  0.7873
  837MOL0     C15418   8.118   6.235  10.646  0.1278 -0.1927  0.7188
  837MOL0     N15419   7.730   5.553  10.935  0.3459 -1.0240 -0.2175
  837MOL0     N15420   7.711   5.434  10.972  0.6810  0.0186 -0.1917
  837MOL0     C15421   8.265   4.397  11.343  0.3010 -0.0019 -1.3851
  837MOL0     C15422   8.277   4.265  11.297  1.3007 -1.0233  0.1699
  837MOL0     C15423   8.348   3.892  11.052 -0.2155  0.1135  0.5272
  837MOL0     C15424   8.384   3.933  10.922 -0.4674  0.1325  1.0290
  837MOL0     C15425   8.418   3.846  10.818  1.1539  1.9341  0.3825
  837MOL0     C15426   8.414   3.708  10.851 -0.1473 -0.0839  0.0601
  837MOL0     O15427   8.456   3.623  10.753 -0.3169 -0.6562  0.3164
  837MOL0     C15428   8.601   3.614  10.741  0.2198 -0.4174 -0.7992
  837MOL0     C15429   8.659   3.688  10.627  0.6914  0.4736 -0.8352
  837MOL0     C15430   8.608   3.647  10.489 -0.2347  0.3428 -0.8491
  837MOL0     C15431   8.666   3.738  10.384  0.3834 -0.6211  0.0585
  837MOL0     C15432   8.810   3.717  10.361  0.4014 -0.2885 -0.0427
  837MOL0     C15433   8.931   3.693  10.339  0.5038  0.6432  0.0239
  837MOL0     C15434   8.380   3.670  10.980  0.4861  0.6442 -0.6165
  837MOL0     C15435   8.348   3.757  11.086 -0.1688  0.4782 -0.0171
  837MOL0     C15436   8.321   3.694  11.220  0.0806 -0.1568 -0.1860
  837MOL0     H15437   8.436   4.343  11.007 -2.5372  1.8801 -1.2721
  837MOL0     H15438   8.399   4.558  11.074 -0.1637  1.7295  1.4519
  837MOL0     H15439   8.394   4.741  11.180 -0.7381 -3.1301 -1.3319
  837MOL0     H15440   8.315   4.842  11.306  0.8622  0.4392  0.4444
  837MOL0     H15441   8.197   4.683  11.072 -0.7603  0.2600 -0.6605
  837MOL0     H15442   8.095   4.742  11.205  3.4612 -1.3443  4.8844
  837MOL0     H15443   8.212   4.978  11.154  1.8734  0.0050  1.3055
  837MOL0     H15444   8.284   4.903  11.016  1.6682 -0.8813  2.6982
  837MOL0     H15445   8.080   4.835  10.909  1.9329  2.1470 -1.8967
  837MOL0     H15446   7.971   4.880  11.045 -0.6149 -0.5966 -0.6388
  837MOL0     H15447   7.974   5.034  10.832 -1.0853 -0.9517  1.7854
  837MOL0     H15448   8.146   5.061  10.871  0.9857 -3.0034 -0.2806
  837MOL0     H15449   8.049   5.144  11.111  0.2292  2.6529 -0.0689
  837MOL0     H15450   8.049   5.246  10.965 -1.0747  0.5069 -0.1309
  837MOL0     H15451   7.846   5.051  11.082 -0.3390  0.2513  0.3126
  837MOL0     H15452   7.811   5.146  10.936 -0.6787 -4.2888 -0.2625
  837MOL0     H15453   7.728   5.241  11.158  0.3017  0.0642 -0.5957
  837MOL0     H15454   7.897   5.268  11.204  1.7022 -1.0026 -0.1774
  837MOL0     H15455   7.987   5.478  11.124 -0.9103  3.0862  1.1991
  837MOL0     H15456   7.937   5.743  11.115  1.6953 -0.1322 -0.3279
  837MOL0     H15457   7.819   5.809  11.009  3.2250  3.9111 -0.2053
  837MOL0     H15458   8.071   5.664  10.891  0.2491  0.3914  1.7529
  837MOL0     H15459   7.938   5.744  10.811 -0.8283 -0.1593  0.8898
  837MOL0     H15460   8.012   5.965  10.932  0.8139  1.6259 -1.5472
  837MOL0     H15461   8.152   5.875  10.985 -2.6922 -1.0299  3.5760
  837MOL0     H15462   8.243   5.856  10.767 -2.2018 -3.3417 -1.8761
  837MOL0     H15463   8.084   5.869  10.692 -2.1285  3.0557 -0.2302
  837MOL0     H15464   8.199   5.935  10.488 -2.5465 -1.2417  2.0498
  837MOL0     H15465   8.067   6.017  10.216  2.3372 -1.8568 -3.2641
  837MOL0     H15466   8.241   5.976  10.258  0.3770 -0.5863  0.8086
  837MOL0     H15467   8.201   6.130  10.182 -0.8552  1.2149  0.0880
  837MOL0     H15468   7.967   6.524  10.096  0.2345  0.1350  1.7052
  837MOL0     H15469   8.032   6.640   9.876 -0.0117  1.4875  1.3246
  837MOL0     H15470   8.471   6.743   9.816  2.1234  0.4519 -2.3436
  837MOL0     H15471   8.435   6.568   9.798  0.9331 -1.0164  0.4972
  837MOL0     H15472   8.530   6.637   9.600 -0.8015 -2.3265 -2.1370
  837MOL0     H15473   8.370   6.594   9.567 -1.5799  0.5193 -0.1297
  837MOL0     H15474   8.422   6.873   9.638 -0.6404 -1.7543  2.3350
  837MOL0     H15475   8.273   6.814   9.567 -0.5407 -2.9260  3.1658
  837MOL0     H15476   8.383   6.749   9.373 -0.1972  0.2638  0.6388
  837MOL0     H15477   8.541   6.827   9.430  0.3481  0.3463 -3.9565
  837MOL0     H15478   8.282   6.959   9.363  0.9647  1.3180 -1.8878
  837MOL0     H15479   8.399   7.035   9.456  0.9716  1.2148 -0.4847
  837MOL0     H15480   8.564   7.006   9.250  0.2223 -2.0767  0.4147
  837MOL0     H15481   8.414   7.092   9.204 -3.2912 -1.1773 -0.2022
  837MOL0     H15482   8.349   6.835   9.117 -1.0340  1.3287  5.8702
  837MOL0     H15483   8.517   6.799   9.131  0.3215  0.4489 -1.7655
  837MOL0     H15484   8.418   7.043   8.983  0.5132  0.6312 -0.6487
  837MOL0     H15485   8.471   6.890   8.910  1.2041  2.1635 -1.7926
  837MOL0     H15486   8.424   6.678  10.042 -1.6965  0.4002  1.9882
  837MOL0     H15487   8.357   6.569  10.244 -2.1610 -1.8484  0.8868
  837MOL0     H15488   8.092   6.415  10.522  2.2962  0.7589  1.7775
  837MOL0     H15489   8.121   6.285  10.742  0.1091 -2.2146  1.8313
  837MOL0     H15490   8.220   4.418  11.440  1.7736 -0.9355 -0.4486
  837MOL0     H15491   8.245   4.179  11.355 -2.2911 -0.0604 -0.1171
  837MOL0     H15492   8.381   4.039  10.896  1.7483 -0.4913 -2.4883
  837MOL0     H15493   8.414   3.883  10.716 -0.3510 -3.3921 -1.8342
  837MOL0     H15494   8.645   3.657  10.832 -1.1814  0.0655 -0.3150
  837MOL0     H15495   8.640   3.512  10.733  1.0334 -0.0956 -1.0538
  837MOL0     H15496   8.767   3.672  10.622  0.4576 -1.2140 -1.2674
  837MOL0     H15497   8.636   3.793  10.648 -1.1497 -0.2897  1.4372
  837MOL0     H15498   8.625   3.541  10.466 -1.5063 -0.1311  0.2481
  837MOL0     H15499   8.501   3.664  10.483 -0.5131 -0.6484  0.6748
  837MOL0     H15500   8.663   3.843  10.415  3.8696 -0.3274 -0.2345
  837MOL0     H15501   8.621   3.733  10.284 -1.9368  0.8095  0.9516
  837MOL0     H15502   9.030   3.669  10.306  0.9084  1.3082  0.7323
  837MOL0     H15503   8.376   3.564  11.004  2.7409  0.1362 -2.0810
  837MOL0     H15504   8.371   3.744  11.304  0.3633 -2.0741  0.8284
  837MOL0     H15505   8.213   3.689  11.233  0.3289  0.5577  3.0431
  837MOL0     H15506   8.362   3.593  11.217  2.4904  0.7409 -0.8959
  838MOL0     O15507   4.497   7.198  10.457  0.5952 -0.3984 -0.0747
  838MOL0     C15508   4.407   7.261  10.390  0.3706 -0.0530 -0.3324
  838MOL0     O15509   4.390   7.396  10.386  0.0162 -0.4238 -0.0617
  838MOL0     C15510   4.499   7.476  10.411 -0.1976  0.0153  0.9694
  838MOL0     C15511   4.595   7.507  10.316 -0.2731  0.3044  0.6044
  838MOL0     C15512   4.712   7.571  10.342 -0.4388  0.4746 -1.4094
  838MOL0     C15513   4.731   7.615  10.469 -0.4116  0.4854 -0.3015
  838MOL0     O15514   4.831   7.708  10.483 -0.2595 -0.1303 -0.2585
  838MOL0     C15515   4.837   7.807  10.590  0.8797  0.6915  0.5842
  838MOL0     C15516   4.966   7.896  10.586 -0.9511  0.1041 -0.2199
  838MOL0     C15517   5.083   7.824  10.646 -0.4189  0.2162 -0.4417
  838MOL0     C15518   5.194   7.802  10.546 -0.4142  0.1693  0.1933
  838MOL0     C15519   5.315   7.756  10.618 -0.2216  0.3496 -0.3290
  838MOL0     C15520   5.433   7.724  10.539 -0.4079 -0.2793  0.2801
  838MOL0     C15521   5.556   7.683  10.632  1.4318  0.1023  0.3061
  838MOL0     C15522   5.677   7.650  10.542  0.3233  0.8473 -0.3766
  838MOL0     N15523   5.691   7.747  10.430  0.7631  0.2992 -0.2044
  838MOL0     C15524   5.761   7.872  10.430 -0.1529 -0.1071  0.5270
  838MOL0     C15525   5.742   7.922  10.310  0.1701  0.5275  0.7445
  838MOL0     C15526   5.771   8.065  10.268 -0.2957 -0.0589 -0.4948
  838MOL0     C15527   5.695   8.120  10.144 -0.1046  0.6342  0.5191
  838MOL0     C15528   5.757   8.253  10.105 -0.9831 -1.0761  0.9809
  838MOL0     C15529   5.690   8.321   9.983  0.9169  0.4255 -1.0032
  838MOL0     O15530   5.556   8.364  10.028  0.6488 -0.2186 -0.6233
  838MOL0     C15531   5.545   8.500  10.017 -0.5252 -0.3963 -0.1034
  838MOL0     C15532   5.451   8.561   9.936  0.8022 -0.4262  0.2116
  838MOL0     C15533   5.421   8.699   9.922 -0.0817 -0.1996  0.3287
  838MOL0     C15534   5.317   8.735   9.813 -0.3734 -0.4429  0.0683
  838MOL0     C15535   5.504   8.788   9.996  0.7724 -0.1196 -0.3539
  838MOL0     C15536   5.502   8.942  10.007 -0.2975 -0.3720 -0.3263
  838MOL0     O15537   5.382   9.004   9.959  0.0667  0.7120 -0.0970
  838MOL0     C15538   5.385   9.138   9.937 -0.0680  0.1965 -0.2261
  838MOL0     C15539   5.336   9.228  10.036 -0.7462  0.5482  0.2541
  838MOL0     C15540   5.341   9.366  10.021  0.0322 -0.9625  0.7584
  838MOL0     C15541   5.384   9.423   9.893 -0.2756  0.7754 -0.6306
  838MOL0     O15542   5.382   9.554   9.870 -0.6649 -0.2464  0.0528
  838MOL0     C15543   5.264   9.629   9.886  0.1132  0.0815  0.1230
  838MOL0     C15544   5.167   9.612   9.768  0.0262 -0.2437 -0.1480
  838MOL0     C15545   5.035   9.673   9.795 -0.6322 -0.2611  0.1900
  838MOL0     C15546   5.037   9.831   9.792 -0.1147 -0.2376  0.4879
  838MOL0     C15547   4.901   9.888   9.845  0.1229 -0.6379 -0.1858
  838MOL0     C15548   4.908  10.044   9.849  0.2650  0.2989 -0.2374
  838MOL0     C15549   4.851  10.106   9.720 -0.4802 -0.9110  0.5577
  838MOL0     C15550   4.902  10.251   9.696  0.3649 -0.7937  0.9402
  838MOL0    Cl15551   4.817  10.313   9.544  0.1861  0.1246 -0.0574
  838MOL0     C15552   5.430   9.332   9.802  0.0875  0.0771 -0.8146
  838MOL0     C15553   5.434   9.194   9.822 -1.4752  0.3546 -0.8225
  838MOL0     O15554   5.598   9.009  10.049 -0.9764 -0.4287 -0.4570
  838MOL0     C15555   5.588   8.727  10.093 -0.1509 -0.2179  0.3600
  838MOL0     C15556   5.608   8.587  10.104  0.2868 -0.4392  0.2755
  838MOL0     N15557   5.662   7.835  10.231  0.4907  1.0948 -0.4959
  838MOL0     N15558   5.630   7.731  10.308 -0.5144 -0.0832  0.3686
  838MOL0     C15559   4.647   7.589  10.573  0.0919 -0.0860 -0.0092
  838MOL0     C15560   4.522   7.518  10.539  0.0762  0.7323  0.6455
  838MOL0     C15561   4.307   7.183  10.313 -0.3769  0.6088  0.0127
  838MOL0     C15562   4.306   7.049  10.331  0.1038  0.2143 -0.6795
  838MOL0     C15563   4.216   6.966  10.266 -0.7798  0.7115 -0.2611
  838MOL0     C15564   4.120   7.024  10.182 -0.2670  0.1641 -0.0440
  838MOL0     O15565   4.029   6.936  10.134 -0.6769  0.5287  0.0084
  838MOL0     C15566   3.920   6.975  10.055  0.3550 -0.2998 -0.2086
  838MOL0     C15567   3.964   6.994   9.910 -0.2852  0.0319 -0.1966
  838MOL0     C15568   4.058   6.872   9.870  0.3573 -0.5646 -0.8232
  838MOL0     C15569   4.093   6.881   9.724  0.4121 -0.4094  0.0601
  838MOL0     C15570   4.218   6.806   9.707  0.7526 -0.1842 -1.4070
  838MOL0     C15571   4.322   6.754   9.684 -0.2893  0.1250  0.1026
  838MOL0     C15572   4.120   7.158  10.162 -0.6000 -0.6686  0.0932
  838MOL0     C15573   4.204   7.243  10.226  0.3929  0.2838 -0.4381
  838MOL0     C15574   4.193   7.388  10.206 -0.4975 -0.5173 -0.5011
  838MOL0     H15575   4.577   7.457  10.221  0.9035  1.4844 -0.2751
  838MOL0     H15576   4.785   7.607  10.269  1.5474  3.1384  1.6144
  838MOL0     H15577   4.837   7.747  10.681  1.2036 -0.0218  0.1216
  838MOL0     H15578   4.745   7.866  10.582  0.3168 -0.0802  1.1782
  838MOL0     H15579   4.997   7.925  10.486  1.7433  1.7540  0.9783
  838MOL0     H15580   4.956   7.989  10.643  0.6735  1.1541 -1.5671
  838MOL0     H15581   5.121   7.879  10.732  0.9544  0.4254 -1.1622
  838MOL0     H15582   5.036   7.731  10.681 -0.0326 -0.8567 -2.5838
  838MOL0     H15583   5.163   7.729  10.470  0.5675  0.5757 -0.6208
  838MOL0     H15584   5.220   7.889  10.484 -1.8134 -0.4182 -1.3003
  838MOL0     H15585   5.299   7.658  10.664 -0.1524  0.3251 -0.3580
  838MOL0     H15586   5.332   7.827  10.700  2.3142 -2.8159  2.1269
  838MOL0     H15587   5.404   7.655  10.458 -0.3099 -0.7168  0.6133
  838MOL0     H15588   5.459   7.820  10.492  0.9908  0.3678  2.2499
  838MOL0     H15589   5.527   7.608  10.707 -2.3848 -0.4910 -1.4806
  838MOL0     H15590   5.581   7.774  10.686  1.1076  2.1372 -2.7626
  838MOL0     H15591   5.772   7.642  10.596  1.2495 -0.4447 -2.1062
  838MOL0     H15592   5.664   7.552  10.496  2.6685  0.4772 -0.3943
  838MOL0     H15593   5.818   7.933  10.499  2.4987  0.7011 -2.1534
  838MOL0     H15594   5.878   8.072  10.245 -0.1372  0.3894  0.3529
  838MOL0     H15595   5.751   8.130  10.354  0.6711  1.9414 -1.6971
  838MOL0     H15596   5.717   8.044  10.069  0.7996 -0.2359  1.6310
  838MOL0     H15597   5.586   8.126  10.152 -0.4034 -2.9512  0.9746
  838MOL0     H15598   5.760   8.327  10.186  0.1914  1.7124 -1.4434
  838MOL0     H15599   5.858   8.230  10.071 -0.7624  0.6333  0.3868
  838MOL0     H15600   5.755   8.406   9.964 -0.9375  2.1247 -0.1171
  838MOL0     H15601   5.679   8.260   9.893 -2.8499 -2.8191  1.2958
  838MOL0     H15602   5.379   8.494   9.893 -2.9060  0.7991  3.8919
  838MOL0     H15603   5.248   8.807   9.858 -0.4916 -0.9196  0.6668
  838MOL0     H15604   5.269   8.643   9.779  1.3390 -1.4598  0.2539
  838MOL0     H15605   5.372   8.780   9.730  0.6551 -1.1320  0.3471
  838MOL0     H15606   5.305   9.182  10.129  0.9013 -1.0065  0.1010
  838MOL0     H15607   5.319   9.422  10.111  1.4436 -0.3980  0.7876
  838MOL0     H15608   5.233   9.600   9.987  1.3536 -3.3540 -0.3551
  838MOL0     H15609   5.296   9.733   9.886  2.1328 -0.5007  0.3907
  838MOL0     H15610   5.218   9.633   9.673  0.6093  0.2385  0.2661
  838MOL0     H15611   5.166   9.503   9.775  3.1328 -0.4390 -1.3767
  838MOL0     H15612   5.003   9.634   9.892  1.0531  0.6107  1.1287
  838MOL0     H15613   4.962   9.637   9.722 -1.3488 -1.1846  1.3252
  838MOL0     H15614   5.064   9.868   9.692  0.2876  1.8295  1.3120
  838MOL0     H15615   5.110   9.861   9.867 -0.2045 -1.9675  1.3089
  838MOL0     H15616   4.812   9.850   9.795 -0.6689  0.1849  0.5656
  838MOL0     H15617   4.886   9.856   9.948  0.3824 -3.8481 -1.0494
  838MOL0     H15618   5.010  10.074   9.872 -0.5088  1.4716  1.9038
  838MOL0     H15619   4.851  10.075   9.937  1.1137 -2.0576  1.2487
  838MOL0     H15620   4.742  10.108   9.725 -0.5425 -0.2354 -0.6213
  838MOL0     H15621   4.874  10.040   9.636  1.4334  0.1066  0.2187
  838MOL0     H15622   5.010  10.255   9.678  0.0978 -2.8564 -2.0776
  838MOL0     H15623   4.883  10.315   9.782  0.3938 -1.9622  1.8486
  838MOL0     H15624   5.458   9.373   9.706  0.6983 -1.9176 -1.5281
  838MOL0     H15625   5.460   9.130   9.738 -1.0385  0.3812 -0.7076
  838MOL0     H15626   5.652   8.788  10.157  1.4662  0.4772 -1.8009
  838MOL0     H15627   5.676   8.545  10.177 -0.1573  1.2346  1.7426
  838MOL0     H15628   4.662   7.626  10.674 -1.3186  0.0561  0.1716
  838MOL0     H15629   4.443   7.495  10.609  2.0473  0.8292  3.0390
  838MOL0     H15630   4.372   7.010  10.408  1.9570 -1.4259 -2.9216
  838MOL0     H15631   4.206   6.858  10.272 -2.7045  0.8176 -0.8395
  838MOL0     H15632   3.838   6.903  10.064 -1.3209  1.6201  0.6717
  838MOL0     H15633   3.863   7.062  10.091  0.1032 -0.8796  0.8518
  838MOL0     H15634   4.014   7.091   9.901 -1.7407  1.0616  1.8371
  838MOL0     H15635   3.872   7.009   9.854 -0.6581  0.1409  0.4287
  838MOL0     H15636   4.142   6.867   9.940 -0.3245  2.4050  0.3579
  838MOL0     H15637   4.000   6.782   9.891  2.4076 -1.8246 -0.3225
  838MOL0     H15638   4.114   6.983   9.691 -0.3023  0.3220  1.7618
  838MOL0     H15639   4.010   6.833   9.673 -1.5213  0.5664  2.1004
  838MOL0     H15640   4.404   6.705   9.635 -1.2788  0.5653 -2.1378
  838MOL0     H15641   4.044   7.193  10.092  0.5579  0.0455 -0.8301
  838MOL0     H15642   4.116   7.416  10.134 -0.7201  2.0320  0.6005
  838MOL0     H15643   4.158   7.429  10.302 -0.3574  0.3724 -0.8171
  838MOL0     H15644   4.288   7.435  10.178 -0.8578  1.9285  1.9222
  839MOL0     O15645   6.417   3.230  10.298  0.5863 -0.2695  0.1568
  839MOL0     C15646   6.335   3.183  10.381  0.6279  0.7885 -0.1114
  839MOL0     O15647   6.198   3.171  10.368 -0.1737 -0.0646 -0.3385
  839MOL0     C15648   6.161   3.203  10.240 -0.1214  0.2804 -0.3897
  839MOL0     C15649   6.189   3.117  10.124  0.2465  0.4384 -0.8316
  839MOL0     C15650   6.150   3.154  10.002  0.1972  0.3413  0.0572
  839MOL0     C15651   6.098   3.286   9.983 -0.2862 -0.6690 -0.4032
  839MOL0     O15652   6.081   3.346   9.867 -0.3646  0.0959 -0.0758
  839MOL0     C15653   6.198   3.357   9.783  0.2607 -0.0896  0.5432
  839MOL0     C15654   6.180   3.446   9.649  0.3708  0.3693 -0.1582
  839MOL0     C15655   6.172   3.593   9.668 -0.3075 -0.0154 -0.3456
  839MOL0     C15656   6.299   3.647   9.729 -0.5666 -0.5185 -0.0030
  839MOL0     C15657   6.306   3.798   9.763  0.7220  0.1175  0.0670
  839MOL0     C15658   6.242   3.831   9.898 -0.5524  0.1520  0.0949
  839MOL0     C15659   6.223   3.977   9.917  0.2831  0.8473 -1.3050
  839MOL0     C15660   6.169   4.013  10.058 -0.0007 -0.1387 -0.7848
  839MOL0     N15661   6.045   3.953  10.095  0.5968  1.0773  0.2739
  839MOL0     C15662   5.934   3.962  10.007 -0.1047 -0.3517 -0.4887
  839MOL0     C15663   5.838   3.894  10.068  1.3997 -0.5226  0.4498
  839MOL0     C15664   5.691   3.885  10.044 -0.5441 -0.7205  0.1803
  839MOL0     C15665   5.619   4.004  10.110 -0.4897  0.4866  0.6612
  839MOL0     C15666   5.637   4.147  10.054  0.2474 -0.8152  0.4972
  839MOL0     C15667   5.599   4.163   9.910 -0.9330 -0.1323 -0.2225
  839MOL0     O15668   5.461   4.146   9.892  0.5563  0.1142  0.0744
  839MOL0     C15669   5.389   4.184   9.785  0.6168 -0.3826  0.1161
  839MOL0     C15670   5.445   4.244   9.673 -0.0241  0.4707 -0.4897
  839MOL0     C15671   5.359   4.296   9.580  0.7813 -0.5608  0.3124
  839MOL0     C15672   5.425   4.381   9.475  0.2656  0.2707  0.7123
  839MOL0     C15673   5.212   4.275   9.579 -0.0986 -0.5848  0.5194
  839MOL0     C15674   5.119   4.310   9.470 -0.8167  0.4267  0.3876
  839MOL0     O15675   4.989   4.350   9.507  0.6149  0.5845  0.4634
  839MOL0     C15676   4.904   4.374   9.405  0.5066 -0.0279  0.6941
  839MOL0     C15677   4.846   4.276   9.318  0.0739 -0.7400  0.2142
  839MOL0     C15678   4.757   4.306   9.211 -0.5363 -0.2144  0.7265
  839MOL0     C15679   4.712   4.435   9.204 -0.3637 -0.7783 -0.9050
  839MOL0     O15680   4.620   4.472   9.111  0.1575 -0.6138  0.4634
  839MOL0     C15681   4.520   4.373   9.082  0.2771  0.2506  0.4259
  839MOL0     C15682   4.402   4.436   8.996  0.4004  0.4657  0.4626
  839MOL0     C15683   4.307   4.326   8.939 -0.4252 -0.5396 -0.2030
  839MOL0     C15684   4.320   4.305   8.790 -0.0300  0.1465  0.7868
  839MOL0     C15685   4.225   4.191   8.747 -0.3764 -0.0200 -0.4901
  839MOL0     C15686   4.227   4.139   8.604 -0.8154  0.4062  1.3056
  839MOL0     C15687   4.358   4.063   8.573 -0.7249 -0.1523 -0.0127
  839MOL0     C15688   4.365   4.017   8.425  1.4501  0.6580  1.9384
  839MOL0    Cl15689   4.256   3.876   8.399 -0.5107  0.4798 -0.3186
  839MOL0     C15690   4.768   4.538   9.285 -0.2147 -0.0404  0.2021
  839MOL0     C15691   4.865   4.501   9.384  0.8862  0.7440  1.7415
  839MOL0     O15692   5.157   4.294   9.351  0.0042  0.4463 -0.5384
  839MOL0     C15693   5.160   4.211   9.688  0.4109  0.7695 -0.1105
  839MOL0     C15694   5.250   4.168   9.792  1.4201  0.8164 -0.4561
  839MOL0     N15695   5.879   3.852  10.195 -0.3211 -0.4137 -0.5203
  839MOL0     N15696   5.999   3.900  10.211  0.3770 -0.3110 -1.4146
  839MOL0     C15697   6.065   3.369  10.085 -0.2156 -0.1940  0.0649
  839MOL0     C15698   6.097   3.322  10.214 -0.0271  0.1631 -0.4685
  839MOL0     C15699   6.400   3.122  10.510  0.4131 -0.4858  0.9227
  839MOL0     C15700   6.541   3.118  10.516  0.1825  0.6517  1.0140
  839MOL0     C15701   6.596   3.068  10.631  0.5424 -0.1791 -0.3898
  839MOL0     C15702   6.520   3.021  10.742 -0.2324 -0.6921  0.1394
  839MOL0     O15703   6.572   2.984  10.863 -0.2384  0.8775 -0.0076
  839MOL0     C15704   6.686   2.887  10.858 -0.1822 -0.2340 -0.9757
  839MOL0     C15705   6.643   2.778  10.955  0.0793 -0.3558 -0.0559
  839MOL0     C15706   6.632   2.804  11.105  0.3003  0.1248 -0.3836
  839MOL0     C15707   6.528   2.691  11.153  0.1111 -0.0272  0.4296
  839MOL0     C15708   6.578   2.555  11.154 -0.2244  0.6111  0.9379
  839MOL0     C15709   6.600   2.441  11.160  0.0694  0.3105  0.9131
  839MOL0     C15710   6.384   3.019  10.733 -0.6375 -0.0273 -0.1676
  839MOL0     C15711   6.324   3.078  10.626  0.0134 -0.5892 -0.2736
  839MOL0     C15712   6.172   3.074  10.635 -0.5192  0.1564  0.1696
  839MOL0     H15713   6.225   3.021  10.159 -0.1620  0.3719 -0.5805
  839MOL0     H15714   6.161   3.090   9.915 -4.7741 -0.6007 -0.1760
  839MOL0     H15715   6.246   3.263   9.755 -0.1886 -0.6760  1.6903
  839MOL0     H15716   6.275   3.400   9.848  2.1239 -0.7565 -1.1262
  839MOL0     H15717   6.271   3.427   9.592  0.3211  2.5714 -1.1039
  839MOL0     H15718   6.086   3.413   9.605  0.6712 -0.0927 -0.4668
  839MOL0     H15719   6.149   3.648   9.577 -1.0895  1.6801  0.8285
  839MOL0     H15720   6.085   3.614   9.732  1.0463 -0.0694  1.5981
  839MOL0     H15721   6.319   3.603   9.827  1.1327  1.5210  0.6428
  839MOL0     H15722   6.381   3.620   9.661 -0.4926 -0.1498 -0.0641
  839MOL0     H15723   6.257   3.853   9.682 -1.7713 -0.4234  1.1079
  839MOL0     H15724   6.411   3.830   9.759  0.7111  0.4246 -5.6990
  839MOL0     H15725   6.156   3.765   9.910 -0.7430  0.2722 -0.5485
  839MOL0     H15726   6.314   3.791   9.970 -1.0742 -1.3074 -0.1531
  839MOL0     H15727   6.144   4.010   9.849 -0.7977  3.2764  0.9378
  839MOL0     H15728   6.323   4.015   9.890  1.5728 -1.9095 -0.7339
  839MOL0     H15729   6.244   3.997  10.136 -0.1669  0.5522 -0.4770
  839MOL0     H15730   6.151   4.120  10.072 -1.2205 -0.6648  3.0216
  839MOL0     H15731   5.926   4.012   9.911 -1.6290 -1.1375 -0.8018
  839MOL0     H15732   5.642   3.801  10.093 -2.9147  1.4638  1.8728
  839MOL0     H15733   5.680   3.872   9.936  1.9728 -0.0925 -0.2228
  839MOL0     H15734   5.512   3.986  10.107 -0.1554 -1.5715 -0.0572
  839MOL0     H15735   5.648   4.004  10.215  0.9268  0.5866  0.2927
  839MOL0     H15736   5.582   4.226  10.106  1.7895  1.7740 -1.6125
  839MOL0     H15737   5.740   4.179  10.069  0.4744 -0.0764 -2.2881
  839MOL0     H15738   5.623   4.265   9.878  2.5991 -1.3278 -1.8393
  839MOL0     H15739   5.658   4.095   9.849 -1.7423 -2.5466  1.5287
  839MOL0     H15740   5.547   4.281   9.667  0.3391 -0.5869 -1.0204
  839MOL0     H15741   5.352   4.450   9.433 -3.9067 -1.6745  4.0669
  839MOL0     H15742   5.467   4.317   9.396  0.2548  2.1114 -0.8651
  839MOL0     H15743   5.498   4.449   9.520 -0.1380  1.0940  0.1586
  839MOL0     H15744   4.878   4.173   9.331  1.6774 -0.1783  0.9761
  839MOL0     H15745   4.714   4.230   9.146 -0.5964 -0.0700  0.5963
  839MOL0     H15746   4.566   4.295   9.020  0.9589 -1.0715  2.4925
  839MOL0     H15747   4.476   4.307   9.158  3.3334 -1.9733  0.4662
  839MOL0     H15748   4.348   4.504   9.062 -0.4074  0.6954 -0.4249
  839MOL0     H15749   4.442   4.494   8.913 -0.3276  3.1733  1.8687
  839MOL0     H15750   4.205   4.361   8.952  0.5361  3.0896 -1.1969
  839MOL0     H15751   4.333   4.235   8.994  0.9349 -0.1455 -0.1481
  839MOL0     H15752   4.422   4.275   8.761 -0.3601 -1.7492  1.4343
  839MOL0     H15753   4.289   4.395   8.736 -1.1223 -0.6862 -0.0261
  839MOL0     H15754   4.217   4.113   8.824 -3.6008  1.5285  0.9194
  839MOL0     H15755   4.125   4.235   8.753 -1.9736 -3.4453  1.4561
  839MOL0     H15756   4.224   4.218   8.528  1.1795 -1.5502 -0.9869
  839MOL0     H15757   4.143   4.071   8.589 -0.7734  0.4773  0.7225
  839MOL0     H15758   4.364   3.974   8.635 -1.7954 -0.8284 -0.8416
  839MOL0     H15759   4.449   4.123   8.585 -0.1412 -1.5411  3.6819
  839MOL0     H15760   4.466   3.987   8.394  1.1439  2.2530 -0.9892
  839MOL0     H15761   4.351   4.093   8.347  0.5891 -2.6551 -1.4573
  839MOL0     H15762   4.726   4.638   9.276  1.0971  0.6781  1.5415
  839MOL0     H15763   4.904   4.586   9.440 -0.1068  2.6752 -0.3333
  839MOL0     H15764   5.057   4.181   9.695  0.9379 -1.4835 -1.0895
  839MOL0     H15765   5.213   4.120   9.882  0.1632 -0.0390 -1.3906
  839MOL0     H15766   6.020   3.464  10.057 -3.4197 -2.2583 -2.5073
  839MOL0     H15767   6.059   3.381  10.297 -0.6361  0.5669 -1.0248
  839MOL0     H15768   6.606   3.141  10.433 -0.4706  0.2471  0.3809
  839MOL0     H15769   6.704   3.076  10.636  0.4351  0.6735  1.1219
  839MOL0     H15770   6.704   2.848  10.757  0.5004  0.0070 -0.9561
  839MOL0     H15771   6.778   2.932  10.897  0.9868 -2.5427 -0.9091
  839MOL0     H15772   6.698   2.685  10.937 -2.5836 -3.6646  5.8285
  839MOL0     H15773   6.543   2.750  10.923  0.1483  0.4198 -0.9847
  839MOL0     H15774   6.733   2.794  11.146  0.4546  0.0809 -0.7685
  839MOL0     H15775   6.598   2.907  11.117 -1.1015 -0.1366 -1.6588
  839MOL0     H15776   6.427   2.684  11.110 -0.4164 -3.3382  1.8816
  839MOL0     H15777   6.515   2.715  11.258  1.9952  2.6131  0.1515
  839MOL0     H15778   6.617   2.335  11.165  0.6645  0.3643  0.1461
  839MOL0     H15779   6.339   2.985  10.826 -0.8963  1.2414  0.1952
  839MOL0     H15780   6.127   3.003  10.565 -1.7184  0.3438  0.7179
  839MOL0     H15781   6.151   3.040  10.737  3.7340  3.0358  2.2887
  839MOL0     H15782   6.136   3.177  10.628 -0.0896  0.6785  3.7145
  840MOL0     O15783  10.969   5.246   8.949 -0.1058  0.2232 -0.0410
  840MOL0     C15784  10.945   5.279   9.066 -0.0856 -0.5643  0.1275
  840MOL0     O15785  10.996   5.214   9.166  0.5391 -0.3515 -0.6922
  840MOL0     C15786  11.060   5.101   9.146 -0.6718 -0.2343  0.0591
  840MOL0     C15787  11.175   5.084   9.213 -0.0209  0.4290 -0.4886
  840MOL0     C15788  11.241   4.958   9.214  1.5616 -0.1326  0.9643
  840MOL0     C15789  11.188   4.848   9.137 -1.4133  0.7629  0.1918
  840MOL0     O15790  11.249   4.729   9.131 -0.1928 -0.0142 -0.1917
  840MOL0     C15791  11.398   4.727   9.135 -0.2367  0.1090 -0.5081
  840MOL0     C15792  11.440   4.593   9.067  0.1946  0.1992 -0.0961
  840MOL0     C15793  11.464   4.465   9.151  0.6064  0.0246  0.0035
  840MOL0     C15794  11.345   4.401   9.225 -0.4038 -0.1582 -0.2055
  840MOL0     C15795  11.381   4.315   9.354 -0.3606  0.8653 -1.1778
  840MOL0     C15796  11.438   4.170   9.325 -0.5071 -0.8082  0.0302
  840MOL0     C15797  11.586   4.180   9.285  1.9304  0.0472 -0.2494
  840MOL0     C15798  11.653   4.047   9.270 -0.4373  0.1603  0.2982
  840MOL0     N15799  11.584   3.964   9.173  0.4327 -1.0040 -0.6894
  840MOL0     C15800  11.481   3.869   9.205 -0.1898  0.3510 -0.2781
  840MOL0     C15801  11.439   3.828   9.085  0.7876  0.3081  0.1971
  840MOL0     C15802  11.326   3.721   9.077 -0.7292 -0.2575 -0.4207
  840MOL0     C15803  11.363   3.581   9.125 -0.5954  0.0541 -0.5982
  840MOL0     C15804  11.245   3.475   9.102  0.2760 -0.0088  0.1207
  840MOL0     C15805  11.281   3.335   9.096  0.1307 -0.3670  0.8164
  840MOL0     O15806  11.382   3.311   9.192 -0.3850  0.5894 -0.3714
  840MOL0     C15807  11.350   3.316   9.326 -0.1371 -0.0220  0.2910
  840MOL0     C15808  11.216   3.301   9.379 -0.9010 -0.8148  1.2496
  840MOL0     C15809  11.200   3.299   9.518  1.2952 -0.1191 -0.1402
  840MOL0     C15810  11.055   3.265   9.574  0.7451  0.6643 -1.0881
  840MOL0     C15811  11.314   3.304   9.603  0.2183 -0.2433 -0.6255
  840MOL0     C15812  11.287   3.276   9.747  0.2060 -0.6013  0.1082
  840MOL0     O15813  11.282   3.143   9.784 -0.0755  0.3753  0.0817
  840MOL0     C15814  11.233   3.106   9.906 -0.3702 -0.1371  0.4807
  840MOL0     C15815  11.279   2.981   9.942  1.2891 -0.0683  0.0342
  840MOL0     C15816  11.268   2.934  10.069  0.0206  0.4642 -0.4415
  840MOL0     C15817  11.195   3.002  10.163 -0.7050 -0.0449  0.0949
  840MOL0     O15818  11.179   2.963  10.290 -0.1096  0.4760  0.0250
  840MOL0     C15819  11.309   2.945  10.360 -1.3272  0.0516 -0.7319
  840MOL0     C15820  11.285   2.887  10.504 -0.4958  0.6980 -0.3284
  840MOL0     C15821  11.215   2.988  10.592 -0.4292  0.3944  0.7357
  840MOL0     C15822  11.171   2.921  10.723  0.1053  0.5475  0.3964
  840MOL0     C15823  11.122   3.020  10.827  0.1523  0.5490  1.1528
  840MOL0     C15824  11.078   2.955  10.956  0.3657  0.6746 -0.2212
  840MOL0     C15825  11.048   3.061  11.064 -0.1443 -0.6885  0.7063
  840MOL0     C15826  11.170   3.144  11.116 -0.6792 -0.8173 -0.3531
  840MOL0    Cl15827  11.117   3.293  11.196  0.1913 -0.1318  0.2691
  840MOL0     C15828  11.126   3.118  10.126 -0.0533  0.3821 -0.6470
  840MOL0     C15829  11.151   3.170   9.996 -0.1360  0.2674  0.3859
  840MOL0     O15830  11.252   3.377   9.813 -0.2995 -0.9843  0.6736
  840MOL0     C15831  11.444   3.324   9.549  0.2292 -0.5133  0.4334
  840MOL0     C15832  11.462   3.330   9.410  1.0205 -0.8924 -0.3995
  840MOL0     N15833  11.506   3.903   8.993 -0.1503 -0.5056 -0.2910
  840MOL0     N15834  11.598   3.979   9.043  0.8511  0.6347  0.2401
  840MOL0     C15835  11.058   4.863   9.078  0.4663 -0.4507  0.2646
  840MOL0     C15836  10.994   4.988   9.090 -0.1151 -0.1864  0.7499
  840MOL0     C15837  10.856   5.402   9.097  0.4096 -0.1029 -0.0020
  840MOL0     C15838  10.812   5.410   9.230  0.1140 -0.0695  0.1074
  840MOL0     C15839  10.726   5.511   9.271 -0.1492 -0.1324  0.3993
  840MOL0     C15840  10.673   5.609   9.189 -0.0255  0.8134  0.6528
  840MOL0     O15841  10.578   5.691   9.245 -0.2014  0.3701  0.1814
  840MOL0     C15842  10.518   5.797   9.173  0.9184 -0.4699  0.9130
  840MOL0     C15843  10.499   5.927   9.246 -0.2813  0.0625  0.5930
  840MOL0     C15844  10.397   5.921   9.363  0.0329  0.0236 -1.3020
  840MOL0     C15845  10.444   5.825   9.482  1.1208 -0.5986  0.3501
  840MOL0     C15846  10.345   5.849   9.595 -0.9151 -0.2402  0.0320
  840MOL0     C15847  10.253   5.844   9.676  0.7193 -0.4170 -0.0524
  840MOL0     C15848  10.720   5.605   9.054 -0.0349 -0.5039  0.3694
  840MOL0     C15849  10.809   5.503   9.010  0.4715 -0.1057 -0.2484
  840MOL0     C15850  10.857   5.507   8.870 -0.3494  0.0828  0.1950
  840MOL0     H15851  11.200   5.183   9.251 -3.4257  2.6542 -3.3785
  840MOL0     H15852  11.341   4.945   9.253  2.6568 -0.9312 -1.8751
  840MOL0     H15853  11.433   4.726   9.239 -0.6169 -1.8051 -0.3585
  840MOL0     H15854  11.440   4.815   9.086 -0.1220  1.2187  1.4769
  840MOL0     H15855  11.372   4.572   8.983  0.4390  0.1685 -0.2848
  840MOL0     H15856  11.536   4.620   9.023 -0.6395  0.0868 -2.0948
  840MOL0     H15857  11.496   4.381   9.089  2.9985  0.0564  1.1006
  840MOL0     H15858  11.546   4.485   9.220 -2.0448 -0.6922  3.6246
  840MOL0     H15859  11.286   4.487   9.258  3.9533  2.8362  0.6530
  840MOL0     H15860  11.284   4.332   9.165 -1.3593  0.6570 -0.1804
  840MOL0     H15861  11.290   4.311   9.415 -0.5134  1.6437 -1.3375
  840MOL0     H15862  11.456   4.367   9.415  1.6585 -2.5082 -0.5426
  840MOL0     H15863  11.420   4.101   9.408 -2.4402  0.5114  0.8021
  840MOL0     H15864  11.392   4.120   9.240 -1.0222  0.3735 -0.4131
  840MOL0     H15865  11.641   4.244   9.355 -2.1265  4.0163 -0.2502
  840MOL0     H15866  11.595   4.229   9.188  2.3452 -0.8194 -0.6643
  840MOL0     H15867  11.760   4.058   9.246  0.4631 -2.1973  2.6854
  840MOL0     H15868  11.641   3.996   9.366 -4.2922  1.2251  0.5445
  840MOL0     H15869  11.455   3.850   9.308  0.6511  2.9475  0.4893
  840MOL0     H15870  11.285   3.730   8.976 -1.2594 -1.4136 -0.3191
  840MOL0     H15871  11.239   3.751   9.136  0.4316  0.0775  1.1840
  840MOL0     H15872  11.450   3.549   9.068  0.3005 -3.7180  2.4565
  840MOL0     H15873  11.389   3.575   9.231 -3.5135  0.7647  0.2689
  840MOL0     H15874  11.171   3.486   9.182 -1.6047  1.0992 -1.6622
  840MOL0     H15875  11.189   3.503   9.012 -3.0057  1.6574  2.4806
  840MOL0     H15876  11.190   3.277   9.112 -2.4874  3.3016  0.6023
  840MOL0     H15877  11.305   3.312   8.992 -0.5032 -1.7991  0.9673
  840MOL0     H15878  11.131   3.288   9.313  1.2537  1.0121 -2.1179
  840MOL0     H15879  11.008   3.354   9.617 -3.7967 -0.7611 -2.5337
  840MOL0     H15880  11.048   3.187   9.650 -1.5955 -1.0217 -2.8765
  840MOL0     H15881  10.990   3.228   9.494  0.7804 -0.2633 -0.6988
  840MOL0     H15882  11.337   2.917   9.877 -1.0145 -1.8450 -0.4139
  840MOL0     H15883  11.338   2.853  10.085 -0.5013 -0.1637 -1.3016
  840MOL0     H15884  11.377   2.878  10.307  0.4238 -0.5463  2.0374
  840MOL0     H15885  11.353   3.045  10.361 -0.7412 -0.2018 -0.1809
  840MOL0     H15886  11.228   2.795  10.493 -1.1452  1.0560  0.0173
  840MOL0     H15887  11.384   2.876  10.549 -0.9776  2.7195  1.3538
  840MOL0     H15888  11.122   3.022  10.546 -4.2165 -2.8095  5.1088
  840MOL0     H15889  11.280   3.073  10.615  0.5017 -0.5315  1.6350
  840MOL0     H15890  11.259   2.867  10.761  0.5405  1.5723  0.8940
  840MOL0     H15891  11.087   2.853  10.707  0.8571 -1.6014  4.3106
  840MOL0     H15892  11.193   3.102  10.835  0.8889 -0.0814  1.1239
  840MOL0     H15893  11.030   3.062  10.784 -0.1454 -0.0135  1.2373
  840MOL0     H15894  11.147   2.879  10.995  0.1722  0.7932  0.3708
  840MOL0     H15895  10.996   2.887  10.931 -0.9169  1.6696  1.0821
  840MOL0     H15896  11.004   3.007  11.148 -1.5340 -0.5871  0.0742
  840MOL0     H15897  10.978   3.140  11.033 -0.9250 -1.2700  0.9462
  840MOL0     H15898  11.245   3.166  11.039  0.6608 -0.9249  0.8867
  840MOL0     H15899  11.216   3.083  11.195  3.0934 -0.4583 -2.0203
  840MOL0     H15900  11.073   3.171  10.204  0.1463  0.4237 -0.5374
  840MOL0     H15901  11.109   3.269   9.982 -0.3921  0.0785 -0.2256
  840MOL0     H15902  11.528   3.330   9.618  2.1662 -1.1271 -1.7217
  840MOL0     H15903  11.563   3.335   9.370  0.1297 -1.0816 -2.8401
  840MOL0     H15904  11.031   4.775   9.020  0.6489  0.6754 -1.6181
  840MOL0     H15905  10.894   5.010   9.055  1.1467  3.0293 -1.3299
  840MOL0     H15906  10.843   5.330   9.297 -0.3329 -0.1400  0.2334
  840MOL0     H15907  10.714   5.514   9.379  2.2588 -2.8542  0.8656
  840MOL0     H15908  10.571   5.814   9.079 -0.1268  0.3551  0.4438
  840MOL0     H15909  10.421   5.753   9.148  1.4716 -0.1170 -2.1189
  840MOL0     H15910  10.455   5.990   9.168 -2.5550 -2.7314 -0.5735
  840MOL0     H15911  10.595   5.971   9.272 -0.2631 -1.4693  3.6794
  840MOL0     H15912  10.392   6.023   9.404 -0.8835  0.1192 -1.6439
  840MOL0     H15913  10.293   5.898   9.341 -1.6994  4.0530  1.3955
  840MOL0     H15914  10.548   5.841   9.512  1.9468 -2.8970 -0.9792
  840MOL0     H15915  10.416   5.723   9.455 -1.4071 -0.0306  0.6363
  840MOL0     H15916  10.173   5.830   9.746  0.0573 -0.2718 -0.7675
  840MOL0     H15917  10.676   5.679   8.987  1.3124  1.0778  1.1545
  840MOL0     H15918  10.850   5.606   8.824  1.1450 -0.0945 -0.4716
  840MOL0     H15919  10.964   5.485   8.877 -0.3397 -0.0114 -0.2216
  840MOL0     H15920  10.802   5.427   8.819  0.5103  0.3470 -1.2011
  841MOL0     O15921   0.227  11.481   2.826  0.1536  0.2676  0.3599
  841MOL0     C15922   0.118  11.452   2.872 -0.6411 -0.0893  1.3909
  841MOL0     O15923   0.001  11.538   2.867 -0.4459  0.8068  0.2917
  841MOL0     C15924  -0.003  11.679   2.857 -0.2944 -0.1973  0.1103
  841MOL0     C15925   0.112  11.758   2.855  0.3335  1.0440 -0.3731
  841MOL0     C15926   0.105  11.898   2.836 -0.4871  0.3956 -0.4800
  841MOL0     C15927  -0.023  11.955   2.804  0.8793 -0.0358  0.5443
  841MOL0     O15928  -0.042  12.089   2.777  0.3278 -0.5173 -0.0925
  841MOL0     C15929   0.040  12.181   2.853 -0.5118 -0.4275  0.5121
  841MOL0     C15930  -0.013  12.327   2.867  0.7596  0.1656  0.0143
  841MOL0     C15931  -0.145  12.352   2.935  0.0224 -0.2223  0.5795
  841MOL0     C15932  -0.263  12.330   2.840 -0.9451 -0.3872  0.3064
  841MOL0     C15933  -0.399  12.393   2.902 -0.3149  0.0145  0.1512
  841MOL0     C15934  -0.512  12.384   2.796 -0.2708 -0.2272  0.0138
  841MOL0     C15935  -0.643  12.433   2.867 -0.1954  0.9959 -0.5933
  841MOL0     C15936  -0.756  12.413   2.776  0.0220 -0.1653  0.1403
  841MOL0     N15937  -0.831  12.292   2.776 -0.1688 -0.1201  0.0696
  841MOL0     C15938  -0.898  12.247   2.889 -0.3440  0.3229  0.7396
  841MOL0     C15939  -0.950  12.121   2.860 -0.4955 -0.9426  1.0062
  841MOL0     C15940  -1.025  12.024   2.945 -0.2465  0.6737 -0.7490
  841MOL0     C15941  -1.121  11.933   2.861  0.0877  0.0609 -0.8716
  841MOL0     C15942  -1.183  11.814   2.946 -0.1857  0.0630  0.0401
  841MOL0     C15943  -1.268  11.851   3.060 -0.4236  0.4354 -0.9861
  841MOL0     O15944  -1.299  11.732   3.132  0.1073  0.4119  0.3221
  841MOL0     C15945  -1.386  11.724   3.234  0.6492 -0.1194 -0.7554
  841MOL0     C15946  -1.426  11.830   3.313  0.7090 -0.3952  0.3775
  841MOL0     C15947  -1.514  11.813   3.422  0.3326 -0.0007  0.0291
  841MOL0     C15948  -1.546  11.934   3.509 -0.4915 -0.3099 -0.0675
  841MOL0     C15949  -1.565  11.680   3.455  0.1331  0.3558  1.0281
  841MOL0     C15950  -1.646  11.653   3.586 -0.4561 -0.5426 -0.1058
  841MOL0     O15951  -1.641  11.525   3.624  0.0385  0.5186 -0.6817
  841MOL0     C15952  -1.696  11.493   3.747  0.6704 -0.4690 -0.1931
  841MOL0     C15953  -1.825  11.527   3.768 -0.3612  0.6014 -0.5296
  841MOL0     C15954  -1.878  11.508   3.897 -0.1574  0.1560 -0.5406
  841MOL0     C15955  -1.802  11.456   4.007 -0.3574  0.1107 -0.5548
  841MOL0     O15956  -1.863  11.433   4.135 -0.1815 -0.5680 -0.4468
  841MOL0     C15957  -1.774  11.459   4.239 -0.3781 -0.2394 -0.0261
  841MOL0     C15958  -1.848  11.444   4.370  1.2033 -0.5284  0.2495
  841MOL0     C15959  -1.854  11.297   4.417  0.4167  0.4121 -0.2758
  841MOL0     C15960  -1.930  11.261   4.550  0.0145  0.1220 -0.5151
  841MOL0     C15961  -2.073  11.300   4.537 -0.2941 -0.0597 -0.2598
  841MOL0     C15962  -2.170  11.282   4.658 -0.0322  0.5463  0.5440
  841MOL0     C15963  -2.108  11.235   4.782 -0.4973  0.6282 -0.8697
  841MOL0     C15964  -2.198  11.234   4.905  0.4619 -0.7468 -0.2045
  841MOL0    Cl15965  -2.232  11.396   4.963 -0.4919 -0.0941 -0.0425
  841MOL0     C15966  -1.672  11.419   3.982 -1.1212 -0.2879  0.1425
  841MOL0     C15967  -1.616  11.444   3.857 -0.5411 -0.3887  0.3902
  841MOL0     O15968  -1.684  11.744   3.657  0.3326 -0.4734 -0.0408
  841MOL0     C15969  -1.510  11.573   3.377  0.6556 -0.9226  0.5811
  841MOL0     C15970  -1.429  11.597   3.270 -0.5342  0.8191  0.4688
  841MOL0     N15971  -0.916  12.102   2.728  0.2110  0.8380 -0.1106
  841MOL0     N15972  -0.844  12.196   2.685  0.0469 -0.0872  0.0182
  841MOL0     C15973  -0.140  11.871   2.797 -0.4727  1.1624 -0.1253
  841MOL0     C15974  -0.130  11.739   2.833  0.9803  0.3915  0.3750
  841MOL0     C15975   0.087  11.315   2.911  0.1620  0.3811  0.2871
  841MOL0     C15976  -0.049  11.269   2.899  0.5016 -0.2279  0.2945
  841MOL0     C15977  -0.079  11.139   2.938 -0.1012  0.1389  0.2016
  841MOL0     C15978   0.020  11.043   2.973 -0.2595  0.3815 -0.2233
  841MOL0     O15979  -0.010  10.912   2.999 -0.3323  0.0675 -0.2282
  841MOL0     C15980   0.088  10.822   3.046 -0.8001 -0.5237 -0.1048
  841MOL0     C15981   0.024  10.686   3.060 -0.2128 -0.6685 -0.1186
  841MOL0     C15982   0.112  10.586   3.141 -0.1828  0.2030 -0.6100
  841MOL0     C15983   0.121  10.626   3.295 -0.2693  0.1965  0.3513
  841MOL0     C15984   0.203  10.531   3.371  0.1894  0.7403 -0.4685
  841MOL0     C15985   0.301  10.454   3.391  0.7821 -0.1053 -0.8741
  841MOL0     C15986   0.152  11.092   2.975  0.1721 -0.4751 -0.6880
  841MOL0     C15987   0.179  11.226   2.961  0.6765  0.9096 -0.8662
  841MOL0     C15988   0.329  11.257   2.961 -0.1011 -0.1163  0.4371
  841MOL0     H15989   0.215  11.725   2.853  0.2253  0.6310 -3.1671
  841MOL0     H15990   0.200  11.950   2.827 -0.1553 -0.1454 -0.1584
  841MOL0     H15991   0.141  12.191   2.811 -0.7670  1.6773  0.3095
  841MOL0     H15992   0.060  12.134   2.949 -0.0940 -2.8843 -0.6829
  841MOL0     H15993   0.062  12.372   2.931  0.3826 -0.6149  1.0378
  841MOL0     H15994  -0.012  12.374   2.768 -0.2542 -0.3026 -0.2322
  841MOL0     H15995  -0.162  12.305   3.033 -1.9009  2.7205  1.8412
  841MOL0     H15996  -0.147  12.460   2.952  0.8348 -0.0098 -0.6046
  841MOL0     H15997  -0.251  12.383   2.745  0.3535  1.4425  1.4214
  841MOL0     H15998  -0.274  12.223   2.819  2.7254 -0.6129 -1.2152
  841MOL0     H15999  -0.384  12.492   2.945  3.1948 -0.7350  0.8994
  841MOL0     H16000  -0.423  12.345   2.998  0.9872  2.3598  1.7290
  841MOL0     H16001  -0.488  12.443   2.707  0.1610  2.0501  1.5442
  841MOL0     H16002  -0.537  12.282   2.766 -0.4905 -0.0472 -0.4215
  841MOL0     H16003  -0.632  12.540   2.885  4.6238  0.7642 -0.9265
  841MOL0     H16004  -0.662  12.376   2.959 -0.1174  1.0524 -0.5430
  841MOL0     H16005  -0.831  12.483   2.816 -0.9248 -1.1156  0.0928
  841MOL0     H16006  -0.730  12.450   2.677  0.5067  6.4335  2.2638
  841MOL0     H16007  -0.899  12.283   2.991  1.8039  0.2197  0.8569
  841MOL0     H16008  -1.086  12.076   3.020  0.1147 -0.4626  0.3637
  841MOL0     H16009  -0.960  11.962   3.007 -2.9542  1.5193  3.3666
  841MOL0     H16010  -1.205  11.990   2.822  0.8237  1.1759 -0.8566
  841MOL0     H16011  -1.063  11.891   2.778  0.4505 -0.2822 -0.4531
  841MOL0     H16012  -1.255  11.753   2.892 -1.5903  1.3448  0.3874
  841MOL0     H16013  -1.110  11.742   2.984 -1.7970 -0.6425  1.9443
  841MOL0     H16014  -1.221  11.917   3.133  0.3702 -1.1722  0.0354
  841MOL0     H16015  -1.360  11.901   3.030 -1.4068 -1.1480 -0.7202
  841MOL0     H16016  -1.387  11.928   3.286  0.8916 -1.3212 -3.1836
  841MOL0     H16017  -1.494  12.021   3.469 -1.7915 -0.5162 -2.4145
  841MOL0     H16018  -1.506  11.928   3.610  1.3781  0.1976 -0.7459
  841MOL0     H16019  -1.651  11.965   3.514 -0.5813 -0.7463  0.9990
  841MOL0     H16020  -1.890  11.571   3.693 -1.8179 -2.0097 -0.9450
  841MOL0     H16021  -1.983  11.531   3.911 -0.5125 -2.4953  2.2915
  841MOL0     H16022  -1.686  11.395   4.241 -0.6078 -0.6901 -2.0408
  841MOL0     H16023  -1.732  11.559   4.224  0.3771 -1.0452 -4.9562
  841MOL0     H16024  -1.820  11.500   4.460 -0.5528 -0.2954  0.6877
  841MOL0     H16025  -1.950  11.479   4.348 -0.4667 -3.1460  2.9983
  841MOL0     H16026  -1.752  11.260   4.429 -0.2365 -0.6827  2.8885
  841MOL0     H16027  -1.904  11.237   4.341  1.4376 -1.3712  0.3960
  841MOL0     H16028  -1.899  11.317   4.638 -0.3082 -3.8616  2.4421
  841MOL0     H16029  -1.933  11.156   4.580 -1.6456 -0.1576 -1.4816
  841MOL0     H16030  -2.076  11.397   4.487  1.9795  0.1180 -0.1954
  841MOL0     H16031  -2.113  11.234   4.460  3.4957 -1.5590 -1.1991
  841MOL0     H16032  -2.259  11.222   4.634 -1.2303  2.7438 -0.8053
  841MOL0     H16033  -2.210  11.382   4.677  1.7337  1.2401  0.7611
  841MOL0     H16034  -2.028  11.306   4.803 -1.0635  0.6283  1.5182
  841MOL0     H16035  -2.072  11.132   4.773  1.1998  1.1612 -0.4204
  841MOL0     H16036  -2.145  11.173   4.979  2.7057  1.9403  0.5639
  841MOL0     H16037  -2.291  11.178   4.886  0.7891 -0.8022 -1.7406
  841MOL0     H16038  -1.617  11.372   4.063  0.6967  4.4412  2.0278
  841MOL0     H16039  -1.512  11.418   3.840 -0.7552 -0.0228 -1.7562
  841MOL0     H16040  -1.527  11.470   3.407 -0.7411 -0.6498  0.7872
  841MOL0     H16041  -1.406  11.514   3.205  0.4924  1.4452  0.0176
  841MOL0     H16042  -0.233  11.922   2.776 -0.9188 -0.1902 -1.7443
  841MOL0     H16043  -0.220  11.679   2.824  0.0935  1.7009  0.2700
  841MOL0     H16044  -0.134  11.332   2.873  0.0709 -1.0181 -0.2602
  841MOL0     H16045  -0.183  11.113   2.951 -0.4846  1.5782  0.0961
  841MOL0     H16046   0.173  10.814   2.978 -0.4622  2.4832 -0.1554
  841MOL0     H16047   0.128  10.859   3.140  2.7158  1.4090 -2.1624
  841MOL0     H16048   0.004  10.650   2.959  0.5379  3.4564 -1.9234
  841MOL0     H16049  -0.075  10.703   3.103 -0.0754  1.1836 -0.4654
  841MOL0     H16050   0.063  10.489   3.152  0.0324  0.2181  0.7330
  841MOL0     H16051   0.215  10.575   3.108  0.2724  1.1944  0.3864
  841MOL0     H16052   0.027  10.625   3.351  0.1288 -0.1287  1.0248
  841MOL0     H16053   0.166  10.725   3.302  1.4329 -0.2672 -2.5357
  841MOL0     H16054   0.368  10.373   3.411 -1.3821 -1.6531  0.5813
  841MOL0     H16055   0.239  11.034   3.003 -0.5988 -2.1980 -1.7008
  841MOL0     H16056   0.353  11.357   2.998 -1.6004 -0.3021  2.0833
  841MOL0     H16057   0.380  11.185   3.025  2.3505  0.0859 -1.1599
  841MOL0     H16058   0.355  11.228   2.859 -2.7591 -0.8121 -0.1362
  842MOL0     O16059   9.213  10.075   5.741 -0.0678  0.4151  0.2478
  842MOL0     C16060   9.223  10.103   5.625 -0.1607 -0.3209  1.0288
  842MOL0     O16061   9.127  10.090   5.528  0.1561  0.1491 -0.4426
  842MOL0     C16062   9.046   9.972   5.541 -0.0427  0.7853 -0.4797
  842MOL0     C16063   9.028   9.875   5.442  0.7059 -0.7647  0.6675
  842MOL0     C16064   8.921   9.789   5.447  0.1203  0.8355  0.1504
  842MOL0     C16065   8.852   9.787   5.565 -1.1666  0.1809  0.4080
  842MOL0     O16066   8.761   9.686   5.576  0.5813  0.0799 -0.1352
  842MOL0     C16067   8.623   9.714   5.599 -0.3834  0.2067  0.7442
  842MOL0     C16068   8.576   9.835   5.516  0.7088 -0.1394  0.1519
  842MOL0     C16069   8.423   9.842   5.528  0.1867  0.3591  0.1006
  842MOL0     C16070   8.383   9.956   5.443  0.7653 -0.9254 -0.5249
  842MOL0     C16071   8.237  10.000   5.455 -0.1359 -0.1196  0.1562
  842MOL0     C16072   8.176  10.031   5.598  0.5703 -0.0375  0.4205
  842MOL0     C16073   8.025  10.067   5.588 -0.1098 -0.3172  0.1175
  842MOL0     C16074   7.993  10.217   5.556 -0.6733  0.4207 -0.7989
  842MOL0     N16075   8.005  10.249   5.408  0.3037  0.3891 -0.0882
  842MOL0     C16076   7.959  10.161   5.313  0.1978 -0.6009 -0.0680
  842MOL0     C16077   8.013  10.203   5.193 -0.1204  0.1278  0.4085
  842MOL0     C16078   7.976  10.122   5.066 -0.3250 -0.3575 -0.3678
  842MOL0     C16079   8.104  10.103   4.990 -0.2850 -0.0950  1.1587
  842MOL0     C16080   8.082  10.041   4.857 -1.1141  0.4376  0.3705
  842MOL0     C16081   8.188  10.075   4.752  0.7469  0.4432 -0.5123
  842MOL0     O16082   8.317  10.014   4.780  0.5289 -0.3538  0.5718
  842MOL0     C16083   8.337   9.880   4.761  0.9646 -0.5732 -0.6339
  842MOL0     C16084   8.464   9.827   4.800 -0.4242 -0.1458 -0.1096
  842MOL0     C16085   8.502   9.694   4.759  1.2124  0.0062 -0.6635
  842MOL0     C16086   8.637   9.636   4.798 -0.7544  0.7996 -0.0718
  842MOL0     C16087   8.410   9.614   4.675 -0.3451  0.8920  0.2209
  842MOL0     C16088   8.444   9.481   4.625 -0.3776  1.2628  0.3107
  842MOL0     O16089   8.343   9.383   4.636  0.0692  0.4894 -0.4002
  842MOL0     C16090   8.363   9.245   4.613  0.0099 -0.3473 -0.6396
  842MOL0     C16091   8.309   9.182   4.499 -0.8131  0.4044  0.0055
  842MOL0     C16092   8.343   9.052   4.480 -0.1419 -0.2133 -0.1421
  842MOL0     C16093   8.414   8.975   4.573 -0.8428  0.8552  0.0306
  842MOL0     O16094   8.451   8.849   4.523  0.1887 -0.4193 -0.0336
  842MOL0     C16095   8.554   8.777   4.581 -0.1160 -1.9861 -0.6273
  842MOL0     C16096   8.560   8.644   4.522 -0.4941  0.3831  0.3227
  842MOL0     C16097   8.667   8.554   4.581  0.0825  0.1094 -0.0179
  842MOL0     C16098   8.805   8.614   4.597  0.3207 -0.0974 -0.8849
  842MOL0     C16099   8.882   8.629   4.461 -0.4216 -0.4511  0.9984
  842MOL0     C16100   8.856   8.533   4.344 -0.2238  0.3222 -0.1414
  842MOL0     C16101   8.966   8.532   4.239 -0.5542  0.5399 -0.3785
  842MOL0     C16102   8.953   8.426   4.136 -0.9873  0.3357 -0.3839
  842MOL0    Cl16103   9.086   8.446   4.016  0.1101 -0.0422 -0.5395
  842MOL0     C16104   8.446   9.036   4.688 -0.0383  0.1581  0.4195
  842MOL0     C16105   8.420   9.166   4.720  0.6204  0.2780 -0.3878
  842MOL0     O16106   8.555   9.449   4.579 -0.0105  0.0530 -0.0069
  842MOL0     C16107   8.280   9.657   4.664 -0.2339  0.4735  0.1543
  842MOL0     C16108   8.244   9.789   4.707  0.5572  0.5367 -0.0409
  842MOL0     N16109   8.088  10.309   5.222 -0.1246  0.1875 -0.0244
  842MOL0     N16110   8.078  10.350   5.347  0.1721 -0.0578 -0.1359
  842MOL0     C16111   8.866   9.872   5.669 -0.1158  0.0494 -0.2193
  842MOL0     C16112   8.956   9.974   5.650 -0.4945  0.1527 -1.1283
  842MOL0     C16113   9.344  10.185   5.581 -0.5086  0.7573 -0.0923
  842MOL0     C16114   9.337  10.250   5.453  0.4739  0.1198  0.2352
  842MOL0     C16115   9.420  10.360   5.424  0.3717  0.0413  0.7211
  842MOL0     C16116   9.529  10.395   5.502 -0.3115 -0.5976  0.0253
  842MOL0     O16117   9.609  10.497   5.448  0.2515  0.2987  0.5692
  842MOL0     C16118   9.645  10.598   5.546  0.4735 -0.8783 -0.2841
  842MOL0     C16119   9.718  10.728   5.493  0.4397  0.3823 -0.5071
  842MOL0     C16120   9.635  10.800   5.392  0.6478  0.2807 -0.9223
  842MOL0     C16121   9.478  10.806   5.411  1.4814 -0.2289  0.2858
  842MOL0     C16122   9.446  10.862   5.540  0.4628  0.5675 -0.1208
  842MOL0     C16123   9.390  10.893   5.641  0.0006  0.6043 -0.9983
  842MOL0     C16124   9.568  10.308   5.607  0.1035  0.9399  0.0127
  842MOL0     C16125   9.466  10.207   5.647 -0.3520 -0.1220  0.0645
  842MOL0     C16126   9.513  10.134   5.762 -0.4845  0.6961 -1.0840
  842MOL0     H16127   9.099   9.881   5.360  2.0053 -0.9328  1.7504
  842MOL0     H16128   8.894   9.724   5.365 -0.8760 -2.4162  2.8186
  842MOL0     H16129   8.591   9.727   5.703  1.9997  0.6155  1.4788
  842MOL0     H16130   8.566   9.623   5.580  1.2954 -0.4709 -1.4684
  842MOL0     H16131   8.620   9.922   5.565 -0.1860  0.7546 -0.6154
  842MOL0     H16132   8.605   9.823   5.411  2.5945 -2.2451  0.8181
  842MOL0     H16133   8.368   9.751   5.500 -1.0558  0.9938  0.3895
  842MOL0     H16134   8.386   9.865   5.628 -0.9505 -0.3162 -0.1442
  842MOL0     H16135   8.449  10.043   5.453 -0.6262  0.1908 -0.6834
  842MOL0     H16136   8.412   9.920   5.344  0.8894  0.3439 -0.9677
  842MOL0     H16137   8.171   9.936   5.395  1.5378  0.3393 -2.3722
  842MOL0     H16138   8.227  10.099   5.409 -0.4478  0.4989  1.5270
  842MOL0     H16139   8.190   9.949   5.669 -1.9390 -1.3442 -0.4558
  842MOL0     H16140   8.232  10.115   5.639  3.0434 -1.4883  0.2635
  842MOL0     H16141   7.984  10.053   5.689  1.4716 -2.4502  0.5360
  842MOL0     H16142   7.968  10.002   5.521 -0.3128  2.7068 -2.9412
  842MOL0     H16143   7.891  10.238   5.591 -1.3231  0.1642 -2.4629
  842MOL0     H16144   8.051  10.290   5.613 -0.1365 -0.7128  0.1496
  842MOL0     H16145   7.884  10.084   5.326 -1.0082  0.0824 -2.3130
  842MOL0     H16146   7.904  10.186   5.015  1.1392  3.1434  1.6523
  842MOL0     H16147   7.927  10.030   5.101 -0.5929  0.2967  1.0701
  842MOL0     H16148   8.162  10.195   4.984 -0.1112 -0.2397  0.6237
  842MOL0     H16149   8.174  10.044   5.050  1.1315 -1.0522 -1.2955
  842MOL0     H16150   8.073   9.934   4.878 -2.8077  0.4728 -0.0432
  842MOL0     H16151   7.985  10.075   4.820 -0.1026  1.5838 -1.3623
  842MOL0     H16152   8.156  10.036   4.655 -0.1137 -0.5997  0.1737
  842MOL0     H16153   8.191  10.185   4.747 -1.5392  0.9031  3.5866
  842MOL0     H16154   8.544   9.887   4.843  1.2123 -2.0083 -0.3786
  842MOL0     H16155   8.665   9.669   4.899 -0.6965  1.3201 -0.2549
  842MOL0     H16156   8.720   9.666   4.734  0.7825 -1.7810  0.5562
  842MOL0     H16157   8.641   9.527   4.789 -1.7288  0.8645 -1.6113
  842MOL0     H16158   8.257   9.247   4.430 -0.1191 -0.4788 -1.4095
  842MOL0     H16159   8.319   8.999   4.389 -0.6690 -2.1020  1.0531
  842MOL0     H16160   8.648   8.834   4.586 -0.6728 -1.0071 -1.0282
  842MOL0     H16161   8.533   8.761   4.687 -0.0089 -0.6010 -0.3788
  842MOL0     H16162   8.467   8.590   4.544 -0.4440  0.2069  0.0916
  842MOL0     H16163   8.575   8.660   4.415  1.3113  1.2932  0.6662
  842MOL0     H16164   8.669   8.457   4.530 -1.2954 -0.6311  1.2470
  842MOL0     H16165   8.626   8.527   4.679  1.2221  0.7041  0.6513
  842MOL0     H16166   8.863   8.533   4.642 -0.4421 -0.7053 -0.9698
  842MOL0     H16167   8.803   8.710   4.649  1.2357  0.2060 -1.3838
  842MOL0     H16168   8.858   8.727   4.418 -1.9002 -2.5022 -3.5169
  842MOL0     H16169   8.988   8.614   4.485  0.0276  1.8447  0.6590
  842MOL0     H16170   8.758   8.552   4.300 -1.2955 -1.1961  1.4485
  842MOL0     H16171   8.838   8.430   4.376  1.7154 -0.3578 -1.0463
  842MOL0     H16172   9.062   8.523   4.291 -1.7746 -0.3283  1.8361
  842MOL0     H16173   8.981   8.631   4.194  0.5860  1.1467  1.2312
  842MOL0     H16174   8.856   8.438   4.087  0.3305  1.0823 -3.0098
  842MOL0     H16175   8.971   8.328   4.181 -1.4483 -0.0046 -0.9210
  842MOL0     H16176   8.515   8.992   4.760  2.4310 -0.1175 -1.9578
  842MOL0     H16177   8.460   9.227   4.800 -0.0628 -1.5553  1.4314
  842MOL0     H16178   8.193   9.603   4.629 -1.1821  2.2361 -0.3393
  842MOL0     H16179   8.144   9.820   4.677 -0.8052  0.8352  4.2194
  842MOL0     H16180   8.795   9.863   5.751 -2.7441  3.2046 -1.9041
  842MOL0     H16181   8.963  10.047   5.730 -1.1361 -0.3134 -0.6345
  842MOL0     H16182   9.263  10.219   5.380  1.8099  0.1278 -1.1866
  842MOL0     H16183   9.386  10.422   5.341 -2.2584 -0.3860  1.3974
  842MOL0     H16184   9.561  10.614   5.615  1.3602 -0.6712  0.7824
  842MOL0     H16185   9.713  10.548   5.616 -0.6488  1.8710  3.0629
  842MOL0     H16186   9.821  10.705   5.463  1.2559  0.4773  1.9608
  842MOL0     H16187   9.722  10.789   5.584  0.0689  0.8318 -0.7944
  842MOL0     H16188   9.675  10.900   5.375  0.6949  0.3663 -0.3026
  842MOL0     H16189   9.644  10.744   5.298  0.3225 -1.7166  0.1883
  842MOL0     H16190   9.440  10.703   5.410  1.8092 -0.4410  2.9647
  842MOL0     H16191   9.436  10.863   5.327  0.8624  0.4347  1.0347
  842MOL0     H16192   9.349  10.913   5.738  0.6887  1.4569 -0.8650
  842MOL0     H16193   9.662  10.318   5.660  0.8471  2.0898 -1.4687
  842MOL0     H16194   9.584  10.056   5.734 -2.3974 -0.5307 -2.8385
  842MOL0     H16195   9.567  10.200   5.830 -1.8647 -0.5190  1.3217
  842MOL0     H16196   9.441  10.077   5.822 -1.5104  0.6555 -2.3133
  843MOL0     O16197   9.005   3.500  10.871 -0.3710  1.0930  0.0978
  843MOL0     C16198   9.007   3.567  10.971 -0.1399 -0.2699 -0.8193
  843MOL0     O16199   9.108   3.656  11.002  0.0439  0.0283  1.2002
  843MOL0     C16200   9.208   3.664  10.922 -0.2963  0.7640 -0.5726
  843MOL0     C16201   9.203   3.733  10.794 -0.2283  0.3651 -0.3878
  843MOL0     C16202   9.318   3.767  10.721  0.2531  0.1567 -0.7127
  843MOL0     C16203   9.445   3.738  10.787  0.0171  0.1240  0.6095
  843MOL0     O16204   9.549   3.774  10.708 -0.0712  0.2121 -0.2202
  843MOL0     C16205   9.642   3.868  10.759 -0.7305 -0.1584  0.1729
  843MOL0     C16206   9.711   3.947  10.643 -0.4172 -0.6186  0.1022
  843MOL0     C16207   9.777   3.863  10.533  0.6766  0.2288  1.6673
  843MOL0     C16208   9.691   3.773  10.444 -0.6479  0.9939  0.6496
  843MOL0     C16209   9.782   3.713  10.324  0.2329 -0.7739  0.4811
  843MOL0     C16210   9.777   3.825  10.213  0.0533 -0.1528  0.0098
  843MOL0     C16211   9.868   3.782  10.102  0.2626 -0.2603 -0.1799
  843MOL0     C16212   9.889   3.885   9.989 -0.1782 -0.0822 -0.7437
  843MOL0     N16213   9.969   3.839   9.879  0.7015  0.0391 -0.1784
  843MOL0     C16214   9.928   3.750   9.776  0.0913 -0.4329  0.3003
  843MOL0     C16215  10.045   3.693   9.746 -1.0754 -0.1482  0.2851
  843MOL0     C16216  10.074   3.597   9.644  0.6882 -0.2476  0.1857
  843MOL0     C16217  10.076   3.648   9.497  0.3045  0.1795  0.5618
  843MOL0     C16218  10.184   3.755   9.464 -1.3102 -0.3273 -1.0340
  843MOL0     C16219  10.324   3.695   9.453  0.5552  0.2819 -0.0800
  843MOL0     O16220  10.325   3.612   9.336 -0.7801  1.2585 -0.1924
  843MOL0     C16221  10.446   3.553   9.305 -0.8085  0.3900 -0.4744
  843MOL0     C16222  10.568   3.563   9.377  0.3188 -0.1330 -0.7620
  843MOL0     C16223  10.682   3.495   9.330  0.3244 -0.2697  0.4466
  843MOL0     C16224  10.802   3.531   9.409  0.0149 -0.1173  0.5164
  843MOL0     C16225  10.679   3.422   9.210 -0.1966 -0.2560  1.1515
  843MOL0     C16226  10.795   3.341   9.162  1.1494  0.7389  1.3367
  843MOL0     O16227  10.807   3.320   9.024 -0.1537  0.1182 -0.2239
  843MOL0     C16228  10.920   3.241   8.983 -0.7540 -0.2592  0.3283
  843MOL0     C16229  10.972   3.129   9.049  0.1583  0.1434  0.0919
  843MOL0     C16230  11.081   3.057   9.007 -1.0888 -0.0163  0.0884
  843MOL0     C16231  11.135   3.088   8.876  0.4870  1.1927 -0.4233
  843MOL0     O16232  11.248   3.023   8.822  0.1068  0.6479 -0.8781
  843MOL0     C16233  11.345   2.971   8.922 -0.2115  0.3007 -0.0711
  843MOL0     C16234  11.483   3.007   8.868  0.2264 -0.4501 -0.0003
  843MOL0     C16235  11.528   3.150   8.905 -0.2240  0.7665  1.0656
  843MOL0     C16236  11.661   3.183   8.835  0.0394  0.2223 -0.0662
  843MOL0     C16237  11.656   3.303   8.741  0.3137  0.6974  0.4854
  843MOL0     C16238  11.611   3.436   8.800  0.1189  0.9485  0.1732
  843MOL0     C16239  11.625   3.544   8.696  0.6908 -0.2218  0.2771
  843MOL0     C16240  11.532   3.543   8.566 -0.7781 -0.6720 -1.1193
  843MOL0    Cl16241  11.361   3.556   8.626 -0.0452 -0.1659 -0.3097
  843MOL0     C16242  11.086   3.198   8.806  0.3399 -0.0909  0.6311
  843MOL0     C16243  10.978   3.270   8.862 -0.3698 -0.0111 -0.2543
  843MOL0     O16244  10.865   3.288   9.248 -0.1328 -0.1587  0.9957
  843MOL0     C16245  10.556   3.415   9.141 -1.2059  0.9984 -1.0179
  843MOL0     C16246  10.444   3.474   9.192 -0.9128  1.4559  0.1849
  843MOL0     N16247  10.153   3.765   9.804  0.2167 -0.3338 -0.3777
  843MOL0     N16248  10.102   3.844   9.893  0.1905 -0.3363 -0.4176
  843MOL0     C16249   9.455   3.673  10.908  0.2652  0.2582  0.2730
  843MOL0     C16250   9.333   3.637  10.971  0.8033  0.9568  0.9028
  843MOL0     C16251   8.889   3.578  11.060  0.5997  1.0663 -1.0878
  843MOL0     C16252   8.850   3.468  11.138 -0.7582 -0.7085 -0.1821
  843MOL0     C16253   8.757   3.474  11.237  1.0834  0.7808 -0.1758
  843MOL0     C16254   8.693   3.598  11.261 -0.1607 -0.7252  0.4157
  843MOL0     O16255   8.603   3.621  11.358  0.2228  0.1980 -0.4931
  843MOL0     C16256   8.571   3.525  11.463  0.8481 -0.4482  0.3827
  843MOL0     C16257   8.619   3.588  11.588 -0.0136 -0.2201 -0.2303
  843MOL0     C16258   8.760   3.557  11.624 -0.0629  0.6841  0.2355
  843MOL0     C16259   8.803   3.627  11.756 -0.1669 -0.3904  1.0706
  843MOL0     C16260   8.836   3.758  11.715 -1.4588  0.3375 -1.0294
  843MOL0     C16261   8.889   3.863  11.699  0.0465  0.1016  0.3601
  843MOL0     C16262   8.734   3.710  11.178  0.5583  0.1311  0.6833
  843MOL0     C16263   8.828   3.695  11.080  0.3610 -0.8658 -0.3573
  843MOL0     C16264   8.848   3.809  10.980 -0.0321 -0.0875  0.9692
  843MOL0     H16265   9.108   3.757  10.746 -0.1769 -1.9029 -1.7310
  843MOL0     H16266   9.329   3.801  10.619  4.8493 -1.1958 -0.9082
  843MOL0     H16267   9.716   3.808  10.814 -1.2369 -3.6118 -2.5616
  843MOL0     H16268   9.606   3.951  10.820  0.8604  0.7802 -0.1053
  843MOL0     H16269   9.642   4.016  10.593  1.2303 -0.1387 -1.6519
  843MOL0     H16270   9.787   4.005  10.695  0.5527 -1.0332 -0.8179
  843MOL0     H16271   9.830   3.945  10.483 -0.8888 -1.1263 -2.7063
  843MOL0     H16272   9.847   3.793  10.577 -0.7828 -1.0571  2.0477
  843MOL0     H16273   9.659   3.694  10.512 -2.9180  0.2404 -1.1876
  843MOL0     H16274   9.601   3.825  10.410 -2.0765 -0.9986  1.2098
  843MOL0     H16275   9.745   3.615  10.291  1.1488 -0.9561 -0.0468
  843MOL0     H16276   9.879   3.688  10.368  0.6056 -1.3150 -0.6057
  843MOL0     H16277   9.673   3.831  10.182 -0.5821  0.5527  2.0976
  843MOL0     H16278   9.814   3.922  10.248 -2.0576  1.5668 -2.2627
  843MOL0     H16279   9.840   3.692  10.047  2.6448  1.0208 -3.8476
  843MOL0     H16280   9.964   3.774  10.154 -0.3346  5.1542  2.5507
  843MOL0     H16281   9.790   3.902   9.946 -1.1657  0.2681  1.4873
  843MOL0     H16282   9.931   3.978  10.030 -0.2256 -0.6974  0.7551
  843MOL0     H16283   9.827   3.738   9.738 -0.9102  3.0019  1.5568
  843MOL0     H16284  10.002   3.515   9.649 -1.2896  1.4212  0.4159
  843MOL0     H16285  10.176   3.565   9.667  1.0065  2.1666  2.5417
  843MOL0     H16286  10.090   3.557   9.438  0.5711  0.4304  0.2359
  843MOL0     H16287   9.978   3.682   9.462  0.9738  0.1899 -1.3948
  843MOL0     H16288  10.167   3.786   9.360 -3.3931 -1.9603 -1.2407
  843MOL0     H16289  10.183   3.839   9.534 -0.3103 -0.1768 -1.1810
  843MOL0     H16290  10.401   3.772   9.441  3.7228 -2.5289  0.7201
  843MOL0     H16291  10.340   3.638   9.545 -2.4982  1.2133  1.1452
  843MOL0     H16292  10.580   3.621   9.468  2.2302  1.1997 -1.7822
  843MOL0     H16293  10.792   3.619   9.473 -0.1355  0.5359 -0.3890
  843MOL0     H16294  10.881   3.550   9.336 -0.1331 -3.6396 -0.7563
  843MOL0     H16295  10.846   3.456   9.477  1.4465 -0.0339 -0.2697
  843MOL0     H16296  10.921   3.096   9.139  0.7897 -0.0751  0.3745
  843MOL0     H16297  11.116   2.976   9.070  2.8695  1.0009 -0.5005
  843MOL0     H16298  11.332   3.012   9.023 -1.0084 -0.0562 -0.0188
  843MOL0     H16299  11.333   2.862   8.925 -0.3020  0.3295  0.8537
  843MOL0     H16300  11.549   2.933   8.916  0.6263  0.3093  0.6536
  843MOL0     H16301  11.490   2.987   8.761  0.0129 -0.3476 -0.0330
  843MOL0     H16302  11.530   3.163   9.014  0.4896 -0.8458  1.2726
  843MOL0     H16303  11.447   3.210   8.861  1.2785  0.8667 -1.7979
  843MOL0     H16304  11.684   3.105   8.762 -3.2942 -1.3419  0.3762
  843MOL0     H16305  11.735   3.182   8.916 -0.5681 -3.1080  0.5839
  843MOL0     H16306  11.753   3.321   8.694 -0.0271 -2.2046 -1.6391
  843MOL0     H16307  11.595   3.275   8.654  1.7166 -2.1685  0.3183
  843MOL0     H16308  11.678   3.460   8.884  1.7798  1.3760 -1.2155
  843MOL0     H16309  11.508   3.425   8.834 -0.1235  0.0536 -0.8416
  843MOL0     H16310  11.728   3.549   8.662  1.0912  0.2970  1.4904
  843MOL0     H16311  11.594   3.637   8.745 -0.1587  0.4648 -1.4898
  843MOL0     H16312  11.557   3.445   8.523  1.5702 -1.3545  1.4768
  843MOL0     H16313  11.546   3.624   8.494 -1.8626  0.5893  0.0270
  843MOL0     H16314  11.137   3.224   8.714 -1.6797 -1.3226 -0.9306
  843MOL0     H16315  10.936   3.359   8.816 -2.8244  0.6986  2.9984
  843MOL0     H16316  10.553   3.357   9.049  1.9226 -1.0769  0.0070
  843MOL0     H16317  10.355   3.460   9.131  0.0738  0.0097 -0.9847
  843MOL0     H16318   9.546   3.655  10.964 -0.1670 -1.3540  0.5320
  843MOL0     H16319   9.343   3.594  11.070 -0.9365  0.4197  0.8813
  843MOL0     H16320   8.905   3.376  11.124 -0.1524 -0.3589 -0.1039
  843MOL0     H16321   8.721   3.382  11.282  0.4388  1.8911  1.7084
  843MOL0     H16322   8.466   3.494  11.458  1.6160 -3.2299 -0.5507
  843MOL0     H16323   8.616   3.427  11.445  1.2262  0.2635 -3.4523
  843MOL0     H16324   8.544   3.546  11.656 -3.0764  0.0751 -3.1807
  843MOL0     H16325   8.610   3.697  11.584 -0.9479 -0.1935  1.6500
  843MOL0     H16326   8.764   3.448  11.635 -0.0670  0.7661  1.1186
  843MOL0     H16327   8.830   3.592  11.548 -0.7780  0.8730 -0.3411
  843MOL0     H16328   8.893   3.576  11.793  0.1817 -1.2242 -0.7848
  843MOL0     H16329   8.729   3.629  11.836 -0.1869 -1.4050  1.0870
  843MOL0     H16330   8.948   3.949  11.675  2.1674 -0.7570  2.1153
  843MOL0     H16331   8.681   3.802  11.155  1.1861  0.5884  1.0465
  843MOL0     H16332   8.748   3.851  10.964 -0.5091 -2.4990 -4.5417
  843MOL0     H16333   8.918   3.882  11.022 -0.5390  1.4012 -0.6576
  843MOL0     H16334   8.873   3.781  10.877 -0.5121  0.5285  0.6752
  844MOL0     O16335   6.018   6.172   3.562  0.1565  0.0887 -0.1333
  844MOL0     C16336   6.135   6.215   3.546  0.1318  1.6269  1.1514
  844MOL0     O16337   6.240   6.206   3.638  0.0138  0.2793 -0.5554
  844MOL0     C16338   6.268   6.079   3.696  0.1114 -0.0155  1.4788
  844MOL0     C16339   6.223   5.951   3.658 -0.2083  0.4533 -0.9863
  844MOL0     C16340   6.275   5.842   3.728  0.1767 -0.1598  0.7962
  844MOL0     C16341   6.371   5.859   3.818 -0.4542  0.3419  0.3072
  844MOL0     O16342   6.415   5.745   3.886  0.2045  0.3344  0.3543
  844MOL0     C16343   6.558   5.733   3.889  0.9911  0.2930  0.4334
  844MOL0     C16344   6.586   5.587   3.905 -0.3633  1.1526 -1.0501
  844MOL0     C16345   6.736   5.568   3.949  0.7480 -0.4552 -0.2379
  844MOL0     C16346   6.776   5.420   3.941  0.1024 -0.1085  0.6192
  844MOL0     C16347   6.718   5.343   4.058  0.8882 -0.1495  0.1918
  844MOL0     C16348   6.743   5.185   4.063  0.5863 -0.2731 -0.0402
  844MOL0     C16349   6.652   5.111   3.962 -0.6839 -0.8851 -0.9805
  844MOL0     C16350   6.499   5.117   3.991  0.6488  0.4334  0.0377
  844MOL0     N16351   6.413   5.014   3.925 -0.1663 -0.8839 -0.6688
  844MOL0     C16352   6.381   5.022   3.794  0.5765 -0.5381 -0.5519
  844MOL0     C16353   6.358   4.898   3.753  0.4446  1.0854 -0.2485
  844MOL0     C16354   6.330   4.863   3.609  0.0336  0.0327 -0.9088
  844MOL0     C16355   6.269   4.983   3.534 -0.6265  0.4641  0.5838
  844MOL0     C16356   6.209   4.932   3.399  0.8705  0.1462 -0.6741
  844MOL0     C16357   6.309   4.865   3.311  1.0323  0.3620  0.7267
  844MOL0     O16358   6.226   4.848   3.187  0.5464  0.1370  0.8571
  844MOL0     C16359   6.256   4.754   3.090  0.9217 -0.2763  1.3063
  844MOL0     C16360   6.373   4.693   3.066 -0.7885  0.6584 -0.4844
  844MOL0     C16361   6.391   4.625   2.945  0.6861  0.7063 -0.1744
  844MOL0     C16362   6.530   4.570   2.924  0.8311 -0.1326  0.0216
  844MOL0     C16363   6.286   4.618   2.845 -1.6124  0.5088  0.3974
  844MOL0     C16364   6.307   4.553   2.715  0.0518 -0.4217 -0.8722
  844MOL0     O16365   6.191   4.557   2.628  0.6001  0.2611 -0.8408
  844MOL0     C16366   6.203   4.488   2.516 -0.1385 -0.3591 -0.6368
  844MOL0     C16367   6.178   4.352   2.529  0.1977  0.3422 -0.4164
  844MOL0     C16368   6.185   4.281   2.408  0.2341  0.7419  0.2595
  844MOL0     C16369   6.210   4.334   2.282  0.1143  0.2496 -0.1439
  844MOL0     O16370   6.219   4.253   2.172 -0.3217 -0.1110  0.2372
  844MOL0     C16371   6.352   4.254   2.134 -0.1668  0.2323 -0.2458
  844MOL0     C16372   6.406   4.110   2.138  0.1856 -0.0384  0.2580
  844MOL0     C16373   6.556   4.107   2.104  0.6059  0.7473  0.3792
  844MOL0     C16374   6.654   4.081   2.221 -0.0267 -0.8312  0.3626
  844MOL0     C16375   6.635   3.935   2.262 -0.1036 -0.1461  0.2517
  844MOL0     C16376   6.758   3.878   2.339 -0.4704 -0.2141  0.2698
  844MOL0     C16377   6.724   3.738   2.400 -0.2305 -0.5137 -0.2178
  844MOL0     C16378   6.846   3.659   2.413 -0.1328  0.2652 -0.4825
  844MOL0    Cl16379   6.964   3.737   2.515 -0.4758  0.1914  0.1262
  844MOL0     C16380   6.231   4.472   2.279 -0.2251  0.3443  0.0881
  844MOL0     C16381   6.227   4.551   2.389  0.5532 -0.4762  0.5496
  844MOL0     O16382   6.415   4.509   2.685  0.0769  0.0748  0.3184
  844MOL0     C16383   6.165   4.685   2.880  0.2135  0.2988  1.2348
  844MOL0     C16384   6.149   4.748   2.997  0.7377 -0.1796 -0.2812
  844MOL0     N16385   6.367   4.807   3.862 -0.1258 -0.8136 -0.7313
  844MOL0     N16386   6.407   4.880   3.962  0.8678  0.5987 -0.0794
  844MOL0     C16387   6.411   5.989   3.855  0.6422 -0.0938 -0.0462
  844MOL0     C16388   6.361   6.101   3.793 -0.7163  1.2524 -0.0041
  844MOL0     C16389   6.164   6.292   3.424  0.7091 -0.1173  0.2474
  844MOL0     C16390   6.239   6.408   3.424 -0.5913 -0.1791  0.6301
  844MOL0     C16391   6.255   6.488   3.314  0.5470  0.0505 -0.9335
  844MOL0     C16392   6.184   6.457   3.200 -0.3278  0.2965  0.6860
  844MOL0     O16393   6.197   6.546   3.096 -0.0125 -0.8233 -0.0070
  844MOL0     C16394   6.153   6.533   2.965 -0.7114  0.2412  0.4340
  844MOL0     C16395   6.223   6.643   2.880 -0.0150  0.2556 -0.6825
  844MOL0     C16396   6.141   6.725   2.781  0.2515 -0.8708 -1.1993
  844MOL0     C16397   6.199   6.859   2.721  0.0158  1.0085  0.6782
  844MOL0     C16398   6.101   6.950   2.656  0.2733 -0.1741 -1.1135
  844MOL0     C16399   6.016   7.032   2.636  0.4962 -0.9335  0.4690
  844MOL0     C16400   6.113   6.336   3.187 -0.2506  0.3793 -0.3740
  844MOL0     C16401   6.094   6.257   3.300 -0.4276 -0.3589  0.5440
  844MOL0     C16402   6.016   6.123   3.287  0.2053 -0.1712  0.4367
  844MOL0     H16403   6.143   5.943   3.586 -2.7914 -0.2122  1.7550
  844MOL0     H16404   6.235   5.744   3.703  0.0710 -0.1786  1.0338
  844MOL0     H16405   6.609   5.798   3.962 -1.0413  3.2566 -0.6136
  844MOL0     H16406   6.604   5.762   3.794 -1.0522  1.1429 -0.3652
  844MOL0     H16407   6.514   5.530   3.963  0.0006  0.8442 -0.8957
  844MOL0     H16408   6.569   5.537   3.810 -0.8894 -0.6926 -0.0288
  844MOL0     H16409   6.796   5.637   3.889  1.9012  0.9415  2.3614
  844MOL0     H16410   6.752   5.610   4.049  1.7417  1.8600 -1.2990
  844MOL0     H16411   6.739   5.393   3.841 -2.0718  0.1714  1.2948
  844MOL0     H16412   6.885   5.416   3.938  0.2656  1.6103  2.5120
  844MOL0     H16413   6.609   5.356   4.052  0.9343  0.2782  0.2330
  844MOL0     H16414   6.742   5.391   4.154  2.1257 -0.3272 -0.0178
  844MOL0     H16415   6.845   5.173   4.026  0.3878 -0.8543 -0.4027
  844MOL0     H16416   6.738   5.146   4.165  1.2063 -0.4829 -0.0858
  844MOL0     H16417   6.695   5.011   3.958  2.3859  0.3547 -1.7752
  844MOL0     H16418   6.672   5.161   3.866  3.1157  3.3930  1.6324
  844MOL0     H16419   6.486   5.110   4.099 -0.1839  1.8751  0.0476
  844MOL0     H16420   6.455   5.204   3.942  0.9122  0.1687 -0.6855
  844MOL0     H16421   6.387   5.110   3.731 -1.5050  0.2991  0.3117
  844MOL0     H16422   6.264   4.776   3.616  1.5287 -1.0156  1.0568
  844MOL0     H16423   6.426   4.837   3.565  1.6901  2.3969  1.0570
  844MOL0     H16424   6.190   5.032   3.591  0.8480  1.8640  1.4890
  844MOL0     H16425   6.350   5.053   3.512 -0.2489  0.0470  0.6127
  844MOL0     H16426   6.129   4.863   3.425 -0.6125  1.3650 -1.7873
  844MOL0     H16427   6.166   5.022   3.354  0.5544  0.4470  0.2129
  844MOL0     H16428   6.394   4.932   3.291  0.7517  1.2088  2.2233
  844MOL0     H16429   6.349   4.774   3.357 -0.5565 -0.2710  0.9116
  844MOL0     H16430   6.464   4.707   3.122 -0.0595  2.7578 -2.0545
  844MOL0     H16431   6.526   4.460   2.920  2.4170 -0.3265  2.1125
  844MOL0     H16432   6.603   4.593   3.002  0.0239  2.0014  0.2211
  844MOL0     H16433   6.576   4.610   2.833  0.3496  3.5327  1.2386
  844MOL0     H16434   6.145   4.306   2.621 -0.2117  0.3025 -0.5815
  844MOL0     H16435   6.167   4.174   2.414  0.9070  0.6854  1.5629
  844MOL0     H16436   6.358   4.292   2.031  3.6437 -0.7765 -0.5544
  844MOL0     H16437   6.418   4.312   2.199 -1.9953 -0.1965  2.1187
  844MOL0     H16438   6.404   4.071   2.240  1.1223  3.0705  1.5870
  844MOL0     H16439   6.345   4.051   2.069 -0.2432 -0.2100  0.7751
  844MOL0     H16440   6.590   4.189   2.039  0.9043 -1.7044 -2.8210
  844MOL0     H16441   6.568   4.018   2.042  3.0979  0.4845  1.1230
  844MOL0     H16442   6.638   4.152   2.303  1.0511  0.3214 -0.3915
  844MOL0     H16443   6.756   4.103   2.186 -0.1972 -1.8450 -0.8502
  844MOL0     H16444   6.539   3.919   2.311 -0.2414 -1.7722 -0.4820
  844MOL0     H16445   6.629   3.876   2.170 -0.6087 -3.3744  2.1708
  844MOL0     H16446   6.790   3.944   2.420 -1.4707  0.7581 -0.0925
  844MOL0     H16447   6.838   3.861   2.266 -2.1732 -2.8414 -1.1711
  844MOL0     H16448   6.671   3.673   2.329 -0.0412 -2.4310  1.3174
  844MOL0     H16449   6.662   3.737   2.490  0.5574  0.2040  0.3472
  844MOL0     H16450   6.897   3.640   2.318  1.9886  0.0304  0.6393
  844MOL0     H16451   6.816   3.562   2.453  0.6696  0.2545  0.1096
  844MOL0     H16452   6.243   4.517   2.181  2.9012  1.1241  0.7353
  844MOL0     H16453   6.236   4.659   2.377  0.4674 -0.5615 -0.3225
  844MOL0     H16454   6.091   4.695   2.801  1.0719 -1.3305  0.1652
  844MOL0     H16455   6.062   4.809   3.021  1.0367 -0.9130  3.2441
  844MOL0     H16456   6.484   6.002   3.934  0.5908  0.0093 -0.0164
  844MOL0     H16457   6.387   6.195   3.840 -0.2507 -0.4460  3.4450
  844MOL0     H16458   6.280   6.443   3.518  3.4120  0.8582 -1.2813
  844MOL0     H16459   6.305   6.584   3.308 -1.1977  1.0047 -0.8303
  844MOL0     H16460   6.197   6.441   2.924  1.8821  2.6373 -2.7517
  844MOL0     H16461   6.044   6.531   2.972 -0.6097  0.6989  2.6106
  844MOL0     H16462   6.301   6.590   2.826 -2.4226 -3.1020 -1.1925
  844MOL0     H16463   6.261   6.717   2.952  1.7669  0.1286 -1.4440
  844MOL0     H16464   6.093   6.653   2.714  0.9304 -3.0961  0.5882
  844MOL0     H16465   6.057   6.773   2.832 -0.1401 -1.0183 -1.7095
  844MOL0     H16466   6.277   6.837   2.647 -2.1880  1.2761 -1.8691
  844MOL0     H16467   6.259   6.912   2.795  1.6371  3.3474 -2.0560
  844MOL0     H16468   5.936   7.102   2.624  0.2138 -1.0980  1.3464
  844MOL0     H16469   6.068   6.304   3.093 -0.5997  0.2496 -0.1621
  844MOL0     H16470   6.066   6.040   3.335  2.1386  0.8076  0.2157
  844MOL0     H16471   5.919   6.118   3.337 -0.9683  0.4017 -1.6502
  844MOL0     H16472   5.998   6.084   3.186 -0.4216  0.9704  0.0827
  845MOL0     O16473   7.814   6.371   8.933 -0.0644  0.1768  0.4635
  845MOL0     C16474   7.916   6.439   8.959  0.4183 -0.4384  0.1612
  845MOL0     O16475   7.961   6.533   8.876  0.7241 -0.6482 -0.3315
  845MOL0     C16476   7.909   6.547   8.752 -0.2640  0.1355  0.2819
  845MOL0     C16477   7.985   6.512   8.642 -0.6447 -0.1398 -0.0655
  845MOL0     C16478   7.938   6.535   8.515 -1.2772  0.0434  0.3410
  845MOL0     C16479   7.816   6.595   8.485 -0.5005  0.5879 -0.3909
  845MOL0     O16480   7.768   6.619   8.360  0.1256  0.3639  0.3323
  845MOL0     C16481   7.864   6.618   8.254 -0.2479  0.6144  0.4465
  845MOL0     C16482   7.800   6.677   8.124 -0.5031  0.5281  0.3467
  845MOL0     C16483   7.705   6.577   8.063 -0.3278 -0.1107  0.2503
  845MOL0     C16484   7.675   6.631   7.917 -0.8855  0.9271  0.0229
  845MOL0     C16485   7.592   6.537   7.821 -1.0047  0.2372 -0.3412
  845MOL0     C16486   7.451   6.512   7.882  0.5841 -0.0536 -0.1956
  845MOL0     C16487   7.368   6.434   7.775  0.7730  0.1400 -0.8734
  845MOL0     C16488   7.416   6.282   7.780 -0.4396 -0.0475  0.5339
  845MOL0     N16489   7.325   6.196   7.702 -0.2781  0.6879  0.4005
  845MOL0     C16490   7.331   6.060   7.708 -0.9931 -0.0430 -0.0316
  845MOL0     C16491   7.276   6.029   7.590  0.3870  0.2649 -0.6565
  845MOL0     C16492   7.263   5.894   7.527  0.3704 -0.2479  0.2277
  845MOL0     C16493   7.394   5.811   7.524  0.4156 -0.3571  0.4344
  845MOL0     C16494   7.358   5.678   7.463 -0.7690  0.0308 -0.1723
  845MOL0     C16495   7.484   5.596   7.462 -0.8080  0.0800  0.3000
  845MOL0     O16496   7.583   5.664   7.383  0.1639 -0.2536 -0.3685
  845MOL0     C16497   7.676   5.588   7.322  0.6713 -0.8518  0.3955
  845MOL0     C16498   7.642   5.551   7.186 -0.2202  0.2316 -0.6606
  845MOL0     C16499   7.716   5.446   7.123 -0.3085 -0.8351  0.9806
  845MOL0     C16500   7.670   5.412   6.983  0.3356  0.2439 -0.5981
  845MOL0     C16501   7.832   5.391   7.180 -0.5360 -0.7866 -0.4271
  845MOL0     C16502   7.905   5.279   7.126  1.0121  0.7847  0.1421
  845MOL0     O16503   8.013   5.254   7.189 -0.2423  0.1339 -0.5217
  845MOL0     C16504   8.112   5.162   7.158  0.4940  0.3976 -0.1019
  845MOL0     C16505   8.240   5.183   7.193 -0.9000 -0.4480  0.3622
  845MOL0     C16506   8.351   5.100   7.171 -0.3189 -0.3424  0.1479
  845MOL0     C16507   8.330   4.978   7.105 -0.1907 -1.3058 -0.0162
  845MOL0     O16508   8.425   4.890   7.072  0.1564  0.6505  0.4208
  845MOL0     C16509   8.545   4.917   7.128  0.0634  0.1975 -0.5001
  845MOL0     C16510   8.644   4.810   7.082 -1.0040  0.5309  0.2173
  845MOL0     C16511   8.794   4.867   7.103 -0.4020 -0.0480 -0.5422
  845MOL0     C16512   8.889   4.752   7.076 -0.6740 -0.3015 -0.2523
  845MOL0     C16513   9.029   4.792   7.131 -0.4955  0.0174 -0.1003
  845MOL0     C16514   9.132   4.673   7.131  0.4378 -0.1143 -0.1135
  845MOL0     C16515   9.267   4.718   7.192 -0.0022 -0.2125 -0.7976
  845MOL0     C16516   9.341   4.598   7.245 -0.1603  0.5602 -0.6588
  845MOL0    Cl16517   9.481   4.658   7.341  0.2093  0.2193 -0.2013
  845MOL0     C16518   8.196   4.949   7.068 -0.2817  0.5075  0.8349
  845MOL0     C16519   8.088   5.037   7.094  0.4519 -0.0270  0.3056
  845MOL0     O16520   7.849   5.203   7.046 -0.1088  0.1794 -0.1284
  845MOL0     C16521   7.878   5.450   7.303  1.1308 -1.0521 -0.2830
  845MOL0     C16522   7.805   5.551   7.367 -0.4060  0.6461  0.7658
  845MOL0     N16523   7.240   6.138   7.525  0.8863 -0.0574 -0.0410
  845MOL0     N16524   7.282   6.240   7.580  0.1461 -0.5429  0.0521
  845MOL0     C16525   7.742   6.634   8.600  0.5370  1.0072  0.3155
  845MOL0     C16526   7.787   6.610   8.731  0.3754  0.9739  0.2378
  845MOL0     C16527   7.983   6.411   9.082 -0.3161  0.9647 -0.6328
  845MOL0     C16528   8.112   6.453   9.097  0.1781  0.9167  0.2315
  845MOL0     C16529   8.186   6.436   9.218 -0.1110 -0.7363 -0.0002
  845MOL0     C16530   8.119   6.378   9.325  0.4614 -0.5930 -0.9743
  845MOL0     O16531   8.194   6.371   9.437  0.0486  0.4864  0.0448
  845MOL0     C16532   8.166   6.281   9.543 -0.7744 -0.2258  0.0418
  845MOL0     C16533   8.273   6.293   9.654  0.1945  0.6430 -0.5912
  845MOL0     C16534   8.221   6.250   9.797 -0.4370 -0.2103 -0.1877
  845MOL0     C16535   8.238   6.096   9.833  0.8212 -0.9545  0.6045
  845MOL0     C16536   8.379   6.069   9.864  0.7866  0.0477 -0.3205
  845MOL0     C16537   8.498   6.044   9.873  0.0384 -0.1133  0.8297
  845MOL0     C16538   7.990   6.326   9.312 -0.6085  0.0744  0.0349
  845MOL0     C16539   7.916   6.343   9.198  0.4779 -0.0766  0.4997
  845MOL0     C16540   7.777   6.299   9.210  1.0223  0.2534  0.1369
  845MOL0     H16541   8.078   6.458   8.660 -0.9847 -1.5445 -2.1827
  845MOL0     H16542   8.012   6.510   8.440 -1.8607 -2.8022  0.6202
  845MOL0     H16543   7.917   6.523   8.240 -1.4984  0.0284 -0.4002
  845MOL0     H16544   7.943   6.686   8.288  1.4798 -1.4777  0.8923
  845MOL0     H16545   7.751   6.770   8.154  2.4610  1.6574  2.0247
  845MOL0     H16546   7.875   6.708   8.050 -1.9692  2.6629 -0.3468
  845MOL0     H16547   7.736   6.472   8.052 -1.5705 -0.4800  0.0980
  845MOL0     H16548   7.613   6.578   8.121 -1.1311  4.2860 -0.7899
  845MOL0     H16549   7.629   6.730   7.928 -0.6513  1.2261 -1.5689
  845MOL0     H16550   7.765   6.657   7.861 -0.9910  1.4323  0.0802
  845MOL0     H16551   7.643   6.441   7.809 -0.2396  0.4991  0.6919
  845MOL0     H16552   7.591   6.586   7.723  2.6289 -2.3064 -1.8979
  845MOL0     H16553   7.462   6.455   7.975 -1.0566 -0.2936 -0.1336
  845MOL0     H16554   7.398   6.604   7.909  0.6335 -0.6337  2.1627
  845MOL0     H16555   7.379   6.494   7.684 -0.6851  0.3749 -0.9116
  845MOL0     H16556   7.266   6.436   7.813  1.1198  0.4477  0.0799
  845MOL0     H16557   7.522   6.272   7.755 -0.1960 -0.2542  1.6280
  845MOL0     H16558   7.399   6.252   7.883  0.5501 -3.0036 -0.0629
  845MOL0     H16559   7.378   5.993   7.779 -0.4770  0.4988  0.1502
  845MOL0     H16560   7.215   5.913   7.431 -2.6597  0.9226  1.8602
  845MOL0     H16561   7.201   5.842   7.601  0.3382  1.4880  1.4889
  845MOL0     H16562   7.463   5.869   7.461  1.5008 -1.1803  0.8429
  845MOL0     H16563   7.441   5.804   7.622  4.0452 -1.4589 -1.2211
  845MOL0     H16564   7.287   5.627   7.529 -0.8327  0.3780  0.0276
  845MOL0     H16565   7.317   5.685   7.362  1.5971  0.7472 -1.1492
  845MOL0     H16566   7.525   5.594   7.563  0.1289  2.8044  0.0411
  845MOL0     H16567   7.468   5.493   7.429  0.6538  0.1594 -0.7664
  845MOL0     H16568   7.557   5.597   7.136  0.3866 -0.7653 -2.7362
  845MOL0     H16569   7.629   5.312   7.000  2.5987 -0.6318  0.0543
  845MOL0     H16570   7.745   5.403   6.905  1.9463  0.8029  0.8305
  845MOL0     H16571   7.578   5.465   6.956  0.8132  1.3130 -0.1862
  845MOL0     H16572   8.254   5.282   7.236 -1.1008  0.5438 -1.7268
  845MOL0     H16573   8.446   5.122   7.218 -1.0720 -1.3758  2.2641
  845MOL0     H16574   8.577   5.010   7.080 -2.1723  0.3233 -1.8829
  845MOL0     H16575   8.542   4.924   7.237  0.3162 -2.0063 -0.3002
  845MOL0     H16576   8.629   4.710   7.125  1.9844 -0.1815 -0.1153
  845MOL0     H16577   8.636   4.788   6.975  2.9370 -1.1565  0.0672
  845MOL0     H16578   8.783   4.910   7.203  0.0595  1.7438 -1.2251
  845MOL0     H16579   8.815   4.955   7.042 -2.1649  1.7158  1.2082
  845MOL0     H16580   8.898   4.722   6.972  3.7883  2.3358 -0.9079
  845MOL0     H16581   8.854   4.667   7.135 -3.4472  2.6328  2.8385
  845MOL0     H16582   9.067   4.868   7.062 -1.2781 -0.8508 -1.5399
  845MOL0     H16583   9.021   4.836   7.231  0.7805 -0.2763  0.1598
  845MOL0     H16584   9.149   4.631   7.032  1.1392 -3.4041  1.2921
  845MOL0     H16585   9.078   4.598   7.190  0.8768  2.6981  4.3607
  845MOL0     H16586   9.241   4.789   7.272  0.5591 -2.1380  1.1969
  845MOL0     H16587   9.322   4.774   7.115 -2.7765  1.7806 -1.4827
  845MOL0     H16588   9.387   4.544   7.163  1.0079  1.5932 -0.7093
  845MOL0     H16589   9.277   4.533   7.306  0.1295 -1.4004 -2.3258
  845MOL0     H16590   8.174   4.860   7.010 -1.8644  0.2681  1.7405
  845MOL0     H16591   7.988   5.004   7.069  0.4468  0.3498 -0.1970
  845MOL0     H16592   7.964   5.413   7.357  1.5264 -0.3386 -0.4088
  845MOL0     H16593   7.834   5.572   7.469 -0.2472 -2.0642  1.3366
  845MOL0     H16594   7.655   6.691   8.570 -1.9488 -2.7920 -0.2812
  845MOL0     H16595   7.737   6.639   8.823  1.0050 -3.7194  2.3603
  845MOL0     H16596   8.171   6.501   9.019 -0.0278  1.2682  0.2868
  845MOL0     H16597   8.291   6.463   9.223 -0.1582 -0.7692  1.4815
  845MOL0     H16598   8.069   6.316   9.580 -1.1066 -1.8978  0.8441
  845MOL0     H16599   8.149   6.179   9.506 -0.1626 -0.5239  0.5644
  845MOL0     H16600   8.314   6.395   9.654  1.5842  0.1292  0.8815
  845MOL0     H16601   8.359   6.229   9.633  2.0624  3.3786 -1.8620
  845MOL0     H16602   8.268   6.312   9.874  1.3524 -1.4826 -0.1873
  845MOL0     H16603   8.117   6.285   9.788  0.0126  0.8463 -1.8349
  845MOL0     H16604   8.204   6.044   9.743 -1.7073 -1.2863  1.6517
  845MOL0     H16605   8.166   6.063   9.909 -0.8929 -2.7125 -1.6396
  845MOL0     H16606   8.592   5.996   9.887 -0.1554 -0.8812 -0.3387
  845MOL0     H16607   7.945   6.283   9.401  0.1367  2.7427  1.8246
  845MOL0     H16608   7.718   6.386   9.179  3.2733  1.2868 -1.5345
  845MOL0     H16609   7.762   6.214   9.143 -0.1833 -1.4455  2.4008
  845MOL0     H16610   7.741   6.272   9.310  1.1854 -0.0546  0.1157
  846MOL0     O16611   3.856   8.105   5.147 -0.7121  0.0392 -0.0525
  846MOL0     C16612   3.847   8.191   5.064 -0.5046  0.5102 -0.1404
  846MOL0     O16613   3.940   8.229   4.983 -0.4335  0.4901  0.1792
  846MOL0     C16614   4.068   8.175   4.993 -0.8317 -0.8923 -0.2886
  846MOL0     C16615   4.104   8.048   5.021 -0.6902  0.8890 -0.7074
  846MOL0     C16616   4.239   8.015   5.025  1.3672 -0.4064 -0.1180
  846MOL0     C16617   4.342   8.111   4.990 -0.2835  0.1653  0.0416
  846MOL0     O16618   4.474   8.081   4.979 -0.1974 -0.2775 -0.0091
  846MOL0     C16619   4.555   8.150   4.885 -0.0333  0.4208  0.1846
  846MOL0     C16620   4.680   8.057   4.856  0.0670 -0.5578  0.4466
  846MOL0     C16621   4.792   8.085   4.960  0.2232 -0.0485 -0.4228
  846MOL0     C16622   4.862   8.224   4.945  0.5220 -0.5576  0.2652
  846MOL0     C16623   4.982   8.243   5.029  0.0972 -0.7615 -0.7081
  846MOL0     C16624   4.952   8.249   5.182  0.6257 -0.2132  0.2310
  846MOL0     C16625   5.060   8.305   5.272  0.2530 -0.5405 -0.5967
  846MOL0     C16626   5.117   8.442   5.230  0.0933 -0.2977  0.2048
  846MOL0     N16627   5.154   8.516   5.354  1.2263 -0.8696 -0.4252
  846MOL0     C16628   5.268   8.505   5.426 -0.2102 -0.5513  0.2438
  846MOL0     C16629   5.249   8.581   5.536 -0.6470  0.4987  0.4874
  846MOL0     C16630   5.345   8.587   5.651 -0.3795  0.4983 -0.8008
  846MOL0     C16631   5.410   8.446   5.678  0.0089  0.3546  0.0372
  846MOL0     C16632   5.555   8.450   5.623 -0.4994  0.2780 -0.6958
  846MOL0     C16633   5.620   8.325   5.640 -0.5115 -0.0821  0.4358
  846MOL0     O16634   5.610   8.250   5.523 -0.0540  0.5176  0.2568
  846MOL0     C16635   5.684   8.134   5.498 -0.8021  0.1760  0.4939
  846MOL0     C16636   5.654   8.041   5.397 -0.1123  0.2285 -0.0160
  846MOL0     C16637   5.722   7.926   5.371 -0.7856  1.6192  0.5274
  846MOL0     C16638   5.651   7.816   5.293 -0.4982 -0.5185  0.3450
  846MOL0     C16639   5.840   7.898   5.451  0.5189 -0.2695  0.3029
  846MOL0     C16640   5.917   7.774   5.436  0.9570  0.8502  0.3197
  846MOL0     O16641   6.002   7.738   5.537 -0.1194 -1.1079  0.3014
  846MOL0     C16642   6.075   7.621   5.523  0.8080  1.0013 -0.3694
  846MOL0     C16643   6.173   7.601   5.429 -0.8985 -0.5606 -0.1891
  846MOL0     C16644   6.230   7.475   5.416  0.6774 -0.0129  0.4543
  846MOL0     C16645   6.189   7.360   5.487  0.7794  0.9516 -0.1938
  846MOL0     O16646   6.241   7.234   5.473 -0.1431 -0.1869 -0.1881
  846MOL0     C16647   6.378   7.219   5.507  0.2986  0.7981 -0.4350
  846MOL0     C16648   6.406   7.092   5.580 -0.3857 -0.5934  0.5328
  846MOL0     C16649   6.550   7.086   5.612  0.8117 -0.3257  0.2620
  846MOL0     C16650   6.578   6.948   5.668  0.2338 -0.3803  0.0489
  846MOL0     C16651   6.714   6.946   5.725 -0.4915  0.7106 -0.3523
  846MOL0     C16652   6.746   6.818   5.795  0.2254  0.1564 -0.5871
  846MOL0     C16653   6.878   6.825   5.860  0.2590  0.0566 -0.3003
  846MOL0     C16654   6.908   6.691   5.924  0.5377  0.8333 -0.1873
  846MOL0    Cl16655   6.913   6.564   5.800 -0.1968 -0.3839 -0.0099
  846MOL0     C16656   6.090   7.383   5.586 -0.6489  0.4341  0.1727
  846MOL0     C16657   6.031   7.505   5.597 -0.5346 -1.5375  0.6381
  846MOL0     O16658   5.896   7.701   5.335  0.0356 -0.2793  0.2403
  846MOL0     C16659   5.885   7.992   5.543 -0.4375 -0.8895 -1.0135
  846MOL0     C16660   5.809   8.111   5.564 -0.9640  0.0995 -1.0174
  846MOL0     N16661   5.130   8.646   5.532  0.1680 -0.4285  0.1128
  846MOL0     N16662   5.071   8.607   5.423 -0.0173 -0.3589 -0.3535
  846MOL0     C16663   4.301   8.247   4.987  0.1275  0.7390  0.7493
  846MOL0     C16664   4.168   8.280   4.986  0.2209 -0.7580  0.0832
  846MOL0     C16665   3.726   8.276   5.078  0.5220  0.1791  0.1213
  846MOL0     C16666   3.751   8.409   5.118  0.4571 -0.4525  0.5439
  846MOL0     C16667   3.651   8.504   5.150  0.2714 -0.0861  0.7878
  846MOL0     C16668   3.523   8.460   5.130 -0.1708  0.6473 -0.2977
  846MOL0     O16669   3.433   8.566   5.144  0.2499  0.9517 -0.3615
  846MOL0     C16670   3.300   8.559   5.095  0.6882 -0.3133 -0.0117
  846MOL0     C16671   3.188   8.539   5.199 -0.7437 -0.8518  0.2556
  846MOL0     C16672   3.214   8.418   5.287 -0.5251  0.0232 -0.9521
  846MOL0     C16673   3.112   8.412   5.398 -0.0025  1.0613 -0.1669
  846MOL0     C16674   3.147   8.481   5.523  0.1166  0.2727 -0.3368
  846MOL0     C16675   3.161   8.553   5.622  0.7085 -0.5473 -0.2069
  846MOL0     C16676   3.491   8.325   5.105 -1.3211 -0.1247 -1.1074
  846MOL0     C16677   3.598   8.232   5.085  0.0464 -0.3195 -0.3602
  846MOL0     C16678   3.583   8.082   5.057  0.4459  0.1387 -0.9064
  846MOL0     H16679   4.030   7.971   5.040 -0.1098  0.9546  2.2984
  846MOL0     H16680   4.269   7.914   5.049  2.9238  0.3852  1.4967
  846MOL0     H16681   4.582   8.248   4.925 -1.4738  0.6180  0.7434
  846MOL0     H16682   4.509   8.171   4.788 -1.5595 -0.2292  0.7367
  846MOL0     H16683   4.647   7.953   4.848 -0.8232 -0.2789  0.4196
  846MOL0     H16684   4.721   8.092   4.761  0.3979  0.1397  0.8349
  846MOL0     H16685   4.741   8.059   5.053 -3.3463 -1.6144 -2.5901
  846MOL0     H16686   4.865   8.005   4.944  1.3820  1.2877 -2.2213
  846MOL0     H16687   4.887   8.245   4.841  0.9441  1.2565  0.6831
  846MOL0     H16688   4.785   8.298   4.969  0.0447 -1.7524  2.7445
  846MOL0     H16689   5.033   8.337   5.006 -2.8162  0.7028 -1.6816
  846MOL0     H16690   5.048   8.160   5.002 -2.1609 -3.9844  2.6561
  846MOL0     H16691   4.863   8.311   5.191  1.6484  0.9936  2.8784
  846MOL0     H16692   4.931   8.150   5.221 -0.9393 -0.0707 -0.1729
  846MOL0     H16693   5.148   8.241   5.278 -1.6689 -3.3801 -0.3927
  846MOL0     H16694   5.012   8.330   5.367 -0.0874  3.9395 -1.7304
  846MOL0     H16695   5.205   8.437   5.166 -1.4788  2.9836 -2.5104
  846MOL0     H16696   5.042   8.485   5.163 -0.0025 -1.9181 -0.7739
  846MOL0     H16697   5.347   8.440   5.389 -1.3537 -0.6614 -2.1996
  846MOL0     H16698   5.293   8.618   5.742  0.9781  0.6583 -0.0442
  846MOL0     H16699   5.423   8.662   5.638 -0.1031  0.0290 -2.0364
  846MOL0     H16700   5.419   8.447   5.787  1.3068  1.5670 -0.0591
  846MOL0     H16701   5.359   8.357   5.640 -1.3445  1.0000  0.2555
  846MOL0     H16702   5.541   8.481   5.519 -2.0457  2.2346  0.0169
  846MOL0     H16703   5.611   8.524   5.680 -0.7434 -0.7115  0.8839
  846MOL0     H16704   5.725   8.342   5.663 -0.3804 -0.6196  0.2497
  846MOL0     H16705   5.574   8.263   5.718  0.2729 -0.0567  0.9310
  846MOL0     H16706   5.567   8.049   5.334  0.8001 -3.0665 -1.9579
  846MOL0     H16707   5.702   7.810   5.196  0.4136  1.0046  0.6923
  846MOL0     H16708   5.547   7.848   5.289 -1.1211 -2.5135 -1.2958
  846MOL0     H16709   5.651   7.723   5.350 -1.5555  0.5485  2.1992
  846MOL0     H16710   6.184   7.691   5.368  0.0865  0.4496  1.4172
  846MOL0     H16711   6.294   7.461   5.330  0.2250  0.9749 -0.0574
  846MOL0     H16712   6.436   7.230   5.415  1.1941 -0.6585 -0.0540
  846MOL0     H16713   6.408   7.299   5.576 -1.9675  0.3759  1.1595
  846MOL0     H16714   6.344   7.088   5.670 -2.2468 -1.3015 -0.7226
  846MOL0     H16715   6.382   7.000   5.526 -0.1243  0.8949 -2.3278
  846MOL0     H16716   6.571   7.170   5.679  2.3834  3.0647 -3.9629
  846MOL0     H16717   6.598   7.115   5.518 -0.5402  1.0313 -0.0653
  846MOL0     H16718   6.556   6.881   5.584 -2.0997 -0.7729  0.8899
  846MOL0     H16719   6.500   6.920   5.740 -2.4093 -1.0806 -2.8590
  846MOL0     H16720   6.788   6.955   5.645  0.0208 -3.8907 -0.6734
  846MOL0     H16721   6.725   7.027   5.798  0.3002 -0.9236  1.4368
  846MOL0     H16722   6.741   6.744   5.715 -2.8233  0.4075 -0.7327
  846MOL0     H16723   6.660   6.803   5.860  0.4688  3.4032  0.6558
  846MOL0     H16724   6.874   6.900   5.940  3.5305 -0.5188  0.5610
  846MOL0     H16725   6.949   6.855   5.782  0.0810 -2.2291 -1.4263
  846MOL0     H16726   6.825   6.669   5.991 -0.8882  0.8389 -1.8860
  846MOL0     H16727   7.003   6.693   5.978  0.5419 -1.3638 -0.0016
  846MOL0     H16728   6.062   7.293   5.641  1.0324 -1.1131 -1.3724
  846MOL0     H16729   5.957   7.515   5.675  0.9335  2.6232  1.7545
  846MOL0     H16730   5.986   7.996   5.581 -1.5624  2.6491  2.1805
  846MOL0     H16731   5.859   8.179   5.632  1.4484  0.5740 -3.1360
  846MOL0     H16732   4.377   8.324   4.981  2.0207 -1.0460  0.5953
  846MOL0     H16733   4.139   8.384   4.972 -0.2858 -0.8685  0.2763
  846MOL0     H16734   3.855   8.436   5.133  0.5661 -1.6883  2.3166
  846MOL0     H16735   3.677   8.606   5.176  1.3336  0.5820 -2.3796
  846MOL0     H16736   3.281   8.653   5.042  1.4952  0.4935  1.0708
  846MOL0     H16737   3.298   8.479   5.021 -0.3677  1.4112 -1.9475
  846MOL0     H16738   3.091   8.529   5.150 -1.7401  2.8678  1.1372
  846MOL0     H16739   3.177   8.631   5.256  1.4922  0.2360 -0.9418
  846MOL0     H16740   3.193   8.337   5.216 -4.4599  1.4466 -1.6835
  846MOL0     H16741   3.316   8.414   5.324 -1.1913 -1.5961  0.8502
  846MOL0     H16742   3.096   8.306   5.422 -0.7676  0.7926 -1.7048
  846MOL0     H16743   3.021   8.458   5.359 -0.6556 -0.0314  0.0303
  846MOL0     H16744   3.163   8.623   5.704  0.8908 -1.4554  0.5802
  846MOL0     H16745   3.390   8.288   5.113 -0.2359 -2.9995  1.0971
  846MOL0     H16746   3.650   8.052   4.976  3.3313 -0.7250  1.6416
  846MOL0     H16747   3.588   8.022   5.148 -4.1614  1.3932  0.4718
  846MOL0     H16748   3.489   8.052   5.009  0.3918  2.4189 -2.4061
  847MOL0     O16749   9.874   0.769   9.462  0.9004 -1.0863  0.5171
  847MOL0     C16750   9.870   0.771   9.341 -0.2411  0.3022 -0.6799
  847MOL0     O16751   9.801   0.677   9.268  0.1604  0.0045 -0.0466
  847MOL0     C16752   9.740   0.563   9.329 -0.1502  1.2138  0.4243
  847MOL0     C16753   9.663   0.570   9.448 -0.1839 -0.1046 -0.4038
  847MOL0     C16754   9.604   0.457   9.503  0.1759 -0.1957  0.3490
  847MOL0     C16755   9.593   0.335   9.434  0.1129 -0.3036 -0.0229
  847MOL0     O16756   9.540   0.227   9.497  1.3562 -0.4870 -0.6582
  847MOL0     C16757   9.603   0.180   9.618 -0.3301 -0.8901  0.2758
  847MOL0     C16758   9.575   0.035   9.647 -0.2690  0.1550  0.6979
  847MOL0     C16759   9.650  -0.016   9.773  0.4941  0.2021 -0.1436
  847MOL0     C16760   9.571   0.017   9.900  0.1849  0.4135 -0.5947
  847MOL0     C16761   9.647   0.088  10.006 -0.6427  0.0854 -0.9471
  847MOL0     C16762   9.562   0.124  10.119 -0.8827  0.5110 -0.5525
  847MOL0     C16763   9.656   0.177  10.223  0.3723  0.1000  0.3116
  847MOL0     C16764   9.573   0.217  10.347 -0.2731  0.7571  0.3016
  847MOL0     N16765   9.647   0.294  10.448 -0.4720  0.3176 -1.1943
  847MOL0     C16766   9.666   0.258  10.581  0.3539  0.4273 -0.1503
  847MOL0     C16767   9.744   0.345  10.637 -0.0698 -0.1399  0.2294
  847MOL0     C16768   9.811   0.333  10.773 -0.0702 -0.0674 -0.3338
  847MOL0     C16769   9.926   0.239  10.760  0.6236 -0.1160  0.6737
  847MOL0     C16770  10.036   0.287  10.666 -1.5332 -0.8724  0.6065
  847MOL0     C16771  10.031   0.217  10.529  0.3655  0.6522 -0.1375
  847MOL0     O16772  10.067   0.080  10.535 -0.1668  0.3152 -0.2919
  847MOL0     C16773  10.036   0.003  10.425  0.2313 -0.3246 -1.1593
  847MOL0     C16774  10.067  -0.130  10.443  0.3759  1.0545  0.5248
  847MOL0     C16775  10.041  -0.225  10.333 -0.7132 -0.4986  0.7875
  847MOL0     C16776  10.022  -0.376  10.364 -0.0526 -0.3209  0.0558
  847MOL0     C16777   9.993  -0.180  10.204  0.2497  0.3145  0.2568
  847MOL0     C16778   9.993  -0.261  10.081 -0.8864  0.0116 -0.1380
  847MOL0     O16779   9.938  -0.210   9.970 -0.1299  0.1736  0.6313
  847MOL0     C16780   9.962  -0.285   9.859 -0.0590  0.2801 -0.3681
  847MOL0     C16781  10.015  -0.238   9.737  0.1949  0.2119  0.5210
  847MOL0     C16782  10.008  -0.314   9.616 -0.4110  0.3248  0.6798
  847MOL0     C16783   9.956  -0.442   9.621  0.4155  0.5959 -1.2443
  847MOL0     O16784   9.945  -0.507   9.499  0.7530 -0.9041 -0.2112
  847MOL0     C16785  10.034  -0.613   9.475 -0.0221 -0.2023  0.0902
  847MOL0     C16786   9.997  -0.690   9.354  0.3380  0.0814  0.7718
  847MOL0     C16787  10.088  -0.805   9.330 -0.0136 -0.5098  0.4653
  847MOL0     C16788  10.117  -0.892   9.455 -0.1533  0.2577  0.9177
  847MOL0     C16789  10.211  -1.004   9.420  0.1840  0.2677 -0.6599
  847MOL0     C16790  10.227  -1.095   9.540 -0.9805 -0.2532  0.0096
  847MOL0     C16791  10.327  -1.205   9.504  0.1387  0.6364 -0.5410
  847MOL0     C16792  10.344  -1.297   9.610  0.8673 -1.1937  0.5149
  847MOL0    Cl16793  10.411  -1.208   9.746 -0.0882 -0.0839 -0.2887
  847MOL0     C16794   9.905  -0.490   9.740  0.1540  0.4295 -0.7264
  847MOL0     C16795   9.903  -0.416   9.857  0.1829  0.1550 -1.2285
  847MOL0     O16796  10.062  -0.363  10.084 -0.5126 -0.6999  0.4175
  847MOL0     C16797   9.968  -0.039  10.194  0.1595 -0.0157 -0.8419
  847MOL0     C16798   9.988   0.054  10.295 -0.1138 -0.4366 -0.3403
  847MOL0     N16799   9.780   0.434  10.538  0.0268  0.0648 -0.0626
  847MOL0     N16800   9.719   0.402  10.432 -0.8977  0.1563  0.1321
  847MOL0     C16801   9.661   0.330   9.317 -0.3243  1.1132 -0.1142
  847MOL0     C16802   9.729   0.444   9.251  0.9742  0.2911  0.2183
  847MOL0     C16803   9.976   0.849   9.266 -0.6022  0.9913  1.1493
  847MOL0     C16804  10.038   0.781   9.160  0.9581  0.4079  0.2483
  847MOL0     C16805  10.160   0.825   9.104 -0.8783 -0.2597 -0.0129
  847MOL0     C16806  10.219   0.942   9.149  0.7064 -0.8493 -0.0474
  847MOL0     O16807  10.338   0.977   9.091  0.5003  0.2345 -0.0890
  847MOL0     C16808  10.436   1.069   9.147 -0.0825  0.0028 -0.2701
  847MOL0     C16809  10.582   1.046   9.099 -0.5764  0.0288 -0.7966
  847MOL0     C16810  10.636   0.901   9.124 -0.2601  0.0870  0.5332
  847MOL0     C16811  10.781   0.878   9.094  0.3215  0.4928 -0.5744
  847MOL0     C16812  10.810   0.909   8.953 -0.2254 -0.3631  0.0623
  847MOL0     C16813  10.833   0.935   8.836  0.1494  0.1712 -0.0589
  847MOL0     C16814  10.155   1.018   9.253  0.0040 -0.2663  0.2966
  847MOL0     C16815  10.042   0.958   9.316  0.3706 -0.1059 -0.4139
  847MOL0     C16816   9.987   1.048   9.426 -0.2395  0.6208 -1.2865
  847MOL0     H16817   9.636   0.667   9.489  2.8020  0.5619  0.2484
  847MOL0     H16818   9.555   0.459   9.600 -1.3212  0.2077 -0.3894
  847MOL0     H16819   9.566   0.240   9.702 -0.0085 -2.4709  1.6010
  847MOL0     H16820   9.710   0.205   9.618 -0.2894 -1.0359  1.2398
  847MOL0     H16821   9.469   0.009   9.652 -0.3478 -1.6260 -4.4569
  847MOL0     H16822   9.610  -0.024   9.562 -0.0201  2.5791 -0.9897
  847MOL0     H16823   9.656  -0.125   9.772 -1.9505  0.0062 -1.2115
  847MOL0     H16824   9.745   0.038   9.769  1.1544 -0.9409 -0.0949
  847MOL0     H16825   9.483   0.078   9.880 -0.5562 -0.3347  0.2923
  847MOL0     H16826   9.536  -0.077   9.943 -0.7471  1.3732  0.8128
  847MOL0     H16827   9.675   0.182   9.957  1.4639 -0.3294 -0.6323
  847MOL0     H16828   9.734   0.025  10.029 -1.2735 -0.4475 -0.0084
  847MOL0     H16829   9.494   0.204  10.088  1.6095  2.5927 -0.8923
  847MOL0     H16830   9.505   0.037  10.155 -1.8537  0.0519 -3.0450
  847MOL0     H16831   9.719   0.259  10.186  0.7830 -0.3016  0.1194
  847MOL0     H16832   9.723   0.097  10.256 -3.1986 -2.4624  1.9617
  847MOL0     H16833   9.485   0.270  10.310 -1.5536 -1.3708  0.1687
  847MOL0     H16834   9.526   0.130  10.393 -3.1204  0.9279 -2.0558
  847MOL0     H16835   9.632   0.167  10.630 -0.4554  2.2192  2.8184
  847MOL0     H16836   9.741   0.304  10.852 -1.0722  0.6449 -0.9338
  847MOL0     H16837   9.855   0.425  10.814 -0.2577 -0.7610  1.5074
  847MOL0     H16838   9.960   0.202  10.857 -4.1727 -1.7901  2.0088
  847MOL0     H16839   9.883   0.147  10.720  0.0521 -0.3567  1.8079
  847MOL0     H16840  10.032   0.395  10.649  0.7385 -0.7344  0.6488
  847MOL0     H16841  10.133   0.262  10.711 -0.8154 -0.7959 -0.8316
  847MOL0     H16842   9.933   0.217  10.480 -0.1943 -1.9412  0.7936
  847MOL0     H16843  10.103   0.266  10.463 -0.3959 -1.0496 -2.3146
  847MOL0     H16844  10.125  -0.154  10.531  0.2845 -2.2265 -0.1969
  847MOL0     H16845  10.022  -0.377  10.474  1.1605  0.2954  0.0726
  847MOL0     H16846  10.105  -0.444  10.340  0.3089 -0.2476  1.0453
  847MOL0     H16847   9.919  -0.401  10.338 -0.4153  2.5526 -1.7005
  847MOL0     H16848  10.053  -0.137   9.743  0.1321  0.2036  1.0348
  847MOL0     H16849  10.049  -0.279   9.521  1.0398 -0.2134  1.0736
  847MOL0     H16850  10.133  -0.570   9.458 -0.0881  0.4286  1.1875
  847MOL0     H16851  10.026  -0.686   9.556 -1.5372 -0.9625 -0.6932
  847MOL0     H16852   9.891  -0.716   9.362 -0.0009  1.4697  1.0250
  847MOL0     H16853  10.000  -0.624   9.266  1.3764 -0.5019  0.3464
  847MOL0     H16854  10.182  -0.767   9.288 -0.5880  1.1812  0.6638
  847MOL0     H16855  10.044  -0.855   9.243 -1.5105  2.3510 -0.5199
  847MOL0     H16856  10.015  -0.921   9.485 -0.7677  1.2441 -0.1121
  847MOL0     H16857  10.164  -0.832   9.533  0.6585 -0.7357  1.2032
  847MOL0     H16858  10.188  -1.048   9.322  0.9023 -0.1466 -0.6453
  847MOL0     H16859  10.311  -0.968   9.397  0.9197  0.0309  1.9230
  847MOL0     H16860  10.128  -1.132   9.568 -2.5145  1.0984 -3.1141
  847MOL0     H16861  10.259  -1.033   9.624 -0.4410  0.7607 -0.9220
  847MOL0     H16862  10.424  -1.166   9.471  0.6597 -1.2535 -1.3884
  847MOL0     H16863  10.297  -1.256   9.412 -0.5163 -1.0757  0.5689
  847MOL0     H16864  10.401  -1.386   9.583  0.3256 -2.2250  2.5698
  847MOL0     H16865  10.251  -1.350   9.633  1.1297 -2.7136 -1.6443
  847MOL0     H16866   9.863  -0.590   9.732 -0.0880  0.0768  3.1253
  847MOL0     H16867   9.868  -0.471   9.944  3.7142 -1.8902 -0.8948
  847MOL0     H16868   9.938   0.005  10.099 -0.3978  2.1600  0.2618
  847MOL0     H16869   9.973   0.160  10.275  4.4928  0.2948 -1.0469
  847MOL0     H16870   9.655   0.233   9.268  0.0059 -0.3416  2.5613
  847MOL0     H16871   9.757   0.446   9.146 -3.2004  0.8781 -1.0771
  847MOL0     H16872   9.996   0.691   9.117  1.3268 -0.1309  0.9986
  847MOL0     H16873  10.199   0.774   9.017 -2.5760 -0.3504 -0.7745
  847MOL0     H16874  10.390   1.161   9.109 -2.4172 -0.7153  0.6536
  847MOL0     H16875  10.437   1.064   9.256  0.5948  0.9642 -0.2172
  847MOL0     H16876  10.649   1.118   9.147  0.3981  0.6076 -2.9046
  847MOL0     H16877  10.561   1.068   8.994 -1.9199 -1.5539 -0.8928
  847MOL0     H16878  10.627   0.879   9.231  0.2591 -1.4069  0.2948
  847MOL0     H16879  10.569   0.843   9.060  0.4581  1.9305 -2.0478
  847MOL0     H16880  10.813   0.778   9.126  1.2308  1.4484  1.6895
  847MOL0     H16881  10.847   0.928   9.166  1.3497 -2.9994  1.1303
  847MOL0     H16882  10.847   0.941   8.730 -2.7825  0.5160 -0.5001
  847MOL0     H16883  10.192   1.112   9.292 -0.5628 -0.6829  1.9004
  847MOL0     H16884   9.911   0.993   9.482 -0.6980 -0.9152 -3.3159
  847MOL0     H16885  10.055   1.071   9.509 -1.2563 -4.2792  1.2968
  847MOL0     H16886   9.940   1.139   9.388 -1.7354 -0.7904 -2.9557
  848MOL0     O16887   4.396   9.928   3.955 -0.4420 -0.1456 -0.2410
  848MOL0     C16888   4.510   9.955   3.918  0.4041 -0.6072 -0.0185
  848MOL0     O16889   4.565   9.928   3.792 -0.1369 -0.3586 -0.6067
  848MOL0     C16890   4.493   9.850   3.694 -0.2937 -0.3755 -0.1175
  848MOL0     C16891   4.359   9.810   3.692 -0.0428 -0.6332 -1.2374
  848MOL0     C16892   4.305   9.723   3.600  0.8617  1.2785 -0.1621
  848MOL0     C16893   4.382   9.681   3.490  0.2364 -0.3624  0.1839
  848MOL0     O16894   4.334   9.593   3.389  0.2930 -0.4868  0.1371
  848MOL0     C16895   4.195   9.552   3.384  0.0386 -0.2344  0.0097
  848MOL0     C16896   4.187   9.443   3.278 -0.2019 -1.2198  0.8558
  848MOL0     C16897   4.062   9.456   3.193  0.1283  0.5409  0.4347
  848MOL0     C16898   4.048   9.358   3.078  0.4273  0.1533  0.9663
  848MOL0     C16899   3.929   9.389   2.988  0.5093  0.4875  0.2325
  848MOL0     C16900   3.975   9.454   2.855 -0.2234 -0.8713  0.1274
  848MOL0     C16901   3.852   9.499   2.775 -0.5838  0.7127 -0.0580
  848MOL0     C16902   3.841   9.651   2.791 -0.4671 -0.7363 -0.7275
  848MOL0     N16903   3.760   9.710   2.679  0.1848 -0.3310 -0.8109
  848MOL0     C16904   3.675   9.824   2.690  0.9626 -0.0268  0.1902
  848MOL0     C16905   3.636   9.857   2.569  0.3478  0.4112 -0.1003
  848MOL0     C16906   3.533   9.966   2.574 -0.3106  0.2349  0.4165
  848MOL0     C16907   3.576  10.119   2.567 -0.3364 -0.0420  0.1435
  848MOL0     C16908   3.650  10.159   2.438 -0.1144 -0.1214 -0.1968
  848MOL0     C16909   3.645  10.311   2.435 -0.4369  0.1960  0.0987
  848MOL0     O16910   3.718  10.372   2.543  0.7831  0.4404 -0.0657
  848MOL0     C16911   3.697  10.509   2.559  0.3369  0.1549 -0.3357
  848MOL0     C16912   3.626  10.589   2.465 -0.4681 -1.0694 -0.4222
  848MOL0     C16913   3.616  10.734   2.487  0.2738  1.0186  0.6191
  848MOL0     C16914   3.548  10.807   2.371  0.1641  0.1836  0.2961
  848MOL0     C16915   3.662  10.795   2.605  0.5410  0.7561  0.7941
  848MOL0     C16916   3.641  10.933   2.621 -1.3035 -0.2910 -0.0049
  848MOL0     O16917   3.523  10.995   2.591 -0.2445  0.0946  0.0224
  848MOL0     C16918   3.506  11.122   2.653  0.1450  0.0347 -0.2820
  848MOL0     C16919   3.579  11.235   2.623 -0.0711 -0.5554  1.0013
  848MOL0     C16920   3.549  11.358   2.674 -0.4312 -0.3504  0.0347
  848MOL0     C16921   3.437  11.372   2.757 -0.1016 -0.7096  0.6302
  848MOL0     O16922   3.404  11.494   2.815  1.3304 -0.0220 -0.0443
  848MOL0     C16923   3.433  11.627   2.762  0.0198  0.6284 -0.2284
  848MOL0     C16924   3.532  11.709   2.853 -0.2495  0.3895  0.0655
  848MOL0     C16925   3.458  11.792   2.963 -0.2462  0.5612  0.2704
  848MOL0     C16926   3.556  11.903   3.028 -0.7397  0.5594  0.3114
  848MOL0     C16927   3.636  11.829   3.140 -0.4719 -0.1376 -0.2513
  848MOL0     C16928   3.734  11.929   3.181  0.3629 -0.3962 -0.7384
  848MOL0     C16929   3.834  11.874   3.290  0.3716  0.7807  0.5990
  848MOL0     C16930   3.891  11.968   3.395  0.6478 -0.6973 -0.4295
  848MOL0    Cl16931   3.962  12.114   3.320 -0.3399  0.0998 -0.3982
  848MOL0     C16932   3.357  11.264   2.773 -1.0274  0.0597 -0.8153
  848MOL0     C16933   3.390  11.135   2.731  1.4244 -1.2162  0.2952
  848MOL0     O16934   3.740  10.993   2.671 -0.5409  1.3940  0.7223
  848MOL0     C16935   3.708  10.709   2.709 -0.5292  0.6106 -0.1708
  848MOL0     C16936   3.735  10.575   2.684  1.1154  0.3421 -0.2226
  848MOL0     N16937   3.712   9.773   2.481  0.2323  0.4132  0.3570
  848MOL0     N16938   3.773   9.682   2.546 -0.0905 -0.1829 -0.0671
  848MOL0     C16939   4.513   9.729   3.483  0.1290 -0.2463 -0.0804
  848MOL0     C16940   4.567   9.810   3.582 -0.7288  0.1981  0.7160
  848MOL0     C16941   4.586  10.053   4.003  0.4555  0.9020 -0.2067
  848MOL0     C16942   4.666  10.150   3.939  0.7422  0.9630  0.1040
  848MOL0     C16943   4.743  10.240   4.009  0.7439 -0.4322 -0.5154
  848MOL0     C16944   4.726  10.244   4.147 -0.1677  0.1186 -0.8070
  848MOL0     O16945   4.818  10.328   4.221  0.4694  0.0733 -0.2545
  848MOL0     C16946   4.873  10.288   4.347  0.8744  0.3912 -0.8041
  848MOL0     C16947   4.938  10.408   4.422  0.3219 -0.0595  0.4180
  848MOL0     C16948   5.056  10.465   4.345 -0.1752 -0.3950 -0.3648
  848MOL0     C16949   5.086  10.616   4.380 -0.8942  0.3572  0.3207
  848MOL0     C16950   5.084  10.638   4.525  0.0214  0.7773  0.7661
  848MOL0     C16951   5.110  10.656   4.644  0.3628  1.0228 -0.1886
  848MOL0     C16952   4.636  10.155   4.213 -0.1205 -1.1349 -0.4738
  848MOL0     C16953   4.558  10.063   4.144  0.0117 -1.9333  0.0954
  848MOL0     C16954   4.466   9.983   4.229  0.0060  0.4148 -0.5949
  848MOL0     H16955   4.290   9.847   3.768 -1.8886  0.2290 -3.2251
  848MOL0     H16956   4.206   9.682   3.613 -0.2672  4.1550  1.1835
  848MOL0     H16957   4.128   9.634   3.354  1.2428  0.6048 -0.4705
  848MOL0     H16958   4.155   9.513   3.478 -2.7022 -1.5213 -1.5669
  848MOL0     H16959   4.269   9.463   3.209 -1.0854 -1.1128 -0.1784
  848MOL0     H16960   4.191   9.344   3.325  4.2523 -1.5220  0.2614
  848MOL0     H16961   3.970   9.447   3.252  0.5350 -0.8697  0.8997
  848MOL0     H16962   4.051   9.557   3.151 -0.1739  0.6825  0.8382
  848MOL0     H16963   4.141   9.344   3.022 -0.3980  1.7234 -0.9445
  848MOL0     H16964   4.020   9.260   3.115 -1.0431  1.2528  2.9277
  848MOL0     H16965   3.858   9.446   3.049  0.1612  0.9736 -0.6051
  848MOL0     H16966   3.882   9.292   2.975 -3.0871  2.0492  0.3915
  848MOL0     H16967   4.046   9.537   2.862  1.3294 -1.7442 -3.2374
  848MOL0     H16968   4.027   9.375   2.801  0.5136  0.0561 -0.5660
  848MOL0     H16969   3.768   9.431   2.790  0.4053 -0.9002 -1.4929
  848MOL0     H16970   3.868   9.487   2.667 -2.4114  1.1373 -0.4162
  848MOL0     H16971   3.796   9.666   2.890  1.9655 -0.9481  0.4840
  848MOL0     H16972   3.942   9.694   2.782 -0.0828 -1.4168  0.1598
  848MOL0     H16973   3.637   9.881   2.774 -0.3697 -0.7810  0.1280
  848MOL0     H16974   3.471   9.949   2.662 -2.2213 -0.8358 -1.0520
  848MOL0     H16975   3.477   9.949   2.481  3.2093 -0.3515 -1.7992
  848MOL0     H16976   3.482  10.171   2.584 -0.8006 -0.4760 -0.9813
  848MOL0     H16977   3.651  10.137   2.644 -2.6967 -1.5966  3.0187
  848MOL0     H16978   3.753  10.125   2.447  0.1104 -0.0420 -2.0900
  848MOL0     H16979   3.612  10.111   2.348  1.2699  0.5648 -1.1677
  848MOL0     H16980   3.672  10.355   2.338  0.1220  0.4908  0.3865
  848MOL0     H16981   3.539  10.329   2.452 -1.2880 -1.8760 -2.2993
  848MOL0     H16982   3.595  10.543   2.372 -0.4323 -3.0228  0.4784
  848MOL0     H16983   3.562  10.754   2.276 -1.5359 -0.1825  0.2171
  848MOL0     H16984   3.607  10.896   2.347  1.0756  0.8440  4.3641
  848MOL0     H16985   3.443  10.830   2.390 -0.0105 -1.3755  1.3949
  848MOL0     H16986   3.673  11.219   2.572  1.4758 -0.3608  3.6053
  848MOL0     H16987   3.621  11.437   2.652 -0.8597  0.1988  0.5534
  848MOL0     H16988   3.469  11.619   2.659  0.3205 -1.4466  0.0061
  848MOL0     H16989   3.335  11.676   2.759 -0.5649 -0.5115 -0.3573
  848MOL0     H16990   3.589  11.627   2.898 -1.1110 -0.3743 -0.2096
  848MOL0     H16991   3.603  11.779   2.808  0.5766 -0.6346 -0.2632
  848MOL0     H16992   3.416  11.729   3.041 -1.6017  0.9534 -0.1098
  848MOL0     H16993   3.387  11.858   2.912  1.7910  2.4135 -0.3343
  848MOL0     H16994   3.497  11.990   3.057 -1.0764  1.6003 -3.1544
  848MOL0     H16995   3.619  11.938   2.946 -0.1523  0.4596  0.7057
  848MOL0     H16996   3.561  11.811   3.218 -2.3984  3.9629 -0.9075
  848MOL0     H16997   3.672  11.735   3.099  2.2424  0.5143  0.4244
  848MOL0     H16998   3.676  12.008   3.230  1.9478 -0.5071  1.4956
  848MOL0     H16999   3.787  11.970   3.095 -0.9246 -0.2716 -1.4853
  848MOL0     H17000   3.920  11.831   3.239  0.9522  0.7037  1.6137
  848MOL0     H17001   3.790  11.788   3.340  2.5918 -0.3282  0.7792
  848MOL0     H17002   3.966  11.929   3.464  1.2162  2.3808  0.8698
  848MOL0     H17003   3.802  12.003   3.448  1.1137  1.5171 -0.9807
  848MOL0     H17004   3.272  11.273   2.840  0.4578  2.4412  0.9508
  848MOL0     H17005   3.323  11.051   2.743 -1.2976  0.7573 -0.1804
  848MOL0     H17006   3.753  10.741   2.803 -1.2957 -1.2367  0.8653
  848MOL0     H17007   3.774  10.511   2.763  0.6808  1.2809  0.7681
  848MOL0     H17008   4.569   9.693   3.398 -0.1642 -0.9808  0.0292
  848MOL0     H17009   4.669   9.850   3.584 -0.0124 -1.3598 -1.4729
  848MOL0     H17010   4.671  10.132   3.832 -1.2569 -1.6201  0.3575
  848MOL0     H17011   4.823  10.298   3.963  0.0591  1.1626  0.2120
  848MOL0     H17012   4.810  10.253   4.430  4.0806 -1.6343  0.9598
  848MOL0     H17013   4.940  10.203   4.337  0.1337 -0.5464  1.4678
  848MOL0     H17014   4.959  10.384   4.526 -3.1877  3.0213  2.0782
  848MOL0     H17015   4.861  10.486   4.417 -1.1227 -1.2404  2.7210
  848MOL0     H17016   5.156  10.422   4.355 -0.4447 -1.3774 -1.5981
  848MOL0     H17017   5.040  10.461   4.237 -0.0991  2.0799 -0.5044
  848MOL0     H17018   5.018  10.683   4.327  0.1181  0.6882 -0.6202
  848MOL0     H17019   5.189  10.637   4.347  0.4706 -1.5269  3.0628
  848MOL0     H17020   5.113  10.664   4.751  1.8921 -1.4238  0.0269
  848MOL0     H17021   4.625  10.165   4.320 -2.0065  4.8146 -0.8694
  848MOL0     H17022   4.487   9.876   4.225  0.6868  0.5785 -1.6364
  848MOL0     H17023   4.457  10.019   4.332  0.8492 -1.3783  0.1386
  848MOL0     H17024   4.362   9.987   4.196 -0.5538 -3.4635  0.1744
  849MOL0     O17025   8.680   1.595   8.164 -0.2004  0.0646 -0.6515
  849MOL0     C17026   8.757   1.568   8.072  0.2876  0.1675 -0.5099
  849MOL0     O17027   8.861   1.656   8.031 -0.3830 -0.3682  0.8110
  849MOL0     C17028   8.922   1.723   8.130  0.0101 -0.5744 -0.2439
  849MOL0     C17029   9.022   1.665   8.205 -0.4061  0.5832 -1.0101
  849MOL0     C17030   9.075   1.745   8.307 -0.8099 -0.2595 -0.4345
  849MOL0     C17031   9.021   1.871   8.337 -0.0936  0.1117 -0.5980
  849MOL0     O17032   9.065   1.946   8.444  0.5794 -0.1016  0.7109
  849MOL0     C17033   9.132   1.880   8.549 -1.1192  0.2313 -0.0826
  849MOL0     C17034   9.160   1.969   8.661 -0.9570  0.0096 -0.1569
  849MOL0     C17035   9.296   2.045   8.639  0.6099  0.4770 -0.1337
  849MOL0     C17036   9.314   2.144   8.746  0.0694 -0.5632 -0.1573
  849MOL0     C17037   9.349   2.070   8.883  0.2012  0.3404  0.7402
  849MOL0     C17038   9.393   2.172   8.992  0.3552  0.5228  0.1781
  849MOL0     C17039   9.369   2.121   9.135 -0.5530  0.6481 -0.8161
  849MOL0     C17040   9.354   2.235   9.241  0.1421 -0.0459 -0.4181
  849MOL0     N17041   9.486   2.285   9.292 -0.8924 -0.3631 -0.6455
  849MOL0     C17042   9.538   2.406   9.255  0.4876  0.2664  0.1726
  849MOL0     C17043   9.662   2.403   9.325 -0.0885  0.7399  0.1819
  849MOL0     C17044   9.789   2.487   9.308  0.4265  0.1412  0.5035
  849MOL0     C17045   9.934   2.416   9.326  0.1424 -0.8099  0.3585
  849MOL0     C17046   9.972   2.335   9.213  0.7111  0.6272  0.5389
  849MOL0     C17047  10.102   2.267   9.240 -0.6183  0.4637 -0.3352
  849MOL0     O17048  10.089   2.157   9.336  0.4506  0.3250 -0.8647
  849MOL0     C17049  10.027   2.047   9.286  0.7100 -0.1127  0.0810
  849MOL0     C17050   9.892   2.021   9.325 -0.1915  0.0595  0.4565
  849MOL0     C17051   9.823   1.915   9.277  0.3783  0.4563 -0.2705
  849MOL0     C17052   9.690   1.900   9.345  0.6904 -0.5777  0.3871
  849MOL0     C17053   9.875   1.833   9.173 -0.2012 -0.3363 -0.7093
  849MOL0     C17054   9.821   1.708   9.120 -0.0156  0.1269  0.0245
  849MOL0     O17055   9.705   1.661   9.180  0.1342 -0.6277  0.0865
  849MOL0     C17056   9.665   1.535   9.170  0.8542 -0.5026  0.2722
  849MOL0     C17057   9.752   1.429   9.182  0.9291 -0.4877  0.8076
  849MOL0     C17058   9.708   1.296   9.158 -0.8723  0.1300 -0.0486
  849MOL0     C17059   9.570   1.279   9.158  0.0032  1.0213 -0.3803
  849MOL0     O17060   9.507   1.157   9.165  0.0919  0.2662 -0.7963
  849MOL0     C17061   9.530   1.081   9.279  0.5718 -0.1830 -0.1684
  849MOL0     C17062   9.419   1.119   9.360 -0.5119 -0.9488  0.5494
  849MOL0     C17063   9.425   1.051   9.495  0.5113 -0.6408  0.5834
  849MOL0     C17064   9.374   0.904   9.479  0.1080 -0.1029  0.2425
  849MOL0     C17065   9.342   0.844   9.613  0.3670 -0.3457 -0.2280
  849MOL0     C17066   9.298   0.691   9.587 -0.0882 -1.5107  0.3337
  849MOL0     C17067   9.292   0.619   9.722 -0.9447 -0.1095 -0.1727
  849MOL0     C17068   9.259   0.468   9.714 -0.4177 -0.5820 -0.1696
  849MOL0    Cl17069   9.316   0.382   9.871 -0.4913  0.0881  0.3517
  849MOL0     C17070   9.482   1.385   9.149  0.1801 -0.4358 -0.3021
  849MOL0     C17071   9.526   1.522   9.156 -0.5860 -0.4824  0.4659
  849MOL0     O17072   9.879   1.654   9.022 -0.1196  0.0126 -0.4540
  849MOL0     C17073  10.006   1.865   9.123 -0.3297 -0.4437 -0.5010
  849MOL0     C17074  10.078   1.961   9.197 -0.0314 -0.2819  1.2777
  849MOL0     N17075   9.649   2.297   9.418 -0.8419 -0.1696  0.6498
  849MOL0     N17076   9.557   2.221   9.397  0.5867  0.5820 -0.1028
  849MOL0     C17077   8.918   1.920   8.261  1.2513  0.1374  0.5533
  849MOL0     C17078   8.873   1.855   8.154  0.9067  1.0101  0.0053
  849MOL0     C17079   8.751   1.428   8.007  0.1020  0.3907  0.1763
  849MOL0     C17080   8.688   1.322   8.084 -0.5095 -0.0989 -0.9375
  849MOL0     C17081   8.698   1.185   8.034 -0.4707 -0.2029 -0.1408
  849MOL0     C17082   8.784   1.148   7.922  1.5384 -0.3113  0.1123
  849MOL0     O17083   8.785   1.021   7.882  0.5378 -0.3821  0.2189
  849MOL0     C17084   8.910   0.952   7.899 -0.2118 -0.1496 -0.1702
  849MOL0     C17085   8.875   0.800   7.932  0.2812 -0.6461  0.2989
  849MOL0     C17086   8.840   0.778   8.075 -0.1674 -0.8270  0.1969
  849MOL0     C17087   8.730   0.659   8.079 -0.0647 -0.0694 -0.0874
  849MOL0     C17088   8.597   0.702   8.030 -0.9349  0.0608 -0.6102
  849MOL0     C17089   8.495   0.711   7.982  0.1513  0.1546 -0.6396
  849MOL0     C17090   8.829   1.260   7.841 -0.1028  0.9221 -0.4468
  849MOL0     C17091   8.813   1.394   7.889 -0.5421  0.0207  0.5481
  849MOL0     C17092   8.879   1.506   7.794  0.3082  0.9213  0.6912
  849MOL0     H17093   9.066   1.569   8.181  1.9225  0.6979  2.1107
  849MOL0     H17094   9.158   1.705   8.366  0.4119  0.3626 -1.6649
  849MOL0     H17095   9.223   1.822   8.532 -0.7886 -0.2295  2.6869
  849MOL0     H17096   9.060   1.808   8.590  0.3315 -0.8746  0.6453
  849MOL0     H17097   9.088   2.044   8.696  1.3289  2.7065 -0.8730
  849MOL0     H17098   9.173   1.903   8.748 -0.5270  0.6932  0.3046
  849MOL0     H17099   9.384   1.980   8.636  0.8786  0.6348  2.2803
  849MOL0     H17100   9.287   2.095   8.542 -0.1760  0.9872  0.1898
  849MOL0     H17101   9.392   2.215   8.715  0.0312  0.6070  2.2181
  849MOL0     H17102   9.221   2.199   8.764 -0.6592 -0.9764 -2.3815
  849MOL0     H17103   9.433   2.001   8.869 -0.9328 -0.8924 -0.1928
  849MOL0     H17104   9.269   2.003   8.916  1.0173  0.2499  2.6705
  849MOL0     H17105   9.496   2.198   8.966  0.2658  0.2440 -0.4853
  849MOL0     H17106   9.342   2.269   8.990  0.5496  0.6515  0.9954
  849MOL0     H17107   9.456   2.059   9.159 -1.3729 -0.8275 -1.5387
  849MOL0     H17108   9.279   2.060   9.141 -0.5524  0.7392  0.5068
  849MOL0     H17109   9.314   2.330   9.205  0.2182  0.7947  1.5783
  849MOL0     H17110   9.287   2.196   9.317 -0.3990  0.0959 -0.8200
  849MOL0     H17111   9.500   2.477   9.182  0.7714 -0.2952 -0.5389
  849MOL0     H17112   9.777   2.571   9.377  0.4228 -1.8029  3.0277
  849MOL0     H17113   9.779   2.523   9.205  2.4916 -0.7793 -0.0817
  849MOL0     H17114   9.998   2.503   9.343 -3.2995  2.5149 -1.9845
  849MOL0     H17115   9.942   2.366   9.423 -1.9570 -1.1604  0.3936
  849MOL0     H17116   9.895   2.263   9.184  0.5970  0.7507  0.5330
  849MOL0     H17117   9.974   2.392   9.120 -0.7640  0.5647  0.4527
  849MOL0     H17118  10.164   2.221   9.162  0.7852  0.6641  0.6098
  849MOL0     H17119  10.154   2.356   9.276 -3.7509  3.0048 -1.6712
  849MOL0     H17120   9.838   2.082   9.398 -1.8280 -0.2977 -0.4104
  849MOL0     H17121   9.613   1.925   9.270 -0.2475 -1.5098  1.0122
  849MOL0     H17122   9.673   1.978   9.420 -1.4646  1.4793 -1.9912
  849MOL0     H17123   9.677   1.809   9.403  0.5856  1.4241  3.7802
  849MOL0     H17124   9.851   1.462   9.211 -0.0988  4.2970 -0.2645
  849MOL0     H17125   9.772   1.209   9.171 -0.9556  0.0496 -0.1850
  849MOL0     H17126   9.518   0.974   9.256 -0.0778  0.0353 -0.8515
  849MOL0     H17127   9.619   1.103   9.339  0.5774 -0.3762 -0.1052
  849MOL0     H17128   9.427   1.227   9.373  0.7350 -0.9071 -0.3452
  849MOL0     H17129   9.325   1.100   9.307 -1.0208 -1.8807  1.7094
  849MOL0     H17130   9.360   1.112   9.558  1.6840  1.5579 -0.2491
  849MOL0     H17131   9.524   1.057   9.540  0.7244 -0.9103  0.1600
  849MOL0     H17132   9.450   0.839   9.433  0.2773  0.3512 -0.1318
  849MOL0     H17133   9.280   0.912   9.424 -0.3952  4.7493  1.3499
  849MOL0     H17134   9.426   0.857   9.681 -2.5137 -0.4922  3.7381
  849MOL0     H17135   9.256   0.903   9.648  0.5472 -0.1784 -0.0672
  849MOL0     H17136   9.377   0.642   9.529  0.2502 -0.8783  0.2533
  849MOL0     H17137   9.201   0.686   9.536  0.2752 -0.9849 -0.4431
  849MOL0     H17138   9.212   0.665   9.781 -2.0931  0.1008 -1.8061
  849MOL0     H17139   9.387   0.620   9.775 -1.3128 -3.2164  0.7131
  849MOL0     H17140   9.314   0.427   9.629 -2.3697 -1.5123 -1.0292
  849MOL0     H17141   9.153   0.455   9.689 -0.4516 -0.1666 -0.2576
  849MOL0     H17142   9.378   1.361   9.130  0.1627  0.2824 -1.1725
  849MOL0     H17143   9.465   1.611   9.150  0.4739  0.7918  4.7260
  849MOL0     H17144  10.058   1.812   9.043  1.3752  0.1189  0.1935
  849MOL0     H17145  10.179   1.976   9.161 -0.3608  1.7798  1.0923
  849MOL0     H17146   8.873   2.014   8.290 -1.1859 -1.3730  2.0542
  849MOL0     H17147   8.797   1.889   8.084  0.1092 -4.2996 -2.2472
  849MOL0     H17148   8.625   1.356   8.166  0.5869 -0.8729  0.2705
  849MOL0     H17149   8.659   1.109   8.101  0.2696 -0.2036  0.3042
  849MOL0     H17150   8.961   0.960   7.803 -2.6072  2.8435 -1.3920
  849MOL0     H17151   8.969   0.997   7.979  2.1750 -3.0403 -0.1667
  849MOL0     H17152   8.965   0.740   7.916  0.1458 -0.4725 -1.2557
  849MOL0     H17153   8.805   0.768   7.854  0.2137  1.1295 -0.4157
  849MOL0     H17154   8.932   0.755   8.129  1.0010 -0.3909 -1.5543
  849MOL0     H17155   8.794   0.868   8.118 -2.5798 -2.2831  0.8844
  849MOL0     H17156   8.723   0.623   8.182 -3.7897 -0.4551 -0.3572
  849MOL0     H17157   8.767   0.580   8.014  0.2667  1.5399 -1.9361
  849MOL0     H17158   8.398   0.695   7.938 -0.8013  1.3362  0.9346
  849MOL0     H17159   8.895   1.246   7.756  3.2885  1.1022  1.9478
  849MOL0     H17160   8.898   1.466   7.695  2.9005  0.1012  1.4407
  849MOL0     H17161   8.797   1.579   7.793 -0.3465  0.4041 -4.2082
  849MOL0     H17162   8.972   1.551   7.833 -0.2908  1.8826  1.0532
  850MOL0     O17163   8.997   1.978   5.739  0.3025 -0.1297 -0.3941
  850MOL0     C17164   8.874   1.990   5.759  0.2690 -0.8657  1.0064
  850MOL0     O17165   8.799   2.039   5.657  0.1324 -0.1814 -0.2786
  850MOL0     C17166   8.853   2.072   5.541  0.3597  0.5772 -0.3720
  850MOL0     C17167   8.924   2.190   5.521 -0.3749  0.6205  0.6917
  850MOL0     C17168   8.975   2.215   5.387  0.0733 -0.4130 -0.5084
  850MOL0     C17169   8.948   2.124   5.289 -0.2082 -0.8947  0.1371
  850MOL0     O17170   9.000   2.167   5.171 -0.4434  0.0978 -0.3200
  850MOL0     C17171   9.051   2.075   5.077  0.9798  0.1005  1.3051
  850MOL0     C17172   9.126   2.144   4.969  0.2055 -1.1323  0.5524
  850MOL0     C17173   9.065   2.229   4.863  1.4096  0.4608 -0.7368
  850MOL0     C17174   8.916   2.276   4.892 -0.4792  0.6208 -0.2067
  850MOL0     C17175   8.841   2.352   4.783  1.0148  0.4130  0.0111
  850MOL0     C17176   8.912   2.483   4.738 -0.3143 -0.4539 -0.2598
  850MOL0     C17177   8.824   2.577   4.655  0.9893 -0.3094  0.0360
  850MOL0     C17178   8.897   2.711   4.649  0.9526  0.0694 -0.2998
  850MOL0     N17179   9.013   2.712   4.564  0.6361 -0.1503  0.2221
  850MOL0     C17180   9.143   2.701   4.615  0.9419 -0.4196 -0.3006
  850MOL0     C17181   9.219   2.752   4.515  0.2390  0.9041  0.1969
  850MOL0     C17182   9.370   2.770   4.512  0.2815  0.6382 -0.4009
  850MOL0     C17183   9.447   2.694   4.624 -0.1533  0.2145 -0.7111
  850MOL0     C17184   9.477   2.543   4.581  0.7780  0.6335 -1.3036
  850MOL0     C17185   9.356   2.453   4.586 -0.8385  1.1018 -0.9440
  850MOL0     O17186   9.314   2.435   4.723 -0.0399 -0.7564  0.1650
  850MOL0     C17187   9.393   2.366   4.813 -1.3101 -0.1379  0.7050
  850MOL0     C17188   9.428   2.426   4.938  0.7955 -0.2568  0.1567
  850MOL0     C17189   9.500   2.362   5.032 -0.3213  0.1396  0.5139
  850MOL0     C17190   9.530   2.434   5.151 -0.7568  0.0868  0.5442
  850MOL0     C17191   9.530   2.223   5.007  0.1821  0.2896  0.1796
  850MOL0     C17192   9.607   2.129   5.106 -0.8522  0.3021 -1.0791
  850MOL0     O17193   9.679   2.180   5.208 -0.2227 -0.3684  0.2040
  850MOL0     C17194   9.772   2.097   5.261 -0.9203 -0.5992  0.6371
  850MOL0     C17195   9.895   2.084   5.193  0.2613  0.1063 -0.5140
  850MOL0     C17196  10.007   2.024   5.266  1.3616  0.4153  0.2279
  850MOL0     C17197   9.988   1.979   5.401  0.4819  0.1287  0.1959
  850MOL0     O17198  10.077   1.904   5.475  0.9872  0.2393  0.9320
  850MOL0     C17199  10.207   1.885   5.418 -0.9298 -0.4883  0.3639
  850MOL0     C17200  10.284   1.761   5.472 -0.7702 -0.2097  0.0364
  850MOL0     C17201  10.312   1.776   5.619 -0.5156  1.0218 -0.3787
  850MOL0     C17202  10.366   1.643   5.684 -0.6366 -0.9613 -0.1934
  850MOL0     C17203  10.424   1.668   5.825 -0.2261 -0.0191  0.3500
  850MOL0     C17204  10.548   1.757   5.832  0.0207  0.2644  0.0582
  850MOL0     C17205  10.651   1.732   5.720 -0.9955  0.2307 -0.2776
  850MOL0     C17206  10.782   1.821   5.744 -0.0902  1.1926  0.0595
  850MOL0    Cl17207  10.855   1.772   5.903 -0.2867  0.7288  0.1333
  850MOL0     C17208   9.862   1.990   5.462 -0.3827  0.5164  0.1669
  850MOL0     C17209   9.756   2.045   5.394 -0.0390  0.0442  0.5759
  850MOL0     O17210   9.593   2.005   5.085  0.2085 -0.1436 -0.2167
  850MOL0     C17211   9.498   2.160   4.879 -0.2581 -0.0636 -0.3831
  850MOL0     C17212   9.432   2.237   4.789 -1.4493 -0.8070  1.0792
  850MOL0     N17213   9.144   2.783   4.410 -0.5250 -0.3905  0.3622
  850MOL0     N17214   9.024   2.778   4.442  0.1238  0.0462  0.0129
  850MOL0     C17215   8.886   2.001   5.308 -0.4315  0.3530 -0.0846
  850MOL0     C17216   8.832   1.984   5.432  1.1559  0.1270 -1.0595
  850MOL0     C17217   8.812   1.940   5.888  0.3031 -0.9459 -0.5299
  850MOL0     C17218   8.676   1.941   5.894  0.4763 -0.6265  0.0044
  850MOL0     C17219   8.610   1.866   5.989  0.7049  0.0904  0.4163
  850MOL0     C17220   8.682   1.781   6.073  0.1724 -0.8127  0.1615
  850MOL0     O17221   8.623   1.680   6.152  0.0605 -0.9454 -0.1904
  850MOL0     C17222   8.669   1.548   6.146 -1.0290 -0.3549 -0.1446
  850MOL0     C17223   8.724   1.513   6.277  0.5970  1.5439 -0.1243
  850MOL0     C17224   8.752   1.361   6.297 -0.0393 -0.5254 -0.6775
  850MOL0     C17225   8.835   1.349   6.422  0.8359  0.4855 -0.1689
  850MOL0     C17226   8.978   1.369   6.408  0.5691 -0.1185  1.0726
  850MOL0     C17227   9.098   1.369   6.397 -0.1019  0.0420 -1.1332
  850MOL0     C17228   8.821   1.787   6.076 -0.2280 -0.0844  0.0310
  850MOL0     C17229   8.886   1.876   5.988  0.3473 -0.4909 -0.6041
  850MOL0     C17230   9.032   1.877   6.008 -0.1646  0.1642  0.3408
  850MOL0     H17231   8.957   2.258   5.599 -2.2960  1.0819  1.1543
  850MOL0     H17232   9.040   2.299   5.367 -0.2596  0.1227  0.5588
  850MOL0     H17233   8.973   2.010   5.036  0.5175  1.3616  0.0846
  850MOL0     H17234   9.116   2.009   5.134 -2.5802 -0.9801  4.4660
  850MOL0     H17235   9.199   2.208   5.021  2.0387 -0.3828 -2.6715
  850MOL0     H17236   9.181   2.075   4.905  0.1602 -0.2853 -0.4191
  850MOL0     H17237   9.119   2.324   4.858  2.0043  0.0784 -1.8802
  850MOL0     H17238   9.081   2.180   4.767 -1.6933 -0.0611 -1.0929
  850MOL0     H17239   8.856   2.190   4.925 -1.5086  1.2992 -0.2743
  850MOL0     H17240   8.919   2.339   4.981 -2.3879 -2.1435  2.0102
  850MOL0     H17241   8.743   2.374   4.827 -0.3990  1.6841 -3.4837
  850MOL0     H17242   8.821   2.304   4.687 -0.9519  3.8489 -1.4932
  850MOL0     H17243   8.944   2.529   4.832  1.0439 -1.2005 -0.3403
  850MOL0     H17244   8.999   2.467   4.674 -1.0166 -1.4255 -0.9929
  850MOL0     H17245   8.729   2.603   4.702  0.4851  0.5347 -1.3665
  850MOL0     H17246   8.803   2.544   4.552  1.6701 -0.0189 -0.1989
  850MOL0     H17247   8.827   2.778   4.597 -1.1425 -1.0853  0.9074
  850MOL0     H17248   8.921   2.740   4.751 -3.5935  2.5464  0.3382
  850MOL0     H17249   9.175   2.681   4.717 -2.7936  0.9004  1.2985
  850MOL0     H17250   9.390   2.877   4.524  0.1186  0.4429  1.8853
  850MOL0     H17251   9.410   2.742   4.414 -0.1024  2.1516 -1.0260
  850MOL0     H17252   9.547   2.739   4.624 -0.4220  0.8465 -1.6643
  850MOL0     H17253   9.415   2.707   4.728 -0.2854 -1.2000 -0.5619
  850MOL0     H17254   9.519   2.534   4.481 -1.1879 -3.0291 -1.9516
  850MOL0     H17255   9.560   2.510   4.643 -0.2339 -2.3004 -1.3941
  850MOL0     H17256   9.274   2.496   4.528 -1.6724 -0.7144 -1.1537
  850MOL0     H17257   9.386   2.363   4.533 -0.9825  0.5437 -0.1012
  850MOL0     H17258   9.407   2.530   4.961 -2.3718 -0.9604  0.9041
  850MOL0     H17259   9.477   2.529   5.157 -0.8974 -0.0516  1.6849
  850MOL0     H17260   9.637   2.442   5.173  0.5572 -0.9886 -4.2059
  850MOL0     H17261   9.487   2.364   5.224  1.6814 -2.8796 -0.6219
  850MOL0     H17262   9.922   2.120   5.095  0.4910  1.5311  0.0542
  850MOL0     H17263  10.100   2.010   5.212 -0.0820 -0.3816 -2.1786
  850MOL0     H17264  10.229   1.869   5.312  3.1555  2.0453  0.5784
  850MOL0     H17265  10.271   1.970   5.444 -0.4570 -0.9403  0.7037
  850MOL0     H17266  10.230   1.670   5.446 -0.4849 -0.9263  1.8388
  850MOL0     H17267  10.379   1.742   5.422 -0.9045  2.0656 -1.2433
  850MOL0     H17268  10.222   1.811   5.669 -0.2043 -0.0190  0.9796
  850MOL0     H17269  10.393   1.849   5.633  0.3170  0.4468 -1.8846
  850MOL0     H17270  10.441   1.605   5.614  1.2540  3.5903 -0.9651
  850MOL0     H17271  10.290   1.565   5.693 -0.6112 -0.8052  1.7782
  850MOL0     H17272  10.350   1.714   5.890  2.9272  4.3196  1.3162
  850MOL0     H17273  10.445   1.572   5.873 -2.0932 -0.2954  0.6707
  850MOL0     H17274  10.592   1.746   5.932 -0.6934  0.3408  0.3860
  850MOL0     H17275  10.527   1.863   5.818  0.3830 -0.0956 -5.1075
  850MOL0     H17276  10.629   1.751   5.614  2.6760 -1.1650 -1.4546
  850MOL0     H17277  10.669   1.624   5.723 -2.2853 -0.1064 -2.2598
  850MOL0     H17278  10.760   1.928   5.736 -0.6010  1.0572 -0.4398
  850MOL0     H17279  10.856   1.798   5.668  0.1618  2.2343 -0.0201
  850MOL0     H17280   9.848   1.962   5.566 -1.0434 -1.7226 -0.4679
  850MOL0     H17281   9.662   2.055   5.448 -0.4261 -1.4823  0.2124
  850MOL0     H17282   9.528   2.056   4.873  0.8112  0.0265  2.0391
  850MOL0     H17283   9.397   2.185   4.700 -3.5350 -2.5389  2.7879
  850MOL0     H17284   8.864   1.932   5.227  0.6039 -0.0639 -0.0167
  850MOL0     H17285   8.780   1.891   5.451 -1.3383  1.5308 -0.5429
  850MOL0     H17286   8.619   2.003   5.826  2.7246  2.5708  0.8070
  850MOL0     H17287   8.501   1.862   5.987  0.7580 -1.3715 -0.8675
  850MOL0     H17288   8.589   1.480   6.116 -1.9068  0.8946 -0.6975
  850MOL0     H17289   8.744   1.530   6.068  0.2644 -1.2267  1.2220
  850MOL0     H17290   8.650   1.545   6.351 -2.4120  0.3546 -2.4273
  850MOL0     H17291   8.817   1.569   6.292  1.0912  0.7781 -0.2674
  850MOL0     H17292   8.666   1.296   6.312  1.8037 -2.5578  1.8989
  850MOL0     H17293   8.797   1.325   6.203  1.5055 -0.2795 -0.0578
  850MOL0     H17294   8.825   1.244   6.449 -0.5129  0.1120 -1.9179
  850MOL0     H17295   8.792   1.400   6.509 -1.1234 -0.6255 -0.4287
  850MOL0     H17296   9.204   1.367   6.385 -0.2501 -0.6701 -2.4772
  850MOL0     H17297   8.876   1.713   6.134 -1.3964 -1.4192 -0.4897
  850MOL0     H17298   9.045   1.900   6.115  2.1154  1.5529 -0.1748
  850MOL0     H17299   9.074   1.784   5.967 -0.1942  0.2939  0.0217
  850MOL0     H17300   9.083   1.963   5.966  0.4050 -0.0748  0.5234
  851MOL0     O17301   8.240  11.074   8.344  0.5733 -0.4515  0.1140
  851MOL0     C17302   8.243  11.125   8.454 -0.2287 -0.5774  0.2010
  851MOL0     O17303   8.340  11.201   8.497  0.8444 -0.3384  0.3482
  851MOL0     C17304   8.428  11.270   8.411 -0.3296 -0.4703  0.1537
  851MOL0     C17305   8.379  11.315   8.288 -0.3376 -1.1949  0.5202
  851MOL0     C17306   8.467  11.380   8.199 -0.2071  0.0588 -0.0576
  851MOL0     C17307   8.588  11.425   8.243  0.1570  0.7413 -0.8174
  851MOL0     O17308   8.671  11.517   8.183  0.1316  0.0028 -0.4718
  851MOL0     C17309   8.615  11.624   8.103  1.4898  0.8145  0.0401
  851MOL0     C17310   8.501  11.704   8.177 -0.4768  0.4746  0.2222
  851MOL0     C17311   8.559  11.816   8.265 -0.2548 -0.1032 -1.2582
  851MOL0     C17312   8.455  11.877   8.350 -0.9818 -0.7219  0.3049
  851MOL0     C17313   8.490  12.013   8.404 -1.9044 -0.7323  0.5256
  851MOL0     C17314   8.368  12.081   8.469  0.7701 -1.3535 -0.0044
  851MOL0     C17315   8.317  12.008   8.592  0.1199 -0.0331 -0.4360
  851MOL0     C17316   8.192  12.077   8.658 -0.1576 -0.0125  0.1211
  851MOL0     N17317   8.162  12.027   8.797  0.3746  1.2763 -0.1805
  851MOL0     C17318   8.204  12.078   8.917  0.0781 -0.0252  0.4863
  851MOL0     C17319   8.148  12.006   9.012  0.1652 -0.9675  0.1126
  851MOL0     C17320   8.175  12.034   9.162  0.4217  0.4351  0.5817
  851MOL0     C17321   8.205  11.909   9.235 -1.0690  0.2788  0.5657
  851MOL0     C17322   8.251  11.942   9.381  0.2289  0.9753  0.5907
  851MOL0     C17323   8.143  11.987   9.474  0.4027  0.7582  0.0603
  851MOL0     O17324   8.102  12.123   9.443  0.2723 -0.5345  1.0247
  851MOL0     C17325   7.985  12.180   9.498 -0.9850 -0.1514  0.1805
  851MOL0     C17326   7.955  12.310   9.459 -0.4503 -0.5216 -0.2141
  851MOL0     C17327   7.844  12.380   9.518  0.2947  0.3701 -0.7701
  851MOL0     C17328   7.818  12.518   9.477  0.2970  0.8962 -0.4030
  851MOL0     C17329   7.761  12.317   9.617 -0.3100  0.5200  0.9692
  851MOL0     C17330   7.632  12.374   9.656  0.1677  0.9766 -0.6731
  851MOL0     O17331   7.588  12.339   9.775 -0.3288  0.9434 -0.3643
  851MOL0     C17332   7.477  12.399   9.829 -0.0162  0.6216  0.1643
  851MOL0     C17333   7.391  12.329   9.908  0.0164 -0.8715  1.1599
  851MOL0     C17334   7.271  12.390   9.963 -0.0350  0.5782 -0.6466
  851MOL0     C17335   7.258  12.528   9.952  0.1944  0.4470  0.2620
  851MOL0     O17336   7.164  12.595  10.025 -0.7985  0.3391 -0.1132
  851MOL0     C17337   7.187  12.594  10.165  0.0329  1.6365 -0.5669
  851MOL0     C17338   7.289  12.700  10.202 -0.0483  0.9845 -0.4054
  851MOL0     C17339   7.296  12.723  10.355  0.1515  0.0813  0.3205
  851MOL0     C17340   7.319  12.601  10.449  0.2410  0.6912  0.1364
  851MOL0     C17341   7.472  12.571  10.466 -0.7937 -0.3137  0.3398
  851MOL0     C17342   7.501  12.476  10.590  0.4889 -0.4000  0.5890
  851MOL0     C17343   7.518  12.557  10.719 -0.5084  0.5827 -0.0001
  851MOL0     C17344   7.561  12.460  10.826  0.2188  0.5606 -0.2951
  851MOL0    Cl17345   7.735  12.414  10.809 -0.1733  0.4931 -0.0542
  851MOL0     C17346   7.355  12.610   9.886  0.5282 -0.2992  0.3660
  851MOL0     C17347   7.455  12.544   9.824  0.7569  0.5550 -0.6400
  851MOL0     O17348   7.558  12.417   9.566 -0.5710 -0.4804 -0.1563
  851MOL0     C17349   7.802  12.186   9.654  0.9998 -0.0104 -0.4482
  851MOL0     C17350   7.905  12.117   9.594  0.6309  0.9448 -0.0068
  851MOL0     N17351   8.061  11.922   8.953  0.5597  0.6876 -0.0159
  851MOL0     N17352   8.080  11.919   8.825 -1.0971 -0.2734 -0.6167
  851MOL0     C17353   8.632  11.374   8.368  0.8549  0.7800  0.2820
  851MOL0     C17354   8.556  11.294   8.455 -0.0788  0.3678  0.6098
  851MOL0     C17355   8.145  11.070   8.547  0.8843 -0.3438 -0.1849
  851MOL0     C17356   8.012  11.029   8.507  0.7743 -0.1844  0.4142
  851MOL0     C17357   7.921  10.974   8.600 -1.0865 -0.2614  0.8696
  851MOL0     C17358   7.953  10.958   8.730  0.1040  0.5195  1.0197
  851MOL0     O17359   7.858  10.913   8.816  0.1011 -0.0769  0.3370
  851MOL0     C17360   7.821  11.014   8.915 -0.3091 -0.4687  0.0835
  851MOL0     C17361   7.699  10.975   9.004  0.5863 -1.2228 -0.3535
  851MOL0     C17362   7.717  10.830   9.058 -0.1645  0.2411  0.6765
  851MOL0     C17363   7.570  10.786   9.102  0.0215  0.0160  0.1650
  851MOL0     C17364   7.490  10.721   8.996 -0.3930 -0.2738 -0.3183
  851MOL0     C17365   7.436  10.661   8.905 -0.2059  0.2345 -1.0824
  851MOL0     C17366   8.077  10.986   8.766 -1.1490  0.2505  0.2155
  851MOL0     C17367   8.174  11.046   8.682  0.0255 -0.3188  0.5284
  851MOL0     C17368   8.318  11.054   8.746 -0.6177  0.2748  0.6665
  851MOL0     H17369   8.275  11.302   8.259  0.0320  0.0021 -1.4946
  851MOL0     H17370   8.420  11.404   8.105  2.0952  0.2574 -1.2365
  851MOL0     H17371   8.571  11.582   8.013  1.7435  2.0260 -0.6664
  851MOL0     H17372   8.693  11.696   8.077  3.0579  1.1763  4.6648
  851MOL0     H17373   8.440  11.745   8.096  1.0628  0.3010 -1.0683
  851MOL0     H17374   8.426  11.645   8.231 -3.4583  0.5242 -3.4622
  851MOL0     H17375   8.649  11.788   8.320 -1.1303  1.2365  1.0238
  851MOL0     H17376   8.605  11.888   8.197  0.9610 -0.4424 -0.8216
  851MOL0     H17377   8.359  11.890   8.298 -1.4267 -0.2078  1.2283
  851MOL0     H17378   8.436  11.806   8.431  1.8503  0.6441  2.3141
  851MOL0     H17379   8.517  12.077   8.320  0.6096  1.0059  2.5174
  851MOL0     H17380   8.574  12.002   8.473  0.5676 -1.7922 -2.4677
  851MOL0     H17381   8.397  12.185   8.488 -1.8118 -0.5089 -0.3141
  851MOL0     H17382   8.286  12.080   8.396 -1.6303 -0.6581  2.5209
  851MOL0     H17383   8.399  12.007   8.664 -1.0192 -0.2364  0.8956
  851MOL0     H17384   8.306  11.904   8.561  4.6628 -0.3584 -1.8205
  851MOL0     H17385   8.205  12.186   8.664 -0.2273  0.1346 -1.8508
  851MOL0     H17386   8.103  12.056   8.598  0.9310 -0.3592 -1.4270
  851MOL0     H17387   8.273  12.160   8.925  3.1422 -2.4985  1.4059
  851MOL0     H17388   8.097  12.090   9.214  0.7727  1.8960 -0.3967
  851MOL0     H17389   8.263  12.098   9.160  1.5769 -1.0916 -1.1501
  851MOL0     H17390   8.111  11.852   9.236 -0.1440 -1.3290  0.0196
  851MOL0     H17391   8.284  11.849   9.189 -0.9720  0.8448 -0.0081
  851MOL0     H17392   8.294  11.845   9.407  0.8135  0.2263 -2.6409
  851MOL0     H17393   8.331  12.018   9.379  1.7281 -0.5412 -0.7630
  851MOL0     H17394   8.059  11.918   9.462 -0.4330  0.9550  3.7375
  851MOL0     H17395   8.172  11.971   9.578  1.6105  0.1302 -0.3426
  851MOL0     H17396   8.024  12.359   9.392  1.3200  0.1805  1.9964
  851MOL0     H17397   7.914  12.569   9.474  0.4173  1.2973  3.8171
  851MOL0     H17398   7.751  12.572   9.545  0.5225  0.0672  0.5053
  851MOL0     H17399   7.767  12.511   9.380 -1.1650 -2.7471  0.4700
  851MOL0     H17400   7.406  12.223   9.923  0.8978 -0.7009  1.5942
  851MOL0     H17401   7.208  12.334  10.032 -1.2243  1.2317 -1.1764
  851MOL0     H17402   7.094  12.624  10.213 -1.2215 -2.0828 -0.3639
  851MOL0     H17403   7.212  12.492  10.195 -0.9423  1.4627 -0.3137
  851MOL0     H17404   7.386  12.651  10.186 -1.1603 -1.4665 -0.0569
  851MOL0     H17405   7.280  12.795  10.147 -2.6977  1.2027  0.2881
  851MOL0     H17406   7.195  12.756  10.381  0.2674  0.3183  0.4685
  851MOL0     H17407   7.369  12.800  10.378 -1.2608  1.0160  1.9225
  851MOL0     H17408   7.262  12.513  10.418 -0.0942  0.3952  1.5196
  851MOL0     H17409   7.285  12.643  10.544 -2.6921  1.7361 -1.2465
  851MOL0     H17410   7.516  12.534  10.373  0.3279 -0.7908  1.0400
  851MOL0     H17411   7.523  12.666  10.485 -1.6529  0.2938 -0.3252
  851MOL0     H17412   7.593  12.424  10.561 -0.1766 -1.7804  0.8729
  851MOL0     H17413   7.418  12.405  10.605  0.7515 -0.1937  3.4053
  851MOL0     H17414   7.417  12.594  10.742 -0.2745  1.1332  0.1646
  851MOL0     H17415   7.587  12.641  10.706 -1.5666  1.0526 -3.5919
  851MOL0     H17416   7.499  12.370  10.830  0.0216  0.6765 -0.6946
  851MOL0     H17417   7.557  12.508  10.924  0.7720  1.2626 -0.6108
  851MOL0     H17418   7.341  12.717   9.880  2.6275 -0.0250 -0.6273
  851MOL0     H17419   7.525  12.607   9.771 -1.7758  2.0113 -2.5050
  851MOL0     H17420   7.757  12.124   9.731  2.7005 -2.8871 -1.6230
  851MOL0     H17421   7.932  12.016   9.624  2.9293  2.0646  1.9643
  851MOL0     H17422   8.733  11.402   8.394  2.8361 -2.5695 -2.7924
  851MOL0     H17423   8.578  11.273   8.559 -1.6901 -2.1162  0.5551
  851MOL0     H17424   7.990  11.033   8.401 -2.2906  0.2903  0.9701
  851MOL0     H17425   7.824  10.937   8.567 -0.4633 -0.5918 -0.6760
  851MOL0     H17426   7.905  11.019   8.985 -0.6576 -3.9141  0.8995
  851MOL0     H17427   7.802  11.104   8.855 -1.2657 -2.4887 -2.8490
  851MOL0     H17428   7.608  10.996   8.947  0.8004  0.6296 -0.0798
  851MOL0     H17429   7.693  11.049   9.084  1.3597 -1.5788  0.0460
  851MOL0     H17430   7.763  10.763   8.984  0.2151 -0.3992  1.4738
  851MOL0     H17431   7.792  10.841   9.137  0.6146 -2.5765  0.4360
  851MOL0     H17432   7.513  10.873   9.137  0.1699  0.3462 -0.3879
  851MOL0     H17433   7.579  10.722   9.189  1.5282  0.8971  0.6916
  851MOL0     H17434   7.376  10.610   8.833 -0.7303  0.5392 -0.8649
  851MOL0     H17435   8.118  10.983   8.866  2.3787  1.2009 -1.0686
  851MOL0     H17436   8.345  11.158   8.766  2.3021  0.2487 -2.2792
  851MOL0     H17437   8.319  11.010   8.846 -2.3881 -2.4511 -0.4046
  851MOL0     H17438   8.392  11.006   8.681 -0.0820 -2.9731  3.3876
  852MOL0     O17439   3.305   1.250   2.559  0.6582 -0.6593  0.4035
  852MOL0     C17440   3.253   1.162   2.484  0.2314 -0.2726 -0.1928
  852MOL0     O17441   3.159   1.069   2.531  0.3614  0.7355  0.0257
  852MOL0     C17442   3.137   1.048   2.663  0.8752  0.1143 -0.0304
  852MOL0     C17443   3.010   1.008   2.706  0.4971 -0.7205  0.3102
  852MOL0     C17444   2.969   1.005   2.836 -0.1437  0.6921 -0.0436
  852MOL0     C17445   3.070   1.011   2.930  0.1374  0.2665 -0.2833
  852MOL0     O17446   3.024   0.991   3.058 -0.0651  0.1454  0.1778
  852MOL0     C17447   3.120   1.009   3.159 -0.1833 -0.4853  0.0578
  852MOL0     C17448   3.044   1.036   3.292 -0.3142  0.1891 -0.0717
  852MOL0     C17449   3.126   1.012   3.423 -0.0173 -0.2123 -0.1147
  852MOL0     C17450   3.165   0.864   3.445 -0.5228 -0.0901 -0.2009
  852MOL0     C17451   3.234   0.837   3.590 -0.2401 -0.6888 -0.3775
  852MOL0     C17452   3.382   0.877   3.598  0.3050 -0.5171  0.2240
  852MOL0     C17453   3.450   0.829   3.724  0.4808  0.1276 -0.2712
  852MOL0     C17454   3.597   0.869   3.728  0.2818 -0.2824  0.6709
  852MOL0     N17455   3.640   0.857   3.865 -0.5348 -0.3026  0.5888
  852MOL0     C17456   3.637   0.953   3.963  0.6387 -0.3658 -0.3171
  852MOL0     C17457   3.697   0.892   4.071 -0.3750  1.0751  0.3434
  852MOL0     C17458   3.722   0.948   4.206 -0.2024  0.8340 -0.0271
  852MOL0     C17459   3.832   1.057   4.208 -0.0268  0.4081  0.6799
  852MOL0     C17460   3.976   1.016   4.215 -0.0398 -0.4800  0.1395
  852MOL0     C17461   3.993   0.924   4.330 -0.2577 -0.7243 -0.4652
  852MOL0     O17462   4.119   0.966   4.381 -0.3697  0.4262 -0.6635
  852MOL0     C17463   4.166   0.900   4.491  0.1504 -0.0193  0.5395
  852MOL0     C17464   4.278   0.950   4.555 -0.6749  0.2314 -0.1025
  852MOL0     C17465   4.337   0.890   4.666  0.3106 -0.4497  0.0924
  852MOL0     C17466   4.436   0.968   4.747  0.0397 -0.0445 -0.6679
  852MOL0     C17467   4.287   0.760   4.705  1.0202  0.3344 -0.0779
  852MOL0     C17468   4.347   0.679   4.814 -0.8247  0.2706 -0.6644
  852MOL0     O17469   4.295   0.567   4.869 -0.4858 -0.2831  0.2122
  852MOL0     C17470   4.365   0.499   4.962 -0.7163 -0.3785 -0.5771
  852MOL0     C17471   4.352   0.541   5.094 -0.5222 -0.2152  0.5060
  852MOL0     C17472   4.430   0.490   5.198  0.4114 -0.3608  0.3889
  852MOL0     C17473   4.526   0.395   5.168  0.1123 -0.1382  0.2896
  852MOL0     O17474   4.612   0.348   5.259 -0.0979  0.0227 -0.5125
  852MOL0     C17475   4.634   0.416   5.388  0.6250 -0.5176  0.9294
  852MOL0     C17476   4.778   0.444   5.432 -0.9587  0.0387 -0.3236
  852MOL0     C17477   4.863   0.316   5.452  0.1839  0.1600 -0.0400
  852MOL0     C17478   4.879   0.214   5.337 -0.4235  0.0544  0.2831
  852MOL0     C17479   4.944   0.275   5.211 -0.4667 -0.3473  0.1872
  852MOL0     C17480   4.970   0.172   5.106  1.1583 -0.1348  0.0574
  852MOL0     C17481   5.002   0.233   4.963 -1.3594 -0.2411  0.2666
  852MOL0     C17482   4.979   0.144   4.844  0.7724  0.4535  0.2174
  852MOL0    Cl17483   5.038   0.224   4.699 -0.0412 -0.1932  0.0001
  852MOL0     C17484   4.545   0.348   5.032 -0.8324  0.3414 -0.7679
  852MOL0     C17485   4.461   0.399   4.931 -0.2220 -0.1068 -0.0422
  852MOL0     O17486   4.465   0.716   4.838  0.0680 -0.8355  0.5803
  852MOL0     C17487   4.172   0.708   4.654  0.9302  0.3371 -0.2440
  852MOL0     C17488   4.108   0.786   4.552  0.6063 -0.0103  0.0633
  852MOL0     N17489   3.744   0.771   4.022  0.2359 -0.8864  1.0338
  852MOL0     N17490   3.709   0.749   3.901  0.1468  0.4886 -0.0893
  852MOL0     C17491   3.203   1.031   2.894 -0.6614  0.2993  0.4560
  852MOL0     C17492   3.236   1.051   2.764 -0.3652 -0.3215 -0.3589
  852MOL0     C17493   3.279   1.154   2.332 -0.3151  1.1346  0.1497
  852MOL0     C17494   3.234   1.035   2.268 -0.3047 -0.9624  0.7623
  852MOL0     C17495   3.246   1.030   2.126 -0.2816  0.1364  0.0070
  852MOL0     C17496   3.318   1.125   2.052  0.2688 -0.3407 -0.7248
  852MOL0     O17497   3.336   1.105   1.917 -0.6703  0.7598  0.1044
  852MOL0     C17498   3.431   1.194   1.854 -0.5191  0.0019  0.7607
  852MOL0     C17499   3.458   1.144   1.708  0.2651 -0.1664 -0.9813
  852MOL0     C17500   3.336   1.108   1.627 -1.1092  0.5483 -0.7671
  852MOL0     C17501   3.383   1.013   1.517  0.4391 -0.0135  0.4066
  852MOL0     C17502   3.295   1.030   1.407  0.1097  0.2847  0.2366
  852MOL0     C17503   3.214   1.051   1.308  0.6607  1.5610 -0.8342
  852MOL0     C17504   3.372   1.235   2.120  0.5135 -0.9328 -0.1703
  852MOL0     C17505   3.359   1.246   2.257  0.3877 -0.7180 -1.5654
  852MOL0     C17506   3.432   1.372   2.318  1.0492  0.3807  0.4964
  852MOL0     H17507   2.932   0.997   2.631 -0.6167  0.5600  1.2310
  852MOL0     H17508   2.872   0.972   2.869 -0.0754  2.7724  2.5888
  852MOL0     H17509   3.190   1.092   3.151  0.2260 -0.7839  0.4861
  852MOL0     H17510   3.173   0.914   3.168 -0.0007 -0.8077 -3.2201
  852MOL0     H17511   3.010   1.140   3.289 -0.4912  0.1861  1.2191
  852MOL0     H17512   2.965   0.961   3.284  0.6479 -0.6424 -2.6743
  852MOL0     H17513   3.213   1.078   3.425  0.1804 -0.4635 -0.3243
  852MOL0     H17514   3.059   1.033   3.507  3.3590  1.8982  2.3284
  852MOL0     H17515   3.076   0.801   3.436  0.3218 -1.1407 -1.7224
  852MOL0     H17516   3.236   0.838   3.366 -1.3724 -1.3142 -0.5923
  852MOL0     H17517   3.226   0.732   3.618  1.8826 -0.2593  2.2924
  852MOL0     H17518   3.177   0.889   3.668 -0.2187  0.2082 -0.9446
  852MOL0     H17519   3.430   0.836   3.508 -0.5666  0.3524 -0.6692
  852MOL0     H17520   3.392   0.986   3.598  0.1664 -0.4305  3.3112
  852MOL0     H17521   3.429   0.722   3.716  0.4555  0.1797 -1.0116
  852MOL0     H17522   3.391   0.877   3.803  1.0561  0.6689 -0.1647
  852MOL0     H17523   3.660   0.814   3.657 -1.0945  0.0888 -0.8889
  852MOL0     H17524   3.604   0.974   3.697  3.0619 -0.5003  0.2999
  852MOL0     H17525   3.573   1.041   3.962 -1.8212 -2.0257 -0.0239
  852MOL0     H17526   3.743   0.860   4.267  0.2264 -2.2134 -4.1618
  852MOL0     H17527   3.628   0.986   4.247 -0.0496  0.8720  0.2942
  852MOL0     H17528   3.819   1.111   4.113  0.9487 -0.6019 -0.0586
  852MOL0     H17529   3.827   1.136   4.284 -0.5541  1.1867 -0.1309
  852MOL0     H17530   4.002   0.971   4.118  2.7610 -1.6602  1.3370
  852MOL0     H17531   4.021   1.116   4.222  0.4400 -0.4295 -2.5558
  852MOL0     H17532   3.916   0.929   4.408 -0.5494 -1.3854 -0.7123
  852MOL0     H17533   3.989   0.820   4.299 -2.5645 -0.8293  0.0087
  852MOL0     H17534   4.329   1.039   4.518 -1.0120  1.0763  1.3815
  852MOL0     H17535   4.426   1.073   4.719 -0.0006 -0.2397 -1.3901
  852MOL0     H17536   4.537   0.930   4.732 -0.5506 -1.5070 -1.0894
  852MOL0     H17537   4.410   0.960   4.853 -1.1414  1.0092 -0.8535
  852MOL0     H17538   4.277   0.619   5.104 -0.8445 -0.1692 -1.8165
  852MOL0     H17539   4.397   0.517   5.298  0.3049  1.5057 -0.1027
  852MOL0     H17540   4.576   0.506   5.410  3.7622  1.3846  2.2972
  852MOL0     H17541   4.591   0.351   5.465 -3.3178 -1.5647 -1.8734
  852MOL0     H17542   4.823   0.512   5.359 -1.0063  2.4187  1.7274
  852MOL0     H17543   4.780   0.503   5.524  0.2728  0.7045 -0.7562
  852MOL0     H17544   4.799   0.261   5.522 -1.1432  0.0298 -1.3013
  852MOL0     H17545   4.963   0.318   5.497 -0.2943 -2.6751  1.4363
  852MOL0     H17546   4.786   0.167   5.305 -1.4802  2.0116  0.3252
  852MOL0     H17547   4.945   0.136   5.376 -2.3233 -1.3077  0.9096
  852MOL0     H17548   4.870   0.343   5.169  1.9767 -0.2849 -4.6875
  852MOL0     H17549   5.041   0.321   5.231  0.8657 -2.5365 -0.7953
  852MOL0     H17550   4.879   0.111   5.097  0.6694  0.3489  1.5221
  852MOL0     H17551   5.059   0.111   5.127  2.4031  2.0307  1.3744
  852MOL0     H17552   5.106   0.265   4.950 -0.4617 -0.3396  5.0733
  852MOL0     H17553   4.944   0.325   4.955 -1.4327 -0.2232  0.9018
  852MOL0     H17554   4.872   0.128   4.827  0.9633 -0.9049  0.1998
  852MOL0     H17555   5.022   0.045   4.858 -1.6496 -0.6530  0.2742
  852MOL0     H17556   4.623   0.275   5.017  1.6447  1.9157  3.0437
  852MOL0     H17557   4.471   0.363   4.829  0.1462 -2.5637  0.7883
  852MOL0     H17558   4.126   0.616   4.687  0.0758  0.8233 -0.0416
  852MOL0     H17559   4.011   0.762   4.510 -2.2662  5.9968  2.2359
  852MOL0     H17560   3.284   1.047   2.964  0.0543  2.6080 -0.7997
  852MOL0     H17561   3.342   1.062   2.742  0.3926 -1.7977  2.1918
  852MOL0     H17562   3.184   0.953   2.319 -2.1750  0.1349  0.7981
  852MOL0     H17563   3.215   0.942   2.072 -0.0038  0.3066 -0.4388
  852MOL0     H17564   3.391   1.295   1.847  2.7479  1.3130 -0.6707
  852MOL0     H17565   3.530   1.187   1.900 -0.9520 -0.1662  1.6999
  852MOL0     H17566   3.508   1.048   1.726  1.1425  0.1467 -1.6902
  852MOL0     H17567   3.522   1.209   1.648  0.5005 -1.6860 -2.4576
  852MOL0     H17568   3.263   1.059   1.692  0.5564 -1.1266 -0.0772
  852MOL0     H17569   3.290   1.199   1.586 -1.3746  0.5615 -0.4481
  852MOL0     H17570   3.376   0.906   1.542 -2.5704 -0.3338 -1.2409
  852MOL0     H17571   3.481   1.038   1.476 -0.4474  1.5545 -0.8809
  852MOL0     H17572   3.154   1.060   1.219 -0.2949  2.3176 -0.1370
  852MOL0     H17573   3.441   1.305   2.075 -2.6101  1.9218 -0.9506
  852MOL0     H17574   3.506   1.337   2.391  0.9196 -1.6505 -0.2843
  852MOL0     H17575   3.488   1.427   2.242 -1.5977  1.5297 -0.7556
  852MOL0     H17576   3.355   1.436   2.363 -1.6440 -0.4254 -2.6227
  853MOL0     O17577   6.239   0.199   8.981  0.0840  0.0416  0.2203
  853MOL0     C17578   6.331   0.155   9.048 -0.2751  0.3004  0.0363
  853MOL0     O17579   6.467   0.176   9.017 -0.5259  0.3338 -0.1672
  853MOL0     C17580   6.499   0.188   8.885 -0.2673 -0.4811  0.7710
  853MOL0     C17581   6.640   0.184   8.865  0.9533 -0.0660 -0.1691
  853MOL0     C17582   6.696   0.217   8.738  0.0483  1.0279  0.1201
  853MOL0     C17583   6.614   0.258   8.634 -0.3367  0.0457  0.1764
  853MOL0     O17584   6.663   0.292   8.509  0.2709 -0.9201 -0.2433
  853MOL0     C17585   6.759   0.204   8.458  0.3669  0.2177 -0.0820
  853MOL0     C17586   6.888   0.286   8.442 -0.1636  0.0072 -0.4385
  853MOL0     C17587   7.003   0.216   8.368 -0.0369 -0.0242  1.2559
  853MOL0     C17588   7.030   0.084   8.440  0.2042  0.3348  0.7288
  853MOL0     C17589   7.170   0.015   8.414 -0.4790 -0.8802 -0.2324
  853MOL0     C17590   7.163  -0.139   8.416  0.9272 -0.2960  0.2465
  853MOL0     C17591   7.127  -0.195   8.548 -0.7734  1.0436 -1.2716
  853MOL0     C17592   7.074  -0.338   8.537  0.4080 -0.4092  0.1242
  853MOL0     N17593   7.046  -0.393   8.675 -0.1719  1.8532 -0.2862
  853MOL0     C17594   7.148  -0.444   8.756  0.6350  0.8067  1.0156
  853MOL0     C17595   7.087  -0.478   8.866  0.6587  0.3032  0.1776
  853MOL0     C17596   7.157  -0.513   8.991 -0.9248  0.0737 -0.5006
  853MOL0     C17597   7.108  -0.645   9.048 -0.1576  0.1948 -0.4178
  853MOL0     C17598   7.178  -0.690   9.180  0.3584  0.0961 -0.1269
  853MOL0     C17599   7.079  -0.739   9.294 -0.2049 -0.3843 -0.0131
  853MOL0     O17600   6.979  -0.645   9.319 -0.0778 -0.0303  0.0674
  853MOL0     C17601   7.017  -0.525   9.379  0.8230 -1.0723 -0.0244
  853MOL0     C17602   7.041  -0.513   9.513  0.3690 -0.1979  0.2145
  853MOL0     C17603   7.075  -0.391   9.573 -0.0199 -1.1191  1.6292
  853MOL0     C17604   7.127  -0.411   9.707  0.6259 -0.2149  0.1291
  853MOL0     C17605   7.061  -0.268   9.499 -0.4059 -0.3820  0.1925
  853MOL0     C17606   7.091  -0.135   9.553 -1.0503  0.0128 -0.8665
  853MOL0     O17607   7.105  -0.035   9.464 -0.1021  0.4232  0.0014
  853MOL0     C17608   7.126   0.085   9.520 -0.7859  0.5798 -0.2152
  853MOL0     C17609   7.024   0.178   9.498  0.2778  0.7434 -0.7356
  853MOL0     C17610   7.040   0.310   9.536 -1.0937 -0.6791 -0.1461
  853MOL0     C17611   7.154   0.349   9.609 -0.5981 -0.3995  0.0850
  853MOL0     O17612   7.187   0.473   9.665  0.0398  0.1563 -0.1750
  853MOL0     C17613   7.109   0.593   9.622 -0.2165  0.1700 -0.6396
  853MOL0     C17614   7.028   0.634   9.744  0.8545  0.0930  0.3826
  853MOL0     C17615   6.917   0.732   9.690 -0.8960  0.7075 -0.1426
  853MOL0     C17616   6.801   0.765   9.788  0.7318  0.5721 -0.0643
  853MOL0     C17617   6.852   0.851   9.905 -0.3507 -0.3043  0.1319
  853MOL0     C17618   6.751   0.861  10.017  0.7221 -0.9644  0.5858
  853MOL0     C17619   6.824   0.902  10.144  0.0413 -0.2291 -0.7285
  853MOL0     C17620   6.750   0.894  10.279 -0.1557  0.7620  0.4813
  853MOL0    Cl17621   6.580   0.964  10.274  0.1598 -0.0204  0.0899
  853MOL0     C17622   7.251   0.246   9.632  1.0837  0.0386 -0.1967
  853MOL0     C17623   7.240   0.117   9.586 -0.1984 -0.3583 -0.8911
  853MOL0     O17624   7.122  -0.124   9.679  0.1316 -0.6894  0.5417
  853MOL0     C17625   7.017  -0.288   9.365 -0.3136  0.2112 -0.3514
  853MOL0     C17626   6.992  -0.411   9.304 -0.5627  0.0893  0.6523
  853MOL0     N17627   6.961  -0.439   8.858  0.6860 -0.8271  0.7688
  853MOL0     N17628   6.936  -0.388   8.748  0.6313  0.4023  0.7055
  853MOL0     C17629   6.477   0.258   8.647 -0.2995 -0.0007 -0.1361
  853MOL0     C17630   6.421   0.231   8.771 -0.7199 -0.4948  0.2807
  853MOL0     C17631   6.302   0.078   9.173 -0.1627  0.0069  0.4332
  853MOL0     C17632   6.206  -0.019   9.173  0.8268  0.1203 -0.5930
  853MOL0     C17633   6.167  -0.088   9.290 -0.1883  0.1312 -0.7124
  853MOL0     C17634   6.237  -0.071   9.407  0.0305  0.2541  0.1269
  853MOL0     O17635   6.195  -0.149   9.507 -0.3961  0.6616  0.1837
  853MOL0     C17636   6.271  -0.177   9.624  0.1763  0.2345  0.1590
  853MOL0     C17637   6.268  -0.058   9.730 -0.7405 -0.4137  0.3178
  853MOL0     C17638   6.294  -0.104   9.878  0.3567  0.3805 -0.6680
  853MOL0     C17639   6.156  -0.166   9.925 -0.0952  0.3538 -0.0160
  853MOL0     C17640   6.162  -0.201  10.061 -0.4980 -0.1270 -0.0686
  853MOL0     C17641   6.174  -0.226  10.178  0.2185  0.0430 -0.1651
  853MOL0     C17642   6.344   0.018   9.403 -0.0262  0.9366 -0.2452
  853MOL0     C17643   6.381   0.094   9.294  0.7161  0.1762 -0.3994
  853MOL0     C17644   6.468   0.209   9.319 -0.7772  0.2749 -0.4576
  853MOL0     H17645   6.701   0.150   8.948 -2.3800  1.8726  3.4466
  853MOL0     H17646   6.803   0.206   8.730 -0.1674 -2.0233  0.2467
  853MOL0     H17647   6.733   0.174   8.356 -1.8554  0.5549  0.3359
  853MOL0     H17648   6.776   0.112   8.514 -0.0574 -0.3337 -0.8427
  853MOL0     H17649   6.869   0.380   8.390  1.8842 -0.7146 -2.7056
  853MOL0     H17650   6.937   0.307   8.538  0.5343  0.5438 -0.9018
  853MOL0     H17651   6.987   0.213   8.260  0.7092  1.4379  1.0745
  853MOL0     H17652   7.090   0.282   8.376  0.1304  0.4471 -2.4829
  853MOL0     H17653   7.022   0.108   8.546 -0.1497  0.5785  0.6489
  853MOL0     H17654   6.948   0.016   8.414  1.2182 -1.8201  2.7594
  853MOL0     H17655   7.249   0.064   8.472  0.7291  0.4091 -2.7871
  853MOL0     H17656   7.200   0.029   8.310 -1.1129  0.0410 -0.3122
  853MOL0     H17657   7.095  -0.177   8.339 -2.3271  3.5066  0.9610
  853MOL0     H17658   7.262  -0.174   8.387 -0.1564 -2.0205 -1.6066
  853MOL0     H17659   7.062  -0.130   8.607  0.6872  1.1716  0.2631
  853MOL0     H17660   7.220  -0.203   8.606 -1.6800 -0.0023  0.0933
  853MOL0     H17661   6.985  -0.331   8.474  0.3261 -0.1090  0.2696
  853MOL0     H17662   7.140  -0.403   8.479 -0.8325 -2.0306  0.4510
  853MOL0     H17663   7.255  -0.433   8.740  0.2685  1.5635 -1.3571
  853MOL0     H17664   7.147  -0.425   9.055  0.5299 -1.4971  2.0609
  853MOL0     H17665   7.263  -0.519   8.965 -0.9574 -0.7979 -0.4707
  853MOL0     H17666   6.999  -0.634   9.054 -0.1525  0.0455 -0.0629
  853MOL0     H17667   7.126  -0.718   8.969  1.7158 -1.3051  1.2945
  853MOL0     H17668   7.250  -0.769   9.158 -1.6733 -1.6485 -0.9165
  853MOL0     H17669   7.238  -0.605   9.213 -0.3799 -0.0736  1.7765
  853MOL0     H17670   7.031  -0.833   9.266  0.0074 -0.4476 -0.1718
  853MOL0     H17671   7.134  -0.762   9.385 -1.7595  0.5522  1.2168
  853MOL0     H17672   7.044  -0.608   9.564  0.5789 -1.2171 -1.5975
  853MOL0     H17673   7.228  -0.368   9.701  1.3567 -1.9515 -0.8982
  853MOL0     H17674   7.136  -0.518   9.725  1.1883 -0.2772 -0.4733
  853MOL0     H17675   7.063  -0.363   9.781  2.5707 -1.5090  2.8009
  853MOL0     H17676   6.928   0.143   9.461  0.5265 -0.5596 -0.2196
  853MOL0     H17677   6.955   0.377   9.526  0.4570  1.1983 -1.4804
  853MOL0     H17678   7.173   0.678   9.595  1.3435 -1.2843 -1.7490
  853MOL0     H17679   7.042   0.572   9.538  2.0774 -0.4164 -2.4340
  853MOL0     H17680   6.974   0.550   9.789 -0.3113  1.8315  2.4211
  853MOL0     H17681   7.083   0.689   9.821  4.3506  0.8482 -2.4066
  853MOL0     H17682   6.877   0.687   9.599  4.1320 -1.3206 -1.6825
  853MOL0     H17683   6.976   0.820   9.659  1.0136  0.4838  2.5109
  853MOL0     H17684   6.762   0.668   9.817 -0.2740  0.5115 -1.5259
  853MOL0     H17685   6.719   0.812   9.732  1.6863  0.0852 -1.9695
  853MOL0     H17686   6.943   0.798   9.932  0.5525 -0.1294 -2.3517
  853MOL0     H17687   6.877   0.949   9.864 -1.1673 -0.4929 -0.8527
  853MOL0     H17688   6.701   0.764  10.015 -1.6639  0.2109 -1.9265
  853MOL0     H17689   6.669   0.928   9.992 -0.2612 -1.0679  3.1495
  853MOL0     H17690   6.873   0.999  10.132 -1.2950  0.6040  0.2092
  853MOL0     H17691   6.917   0.850  10.166  2.7758  3.2792 -3.0481
  853MOL0     H17692   6.804   0.944  10.360 -0.7974  2.2451  0.0301
  853MOL0     H17693   6.736   0.786  10.292 -1.6445  1.0886  1.9754
  853MOL0     H17694   7.343   0.270   9.684  2.1595 -0.7055 -1.6916
  853MOL0     H17695   7.314   0.038   9.578 -1.0954 -1.0537 -2.9567
  853MOL0     H17696   7.012  -0.197   9.305  0.6457  0.8125  0.4497
  853MOL0     H17697   6.955  -0.417   9.202  0.2239 -0.9304  0.4144
  853MOL0     H17698   6.419   0.293   8.562  0.4023  1.3734 -0.0847
  853MOL0     H17699   6.314   0.247   8.777 -0.4461  1.3715  0.9240
  853MOL0     H17700   6.151  -0.039   9.081 -1.1063  1.1284  0.2854
  853MOL0     H17701   6.098  -0.170   9.278 -2.1657  1.5635  0.3691
  853MOL0     H17702   6.216  -0.261   9.667  1.4533 -0.2289  0.9460
  853MOL0     H17703   6.370  -0.217   9.602  0.2856  0.8969 -0.5804
  853MOL0     H17704   6.176   0.001   9.725  0.5094  2.1305  3.6003
  853MOL0     H17705   6.341   0.018   9.702 -1.4451  0.2800  0.3240
  853MOL0     H17706   6.370  -0.183   9.875  1.7828  1.5502  1.5135
  853MOL0     H17707   6.330  -0.029   9.950 -0.6755  1.4314 -1.2084
  853MOL0     H17708   6.141  -0.261   9.872 -0.7763 -1.4299  3.1480
  853MOL0     H17709   6.066  -0.109   9.898  0.4380  0.4754 -1.6604
  853MOL0     H17710   6.200  -0.264  10.274 -0.4401 -3.6775 -1.3142
  853MOL0     H17711   6.400   0.022   9.495  4.2177  0.3138 -2.5671
  853MOL0     H17712   6.468   0.242   9.423 -1.5262  1.3390 -0.7893
  853MOL0     H17713   6.574   0.188   9.301 -0.1586  0.0965  2.7953
  853MOL0     H17714   6.422   0.294   9.269 -2.4038 -0.4187 -0.2005
  854MOL0     O17715   0.837   6.265   3.605 -0.5463  0.4642 -0.0124
  854MOL0     C17716   0.883   6.303   3.489  0.5791  1.1000 -0.4424
  854MOL0     O17717   0.834   6.410   3.417  0.2071 -0.7482  0.0157
  854MOL0     C17718   0.726   6.485   3.459 -0.6395  0.9941  0.1452
  854MOL0     C17719   0.734   6.626   3.452 -0.2555  1.0041 -0.9106
  854MOL0     C17720   0.624   6.709   3.491 -0.0470  0.3471  1.3632
  854MOL0     C17721   0.506   6.651   3.540  0.3810  0.3217 -0.3033
  854MOL0     O17722   0.389   6.717   3.583 -0.5081  0.5578  0.1694
  854MOL0     C17723   0.413   6.848   3.649  0.5744 -0.3153  0.0606
  854MOL0     C17724   0.313   6.885   3.756  0.3440  0.3660  0.3190
  854MOL0     C17725   0.173   6.838   3.734  0.3478 -0.1454  0.7978
  854MOL0     C17726   0.111   6.897   3.602 -1.0873 -0.6025  0.5433
  854MOL0     C17727  -0.041   6.884   3.605  0.0717 -0.4127  0.9840
  854MOL0     C17728  -0.117   6.991   3.520 -1.2577 -0.0662  0.0222
  854MOL0     C17729  -0.252   6.940   3.487  0.3769  0.1280  0.2091
  854MOL0     C17730  -0.342   6.893   3.605 -0.8285  0.1984  0.2332
  854MOL0     N17731  -0.404   7.009   3.658 -0.3373 -0.9626 -0.4567
  854MOL0     C17732  -0.506   7.088   3.608  0.2337  0.2517  0.4761
  854MOL0     C17733  -0.533   7.180   3.708  0.0601 -0.4718 -0.7691
  854MOL0     C17734  -0.612   7.299   3.680  0.1934  0.9771 -0.4437
  854MOL0     C17735  -0.555   7.437   3.682 -0.1629  0.0653  0.4616
  854MOL0     C17736  -0.449   7.455   3.572 -0.1221 -0.3594 -0.2577
  854MOL0     C17737  -0.391   7.600   3.552  0.2472  0.1333  0.3202
  854MOL0     O17738  -0.502   7.688   3.547 -0.5481  0.0247 -0.0563
  854MOL0     C17739  -0.488   7.821   3.533 -0.3768  0.6782  0.5536
  854MOL0     C17740  -0.371   7.895   3.567  0.0889  0.4739 -0.8837
  854MOL0     C17741  -0.367   8.035   3.573  0.4039  0.5832  0.2689
  854MOL0     C17742  -0.241   8.101   3.620  1.1939  0.4384  0.3839
  854MOL0     C17743  -0.490   8.098   3.527 -0.5877 -0.0306  0.2570
  854MOL0     C17744  -0.518   8.247   3.545 -0.5186  0.9026 -0.3846
  854MOL0     O17745  -0.631   8.289   3.475  0.6411  0.5315  0.1072
  854MOL0     C17746  -0.691   8.414   3.503  0.1309  0.5449 -0.1860
  854MOL0     C17747  -0.779   8.457   3.407  0.8396  0.6075  0.5467
  854MOL0     C17748  -0.854   8.576   3.431 -0.2557  0.3112  0.0570
  854MOL0     C17749  -0.846   8.641   3.550 -1.1495  0.4283  0.7118
  854MOL0     O17750  -0.900   8.763   3.584 -0.6223 -0.6209  0.1945
  854MOL0     C17751  -0.887   8.875   3.493 -0.9100 -0.4486  1.4786
  854MOL0     C17752  -0.794   8.982   3.559 -0.1111 -0.3476  0.6661
  854MOL0     C17753  -0.645   8.947   3.573  0.0848 -0.4612 -0.8169
  854MOL0     C17754  -0.561   8.951   3.445 -0.3683 -0.2386  0.1714
  854MOL0     C17755  -0.412   8.914   3.486 -0.8267 -0.2395 -0.0926
  854MOL0     C17756  -0.322   8.940   3.363  0.5332 -0.9374 -0.2882
  854MOL0     C17757  -0.200   8.846   3.368 -1.1398 -0.8261 -0.0181
  854MOL0     C17758  -0.122   8.846   3.493  0.0307 -0.4336 -0.3932
  854MOL0    Cl17759   0.032   8.755   3.460 -0.0993  0.3651  0.1238
  854MOL0     C17760  -0.767   8.593   3.650  0.3730 -0.9886  0.0881
  854MOL0     C17761  -0.692   8.484   3.625 -0.9601  0.0574  0.1727
  854MOL0     O17762  -0.441   8.322   3.606  1.0437  0.5480 -0.0382
  854MOL0     C17763  -0.603   8.021   3.489  0.7725 -0.1204  0.4926
  854MOL0     C17764  -0.595   7.885   3.488 -0.8359 -1.1053  1.0393
  854MOL0     N17765  -0.450   7.155   3.816  0.4243 -0.2354  0.2627
  854MOL0     N17766  -0.385   7.044   3.787  0.5027 -0.2458  0.3709
  854MOL0     C17767   0.498   6.508   3.539 -0.9025  1.4298 -0.0912
  854MOL0     C17768   0.604   6.430   3.501  0.5897 -0.0981 -1.0265
  854MOL0     C17769   1.007   6.238   3.430  0.1090 -0.2205 -0.7434
  854MOL0     C17770   1.128   6.246   3.496 -0.1229  1.2736 -0.0404
  854MOL0     C17771   1.247   6.195   3.429 -0.1827 -0.6274 -0.8669
  854MOL0     C17772   1.222   6.126   3.309 -0.4725 -0.4695 -0.2714
  854MOL0     O17773   1.319   6.068   3.228  0.1019 -0.5441 -0.4513
  854MOL0     C17774   1.350   5.930   3.262 -0.2791  0.8496  0.7611
  854MOL0     C17775   1.483   5.943   3.336  0.0455  0.5367 -0.7467
  854MOL0     C17776   1.543   5.810   3.384 -0.2118 -0.3259  0.0900
  854MOL0     C17777   1.643   5.850   3.492 -0.2226  0.4786 -0.0686
  854MOL0     C17778   1.705   5.731   3.553  1.3133 -0.1195  0.1590
  854MOL0     C17779   1.757   5.633   3.607 -1.0525 -0.4545 -0.4585
  854MOL0     C17780   1.101   6.100   3.258 -0.1221 -0.0068 -0.4332
  854MOL0     C17781   0.984   6.156   3.317 -0.0153 -0.6734 -0.0934
  854MOL0     C17782   0.846   6.117   3.254  0.2182 -0.0695 -0.8753
  854MOL0     H17783   0.812   6.688   3.409  1.9873 -0.6031  0.6034
  854MOL0     H17784   0.621   6.815   3.468  1.3250  0.4952  1.8013
  854MOL0     H17785   0.405   6.923   3.569 -2.1718  0.7254  1.1934
  854MOL0     H17786   0.514   6.856   3.690 -0.3940  3.6894  2.2074
  854MOL0     H17787   0.336   6.833   3.849  0.5410 -1.1359 -0.5306
  854MOL0     H17788   0.310   6.991   3.785  0.7440  0.0461  1.5976
  854MOL0     H17789   0.171   6.729   3.723  1.7440  0.0324 -2.1409
  854MOL0     H17790   0.110   6.871   3.817 -2.8128  0.6772 -1.7322
  854MOL0     H17791   0.142   7.001   3.589  1.5332 -1.1319  1.9908
  854MOL0     H17792   0.153   6.851   3.512 -0.9338  4.0221 -2.1184
  854MOL0     H17793  -0.071   6.885   3.710 -1.8503  0.0929  0.4634
  854MOL0     H17794  -0.067   6.785   3.565 -2.5308  1.0389 -1.2025
  854MOL0     H17795  -0.116   7.087   3.573  0.1900 -0.7775  1.3592
  854MOL0     H17796  -0.079   7.013   3.419  1.1466  1.1707  1.0915
  854MOL0     H17797  -0.238   6.866   3.407  0.9769  2.6589 -2.1956
  854MOL0     H17798  -0.305   7.021   3.435  2.2784  2.7995  2.1633
  854MOL0     H17799  -0.413   6.820   3.563 -0.2231 -0.7608  0.8434
  854MOL0     H17800  -0.279   6.846   3.681  1.7107  2.2210 -0.4810
  854MOL0     H17801  -0.552   7.079   3.510  0.0308  2.7622  0.2828
  854MOL0     H17802  -0.693   7.308   3.753 -0.7925 -2.3041 -1.0026
  854MOL0     H17803  -0.657   7.278   3.583 -0.2696  2.0680 -0.4799
  854MOL0     H17804  -0.639   7.506   3.673 -0.0520  0.5215  2.5700
  854MOL0     H17805  -0.517   7.459   3.782 -0.2087 -0.0437  0.5033
  854MOL0     H17806  -0.373   7.378   3.592 -2.1333 -3.3383 -3.1005
  854MOL0     H17807  -0.493   7.424   3.477 -2.3680  2.5193 -0.3117
  854MOL0     H17808  -0.322   7.631   3.631  2.9790 -3.0676 -0.6280
  854MOL0     H17809  -0.331   7.609   3.461  1.0502  1.3135  0.9342
  854MOL0     H17810  -0.287   7.835   3.599  0.6285  2.4112  1.6633
  854MOL0     H17811  -0.261   8.168   3.705 -0.8548 -3.3996  3.2194
  854MOL0     H17812  -0.198   8.152   3.533  0.2408  0.2244 -0.2222
  854MOL0     H17813  -0.166   8.031   3.658  2.1209  0.8350 -0.6433
  854MOL0     H17814  -0.792   8.414   3.308  1.2840  0.9514  0.3356
  854MOL0     H17815  -0.931   8.618   3.367 -1.2394 -1.0254  0.3277
  854MOL0     H17816  -0.857   8.851   3.391 -0.5890  1.4512  1.0904
  854MOL0     H17817  -0.986   8.922   3.492 -0.5290  0.5465 -1.9561
  854MOL0     H17818  -0.809   9.077   3.506 -0.8003 -0.0159  1.4241
  854MOL0     H17819  -0.829   8.999   3.662  1.4784 -0.0887  1.1834
  854MOL0     H17820  -0.636   8.853   3.630 -3.1925  0.0790  0.8815
  854MOL0     H17821  -0.611   9.028   3.638 -0.9877 -0.5481 -0.1152
  854MOL0     H17822  -0.566   9.046   3.393  0.3354  0.4754  1.3562
  854MOL0     H17823  -0.609   8.868   3.393  0.9492 -2.2279  1.9282
  854MOL0     H17824  -0.378   8.976   3.570 -1.7937  2.0230 -1.2986
  854MOL0     H17825  -0.414   8.805   3.497 -0.3239 -0.8499 -4.3801
  854MOL0     H17826  -0.299   9.046   3.353 -0.2866 -0.8760 -1.7412
  854MOL0     H17827  -0.373   8.913   3.271  0.4114 -0.7239 -0.2840
  854MOL0     H17828  -0.133   8.867   3.284 -2.7530 -4.2331 -2.3806
  854MOL0     H17829  -0.234   8.750   3.328 -2.3417  0.7711 -3.1418
  854MOL0     H17830  -0.165   8.797   3.581  1.0601 -0.7551 -0.0492
  854MOL0     H17831  -0.097   8.947   3.526  2.1061 -1.5878  1.9323
  854MOL0     H17832  -0.791   8.625   3.751  2.0575  1.1665 -0.1304
  854MOL0     H17833  -0.646   8.447   3.716 -3.7080 -1.8620  0.9210
  854MOL0     H17834  -0.691   8.068   3.446  0.2479  0.1275  1.7631
  854MOL0     H17835  -0.681   7.822   3.467 -1.3807  0.1705 -0.8476
  854MOL0     H17836   0.413   6.444   3.562 -0.1339 -0.0316 -1.1487
  854MOL0     H17837   0.587   6.323   3.511  0.1047  0.1700  1.7558
  854MOL0     H17838   1.123   6.292   3.594  1.3979 -2.6961  2.1004
  854MOL0     H17839   1.351   6.213   3.457 -0.1510 -0.1086 -1.2920
  854MOL0     H17840   1.282   5.877   3.329  2.0728  0.0817  2.6734
  854MOL0     H17841   1.357   5.876   3.168 -2.1388 -2.2486  2.2563
  854MOL0     H17842   1.458   6.000   3.425  0.2113 -0.2461 -0.1857
  854MOL0     H17843   1.555   5.999   3.276  1.4413 -0.4284 -0.0466
  854MOL0     H17844   1.481   5.734   3.432  1.9093 -3.2011 -1.4597
  854MOL0     H17845   1.591   5.768   3.296 -2.7002 -1.5681 -0.7609
  854MOL0     H17846   1.603   5.920   3.566  0.6213 -0.1764  1.0388
  854MOL0     H17847   1.712   5.911   3.434 -1.1761  0.8114 -0.8807
  854MOL0     H17848   1.788   5.544   3.659 -1.5184  0.9089  2.3103
  854MOL0     H17849   1.080   6.049   3.164 -1.3776  2.2384 -1.4429
  854MOL0     H17850   0.858   6.126   3.146  2.2767 -1.4835 -0.8283
  854MOL0     H17851   0.811   6.018   3.287 -0.4755  0.5112  0.2050
  854MOL0     H17852   0.770   6.176   3.306  1.0037 -1.4843  2.1189
  855MOL0     O17853   5.833   1.798   2.984  0.9734  0.7978  0.0549
  855MOL0     C17854   5.819   1.895   2.913 -0.2312  0.7916 -0.4446
  855MOL0     O17855   5.843   1.895   2.784  0.4626  0.0899 -0.3874
  855MOL0     C17856   5.897   1.803   2.703  0.1878  0.5620 -0.4620
  855MOL0     C17857   5.840   1.791   2.575  0.0875  0.4106  0.6984
  855MOL0     C17858   5.892   1.699   2.486  0.4384 -1.1534 -0.3200
  855MOL0     C17859   6.002   1.623   2.520  0.4716  0.4170 -0.0634
  855MOL0     O17860   6.070   1.538   2.433 -0.1125 -0.0380  0.2016
  855MOL0     C17861   6.000   1.450   2.346  0.2575  0.2025  0.0524
  855MOL0     C17862   6.102   1.408   2.246  0.5017  0.7984 -0.1159
  855MOL0     C17863   6.048   1.284   2.170 -0.0220  0.4054 -0.0764
  855MOL0     C17864   6.029   1.319   2.024 -0.7392 -0.5258  0.5537
  855MOL0     C17865   5.958   1.201   1.942  0.0258  0.9302 -0.1862
  855MOL0     C17866   6.032   1.166   1.815  0.3852  0.6438 -0.1619
  855MOL0     C17867   5.959   1.042   1.754 -0.4100  0.3455  0.7775
  855MOL0     C17868   6.034   0.990   1.623 -0.1309 -1.5559  0.6590
  855MOL0     N17869   5.993   0.854   1.583  0.4627 -0.3627 -0.2129
  855MOL0     C17870   5.891   0.771   1.635 -0.0794 -1.0763 -0.4994
  855MOL0     C17871   5.895   0.657   1.568 -0.6438  0.5125  0.0382
  855MOL0     C17872   5.830   0.524   1.601  0.3634  0.5071  0.2592
  855MOL0     C17873   5.679   0.540   1.641  0.4659  0.4579  0.9895
  855MOL0     C17874   5.620   0.414   1.707  0.0201 -0.3582 -1.1849
  855MOL0     C17875   5.474   0.455   1.760 -0.4010 -0.0164  1.2045
  855MOL0     O17876   5.376   0.348   1.760  0.0695  0.4084  0.1118
  855MOL0     C17877   5.369   0.252   1.854  1.0451 -0.8660 -0.1796
  855MOL0     C17878   5.244   0.180   1.861 -0.2658 -0.5177 -0.5776
  855MOL0     C17879   5.218   0.088   1.962  0.2347  0.8652 -0.7853
  855MOL0     C17880   5.086   0.011   1.972 -0.5143  0.3357  1.0253
  855MOL0     C17881   5.317   0.058   2.053 -0.1165 -0.2028  0.2843
  855MOL0     C17882   5.306  -0.039   2.169 -0.3099 -1.2611 -0.0535
  855MOL0     O17883   5.230  -0.146   2.147 -0.1982  0.3697 -0.1307
  855MOL0     C17884   5.228  -0.259   2.228 -0.0137  0.4634 -0.1102
  855MOL0     C17885   5.264  -0.271   2.365  0.2572  0.5132  0.5454
  855MOL0     C17886   5.258  -0.399   2.422 -0.3526  0.1383  0.7118
  855MOL0     C17887   5.216  -0.512   2.343  0.3779 -0.2430  0.3902
  855MOL0     O17888   5.193  -0.643   2.379  0.7628  0.4146 -0.6281
  855MOL0     C17889   5.212  -0.671   2.515  0.1911 -0.5536  0.2522
  855MOL0     C17890   5.174  -0.816   2.542  0.0616 -0.7070 -0.6708
  855MOL0     C17891   5.026  -0.840   2.540 -0.1639  0.3642  0.4533
  855MOL0     C17892   4.987  -0.955   2.625  0.7562 -0.0999  0.2258
  855MOL0     C17893   4.841  -0.949   2.665  0.1505  0.2130  0.1220
  855MOL0     C17894   4.808  -1.058   2.771  0.0027  0.7546  1.0126
  855MOL0     C17895   4.884  -1.019   2.899  1.5378 -0.7872  0.2143
  855MOL0     C17896   4.804  -1.053   3.023 -0.6152 -0.7955 -0.5986
  855MOL0    Cl17897   4.840  -1.230   3.056 -0.4100  0.4160  0.3376
  855MOL0     C17898   5.177  -0.498   2.212  0.2147 -0.0895 -0.0854
  855MOL0     C17899   5.172  -0.370   2.153  0.1333  0.2937 -1.1814
  855MOL0     O17900   5.372  -0.032   2.268  0.3140  0.5169 -0.5189
  855MOL0     C17901   5.435   0.135   2.046 -0.2616 -0.7114 -0.6022
  855MOL0     C17902   5.463   0.237   1.953  0.1611  0.9324  0.0056
  855MOL0     N17903   5.982   0.681   1.455  0.1869  0.6971 -0.9412
  855MOL0     N17904   6.033   0.797   1.470  0.9339 -0.1571  0.3535
  855MOL0     C17905   6.061   1.632   2.648  0.6815  0.4927  0.1120
  855MOL0     C17906   5.997   1.712   2.744  0.4888 -0.4867 -0.3113
  855MOL0     C17907   5.740   2.007   2.965 -0.0701 -0.3618  0.4859
  855MOL0     C17908   5.705   2.120   2.879 -0.6441  0.6407  0.1637
  855MOL0     C17909   5.638   2.231   2.927  0.8121  0.4605  1.1013
  855MOL0     C17910   5.574   2.234   3.054  0.2119 -0.0437 -0.0310
  855MOL0     O17911   5.507   2.342   3.108 -0.1410  0.5426  0.0251
  855MOL0     C17912   5.406   2.406   3.027  0.4731  0.0132 -0.0303
  855MOL0     C17913   5.270   2.347   3.068  0.7818  0.6294  0.3188
  855MOL0     C17914   5.230   2.345   3.206 -0.0067  0.3642 -0.1348
  855MOL0     C17915   5.094   2.267   3.226  0.6219 -0.1700 -0.3937
  855MOL0     C17916   5.017   2.323   3.337 -0.7644  0.9466 -0.5968
  855MOL0     C17917   4.946   2.381   3.413  0.7790  0.5839  1.4676
  855MOL0     C17918   5.604   2.126   3.140  0.3853 -0.1054  0.2348
  855MOL0     C17919   5.673   2.012   3.098 -0.2306 -0.2914  0.2880
  855MOL0     C17920   5.664   1.890   3.190  0.5411 -0.4706  0.1955
  855MOL0     H17921   5.751   1.840   2.538  0.8783 -0.5045 -2.7494
  855MOL0     H17922   5.847   1.703   2.387  1.5111  2.9138 -0.8213
  855MOL0     H17923   5.917   1.498   2.293  0.5681  1.5118  0.7045
  855MOL0     H17924   5.953   1.373   2.408 -0.6030  0.2641 -0.5071
  855MOL0     H17925   6.129   1.491   2.181  3.0607  0.3865  0.2962
  855MOL0     H17926   6.184   1.377   2.312  0.2294 -0.6211 -0.4111
  855MOL0     H17927   6.110   1.196   2.190  0.0137  0.9219  2.4349
  855MOL0     H17928   5.947   1.257   2.203  0.2490  1.3202  1.5984
  855MOL0     H17929   5.970   1.411   2.024  2.0432  1.3777  1.8648
  855MOL0     H17930   6.129   1.342   1.987 -0.3677 -3.4779 -0.5643
  855MOL0     H17931   5.856   1.220   1.907  0.0300 -0.6766 -1.1654
  855MOL0     H17932   5.956   1.115   2.009  1.1143 -0.2082 -1.5752
  855MOL0     H17933   6.031   1.251   1.747  0.4793 -0.6730 -1.8576
  855MOL0     H17934   6.136   1.136   1.835  0.0295 -0.4074  0.2108
  855MOL0     H17935   5.855   1.061   1.726 -1.0082 -4.6170 -1.5822
  855MOL0     H17936   5.970   0.946   1.806  1.2017 -1.7421 -2.9280
  855MOL0     H17937   6.018   1.060   1.541  1.2980 -0.6458  1.1112
  855MOL0     H17938   6.142   0.993   1.642  0.2917  2.3139 -1.3524
  855MOL0     H17939   5.828   0.788   1.721  2.1491 -0.3597  1.0882
  855MOL0     H17940   5.872   0.482   1.693 -0.5088 -0.4408  0.2477
  855MOL0     H17941   5.851   0.454   1.520 -1.1149 -0.1053  0.3614
  855MOL0     H17942   5.646   0.632   1.690 -1.7417  1.3383 -1.8161
  855MOL0     H17943   5.630   0.541   1.542  0.9512 -2.0782  0.6670
  855MOL0     H17944   5.613   0.324   1.644 -3.3217  0.5565 -2.3058
  855MOL0     H17945   5.683   0.396   1.795  0.4335  1.4483 -1.0652
  855MOL0     H17946   5.477   0.521   1.847  1.5077 -0.3645  1.4408
  855MOL0     H17947   5.447   0.523   1.679  0.0242 -0.5827  0.5698
  855MOL0     H17948   5.173   0.210   1.786 -1.1240 -2.4117 -0.5867
  855MOL0     H17949   5.014   0.050   1.900 -0.5586  1.2661  1.5641
  855MOL0     H17950   5.055   0.007   2.077  2.7224  0.6202  2.0768
  855MOL0     H17951   5.114  -0.090   1.940 -1.3025  0.2361  0.6323
  855MOL0     H17952   5.301  -0.190   2.427  3.4152 -1.7122  1.8503
  855MOL0     H17953   5.271  -0.409   2.529 -1.3738 -1.7467  0.7034
  855MOL0     H17954   5.314  -0.662   2.551  0.1934 -1.9696  0.6525
  855MOL0     H17955   5.154  -0.603   2.578 -0.7033 -1.0921  0.0279
  855MOL0     H17956   5.225  -0.874   2.465 -0.3978  0.1960 -1.6935
  855MOL0     H17957   5.210  -0.826   2.645 -2.2823  2.1527  0.5941
  855MOL0     H17958   4.994  -0.872   2.440 -1.1383  1.2926  0.4470
  855MOL0     H17959   4.968  -0.753   2.573 -2.1223 -0.4805 -0.5794
  855MOL0     H17960   5.046  -0.968   2.716  1.2668 -2.5604 -0.3795
  855MOL0     H17961   4.986  -1.046   2.564  1.1354 -1.1418  1.7235
  855MOL0     H17962   4.812  -0.844   2.681  1.1466  0.5284 -0.0830
  855MOL0     H17963   4.779  -0.970   2.577 -4.4054  4.8106  1.7261
  855MOL0     H17964   4.845  -1.152   2.728 -1.9342  0.0232  0.8244
  855MOL0     H17965   4.702  -1.071   2.794  0.7734 -0.9800  4.2475
  855MOL0     H17966   4.903  -0.911   2.898 -2.7031  0.2604 -4.1287
  855MOL0     H17967   4.981  -1.069   2.893  2.5826  1.1906 -0.0497
  855MOL0     H17968   4.698  -1.031   3.009 -0.1017  2.8332  0.2764
  855MOL0     H17969   4.838  -1.009   3.117  3.3255 -2.9125 -0.8037
  855MOL0     H17970   5.144  -0.576   2.144 -1.1480  1.0962 -0.8212
  855MOL0     H17971   5.141  -0.335   2.055 -1.4116 -2.2412 -1.6953
  855MOL0     H17972   5.518   0.130   2.115  1.0741  1.1804 -1.9435
  855MOL0     H17973   5.559   0.289   1.953 -0.8167  2.9164 -2.3273
  855MOL0     H17974   6.148   1.576   2.680  0.7575  0.4546 -0.1591
  855MOL0     H17975   6.031   1.718   2.847  2.3334  0.2045 -0.9224
  855MOL0     H17976   5.746   2.122   2.779  0.8838  1.9254  0.7727
  855MOL0     H17977   5.612   2.315   2.863 -0.8390  0.1271  1.2939
  855MOL0     H17978   5.397   2.514   3.042 -1.2169 -0.4099  2.5659
  855MOL0     H17979   5.422   2.384   2.921 -1.6348  0.6213 -0.5156
  855MOL0     H17980   5.273   2.242   3.035  3.1930  0.7168  0.0803
  855MOL0     H17981   5.194   2.401   3.011 -1.7206 -2.9924 -0.1318
  855MOL0     H17982   5.312   2.300   3.262  0.2441  1.7432  0.6746
  855MOL0     H17983   5.209   2.448   3.239 -2.6260 -0.9390  2.8284
  855MOL0     H17984   5.108   2.159   3.238  1.6467  0.1066  1.1033
  855MOL0     H17985   5.045   2.303   3.135  2.6501 -1.1675 -1.9608
  855MOL0     H17986   4.870   2.434   3.467 -2.7651  0.0990 -2.4953
  855MOL0     H17987   5.575   2.139   3.244  2.4955  1.8477  0.6672
  855MOL0     H17988   5.766   1.859   3.215  3.2355  2.0129 -5.8306
  855MOL0     H17989   5.603   1.916   3.277 -0.8103  0.2963 -0.9378
  855MOL0     H17990   5.612   1.805   3.145  0.2779  1.3831 -3.3577
  856MOL0     O17991   0.244  10.766   4.012 -0.2319 -0.1381  0.1598
  856MOL0     C17992   0.234  10.873   4.066  1.3565 -0.3416  0.7838
  856MOL0     O17993   0.326  10.936   4.144 -0.0518  0.3129  0.1244
  856MOL0     C17994   0.400  10.858   4.226 -0.6308  0.1312 -0.2081
  856MOL0     C17995   0.386  10.722   4.265  0.8573 -0.2340 -0.7814
  856MOL0     C17996   0.493  10.661   4.321 -0.7849  0.4641  0.1487
  856MOL0     C17997   0.618  10.714   4.349 -0.4432  1.1072  0.2291
  856MOL0     O17998   0.712  10.620   4.393 -0.4595 -0.3526  0.6962
  856MOL0     C17999   0.823  10.669   4.469  0.0635  0.3766  0.2032
  856MOL0     C18000   0.908  10.543   4.504 -0.2446 -0.1395  0.0592
  856MOL0     C18001   0.978  10.564   4.637 -0.3204 -0.3554 -0.1528
  856MOL0     C18002   1.046  10.431   4.698  0.3031 -0.8138 -0.7250
  856MOL0     C18003   1.127  10.465   4.821  0.7125 -0.6782  0.2237
  856MOL0     C18004   1.048  10.421   4.950 -0.7252 -0.0190 -0.4373
  856MOL0     C18005   1.104  10.485   5.079 -0.0478 -0.7938 -0.1445
  856MOL0     C18006   1.029  10.611   5.120 -0.1124 -0.0124 -0.0056
  856MOL0     N18007   0.882  10.600   5.109  0.9669 -0.4840  0.2773
  856MOL0     C18008   0.809  10.484   5.130  0.0612 -0.4463 -0.1017
  856MOL0     C18009   0.679  10.529   5.097  0.1107 -0.6693  0.3504
  856MOL0     C18010   0.564  10.441   5.144 -0.7074  0.0507 -0.5483
  856MOL0     C18011   0.557  10.427   5.303  0.0460 -0.3678  0.2117
  856MOL0     C18012   0.470  10.533   5.376  0.3118 -0.1776 -0.4357
  856MOL0     C18013   0.322  10.493   5.382  0.0403  0.6541 -0.2483
  856MOL0     O18014   0.234  10.602   5.410  0.0077  0.3009 -0.3247
  856MOL0     C18015   0.187  10.691   5.316 -1.1510  1.2109 -0.0159
  856MOL0     C18016   0.097  10.787   5.365  0.1822 -0.1191 -0.7837
  856MOL0     C18017   0.056  10.895   5.292 -0.0549  0.3298 -0.7131
  856MOL0     C18018  -0.040  10.990   5.357 -0.3671  0.9613 -0.0168
  856MOL0     C18019   0.108  10.912   5.159 -0.3486 -0.0308 -0.1833
  856MOL0     C18020   0.059  11.023   5.066 -0.2302  0.3158  0.1860
  856MOL0     O18021  -0.062  11.081   5.087 -0.1049  0.0968  0.2098
  856MOL0     C18022  -0.094  11.176   4.996 -0.0078 -0.1547 -0.0040
  856MOL0     C18023  -0.192  11.150   4.903  0.3170  1.3524  1.6595
  856MOL0     C18024  -0.214  11.235   4.794  0.7687 -0.0945  0.3225
  856MOL0     C18025  -0.156  11.363   4.788 -0.3472  0.0603 -0.2736
  856MOL0     O18026  -0.178  11.466   4.699  0.7450  0.7775  0.4174
  856MOL0     C18027  -0.290  11.442   4.609  0.2730 -0.3687  0.7506
  856MOL0     C18028  -0.292  11.553   4.503  0.5308 -0.9137  0.4762
  856MOL0     C18029  -0.427  11.561   4.431 -1.1449  0.0288  0.1824
  856MOL0     C18030  -0.421  11.647   4.296  0.6271 -0.2959  0.3697
  856MOL0     C18031  -0.561  11.693   4.242 -0.8298  0.0939 -0.5584
  856MOL0     C18032  -0.623  11.790   4.343 -0.1662 -0.0692 -1.4412
  856MOL0     C18033  -0.746  11.856   4.283  0.0243 -0.4190  0.1534
  856MOL0     C18034  -0.801  11.973   4.369  0.6082 -0.3608 -0.6401
  856MOL0    Cl18035  -0.706  12.125   4.385 -0.0052  0.5409 -0.0851
  856MOL0     C18036  -0.064  11.396   4.891  0.5738  0.2430  0.3561
  856MOL0     C18037  -0.034  11.301   4.992  0.0290 -0.6123  0.7182
  856MOL0     O18038   0.133  11.055   4.967  0.4810 -0.1579  0.4568
  856MOL0     C18039   0.207  10.826   5.116  0.6577  0.7827 -0.0777
  856MOL0     C18040   0.248  10.716   5.186 -0.3456 -0.5195 -0.1506
  856MOL0     N18041   0.678  10.665   5.069  0.6408  0.4267 -0.0306
  856MOL0     N18042   0.797  10.706   5.089 -0.5975 -0.5236 -0.7409
  856MOL0     C18043   0.632  10.851   4.327 -0.4049  1.3914 -0.3362
  856MOL0     C18044   0.524  10.921   4.263 -0.1534  0.1911 -1.3032
  856MOL0     C18045   0.110  10.960   4.033 -0.1755  0.1632  1.1940
  856MOL0     C18046   0.082  11.059   4.122 -0.0815 -0.6935 -0.3232
  856MOL0     C18047  -0.009  11.157   4.088  0.9928  1.3687 -0.0371
  856MOL0     C18048  -0.074  11.158   3.960  0.6916 -0.2910  0.3201
  856MOL0     O18049  -0.152  11.264   3.929  0.6389  0.2625  0.1710
  856MOL0     C18050  -0.274  11.232   3.850  0.3302 -0.2770  0.0105
  856MOL0     C18051  -0.389  11.333   3.876 -0.7089 -0.4164 -0.0256
  856MOL0     C18052  -0.492  11.315   3.769 -0.1568  0.0543  1.2866
  856MOL0     C18053  -0.626  11.386   3.811  0.7431  0.1562 -0.1444
  856MOL0     C18054  -0.712  11.373   3.699  1.3268  0.0873 -0.2722
  856MOL0     C18055  -0.768  11.364   3.596  0.5027 -0.0025  0.1954
  856MOL0     C18056  -0.045  11.048   3.875 -0.1990 -1.3103 -0.0618
  856MOL0     C18057   0.035  10.946   3.915 -1.0078 -0.4026  0.0279
  856MOL0     C18058   0.027  10.814   3.841 -0.1016 -0.1513  1.1595
  856MOL0     H18059   0.302  10.668   4.224  0.9077  1.0941 -2.7590
  856MOL0     H18060   0.469  10.556   4.333  2.3747 -0.2257  1.2368
  856MOL0     H18061   0.792  10.719   4.561  1.8667  0.7752  0.6340
  856MOL0     H18062   0.882  10.740   4.410  1.0274 -1.8826 -1.6997
  856MOL0     H18063   0.834  10.463   4.519  1.1501 -1.2257  1.6086
  856MOL0     H18064   0.983  10.512   4.431 -0.3898 -1.1155  0.3020
  856MOL0     H18065   1.062  10.633   4.626 -0.9566  0.1925 -1.9832
  856MOL0     H18066   0.902  10.606   4.703  1.6515  1.3427  1.1533
  856MOL0     H18067   0.965  10.359   4.716 -0.7223  0.6085  0.6237
  856MOL0     H18068   1.103  10.392   4.613 -0.9869 -1.9871 -1.1008
  856MOL0     H18069   1.136  10.573   4.832  2.6448 -0.8694  0.8064
  856MOL0     H18070   1.229  10.430   4.805  1.6899  2.6221 -1.5808
  856MOL0     H18071   0.945  10.456   4.937 -0.7978  1.2552  2.6040
  856MOL0     H18072   1.045  10.312   4.958 -2.4641 -0.0779 -1.4494
  856MOL0     H18073   1.208  10.503   5.052 -0.2768 -1.2615 -1.4311
  856MOL0     H18074   1.103  10.417   5.165  3.3202 -1.8858 -0.8361
  856MOL0     H18075   1.047  10.637   5.225  3.7878 -1.5921 -0.1120
  856MOL0     H18076   1.067  10.695   5.061 -0.3377 -0.1922 -0.4050
  856MOL0     H18077   0.846  10.390   5.168 -2.2036 -1.7861 -1.0183
  856MOL0     H18078   0.562  10.343   5.097  0.1466  0.8809 -2.4555
  856MOL0     H18079   0.471  10.496   5.126 -0.6926  0.0978 -0.4827
  856MOL0     H18080   0.513  10.334   5.340  1.2657 -0.4022  1.6532
  856MOL0     H18081   0.657  10.442   5.343  0.1274 -1.4740  0.4612
  856MOL0     H18082   0.508  10.544   5.478 -0.7674  0.4444 -0.0872
  856MOL0     H18083   0.459  10.631   5.331 -1.9488 -0.2312 -0.1222
  856MOL0     H18084   0.298  10.445   5.287 -5.0122 -2.1548  2.0401
  856MOL0     H18085   0.320  10.415   5.459  2.4074  1.3636  0.6423
  856MOL0     H18086   0.043  10.769   5.457  0.2365 -1.4632 -0.9945
  856MOL0     H18087  -0.059  10.969   5.462 -0.3405  0.6295 -0.0746
  856MOL0     H18088  -0.137  10.980   5.309 -0.8228 -0.1403  1.0931
  856MOL0     H18089  -0.002  11.093   5.357  2.2564  0.0655 -0.3567
  856MOL0     H18090  -0.240  11.053   4.910 -1.8104  2.3791  2.1652
  856MOL0     H18091  -0.272  11.194   4.712 -0.6869  2.5586 -0.0889
  856MOL0     H18092  -0.272  11.357   4.543 -2.4762 -1.4562  1.2600
  856MOL0     H18093  -0.382  11.432   4.668  1.0979 -0.0094  2.1367
  856MOL0     H18094  -0.274  11.643   4.561  1.8604 -1.0211  0.2581
  856MOL0     H18095  -0.220  11.550   4.420 -2.5432  0.0968 -2.4681
  856MOL0     H18096  -0.505  11.582   4.504  1.1013  0.6400  2.5606
  856MOL0     H18097  -0.442  11.460   4.393  0.3967 -0.0665 -0.2428
  856MOL0     H18098  -0.373  11.599   4.211 -0.2718 -4.5583  2.0306
  856MOL0     H18099  -0.351  11.729   4.313  0.3178 -0.0994  0.7242
  856MOL0     H18100  -0.547  11.737   4.143 -0.7701  2.4545  0.4197
  856MOL0     H18101  -0.639  11.617   4.240 -1.8908  1.1775 -1.6733
  856MOL0     H18102  -0.547  11.854   4.389 -1.2077 -0.0483  0.3573
  856MOL0     H18103  -0.652  11.730   4.431 -2.8129  0.3726 -1.9286
  856MOL0     H18104  -0.823  11.783   4.257  0.9470 -1.3463 -0.0682
  856MOL0     H18105  -0.721  11.900   4.185 -2.1003 -1.0720 -0.7421
  856MOL0     H18106  -0.821  11.929   4.467 -0.4939  2.0552  0.3071
  856MOL0     H18107  -0.890  12.011   4.317 -0.0269  0.2660  0.8498
  856MOL0     H18108  -0.016  11.493   4.884  0.0992  0.4515 -0.1108
  856MOL0     H18109   0.039  11.325   5.069  2.3742  0.9952 -1.8567
  856MOL0     H18110   0.260  10.847   5.023 -0.4797  0.2783 -0.8677
  856MOL0     H18111   0.328  10.653   5.149 -0.8844 -0.5589 -1.2811
  856MOL0     H18112   0.733  10.891   4.337  0.3594 -0.7327  1.0479
  856MOL0     H18113   0.544  11.025   4.243  1.3779  0.6178  1.8888
  856MOL0     H18114   0.132  11.064   4.218  1.3554  0.4653 -1.0868
  856MOL0     H18115  -0.036  11.228   4.166 -0.0157  1.3546 -0.3596
  856MOL0     H18116  -0.240  11.237   3.746 -0.3000 -0.4590 -0.2137
  856MOL0     H18117  -0.306  11.133   3.884 -4.7541  1.9145  2.8112
  856MOL0     H18118  -0.363  11.438   3.891 -2.3218  0.0286 -0.1865
  856MOL0     H18119  -0.433  11.313   3.975  3.9391 -2.4181  1.9534
  856MOL0     H18120  -0.448  11.344   3.673  0.0118 -1.4187  0.8952
  856MOL0     H18121  -0.506  11.206   3.762 -1.2596  0.2171  0.9139
  856MOL0     H18122  -0.598  11.483   3.854  1.2653  0.9427 -2.1860
  856MOL0     H18123  -0.676  11.332   3.892 -0.8518  2.1359  0.2499
  856MOL0     H18124  -0.835  11.349   3.514  1.5299  0.5055 -0.7493
  856MOL0     H18125  -0.100  11.048   3.782  0.5659  1.5979 -0.6150
  856MOL0     H18126  -0.002  10.733   3.908  0.3637  0.3161  1.9379
  856MOL0     H18127  -0.059  10.817   3.773  1.5480  2.2668 -1.0482
  856MOL0     H18128   0.118  10.798   3.782  0.1834  2.3970  0.7836
  857MOL0     O18129   4.388   7.926  11.211  0.0705  0.3682 -0.1176
  857MOL0     C18130   4.475   7.949  11.294  1.1972 -0.6904 -0.4112
  857MOL0     O18131   4.541   8.069  11.302 -0.3981  0.0169 -0.2427
  857MOL0     C18132   4.536   8.174  11.213 -0.3643 -0.2203 -0.0318
  857MOL0     C18133   4.629   8.268  11.213 -0.4227 -0.4384  0.3302
  857MOL0     C18134   4.623   8.388  11.134  0.3534  0.1701  0.5086
  857MOL0     C18135   4.526   8.406  11.037  0.0515  1.2710 -0.2890
  857MOL0     O18136   4.517   8.527  10.980  0.2036 -0.1673 -0.5821
  857MOL0     C18137   4.434   8.557  10.866 -0.5977  0.0189  0.2648
  857MOL0     C18138   4.302   8.624  10.916  0.9470 -0.5923 -0.8265
  857MOL0     C18139   4.329   8.761  10.999 -0.3636 -0.1793 -0.0033
  857MOL0     C18140   4.227   8.866  10.980  0.1872 -0.6506 -0.9067
  857MOL0     C18141   4.271   9.006  11.036 -0.5647  0.0573  0.1044
  857MOL0     C18142   4.180   9.124  11.018 -0.4944  0.1886  0.4630
  857MOL0     C18143   4.173   9.179  10.870 -0.2479  0.1873  0.5681
  857MOL0     C18144   4.040   9.166  10.802 -0.5959  0.4763 -0.1748
  857MOL0     N18145   3.999   9.028  10.773  0.1596 -0.8678  0.8411
  857MOL0     C18146   3.918   8.954  10.855 -0.5060  0.1858  0.1367
  857MOL0     C18147   3.884   8.848  10.784  0.1025 -0.3463 -0.3226
  857MOL0     C18148   3.809   8.722  10.819  1.7566  0.6974 -0.0970
  857MOL0     C18149   3.891   8.591  10.809 -0.1889 -0.2168 -0.4185
  857MOL0     C18150   3.812   8.466  10.796  0.3654  0.9186 -0.4027
  857MOL0     C18151   3.738   8.440  10.662 -0.1276 -0.0944 -0.5103
  857MOL0     O18152   3.656   8.326  10.687 -0.4022  1.1138  0.1352
  857MOL0     C18153   3.535   8.316  10.620 -0.4475 -0.8218 -0.3238
  857MOL0     C18154   3.445   8.230  10.683  0.4857  0.3082 -1.0348
  857MOL0     C18155   3.306   8.215  10.652  0.3677  0.0847 -0.3912
  857MOL0     C18156   3.227   8.111  10.726  0.0106 -0.3413  0.2860
  857MOL0     C18157   3.265   8.286  10.536 -0.2478 -0.4624 -0.0611
  857MOL0     C18158   3.127   8.271  10.489  0.3064  0.7397 -0.6184
  857MOL0     O18159   3.109   8.254  10.348  0.2800 -1.0850  0.0828
  857MOL0     C18160   2.985   8.231  10.297 -0.3280 -1.0110 -1.0543
  857MOL0     C18161   2.987   8.158  10.181 -0.4902 -0.3477 -0.7739
  857MOL0     C18162   2.867   8.124  10.112 -0.2596 -0.0340  0.4226
  857MOL0     C18163   2.744   8.162  10.163  0.0403  0.5636  0.3389
  857MOL0     O18164   2.632   8.124  10.090  0.1540 -0.8989 -0.2470
  857MOL0     C18165   2.509   8.172  10.143 -0.1902  0.0462 -0.5884
  857MOL0     C18166   2.402   8.133  10.041 -0.2317 -0.1781 -0.1083
  857MOL0     C18167   2.263   8.183  10.077 -1.0951 -0.1040 -0.4672
  857MOL0     C18168   2.169   8.132   9.974 -0.6196 -0.4066 -0.5924
  857MOL0     C18169   2.031   8.171  10.025  0.4999  0.4416  0.1974
  857MOL0     C18170   1.918   8.130   9.934 -0.5417  0.4546 -0.5049
  857MOL0     C18171   1.774   8.146   9.988  0.4118 -0.3686  0.1306
  857MOL0     C18172   1.672   8.098   9.880 -0.6032 -0.4770  2.0462
  857MOL0    Cl18173   1.505   8.090   9.964  0.3372  0.6462  0.1416
  857MOL0     C18174   2.747   8.240  10.287 -0.5667 -0.3959 -0.1124
  857MOL0     C18175   2.865   8.281  10.346 -0.2529  1.6146  0.5623
  857MOL0     O18176   3.034   8.278  10.569 -0.0083  0.6400  0.0415
  857MOL0     C18177   3.358   8.376  10.462  0.6755  0.4999 -0.0581
  857MOL0     C18178   3.484   8.392  10.506 -0.8444  0.4479 -0.5080
  857MOL0     N18179   3.957   8.848  10.665 -0.1361 -0.1723 -0.0405
  857MOL0     N18180   4.018   8.960  10.656 -0.1143 -0.2034 -0.4225
  857MOL0     C18181   4.428   8.305  11.038 -0.0953  0.2847 -0.5970
  857MOL0     C18182   4.426   8.202  11.129 -0.6827 -0.8467 -0.1959
  857MOL0     C18183   4.529   7.847  11.392  0.9538 -0.4690 -0.5080
  857MOL0     C18184   4.656   7.845  11.434  1.0056  0.3459 -0.3930
  857MOL0     C18185   4.697   7.744  11.519  0.7647  0.0920  0.1222
  857MOL0     C18186   4.604   7.654  11.575  0.1429 -0.2066 -0.7435
  857MOL0     O18187   4.630   7.548  11.662  0.0176  0.2701  0.1467
  857MOL0     C18188   4.761   7.532  11.712  1.4304 -0.5952  0.2032
  857MOL0     C18189   4.750   7.415  11.812  0.3917  0.5923  0.0250
  857MOL0     C18190   4.671   7.437  11.946 -0.3000  0.2481  0.8690
  857MOL0     C18191   4.656   7.307  12.042  0.6305  0.1701 -0.1927
  857MOL0     C18192   4.582   7.201  11.979  0.3345  0.0755 -0.4241
  857MOL0     C18193   4.550   7.097  11.930  1.0747 -0.4988 -0.6350
  857MOL0     C18194   4.474   7.686  11.549 -0.3049 -0.0815 -0.6878
  857MOL0     C18195   4.430   7.776  11.464  0.4686 -0.5894 -0.1414
  857MOL0     C18196   4.277   7.792  11.441 -0.1044 -0.0126 -0.0875
  857MOL0     H18197   4.706   8.249  11.288 -0.4636 -2.7532 -0.1405
  857MOL0     H18198   4.690   8.468  11.163  1.6946 -0.0847 -1.6292
  857MOL0     H18199   4.414   8.465  10.811 -2.3675  0.3095  0.3774
  857MOL0     H18200   4.495   8.626  10.806 -0.5111 -0.8533 -0.6591
  857MOL0     H18201   4.236   8.634  10.830 -2.0888 -0.2558  1.3741
  857MOL0     H18202   4.260   8.555  10.991  0.1512  0.8628  0.1200
  857MOL0     H18203   4.336   8.733  11.105  0.8077 -0.1845 -0.0728
  857MOL0     H18204   4.426   8.799  10.969 -1.1649  2.1010  0.1055
  857MOL0     H18205   4.219   8.882  10.872  3.4338 -1.7392 -1.4006
  857MOL0     H18206   4.136   8.834  11.031 -0.2665 -0.3083 -1.4844
  857MOL0     H18207   4.372   9.030  11.002  2.5665 -0.0942  7.5470
  857MOL0     H18208   4.292   9.009  11.143 -0.4266  2.3817  0.0691
  857MOL0     H18209   4.080   9.104  11.057 -1.6047 -1.6431 -2.9233
  857MOL0     H18210   4.222   9.202  11.082  2.0668  1.5176 -2.5854
  857MOL0     H18211   4.248   9.136  10.803 -2.1143 -2.4189 -0.0289
  857MOL0     H18212   4.202   9.284  10.879 -4.1708  1.4689  0.4516
  857MOL0     H18213   3.975   9.206  10.881  0.7611  1.3818  0.5307
  857MOL0     H18214   4.035   9.233  10.715  2.5012  2.0748  0.7295
  857MOL0     H18215   3.884   8.990  10.952 -0.2208 -0.2567  0.4050
  857MOL0     H18216   3.722   8.703  10.755  0.2462 -1.7640  2.4195
  857MOL0     H18217   3.769   8.741  10.919  0.3374 -0.1032 -0.4743
  857MOL0     H18218   3.962   8.604  10.727 -0.7776 -0.2755 -0.9385
  857MOL0     H18219   3.948   8.586  10.902  0.3481 -0.7370 -0.7681
  857MOL0     H18220   3.885   8.386  10.810 -0.9596  0.0268  2.1837
  857MOL0     H18221   3.741   8.466  10.880  2.1923 -1.0816  1.2888
  857MOL0     H18222   3.684   8.532  10.636  1.5078  0.7296 -1.1471
  857MOL0     H18223   3.809   8.416  10.582  2.7803 -0.7064  2.0785
  857MOL0     H18224   3.484   8.162  10.758  0.8344 -0.5892 -1.9974
  857MOL0     H18225   3.153   8.173  10.779 -1.1659  3.8484 -5.3010
  857MOL0     H18226   3.281   8.065  10.810 -2.6742  0.1863  2.4556
  857MOL0     H18227   3.177   8.042  10.658 -1.9126 -0.3526  1.6200
  857MOL0     H18228   3.076   8.137  10.123 -0.5139 -0.6655 -0.6952
  857MOL0     H18229   2.875   8.087  10.011  2.2760  2.1317 -0.3105
  857MOL0     H18230   2.496   8.136  10.245  0.8898 -0.2850 -0.5515
  857MOL0     H18231   2.504   8.281  10.141  0.2136  0.0813  0.0904
  857MOL0     H18232   2.419   8.178   9.943  2.2815 -1.8789 -0.5536
  857MOL0     H18233   2.406   8.024  10.032 -0.6031 -0.3772  1.7209
  857MOL0     H18234   2.261   8.290  10.096  1.7762 -0.0954  0.2501
  857MOL0     H18235   2.229   8.151  10.176 -0.0659  2.4024  0.7941
  857MOL0     H18236   2.174   8.022   9.970  0.7975 -0.5418  2.3577
  857MOL0     H18237   2.207   8.178   9.882 -2.4863  0.8970 -0.7665
  857MOL0     H18238   2.005   8.133  10.124 -1.6958  1.6280  0.1615
  857MOL0     H18239   2.018   8.280  10.028 -2.6194  0.1432  1.0600
  857MOL0     H18240   1.930   8.024   9.907 -2.5723 -0.0866  0.5474
  857MOL0     H18241   1.932   8.177   9.836  1.2281  0.7457 -0.1572
  857MOL0     H18242   1.765   8.250  10.021  3.4723  0.2483 -0.7018
  857MOL0     H18243   1.769   8.094  10.085 -1.4002  1.5916  1.1791
  857MOL0     H18244   1.700   7.996   9.850 -2.4597 -1.4711  3.4418
  857MOL0     H18245   1.666   8.166   9.794  1.7193 -1.0412  1.3590
  857MOL0     H18246   2.662   8.267  10.348  1.7283  0.7602  2.8407
  857MOL0     H18247   2.859   8.345  10.433 -0.4735  0.8689  1.1104
  857MOL0     H18248   3.326   8.438  10.378 -1.9445  0.6182  0.9297
  857MOL0     H18249   3.541   8.455  10.439 -2.4255  4.5277  1.6116
  857MOL0     H18250   4.346   8.318  10.968  1.1968 -0.2162 -2.2700
  857MOL0     H18251   4.329   8.154  11.137 -2.4305  2.3848 -0.4487
  857MOL0     H18252   4.714   7.912  11.372  2.1539 -0.2304  0.0248
  857MOL0     H18253   4.802   7.730  11.543  1.0555 -0.3395 -1.3287
  857MOL0     H18254   4.833   7.514  11.632  1.1922 -0.0934 -0.1301
  857MOL0     H18255   4.788   7.627  11.760  1.2026  0.1837 -1.1539
  857MOL0     H18256   4.853   7.382  11.827  1.2149  3.6742  2.3200
  857MOL0     H18257   4.689   7.336  11.769 -0.8688  1.2217  0.6052
  857MOL0     H18258   4.702   7.522  12.007 -2.0273  0.3628  1.6289
  857MOL0     H18259   4.565   7.455  11.927  0.1517  0.8710 -1.4111
  857MOL0     H18260   4.606   7.344  12.132  1.4869  2.7824 -0.6964
  857MOL0     H18261   4.757   7.282  12.077 -0.0785 -1.9163  0.5296
  857MOL0     H18262   4.522   7.013  11.871 -1.3676 -0.4438  0.3204
  857MOL0     H18263   4.401   7.631  11.609  0.7764 -3.5771 -2.2933
  857MOL0     H18264   4.263   7.900  11.436 -0.4585 -0.0657 -0.3464
  857MOL0     H18265   4.252   7.741  11.347 -1.0107 -3.0265  1.6297
  857MOL0     H18266   4.211   7.747  11.515  0.1805 -0.5260 -0.1409
  858MOL0     O18267   1.876   3.183   5.493 -0.0526  0.2720  0.5761
  858MOL0     C18268   1.990   3.157   5.503 -0.0719  0.7691 -0.7390
  858MOL0     O18269   2.093   3.229   5.438  0.2630 -0.9224  0.3048
  858MOL0     C18270   2.056   3.343   5.375  0.0287 -0.5686 -0.7248
  858MOL0     C18271   2.005   3.340   5.247 -0.4688  0.7968  0.5898
  858MOL0     C18272   1.980   3.461   5.179  0.2616  0.3645  0.4344
  858MOL0     C18273   1.997   3.587   5.243 -0.4424  0.7890 -0.1914
  858MOL0     O18274   1.957   3.702   5.179  0.0537 -0.1059  0.4212
  858MOL0     C18275   1.930   3.826   5.245 -1.1370  0.6468 -0.9638
  858MOL0     C18276   1.882   3.932   5.143 -0.4677 -0.2231  0.6265
  858MOL0     C18277   1.982   3.955   5.029 -0.1066 -0.9764 -0.3629
  858MOL0     C18278   1.947   4.075   4.949 -0.4314  0.3374  0.2008
  858MOL0     C18279   2.056   4.107   4.855 -0.7316 -0.7749 -0.1487
  858MOL0     C18280   2.023   4.236   4.768 -0.6035  0.7331 -0.2880
  858MOL0     C18281   2.113   4.275   4.665 -1.0225 -0.2706  0.3391
  858MOL0     C18282   2.042   4.362   4.565 -0.2952 -0.6924  0.3049
  858MOL0     N18283   2.132   4.421   4.466  0.1458 -0.0771  0.8786
  858MOL0     C18284   2.205   4.355   4.377 -0.6593  1.2670  0.5415
  858MOL0     C18285   2.272   4.449   4.303 -0.5111  0.5672  0.1168
  858MOL0     C18286   2.366   4.424   4.179 -0.4507  0.0176  0.7728
  858MOL0     C18287   2.289   4.363   4.060  0.3622 -0.3044 -0.0055
  858MOL0     C18288   2.146   4.426   4.038 -0.7423 -0.3338 -0.4916
  858MOL0     C18289   2.141   4.576   4.018  0.5537  0.1781  0.1638
  858MOL0     O18290   2.244   4.597   3.915 -0.1789  0.4437  0.4262
  858MOL0     C18291   2.302   4.716   3.902 -0.6550 -0.0968  0.4861
  858MOL0     C18292   2.228   4.831   3.922 -0.0293  1.0059  0.0314
  858MOL0     C18293   2.273   4.956   3.894 -0.2751 -0.2794 -0.4883
  858MOL0     C18294   2.173   5.071   3.908  0.8469  0.4204 -0.1564
  858MOL0     C18295   2.411   4.975   3.861 -0.2460 -0.6562  0.4430
  858MOL0     C18296   2.470   5.103   3.858  0.1183 -0.1112  0.2716
  858MOL0     O18297   2.562   5.140   3.767  0.0907 -0.6507 -0.3685
  858MOL0     C18298   2.549   5.084   3.635 -0.4559  0.6457  0.5004
  858MOL0     C18299   2.422   5.101   3.570 -0.2634  0.3199  0.7630
  858MOL0     C18300   2.407   5.058   3.437  0.0082 -0.6579 -0.8437
  858MOL0     C18301   2.524   5.007   3.376 -0.3044 -0.4480 -0.2602
  858MOL0     O18302   2.514   4.982   3.251 -0.2281 -0.3145 -0.2425
  858MOL0     C18303   2.512   4.843   3.225  0.4662  0.5234  0.0479
  858MOL0     C18304   2.368   4.785   3.218 -0.6165  0.7742  0.1908
  858MOL0     C18305   2.276   4.870   3.133 -0.0244  0.2761  0.0386
  858MOL0     C18306   2.130   4.830   3.148  0.0786 -0.0001 -0.2788
  858MOL0     C18307   2.073   4.891   3.283 -1.0701  0.5795 -0.3293
  858MOL0     C18308   1.935   4.832   3.315  0.1261  0.3177 -0.2880
  858MOL0     C18309   1.819   4.861   3.221  0.5218  0.0110 -0.1941
  858MOL0     C18310   1.710   4.763   3.258  0.6827  0.2632 -0.0465
  858MOL0    Cl18311   1.554   4.818   3.200  0.0529  0.2834  0.3644
  858MOL0     C18312   2.651   5.002   3.444  0.7942  0.3065 -0.3175
  858MOL0     C18313   2.664   5.049   3.568 -0.2062  0.3609 -0.7487
  858MOL0     O18314   2.428   5.176   3.953 -0.0291 -0.4872 -0.2633
  858MOL0     C18315   2.484   4.864   3.834  0.0994  1.0019 -1.4622
  858MOL0     C18316   2.434   4.735   3.861  0.4697 -0.4476  0.2741
  858MOL0     N18317   2.231   4.568   4.344  0.0736 -0.6933  0.7281
  858MOL0     N18318   2.137   4.553   4.433  0.7346 -0.8676  0.2359
  858MOL0     C18319   2.038   3.587   5.383  0.7589  0.3720  0.1815
  858MOL0     C18320   2.068   3.466   5.441  0.2855 -0.8613  0.1651
  858MOL0     C18321   2.029   3.055   5.599  0.7868  0.4780  0.8248
  858MOL0     C18322   2.157   3.054   5.647  0.2113 -0.0852  0.0494
  858MOL0     C18323   2.202   2.953   5.734 -0.2834 -0.5657 -0.7607
  858MOL0     C18324   2.117   2.863   5.770  0.3572  0.4510 -0.7121
  858MOL0     O18325   2.172   2.775   5.861  0.5150 -1.3125 -0.0014
  858MOL0     C18326   2.123   2.794   5.999  0.0807 -0.1712 -0.5471
  858MOL0     C18327   2.235   2.825   6.097 -0.8179  0.0871 -0.0226
  858MOL0     C18328   2.343   2.717   6.110  0.5262  0.0382  0.3144
  858MOL0     C18329   2.463   2.750   6.200 -0.4255  0.0828 -0.1207
  858MOL0     C18330   2.408   2.761   6.336  0.0483  0.0919  0.4930
  858MOL0     C18331   2.372   2.789   6.447 -0.6491 -0.2681  0.1823
  858MOL0     C18332   1.988   2.850   5.733  0.3671 -0.4486  0.6460
  858MOL0     C18333   1.942   2.942   5.629 -0.0292 -0.3317 -0.3124
  858MOL0     C18334   1.804   2.926   5.577  0.0899 -0.2612  0.4114
  858MOL0     H18335   1.989   3.250   5.188  0.8993  2.5521 -2.7267
  858MOL0     H18336   1.951   3.467   5.075  2.3071  0.9600 -0.1588
  858MOL0     H18337   2.028   3.862   5.279 -0.2624  0.1609 -2.8735
  858MOL0     H18338   1.877   3.806   5.339  2.6222 -2.2636  0.8118
  858MOL0     H18339   1.788   3.892   5.101  0.6991 -1.9799 -0.4728
  858MOL0     H18340   1.850   4.018   5.202 -2.5057 -1.5227  1.5423
  858MOL0     H18341   2.079   3.974   5.075  1.4432 -3.2517 -2.4322
  858MOL0     H18342   1.988   3.863   4.969  1.0096 -0.0667 -1.7162
  858MOL0     H18343   1.856   4.052   4.893  0.8498 -0.5000 -1.6247
  858MOL0     H18344   1.921   4.157   5.016 -3.7739 -1.2305  1.0685
  858MOL0     H18345   2.085   4.018   4.799  3.0476 -1.0027  1.8392
  858MOL0     H18346   2.142   4.128   4.918 -0.7604  0.1264 -0.3982
  858MOL0     H18347   1.935   4.205   4.709  1.6305 -2.0230 -2.4712
  858MOL0     H18348   2.003   4.320   4.835 -1.4545 -1.5134  2.4663
  858MOL0     H18349   2.139   4.182   4.614 -3.6027 -4.0646  5.0572
  858MOL0     H18350   2.200   4.330   4.703 -1.7587  1.0005  0.2769
  858MOL0     H18351   1.972   4.299   4.508 -1.1172  0.1362  0.3763
  858MOL0     H18352   1.975   4.433   4.613 -0.8292 -1.6905  1.0875
  858MOL0     H18353   2.222   4.248   4.378 -0.1317  1.3241  2.6397
  858MOL0     H18354   2.445   4.352   4.199  2.1716  2.7623  0.8854
  858MOL0     H18355   2.417   4.517   4.155 -0.6424  0.1433  0.8501
  858MOL0     H18356   2.344   4.374   3.967 -2.0940  0.7944 -1.4347
  858MOL0     H18357   2.267   4.256   4.076 -1.3157  0.1801  1.2653
  858MOL0     H18358   2.116   4.390   3.939 -0.0673  1.0557 -1.2168
  858MOL0     H18359   2.070   4.403   4.114  0.0165  0.8639  0.6709
  858MOL0     H18360   2.039   4.597   3.983  0.9220  1.6344 -0.0785
  858MOL0     H18361   2.157   4.627   4.113 -0.5165 -0.8903  0.9545
  858MOL0     H18362   2.127   4.817   3.959  1.1932 -0.2007  3.2208
  858MOL0     H18363   2.202   5.135   3.991  1.8289  3.1973 -2.4829
  858MOL0     H18364   2.073   5.033   3.931  1.6082  0.2985  3.6140
  858MOL0     H18365   2.160   5.135   3.820 -0.7267  1.0379  0.4868
  858MOL0     H18366   2.340   5.144   3.628 -1.7050 -0.7241 -0.3999
  858MOL0     H18367   2.309   5.052   3.391  0.6539 -1.3830 -2.1703
  858MOL0     H18368   2.558   4.838   3.126  1.0046  0.1731  0.3131
  858MOL0     H18369   2.569   4.783   3.295 -0.0668 -0.7991 -0.6131
  858MOL0     H18370   2.388   4.693   3.164 -1.1722  1.1849 -0.7318
  858MOL0     H18371   2.336   4.775   3.323  1.3619  1.0808  0.8606
  858MOL0     H18372   2.307   4.843   3.032  1.5674 -1.3989  0.9082
  858MOL0     H18373   2.276   4.978   3.148  1.0588  0.4150 -0.8833
  858MOL0     H18374   2.126   4.721   3.154 -1.1656  0.0025 -0.8741
  858MOL0     H18375   2.076   4.863   3.060 -0.7081 -2.2199 -0.6804
  858MOL0     H18376   2.146   4.880   3.363  0.9823 -0.1860 -2.1943
  858MOL0     H18377   2.055   4.998   3.265 -1.9505  0.1167 -2.5435
  858MOL0     H18378   1.906   4.871   3.413  0.1506  1.5556 -0.7509
  858MOL0     H18379   1.953   4.725   3.326 -0.3553  0.3868  1.5767
  858MOL0     H18380   1.840   4.846   3.115 -0.2462 -2.4296 -0.0544
  858MOL0     H18381   1.795   4.965   3.248  2.3606 -0.1114  2.2467
  858MOL0     H18382   1.723   4.727   3.360  0.5634  0.8010  0.1669
  858MOL0     H18383   1.734   4.675   3.199 -0.0737  1.1477 -1.7669
  858MOL0     H18384   2.726   4.944   3.391  0.0207  0.0777 -1.1920
  858MOL0     H18385   2.756   5.062   3.624  0.2499 -0.3944 -1.3113
  858MOL0     H18386   2.589   4.882   3.813  0.6462  0.9649  0.9750
  858MOL0     H18387   2.493   4.645   3.843 -0.0848 -0.3447 -2.4651
  858MOL0     H18388   2.048   3.671   5.451  2.4071  0.5050 -0.1672
  858MOL0     H18389   2.089   3.460   5.547  0.1437  0.5178  0.2918
  858MOL0     H18390   2.225   3.135   5.622 -0.9620  0.3587 -1.9551
  858MOL0     H18391   2.299   2.963   5.783 -0.1822  1.6683 -1.3278
  858MOL0     H18392   2.059   2.882   6.011  3.3416  2.1753  1.6009
  858MOL0     H18393   2.077   2.700   6.030  1.7203 -1.2869 -1.3381
  858MOL0     H18394   2.192   2.841   6.196  5.0766 -2.3011  3.4247
  858MOL0     H18395   2.286   2.919   6.072 -1.5842  0.4925 -0.0904
  858MOL0     H18396   2.302   2.620   6.141  0.6579 -0.1043  0.0427
  858MOL0     H18397   2.375   2.709   6.006  1.4610  2.0684  0.4143
  858MOL0     H18398   2.506   2.845   6.165  1.6486  0.8599  3.9147
  858MOL0     H18399   2.539   2.671   6.198  0.6013  1.0599 -1.1111
  858MOL0     H18400   2.335   2.805   6.546  1.6589 -0.2360  1.1076
  858MOL0     H18401   1.931   2.759   5.752  0.2489 -1.4535 -3.5505
  858MOL0     H18402   1.729   2.985   5.631 -2.6542  2.8154 -5.8161
  858MOL0     H18403   1.787   2.949   5.472  1.4874 -2.0336 -0.2383
  858MOL0     H18404   1.766   2.824   5.591  0.5459 -0.6919 -1.3111
  859MOL0     O18405   9.932  11.468   2.104  1.0718 -1.2644  0.0580
  859MOL0     C18406   9.851  11.382   2.122 -0.0745  0.1117 -0.0326
  859MOL0     O18407   9.730  11.403   2.154  0.4390  0.1415 -0.0520
  859MOL0     C18408   9.675  11.523   2.169  0.4196  0.1854 -0.3133
  859MOL0     C18409   9.695  11.628   2.073  0.4017  0.0536  0.3189
  859MOL0     C18410   9.632  11.748   2.095 -0.2929  1.0854  0.5218
  859MOL0     C18411   9.548  11.775   2.200 -0.6330  0.0601  0.2113
  859MOL0     O18412   9.513  11.903   2.221  0.0510 -0.6316  0.2337
  859MOL0     C18413   9.381  11.933   2.174  0.6645  0.6103 -0.8906
  859MOL0     C18414   9.331  12.041   2.265 -0.0084  0.3813  0.6119
  859MOL0     C18415   9.405  12.170   2.234 -0.4315  0.1338 -0.7530
  859MOL0     C18416   9.408  12.267   2.363 -0.0352 -0.0987 -0.2431
  859MOL0     C18417   9.469  12.398   2.333  0.3574 -0.6012  0.1338
  859MOL0     C18418   9.380  12.520   2.361 -0.2920  0.0273  0.2685
  859MOL0     C18419   9.462  12.648   2.346  0.2047  0.3216 -0.3436
  859MOL0     C18420   9.381  12.776   2.361  0.0846  0.4812  0.8293
  859MOL0     N18421   9.405  12.867   2.473 -0.6599  0.2259  1.0227
  859MOL0     C18422   9.493  12.980   2.470 -0.2625 -0.7082  0.6981
  859MOL0     C18423   9.440  13.067   2.559  0.4192  0.0155 -0.7103
  859MOL0     C18424   9.480  13.202   2.597  0.3992 -0.7924 -0.8050
  859MOL0     C18425   9.639  13.218   2.608 -0.2375  0.0385  0.4045
  859MOL0     C18426   9.664  13.328   2.709 -0.9429 -1.2217  0.3166
  859MOL0     C18427   9.802  13.382   2.691 -0.7858  0.3647 -0.3306
  859MOL0     O18428   9.789  13.517   2.654  0.3515 -0.1815  0.1686
  859MOL0     C18429   9.899  13.585   2.613 -0.5151  1.0210 -0.2780
  859MOL0     C18430   9.882  13.722   2.603  0.1533  0.5174 -0.2523
  859MOL0     C18431   9.990  13.810   2.581  0.0605  0.5978 -0.3082
  859MOL0     C18432   9.956  13.951   2.566 -0.4481 -0.3335 -0.0129
  859MOL0     C18433  10.121  13.760   2.562  0.2370 -0.9176 -1.0077
  859MOL0     C18434  10.239  13.835   2.529 -0.2078  0.7043  0.1629
  859MOL0     O18435  10.332  13.769   2.461 -0.3614  0.6087  0.7835
  859MOL0     C18436  10.461  13.801   2.482 -0.8648  0.5595 -0.0176
  859MOL0     C18437  10.518  13.835   2.604  0.3400  0.6224  0.6655
  859MOL0     C18438  10.655  13.855   2.619  0.8076 -0.0858 -0.0837
  859MOL0     C18439  10.738  13.857   2.506 -0.0352 -1.0260  0.1322
  859MOL0     O18440  10.872  13.885   2.507 -0.6776 -0.1068 -0.7793
  859MOL0     C18441  10.946  13.772   2.541  0.3223 -0.6162  0.1316
  859MOL0     C18442  11.102  13.801   2.530 -0.6917 -0.5482 -0.3420
  859MOL0     C18443  11.197  13.698   2.588 -0.2612  0.2422  1.0649
  859MOL0     C18444  11.204  13.565   2.507 -0.9333  0.0610  0.1246
  859MOL0     C18445  11.349  13.511   2.499  0.3321  0.1718  0.4391
  859MOL0     C18446  11.419  13.477   2.628  0.4441  0.2747  0.4166
  859MOL0     C18447  11.570  13.462   2.626  0.0317 -0.2078 -0.2155
  859MOL0     C18448  11.621  13.345   2.541 -0.6070  0.3957 -0.0156
  859MOL0    Cl18449  11.798  13.363   2.497 -0.2051  0.4257 -0.1472
  859MOL0     C18450  10.686  13.831   2.384  0.9306 -1.2606  0.4373
  859MOL0     C18451  10.548  13.800   2.370  0.8510  0.0492 -1.2100
  859MOL0     O18452  10.245  13.954   2.555 -0.6266  0.3316  0.5669
  859MOL0     C18453  10.144  13.619   2.580  0.5202  0.5631  0.6222
  859MOL0     C18454  10.026  13.524   2.589  0.7970 -0.2041  0.7165
  859MOL0     N18455   9.326  13.007   2.618 -0.5744  0.3775 -0.7387
  859MOL0     N18456   9.311  12.888   2.564  0.4585  0.6027  0.1824
  859MOL0     C18457   9.533  11.674   2.299  0.6312  0.0088  0.2490
  859MOL0     C18458   9.583  11.548   2.272  0.2800 -0.2703  0.6817
  859MOL0     C18459   9.899  11.240   2.103 -0.4024  0.0488 -0.1970
  859MOL0     C18460  10.025  11.221   2.054  0.2712  0.0297 -0.2456
  859MOL0     C18461  10.098  11.106   2.048  0.1583 -0.8830  0.3470
  859MOL0     C18462  10.037  10.995   2.111 -0.1307 -0.0812  0.0821
  859MOL0     O18463  10.110  10.877   2.107 -0.9766 -0.2720  0.4901
  859MOL0     C18464  10.047  10.758   2.143 -0.5567  0.5356 -0.6319
  859MOL0     C18465  10.135  10.641   2.094  0.9223  0.0835 -0.3094
  859MOL0     C18466  10.075  10.574   1.966  0.2972  0.4237  0.5891
  859MOL0     C18467  10.157  10.448   1.927  0.3463 -0.7339  0.6059
  859MOL0     C18468  10.116  10.395   1.798 -0.0406 -0.2988  0.9173
  859MOL0     C18469  10.077  10.346   1.697 -0.3202 -0.5289 -0.3492
  859MOL0     C18470   9.903  11.007   2.163 -0.0673  0.0423 -0.9805
  859MOL0     C18471   9.839  11.128   2.161  0.3604  0.0654 -0.1748
  859MOL0     C18472   9.705  11.140   2.229  0.5132 -0.3932 -0.8742
  859MOL0     H18473   9.745  11.605   1.980  2.7657 -2.0547  1.9864
  859MOL0     H18474   9.628  11.825   2.019 -0.4682  0.3686 -0.2012
  859MOL0     H18475   9.314  11.847   2.183 -0.2689  1.4687  1.2019
  859MOL0     H18476   9.396  11.968   2.072 -3.4026  0.0389 -1.8707
  859MOL0     H18477   9.223  12.057   2.251 -0.3526 -3.3631 -2.8686
  859MOL0     H18478   9.347  12.000   2.365  1.6772 -2.5204 -0.7409
  859MOL0     H18479   9.509  12.143   2.214 -0.7044 -0.8881 -0.8320
  859MOL0     H18480   9.359  12.228   2.153 -1.4821  0.6320  0.1699
  859MOL0     H18481   9.301  12.273   2.384  0.1728 -2.4364  2.0703
  859MOL0     H18482   9.448  12.211   2.448 -1.3445 -1.5221 -0.5218
  859MOL0     H18483   9.494  12.410   2.227  0.5626  1.2029  0.3597
  859MOL0     H18484   9.561  12.401   2.391  0.2655  3.8594  0.4266
  859MOL0     H18485   9.302  12.528   2.285  1.2174 -0.6164 -1.4343
  859MOL0     H18486   9.343  12.513   2.464 -3.2293 -0.1786 -0.7144
  859MOL0     H18487   9.492  12.646   2.241 -1.7676 -0.4444 -0.9304
  859MOL0     H18488   9.545  12.641   2.417  0.6100  1.1953 -0.7175
  859MOL0     H18489   9.386  12.840   2.272  1.6806  1.8244  1.8046
  859MOL0     H18490   9.276  12.747   2.365  0.1293  0.4011  1.5290
  859MOL0     H18491   9.574  12.994   2.399 -0.3611  0.3157  0.7733
  859MOL0     H18492   9.427  13.234   2.687  0.6707 -0.5925 -0.7125
  859MOL0     H18493   9.440  13.262   2.515  0.9787  1.9589  0.8226
  859MOL0     H18494   9.683  13.126   2.647  2.8592  1.1132 -0.2952
  859MOL0     H18495   9.675  13.242   2.507 -4.5591 -2.4326 -2.0471
  859MOL0     H18496   9.597  13.414   2.698  0.2747 -0.2939 -0.0598
  859MOL0     H18497   9.666  13.298   2.814 -0.6821 -0.9276  0.3934
  859MOL0     H18498   9.862  13.368   2.782  1.2073  0.5569 -1.5678
  859MOL0     H18499   9.854  13.333   2.609  2.7585  3.1438 -0.0207
  859MOL0     H18500   9.784  13.764   2.622 -0.3362 -0.7001  0.0617
  859MOL0     H18501   9.985  13.982   2.465 -1.3724 -1.9677 -0.8131
  859MOL0     H18502  10.003  14.024   2.634 -1.0075  1.0139 -1.0135
  859MOL0     H18503   9.851  13.978   2.574  0.0065  1.3859  0.6373
  859MOL0     H18504  10.441  13.847   2.679 -3.5843 -1.8390 -2.5325
  859MOL0     H18505  10.691  13.899   2.712  0.1156 -0.2315  0.2649
  859MOL0     H18506  10.919  13.739   2.642  2.5504 -2.5257  0.1927
  859MOL0     H18507  10.931  13.696   2.464 -0.9567  1.2417 -1.5463
  859MOL0     H18508  11.132  13.815   2.425  0.3923 -1.4713 -0.1729
  859MOL0     H18509  11.129  13.894   2.582  4.9348 -0.3182 -2.8859
  859MOL0     H18510  11.157  13.661   2.683 -1.6252 -0.8855  0.0833
  859MOL0     H18511  11.299  13.735   2.606  0.0657 -0.1153  0.0437
  859MOL0     H18512  11.162  13.566   2.406 -2.9667 -5.6147  0.5854
  859MOL0     H18513  11.141  13.494   2.561 -1.9419  0.8140 -0.0270
  859MOL0     H18514  11.345  13.426   2.430 -3.1107 -2.0051  2.9634
  859MOL0     H18515  11.407  13.588   2.448  2.2769 -0.7169  1.2090
  859MOL0     H18516  11.386  13.377   2.659  2.6461 -0.7836 -0.4366
  859MOL0     H18517  11.400  13.558   2.698  0.3467 -0.9999  1.9239
  859MOL0     H18518  11.589  13.443   2.732 -2.5117  0.6343  0.4687
  859MOL0     H18519  11.614  13.556   2.591  2.7256 -1.0966  0.5481
  859MOL0     H18520  11.561  13.347   2.449 -0.0074  1.8020 -0.4107
  859MOL0     H18521  11.609  13.248   2.588  3.5469 -0.4277 -0.2659
  859MOL0     H18522  10.750  13.839   2.297  0.7420 -1.0019  0.3194
  859MOL0     H18523  10.512  13.765   2.273 -0.9731 -2.1349  0.1295
  859MOL0     H18524  10.236  13.565   2.556 -0.9485 -1.6894 -0.2198
  859MOL0     H18525  10.057  13.420   2.587  1.7784  0.0778  0.3717
  859MOL0     H18526   9.479  11.696   2.390 -1.4581  0.6468 -1.0561
  859MOL0     H18527   9.554  11.486   2.356 -1.3893  2.3740  2.2269
  859MOL0     H18528  10.073  11.305   2.005  1.0010  0.9727  1.9516
  859MOL0     H18529  10.196  11.101   2.002  0.5926  0.8866  1.0074
  859MOL0     H18530  10.038  10.756   2.252  1.6954  1.5346 -0.3799
  859MOL0     H18531   9.946  10.745   2.102 -0.0387 -1.3347 -1.4263
  859MOL0     H18532  10.132  10.561   2.169  3.8679  1.4942  1.4505
  859MOL0     H18533  10.236  10.679   2.081  1.1714  0.1207  1.4605
  859MOL0     H18534   9.973  10.550   1.995  0.0923  0.7100  0.1109
  859MOL0     H18535  10.079  10.637   1.876 -2.0410 -0.0298  0.1174
  859MOL0     H18536  10.146  10.364   1.996 -2.6346  0.0699  1.2350
  859MOL0     H18537  10.262  10.470   1.906  0.4369 -2.8647 -1.5634
  859MOL0     H18538  10.061  10.299   1.602 -6.1296 -5.1726  2.2418
  859MOL0     H18539   9.855  10.938   2.233 -2.1179  0.2871 -2.0470
  859MOL0     H18540   9.703  11.217   2.307  2.0142 -1.4621  0.2861
  859MOL0     H18541   9.630  11.161   2.152 -0.2796 -2.0619 -0.5971
  859MOL0     H18542   9.678  11.048   2.282  1.1344  0.6471  1.3904
  860MOL0     O18543   2.593   3.127   5.345  1.3520  0.6657  0.1771
  860MOL0     C18544   2.471   3.093   5.364  0.2045 -0.2711  0.5642
  860MOL0     O18545   2.384   3.165   5.439 -0.2988 -0.7696  0.2953
  860MOL0     C18546   2.443   3.271   5.501 -0.4522  0.2638 -0.5042
  860MOL0     C18547   2.518   3.259   5.617  0.8989 -0.0235  0.6723
  860MOL0     C18548   2.576   3.353   5.689  0.3139  0.0762  0.7494
  860MOL0     C18549   2.550   3.486   5.649  0.2336 -1.2180 -0.1017
  860MOL0     O18550   2.609   3.596   5.709  0.3328  0.9998 -0.1243
  860MOL0     C18551   2.635   3.594   5.843 -0.1370  1.1599  0.0796
  860MOL0     C18552   2.793   3.603   5.870  0.5685  0.3599 -0.5151
  860MOL0     C18553   2.892   3.537   5.776  0.3467  0.1314  0.6329
  860MOL0     C18554   3.026   3.603   5.787  0.8672  0.6517  0.1837
  860MOL0     C18555   3.128   3.580   5.675  1.3791  0.4270 -0.2952
  860MOL0     C18556   3.147   3.435   5.631  0.1401  0.6738 -0.1589
  860MOL0     C18557   3.226   3.359   5.737 -0.8911 -0.1830  0.0089
  860MOL0     C18558   3.264   3.212   5.700 -0.3827 -0.8682  0.1514
  860MOL0     N18559   3.155   3.115   5.689  0.2389  0.4993 -0.6186
  860MOL0     C18560   3.021   3.137   5.723  0.9854 -0.7871  0.3375
  860MOL0     C18561   2.968   3.009   5.725  0.0438  0.6040  1.0280
  860MOL0     C18562   2.832   2.996   5.790  0.0150 -0.0584 -0.0666
  860MOL0     C18563   2.753   2.860   5.755 -0.7526  0.0714 -0.2258
  860MOL0     C18564   2.742   2.840   5.604  0.2037  0.1781 -0.4774
  860MOL0     C18565   2.819   2.715   5.558  0.5300 -0.2144  0.0912
  860MOL0     O18566   2.780   2.598   5.636 -0.0123 -0.0999  0.0004
  860MOL0     C18567   2.649   2.554   5.658 -0.2798  0.0248  0.2842
  860MOL0     C18568   2.623   2.485   5.773 -0.3886 -0.0285 -1.4145
  860MOL0     C18569   2.496   2.441   5.807  0.9503  0.3004 -0.0495
  860MOL0     C18570   2.471   2.347   5.925 -0.6430  1.0032 -0.1607
  860MOL0     C18571   2.385   2.463   5.717  0.3788  0.2654 -0.4054
  860MOL0     C18572   2.246   2.425   5.736 -0.0655  0.3895 -0.2732
  860MOL0     O18573   2.155   2.466   5.640 -1.1369  0.0448 -0.8516
  860MOL0     C18574   2.022   2.477   5.682  0.2750 -0.2919 -0.2919
  860MOL0     C18575   1.972   2.519   5.808 -0.2080 -0.5885  0.5633
  860MOL0     C18576   1.835   2.517   5.840 -0.1279  0.0361 -0.3442
  860MOL0     C18577   1.738   2.487   5.743  0.2493  0.1316 -0.0483
  860MOL0     O18578   1.606   2.507   5.761 -0.1150  0.9415 -0.6883
  860MOL0     C18579   1.542   2.420   5.854  0.0132  0.1222 -0.3441
  860MOL0     C18580   1.468   2.496   5.962 -0.2236 -0.0747 -0.2276
  860MOL0     C18581   1.350   2.588   5.908  0.9901  0.5409 -0.1932
  860MOL0     C18582   1.269   2.653   6.018  0.0833 -1.0520  1.1906
  860MOL0     C18583   1.187   2.764   5.948 -0.1842 -0.8954 -0.3169
  860MOL0     C18584   1.107   2.845   6.038 -0.2504 -0.4194  0.4721
  860MOL0     C18585   1.031   2.947   5.950 -0.3859  0.4238 -0.9350
  860MOL0     C18586   0.932   3.021   6.042 -0.1766 -0.1094 -0.4686
  860MOL0    Cl18587   0.816   2.905   6.124  0.0926 -0.2891  0.3598
  860MOL0     C18588   1.789   2.444   5.618 -0.4094  1.2819  0.4487
  860MOL0     C18589   1.926   2.449   5.581 -0.2107 -0.0620 -0.8374
  860MOL0     O18590   2.213   2.362   5.836 -0.0717  0.6221  0.2720
  860MOL0     C18591   2.415   2.548   5.606  0.9920 -0.2919 -0.5689
  860MOL0     C18592   2.541   2.586   5.570 -0.2463  0.0296 -0.1182
  860MOL0     N18593   3.066   2.912   5.691  0.9110 -0.8117 -0.2578
  860MOL0     N18594   3.171   2.978   5.671 -0.4023 -0.6645  0.6981
  860MOL0     C18595   2.470   3.508   5.535 -0.7437 -0.2702  0.5931
  860MOL0     C18596   2.416   3.400   5.459 -0.6663  0.7910  0.9202
  860MOL0     C18597   2.437   2.956   5.314 -1.0517  0.2727 -1.1897
  860MOL0     C18598   2.324   2.893   5.373 -0.1956 -0.3580  0.8279
  860MOL0     C18599   2.300   2.751   5.344 -0.1294  0.5676  0.8910
  860MOL0     C18600   2.371   2.676   5.261 -1.2078 -0.4757 -0.6892
  860MOL0     O18601   2.335   2.546   5.235  0.0717 -0.6754 -0.4079
  860MOL0     C18602   2.399   2.466   5.134 -0.3010  0.4163 -0.8621
  860MOL0     C18603   2.362   2.503   4.999 -0.2965 -0.3764 -0.2711
  860MOL0     C18604   2.216   2.482   4.966 -0.4372 -0.9395  0.8911
  860MOL0     C18605   2.214   2.355   4.882 -0.0109  0.0736 -0.7140
  860MOL0     C18606   2.255   2.232   4.938 -0.9079  1.5883  1.6287
  860MOL0     C18607   2.267   2.125   4.984  0.8046  0.4634 -0.3355
  860MOL0     C18608   2.481   2.746   5.206  0.5745  0.2758  0.3475
  860MOL0     C18609   2.515   2.880   5.224  0.6371 -0.4301 -0.2348
  860MOL0     C18610   2.625   2.936   5.139 -0.1543  0.3928  0.4399
  860MOL0     H18611   2.542   3.162   5.660 -0.3717  0.6370  3.0741
  860MOL0     H18612   2.651   3.332   5.765  1.9720 -1.1622 -1.1441
  860MOL0     H18613   2.598   3.507   5.896  2.6813  0.6089  1.3389
  860MOL0     H18614   2.577   3.671   5.894  2.2282  1.7882  2.0167
  860MOL0     H18615   2.799   3.712   5.865  0.8227  0.3317 -0.8208
  860MOL0     H18616   2.818   3.574   5.973 -0.7187 -0.4035 -0.3848
  860MOL0     H18617   2.890   3.428   5.787  1.8338 -0.0661 -0.6561
  860MOL0     H18618   2.862   3.562   5.673  0.9813  2.4415  0.9500
  860MOL0     H18619   3.010   3.710   5.804 -1.6557  0.3198  0.2631
  860MOL0     H18620   3.073   3.575   5.881 -0.5442 -2.1557  0.1494
  860MOL0     H18621   3.223   3.628   5.700  0.6004  1.4644  0.7527
  860MOL0     H18622   3.095   3.644   5.593  0.9061 -0.0926 -0.5168
  860MOL0     H18623   3.054   3.387   5.602 -0.7975  2.4785 -0.2799
  860MOL0     H18624   3.205   3.430   5.538 -0.6625 -2.3585 -0.5820
  860MOL0     H18625   3.163   3.364   5.826 -0.2684  3.0799  0.3999
  860MOL0     H18626   3.324   3.406   5.755 -1.0728  0.6871 -1.1080
  860MOL0     H18627   3.320   3.207   5.606  1.4647  2.7447  0.8722
  860MOL0     H18628   3.329   3.176   5.781  3.2603  1.1099 -1.6267
  860MOL0     H18629   2.983   3.236   5.745  0.3414 -0.0017 -3.5752
  860MOL0     H18630   2.770   3.079   5.754  1.1130  0.8969  0.1886
  860MOL0     H18631   2.822   2.987   5.898 -2.0153  0.3201 -0.1840
  860MOL0     H18632   2.802   2.781   5.813  2.6633  4.3657  3.5011
  860MOL0     H18633   2.654   2.881   5.796 -0.9048  2.3987 -1.5981
  860MOL0     H18634   2.641   2.834   5.564  0.9166 -0.8851 -2.2783
  860MOL0     H18635   2.794   2.930   5.569  3.0877 -0.3114  2.1256
  860MOL0     H18636   2.794   2.690   5.455  2.1512  0.3248 -0.4658
  860MOL0     H18637   2.925   2.736   5.576 -0.2864  1.8512  3.5289
  860MOL0     H18638   2.694   2.448   5.847 -2.7780 -1.6944  0.2140
  860MOL0     H18639   2.556   2.320   5.988 -1.0449 -1.5548 -0.6323
  860MOL0     H18640   2.422   2.256   5.891 -0.0070  0.8743 -0.7522
  860MOL0     H18641   2.406   2.398   5.997  0.2796  1.0211  0.6838
  860MOL0     H18642   2.040   2.549   5.888 -0.1867  1.1853 -0.0812
  860MOL0     H18643   1.799   2.551   5.936  1.8000 -0.4406  0.6037
  860MOL0     H18644   1.462   2.378   5.791  0.0454  3.4680 -2.9215
  860MOL0     H18645   1.613   2.354   5.904  0.4335  0.8712  0.0478
  860MOL0     H18646   1.425   2.419   6.026 -0.0191  2.8641  3.7901
  860MOL0     H18647   1.535   2.557   6.022 -0.1098  0.9251 -1.3247
  860MOL0     H18648   1.287   2.521   5.848  3.3421 -1.3745 -0.6819
  860MOL0     H18649   1.390   2.656   5.833 -2.1395 -0.0545 -2.6146
  860MOL0     H18650   1.341   2.691   6.091  0.2713  1.6467 -0.2586
  860MOL0     H18651   1.214   2.571   6.065 -1.8906 -1.0287 -0.8665
  860MOL0     H18652   1.259   2.841   5.919 -1.3878  0.9030  1.2750
  860MOL0     H18653   1.140   2.718   5.861  3.1980 -0.1512 -2.7414
  860MOL0     H18654   1.162   2.891   6.121 -0.5352 -0.5803  0.7512
  860MOL0     H18655   1.044   2.778   6.098  0.5036 -0.4724  1.2254
  860MOL0     H18656   0.973   2.885   5.881  2.6598 -4.7138  0.5642
  860MOL0     H18657   1.100   3.016   5.900 -0.9740  0.8885 -1.1180
  860MOL0     H18658   0.887   3.093   5.972  0.5167 -0.7213 -1.5852
  860MOL0     H18659   0.993   3.080   6.111  0.5003  0.1480 -1.2685
  860MOL0     H18660   1.725   2.406   5.539 -1.2719  3.9696 -0.2532
  860MOL0     H18661   1.962   2.418   5.483 -1.0288  1.2899 -1.6047
  860MOL0     H18662   2.326   2.575   5.549 -2.2896  1.6097  4.7257
  860MOL0     H18663   2.543   2.626   5.470 -3.0156  0.6364 -0.0182
  860MOL0     H18664   2.454   3.609   5.498 -0.4355 -0.8443 -1.1997
  860MOL0     H18665   2.350   3.420   5.375  1.8516 -1.4030 -1.7844
  860MOL0     H18666   2.251   2.940   5.437 -2.9068  0.1866 -2.3730
  860MOL0     H18667   2.222   2.696   5.397  0.5718 -0.1717  1.1792
  860MOL0     H18668   2.507   2.469   5.154 -0.8126  2.0276  2.1508
  860MOL0     H18669   2.379   2.359   5.142  2.3570 -0.0774  0.4464
  860MOL0     H18670   2.432   2.457   4.928 -0.9177  0.3096 -1.3528
  860MOL0     H18671   2.397   2.606   4.987  0.3970 -0.4231  1.2119
  860MOL0     H18672   2.155   2.489   5.057 -2.7339 -1.7155 -0.5251
  860MOL0     H18673   2.177   2.556   4.897  2.7576 -0.6723 -0.8221
  860MOL0     H18674   2.258   2.374   4.784  1.2280  0.1806 -0.1603
  860MOL0     H18675   2.107   2.340   4.873 -0.1750  0.3044  0.5589
  860MOL0     H18676   2.269   2.020   5.004  0.8607  0.3351 -0.9904
  860MOL0     H18677   2.532   2.684   5.133 -1.1966 -0.6607 -0.1428
  860MOL0     H18678   2.643   2.863   5.059  2.1150  1.7204 -0.3711
  860MOL0     H18679   2.598   3.039   5.113  0.9365  1.6680  3.7685
  860MOL0     H18680   2.716   2.936   5.199  0.1635 -1.7996  0.0311
  861MOL0     O18681   0.919   8.039  11.531  0.0082 -0.4425  0.2109
  861MOL0     C18682   0.979   8.026  11.427  0.4360 -0.4380  0.9864
  861MOL0     O18683   0.997   8.131  11.328  0.1313  0.5682  0.2550
  861MOL0     C18684   0.933   8.253  11.346  0.3764  0.5982 -0.9770
  861MOL0     C18685   0.950   8.323  11.466  0.2768  0.3822 -0.9763
  861MOL0     C18686   0.885   8.442  11.497 -0.7220  0.6395  1.8387
  861MOL0     C18687   0.827   8.511  11.396  0.1047  0.0939 -0.3316
  861MOL0     O18688   0.816   8.647  11.396  0.4882 -0.3908 -0.7005
  861MOL0     C18689   0.840   8.731  11.511  1.0979  1.6166 -0.0521
  861MOL0     C18690   0.797   8.877  11.486 -1.0964 -0.7616  0.6415
  861MOL0     C18691   0.824   8.974  11.601 -0.0992  0.2284  0.0833
  861MOL0     C18692   0.783   9.112  11.550 -0.7064 -0.4249 -0.0268
  861MOL0     C18693   0.778   9.202  11.670 -0.0894  1.0033  0.7172
  861MOL0     C18694   0.757   9.351  11.642 -0.4729  0.2164  0.0483
  861MOL0     C18695   0.733   9.427  11.773  0.1158 -0.1009 -0.0500
  861MOL0     C18696   0.722   9.579  11.754  0.1440  0.9071 -0.2407
  861MOL0     N18697   0.583   9.633  11.727 -0.4458  0.0114 -1.4057
  861MOL0     C18698   0.521   9.699  11.830 -0.5545  0.6958 -0.3535
  861MOL0     C18699   0.391   9.704  11.780 -0.0200  0.6481  0.1800
  861MOL0     C18700   0.280   9.763  11.871  1.0723 -1.0120 -0.4863
  861MOL0     C18701   0.135   9.777  11.818 -0.0909  0.1078 -0.1273
  861MOL0     C18702   0.128   9.867  11.693 -0.0053 -0.0835 -0.5630
  861MOL0     C18703   0.010   9.839  11.600 -0.5340 -1.2698 -1.1325
  861MOL0     O18704  -0.116   9.860  11.664  0.0702 -0.1857 -0.1232
  861MOL0     C18705  -0.149   9.995  11.672  0.1040  0.1874 -0.9351
  861MOL0     C18706  -0.209  10.062  11.562 -0.3245 -0.3105 -0.4326
  861MOL0     C18707  -0.238  10.204  11.573  0.4683 -0.6144 -0.0852
  861MOL0     C18708  -0.300  10.277  11.456 -0.0848  0.0953 -0.0863
  861MOL0     C18709  -0.212  10.271  11.694 -0.1521  0.5521  0.4797
  861MOL0     C18710  -0.251  10.413  11.716 -0.5773  0.9735 -0.4797
  861MOL0     O18711  -0.164  10.483  11.791 -0.1244  0.3490  0.0916
  861MOL0     C18712  -0.200  10.587  11.859 -0.1754 -0.7764 -0.1626
  861MOL0     C18713  -0.328  10.622  11.915 -0.6663 -0.3132  0.9734
  861MOL0     C18714  -0.347  10.737  11.984  0.9437  0.6814 -0.1867
  861MOL0     C18715  -0.248  10.827  12.004 -0.4122  0.2403  0.1409
  861MOL0     O18716  -0.268  10.954  12.060  0.1911  0.5110 -0.3076
  861MOL0     C18717  -0.184  10.980  12.175  0.0855 -0.5423 -0.1952
  861MOL0     C18718  -0.162  11.134  12.180 -0.0908  0.4043  0.3392
  861MOL0     C18719  -0.056  11.182  12.279  0.1509 -0.0634  0.1944
  861MOL0     C18720  -0.091  11.317  12.350 -0.2400  0.8818  0.3354
  861MOL0     C18721   0.038  11.349  12.430 -0.4380 -0.0031  0.3863
  861MOL0     C18722   0.003  11.433  12.551  0.0234 -0.2497 -0.3520
  861MOL0     C18723  -0.099  11.547  12.543 -0.7365  0.7825 -0.2413
  861MOL0     C18724  -0.201  11.524  12.649  0.6324 -0.5179  1.3156
  861MOL0    Cl18725  -0.147  11.514  12.820 -0.0875 -0.1022 -0.3191
  861MOL0     C18726  -0.121  10.784  11.973 -0.6932 -1.0375  0.2528
  861MOL0     C18727  -0.089  10.667  11.905  0.6779  0.1794  1.2040
  861MOL0     O18728  -0.349  10.454  11.662 -0.0787  0.3624  0.2190
  861MOL0     C18729  -0.156  10.198  11.800  0.8908  0.5759  0.2983
  861MOL0     C18730  -0.132  10.062  11.793 -0.6644 -0.7221 -0.1619
  861MOL0     N18731   0.384   9.635  11.665 -0.1405  0.3124  0.0359
  861MOL0     N18732   0.497   9.587  11.640  1.4459  0.4277 -0.5797
  861MOL0     C18733   0.800   8.444  11.275  0.4545 -0.6152 -0.0478
  861MOL0     C18734   0.855   8.316  11.250  0.3859 -0.0595 -0.2120
  861MOL0     C18735   1.028   7.885  11.392 -1.3201  0.0078  0.2441
  861MOL0     C18736   1.022   7.849  11.250  0.3605  0.6082  0.2726
  861MOL0     C18737   1.083   7.734  11.196 -0.0349  0.2901  0.4886
  861MOL0     C18738   1.142   7.651  11.294  0.3285  0.5816  1.0803
  861MOL0     O18739   1.197   7.536  11.242  0.3355 -0.8021  0.4480
  861MOL0     C18740   1.274   7.458  11.323  1.0926 -0.0709  0.3122
  861MOL0     C18741   1.319   7.339  11.239 -0.8333 -0.3196  0.1045
  861MOL0     C18742   1.420   7.380  11.127 -0.0272  0.7017  0.4051
  861MOL0     C18743   1.408   7.282  11.010 -0.1115 -0.5012  0.4494
  861MOL0     C18744   1.529   7.286  10.930  0.2914  0.2259 -0.3778
  861MOL0     C18745   1.624   7.275  10.854  0.5888 -0.2433 -0.4742
  861MOL0     C18746   1.135   7.679  11.430 -0.4900  0.2956  0.0935
  861MOL0     C18747   1.094   7.798  11.482  0.0289 -0.0771 -0.3103
  861MOL0     C18748   1.105   7.826  11.626 -0.3467 -0.4552  0.5747
  861MOL0     H18749   1.011   8.291  11.550 -0.7742  1.6881  0.3483
  861MOL0     H18750   0.911   8.492  11.589 -0.2088  1.4011  1.2930
  861MOL0     H18751   0.944   8.734  11.543  0.8233 -0.3024  1.1414
  861MOL0     H18752   0.777   8.691  11.591  0.9272  0.0076 -0.9547
  861MOL0     H18753   0.874   8.897  11.410  0.3892 -0.3441  2.1953
  861MOL0     H18754   0.696   8.895  11.450 -1.5453 -1.1581  1.6653
  861MOL0     H18755   0.765   8.944  11.689 -0.2920  0.6588  0.1060
  861MOL0     H18756   0.930   8.982  11.626 -0.2057 -0.1523  0.6726
  861MOL0     H18757   0.849   9.149  11.471 -0.8281  2.6399  1.1730
  861MOL0     H18758   0.683   9.105  11.505 -0.9319 -3.4199  0.7308
  861MOL0     H18759   0.867   9.174  11.727  0.0673 -1.9461 -0.7810
  861MOL0     H18760   0.700   9.161  11.735  0.1807 -3.9423 -1.5923
  861MOL0     H18761   0.843   9.396  11.591 -1.3327  0.9119 -0.8251
  861MOL0     H18762   0.667   9.353  11.579 -1.0107 -0.1423  0.7904
  861MOL0     H18763   0.821   9.401  11.833  0.2784  2.3999  0.9444
  861MOL0     H18764   0.641   9.387  11.815 -1.0864 -0.1593 -2.5289
  861MOL0     H18765   0.773   9.627  11.838 -0.8433  1.3734  0.1068
  861MOL0     H18766   0.776   9.592  11.659  0.2792  0.2220 -0.2648
  861MOL0     H18767   0.556   9.739  11.925  0.3060 -1.4808  0.2838
  861MOL0     H18768   0.312   9.863  11.905  0.1136 -0.6074 -0.7558
  861MOL0     H18769   0.264   9.694  11.954  1.7919 -1.4740 -0.7245
  861MOL0     H18770   0.102   9.676  11.790  1.0821 -0.2166 -0.3673
  861MOL0     H18771   0.070   9.812  11.898 -1.2830  1.4793 -1.6123
  861MOL0     H18772   0.115   9.973  11.718  0.9356 -0.3603  1.2842
  861MOL0     H18773   0.216   9.856  11.629  1.2758  1.2923  0.8568
  861MOL0     H18774   0.021   9.909  11.517  0.4950  4.1464  2.9640
  861MOL0     H18775   0.014   9.733  11.573  0.1073 -1.8618  1.0639
  861MOL0     H18776  -0.242  10.002  11.478  0.3857 -3.1028  1.1634
  861MOL0     H18777  -0.401  10.313  11.477 -0.3417  0.0386 -1.1405
  861MOL0     H18778  -0.294  10.206  11.373  1.3392 -0.8514  0.7835
  861MOL0     H18779  -0.234  10.360  11.427  0.3313 -0.1301  0.2193
  861MOL0     H18780  -0.399  10.541  11.900 -0.1661 -0.4532 -0.9311
  861MOL0     H18781  -0.437  10.760  12.040  0.8679  1.3335 -0.5680
  861MOL0     H18782  -0.237  10.952  12.267  1.6457 -2.2132  0.2537
  861MOL0     H18783  -0.093  10.920  12.170  2.0114  2.2556 -2.5384
  861MOL0     H18784  -0.116  11.180  12.092  0.4677  0.0712  0.4495
  861MOL0     H18785  -0.258  11.174  12.213  0.4461  0.7443  1.5394
  861MOL0     H18786   0.033  11.202  12.218 -0.2681 -0.7210 -0.6479
  861MOL0     H18787  -0.038  11.097  12.345 -1.1030 -0.8550 -0.4565
  861MOL0     H18788  -0.180  11.319  12.414 -0.6771  3.2852 -0.2527
  861MOL0     H18789  -0.113  11.392  12.273 -1.2704  1.5018  1.2096
  861MOL0     H18790   0.084  11.254  12.458 -0.2639 -0.4101 -1.2068
  861MOL0     H18791   0.122  11.392  12.374  0.1485  1.9796  2.5973
  861MOL0     H18792   0.097  11.473  12.592  0.4968  0.5758 -2.1240
  861MOL0     H18793  -0.030  11.352  12.617 -0.4519  2.3060  2.8520
  861MOL0     H18794  -0.153  11.535  12.448  2.3538 -2.3024 -1.8412
  861MOL0     H18795  -0.049  11.643  12.555  1.2756 -0.0394 -1.4733
  861MOL0     H18796  -0.249  11.431  12.615  3.3693 -0.7633 -2.6080
  861MOL0     H18797  -0.291  11.584  12.631  0.7009 -1.2135 -1.9822
  861MOL0     H18798  -0.034  10.849  11.977 -0.5176 -1.3298  2.1697
  861MOL0     H18799   0.012  10.642  11.874  1.3204  1.4831  2.1850
  861MOL0     H18800  -0.139  10.244  11.897 -0.5795  1.5909  0.1236
  861MOL0     H18801  -0.086  10.004  11.872 -1.8431 -1.6247 -0.0982
  861MOL0     H18802   0.768   8.507  11.192 -0.4464  0.0830  0.8099
  861MOL0     H18803   0.846   8.262  11.157 -1.5348 -1.6405  0.8152
  861MOL0     H18804   0.971   7.919  11.185  1.4530  1.1398 -0.0381
  861MOL0     H18805   1.082   7.707  11.091  3.5093 -1.6558  0.8204
  861MOL0     H18806   1.356   7.516  11.366  1.7815 -0.4248 -0.4918
  861MOL0     H18807   1.206   7.424  11.402 -0.9086 -1.3024 -1.8151
  861MOL0     H18808   1.229   7.292  11.198 -0.8113 -0.2802  0.0092
  861MOL0     H18809   1.382   7.273  11.300  0.0762  0.4302  0.0000
  861MOL0     H18810   1.391   7.478  11.090 -0.1350  0.4838 -0.0939
  861MOL0     H18811   1.520   7.397  11.167  0.1778 -3.5145  2.2128
  861MOL0     H18812   1.327   7.322  10.948 -0.1864  0.7336  1.2944
  861MOL0     H18813   1.386   7.180  11.041  1.7673 -1.0731 -0.0062
  861MOL0     H18814   1.713   7.256  10.798  0.7767  0.5880 -0.4815
  861MOL0     H18815   1.165   7.599  11.497  3.4745  0.1880 -1.5197
  861MOL0     H18816   1.004   7.849  11.660 -1.1040  0.7683 -2.1510
  861MOL0     H18817   1.163   7.750  11.679  4.2221  0.3056 -2.7282
  861MOL0     H18818   1.161   7.919  11.640  0.7449 -1.1710  1.0348
  862MOL0     O18819   8.195   3.202   5.855  0.3276  0.3406  0.2809
  862MOL0     C18820   8.117   3.268   5.790 -0.5578 -0.4839  0.0511
  862MOL0     O18821   8.085   3.393   5.817 -0.4439 -0.5196  0.2519
  862MOL0     C18822   8.163   3.487   5.890 -0.0782 -0.6541  0.8448
  862MOL0     C18823   8.100   3.609   5.920  0.0127 -0.5544 -0.7804
  862MOL0     C18824   8.166   3.709   5.994 -0.4738 -0.3258 -0.3142
  862MOL0     C18825   8.306   3.705   6.025 -1.0095  0.2450  0.6631
  862MOL0     O18826   8.376   3.802   6.091 -0.2407 -0.5663  0.4329
  862MOL0     C18827   8.294   3.904   6.159  0.2717 -0.5329 -0.1744
  862MOL0     C18828   8.362   3.992   6.268  1.1321 -0.6650  0.5368
  862MOL0     C18829   8.256   4.077   6.352  0.3192  0.4875  0.3256
  862MOL0     C18830   8.326   4.142   6.466  1.4653 -0.7976 -0.1816
  862MOL0     C18831   8.211   4.227   6.552 -0.5527  0.3056  0.4243
  862MOL0     C18832   8.106   4.131   6.613  0.3905 -0.1459  0.4229
  862MOL0     C18833   8.010   4.213   6.695  0.3559 -0.6948  0.5030
  862MOL0     C18834   7.909   4.291   6.616 -1.0182  0.7474 -0.6292
  862MOL0     N18835   7.803   4.346   6.705  0.5883  0.4620 -0.3007
  862MOL0     C18836   7.824   4.412   6.830 -0.3573  0.5219 -0.0329
  862MOL0     C18837   7.714   4.479   6.859 -0.2106  1.0407 -0.0311
  862MOL0     C18838   7.686   4.544   6.997  0.1125 -0.3305 -0.3519
  862MOL0     C18839   7.635   4.688   6.977 -0.7386  0.8904  0.2620
  862MOL0     C18840   7.605   4.766   7.105  0.4618  0.7212  0.1116
  862MOL0     C18841   7.717   4.784   7.205  0.1256 -0.3680  0.0844
  862MOL0     O18842   7.670   4.806   7.338  0.8311 -0.5486  0.3956
  862MOL0     C18843   7.653   4.699   7.420 -0.2662 -0.7110  0.8211
  862MOL0     C18844   7.710   4.574   7.400  0.4768  0.4449  1.5211
  862MOL0     C18845   7.695   4.469   7.492  0.7793  1.3388  0.8463
  862MOL0     C18846   7.764   4.339   7.465  0.3792 -0.3960 -0.5384
  862MOL0     C18847   7.618   4.486   7.609  0.0034  0.0463  1.0510
  862MOL0     C18848   7.588   4.373   7.690  0.0565  0.0698 -0.2647
  862MOL0     O18849   7.559   4.249   7.635 -0.0545  0.6293 -0.9997
  862MOL0     C18850   7.490   4.146   7.701  0.3337 -0.5967  0.0307
  862MOL0     C18851   7.383   4.086   7.643  0.0776  0.1977 -0.0251
  862MOL0     C18852   7.317   3.979   7.705  0.2300 -0.1270  0.9001
  862MOL0     C18853   7.355   3.938   7.830 -0.2010  0.3577 -0.8002
  862MOL0     O18854   7.267   3.846   7.889  0.8550  0.3761  0.6384
  862MOL0     C18855   7.307   3.799   8.019  0.5789  0.2831 -0.0692
  862MOL0     C18856   7.209   3.687   8.064  0.5990  0.1586  0.4563
  862MOL0     C18857   7.076   3.743   8.111  0.4438  0.7094 -0.1414
  862MOL0     C18858   6.990   3.649   8.194 -0.1859 -0.5398  0.2329
  862MOL0     C18859   6.971   3.507   8.146 -0.4296 -0.6433 -0.6697
  862MOL0     C18860   6.854   3.451   8.211 -0.3985 -0.6176 -0.5817
  862MOL0     C18861   6.726   3.520   8.154 -0.2670 -0.0026  0.0592
  862MOL0     C18862   6.613   3.480   8.237  0.3372 -0.7255 -0.2948
  862MOL0    Cl18863   6.546   3.325   8.194  0.1140 -0.4074 -0.3323
  862MOL0     C18864   7.485   3.990   7.883 -0.1125  0.3594  1.0679
  862MOL0     C18865   7.549   4.092   7.827 -0.3180 -0.8652  0.1888
  862MOL0     O18866   7.580   4.408   7.811  0.1046 -0.3684  0.1190
  862MOL0     C18867   7.558   4.612   7.620 -0.2616 -0.1203 -0.1125
  862MOL0     C18868   7.591   4.722   7.536 -0.0445 -0.5007  0.5840
  862MOL0     N18869   7.622   4.460   6.757  0.3650  0.4143  0.9575
  862MOL0     N18870   7.685   4.389   6.660  0.0347  0.1749  0.0648
  862MOL0     C18871   8.370   3.589   5.990  0.3427 -0.6083 -0.6642
  862MOL0     C18872   8.297   3.483   5.931  0.0228 -0.6214  0.6849
  862MOL0     C18873   8.056   3.217   5.669  0.1033  1.0040 -0.4412
  862MOL0     C18874   8.021   3.309   5.567  0.5511  0.6185  0.2664
  862MOL0     C18875   7.944   3.263   5.457  0.1727  1.2763  0.4395
  862MOL0     C18876   7.912   3.131   5.429  0.3040 -0.2091  0.0408
  862MOL0     O18877   7.836   3.103   5.318  0.1503 -0.1434  0.6654
  862MOL0     C18878   7.800   2.959   5.270 -0.1843  0.2279  0.0013
  862MOL0     C18879   7.825   2.931   5.120  0.1233 -0.9822 -0.9667
  862MOL0     C18880   7.708   2.996   5.048  0.2599  0.2364 -0.5441
  862MOL0     C18881   7.727   2.967   4.900  0.7127  0.6018 -0.2401
  862MOL0     C18882   7.703   2.833   4.859 -0.4041  0.6208 -0.1185
  862MOL0     C18883   7.675   2.715   4.832 -0.1195  0.5873 -0.4484
  862MOL0     C18884   7.953   3.038   5.521 -0.8124 -0.7644  0.4942
  862MOL0     C18885   8.028   3.075   5.635 -0.2640 -0.4764  0.8056
  862MOL0     C18886   8.062   2.969   5.732  0.6161  0.7718  0.0689
  862MOL0     H18887   7.994   3.609   5.894 -0.0138 -0.2781 -0.6729
  862MOL0     H18888   8.126   3.808   6.015  3.5141  1.4302 -0.0717
  862MOL0     H18889   8.212   3.849   6.207  0.4186  0.4295  1.2310
  862MOL0     H18890   8.247   3.973   6.088 -1.6640  0.2775  1.8017
  862MOL0     H18891   8.417   3.938   6.345  0.3063 -4.1787 -1.1384
  862MOL0     H18892   8.433   4.055   6.213 -1.0618 -1.1190 -3.1955
  862MOL0     H18893   8.199   4.149   6.291 -0.5391 -0.3862  0.0677
  862MOL0     H18894   8.186   4.007   6.398 -0.1789  0.3164 -0.6512
  862MOL0     H18895   8.372   4.066   6.529  0.2347 -1.8820 -0.5323
  862MOL0     H18896   8.402   4.213   6.432  0.8884 -0.3889 -0.6695
  862MOL0     H18897   8.161   4.299   6.487 -1.0759 -0.4280 -0.0052
  862MOL0     H18898   8.255   4.283   6.635 -1.7636 -0.3692  1.5505
  862MOL0     H18899   8.049   4.065   6.547  0.1819 -0.8568  1.2861
  862MOL0     H18900   8.154   4.058   6.680  1.8425 -1.1511 -1.6064
  862MOL0     H18901   8.059   4.277   6.768 -1.9981  1.0750  0.6231
  862MOL0     H18902   7.952   4.148   6.760 -0.3540 -0.8591 -0.2776
  862MOL0     H18903   7.942   4.378   6.559 -1.3263 -0.2153 -2.3623
  862MOL0     H18904   7.873   4.218   6.543  2.7704 -3.0245  0.9125
  862MOL0     H18905   7.913   4.398   6.891 -0.8702  1.3148  0.9278
  862MOL0     H18906   7.781   4.543   7.052 -0.1357  1.0192  0.1434
  862MOL0     H18907   7.612   4.490   7.056 -0.2984  1.9756  1.3534
  862MOL0     H18908   7.714   4.733   6.915 -1.0024 -1.2857 -1.7879
  862MOL0     H18909   7.544   4.685   6.917 -0.0974 -0.1431 -0.6871
  862MOL0     H18910   7.570   4.863   7.069  0.4475  0.7833  0.2941
  862MOL0     H18911   7.515   4.729   7.155 -2.2081  2.3112 -3.1130
  862MOL0     H18912   7.806   4.720   7.205  1.6965  1.6768 -0.7705
  862MOL0     H18913   7.760   4.881   7.178  1.8893 -1.3743 -0.9425
  862MOL0     H18914   7.769   4.559   7.310 -0.7793 -0.4457  0.8212
  862MOL0     H18915   7.682   4.285   7.416 -0.0190 -0.1544 -0.1446
  862MOL0     H18916   7.801   4.295   7.558  2.7160  0.0927 -1.1722
  862MOL0     H18917   7.850   4.352   7.399 -0.0514 -1.5819 -1.3616
  862MOL0     H18918   7.348   4.126   7.548 -2.2738 -0.9153  0.2963
  862MOL0     H18919   7.224   3.949   7.656  2.1102 -1.0608 -2.4175
  862MOL0     H18920   7.411   3.766   8.011 -0.0496 -2.3654  1.4396
  862MOL0     H18921   7.297   3.887   8.083 -2.4593  1.9530 -2.5686
  862MOL0     H18922   7.199   3.624   7.975  2.3607  1.7109 -0.9103
  862MOL0     H18923   7.265   3.633   8.141  0.5852  2.1195  1.9336
  862MOL0     H18924   7.024   3.780   8.022 -1.7479  1.1695  1.2837
  862MOL0     H18925   7.086   3.837   8.166  1.8654  1.4681 -1.6083
  862MOL0     H18926   6.896   3.703   8.206  0.2757 -0.3032  3.9286
  862MOL0     H18927   7.023   3.636   8.298 -1.2799  0.6383  0.7506
  862MOL0     H18928   6.946   3.516   8.040 -1.1557 -2.0705 -0.6456
  862MOL0     H18929   7.058   3.442   8.158 -0.2628 -0.8620 -2.6429
  862MOL0     H18930   6.856   3.464   8.319  0.0717 -1.1210 -0.5258
  862MOL0     H18931   6.852   3.346   8.180 -1.4277 -0.7701 -0.0398
  862MOL0     H18932   6.715   3.475   8.055 -0.2502  1.1274 -0.4767
  862MOL0     H18933   6.725   3.629   8.139 -1.1264  0.2723  1.8780
  862MOL0     H18934   6.527   3.547   8.223  0.0970 -1.3920 -2.2861
  862MOL0     H18935   6.645   3.480   8.342  0.8966  0.9379 -0.4340
  862MOL0     H18936   7.529   3.953   7.975 -3.1958 -0.8388  2.1871
  862MOL0     H18937   7.639   4.143   7.861  1.3613 -2.5399 -1.4434
  862MOL0     H18938   7.491   4.623   7.705 -2.0675 -2.6748 -1.0763
  862MOL0     H18939   7.553   4.822   7.556  1.1658 -0.2186  1.6152
  862MOL0     H18940   8.478   3.588   5.983  0.2831 -2.2583 -2.0023
  862MOL0     H18941   8.346   3.394   5.895  0.3934 -0.4066  0.6531
  862MOL0     H18942   8.043   3.415   5.566  1.1673  0.4886 -0.8774
  862MOL0     H18943   7.920   3.329   5.374  0.5964 -0.3620 -1.0362
  862MOL0     H18944   7.845   2.881   5.332 -0.8389 -0.2913 -0.1638
  862MOL0     H18945   7.693   2.939   5.281 -1.5077  3.6681 -3.8382
  862MOL0     H18946   7.820   2.824   5.101  0.1369 -1.0424 -0.6396
  862MOL0     H18947   7.925   2.969   5.101 -0.3648  1.0215  0.1131
  862MOL0     H18948   7.613   2.955   5.082  2.5144 -3.0054  2.6955
  862MOL0     H18949   7.719   3.102   5.070  1.7961  0.3801 -1.7792
  862MOL0     H18950   7.824   3.003   4.867  0.4512  1.7318  0.1713
  862MOL0     H18951   7.654   3.025   4.843  0.9445  3.2224  1.9289
  862MOL0     H18952   7.628   2.622   4.808 -0.5717  0.8949 -0.7697
  862MOL0     H18953   7.932   2.933   5.508 -1.7360 -0.6841  1.1586
  862MOL0     H18954   8.042   2.869   5.693 -0.3098  0.5754  1.0133
  862MOL0     H18955   8.170   2.975   5.750  1.1781 -3.4330 -0.8866
  862MOL0     H18956   8.004   2.979   5.824  0.2003 -1.6575  0.1320
  863MOL0     O18957   0.287   3.038   3.056 -0.4985  0.0327  0.4738
  863MOL0     C18958   0.199   3.101   3.104  0.7604 -1.1222  0.6199
  863MOL0     O18959   0.098   3.052   3.194 -0.2050 -0.7101 -1.0903
  863MOL0     C18960   0.117   2.930   3.254  1.0092 -0.6448  0.3324
  863MOL0     C18961   0.019   2.834   3.215  0.0742 -0.1708  0.2887
  863MOL0     C18962   0.002   2.710   3.285 -0.0726 -0.5084  0.0009
  863MOL0     C18963   0.089   2.690   3.393  0.0145  0.3976  1.1284
  863MOL0     O18964   0.065   2.564   3.450  0.3060 -0.5757 -0.5053
  863MOL0     C18965   0.126   2.546   3.580 -0.0463 -0.8349  0.2893
  863MOL0     C18966   0.250   2.471   3.582 -0.5940 -0.9821 -1.6873
  863MOL0     C18967   0.239   2.316   3.568 -0.3134 -0.0238  0.2418
  863MOL0     C18968   0.366   2.239   3.532 -0.0823  0.2187 -0.2361
  863MOL0     C18969   0.336   2.083   3.513 -0.7836 -0.4507  0.1746
  863MOL0     C18970   0.473   2.010   3.504  0.0760 -0.1355  0.4439
  863MOL0     C18971   0.540   1.980   3.649  0.0146  0.5623 -0.6807
  863MOL0     C18972   0.472   1.864   3.716  0.3013 -0.0083  0.1053
  863MOL0     N18973   0.534   1.852   3.852  0.6173 -0.5045 -0.1552
  863MOL0     C18974   0.454   1.835   3.963 -0.3870 -0.6725 -0.1642
  863MOL0     C18975   0.538   1.815   4.067  1.1862 -0.6700  0.0455
  863MOL0     C18976   0.490   1.838   4.207 -0.7928  0.3446 -0.2951
  863MOL0     C18977   0.510   1.988   4.236 -0.1377 -0.7348  0.4980
  863MOL0     C18978   0.433   2.025   4.363 -0.2227 -0.1974 -0.0454
  863MOL0     C18979   0.470   2.152   4.446 -1.4527  0.5181 -0.3166
  863MOL0     O18980   0.351   2.206   4.507  0.2605  0.4115 -0.3427
  863MOL0     C18981   0.344   2.341   4.509 -1.3386 -0.6899 -0.3401
  863MOL0     C18982   0.230   2.398   4.456  1.2695  0.8476 -0.2913
  863MOL0     C18983   0.205   2.537   4.455 -0.2965 -0.3386 -1.1872
  863MOL0     C18984   0.091   2.597   4.388 -0.3022  0.3256 -0.1411
  863MOL0     C18985   0.306   2.618   4.519  0.0762  0.2772  0.5320
  863MOL0     C18986   0.285   2.761   4.537 -0.2771 -0.1173  0.6128
  863MOL0     O18987   0.154   2.796   4.573  0.9402 -0.0545  0.4920
  863MOL0     C18988   0.132   2.929   4.600  0.6531 -0.0264  0.4143
  863MOL0     C18989   0.060   3.004   4.504  0.4323  0.2338  0.3081
  863MOL0     C18990   0.029   3.137   4.510  0.0328 -0.3254 -0.7133
  863MOL0     C18991   0.074   3.208   4.622  0.2572 -0.0514  0.3163
  863MOL0     O18992   0.022   3.337   4.635 -0.5515 -0.2454  0.6902
  863MOL0     C18993   0.063   3.410   4.750 -0.7845  0.2702 -0.0504
  863MOL0     C18994  -0.008   3.541   4.743  0.0604  0.4746  0.3680
  863MOL0     C18995  -0.158   3.513   4.768 -0.0056 -0.1465  0.1031
  863MOL0     C18996  -0.234   3.640   4.782 -0.4440  0.6883  0.2661
  863MOL0     C18997  -0.393   3.617   4.794 -0.0040  0.1382  0.1698
  863MOL0     C18998  -0.465   3.566   4.661 -0.0080 -0.5090 -1.3307
  863MOL0     C18999  -0.615   3.588   4.686 -0.3036 -0.2422  0.0866
  863MOL0     C19000  -0.689   3.625   4.555  0.3148 -0.3789 -0.0818
  863MOL0    Cl19001  -0.679   3.802   4.535  0.0671  0.1131 -0.4470
  863MOL0     C19002   0.140   3.138   4.720 -0.0531  0.3117 -0.2924
  863MOL0     C19003   0.167   2.999   4.717 -0.0089  0.3022 -0.5064
  863MOL0     O19004   0.381   2.828   4.540  0.4660 -0.0823 -0.5969
  863MOL0     C19005   0.424   2.557   4.575 -0.1149 -0.4663  0.3696
  863MOL0     C19006   0.443   2.423   4.562  0.5484  0.7954  0.2291
  863MOL0     N19007   0.662   1.793   4.015 -1.2119  0.0484  0.3962
  863MOL0     N19008   0.654   1.800   3.885  0.3284 -1.0242 -0.8258
  863MOL0     C19009   0.179   2.790   3.434  0.2199  0.0995  0.0673
  863MOL0     C19010   0.187   2.905   3.370  0.2433 -0.2572  1.5879
  863MOL0     C19011   0.179   3.249   3.056 -0.0794  0.6320 -0.2464
  863MOL0     C19012   0.060   3.313   3.103  0.4001  0.2182  0.0248
  863MOL0     C19013   0.035   3.447   3.066  0.2731 -1.1230  0.7253
  863MOL0     C19014   0.115   3.510   2.978 -0.3389  0.9597 -0.1485
  863MOL0     O19015   0.089   3.624   2.913 -0.0772 -0.5176 -0.6328
  863MOL0     C19016  -0.043   3.670   2.925  0.4978 -0.7762  0.8668
  863MOL0     C19017  -0.088   3.767   2.816  0.1297 -0.6340 -0.3294
  863MOL0     C19018  -0.087   3.707   2.678 -0.2033 -0.4718  0.4203
  863MOL0     C19019  -0.213   3.603   2.655  0.6363 -0.2559  0.2081
  863MOL0     C19020  -0.217   3.551   2.518  0.2878 -0.5077 -0.8276
  863MOL0     C19021  -0.204   3.496   2.414 -0.0768  0.3152  0.0650
  863MOL0     C19022   0.233   3.449   2.934 -0.0378 -1.1173 -0.0516
  863MOL0     C19023   0.271   3.320   2.972 -0.2057 -0.3555 -0.3858
  863MOL0     C19024   0.397   3.273   2.909  0.4903 -0.0689  0.0346
  863MOL0     H19025  -0.047   2.858   3.132  1.0534 -3.0876 -1.4667
  863MOL0     H19026  -0.068   2.630   3.261  0.4884 -1.8000  2.2830
  863MOL0     H19027   0.064   2.484   3.645 -0.1475 -0.7644  0.2607
  863MOL0     H19028   0.145   2.644   3.625 -0.2551  0.4253 -2.1786
  863MOL0     H19029   0.303   2.519   3.499  1.6688  1.6397  1.0234
  863MOL0     H19030   0.303   2.493   3.675 -0.9315 -0.5748 -1.5886
  863MOL0     H19031   0.188   2.262   3.649  0.9322 -2.4819 -0.5007
  863MOL0     H19032   0.170   2.283   3.490 -1.9209 -1.1202  2.0321
  863MOL0     H19033   0.419   2.286   3.448  0.9714 -1.3967 -0.5260
  863MOL0     H19034   0.431   2.254   3.619 -1.3225 -0.6165  0.8732
  863MOL0     H19035   0.291   2.068   3.415  1.4517  0.9895 -1.1606
  863MOL0     H19036   0.274   2.043   3.594 -1.8209  0.7473 -0.0059
  863MOL0     H19037   0.474   1.915   3.450  1.4165 -0.2739  0.6805
  863MOL0     H19038   0.529   2.083   3.444  0.1174  1.0010  1.7984
  863MOL0     H19039   0.535   2.071   3.709 -0.5755  0.9767 -1.3405
  863MOL0     H19040   0.643   1.949   3.624  0.1641  2.0755 -2.0863
  863MOL0     H19041   0.365   1.880   3.728  0.0909 -0.8979 -0.5524
  863MOL0     H19042   0.482   1.772   3.658 -1.0875  1.8762 -3.3865
  863MOL0     H19043   0.349   1.863   3.968  0.2200  2.4710 -2.0420
  863MOL0     H19044   0.530   1.758   4.270 -1.0693 -0.1751 -0.7680
  863MOL0     H19045   0.385   1.811   4.194 -0.9351  1.0881 -0.7480
  863MOL0     H19046   0.613   2.016   4.257 -2.0255  4.2272  5.6502
  863MOL0     H19047   0.471   2.047   4.152 -3.3000 -3.5221 -0.2189
  863MOL0     H19048   0.326   2.034   4.339 -1.3516  0.4399  4.3582
  863MOL0     H19049   0.429   1.939   4.431  2.8677  0.3295  0.9562
  863MOL0     H19050   0.534   2.130   4.532  0.2613  0.7648 -1.4850
  863MOL0     H19051   0.511   2.217   4.369 -1.0718  0.7280  0.0629
  863MOL0     H19052   0.151   2.337   4.414 -1.3308  4.1137 -0.5642
  863MOL0     H19053   0.120   2.690   4.339  2.2388  0.4992  1.5385
  863MOL0     H19054   0.008   2.623   4.454 -0.9493  0.0327 -0.8226
  863MOL0     H19055   0.052   2.520   4.320 -0.1704 -0.7317  0.9488
  863MOL0     H19056   0.022   2.955   4.415  0.6996  0.1047  0.2626
  863MOL0     H19057  -0.027   3.198   4.441 -2.2583 -0.8363  0.5996
  863MOL0     H19058   0.033   3.363   4.844  3.1239 -0.1552  1.1890
  863MOL0     H19059   0.172   3.405   4.759 -0.9252 -1.7703  1.4806
  863MOL0     H19060   0.025   3.613   4.818 -2.2948  0.1555  1.8045
  863MOL0     H19061   0.005   3.596   4.650 -0.3020 -1.6994 -1.0380
  863MOL0     H19062  -0.188   3.458   4.858  0.3994 -0.8571 -0.1891
  863MOL0     H19063  -0.205   3.456   4.687 -0.0178 -1.8554  1.2699
  863MOL0     H19064  -0.217   3.698   4.691  0.6734 -1.6512 -1.1076
  863MOL0     H19065  -0.199   3.687   4.875  2.4403  3.0024 -1.8217
  863MOL0     H19066  -0.418   3.554   4.880 -1.1879  0.2298 -0.0868
  863MOL0     H19067  -0.417   3.717   4.829 -1.3625 -0.8436  2.2591
  863MOL0     H19068  -0.443   3.461   4.640 -1.5022 -1.2502  0.5321
  863MOL0     H19069  -0.435   3.639   4.585 -0.9927  1.0045 -0.3161
  863MOL0     H19070  -0.635   3.671   4.755 -0.1536  1.3370 -1.6929
  863MOL0     H19071  -0.668   3.509   4.739 -1.5303 -0.5844 -1.5877
  863MOL0     H19072  -0.795   3.600   4.566  1.0821 -3.5987  1.1473
  863MOL0     H19073  -0.660   3.563   4.470  2.6416 -0.2033  0.5202
  863MOL0     H19074   0.178   3.189   4.808 -0.8199  0.5945 -0.1191
  863MOL0     H19075   0.219   2.945   4.796 -3.2807 -1.8327  0.4267
  863MOL0     H19076   0.499   2.619   4.623  1.4759 -4.5503  3.8036
  863MOL0     H19077   0.530   2.382   4.612 -0.1111  0.0527  0.7944
  863MOL0     H19078   0.245   2.784   3.520  1.9496 -2.4780 -1.2925
  863MOL0     H19079   0.264   2.976   3.400 -1.4134  1.3051  2.3694
  863MOL0     H19080  -0.010   3.260   3.166 -0.3274  0.4232 -0.6015
  863MOL0     H19081  -0.055   3.498   3.098  0.5092  0.5225 -1.0702
  863MOL0     H19082  -0.104   3.580   2.913  1.8844 -1.7391  0.7211
  863MOL0     H19083  -0.048   3.718   3.022 -0.8918  0.2946  0.2956
  863MOL0     H19084  -0.017   3.850   2.823 -1.2007  0.7304 -2.0275
  863MOL0     H19085  -0.191   3.802   2.829  0.7186  1.7169 -1.4838
  863MOL0     H19086  -0.099   3.793   2.612  1.8771 -1.1009 -0.8695
  863MOL0     H19087   0.008   3.657   2.656 -0.3216 -1.9287  2.8868
  863MOL0     H19088  -0.302   3.653   2.695 -0.0350 -1.9135  0.8508
  863MOL0     H19089  -0.200   3.521   2.726  1.0367  0.4357  0.9471
  863MOL0     H19090  -0.199   3.423   2.336 -0.1880 -0.4948  0.8065
  863MOL0     H19091   0.299   3.506   2.869  0.2374 -0.8161  0.4847
  863MOL0     H19092   0.460   3.208   2.971 -0.4872 -1.0691  0.0217
  863MOL0     H19093   0.364   3.221   2.818  1.2300  2.1709 -1.5947
  863MOL0     H19094   0.455   3.354   2.864  0.0749  0.5106  0.5228
  864MOL0     O19095   8.354   2.092   8.342  0.3064  0.4527 -0.5534
  864MOL0     C19096   8.324   2.200   8.281 -0.1802 -1.0230  0.0340
  864MOL0     O19097   8.250   2.301   8.338 -0.2169  0.0834  1.0678
  864MOL0     C19098   8.270   2.319   8.472 -0.0945  0.1003  0.2492
  864MOL0     C19099   8.202   2.235   8.562  0.4936  0.1416 -0.3134
  864MOL0     C19100   8.216   2.256   8.691 -0.5869  0.1867 -1.0242
  864MOL0     C19101   8.314   2.343   8.745 -0.5040 -0.0490  0.5346
  864MOL0     O19102   8.349   2.369   8.879  0.1514  0.3911  0.1985
  864MOL0     C19103   8.275   2.309   8.987 -0.7175  0.0869 -0.0394
  864MOL0     C19104   8.310   2.165   9.004 -0.3600  0.0412 -0.0312
  864MOL0     C19105   8.460   2.136   9.017 -0.4413 -0.1769  0.7110
  864MOL0     C19106   8.481   2.006   9.090 -0.3132  0.2059 -0.4258
  864MOL0     C19107   8.628   1.954   9.087  0.3242 -0.6125  0.9010
  864MOL0     C19108   8.723   2.016   9.187  0.1815 -0.6216 -0.1388
  864MOL0     C19109   8.695   2.008   9.342  0.0758  0.0847  0.1202
  864MOL0     C19110   8.665   1.862   9.402 -1.0735  0.0389  0.6969
  864MOL0     N19111   8.662   1.847   9.542  1.2593  0.0444  0.1682
  864MOL0     C19112   8.551   1.865   9.621 -0.0561  0.2742 -1.3852
  864MOL0     C19113   8.578   1.795   9.734  0.7969  0.2948 -0.8829
  864MOL0     C19114   8.479   1.779   9.857  0.6856  0.6186 -0.5677
  864MOL0     C19115   8.414   1.633   9.862 -0.0787 -0.2535  0.2512
  864MOL0     C19116   8.274   1.618   9.798  0.6666 -0.1619 -0.6387
  864MOL0     C19117   8.286   1.636   9.652 -0.0795  0.3779  0.4793
  864MOL0     O19118   8.347   1.518   9.607  0.3361 -0.3593 -0.1904
  864MOL0     C19119   8.406   1.501   9.487  0.8438 -0.2922  0.1238
  864MOL0     C19120   8.446   1.371   9.459 -0.1014 -0.0527 -0.8425
  864MOL0     C19121   8.513   1.339   9.344  0.0336 -1.2269 -0.5725
  864MOL0     C19122   8.548   1.190   9.321 -0.4379 -0.1646  0.3177
  864MOL0     C19123   8.535   1.441   9.249  0.8107  0.4194  0.1337
  864MOL0     C19124   8.597   1.419   9.107 -0.0618  0.4788  1.0745
  864MOL0     O19125   8.635   1.288   9.068  0.4888 -0.0075  0.6644
  864MOL0     C19126   8.643   1.274   8.927  0.2632 -0.9226 -0.2978
  864MOL0     C19127   8.538   1.318   8.836  0.1712  1.3103 -0.4964
  864MOL0     C19128   8.557   1.307   8.702 -0.8382  0.5044  0.1992
  864MOL0     C19129   8.680   1.258   8.656  0.4373 -0.0176 -0.6338
  864MOL0     O19130   8.694   1.271   8.518  0.9066 -0.2560 -0.2394
  864MOL0     C19131   8.699   1.406   8.462 -0.2191 -0.3763  0.4940
  864MOL0     C19132   8.793   1.490   8.543 -1.0957 -0.8249 -0.4472
  864MOL0     C19133   8.932   1.429   8.539 -0.8854 -0.8555  0.4420
  864MOL0     C19134   9.002   1.456   8.666 -0.4033  0.1631 -0.1407
  864MOL0     C19135   9.155   1.440   8.654 -0.7394  0.5464  1.1679
  864MOL0     C19136   9.206   1.489   8.784  0.2346  0.4098 -1.0054
  864MOL0     C19137   9.354   1.474   8.820 -0.3272  1.3362 -0.3710
  864MOL0     C19138   9.447   1.602   8.783  0.6446 -0.8635 -0.4878
  864MOL0    Cl19139   9.470   1.637   8.615  0.0424 -0.1710  0.0133
  864MOL0     C19140   8.778   1.201   8.737  0.3104  0.4740  0.4390
  864MOL0     C19141   8.759   1.216   8.879  0.4180  1.4097  1.0400
  864MOL0     O19142   8.614   1.522   9.041 -0.5095  0.0676 -0.8439
  864MOL0     C19143   8.494   1.572   9.280 -1.6167  0.9442 -0.0066
  864MOL0     C19144   8.432   1.601   9.396  0.3777  0.9753 -0.0811
  864MOL0     N19145   8.708   1.748   9.720 -0.2534  0.1904  0.2149
  864MOL0     N19146   8.757   1.780   9.606  0.9309 -0.1554 -0.3448
  864MOL0     C19147   8.405   2.411   8.662 -0.4419 -0.0732 -0.4857
  864MOL0     C19148   8.374   2.407   8.519 -0.2399  0.2377 -0.4075
  864MOL0     C19149   8.369   2.216   8.142  0.4373 -0.5919 -0.8245
  864MOL0     C19150   8.352   2.347   8.084 -1.3109 -0.3068 -0.2560
  864MOL0     C19151   8.400   2.378   7.962 -1.2293  0.3097  0.7197
  864MOL0     C19152   8.453   2.278   7.878  0.1565 -0.1361  0.2904
  864MOL0     O19153   8.516   2.303   7.764  0.9056  0.1573  0.7341
  864MOL0     C19154   8.430   2.330   7.655  0.1753 -0.4267  0.9673
  864MOL0     C19155   8.498   2.277   7.534 -0.0940  1.3819 -0.0655
  864MOL0     C19156   8.626   2.358   7.497 -0.3560  0.1553 -0.3274
  864MOL0     C19157   8.685   2.304   7.364  0.8692  0.4756  0.0910
  864MOL0     C19158   8.794   2.388   7.326  0.9013 -0.6336  0.0507
  864MOL0     C19159   8.893   2.443   7.287  0.0974  0.4833 -0.3785
  864MOL0     C19160   8.482   2.160   7.934 -0.8533  0.2163  0.4504
  864MOL0     C19161   8.432   2.122   8.060  1.0496 -1.2523 -0.3976
  864MOL0     C19162   8.471   1.987   8.114 -0.4510  0.9293 -0.1879
  864MOL0     H19163   8.122   2.172   8.527  1.6150 -3.5041  2.9389
  864MOL0     H19164   8.153   2.214   8.769  1.8302  0.6797  1.3719
  864MOL0     H19165   8.168   2.326   9.002 -0.2201  1.3306  2.7542
  864MOL0     H19166   8.319   2.364   9.071  1.2143 -0.7120 -0.4918
  864MOL0     H19167   8.262   2.134   9.097 -0.2976  0.2663  0.0767
  864MOL0     H19168   8.273   2.109   8.917 -0.3612 -2.1052  1.2762
  864MOL0     H19169   8.498   2.130   8.915 -2.1553 -1.6678  0.1123
  864MOL0     H19170   8.513   2.209   9.079  2.7344 -1.5899 -0.1214
  864MOL0     H19171   8.454   2.031   9.192  0.9178 -0.1687  0.0097
  864MOL0     H19172   8.414   1.927   9.053  0.8102  0.1590 -2.5658
  864MOL0     H19173   8.660   1.971   8.983 -0.0427  0.6592  0.9756
  864MOL0     H19174   8.640   1.848   9.108  3.1436 -0.3431  1.0681
  864MOL0     H19175   8.818   1.966   9.167  0.3056 -0.4066 -0.0836
  864MOL0     H19176   8.752   2.116   9.155  0.3917 -1.2956 -2.2236
  864MOL0     H19177   8.612   2.076   9.364 -0.9448 -1.3230  0.7801
  864MOL0     H19178   8.777   2.043   9.404  0.0035  2.6211 -1.0846
  864MOL0     H19179   8.571   1.831   9.354 -0.0511 -1.9435 -0.1104
  864MOL0     H19180   8.742   1.794   9.365 -0.6132  0.0676  1.5966
  864MOL0     H19181   8.467   1.926   9.589  0.8605  0.9947 -2.5305
  864MOL0     H19182   8.403   1.858   9.853  0.3325  0.3962  1.1624
  864MOL0     H19183   8.529   1.796   9.953  1.6002  0.3402 -0.9854
  864MOL0     H19184   8.479   1.560   9.812 -0.8264  0.8919 -2.5719
  864MOL0     H19185   8.401   1.617   9.970 -2.0237 -0.3275  0.0341
  864MOL0     H19186   8.229   1.521   9.820  1.8391 -0.1840  2.0330
  864MOL0     H19187   8.208   1.701   9.824  0.1097  0.2056 -3.0433
  864MOL0     H19188   8.197   1.660   9.594  0.6701 -1.1704 -1.4203
  864MOL0     H19189   8.352   1.721   9.630  0.3152  0.6647  2.5554
  864MOL0     H19190   8.422   1.297   9.536 -0.2077  1.1151  0.2845
  864MOL0     H19191   8.657   1.182   9.325 -0.2499  2.2565  1.0873
  864MOL0     H19192   8.524   1.161   9.218  0.3387  2.5347 -0.7078
  864MOL0     H19193   8.497   1.124   9.391  0.7050 -2.2263 -0.6881
  864MOL0     H19194   8.442   1.350   8.876  0.4939  1.7172 -0.0336
  864MOL0     H19195   8.483   1.335   8.628 -3.6518  1.2472  3.0730
  864MOL0     H19196   8.737   1.404   8.359  2.3222 -3.4960  1.3148
  864MOL0     H19197   8.593   1.430   8.450 -0.5261 -1.7161  0.3275
  864MOL0     H19198   8.798   1.594   8.510 -3.9924 -0.3898  0.1788
  864MOL0     H19199   8.766   1.484   8.649  1.2285 -3.1195  0.1256
  864MOL0     H19200   8.991   1.484   8.464  0.1695 -0.4731  1.5098
  864MOL0     H19201   8.941   1.323   8.516 -0.7603 -0.0002 -4.7853
  864MOL0     H19202   8.968   1.389   8.744  1.7336 -0.3440  0.4345
  864MOL0     H19203   8.986   1.558   8.701  0.1806  0.0661  0.4225
  864MOL0     H19204   9.174   1.332   8.643 -4.0715  0.0781 -1.8784
  864MOL0     H19205   9.190   1.493   8.565  0.0214 -0.8008  0.6227
  864MOL0     H19206   9.155   1.418   8.850 -1.2647  3.3497  1.3025
  864MOL0     H19207   9.177   1.588   8.822  2.0008  0.8841 -0.7979
  864MOL0     H19208   9.387   1.378   8.778  0.0046 -0.0245  2.6712
  864MOL0     H19209   9.368   1.464   8.928 -0.7429  0.4001 -0.3918
  864MOL0     H19210   9.544   1.590   8.831  0.5548  1.7520  0.5026
  864MOL0     H19211   9.412   1.692   8.834  2.2718 -0.1423 -0.5960
  864MOL0     H19212   8.869   1.169   8.686  1.0333  0.8057  1.4888
  864MOL0     H19213   8.835   1.172   8.943 -0.9472 -0.7965  1.2446
  864MOL0     H19214   8.496   1.661   9.219 -1.2628  2.9007  2.6768
  864MOL0     H19215   8.409   1.697   9.441 -2.2214  0.9209 -1.1205
  864MOL0     H19216   8.490   2.464   8.704  0.7084 -0.5201 -2.1503
  864MOL0     H19217   8.455   2.456   8.466  1.5646  0.9684  2.7340
  864MOL0     H19218   8.298   2.422   8.142 -0.9099 -1.1458  1.2709
  864MOL0     H19219   8.381   2.480   7.931 -2.1265 -0.0258  0.1234
  864MOL0     H19220   8.332   2.285   7.675  0.2238 -0.3814  1.3085
  864MOL0     H19221   8.418   2.438   7.644 -1.1360 -0.7173 -1.0793
  864MOL0     H19222   8.421   2.268   7.456 -2.7286 -2.2899  2.6222
  864MOL0     H19223   8.518   2.171   7.552 -1.7007  0.8800 -1.0339
  864MOL0     H19224   8.613   2.467   7.494 -1.7341 -0.0111 -2.5569
  864MOL0     H19225   8.705   2.341   7.571  1.0171 -2.6711 -2.2651
  864MOL0     H19226   8.598   2.303   7.297 -1.8671 -0.3336  3.3684
  864MOL0     H19227   8.715   2.199   7.377  1.4359  0.6416  0.1748
  864MOL0     H19228   8.974   2.505   7.255  0.6133  0.4816  0.8583
  864MOL0     H19229   8.530   2.081   7.878  1.7906  0.0047  2.7653
  864MOL0     H19230   8.542   1.947   8.042 -1.4030  1.9133 -1.7288
  864MOL0     H19231   8.535   2.006   8.201 -0.7774 -0.0659  0.2876
  864MOL0     H19232   8.383   1.922   8.119 -1.7022  2.4328 -1.5106
  865MOL0     O19233   8.970   3.748   6.164  0.2483  0.1948  0.9219
  865MOL0     C19234   8.978   3.627   6.154  0.4384 -0.2720 -0.3700
  865MOL0     O19235   8.892   3.534   6.217 -0.4995 -0.7096 -0.4441
  865MOL0     C19236   8.789   3.577   6.297  0.2970 -0.1383 -0.0741
  865MOL0     C19237   8.662   3.576   6.255  1.1803  0.8441 -0.0103
  865MOL0     C19238   8.557   3.601   6.349  0.5695 -0.3733  0.2111
  865MOL0     C19239   8.586   3.631   6.487  0.5203 -0.1031  0.4836
  865MOL0     O19240   8.500   3.671   6.583 -0.6852 -0.3553 -0.2223
  865MOL0     C19241   8.363   3.625   6.582  0.2235  0.4857 -0.2205
  865MOL0     C19242   8.287   3.715   6.683 -0.1825  0.2013 -0.0452
  865MOL0     C19243   8.348   3.695   6.831  0.0045 -0.5400  0.6437
  865MOL0     C19244   8.296   3.812   6.924  0.1563 -0.4413  0.1694
  865MOL0     C19245   8.145   3.796   6.935  0.1423 -0.2843 -0.4047
  865MOL0     C19246   8.091   3.920   7.012 -0.5922 -0.0518  0.7654
  865MOL0     C19247   7.942   3.947   6.989 -0.8985  1.2589  0.5495
  865MOL0     C19248   7.919   4.078   7.059 -0.0300 -0.2725  0.7372
  865MOL0     N19249   7.907   4.051   7.203  0.1958  0.8063  0.9266
  865MOL0     C19250   7.799   3.993   7.277 -0.8067 -0.3608  0.2376
  865MOL0     C19251   7.837   3.994   7.409  0.1487 -0.5006  0.5785
  865MOL0     C19252   7.742   3.978   7.522  0.6659  0.4428  0.2060
  865MOL0     C19253   7.724   3.821   7.549 -0.3306 -0.8884 -0.2872
  865MOL0     C19254   7.828   3.774   7.652  0.3096 -0.0085 -0.0372
  865MOL0     C19255   7.820   3.626   7.679  0.7303 -0.0400  0.0491
  865MOL0     O19256   7.694   3.595   7.727  0.2624  0.8146 -0.1826
  865MOL0     C19257   7.666   3.488   7.807  0.6580  0.4497  0.6061
  865MOL0     C19258   7.752   3.383   7.839 -0.0512  0.6740  0.2999
  865MOL0     C19259   7.713   3.295   7.945 -0.4710  0.0183  0.3024
  865MOL0     C19260   7.812   3.200   8.011  0.1090  0.2967 -0.1442
  865MOL0     C19261   7.581   3.297   7.999 -0.2042 -0.0407  0.2120
  865MOL0     C19262   7.533   3.199   8.100  0.5996  0.4392  0.1169
  865MOL0     O19263   7.402   3.144   8.089 -0.9126 -0.4451  0.6483
  865MOL0     C19264   7.352   3.063   8.189  0.0069 -0.5505 -0.5273
  865MOL0     C19265   7.337   2.932   8.161  0.1559  0.5689 -0.2933
  865MOL0     C19266   7.277   2.856   8.262  0.1238 -0.4239 -0.4944
  865MOL0     C19267   7.234   2.914   8.388  0.3449 -0.0363 -0.4789
  865MOL0     O19268   7.172   2.839   8.484 -0.0333 -0.2777  0.4579
  865MOL0     C19269   7.235   2.716   8.534 -0.7630  0.6171  0.7756
  865MOL0     C19270   7.372   2.751   8.583 -0.0720  0.2812 -0.7665
  865MOL0     C19271   7.458   2.637   8.648 -0.2646  0.1086  0.2559
  865MOL0     C19272   7.605   2.679   8.672  0.0536 -0.0879  0.7720
  865MOL0     C19273   7.705   2.583   8.611 -0.3885 -0.2214 -0.2875
  865MOL0     C19274   7.852   2.631   8.631 -0.5422 -0.4447  0.3827
  865MOL0     C19275   7.953   2.548   8.545  0.3459 -0.3339 -0.3038
  865MOL0     C19276   7.972   2.578   8.402  0.3666 -0.8319  0.0491
  865MOL0    Cl19277   7.960   2.755   8.374  0.3817  0.1729  0.1227
  865MOL0     C19278   7.246   3.050   8.411 -0.4137  0.0533  0.1683
  865MOL0     C19279   7.311   3.124   8.310 -0.9411 -0.1649 -0.9440
  865MOL0     O19280   7.605   3.178   8.198  0.7375 -0.0789  0.3890
  865MOL0     C19281   7.490   3.383   7.943 -1.6209 -0.1287 -0.1604
  865MOL0     C19282   7.531   3.486   7.852  0.3396  0.3421 -0.3927
  865MOL0     N19283   7.962   4.059   7.416  0.3907 -0.2559  0.0804
  865MOL0     N19284   7.999   4.096   7.296 -0.4659  0.1251 -0.4315
  865MOL0     C19285   8.717   3.645   6.517 -0.5187 -0.9150 -0.2023
  865MOL0     C19286   8.818   3.610   6.432  0.8704 -0.2942 -0.0638
  865MOL0     C19287   9.082   3.571   6.067  0.0266  0.1046  0.0535
  865MOL0     C19288   9.084   3.431   6.055  0.5129  0.3483  0.0892
  865MOL0     C19289   9.177   3.361   5.984  1.4352 -1.1825 -0.7088
  865MOL0     C19290   9.278   3.432   5.922  0.3588 -1.0513 -0.5350
  865MOL0     O19291   9.383   3.368   5.862 -0.7462 -0.4631  0.0556
  865MOL0     C19292   9.371   3.333   5.721  0.0205 -0.3698 -0.7192
  865MOL0     C19293   9.281   3.214   5.702 -0.5695  0.7740 -0.3514
  865MOL0     C19294   9.337   3.085   5.747 -0.7663  0.2961 -0.2138
  865MOL0     C19295   9.291   2.959   5.692 -0.2872 -0.0701  0.0044
  865MOL0     C19296   9.171   2.901   5.749 -0.1648  0.0866  0.0159
  865MOL0     C19297   9.059   2.856   5.787  0.8955 -0.3438  0.2625
  865MOL0     C19298   9.282   3.574   5.930 -0.1131 -0.0078 -0.0499
  865MOL0     C19299   9.181   3.640   5.992 -0.2096  0.1721  0.1348
  865MOL0     C19300   9.183   3.790   5.985 -0.2136 -0.4748 -0.3699
  865MOL0     H19301   8.633   3.529   6.162 -0.3414 -2.2920  1.8989
  865MOL0     H19302   8.453   3.618   6.322  0.0190 -0.8290  1.8989
  865MOL0     H19303   8.347   3.521   6.612  0.4443  0.4381 -0.2675
  865MOL0     H19304   8.323   3.650   6.483  2.0356  2.8193 -0.4729
  865MOL0     H19305   8.295   3.820   6.656 -1.0559  0.6188  1.1948
  865MOL0     H19306   8.179   3.704   6.674 -0.1289  0.8779 -1.9373
  865MOL0     H19307   8.323   3.599   6.877  1.5354 -0.1834  2.3569
  865MOL0     H19308   8.457   3.702   6.835  0.0159 -1.0320  1.3155
  865MOL0     H19309   8.326   3.805   7.029 -0.4239 -0.6306  0.3264
  865MOL0     H19310   8.322   3.910   6.884 -1.1526 -1.3232 -3.1372
  865MOL0     H19311   8.134   3.707   6.998 -1.8619 -0.0398 -0.3596
  865MOL0     H19312   8.085   3.761   6.851 -0.3615 -7.0700  2.1294
  865MOL0     H19313   8.108   3.903   7.119 -1.1376  0.0675  0.8743
  865MOL0     H19314   8.143   4.012   6.984 -1.0281  0.2165  0.8305
  865MOL0     H19315   7.885   3.860   7.024  3.1796 -2.7098 -1.5334
  865MOL0     H19316   7.912   3.950   6.884 -1.6877 -2.4093  0.5303
  865MOL0     H19317   8.005   4.145   7.048 -1.9106  2.4903  1.9581
  865MOL0     H19318   7.834   4.134   7.019  1.5405  0.8584 -1.1714
  865MOL0     H19319   7.710   3.964   7.222 -0.3891 -0.3630 -0.4424
  865MOL0     H19320   7.648   4.027   7.491  1.1577 -0.0951 -2.3717
  865MOL0     H19321   7.773   4.038   7.608 -0.4913  0.6672  0.4879
  865MOL0     H19322   7.629   3.782   7.588 -1.1173  0.2993 -0.9390
  865MOL0     H19323   7.744   3.768   7.455  0.1998 -1.2636  0.0354
  865MOL0     H19324   7.930   3.798   7.621  0.8290  1.8311  2.7578
  865MOL0     H19325   7.819   3.843   7.736  6.4554  1.0437  0.2181
  865MOL0     H19326   7.844   3.574   7.586 -0.3574  4.6561 -3.1958
  865MOL0     H19327   7.904   3.608   7.748  0.7450  2.1142  0.6627
  865MOL0     H19328   7.843   3.367   7.781  0.2152  5.0774 -0.8350
  865MOL0     H19329   7.843   3.232   8.111  0.9027 -2.3297  0.5326
  865MOL0     H19330   7.907   3.189   7.956  1.6373  4.0967  1.3786
  865MOL0     H19331   7.765   3.105   8.038  1.3117  0.8565  4.8868
  865MOL0     H19332   7.368   2.893   8.064  1.1454  0.8885 -0.1209
  865MOL0     H19333   7.260   2.752   8.234  1.1467 -0.9622  0.7607
  865MOL0     H19334   7.171   2.678   8.614  0.4719 -1.6067  0.7709
  865MOL0     H19335   7.241   2.645   8.451  1.5259  3.9322 -2.2088
  865MOL0     H19336   7.431   2.801   8.505 -0.4360 -0.9864 -1.8963
  865MOL0     H19337   7.347   2.817   8.666  0.4798 -1.2735  0.6814
  865MOL0     H19338   7.460   2.536   8.605  1.3762  0.7466 -1.2737
  865MOL0     H19339   7.414   2.624   8.747  1.1714 -2.3890  0.6676
  865MOL0     H19340   7.628   2.694   8.778 -1.2184 -1.0848  1.2205
  865MOL0     H19341   7.620   2.771   8.615 -2.5396  0.3764  0.6846
  865MOL0     H19342   7.699   2.482   8.652  1.6628 -1.2191 -2.1933
  865MOL0     H19343   7.698   2.574   8.502  0.1276  0.5643 -0.3930
  865MOL0     H19344   7.876   2.608   8.735  0.4560 -1.6556 -0.0962
  865MOL0     H19345   7.854   2.737   8.604 -1.4068 -0.6434 -0.4929
  865MOL0     H19346   7.966   2.442   8.572  4.3026 -0.0618 -0.5049
  865MOL0     H19347   8.049   2.589   8.579 -0.6062  1.5549  0.2425
  865MOL0     H19348   7.891   2.529   8.347  1.4651 -1.6420 -0.8934
  865MOL0     H19349   8.060   2.528   8.363  2.4969  3.8495 -1.9887
  865MOL0     H19350   7.228   3.099   8.506  0.6072  0.4703  0.1619
  865MOL0     H19351   7.340   3.228   8.320  1.8403 -0.9500  0.0894
  865MOL0     H19352   7.385   3.393   7.967 -1.4101  1.1592  0.2838
  865MOL0     H19353   7.458   3.564   7.831  0.6023  0.6362 -0.2209
  865MOL0     H19354   8.748   3.690   6.611 -1.2217 -0.2028 -0.2970
  865MOL0     H19355   8.922   3.625   6.459  0.5567 -1.2282  1.8871
  865MOL0     H19356   9.011   3.366   6.103 -0.7578 -0.0516 -2.2589
  865MOL0     H19357   9.166   3.253   5.979 -0.1585 -1.0890 -0.0284
  865MOL0     H19358   9.321   3.423   5.683 -1.1068 -0.4215  0.5514
  865MOL0     H19359   9.472   3.320   5.680  0.2501  0.0600 -0.2969
  865MOL0     H19360   9.246   3.211   5.598 -1.1998 -0.1260 -0.1225
  865MOL0     H19361   9.196   3.236   5.767 -0.8905 -2.3802  0.4158
  865MOL0     H19362   9.446   3.086   5.735 -0.4283 -3.7711  1.0352
  865MOL0     H19363   9.320   3.083   5.855 -1.7368  3.4902 -0.2106
  865MOL0     H19364   9.371   2.884   5.694 -0.1461 -0.0160 -1.7631
  865MOL0     H19365   9.262   2.970   5.587  0.8199 -0.6472 -0.3834
  865MOL0     H19366   8.969   2.806   5.817  0.2581  0.0463 -0.9603
  865MOL0     H19367   9.365   3.621   5.880  2.1314  0.5753  3.7939
  865MOL0     H19368   9.265   3.818   5.919  1.4407 -1.0788  1.3289
  865MOL0     H19369   9.085   3.815   5.942 -0.4642 -0.9012 -0.0615
  865MOL0     H19370   9.191   3.835   6.084 -3.1350 -1.8370  0.6117
  866MOL0     O19371  11.408   7.395  10.565  0.1588  0.0143  0.1159
  866MOL0     C19372  11.443   7.498  10.622  0.0285 -0.9501 -0.3528
  866MOL0     O19373  11.362   7.607  10.633 -0.6244 -0.1334  0.8308
  866MOL0     C19374  11.234   7.593  10.578 -0.1529 -0.0262 -0.2682
  866MOL0     C19375  11.178   7.696  10.506 -0.1074  0.5106 -0.4495
  866MOL0     C19376  11.043   7.688  10.465 -0.4979 -1.0261 -0.3663
  866MOL0     C19377  10.952   7.590  10.495 -0.0542 -0.2488 -0.9735
  866MOL0     O19378  10.826   7.596  10.446  0.5106 -0.0432 -0.0489
  866MOL0     C19379  10.729   7.498  10.483 -0.2832  0.3096  0.3773
  866MOL0     C19380  10.603   7.521  10.409 -0.5570  0.3245  0.3709
  866MOL0     C19381  10.562   7.669  10.419  0.2184 -0.2232  0.4159
  866MOL0     C19382  10.421   7.679  10.468  0.8286 -1.0141 -0.3353
  866MOL0     C19383  10.362   7.811  10.436  0.4428 -0.7894  0.0354
  866MOL0     C19384  10.218   7.825  10.467 -0.2542  0.6239  0.5974
  866MOL0     C19385  10.161   7.959  10.420 -0.1670 -0.3544  0.5891
  866MOL0     C19386  10.014   7.953  10.464  0.1654  0.3297 -0.1720
  866MOL0     N19387   9.940   8.068  10.418 -0.2070  0.1110 -0.7432
  866MOL0     C19388   9.984   8.196  10.445  0.7249 -0.8694 -0.0677
  866MOL0     C19389   9.887   8.272  10.389  0.2897  0.3121  0.0187
  866MOL0     C19390   9.868   8.423  10.418 -0.1575  0.4450  0.6495
  866MOL0     C19391   9.952   8.507  10.328 -0.4035  0.0690  0.2813
  866MOL0     C19392   9.931   8.658  10.362 -0.8242 -0.4069  0.5103
  866MOL0     C19393   9.964   8.688  10.517  0.5184 -0.1935  0.1496
  866MOL0     O19394   9.842   8.711  10.596 -0.3486 -0.4119 -0.3050
  866MOL0     C19395   9.807   8.842  10.637 -0.0222 -1.3919 -0.6974
  866MOL0     C19396   9.804   8.871  10.771  0.0634 -1.1101 -0.1011
  866MOL0     C19397   9.795   9.004  10.822  0.5537 -0.2785  1.2006
  866MOL0     C19398   9.818   9.038  10.963 -0.0312 -0.0156  0.2237
  866MOL0     C19399   9.805   9.103  10.724  0.9423  0.2101  0.3951
  866MOL0     C19400   9.802   9.242  10.764  1.4892 -0.8203  1.1010
  866MOL0     O19401   9.693   9.282  10.835  1.0263 -0.0256  0.1875
  866MOL0     C19402   9.663   9.413  10.825 -1.1905 -0.1793  0.7334
  866MOL0     C19403   9.568   9.454  10.726 -0.4141 -0.2620  0.3976
  866MOL0     C19404   9.542   9.580  10.695 -0.4406 -0.5779 -0.7525
  866MOL0     C19405   9.598   9.682  10.775 -0.3878 -1.4177 -0.9268
  866MOL0     O19406   9.601   9.817  10.747  0.4239  0.4920 -0.3367
  866MOL0     C19407   9.527   9.863  10.623 -0.2631 -1.6156  0.7405
  866MOL0     C19408   9.382   9.911  10.639  0.3700  0.1017  0.4073
  866MOL0     C19409   9.365  10.035  10.738  0.1377  0.0126 -0.6650
  866MOL0     C19410   9.364  10.010  10.894 -0.1917  1.1024 -0.9346
  866MOL0     C19411   9.328  10.128  10.979  0.1638  0.6664 -1.0039
  866MOL0     C19412   9.244  10.078  11.098 -0.2849  0.6842 -0.3746
  866MOL0     C19413   9.203  10.191  11.196  0.0411  0.1287  0.2417
  866MOL0     C19414   9.152  10.138  11.329  0.3191  0.6121  1.3607
  866MOL0    Cl19415   9.139  10.262  11.461 -0.1306 -0.5015  0.1349
  866MOL0     C19416   9.673   9.653  10.882 -0.3834  0.5785 -0.8705
  866MOL0     C19417   9.712   9.514  10.900  0.0815 -0.7290 -0.4647
  866MOL0     O19418   9.894   9.311  10.728 -0.4463  0.6046 -0.4913
  866MOL0     C19419   9.814   9.077  10.587 -0.0238  0.5222 -0.0915
  866MOL0     C19420   9.814   8.945  10.538  0.3847  0.1166  0.3641
  866MOL0     N19421   9.782   8.193  10.337 -0.4918  0.3280  0.7222
  866MOL0     N19422   9.820   8.074  10.351  0.6489  0.6136  1.0421
  866MOL0     C19423  11.008   7.487  10.578  0.0122 -1.0996  1.0882
  866MOL0     C19424  11.144   7.492  10.617  0.7311  0.2486 -0.1760
  866MOL0     C19425  11.581   7.509  10.679 -0.6405  0.7586  0.5390
  866MOL0     C19426  11.666   7.394  10.685 -0.6886  0.9822  0.1427
  866MOL0     C19427  11.782   7.394  10.750 -0.0971 -0.1064 -0.1383
  866MOL0     C19428  11.841   7.515  10.792  0.7108  0.5041  0.3214
  866MOL0     O19429  11.975   7.529  10.819 -0.3891 -0.2434 -0.3378
  866MOL0     C19430  12.063   7.419  10.848  0.4124  0.4362  0.3135
  866MOL0     C19431  12.122   7.360  10.718  0.0535  0.2697  0.2959
  866MOL0     C19432  12.245   7.437  10.661  0.1752 -0.4194  0.3006
  866MOL0     C19433  12.276   7.376  10.528  0.0738 -0.4041  0.1595
  866MOL0     C19434  12.328   7.238  10.538  0.2572 -1.4082  0.5553
  866MOL0     C19435  12.384   7.133  10.518 -0.2980 -0.7659  0.0655
  866MOL0     C19436  11.760   7.636  10.777 -0.6830  0.4584 -0.0263
  866MOL0     C19437  11.636   7.636  10.720  0.0006 -0.6404 -0.6102
  866MOL0     C19438  11.564   7.767  10.702  0.1104  0.4939 -0.0619
  866MOL0     H19439  11.233   7.787  10.482 -2.0559  1.7631 -0.3255
  866MOL0     H19440  11.003   7.776  10.416 -1.4748 -0.2942  1.6491
  866MOL0     H19441  10.706   7.527  10.586 -2.7574  1.3336 -0.3962
  866MOL0     H19442  10.769   7.396  10.471 -1.7621 -0.0844 -1.6447
  866MOL0     H19443  10.622   7.501  10.303 -0.7638  4.8062 -0.7221
  866MOL0     H19444  10.528   7.446  10.435  1.4612 -2.0441 -0.1497
  866MOL0     H19445  10.626   7.729  10.483  3.7717 -1.7087 -1.4719
  866MOL0     H19446  10.554   7.706  10.316 -1.3276  0.5474  0.7874
  866MOL0     H19447  10.360   7.607  10.411 -0.7555  0.0010  0.0195
  866MOL0     H19448  10.408   7.655  10.574 -1.6735  1.0556 -0.0584
  866MOL0     H19449  10.375   7.833  10.330 -0.8727 -0.4650 -0.0760
  866MOL0     H19450  10.416   7.884  10.498  2.1402  0.2646 -2.5286
  866MOL0     H19451  10.159   7.755  10.406 -1.2111 -0.6012  2.8253
  866MOL0     H19452  10.208   7.802  10.573 -2.4882  0.0676  0.3116
  866MOL0     H19453  10.167   7.977  10.312  1.9697 -0.2344  0.6921
  866MOL0     H19454  10.220   8.041  10.462 -0.0124  0.2719 -0.8078
  866MOL0     H19455   9.963   7.863  10.428 -1.8473  0.5521  1.8979
  866MOL0     H19456  10.007   7.943  10.573  0.8780 -5.7211 -0.3369
  866MOL0     H19457  10.074   8.221  10.500 -0.3299  2.2726  0.4169
  866MOL0     H19458   9.900   8.430  10.522 -0.7409 -2.1053  1.0731
  866MOL0     H19459   9.763   8.454  10.421 -0.3974 -0.4291  2.2349
  866MOL0     H19460  10.060   8.489  10.329  0.0029  2.1539  0.2831
  866MOL0     H19461   9.914   8.500  10.226 -0.8262  4.9622 -0.1374
  866MOL0     H19462   9.989   8.729  10.303 -0.9530  0.9124  1.8908
  866MOL0     H19463   9.824   8.676  10.346 -2.0315 -1.8576  5.1443
  866MOL0     H19464  10.032   8.609  10.551 -0.9493 -1.6335 -0.1076
  866MOL0     H19465  10.029   8.776  10.518  0.4055 -0.1022 -0.4309
  866MOL0     H19466   9.801   8.791  10.844  1.2155 -1.0056  0.0886
  866MOL0     H19467   9.852   8.950  11.019 -2.7345 -1.0087  0.4664
  866MOL0     H19468   9.721   9.059  11.008  0.0081 -0.4277  0.5110
  866MOL0     H19469   9.892   9.116  10.983 -1.3523  0.8505  2.0761
  866MOL0     H19470   9.524   9.378  10.662  0.3714 -0.4242  0.0280
  866MOL0     H19471   9.466   9.610  10.623  0.1978 -1.0577 -1.6492
  866MOL0     H19472   9.586   9.946  10.583 -2.9363  0.4453  0.7597
  866MOL0     H19473   9.514   9.785  10.549  1.3837  1.9194 -3.7565
  866MOL0     H19474   9.339   9.945  10.544 -0.2237  1.0110  0.9950
  866MOL0     H19475   9.327   9.819  10.663 -0.9701  0.4943 -0.9573
  866MOL0     H19476   9.266  10.070  10.710 -0.3688 -0.1183  0.8820
  866MOL0     H19477   9.430  10.117  10.708 -0.2256  0.9833  1.0891
  866MOL0     H19478   9.463   9.991  10.936 -0.1779 -2.1221 -2.1529
  866MOL0     H19479   9.308   9.919  10.918  1.5268  0.1492 -0.3315
  866MOL0     H19480   9.409  10.196  11.003 -1.0803  2.7416 -2.3957
  866MOL0     H19481   9.258  10.191  10.924 -2.4515  1.2575  2.5721
  866MOL0     H19482   9.318  10.017  11.152 -1.2931  0.5562  0.9063
  866MOL0     H19483   9.158  10.016  11.072  0.4136 -0.3134 -0.3350
  866MOL0     H19484   9.123  10.255  11.160 -1.5667 -1.8385  0.1104
  866MOL0     H19485   9.294  10.247  11.219  3.0664 -3.5026 -1.5479
  866MOL0     H19486   9.210  10.053  11.368  3.0848  1.0488 -1.4529
  866MOL0     H19487   9.055  10.099  11.298  0.4076  2.2316 -1.2098
  866MOL0     H19488   9.714   9.728  10.948  4.8005 -1.7037 -1.0014
  866MOL0     H19489   9.778   9.502  10.985  0.0177 -1.9377 -0.5788
  866MOL0     H19490   9.813   9.163  10.520 -1.1617 -2.2343 -4.0182
  866MOL0     H19491   9.827   8.924  10.432  4.1350  0.6539  0.5756
  866MOL0     H19492  10.948   7.405  10.616 -2.1371 -0.0401  0.1469
  866MOL0     H19493  11.176   7.421  10.693  0.8992  0.0977 -0.3850
  866MOL0     H19494  11.629   7.301  10.641  0.1715  1.5650 -1.8957
  866MOL0     H19495  11.837   7.301  10.741 -1.6741 -1.1861  0.8623
  866MOL0     H19496  12.148   7.469  10.894 -0.5720  2.2029  0.3118
  866MOL0     H19497  12.017   7.337  10.904  1.7887 -1.3230 -1.0224
  866MOL0     H19498  12.045   7.353  10.641 -0.4276 -3.5708  0.9491
  866MOL0     H19499  12.157   7.262  10.751  0.3759  0.2403 -0.1249
  866MOL0     H19500  12.224   7.544  10.650  2.2519 -0.1400 -1.5915
  866MOL0     H19501  12.331   7.430  10.728  1.0539  0.9601 -0.6247
  866MOL0     H19502  12.352   7.446  10.493 -0.6534  0.0395 -0.5672
  866MOL0     H19503  12.191   7.377  10.458 -0.8494 -1.0047  1.2294
  866MOL0     H19504  12.428   7.038  10.494  0.9270  0.1549 -1.5441
  866MOL0     H19505  11.814   7.727  10.804  0.2975  0.4699 -1.8084
  866MOL0     H19506  11.469   7.767  10.757  0.5359  0.7443  0.6952
  866MOL0     H19507  11.622   7.851  10.741  2.3471  1.8296 -5.4317
  866MOL0     H19508  11.540   7.783  10.596 -0.7236 -1.8004 -0.2806
  867MOL0     O19509   3.431  10.011   1.248 -0.4542 -0.5099 -0.3977
  867MOL0     C19510   3.431  10.074   1.355 -0.7593  0.2545 -0.1469
  867MOL0     O19511   3.408  10.019   1.479 -0.0203  0.8186 -0.2950
  867MOL0     C19512   3.385   9.883   1.486  0.2601 -0.1644 -0.3498
  867MOL0     C19513   3.304   9.804   1.401  0.7816  0.5200  0.3206
  867MOL0     C19514   3.284   9.668   1.424  0.3990 -0.1426  0.7959
  867MOL0     C19515   3.329   9.606   1.542  0.7233  0.8922  0.0890
  867MOL0     O19516   3.309   9.478   1.557 -0.6766 -0.4678  0.2305
  867MOL0     C19517   3.327   9.421   1.687  0.1378 -0.9416 -0.0209
  867MOL0     C19518   3.260   9.285   1.709 -0.3652  1.0851 -0.6893
  867MOL0     C19519   3.286   9.237   1.846 -0.2315  0.1757 -0.1183
  867MOL0     C19520   3.428   9.181   1.875  0.2494  0.4256  0.5347
  867MOL0     C19521   3.430   9.113   2.014 -0.5730  0.4157 -0.6745
  867MOL0     C19522   3.565   9.048   2.033  0.8590 -0.2947 -0.1150
  867MOL0     C19523   3.563   8.986   2.176  0.0448  0.8150 -1.1233
  867MOL0     C19524   3.683   8.892   2.227 -0.1673 -1.3310  0.2143
  867MOL0     N19525   3.813   8.968   2.223  0.3639  0.3305  0.3265
  867MOL0     C19526   3.927   8.908   2.151  1.0184 -0.3098 -0.6906
  867MOL0     C19527   4.032   8.979   2.199  0.7869  0.3563 -0.0527
  867MOL0     C19528   4.172   8.974   2.155 -0.0959 -0.1079 -1.0321
  867MOL0     C19529   4.264   8.945   2.270 -0.0331 -0.4886  0.0101
  867MOL0     C19530   4.409   8.938   2.216  0.0730 -0.0148 -0.1037
  867MOL0     C19531   4.472   9.075   2.255 -0.2473  0.9513  0.5398
  867MOL0     O19532   4.574   9.090   2.158  0.1007 -0.0451  0.2695
  867MOL0     C19533   4.706   9.039   2.188  0.4938 -0.1348  0.6134
  867MOL0     C19534   4.757   9.021   2.322  0.3736 -0.7845 -1.6782
  867MOL0     C19535   4.878   8.953   2.343  0.1506  0.4258 -0.2470
  867MOL0     C19536   4.932   8.935   2.480  0.5916 -0.4929  0.6079
  867MOL0     C19537   4.949   8.916   2.223 -0.8066 -0.2732 -0.3315
  867MOL0     C19538   5.093   8.852   2.220 -0.5144  0.2554 -0.0228
  867MOL0     O19539   5.146   8.802   2.109  0.1537  0.7457  0.1730
  867MOL0     C19540   5.170   8.663   2.124  0.0614 -0.3076 -0.1758
  867MOL0     C19541   5.269   8.608   2.047  0.1575 -0.2247 -0.2794
  867MOL0     C19542   5.295   8.471   2.044 -0.0867  0.0278  0.0422
  867MOL0     C19543   5.217   8.386   2.130 -0.2308 -0.8478  1.0178
  867MOL0     O19544   5.231   8.250   2.108  0.7560 -0.2348  0.1047
  867MOL0     C19545   5.122   8.161   2.132  0.1850 -0.4884 -0.2040
  867MOL0     C19546   5.167   8.017   2.092  0.5744 -0.1160 -1.1191
  867MOL0     C19547   5.066   7.924   2.161 -0.0515  0.2009 -0.5216
  867MOL0     C19548   5.114   7.774   2.154  0.4234 -0.7875  0.7291
  867MOL0     C19549   5.257   7.745   2.200  0.6960 -0.6664 -0.2515
  867MOL0     C19550   5.269   7.593   2.241 -0.3849  0.6581  0.6147
  867MOL0     C19551   5.421   7.571   2.248 -0.5127 -0.1896 -0.6245
  867MOL0     C19552   5.470   7.439   2.303  0.4109 -0.6035 -0.8201
  867MOL0    Cl19553   5.648   7.447   2.276  0.3601  0.0170 -0.0156
  867MOL0     C19554   5.107   8.443   2.206  0.1729  0.5910 -0.1795
  867MOL0     C19555   5.083   8.579   2.205  0.1071  0.4380  0.2849
  867MOL0     O19556   5.157   8.863   2.323  0.3575 -1.2021  0.3601
  867MOL0     C19557   4.898   8.938   2.096 -0.0964  0.5731 -0.0343
  867MOL0     C19558   4.776   9.001   2.073  1.2814 -0.2204  0.3426
  867MOL0     N19559   3.984   9.078   2.291 -1.2096 -0.0213  0.1046
  867MOL0     N19560   3.851   9.069   2.299  0.1635 -0.4404 -0.8416
  867MOL0     C19561   3.405   9.689   1.631  0.6426  0.1753  0.2443
  867MOL0     C19562   3.436   9.821   1.607 -0.9519  0.0811  0.5134
  867MOL0     C19563   3.465  10.219   1.350  0.1298  0.8718  0.0255
  867MOL0     C19564   3.431  10.291   1.238  0.2267  0.5262  0.3684
  867MOL0     C19565   3.467  10.426   1.231 -0.1034 -0.6374  0.6150
  867MOL0     C19566   3.517  10.499   1.338  0.1822  0.5530  0.8298
  867MOL0     O19567   3.521  10.633   1.331  0.4888 -0.8465  0.1776
  867MOL0     C19568   3.587  10.720   1.423  0.0753 -0.0528 -0.0509
  867MOL0     C19569   3.582  10.870   1.388 -0.2795 -0.2709  0.1887
  867MOL0     C19570   3.605  10.893   1.236  0.5427  0.2459 -0.4638
  867MOL0     C19571   3.644  11.041   1.196  0.0587  0.5861 -0.1935
  867MOL0     C19572   3.756  11.111   1.262  0.2005  0.9691 -0.0364
  867MOL0     C19573   3.847  11.155   1.330  0.1200 -0.4396 -0.0994
  867MOL0     C19574   3.544  10.432   1.457 -0.1544 -0.4488 -0.1403
  867MOL0     C19575   3.524  10.294   1.457 -1.1858 -0.2061  0.4316
  867MOL0     C19576   3.569  10.232   1.586 -0.4551  0.2301 -0.5690
  867MOL0     H19577   3.264   9.847   1.310  0.6013 -0.8184 -0.2512
  867MOL0     H19578   3.230   9.617   1.345  0.4464  0.8121  0.1318
  867MOL0     H19579   3.291   9.495   1.759 -0.3908 -0.4865 -0.7391
  867MOL0     H19580   3.436   9.412   1.693  0.1356 -2.3648 -1.2842
  867MOL0     H19581   3.152   9.293   1.696 -0.3407  1.4868 -0.6689
  867MOL0     H19582   3.303   9.219   1.633 -0.7945 -2.6682  2.0265
  867MOL0     H19583   3.264   9.314   1.921  0.0801  1.2013 -1.0589
  867MOL0     H19584   3.219   9.161   1.885  3.0872 -3.3081 -0.5937
  867MOL0     H19585   3.446   9.105   1.798 -2.1402 -0.9659  1.2326
  867MOL0     H19586   3.505   9.258   1.870  0.4427  0.4937  3.3748
  867MOL0     H19587   3.363   9.026   2.015 -1.5622  0.9370 -4.5584
  867MOL0     H19588   3.402   9.192   2.085 -1.3459  0.2954 -0.8311
  867MOL0     H19589   3.584   8.977   1.952  2.5352 -2.0420  1.7078
  867MOL0     H19590   3.647   9.121   2.030  1.3340 -0.6738  2.1869
  867MOL0     H19591   3.469   8.931   2.193  0.5288  0.2967 -0.0535
  867MOL0     H19592   3.560   9.078   2.235  1.0948 -0.0568  0.3647
  867MOL0     H19593   3.674   8.866   2.333 -0.0654  1.9007  1.1294
  867MOL0     H19594   3.681   8.795   2.176 -0.1609 -0.9414 -0.5526
  867MOL0     H19595   3.930   8.824   2.081 -1.5115  1.1247 -2.7183
  867MOL0     H19596   4.202   9.069   2.111 -0.6369  0.7068  0.3210
  867MOL0     H19597   4.184   8.896   2.078  2.3756  1.2757 -2.1969
  867MOL0     H19598   4.253   9.022   2.347 -2.4901 -0.1060 -0.6407
  867MOL0     H19599   4.233   8.846   2.305 -1.2039 -0.8313 -1.8338
  867MOL0     H19600   4.464   8.872   2.283 -0.2593 -1.6942 -1.4314
  867MOL0     H19601   4.418   8.917   2.109 -0.0375  0.2045 -0.1559
  867MOL0     H19602   4.402   9.155   2.227  0.6085  1.3116 -0.6759
  867MOL0     H19603   4.505   9.077   2.359 -2.6332  0.2500  1.3692
  867MOL0     H19604   4.720   9.071   2.411 -0.7698 -1.2156 -1.8933
  867MOL0     H19605   5.025   8.991   2.496  0.8749 -1.6728  3.8733
  867MOL0     H19606   4.956   8.828   2.489 -2.7067 -1.3415  0.5432
  867MOL0     H19607   4.862   8.974   2.554 -1.7429  1.4281 -2.4176
  867MOL0     H19608   5.320   8.671   1.975  1.1020 -0.1331  0.4414
  867MOL0     H19609   5.369   8.434   1.974  4.1517  2.3216  2.9029
  867MOL0     H19610   5.097   8.164   2.239  1.5209 -1.9554  0.1874
  867MOL0     H19611   5.035   8.195   2.075 -1.0597 -0.4136  1.6355
  867MOL0     H19612   5.165   8.021   1.983  1.5390 -0.2385 -1.1461
  867MOL0     H19613   5.266   7.990   2.130 -0.2378  0.1461  1.3695
  867MOL0     H19614   4.971   7.937   2.109  0.3111  2.8953 -0.6364
  867MOL0     H19615   5.056   7.954   2.266 -2.2623 -0.0155 -0.6323
  867MOL0     H19616   5.111   7.742   2.050  0.9440 -1.7997  1.0111
  867MOL0     H19617   5.053   7.700   2.207 -0.7864 -0.4296 -0.1353
  867MOL0     H19618   5.329   7.769   2.121  2.1552  4.4844  2.2155
  867MOL0     H19619   5.283   7.812   2.282 -1.9809  1.8305 -1.2528
  867MOL0     H19620   5.229   7.526   2.165 -2.4627  0.9724  1.3693
  867MOL0     H19621   5.218   7.561   2.332  0.9722 -3.5738  0.0937
  867MOL0     H19622   5.467   7.651   2.307 -2.5074 -0.0697  0.8591
  867MOL0     H19623   5.465   7.579   2.148 -1.1394  0.1897 -0.8749
  867MOL0     H19624   5.426   7.357   2.245  0.2333 -2.6205  1.9040
  867MOL0     H19625   5.439   7.417   2.406  0.1239 -1.1550 -1.0207
  867MOL0     H19626   5.058   8.379   2.278  5.5807 -0.4918  3.0651
  867MOL0     H19627   5.003   8.616   2.268 -0.0338  1.6393 -0.5644
  867MOL0     H19628   4.951   8.917   2.004 -4.0319 -1.5027 -2.0869
  867MOL0     H19629   4.749   9.029   1.971  3.5895 -2.9522 -1.1553
  867MOL0     H19630   3.447   9.657   1.725 -1.3728  0.4178  1.2868
  867MOL0     H19631   3.489   9.878   1.683 -1.2438 -0.7780  1.3789
  867MOL0     H19632   3.378  10.241   1.157  0.9457 -2.0188  1.3586
  867MOL0     H19633   3.455  10.483   1.140 -4.9359  1.2300  2.1031
  867MOL0     H19634   3.551  10.699   1.524  0.6421 -0.0306  0.1595
  867MOL0     H19635   3.690  10.685   1.416 -0.2469 -0.8360 -1.3562
  867MOL0     H19636   3.653  10.932   1.444  1.4872 -1.1967 -0.9296
  867MOL0     H19637   3.485  10.912   1.414  0.3668 -0.4420  3.2015
  867MOL0     H19638   3.678  10.827   1.188  1.2908  1.0938 -0.5225
  867MOL0     H19639   3.507  10.876   1.191 -0.9388  0.4747  2.4159
  867MOL0     H19640   3.557  11.105   1.210  0.7934  1.3994  0.7778
  867MOL0     H19641   3.671  11.044   1.090 -0.9418  2.2024 -0.4280
  867MOL0     H19642   3.924  11.178   1.400  0.0179 -1.6825  0.4459
  867MOL0     H19643   3.564  10.489   1.547  0.5913 -2.7656  1.2428
  867MOL0     H19644   3.637  10.302   1.636  0.6694  0.1964 -1.9863
  867MOL0     H19645   3.484  10.202   1.647  0.7503 -1.7221  0.2299
  867MOL0     H19646   3.627  10.140   1.575 -1.5185 -1.2721  4.0140
  868MOL0     O19647   5.362   2.565   6.244  0.3620  0.8058 -0.0493
  868MOL0     C19648   5.397   2.462   6.187  0.4451  0.0348  0.4811
  868MOL0     O19649   5.328   2.404   6.076  0.2609 -0.0533 -0.2394
  868MOL0     C19650   5.189   2.386   6.081 -1.7734  0.0115 -0.2932
  868MOL0     C19651   5.118   2.360   5.964  0.8806 -0.2148 -0.1503
  868MOL0     C19652   4.977   2.367   5.967 -0.0442  0.8422  0.7896
  868MOL0     C19653   4.909   2.385   6.086  0.5883  0.4937 -0.0971
  868MOL0     O19654   4.774   2.396   6.108 -0.1670 -0.5558 -0.4104
  868MOL0     C19655   4.686   2.410   5.995 -0.1636 -0.4096  0.2305
  868MOL0     C19656   4.545   2.361   6.036  0.9653  0.1903  0.0173
  868MOL0     C19657   4.431   2.389   5.938  0.4469 -0.9031  0.6075
  868MOL0     C19658   4.302   2.317   5.965 -0.6061 -0.2784 -0.0213
  868MOL0     C19659   4.197   2.340   5.845  0.6396 -0.1216 -1.1410
  868MOL0     C19660   4.069   2.271   5.886  0.5434 -0.4022  0.5670
  868MOL0     C19661   3.962   2.344   5.813  0.9717  0.1910 -0.1620
  868MOL0     C19662   3.818   2.268   5.833 -1.1191 -0.8142 -0.3303
  868MOL0     N19663   3.810   2.134   5.774  0.4451  0.5325 -0.3776
  868MOL0     C19664   3.741   2.096   5.662 -0.8456 -0.2264  0.1754
  868MOL0     C19665   3.753   1.962   5.652  0.1959  0.4424  0.5732
  868MOL0     C19666   3.712   1.888   5.531 -0.6953 -0.4550 -0.0248
  868MOL0     C19667   3.831   1.814   5.467  0.5750  0.6639 -0.1188
  868MOL0     C19668   3.804   1.787   5.313  0.8640  0.6097 -0.6336
  868MOL0     C19669   3.901   1.675   5.269  0.9618 -0.2834  1.0389
  868MOL0     O19670   4.017   1.730   5.209  0.4580 -0.2848 -0.2825
  868MOL0     C19671   4.112   1.643   5.198 -0.3753  0.0064  0.6998
  868MOL0     C19672   4.237   1.673   5.248  0.9980  0.4761 -0.1807
  868MOL0     C19673   4.349   1.597   5.229  0.3275 -0.6209  0.1720
  868MOL0     C19674   4.474   1.647   5.295  0.7082  0.3621  0.7742
  868MOL0     C19675   4.330   1.462   5.185 -0.6051 -0.8362  0.5025
  868MOL0     C19676   4.436   1.358   5.178  0.1805  0.2309  0.4203
  868MOL0     O19677   4.409   1.243   5.120 -0.5270 -0.0201  0.3314
  868MOL0     C19678   4.506   1.143   5.104  0.2102  0.3737  0.1622
  868MOL0     C19679   4.464   1.009   5.116  0.3866 -1.1318  0.5707
  868MOL0     C19680   4.552   0.906   5.094  0.3957 -0.6452 -0.3134
  868MOL0     C19681   4.692   0.940   5.072 -0.2459 -0.5138  0.5018
  868MOL0     O19682   4.798   0.857   5.065  0.2059 -0.5103 -0.2543
  868MOL0     C19683   4.774   0.717   5.054 -0.4619  0.4941  0.6353
  868MOL0     C19684   4.871   0.676   4.942 -0.1004  0.4656 -0.1230
  868MOL0     C19685   5.020   0.675   4.997 -0.1583  0.0510 -0.0175
  868MOL0     C19686   5.122   0.702   4.882 -0.4868  1.2694 -0.1223
  868MOL0     C19687   5.140   0.583   4.788  0.2721  0.2668 -0.1184
  868MOL0     C19688   5.222   0.619   4.660 -0.2385  0.3629  0.1207
  868MOL0     C19689   5.267   0.491   4.588  0.1724  0.3093  0.7275
  868MOL0     C19690   5.323   0.525   4.456  0.1323 -0.0627  0.6118
  868MOL0    Cl19691   5.196   0.565   4.335 -0.4567  0.2563 -0.0687
  868MOL0     C19692   4.733   1.072   5.045 -1.1714  0.4942  0.3490
  868MOL0     C19693   4.633   1.168   5.064  0.0747 -0.2917  0.7554
  868MOL0     O19694   4.542   1.384   5.230 -0.2749 -0.3423  0.2309
  868MOL0     C19695   4.204   1.435   5.120 -0.4084  0.5353  0.1470
  868MOL0     C19696   4.100   1.525   5.123  0.5843 -0.0693  0.3466
  868MOL0     N19697   3.822   1.918   5.760 -0.6166  0.1027  0.3299
  868MOL0     N19698   3.862   2.024   5.835  0.3815 -0.5806  0.1931
  868MOL0     C19699   4.978   2.391   6.202 -0.2515 -1.2004  0.6663
  868MOL0     C19700   5.115   2.402   6.195  0.0784  1.1252 -0.9064
  868MOL0     C19701   5.530   2.395   6.222  0.0142 -0.6850  0.7935
  868MOL0     C19702   5.537   2.258   6.260  0.1956  0.2186  0.8353
  868MOL0     C19703   5.658   2.200   6.294 -0.2099 -0.5545 -0.6571
  868MOL0     C19704   5.779   2.268   6.300  0.0398 -0.3836 -0.3175
  868MOL0     O19705   5.898   2.201   6.307 -0.8722 -0.2836 -0.1900
  868MOL0     C19706   5.961   2.149   6.192  0.0538  0.3236 -0.0003
  868MOL0     C19707   6.100   2.096   6.237 -0.3887 -0.3237  0.6620
  868MOL0     C19708   6.218   2.190   6.222  0.5482  0.3132 -0.2200
  868MOL0     C19709   6.353   2.136   6.255  0.3764 -0.4350 -0.0186
  868MOL0     C19710   6.449   2.239   6.234 -0.0282 -0.2072  0.6899
  868MOL0     C19711   6.520   2.332   6.205  0.2742  0.1230 -0.9501
  868MOL0     C19712   5.779   2.408   6.265 -0.2646  0.0080  0.0810
  868MOL0     C19713   5.652   2.463   6.227 -0.5267 -0.5206  0.4765
  868MOL0     C19714   5.657   2.613   6.213  0.2895 -0.1841 -0.6433
  868MOL0     H19715   5.176   2.371   5.873  3.7539  1.5954  1.7397
  868MOL0     H19716   4.930   2.336   5.874 -1.5726 -3.3451  2.7302
  868MOL0     H19717   4.721   2.360   5.904 -0.0343  3.6805 -2.2017
  868MOL0     H19718   4.661   2.512   5.964 -4.7445 -1.4339 -0.1838
  868MOL0     H19719   4.560   2.253   6.042 -0.2634  0.0870  2.9409
  868MOL0     H19720   4.519   2.394   6.137 -1.5408 -1.1241 -0.1111
  868MOL0     H19721   4.414   2.496   5.931  1.7222 -0.7384 -0.2893
  868MOL0     H19722   4.468   2.359   5.840 -0.9653 -0.2988 -0.1383
  868MOL0     H19723   4.314   2.208   5.971 -1.1921 -0.2534  3.1879
  868MOL0     H19724   4.259   2.351   6.059 -2.8748  0.8389 -1.3744
  868MOL0     H19725   4.247   2.300   5.757  0.6114  0.7847 -1.5802
  868MOL0     H19726   4.180   2.448   5.839  1.1383  0.4258  3.3952
  868MOL0     H19727   4.074   2.169   5.848  0.6010  0.4819 -2.0801
  868MOL0     H19728   4.055   2.280   5.994  1.9779  0.8715  0.6926
  868MOL0     H19729   3.983   2.344   5.706 -1.2962 -2.9145 -0.7547
  868MOL0     H19730   3.953   2.452   5.832 -1.6233  0.2008 -1.0339
  868MOL0     H19731   3.786   2.273   5.937 -1.6171  2.3911 -0.5449
  868MOL0     H19732   3.753   2.340   5.781  1.2402  1.3855 -0.4104
  868MOL0     H19733   3.700   2.162   5.586  2.5499  2.4112  0.3863
  868MOL0     H19734   3.682   1.957   5.452  0.7698  1.7451  1.2583
  868MOL0     H19735   3.630   1.824   5.564  0.3926 -2.0402 -0.2343
  868MOL0     H19736   3.929   1.863   5.478 -0.6255  2.7600  2.4038
  868MOL0     H19737   3.847   1.720   5.519  2.2973  0.5021 -0.8718
  868MOL0     H19738   3.700   1.756   5.301  0.2846  2.4375 -0.6511
  868MOL0     H19739   3.810   1.880   5.257  2.2734  0.9395  0.0321
  868MOL0     H19740   3.910   1.610   5.356  2.4994  1.6003  2.3600
  868MOL0     H19741   3.854   1.623   5.185  1.2315  1.8498 -0.5365
  868MOL0     H19742   4.243   1.768   5.301  0.2251 -1.0738  2.9599
  868MOL0     H19743   4.517   1.585   5.374  2.7302  1.9418  0.9737
  868MOL0     H19744   4.457   1.748   5.333 -3.3252  0.7774 -1.5308
  868MOL0     H19745   4.564   1.642   5.233 -0.3150 -0.3291 -0.7295
  868MOL0     H19746   4.362   0.989   5.147 -0.2423 -0.0687 -0.6813
  868MOL0     H19747   4.517   0.805   5.110  0.9088 -0.5790  1.3937
  868MOL0     H19748   4.782   0.665   5.150 -2.7083  0.4316  0.8450
  868MOL0     H19749   4.674   0.704   5.011 -0.3813 -1.1620  0.9036
  868MOL0     H19750   4.837   0.579   4.905  1.8532 -0.5305  0.5973
  868MOL0     H19751   4.869   0.749   4.860 -0.0068  0.8021  0.1734
  868MOL0     H19752   5.038   0.576   5.041 -1.4937 -1.3014 -2.2912
  868MOL0     H19753   5.018   0.751   5.075 -1.3760  0.9509 -0.8892
  868MOL0     H19754   5.223   0.708   4.924 -0.2580 -3.6480  0.7037
  868MOL0     H19755   5.110   0.792   4.822 -0.4254  1.6674  0.4588
  868MOL0     H19756   5.180   0.500   4.847 -3.0686 -0.8736  0.7393
  868MOL0     H19757   5.042   0.554   4.750  0.1668  0.7079 -0.1862
  868MOL0     H19758   5.303   0.686   4.690  1.3130 -0.2099 -2.4654
  868MOL0     H19759   5.155   0.681   4.599 -2.3874 -0.2702  1.7040
  868MOL0     H19760   5.183   0.423   4.574  0.5628  0.1196 -0.7648
  868MOL0     H19761   5.352   0.449   4.642  0.4238 -0.1405 -0.0145
  868MOL0     H19762   5.376   0.436   4.421  0.6837 -0.0660  1.4403
  868MOL0     H19763   5.400   0.601   4.470  0.4554 -0.1926 -0.4148
  868MOL0     H19764   4.832   1.099   5.011  0.0657  1.9425  4.5000
  868MOL0     H19765   4.656   1.271   5.041  2.2922 -0.8634  0.1680
  868MOL0     H19766   4.196   1.342   5.064  1.2755 -0.3507  1.2811
  868MOL0     H19767   4.001   1.514   5.080  1.2422 -2.5601 -0.6996
  868MOL0     H19768   4.922   2.378   6.295 -0.6391 -1.3807  0.4086
  868MOL0     H19769   5.168   2.409   6.290  3.3313 -1.1480 -2.3702
  868MOL0     H19770   5.444   2.204   6.276 -1.1313  2.1528  0.0027
  868MOL0     H19771   5.659   2.098   6.333 -0.2809 -0.5732 -0.7027
  868MOL0     H19772   5.898   2.062   6.168 -3.4006  3.1884 -2.4765
  868MOL0     H19773   5.955   2.209   6.100 -0.2273 -0.7787 -0.7275
  868MOL0     H19774   6.115   2.014   6.166 -1.0072 -1.8592  2.2389
  868MOL0     H19775   6.099   2.060   6.340  0.8185 -0.7875  0.5320
  868MOL0     H19776   6.216   2.225   6.118  1.8445 -1.3155 -0.8342
  868MOL0     H19777   6.202   2.278   6.286  1.1812  2.0584 -2.3183
  868MOL0     H19778   6.361   2.041   6.201 -0.7182 -0.3755 -0.2999
  868MOL0     H19779   6.352   2.121   6.363 -0.6396 -0.6526 -0.0561
  868MOL0     H19780   6.594   2.409   6.192 -1.0004  1.6024  0.1874
  868MOL0     H19781   5.880   2.446   6.265  1.3594 -3.8312  1.0647
  868MOL0     H19782   5.746   2.646   6.159  0.1654  0.8686 -0.2264
  868MOL0     H19783   5.576   2.657   6.154  0.3650  1.3461  0.3460
  868MOL0     H19784   5.651   2.661   6.311  2.6313  0.6873 -0.8640
  869MOL0     O19785   3.597   6.473   2.226 -0.7212  0.6759  0.9774
  869MOL0     C19786   3.493   6.529   2.210 -0.6175 -0.4422 -0.2611
  869MOL0     O19787   3.478   6.658   2.180  0.5776  0.1597  0.1826
  869MOL0     C19788   3.565   6.767   2.200  0.3829  0.5861  0.3504
  869MOL0     C19789   3.685   6.759   2.249 -0.0745  0.2512 -0.2971
  869MOL0     C19790   3.751   6.875   2.292  0.0933  0.1595  0.1333
  869MOL0     C19791   3.689   7.009   2.268 -0.5638 -0.4401 -0.5567
  869MOL0     O19792   3.754   7.125   2.306  0.0268  0.5417 -0.7925
  869MOL0     C19793   3.895   7.116   2.323 -0.3336  0.3096  1.1828
  869MOL0     C19794   3.963   7.242   2.360  0.9232 -0.7353  1.2914
  869MOL0     C19795   3.899   7.316   2.479 -0.0357 -0.0775 -0.1458
  869MOL0     C19796   3.976   7.445   2.505  1.0605  0.2937 -0.3120
  869MOL0     C19797   3.894   7.538   2.596 -0.1156 -0.4177 -0.1785
  869MOL0     C19798   3.791   7.632   2.525 -0.8068  0.9014  0.3422
  869MOL0     C19799   3.716   7.718   2.621 -0.2446 -0.6199  0.7059
  869MOL0     C19800   3.588   7.652   2.666 -0.5145 -0.4023 -0.3577
  869MOL0     N19801   3.514   7.727   2.767  0.0515  0.0099 -0.5612
  869MOL0     C19802   3.545   7.748   2.906 -0.5750  0.8739  0.5884
  869MOL0     C19803   3.433   7.809   2.953 -0.1184 -0.5995  0.1218
  869MOL0     C19804   3.421   7.880   3.084 -0.1349 -0.3976 -0.2499
  869MOL0     C19805   3.282   7.880   3.146 -0.4159 -0.0755 -0.0470
  869MOL0     C19806   3.304   7.933   3.294 -0.1679  0.3733 -0.1379
  869MOL0     C19807   3.164   7.948   3.354  0.7471 -0.9189 -0.5860
  869MOL0     O19808   3.177   7.989   3.489 -0.4606  0.5560 -0.3198
  869MOL0     C19809   3.061   7.959   3.561  1.1306  0.5241  0.0723
  869MOL0     C19810   2.929   7.955   3.512 -0.7916 -0.8020  1.0298
  869MOL0     C19811   2.812   7.961   3.588 -0.5068 -0.0199 -0.8591
  869MOL0     C19812   2.679   7.965   3.509 -0.0265  0.0936  0.2740
  869MOL0     C19813   2.826   7.939   3.725 -0.0820  0.8982  0.6607
  869MOL0     C19814   2.705   7.915   3.806 -0.4140 -0.1246 -0.3299
  869MOL0     O19815   2.582   7.941   3.762 -0.1889  0.0250 -0.5274
  869MOL0     C19816   2.477   7.898   3.845 -0.5278 -0.6511 -1.1320
  869MOL0     C19817   2.410   7.980   3.933  0.1831 -0.2951  0.4458
  869MOL0     C19818   2.295   7.937   3.988  0.7569  0.3927  0.4506
  869MOL0     C19819   2.233   7.817   3.958  0.5166  0.3145 -0.5481
  869MOL0     O19820   2.108   7.791   4.017  0.1141 -0.5072 -0.1796
  869MOL0     C19821   2.082   7.686   4.106 -0.2961 -0.3720 -0.1733
  869MOL0     C19822   2.147   7.721   4.243  0.0260  0.2763 -0.0085
  869MOL0     C19823   2.084   7.640   4.353 -0.0875 -0.8139  0.2266
  869MOL0     C19824   2.116   7.704   4.488  0.0073  0.0501 -0.1278
  869MOL0     C19825   1.999   7.724   4.587 -0.3173 -0.4959  0.2653
  869MOL0     C19826   1.945   7.874   4.590 -0.2999 -0.8219 -0.6658
  869MOL0     C19827   1.840   7.892   4.707  1.1498  0.2328 -0.6063
  869MOL0     C19828   1.831   8.042   4.737 -0.1701 -0.0975  0.3669
  869MOL0    Cl19829   1.676   8.075   4.826 -0.0771 -0.4146 -0.2467
  869MOL0     C19830   2.289   7.737   3.864  0.2935 -0.2546  0.0664
  869MOL0     C19831   2.415   7.777   3.806 -0.2221 -0.4323  0.5020
  869MOL0     O19832   2.732   7.863   3.909 -0.1658 -0.4226 -0.2361
  869MOL0     C19833   2.952   7.943   3.783  0.5952  0.1721  0.1504
  869MOL0     C19834   3.061   7.955   3.701 -0.1396  0.0116 -0.4554
  869MOL0     N19835   3.336   7.817   2.850 -0.4029  0.0373 -0.6215
  869MOL0     N19836   3.394   7.770   2.742  0.0706 -0.6686  0.7966
  869MOL0     C19837   3.567   7.013   2.201  0.1164  0.7309  0.9309
  869MOL0     C19838   3.505   6.894   2.177 -0.7510  0.1094 -0.4019
  869MOL0     C19839   3.382   6.427   2.202  0.0207  0.0529  1.1102
  869MOL0     C19840   3.370   6.327   2.299 -0.1759  1.1746 -1.0833
  869MOL0     C19841   3.258   6.242   2.309  0.8775 -0.3803 -0.8288
  869MOL0     C19842   3.159   6.258   2.208  0.6788 -1.1259  0.2798
  869MOL0     O19843   3.040   6.189   2.198  0.7645 -0.0048 -0.5140
  869MOL0     C19844   3.006   6.085   2.298  0.4413  0.0995  0.1189
  869MOL0     C19845   2.893   5.999   2.259  0.8832 -0.2389 -0.0333
  869MOL0     C19846   2.848   5.911   2.385  0.1524 -0.0198 -0.3686
  869MOL0     C19847   2.818   5.763   2.346  0.6355 -0.0660  0.6015
  869MOL0     C19848   2.775   5.688   2.463 -0.6221  0.8915 -0.8840
  869MOL0     C19849   2.734   5.620   2.558  1.1487  0.0493  0.2372
  869MOL0     C19850   3.173   6.356   2.106  0.1874 -0.7988  0.8377
  869MOL0     C19851   3.278   6.446   2.107 -0.4948  0.0963 -0.5225
  869MOL0     C19852   3.273   6.549   2.002  0.8886 -0.2657 -0.1590
  869MOL0     H19853   3.729   6.663   2.277  2.5678  1.8287  1.3684
  869MOL0     H19854   3.837   6.855   2.355  1.0687 -2.5352 -1.8501
  869MOL0     H19855   3.946   7.078   2.233 -2.5845  1.1657 -0.5554
  869MOL0     H19856   3.918   7.040   2.398 -1.4732 -1.3125 -0.0268
  869MOL0     H19857   4.069   7.225   2.378  0.8035  0.5117  3.5172
  869MOL0     H19858   3.966   7.309   2.274  1.0026 -1.8907  0.3548
  869MOL0     H19859   3.790   7.321   2.473 -0.0010 -0.9776 -4.3930
  869MOL0     H19860   3.918   7.262   2.573  0.8452  2.6033  1.3020
  869MOL0     H19861   4.074   7.423   2.549  0.6225  1.7759  1.5535
  869MOL0     H19862   3.988   7.497   2.409  0.1445 -0.2306 -0.7167
  869MOL0     H19863   3.968   7.599   2.648  0.0345  0.7545 -1.6850
  869MOL0     H19864   3.847   7.473   2.671 -0.1398  0.6681  0.7738
  869MOL0     H19865   3.849   7.684   2.448  1.4836 -0.7200  0.8752
  869MOL0     H19866   3.721   7.565   2.472  0.3264  1.3326 -1.8137
  869MOL0     H19867   3.693   7.816   2.578  0.2675 -1.3623 -1.3780
  869MOL0     H19868   3.776   7.758   2.703 -2.6556  0.9445  1.8403
  869MOL0     H19869   3.516   7.634   2.586 -0.0482  0.9091 -1.0957
  869MOL0     H19870   3.611   7.553   2.707 -0.4305 -1.5149 -2.8965
  869MOL0     H19871   3.629   7.712   2.965 -1.2294 -2.3089 -0.2273
  869MOL0     H19872   3.450   7.986   3.082 -4.2632  1.1208  3.5369
  869MOL0     H19873   3.501   7.837   3.145  2.3851  0.5844 -2.6172
  869MOL0     H19874   3.212   7.940   3.088 -1.6355 -0.6224  0.8105
  869MOL0     H19875   3.240   7.779   3.143 -1.4571  0.3543 -0.5209
  869MOL0     H19876   3.370   7.866   3.349  0.6502  0.7803 -0.6009
  869MOL0     H19877   3.350   8.032   3.296  3.7618 -1.2617 -0.8722
  869MOL0     H19878   3.105   8.027   3.306  1.1280  1.0435  1.9743
  869MOL0     H19879   3.105   7.856   3.349 -2.0275  0.8149 -1.6527
  869MOL0     H19880   2.929   7.968   3.404 -1.5575  2.7606  1.3481
  869MOL0     H19881   2.610   8.035   3.558  2.3355  3.3895 -0.7603
  869MOL0     H19882   2.629   7.868   3.507  1.5737 -0.8374  2.1496
  869MOL0     H19883   2.692   8.003   3.408  3.0015  0.7725  0.8271
  869MOL0     H19884   2.451   8.078   3.955 -1.5392 -0.2260  4.1475
  869MOL0     H19885   2.239   7.995   4.061  1.9020  1.7694  0.2846
  869MOL0     H19886   1.974   7.674   4.113 -0.4584 -1.7054 -3.2879
  869MOL0     H19887   2.118   7.589   4.071 -0.3241  0.5874 -3.0865
  869MOL0     H19888   2.251   7.686   4.234 -0.2190  0.1313 -3.3639
  869MOL0     H19889   2.148   7.829   4.257 -0.9937  0.2543  0.3017
  869MOL0     H19890   2.114   7.535   4.349  0.3600 -0.6848  0.1956
  869MOL0     H19891   1.975   7.649   4.340  0.2192  0.9245 -1.5899
  869MOL0     H19892   2.168   7.799   4.477 -1.0428  0.5003 -1.6827
  869MOL0     H19893   2.192   7.644   4.538 -0.7753  0.4224  1.6004
  869MOL0     H19894   1.917   7.653   4.573 -0.2509 -0.6202  0.4974
  869MOL0     H19895   2.037   7.691   4.684 -2.9386 -3.3465  0.4942
  869MOL0     H19896   1.887   7.885   4.498 -1.3726 -1.2400 -0.0628
  869MOL0     H19897   2.023   7.950   4.598 -0.2549 -0.8053 -1.1856
  869MOL0     H19898   1.878   7.847   4.799 -2.2676  0.9006  1.2683
  869MOL0     H19899   1.743   7.844   4.688 -0.3362  2.7521  0.1273
  869MOL0     H19900   1.828   8.096   4.641  0.8633  0.3189  0.5526
  869MOL0     H19901   1.909   8.087   4.799 -0.6761  1.4422 -0.0632
  869MOL0     H19902   2.239   7.645   3.835 -2.4432  0.1088  2.9827
  869MOL0     H19903   2.453   7.704   3.735 -0.2209 -1.3505  1.4112
  869MOL0     H19904   2.965   7.944   3.890 -1.9005  2.8747  0.5732
  869MOL0     H19905   3.151   7.964   3.760 -0.0918  0.3246 -0.5724
  869MOL0     H19906   3.513   7.098   2.160  0.4767  1.4433  1.9085
  869MOL0     H19907   3.409   6.896   2.128 -0.6274  3.7727 -0.7115
  869MOL0     H19908   3.437   6.322   2.384 -0.7595  0.2030 -0.6607
  869MOL0     H19909   3.256   6.188   2.403  3.1145  0.5317 -0.1950
  869MOL0     H19910   3.080   6.005   2.312 -0.5587 -1.0766 -0.9766
  869MOL0     H19911   2.989   6.130   2.396  1.7324  1.8794 -0.4267
  869MOL0     H19912   2.929   5.941   2.174  2.9807 -1.3626  1.5154
  869MOL0     H19913   2.807   6.058   2.226  0.6518  0.2665  1.3936
  869MOL0     H19914   2.928   5.911   2.459 -1.3086  0.3159  1.2969
  869MOL0     H19915   2.761   5.953   2.437 -0.5369 -1.3004 -0.4585
  869MOL0     H19916   2.912   5.719   2.311  0.1352 -1.6988  1.1924
  869MOL0     H19917   2.755   5.753   2.258 -0.1630 -5.6670  1.4462
  869MOL0     H19918   2.679   5.563   2.630  1.4189  1.3453  1.5363
  869MOL0     H19919   3.089   6.353   2.036 -1.5738 -0.2028  2.8105
  869MOL0     H19920   3.317   6.516   1.908  0.4472 -2.3266  0.2952
  869MOL0     H19921   3.171   6.577   1.974  1.5342  1.4743 -0.8814
  869MOL0     H19922   3.319   6.646   2.022  1.5922  0.0449 -2.9419
  870MOL0     O19923   2.427   9.158  11.342  0.8525 -0.1335 -0.8888
  870MOL0     C19924   2.427   9.176  11.463  0.0538  0.1648  0.3593
  870MOL0     O19925   2.411   9.082  11.556 -0.5088  0.0279  0.5024
  870MOL0     C19926   2.396   8.954  11.514 -0.3522  0.7258  0.1309
  870MOL0     C19927   2.501   8.867  11.486  0.0131  0.1868 -0.1721
  870MOL0     C19928   2.477   8.744  11.438  0.3535 -0.3189 -0.2848
  870MOL0     C19929   2.345   8.695  11.428 -0.0115 -0.0178 -0.0289
  870MOL0     O19930   2.311   8.581  11.364  1.2879 -0.0772  0.2084
  870MOL0     C19931   2.400   8.472  11.372 -0.1086  0.4043 -0.1966
  870MOL0     C19932   2.327   8.339  11.335 -0.1404 -0.3263 -0.1540
  870MOL0     C19933   2.430   8.232  11.286  0.5111  0.4662  0.2810
  870MOL0     C19934   2.366   8.093  11.280  0.6095 -0.5529 -0.9841
  870MOL0     C19935   2.458   8.004  11.207 -0.0928  0.6277 -0.0015
  870MOL0     C19936   2.585   7.973  11.285 -0.5077 -0.8396  0.0016
  870MOL0     C19937   2.662   7.848  11.241  0.3624  0.0975 -0.7113
  870MOL0     C19938   2.767   7.831  11.344 -0.5251 -0.1598  0.1130
  870MOL0     N19939   2.838   7.705  11.329 -0.0874 -0.2804 -0.7428
  870MOL0     C19940   2.904   7.666  11.206  0.7065  0.8784 -0.4515
  870MOL0     C19941   2.981   7.568  11.243 -0.8340  0.4575 -1.1053
  870MOL0     C19942   3.086   7.502  11.148 -0.0409  0.0350 -0.0962
  870MOL0     C19943   3.030   7.429  11.024  1.0643  0.3526 -0.7491
  870MOL0     C19944   3.141   7.351  10.972  0.0890 -0.0407 -0.5015
  870MOL0     C19945   3.100   7.248  10.870 -0.5276  1.4963  0.7508
  870MOL0     O19946   3.051   7.324  10.757 -0.6979 -0.3516  0.1991
  870MOL0     C19947   3.032   7.273  10.631  0.5723  0.9961 -0.8632
  870MOL0     C19948   2.991   7.350  10.529 -0.0165 -0.1650  0.1122
  870MOL0     C19949   2.970   7.306  10.393 -1.1077 -1.3892 -0.5700
  870MOL0     C19950   2.968   7.411  10.293 -0.1208 -1.3578 -0.0266
  870MOL0     C19951   2.990   7.167  10.355  0.8770 -0.7346 -1.2581
  870MOL0     C19952   2.955   7.102  10.227  0.4935  0.3903  0.3668
  870MOL0     O19953   2.998   6.978  10.213  0.6682 -0.3321  0.0403
  870MOL0     C19954   2.994   6.903  10.097 -0.0558  0.9843  0.2083
  870MOL0     C19955   3.112   6.880  10.026  0.3418 -0.4191 -0.6994
  870MOL0     C19956   3.107   6.817   9.901 -0.1086  0.7182  0.1050
  870MOL0     C19957   2.984   6.759   9.852 -0.2472 -0.5471  0.5172
  870MOL0     O19958   2.981   6.665   9.750  0.6684 -0.3767  0.4614
  870MOL0     C19959   2.908   6.716   9.632 -0.0321 -0.4850 -0.4838
  870MOL0     C19960   2.837   6.603   9.567 -1.2090  0.4906  0.7249
  870MOL0     C19961   2.761   6.640   9.438  0.4609  0.4634 -0.1694
  870MOL0     C19962   2.656   6.745   9.470  0.4551  0.5606 -0.3984
  870MOL0     C19963   2.583   6.807   9.344  0.4174  0.1821  0.4933
  870MOL0     C19964   2.469   6.716   9.299 -0.5951 -0.0677  0.5862
  870MOL0     C19965   2.395   6.795   9.185 -0.2210  0.8685 -0.2717
  870MOL0     C19966   2.285   6.713   9.135  0.1793  0.2477 -0.6500
  870MOL0    Cl19967   2.354   6.574   9.038 -0.6829 -0.5019  0.1261
  870MOL0     C19968   2.865   6.791   9.925  0.4020  0.1435  0.0215
  870MOL0     C19969   2.865   6.859  10.047 -0.6249  1.1148 -0.4132
  870MOL0     O19970   2.887   7.161  10.144 -0.5044 -0.3755  0.1212
  870MOL0     C19971   3.031   7.084  10.466  0.1615  0.0104  0.6215
  870MOL0     C19972   3.054   7.134  10.597  1.0841 -0.7418 -0.7277
  870MOL0     N19973   2.973   7.547  11.384  0.2914 -0.2334  1.0427
  870MOL0     N19974   2.882   7.626  11.436 -0.0781  0.4676  0.2309
  870MOL0     C19975   2.241   8.791  11.458 -0.6418 -0.0353  0.1349
  870MOL0     C19976   2.266   8.919  11.488  0.5427 -0.4054  0.4121
  870MOL0     C19977   2.442   9.313  11.498 -1.1021 -0.6626  0.4123
  870MOL0     C19978   2.343   9.377  11.579 -0.0866 -0.0798 -0.2258
  870MOL0     C19979   2.352   9.514  11.618 -0.5848  0.4216  0.2490
  870MOL0     C19980   2.461   9.594  11.571  0.5678 -0.2338  1.2471
  870MOL0     O19981   2.469   9.725  11.612 -0.7589  0.3792 -0.1063
  870MOL0     C19982   2.362   9.819  11.569 -0.0579  0.7022 -0.9809
  870MOL0     C19983   2.342   9.815  11.420  0.0039  0.4682 -0.2552
  870MOL0     C19984   2.461   9.856  11.332 -0.1186  0.5022 -0.2748
  870MOL0     C19985   2.404   9.874  11.181  0.7348  0.6996 -0.6247
  870MOL0     C19986   2.385  10.024  11.150  0.8833  0.2215  0.8700
  870MOL0     C19987   2.371  10.142  11.128  0.0242 -0.1559  0.1865
  870MOL0     C19988   2.548   9.532  11.478  0.1782  0.3869 -0.1982
  870MOL0     C19989   2.543   9.398  11.443 -0.4739 -0.1727 -0.0967
  870MOL0     C19990   2.635   9.335  11.334 -0.2930  0.2151 -0.0708
  870MOL0     H19991   2.599   8.909  11.506 -0.2785  0.2707  1.1685
  870MOL0     H19992   2.570   8.694  11.411  1.8139  1.6925  0.7933
  870MOL0     H19993   2.427   8.463  11.477 -1.7646  0.5302  0.2763
  870MOL0     H19994   2.490   8.479  11.311 -0.5702 -0.4440 -1.0077
  870MOL0     H19995   2.264   8.310  11.419 -0.7534  2.6791  0.5241
  870MOL0     H19996   2.255   8.357  11.254  3.1795 -0.0941 -3.2906
  870MOL0     H19997   2.482   8.261  11.194 -2.9864  4.4999 -0.7763
  870MOL0     H19998   2.506   8.232  11.365 -1.3512 -3.2750  2.3121
  870MOL0     H19999   2.324   8.054  11.372 -1.9945  1.9994 -0.9282
  870MOL0     H20000   2.276   8.095  11.217  0.1675  0.1720 -0.3550
  870MOL0     H20001   2.469   8.045  11.106 -1.0160  0.8311 -0.0268
  870MOL0     H20002   2.413   7.906  11.189 -0.1219  1.0091 -2.2437
  870MOL0     H20003   2.647   8.060  11.264 -1.2144  0.0559  1.4711
  870MOL0     H20004   2.565   7.967  11.392 -1.2721 -2.9528 -0.2206
  870MOL0     H20005   2.713   7.858  11.145  1.3642 -0.4693 -0.2575
  870MOL0     H20006   2.591   7.767  11.229  1.7531 -0.9271 -2.4670
  870MOL0     H20007   2.850   7.902  11.342  1.0094 -1.8617 -3.1793
  870MOL0     H20008   2.728   7.839  11.446  2.9623  3.1340  1.4411
  870MOL0     H20009   2.894   7.699  11.103 -1.0847  2.1354  0.0645
  870MOL0     H20010   3.154   7.444  11.211 -0.3646 -0.2142  0.0258
  870MOL0     H20011   3.138   7.588  11.104  0.9646  0.5667  1.9640
  870MOL0     H20012   2.950   7.365  11.063  0.0837  1.8247 -0.2613
  870MOL0     H20013   2.989   7.497  10.949  0.3966 -2.1717 -2.8072
  870MOL0     H20014   3.209   7.421  10.924 -1.6896  0.7454 -1.9914
  870MOL0     H20015   3.191   7.304  11.058 -4.1724  2.5416  3.9179
  870MOL0     H20016   3.184   7.186  10.836  0.5654  5.5009 -5.3022
  870MOL0     H20017   3.021   7.187  10.914  0.3433  0.9996  1.6955
  870MOL0     H20018   2.994   7.456  10.552 -1.3366 -0.4836  2.0562
  870MOL0     H20019   2.868   7.419  10.250 -0.9794  3.5732  2.2045
  870MOL0     H20020   3.048   7.402  10.219 -0.3875 -0.1538 -0.4932
  870MOL0     H20021   2.969   7.511  10.336 -2.3615 -0.9873 -0.7055
  870MOL0     H20022   3.201   6.925  10.069  0.8465 -1.1755 -0.9354
  870MOL0     H20023   3.203   6.808   9.852  1.2642 -0.9827  2.8634
  870MOL0     H20024   2.835   6.791   9.665  1.1782  0.7636 -0.5417
  870MOL0     H20025   2.985   6.762   9.569  3.4700 -3.6782  1.0355
  870MOL0     H20026   2.901   6.520   9.535 -2.4609 -0.3378  0.3072
  870MOL0     H20027   2.769   6.558   9.640 -1.2001 -1.5304 -0.4428
  870MOL0     H20028   2.713   6.551   9.398 -1.0240  0.4795  1.4641
  870MOL0     H20029   2.840   6.680   9.374  0.5151  0.2257 -0.2511
  870MOL0     H20030   2.707   6.828   9.520  2.0887 -1.5178  1.5768
  870MOL0     H20031   2.591   6.691   9.540  0.5033 -1.5738 -1.9091
  870MOL0     H20032   2.543   6.905   9.371  3.2464  1.5412  0.0830
  870MOL0     H20033   2.654   6.825   9.263  0.3716 -0.9687  0.1744
  870MOL0     H20034   2.403   6.689   9.383  1.1816  1.1250  2.4764
  870MOL0     H20035   2.509   6.620   9.266 -1.3298  0.5936 -2.5287
  870MOL0     H20036   2.469   6.806   9.105  0.4679  1.4596  0.4348
  870MOL0     H20037   2.361   6.896   9.208 -0.4803  0.6153  0.4825
  870MOL0     H20038   2.214   6.779   9.084 -1.3239 -0.2845  0.6769
  870MOL0     H20039   2.227   6.681   9.221 -0.8408  1.8510 -0.6986
  870MOL0     H20040   2.772   6.740   9.901 -1.6478  2.0249  3.2733
  870MOL0     H20041   2.778   6.873  10.111 -0.1632  0.7159  0.3025
  870MOL0     H20042   3.053   6.980  10.448  0.0404  0.3306 -1.6080
  870MOL0     H20043   3.071   7.058  10.672  1.7146  1.2806  1.2760
  870MOL0     H20044   2.139   8.765  11.430  0.3920 -3.0346 -1.3739
  870MOL0     H20045   2.185   8.987  11.514 -0.9858 -2.0502  0.1025
  870MOL0     H20046   2.268   9.312  11.623 -1.5806  1.3512 -0.5662
  870MOL0     H20047   2.274   9.556  11.681 -3.1947 -0.2371 -2.3412
  870MOL0     H20048   2.272   9.783  11.620  0.8091 -0.1239  0.0279
  870MOL0     H20049   2.376   9.925  11.592  2.7461  0.7477 -2.5146
  870MOL0     H20050   2.255   9.875  11.395  0.0696  1.3473  1.4673
  870MOL0     H20051   2.306   9.718  11.383  1.3574  0.6101 -2.0568
  870MOL0     H20052   2.505   9.944  11.379 -2.9357  1.4140  0.8344
  870MOL0     H20053   2.534   9.774  11.333 -0.9516 -0.3405 -2.4467
  870MOL0     H20054   2.307   9.827  11.164 -0.3877  2.4011  0.6883
  870MOL0     H20055   2.478   9.825  11.117 -1.3917  2.1013 -4.4906
  870MOL0     H20056   2.354  10.245  11.102  2.0248 -0.0117 -0.7002
  870MOL0     H20057   2.634   9.588  11.440  1.5678 -0.5800  1.3773
  870MOL0     H20058   2.702   9.413  11.298 -2.2958  0.9516 -2.5379
  870MOL0     H20059   2.694   9.251  11.371 -1.0397 -1.0052 -1.5127
  870MOL0     H20060   2.590   9.307  11.238 -1.6604 -0.8877  0.8559
  871MOL0     O20061   4.842   6.676   0.387 -0.9949  0.1243  0.4668
  871MOL0     C20062   4.899   6.586   0.457  0.3784  0.5194  0.2592
  871MOL0     O20063   4.904   6.583   0.592 -0.9310  1.3791  0.1473
  871MOL0     C20064   4.834   6.686   0.659  0.5564 -0.4970  0.8572
  871MOL0     C20065   4.697   6.711   0.629 -0.7718 -0.0226 -0.3065
  871MOL0     C20066   4.641   6.818   0.704  0.1762 -0.3031 -0.0543
  871MOL0     C20067   4.713   6.902   0.796  0.0749  0.8175 -0.9188
  871MOL0     O20068   4.675   7.006   0.869  0.4769 -0.7807  0.0784
  871MOL0     C20069   4.586   7.095   0.806 -0.3500 -0.6472 -0.1462
  871MOL0     C20070   4.612   7.231   0.867 -1.1888 -0.1431  0.3223
  871MOL0     C20071   4.488   7.314   0.876  0.6765  0.4129 -0.1692
  871MOL0     C20072   4.519   7.462   0.917 -0.2704  0.8668 -0.4447
  871MOL0     C20073   4.397   7.546   0.909  0.6238  0.6388 -0.3215
  871MOL0     C20074   4.427   7.695   0.931  0.6470  0.1368  0.2442
  871MOL0     C20075   4.512   7.727   1.050  0.0421 -0.3458 -0.4254
  871MOL0     C20076   4.546   7.874   1.053  0.4877  0.1985  0.1150
  871MOL0     N20077   4.423   7.958   1.080 -0.3780  0.4046  0.2181
  871MOL0     C20078   4.340   8.019   0.992  0.1305 -0.3107  0.7546
  871MOL0     C20079   4.248   8.087   1.065  0.4522  0.8274 -0.2593
  871MOL0     C20080   4.152   8.184   1.010 -0.4518 -0.1662  0.1647
  871MOL0     C20081   4.019   8.187   1.078 -0.2164  0.1381 -0.5778
  871MOL0     C20082   3.944   8.057   1.044 -0.0850  0.3287 -0.3052
  871MOL0     C20083   3.817   8.038   1.120 -0.7322 -1.0874 -0.0818
  871MOL0     O20084   3.761   7.909   1.108  0.3415  0.3586 -0.1900
  871MOL0     C20085   3.653   7.889   1.192  0.0677 -0.9522 -0.6561
  871MOL0     C20086   3.587   7.762   1.208  0.6705 -0.1337  0.9249
  871MOL0     C20087   3.473   7.751   1.291  0.2087 -0.7868 -0.6970
  871MOL0     C20088   3.377   7.638   1.264  0.9234  0.8624  0.3045
  871MOL0     C20089   3.433   7.854   1.380  0.1791 -0.8394 -0.2258
  871MOL0     C20090   3.314   7.851   1.477 -0.2054  0.0911  0.0199
  871MOL0     O20091   3.253   7.973   1.515 -0.1395 -0.0157  0.2521
  871MOL0     C20092   3.150   7.963   1.612  0.2496  0.4687 -0.4778
  871MOL0     C20093   3.018   7.995   1.572 -0.3569 -0.0162 -0.4796
  871MOL0     C20094   2.915   7.991   1.665  1.0292 -0.2392 -0.5005
  871MOL0     C20095   2.933   7.946   1.796 -0.3959 -0.0468 -0.5764
  871MOL0     O20096   2.838   7.954   1.898  0.0618  0.6011  0.2855
  871MOL0     C20097   2.695   7.970   1.874 -0.3726 -0.2741  0.0163
  871MOL0     C20098   2.627   7.956   2.010 -0.2430  0.6189  0.0572
  871MOL0     C20099   2.660   7.825   2.083  0.1932  0.2961 -0.1213
  871MOL0     C20100   2.582   7.702   2.032 -0.0527 -0.5240  0.3708
  871MOL0     C20101   2.430   7.711   2.030  0.3794  0.2445 -1.0611
  871MOL0     C20102   2.359   7.578   2.069 -0.5707 -0.1055  0.5064
  871MOL0     C20103   2.209   7.594   2.057 -0.5638 -0.3077 -0.4051
  871MOL0     C20104   2.156   7.571   1.915  0.2449  0.2847 -0.5386
  871MOL0    Cl20105   2.206   7.410   1.840 -0.2223 -0.0709  0.0834
  871MOL0     C20106   3.070   7.910   1.839  0.1857  0.0948  0.3769
  871MOL0     C20107   3.171   7.922   1.738  0.0612 -0.8740 -0.1517
  871MOL0     O20108   3.282   7.744   1.524 -0.2263 -0.3090 -0.5697
  871MOL0     C20109   3.502   7.977   1.369 -0.9117  0.0662 -0.0985
  871MOL0     C20110   3.601   7.995   1.272 -0.5701  0.7627 -1.3270
  871MOL0     N20111   4.280   8.073   1.200  0.3509 -0.3479  0.3183
  871MOL0     N20112   4.386   7.994   1.206 -0.4041 -0.4242 -0.2331
  871MOL0     C20113   4.837   6.852   0.835  0.8404 -1.0262 -0.4058
  871MOL0     C20114   4.892   6.749   0.771  0.3788 -0.5156  0.1009
  871MOL0     C20115   4.966   6.490   0.371 -0.4018 -0.3257 -0.3969
  871MOL0     C20116   5.058   6.530   0.266 -0.2350 -0.4357  0.2221
  871MOL0     C20117   5.144   6.445   0.205  0.5082 -0.5218  0.5977
  871MOL0     C20118   5.132   6.307   0.213 -0.0769 -0.8291 -0.1175
  871MOL0     O20119   5.203   6.228   0.131 -0.0525 -0.7191 -0.9642
  871MOL0     C20120   5.127   6.190   0.019 -0.0915 -0.3306 -0.1494
  871MOL0     C20121   5.221   6.107  -0.072 -0.0692 -0.6798 -0.0464
  871MOL0     C20122   5.271   5.968  -0.009  0.4929 -0.2339 -0.2363
  871MOL0     C20123   5.163   5.862  -0.000 -0.6262 -0.3172  0.8190
  871MOL0     C20124   5.196   5.768   0.102 -0.5469 -1.0913  0.6714
  871MOL0     C20125   5.231   5.696   0.189 -0.1184 -0.1356 -0.3966
  871MOL0     C20126   5.039   6.263   0.312  0.1988  0.7219  0.1372
  871MOL0     C20127   4.955   6.351   0.387  0.4308  0.1855 -0.3794
  871MOL0     C20128   4.864   6.288   0.494  0.1162 -0.1013 -0.4066
  871MOL0     H20129   4.637   6.652   0.562 -1.5173 -0.0225  0.3473
  871MOL0     H20130   4.542   6.853   0.675  0.1694  0.8085  1.2009
  871MOL0     H20131   4.487   7.059   0.834 -1.1642  1.4331 -0.1554
  871MOL0     H20132   4.586   7.105   0.697 -0.6797  2.0272  0.0249
  871MOL0     H20133   4.659   7.219   0.965  4.1795  0.8598 -1.7459
  871MOL0     H20134   4.695   7.277   0.812  1.7128 -1.1867  3.4403
  871MOL0     H20135   4.432   7.317   0.782  1.9103  1.4200 -0.8984
  871MOL0     H20136   4.416   7.279   0.951 -1.1201  2.5203 -0.7759
  871MOL0     H20137   4.558   7.463   1.019  0.7149 -0.4127 -0.7711
  871MOL0     H20138   4.599   7.502   0.854 -1.6189  4.0992 -0.3032
  871MOL0     H20139   4.321   7.524   0.985  0.4348  0.4195 -0.5707
  871MOL0     H20140   4.350   7.522   0.813 -0.0853 -2.0457  0.6022
  871MOL0     H20141   4.467   7.734   0.837  1.7914 -1.9656 -0.2145
  871MOL0     H20142   4.333   7.749   0.940  0.8278  0.7412 -1.1784
  871MOL0     H20143   4.600   7.662   1.043  1.1692  0.9465  0.8785
  871MOL0     H20144   4.472   7.709   1.150 -0.2481  2.0512 -0.0368
  871MOL0     H20145   4.624   7.888   1.129  2.7564 -3.7672 -1.1819
  871MOL0     H20146   4.586   7.908   0.957  2.5252 -0.3551  0.7029
  871MOL0     H20147   4.343   8.005   0.884  0.3862  1.8557  0.4383
  871MOL0     H20148   4.142   8.167   0.902 -0.2634  1.4800 -0.1457
  871MOL0     H20149   4.196   8.284   1.013  0.2052 -0.4779  2.7034
  871MOL0     H20150   4.036   8.197   1.186 -1.1930  3.6554 -0.6235
  871MOL0     H20151   3.971   8.282   1.053  1.1474  0.1097 -3.8061
  871MOL0     H20152   3.916   8.046   0.939 -0.0655 -0.8620 -0.1949
  871MOL0     H20153   3.998   7.966   1.073 -2.2118 -0.1876  2.3999
  871MOL0     H20154   3.847   8.037   1.225  1.5138  0.8365 -0.6133
  871MOL0     H20155   3.747   8.120   1.100  0.2119 -0.5851 -1.5021
  871MOL0     H20156   3.608   7.683   1.137  3.1438  2.5226 -1.6111
  871MOL0     H20157   3.430   7.560   1.208  1.6461  1.1570  0.5641
  871MOL0     H20158   3.288   7.659   1.204  0.7880  3.2409  1.2353
  871MOL0     H20159   3.339   7.593   1.356 -0.0019 -0.6168 -0.7459
  871MOL0     H20160   2.997   8.042   1.476  1.0461 -0.1289 -0.8626
  871MOL0     H20161   2.811   8.004   1.637 -0.1560  0.2292  3.5489
  871MOL0     H20162   2.671   8.071   1.840 -2.0993 -0.0553  1.7247
  871MOL0     H20163   2.667   7.894   1.801  4.1004  0.0237 -2.3877
  871MOL0     H20164   2.671   8.038   2.067  2.7142 -1.0121  0.3221
  871MOL0     H20165   2.520   7.966   1.993 -0.1822  0.4749 -0.4149
  871MOL0     H20166   2.650   7.824   2.192 -1.6603 -0.1411 -0.2484
  871MOL0     H20167   2.766   7.799   2.080 -0.1685 -1.8194  2.2107
  871MOL0     H20168   2.618   7.617   2.089  0.5728 -0.7361 -0.3310
  871MOL0     H20169   2.608   7.683   1.928 -1.6903 -1.7564  0.1522
  871MOL0     H20170   2.411   7.788   2.106  3.1191  2.5200 -2.4790
  871MOL0     H20171   2.388   7.738   1.933 -2.5091  3.3729  0.8477
  871MOL0     H20172   2.385   7.558   2.173  0.3226  0.9592  0.5032
  871MOL0     H20173   2.403   7.489   2.022  0.0702 -0.6395  2.0512
  871MOL0     H20174   2.160   7.689   2.081  0.5656  1.6723 -4.8580
  871MOL0     H20175   2.166   7.516   2.121 -1.3667  0.3367 -0.1370
  871MOL0     H20176   2.196   7.650   1.851  1.4184 -0.7221 -1.0800
  871MOL0     H20177   2.046   7.572   1.920  0.2269 -1.9601  2.0165
  871MOL0     H20178   3.104   7.884   1.938 -1.3470 -6.6437 -0.4212
  871MOL0     H20179   3.268   7.906   1.786  0.7180  4.6447  1.0590
  871MOL0     H20180   3.458   8.064   1.417  0.5700  1.4918 -1.1956
  871MOL0     H20181   3.622   8.102   1.271  0.1266  0.7144  1.1860
  871MOL0     H20182   4.893   6.900   0.914  2.7193 -2.7225 -0.5968
  871MOL0     H20183   4.991   6.724   0.810 -1.0897 -1.0495  3.9411
  871MOL0     H20184   5.069   6.637   0.250  1.1554 -0.6208 -0.1989
  871MOL0     H20185   5.191   6.495   0.120  0.9157 -3.6449 -1.1701
  871MOL0     H20186   5.049   6.120   0.050 -0.2677 -0.6416 -1.2265
  871MOL0     H20187   5.083   6.277  -0.030 -0.1766  1.0782  2.3154
  871MOL0     H20188   5.303   6.170  -0.108 -0.8619  1.7249  2.0584
  871MOL0     H20189   5.172   6.073  -0.164  0.7238  0.8387 -1.0746
  871MOL0     H20190   5.359   5.935  -0.065 -0.6560 -2.5945 -0.7932
  871MOL0     H20191   5.316   5.984   0.090  0.7070 -2.0035 -0.0143
  871MOL0     H20192   5.170   5.815  -0.099  0.9166  1.9407 -0.2202
  871MOL0     H20193   5.067   5.914   0.001  0.5270  2.1068 -1.4061
  871MOL0     H20194   5.263   5.648   0.279  2.2366  1.4419 -0.3154
  871MOL0     H20195   5.046   6.157   0.334  0.2115  1.0181  1.6545
  871MOL0     H20196   4.881   6.183   0.520  1.5583  0.3879  0.7578
  871MOL0     H20197   4.894   6.329   0.590  0.8991  1.1088 -1.1347
  871MOL0     H20198   4.759   6.296   0.465 -0.8052 -1.6387  2.1769
  872MOL0     O20199   2.354   5.674   8.921 -0.4003 -0.4761 -1.0620
  872MOL0     C20200   2.459   5.617   8.908  0.4419  0.2770 -0.3470
  872MOL0     O20201   2.546   5.588   9.013 -0.1310  0.4281  0.3256
  872MOL0     C20202   2.517   5.630   9.145  0.3569  0.6329 -0.9166
  872MOL0     C20203   2.576   5.743   9.202  0.3350 -0.5281  0.1983
  872MOL0     C20204   2.539   5.796   9.327 -0.7979  0.8086  0.7588
  872MOL0     C20205   2.436   5.730   9.400 -1.2984 -0.8736 -0.0064
  872MOL0     O20206   2.401   5.763   9.531  0.1314 -0.1408  0.5443
  872MOL0     C20207   2.410   5.896   9.581  0.4396 -0.2492  0.2060
  872MOL0     C20208   2.283   5.974   9.527 -1.0201  0.5780 -0.8910
  872MOL0     C20209   2.152   5.948   9.600 -0.2464  0.6548  0.0504
  872MOL0     C20210   2.061   5.849   9.535  0.3496 -0.3322 -0.2013
  872MOL0     C20211   1.939   5.816   9.625 -0.7608  0.0045 -0.0989
  872MOL0     C20212   1.848   5.936   9.648  0.1808  0.4287 -0.5861
  872MOL0     C20213   1.792   6.012   9.522  1.1150 -0.3030 -0.9259
  872MOL0     C20214   1.689   5.927   9.443  0.2755  0.3885 -0.0595
  872MOL0     N20215   1.618   5.988   9.325  0.8651 -0.2732 -0.4594
  872MOL0     C20216   1.667   6.003   9.199 -0.5370 -1.0170 -0.6990
  872MOL0     C20217   1.578   6.081   9.133  0.1622 -0.1315 -0.7651
  872MOL0     C20218   1.587   6.146   8.996  0.7277 -0.3495 -0.0640
  872MOL0     C20219   1.568   6.292   8.979 -0.3399  1.0526 -0.2971
  872MOL0     C20220   1.663   6.375   9.059 -0.7806 -0.4243  0.0362
  872MOL0     C20221   1.633   6.521   9.025  0.4950  0.3170 -0.1109
  872MOL0     O20222   1.513   6.562   9.104 -0.3228 -0.0484 -0.5304
  872MOL0     C20223   1.406   6.615   9.049  0.1176 -0.4384 -0.3463
  872MOL0     C20224   1.279   6.558   9.071 -0.1442  0.1766  0.0144
  872MOL0     C20225   1.166   6.638   9.025 -0.7770  0.5301 -0.7790
  872MOL0     C20226   1.034   6.580   9.056  0.4496  0.3209  0.0830
  872MOL0     C20227   1.176   6.762   8.960  0.0722 -0.3441 -0.1367
  872MOL0     C20228   1.058   6.851   8.939 -0.7414 -0.3777  0.7757
  872MOL0     O20229   0.957   6.841   9.037 -0.3594  0.2978  0.5491
  872MOL0     C20230   0.847   6.922   9.049 -0.3302  0.6329  0.3761
  872MOL0     C20231   0.740   6.871   9.129  0.0069 -0.5864 -0.5786
  872MOL0     C20232   0.628   6.957   9.157 -0.0985 -0.0043 -0.2185
  872MOL0     C20233   0.620   7.085   9.117 -0.2321 -0.2182  0.0155
  872MOL0     O20234   0.514   7.152   9.173  0.0044 -0.4249 -1.3075
  872MOL0     C20235   0.509   7.298   9.187  0.9159  0.5187  0.6556
  872MOL0     C20236   0.376   7.353   9.227 -0.0587 -0.2325  0.0477
  872MOL0     C20237   0.327   7.270   9.350 -0.4768 -0.6169 -0.0445
  872MOL0     C20238   0.415   7.302   9.478 -0.9025  0.5110  0.3267
  872MOL0     C20239   0.431   7.451   9.501  0.1058  0.4416 -0.0684
  872MOL0     C20240   0.472   7.471   9.651  0.2466 -0.1841  0.3346
  872MOL0     C20241   0.557   7.601   9.653 -0.5549 -1.4956 -0.6722
  872MOL0     C20242   0.633   7.611   9.787  0.6686  0.4625 -0.2790
  872MOL0    Cl20243   0.526   7.688   9.917 -0.0717 -0.0247 -0.1421
  872MOL0     C20244   0.726   7.135   9.032 -0.0570  0.7919 -0.3943
  872MOL0     C20245   0.844   7.058   9.012  0.0050  0.2055 -0.4338
  872MOL0     O20246   1.051   6.929   8.841 -0.6519 -0.5419  0.6474
  872MOL0     C20247   1.303   6.805   8.934  1.8262 -0.7894  0.7419
  872MOL0     C20248   1.416   6.736   8.972  0.8286  0.0960  0.6720
  872MOL0     N20249   1.476   6.110   9.226  0.1276  0.4287 -0.3911
  872MOL0     N20250   1.496   6.045   9.329 -0.3890  0.6508 -0.4603
  872MOL0     C20251   2.379   5.613   9.340  0.0216  0.4350 -0.7625
  872MOL0     C20252   2.427   5.562   9.221  0.3568  0.6786 -0.7730
  872MOL0     C20253   2.480   5.559   8.769 -0.7325  0.9241 -0.1813
  872MOL0     C20254   2.570   5.455   8.745 -0.6723 -0.1410  0.0998
  872MOL0     C20255   2.600   5.397   8.617  0.9618  0.2549 -0.4240
  872MOL0     C20256   2.528   5.429   8.506 -0.3200 -0.3679  0.4703
  872MOL0     O20257   2.557   5.380   8.379 -0.2829 -0.7460 -0.6364
  872MOL0     C20258   2.697   5.355   8.337  0.1108 -0.3968 -0.0170
  872MOL0     C20259   2.710   5.407   8.198 -0.1952  0.1247  0.5793
  872MOL0     C20260   2.716   5.569   8.204 -0.2322 -0.7289 -0.3893
  872MOL0     C20261   2.736   5.624   8.068 -0.2899 -0.2289 -0.3089
  872MOL0     C20262   2.743   5.772   8.075 -0.5638 -0.6535  0.4010
  872MOL0     C20263   2.706   5.894   8.083 -0.7804  0.2040 -0.4234
  872MOL0     C20264   2.435   5.537   8.530 -0.1398  0.0776 -0.3528
  872MOL0     C20265   2.411   5.595   8.655  0.4501 -1.1455 -0.6565
  872MOL0     C20266   2.325   5.729   8.641 -0.6577 -0.4910  0.0001
  872MOL0     H20267   2.654   5.799   9.150  1.2630 -0.6957  1.3549
  872MOL0     H20268   2.595   5.882   9.361 -0.9623  2.7888 -3.3080
  872MOL0     H20269   2.496   5.940   9.530  0.1238 -2.6157 -2.6705
  872MOL0     H20270   2.409   5.896   9.691 -1.4888 -4.5351  0.3967
  872MOL0     H20271   2.312   6.077   9.549  0.9059 -0.1687  0.3059
  872MOL0     H20272   2.263   5.966   9.420 -2.5182  1.1167 -0.6800
  872MOL0     H20273   2.185   5.908   9.696  0.1867  0.6133 -0.1140
  872MOL0     H20274   2.095   6.040   9.614 -1.6086  0.6705 -4.2439
  872MOL0     H20275   2.029   5.878   9.434 -0.4840 -0.4057  0.0297
  872MOL0     H20276   2.124   5.760   9.526  1.4315  0.5954 -2.4299
  872MOL0     H20277   1.965   5.767   9.719 -0.0548  0.4361 -0.0690
  872MOL0     H20278   1.879   5.751   9.560  0.2678  0.0813 -1.1438
  872MOL0     H20279   1.768   5.898   9.713  0.7745 -0.3661 -0.2994
  872MOL0     H20280   1.900   6.018   9.698  0.6209  1.0986 -2.0872
  872MOL0     H20281   1.865   6.043   9.446  0.7604 -2.2944 -2.1630
  872MOL0     H20282   1.744   6.102   9.561  1.0060 -1.0102  0.6419
  872MOL0     H20283   1.746   5.845   9.398 -4.3319 -1.1890 -3.8692
  872MOL0     H20284   1.614   5.886   9.511 -2.0257 -0.2704 -2.7681
  872MOL0     H20285   1.766   5.969   9.172  1.8010  3.8382  0.7405
  872MOL0     H20286   1.507   6.100   8.937  1.0344  0.2642 -0.9845
  872MOL0     H20287   1.689   6.126   8.959  0.1139  0.7715 -2.6138
  872MOL0     H20288   1.567   6.314   8.872  4.1719 -0.9607 -0.9606
  872MOL0     H20289   1.474   6.313   9.031 -0.3488 -1.1895  0.6887
  872MOL0     H20290   1.652   6.365   9.167  0.6808  0.7983  0.3315
  872MOL0     H20291   1.765   6.339   9.043  0.7447  4.1188 -2.4844
  872MOL0     H20292   1.708   6.593   9.059 -1.5296  2.4698  0.0011
  872MOL0     H20293   1.624   6.541   8.918  0.2249  1.2434  0.0751
  872MOL0     H20294   1.280   6.471   9.137  2.5165 -2.3246 -2.9701
  872MOL0     H20295   1.044   6.475   9.083 -1.5583  0.3363  1.0731
  872MOL0     H20296   0.961   6.571   8.974  1.5659 -0.1935 -0.8836
  872MOL0     H20297   0.985   6.632   9.138  2.3980  1.8329  0.3547
  872MOL0     H20298   0.733   6.774   9.178 -0.2272 -0.0194  0.5577
  872MOL0     H20299   0.556   6.917   9.228  1.2724 -0.1308  1.1453
  872MOL0     H20300   0.589   7.319   9.259 -0.7934 -1.9667  3.5384
  872MOL0     H20301   0.540   7.339   9.090  1.4279 -0.4773  0.3806
  872MOL0     H20302   0.370   7.462   9.241  0.2376 -0.1090 -0.7595
  872MOL0     H20303   0.303   7.329   9.149  0.4291 -3.1687  0.3860
  872MOL0     H20304   0.312   7.164   9.329 -0.4699 -0.7799  0.7768
  872MOL0     H20305   0.225   7.300   9.375  0.5502  1.6456  1.8406
  872MOL0     H20306   0.516   7.262   9.464 -1.5434 -1.3924  0.7630
  872MOL0     H20307   0.370   7.248   9.562 -0.7848  0.1404  0.1541
  872MOL0     H20308   0.517   7.478   9.440  0.6616 -0.8357  0.1204
  872MOL0     H20309   0.342   7.508   9.472 -2.2005 -0.8171  3.7747
  872MOL0     H20310   0.536   7.390   9.687  2.2241  0.9548 -0.4120
  872MOL0     H20311   0.385   7.478   9.716  0.3702 -1.6141  0.6732
  872MOL0     H20312   0.497   7.693   9.650  0.9056 -0.5138 -1.7209
  872MOL0     H20313   0.634   7.604   9.575  0.6677  5.2374  0.1515
  872MOL0     H20314   0.728   7.665   9.784  0.8462  0.5342  2.9759
  872MOL0     H20315   0.660   7.508   9.810 -0.3495  0.2114 -0.1318
  872MOL0     H20316   0.710   7.233   8.989 -0.1170 -0.0181 -2.3736
  872MOL0     H20317   0.930   7.102   8.962  1.3128 -1.2053  0.4966
  872MOL0     H20318   1.313   6.888   8.865 -1.1691 -2.7118 -2.3423
  872MOL0     H20319   1.511   6.787   8.961  1.1801 -1.1230 -3.3191
  872MOL0     H20320   2.305   5.557   9.395  1.0314 -0.5772 -0.3803
  872MOL0     H20321   2.383   5.468   9.187 -0.5337 -0.6302  3.3951
  872MOL0     H20322   2.633   5.418   8.825  0.7140 -1.0139 -1.3266
  872MOL0     H20323   2.676   5.319   8.613  0.7924  0.0133  0.7218
  872MOL0     H20324   2.763   5.406   8.408 -1.7795  1.9101  0.2276
  872MOL0     H20325   2.720   5.248   8.343  0.2901 -0.2915  1.4534
  872MOL0     H20326   2.630   5.378   8.129 -1.0251  3.3054  0.0376
  872MOL0     H20327   2.807   5.380   8.155 -0.1971  1.8997 -0.6759
  872MOL0     H20328   2.619   5.607   8.237  1.5678  2.5745  1.6393
  872MOL0     H20329   2.793   5.600   8.275  1.2515  0.6933 -2.5166
  872MOL0     H20330   2.650   5.593   8.009 -1.3011 -1.8506  1.8640
  872MOL0     H20331   2.813   5.571   8.012 -1.7556 -1.1979 -1.4749
  872MOL0     H20332   2.666   5.994   8.090 -2.2631 -0.1699 -2.5747
  872MOL0     H20333   2.384   5.577   8.443 -0.0151  0.1966 -0.3723
  872MOL0     H20334   2.236   5.728   8.706 -1.5028  2.5031 -0.9495
  872MOL0     H20335   2.393   5.806   8.678  0.4589 -3.0050  3.8674
  872MOL0     H20336   2.287   5.757   8.542 -1.5250  1.2226  0.7731
  873MOL0     O20337   3.089   4.460   9.997  0.3510 -0.3281  0.3208
  873MOL0     C20338   3.159   4.365   9.959  1.1621 -0.0880 -0.0089
  873MOL0     O20339   3.279   4.334   9.993 -0.0465  0.9641 -0.0945
  873MOL0     C20340   3.363   4.399  10.080  0.3511 -0.6355 -0.1661
  873MOL0     C20341   3.454   4.493  10.026 -0.8320  0.1483  0.5005
  873MOL0     C20342   3.534   4.570  10.098 -1.1160 -0.1973  0.3326
  873MOL0     C20343   3.540   4.551  10.229  0.6117 -0.1406 -0.0677
  873MOL0     O20344   3.624   4.628  10.298  0.4428  0.2102  0.5516
  873MOL0     C20345   3.681   4.578  10.420 -0.7664  0.4800  0.1493
  873MOL0     C20346   3.833   4.588  10.413 -0.7927 -0.4973 -0.6319
  873MOL0     C20347   3.899   4.517  10.295 -0.3718  1.0880 -0.2237
  873MOL0     C20348   3.891   4.362  10.310  0.3860  0.0440  0.3831
  873MOL0     C20349   3.990   4.305  10.209 -0.3288  0.2563 -0.2746
  873MOL0     C20350   4.006   4.150  10.243 -0.3329 -0.5746  0.3545
  873MOL0     C20351   3.998   4.076  10.112  0.0860 -0.0162  0.5532
  873MOL0     C20352   3.979   3.926  10.133  1.0750 -0.3882 -0.5060
  873MOL0     N20353   4.070   3.856  10.041 -0.1126 -0.0825  0.1631
  873MOL0     C20354   4.025   3.777   9.932 -0.8163 -0.5505  0.1462
  873MOL0     C20355   4.123   3.690   9.909  0.2664  0.2239  0.0656
  873MOL0     C20356   4.109   3.559   9.836  0.2581 -0.1047 -0.0005
  873MOL0     C20357   4.228   3.537   9.746 -0.8093 -0.7946 -0.3509
  873MOL0     C20358   4.216   3.397   9.686  0.0572  0.1644  1.5407
  873MOL0     C20359   4.321   3.366   9.575 -0.2299 -0.4328  0.2452
  873MOL0     O20360   4.316   3.463   9.478  0.5108 -1.0560  0.2265
  873MOL0     C20361   4.391   3.431   9.364  0.5325 -1.4906  0.2471
  873MOL0     C20362   4.340   3.489   9.244  0.9816 -0.2461  0.3439
  873MOL0     C20363   4.417   3.489   9.128 -0.2080 -0.8789 -0.3709
  873MOL0     C20364   4.346   3.545   9.006  0.2807  0.4361 -0.0329
  873MOL0     C20365   4.544   3.418   9.128 -0.1901  0.6981 -0.1613
  873MOL0     C20366   4.620   3.379   9.007 -0.3200  0.4868  1.0212
  873MOL0     O20367   4.683   3.261   9.013  0.1933  0.0434  0.4242
  873MOL0     C20368   4.748   3.222   8.897 -0.3549 -0.6876  0.3734
  873MOL0     C20369   4.846   3.310   8.844  0.2535 -0.4636  1.2099
  873MOL0     C20370   4.913   3.275   8.726  0.9001  0.0037 -0.2159
  873MOL0     C20371   4.878   3.153   8.670  0.2705 -0.4899 -0.1264
  873MOL0     O20372   4.936   3.113   8.553  0.6682  0.3400 -0.2199
  873MOL0     C20373   5.012   3.209   8.474 -0.8146 -0.9433 -0.3869
  873MOL0     C20374   5.015   3.181   8.328 -0.1790 -0.0973 -0.0826
  873MOL0     C20375   5.093   3.290   8.252 -0.1157  0.4829  0.4263
  873MOL0     C20376   5.131   3.235   8.115 -1.3090 -0.5218 -0.2684
  873MOL0     C20377   5.014   3.229   8.018  0.4587 -0.4924  0.2817
  873MOL0     C20378   5.063   3.171   7.881 -0.3431 -0.4166  0.2560
  873MOL0     C20379   5.149   3.275   7.809 -0.0511 -0.1049 -0.0448
  873MOL0     C20380   5.202   3.239   7.682  0.3870 -0.3956  0.8907
  873MOL0    Cl20381   5.084   3.204   7.551 -0.6234 -0.2844 -0.0371
  873MOL0     C20382   4.782   3.068   8.720 -0.6186  0.4189 -0.6211
  873MOL0     C20383   4.710   3.105   8.837  0.1959  0.6293  0.3222
  873MOL0     O20384   4.618   3.463   8.913  0.6141  0.0443 -0.9640
  873MOL0     C20385   4.587   3.358   9.252  0.7610  0.1157  0.0420
  873MOL0     C20386   4.501   3.369   9.361 -0.4662 -0.3800 -0.4711
  873MOL0     N20387   4.225   3.724  10.005  0.4966 -0.1357 -0.0108
  873MOL0     N20388   4.194   3.830  10.078 -0.4315  0.2535  0.5359
  873MOL0     C20389   3.444   4.466  10.295  0.4458  0.2846 -0.1126
  873MOL0     C20390   3.365   4.389  10.219 -0.4201  0.2362 -0.2647
  873MOL0     C20391   3.093   4.271   9.858  0.0808  0.3525 -0.1650
  873MOL0     C20392   2.975   4.200   9.877 -0.7092  0.2578  0.5943
  873MOL0     C20393   2.925   4.119   9.781 -0.2671  0.1822 -0.0174
  873MOL0     C20394   2.991   4.107   9.658 -0.6827  0.1246 -0.2877
  873MOL0     O20395   2.949   4.045   9.542 -0.0305 -0.2629  0.0337
  873MOL0     C20396   2.812   4.006   9.532 -0.7965 -0.7652  0.1036
  873MOL0     C20397   2.788   3.959   9.390 -0.0014  0.0919  0.5879
  873MOL0     C20398   2.830   4.068   9.294  1.4533 -0.9693  1.3771
  873MOL0     C20399   2.812   4.022   9.148  0.7878  0.2572 -0.1531
  873MOL0     C20400   2.790   4.131   9.050  1.0391  0.3688  0.0155
  873MOL0     C20401   2.742   4.223   8.985  0.0348 -0.1811 -0.8826
  873MOL0     C20402   3.111   4.167   9.642  0.0436  0.6051 -0.2511
  873MOL0     C20403   3.170   4.253   9.735  0.5616  1.0625  0.4822
  873MOL0     C20404   3.289   4.336   9.703 -0.5303  1.0119  0.3954
  873MOL0     H20405   3.452   4.498   9.917  3.5816  2.7468  0.3008
  873MOL0     H20406   3.590   4.648  10.049 -2.4686  0.2088 -0.6327
  873MOL0     H20407   3.659   4.471  10.418  0.0476  0.3113 -0.3051
  873MOL0     H20408   3.645   4.639  10.503  0.7117  0.1684  1.0620
  873MOL0     H20409   3.861   4.693  10.415 -2.7900  0.0665 -0.5418
  873MOL0     H20410   3.871   4.535  10.501 -2.0339 -1.0602 -0.4150
  873MOL0     H20411   3.848   4.555  10.206  0.9797 -0.6807 -1.8240
  873MOL0     H20412   4.004   4.544  10.308  0.4040 -0.9339 -1.6734
  873MOL0     H20413   3.920   4.318  10.406 -0.9499  0.4837  1.0017
  873MOL0     H20414   3.790   4.327  10.290  0.6815 -1.2936  1.0875
  873MOL0     H20415   4.082   4.361  10.227 -1.4690  1.9730  0.5570
  873MOL0     H20416   3.943   4.313  10.110 -3.0803 -0.9102  0.8183
  873MOL0     H20417   4.105   4.126  10.284 -1.3385 -0.8493  2.7780
  873MOL0     H20418   3.931   4.123  10.317  1.0930  0.5705  2.3007
  873MOL0     H20419   4.090   4.108  10.062 -0.9908  3.1032  0.3789
  873MOL0     H20420   3.922   4.119  10.046  1.2702  1.7721  0.2948
  873MOL0     H20421   4.003   3.900  10.237  1.5752  1.2530 -0.1883
  873MOL0     H20422   3.876   3.897  10.109  1.2346  0.6118 -2.5780
  873MOL0     H20423   3.920   3.783   9.903 -0.6164  0.0224 -0.4843
  873MOL0     H20424   4.015   3.547   9.781  0.1120 -0.6141  0.3577
  873MOL0     H20425   4.114   3.489   9.920  1.8377 -0.8742 -0.6937
  873MOL0     H20426   4.240   3.611   9.666  1.5087  0.0531  0.7011
  873MOL0     H20427   4.320   3.538   9.804 -1.0294 -4.5668  0.3470
  873MOL0     H20428   4.244   3.330   9.767  2.3186  0.9715  1.5209
  873MOL0     H20429   4.115   3.377   9.648  1.0398  0.3510 -1.4767
  873MOL0     H20430   4.411   3.355   9.637 -0.8797  1.6860  1.6570
  873MOL0     H20431   4.299   3.265   9.539 -7.1589 -0.0742  2.1453
  873MOL0     H20432   4.239   3.530   9.245  0.3705 -1.6723  0.3711
  873MOL0     H20433   4.276   3.621   9.042  1.4052  1.7546 -0.5007
  873MOL0     H20434   4.294   3.464   8.955  2.1546 -1.4992  0.9746
  873MOL0     H20435   4.413   3.592   8.934  0.8291 -0.0711  0.1419
  873MOL0     H20436   4.853   3.414   8.876 -4.1693  1.4394 -2.7868
  873MOL0     H20437   4.985   3.344   8.683 -1.3322  0.5155 -3.5042
  873MOL0     H20438   4.968   3.308   8.491  0.4695 -0.1473 -1.5075
  873MOL0     H20439   5.110   3.201   8.524 -1.7472  0.6497  1.8747
  873MOL0     H20440   5.067   3.086   8.315  1.2798  0.6375  0.2164
  873MOL0     H20441   4.909   3.178   8.297 -0.6090 -2.0414  1.4122
  873MOL0     H20442   5.189   3.308   8.302  0.0445  0.0253  0.2897
  873MOL0     H20443   5.039   3.385   8.245  0.6445  0.8118 -2.0666
  873MOL0     H20444   5.180   3.137   8.108 -3.2639 -1.6382  0.8469
  873MOL0     H20445   5.205   3.309   8.083 -1.3528  0.7457  2.3223
  873MOL0     H20446   4.941   3.156   8.053  1.3772 -2.4734 -1.7097
  873MOL0     H20447   4.966   3.326   8.004 -0.0915 -0.9411 -1.1115
  873MOL0     H20448   4.979   3.148   7.815 -1.0543 -3.2895  1.9834
  873MOL0     H20449   5.119   3.080   7.904  1.8015  0.8124  0.2148
  873MOL0     H20450   5.237   3.305   7.866  0.3339  1.1210 -1.2168
  873MOL0     H20451   5.085   3.364   7.798  0.7468  0.5147  0.2181
  873MOL0     H20452   5.269   3.154   7.698  1.4545 -0.0508 -1.3462
  873MOL0     H20453   5.274   3.316   7.651  2.4391 -3.0481 -1.5037
  873MOL0     H20454   4.768   2.973   8.670  2.0470 -0.0101 -0.7247
  873MOL0     H20455   4.628   3.048   8.879  2.7944 -2.5333  1.5731
  873MOL0     H20456   4.682   3.307   9.263  0.7827  0.3628  1.0976
  873MOL0     H20457   4.547   3.326   9.450 -0.8810  0.2088  0.0311
  873MOL0     H20458   3.432   4.454  10.402 -4.6359 -1.3966 -0.6382
  873MOL0     H20459   3.300   4.313  10.262  0.5268 -0.1436  0.5374
  873MOL0     H20460   2.925   4.216   9.972  1.4034  1.8440  1.5218
  873MOL0     H20461   2.834   4.062   9.796  1.6601 -2.6820  2.2110
  873MOL0     H20462   2.789   3.921   9.597  1.9114 -1.3044  0.4982
  873MOL0     H20463   2.743   4.085   9.561  2.1328  2.1072 -0.1570
  873MOL0     H20464   2.684   3.926   9.383 -0.0798  0.3116  0.7000
  873MOL0     H20465   2.856   3.875   9.373 -0.5474  0.0976 -1.9709
  873MOL0     H20466   2.755   4.138   9.331  1.2812 -0.5236  0.2144
  873MOL0     H20467   2.928   4.113   9.311  0.9590  0.5506  0.3734
  873MOL0     H20468   2.721   3.962   9.134  0.2005  1.3479 -1.2269
  873MOL0     H20469   2.900   3.966   9.115 -0.3852 -2.0216  0.3932
  873MOL0     H20470   2.703   4.305   8.928 -2.3912  0.2874  1.2651
  873MOL0     H20471   3.163   4.143   9.549  0.9138  1.2626  0.0493
  873MOL0     H20472   3.290   4.434   9.752  1.1520 -0.8940  4.6383
  873MOL0     H20473   3.369   4.293   9.762  0.3622  1.6504 -0.3222
  873MOL0     H20474   3.314   4.348   9.597  0.2461  0.6150  0.5258
  874MOL0     O20475   7.499  10.685   5.581 -0.1213 -0.0970  0.3190
  874MOL0     C20476   7.434  10.786   5.614 -0.5248  0.9071  0.5853
  874MOL0     O20477   7.466  10.912   5.590 -0.4367  0.2745  0.5703
  874MOL0     C20478   7.579  10.926   5.510 -0.2639 -0.4358 -0.6038
  874MOL0     C20479   7.572  10.914   5.371 -1.0000  0.1419 -0.5481
  874MOL0     C20480   7.690  10.928   5.296 -0.4620 -0.2258 -0.4845
  874MOL0     C20481   7.812  10.976   5.354  0.2730 -0.1991 -0.8980
  874MOL0     O20482   7.917  10.992   5.266  0.1280 -0.2885 -0.3694
  874MOL0     C20483   8.040  11.039   5.311  0.5410 -0.1131  0.1816
  874MOL0     C20484   8.014  11.189   5.320  0.0488 -0.3044  0.1267
  874MOL0     C20485   8.142  11.275   5.326 -0.4952  0.1174  0.7853
  874MOL0     C20486   8.124  11.423   5.290  0.4242  0.6010  0.6523
  874MOL0     C20487   8.259  11.508   5.276  0.0798  0.3157 -0.1343
  874MOL0     C20488   8.344  11.457   5.159 -0.1510  0.3074 -0.0509
  874MOL0     C20489   8.481  11.520   5.155  0.0079 -0.7715 -0.4594
  874MOL0     C20490   8.503  11.653   5.078 -0.6767 -0.4536  0.0467
  874MOL0     N20491   8.638  11.709   5.077 -0.7204 -0.6667 -0.0911
  874MOL0     C20492   8.752  11.650   5.029 -0.7287 -0.3225  0.1661
  874MOL0     C20493   8.858  11.731   5.053 -0.4528  0.3080 -0.8801
  874MOL0     C20494   9.001  11.690   5.063  1.0214 -0.4191  0.0753
  874MOL0     C20495   9.035  11.669   5.213 -0.0629 -0.5214  0.4216
  874MOL0     C20496   9.165  11.589   5.222  0.1544  0.6440 -0.2294
  874MOL0     C20497   9.244  11.609   5.356 -1.0772 -0.6433  1.3353
  874MOL0     O20498   9.361  11.524   5.372 -0.0757  0.3241  0.3647
  874MOL0     C20499   9.447  11.515   5.261 -0.7500 -0.4839  0.6585
  874MOL0     C20500   9.513  11.392   5.235 -0.8262 -0.2393 -0.0045
  874MOL0     C20501   9.617  11.379   5.141  0.6972  0.1007  0.3140
  874MOL0     C20502   9.661  11.234   5.127  0.2592  0.0817 -0.1797
  874MOL0     C20503   9.656  11.490   5.060 -0.2605  0.0909 -0.1748
  874MOL0     C20504   9.737  11.471   4.935  0.0730  0.5385 -0.2854
  874MOL0     O20505   9.801  11.349   4.923  0.6226 -0.3426 -0.0660
  874MOL0     C20506   9.892  11.336   4.825 -0.5201  0.3441 -0.5584
  874MOL0     C20507   9.983  11.434   4.772 -0.0167  0.0058  0.8320
  874MOL0     C20508  10.075  11.388   4.664  0.6949  0.1620  0.7746
  874MOL0     C20509  10.052  11.262   4.604 -0.2941  0.3260 -0.4713
  874MOL0     O20510  10.130  11.219   4.499  0.0755  0.2179 -0.7054
  874MOL0     C20511  10.272  11.247   4.511  0.3527  0.3564  0.0681
  874MOL0     C20512  10.349  11.137   4.446 -0.4996 -0.5118 -0.8044
  874MOL0     C20513  10.509  11.135   4.453 -0.1873 -0.5052  0.3359
  874MOL0     C20514  10.566  11.027   4.357  0.2123  0.2580 -0.0494
  874MOL0     C20515  10.699  10.973   4.396  0.1347 -0.2035  0.6165
  874MOL0     C20516  10.801  11.089   4.412  0.2080 -0.4461  0.1533
  874MOL0     C20517  10.940  11.012   4.425  0.6315 -0.0052 -0.0285
  874MOL0     C20518  11.051  11.115   4.391  0.1194 -0.3023 -0.4157
  874MOL0    Cl20519  11.053  11.166   4.219 -0.2713  0.0186 -0.0824
  874MOL0     C20520   9.944  11.183   4.646  0.1176  0.3704 -0.8608
  874MOL0     C20521   9.870  11.216   4.760 -0.5505  0.7428 -0.0239
  874MOL0     O20522   9.746  11.564   4.859 -0.4549 -0.2142 -0.1231
  874MOL0     C20523   9.592  11.612   5.089 -0.7988 -0.2218 -0.2367
  874MOL0     C20524   9.495  11.627   5.190 -0.5895 -0.2766  0.4103
  874MOL0     N20525   8.801  11.850   5.099  0.6496  0.7942 -0.0462
  874MOL0     N20526   8.673  11.844   5.104 -0.0612  0.3236  0.0587
  874MOL0     C20527   7.814  10.992   5.497  0.1733  1.2031  0.3620
  874MOL0     C20528   7.698  10.958   5.571 -0.1474 -0.9942  0.6092
  874MOL0     C20529   7.306  10.761   5.685  0.6810 -0.4267 -0.1391
  874MOL0     C20530   7.205  10.861   5.679 -0.0330 -0.3915 -0.2966
  874MOL0     C20531   7.078  10.845   5.748  0.0985  0.5505  0.6309
  874MOL0     C20532   7.050  10.728   5.810  0.0046  0.4907  0.4759
  874MOL0     O20533   6.925  10.699   5.858 -0.0078 -0.0508  0.3648
  874MOL0     C20534   6.836  10.650   5.757 -0.3726  0.6886 -0.5710
  874MOL0     C20535   6.704  10.605   5.819 -0.0400 -0.6778  0.2587
  874MOL0     C20536   6.713  10.487   5.913  0.3695 -0.0167 -0.5634
  874MOL0     C20537   6.643  10.367   5.842 -0.7099 -1.0331  0.3327
  874MOL0     C20538   6.725  10.308   5.741 -0.1337  0.9793  0.2257
  874MOL0     C20539   6.779  10.247   5.654  0.6816  0.7618 -0.4909
  874MOL0     C20540   7.144  10.625   5.818 -0.3139 -0.1157 -0.2265
  874MOL0     C20541   7.279  10.644   5.768 -0.3511 -0.2085  0.4349
  874MOL0     C20542   7.383  10.529   5.789  0.1406 -0.5143 -0.2383
  874MOL0     H20543   7.477  10.899   5.321 -1.6463 -0.5680  0.8418
  874MOL0     H20544   7.698  10.902   5.191  0.7327 -1.9701 -0.0119
  874MOL0     H20545   8.122  11.013   5.244  2.0764 -1.3503  2.3948
  874MOL0     H20546   8.060  11.001   5.411 -0.9207 -1.7866 -0.1150
  874MOL0     H20547   7.962  11.221   5.229 -1.3472  0.0984  1.0469
  874MOL0     H20548   7.956  11.208   5.410  3.5085 -0.3407  2.5643
  874MOL0     H20549   8.164  11.276   5.434  1.0485  1.5449  0.5045
  874MOL0     H20550   8.223  11.225   5.272 -0.7813  0.2964  0.1890
  874MOL0     H20551   8.092  11.436   5.186  2.7986  2.5523  0.0732
  874MOL0     H20552   8.047  11.462   5.357 -2.8662 -1.6920 -1.4465
  874MOL0     H20553   8.305  11.494   5.375 -2.1478  0.0791  0.9225
  874MOL0     H20554   8.240  11.613   5.252 -0.0164  0.2278 -0.4397
  874MOL0     H20555   8.355  11.351   5.183 -3.1781 -0.0499  0.1695
  874MOL0     H20556   8.288  11.466   5.066 -2.3038  1.2045  1.2444
  874MOL0     H20557   8.548  11.451   5.103  0.1678  0.7963 -2.4310
  874MOL0     H20558   8.510  11.519   5.261  0.7929 -1.7080 -0.6688
  874MOL0     H20559   8.477  11.624   4.976  1.7379  0.5533 -0.9499
  874MOL0     H20560   8.434  11.726   5.122  0.4556  0.0868  0.9836
  874MOL0     H20561   8.758  11.544   5.007  0.2644 -0.7368  2.1956
  874MOL0     H20562   9.061  11.770   5.019 -1.4946  0.0790 -2.8030
  874MOL0     H20563   9.020  11.601   5.002 -1.8799 -0.2504 -1.2657
  874MOL0     H20564   9.045  11.758   5.276  2.8096 -0.6147  0.2605
  874MOL0     H20565   8.959  11.604   5.257  0.2550  1.2054  3.8617
  874MOL0     H20566   9.147  11.482   5.204 -2.4661  0.5934  1.9328
  874MOL0     H20567   9.216  11.623   5.132  0.2082  0.1421 -0.3917
  874MOL0     H20568   9.265  11.715   5.369 -3.3518  0.2883 -1.4462
  874MOL0     H20569   9.178  11.585   5.439  0.1735 -0.7007  2.3384
  874MOL0     H20570   9.469  11.307   5.286 -5.0161  0.8517 -1.3963
  874MOL0     H20571   9.767  11.224   5.103  0.0636  1.8121 -2.1087
  874MOL0     H20572   9.597  11.190   5.050 -1.0557 -0.0552  0.9631
  874MOL0     H20573   9.643  11.179   5.220 -0.4644 -1.0344 -0.9536
  874MOL0     H20574   9.995  11.531   4.819 -1.8522  1.9191 -2.2495
  874MOL0     H20575  10.154  11.458   4.636  0.6921 -0.2138 -0.1893
  874MOL0     H20576  10.306  11.342   4.470 -1.0433  1.5478  1.5209
  874MOL0     H20577  10.307  11.249   4.615 -1.1261  0.3122  0.5946
  874MOL0     H20578  10.309  11.052   4.502 -0.9114 -0.6019 -1.2377
  874MOL0     H20579  10.320  11.125   4.342 -1.3541 -0.8139 -0.5413
  874MOL0     H20580  10.548  11.114   4.553 -0.0603 -0.5609  0.2746
  874MOL0     H20581  10.554  11.225   4.411  2.7896 -3.8368 -4.6057
  874MOL0     H20582  10.565  11.064   4.254 -1.3023 -0.3992 -0.2972
  874MOL0     H20583  10.499  10.941   4.357  1.9035 -1.1345  1.3695
  874MOL0     H20584  10.696  10.901   4.478 -1.8421 -4.4293 -2.7060
  874MOL0     H20585  10.728  10.912   4.310 -0.8796 -0.7071  0.6206
  874MOL0     H20586  10.782  11.162   4.492  0.2929  0.1267 -0.3432
  874MOL0     H20587  10.792  11.148   4.320  3.2058  3.1183  1.8487
  874MOL0     H20588  10.953  10.927   4.357 -1.5793 -1.7143  1.5423
  874MOL0     H20589  10.939  10.976   4.528  0.5995  2.3710  0.8710
  874MOL0     H20590  11.143  11.064   4.419 -0.3886 -0.3914  1.2219
  874MOL0     H20591  11.040  11.202   4.457 -2.4199 -0.7241 -0.1611
  874MOL0     H20592   9.909  11.088   4.605  0.8058 -0.9199  1.3726
  874MOL0     H20593   9.797  11.146   4.798  0.9559 -1.7720 -1.3762
  874MOL0     H20594   9.634  11.704   5.050  1.0574 -1.2068 -0.6759
  874MOL0     H20595   9.461  11.726   5.217 -0.1087  0.2131 -0.7177
  874MOL0     H20596   7.906  11.030   5.541  2.5726 -0.8487 -2.4609
  874MOL0     H20597   7.703  10.957   5.680 -0.9763 -2.0422  0.6495
  874MOL0     H20598   7.216  10.949   5.615 -3.7165 -0.6695 -1.5844
  874MOL0     H20599   7.006  10.924   5.731 -0.5698 -0.7155 -3.9143
  874MOL0     H20600   6.798  10.729   5.692  0.3339  2.4307  1.0369
  874MOL0     H20601   6.871  10.565   5.697  0.7566  0.0841  0.8750
  874MOL0     H20602   6.627  10.588   5.742  1.1892  2.8364 -1.9851
  874MOL0     H20603   6.664  10.685   5.881 -2.2048 -1.9448  0.6126
  874MOL0     H20604   6.816  10.476   5.948 -0.4981 -1.6872  1.7278
  874MOL0     H20605   6.661  10.489   6.009  1.8516 -0.5305  0.2738
  874MOL0     H20606   6.543  10.401   5.815 -1.1438 -2.1818  0.4467
  874MOL0     H20607   6.630  10.283   5.911  0.0277 -0.3658  1.3123
  874MOL0     H20608   6.836  10.213   5.570  1.0321  1.8917 -0.7272
  874MOL0     H20609   7.119  10.538   5.878  1.3992 -1.6844 -1.6612
  874MOL0     H20610   7.343  10.451   5.853  0.2300  0.7107  1.3834
  874MOL0     H20611   7.404  10.482   5.692 -4.3011 -1.6931 -0.8214
  874MOL0     H20612   7.475  10.566   5.836 -1.1096  1.2912  0.9032
  875MOL0     O20613   7.105   5.284   1.792  0.1008 -0.2140 -0.2824
  875MOL0     C20614   6.988   5.258   1.774  0.2975 -0.4707 -0.7109
  875MOL0     O20615   6.902   5.337   1.719 -0.0263 -0.9674  0.4425
  875MOL0     C20616   6.927   5.470   1.710 -0.0159 -0.1145 -0.2506
  875MOL0     C20617   7.026   5.529   1.619  0.4704  0.5921 -0.5818
  875MOL0     C20618   7.038   5.666   1.605 -0.0332  0.0485 -0.8095
  875MOL0     C20619   6.959   5.752   1.682  0.2093 -0.0337  0.2034
  875MOL0     O20620   6.973   5.892   1.682  0.4041 -0.2458  0.4078
  875MOL0     C20621   7.083   5.939   1.762 -1.0271  0.0111 -0.3062
  875MOL0     C20622   7.037   5.988   1.900 -0.3917  0.0776 -0.9599
  875MOL0     C20623   6.928   6.099   1.896 -0.6981  0.4600  0.0662
  875MOL0     C20624   6.931   6.188   2.025 -0.3965  0.2598 -0.4150
  875MOL0     C20625   6.796   6.251   2.045  0.0977  0.2626  0.3405
  875MOL0     C20626   6.794   6.328   2.179 -0.1512  0.3616  0.2007
  875MOL0     C20627   6.694   6.454   2.183  0.3399  0.7217  0.4810
  875MOL0     C20628   6.546   6.426   2.191  0.1492  0.3667  0.5532
  875MOL0     N20629   6.467   6.524   2.266 -0.3650 -0.2000  0.6885
  875MOL0     C20630   6.479   6.657   2.242  0.4445  0.9609  0.8816
  875MOL0     C20631   6.435   6.722   2.351 -0.0369  0.0722 -1.0096
  875MOL0     C20632   6.392   6.871   2.371 -0.2958 -0.0896  1.0565
  875MOL0     C20633   6.425   6.977   2.265 -0.1509  0.3913 -0.8362
  875MOL0     C20634   6.579   6.995   2.240  0.0962  0.3273  0.0255
  875MOL0     C20635   6.591   7.112   2.136 -0.4066 -0.5697  0.6788
  875MOL0     O20636   6.735   7.153   2.124  0.4128  0.6858  0.1389
  875MOL0     C20637   6.763   7.279   2.079  1.4281 -0.9133 -0.8515
  875MOL0     C20638   6.890   7.326   2.122  0.6593  0.0548  0.2112
  875MOL0     C20639   6.932   7.451   2.086 -0.2799 -0.6925  0.0947
  875MOL0     C20640   7.073   7.478   2.113  0.7582  0.4356  0.5534
  875MOL0     C20641   6.855   7.538   2.022  0.6910  0.1186 -0.3111
  875MOL0     C20642   6.914   7.672   1.983 -0.4490 -0.5383 -0.2656
  875MOL0     O20643   6.984   7.751   2.081 -0.1581  0.3618 -0.6096
  875MOL0     C20644   7.075   7.845   2.031 -0.5388 -0.6269  1.0692
  875MOL0     C20645   7.198   7.853   2.095 -0.6282 -0.2568  1.1706
  875MOL0     C20646   7.299   7.938   2.052  0.3335  0.7498 -0.5088
  875MOL0     C20647   7.281   8.023   1.941  0.1741 -0.1841  0.1794
  875MOL0     O20648   7.384   8.104   1.899 -0.3876  0.2792  0.0180
  875MOL0     C20649   7.369   8.213   1.801  0.9031 -0.1847 -0.6832
  875MOL0     C20650   7.457   8.326   1.855 -0.3325  0.6463  0.0442
  875MOL0     C20651   7.486   8.435   1.746  0.1244  0.6325  0.5450
  875MOL0     C20652   7.566   8.547   1.807  0.1033 -0.7800  0.4970
  875MOL0     C20653   7.479   8.646   1.887  0.4536 -0.2937  0.3294
  875MOL0     C20654   7.546   8.748   1.977  0.6131  0.3188  0.4941
  875MOL0     C20655   7.693   8.771   1.945  0.5128 -0.9539 -0.6378
  875MOL0     C20656   7.744   8.864   2.055 -1.0077 -0.8253 -0.0677
  875MOL0    Cl20657   7.911   8.905   2.037  0.2448 -0.1851 -0.2021
  875MOL0     C20658   7.155   8.016   1.873 -0.4882 -0.0928  0.4767
  875MOL0     C20659   7.063   7.928   1.919 -0.3256  0.4699  0.4291
  875MOL0     O20660   6.890   7.700   1.866 -0.2699  0.2118  0.0992
  875MOL0     C20661   6.725   7.486   1.971 -1.1643 -0.0448 -0.3474
  875MOL0     C20662   6.679   7.360   2.010 -0.8716 -0.2296 -0.4579
  875MOL0     N20663   6.400   6.625   2.449  0.7458  0.3646 -0.3950
  875MOL0     N20664   6.423   6.507   2.395  0.3212 -0.6231 -0.5944
  875MOL0     C20665   6.863   5.693   1.758 -0.2523 -1.0924  0.8589
  875MOL0     C20666   6.843   5.562   1.764  0.0418 -0.1025 -0.4351
  875MOL0     C20667   6.935   5.122   1.826 -0.3650 -0.4921 -0.1283
  875MOL0     C20668   7.035   5.027   1.856 -0.2732  0.1296  0.3282
  875MOL0     C20669   6.997   4.911   1.915 -0.4384  0.0889  0.3839
  875MOL0     C20670   6.866   4.881   1.953 -0.1786  0.4507 -0.1440
  875MOL0     O20671   6.837   4.758   2.004 -0.1837 -0.3369 -0.4333
  875MOL0     C20672   6.777   4.666   1.909 -0.0831 -0.0888  0.0548
  875MOL0     C20673   6.689   4.559   1.969 -1.2472  0.4445  0.4216
  875MOL0     C20674   6.577   4.609   2.064  0.2496  0.1171 -0.4403
  875MOL0     C20675   6.449   4.662   1.990  0.0962  0.3710  0.9047
  875MOL0     C20676   6.358   4.560   1.922 -0.2601 -0.2078  0.5954
  875MOL0     C20677   6.289   4.486   1.857 -0.1562  0.1886  0.5078
  875MOL0     C20678   6.769   4.969   1.916 -0.1561  0.3105 -0.4500
  875MOL0     C20679   6.798   5.092   1.858 -0.7257  0.0362 -0.1130
  875MOL0     C20680   6.675   5.168   1.822 -0.3511  0.1660 -0.0070
  875MOL0     H20681   7.094   5.459   1.572 -0.8067 -0.4127 -0.9993
  875MOL0     H20682   7.122   5.692   1.540  0.2042  0.2503 -0.4254
  875MOL0     H20683   7.125   6.026   1.711 -0.7623  0.3139  0.4195
  875MOL0     H20684   7.171   5.874   1.769 -0.0741  1.3478  0.5648
  875MOL0     H20685   7.003   5.898   1.953  0.1683  0.7971  0.7003
  875MOL0     H20686   7.111   6.037   1.964 -0.2586 -0.7835 -0.4416
  875MOL0     H20687   6.948   6.158   1.806  0.4035 -0.9297 -0.6450
  875MOL0     H20688   6.836   6.040   1.889  0.6744 -1.8662  0.4343
  875MOL0     H20689   6.937   6.129   2.116 -0.1596  1.5577  0.4306
  875MOL0     H20690   7.019   6.253   2.019  0.5552 -1.1234 -3.7576
  875MOL0     H20691   6.718   6.175   2.040  0.1105  0.3208 -1.6725
  875MOL0     H20692   6.783   6.327   1.967  3.4198  0.4165 -0.2126
  875MOL0     H20693   6.788   6.268   2.270 -1.9410  1.9130  1.1871
  875MOL0     H20694   6.895   6.369   2.190  0.1214 -0.7581  2.2236
  875MOL0     H20695   6.728   6.530   2.111 -0.9512  0.0447 -0.9148
  875MOL0     H20696   6.708   6.504   2.280 -1.8634  1.9159  0.2748
  875MOL0     H20697   6.500   6.426   2.092 -0.1370  3.2536  0.6068
  875MOL0     H20698   6.528   6.329   2.240 -5.3320 -0.1134 -1.7243
  875MOL0     H20699   6.502   6.702   2.145 -0.1847 -1.9183 -0.7213
  875MOL0     H20700   6.434   6.909   2.464  1.8077 -2.1077  1.0457
  875MOL0     H20701   6.283   6.876   2.372 -0.2877  0.0753  1.0513
  875MOL0     H20702   6.378   6.946   2.172 -1.1677 -1.7976  0.3446
  875MOL0     H20703   6.391   7.072   2.308 -0.5485  0.7201 -1.8485
  875MOL0     H20704   6.632   7.007   2.335  4.0409 -2.1675 -1.5752
  875MOL0     H20705   6.608   6.900   2.194 -2.1725  0.5093 -1.9413
  875MOL0     H20706   6.556   7.079   2.038 -0.1952  1.1955 -0.0229
  875MOL0     H20707   6.538   7.200   2.173  1.5614  0.1283  2.0474
  875MOL0     H20708   6.948   7.251   2.174 -0.5047  0.6307  2.4857
  875MOL0     H20709   7.122   7.517   2.023  0.7754  1.4721  0.9973
  875MOL0     H20710   7.123   7.383   2.136  1.6486 -0.1893 -3.1946
  875MOL0     H20711   7.098   7.543   2.197  1.4973  2.3011 -1.0278
  875MOL0     H20712   7.226   7.790   2.179  1.6628  0.6599  1.1560
  875MOL0     H20713   7.395   7.937   2.102  0.8482 -0.9131 -1.4620
  875MOL0     H20714   7.407   8.178   1.704  0.7374  0.8601 -1.1406
  875MOL0     H20715   7.264   8.238   1.790  0.9931  0.9011  0.6633
  875MOL0     H20716   7.427   8.377   1.947 -1.1698 -0.2184  0.2687
  875MOL0     H20717   7.550   8.275   1.883 -1.8559 -1.0510  2.3051
  875MOL0     H20718   7.398   8.478   1.697  0.6416  0.6528 -0.3973
  875MOL0     H20719   7.539   8.396   1.658 -0.7351  1.1084 -0.1966
  875MOL0     H20720   7.628   8.602   1.735  0.0367  2.5225  2.7106
  875MOL0     H20721   7.631   8.512   1.887 -1.8231 -1.1301  1.9743
  875MOL0     H20722   7.420   8.706   1.817 -0.4432  0.1465  1.4384
  875MOL0     H20723   7.402   8.600   1.949 -2.3174  3.8244  0.3762
  875MOL0     H20724   7.539   8.708   2.079  0.8270  0.5868  0.6151
  875MOL0     H20725   7.502   8.848   1.969 -2.7660 -1.0180  0.8448
  875MOL0     H20726   7.704   8.814   1.846  0.1665  1.1916  0.2101
  875MOL0     H20727   7.756   8.681   1.948  1.0121 -1.1600 -6.2883
  875MOL0     H20728   7.722   8.818   2.152 -1.0669 -0.3832  0.1345
  875MOL0     H20729   7.686   8.957   2.049 -1.7428 -1.3621 -2.6190
  875MOL0     H20730   7.123   8.085   1.795 -2.9879 -1.5936  0.0643
  875MOL0     H20731   6.968   7.939   1.868 -0.9297 -1.1469  1.1431
  875MOL0     H20732   6.667   7.549   1.905 -1.4798  0.2151  0.1699
  875MOL0     H20733   6.588   7.317   1.969 -0.8599 -2.3911  1.5910
  875MOL0     H20734   6.786   5.750   1.809  1.0852  0.9764  0.7010
  875MOL0     H20735   6.765   5.530   1.832 -0.6621  0.0875 -1.1396
  875MOL0     H20736   7.135   5.033   1.814 -0.9634 -1.2171 -1.6145
  875MOL0     H20737   7.071   4.834   1.933 -0.2903  0.5814  2.0060
  875MOL0     H20738   6.716   4.720   1.836 -2.5489  0.4799  2.3771
  875MOL0     H20739   6.853   4.612   1.852 -1.7132 -1.4005 -0.9767
  875MOL0     H20740   6.756   4.488   2.020 -0.7932  0.5358 -0.0409
  875MOL0     H20741   6.644   4.513   1.880 -0.8421 -0.3792  0.6251
  875MOL0     H20742   6.548   4.533   2.138 -3.2599  1.5208 -0.2023
  875MOL0     H20743   6.611   4.683   2.137 -0.1782 -2.3806  2.5094
  875MOL0     H20744   6.487   4.717   1.903  0.0874  0.0034  0.6627
  875MOL0     H20745   6.389   4.735   2.044 -2.0953 -0.0100 -0.8512
  875MOL0     H20746   6.227   4.427   1.792 -1.7866 -0.6335  2.7087
  875MOL0     H20747   6.666   4.942   1.936 -0.0355  0.8517  1.0150
  875MOL0     H20748   6.696   5.272   1.850  2.4929 -0.7995  1.8719
  875MOL0     H20749   6.648   5.167   1.716 -0.1320  2.5025 -0.1449
  875MOL0     H20750   6.592   5.124   1.879 -0.4453  0.3994  0.0387
  876MOL0     O20751   6.088   2.990   3.686 -0.4905 -1.0304 -0.3828
  876MOL0     C20752   6.084   3.097   3.615 -0.0260  0.1578  0.2363
  876MOL0     O20753   6.036   3.101   3.486  0.3574  0.1873  0.1022
  876MOL0     C20754   5.943   3.008   3.434  0.5561  0.0170 -1.9136
  876MOL0     C20755   5.918   3.009   3.297  1.3118 -0.0363  0.0594
  876MOL0     C20756   5.825   2.920   3.241 -0.7169 -0.3352 -0.3839
  876MOL0     C20757   5.755   2.825   3.318  0.3260 -0.3458 -0.0280
  876MOL0     O20758   5.667   2.733   3.264  0.1921  0.3737  0.1289
  876MOL0     C20759   5.616   2.757   3.129  0.0242  1.5520 -0.2159
  876MOL0     C20760   5.717   2.722   3.011  0.3412  0.8061 -0.4718
  876MOL0     C20761   5.651   2.615   2.919  0.3931 -0.0167  0.8548
  876MOL0     C20762   5.740   2.620   2.795 -0.1932 -0.4779  0.3277
  876MOL0     C20763   5.684   2.545   2.666  0.6900  0.1118 -0.4465
  876MOL0     C20764   5.532   2.569   2.638 -0.9549  0.7680  0.1019
  876MOL0     C20765   5.501   2.529   2.497 -1.3664 -1.4002  0.1748
  876MOL0     C20766   5.480   2.387   2.466 -0.4334 -0.5810  0.3393
  876MOL0     N20767   5.379   2.316   2.548  0.0831  0.9630 -0.3909
  876MOL0     C20768   5.243   2.337   2.549 -0.3091  0.3671 -0.3582
  876MOL0     C20769   5.194   2.253   2.648 -0.2216 -0.8106 -0.5687
  876MOL0     C20770   5.043   2.244   2.683 -0.2788  0.3010  0.7886
  876MOL0     C20771   4.954   2.356   2.621  0.2309  0.9442  0.4535
  876MOL0     C20772   4.809   2.343   2.668 -0.9157  1.1594 -0.8838
  876MOL0     C20773   4.784   2.384   2.815  0.0428 -0.5019 -0.3728
  876MOL0     O20774   4.832   2.513   2.853 -0.5530 -0.2228  0.1906
  876MOL0     C20775   4.788   2.568   2.977  1.1814 -0.5214  0.3662
  876MOL0     C20776   4.719   2.489   3.075  0.6264  0.5191  0.5191
  876MOL0     C20777   4.684   2.543   3.201 -0.2233 -0.8835 -0.5849
  876MOL0     C20778   4.605   2.459   3.289 -0.5773 -0.8611  0.2995
  876MOL0     C20779   4.716   2.674   3.235 -0.3909 -0.5831 -0.1351
  876MOL0     C20780   4.691   2.736   3.371 -0.3618 -1.8357  0.0386
  876MOL0     O20781   4.771   2.853   3.391  0.3775  0.1010 -0.0663
  876MOL0     C20782   4.776   2.946   3.492 -0.0718 -0.1348 -0.6174
  876MOL0     C20783   4.858   3.058   3.468  0.0959 -0.2768 -0.2097
  876MOL0     C20784   4.879   3.147   3.568 -1.5347  1.1249 -0.1094
  876MOL0     C20785   4.814   3.141   3.701 -0.5380  0.7803  0.9615
  876MOL0     O20786   4.824   3.235   3.787  0.5504 -0.6320 -0.0567
  876MOL0     C20787   4.845   3.183   3.926  0.2249 -0.5103  0.4930
  876MOL0     C20788   4.985   3.198   3.962 -0.0567 -0.0637  0.7333
  876MOL0     C20789   4.996   3.195   4.119 -0.0560  1.0030  0.8198
  876MOL0     C20790   4.945   3.053   4.182 -0.4608 -0.9204 -0.4519
  876MOL0     C20791   4.989   3.024   4.322  1.0870 -1.0732  0.5093
  876MOL0     C20792   4.955   3.129   4.435 -0.2115  0.2446  0.2840
  876MOL0     C20793   5.009   3.070   4.562  0.4227  0.0515  0.5379
  876MOL0     C20794   5.010   3.173   4.677  0.4250 -1.0086  0.0587
  876MOL0    Cl20795   4.834   3.238   4.708  0.0286  0.5127  0.0978
  876MOL0     C20796   4.731   3.020   3.722  0.2956 -0.3341 -0.3261
  876MOL0     C20797   4.713   2.923   3.622  0.0471 -0.8134  0.0483
  876MOL0     O20798   4.619   2.694   3.457 -0.2613  0.5620 -0.0197
  876MOL0     C20799   4.806   2.743   3.151  0.6033 -0.2952  0.9109
  876MOL0     C20800   4.841   2.682   3.026 -0.0351 -0.5679  0.8639
  876MOL0     N20801   5.296   2.195   2.712 -0.1927  0.9118  1.5827
  876MOL0     N20802   5.404   2.227   2.647 -0.4359  0.4151  0.5293
  876MOL0     C20803   5.779   2.827   3.459 -0.5010 -0.6847  0.7960
  876MOL0     C20804   5.872   2.916   3.515  0.6448  0.8944  0.8133
  876MOL0     C20805   6.117   3.231   3.670 -0.3842  0.1167 -0.2475
  876MOL0     C20806   6.160   3.333   3.579 -0.3866 -0.2032  1.0491
  876MOL0     C20807   6.195   3.457   3.629  0.7989 -0.1089  0.1697
  876MOL0     C20808   6.210   3.479   3.760  0.7031 -0.5662  0.8090
  876MOL0     O20809   6.252   3.599   3.819  1.0212  0.7663  0.2075
  876MOL0     C20810   6.195   3.720   3.760  1.0978 -0.2490  0.5660
  876MOL0     C20811   6.074   3.755   3.850 -0.1999  0.4754  0.1258
  876MOL0     C20812   6.093   3.774   4.001 -0.1746 -1.0069 -0.9253
  876MOL0     C20813   6.193   3.891   4.032  0.4781  0.8076  0.9233
  876MOL0     C20814   6.170   3.937   4.168 -0.2918 -0.8272 -0.4029
  876MOL0     C20815   6.158   4.010   4.264  0.9465 -0.2406 -0.7871
  876MOL0     C20816   6.173   3.383   3.848  0.8890  0.9015 -0.2967
  876MOL0     C20817   6.116   3.263   3.807  0.8309  0.2992  0.4466
  876MOL0     C20818   6.064   3.172   3.917 -0.6231 -0.2305 -0.7672
  876MOL0     H20819   5.966   3.081   3.231  3.5583 -1.0690  0.4697
  876MOL0     H20820   5.809   2.921   3.134  1.2505 -0.7113 -0.7125
  876MOL0     H20821   5.592   2.864   3.120 -1.4853  1.0714 -2.5886
  876MOL0     H20822   5.529   2.693   3.118  0.3151  0.7244  1.8617
  876MOL0     H20823   5.732   2.813   2.952 -6.4294  0.3664 -3.8903
  876MOL0     H20824   5.808   2.685   3.059 -1.9618 -1.7866  2.3399
  876MOL0     H20825   5.664   2.511   2.951  3.4551  0.0037  0.0426
  876MOL0     H20826   5.545   2.632   2.901  0.9958  1.3891 -1.9362
  876MOL0     H20827   5.739   2.723   2.760 -1.7221  0.0544  1.8042
  876MOL0     H20828   5.848   2.605   2.803  0.3144  0.4005 -3.1938
  876MOL0     H20829   5.701   2.438   2.676  1.3865  0.4130  2.5699
  876MOL0     H20830   5.745   2.575   2.580 -0.8024 -2.6590 -2.6151
  876MOL0     H20831   5.481   2.512   2.716 -0.5594  0.1065 -0.1088
  876MOL0     H20832   5.506   2.674   2.655  0.5519  1.1626  0.0536
  876MOL0     H20833   5.582   2.562   2.432 -0.6571  0.4061  1.8610
  876MOL0     H20834   5.406   2.577   2.473  1.2404  3.2502 -2.2550
  876MOL0     H20835   5.471   2.378   2.358 -0.3330  0.8761  0.1914
  876MOL0     H20836   5.573   2.334   2.485 -1.7576 -2.7972  1.0501
  876MOL0     H20837   5.190   2.404   2.483  3.7367  1.9959 -2.3456
  876MOL0     H20838   5.034   2.250   2.792  2.4671  0.2827  1.0944
  876MOL0     H20839   5.002   2.149   2.648  2.4095 -1.3058  1.6499
  876MOL0     H20840   5.001   2.454   2.634  1.3945  0.6789 -1.3650
  876MOL0     H20841   4.937   2.337   2.514 -2.9995 -2.9338  1.3815
  876MOL0     H20842   4.746   2.403   2.602  1.9950  2.1201 -3.0013
  876MOL0     H20843   4.789   2.236   2.662 -0.7855  0.9017  1.8631
  876MOL0     H20844   4.678   2.382   2.839 -0.3444  2.7443 -1.2998
  876MOL0     H20845   4.845   2.319   2.878 -0.7302 -1.1760 -0.3073
  876MOL0     H20846   4.674   2.397   3.038  0.6831  0.9316 -0.6183
  876MOL0     H20847   4.638   2.459   3.394  0.1886  1.2783  0.1033
  876MOL0     H20848   4.613   2.353   3.261  0.7525 -1.1285  1.5243
  876MOL0     H20849   4.504   2.500   3.294 -0.1334  0.6217 -1.7173
  876MOL0     H20850   4.906   3.073   3.372 -0.8798  0.5298 -0.5874
  876MOL0     H20851   4.939   3.236   3.547 -1.3587  1.3361  1.1594
  876MOL0     H20852   4.782   3.237   3.997 -2.3773 -1.5277 -0.8946
  876MOL0     H20853   4.814   3.080   3.948 -2.2869  0.1997  0.5992
  876MOL0     H20854   5.049   3.127   3.910  0.3052  3.2232 -3.8934
  876MOL0     H20855   5.033   3.290   3.927  0.7488 -1.4985 -2.1676
  876MOL0     H20856   4.932   3.275   4.158 -0.5846  1.2871 -0.5708
  876MOL0     H20857   5.102   3.209   4.144 -0.1561  0.6599  1.4618
  876MOL0     H20858   4.979   2.963   4.131  1.8129 -0.4239  0.0725
  876MOL0     H20859   4.835   3.047   4.179 -0.5991  0.1355  1.2158
  876MOL0     H20860   4.950   2.927   4.355 -1.2648 -0.5656 -0.5641
  876MOL0     H20861   5.098   3.031   4.330  1.1342 -2.6919  1.8181
  876MOL0     H20862   4.847   3.135   4.446 -0.2005  0.6232  0.1979
  876MOL0     H20863   5.004   3.223   4.406  0.1022 -0.8412 -3.2472
  876MOL0     H20864   5.111   3.043   4.532 -0.0169  2.3630 -3.8729
  876MOL0     H20865   4.940   2.992   4.595 -1.0573  0.2211 -1.9000
  876MOL0     H20866   5.057   3.269   4.654 -1.6853  0.2147  0.6075
  876MOL0     H20867   5.053   3.139   4.771 -0.4399 -1.4197  0.3176
  876MOL0     H20868   4.676   3.017   3.816 -3.3534  2.4372 -2.1019
  876MOL0     H20869   4.674   2.825   3.646  3.6146 -2.7290 -1.2684
  876MOL0     H20870   4.844   2.842   3.174 -1.9414  0.9774  0.0041
  876MOL0     H20871   4.904   2.738   2.957  0.8138 -0.9518  1.3043
  876MOL0     H20872   5.729   2.754   3.523  1.7738 -1.2213  2.0742
  876MOL0     H20873   5.886   2.906   3.622  0.4590  0.0372  0.7612
  876MOL0     H20874   6.157   3.301   3.476 -1.5718 -2.5561  1.7458
  876MOL0     H20875   6.225   3.532   3.557 -2.5044  1.2506  0.0230
  876MOL0     H20876   6.266   3.803   3.772 -0.1851  0.7346  1.6834
  876MOL0     H20877   6.161   3.705   3.657  0.4791 -1.5995  0.9560
  876MOL0     H20878   5.995   3.683   3.828  0.0379  0.7843 -1.8829
  876MOL0     H20879   6.032   3.845   3.804 -0.7194  0.8803  1.3438
  876MOL0     H20880   5.996   3.795   4.048  0.7565  1.8007 -0.0812
  876MOL0     H20881   6.128   3.677   4.039  0.1870 -0.3619  0.4444
  876MOL0     H20882   6.166   3.969   3.960 -1.8524 -1.2207 -0.5675
  876MOL0     H20883   6.297   3.864   4.011 -0.8249 -2.6553 -2.2066
  876MOL0     H20884   6.156   4.080   4.345 -2.5303 -1.7732  0.6189
  876MOL0     H20885   6.172   3.419   3.950 -2.7641 -0.4024  0.3030
  876MOL0     H20886   6.110   3.072   3.917 -0.7283 -0.3108 -2.7995
  876MOL0     H20887   6.081   3.198   4.022  1.7299  1.2501 -1.4226
  876MOL0     H20888   5.957   3.151   3.919 -0.1916 -2.7894 -0.3157
  877MOL0     O20889   6.039   2.240   3.685 -0.6553  0.8448  0.4488
  877MOL0     C20890   6.152   2.270   3.650  0.1668  0.2069 -0.4924
  877MOL0     O20891   6.268   2.187   3.670 -0.0106  0.3577 -0.3889
  877MOL0     C20892   6.272   2.104   3.782 -0.0689  0.4202 -0.0672
  877MOL0     C20893   6.247   2.156   3.909  0.7096 -0.3845 -0.1672
  877MOL0     C20894   6.249   2.072   4.016  1.2423  0.6632  0.0445
  877MOL0     C20895   6.264   1.930   3.996  0.0532 -0.9773  0.2155
  877MOL0     O20896   6.251   1.852   4.109  0.1059 -0.4940  0.2956
  877MOL0     C20897   6.246   1.704   4.088 -0.7516  0.1661  0.1452
  877MOL0     C20898   6.220   1.637   4.215  0.6323  0.1195  0.2802
  877MOL0     C20899   6.271   1.490   4.219 -0.0337 -1.1576 -0.1369
  877MOL0     C20900   6.214   1.401   4.111  0.5799  0.8334  0.5772
  877MOL0     C20901   6.266   1.251   4.117  0.0232 -0.2682 -0.6900
  877MOL0     C20902   6.151   1.159   4.072 -0.2958  0.5642  0.6720
  877MOL0     C20903   6.169   1.015   4.127  0.0789 -0.9514 -0.0332
  877MOL0     C20904   6.063   0.915   4.083  0.3036 -0.0542 -0.3842
  877MOL0     N20905   6.073   0.786   4.144 -0.4407  0.4022  1.0516
  877MOL0     C20906   5.971   0.697   4.145  0.1753  0.5543 -0.0462
  877MOL0     C20907   6.026   0.591   4.211 -1.4189  0.7071 -0.0845
  877MOL0     C20908   5.963   0.475   4.280 -0.3786 -0.0672 -0.5267
  877MOL0     C20909   5.943   0.503   4.426 -0.4131 -0.3812  0.7115
  877MOL0     C20910   5.862   0.385   4.487  0.4804 -0.3906 -0.3051
  877MOL0     C20911   5.790   0.439   4.618  0.3915  0.2255  0.7260
  877MOL0     O20912   5.897   0.473   4.713  0.7165 -0.0272  0.2024
  877MOL0     C20913   5.962   0.381   4.786 -0.2865  0.3397 -0.4741
  877MOL0     C20914   6.096   0.343   4.763 -0.0515  0.4878  0.9522
  877MOL0     C20915   6.172   0.275   4.854 -0.3278  1.1629  0.5761
  877MOL0     C20916   6.308   0.251   4.809 -0.1446  1.1609  0.4792
  877MOL0     C20917   6.106   0.226   4.970  0.5375 -0.2659  0.1576
  877MOL0     C20918   6.159   0.140   5.077 -0.2062  0.2281  0.2605
  877MOL0     O20919   6.084   0.124   5.192 -0.0198  0.7351  0.7596
  877MOL0     C20920   6.128   0.016   5.266 -0.3629 -0.3095 -0.2311
  877MOL0     C20921   6.242   0.026   5.343  0.1134 -0.5241 -0.2704
  877MOL0     C20922   6.305  -0.089   5.385  0.3376 -0.7948  0.1431
  877MOL0     C20923   6.256  -0.217   5.359 -0.2327  0.2373  0.6210
  877MOL0     O20924   6.305  -0.337   5.396  0.3575 -0.4743 -0.5730
  877MOL0     C20925   6.417  -0.357   5.482  0.3576 -0.0697 -1.0209
  877MOL0     C20926   6.401  -0.481   5.570 -0.0867 -0.3151 -0.1407
  877MOL0     C20927   6.345  -0.607   5.499 -0.8708  0.5058  0.2768
  877MOL0     C20928   6.387  -0.739   5.573 -0.0642 -0.3403  1.1533
  877MOL0     C20929   6.285  -0.847   5.550  0.5452 -0.1550 -0.4320
  877MOL0     C20930   6.320  -0.967   5.645 -0.1060  0.0477  0.1468
  877MOL0     C20931   6.205  -1.066   5.660 -0.4830  0.4746  0.2333
  877MOL0     C20932   6.228  -1.166   5.774 -0.7833  0.1097  0.4187
  877MOL0    Cl20933   6.325  -1.301   5.707 -0.5943  0.2711  0.1850
  877MOL0     C20934   6.137  -0.228   5.287 -0.2661  0.0486  0.0707
  877MOL0     C20935   6.078  -0.108   5.237 -0.9595  1.3514 -0.4932
  877MOL0     O20936   6.267   0.090   5.054 -0.1468  0.0404 -0.0144
  877MOL0     C20937   5.969   0.247   4.990 -0.0651  0.0549  0.0164
  877MOL0     C20938   5.897   0.325   4.896 -0.4151  0.6163 -0.1421
  877MOL0     N20939   6.164   0.612   4.242 -0.0441  0.2526  0.1514
  877MOL0     N20940   6.191   0.730   4.184  0.2957 -0.3667 -0.5619
  877MOL0     C20941   6.295   1.883   3.863  0.6147  0.4514  0.0440
  877MOL0     C20942   6.306   1.972   3.758 -0.1439 -0.1478 -0.6737
  877MOL0     C20943   6.185   2.392   3.572  0.1775 -0.1248  0.1591
  877MOL0     C20944   6.320   2.413   3.523  0.0140 -0.0950  0.1167
  877MOL0     C20945   6.343   2.530   3.451 -0.1816 -0.1625  0.3052
  877MOL0     C20946   6.247   2.624   3.416 -0.2514  0.1791  0.4906
  877MOL0     O20947   6.264   2.716   3.322  0.4151  0.1235  0.7003
  877MOL0     C20948   6.229   2.847   3.342  0.5334 -0.1892  0.2142
  877MOL0     C20949   6.331   2.946   3.280  0.4638  0.0074  0.1732
  877MOL0     C20950   6.373   2.907   3.136  0.5221 -0.5433  0.0658
  877MOL0     C20951   6.303   2.999   3.030  0.4389 -0.7175 -0.2137
  877MOL0     C20952   6.166   2.956   3.002 -0.0323  0.2464  0.9570
  877MOL0     C20953   6.058   2.914   2.980  0.1744  0.4496 -0.2106
  877MOL0     C20954   6.117   2.607   3.470 -0.7034  0.0015  0.2253
  877MOL0     C20955   6.087   2.492   3.551 -0.1875 -0.8375 -1.2894
  877MOL0     C20956   5.951   2.499   3.619 -0.1251  0.4956  0.0261
  877MOL0     H20957   6.218   2.260   3.922  1.3531 -0.2637  0.3650
  877MOL0     H20958   6.229   2.119   4.112 -2.4953  0.9909 -0.7378
  877MOL0     H20959   6.340   1.662   4.051 -1.4865 -1.2305 -0.2043
  877MOL0     H20960   6.170   1.684   4.012  2.0223 -0.4715 -2.6642
  877MOL0     H20961   6.273   1.682   4.299  0.0094  0.8527  0.2838
  877MOL0     H20962   6.111   1.641   4.217  0.6079 -0.4910  0.6919
  877MOL0     H20963   6.380   1.504   4.213 -0.3637  1.7794 -1.1440
  877MOL0     H20964   6.244   1.449   4.316 -0.1361  0.7661  0.6890
  877MOL0     H20965   6.105   1.400   4.119  0.3705  1.9535 -1.4672
  877MOL0     H20966   6.236   1.427   4.007 -0.0907 -0.9747 -0.0613
  877MOL0     H20967   6.304   1.233   4.218  1.4968  0.8077 -1.0085
  877MOL0     H20968   6.350   1.257   4.047  2.0385  4.1618  1.6805
  877MOL0     H20969   6.049   1.198   4.074 -0.6335 -0.1778 -0.7251
  877MOL0     H20970   6.181   1.157   3.967 -2.9868  0.5397 -0.1682
  877MOL0     H20971   6.156   1.038   4.233  0.7510 -2.7301  0.4758
  877MOL0     H20972   6.275   0.987   4.118 -0.5507 -3.1417 -1.6121
  877MOL0     H20973   5.964   0.952   4.112 -0.0039 -1.4671  0.4904
  877MOL0     H20974   6.066   0.900   3.975 -1.8461 -0.5630 -0.4287
  877MOL0     H20975   5.869   0.713   4.114  0.5105  0.5335 -1.1810
  877MOL0     H20976   6.034   0.392   4.276  0.7180  0.8970 -2.2195
  877MOL0     H20977   5.876   0.438   4.224 -2.2029  2.8378  0.1446
  877MOL0     H20978   6.041   0.516   4.473 -0.1827 -0.6547  0.3108
  877MOL0     H20979   5.876   0.589   4.426  0.0213  0.0340 -1.9502
  877MOL0     H20980   5.787   0.347   4.417  1.2827 -0.4562 -1.1468
  877MOL0     H20981   5.927   0.300   4.508  2.3351  0.8627 -0.7219
  877MOL0     H20982   5.726   0.525   4.594  1.2228  1.3767  2.4171
  877MOL0     H20983   5.719   0.369   4.663 -0.9498 -0.5973 -2.4137
  877MOL0     H20984   6.144   0.360   4.667 -3.1311  1.7866 -0.5151
  877MOL0     H20985   6.324   0.143   4.797 -1.4389  0.9340  0.6747
  877MOL0     H20986   6.371   0.290   4.889  0.0108  0.1594  0.8689
  877MOL0     H20987   6.344   0.304   4.720 -0.6830  0.9797  0.1514
  877MOL0     H20988   6.287   0.125   5.344  0.7107 -0.6633 -3.3134
  877MOL0     H20989   6.396  -0.084   5.444  0.2536  2.2298  0.1838
  877MOL0     H20990   6.512  -0.356   5.428  1.1368  0.1647  0.3119
  877MOL0     H20991   6.426  -0.274   5.552 -0.9625  0.9011 -1.9363
  877MOL0     H20992   6.501  -0.500   5.611 -0.1274 -0.4569 -0.1074
  877MOL0     H20993   6.341  -0.463   5.659  0.6479 -2.8337  0.9557
  877MOL0     H20994   6.373  -0.604   5.393 -0.3037  0.1512  0.4109
  877MOL0     H20995   6.236  -0.612   5.490 -0.6735 -1.0000 -2.1576
  877MOL0     H20996   6.400  -0.713   5.678 -0.3927 -3.8954  2.1999
  877MOL0     H20997   6.485  -0.775   5.539  0.0941  2.0756 -1.2868
  877MOL0     H20998   6.188  -0.805   5.577  1.3317  0.9081  0.8214
  877MOL0     H20999   6.288  -0.875   5.444  0.8216  0.0685 -0.4840
  877MOL0     H21000   6.342  -0.931   5.746  2.7362  0.7548 -0.6081
  877MOL0     H21001   6.417  -1.016   5.630  0.1184  0.2203  0.9817
  877MOL0     H21002   6.174  -1.101   5.561  1.7989  2.9192 -1.4813
  877MOL0     H21003   6.121  -1.002   5.685 -1.3616 -0.3378 -0.5460
  877MOL0     H21004   6.133  -1.205   5.811  1.2236 -3.0241  2.7972
  877MOL0     H21005   6.296  -1.129   5.852 -1.4220  0.6721  0.7225
  877MOL0     H21006   6.090  -0.323   5.265  1.6579 -1.2151  1.1394
  877MOL0     H21007   5.997  -0.124   5.166  0.5110 -3.2976 -1.4469
  877MOL0     H21008   5.911   0.223   5.079  0.8148 -0.6373  0.4078
  877MOL0     H21009   5.793   0.353   4.913 -0.9115 -0.3220 -1.4682
  877MOL0     H21010   6.289   1.780   3.831 -1.3156  1.3819 -2.9790
  877MOL0     H21011   6.307   1.922   3.661  0.6126 -0.4956 -0.4938
  877MOL0     H21012   6.402   2.349   3.554  0.3882  1.7839  3.4625
  877MOL0     H21013   6.440   2.552   3.409  1.4044 -1.1014  3.2498
  877MOL0     H21014   6.128   2.855   3.302  0.0002  0.3679  1.5859
  877MOL0     H21015   6.224   2.882   3.446 -0.5320  2.0161 -0.5144
  877MOL0     H21016   6.420   2.939   3.344  1.5876 -0.4168 -1.3928
  877MOL0     H21017   6.295   3.048   3.298  0.4333 -0.1416  0.9947
  877MOL0     H21018   6.482   2.907   3.133  0.6693  2.4762  1.4624
  877MOL0     H21019   6.355   2.800   3.119 -1.7818 -0.3960  1.1320
  877MOL0     H21020   6.355   3.002   2.934  0.7367  1.9538 -0.0494
  877MOL0     H21021   6.309   3.102   3.066  0.6047 -0.7277 -0.2116
  877MOL0     H21022   5.962   2.873   2.953  0.9653 -2.0069  0.4853
  877MOL0     H21023   6.045   2.685   3.450  0.7028  2.8660  4.8748
  877MOL0     H21024   5.891   2.580   3.576 -2.5972 -1.4712 -0.4229
  877MOL0     H21025   5.906   2.401   3.602 -0.4872  0.7314 -0.4126
  877MOL0     H21026   5.969   2.513   3.726  0.3880 -1.4096  0.2280
  878MOL0     O21027  11.152   6.559   0.593 -0.0560 -0.1534  0.2584
  878MOL0     C21028  11.044   6.503   0.575  0.3123 -0.5366  0.2294
  878MOL0     O21029  10.934   6.528   0.646  0.1464 -0.5241 -0.1275
  878MOL0     C21030  10.936   6.631   0.747  1.3260 -0.4296 -0.0921
  878MOL0     C21031  10.860   6.745   0.711 -0.6259 -0.1346  0.3952
  878MOL0     C21032  10.878   6.862   0.782  0.1494 -0.0610  0.0465
  878MOL0     C21033  10.958   6.867   0.898  0.2787 -0.2790  0.2991
  878MOL0     O21034  10.953   6.976   0.960 -0.2497  0.8519 -0.4639
  878MOL0     C21035  11.043   6.999   1.073  0.3380  0.0355  1.1380
  878MOL0     C21036  11.039   7.143   1.104  0.1935  0.9187  0.0102
  878MOL0     C21037  11.176   7.197   1.164 -0.2194 -0.0375  0.3312
  878MOL0     C21038  11.163   7.207   1.315 -0.4748  0.2897  0.6259
  878MOL0     C21039  11.047   7.303   1.362 -0.0711 -0.0277 -0.7718
  878MOL0     C21040  11.064   7.352   1.513  0.5973 -0.0831  0.8700
  878MOL0     C21041  10.943   7.424   1.547 -0.7187 -0.4517 -0.4096
  878MOL0     C21042  10.957   7.486   1.694  0.2014  0.5765  0.1404
  878MOL0     N21043  10.837   7.541   1.740 -0.4632 -0.4467 -0.4515
  878MOL0     C21044  10.712   7.489   1.715  0.1201 -0.6858  0.0158
  878MOL0     C21045  10.621   7.574   1.759  0.2510 -0.5042  0.5622
  878MOL0     C21046  10.470   7.562   1.749 -0.2449  0.2443  1.1688
  878MOL0     C21047  10.387   7.681   1.779  0.7484 -1.3206 -0.9265
  878MOL0     C21048  10.235   7.651   1.773 -0.3316 -0.5686 -0.3860
  878MOL0     C21049  10.200   7.598   1.636  0.2577 -0.4203  0.8429
  878MOL0     O21050  10.276   7.643   1.525 -0.6133 -0.0294  0.3275
  878MOL0     C21051  10.286   7.769   1.479 -0.1339  0.4228  0.5074
  878MOL0     C21052  10.407   7.805   1.414  1.0169  0.1405 -0.1561
  878MOL0     C21053  10.419   7.922   1.335 -0.1839  0.7451  0.7289
  878MOL0     C21054  10.536   7.947   1.244 -0.1186 -0.4360 -0.2809
  878MOL0     C21055  10.306   8.013   1.324 -0.2834  0.4769  0.2866
  878MOL0     C21056  10.295   8.144   1.256 -0.2230  0.4729 -0.0459
  878MOL0     O21057  10.193   8.157   1.167 -0.6341  0.4179  1.1627
  878MOL0     C21058  10.197   8.264   1.082 -0.3591 -0.9455 -0.1423
  878MOL0     C21059  10.238   8.252   0.950  0.5935 -0.5063 -0.0655
  878MOL0     C21060  10.235   8.364   0.862  0.4821  0.7915  0.3161
  878MOL0     C21061  10.188   8.486   0.912 -0.0788 -0.1170  0.4865
  878MOL0     O21062  10.183   8.601   0.832 -0.5603  0.0212 -1.0072
  878MOL0     C21063  10.242   8.604   0.697  0.6886 -0.5600 -0.8080
  878MOL0     C21064  10.220   8.744   0.650  0.1356 -0.1685 -0.6621
  878MOL0     C21065  10.246   8.762   0.499 -0.4866 -0.7747  0.4409
  878MOL0     C21066  10.279   8.905   0.468 -0.1331 -0.0396 -0.6755
  878MOL0     C21067  10.297   8.935   0.318  0.8104 -0.4864  0.7134
  878MOL0     C21068  10.264   9.089   0.281 -0.4385  0.1426  0.3060
  878MOL0     C21069  10.116   9.124   0.316  0.2617 -0.1824 -1.0579
  878MOL0     C21070  10.070   9.240   0.240 -0.4169  0.2614  0.1394
  878MOL0    Cl21071   9.890   9.259   0.281 -0.3181 -0.3321  0.2132
  878MOL0     C21072  10.152   8.497   1.047  0.2049 -0.2336  0.0198
  878MOL0     C21073  10.158   8.387   1.137  1.0580  0.0140  0.0723
  878MOL0     O21074  10.374   8.238   1.288  0.0188  0.4879  0.3241
  878MOL0     C21075  10.185   7.973   1.394  0.5165 -0.6515 -0.0391
  878MOL0     C21076  10.175   7.858   1.471 -0.2018  0.5345  0.9848
  878MOL0     N21077  10.692   7.685   1.812  0.5288 -0.4698  1.0331
  878MOL0     N21078  10.821   7.671   1.800  0.5240 -0.4466  0.1472
  878MOL0     C21079  11.013   6.745   0.937 -0.4598  0.2481 -0.4389
  878MOL0     C21080  11.011   6.629   0.862 -0.3359  0.2284 -0.5680
  878MOL0     C21081  11.026   6.393   0.477 -0.3821  0.6884  0.5886
  878MOL0     C21082  10.900   6.330   0.474  0.1782  0.1017 -0.2147
  878MOL0     C21083  10.872   6.213   0.396 -0.2238 -0.1952 -0.0790
  878MOL0     C21084  10.982   6.163   0.321  0.4339  0.2405 -0.3868
  878MOL0     O21085  10.974   6.059   0.231 -0.5567  0.4830 -0.1016
  878MOL0     C21086  10.862   5.977   0.254 -0.4619  0.3373  0.3557
  878MOL0     C21087  10.831   5.854   0.160 -0.6697  0.8665  0.5573
  878MOL0     C21088  10.754   5.738   0.217  0.5473 -0.4984  0.2764
  878MOL0     C21089  10.613   5.751   0.179  0.3782  0.3497 -0.0678
  878MOL0     C21090  10.538   5.861   0.241 -0.2592  0.0126 -0.5912
  878MOL0     C21091  10.483   5.956   0.289  0.6246  0.8298  0.2622
  878MOL0     C21092  11.110   6.220   0.333 -0.3051  0.5103  0.5777
  878MOL0     C21093  11.135   6.333   0.407 -0.8324 -0.0951 -0.2301
  878MOL0     C21094  11.264   6.407   0.391 -0.3072 -0.7169 -0.9495
  878MOL0     H21095  10.803   6.748   0.619  1.1794 -2.7919 -0.9205
  878MOL0     H21096  10.826   6.949   0.742 -1.5415 -2.0429 -2.4023
  878MOL0     H21097  11.147   6.971   1.054  1.1012  0.1434  4.5531
  878MOL0     H21098  11.013   6.940   1.160 -0.4008  2.0636  2.3217
  878MOL0     H21099  11.032   7.187   1.004 -3.5189 -0.9018 -0.7251
  878MOL0     H21100  10.948   7.168   1.160 -0.6455 -3.7576  1.1852
  878MOL0     H21101  11.265   7.141   1.138 -1.4425 -3.5327  2.9652
  878MOL0     H21102  11.183   7.298   1.122  1.6393 -0.0327  0.5993
  878MOL0     H21103  11.158   7.106   1.356  0.8076 -0.1115 -0.1404
  878MOL0     H21104  11.256   7.251   1.353  2.0824 -1.8261 -2.6380
  878MOL0     H21105  10.948   7.259   1.345  0.4299 -1.0679 -1.1056
  878MOL0     H21106  11.042   7.395   1.303 -4.6930 -0.0013 -0.7067
  878MOL0     H21107  11.067   7.279   1.593 -3.5968 -0.3897  0.9438
  878MOL0     H21108  11.146   7.425   1.518 -1.2422  2.1991 -0.0628
  878MOL0     H21109  10.866   7.347   1.549 -0.9897 -0.2067 -1.1685
  878MOL0     H21110  10.919   7.505   1.477  1.1066  0.9458  0.4994
  878MOL0     H21111  10.996   7.414   1.767 -3.4730  1.0719  2.9046
  878MOL0     H21112  11.034   7.565   1.692 -0.8489  1.7061 -3.9102
  878MOL0     H21113  10.686   7.389   1.680  1.7433 -0.6914 -1.2922
  878MOL0     H21114  10.439   7.484   1.820  0.5622 -2.4232 -1.2394
  878MOL0     H21115  10.437   7.518   1.655 -0.5834  0.3432  1.2405
  878MOL0     H21116  10.410   7.736   1.871 -0.4798 -0.9044 -0.8426
  878MOL0     H21117  10.409   7.753   1.700 -4.1378 -0.2803 -1.6849
  878MOL0     H21118  10.206   7.588   1.857 -2.6188  2.0070  0.9007
  878MOL0     H21119  10.174   7.742   1.784 -0.2052 -0.4883 -0.3479
  878MOL0     H21120  10.206   7.489   1.649 -2.2770 -0.6460  0.5170
  878MOL0     H21121  10.094   7.623   1.631  0.0813 -0.8054  2.1778
  878MOL0     H21122  10.483   7.728   1.405 -0.3459 -1.3017  0.1613
  878MOL0     H21123  10.593   8.037   1.270 -1.4925 -0.0655  1.6583
  878MOL0     H21124  10.487   7.947   1.146 -1.4468 -1.3280  0.3569
  878MOL0     H21125  10.611   7.868   1.246 -0.8956 -1.1817 -0.0830
  878MOL0     H21126  10.250   8.151   0.912  0.4610 -0.6041  0.1463
  878MOL0     H21127  10.262   8.332   0.762 -0.2621 -2.9973  1.1935
  878MOL0     H21128  10.348   8.575   0.695  0.8847  0.0411 -3.9499
  878MOL0     H21129  10.174   8.538   0.642  0.3769 -0.9295  0.0016
  878MOL0     H21130  10.120   8.776   0.681  1.0269  1.4583  0.6337
  878MOL0     H21131  10.293   8.796   0.712 -2.2732 -0.8326  3.0632
  878MOL0     H21132  10.163   8.712   0.448  1.8092 -4.6653  0.1497
  878MOL0     H21133  10.328   8.699   0.464 -0.9918 -0.4685 -1.4381
  878MOL0     H21134  10.375   8.934   0.512  0.2600 -1.3801 -0.6056
  878MOL0     H21135  10.205   8.966   0.521  1.0887  0.3100  0.7018
  878MOL0     H21136  10.401   8.913   0.290  0.2275  1.2183 -3.6486
  878MOL0     H21137  10.243   8.867   0.251  2.5899 -1.1549 -0.1048
  878MOL0     H21138  10.269   9.104   0.173 -2.2051  2.1116  0.4367
  878MOL0     H21139  10.338   9.153   0.331 -0.4742  0.1130  0.3964
  878MOL0     H21140  10.097   9.157   0.419  0.8823  0.0346 -1.0088
  878MOL0     H21141  10.062   9.030   0.302  3.3426 -2.4377  0.8723
  878MOL0     H21142  10.080   9.222   0.133 -1.2425 -1.0257  0.2518
  878MOL0     H21143  10.125   9.331   0.265 -2.5839  1.3318  1.3489
  878MOL0     H21144  10.123   8.593   1.088 -1.0861 -0.7054  0.2608
  878MOL0     H21145  10.143   8.389   1.244  4.7682  0.1886  0.7156
  878MOL0     H21146  10.101   8.042   1.394 -0.4807 -1.8098  1.0519
  878MOL0     H21147  10.090   7.848   1.537 -0.8863  1.5753  0.3021
  878MOL0     H21148  11.060   6.738   1.035  1.3111 -1.4489 -1.3474
  878MOL0     H21149  11.072   6.548   0.900 -0.1302  1.6101  2.2724
  878MOL0     H21150  10.826   6.371   0.543  1.4436  1.9559  0.1080
  878MOL0     H21151  10.770   6.175   0.403  0.8639 -3.0417  1.8828
  878MOL0     H21152  10.859   5.939   0.357  3.3364 -2.1166 -0.2346
  878MOL0     H21153  10.776   6.038   0.225  0.2759  0.6044 -1.3570
  878MOL0     H21154  10.934   5.824   0.139 -1.0624 -0.0954 -0.0424
  878MOL0     H21155  10.784   5.879   0.064  0.4010 -2.9385 -1.1346
  878MOL0     H21156  10.784   5.646   0.166  0.2334  0.0390 -0.9315
  878MOL0     H21157  10.782   5.719   0.321  0.8589 -0.4374  0.2050
  878MOL0     H21158  10.564   5.654   0.196 -3.5740  1.7074 -2.3001
  878MOL0     H21159  10.607   5.755   0.070  1.5365  1.4159 -0.1056
  878MOL0     H21160  10.415   6.020   0.342  0.6205 -0.4294  1.8354
  878MOL0     H21161  11.191   6.176   0.276 -1.0493  0.5369 -0.5217
  878MOL0     H21162  11.322   6.386   0.482 -3.6956 -0.0186  1.5565
  878MOL0     H21163  11.329   6.378   0.307  1.7110  1.1200 -0.1256
  878MOL0     H21164  11.253   6.513   0.367  0.2808 -0.5233 -0.3999
  879MOL0     O21165   8.907   6.001   1.581  0.9072 -0.5773  0.5024
  879MOL0     C21166   8.912   6.104   1.512 -0.2604  0.3403 -0.0259
  879MOL0     O21167   9.027   6.133   1.437  0.6460 -1.0370  0.0673
  879MOL0     C21168   9.124   6.042   1.410  0.7682  0.2270 -0.3570
  879MOL0     C21169   9.169   6.031   1.281  0.0159  0.3188  0.6459
  879MOL0     C21170   9.257   5.927   1.243  0.2712 -0.7569  0.5265
  879MOL0     C21171   9.309   5.850   1.350 -0.1591 -0.0985  0.0885
  879MOL0     O21172   9.399   5.759   1.298 -0.6319  0.5551 -0.4763
  879MOL0     C21173   9.519   5.731   1.391  1.2673  0.1719 -0.5328
  879MOL0     C21174   9.490   5.632   1.509 -1.7836 -0.3882 -0.0331
  879MOL0     C21175   9.449   5.499   1.451 -0.1310  0.8368 -0.5356
  879MOL0     C21176   9.439   5.385   1.551  0.0486  0.1704  0.1467
  879MOL0     C21177   9.302   5.362   1.620  0.5377  0.7436  1.0841
  879MOL0     C21178   9.329   5.266   1.734 -0.1979  0.3019 -0.1606
  879MOL0     C21179   9.203   5.200   1.792  0.1045  0.0624  0.1938
  879MOL0     C21180   9.134   5.100   1.696 -0.5491  0.2652  0.3224
  879MOL0     N21181   9.176   4.961   1.724  0.3942 -0.3916 -0.1851
  879MOL0     C21182   9.298   4.907   1.729  0.5426 -0.3305 -0.1688
  879MOL0     C21183   9.283   4.781   1.767  0.0118  0.5037 -0.4734
  879MOL0     C21184   9.370   4.657   1.766 -0.1397  0.4617  0.1909
  879MOL0     C21185   9.431   4.625   1.901  0.0910  0.4228  0.0148
  879MOL0     C21186   9.564   4.706   1.911  0.5200  1.1892 -0.1438
  879MOL0     C21187   9.604   4.730   2.061  0.8240 -0.1522  0.9265
  879MOL0     O21188   9.650   4.606   2.126  0.3428 -0.1115 -0.8962
  879MOL0     C21189   9.782   4.604   2.155  0.3343 -0.7566 -0.3243
  879MOL0     C21190   9.814   4.612   2.293  0.2384  0.1156 -0.2787
  879MOL0     C21191   9.949   4.606   2.335 -0.9118 -0.2471 -0.1852
  879MOL0     C21192   9.973   4.616   2.484 -0.7024  0.2269 -0.0958
  879MOL0     C21193  10.055   4.596   2.230  0.0643 -0.6851  0.5573
  879MOL0     C21194  10.205   4.589   2.245  0.5110  0.6037  1.0418
  879MOL0     O21195  10.281   4.534   2.149 -0.1461  0.0181 -0.2000
  879MOL0     C21196  10.414   4.559   2.151 -0.2662  0.3376 -0.4162
  879MOL0     C21197  10.460   4.691   2.150 -0.0216  0.0784  0.1921
  879MOL0     C21198  10.597   4.730   2.165 -0.1318  0.5598 -0.2955
  879MOL0     C21199  10.686   4.619   2.151  0.2606  0.3026 -0.8297
  879MOL0     O21200  10.827   4.641   2.148  0.0274  0.5251 -0.3381
  879MOL0     C21201  10.876   4.736   2.244  1.0271  0.5070  0.1625
  879MOL0     C21202  11.016   4.706   2.283 -0.1957  0.1780  0.0890
  879MOL0     C21203  11.039   4.672   2.425  0.0830 -0.0461  0.0852
  879MOL0     C21204  11.159   4.578   2.444 -0.3585  0.5013  0.0759
  879MOL0     C21205  11.304   4.630   2.393  0.3721 -0.0520 -0.2777
  879MOL0     C21206  11.417   4.535   2.450  0.2695 -0.2005 -0.2523
  879MOL0     C21207  11.549   4.606   2.433 -0.0924 -0.6419 -0.6537
  879MOL0     C21208  11.667   4.505   2.427  0.1516  0.2371  0.1013
  879MOL0    Cl21209  11.637   4.397   2.284 -0.1449 -0.2616 -0.2233
  879MOL0     C21210  10.642   4.485   2.140  0.4725  0.4543  0.0868
  879MOL0     C21211  10.504   4.456   2.140  0.0828 -0.7718 -0.4117
  879MOL0     O21212  10.245   4.660   2.334 -0.5047 -0.2991 -0.2515
  879MOL0     C21213  10.013   4.599   2.094 -0.0430  0.1324 -0.0521
  879MOL0     C21214   9.880   4.597   2.064 -0.5956 -0.6177 -0.0822
  879MOL0     N21215   9.146   4.761   1.787 -0.4945  0.8447 -0.4576
  879MOL0     N21216   9.084   4.867   1.764  0.4823 -0.5790  0.8611
  879MOL0     C21217   9.266   5.860   1.479 -0.1289  0.3239  0.5270
  879MOL0     C21218   9.179   5.958   1.517  0.7244 -1.0903 -0.1093
  879MOL0     C21219   8.817   6.214   1.532  0.3980  0.3603  0.2812
  879MOL0     C21220   8.857   6.338   1.475 -0.2399  0.2512 -0.1404
  879MOL0     C21221   8.788   6.462   1.490  0.0132  0.1218  0.9940
  879MOL0     C21222   8.680   6.463   1.579  0.0096  0.7837 -0.7675
  879MOL0     O21223   8.612   6.574   1.603 -0.1309  0.1656  0.1659
  879MOL0     C21224   8.604   6.621   1.737 -0.7904  0.4099 -1.0978
  879MOL0     C21225   8.730   6.694   1.779 -0.2852  0.6359 -0.1212
  879MOL0     C21226   8.727   6.756   1.919  0.2629  0.5826  0.2625
  879MOL0     C21227   8.775   6.656   2.019 -0.7017  0.4294 -0.0201
  879MOL0     C21228   8.762   6.701   2.157  0.2754  0.1374  0.0175
  879MOL0     C21229   8.757   6.739   2.277  0.0071 -0.3127  0.5854
  879MOL0     C21230   8.643   6.340   1.633 -0.4071 -0.5160  0.0861
  879MOL0     C21231   8.708   6.215   1.614 -0.0959 -0.2194 -0.2254
  879MOL0     C21232   8.643   6.095   1.666 -0.0018  0.2079  0.5704
  879MOL0     H21233   9.119   6.103   1.216  1.3277  0.0213 -0.7573
  879MOL0     H21234   9.292   5.917   1.140 -0.4046  0.8755  0.0993
  879MOL0     H21235   9.560   5.820   1.438  1.1769 -1.1227  2.1747
  879MOL0     H21236   9.593   5.679   1.330  1.1576 -1.1677  0.4309
  879MOL0     H21237   9.590   5.624   1.551 -1.9801  1.0896  0.7867
  879MOL0     H21238   9.422   5.655   1.592 -4.3021 -2.8795 -1.2077
  879MOL0     H21239   9.359   5.501   1.389  0.3248 -1.3091 -1.3539
  879MOL0     H21240   9.532   5.472   1.385 -0.1689  1.5513 -0.8939
  879MOL0     H21241   9.479   5.293   1.508  0.1384  0.4834 -0.4423
  879MOL0     H21242   9.514   5.405   1.629 -0.5405 -3.5994  1.9260
  879MOL0     H21243   9.233   5.326   1.543 -1.7163  1.1438  2.8142
  879MOL0     H21244   9.253   5.451   1.661  2.0362  0.9379  2.5555
  879MOL0     H21245   9.378   5.182   1.685 -1.1478  1.0204 -2.4602
  879MOL0     H21246   9.393   5.301   1.816  0.5982 -0.5149 -0.4155
  879MOL0     H21247   9.125   5.267   1.831 -0.9778 -1.7212  1.2513
  879MOL0     H21248   9.218   5.154   1.890 -1.0983 -1.3187 -0.2384
  879MOL0     H21249   9.025   5.109   1.700 -0.7204 -1.8910  1.3208
  879MOL0     H21250   9.168   5.119   1.593 -1.3387 -1.7463 -0.3520
  879MOL0     H21251   9.397   4.941   1.699  0.6313  0.3991  0.9040
  879MOL0     H21252   9.448   4.677   1.692  0.2618  0.4584  0.6121
  879MOL0     H21253   9.320   4.573   1.717  1.6095  1.4995 -3.7262
  879MOL0     H21254   9.361   4.648   1.982 -0.4617 -4.2156  1.1212
  879MOL0     H21255   9.459   4.519   1.904 -2.4055 -0.2808  0.1433
  879MOL0     H21256   9.645   4.646   1.869  1.3733  0.9236  1.7805
  879MOL0     H21257   9.555   4.803   1.862  1.0011  0.2003 -2.3132
  879MOL0     H21258   9.689   4.799   2.062  1.2964 -0.6265 -1.1099
  879MOL0     H21259   9.514   4.770   2.110  0.2031 -1.0833  0.5697
  879MOL0     H21260   9.732   4.646   2.355  1.0013  0.4377  0.5834
  879MOL0     H21261  10.053   4.686   2.510  1.5247 -1.7705 -1.1578
  879MOL0     H21262   9.990   4.521   2.535  0.4756  0.1449 -0.5979
  879MOL0     H21263   9.890   4.661   2.538  1.8562  2.5719  2.2542
  879MOL0     H21264  10.390   4.774   2.138  1.1194  0.7302 -2.7224
  879MOL0     H21265  10.627   4.835   2.163  0.0300  0.5929  1.5176
  879MOL0     H21266  10.868   4.836   2.199 -2.6553 -0.4890 -1.8553
  879MOL0     H21267  10.805   4.738   2.327 -0.7200  1.5906 -1.2750
  879MOL0     H21268  11.048   4.616   2.230  1.8642  0.9623 -0.0873
  879MOL0     H21269  11.074   4.796   2.265 -1.2443  1.3436  2.1937
  879MOL0     H21270  10.947   4.646   2.477 -0.3679  0.2736 -0.5371
  879MOL0     H21271  11.069   4.766   2.472 -4.4151  2.3699 -1.2845
  879MOL0     H21272  11.133   4.481   2.400  0.0196  2.2414 -4.5061
  879MOL0     H21273  11.175   4.587   2.552  1.1224  2.7667 -0.2441
  879MOL0     H21274  11.306   4.620   2.285 -3.7078 -0.6058 -0.4631
  879MOL0     H21275  11.308   4.738   2.413 -4.4949  0.1829  0.7492
  879MOL0     H21276  11.422   4.443   2.392  4.1902 -0.2648 -0.0728
  879MOL0     H21277  11.406   4.502   2.553  1.0571 -0.9603 -0.3937
  879MOL0     H21278  11.571   4.672   2.518 -1.0751  2.7209 -2.8123
  879MOL0     H21279  11.548   4.675   2.348 -0.9934  0.3877  0.1667
  879MOL0     H21280  11.671   4.450   2.522  2.6229  0.8229  0.4022
  879MOL0     H21281  11.763   4.555   2.410 -0.2132  0.7032 -0.6426
  879MOL0     H21282  10.716   4.409   2.117 -1.5726 -2.0583  1.2074
  879MOL0     H21283  10.460   4.357   2.136 -0.3041 -0.5716 -1.4601
  879MOL0     H21284  10.080   4.600   2.009  0.9206  1.1484  0.6953
  879MOL0     H21285   9.861   4.595   1.957  2.2072  0.4884 -0.6874
  879MOL0     H21286   9.304   5.790   1.552 -3.5092 -1.1008  1.0771
  879MOL0     H21287   9.155   5.978   1.621  2.5100  3.0176 -0.2781
  879MOL0     H21288   8.941   6.345   1.407 -0.5409  0.4419 -0.4936
  879MOL0     H21289   8.847   6.547   1.458  0.1343  0.2977  1.6652
  879MOL0     H21290   8.512   6.681   1.737 -3.0907 -2.3736  4.2657
  879MOL0     H21291   8.584   6.543   1.811 -0.7359  0.9255 -0.5311
  879MOL0     H21292   8.751   6.765   1.698  0.4404  1.3402  0.6661
  879MOL0     H21293   8.807   6.617   1.767 -0.5334  0.5487 -1.2891
  879MOL0     H21294   8.802   6.836   1.926  1.2281 -0.1283 -1.3616
  879MOL0     H21295   8.622   6.778   1.937 -1.2718 -3.9175 -1.7742
  879MOL0     H21296   8.878   6.648   1.981 -1.0500  1.3133 -1.2296
  879MOL0     H21297   8.718   6.565   2.002 -1.2106  1.1570 -2.9262
  879MOL0     H21298   8.728   6.765   2.377  0.9652  5.9781 -0.3456
  879MOL0     H21299   8.553   6.351   1.692 -0.8963 -0.1506 -0.6983
  879MOL0     H21300   8.614   6.031   1.582 -1.5039  0.5277  0.8235
  879MOL0     H21301   8.718   6.041   1.724 -1.3925 -2.0991  0.3449
  879MOL0     H21302   8.556   6.115   1.729  0.9169  1.9567  1.3668
  880MOL0     O21303  11.524  10.825   6.989  0.5220  0.1193  0.1657
  880MOL0     C21304  11.415  10.806   7.037 -0.3721  0.8570  1.2190
  880MOL0     O21305  11.318  10.904   7.049  0.3378 -0.1178 -1.1502
  880MOL0     C21306  11.350  11.035   7.027  0.2590 -0.4571  0.0995
  880MOL0     C21307  11.472  11.100   7.068 -0.7740 -0.2087 -0.3724
  880MOL0     C21308  11.494  11.236   7.048 -0.0899 -0.4580 -0.1636
  880MOL0     C21309  11.399  11.312   6.985 -0.4964  1.3940  0.0544
  880MOL0     O21310  11.437  11.447   6.966 -0.2347 -0.0112  0.2622
  880MOL0     C21311  11.337  11.551   6.955 -0.1403  0.3143  0.6660
  880MOL0     C21312  11.416  11.673   6.899  0.1048  1.0651  0.6381
  880MOL0     C21313  11.453  11.663   6.748  1.1972 -0.5812  0.4270
  880MOL0     C21314  11.608  11.692   6.733  0.3683 -0.2886 -0.4217
  880MOL0     C21315  11.694  11.564   6.765 -1.3178 -1.0491 -0.3537
  880MOL0     C21316  11.663  11.433   6.672 -0.0669 -0.4004  0.0212
  880MOL0     C21317  11.740  11.320   6.734  0.6146  0.0237  0.4904
  880MOL0     C21318  11.746  11.202   6.641 -0.8684 -0.2782 -0.1527
  880MOL0     N21319  11.831  11.098   6.706  0.2824 -0.6628  0.5834
  880MOL0     C21320  11.795  11.034   6.812  0.2891  0.2226  0.0177
  880MOL0     C21321  11.902  10.954   6.845  0.9608 -0.1534 -0.5571
  880MOL0     C21322  11.906  10.852   6.960  0.1047 -0.2878  1.4941
  880MOL0     C21323  12.034  10.863   7.036 -0.4729 -0.2041 -1.0340
  880MOL0     C21324  12.156  10.779   6.996 -0.0770  0.0705  0.0830
  880MOL0     C21325  12.289  10.812   7.083  0.1793  0.8267 -0.5026
  880MOL0     O21326  12.282  10.743   7.200 -0.5628  0.0182 -0.3310
  880MOL0     C21327  12.389  10.692   7.262 -0.4642  0.4715  0.2115
  880MOL0     C21328  12.414  10.552   7.253 -0.6737 -0.0006 -0.2111
  880MOL0     C21329  12.516  10.495   7.334  0.5491 -0.2506  0.4121
  880MOL0     C21330  12.555  10.355   7.300 -0.3168 -0.1529  0.6098
  880MOL0     C21331  12.599  10.577   7.414 -0.7858 -0.0597 -0.6313
  880MOL0     C21332  12.702  10.535   7.511 -0.9439 -0.1785  0.2058
  880MOL0     O21333  12.707  10.594   7.634 -0.1494 -0.7451  0.2255
  880MOL0     C21334  12.823  10.585   7.701  1.2481 -0.3813 -0.7764
  880MOL0     C21335  12.832  10.516   7.824 -0.0458  0.2310  0.7567
  880MOL0     C21336  12.949  10.508   7.888 -0.2807 -0.8042 -0.5765
  880MOL0     C21337  13.066  10.566   7.839 -0.1687 -1.0624 -0.0926
  880MOL0     O21338  13.188  10.542   7.902  0.4996 -0.0538 -0.3968
  880MOL0     C21339  13.297  10.636   7.892  0.2538  0.7657  0.9650
  880MOL0     C21340  13.376  10.629   8.020  0.1150 -0.5337 -0.3472
  880MOL0     C21341  13.287  10.660   8.144  0.2383 -0.3181 -0.0506
  880MOL0     C21342  13.264  10.818   8.143  0.1976  0.1382  0.1717
  880MOL0     C21343  13.177  10.873   8.259  0.6540 -1.6310 -0.0248
  880MOL0     C21344  13.252  10.888   8.393  0.2236  0.9701 -0.7653
  880MOL0     C21345  13.162  10.954   8.491  0.4686 -0.1087 -0.3454
  880MOL0     C21346  13.240  10.984   8.620  0.0098  0.0318  0.0797
  880MOL0    Cl21347  13.372  11.098   8.603 -0.3704  0.2745  0.1694
  880MOL0     C21348  13.060  10.649   7.719  0.6088  0.0716 -0.6034
  880MOL0     C21349  12.936  10.653   7.656 -0.2066  0.6807 -0.3585
  880MOL0     O21350  12.770  10.441   7.475  0.4472  0.2546  0.7518
  880MOL0     C21351  12.578  10.715   7.405  0.0567  0.5177  0.4918
  880MOL0     C21352  12.476  10.775   7.329  0.0535  0.3001  0.0048
  880MOL0     N21353  11.997  10.968   6.743 -0.9748  0.6607 -0.2569
  880MOL0     N21354  11.960  11.070   6.669  0.7690  0.6592  0.1624
  880MOL0     C21355  11.277  11.251   6.953  0.2411 -0.2262  0.3465
  880MOL0     C21356  11.255  11.122   6.977 -0.1536 -0.5328 -0.5438
  880MOL0     C21357  11.385  10.667   7.089 -0.5293 -0.4530  0.7001
  880MOL0     C21358  11.255  10.643   7.132  0.8919  0.6355 -0.1581
  880MOL0     C21359  11.212  10.520   7.190  0.7552 -0.5308 -0.4454
  880MOL0     C21360  11.303  10.414   7.207  0.0023 -0.0372 -0.4815
  880MOL0     O21361  11.247  10.307   7.274 -0.3629  0.3989  0.3536
  880MOL0     C21362  11.337  10.197   7.301  0.4371  0.8203  0.2770
  880MOL0     C21363  11.243  10.091   7.355 -0.9468  0.1174 -0.3337
  880MOL0     C21364  11.138  10.054   7.252 -0.1203  0.0982 -0.2519
  880MOL0     C21365  11.059   9.927   7.271 -0.8464 -0.2117 -1.6866
  880MOL0     C21366  10.976   9.956   7.383 -0.0685  0.1374 -0.6238
  880MOL0     C21367  10.905   9.985   7.475  0.1949  0.0473  0.1068
  880MOL0     C21368  11.437  10.438   7.160 -0.6217 -1.2938  0.0894
  880MOL0     C21369  11.488  10.561   7.107 -0.4027  0.2030  0.5872
  880MOL0     C21370  11.634  10.574   7.081 -0.7041  0.3586 -0.7868
  880MOL0     H21371  11.550  11.049   7.123 -0.3420 -1.6322 -2.1917
  880MOL0     H21372  11.581  11.275   7.100 -0.2738 -2.3503  1.6442
  880MOL0     H21373  11.309  11.569   7.059  0.8297 -1.4728  1.2940
  880MOL0     H21374  11.261  11.525   6.880  2.2673 -0.3832 -1.6843
  880MOL0     H21375  11.334  11.746   6.905 -2.7320 -1.6195 -1.4945
  880MOL0     H21376  11.500  11.707   6.960  1.0954  2.0605 -1.1776
  880MOL0     H21377  11.422  11.565   6.710  1.3967 -0.5514  0.1848
  880MOL0     H21378  11.395  11.744   6.703  2.4186  1.3672  2.1818
  880MOL0     H21379  11.632  11.709   6.628 -0.3448  0.5094 -0.4735
  880MOL0     H21380  11.642  11.778   6.791  1.5112 -0.4432 -0.8467
  880MOL0     H21381  11.678  11.537   6.870  1.6038  2.0920  1.1001
  880MOL0     H21382  11.794  11.608   6.772 -1.7758  0.0055 -0.2322
  880MOL0     H21383  11.559  11.401   6.662 -0.3185  0.0519  1.0171
  880MOL0     H21384  11.689  11.458   6.569  1.2068 -0.7971  0.2270
  880MOL0     H21385  11.673  11.290   6.816 -3.1213  2.7672 -1.2258
  880MOL0     H21386  11.831  11.355   6.783  0.2894 -1.6124  2.3796
  880MOL0     H21387  11.644  11.165   6.627 -0.6137 -1.6280  1.2370
  880MOL0     H21388  11.780  11.230   6.541 -1.0002  2.0527  0.3974
  880MOL0     H21389  11.705  11.049   6.871  0.0148 -1.4671  0.0750
  880MOL0     H21390  11.881  10.751   6.927 -1.4149 -0.0705  1.8804
  880MOL0     H21391  11.828  10.876   7.033  1.0809  2.6018  1.7218
  880MOL0     H21392  12.053  10.970   7.043  2.2589 -0.7130  0.9028
  880MOL0     H21393  12.014  10.841   7.142 -3.2517  2.9849 -0.7545
  880MOL0     H21394  12.131  10.674   7.009 -1.7592  0.5372  0.8476
  880MOL0     H21395  12.187  10.785   6.891 -5.6834 -1.4793 -2.0212
  880MOL0     H21396  12.380  10.776   7.033  0.4394  0.2268  0.3814
  880MOL0     H21397  12.296  10.917   7.112  2.8069 -0.1850  3.3173
  880MOL0     H21398  12.360  10.488   7.185 -0.5073  0.1708 -0.5073
  880MOL0     H21399  12.648  10.334   7.247 -0.6335 -1.7166  0.6116
  880MOL0     H21400  12.477  10.302   7.245 -1.3393 -1.8481  3.4308
  880MOL0     H21401  12.567  10.310   7.400 -4.1635 -3.6158 -0.2106
  880MOL0     H21402  12.748  10.463   7.868  1.1803 -0.7633  1.9940
  880MOL0     H21403  12.950  10.448   7.978 -0.0351  0.1698  0.0742
  880MOL0     H21404  13.362  10.608   7.808 -2.7047 -0.4079 -1.1439
  880MOL0     H21405  13.255  10.737   7.884 -0.9685  0.2233  0.1719
  880MOL0     H21406  13.429  10.534   8.022  0.0137 -0.5746  0.6412
  880MOL0     H21407  13.463  10.696   8.015 -1.4734  1.5909 -1.5432
  880MOL0     H21408  13.345  10.627   8.231  0.6593  1.5786  0.4289
  880MOL0     H21409  13.193  10.604   8.137  0.2479 -0.4606  0.8287
  880MOL0     H21410  13.202  10.837   8.054 -3.5817 -0.8512  2.3359
  880MOL0     H21411  13.354  10.878   8.155  0.5005 -0.6345  2.0611
  880MOL0     H21412  13.147  10.970   8.217 -1.5712 -1.5488  1.5623
  880MOL0     H21413  13.086  10.815   8.274  0.6065 -2.0034 -1.6725
  880MOL0     H21414  13.341  10.951   8.383  0.1322  1.2108 -0.0607
  880MOL0     H21415  13.273  10.783   8.416 -2.0129  0.4412 -0.9178
  880MOL0     H21416  13.075  10.891   8.513  1.6611 -1.2313  1.3880
  880MOL0     H21417  13.127  11.049   8.449  0.8780 -0.0348 -0.5279
  880MOL0     H21418  13.278  10.891   8.664 -0.4672 -0.0445  0.3255
  880MOL0     H21419  13.167  11.020   8.692 -0.8026 -0.9908 -0.2055
  880MOL0     H21420  13.139  10.710   7.676  1.1242 -0.4505 -0.3937
  880MOL0     H21421  12.927  10.703   7.561 -3.3707 -1.0612 -1.1094
  880MOL0     H21422  12.651  10.777   7.457  0.1510 -0.3482  1.4456
  880MOL0     H21423  12.470  10.883   7.339 -0.9743  0.4944 -2.1673
  880MOL0     H21424  11.202  11.320   6.916 -0.0727 -0.1796  1.0525
  880MOL0     H21425  11.158  11.081   6.950 -0.1444 -0.3728 -0.8253
  880MOL0     H21426  11.175  10.716   7.132  0.0116 -0.2665  1.4590
  880MOL0     H21427  11.110  10.499   7.222  1.1616 -0.5206  0.9219
  880MOL0     H21428  11.376  10.161   7.206 -3.5309 -0.8927 -0.9161
  880MOL0     H21429  11.419  10.219   7.370  1.1783  2.4240 -1.0393
  880MOL0     H21430  11.203  10.114   7.453 -0.3508 -3.1953  0.8207
  880MOL0     H21431  11.308  10.006   7.378  1.3193  1.0663 -2.6969
  880MOL0     H21432  11.067  10.136   7.249  0.1777  0.3589 -0.2380
  880MOL0     H21433  11.177  10.053   7.149  0.8310 -1.6591  0.0845
  880MOL0     H21434  11.130   9.848   7.294  0.8698  2.0253  1.5075
  880MOL0     H21435  11.007   9.910   7.176 -3.8923 -0.4625 -0.0841
  880MOL0     H21436  10.838  10.015   7.552  2.4012  0.6099  1.9004
  880MOL0     H21437  11.508  10.365   7.196  0.0511  0.4791  2.6683
  880MOL0     H21438  11.669  10.603   6.982 -0.5389 -0.0485 -0.8515
  880MOL0     H21439  11.661  10.656   7.148 -4.2358  3.1965 -2.4626
  880MOL0     H21440  11.677  10.476   7.104  0.9018  1.2842  0.2917
  881MOL0     O21441   8.234   0.855   4.651 -0.5731 -0.4430 -0.1961
  881MOL0     C21442   8.317   0.770   4.680 -0.8097 -0.0331 -1.2733
  881MOL0     O21443   8.350   0.663   4.597 -0.0682  0.3766 -0.1598
  881MOL0     C21444   8.313   0.668   4.467 -0.4421 -0.3742  0.7909
  881MOL0     C21445   8.297   0.551   4.395 -0.4638  1.4422 -0.9646
  881MOL0     C21446   8.287   0.556   4.256 -0.5177  0.2975 -0.2432
  881MOL0     C21447   8.288   0.667   4.176 -0.1266  0.7395 -0.2799
  881MOL0     O21448   8.256   0.667   4.046  0.1639  0.6186  0.4467
  881MOL0     C21449   8.236   0.542   3.976  0.2531  0.3935 -0.1273
  881MOL0     C21450   8.245   0.570   3.824 -0.0805 -0.3534 -0.4356
  881MOL0     C21451   8.314   0.459   3.754  0.1826 -0.0946 -0.0247
  881MOL0     C21452   8.234   0.323   3.752  0.4765 -0.0363  0.5819
  881MOL0     C21453   8.106   0.320   3.663 -0.5784 -0.2612 -0.4044
  881MOL0     C21454   8.003   0.206   3.684 -0.7654 -0.3400 -0.7530
  881MOL0     C21455   8.066   0.070   3.663 -0.4555  0.5344  0.2701
  881MOL0     C21456   7.983  -0.051   3.707  0.4292 -0.4433 -0.4117
  881MOL0     N21457   8.060  -0.171   3.706  0.1887 -0.1569  0.1261
  881MOL0     C21458   8.077  -0.267   3.604  0.8707 -0.8506  0.3066
  881MOL0     C21459   8.147  -0.362   3.663 -0.3256 -0.3217 -0.5782
  881MOL0     C21460   8.192  -0.498   3.600 -0.0434 -0.9856 -1.0970
  881MOL0     C21461   8.084  -0.563   3.512 -0.2688 -0.4023  0.2631
  881MOL0     C21462   8.147  -0.687   3.450  0.0409 -0.1908 -0.2010
  881MOL0     C21463   8.064  -0.743   3.346  1.3593 -0.0023 -0.3045
  881MOL0     O21464   8.145  -0.855   3.301  0.6796  0.3815 -0.1084
  881MOL0     C21465   8.111  -0.913   3.178 -0.2930 -0.1432  0.3756
  881MOL0     C21466   7.981  -0.933   3.144 -0.0542 -0.0881 -0.1258
  881MOL0     C21467   7.947  -1.010   3.023 -0.3882 -0.7522 -0.5725
  881MOL0     C21468   7.795  -1.020   3.000  0.1352  0.5529  0.4898
  881MOL0     C21469   8.051  -1.055   2.942 -0.2471  0.0928 -0.1591
  881MOL0     C21470   8.013  -1.123   2.817  1.1691  0.7150 -0.3712
  881MOL0     O21471   7.914  -1.212   2.829  0.3301 -0.5600  0.0853
  881MOL0     C21472   7.870  -1.262   2.704  0.3739  0.3640  0.5038
  881MOL0     C21473   7.792  -1.184   2.619  0.8893 -0.3724  0.0693
  881MOL0     C21474   7.759  -1.214   2.488 -0.1358  0.2959  0.1200
  881MOL0     C21475   7.820  -1.324   2.434 -0.2991 -0.4506  0.0766
  881MOL0     O21476   7.800  -1.354   2.301  0.2733 -0.0784  0.2794
  881MOL0     C21477   7.670  -1.325   2.251  0.0652  0.3935  0.6304
  881MOL0     C21478   7.665  -1.420   2.132 -0.4315  0.5672  0.3970
  881MOL0     C21479   7.736  -1.345   2.022 -0.3887  0.1615  0.0506
  881MOL0     C21480   7.799  -1.396   1.891  0.1238  1.0206  0.7647
  881MOL0     C21481   7.810  -1.288   1.789 -0.0844 -0.7122 -1.0266
  881MOL0     C21482   7.836  -1.356   1.649 -0.3859  0.3639 -0.6841
  881MOL0     C21483   7.797  -1.268   1.537  0.1241  0.0557 -0.0650
  881MOL0     C21484   7.794  -1.349   1.402  0.5081 -0.3654  0.3855
  881MOL0    Cl21485   7.661  -1.478   1.400 -0.0326  0.2858  0.3105
  881MOL0     C21486   7.895  -1.410   2.508 -0.7325 -0.4116 -0.2946
  881MOL0     C21487   7.921  -1.379   2.646 -0.0457  0.1419  0.1235
  881MOL0     O21488   8.092  -1.120   2.725  0.2596 -0.3772 -0.3365
  881MOL0     C21489   8.182  -1.031   2.977 -0.6553  0.7000  0.4967
  881MOL0     C21490   8.214  -0.963   3.094  0.1028  0.2580  0.5136
  881MOL0     N21491   8.164  -0.331   3.795  0.4002  0.1065  0.2641
  881MOL0     N21492   8.117  -0.216   3.818  0.1582 -0.1239  1.1663
  881MOL0     C21493   8.317   0.785   4.246  0.7325  0.3839 -0.4047
  881MOL0     C21494   8.331   0.781   4.385  0.2635  0.1825 -0.6576
  881MOL0     C21495   8.372   0.771   4.819  0.2204 -0.9284 -0.3262
  881MOL0     C21496   8.290   0.772   4.930  0.1851  0.5558  0.0711
  881MOL0     C21497   8.336   0.762   5.058  0.5008 -0.5730 -0.0788
  881MOL0     C21498   8.474   0.769   5.081 -0.4788  0.3312 -0.5829
  881MOL0     O21499   8.541   0.760   5.203 -0.2472  0.3690  0.4023
  881MOL0     C21500   8.485   0.694   5.307  0.5865  0.3631 -0.2264
  881MOL0     C21501   8.486   0.543   5.298  0.1830  0.3727  0.7697
  881MOL0     C21502   8.404   0.463   5.413  0.2804  0.2804  0.1139
  881MOL0     C21503   8.426   0.309   5.390  1.0801  0.2352  0.4260
  881MOL0     C21504   8.350   0.215   5.485 -0.3516 -0.4836 -0.1673
  881MOL0     C21505   8.308   0.134   5.558 -0.3039 -0.7569 -0.0260
  881MOL0     C21506   8.560   0.773   4.974 -0.2902 -0.1683 -0.3993
  881MOL0     C21507   8.512   0.785   4.846  0.5691  0.0702  1.0100
  881MOL0     C21508   8.615   0.791   4.730  0.1685 -0.5032 -0.4061
  881MOL0     H21509   8.294   0.453   4.441  0.5790  2.4943  1.5589
  881MOL0     H21510   8.258   0.460   4.214  1.7719 -0.9876  0.9236
  881MOL0     H21511   8.135   0.506   3.996 -1.0817  2.0085 -3.2473
  881MOL0     H21512   8.299   0.459   4.011 -0.0339 -0.3117 -1.2201
  881MOL0     H21513   8.151   0.590   3.772 -0.2076  2.4418  0.7305
  881MOL0     H21514   8.302   0.663   3.821 -2.5487  1.2900  0.9192
  881MOL0     H21515   8.329   0.502   3.654 -4.0529  1.0590 -0.3674
  881MOL0     H21516   8.417   0.449   3.789  0.6345  0.5498 -1.1073
  881MOL0     H21517   8.323   0.260   3.735 -0.4355 -0.5772 -3.1419
  881MOL0     H21518   8.198   0.294   3.850  0.8785 -2.1282  0.1639
  881MOL0     H21519   8.139   0.314   3.559 -1.4639  0.4000 -0.7434
  881MOL0     H21520   8.052   0.416   3.661 -0.9792 -0.4860 -0.6429
  881MOL0     H21521   7.955   0.209   3.782  0.3011 -1.5138 -0.1766
  881MOL0     H21522   7.917   0.205   3.615 -1.3463  0.6813 -0.0687
  881MOL0     H21523   8.151   0.073   3.733 -0.0138  3.3769 -0.2689
  881MOL0     H21524   8.096   0.064   3.558  0.1616 -3.3282  0.5300
  881MOL0     H21525   7.938  -0.034   3.805 -3.3772  0.6759 -2.1562
  881MOL0     H21526   7.893  -0.063   3.646 -1.1248 -0.8208  1.8291
  881MOL0     H21527   8.049  -0.271   3.499 -1.7581 -3.3030  1.0024
  881MOL0     H21528   8.213  -0.561   3.687  0.2810  2.9689  1.9962
  881MOL0     H21529   8.283  -0.479   3.542 -0.0041 -2.2729 -1.4926
  881MOL0     H21530   8.001  -0.592   3.577 -1.7496 -0.1590 -1.4342
  881MOL0     H21531   8.045  -0.499   3.433 -1.6319 -0.6223  0.7387
  881MOL0     H21532   8.239  -0.654   3.402 -0.0230  2.1522  1.1180
  881MOL0     H21533   8.175  -0.758   3.528  3.5978  0.2983 -0.8871
  881MOL0     H21534   7.984  -0.792   3.402  0.3604 -1.0944 -2.5553
  881MOL0     H21535   8.020  -0.673   3.274 -1.8154  2.3710  3.5183
  881MOL0     H21536   7.905  -0.880   3.201 -1.8658  0.2061 -2.6053
  881MOL0     H21537   7.767  -1.124   3.012 -0.0756  0.7861  2.1898
  881MOL0     H21538   7.768  -0.999   2.896  2.5317 -0.5090 -0.4188
  881MOL0     H21539   7.756  -0.948   3.073  4.1173  0.9833  2.4411
  881MOL0     H21540   7.760  -1.089   2.660  1.5273 -0.4361  0.7414
  881MOL0     H21541   7.684  -1.160   2.430  2.1053  0.9291 -2.3594
  881MOL0     H21542   7.590  -1.365   2.316  1.9625 -1.8397  1.7666
  881MOL0     H21543   7.644  -1.225   2.217 -1.0385  0.5428  1.8348
  881MOL0     H21544   7.720  -1.511   2.156  0.6736  1.3756  1.0036
  881MOL0     H21545   7.567  -1.440   2.088  0.4182  2.2392 -2.4974
  881MOL0     H21546   7.823  -1.290   2.056  0.5267 -0.8547 -0.5764
  881MOL0     H21547   7.654  -1.275   2.000 -1.0118 -0.5032  0.2245
  881MOL0     H21548   7.721  -1.465   1.858 -0.8518  3.0674 -1.5795
  881MOL0     H21549   7.899  -1.441   1.899  0.0708  0.1915 -2.0439
  881MOL0     H21550   7.718  -1.228   1.786 -0.1858 -0.2232  3.8263
  881MOL0     H21551   7.884  -1.214   1.822  0.3796 -0.8055 -1.8345
  881MOL0     H21552   7.793  -1.455   1.636  0.4040 -0.4079  1.9096
  881MOL0     H21553   7.944  -1.375   1.645 -0.6376 -2.9809  2.5637
  881MOL0     H21554   7.864  -1.181   1.528 -0.4049  0.5980  1.0747
  881MOL0     H21555   7.696  -1.237   1.564 -0.3260  0.4941 -2.0872
  881MOL0     H21556   7.896  -1.388   1.402  0.9594  0.7626 -0.2249
  881MOL0     H21557   7.790  -1.288   1.312  0.5155 -0.4891  0.3018
  881MOL0     H21558   7.935  -1.500   2.463  1.1331  1.3180 -2.3359
  881MOL0     H21559   7.990  -1.441   2.702  2.3002  0.7366 -1.8641
  881MOL0     H21560   8.254  -1.071   2.906  0.0035  0.8366  1.0768
  881MOL0     H21561   8.312  -0.930   3.128  0.1499  0.9793 -0.2721
  881MOL0     H21562   8.325   0.881   4.197  2.5118 -1.0079 -3.0517
  881MOL0     H21563   8.358   0.879   4.425  0.3061  0.4335 -1.2851
  881MOL0     H21564   8.182   0.772   4.915  0.2606  0.4776 -0.4688
  881MOL0     H21565   8.267   0.758   5.141  1.4168  0.1061  0.7410
  881MOL0     H21566   8.545   0.716   5.396  0.4736 -1.6447  0.3881
  881MOL0     H21567   8.381   0.726   5.319  0.7410  0.6103  0.4834
  881MOL0     H21568   8.589   0.507   5.285 -0.6533 -1.4862 -1.2965
  881MOL0     H21569   8.439   0.512   5.205 -0.3540 -2.3907  1.8633
  881MOL0     H21570   8.436   0.491   5.513  1.6119  1.4294 -0.6009
  881MOL0     H21571   8.297   0.484   5.401 -0.2446 -0.6832  2.5929
  881MOL0     H21572   8.533   0.290   5.381  1.1883  1.6970 -4.0846
  881MOL0     H21573   8.386   0.295   5.289  0.7143  0.2030  0.5704
  881MOL0     H21574   8.259   0.066   5.625 -2.6935 -0.1743 -1.0782
  881MOL0     H21575   8.665   0.772   5.003  0.2473 -4.0782 -1.8259
  881MOL0     H21576   8.707   0.839   4.765 -0.9448  0.1336  1.8444
  881MOL0     H21577   8.636   0.691   4.690 -4.6342 -1.1855 -1.9046
  881MOL0     H21578   8.571   0.852   4.650 -3.0216 -2.2793 -0.1957
  882MOL0     O21579   5.757  10.920  10.447  0.5535  0.0159  0.6311
  882MOL0     C21580   5.880  10.923  10.477 -0.3125  0.8201 -0.2544
  882MOL0     O21581   5.978  10.951  10.380  0.3859 -0.4904  0.0022
  882MOL0     C21582   5.942  10.957  10.254 -0.3586  0.1322  0.5246
  882MOL0     C21583   6.014  10.882  10.163  0.3352  0.2425 -0.2843
  882MOL0     C21584   5.964  10.875  10.028  0.7039  0.3518  1.3437
  882MOL0     C21585   5.870  10.973   9.978 -0.3870  0.2335 -0.1494
  882MOL0     O21586   5.871  10.964   9.840 -0.1088  0.2361 -0.7933
  882MOL0     C21587   5.809  11.075   9.774 -0.3916  0.5135 -0.3364
  882MOL0     C21588   5.660  11.050   9.746 -0.0764  0.0684 -0.6976
  882MOL0     C21589   5.591  11.162   9.664  1.6158 -0.8521  1.0388
  882MOL0     C21590   5.450  11.103   9.612 -0.8461 -0.8457  0.2330
  882MOL0     C21591   5.430  11.113   9.467 -0.2462 -0.3252 -0.4040
  882MOL0     C21592   5.530  11.010   9.388 -0.2324  0.2526 -0.7609
  882MOL0     C21593   5.488  10.987   9.246 -0.4099 -1.0022  1.0709
  882MOL0     C21594   5.464  10.838   9.213  0.6401  0.2987  0.2809
  882MOL0     N21595   5.586  10.757   9.201  0.2610 -0.3245  0.1635
  882MOL0     C21596   5.638  10.686   9.303  0.1844  0.1477  0.7415
  882MOL0     C21597   5.765  10.649   9.261  0.0024 -0.1126  0.4104
  882MOL0     C21598   5.880  10.572   9.325  0.4156  0.3353 -0.8336
  882MOL0     C21599   5.846  10.420   9.344 -0.5192 -0.1171 -0.2755
  882MOL0     C21600   5.882  10.339   9.216  0.6564  0.1533 -0.7677
  882MOL0     C21601   5.887  10.183   9.232  0.5196  0.4684  0.6719
  882MOL0     O21602   5.759  10.138   9.277 -0.5471  0.6179  0.8496
  882MOL0     C21603   5.710  10.016   9.242 -0.4582 -0.8040 -0.0442
  882MOL0     C21604   5.792   9.908   9.199  0.7290 -0.4351 -0.4987
  882MOL0     C21605   5.744   9.776   9.181 -0.3324 -0.2749  0.3329
  882MOL0     C21606   5.839   9.675   9.112 -0.2524 -0.4301 -0.3588
  882MOL0     C21607   5.607   9.759   9.192  0.8032 -0.0684  0.2567
  882MOL0     C21608   5.537   9.640   9.147 -0.5946  0.7288 -1.4253
  882MOL0     O21609   5.440   9.596   9.236 -0.3142 -0.4399 -0.3776
  882MOL0     C21610   5.360   9.486   9.218  0.0812  0.8251  0.5673
  882MOL0     C21611   5.335   9.414   9.100  0.0393 -0.1739 -1.0585
  882MOL0     C21612   5.238   9.311   9.101  0.1445 -0.6393 -0.2171
  882MOL0     C21613   5.164   9.278   9.213  0.3005  0.5782  0.1657
  882MOL0     O21614   5.060   9.190   9.220 -0.1830 -0.1067  0.4725
  882MOL0     C21615   4.993   9.152   9.102 -0.0999 -0.4951 -0.7053
  882MOL0     C21616   4.851   9.103   9.134  0.1273  0.3632 -0.2901
  882MOL0     C21617   4.798   9.134   9.283 -0.4516  0.3947 -0.3096
  882MOL0     C21618   4.768   9.282   9.317  0.6546  1.0698  0.8728
  882MOL0     C21619   4.724   9.314   9.455  0.1522  1.0357  0.2400
  882MOL0     C21620   4.701   9.460   9.476  0.2583  0.4364  0.8341
  882MOL0     C21621   4.657   9.477   9.618 -0.0583  0.2102  0.3530
  882MOL0     C21622   4.585   9.619   9.629 -0.0662  0.9341  0.2712
  882MOL0    Cl21623   4.548   9.646   9.794 -0.5152  0.1949  0.4543
  882MOL0     C21624   5.200   9.344   9.330 -0.0451 -0.3412  0.0924
  882MOL0     C21625   5.286   9.458   9.337  0.6176 -0.1586  0.1522
  882MOL0     O21626   5.562   9.587   9.044  0.4031 -0.1125  0.0114
  882MOL0     C21627   5.527   9.864   9.248 -0.2954 -0.8203 -0.3822
  882MOL0     C21628   5.578   9.988   9.269 -0.1787 -0.1768 -0.3936
  882MOL0     N21629   5.783  10.720   9.137  0.8115  0.1878 -0.1459
  882MOL0     N21630   5.669  10.768   9.096  0.4599 -0.3263  0.0154
  882MOL0     C21631   5.812  11.062  10.069 -0.7989  0.6668  0.2528
  882MOL0     C21632   5.851  11.048  10.201  0.3813 -0.2783 -0.4649
  882MOL0     C21633   5.938  10.917  10.616  0.0076  1.1614  0.2232
  882MOL0     C21634   6.074  10.932  10.632 -0.1065  0.3804 -0.5456
  882MOL0     C21635   6.139  10.939  10.760  1.3922  0.2192  0.1571
  882MOL0     C21636   6.062  10.920  10.871  0.3438  0.0241  0.0496
  882MOL0     O21637   6.129  10.905  10.987 -0.4086 -0.7581  0.7466
  882MOL0     C21638   6.069  10.915  11.111  0.5293 -0.2256 -1.6710
  882MOL0     C21639   6.159  10.991  11.201 -0.5118 -0.2545 -0.2024
  882MOL0     C21640   6.073  11.070  11.301 -1.0976 -0.0731 -0.4244
  882MOL0     C21641   6.143  11.107  11.425  0.3744  0.6105 -0.0907
  882MOL0     C21642   6.226  11.006  11.497  0.1876 -0.1041  0.1066
  882MOL0     C21643   6.277  10.909  11.556  0.4781  0.2665  0.5476
  882MOL0     C21644   5.924  10.889  10.855 -0.3805  0.5415 -0.0603
  882MOL0     C21645   5.855  10.879  10.727 -0.9014 -0.5559  0.0108
  882MOL0     C21646   5.709  10.844  10.716  0.0953 -0.1070 -0.5026
  882MOL0     H21647   6.095  10.814  10.191  1.6094  0.9084 -2.1251
  882MOL0     H21648   6.009  10.805   9.958 -0.5399  1.0891 -0.2715
  882MOL0     H21649   5.849  11.088   9.673 -1.5515  1.5398 -0.6896
  882MOL0     H21650   5.826  11.167   9.830 -0.8469 -0.2176  1.0656
  882MOL0     H21651   5.655  10.958   9.687 -1.0293 -1.0349  1.0228
  882MOL0     H21652   5.607  11.040   9.841  0.0068 -1.9516 -0.8206
  882MOL0     H21653   5.570  11.251   9.724  0.6697 -0.5670  0.2973
  882MOL0     H21654   5.658  11.202   9.588  1.4263 -0.4929  1.0595
  882MOL0     H21655   5.440  10.999   9.643 -0.4335 -0.4282  1.9048
  882MOL0     H21656   5.367  11.162   9.654  1.2648  2.3759  0.2076
  882MOL0     H21657   5.469  11.208   9.431 -1.1755 -0.5610 -2.1966
  882MOL0     H21658   5.326  11.102   9.432 -0.2556  0.4796 -0.6503
  882MOL0     H21659   5.634  11.041   9.376 -0.1716 -0.1196 -1.2425
  882MOL0     H21660   5.542  10.917   9.444  0.3635  0.6335 -0.2460
  882MOL0     H21661   5.562  11.027   9.175 -0.5222 -4.1305 -1.0119
  882MOL0     H21662   5.391  11.037   9.246 -0.7763 -1.6979  0.4337
  882MOL0     H21663   5.394  10.794   9.285  2.3937 -3.0535  0.1308
  882MOL0     H21664   5.410  10.834   9.118  0.1073  0.7582  0.5542
  882MOL0     H21665   5.590  10.653   9.394 -0.3451 -2.4974 -0.4130
  882MOL0     H21666   5.897  10.622   9.420 -0.6050  1.3699 -1.1720
  882MOL0     H21667   5.969  10.581   9.262  0.4222  1.4595 -0.6887
  882MOL0     H21668   5.912  10.381   9.422  0.7973  1.1615 -0.7153
  882MOL0     H21669   5.743  10.415   9.381 -0.9001 -0.1625 -1.3099
  882MOL0     H21670   5.798  10.367   9.150 -0.3414  0.1569  0.4698
  882MOL0     H21671   5.977  10.364   9.169  2.5403 -1.2855  2.0544
  882MOL0     H21672   5.906  10.158   9.127  1.3755 -1.7466  1.2832
  882MOL0     H21673   5.959  10.135   9.299  1.1016  2.7630  1.7980
  882MOL0     H21674   5.897   9.917   9.171  0.3326  0.9898 -1.6532
  882MOL0     H21675   5.803   9.576   9.144  1.2105 -0.2715  2.0042
  882MOL0     H21676   5.944   9.684   9.140  0.4283 -1.3214 -2.4334
  882MOL0     H21677   5.820   9.695   9.007 -1.2274  1.2839  0.1054
  882MOL0     H21678   5.382   9.443   9.007  1.8629  0.4684  0.0113
  882MOL0     H21679   5.212   9.274   9.003 -0.6555  1.1268 -0.7144
  882MOL0     H21680   4.988   9.245   9.044 -0.7635 -0.5354 -0.7218
  882MOL0     H21681   5.054   9.080   9.046  2.6195  1.2513 -0.2046
  882MOL0     H21682   4.779   9.146   9.063 -0.5953 -1.6622 -0.8384
  882MOL0     H21683   4.853   8.997   9.110 -1.8134  0.7268 -2.3722
  882MOL0     H21684   4.857   9.091   9.365 -0.4109  2.6933  0.9540
  882MOL0     H21685   4.708   9.083   9.317 -0.7093  0.4661 -0.8860
  882MOL0     H21686   4.700   9.316   9.238  2.1341 -2.1110 -2.0209
  882MOL0     H21687   4.864   9.331   9.296  0.6914  0.7950  0.3964
  882MOL0     H21688   4.629   9.261   9.456  0.5682  0.2869  0.1950
  882MOL0     H21689   4.792   9.262   9.523 -1.8135 -3.6160 -0.9942
  882MOL0     H21690   4.621   9.501   9.413  1.9169  3.2069  0.3609
  882MOL0     H21691   4.793   9.512   9.449  0.9933 -0.3969  1.6593
  882MOL0     H21692   4.746   9.486   9.680  1.2203  1.5620 -1.5739
  882MOL0     H21693   4.588   9.395   9.640 -1.0379  0.9615  0.2117
  882MOL0     H21694   4.492   9.619   9.571  1.5819  0.8847 -2.5485
  882MOL0     H21695   4.641   9.700   9.581  1.8954 -1.9659 -2.8127
  882MOL0     H21696   5.133   9.317   9.411  0.6047 -3.6084 -0.3226
  882MOL0     H21697   5.303   9.513   9.429 -0.6053 -2.3602  1.7924
  882MOL0     H21698   5.420   9.851   9.249 -0.1216 -3.0511  1.9373
  882MOL0     H21699   5.514  10.068   9.305 -1.9601 -1.3358 -0.8556
  882MOL0     H21700   5.743  11.138  10.035 -0.4367  0.8508 -0.0886
  882MOL0     H21701   5.808  11.117  10.273 -0.7688 -1.2626 -0.1628
  882MOL0     H21702   6.138  10.955  10.548 -1.4309  0.5553 -1.5458
  882MOL0     H21703   6.246  10.947  10.774  1.1991  0.0529  1.9402
  882MOL0     H21704   5.973  10.967  11.098 -0.5071 -1.5998  0.0494
  882MOL0     H21705   6.042  10.814  11.143 -0.9893 -1.0102 -5.0093
  882MOL0     H21706   6.206  11.071  11.144  0.2929 -1.3728 -1.1578
  882MOL0     H21707   6.232  10.930  11.256 -1.8301  0.5184  2.6030
  882MOL0     H21708   6.050  11.167  11.257  2.5103  1.0779 -0.0355
  882MOL0     H21709   5.981  11.021  11.336  0.0923 -0.3379  2.6864
  882MOL0     H21710   6.073  11.161  11.490  2.8933  2.6543  1.1196
  882MOL0     H21711   6.221  11.179  11.397 -0.3199  1.3185 -0.2365
  882MOL0     H21712   6.334  10.828  11.598  0.4139  0.7598  1.6212
  882MOL0     H21713   5.870  10.840  10.936 -1.1346 -3.4857 -2.6833
  882MOL0     H21714   5.656  10.933  10.680  0.2482 -0.1923 -0.9370
  882MOL0     H21715   5.699  10.757  10.652  2.4730 -0.8933  0.1146
  882MOL0     H21716   5.683  10.811  10.817  0.1927 -0.3230 -0.5487
  883MOL0     O21717   1.109   2.627  10.289 -0.4273 -0.4238 -0.7359
  883MOL0     C21718   1.059   2.556  10.204 -0.0987 -0.3411  0.4469
  883MOL0     O21719   0.958   2.470  10.227  0.2554 -0.0310 -0.4475
  883MOL0     C21720   0.925   2.450  10.361 -0.2215  0.6883  0.6244
  883MOL0     C21721   0.866   2.555  10.428  0.7735 -0.5983 -0.0234
  883MOL0     C21722   0.824   2.533  10.564  0.6407 -0.5467 -0.0500
  883MOL0     C21723   0.843   2.412  10.627 -0.4489 -0.0069 -0.5768
  883MOL0     O21724   0.795   2.376  10.755 -0.6380 -0.8374 -0.0003
  883MOL0     C21725   0.672   2.435  10.805 -0.2482 -1.1170 -0.9123
  883MOL0     C21726   0.542   2.428  10.731 -0.6419  0.0588 -0.0931
  883MOL0     C21727   0.501   2.282  10.695  1.0056 -0.1482 -0.2715
  883MOL0     C21728   0.390   2.223  10.782  0.8809 -0.6915 -0.4357
  883MOL0     C21729   0.257   2.307  10.781 -0.4249  0.1476  0.3718
  883MOL0     C21730   0.140   2.227  10.850 -0.6631  0.1723 -0.2659
  883MOL0     C21731   0.009   2.295  10.872 -0.3805 -0.2415 -0.2633
  883MOL0     C21732   0.011   2.417  10.965 -0.6951 -0.1964  1.4323
  883MOL0     N21733  -0.113   2.458  11.008  0.2566 -0.5631  0.5379
  883MOL0     C21734  -0.173   2.411  11.121 -0.3360  0.3840 -0.7997
  883MOL0     C21735  -0.274   2.496  11.151 -0.4819  0.6397  1.0495
  883MOL0     C21736  -0.392   2.467  11.239 -0.5982 -0.7361  0.2085
  883MOL0     C21737  -0.439   2.591  11.311  0.1345 -0.4681 -0.2000
  883MOL0     C21738  -0.552   2.573  11.406 -0.7690  0.8025 -0.5547
  883MOL0     C21739  -0.508   2.564  11.554  0.3006 -0.0692 -0.2042
  883MOL0     O21740  -0.611   2.537  11.649 -0.1239  0.5387  0.5353
  883MOL0     C21741  -0.693   2.641  11.687 -0.5326  0.2573 -0.7348
  883MOL0     C21742  -0.787   2.611  11.791 -0.8183 -0.7644 -0.4517
  883MOL0     C21743  -0.861   2.707  11.858 -1.0325 -0.1541  0.6908
  883MOL0     C21744  -0.935   2.659  11.984 -0.9227 -0.4820  0.3173
  883MOL0     C21745  -0.858   2.841  11.823  0.8040 -1.0724  0.6328
  883MOL0     C21746  -0.918   2.950  11.900 -0.1631 -0.5948  0.3791
  883MOL0     O21747  -1.034   2.926  11.970  0.1206 -0.1696  0.2416
  883MOL0     C21748  -1.106   3.032  12.019 -0.0742  0.5017  0.8378
  883MOL0     C21749  -1.066   3.094  12.138  0.1615 -0.2686 -0.2620
  883MOL0     C21750  -1.147   3.182  12.195 -0.6726  0.1528  0.2918
  883MOL0     C21751  -1.262   3.229  12.131  0.0400  0.0982 -0.8416
  883MOL0     O21752  -1.335   3.330  12.187  0.3921 -0.0101 -0.5521
  883MOL0     C21753  -1.294   3.444  12.115 -0.4173 -0.7736  0.2489
  883MOL0     C21754  -1.408   3.551  12.123  0.2002  0.3626 -0.6979
  883MOL0     C21755  -1.392   3.657  12.013  0.3726  0.3425 -0.2080
  883MOL0     C21756  -1.271   3.739  12.012 -0.5603  0.0475  0.7871
  883MOL0     C21757  -1.231   3.798  12.152 -0.7987 -0.3169 -0.3722
  883MOL0     C21758  -1.133   3.920  12.150 -0.6285 -0.2742 -0.2152
  883MOL0     C21759  -1.095   3.967  12.283  0.2413 -0.6490 -0.2007
  883MOL0     C21760  -0.978   4.069  12.286  0.8429 -0.2189  0.7723
  883MOL0    Cl21761  -0.943   4.103  12.457  0.2123  0.0966 -0.1136
  883MOL0     C21762  -1.312   3.160  12.025 -0.5043 -0.0314  0.6861
  883MOL0     C21763  -1.221   3.071  11.959  0.8057  0.2947  0.2935
  883MOL0     O21764  -0.870   3.058  11.880 -0.1573 -0.3974  0.0139
  883MOL0     C21765  -0.781   2.873  11.708 -0.4340 -0.7949  0.2514
  883MOL0     C21766  -0.700   2.779  11.638 -0.0573 -0.4936 -0.7072
  883MOL0     N21767  -0.282   2.579  11.041 -0.4273  0.7622  1.1326
  883MOL0     N21768  -0.182   2.561  10.965  0.2019 -1.2668 -0.0934
  883MOL0     C21769   0.908   2.310  10.554  0.2591  0.1878  0.3672
  883MOL0     C21770   0.946   2.327  10.425 -0.2656  0.5724  0.1459
  883MOL0     C21771   1.107   2.578  10.067 -0.2386 -0.4878  0.0527
  883MOL0     C21772   1.163   2.707  10.032 -0.4487  0.1550  0.2340
  883MOL0     C21773   1.224   2.731   9.906  1.2606 -0.3548 -0.4692
  883MOL0     C21774   1.223   2.639   9.808  0.4424  0.0930 -0.3688
  883MOL0     O21775   1.278   2.684   9.693 -0.5247 -0.2716  0.4833
  883MOL0     C21776   1.257   2.614   9.574  0.2694 -0.2561  0.2280
  883MOL0     C21777   1.365   2.656   9.475 -0.4864  0.0380 -0.1743
  883MOL0     C21778   1.363   2.587   9.334  0.4495  0.2766 -0.4236
  883MOL0     C21779   1.471   2.633   9.233 -0.1328  0.0526 -0.3483
  883MOL0     C21780   1.441   2.757   9.169 -0.0334  0.5374  0.3947
  883MOL0     C21781   1.407   2.857   9.107 -0.4653 -0.2128  0.0574
  883MOL0     C21782   1.153   2.519   9.833  0.4589  0.0356 -0.1865
  883MOL0     C21783   1.105   2.478   9.967 -0.5399 -0.5151  1.0186
  883MOL0     C21784   1.092   2.335   9.996 -0.4978 -0.0360  0.8089
  883MOL0     H21785   0.850   2.655  10.389 -0.8108 -0.5175  0.7635
  883MOL0     H21786   0.769   2.615  10.609  0.8685 -0.3468 -0.1348
  883MOL0     H21787   0.703   2.537  10.832  2.8457 -1.7587 -1.6860
  883MOL0     H21788   0.655   2.386  10.901 -0.1730  2.1589  0.9497
  883MOL0     H21789   0.462   2.474  10.790 -0.6786 -0.6388  0.4141
  883MOL0     H21790   0.551   2.490  10.641  0.3643  0.2650  0.1332
  883MOL0     H21791   0.444   2.284  10.602 -1.9217 -1.3124  1.3520
  883MOL0     H21792   0.584   2.213  10.675 -2.5378 -4.4160 -1.8856
  883MOL0     H21793   0.351   2.128  10.744 -3.0938  0.9695 -1.0530
  883MOL0     H21794   0.426   2.208  10.884  0.6428  0.5365 -0.1596
  883MOL0     H21795   0.231   2.335  10.678  2.0958 -3.1804 -1.3598
  883MOL0     H21796   0.262   2.405  10.831 -0.4437  0.9820 -1.2049
  883MOL0     H21797   0.124   2.145  10.780  1.2254 -1.3996  1.0215
  883MOL0     H21798   0.178   2.194  10.947 -2.2552 -0.7598  0.0711
  883MOL0     H21799  -0.048   2.216  10.921  0.6280 -1.4023 -0.9353
  883MOL0     H21800  -0.038   2.322  10.777 -1.4202  0.1411  0.3335
  883MOL0     H21801   0.076   2.394  11.050  1.1751  2.4204  0.8383
  883MOL0     H21802   0.057   2.490  10.898 -0.4583 -0.6190  1.1266
  883MOL0     H21803  -0.144   2.331  11.188  0.9616  4.8179  4.6301
  883MOL0     H21804  -0.372   2.389  11.314  0.7483  0.5659  1.2667
  883MOL0     H21805  -0.473   2.434  11.174 -0.7804  1.5440 -0.8040
  883MOL0     H21806  -0.356   2.627  11.372 -0.5566 -0.0724  0.5220
  883MOL0     H21807  -0.458   2.677  11.246  0.4105 -1.3941 -1.5458
  883MOL0     H21808  -0.624   2.654  11.396  0.5128  1.7593 -2.6845
  883MOL0     H21809  -0.614   2.486  11.380  1.2171 -0.6881 -0.6124
  883MOL0     H21810  -0.439   2.480  11.569  2.0186  1.4653  1.0105
  883MOL0     H21811  -0.454   2.653  11.591 -0.0243  0.7261 -1.5845
  883MOL0     H21812  -0.794   2.505  11.811  0.4472 -0.7551  0.1402
  883MOL0     H21813  -0.907   2.559  12.020  1.0386 -1.1991 -2.8594
  883MOL0     H21814  -1.043   2.674  11.974 -0.9309  0.2388  1.3612
  883MOL0     H21815  -0.904   2.720  12.069  1.3440 -1.1130  0.0184
  883MOL0     H21816  -0.971   3.068  12.183 -1.7256  1.3557  5.4791
  883MOL0     H21817  -1.105   3.241  12.276  0.5441 -2.2183  1.4716
  883MOL0     H21818  -1.201   3.477  12.162 -0.8254 -0.7661  1.0841
  883MOL0     H21819  -1.256   3.427  12.014 -0.2906 -0.8163  0.3041
  883MOL0     H21820  -1.506   3.504  12.116  0.4481 -1.2135  3.3143
  883MOL0     H21821  -1.402   3.589  12.225 -3.4221  0.9986 -0.5992
  883MOL0     H21822  -1.475   3.725  12.034  0.7239 -0.1368  3.3220
  883MOL0     H21823  -1.394   3.618  11.911  2.2695  0.8999 -0.4934
  883MOL0     H21824  -1.290   3.821  11.942 -0.1802  1.4677  2.2731
  883MOL0     H21825  -1.182   3.684  11.979 -0.0493  0.9648  0.6130
  883MOL0     H21826  -1.322   3.842  12.195 -0.3756  0.8303 -0.6227
  883MOL0     H21827  -1.194   3.723  12.222  0.1656  1.3301  0.9596
  883MOL0     H21828  -1.191   4.002  12.108 -1.1407 -1.1536 -1.2759
  883MOL0     H21829  -1.032   3.900  12.111 -1.9520 -0.6680 -3.8160
  883MOL0     H21830  -1.086   3.888  12.358 -1.5544  1.5158  2.5558
  883MOL0     H21831  -1.185   4.022  12.315 -2.2211 -0.8764 -5.6633
  883MOL0     H21832  -1.003   4.158  12.227  2.2428  0.4470  1.1383
  883MOL0     H21833  -0.896   4.013  12.240 -1.9601 -2.7651 -1.4972
  883MOL0     H21834  -1.405   3.191  11.979 -1.9047  0.4707  3.6092
  883MOL0     H21835  -1.239   3.029  11.860 -0.2223  1.3352  0.0189
  883MOL0     H21836  -0.772   2.969  11.658  1.2618 -0.1005  1.7592
  883MOL0     H21837  -0.634   2.821  11.563  3.8172  0.5425  2.9023
  883MOL0     H21838   0.916   2.213  10.603  1.7651 -0.7382 -1.5761
  883MOL0     H21839   0.979   2.238  10.373  0.1832  1.4412 -1.1059
  883MOL0     H21840   1.159   2.791  10.101 -0.5618 -0.1524  0.6016
  883MOL0     H21841   1.262   2.831   9.887 -0.2417  0.2429 -0.5160
  883MOL0     H21842   1.263   2.506   9.586  2.2064 -0.4250 -1.6528
  883MOL0     H21843   1.160   2.644   9.534  1.0322  1.4387 -0.4725
  883MOL0     H21844   1.451   2.607   9.520 -1.6194 -3.7410 -1.7106
  883MOL0     H21845   1.368   2.765   9.468  0.2501  0.0563  0.3771
  883MOL0     H21846   1.380   2.480   9.345 -4.6215 -1.0516 -2.4053
  883MOL0     H21847   1.266   2.595   9.284  0.1742  2.0058  0.3181
  883MOL0     H21848   1.484   2.563   9.149  1.9865  0.7306 -0.6390
  883MOL0     H21849   1.569   2.632   9.279  0.7814  1.1146 -2.1585
  883MOL0     H21850   1.372   2.950   9.068 -1.6859 -0.6166  0.1338
  883MOL0     H21851   1.165   2.441   9.759 -1.1367  0.6387 -1.1449
  883MOL0     H21852   1.163   2.277   9.936  0.8366 -0.9074  3.0828
  883MOL0     H21853   1.112   2.312  10.102 -1.5660 -1.1103  0.8032
  883MOL0     H21854   0.990   2.304   9.974 -0.7630 -2.9481  4.9099
  884MOL0     O21855   4.846   1.233   8.772  0.1401  0.2169 -0.2305
  884MOL0     C21856   4.805   1.270   8.665  0.1362 -0.0577  0.0908
  884MOL0     O21857   4.706   1.366   8.635 -0.3013  0.2083  0.1753
  884MOL0     C21858   4.644   1.404   8.751  0.4713  0.0203 -0.6037
  884MOL0     C21859   4.552   1.323   8.820  0.3919 -0.5887 -0.2997
  884MOL0     C21860   4.485   1.361   8.937  0.8133  0.8527 -0.1709
  884MOL0     C21861   4.518   1.492   8.986 -0.1339 -0.2388  0.0382
  884MOL0     O21862   4.432   1.548   9.078  0.5014  0.3331 -0.4488
  884MOL0     C21863   4.403   1.689   9.086 -0.5641 -0.0707 -0.2482
  884MOL0     C21864   4.250   1.715   9.123 -0.0104 -0.1536  0.3157
  884MOL0     C21865   4.160   1.608   9.055 -0.1022  0.0405 -0.4997
  884MOL0     C21866   4.158   1.633   8.905  0.3636 -0.7091 -0.1619
  884MOL0     C21867   4.040   1.552   8.845  0.7814 -0.0965 -0.5929
  884MOL0     C21868   4.037   1.410   8.891 -0.9912 -0.9742  0.2097
  884MOL0     C21869   3.979   1.329   8.771 -0.2208  0.3276  0.1135
  884MOL0     C21870   3.934   1.183   8.816  0.2325  0.1196  0.6904
  884MOL0     N21871   4.059   1.122   8.864 -0.3897  0.4825 -0.1670
  884MOL0     C21872   4.075   1.106   8.994 -0.3512  0.0005 -0.8319
  884MOL0     C21873   4.204   1.068   9.002 -0.3415  0.4324  0.1924
  884MOL0     C21874   4.274   1.035   9.127  0.0783  0.5606 -0.0479
  884MOL0     C21875   4.289   1.161   9.209  0.0959  0.2772 -0.6183
  884MOL0     C21876   4.266   1.132   9.362  0.0212  0.1985 -0.4477
  884MOL0     C21877   4.261   1.258   9.460 -0.2914 -0.3935  0.7315
  884MOL0     O21878   4.227   1.222   9.591 -0.2484  0.1825  0.0124
  884MOL0     C21879   4.216   1.317   9.689 -0.0396 -0.2581 -0.2437
  884MOL0     C21880   4.187   1.265   9.811 -0.0124  0.1378 -0.5181
  884MOL0     C21881   4.187   1.342   9.927  0.4424 -0.2233  0.9362
  884MOL0     C21882   4.147   1.267  10.050 -0.6080 -0.5718 -0.3921
  884MOL0     C21883   4.207   1.482   9.923  0.2671 -0.2827  0.0291
  884MOL0     C21884   4.218   1.576  10.044 -0.0693 -0.3774 -0.2947
  884MOL0     O21885   4.300   1.687  10.032  0.0495  0.4975  0.1414
  884MOL0     C21886   4.309   1.758  10.146  0.2593 -0.5233  0.1298
  884MOL0     C21887   4.217   1.862  10.170  0.6833 -0.7441  0.3966
  884MOL0     C21888   4.249   1.944  10.276  0.6906  0.0218 -0.9055
  884MOL0     C21889   4.351   1.930  10.368 -0.3260 -0.0079  0.6601
  884MOL0     O21890   4.375   2.015  10.474 -0.2765 -0.6147  0.3722
  884MOL0     C21891   4.252   2.052  10.537 -0.4142 -0.7597 -0.2909
  884MOL0     C21892   4.278   2.119  10.672  0.0450  0.0306 -0.3319
  884MOL0     C21893   4.151   2.177  10.734  0.1267 -0.4680 -1.1095
  884MOL0     C21894   4.165   2.224  10.879  0.3160 -1.2648 -0.1392
  884MOL0     C21895   4.181   2.111  10.983  0.1424  0.5321  0.0538
  884MOL0     C21896   4.178   2.159  11.133  0.1473 -0.5331  0.4319
  884MOL0     C21897   4.228   2.044  11.221 -0.5956 -0.1212  0.7006
  884MOL0     C21898   4.158   2.051  11.352 -0.0745 -0.2125 -0.5241
  884MOL0    Cl21899   3.968   2.042  11.344  0.2358  0.1441 -0.1838
  884MOL0     C21900   4.442   1.817  10.342  1.5346 -0.0262 -0.5439
  884MOL0     C21901   4.421   1.739  10.222  0.4428 -0.5220 -0.6145
  884MOL0     O21902   4.141   1.554  10.145  0.0229  0.1842  0.6082
  884MOL0     C21903   4.247   1.533   9.790  0.0214  1.3641  0.5187
  884MOL0     C21904   4.263   1.451   9.678  0.0348 -0.2132 -0.0810
  884MOL0     N21905   4.255   1.058   8.875 -0.5538  0.3719  0.4429
  884MOL0     N21906   4.167   1.083   8.791 -0.4027  0.4852 -0.0856
  884MOL0     C21907   4.615   1.568   8.922 -0.6073 -0.3564  0.5477
  884MOL0     C21908   4.682   1.521   8.814 -0.6343 -0.0558  0.3928
  884MOL0     C21909   4.890   1.219   8.556 -0.0623 -0.2702 -0.0622
  884MOL0     C21910   4.922   1.308   8.451 -0.3777 -0.1855 -0.4802
  884MOL0     C21911   4.997   1.265   8.347 -0.8651 -0.0247 -0.3466
  884MOL0     C21912   5.051   1.133   8.333  0.5065  0.5899  0.1137
  884MOL0     O21913   5.130   1.105   8.226  0.1553  1.1034  0.4435
  884MOL0     C21914   5.196   0.976   8.231 -0.8861 -0.3350  1.0419
  884MOL0     C21915   5.270   0.959   8.099 -0.6654 -0.4828  0.3670
  884MOL0     C21916   5.359   0.835   8.086 -0.3919 -0.4060 -0.8089
  884MOL0     C21917   5.276   0.716   8.044 -0.3425  0.4693  0.5161
  884MOL0     C21918   5.361   0.602   8.073 -0.1128 -0.4989 -0.2498
  884MOL0     C21919   5.440   0.517   8.102 -0.6106  0.0795  0.2232
  884MOL0     C21920   5.010   1.042   8.431  0.5157  0.2361  0.2236
  884MOL0     C21921   4.930   1.085   8.536 -0.2032  0.6695 -0.1677
  884MOL0     C21922   4.882   0.983   8.641  0.0868  0.8119 -0.3695
  884MOL0     H21923   4.512   1.233   8.773  1.7139 -1.7113  0.6345
  884MOL0     H21924   4.420   1.288   8.986  1.4628  1.6631  2.0170
  884MOL0     H21925   4.428   1.753   9.001 -2.5989  1.6478  0.3537
  884MOL0     H21926   4.463   1.733   9.167 -1.4990  0.3854  0.2042
  884MOL0     H21927   4.240   1.701   9.231  1.5603 -2.7403  0.1973
  884MOL0     H21928   4.213   1.812   9.089  1.3791  0.0789 -0.6314
  884MOL0     H21929   4.177   1.503   9.080 -3.9012 -0.6726 -0.3334
  884MOL0     H21930   4.057   1.630   9.086  0.4277  1.1282  0.5804
  884MOL0     H21931   4.148   1.738   8.877  2.8307 -0.2121  0.5646
  884MOL0     H21932   4.253   1.608   8.858  0.7520 -0.5491  0.5298
  884MOL0     H21933   4.040   1.562   8.736 -1.9982  2.9376 -0.4931
  884MOL0     H21934   3.948   1.600   8.881  1.0389  0.8261 -1.1302
  884MOL0     H21935   4.133   1.370   8.927  0.1800  1.0569 -0.4966
  884MOL0     H21936   3.969   1.403   8.977 -1.2420 -1.5677 -0.0370
  884MOL0     H21937   4.037   1.336   8.679  0.1577  0.1034  0.3314
  884MOL0     H21938   3.886   1.378   8.740  1.4997  1.0941 -4.5073
  884MOL0     H21939   3.856   1.194   8.892  0.1443  2.3019  0.3301
  884MOL0     H21940   3.892   1.127   8.732  0.8077 -1.4970  1.4278
  884MOL0     H21941   4.005   1.118   9.076  1.6762  2.0407  0.7096
  884MOL0     H21942   4.375   0.999   9.104  0.0784 -0.5189  1.4753
  884MOL0     H21943   4.214   0.957   9.174  0.1458  1.5232  1.6918
  884MOL0     H21944   4.389   1.204   9.210 -1.3161  3.9597  0.6593
  884MOL0     H21945   4.216   1.239   9.185  0.8416  2.3436  3.1268
  884MOL0     H21946   4.177   1.070   9.369  0.6766 -1.0359 -2.2911
  884MOL0     H21947   4.348   1.070   9.400 -0.0330  0.8544  0.8120
  884MOL0     H21948   4.352   1.319   9.467 -1.8794  1.9289  2.7948
  884MOL0     H21949   4.182   1.320   9.418 -1.2106 -2.4505 -0.7426
  884MOL0     H21950   4.158   1.160   9.820 -0.2340  0.3750  2.2446
  884MOL0     H21951   4.046   1.303  10.075 -1.9516 -2.7304 -2.2901
  884MOL0     H21952   4.222   1.277  10.129  0.4949  1.2253 -1.5897
  884MOL0     H21953   4.146   1.159  10.033  2.1980 -0.3636 -2.6297
  884MOL0     H21954   4.135   1.882  10.103  0.8186 -0.5403  0.2917
  884MOL0     H21955   4.174   2.020  10.296  1.2057 -0.0542  1.6423
  884MOL0     H21956   4.193   2.118  10.473  0.3725  1.2047  0.9204
  884MOL0     H21957   4.195   1.961  10.555  0.4219 -1.6775 -2.0991
  884MOL0     H21958   4.324   2.046  10.739  1.4559  1.7871  0.7012
  884MOL0     H21959   4.347   2.202  10.658  0.0094  0.2653  0.7522
  884MOL0     H21960   4.069   2.105  10.740  2.3180 -3.0299  1.3735
  884MOL0     H21961   4.121   2.258  10.668 -2.8975  1.8660  2.6993
  884MOL0     H21962   4.074   2.275  10.912 -1.1187 -3.0423 -1.2415
  884MOL0     H21963   4.251   2.290  10.897  0.3461 -1.4140  0.2900
  884MOL0     H21964   4.099   2.039  10.974 -0.0519  0.7576  0.0092
  884MOL0     H21965   4.283   2.075  10.965  0.5299  0.5207  2.0431
  884MOL0     H21966   4.072   2.178  11.152  0.4385 -1.2818  3.1752
  884MOL0     H21967   4.231   2.252  11.158  2.4179 -2.0378  1.5302
  884MOL0     H21968   4.336   2.051  11.238 -0.0105 -4.0859 -0.3303
  884MOL0     H21969   4.214   1.947  11.173  0.2832  0.5561 -1.0247
  884MOL0     H21970   4.175   2.152  11.389 -1.5619  2.2246 -5.4953
  884MOL0     H21971   4.197   1.970  11.414 -0.3663 -2.8903 -3.5186
  884MOL0     H21972   4.511   1.792  10.421 -2.4933 -0.9874  3.0577
  884MOL0     H21973   4.498   1.667  10.197  2.3400  0.7924  1.0957
  884MOL0     H21974   4.289   1.631   9.773  3.6983 -0.1216  0.0344
  884MOL0     H21975   4.292   1.483   9.578 -2.4007  0.6603 -0.5724
  884MOL0     H21976   4.625   1.673   8.949 -0.1241  0.2611 -1.8197
  884MOL0     H21977   4.756   1.592   8.777 -0.2060 -1.0138 -0.6458
  884MOL0     H21978   4.889   1.410   8.465 -1.7468 -0.9020  2.1329
  884MOL0     H21979   5.026   1.321   8.259  1.2935 -1.4240 -0.5874
  884MOL0     H21980   5.272   0.981   8.309 -0.5460  2.9255  0.6605
  884MOL0     H21981   5.131   0.889   8.240  1.2981 -1.9762  1.9516
  884MOL0     H21982   5.338   1.045   8.104 -0.6207 -0.5438  0.9266
  884MOL0     H21983   5.202   0.971   8.015 -1.1346  1.1848  0.9381
  884MOL0     H21984   5.451   0.856   8.031 -0.3110 -1.3865 -1.0666
  884MOL0     H21985   5.389   0.824   8.191 -2.8879 -1.7940 -0.1554
  884MOL0     H21986   5.244   0.725   7.940 -2.0040  1.0363  1.0414
  884MOL0     H21987   5.182   0.703   8.099 -0.8695  0.0556 -0.4650
  884MOL0     H21988   5.501   0.436   8.135 -1.6132 -0.4869  0.7296
  884MOL0     H21989   5.029   0.936   8.413  3.1228  0.6198  0.3213
  884MOL0     H21990   4.894   0.882   8.601  0.2048  0.4001  0.6707
  884MOL0     H21991   4.943   0.984   8.732  1.4486 -2.0629 -1.1415
  884MOL0     H21992   4.777   0.983   8.672 -0.0025 -1.5942 -0.4781
  885MOL0     O21993   7.518  11.199   1.354 -0.4146  0.4046  0.4429
  885MOL0     C21994   7.459  11.293   1.401  0.0182 -0.0189  0.1355
  885MOL0     O21995   7.461  11.417   1.361 -0.0627 -0.7241 -1.0005
  885MOL0     C21996   7.555  11.481   1.276  1.1596 -0.0226  0.4704
  885MOL0     C21997   7.509  11.609   1.234 -0.4086 -0.9087 -0.0072
  885MOL0     C21998   7.595  11.687   1.167 -1.2287 -0.1374  1.1337
  885MOL0     C21999   7.727  11.641   1.132 -0.8228 -0.2369 -0.2704
  885MOL0     O22000   7.824  11.727   1.071 -0.6897  0.3399 -0.4180
  885MOL0     C22001   7.961  11.671   1.031 -0.0876 -1.0105  0.2107
  885MOL0     C22002   8.039  11.774   0.956 -0.4138 -0.3350  0.0082
  885MOL0     C22003   8.113  11.868   1.050 -0.1682  0.3466  0.5966
  885MOL0     C22004   8.188  11.979   0.981 -0.2462  0.3415  0.0664
  885MOL0     C22005   8.329  11.933   0.942  0.5187 -0.6617  0.2280
  885MOL0     C22006   8.400  12.058   0.875 -0.4066  0.0556  0.3563
  885MOL0     C22007   8.524  12.030   0.787  0.0868 -0.4356  0.3231
  885MOL0     C22008   8.559  12.158   0.698 -0.4519  0.2738  0.4076
  885MOL0     N22009   8.646  12.123   0.580 -0.2885  0.5787 -0.1383
  885MOL0     C22010   8.785  12.109   0.592 -0.5619  0.1912 -0.0060
  885MOL0     C22011   8.815  12.017   0.497  0.0043 -0.5633  0.0537
  885MOL0     C22012   8.944  11.955   0.486 -0.3664  0.8915  0.0198
  885MOL0     C22013   9.055  12.058   0.495 -1.0543 -0.6847  0.5132
  885MOL0     C22014   9.197  11.993   0.501  0.1068  0.5517 -0.3125
  885MOL0     C22015   9.234  11.891   0.391 -0.2261  0.4802 -0.1478
  885MOL0     O22016   9.197  11.931   0.259  0.6319 -0.2740  0.1809
  885MOL0     C22017   9.265  12.032   0.202  0.7381 -0.8386 -0.3892
  885MOL0     C22018   9.389  12.092   0.240 -0.2772 -0.7955  0.6139
  885MOL0     C22019   9.449  12.189   0.154  0.6920  0.7354 -0.1441
  885MOL0     C22020   9.585  12.243   0.209  0.0592 -0.8951  0.3343
  885MOL0     C22021   9.395  12.234   0.033  0.2000 -0.4790 -0.2489
  885MOL0     C22022   9.453  12.339  -0.049 -0.3403 -0.3234  0.1317
  885MOL0     O22023   9.372  12.444  -0.081  0.5845  0.6951  0.5160
  885MOL0     C22024   9.401  12.518  -0.195 -0.0424 -0.6326  0.0613
  885MOL0     C22025   9.360  12.650  -0.188 -0.2697 -0.4762  0.3427
  885MOL0     C22026   9.383  12.743  -0.288 -0.9657 -0.5105  0.0512
  885MOL0     C22027   9.446  12.688  -0.406  0.6752 -0.8133 -0.6216
  885MOL0     O22028   9.462  12.766  -0.516 -0.7542  0.2058 -0.3273
  885MOL0     C22029   9.579  12.849  -0.513  0.2592 -0.3702 -0.0968
  885MOL0     C22030   9.612  12.910  -0.648 -0.4856 -0.0492 -0.7911
  885MOL0     C22031   9.542  13.043  -0.683 -0.3560  0.3461 -0.0915
  885MOL0     C22032   9.592  13.080  -0.825 -0.1778 -1.4225 -1.7456
  885MOL0     C22033   9.535  13.220  -0.867  0.4229  0.0778  0.2468
  885MOL0     C22034   9.591  13.273  -0.994  0.3081  0.1593 -0.1324
  885MOL0     C22035   9.735  13.313  -0.972 -0.1664 -1.0286 -0.0516
  885MOL0     C22036   9.773  13.430  -1.070 -1.3430 -0.1995  0.4974
  885MOL0    Cl22037   9.811  13.367  -1.230  0.2236  0.1488  0.5689
  885MOL0     C22038   9.489  12.562  -0.408  0.0871  0.1678  0.4325
  885MOL0     C22039   9.470  12.476  -0.303 -0.0385  0.7240 -0.4867
  885MOL0     O22040   9.573  12.332  -0.074 -0.5662 -0.0176  0.5148
  885MOL0     C22041   9.264  12.183   0.002  0.4894 -0.1627 -1.1450
  885MOL0     C22042   9.203  12.084   0.082  0.1548  0.2252  0.3180
  885MOL0     N22043   8.702  11.998   0.416  0.6481 -0.2427  0.5528
  885MOL0     N22044   8.592  12.062   0.466  0.1034  0.2877 -0.6204
  885MOL0     C22045   7.754  11.506   1.158  0.3589  0.0188 -0.4209
  885MOL0     C22046   7.671  11.427   1.230 -0.3907  0.4544  0.5371
  885MOL0     C22047   7.381  11.260   1.512 -0.1618  0.4248 -0.1934
  885MOL0     C22048   7.430  11.296   1.639 -0.0471  1.0316 -0.1392
  885MOL0     C22049   7.348  11.261   1.750 -1.0011  0.0188 -0.7063
  885MOL0     C22050   7.216  11.216   1.739 -1.6878  0.3667 -0.3735
  885MOL0     O22051   7.138  11.213   1.853 -0.4842 -0.1342  0.2439
  885MOL0     C22052   7.017  11.128   1.850 -0.1427 -0.9002  0.9888
  885MOL0     C22053   6.976  11.076   1.979  0.5116  0.0018 -0.1517
  885MOL0     C22054   7.012  11.168   2.101  0.0046 -0.7840 -0.1087
  885MOL0     C22055   7.150  11.131   2.167 -0.0944 -0.3016 -0.9428
  885MOL0     C22056   7.154  11.007   2.238  0.0520 -0.0072  0.5409
  885MOL0     C22057   7.147  10.896   2.277  1.0819  0.9993  0.0853
  885MOL0     C22058   7.177  11.175   1.610  0.1583 -0.8978 -0.5943
  885MOL0     C22059   7.248  11.208   1.490 -0.0065 -0.3727 -0.4805
  885MOL0     C22060   7.189  11.173   1.354  0.1436 -0.1356 -0.1748
  885MOL0     H22061   7.414  11.644   1.271 -1.1606 -0.5714 -2.1258
  885MOL0     H22062   7.566  11.789   1.145  1.9984  1.9549  5.1367
  885MOL0     H22063   7.923  11.597   0.960  0.1927  0.6609 -1.7711
  885MOL0     H22064   8.007  11.634   1.123 -1.4886  2.8517  2.7443
  885MOL0     H22065   8.111  11.729   0.887  0.5570 -0.0125  0.7936
  885MOL0     H22066   7.965  11.829   0.897 -0.5199  0.4070  0.8191
  885MOL0     H22067   8.045  11.920   1.118  0.6984  0.9932  0.9860
  885MOL0     H22068   8.179  11.810   1.115 -3.0118 -4.7211 -0.4960
  885MOL0     H22069   8.128  12.027   0.904 -0.7523  0.9278  0.8018
  885MOL0     H22070   8.199  12.061   1.053 -2.0683  0.5226  0.1801
  885MOL0     H22071   8.317  11.852   0.868 -1.5998 -2.2084  2.1021
  885MOL0     H22072   8.383  11.891   1.026  1.2198  0.1483  0.1885
  885MOL0     H22073   8.333  12.123   0.818  1.7886  0.6902 -1.6522
  885MOL0     H22074   8.427  12.122   0.959  1.0727 -0.9007  0.6516
  885MOL0     H22075   8.503  11.957   0.709  2.1291  1.6094 -2.3710
  885MOL0     H22076   8.604  12.009   0.859 -1.1332 -0.1363  1.8152
  885MOL0     H22077   8.469  12.203   0.655  0.9741  2.2638 -0.6046
  885MOL0     H22078   8.609  12.230   0.763 -0.5242  1.7805 -1.1458
  885MOL0     H22079   8.846  12.119   0.681 -2.0435 -3.4959  1.6450
  885MOL0     H22080   8.953  11.899   0.392  2.4966 -2.0855  1.8164
  885MOL0     H22081   8.957  11.890   0.574 -0.4359  3.2593  1.8771
  885MOL0     H22082   9.048  12.121   0.406  3.5297  1.0640  1.1075
  885MOL0     H22083   9.049  12.128   0.578  0.9339 -2.9425  2.7371
  885MOL0     H22084   9.267  12.076   0.488  0.5592  0.3643  0.7414
  885MOL0     H22085   9.202  11.948   0.601  0.8350 -2.1632 -1.4863
  885MOL0     H22086   9.340  11.866   0.390 -0.1890  0.6576 -0.9925
  885MOL0     H22087   9.185  11.797   0.419 -1.6388  1.6219  1.4180
  885MOL0     H22088   9.442  12.070   0.332 -1.6551 -0.9392  1.4002
  885MOL0     H22089   9.629  12.209   0.303  1.5648  2.3529  0.9546
  885MOL0     H22090   9.575  12.352   0.207 -0.0201 -0.9103 -0.7605
  885MOL0     H22091   9.659  12.204   0.138 -0.3861 -0.1911 -0.5415
  885MOL0     H22092   9.315  12.686  -0.096 -0.2663 -0.0101  0.1654
  885MOL0     H22093   9.359  12.848  -0.282 -0.1135 -0.3243  0.3548
  885MOL0     H22094   9.578  12.927  -0.437 -0.5843 -0.6525  0.1918
  885MOL0     H22095   9.670  12.792  -0.489 -0.0411 -1.6564 -1.7541
  885MOL0     H22096   9.720  12.922  -0.664 -0.8223  0.9902 -2.5606
  885MOL0     H22097   9.582  12.827  -0.713  1.2833 -0.3270 -1.3295
  885MOL0     H22098   9.576  13.120  -0.613 -1.3369  0.0627  0.7221
  885MOL0     H22099   9.435  13.020  -0.676 -0.1593 -0.2199  1.4293
  885MOL0     H22100   9.572  13.002  -0.900  2.6609 -2.3080 -1.7222
  885MOL0     H22101   9.701  13.091  -0.816 -0.4900  0.3374  1.3431
  885MOL0     H22102   9.427  13.211  -0.881  0.5442 -0.3597 -0.4792
  885MOL0     H22103   9.555  13.294  -0.789 -1.1762  1.3930 -0.5337
  885MOL0     H22104   9.533  13.360  -1.026  1.1157  1.4243  1.6831
  885MOL0     H22105   9.592  13.216  -1.088  2.6738  0.4444 -0.3586
  885MOL0     H22106   9.808  13.233  -0.976  2.0711  0.8724  0.6659
  885MOL0     H22107   9.752  13.350  -0.870 -4.8772 -1.4190  1.1065
  885MOL0     H22108   9.865  13.467  -1.025  0.1261 -0.6771 -1.9164
  885MOL0     H22109   9.696  13.508  -1.075 -0.5104  0.6315  0.4684
  885MOL0     H22110   9.524  12.519  -0.501  0.5035  2.0232 -0.3113
  885MOL0     H22111   9.500  12.372  -0.314  2.7039  1.1480  1.6952
  885MOL0     H22112   9.231  12.204  -0.100  0.1728 -3.0431 -1.7160
  885MOL0     H22113   9.113  12.031   0.053  0.9294 -1.7350  1.3181
  885MOL0     H22114   7.845  11.461   1.122  0.3876 -0.9560  0.8231
  885MOL0     H22115   7.699  11.323   1.241  1.8705  0.6261 -2.4334
  885MOL0     H22116   7.521  11.355   1.648 -1.2667  2.7306  1.9826
  885MOL0     H22117   7.389  11.284   1.848 -0.1399  1.4507 -1.3655
  885MOL0     H22118   6.937  11.192   1.810 -2.3445 -2.4701  2.6315
  885MOL0     H22119   7.022  11.052   1.772 -0.2088  3.3806 -3.7304
  885MOL0     H22120   7.029  10.980   1.979 -2.2853 -1.6685  0.0353
  885MOL0     H22121   6.875  11.033   1.977  1.3857 -2.2421 -2.7942
  885MOL0     H22122   7.028  11.270   2.065  2.4058 -1.0477  0.0485
  885MOL0     H22123   6.938  11.165   2.181  3.2445 -2.7310  3.1063
  885MOL0     H22124   7.186  11.207   2.237 -0.0990 -2.9387  2.1949
  885MOL0     H22125   7.231  11.131   2.094  2.7564  2.3829  1.9483
  885MOL0     H22126   7.138  10.794   2.307  0.6526  0.5293 -1.5217
  885MOL0     H22127   7.079  11.135   1.586  0.9287 -2.3480 -1.4348
  885MOL0     H22128   7.224  11.238   1.275 -0.0988 -2.0203 -1.9149
  885MOL0     H22129   7.221  11.069   1.339 -0.8661 -0.4559 -0.2326
  885MOL0     H22130   7.080  11.183   1.356  0.0884 -0.1387 -2.0168
  886MOL0     O22131   9.027   6.888   4.905 -0.2230  0.9101  0.2285
  886MOL0     C22132   9.044   6.766   4.891 -0.0739  0.2872 -0.5428
  886MOL0     O22133   8.989   6.661   4.964  0.1910 -0.6297 -0.0521
  886MOL0     C22134   8.896   6.673   5.067  0.4826 -0.0114  0.2740
  886MOL0     C22135   8.824   6.791   5.093  0.0836  0.4347  0.1098
  886MOL0     C22136   8.741   6.799   5.207  0.6076  0.3650  0.8531
  886MOL0     C22137   8.737   6.698   5.298  0.1051  0.5731  0.2998
  886MOL0     O22138   8.669   6.737   5.403  0.5263  0.1586 -0.5994
  886MOL0     C22139   8.722   6.710   5.534 -0.0060  0.3646 -0.5674
  886MOL0     C22140   8.810   6.829   5.591  0.0532 -0.4395 -0.1364
  886MOL0     C22141   8.746   6.969   5.595  0.8530 -1.0099  0.8487
  886MOL0     C22142   8.661   6.972   5.724  0.7004  0.1330  0.4145
  886MOL0     C22143   8.628   7.104   5.794  0.4787 -0.2736  0.3666
  886MOL0     C22144   8.576   7.198   5.683 -0.2450 -0.0848  0.4966
  886MOL0     C22145   8.496   7.312   5.738  0.1995 -0.4145 -0.0046
  886MOL0     C22146   8.432   7.412   5.644 -0.2671  0.6601 -0.5069
  886MOL0     N22147   8.517   7.503   5.563  0.2575 -0.3685 -0.0838
  886MOL0     C22148   8.620   7.580   5.610  0.6382 -0.3816  0.5610
  886MOL0     C22149   8.664   7.646   5.497  0.0734 -0.4941  0.3520
  886MOL0     C22150   8.780   7.738   5.471 -0.4721 -0.1696 -0.5340
  886MOL0     C22151   8.764   7.875   5.536  0.0917 -0.0151  0.4198
  886MOL0     C22152   8.634   7.950   5.489 -0.1565 -0.5694  0.4390
  886MOL0     C22153   8.625   7.982   5.341 -0.5613  0.1752  0.1798
  886MOL0     O22154   8.490   8.021   5.329 -0.0662 -0.3228 -0.3183
  886MOL0     C22155   8.458   8.131   5.250  0.9533 -0.3687  1.2654
  886MOL0     C22156   8.354   8.212   5.284  0.0186 -0.0552 -0.6208
  886MOL0     C22157   8.285   8.296   5.200 -0.8728 -0.8447  0.5291
  886MOL0     C22158   8.158   8.341   5.248  1.1054 -0.3942  0.4936
  886MOL0     C22159   8.349   8.335   5.075  0.4582  0.6255 -0.2311
  886MOL0     C22160   8.293   8.437   4.974 -0.3151  1.4838 -0.3862
  886MOL0     O22161   8.368   8.446   4.862  0.5901  0.3669  0.0898
  886MOL0     C22162   8.315   8.506   4.752 -0.5020 -0.3540  0.1413
  886MOL0     C22163   8.285   8.640   4.761 -0.4267 -0.1037  0.6776
  886MOL0     C22164   8.208   8.711   4.671 -0.0298 -0.5828  0.5419
  886MOL0     C22165   8.153   8.644   4.560 -0.4332 -0.5216  0.4128
  886MOL0     O22166   8.070   8.711   4.479  0.1170  0.4776 -0.4857
  886MOL0     C22167   8.101   8.725   4.347  0.4136 -0.4800 -0.0883
  886MOL0     C22168   8.053   8.864   4.296 -0.3681  0.7534 -1.0232
  886MOL0     C22169   8.120   8.904   4.160  0.5462  0.6318  0.1008
  886MOL0     C22170   8.082   9.041   4.117 -1.6661 -0.2260  0.9497
  886MOL0     C22171   8.101   9.070   3.966 -0.0797 -0.2682 -0.3942
  886MOL0     C22172   8.242   9.052   3.919  0.4241  0.7249  1.2578
  886MOL0     C22173   8.233   9.051   3.761  0.5300 -0.8287  1.2442
  886MOL0     C22174   8.350   8.992   3.687 -1.0203  0.8061  0.2982
  886MOL0    Cl22175   8.371   8.815   3.744  0.0290  0.1529  0.0034
  886MOL0     C22176   8.175   8.506   4.546  0.3175 -0.0492  0.5503
  886MOL0     C22177   8.258   8.438   4.650  0.6854 -0.4516 -0.5085
  886MOL0     O22178   8.180   8.486   4.991  0.2430  0.2899 -0.3374
  886MOL0     C22179   8.461   8.259   5.040  0.4702 -0.3006 -0.2922
  886MOL0     C22180   8.510   8.145   5.119  0.9414  0.1195  0.8132
  886MOL0     N22181   8.569   7.622   5.396  0.2553  0.0545  0.2230
  886MOL0     N22182   8.487   7.525   5.435  0.1157 -0.1907 -0.5849
  886MOL0     C22183   8.809   6.580   5.268 -0.3285  1.3186 -0.5063
  886MOL0     C22184   8.884   6.567   5.153  0.1524  0.0086  0.5324
  886MOL0     C22185   9.122   6.721   4.771 -0.4574  0.7031  0.6313
  886MOL0     C22186   9.090   6.603   4.709  0.1760  0.1928 -0.5694
  886MOL0     C22187   9.149   6.562   4.586  0.6769  0.4811 -0.0658
  886MOL0     C22188   9.253   6.638   4.534  0.1046  0.2998  0.3057
  886MOL0     O22189   9.310   6.615   4.409  0.5869  0.0950 -0.0328
  886MOL0     C22190   9.275   6.499   4.334  0.1758 -0.4262  0.8653
  886MOL0     C22191   9.364   6.502   4.208 -0.6104  0.8863 -0.0318
  886MOL0     C22192   9.512   6.474   4.234 -0.2235  0.0006 -0.0249
  886MOL0     C22193   9.542   6.327   4.282 -0.8077 -0.4302  0.3842
  886MOL0     C22194   9.509   6.231   4.169  0.1055  0.4515  0.0877
  886MOL0     C22195   9.485   6.158   4.071 -0.1919 -0.4153  0.2732
  886MOL0     C22196   9.292   6.760   4.592  0.2085  0.9478  0.4827
  886MOL0     C22197   9.227   6.799   4.711  0.1706  0.2199 -0.5331
  886MOL0     C22198   9.292   6.916   4.776 -0.0883  0.2211 -0.0048
  886MOL0     H22199   8.830   6.882   5.034 -0.0956  1.6423  1.8892
  886MOL0     H22200   8.689   6.893   5.218 -0.6810  0.0359 -1.7736
  886MOL0     H22201   8.772   6.614   5.541 -1.6095 -0.4701 -0.1126
  886MOL0     H22202   8.630   6.713   5.594 -0.3800 -0.6165 -1.0748
  886MOL0     H22203   8.832   6.798   5.694 -2.2111  1.0550  0.8636
  886MOL0     H22204   8.905   6.837   5.537 -0.7404  0.7822 -1.4198
  886MOL0     H22205   8.830   7.039   5.590  1.4127 -1.7703 -1.7917
  886MOL0     H22206   8.679   6.993   5.512  1.6999 -0.3656  0.3299
  886MOL0     H22207   8.562   6.937   5.693  1.3795 -0.8626 -0.7181
  886MOL0     H22208   8.696   6.902   5.801  2.1275 -0.1867 -0.5062
  886MOL0     H22209   8.722   7.129   5.843 -0.1339  0.0773  1.3953
  886MOL0     H22210   8.556   7.096   5.877  0.2106  0.9350  0.2764
  886MOL0     H22211   8.666   7.239   5.635  0.6792 -2.3623  0.1583
  886MOL0     H22212   8.511   7.152   5.608 -2.2176 -0.2515  2.2258
  886MOL0     H22213   8.555   7.373   5.807 -1.1839 -0.0028  0.8702
  886MOL0     H22214   8.412   7.264   5.789 -1.1621  2.0745  0.2902
  886MOL0     H22215   8.367   7.359   5.574 -0.6006  0.4192 -0.0179
  886MOL0     H22216   8.360   7.475   5.698 -2.7944 -1.7988 -0.7874
  886MOL0     H22217   8.656   7.580   5.713 -0.3733  2.0510  0.9876
  886MOL0     H22218   8.799   7.745   5.363 -1.7156  0.0002 -0.7584
  886MOL0     H22219   8.862   7.692   5.527 -2.2801 -2.2163  0.5631
  886MOL0     H22220   8.756   7.856   5.644  2.7308 -2.4988  0.2948
  886MOL0     H22221   8.840   7.948   5.509 -1.1917  1.1045 -0.2911
  886MOL0     H22222   8.546   7.887   5.504 -2.9240  1.9883 -3.2623
  886MOL0     H22223   8.624   8.032   5.561 -0.1069  0.4098 -0.6443
  886MOL0     H22224   8.708   8.049   5.315  1.0512 -2.0546 -0.7435
  886MOL0     H22225   8.639   7.891   5.282 -1.0140 -1.7383  2.8686
  886MOL0     H22226   8.322   8.205   5.387  0.9596  2.9478 -0.0147
  886MOL0     H22227   8.118   8.278   5.328 -2.1127 -0.5090 -1.0571
  886MOL0     H22228   8.091   8.348   5.162  4.1273  0.7851 -1.9551
  886MOL0     H22229   8.171   8.442   5.290 -0.9814 -0.1557  0.6772
  886MOL0     H22230   8.313   8.693   4.851 -0.2564 -1.7193  1.6070
  886MOL0     H22231   8.207   8.819   4.683  0.5028 -0.6025  0.8155
  886MOL0     H22232   8.205   8.715   4.318  0.7683  0.1889  0.8926
  886MOL0     H22233   8.033   8.651   4.303 -1.1801  0.0837  1.2740
  886MOL0     H22234   7.945   8.873   4.282 -0.0334  1.1817 -3.9590
  886MOL0     H22235   8.081   8.942   4.368  1.5882 -1.1423  0.4177
  886MOL0     H22236   8.088   8.836   4.080  0.1686  3.2171 -2.0874
  886MOL0     H22237   8.229   8.892   4.166  0.5674  1.4204  1.7120
  886MOL0     H22238   8.142   9.106   4.182 -0.8607 -1.0878  1.0960
  886MOL0     H22239   7.977   9.058   4.144 -1.7751 -1.0477  1.0559
  886MOL0     H22240   8.037   9.009   3.902  0.8114 -1.6828  0.0242
  886MOL0     H22241   8.074   9.176   3.962 -0.0798 -0.2537 -0.0634
  886MOL0     H22242   8.272   8.951   3.948  2.2439  0.9101  0.1912
  886MOL0     H22243   8.315   9.126   3.952  1.3131  0.5419 -0.1827
  886MOL0     H22244   8.227   9.153   3.721 -2.1555 -1.2500  0.4214
  886MOL0     H22245   8.139   9.006   3.730  1.7388 -1.9248 -1.1469
  886MOL0     H22246   8.443   9.043   3.712 -1.0780 -0.0774  2.5127
  886MOL0     H22247   8.342   8.993   3.578  1.3697 -0.7996  0.0245
  886MOL0     H22248   8.137   8.443   4.466 -0.6448 -1.4050  2.0306
  886MOL0     H22249   8.267   8.330   4.656  0.6069 -0.5155 -1.4244
  886MOL0     H22250   8.508   8.275   4.943 -0.1902  1.2049 -0.3913
  886MOL0     H22251   8.596   8.087   5.085  0.2960  1.4284 -3.7542
  886MOL0     H22252   8.810   6.486   5.322 -2.6289  0.8968 -1.0678
  886MOL0     H22253   8.942   6.478   5.130  1.1878  0.7671  0.1698
  886MOL0     H22254   9.023   6.533   4.759  1.9280 -0.8242  0.4404
  886MOL0     H22255   9.114   6.475   4.532 -2.1036  2.6553 -2.0686
  886MOL0     H22256   9.275   6.403   4.385  1.5723 -1.6191 -1.2200
  886MOL0     H22257   9.171   6.519   4.307  1.0623  2.6807 -0.7583
  886MOL0     H22258   9.364   6.599   4.157  2.3321  1.0097  0.0208
  886MOL0     H22259   9.324   6.428   4.138  1.7778 -0.6758  0.1540
  886MOL0     H22260   9.567   6.488   4.140 -0.6851 -2.9283 -0.8137
  886MOL0     H22261   9.550   6.550   4.303 -1.4140  2.5639 -1.9831
  886MOL0     H22262   9.484   6.297   4.370 -1.3331  0.3910  0.3270
  886MOL0     H22263   9.648   6.312   4.303 -0.3958  2.7127  1.0715
  886MOL0     H22264   9.463   6.105   3.981  0.5225 -1.8966  0.9341
  886MOL0     H22265   9.360   6.828   4.543 -2.4031  0.9773 -3.6173
  886MOL0     H22266   9.373   6.891   4.846  1.1959  0.0304 -1.5016
  886MOL0     H22267   9.330   6.988   4.703  1.2188  0.4402  0.8415
  886MOL0     H22268   9.214   6.966   4.836 -0.2490  1.1978 -0.9975
  887MOL0     O22269   5.188   0.357   8.980 -0.4972  1.0974 -0.8138
  887MOL0     C22270   5.084   0.359   8.911 -0.0395 -0.9795 -0.1980
  887MOL0     O22271   5.014   0.474   8.873 -0.6973 -0.3874  0.1001
  887MOL0     C22272   5.058   0.601   8.914  0.3229 -0.7006  0.1727
  887MOL0     C22273   5.169   0.652   8.879 -0.0293  0.0552 -0.8542
  887MOL0     C22274   5.212   0.779   8.932  0.5455  0.7533 -0.1415
  887MOL0     C22275   5.134   0.859   9.013  1.4234 -0.0613 -0.1812
  887MOL0     O22276   5.187   0.978   9.054 -0.5577  0.8325 -0.2172
  887MOL0     C22277   5.107   1.098   9.046  0.2330  0.2061  0.4096
  887MOL0     C22278   5.061   1.159   9.176  0.2343  0.4393 -0.2696
  887MOL0     C22279   4.958   1.272   9.144 -0.2908  1.1479 -0.1091
  887MOL0     C22280   5.006   1.402   9.084 -0.0695 -0.5033 -0.3885
  887MOL0     C22281   4.901   1.514   9.117 -0.7341 -1.0604 -0.1294
  887MOL0     C22282   4.894   1.563   9.267 -0.6552 -0.9512  0.7479
  887MOL0     C22283   4.780   1.659   9.279 -0.1309 -0.7680 -0.3932
  887MOL0     C22284   4.740   1.666   9.431 -0.7280  0.1602 -0.6109
  887MOL0     N22285   4.592   1.710   9.431 -0.2506  0.2259 -0.4521
  887MOL0     C22286   4.553   1.838   9.472 -0.0890  0.4285  0.2038
  887MOL0     C22287   4.416   1.835   9.484 -0.5851 -0.2736 -0.7186
  887MOL0     C22288   4.339   1.953   9.531  0.0998 -0.1299 -0.4326
  887MOL0     C22289   4.285   1.932   9.686  0.1980 -0.1227 -0.0420
  887MOL0     C22290   4.352   2.031   9.779 -0.6178 -0.2092  0.2024
  887MOL0     C22291   4.493   1.989   9.810 -0.5656 -0.6427  0.4729
  887MOL0     O22292   4.565   2.094   9.881  0.2235  0.1843 -0.0497
  887MOL0     C22293   4.632   2.189   9.811 -0.1792 -0.4855  0.3420
  887MOL0     C22294   4.639   2.209   9.674 -0.3461  0.1759  0.8727
  887MOL0     C22295   4.700   2.321   9.613 -0.0882 -0.6818 -0.3736
  887MOL0     C22296   4.669   2.342   9.473 -0.3628  0.6294 -0.3154
  887MOL0     C22297   4.760   2.429   9.696 -0.0790  0.4474  1.0593
  887MOL0     C22298   4.840   2.546   9.653  0.7608 -0.3295 -0.3585
  887MOL0     O22299   4.876   2.638   9.753  0.6589 -0.7511 -0.2454
  887MOL0     C22300   4.943   2.755   9.733 -0.1954 -0.5481  0.9350
  887MOL0     C22301   5.000   2.804   9.609  0.3369 -1.9727 -0.0529
  887MOL0     C22302   5.064   2.935   9.612  0.8688 -0.0421 -0.2700
  887MOL0     C22303   5.073   3.004   9.735 -0.3792 -0.1895 -0.4032
  887MOL0     O22304   5.126   3.128   9.750  0.5934 -0.2392 -0.2204
  887MOL0     C22305   5.270   3.111   9.748 -0.3060  0.2208  0.6282
  887MOL0     C22306   5.338   3.231   9.803  0.1707  0.0162  0.2833
  887MOL0     C22307   5.495   3.221   9.791 -0.4492  0.9377 -0.9410
  887MOL0     C22308   5.573   3.324   9.851 -0.6526 -0.8077 -0.1838
  887MOL0     C22309   5.726   3.326   9.824  0.4517 -0.0021  0.4275
  887MOL0     C22310   5.775   3.400   9.697  0.4347  0.4176 -0.5023
  887MOL0     C22311   5.712   3.536   9.678  0.2380  0.0800  0.7288
  887MOL0     C22312   5.722   3.633   9.795  0.2127  0.3349  1.2375
  887MOL0    Cl22313   5.881   3.655   9.882  0.2654 -0.6517  0.0986
  887MOL0     C22314   5.040   2.933   9.851 -0.1265  0.4182 -0.4023
  887MOL0     C22315   4.974   2.812   9.847 -0.0244  0.2828  0.5751
  887MOL0     O22316   4.887   2.541   9.538 -0.4234  0.5449  0.2568
  887MOL0     C22317   4.757   2.400   9.827 -0.1345  0.0967  0.4362
  887MOL0     C22318   4.692   2.289   9.889 -0.3151  0.7625  0.4281
  887MOL0     N22319   4.374   1.704   9.477  0.6096  0.3916 -0.1392
  887MOL0     N22320   4.489   1.631   9.441 -0.0796  0.4562  0.1738
  887MOL0     C22321   5.002   0.806   9.033 -0.4130 -0.6764 -0.3401
  887MOL0     C22322   4.968   0.680   8.988 -0.4080  0.0909  0.5653
  887MOL0     C22323   5.013   0.237   8.884 -0.0042 -0.3424 -0.1653
  887MOL0     C22324   4.886   0.217   8.929  0.1302  0.3027  0.0743
  887MOL0     C22325   4.815   0.099   8.911  0.5038 -0.8038 -0.7045
  887MOL0     C22326   4.879  -0.012   8.871  0.3420 -0.3745  0.6986
  887MOL0     O22327   4.814  -0.134   8.872  0.6271 -0.2127 -0.1878
  887MOL0     C22328   4.889  -0.256   8.845  0.3464 -1.0942 -0.0307
  887MOL0     C22329   4.800  -0.380   8.829  0.1794 -0.1317 -0.0563
  887MOL0     C22330   4.692  -0.361   8.732 -0.1747  0.4844  0.9186
  887MOL0     C22331   4.590  -0.481   8.723 -0.3775  0.4606 -0.0953
  887MOL0     C22332   4.643  -0.592   8.649  0.5682  0.6004  1.4929
  887MOL0     C22333   4.686  -0.681   8.582 -0.6320  0.4442 -0.3908
  887MOL0     C22334   5.004   0.008   8.823 -1.1352 -0.4359  0.5701
  887MOL0     C22335   5.076   0.128   8.826  0.6965 -0.2277  0.3468
  887MOL0     C22336   5.214   0.138   8.766  0.9171 -0.0912 -0.3329
  887MOL0     H22337   5.221   0.588   8.809 -2.4615 -1.0356 -1.7980
  887MOL0     H22338   5.301   0.822   8.888  0.8283 -1.5089 -1.9901
  887MOL0     H22339   5.024   1.074   8.978 -0.2465 -1.1711  1.4171
  887MOL0     H22340   5.166   1.167   8.985  2.0693 -3.9501 -3.1088
  887MOL0     H22341   5.019   1.085   9.246  0.5763  1.5500  1.1634
  887MOL0     H22342   5.149   1.191   9.233  0.2095 -1.7103  1.1295
  887MOL0     H22343   4.882   1.222   9.083  0.8928 -0.7157 -0.1481
  887MOL0     H22344   4.897   1.296   9.231  1.1757 -1.1755  1.6788
  887MOL0     H22345   5.109   1.417   9.119 -0.4179  0.5810  0.2286
  887MOL0     H22346   5.013   1.389   8.975 -0.3190 -1.2653 -0.3190
  887MOL0     H22347   4.803   1.467   9.105 -0.9514 -1.8687  3.5047
  887MOL0     H22348   4.901   1.605   9.057 -0.4047  0.0463  1.4730
  887MOL0     H22349   4.888   1.482   9.341  4.0412 -3.9023 -1.6022
  887MOL0     H22350   4.989   1.613   9.289  0.3919 -2.2978 -0.4445
  887MOL0     H22351   4.694   1.632   9.218 -0.4740  2.2290 -1.4295
  887MOL0     H22352   4.803   1.763   9.253 -1.0939 -0.8511 -1.6354
  887MOL0     H22353   4.741   1.571   9.486 -2.6571  1.6185  2.2271
  887MOL0     H22354   4.803   1.736   9.488  1.8666 -0.5296 -2.4639
  887MOL0     H22355   4.628   1.909   9.504  1.2235 -0.5971 -0.5062
  887MOL0     H22356   4.248   1.959   9.471 -1.9649 -2.2714  2.1604
  887MOL0     H22357   4.402   2.042   9.521 -2.1455  1.8136  1.3148
  887MOL0     H22358   4.179   1.956   9.695  0.2129  0.3152 -0.8687
  887MOL0     H22359   4.305   1.839   9.739 -0.9694  0.1922  1.0009
  887MOL0     H22360   4.367   2.133   9.741  0.3324  0.1079  1.3765
  887MOL0     H22361   4.292   2.031   9.870  0.4047 -0.9188  0.8935
  887MOL0     H22362   4.483   1.905   9.879  2.3771  0.6113  2.6064
  887MOL0     H22363   4.546   1.955   9.720  0.5174 -0.1671  0.9197
  887MOL0     H22364   4.584   2.145   9.605  0.7793  1.3024 -1.1849
  887MOL0     H22365   4.770   2.345   9.430  0.0940  2.8075  0.7930
  887MOL0     H22366   4.612   2.434   9.466 -2.1919 -0.3355  1.0879
  887MOL0     H22367   4.614   2.261   9.425 -1.1544  0.7225  0.4227
  887MOL0     H22368   4.979   2.765   9.510 -1.4725  4.3470 -2.6195
  887MOL0     H22369   5.098   2.985   9.522  2.6365  0.8446  0.8399
  887MOL0     H22370   5.301   3.023   9.805  1.4980  1.3654  1.4889
  887MOL0     H22371   5.311   3.091   9.648  0.5577 -0.7244  1.1588
  887MOL0     H22372   5.299   3.326   9.766 -0.1403  0.9956  2.8879
  887MOL0     H22373   5.311   3.239   9.909  1.8924  1.7392  0.6550
  887MOL0     H22374   5.512   3.222   9.683  1.1124  0.0371 -0.7301
  887MOL0     H22375   5.523   3.126   9.837 -1.6338  0.7641 -0.5463
  887MOL0     H22376   5.556   3.304   9.957 -0.8983  0.2100 -0.0269
  887MOL0     H22377   5.523   3.416   9.821 -0.6056 -0.4763  0.7352
  887MOL0     H22378   5.780   3.370   9.908  1.0215  0.5258 -0.2045
  887MOL0     H22379   5.764   3.223   9.825 -2.6774 -1.2746  1.1105
  887MOL0     H22380   5.746   3.343   9.608 -2.6060  3.2444 -1.5437
  887MOL0     H22381   5.884   3.399   9.706  0.5575 -3.0130 -0.9274
  887MOL0     H22382   5.612   3.543   9.632 -0.1881  3.8293  1.8533
  887MOL0     H22383   5.781   3.583   9.607 -0.7921 -1.1075 -1.1526
  887MOL0     H22384   5.640   3.599   9.859  0.3208 -3.2750 -0.3260
  887MOL0     H22385   5.690   3.722   9.740 -2.3792 -2.0360 -1.4973
  887MOL0     H22386   5.063   2.980   9.947  0.9386  1.4769 -1.1449
  887MOL0     H22387   4.946   2.765   9.940  1.7382  0.8992  1.4594
  887MOL0     H22388   4.797   2.457   9.910 -1.0123 -1.7525  2.2013
  887MOL0     H22389   4.692   2.288   9.997 -0.9625 -1.0907  0.4504
  887MOL0     H22390   4.932   0.869   9.087  0.4425 -1.0598  1.2577
  887MOL0     H22391   4.871   0.639   9.014 -0.5213  1.5237  2.6055
  887MOL0     H22392   4.829   0.294   8.979 -0.7490  0.6530 -1.4012
  887MOL0     H22393   4.713   0.083   8.946  0.4518  0.2931 -0.3016
  887MOL0     H22394   4.931  -0.243   8.745 -1.4527  1.0099 -0.6039
  887MOL0     H22395   4.967  -0.269   8.920  0.6799  2.6340  0.4527
  887MOL0     H22396   4.762  -0.417   8.925  0.2635  1.0446  0.4518
  887MOL0     H22397   4.862  -0.463   8.794 -0.3139 -0.2416 -0.6646
  887MOL0     H22398   4.624  -0.284   8.772  1.3033  1.7809  1.0348
  887MOL0     H22399   4.725  -0.335   8.631 -2.1505 -0.9814 -0.1686
  887MOL0     H22400   4.497  -0.449   8.675 -0.5414 -0.2722 -0.2747
  887MOL0     H22401   4.572  -0.530   8.819 -0.3499 -2.3328 -1.4307
  887MOL0     H22402   4.749  -0.753   8.534 -0.7952  1.7258 -2.6792
  887MOL0     H22403   5.071  -0.071   8.791  2.7312  2.8460 -0.3361
  887MOL0     H22404   5.208   0.088   8.669 -3.2632 -1.7749  0.5527
  887MOL0     H22405   5.247   0.238   8.737 -0.0507 -0.3395 -2.4605
  887MOL0     H22406   5.286   0.087   8.831  0.5590  0.5302  0.5669
  888MOL0     O22407   4.791  10.152   5.110  0.1961 -0.6481  0.9425
  888MOL0     C22408   4.897  10.120   5.165 -0.2961 -0.4771  0.5039
  888MOL0     O22409   4.927  10.147   5.300  0.3930 -0.6060 -0.0889
  888MOL0     C22410   4.846  10.219   5.376  0.3987  0.1520  0.2176
  888MOL0     C22411   4.711  10.197   5.400  0.3038  0.3064  0.0869
  888MOL0     C22412   4.633  10.286   5.482 -1.3684  0.2934 -0.1462
  888MOL0     C22413   4.698  10.395   5.554 -0.0693  0.6800  0.1676
  888MOL0     O22414   4.637  10.463   5.658  0.3099 -0.5011  0.0332
  888MOL0     C22415   4.685  10.594   5.696 -0.1127  0.5528  0.3131
  888MOL0     C22416   4.579  10.686   5.761 -0.8530  0.2693 -0.3305
  888MOL0     C22417   4.441  10.665   5.694  0.2258 -0.2722  0.3615
  888MOL0     C22418   4.436  10.693   5.537 -0.1972  0.0501  0.0376
  888MOL0     C22419   4.298  10.708   5.487  0.4794 -0.3015 -0.0837
  888MOL0     C22420   4.201  10.581   5.499 -0.5489 -0.3768 -0.7595
  888MOL0     C22421   4.264  10.468   5.412 -0.4086  0.7332 -0.8248
  888MOL0     C22422   4.160  10.354   5.387  0.8950 -0.7132  0.4133
  888MOL0     N22423   4.214  10.228   5.357  1.5899 -0.4192 -0.1263
  888MOL0     C22424   4.255  10.130   5.433  0.1859  0.0592 -0.6578
  888MOL0     C22425   4.303  10.038   5.345 -0.1155  0.3057 -1.0631
  888MOL0     C22426   4.351   9.901   5.374  0.4260  0.6550  0.6086
  888MOL0     C22427   4.264   9.794   5.299 -0.2789 -0.0146  0.6429
  888MOL0     C22428   4.349   9.697   5.220  0.3493 -1.2370 -0.5674
  888MOL0     C22429   4.419   9.755   5.089  0.6950  0.4962  0.3285
  888MOL0     O22430   4.458   9.654   4.992  0.8002  0.2472 -0.0507
  888MOL0     C22431   4.571   9.580   5.006  0.4265  0.3914 -0.5451
  888MOL0     C22432   4.566   9.451   4.956 -0.8663 -0.3047  0.0502
  888MOL0     C22433   4.679   9.363   4.951  0.1546 -0.3941  1.1374
  888MOL0     C22434   4.673   9.234   4.874  0.1111  0.0640 -0.1681
  888MOL0     C22435   4.797   9.408   5.019  0.6788  0.3232  0.8806
  888MOL0     C22436   4.923   9.336   5.009 -0.7502 -0.2663  0.0082
  888MOL0     O22437   5.040   9.408   5.040  0.5075  0.5949  0.2431
  888MOL0     C22438   5.158   9.342   5.009 -0.7023 -0.5064  0.3132
  888MOL0     C22439   5.205   9.326   4.882  0.0521 -0.2062  0.0168
  888MOL0     C22440   5.336   9.264   4.863 -0.5942 -0.9036  0.7208
  888MOL0     C22441   5.416   9.229   4.968 -0.7245  0.2912 -0.0568
  888MOL0     O22442   5.536   9.173   4.968 -0.2819  0.4248  0.1318
  888MOL0     C22443   5.598   9.113   4.853  0.6194  0.7955  0.2789
  888MOL0     C22444   5.700   9.195   4.782 -0.3424 -0.0362  0.9304
  888MOL0     C22445   5.807   9.255   4.878  0.0285 -0.0345  1.1490
  888MOL0     C22446   5.905   9.334   4.801 -0.0270  0.4875 -0.3819
  888MOL0     C22447   6.004   9.413   4.884 -0.2058 -0.1549  0.6038
  888MOL0     C22448   6.123   9.324   4.936 -0.3866 -0.0485 -0.3023
  888MOL0     C22449   6.209   9.406   5.023 -0.4079 -0.2061  0.3738
  888MOL0     C22450   6.354   9.355   5.044  0.6353 -0.7402  0.1429
  888MOL0    Cl22451   6.447   9.351   4.897  0.7580 -0.3269 -0.0492
  888MOL0     C22452   5.369   9.253   5.098 -0.2998 -0.0073  0.3608
  888MOL0     C22453   5.239   9.309   5.123 -0.1398 -1.0360  0.0425
  888MOL0     O22454   4.921   9.211   4.993  0.2947 -0.0233 -0.4052
  888MOL0     C22455   4.800   9.537   5.077 -0.0572  0.0358  1.0530
  888MOL0     C22456   4.692   9.628   5.066 -0.7901 -0.0059 -0.3929
  888MOL0     N22457   4.311  10.084   5.217  0.2617 -1.0162  0.1902
  888MOL0     N22458   4.253  10.201   5.227  0.4336  0.1749 -0.6897
  888MOL0     C22459   4.834  10.405   5.537 -0.1598 -0.1112 -0.7355
  888MOL0     C22460   4.911  10.326   5.446  0.4191  0.7936 -0.3617
  888MOL0     C22461   4.996  10.047   5.090  0.8793  1.2607 -0.2336
  888MOL0     C22462   4.958   9.940   5.005 -0.3115 -0.6618 -0.4577
  888MOL0     C22463   5.048   9.848   4.941  0.0829 -1.1177 -0.9828
  888MOL0     C22464   5.181   9.863   4.965  0.2382  0.2138 -1.4238
  888MOL0     O22465   5.266   9.755   4.927 -0.4177  0.4079 -0.0096
  888MOL0     C22466   5.415   9.769   4.951  1.0064 -0.5788 -0.1776
  888MOL0     C22467   5.484   9.651   4.876  0.6191 -0.7072  0.0321
  888MOL0     C22468   5.577   9.690   4.760 -0.4763 -0.1891  0.0938
  888MOL0     C22469   5.715   9.650   4.782  0.1272  0.5344 -0.5967
  888MOL0     C22470   5.757   9.707   4.916  0.0507  0.6791  0.7766
  888MOL0     C22471   5.804   9.732   5.025  0.2348 -0.7360  0.2011
  888MOL0     C22472   5.222   9.968   5.054  0.0331 -0.8250  0.4079
  888MOL0     C22473   5.137  10.056   5.116 -0.5247  0.0893  0.4151
  888MOL0     C22474   5.201  10.153   5.216  0.4221 -0.4640 -0.5533
  888MOL0     H22475   4.661  10.114   5.353 -0.1530  0.2469  0.6536
  888MOL0     H22476   4.532  10.263   5.515 -0.5806 -2.3005  0.7581
  888MOL0     H22477   4.722  10.646   5.607 -4.0522  0.6677 -1.4229
  888MOL0     H22478   4.767  10.589   5.769  0.8501  1.7199 -0.6316
  888MOL0     H22479   4.581  10.676   5.870 -1.3834  1.4301 -0.1976
  888MOL0     H22480   4.606  10.791   5.741  0.2957  0.2641  0.9999
  888MOL0     H22481   4.412  10.561   5.712 -3.9210  0.4509 -1.2607
  888MOL0     H22482   4.368  10.733   5.739 -1.1944 -1.0525 -0.6975
  888MOL0     H22483   4.487  10.788   5.519 -0.9417  0.8097  1.7819
  888MOL0     H22484   4.498  10.618   5.486  1.2225  0.3440  1.2565
  888MOL0     H22485   4.307  10.728   5.380 -0.6438 -3.6411 -0.9293
  888MOL0     H22486   4.252  10.787   5.548  0.1275 -0.2564 -0.4019
  888MOL0     H22487   4.197  10.554   5.605 -3.1604  3.1825  0.2647
  888MOL0     H22488   4.100  10.604   5.463  0.1347 -1.4847 -3.6417
  888MOL0     H22489   4.346  10.424   5.470 -2.4446  0.7646  2.3349
  888MOL0     H22490   4.293  10.513   5.317 -1.5928  3.6713  0.1181
  888MOL0     H22491   4.093  10.341   5.472  1.9663  3.3508  2.1590
  888MOL0     H22492   4.091  10.379   5.307 -1.1987 -2.7444  1.4695
  888MOL0     H22493   4.232  10.122   5.539 -2.3582  0.0055 -1.1585
  888MOL0     H22494   4.338   9.874   5.479  2.2083 -0.2519  0.6346
  888MOL0     H22495   4.454   9.894   5.336 -0.5874 -2.2456 -2.0963
  888MOL0     H22496   4.233   9.727   5.379  1.1500 -2.9283 -1.1077
  888MOL0     H22497   4.178   9.835   5.245 -1.5285 -1.3677  1.5534
  888MOL0     H22498   4.434   9.664   5.280  0.5100 -1.5329 -0.9556
  888MOL0     H22499   4.278   9.620   5.189 -1.7037 -0.9240  2.8730
  888MOL0     H22500   4.342   9.814   5.038 -3.2135 -5.3530 -1.5881
  888MOL0     H22501   4.510   9.813   5.107  1.0600 -0.4938  1.8932
  888MOL0     H22502   4.468   9.421   4.921 -0.7025 -0.6961 -0.0817
  888MOL0     H22503   4.705   9.148   4.933  2.6004  0.2281 -1.1454
  888MOL0     H22504   4.742   9.230   4.789 -1.5638 -0.9288 -1.5581
  888MOL0     H22505   4.576   9.217   4.827  0.0290 -1.7386  0.6011
  888MOL0     H22506   5.133   9.341   4.802 -0.3979 -1.9050  0.0550
  888MOL0     H22507   5.363   9.239   4.761  0.2819 -2.3468  1.2725
  888MOL0     H22508   5.659   9.030   4.889  0.1362  1.2051  2.1739
  888MOL0     H22509   5.522   9.072   4.785  0.2598 -1.2414  1.8089
  888MOL0     H22510   5.758   9.150   4.701  0.4573  2.2411  0.1320
  888MOL0     H22511   5.649   9.283   4.742 -0.1924 -0.4080 -0.0945
  888MOL0     H22512   5.860   9.176   4.932 -0.2664 -0.4573  0.8275
  888MOL0     H22513   5.760   9.320   4.952  0.5048  1.4609  0.1740
  888MOL0     H22514   5.858   9.399   4.727 -0.2551  0.4485 -0.2727
  888MOL0     H22515   5.955   9.262   4.735 -1.8905 -0.2159 -1.0996
  888MOL0     H22516   6.047   9.486   4.814  0.6119 -0.0348  1.2201
  888MOL0     H22517   5.965   9.473   4.966 -0.8584  0.4707 -0.1408
  888MOL0     H22518   6.174   9.263   4.861 -0.9433 -3.2244  1.7175
  888MOL0     H22519   6.075   9.252   5.004  2.6210 -2.4773 -0.5163
  888MOL0     H22520   6.170   9.416   5.125 -1.0637  1.1422  0.0164
  888MOL0     H22521   6.220   9.508   4.984  1.9326 -0.9345 -1.1104
  888MOL0     H22522   6.350   9.251   5.079  1.1068 -1.7843 -2.6375
  888MOL0     H22523   6.411   9.427   5.103  2.3467 -1.0572 -1.0392
  888MOL0     H22524   5.427   9.224   5.186  1.3205 -0.3125 -0.7603
  888MOL0     H22525   5.210   9.328   5.226 -2.2279 -0.2246 -0.6428
  888MOL0     H22526   4.888   9.559   5.137  3.2164 -0.5224 -3.0249
  888MOL0     H22527   4.701   9.723   5.117  0.1806  0.4337 -1.3406
  888MOL0     H22528   4.893  10.482   5.585  1.1172 -1.8795  0.6926
  888MOL0     H22529   5.014  10.351   5.427  0.2115  0.7765 -1.5951
  888MOL0     H22530   4.853   9.920   4.990 -0.6230  0.2665  0.3596
  888MOL0     H22531   4.996   9.772   4.883 -2.6980  0.6942 -1.0863
  888MOL0     H22532   5.447   9.867   4.915  0.6627 -1.0630 -1.9002
  888MOL0     H22533   5.435   9.767   5.059  2.1210  2.5453 -0.2320
  888MOL0     H22534   5.408   9.588   4.830  0.3568 -2.1264  2.2690
  888MOL0     H22535   5.533   9.579   4.942  0.1413 -3.5568 -2.4986
  888MOL0     H22536   5.542   9.646   4.667 -1.5962 -0.9014  0.8273
  888MOL0     H22537   5.590   9.796   4.740 -0.6216 -0.0325  0.7786
  888MOL0     H22538   5.777   9.691   4.702 -1.0963  3.8137 -0.0062
  888MOL0     H22539   5.714   9.541   4.789 -2.3948  0.5862  1.6219
  888MOL0     H22540   5.833   9.752   5.126  1.5276  1.3331 -0.4977
  888MOL0     H22541   5.328   9.987   5.068 -0.4403  0.3153  2.9809
  888MOL0     H22542   5.310  10.157   5.210  0.4117  3.1524 -0.4901
  888MOL0     H22543   5.167  10.256   5.197  0.3411 -0.8596 -2.7869
  888MOL0     H22544   5.179  10.129   5.320  1.2441  2.1600  0.3074
  889MOL0     O22545   7.973   5.551   9.391  0.7738  0.7034  0.1584
  889MOL0     C22546   7.976   5.626   9.496  0.8177  0.3487  0.1896
  889MOL0     O22547   7.953   5.767   9.491 -0.6299  0.9793 -0.2289
  889MOL0     C22548   7.948   5.840   9.373 -0.3034  0.5820 -0.5858
  889MOL0     C22549   8.044   5.947   9.345  0.5516  0.8181 -0.1890
  889MOL0     C22550   8.038   6.009   9.221 -0.2388  0.3960  0.1825
  889MOL0     C22551   7.935   5.981   9.138  0.3497 -0.5849 -0.3847
  889MOL0     O22552   7.920   6.036   9.006 -0.0903  0.0580 -0.1828
  889MOL0     C22553   8.044   6.041   8.934  0.3305  0.9661 -0.0808
  889MOL0     C22554   8.010   6.042   8.791 -0.2983  0.4451 -0.2277
  889MOL0     C22555   8.118   6.104   8.696 -0.1594 -0.3870  0.3234
  889MOL0     C22556   8.119   6.055   8.548  0.6271 -1.0255 -0.1574
  889MOL0     C22557   8.254   6.090   8.476  0.0692 -0.6711 -0.4556
  889MOL0     C22558   8.229   6.091   8.328 -0.0604 -0.0100 -0.0827
  889MOL0     C22559   8.343   6.108   8.230 -0.9963  0.2234  0.1373
  889MOL0     C22560   8.426   6.243   8.250 -1.2889  0.5758  0.8096
  889MOL0     N22561   8.343   6.360   8.225  0.2910  0.3203  0.2232
  889MOL0     C22562   8.326   6.425   8.103  0.4040  0.6271 -0.8833
  889MOL0     C22563   8.258   6.533   8.131 -0.5811 -0.6401  0.8709
  889MOL0     C22564   8.213   6.652   8.047  0.0132 -0.1812  0.1870
  889MOL0     C22565   8.327   6.757   8.052  0.5680  0.8416  0.2298
  889MOL0     C22566   8.311   6.880   7.956  0.0445 -0.9031 -0.2676
  889MOL0     C22567   8.447   6.934   7.924  0.6535  0.1659  0.0898
  889MOL0     O22568   8.450   7.059   7.860  0.6650 -1.6033 -0.6602
  889MOL0     C22569   8.503   7.072   7.731  0.0867  0.6113  0.6254
  889MOL0     C22570   8.457   6.994   7.621  0.3596 -0.1784 -2.0200
  889MOL0     C22571   8.501   7.027   7.491  0.2683 -0.0974 -0.3397
  889MOL0     C22572   8.433   6.954   7.374 -0.3066  0.3554 -0.1843
  889MOL0     C22573   8.597   7.131   7.465 -0.7475 -1.0381  0.2209
  889MOL0     C22574   8.648   7.180   7.339  0.4222 -0.5608  1.0682
  889MOL0     O22575   8.632   7.104   7.227  0.2703  0.2634 -0.0243
  889MOL0     C22576   8.631   7.164   7.104  0.2141  0.1290  0.1068
  889MOL0     C22577   8.708   7.276   7.050  0.1601  0.3722 -0.5745
  889MOL0     C22578   8.703   7.309   6.916  0.6113 -1.4374  0.5842
  889MOL0     C22579   8.638   7.230   6.817 -0.1485  0.5002  0.5764
  889MOL0     O22580   8.643   7.244   6.681  0.8383 -0.2697  0.5401
  889MOL0     C22581   8.720   7.368   6.646 -0.6838 -0.2382 -0.4428
  889MOL0     C22582   8.742   7.378   6.494  0.2408 -0.2164 -0.1804
  889MOL0     C22583   8.777   7.522   6.455  1.0672 -0.5170 -0.8998
  889MOL0     C22584   8.808   7.538   6.302  0.4168  0.3469 -0.2327
  889MOL0     C22585   8.788   7.676   6.248 -0.0120  0.5889 -0.0323
  889MOL0     C22586   8.894   7.775   6.289 -0.6924  0.6157  0.3386
  889MOL0     C22587   8.855   7.914   6.243 -0.3525  0.0749  0.7046
  889MOL0     C22588   8.967   7.999   6.280  0.1747 -0.5344  0.1716
  889MOL0    Cl22589   8.937   8.154   6.207  0.1605 -0.2828 -0.1454
  889MOL0     C22590   8.569   7.110   6.874 -0.2115 -0.6108  1.1330
  889MOL0     C22591   8.561   7.087   7.008  0.5372  0.2626  0.6935
  889MOL0     O22592   8.672   7.300   7.337  1.2485  0.0985 -0.3791
  889MOL0     C22593   8.646   7.187   7.587  0.0760  1.1599  0.1912
  889MOL0     C22594   8.608   7.162   7.717  0.0867 -0.7366  0.4602
  889MOL0     N22595   8.216   6.528   8.259  0.5285 -0.8107  0.1102
  889MOL0     N22596   8.271   6.427   8.315  0.7309 -0.6207 -1.2878
  889MOL0     C22597   7.838   5.890   9.170  0.1730  1.3105  0.0605
  889MOL0     C22598   7.841   5.825   9.289  0.5927  0.1480 -1.2223
  889MOL0     C22599   7.996   5.573   9.635  0.4454 -0.0806  0.5666
  889MOL0     C22600   7.979   5.436   9.650  0.3794  0.8707  0.3711
  889MOL0     C22601   8.011   5.361   9.755  0.5099 -0.5239  0.1723
  889MOL0     C22602   8.057   5.425   9.867  0.3306  1.0296 -0.5040
  889MOL0     O22603   8.060   5.350   9.986  0.0097  0.0694  0.0609
  889MOL0     C22604   8.094   5.426  10.102  0.9604  0.2979  0.1830
  889MOL0     C22605   8.104   5.330  10.219  0.1981 -1.6775 -0.1142
  889MOL0     C22606   8.232   5.269  10.228  0.1467  0.5802 -0.8213
  889MOL0     C22607   8.230   5.160  10.334 -0.3000  0.3345 -0.4551
  889MOL0     C22608   8.247   5.023  10.282  0.7391  0.1046 -0.5213
  889MOL0     C22609   8.264   4.915  10.228 -0.0460  0.0106  0.0974
  889MOL0     C22610   8.077   5.564   9.856  0.1360 -0.3898  0.4018
  889MOL0     C22611   8.057   5.642   9.739  0.7859  0.3131 -0.3690
  889MOL0     C22612   8.075   5.793   9.747  0.8040  0.3115 -0.4573
  889MOL0     H22613   8.122   5.975   9.415  0.1735  0.4155  0.4004
  889MOL0     H22614   8.120   6.074   9.194  2.6036 -3.3102 -1.0034
  889MOL0     H22615   8.105   5.951   8.949  0.4216  0.7695 -1.4555
  889MOL0     H22616   8.099   6.133   8.956  2.0405 -0.1814  0.6820
  889MOL0     H22617   8.009   5.943   8.745 -2.7687  1.4600 -2.6101
  889MOL0     H22618   7.912   6.090   8.786 -0.9922 -1.0179 -1.3159
  889MOL0     H22619   8.124   6.213   8.701 -0.0801 -0.4067  0.6685
  889MOL0     H22620   8.218   6.077   8.732  1.1777  1.6840 -1.5243
  889MOL0     H22621   8.111   5.945   8.549 -0.8955 -1.0262  3.4478
  889MOL0     H22622   8.033   6.103   8.501  2.5287  2.4007 -0.4519
  889MOL0     H22623   8.329   6.019   8.513 -1.3829 -1.9552  0.1497
  889MOL0     H22624   8.290   6.188   8.506 -1.2626  0.1789 -1.4864
  889MOL0     H22625   8.190   5.992   8.302  0.1630 -0.5452  1.5397
  889MOL0     H22626   8.157   6.173   8.317 -0.3371  0.0440  1.7805
  889MOL0     H22627   8.307   6.103   8.127  0.6297  2.0525 -0.5636
  889MOL0     H22628   8.414   6.026   8.244 -0.2223  1.3085  3.4655
  889MOL0     H22629   8.476   6.254   8.347  0.9213  3.5357 -0.4949
  889MOL0     H22630   8.514   6.252   8.185 -0.7309 -4.0811  0.5573
  889MOL0     H22631   8.366   6.388   8.009  4.0245  1.2400  0.2586
  889MOL0     H22632   8.118   6.687   8.090  0.9354  3.5315 -0.4839
  889MOL0     H22633   8.185   6.626   7.944  2.4518 -0.6045 -0.4181
  889MOL0     H22634   8.323   6.796   8.154 -1.7653  3.1368 -0.6151
  889MOL0     H22635   8.419   6.704   8.027 -0.6699 -1.1517 -0.4220
  889MOL0     H22636   8.252   6.856   7.867 -0.3358 -2.6380  0.4047
  889MOL0     H22637   8.264   6.962   8.012  0.9089  0.0586 -0.9187
  889MOL0     H22638   8.488   6.944   8.024 -2.4138 -3.4481  1.9862
  889MOL0     H22639   8.505   6.857   7.871  2.5825  0.1648  2.0857
  889MOL0     H22640   8.369   6.933   7.641 -1.2293  2.6290  0.1745
  889MOL0     H22641   8.516   6.898   7.328  1.2724  1.0341  1.7220
  889MOL0     H22642   8.390   7.030   7.309 -0.1339 -0.0936 -0.8380
  889MOL0     H22643   8.354   6.885   7.404 -0.0743 -0.1424 -0.6876
  889MOL0     H22644   8.770   7.332   7.119 -1.5221 -0.1384  1.4492
  889MOL0     H22645   8.757   7.399   6.889  0.2921 -0.7903  1.9842
  889MOL0     H22646   8.670   7.453   6.693 -0.3677  0.5247 -1.4467
  889MOL0     H22647   8.822   7.362   6.685  0.1937  2.1580 -2.1364
  889MOL0     H22648   8.823   7.309   6.467  0.2439 -0.6492  0.8849
  889MOL0     H22649   8.650   7.357   6.438  0.4704  0.4052 -0.8008
  889MOL0     H22650   8.860   7.568   6.510  1.9379 -0.0515 -2.5366
  889MOL0     H22651   8.688   7.586   6.462  1.5188 -0.0449  0.8397
  889MOL0     H22652   8.738   7.472   6.250  0.8522 -0.4680  0.1947
  889MOL0     H22653   8.913   7.511   6.286  0.3876 -0.6663  1.0786
  889MOL0     H22654   8.789   7.668   6.139  0.5740 -0.7381  0.0580
  889MOL0     H22655   8.685   7.707   6.269 -0.5991 -1.7034  0.7519
  889MOL0     H22656   8.988   7.750   6.239 -0.4106  2.8705 -0.4169
  889MOL0     H22657   8.922   7.768   6.394  1.3606  0.5530 -0.1748
  889MOL0     H22658   8.771   7.949   6.303 -2.1012 -2.0189 -0.3623
  889MOL0     H22659   8.819   7.912   6.139 -4.1393 -0.8858  1.8743
  889MOL0     H22660   9.053   7.950   6.233 -0.2971  2.3878 -4.4354
  889MOL0     H22661   8.974   8.007   6.388  2.7907  0.1178  0.0223
  889MOL0     H22662   8.523   7.043   6.801  1.1103  1.3530 -1.6652
  889MOL0     H22663   8.505   6.999   7.038  2.0798 -1.9062 -2.2498
  889MOL0     H22664   8.719   7.267   7.573 -1.4817  2.3764 -1.4925
  889MOL0     H22665   8.652   7.221   7.797 -1.0736  0.6454  0.1232
  889MOL0     H22666   7.759   5.879   9.097 -2.2004 -0.5203  2.6782
  889MOL0     H22667   7.777   5.742   9.317 -0.5329  0.9452 -1.3521
  889MOL0     H22668   7.927   5.392   9.566  2.5780 -0.1216 -0.5406
  889MOL0     H22669   7.986   5.255   9.760 -2.9332 -0.0584 -3.0630
  889MOL0     H22670   8.193   5.470  10.086  2.2694 -2.5536 -0.1526
  889MOL0     H22671   8.025   5.509  10.119 -0.3610 -0.8773  0.8104
  889MOL0     H22672   8.029   5.250  10.223  0.1768 -2.2420 -5.3539
  889MOL0     H22673   8.092   5.404  10.298  3.0755  1.1746 -2.0959
  889MOL0     H22674   8.257   5.219  10.134 -0.8128  1.1809 -1.4104
  889MOL0     H22675   8.299   5.353  10.247  1.7714 -1.0782  1.3120
  889MOL0     H22676   8.132   5.168  10.383  0.0640 -0.1806  0.3819
  889MOL0     H22677   8.314   5.167  10.403 -2.0330 -2.5903  2.2629
  889MOL0     H22678   8.270   4.829  10.165 -4.2811 -0.4399  0.0493
  889MOL0     H22679   8.113   5.623   9.939 -2.1016 -0.0532  1.2115
  889MOL0     H22680   7.986   5.857   9.750  1.2503  0.9525 -0.6788
  889MOL0     H22681   8.124   5.823   9.840 -0.3610  2.2181 -0.3951
  889MOL0     H22682   8.133   5.822   9.659 -0.2665 -0.6803 -1.5351
  890MOL0     O22683  10.104   0.929   3.968  0.2241 -0.7605 -0.4810
  890MOL0     C22684  10.055   0.819   3.990 -0.2003 -0.9727  0.5268
  890MOL0     O22685   9.928   0.796   4.025  0.3650  0.0314 -0.0916
  890MOL0     C22686   9.853   0.903   4.048 -0.9003 -0.1572  0.2860
  890MOL0     C22687   9.818   1.000   3.955 -0.6516  0.7244 -0.0421
  890MOL0     C22688   9.736   1.103   3.994  1.0354  0.0318  0.6447
  890MOL0     C22689   9.692   1.117   4.125  0.3594 -0.7788 -0.1398
  890MOL0     O22690   9.598   1.219   4.148 -0.5541 -0.1344  0.4290
  890MOL0     C22691   9.672   1.336   4.200  0.2144 -0.6315  0.9298
  890MOL0     C22692   9.673   1.446   4.086  0.3686 -0.7156  0.3601
  890MOL0     C22693   9.790   1.543   4.103  0.3354 -0.0192  0.4733
  890MOL0     C22694   9.930   1.494   4.052  0.7465 -0.2646 -0.6314
  890MOL0     C22695  10.019   1.607   3.999 -0.3594  0.6258  0.4517
  890MOL0     C22696   9.966   1.683   3.874  0.1806 -0.0331 -0.5743
  890MOL0     C22697  10.075   1.713   3.766 -0.2883  0.5679 -0.4297
  890MOL0     C22698   9.998   1.743   3.631  0.5842  0.4678 -1.3841
  890MOL0     N22699  10.103   1.744   3.537  0.2663 -1.2129  0.1672
  890MOL0     C22700  10.167   1.629   3.497 -0.3313 -0.4158  0.2792
  890MOL0     C22701  10.234   1.671   3.392 -0.0238  0.1455  0.2327
  890MOL0     C22702  10.310   1.581   3.299 -0.9326 -0.0905  0.0842
  890MOL0     C22703  10.433   1.518   3.368 -0.1158  0.6182  0.8119
  890MOL0     C22704  10.504   1.427   3.257  0.0823 -0.4974  0.9543
  890MOL0     C22705  10.640   1.360   3.302  0.5709 -0.0856 -0.5264
  890MOL0     O22706  10.719   1.468   3.355 -0.2036 -0.1935 -0.6127
  890MOL0     C22707  10.844   1.449   3.415  0.3303 -0.1217  0.3856
  890MOL0     C22708  10.922   1.557   3.448  0.0222 -0.1983  0.1587
  890MOL0     C22709  11.028   1.551   3.530 -0.8696 -0.4654  0.6332
  890MOL0     C22710  11.094   1.682   3.567 -0.4099  0.0175  1.0176
  890MOL0     C22711  11.080   1.419   3.558  0.4260  0.0652  0.5389
  890MOL0     C22712  11.196   1.387   3.637 -0.3261  0.7221  0.0588
  890MOL0     O22713  11.202   1.255   3.677  0.1887 -0.0230  1.0783
  890MOL0     C22714  11.297   1.222   3.767  0.0981  0.5000 -0.5824
  890MOL0     C22715  11.330   1.089   3.765 -1.2534  0.9442  1.1957
  890MOL0     C22716  11.414   1.030   3.855 -1.0829 -0.0868  0.0713
  890MOL0     C22717  11.470   1.107   3.953 -0.7985 -0.2809 -0.7695
  890MOL0     O22718  11.532   1.047   4.058 -0.6592 -0.3204  0.4250
  890MOL0     C22719  11.534   0.901   4.069  0.2360 -0.4631 -0.4631
  890MOL0     C22720  11.665   0.871   4.154 -0.4505 -1.0805  0.3826
  890MOL0     C22721  11.659   0.911   4.310  1.6495 -0.2743 -1.1281
  890MOL0     C22722  11.761   0.844   4.401  0.5996  0.5532  0.5729
  890MOL0     C22723  11.751   0.889   4.546  0.1013  0.3133  0.1001
  890MOL0     C22724  11.833   1.014   4.569  1.0265  0.6001  1.0112
  890MOL0     C22725  11.837   1.032   4.724 -0.7318 -0.3036  0.2134
  890MOL0     C22726  11.907   1.164   4.764 -0.4185  0.4316 -0.1341
  890MOL0    Cl22727  12.079   1.152   4.744  0.2552  0.1705  0.0334
  890MOL0     C22728  11.449   1.249   3.951  0.5626  0.1196  0.6063
  890MOL0     C22729  11.355   1.307   3.868 -0.0542  0.1462  0.8169
  890MOL0     O22730  11.286   1.467   3.639  0.8225 -0.1533 -0.1591
  890MOL0     C22731  10.984   1.313   3.531 -0.6184  0.1237  0.7643
  890MOL0     C22732  10.870   1.324   3.461 -0.8014  0.5245 -1.1669
  890MOL0     N22733  10.226   1.808   3.371  0.2746  0.3235  0.6501
  890MOL0     N22734  10.149   1.852   3.465 -0.1941 -0.6116 -0.2600
  890MOL0     C22735   9.709   1.016   4.214  0.1123 -0.0514 -1.1489
  890MOL0     C22736   9.797   0.912   4.178 -1.1877 -0.3009  0.3779
  890MOL0     C22737  10.154   0.716   3.994 -0.2019 -0.0841 -0.7304
  890MOL0     C22738  10.133   0.599   3.910 -0.8695  0.3395 -0.3247
  890MOL0     C22739  10.232   0.503   3.901 -0.0666 -0.1443  0.8823
  890MOL0     C22740  10.354   0.524   3.952 -0.6089 -0.2233 -0.2838
  890MOL0     O22741  10.459   0.435   3.927  0.1459 -0.4368  0.6909
  890MOL0     C22742  10.594   0.473   3.948 -0.4563 -0.7633  0.1891
  890MOL0     C22743  10.697   0.374   3.890  0.0224 -1.7015  0.4037
  890MOL0     C22744  10.842   0.433   3.889  0.2200 -0.3399 -0.1082
  890MOL0     C22745  10.945   0.322   3.869  0.2033 -0.3474 -0.1738
  890MOL0     C22746  10.924   0.259   3.732 -0.4713  0.7396 -0.5646
  890MOL0     C22747  10.925   0.206   3.625 -0.3679  0.7292 -0.7844
  890MOL0     C22748  10.379   0.637   4.033  0.1908 -0.1548  0.7049
  890MOL0     C22749  10.282   0.733   4.053  0.5397 -1.1525  0.7764
  890MOL0     C22750  10.322   0.858   4.121 -0.7607  0.7629 -0.2846
  890MOL0     H22751   9.844   0.981   3.851  0.0938  0.3565  0.2046
  890MOL0     H22752   9.704   1.176   3.919 -0.7307 -1.1989  0.1444
  890MOL0     H22753   9.776   1.316   4.225  1.9051  4.3567 -0.8253
  890MOL0     H22754   9.624   1.374   4.291 -3.0279 -1.3537 -0.3318
  890MOL0     H22755   9.682   1.419   3.981  1.0928 -0.5144  0.3644
  890MOL0     H22756   9.575   1.493   4.101  0.2945 -1.2104  1.6266
  890MOL0     H22757   9.771   1.634   4.046  0.9149 -0.3397 -0.2509
  890MOL0     H22758   9.798   1.566   4.210  1.4139  1.2548  0.1426
  890MOL0     H22759   9.971   1.441   4.138 -2.4929  0.3723  1.4927
  890MOL0     H22760   9.913   1.426   3.967  1.7682 -0.1549 -0.9349
  890MOL0     H22761  10.111   1.557   3.969 -1.5074 -0.8573 -0.7734
  890MOL0     H22762  10.040   1.680   4.077  1.0287  1.3197 -0.5431
  890MOL0     H22763   9.893   1.623   3.820  2.1348 -2.1926 -0.9480
  890MOL0     H22764   9.925   1.782   3.897  0.7222  0.2056 -0.6213
  890MOL0     H22765  10.134   1.622   3.759 -2.4688 -0.8928 -0.5716
  890MOL0     H22766  10.147   1.790   3.797 -0.2980 -0.0508  1.2204
  890MOL0     H22767   9.920   1.672   3.604 -0.0956  0.4408  0.5226
  890MOL0     H22768   9.956   1.841   3.653 -1.0406 -0.7502  1.5460
  890MOL0     H22769  10.153   1.525   3.525  0.0921 -0.5962 -0.1556
  890MOL0     H22770  10.352   1.646   3.222  1.5892 -0.3730  1.1195
  890MOL0     H22771  10.247   1.506   3.249  1.5316 -1.4992 -1.0994
  890MOL0     H22772  10.492   1.603   3.404 -3.2748  2.6181  1.6855
  890MOL0     H22773  10.396   1.448   3.443 -1.6613 -0.1311 -0.5763
  890MOL0     H22774  10.441   1.341   3.231  0.5354 -0.5793  0.0949
  890MOL0     H22775  10.522   1.480   3.164  2.6044 -1.2186  0.9615
  890MOL0     H22776  10.610   1.287   3.377 -3.7688  0.6618 -1.3036
  890MOL0     H22777  10.680   1.311   3.213 -1.2394 -0.6478 -1.0549
  890MOL0     H22778  10.889   1.650   3.403  3.5200  1.1238 -0.0387
  890MOL0     H22779  11.151   1.726   3.484 -0.6748  0.4541  1.0658
  890MOL0     H22780  11.162   1.668   3.652  0.5499  1.2742  0.4867
  890MOL0     H22781  11.019   1.758   3.588  1.2015  2.1326 -0.3265
  890MOL0     H22782  11.279   1.022   3.696 -0.0332  0.7055  0.5011
  890MOL0     H22783  11.438   0.927   3.834 -0.8131 -0.1057  0.4563
  890MOL0     H22784  11.448   0.872   4.129 -0.3848  4.3740  1.4027
  890MOL0     H22785  11.547   0.840   3.979  0.0648  0.2771 -0.9924
  890MOL0     H22786  11.688   0.765   4.144 -0.7530 -1.3188  2.0481
  890MOL0     H22787  11.751   0.922   4.110 -0.8171 -0.5655  0.2436
  890MOL0     H22788  11.561   0.872   4.340  3.1375 -3.2496  0.2710
  890MOL0     H22789  11.663   1.019   4.324 -0.8940 -0.3756  1.2801
  890MOL0     H22790  11.854   0.873   4.352  0.2340  1.6313  0.4720
  890MOL0     H22791  11.748   0.735   4.402  0.5295  0.5630  1.4296
  890MOL0     H22792  11.650   0.887   4.587  1.1235  0.2690  2.8054
  890MOL0     H22793  11.801   0.815   4.609  0.6689  2.1962  1.9813
  890MOL0     H22794  11.785   1.098   4.516  0.3969 -0.6972 -0.5507
  890MOL0     H22795  11.926   0.990   4.518 -0.5274 -0.1356 -1.6980
  890MOL0     H22796  11.891   0.949   4.770 -0.2894 -1.0549 -1.5913
  890MOL0     H22797  11.737   1.041   4.768 -0.7573  0.1886  0.0608
  890MOL0     H22798  11.896   1.188   4.870  1.2399  0.5157  0.0404
  890MOL0     H22799  11.865   1.253   4.715 -1.4127  1.7794  2.9177
  890MOL0     H22800  11.512   1.309   4.016  0.6911 -0.8743  1.4156
  890MOL0     H22801  11.330   1.412   3.877  0.8839  0.4929 -0.3089
  890MOL0     H22802  11.000   1.210   3.561 -0.1129  0.7726  2.8774
  890MOL0     H22803  10.810   1.234   3.446  1.6862 -1.2283 -1.2081
  890MOL0     H22804   9.655   1.017   4.308  1.4304 -0.3168 -0.3632
  890MOL0     H22805   9.818   0.842   4.258  0.6434  1.2762  1.3719
  890MOL0     H22806  10.045   0.560   3.861  0.1886  1.1209 -3.0690
  890MOL0     H22807  10.215   0.413   3.842 -3.3621  2.0051 -1.8684
  890MOL0     H22808  10.622   0.572   3.909  0.3543 -1.0795 -0.0452
  890MOL0     H22809  10.607   0.477   4.056  1.1165  2.6984  0.0042
  890MOL0     H22810  10.678   0.355   3.784 -0.2900 -1.9686  0.5061
  890MOL0     H22811  10.693   0.277   3.940  1.2191 -1.2402  1.4602
  890MOL0     H22812  10.846   0.509   3.810 -0.2862  0.4726  0.6315
  890MOL0     H22813  10.857   0.490   3.981  0.7769 -1.9323  0.8299
  890MOL0     H22814  10.919   0.250   3.947  0.6198 -1.0107 -0.6413
  890MOL0     H22815  11.049   0.353   3.885  0.6448  0.0960 -3.2249
  890MOL0     H22816  10.926   0.164   3.526 -1.2147  0.7110 -0.7950
  890MOL0     H22817  10.480   0.659   4.065 -0.4326  1.9853  1.3605
  890MOL0     H22818  10.368   0.937   4.061 -1.3276  1.7150  0.5048
  890MOL0     H22819  10.245   0.891   4.191 -0.1295  1.4107  0.1252
  890MOL0     H22820  10.406   0.834   4.188 -0.0750  3.0582 -0.2297
  891MOL0     O22821  10.379   4.187   3.742  0.1035  0.3405 -0.2704
  891MOL0     C22822  10.369   4.208   3.863 -0.5188  0.8479  0.0637
  891MOL0     O22823  10.453   4.290   3.939  0.3172  0.3960 -0.4924
  891MOL0     C22824  10.585   4.287   3.902  0.6747  0.7924  0.4841
  891MOL0     C22825  10.655   4.393   3.837 -0.4992 -0.7055 -0.4075
  891MOL0     C22826  10.793   4.373   3.813 -1.4899  1.0994  0.0178
  891MOL0     C22827  10.862   4.250   3.836 -0.3782 -0.8451 -0.3236
  891MOL0     O22828  10.993   4.217   3.816  0.4663 -0.3729 -0.2175
  891MOL0     C22829  11.095   4.333   3.812  0.4563  0.6247 -0.0452
  891MOL0     C22830  11.107   4.414   3.931 -0.0088  0.1460 -0.3462
  891MOL0     C22831  11.156   4.322   4.044 -0.5077 -0.0149  0.0029
  891MOL0     C22832  11.050   4.231   4.118  0.3470 -0.1160  0.0773
  891MOL0     C22833  11.088   4.190   4.264  0.3347 -0.1769  0.6144
  891MOL0     C22834  11.019   4.067   4.302  0.2375  0.4240  0.1958
  891MOL0     C22835  10.871   4.030   4.270 -0.7322 -0.1734  0.0027
  891MOL0     C22836  10.777   4.143   4.312  0.3803  1.0540  0.2781
  891MOL0     N22837  10.636   4.109   4.283  0.6912 -0.8364  0.0811
  891MOL0     C22838  10.532   4.200   4.284  0.1749  0.1307 -0.4790
  891MOL0     C22839  10.418   4.118   4.295  0.3245 -0.4535  0.1901
  891MOL0     C22840  10.286   4.186   4.308  0.2812  0.4321 -0.3834
  891MOL0     C22841  10.171   4.143   4.394 -0.4249 -0.4356  0.1769
  891MOL0     C22842  10.201   4.159   4.548  0.2393 -0.3320  0.9644
  891MOL0     C22843  10.075   4.128   4.636 -0.7464  0.8637  0.0461
  891MOL0     O22844   9.973   4.218   4.590  0.5330 -0.2421 -0.1031
  891MOL0     C22845   9.838   4.182   4.595  0.0111  0.5615 -1.6388
  891MOL0     C22846   9.790   4.057   4.618  0.0016 -0.6536 -0.2384
  891MOL0     C22847   9.655   4.030   4.618  0.2544  0.7105 -0.1724
  891MOL0     C22848   9.624   3.892   4.666  0.2854  0.0932 -0.7974
  891MOL0     C22849   9.556   4.139   4.613 -0.7669  0.5343 -0.0166
  891MOL0     C22850   9.408   4.134   4.618  0.0830  0.2109 -0.5239
  891MOL0     O22851   9.336   4.245   4.634  0.1820  0.1088  0.1875
  891MOL0     C22852   9.204   4.234   4.615  1.3090  0.4534  0.8504
  891MOL0     C22853   9.149   4.150   4.513 -0.4895  1.0861  0.0972
  891MOL0     C22854   9.011   4.112   4.502 -0.2757 -1.2553  0.5933
  891MOL0     C22855   8.920   4.184   4.588 -0.2056 -0.0383 -0.8854
  891MOL0     O22856   8.793   4.149   4.555  0.7590 -0.6491 -0.5530
  891MOL0     C22857   8.687   4.205   4.638 -0.0548  0.6541 -0.1019
  891MOL0     C22858   8.552   4.135   4.610  0.1913  0.2407 -0.4698
  891MOL0     C22859   8.458   4.225   4.521 -0.5917 -0.2074  0.1666
  891MOL0     C22860   8.327   4.140   4.478  0.4251 -0.8901 -0.6137
  891MOL0     C22861   8.205   4.236   4.484  0.0291  0.2002 -0.6871
  891MOL0     C22862   8.082   4.163   4.423 -0.0047 -0.2129  0.3553
  891MOL0     C22863   7.956   4.237   4.455  0.3143 -0.0950  0.1201
  891MOL0     C22864   7.846   4.173   4.373 -0.2629 -0.2258  0.3284
  891MOL0    Cl22865   7.855   4.198   4.195 -0.7029 -0.2095 -0.3048
  891MOL0     C22866   8.964   4.279   4.677 -0.1012 -0.0073 -0.7381
  891MOL0     C22867   9.104   4.298   4.691  0.9497 -0.1890  0.9011
  891MOL0     O22868   9.361   4.017   4.624 -0.4921  0.0597  0.0986
  891MOL0     C22869   9.617   4.261   4.600 -0.1392 -0.0699 -0.0989
  891MOL0     C22870   9.753   4.282   4.589  0.0987 -0.4247  1.0140
  891MOL0     N22871  10.456   3.982   4.312  0.0766 -0.1001 -0.4238
  891MOL0     N22872  10.584   3.981   4.310 -0.2012  0.0788 -0.2119
  891MOL0     C22873  10.786   4.143   3.884  0.0028 -0.5255 -0.8734
  891MOL0     C22874  10.651   4.164   3.914  0.1294 -0.4060 -0.1654
  891MOL0     C22875  10.237   4.156   3.925 -0.5279  0.4231 -0.7436
  891MOL0     C22876  10.226   4.020   3.962  1.1822 -0.7723  0.6622
  891MOL0     C22877  10.114   3.971   4.030 -0.1986 -0.4927  0.4610
  891MOL0     C22878  10.014   4.061   4.075 -1.4259 -0.1048  0.4368
  891MOL0     O22879   9.907   4.025   4.140  0.4341  0.2300 -0.6461
  891MOL0     C22880   9.875   3.888   4.154 -0.9334  0.4721  0.8586
  891MOL0     C22881   9.749   3.875   4.239  0.0354 -1.0902 -0.5167
  891MOL0     C22882   9.635   3.982   4.200  0.2686 -0.2995 -0.4249
  891MOL0     C22883   9.601   4.001   4.056 -0.1228  0.4149  1.2561
  891MOL0     C22884   9.466   4.060   4.051  0.3085  0.0317 -0.8138
  891MOL0     C22885   9.351   4.112   4.054 -0.4830  0.3531 -0.4796
  891MOL0     C22886  10.026   4.197   4.031  0.0177  1.6027 -0.1512
  891MOL0     C22887  10.134   4.248   3.958 -0.4068  0.1444  0.2613
  891MOL0     C22888  10.123   4.384   3.894 -0.3531 -0.3660 -0.6288
  891MOL0     H22889  10.608   4.487   3.813 -2.0464 -1.3317  0.0835
  891MOL0     H22890  10.864   4.445   3.772  1.1791 -2.5024 -2.2383
  891MOL0     H22891  11.068   4.391   3.723  0.6663 -1.2733 -1.4055
  891MOL0     H22892  11.191   4.283   3.796 -1.3493 -2.6312 -1.6585
  891MOL0     H22893  11.178   4.495   3.915 -1.7698  2.0680  0.9383
  891MOL0     H22894  11.011   4.457   3.963  0.4961 -0.8006  2.8627
  891MOL0     H22895  11.248   4.271   4.013  1.2782  1.8976  1.9149
  891MOL0     H22896  11.179   4.396   4.120  0.1667 -2.1074  1.9638
  891MOL0     H22897  10.952   4.280   4.120  0.8642  1.0194  2.6901
  891MOL0     H22898  11.037   4.136   4.066 -1.1017 -0.7188  1.4266
  891MOL0     H22899  11.054   4.266   4.335 -2.5564 -2.8734  2.3307
  891MOL0     H22900  11.196   4.178   4.278  0.4473  0.1123  0.0217
  891MOL0     H22901  11.087   3.990   4.264  4.1093  2.7722  1.8254
  891MOL0     H22902  11.038   4.055   4.409  2.7749 -2.4525 -0.4076
  891MOL0     H22903  10.850   3.934   4.317 -1.8950  0.5660  1.0876
  891MOL0     H22904  10.850   4.015   4.164  1.1233 -0.7722 -0.3142
  891MOL0     H22905  10.788   4.168   4.418  1.9777 -0.0330  0.4031
  891MOL0     H22906  10.804   4.234   4.259  3.4720  0.1697  0.1360
  891MOL0     H22907  10.525   4.308   4.283 -2.4147  0.0420  0.7416
  891MOL0     H22908  10.237   4.182   4.210 -3.8844 -0.4638  1.4849
  891MOL0     H22909  10.297   4.293   4.330 -1.2725  0.2968  1.2810
  891MOL0     H22910  10.085   4.206   4.370  0.6858  1.2952  0.4751
  891MOL0     H22911  10.142   4.041   4.370 -1.3602 -0.4075  1.1015
  891MOL0     H22912  10.286   4.104   4.590 -0.9710 -0.7808  2.9638
  891MOL0     H22913  10.231   4.263   4.558  0.5452 -0.1159 -1.5982
  891MOL0     H22914  10.058   4.020   4.629  3.5032  0.0834 -0.7751
  891MOL0     H22915  10.103   4.151   4.739  0.3538 -0.5606  0.1055
  891MOL0     H22916   9.861   3.982   4.651  1.1530 -1.2164 -3.6143
  891MOL0     H22917   9.712   3.828   4.658  1.5502  1.6493  0.1260
  891MOL0     H22918   9.546   3.846   4.605 -0.7045  3.6910 -2.4899
  891MOL0     H22919   9.593   3.885   4.771  2.4449  0.2037 -0.1044
  891MOL0     H22920   9.214   4.088   4.452  2.0176  0.2039  3.3877
  891MOL0     H22921   8.965   4.044   4.431 -0.2661  0.8171 -1.5100
  891MOL0     H22922   8.721   4.197   4.742  2.4303  0.1732 -0.8920
  891MOL0     H22923   8.662   4.311   4.628  2.7533  1.6588  2.0464
  891MOL0     H22924   8.558   4.030   4.579  0.5015  0.0050  0.3552
  891MOL0     H22925   8.484   4.135   4.696 -2.0205 -1.5752 -2.0922
  891MOL0     H22926   8.516   4.254   4.433 -0.8705  0.1878  0.1073
  891MOL0     H22927   8.410   4.305   4.578 -2.1623 -1.4718  0.7125
  891MOL0     H22928   8.300   4.070   4.557 -3.0354  1.8378  0.9282
  891MOL0     H22929   8.342   4.101   4.377 -2.0443 -0.4714 -1.2203
  891MOL0     H22930   8.185   4.260   4.589 -1.5261  1.1900 -1.1809
  891MOL0     H22931   8.221   4.330   4.430  0.3126  1.6664  1.8192
  891MOL0     H22932   8.089   4.056   4.446 -0.1385 -0.5456 -1.0726
  891MOL0     H22933   8.103   4.165   4.315  0.5791 -0.4020  0.4568
  891MOL0     H22934   7.976   4.344   4.442  1.9283 -0.3735  0.1511
  891MOL0     H22935   7.935   4.227   4.562 -2.0717 -0.6296 -0.3353
  891MOL0     H22936   7.752   4.223   4.398 -0.8482 -1.0772 -0.1253
  891MOL0     H22937   7.834   4.067   4.393  2.9132 -1.1345 -1.7649
  891MOL0     H22938   8.897   4.328   4.747  0.7644  0.5367 -0.2715
  891MOL0     H22939   9.137   4.360   4.774  0.3222  1.2012  0.1533
  891MOL0     H22940   9.556   4.350   4.591 -1.4995 -0.7684  1.6756
  891MOL0     H22941   9.785   4.386   4.588 -5.6151  1.7453  1.1617
  891MOL0     H22942  10.820   4.042   3.905  1.2785  0.4089  2.2601
  891MOL0     H22943  10.606   4.075   3.956  2.5282 -2.1293 -1.0181
  891MOL0     H22944  10.306   3.948   3.949  2.2839  0.3126  1.2349
  891MOL0     H22945  10.099   3.866   4.053 -0.4599 -0.4881  0.3159
  891MOL0     H22946   9.869   3.838   4.056  1.7389  4.2935 -1.5271
  891MOL0     H22947   9.960   3.836   4.198  3.4955  4.8924 -1.4086
  891MOL0     H22948   9.777   3.878   4.345 -2.3778 -0.5085  0.1694
  891MOL0     H22949   9.704   3.776   4.228 -1.4889 -0.5692  0.6277
  891MOL0     H22950   9.547   3.956   4.260 -1.5770  0.1696 -2.7742
  891MOL0     H22951   9.674   4.075   4.243  0.6093 -1.9108  3.0786
  891MOL0     H22952   9.596   3.903   4.008  1.6699  1.6900 -1.7679
  891MOL0     H22953   9.674   4.060   4.001  1.7521  0.3508  3.5302
  891MOL0     H22954   9.245   4.125   4.055 -0.5086  0.5242  2.4002
  891MOL0     H22955   9.932   4.250   4.043 -0.3211  0.6338  1.9088
  891MOL0     H22956  10.024   4.426   3.913 -0.3744 -0.4941 -0.4543
  891MOL0     H22957  10.196   4.448   3.945 -1.3831 -1.6877  2.7692
  891MOL0     H22958  10.146   4.381   3.787 -0.7920 -0.6232 -0.7195
  892MOL0     O22959   9.818   2.616   2.872  0.5145 -0.7159 -0.4239
  892MOL0     C22960   9.806   2.590   2.988  0.3878  0.7649  0.1248
  892MOL0     O22961   9.811   2.686   3.085  0.3258  0.4430 -0.0041
  892MOL0     C22962   9.788   2.816   3.048 -0.5997 -0.4042  0.0383
  892MOL0     C22963   9.879   2.915   3.094  0.4804 -0.0805 -0.8332
  892MOL0     C22964   9.863   3.047   3.081 -0.6367  0.4185 -0.0023
  892MOL0     C22965   9.744   3.090   3.021  0.1453 -0.8476  0.5303
  892MOL0     O22966   9.727   3.228   3.027 -0.7500  0.0794 -0.2337
  892MOL0     C22967   9.591   3.290   3.010 -1.5699  0.3251  0.0413
  892MOL0     C22968   9.601   3.432   3.057 -0.0978  0.1121  0.3139
  892MOL0     C22969   9.464   3.503   3.043 -0.0046 -1.1689 -0.8448
  892MOL0     C22970   9.465   3.574   2.914 -0.5807  0.5153  0.1847
  892MOL0     C22971   9.356   3.682   2.902 -1.3238  0.3468  0.3245
  892MOL0     C22972   9.341   3.722   2.746  0.0942  0.3650  0.6579
  892MOL0     C22973   9.338   3.877   2.714 -0.7373 -0.7717 -0.2238
  892MOL0     C22974   9.337   3.899   2.559  1.0274  0.2159 -1.9786
  892MOL0     N22975   9.308   4.035   2.525  0.4503 -0.2091  0.8744
  892MOL0     C22976   9.204   4.092   2.451  0.1911  1.1073 -0.6040
  892MOL0     C22977   9.213   4.227   2.471  0.0270  0.5716  0.3070
  892MOL0     C22978   9.123   4.329   2.408 -0.4161 -0.0069  0.2956
  892MOL0     C22979   9.002   4.363   2.490 -1.0963 -0.1307  0.2261
  892MOL0     C22980   8.888   4.264   2.492 -0.1698  0.9203  0.4939
  892MOL0     C22981   8.821   4.261   2.628  0.2999  0.2294 -0.0660
  892MOL0     O22982   8.715   4.163   2.636 -0.0305 -0.6914  0.6283
  892MOL0     C22983   8.637   4.145   2.748 -0.2447 -0.5459 -0.7773
  892MOL0     C22984   8.569   4.025   2.748 -0.0510 -1.6684  0.1597
  892MOL0     C22985   8.497   3.992   2.871 -0.9036  0.8136  0.7118
  892MOL0     C22986   8.446   3.846   2.869 -0.2390 -0.0925  0.6083
  892MOL0     C22987   8.469   4.085   2.969 -0.7931 -0.0283  0.7142
  892MOL0     C22988   8.366   4.070   3.073  0.7600 -0.9544 -0.5619
  892MOL0     O22989   8.360   4.174   3.167 -0.0943 -0.2861 -0.3671
  892MOL0     C22990   8.302   4.154   3.289 -0.0165  0.2031 -0.1401
  892MOL0     C22991   8.173   4.175   3.317 -0.1544 -0.0510  0.5602
  892MOL0     C22992   8.127   4.158   3.447  0.1902  0.1964 -0.7656
  892MOL0     C22993   8.215   4.131   3.555  0.6511  0.9360 -0.2915
  892MOL0     O22994   8.156   4.111   3.682 -0.4886 -0.0991 -0.3215
  892MOL0     C22995   8.246   4.123   3.801 -0.7168 -0.3816  0.4228
  892MOL0     C22996   8.172   4.194   3.916  0.3246  0.1440 -0.0292
  892MOL0     C22997   8.128   4.330   3.872  0.0282 -0.5565  0.0812
  892MOL0     C22998   8.089   4.419   3.986  0.0702  0.2084  0.9478
  892MOL0     C22999   8.182   4.506   4.068 -0.4065 -0.0224  0.1340
  892MOL0     C23000   8.126   4.545   4.205  0.1147  0.0467 -0.4575
  892MOL0     C23001   8.234   4.651   4.252  0.2124  0.5816 -0.0865
  892MOL0     C23002   8.192   4.711   4.388 -0.5567  0.8971 -0.4260
  892MOL0    Cl23003   8.137   4.603   4.511 -0.3750  0.1003  0.1244
  892MOL0     C23004   8.344   4.105   3.526  0.6745 -0.2480  0.3154
  892MOL0     C23005   8.398   4.122   3.397  1.0138 -0.3677  0.4977
  892MOL0     O23006   8.304   3.965   3.075  0.1671 -0.8965  0.0615
  892MOL0     C23007   8.552   4.202   2.963  0.2437 -0.9892 -0.0901
  892MOL0     C23008   8.639   4.225   2.860  0.2913  0.9489 -0.3953
  892MOL0     N23009   9.318   4.252   2.552 -0.6794  0.2043 -0.1553
  892MOL0     N23010   9.373   4.140   2.586 -0.6758  1.7634  0.4541
  892MOL0     C23011   9.652   2.994   2.969  0.3770 -0.0904  0.2309
  892MOL0     C23012   9.670   2.853   2.987 -0.5288 -0.4261  0.7012
  892MOL0     C23013   9.812   2.447   3.033 -0.8602  0.8133  0.1445
  892MOL0     C23014   9.739   2.357   2.960  0.4086 -0.5018 -0.3430
  892MOL0     C23015   9.737   2.216   2.986 -0.3006 -1.0776  0.6469
  892MOL0     C23016   9.822   2.176   3.101  0.1778  0.3917 -0.4312
  892MOL0     O23017   9.835   2.043   3.119  0.2365  0.4769  0.0302
  892MOL0     C23018   9.883   1.984   3.247 -0.6327  0.3365 -0.2135
  892MOL0     C23019   9.856   1.836   3.252 -0.7244  0.2013 -0.5077
  892MOL0     C23020   9.918   1.752   3.141 -0.6672  0.4024 -0.3863
  892MOL0     C23021   9.856   1.616   3.124  0.3640 -0.6294 -0.1677
  892MOL0     C23022   9.901   1.531   3.230 -0.2944  0.1785 -0.4009
  892MOL0     C23023   9.942   1.464   3.324  0.1016 -0.0323 -0.5104
  892MOL0     C23024   9.884   2.273   3.186 -0.5467 -0.1726 -0.2672
  892MOL0     C23025   9.885   2.409   3.154  0.7847 -0.1652 -0.7224
  892MOL0     C23026   9.943   2.501   3.255  0.7161 -0.9925  0.5078
  892MOL0     H23027   9.963   2.877   3.151  1.8389  1.2328 -1.9049
  892MOL0     H23028   9.936   3.108   3.134  0.4063  0.3044 -1.2560
  892MOL0     H23029   9.513   3.230   3.057 -2.1048  0.0375 -1.1876
  892MOL0     H23030   9.580   3.281   2.901 -0.0782 -0.9747 -0.0526
  892MOL0     H23031   9.609   3.415   3.165  0.5281  0.0127  0.2528
  892MOL0     H23032   9.690   3.493   3.037  2.4962 -2.5096  2.8782
  892MOL0     H23033   9.379   3.436   3.063 -1.2835  0.7610  0.5154
  892MOL0     H23034   9.456   3.573   3.127 -2.3517 -1.9996 -0.2949
  892MOL0     H23035   9.565   3.616   2.900 -1.2634  2.4711  0.8600
  892MOL0     H23036   9.447   3.499   2.837 -1.4159 -0.4533  1.2732
  892MOL0     H23037   9.387   3.765   2.967  3.1777 -1.6645  1.1583
  892MOL0     H23038   9.259   3.638   2.927 -0.7574 -1.5096 -0.5397
  892MOL0     H23039   9.429   3.681   2.695 -1.1372 -1.5155 -0.0196
  892MOL0     H23040   9.248   3.680   2.708  0.9816 -0.9497 -0.1474
  892MOL0     H23041   9.423   3.926   2.762  0.5964 -1.9230 -1.3057
  892MOL0     H23042   9.250   3.917   2.765 -2.0470 -1.8363 -1.5697
  892MOL0     H23043   9.436   3.874   2.518  1.6796  0.7279 -0.7682
  892MOL0     H23044   9.263   3.841   2.503  1.1668 -1.0227 -0.9489
  892MOL0     H23045   9.131   4.039   2.392  1.5463 -1.9288  0.2454
  892MOL0     H23046   9.105   4.306   2.303  1.0265  0.3891 -0.0570
  892MOL0     H23047   9.187   4.417   2.398  2.9662 -2.5006 -2.1315
  892MOL0     H23048   9.038   4.378   2.592  1.0504 -3.3335  0.0684
  892MOL0     H23049   8.970   4.455   2.440  2.8142  1.3862  0.1527
  892MOL0     H23050   8.817   4.293   2.413 -0.4755  1.9835  1.1408
  892MOL0     H23051   8.930   4.165   2.471 -1.5835 -0.0932  2.1991
  892MOL0     H23052   8.907   4.236   2.691  0.5221 -2.5050 -1.3339
  892MOL0     H23053   8.768   4.355   2.647 -1.6641 -0.9236  0.4812
  892MOL0     H23054   8.562   3.968   2.656 -2.5958 -2.3011  0.6872
  892MOL0     H23055   8.518   3.790   2.809 -1.8060  0.3657 -1.8391
  892MOL0     H23056   8.349   3.843   2.818  0.9143  1.1884 -1.8161
  892MOL0     H23057   8.435   3.784   2.959 -2.9990  1.1302  1.2182
  892MOL0     H23058   8.106   4.199   3.235 -1.0285 -3.2277  0.1916
  892MOL0     H23059   8.019   4.169   3.454  0.2523 -0.2034  1.3045
  892MOL0     H23060   8.285   4.025   3.831 -0.1042 -0.9004 -1.8464
  892MOL0     H23061   8.330   4.189   3.782 -1.2460 -0.3346 -2.1833
  892MOL0     H23062   8.078   4.145   3.942  0.1620 -0.9939 -2.4338
  892MOL0     H23063   8.235   4.214   4.003  1.6295 -2.0450 -0.3916
  892MOL0     H23064   8.036   4.314   3.815 -2.0278 -0.6491  3.1778
  892MOL0     H23065   8.205   4.375   3.808 -0.6561 -2.6324 -2.3721
  892MOL0     H23066   8.033   4.355   4.055 -2.6350  1.7612  0.3328
  892MOL0     H23067   8.016   4.486   3.940  1.5882  0.1671 -1.7330
  892MOL0     H23068   8.279   4.459   4.085  1.4187  3.3272 -0.1854
  892MOL0     H23069   8.199   4.600   4.015 -1.3421  1.3435  2.1350
  892MOL0     H23070   8.125   4.459   4.272 -2.3179  0.1178 -0.3284
  892MOL0     H23071   8.028   4.592   4.198  0.1051 -0.0358 -0.9136
  892MOL0     H23072   8.235   4.730   4.177 -1.3986 -1.3830 -2.3463
  892MOL0     H23073   8.333   4.606   4.257  0.2310  0.7178  1.2214
  892MOL0     H23074   8.118   4.789   4.367  0.0157  1.6714  0.3335
  892MOL0     H23075   8.276   4.761   4.436  0.2036 -1.0606  0.3762
  892MOL0     H23076   8.415   4.076   3.603  1.4552  1.6249  0.3416
  892MOL0     H23077   8.505   4.118   3.378  0.6997  0.4404 -1.6618
  892MOL0     H23078   8.548   4.292   3.023  1.5022  1.5598 -3.4738
  892MOL0     H23079   8.721   4.295   2.877  1.2906 -0.6163  1.8171
  892MOL0     H23080   9.558   3.017   2.918  2.2255  0.4518 -3.2615
  892MOL0     H23081   9.594   2.785   2.950  0.7235 -1.7400  0.4561
  892MOL0     H23082   9.694   2.404   2.873  1.4428  2.0117  0.3908
  892MOL0     H23083   9.688   2.149   2.917 -1.3068 -1.4584  1.6851
  892MOL0     H23084   9.992   1.994   3.245 -0.7838  3.1110  1.1469
  892MOL0     H23085   9.856   2.037   3.339  0.1310  2.7657 -1.2818
  892MOL0     H23086   9.750   1.813   3.234 -0.6818  0.7105 -1.5415
  892MOL0     H23087   9.887   1.796   3.349 -1.1834  0.2111 -0.3539
  892MOL0     H23088   9.891   1.800   3.046 -0.6215 -4.3078 -3.1002
  892MOL0     H23089  10.025   1.735   3.151 -0.8266 -1.5331 -1.4140
  892MOL0     H23090   9.900   1.581   3.030  2.4010  0.2492  0.4110
  892MOL0     H23091   9.747   1.621   3.115  0.2395  1.9839  1.7348
  892MOL0     H23092   9.988   1.414   3.407 -0.2025 -0.6694 -0.7187
  892MOL0     H23093   9.937   2.249   3.278  1.2861  0.2984 -1.1682
  892MOL0     H23094   9.983   2.596   3.221  0.6245 -0.3570  2.0858
  892MOL0     H23095   9.861   2.530   3.322  2.5068  1.6027  1.7527
  892MOL0     H23096  10.028   2.452   3.304  1.6179 -3.2638 -2.9831
  893MOL0     O23097   3.082   6.644   2.740  1.3057 -0.1119 -0.6527
  893MOL0     C23098   3.056   6.565   2.652  0.0847 -0.0880  0.7928
  893MOL0     O23099   3.149   6.506   2.572 -0.2670 -0.0341 -0.1922
  893MOL0     C23100   3.282   6.558   2.575  0.1291  0.3826 -0.6760
  893MOL0     C23101   3.311   6.685   2.520  0.1823  0.1173 -0.5417
  893MOL0     C23102   3.443   6.727   2.508 -0.1161  0.3628 -0.4673
  893MOL0     C23103   3.549   6.647   2.550  0.8462  0.8358  0.0598
  893MOL0     O23104   3.680   6.686   2.542  0.1288  0.8376  0.5656
  893MOL0     C23105   3.756   6.696   2.664  0.6051 -0.0196  0.6539
  893MOL0     C23106   3.709   6.803   2.761  0.9321 -0.0467  0.0939
  893MOL0     C23107   3.808   6.833   2.882 -0.5179 -0.1928  0.4787
  893MOL0     C23108   3.941   6.903   2.850  0.6717 -1.0312  0.1023
  893MOL0     C23109   4.022   6.945   2.970 -0.5098 -0.1930  0.9969
  893MOL0     C23110   4.075   6.828   3.050  0.0786  0.1252  0.0353
  893MOL0     C23111   4.156   6.878   3.169 -0.5644 -0.1519  0.7458
  893MOL0     C23112   4.202   6.759   3.248 -0.0969  0.4189  0.4868
  893MOL0     N23113   4.292   6.785   3.364  0.7672 -0.5838  0.1835
  893MOL0     C23114   4.237   6.814   3.490  1.3126  1.1472  0.3499
  893MOL0     C23115   4.340   6.855   3.569 -0.1305 -0.7068  0.2176
  893MOL0     C23116   4.308   6.912   3.703  0.5576  0.3280 -0.0949
  893MOL0     C23117   4.427   6.884   3.788  0.4044  0.4195 -0.4316
  893MOL0     C23118   4.379   6.886   3.938  0.2771  0.1975 -0.2558
  893MOL0     C23119   4.479   6.806   4.030  0.9083 -0.6111  0.1142
  893MOL0     O23120   4.613   6.848   4.006  0.5277 -0.2587  0.0233
  893MOL0     C23121   4.660   6.970   4.056 -1.0493  0.3376  0.7063
  893MOL0     C23122   4.595   7.052   4.142 -0.3274  0.6206  0.0349
  893MOL0     C23123   4.646   7.162   4.201  0.2902  0.2890  0.7689
  893MOL0     C23124   4.552   7.246   4.293 -0.6448 -0.6209  0.3134
  893MOL0     C23125   4.777   7.197   4.171  0.2998  0.3621 -1.0674
  893MOL0     C23126   4.842   7.315   4.224  0.2831  0.4860 -0.2284
  893MOL0     O23127   4.849   7.419   4.135  0.1480 -0.6979 -0.6835
  893MOL0     C23128   4.907   7.543   4.168 -0.0474  0.6868 -0.7007
  893MOL0     C23129   4.963   7.583   4.285  0.7490  0.7292 -0.2175
  893MOL0     C23130   5.010   7.712   4.297 -0.3845  0.3048  0.2869
  893MOL0     C23131   5.030   7.800   4.193 -0.4257 -0.6522  0.0215
  893MOL0     O23132   5.084   7.921   4.213  0.1488  0.6664  0.2033
  893MOL0     C23133   5.076   8.016   4.110  0.3631 -0.2613  0.9277
  893MOL0     C23134   5.106   8.154   4.166  0.3813  0.3037  0.8506
  893MOL0     C23135   5.074   8.264   4.060 -1.0604  0.0016  0.0057
  893MOL0     C23136   5.137   8.397   4.096  0.9418  1.0578  0.3605
  893MOL0     C23137   5.120   8.500   3.980 -0.1234 -0.2600 -0.4984
  893MOL0     C23138   4.973   8.541   3.958  0.1417  0.1766  0.9075
  893MOL0     C23139   4.942   8.606   3.828  1.0561  0.2730  1.0814
  893MOL0     C23140   4.796   8.652   3.819 -0.5362  0.4161  0.1317
  893MOL0    Cl23141   4.756   8.776   3.944  0.2531 -0.5154 -0.3915
  893MOL0     C23142   5.000   7.755   4.066  0.4246  0.1274 -0.4897
  893MOL0     C23143   4.930   7.634   4.059  0.5946  0.1712  0.5814
  893MOL0     O23144   4.896   7.296   4.331  0.3220  0.4166  0.0800
  893MOL0     C23145   4.849   7.109   4.085  0.5681  0.6491 -0.7805
  893MOL0     C23146   4.788   7.006   4.020 -1.0224 -0.0030 -0.4916
  893MOL0     N23147   4.461   6.835   3.507 -0.2947 -0.2663 -0.2569
  893MOL0     N23148   4.425   6.793   3.383 -0.2516 -0.8359  0.2019
  893MOL0     C23149   3.520   6.524   2.609  0.3514 -0.2882  0.6084
  893MOL0     C23150   3.391   6.471   2.609 -0.3109  0.4253  0.0037
  893MOL0     C23151   2.912   6.528   2.611  0.1600 -0.1420 -0.9114
  893MOL0     C23152   2.812   6.567   2.698 -0.0801 -0.4246 -0.3578
  893MOL0     C23153   2.671   6.556   2.669  0.3771 -0.4230  0.0421
  893MOL0     C23154   2.630   6.496   2.549 -0.0107 -0.1260  0.1668
  893MOL0     O23155   2.501   6.451   2.536  0.8296 -0.7501 -0.2771
  893MOL0     C23156   2.488   6.310   2.525  0.0684  0.1769 -0.1126
  893MOL0     C23157   2.342   6.280   2.530 -0.0003  0.3170  0.1398
  893MOL0     C23158   2.278   6.254   2.672 -0.3490 -0.4076  0.7420
  893MOL0     C23159   2.216   6.380   2.734  0.2465 -0.5524  0.0968
  893MOL0     C23160   2.190   6.352   2.875  0.1157 -0.2580  0.2292
  893MOL0     C23161   2.163   6.317   2.992  1.3185  0.2348 -0.5212
  893MOL0     C23162   2.731   6.451   2.463  0.7054  0.5726  0.1143
  893MOL0     C23163   2.862   6.485   2.486  0.1094  0.3636  0.1043
  893MOL0     C23164   2.948   6.477   2.363 -0.8229 -1.2662 -0.0680
  893MOL0     H23165   3.234   6.750   2.480  0.6032  0.4610 -0.8012
  893MOL0     H23166   3.465   6.822   2.461  0.2254 -0.0630 -1.1913
  893MOL0     H23167   3.858   6.722   2.637 -0.1820  0.9485 -1.6532
  893MOL0     H23168   3.754   6.598   2.713  0.8918 -0.6072 -0.4611
  893MOL0     H23169   3.668   6.895   2.720  0.9893  1.0106  2.2545
  893MOL0     H23170   3.617   6.762   2.804 -0.4245  1.0552 -1.6401
  893MOL0     H23171   3.756   6.881   2.966  3.0662  0.2906  2.6059
  893MOL0     H23172   3.841   6.736   2.920  1.0988  0.6017  1.1825
  893MOL0     H23173   3.999   6.830   2.793  2.3740 -0.4834  1.0556
  893MOL0     H23174   3.911   6.993   2.796  1.5386  0.0405  1.3439
  893MOL0     H23175   3.968   7.012   3.039 -0.1752  1.1045  0.0317
  893MOL0     H23176   4.106   6.988   2.916 -1.3074 -1.6653 -1.5650
  893MOL0     H23177   3.987   6.776   3.088  0.9981 -0.5818  1.2787
  893MOL0     H23178   4.135   6.754   2.995 -1.1393 -2.4711  1.9603
  893MOL0     H23179   4.091   6.944   3.227  0.9647  1.1140  1.0793
  893MOL0     H23180   4.241   6.938   3.136 -0.8989  0.2464  0.6116
  893MOL0     H23181   4.115   6.702   3.282 -0.3461 -0.1345 -0.9884
  893MOL0     H23182   4.249   6.686   3.180 -1.7879 -2.2224  1.9558
  893MOL0     H23183   4.130   6.820   3.509  0.5514 -0.5956 -2.6828
  893MOL0     H23184   4.217   6.861   3.736 -0.8410  1.9167 -1.3034
  893MOL0     H23185   4.287   7.019   3.692  2.4481  0.6682 -0.8193
  893MOL0     H23186   4.467   6.789   3.752 -0.7874  0.1031 -0.9439
  893MOL0     H23187   4.509   6.954   3.770 -1.1471  2.3773 -0.2886
  893MOL0     H23188   4.358   6.986   3.977 -1.0369  0.0676 -0.5856
  893MOL0     H23189   4.284   6.834   3.941  1.3581 -1.8392  0.4784
  893MOL0     H23190   4.450   6.830   4.132 -0.0940  2.0410 -0.7096
  893MOL0     H23191   4.469   6.697   4.016  1.7790 -1.1509  3.1042
  893MOL0     H23192   4.496   7.022   4.176 -0.6460  0.7080 -0.7778
  893MOL0     H23193   4.458   7.272   4.242 -0.4046  2.0441  1.0492
  893MOL0     H23194   4.598   7.340   4.325 -1.1635 -1.1911  2.9222
  893MOL0     H23195   4.527   7.177   4.373 -3.0780  0.0804  0.2496
  893MOL0     H23196   4.953   7.526   4.377  8.0184  0.0281  0.7797
  893MOL0     H23197   5.033   7.759   4.392 -2.4210  1.9476  0.0533
  893MOL0     H23198   5.155   7.985   4.041 -1.2530 -2.1197 -0.1811
  893MOL0     H23199   4.979   8.024   4.060  2.0970 -1.3750 -2.9707
  893MOL0     H23200   5.052   8.193   4.253 -0.6928  3.6155 -1.0970
  893MOL0     H23201   5.215   8.154   4.175  0.4887  1.6431 -0.1455
  893MOL0     H23202   4.966   8.271   4.048 -1.5656  0.2342  3.5528
  893MOL0     H23203   5.117   8.240   3.963 -0.7229  2.2809 -0.4774
  893MOL0     H23204   5.243   8.373   4.107  0.2597 -3.2699 -0.7653
  893MOL0     H23205   5.098   8.435   4.191 -2.5254  0.0946 -0.5227
  893MOL0     H23206   5.168   8.592   4.016 -0.4490  0.2035 -1.2275
  893MOL0     H23207   5.156   8.473   3.881  0.2477  2.8464 -1.3312
  893MOL0     H23208   4.955   8.622   4.029 -1.5801 -0.9608  1.8450
  893MOL0     H23209   4.911   8.452   3.973  1.3869 -0.5722  1.6877
  893MOL0     H23210   4.965   8.541   3.744 -0.2848  0.4565  0.5432
  893MOL0     H23211   5.004   8.695   3.810  1.0701  0.1306  0.4267
  893MOL0     H23212   4.733   8.563   3.833 -0.2020  0.4751  2.1765
  893MOL0     H23213   4.770   8.681   3.717 -0.7043  2.5303  0.7361
  893MOL0     H23214   4.999   7.813   3.975 -0.7770  1.0682  0.0871
  893MOL0     H23215   4.883   7.592   3.970  1.3409 -0.5494  0.5155
  893MOL0     H23216   4.953   7.133   4.064  0.5653 -0.9745 -3.0281
  893MOL0     H23217   4.837   6.933   3.956  3.3353  0.5443  1.8298
  893MOL0     H23218   3.599   6.462   2.649 -1.2639 -1.2128  2.5256
  893MOL0     H23219   3.362   6.373   2.644  0.3042 -0.7599 -2.5534
  893MOL0     H23220   2.850   6.606   2.792 -0.3602 -4.1490  1.4721
  893MOL0     H23221   2.592   6.584   2.738 -1.4128  0.4668 -2.2397
  893MOL0     H23222   2.536   6.275   2.433 -2.5471 -0.6171 -1.2765
  893MOL0     H23223   2.540   6.257   2.606 -1.4960 -3.4446 -1.2750
  893MOL0     H23224   2.323   6.194   2.466  0.3677 -1.3241  2.1229
  893MOL0     H23225   2.284   6.365   2.492 -3.9688 -2.0998  0.2701
  893MOL0     H23226   2.189   6.191   2.664  1.1046 -2.3754 -1.2384
  893MOL0     H23227   2.358   6.223   2.740 -0.7875  1.0498  1.9754
  893MOL0     H23228   2.127   6.417   2.682  0.7521 -0.0206 -0.4075
  893MOL0     H23229   2.292   6.459   2.732 -1.1636  1.5411  6.6204
  893MOL0     H23230   2.154   6.275   3.090  1.9065  2.5106  0.5829
  893MOL0     H23231   2.684   6.408   2.375 -1.9350 -0.1551  1.7680
  893MOL0     H23232   2.999   6.381   2.362  3.1234  0.6409 -1.1418
  893MOL0     H23233   2.873   6.487   2.284 -1.3490  2.1199  0.6956
  893MOL0     H23234   3.021   6.558   2.364 -0.1437 -1.8627 -0.5934
  894MOL0     O23235   0.257   2.178   9.849  0.4538  0.2435  0.2959
  894MOL0     C23236   0.245   2.294   9.883 -0.1835  0.6839 -0.3885
  894MOL0     O23237   0.223   2.334  10.014 -0.7615  0.2192 -0.5731
  894MOL0     C23238   0.182   2.240  10.103 -0.5028  0.7370  0.0861
  894MOL0     C23239   0.275   2.172  10.181  0.7864 -0.6776 -0.2687
  894MOL0     C23240   0.243   2.075  10.269  0.0773  0.3100  0.4199
  894MOL0     C23241   0.114   2.055  10.310  0.7059 -0.2006 -0.0250
  894MOL0     O23242   0.069   1.958  10.400 -0.3480  0.6178  0.1886
  894MOL0     C23243   0.155   1.856  10.453 -0.1336 -0.2215 -0.3436
  894MOL0     C23244   0.090   1.759  10.547 -0.5679 -0.2760  0.2314
  894MOL0     C23245   0.049   1.832  10.669  0.6594  0.0824  0.5451
  894MOL0     C23246  -0.020   1.730  10.761  1.1131 -0.6725  0.7577
  894MOL0     C23247  -0.130   1.791  10.854  0.1485  0.3361  0.0341
  894MOL0     C23248  -0.074   1.854  10.990 -0.0696  0.1666 -0.0338
  894MOL0     C23249  -0.182   1.891  11.096 -0.1824 -0.0997  0.4908
  894MOL0     C23250  -0.267   2.012  11.059  0.0572  0.5736 -0.1030
  894MOL0     N23251  -0.355   2.043  11.178 -0.3309  0.2145  0.8752
  894MOL0     C23252  -0.493   2.054  11.169 -0.7405 -0.5652  0.0071
  894MOL0     C23253  -0.537   2.100  11.277 -0.2554 -0.8465  0.1537
  894MOL0     C23254  -0.684   2.134  11.309 -0.5284 -0.7808  0.8497
  894MOL0     C23255  -0.709   2.184  11.449  0.6266 -0.3466  1.1876
  894MOL0     C23256  -0.698   2.068  11.546 -0.5485 -0.6496 -0.3004
  894MOL0     C23257  -0.800   2.098  11.660  0.5666 -0.3916 -0.1585
  894MOL0     O23258  -0.741   2.186  11.764 -0.6817 -0.0884 -0.4198
  894MOL0     C23259  -0.808   2.207  11.885  0.3750  0.4819  0.4311
  894MOL0     C23260  -0.947   2.200  11.899 -0.3274  0.3209 -0.1172
  894MOL0     C23261  -1.014   2.237  12.014 -0.3742 -0.5870  0.1869
  894MOL0     C23262  -1.158   2.197  12.024  0.0671  0.1405  0.2889
  894MOL0     C23263  -0.940   2.299  12.124 -1.2156  0.5848  0.9418
  894MOL0     C23264  -0.989   2.363  12.249 -0.1000 -0.4194  0.9130
  894MOL0     O23265  -0.904   2.427  12.340  0.2096  0.9041 -0.1593
  894MOL0     C23266  -0.951   2.524  12.427 -0.3052  0.8752 -0.6366
  894MOL0     C23267  -0.884   2.553  12.549 -0.5669  0.2126  0.3895
  894MOL0     C23268  -0.930   2.652  12.641 -0.5212 -0.7687  0.5584
  894MOL0     C23269  -1.042   2.724  12.607 -0.4773  0.7460  0.2718
  894MOL0     O23270  -1.105   2.807  12.694  0.0091  0.7046 -0.5427
  894MOL0     C23271  -1.023   2.884  12.795 -0.0802  0.7613 -1.0047
  894MOL0     C23272  -1.092   3.013  12.829  0.6781 -0.1359  0.3049
  894MOL0     C23273  -1.009   3.104  12.914  0.0509 -0.4987 -0.6077
  894MOL0     C23274  -1.098   3.231  12.921  0.1537  0.7073  0.2908
  894MOL0     C23275  -1.037   3.327  13.018 -0.5520  0.0376  0.2788
  894MOL0     C23276  -0.886   3.359  12.994 -0.3473  0.1042  0.5902
  894MOL0     C23277  -0.846   3.444  12.865  0.1458 -0.0010  0.6213
  894MOL0     C23278  -0.693   3.480  12.856  0.3614 -0.1725  0.4962
  894MOL0    Cl23279  -0.599   3.320  12.839 -0.7266  0.6287  0.1526
  894MOL0     C23280  -1.117   2.699  12.491  0.1876 -0.8173  0.1043
  894MOL0     C23281  -1.068   2.607  12.397  0.0435  0.3285  1.5740
  894MOL0     O23282  -1.109   2.336  12.271  0.3784  0.3334 -0.4288
  894MOL0     C23283  -0.803   2.303  12.104 -0.5507  0.1064 -0.7714
  894MOL0     C23284  -0.738   2.257  11.993  0.3998 -0.6626  0.5075
  894MOL0     N23285  -0.425   2.136  11.361  0.2712 -1.1962 -0.3983
  894MOL0     N23286  -0.319   2.117  11.292 -0.1296 -0.4609  0.1354
  894MOL0     C23287   0.013   2.123  10.244  0.6462 -0.3659  0.2953
  894MOL0     C23288   0.047   2.219  10.147 -0.2478  1.1600  0.4755
  894MOL0     C23289   0.223   2.405   9.780 -0.1373  0.2614 -0.6535
  894MOL0     C23290   0.154   2.526   9.812 -0.0653 -0.3723  0.4375
  894MOL0     C23291   0.154   2.636   9.722  1.0301  0.3319 -0.5854
  894MOL0     C23292   0.214   2.625   9.597  0.9805  0.5625 -0.2148
  894MOL0     O23293   0.219   2.727   9.503  0.2387  0.0093  0.4886
  894MOL0     C23294   0.092   2.746   9.430 -0.7787 -0.1012  0.3277
  894MOL0     C23295   0.063   2.898   9.431 -0.9168 -0.1767  0.0402
  894MOL0     C23296  -0.083   2.928   9.397 -0.3070 -0.3388 -0.2689
  894MOL0     C23297  -0.170   2.891   9.532 -0.7651 -0.3888  0.3687
  894MOL0     C23298  -0.313   2.936   9.515 -0.0784  0.2091  0.9088
  894MOL0     C23299  -0.431   2.955   9.497  0.0780 -1.2286  0.2517
  894MOL0     C23300   0.259   2.499   9.558  0.3734 -1.0378 -0.0179
  894MOL0     C23301   0.279   2.394   9.645 -0.4023  1.0800 -0.0717
  894MOL0     C23302   0.361   2.277   9.588 -0.8962 -0.0938 -0.7241
  894MOL0     H23303   0.382   2.184  10.170  1.2204 -1.5631  2.2533
  894MOL0     H23304   0.323   2.018  10.316  0.6902 -1.5301 -2.6215
  894MOL0     H23305   0.244   1.904  10.496  0.6788 -2.8088  1.0787
  894MOL0     H23306   0.188   1.793  10.370 -3.5071 -1.9294 -0.5247
  894MOL0     H23307   0.000   1.733  10.489  0.9080  0.7955 -2.7554
  894MOL0     H23308   0.149   1.668  10.562  0.4195  0.2901 -0.1555
  894MOL0     H23309   0.138   1.876  10.715  1.8418 -2.7509  1.2080
  894MOL0     H23310  -0.017   1.916  10.645 -0.3816 -1.1601 -1.1842
  894MOL0     H23311  -0.073   1.657  10.700  0.9740 -2.8504  3.2786
  894MOL0     H23312   0.050   1.672  10.822  0.0037 -0.7659  1.9767
  894MOL0     H23313  -0.200   1.707  10.867  2.3027 -2.0891 -2.4904
  894MOL0     H23314  -0.189   1.864  10.798  0.6475  0.2183 -0.6596
  894MOL0     H23315  -0.013   1.770  11.025  0.8833  0.3934 -1.0656
  894MOL0     H23316  -0.004   1.935  10.968 -0.9170  1.1856  0.9027
  894MOL0     H23317  -0.120   1.902  11.186 -0.8331  0.6030  0.8584
  894MOL0     H23318  -0.256   1.812  11.108 -0.6748  0.5334  1.8166
  894MOL0     H23319  -0.203   2.094  11.027 -0.2780  1.2066  0.8089
  894MOL0     H23320  -0.334   1.987  10.977 -1.7255  2.1775  0.7850
  894MOL0     H23321  -0.546   2.012  11.084 -0.0050  0.3048 -0.9140
  894MOL0     H23322  -0.743   2.049  11.274 -4.2883  1.0552  2.1756
  894MOL0     H23323  -0.707   2.217  11.241  2.6900 -0.6811 -0.2846
  894MOL0     H23324  -0.630   2.256  11.473 -0.8989  1.2710  1.5284
  894MOL0     H23325  -0.805   2.235  11.454  1.7201  1.8078  1.5710
  894MOL0     H23326  -0.717   1.968  11.505  0.3491 -0.8470 -0.2519
  894MOL0     H23327  -0.596   2.057  11.582 -1.0895 -1.6584  1.0358
  894MOL0     H23328  -0.890   2.135  11.612  0.1270  0.5950  1.3522
  894MOL0     H23329  -0.818   2.001  11.707  0.1267  0.3182  1.2031
  894MOL0     H23330  -1.001   2.148  11.821  0.1396  0.1292 -0.3175
  894MOL0     H23331  -1.217   2.289  12.027 -1.1361 -0.5650 -0.8210
  894MOL0     H23332  -1.181   2.147  12.118 -0.5543 -0.0435  0.0490
  894MOL0     H23333  -1.184   2.134  11.938 -1.4779  0.0394  0.8069
  894MOL0     H23334  -0.789   2.509  12.575 -0.6367  1.1794  2.4867
  894MOL0     H23335  -0.869   2.686  12.724 -0.7066  0.8008  0.0816
  894MOL0     H23336  -1.029   2.818  12.882 -2.6372 -1.0463 -2.4045
  894MOL0     H23337  -0.924   2.894  12.751  0.1377  3.4508 -0.0230
  894MOL0     H23338  -1.129   3.056  12.736 -2.2272 -3.4937 -0.2922
  894MOL0     H23339  -1.184   2.980  12.879  0.1340 -0.8508 -1.1300
  894MOL0     H23340  -0.911   3.120  12.869  1.6973 -1.1986  2.4287
  894MOL0     H23341  -1.000   3.075  13.019 -1.4331  0.7167 -0.1075
  894MOL0     H23342  -1.205   3.213  12.931  0.5604 -2.2306  0.2913
  894MOL0     H23343  -1.089   3.271  12.819  1.8543  0.7842  0.4397
  894MOL0     H23344  -1.095   3.420  13.018 -1.4862 -0.4773  2.7738
  894MOL0     H23345  -1.051   3.287  13.119  0.2836  2.8042  1.5850
  894MOL0     H23346  -0.823   3.269  12.994  1.6207  1.3719  2.7102
  894MOL0     H23347  -0.849   3.417  13.079  0.1307  1.0963 -0.2796
  894MOL0     H23348  -0.912   3.530  12.853  1.2724  0.8139  0.0581
  894MOL0     H23349  -0.853   3.382  12.774  0.5902 -0.3204  0.7970
  894MOL0     H23350  -0.662   3.544  12.938 -1.5214  3.0637 -1.1181
  894MOL0     H23351  -0.672   3.530  12.761  0.2857 -2.0868 -0.5823
  894MOL0     H23352  -1.210   2.751  12.475  0.4497 -0.9783 -2.3463
  894MOL0     H23353  -1.119   2.600  12.302  1.8248 -0.8872  0.6544
  894MOL0     H23354  -0.746   2.360  12.177 -3.2014  1.5896  0.2781
  894MOL0     H23355  -0.630   2.271  11.986  0.1214  1.6538  0.2831
  894MOL0     H23356  -0.090   2.090  10.251  0.3067  0.6239  0.1709
  894MOL0     H23357  -0.043   2.254  10.099 -0.3539  0.3827  0.0897
  894MOL0     H23358   0.098   2.539   9.905 -1.3671  0.3368 -0.4255
  894MOL0     H23359   0.111   2.731   9.752  0.2861 -0.1630 -0.0603
  894MOL0     H23360   0.087   2.717   9.325  0.7071  0.3577  0.1031
  894MOL0     H23361   0.008   2.696   9.480 -3.0228  2.4503 -0.6108
  894MOL0     H23362   0.125   2.933   9.348 -0.3865  0.9100  0.8698
  894MOL0     H23363   0.093   2.949   9.523 -1.0542 -1.2145  0.6797
  894MOL0     H23364  -0.098   3.035   9.377 -1.5321 -0.3553  0.4434
  894MOL0     H23365  -0.103   2.870   9.306 -0.7876 -0.4631 -0.0908
  894MOL0     H23366  -0.122   2.940   9.617 -0.4142 -1.1207  0.5974
  894MOL0     H23367  -0.174   2.785   9.559 -0.2161 -0.8389 -1.1920
  894MOL0     H23368  -0.536   2.977   9.504  0.2964 -0.0303  0.0418
  894MOL0     H23369   0.280   2.482   9.453 -0.9964 -2.5882 -0.1000
  894MOL0     H23370   0.435   2.243   9.660 -1.6340  0.9196  0.5503
  894MOL0     H23371   0.290   2.199   9.557 -1.5147  1.0164 -2.2506
  894MOL0     H23372   0.423   2.300   9.501  1.3343 -1.4577  0.4017
  895MOL0     O23373   8.417   7.156   2.025 -0.2003  0.0814  0.2207
  895MOL0     C23374   8.324   7.084   2.004  0.3356  0.9938  0.2172
  895MOL0     O23375   8.249   7.023   2.098 -0.2635 -1.1226  0.3587
  895MOL0     C23376   8.268   7.055   2.226 -0.1192  0.5709 -1.0610
  895MOL0     C23377   8.388   7.047   2.304 -0.1414 -0.5536 -0.9907
  895MOL0     C23378   8.385   7.063   2.441 -0.1876 -0.0823 -0.2898
  895MOL0     C23379   8.265   7.079   2.512 -0.1706  0.1371 -0.4790
  895MOL0     O23380   8.284   7.117   2.648 -0.1645 -0.0386 -0.1681
  895MOL0     C23381   8.156   7.105   2.716  0.9234  0.6510  0.9372
  895MOL0     C23382   8.172   7.117   2.861 -0.3551  0.5434  0.1841
  895MOL0     C23383   8.044   7.083   2.942  0.3196 -0.1033  0.6534
  895MOL0     C23384   7.924   7.175   2.925 -0.4252 -0.6779  0.4998
  895MOL0     C23385   7.937   7.298   3.025  0.1801  0.5917  0.5887
  895MOL0     C23386   7.803   7.377   3.001  0.3616  0.2127  0.7197
  895MOL0     C23387   7.803   7.514   3.047  0.9310 -0.2299  0.4270
  895MOL0     C23388   7.675   7.582   3.023 -0.0876  0.7578 -0.0824
  895MOL0     N23389   7.673   7.722   3.060  0.0141 -0.4655  0.2012
  895MOL0     C23390   7.648   7.758   3.188  0.1421  0.2429  0.8965
  895MOL0     C23391   7.686   7.890   3.191 -0.4138 -0.0725  0.6022
  895MOL0     C23392   7.681   7.980   3.309 -0.3499 -0.0259 -0.2417
  895MOL0     C23393   7.554   8.056   3.318  0.6549 -0.4782 -0.7935
  895MOL0     C23394   7.581   8.195   3.378 -0.4255 -0.4571  0.5160
  895MOL0     C23395   7.645   8.298   3.290  0.5051 -0.2623  1.0762
  895MOL0     O23396   7.789   8.276   3.284 -0.8359 -0.4378 -0.6281
  895MOL0     C23397   7.876   8.330   3.190 -0.2698 -0.0801  0.4187
  895MOL0     C23398   7.830   8.415   3.089  0.3185 -1.4367  0.4041
  895MOL0     C23399   7.902   8.470   2.979 -0.7823  0.1596  0.7555
  895MOL0     C23400   7.839   8.564   2.881 -0.3564  0.3000  0.2363
  895MOL0     C23401   8.034   8.435   2.968  0.2878 -0.3283 -0.1788
  895MOL0     C23402   8.111   8.480   2.859 -1.5208 -0.3529  0.1238
  895MOL0     O23403   8.110   8.412   2.743 -0.3740  0.9295 -0.4301
  895MOL0     C23404   8.207   8.447   2.650  0.1709  0.0674 -0.1833
  895MOL0     C23405   8.171   8.507   2.529  0.4211 -0.3704  0.0062
  895MOL0     C23406   8.258   8.568   2.447 -0.4388 -0.1986  0.3252
  895MOL0     C23407   8.393   8.558   2.476  0.9081  0.2620  0.8985
  895MOL0     O23408   8.497   8.609   2.404  0.1439 -0.5377 -0.2892
  895MOL0     C23409   8.481   8.621   2.263  0.6543  0.0876 -0.0120
  895MOL0     C23410   8.610   8.620   2.184 -0.6905  1.0029 -0.0861
  895MOL0     C23411   8.600   8.644   2.032 -0.6945  0.6453  0.5512
  895MOL0     C23412   8.707   8.571   1.951  0.1323 -0.1593  0.1236
  895MOL0     C23413   8.691   8.600   1.797 -0.2899 -0.1291  0.1482
  895MOL0     C23414   8.784   8.509   1.719 -0.0315 -0.7118  0.0746
  895MOL0     C23415   8.923   8.572   1.713 -0.7917 -0.0266  0.0284
  895MOL0     C23416   9.019   8.467   1.636 -0.5926  0.4955 -0.7592
  895MOL0    Cl23417   8.952   8.446   1.467  0.0456 -0.2023  0.1633
  895MOL0     C23418   8.433   8.484   2.588 -0.0793 -0.4741 -0.1149
  895MOL0     C23419   8.333   8.429   2.685 -0.4590 -0.7671 -0.6072
  895MOL0     O23420   8.163   8.587   2.873 -0.0631  0.1934 -0.1900
  895MOL0     C23421   8.085   8.355   3.071 -0.4686 -0.0796 -0.1334
  895MOL0     C23422   8.020   8.305   3.181  0.7404 -0.2425  0.9092
  895MOL0     N23423   7.721   7.928   3.062  0.1207  0.4467  0.0421
  895MOL0     N23424   7.709   7.829   2.984  0.5665 -0.2126  1.1551
  895MOL0     C23425   8.142   7.090   2.431  0.6258  0.6958  0.4327
  895MOL0     C23426   8.144   7.076   2.289  0.0793  0.4022  0.9579
  895MOL0     C23427   8.301   7.036   1.867  0.4096  0.1144 -1.0993
  895MOL0     C23428   8.415   6.984   1.809  0.4925  0.7253 -0.7110
  895MOL0     C23429   8.410   6.927   1.683  0.5225 -0.5086  0.4765
  895MOL0     C23430   8.278   6.900   1.631  0.1396 -1.3750  0.1106
  895MOL0     O23431   8.239   6.824   1.523  0.1851  0.5578  0.6743
  895MOL0     C23432   8.336   6.740   1.453  0.4831 -0.0773 -0.3109
  895MOL0     C23433   8.274   6.602   1.425  0.1090 -0.2751 -0.0612
  895MOL0     C23434   8.214   6.547   1.555 -0.7870 -0.0374  0.2279
  895MOL0     C23435   8.163   6.404   1.546  0.9166  0.0919  1.3801
  895MOL0     C23436   8.261   6.307   1.495  0.4174 -0.3987 -0.1578
  895MOL0     C23437   8.357   6.247   1.457 -0.1010 -0.6468 -0.4227
  895MOL0     C23438   8.166   6.964   1.690 -0.1421  0.6362  0.4804
  895MOL0     C23439   8.175   7.034   1.808 -0.3395  0.3815  0.6316
  895MOL0     C23440   8.045   7.083   1.868 -0.1214 -0.9070 -0.7052
  895MOL0     H23441   8.477   7.023   2.246  0.6334  1.0049 -0.5012
  895MOL0     H23442   8.477   7.051   2.498  0.1459 -0.9530 -0.9983
  895MOL0     H23443   8.116   7.008   2.686 -2.0173  1.7318  1.0331
  895MOL0     H23444   8.093   7.188   2.683 -1.2018 -2.0948 -2.6760
  895MOL0     H23445   8.261   7.062   2.895 -1.8372 -1.0532  1.6989
  895MOL0     H23446   8.207   7.220   2.868  1.7669  0.0435 -1.6329
  895MOL0     H23447   8.009   6.985   2.909  0.8900  0.5071 -2.0036
  895MOL0     H23448   8.075   7.076   3.046  2.3580  0.3279  0.1289
  895MOL0     H23449   7.921   7.216   2.823 -0.1896  0.4928  0.9472
  895MOL0     H23450   7.831   7.122   2.947 -1.1685  0.5009  0.2857
  895MOL0     H23451   8.019   7.365   2.999 -0.7607  1.2646 -0.7995
  895MOL0     H23452   7.947   7.258   3.126  2.1406  2.6016  1.2731
  895MOL0     H23453   7.779   7.372   2.894 -1.8952 -1.4774  1.2340
  895MOL0     H23454   7.717   7.327   3.047 -1.7778  2.2048 -0.8346
  895MOL0     H23455   7.881   7.573   2.999 -0.1070  1.7283  1.0173
  895MOL0     H23456   7.814   7.502   3.156 -0.3133 -3.6614  0.2864
  895MOL0     H23457   7.661   7.576   2.914  0.9982 -1.5364 -0.1590
  895MOL0     H23458   7.592   7.521   3.060 -0.7843  1.6322 -0.1640
  895MOL0     H23459   7.609   7.699   3.270 -2.9958 -1.4085 -1.5932
  895MOL0     H23460   7.764   8.046   3.283 -0.6198  0.4718  0.1326
  895MOL0     H23461   7.696   7.928   3.404  2.5034 -0.2546 -0.7322
  895MOL0     H23462   7.526   8.069   3.213  2.6545  2.8399 -1.0404
  895MOL0     H23463   7.474   8.002   3.368 -0.4141  1.8349  0.1229
  895MOL0     H23464   7.484   8.243   3.399  0.3054  1.2564  0.1223
  895MOL0     H23465   7.639   8.187   3.471  0.2577  0.9855  0.2426
  895MOL0     H23466   7.602   8.296   3.190  0.5737  1.5393  0.9826
  895MOL0     H23467   7.641   8.402   3.322  0.1752  0.2769 -0.6493
  895MOL0     H23468   7.722   8.431   3.090  0.7621  3.8095 -2.2043
  895MOL0     H23469   7.888   8.662   2.884  2.2304 -0.7752 -2.1636
  895MOL0     H23470   7.733   8.579   2.902 -0.2356  2.0032 -0.1848
  895MOL0     H23471   7.841   8.534   2.776 -0.1657  0.7310  0.1162
  895MOL0     H23472   8.068   8.492   2.497  1.3204 -1.1145 -2.8471
  895MOL0     H23473   8.212   8.610   2.358  0.7093  0.8355  0.1882
  895MOL0     H23474   8.415   8.540   2.230 -1.1900  1.1433  0.9589
  895MOL0     H23475   8.424   8.709   2.234 -2.3709 -1.4256  0.9106
  895MOL0     H23476   8.686   8.686   2.226  1.2243 -0.6164 -0.8324
  895MOL0     H23477   8.637   8.514   2.191 -0.4717  1.1616  2.8106
  895MOL0     H23478   8.615   8.748   2.005 -1.5887 -0.1340 -3.8091
  895MOL0     H23479   8.500   8.621   1.992 -0.8927 -0.3561  1.5795
  895MOL0     H23480   8.702   8.466   1.981 -0.1231  0.5517  2.8010
  895MOL0     H23481   8.809   8.600   1.977  0.8407 -3.0351  0.9552
  895MOL0     H23482   8.590   8.575   1.765 -1.3443  0.7301  2.5197
  895MOL0     H23483   8.712   8.706   1.786  2.3092 -0.5932 -0.0550
  895MOL0     H23484   8.751   8.490   1.617 -0.3002 -0.6496  0.1474
  895MOL0     H23485   8.782   8.414   1.773 -0.8666 -0.6761  0.1189
  895MOL0     H23486   8.968   8.596   1.810  1.9298 -1.6533 -0.7184
  895MOL0     H23487   8.916   8.670   1.665  0.5688  1.3102  2.3625
  895MOL0     H23488   9.027   8.371   1.688  0.6023  0.5980 -0.7169
  895MOL0     H23489   9.120   8.508   1.640 -0.2137 -0.3358 -1.4709
  895MOL0     H23490   8.536   8.453   2.594  0.4266  0.6625 -1.9920
  895MOL0     H23491   8.356   8.384   2.781 -4.8536  2.7935  2.5424
  895MOL0     H23492   8.190   8.331   3.057 -0.3864  0.9695 -1.4339
  895MOL0     H23493   8.061   8.251   3.266 -1.0892 -1.5447  1.0259
  895MOL0     H23494   8.041   7.117   2.461 -0.6598  1.0110 -3.5528
  895MOL0     H23495   8.053   7.067   2.231  2.7621 -4.5358 -3.3098
  895MOL0     H23496   8.510   6.974   1.861 -0.3137 -4.5524  0.3658
  895MOL0     H23497   8.507   6.906   1.640  1.4091  1.8518  1.1675
  895MOL0     H23498   8.371   6.786   1.360  0.9482 -0.4177 -0.3094
  895MOL0     H23499   8.420   6.718   1.520 -0.6236 -0.3823  1.0289
  895MOL0     H23500   8.367   6.545   1.411 -0.1729 -0.9527  0.7925
  895MOL0     H23501   8.202   6.594   1.343 -3.3244  2.2367  2.4725
  895MOL0     H23502   8.275   6.562   1.644 -1.1661  5.1362 -0.1175
  895MOL0     H23503   8.118   6.596   1.575 -1.9000 -1.7916 -0.5582
  895MOL0     H23504   8.078   6.402   1.477 -0.2192  0.9657  2.7050
  895MOL0     H23505   8.136   6.364   1.644  0.5107  2.9259  2.5104
  895MOL0     H23506   8.458   6.215   1.441 -0.0842 -0.6297 -0.3520
  895MOL0     H23507   8.070   6.948   1.640  0.4593  2.6129 -1.4885
  895MOL0     H23508   7.986   7.130   1.789 -1.4082 -1.2929 -0.0013
  895MOL0     H23509   7.987   6.998   1.906  0.2687 -1.8556 -2.1287
  895MOL0     H23510   8.055   7.169   1.934  0.9686  0.1867 -2.2192
  896MOL0     O23511   0.124   1.349   7.455 -0.0278 -0.1728  0.0924
  896MOL0     C23512   0.126   1.230   7.429 -0.1157 -0.4674 -0.7000
  896MOL0     O23513   0.150   1.131   7.517 -0.1057 -0.0151 -0.1168
  896MOL0     C23514   0.210   1.151   7.639 -0.1667 -0.3627  0.3582
  896MOL0     C23515   0.293   1.262   7.672  0.5449 -0.3171  0.7992
  896MOL0     C23516   0.362   1.272   7.795  0.3737  0.3617  0.1271
  896MOL0     C23517   0.345   1.178   7.897  0.0895 -0.0529  0.4709
  896MOL0     O23518   0.426   1.196   8.004 -1.2560 -0.3538 -0.1583
  896MOL0     C23519   0.391   1.138   8.138  0.7847 -0.5633 -0.9255
  896MOL0     C23520   0.511   1.084   8.214  1.4072 -0.0615  0.4375
  896MOL0     C23521   0.465   1.010   8.340  1.2136  0.3662 -0.2158
  896MOL0     C23522   0.592   0.933   8.407 -0.1936  0.6382  0.0038
  896MOL0     C23523   0.691   1.033   8.465  1.2569 -0.6676  0.8425
  896MOL0     C23524   0.799   0.976   8.553 -1.0334 -0.0279  0.2040
  896MOL0     C23525   0.759   0.991   8.708  0.1349  0.5599  1.0496
  896MOL0     C23526   0.851   0.905   8.791 -0.6810  0.8375 -0.9078
  896MOL0     N23527   0.884   0.945   8.926 -0.2751  0.5617 -0.4258
  896MOL0     C23528   0.806   0.912   9.033 -0.1434 -0.3961  0.1706
  896MOL0     C23529   0.880   0.938   9.141  0.3967 -0.0410 -0.0392
  896MOL0     C23530   0.837   0.886   9.278 -0.0228 -0.6672 -0.1280
  896MOL0     C23531   0.694   0.904   9.309  0.0053 -0.2604  0.3097
  896MOL0     C23532   0.676   0.862   9.465 -0.3822 -0.9372  0.9099
  896MOL0     C23533   0.532   0.864   9.504  0.1288 -0.6723  0.0725
  896MOL0     O23534   0.497   1.006   9.475  0.0724  0.1378  0.1579
  896MOL0     C23535   0.363   1.041   9.475 -0.5059  0.1550 -0.1152
  896MOL0     C23536   0.265   0.970   9.544 -0.6769 -0.0676 -0.4038
  896MOL0     C23537   0.129   1.002   9.518  0.3124 -1.0727  0.0047
  896MOL0     C23538   0.026   0.922   9.576  0.5537 -0.5276  0.3072
  896MOL0     C23539   0.094   1.112   9.436 -0.0550  0.0003  0.1539
  896MOL0     C23540  -0.049   1.150   9.400  0.0390  0.7374  0.1680
  896MOL0     O23541  -0.085   1.176   9.268 -0.2481  0.4809 -0.4176
  896MOL0     C23542  -0.218   1.224   9.235  0.4995 -0.5963  0.0737
  896MOL0     C23543  -0.233   1.341   9.164 -1.4294  0.4146 -1.3014
  896MOL0     C23544  -0.358   1.362   9.108 -0.0093 -0.8383  0.4677
  896MOL0     C23545  -0.478   1.300   9.154 -0.0997  0.0785 -0.3234
  896MOL0     O23546  -0.605   1.312   9.107 -0.2101  0.0929  0.0743
  896MOL0     C23547  -0.618   1.409   9.000 -0.1150 -0.4186  0.1453
  896MOL0     C23548  -0.748   1.405   8.910  1.0722 -0.2501  0.7367
  896MOL0     C23549  -0.870   1.440   9.007  1.2372  0.3378 -0.5849
  896MOL0     C23550  -0.991   1.478   8.920 -0.0248  0.0584  0.1932
  896MOL0     C23551  -1.039   1.617   8.961 -0.6767 -0.2284  0.1481
  896MOL0     C23552  -1.156   1.657   8.868  0.8598  0.8062 -0.3087
  896MOL0     C23553  -1.192   1.804   8.883 -0.1996  0.6465  0.8613
  896MOL0     C23554  -1.317   1.830   8.813 -0.6271  0.1678 -0.1480
  896MOL0    Cl23555  -1.293   1.794   8.644 -0.0053  0.3313 -0.2191
  896MOL0     C23556  -0.456   1.191   9.239  0.4822 -0.2420  0.3810
  896MOL0     C23557  -0.322   1.147   9.279  0.2850 -1.3820  0.9648
  896MOL0     O23558  -0.112   1.190   9.499  0.3180 -0.1770  0.2223
  896MOL0     C23559   0.204   1.189   9.376 -0.2894  0.1659  0.8883
  896MOL0     C23560   0.331   1.148   9.395  0.4150 -1.0141 -0.9712
  896MOL0     N23561   1.000   0.997   9.095 -0.4739  0.3056 -1.0319
  896MOL0     N23562   0.997   1.008   8.965 -0.4553  0.2399 -1.0782
  896MOL0     C23563   0.238   1.089   7.875 -0.0361  0.1239 -0.0918
  896MOL0     C23564   0.176   1.070   7.748 -0.0993 -0.4558  0.1623
  896MOL0     C23565   0.093   1.185   7.289  0.8301  0.4361 -0.6205
  896MOL0     C23566   0.148   1.067   7.252 -0.6899  0.0244  0.7949
  896MOL0     C23567   0.127   1.018   7.124 -0.8341  0.2220 -0.1503
  896MOL0     C23568   0.055   1.096   7.026  0.4342 -0.1435 -0.1712
  896MOL0     O23569   0.007   1.047   6.900  1.4877  0.0006 -0.5262
  896MOL0     C23570   0.087   0.954   6.830 -0.2326  0.5850 -0.1913
  896MOL0     C23571   0.025   0.815   6.842 -0.4516  0.4057  1.1943
  896MOL0     C23572   0.146   0.713   6.796  0.6512 -0.3973 -0.4066
  896MOL0     C23573   0.102   0.571   6.770 -0.0749  0.7077  0.5016
  896MOL0     C23574  -0.010   0.571   6.669 -0.0664  0.1160  0.6383
  896MOL0     C23575  -0.100   0.580   6.587  0.8119  0.4381 -0.5269
  896MOL0     C23576  -0.003   1.210   7.072 -0.3307 -0.8846 -0.3116
  896MOL0     C23577   0.014   1.256   7.197  0.2814  0.5114 -0.6138
  896MOL0     C23578  -0.073   1.377   7.232 -0.0473 -0.1803  0.4956
  896MOL0     H23579   0.319   1.333   7.595  0.6165 -2.3812 -1.1685
  896MOL0     H23580   0.426   1.359   7.809 -1.4224  1.3684  3.0238
  896MOL0     H23581   0.310   1.066   8.123 -1.7501  0.1364  5.8187
  896MOL0     H23582   0.343   1.222   8.189  1.9779 -0.0573 -0.6088
  896MOL0     H23583   0.570   1.017   8.151  1.9364  0.1848  0.6676
  896MOL0     H23584   0.566   1.174   8.242 -1.5889  1.7778  0.8804
  896MOL0     H23585   0.413   1.069   8.416 -1.0689 -1.6385 -0.0734
  896MOL0     H23586   0.386   0.940   8.309  0.1531  0.0964  2.7458
  896MOL0     H23587   0.552   0.865   8.483  1.9479 -2.5305 -1.4755
  896MOL0     H23588   0.641   0.860   8.342  2.2038  1.1633  1.1022
  896MOL0     H23589   0.638   1.112   8.519  1.8810  1.3539 -1.3303
  896MOL0     H23590   0.735   1.085   8.380 -0.7591 -0.9181 -0.4082
  896MOL0     H23591   0.822   0.870   8.539  2.5807  0.5692  0.7719
  896MOL0     H23592   0.886   1.038   8.531 -0.9235 -0.5274 -0.8066
  896MOL0     H23593   0.656   0.959   8.725  0.5818  0.4833  4.1458
  896MOL0     H23594   0.772   1.097   8.732 -2.3868  1.5110 -1.2665
  896MOL0     H23595   0.832   0.799   8.772 -1.4711  0.5104  1.3797
  896MOL0     H23596   0.948   0.902   8.742 -1.1899  1.9438 -2.0513
  896MOL0     H23597   0.703   0.880   9.034 -0.7244  1.2857 -0.8669
  896MOL0     H23598   0.896   0.931   9.358 -2.5882  0.4107  1.2622
  896MOL0     H23599   0.850   0.778   9.276 -2.8767 -1.1493  1.8764
  896MOL0     H23600   0.668   1.010   9.300  1.6378  0.2177  0.7692
  896MOL0     H23601   0.638   0.845   9.237 -2.3392  3.3714 -1.1064
  896MOL0     H23602   0.731   0.770   9.487  0.2724 -0.1319  2.8791
  896MOL0     H23603   0.720   0.938   9.531  0.8097 -0.7292 -0.0693
  896MOL0     H23604   0.470   0.804   9.436 -0.8039 -0.8228  1.0295
  896MOL0     H23605   0.521   0.835   9.608  2.9139  2.9235  1.5575
  896MOL0     H23606   0.300   0.898   9.616  1.0374  2.6163  1.6366
  896MOL0     H23607   0.056   0.869   9.667 -1.9564 -0.6531  1.1350
  896MOL0     H23608  -0.012   0.852   9.502 -0.6224  3.3427 -3.1155
  896MOL0     H23609  -0.044   0.993   9.623  0.6405 -1.1246  1.3874
  896MOL0     H23610  -0.150   1.407   9.141 -0.6830 -0.8460 -2.3630
  896MOL0     H23611  -0.365   1.448   9.041  3.8190 -1.1397 -0.5638
  896MOL0     H23612  -0.601   1.509   9.042  1.0538 -0.1150 -0.9618
  896MOL0     H23613  -0.536   1.394   8.928  0.3025 -0.3735  0.6078
  896MOL0     H23614  -0.745   1.476   8.827  1.4705 -2.2215 -1.0163
  896MOL0     H23615  -0.749   1.308   8.859 -3.2661  0.0668 -0.1741
  896MOL0     H23616  -0.847   1.521   9.076 -0.9636 -0.8817  1.7612
  896MOL0     H23617  -0.887   1.357   9.076  4.0033  0.0083 -0.1903
  896MOL0     H23618  -1.074   1.406   8.918  1.1709 -1.5197 -3.7528
  896MOL0     H23619  -0.968   1.471   8.813 -2.4819 -0.9462 -0.3511
  896MOL0     H23620  -1.068   1.631   9.066 -2.2031 -0.1644 -0.2521
  896MOL0     H23621  -0.953   1.683   8.945  0.0658 -1.3850 -0.8444
  896MOL0     H23622  -1.234   1.587   8.900  1.7153  1.1234  2.8123
  896MOL0     H23623  -1.129   1.628   8.766  1.5205 -0.9318  0.3180
  896MOL0     H23624  -1.116   1.872   8.844 -1.4154  2.4094  1.4714
  896MOL0     H23625  -1.215   1.837   8.985  0.4917  1.4261  0.7750
  896MOL0     H23626  -1.342   1.933   8.841  1.6899  0.3075  1.8505
  896MOL0     H23627  -1.394   1.774   8.866 -1.7525  0.2408 -1.6719
  896MOL0     H23628  -0.544   1.136   9.270  1.8958 -3.4418 -0.8949
  896MOL0     H23629  -0.303   1.062   9.344  2.5001 -0.5536  1.4496
  896MOL0     H23630   0.200   1.277   9.313 -0.6759  1.2261  2.3292
  896MOL0     H23631   0.408   1.208   9.347  1.6912 -0.2134  1.8350
  896MOL0     H23632   0.204   1.011   7.943 -0.6887 -2.7853 -3.4394
  896MOL0     H23633   0.091   1.002   7.748 -0.9671  0.5853 -0.7877
  896MOL0     H23634   0.213   1.015   7.322  2.0695  2.0879 -0.0798
  896MOL0     H23635   0.165   0.923   7.088  0.2095  0.7050 -0.3631
  896MOL0     H23636   0.073   0.976   6.724  0.4585  0.6615 -0.2652
  896MOL0     H23637   0.192   0.951   6.861 -0.7348 -0.3407  1.5641
  896MOL0     H23638  -0.060   0.813   6.773 -0.8835  2.3428  1.5912
  896MOL0     H23639  -0.007   0.800   6.945  0.4307  3.3159  1.9828
  896MOL0     H23640   0.197   0.747   6.706  2.2042  0.3551  0.7164
  896MOL0     H23641   0.227   0.709   6.870  2.1609 -1.0435 -2.0267
  896MOL0     H23642   0.070   0.512   6.856 -0.9913 -1.0143 -0.9541
  896MOL0     H23643   0.180   0.507   6.729  0.4330  2.1945 -0.9756
  896MOL0     H23644  -0.197   0.594   6.543 -1.7107 -0.0426  4.2286
  896MOL0     H23645  -0.069   1.269   7.010  0.7730  0.4023 -0.3154
  896MOL0     H23646  -0.014   1.464   7.202 -1.2971 -0.1120 -2.0512
  896MOL0     H23647  -0.160   1.374   7.166  1.0975  2.1722 -1.2971
  896MOL0     H23648  -0.105   1.381   7.337  1.0830 -0.2279  0.8572
  897MOL0     O23649  10.526   7.082  10.856  0.1088 -0.4549  0.0150
  897MOL0     C23650  10.429   7.121  10.782 -0.1529 -0.4290  0.4264
  897MOL0     O23651  10.320   7.185  10.834  0.0735  0.2184  0.5014
  897MOL0     C23652  10.301   7.170  10.967 -0.4665 -0.1917 -0.2628
  897MOL0     C23653  10.319   7.276  11.049 -0.4494  0.2564 -0.2590
  897MOL0     C23654  10.319   7.255  11.191 -0.0144 -0.4827  0.1327
  897MOL0     C23655  10.260   7.132  11.241 -0.4119 -0.4554  0.9316
  897MOL0     O23656  10.271   7.106  11.379 -0.0040  0.0894  0.3661
  897MOL0     C23657  10.265   6.972  11.431 -0.6736  0.3702  0.3620
  897MOL0     C23658  10.224   6.969  11.578 -0.9853 -0.7922  0.2899
  897MOL0     C23659  10.234   6.837  11.655  0.3630 -0.1171 -0.3714
  897MOL0     C23660  10.196   6.853  11.807  1.2303  0.0067  0.0375
  897MOL0     C23661  10.040   6.857  11.826  0.5439 -0.6290 -0.9621
  897MOL0     C23662  10.011   6.839  11.970 -0.2820  0.8020  0.4704
  897MOL0     C23663  10.014   6.693  12.025  0.3023 -0.5572  0.2380
  897MOL0     C23664   9.885   6.608  11.995  0.3768 -0.7812  0.3754
  897MOL0     N23665   9.912   6.482  12.067  1.1370 -0.5145  0.0426
  897MOL0     C23666   9.885   6.466  12.197  0.4822 -0.0435  0.2921
  897MOL0     C23667   9.946   6.345  12.215  0.6566 -0.1689  0.4479
  897MOL0     C23668   9.951   6.272  12.344 -0.6469 -0.5984 -0.1570
  897MOL0     C23669  10.032   6.354  12.449 -0.3533  0.6970  0.6618
  897MOL0     C23670  10.054   6.275  12.578 -0.3873 -0.6614 -0.2385
  897MOL0     C23671  10.118   6.367  12.694 -0.3010 -1.1961 -0.3750
  897MOL0     O23672  10.246   6.420  12.654 -0.1084  0.0879  0.2612
  897MOL0     C23673  10.350   6.330  12.688 -0.1859 -0.4478 -1.0184
  897MOL0     C23674  10.344   6.190  12.726 -0.3707 -1.0007  0.1493
  897MOL0     C23675  10.453   6.125  12.773  0.0266  0.8670  0.7257
  897MOL0     C23676  10.430   5.977  12.792 -0.0300 -0.2555  1.1056
  897MOL0     C23677  10.579   6.189  12.774  0.3140 -0.3200 -0.1651
  897MOL0     C23678  10.713   6.108  12.788  0.1084  0.0237  0.2392
  897MOL0     O23679  10.820   6.162  12.720 -0.0071  0.7811  0.2728
  897MOL0     C23680  10.949   6.104  12.690  0.9314 -0.0227  0.8396
  897MOL0     C23681  10.967   5.963  12.681  0.5081 -0.1755  0.1775
  897MOL0     C23682  11.094   5.920  12.639  0.4680 -0.1303 -0.2679
  897MOL0     C23683  11.196   6.011  12.608  0.8185 -0.1023  0.8277
  897MOL0     O23684  11.312   5.967  12.554 -0.0546  0.6261 -1.7613
  897MOL0     C23685  11.318   5.846  12.482 -0.6340  0.0085 -0.6637
  897MOL0     C23686  11.449   5.829  12.422  0.0991  0.1291  0.0508
  897MOL0     C23687  11.574   5.823  12.507 -0.8389 -0.0878  0.1259
  897MOL0     C23688  11.695   5.854  12.424  0.0322  0.6353 -0.5747
  897MOL0     C23689  11.824   5.839  12.503 -0.2331  0.6813  0.5593
  897MOL0     C23690  11.840   5.935  12.621  0.5808 -0.2024  0.3821
  897MOL0     C23691  11.971   5.932  12.678 -0.5670 -0.5767 -0.1704
  897MOL0     C23692  11.962   6.023  12.810  0.1283 -0.0348  0.8079
  897MOL0    Cl23693  11.951   6.209  12.774  0.0445 -0.1833 -0.5833
  897MOL0     C23694  11.176   6.148  12.622  0.1369  0.5821 -0.9010
  897MOL0     C23695  11.057   6.196  12.661  1.2498  0.1400  0.2742
  897MOL0     O23696  10.725   6.009  12.857  1.1169 -0.6268  0.0987
  897MOL0     C23697  10.584   6.328  12.743  1.1375 -0.1428 -0.1920
  897MOL0     C23698  10.476   6.394  12.699 -0.6844  1.2678  0.1791
  897MOL0     N23699   9.990   6.292  12.098 -0.2281  0.1853 -0.7351
  897MOL0     N23700   9.978   6.382  12.008 -0.0525 -0.8220 -0.1528
  897MOL0     C23701  10.228   7.029  11.147 -0.8321 -0.0457 -0.0921
  897MOL0     C23702  10.248   7.045  11.007  0.0403 -0.0087 -0.7677
  897MOL0     C23703  10.442   7.145  10.635  1.1227 -0.2571 -0.2757
  897MOL0     C23704  10.331   7.188  10.563  0.3147  0.2825  0.0129
  897MOL0     C23705  10.327   7.200  10.419 -0.6622  0.0677 -0.0721
  897MOL0     C23706  10.448   7.175  10.353 -0.5156  0.8915  0.2384
  897MOL0     O23707  10.456   7.198  10.219  0.2678  0.1752  0.9368
  897MOL0     C23708  10.388   7.102  10.137  0.0669 -0.1383 -0.0975
  897MOL0     C23709  10.431   6.958  10.163 -1.1572  0.6464 -0.4208
  897MOL0     C23710  10.400   6.883  10.037 -0.3657  0.5965  0.8323
  897MOL0     C23711  10.414   6.737  10.071  0.7031 -0.7555  0.8928
  897MOL0     C23712  10.543   6.695  10.122  0.1333  0.7984  0.1218
  897MOL0     C23713  10.648   6.638  10.150 -0.2127  0.5753 -0.2494
  897MOL0     C23714  10.568   7.153  10.426  0.6549 -0.8399  0.3773
  897MOL0     C23715  10.561   7.129  10.557  0.4057 -0.6932 -0.4587
  897MOL0     C23716  10.696   7.088  10.620 -0.0111  0.5600 -0.3694
  897MOL0     H23717  10.348   7.364  10.993  1.1632  1.4353  2.2804
  897MOL0     H23718  10.359   7.321  11.267  2.1885 -3.5997  1.9009
  897MOL0     H23719  10.364   6.926  11.416 -0.8679  0.6276 -2.1986
  897MOL0     H23720  10.191   6.910  11.380  0.7951 -2.3382  1.3027
  897MOL0     H23721  10.290   7.044  11.624 -1.0845  0.0632 -0.9305
  897MOL0     H23722  10.122   7.005  11.593 -0.9747 -1.0237  0.9677
  897MOL0     H23723  10.173   6.760  11.609  4.6512 -3.5776 -0.9520
  897MOL0     H23724  10.329   6.783  11.664  0.0934 -1.1603 -3.0893
  897MOL0     H23725  10.245   6.771  11.861  3.2024  1.1464  0.0603
  897MOL0     H23726  10.235   6.946  11.847  4.5928 -2.0322  1.9516
  897MOL0     H23727   9.986   6.785  11.763  0.0818  1.4550 -3.0947
  897MOL0     H23728  10.011   6.955  11.789 -1.0564 -0.5184  0.4645
  897MOL0     H23729  10.058   6.909  12.040  1.6062 -0.7147  0.8026
  897MOL0     H23730   9.909   6.870  11.992 -0.4124  1.6903 -1.1767
  897MOL0     H23731  10.022   6.709  12.133  4.0484  1.3416 -0.1621
  897MOL0     H23732  10.103   6.642  11.987  0.1543 -2.0944  1.7790
  897MOL0     H23733   9.791   6.655  12.023 -0.3722 -1.0212 -1.5855
  897MOL0     H23734   9.870   6.582  11.890  3.4432  0.3976 -0.4940
  897MOL0     H23735   9.829   6.526  12.268 -2.9728 -0.7464 -1.6278
  897MOL0     H23736   9.990   6.170  12.333  0.9807 -0.2138  1.5309
  897MOL0     H23737   9.846   6.257  12.371  0.0681 -1.5820  2.4210
  897MOL0     H23738  10.131   6.375  12.408 -0.3825 -1.5420 -0.7698
  897MOL0     H23739   9.985   6.445  12.486  2.5952  2.7328 -0.2142
  897MOL0     H23740   9.948   6.263  12.604 -0.0505 -1.4861  0.8433
  897MOL0     H23741  10.120   6.192  12.551  0.1006  0.6546 -3.5994
  897MOL0     H23742  10.054   6.454  12.706 -0.6897 -1.3966 -0.9620
  897MOL0     H23743  10.130   6.315  12.790  0.4257 -0.3742 -0.0044
  897MOL0     H23744  10.246   6.144  12.721 -0.9743  0.3177 -4.0162
  897MOL0     H23745  10.489   5.949  12.880  3.3195  1.2654 -0.5022
  897MOL0     H23746  10.473   5.921  12.709  2.9551  2.0633  0.9225
  897MOL0     H23747  10.323   5.958  12.804  0.0012  0.4775  3.0565
  897MOL0     H23748  10.894   5.887  12.704  2.5865 -2.0090  1.0929
  897MOL0     H23749  11.111   5.812  12.635  0.4490 -0.3267  2.6932
  897MOL0     H23750  11.299   5.754  12.537 -0.4758  0.4381  0.1190
  897MOL0     H23751  11.236   5.839  12.409 -0.3046  0.2867 -1.0654
  897MOL0     H23752  11.451   5.735  12.366  2.6542  1.3624 -2.1367
  897MOL0     H23753  11.458   5.901  12.340 -0.0078 -0.1961 -0.2474
  897MOL0     H23754  11.588   5.722  12.546 -2.0987  0.0557  0.9987
  897MOL0     H23755  11.570   5.894  12.590  1.9511 -2.3600  2.4322
  897MOL0     H23756  11.684   5.951  12.376  0.3087  1.5194  1.0652
  897MOL0     H23757  11.675   5.791  12.337 -3.0555 -2.5901  2.1499
  897MOL0     H23758  11.823   5.742  12.553  0.5891 -0.0452 -0.7917
  897MOL0     H23759  11.907   5.847  12.433  1.2814 -0.4360  2.1647
  897MOL0     H23760  11.769   5.898  12.696  1.4040  0.7527  1.6697
  897MOL0     H23761  11.808   6.036  12.593 -1.5681 -0.1669  2.6269
  897MOL0     H23762  12.048   5.963  12.606  1.4669 -3.2567  0.6878
  897MOL0     H23763  12.001   5.831  12.709  1.2612  0.1529  0.5674
  897MOL0     H23764  12.061   6.008  12.854  0.0038 -1.5405  0.6105
  897MOL0     H23765  11.875   5.985  12.865 -2.2434  1.0651 -1.9293
  897MOL0     H23766  11.255   6.223  12.623  0.8708 -0.1753 -0.7844
  897MOL0     H23767  11.035   6.302  12.661  1.7941  0.2868 -1.3896
  897MOL0     H23768  10.677   6.382  12.757  1.4934 -0.7731 -0.0251
  897MOL0     H23769  10.471   6.499  12.673  3.3551  1.7896  0.9185
  897MOL0     H23770  10.185   6.940  11.192 -3.7471  2.3965  2.5194
  897MOL0     H23771  10.215   6.959  10.950 -2.2283 -0.0264  0.4247
  897MOL0     H23772  10.235   7.201  10.612  0.9198 -2.9062  2.3082
  897MOL0     H23773  10.236   7.227  10.368  0.0181 -0.4659 -1.6399
  897MOL0     H23774  10.280   7.117  10.145 -0.0667 -1.7487  2.0091
  897MOL0     H23775  10.408   7.132  10.034 -0.8347 -1.1496 -0.5867
  897MOL0     H23776  10.368   6.926  10.247 -1.1287 -1.0957 -1.0208
  897MOL0     H23777  10.530   6.940  10.205 -2.1241 -0.7073  1.4089
  897MOL0     H23778  10.301   6.909  10.000 -0.5482 -0.2446  0.7026
  897MOL0     H23779  10.475   6.914   9.964  1.3064 -3.8220  0.3584
  897MOL0     H23780  10.401   6.685   9.976 -1.1084  2.0781 -0.5441
  897MOL0     H23781  10.334   6.700  10.136 -0.0165 -2.8785 -1.0961
  897MOL0     H23782  10.724   6.576  10.192 -2.0348 -1.9617 -0.5080
  897MOL0     H23783  10.658   7.152  10.366  0.0937  3.2518 -0.8253
  897MOL0     H23784  10.737   7.174  10.674 -0.8770  0.1770  0.9274
  897MOL0     H23785  10.670   7.012  10.694  0.8308  1.0231  0.4416
  897MOL0     H23786  10.769   7.043  10.551  0.7142 -0.4320  0.9884
  898MOL0     O23787   0.582  11.240   7.228  0.0351  0.8215  0.0869
  898MOL0     C23788   0.491  11.319   7.185 -0.5403 -0.4020 -0.5497
  898MOL0     O23789   0.516  11.429   7.097 -0.3123  0.1076  0.3517
  898MOL0     C23790   0.647  11.478   7.099  0.0789  0.5292  0.2003
  898MOL0     C23791   0.755  11.413   7.027 -0.4880 -0.1120 -0.1174
  898MOL0     C23792   0.883  11.463   7.015  0.8092  0.1299 -0.1067
  898MOL0     C23793   0.918  11.580   7.077 -0.1783 -0.8194 -0.2153
  898MOL0     O23794   1.041  11.635   7.083 -0.4045  0.1888  0.7313
  898MOL0     C23795   1.116  11.615   6.956  0.0354  0.3741 -0.2124
  898MOL0     C23796   1.047  11.690   6.844  0.0895 -0.1872 -0.4587
  898MOL0     C23797   1.147  11.715   6.735  0.1608  0.6483 -0.0002
  898MOL0     C23798   1.092  11.781   6.608 -0.0173  0.7671 -0.4036
  898MOL0     C23799   1.200  11.791   6.498 -0.2552 -0.1842  0.7741
  898MOL0     C23800   1.286  11.658   6.459  0.1633  0.8111  0.6097
  898MOL0     C23801   1.405  11.682   6.371 -1.4627  0.3207 -0.8456
  898MOL0     C23802   1.500  11.784   6.431  0.8759 -0.0981 -0.5170
  898MOL0     N23803   1.626  11.799   6.364  0.1023  0.1828 -0.6180
  898MOL0     C23804   1.655  11.830   6.236  0.4346 -0.1148 -0.4954
  898MOL0     C23805   1.785  11.804   6.213  0.2050  1.3176  0.1354
  898MOL0     C23806   1.865  11.805   6.086 -0.0164  0.4521  0.1994
  898MOL0     C23807   1.805  11.721   5.963  0.0155 -0.8731 -0.0446
  898MOL0     C23808   1.727  11.809   5.869  0.1655 -0.0754  0.0841
  898MOL0     C23809   1.628  11.736   5.781  0.4418  0.1879  0.6498
  898MOL0     O23810   1.528  11.663   5.859  0.6476  1.3556  1.0751
  898MOL0     C23811   1.419  11.724   5.919 -0.2664  0.2861  0.4631
  898MOL0     C23812   1.344  11.640   6.002  0.2244 -0.5791 -1.3298
  898MOL0     C23813   1.220  11.675   6.062 -0.2377 -0.2184  0.4314
  898MOL0     C23814   1.132  11.557   6.114 -0.0814  0.2311  0.3796
  898MOL0     C23815   1.179  11.811   6.058  0.9515 -0.4165 -0.0274
  898MOL0     C23816   1.051  11.865   6.111  0.4947  0.2993 -0.1103
  898MOL0     O23817   1.005  11.983   6.057 -0.1857 -0.0390  0.0787
  898MOL0     C23818   0.868  12.023   6.057  0.4482 -0.2662  0.0219
  898MOL0     C23819   0.757  11.932   6.070 -0.8705  0.6082  0.2042
  898MOL0     C23820   0.629  11.994   6.059 -0.1691  0.2776  0.3459
  898MOL0     C23821   0.611  12.134   6.023  0.1333  0.3832 -0.0489
  898MOL0     O23822   0.486  12.194   6.014  0.5084  0.2565 -0.1082
  898MOL0     C23823   0.472  12.309   5.928  1.0525 -0.7045 -0.1072
  898MOL0     C23824   0.323  12.328   5.897  0.2801  0.0293  0.7157
  898MOL0     C23825   0.244  12.369   6.025  1.0902  0.0293  0.1879
  898MOL0     C23826   0.092  12.338   6.008 -0.7298  1.1368 -0.3207
  898MOL0     C23827   0.035  12.263   6.134 -0.3857  0.4268  0.1214
  898MOL0     C23828   0.044  12.340   6.273  0.1772  0.0891  0.8545
  898MOL0     C23829  -0.009  12.480   6.265  0.2183 -0.0863 -0.0319
  898MOL0     C23830  -0.037  12.534   6.395 -0.4350  0.4492  0.0470
  898MOL0    Cl23831  -0.087  12.699   6.378 -0.2536 -0.2524  0.1200
  898MOL0     C23832   0.724  12.217   6.021  0.0400  0.2840 -0.2962
  898MOL0     C23833   0.852  12.156   6.041  0.4956  0.1943 -0.5148
  898MOL0     O23834   1.000  11.819   6.203 -0.1896  0.2465 -0.6944
  898MOL0     C23835   1.261  11.903   5.989  0.5407 -0.4787  0.1746
  898MOL0     C23836   1.375  11.860   5.924 -0.3126 -0.9521 -0.0907
  898MOL0     N23837   1.836  11.787   6.336 -1.2441  0.4148  0.5851
  898MOL0     N23838   1.744  11.775   6.426  0.5590 -0.0903  0.0781
  898MOL0     C23839   0.822  11.640   7.161 -0.0254  0.0774  0.2769
  898MOL0     C23840   0.686  11.599   7.163 -0.0288  0.1575 -0.6102
  898MOL0     C23841   0.361  11.292   7.240 -0.6067  1.0244 -0.6479
  898MOL0     C23842   0.332  11.152   7.266  0.3941  0.2225 -0.5367
  898MOL0     C23843   0.223  11.117   7.342 -0.0390  0.1102  0.4498
  898MOL0     C23844   0.128  11.205   7.382 -0.3769 -1.2024 -0.2865
  898MOL0     O23845   0.010  11.158   7.443 -0.2803 -0.3560  0.4760
  898MOL0     C23846  -0.107  11.239   7.424  0.2393  0.3046  0.0687
  898MOL0     C23847  -0.223  11.201   7.520 -0.1659  0.0843 -0.0108
  898MOL0     C23848  -0.246  11.045   7.510 -0.3428  0.4803  0.6693
  898MOL0     C23849  -0.271  11.000   7.357 -1.0245 -0.5883 -0.0718
  898MOL0     C23850  -0.394  10.918   7.351 -0.5004  0.0377 -0.0435
  898MOL0     C23851  -0.482  10.830   7.334 -0.3882 -0.3387 -0.7471
  898MOL0     C23852   0.157  11.343   7.350  0.4637 -0.3031  0.2326
  898MOL0     C23853   0.265  11.384   7.274 -1.1501 -0.7017 -0.2721
  898MOL0     C23854   0.281  11.529   7.270 -0.1895 -0.5841 -0.0152
  898MOL0     H23855   0.740  11.311   6.992  2.0903 -2.6627  5.0138
  898MOL0     H23856   0.956  11.397   6.970 -2.2152 -2.7988 -1.2005
  898MOL0     H23857   1.139  11.509   6.936  1.0167  0.9980 -2.8561
  898MOL0     H23858   1.214  11.663   6.964  1.4960 -2.4352  0.0644
  898MOL0     H23859   0.972  11.630   6.792 -1.4223  1.7435 -0.6334
  898MOL0     H23860   1.002  11.786   6.873 -2.2703 -1.3057 -0.2119
  898MOL0     H23861   1.220  11.780   6.784  2.4475 -2.2093  0.7215
  898MOL0     H23862   1.198  11.622   6.707  3.4019  2.8381 -1.9395
  898MOL0     H23863   1.005  11.725   6.572 -1.5879  1.8138  1.5520
  898MOL0     H23864   1.040  11.875   6.628  0.5544  1.5388 -2.3205
  898MOL0     H23865   1.270  11.870   6.527 -0.5954  0.4253 -0.0429
  898MOL0     H23866   1.144  11.824   6.411  2.4449  2.2373 -0.2111
  898MOL0     H23867   1.326  11.611   6.549 -0.1911 -1.9484 -0.5603
  898MOL0     H23868   1.221  11.585   6.409  2.6264 -3.5740  3.1479
  898MOL0     H23869   1.370  11.702   6.269 -2.9254  0.4178 -0.3405
  898MOL0     H23870   1.465  11.591   6.373 -1.8238  0.0756  1.4023
  898MOL0     H23871   1.448  11.881   6.430 -0.0670 -0.5881 -0.5773
  898MOL0     H23872   1.517  11.757   6.535 -0.7150  0.8315  0.0282
  898MOL0     H23873   1.586  11.861   6.158  2.0370  1.8947 -1.2021
  898MOL0     H23874   1.964  11.765   6.108 -0.2300  0.3378  0.9907
  898MOL0     H23875   1.881  11.911   6.064  0.9649  0.6655  1.7676
  898MOL0     H23876   1.884  11.672   5.906  0.3588  0.5288 -0.8107
  898MOL0     H23877   1.729  11.651   5.998 -2.6150 -0.1571 -3.7530
  898MOL0     H23878   1.664  11.879   5.925  0.2649  0.6410 -0.6802
  898MOL0     H23879   1.796  11.867   5.808 -2.1416  1.4405 -1.2499
  898MOL0     H23880   1.587  11.807   5.708 -0.7419 -0.9977  0.1226
  898MOL0     H23881   1.691  11.666   5.726 -0.2840  0.8557 -1.1093
  898MOL0     H23882   1.369  11.535   6.009  1.9466 -0.1400 -0.3071
  898MOL0     H23883   1.174  11.458   6.097 -0.7121  0.0259 -0.0222
  898MOL0     H23884   1.031  11.555   6.072 -0.4563 -0.6406  1.2803
  898MOL0     H23885   1.098  11.554   6.218  0.2272  1.6867  0.5525
  898MOL0     H23886   0.754  11.823   6.073 -2.7319  0.6213  0.3106
  898MOL0     H23887   0.545  11.926   6.048 -0.5463  0.6886  0.6260
  898MOL0     H23888   0.516  12.398   5.974  0.4817 -0.9800  1.0115
  898MOL0     H23889   0.532  12.292   5.839  0.5901 -0.9094 -0.3855
  898MOL0     H23890   0.310  12.403   5.817 -1.6184  1.5997  2.3882
  898MOL0     H23891   0.283  12.241   5.844 -1.8420  1.1611  0.3149
  898MOL0     H23892   0.251  12.476   6.043 -4.4573  0.9299 -1.1296
  898MOL0     H23893   0.275  12.299   6.103  0.8561 -3.0196 -2.2667
  898MOL0     H23894   0.079  12.270   5.923  2.4796  0.3311 -0.2854
  898MOL0     H23895   0.029  12.426   5.991  1.0480  3.3817  3.4497
  898MOL0     H23896  -0.071  12.240   6.116 -0.7855  1.0586  1.5496
  898MOL0     H23897   0.089  12.168   6.131 -1.0512  0.0391  0.1360
  898MOL0     H23898   0.150  12.333   6.299  0.1092 -1.3249  0.8282
  898MOL0     H23899  -0.008  12.279   6.348 -0.8695  0.2140  0.2352
  898MOL0     H23900  -0.098  12.493   6.203  1.2550  4.0884 -0.9832
  898MOL0     H23901   0.060  12.548   6.212  1.2969  0.5818  2.0969
  898MOL0     H23902   0.055  12.515   6.451  0.0157 -0.0407 -0.8326
  898MOL0     H23903  -0.112  12.463   6.434  2.7061 -2.6861  0.9099
  898MOL0     H23904   0.718  12.325   6.013  0.3480  0.1656 -2.5632
  898MOL0     H23905   0.939  12.220   6.045  0.3749  0.3207  0.9724
  898MOL0     H23906   1.236  12.009   5.995 -0.4898 -0.7883  1.8907
  898MOL0     H23907   1.424  11.950   5.888  2.7852 -1.7897  1.6539
  898MOL0     H23908   0.837  11.735   7.212 -2.0926 -0.8107  2.7182
  898MOL0     H23909   0.605  11.656   7.209  0.0976  0.5612 -0.8816
  898MOL0     H23910   0.401  11.077   7.227  3.7535  1.9137  1.6290
  898MOL0     H23911   0.200  11.013   7.365 -1.7675 -0.4010 -2.8034
  898MOL0     H23912  -0.085  11.339   7.462 -1.7337  1.3175 -1.3090
  898MOL0     H23913  -0.135  11.242   7.318  2.3641 -0.3813 -0.5857
  898MOL0     H23914  -0.314  11.250   7.484 -1.7845 -3.2744 -0.9392
  898MOL0     H23915  -0.200  11.228   7.623 -0.7792 -2.0425  0.7298
  898MOL0     H23916  -0.151  11.000   7.541 -0.4930 -2.1886 -2.1869
  898MOL0     H23917  -0.331  11.013   7.570  0.3286 -3.0177 -0.0637
  898MOL0     H23918  -0.182  10.949   7.320  0.0873  0.9993  0.2872
  898MOL0     H23919  -0.279  11.091   7.295  0.5886  0.8660  1.7283
  898MOL0     H23920  -0.563  10.760   7.323  1.5434 -2.6614 -0.8875
  898MOL0     H23921   0.096  11.424   7.389 -0.2796 -0.2058 -1.0813
  898MOL0     H23922   0.203  11.568   7.203  0.3743 -0.2994 -0.5182
  898MOL0     H23923   0.247  11.577   7.362 -2.1486 -2.4006  0.2931
  898MOL0     H23924   0.379  11.564   7.236 -0.7820  1.3964  0.1910
  899MOL0     O23925   7.140   3.286   3.835 -0.0193 -0.2193 -0.4486
  899MOL0     C23926   7.066   3.312   3.931  0.0597 -0.3545 -0.1860
  899MOL0     O23927   7.050   3.434   3.988  0.6277  0.2374 -0.9811
  899MOL0     C23928   7.113   3.535   3.924 -0.4868 -0.6332 -0.3722
  899MOL0     C23929   7.045   3.649   3.871  0.2504  0.3483 -0.2214
  899MOL0     C23930   7.116   3.751   3.815 -0.7076 -0.1152 -0.6072
  899MOL0     C23931   7.259   3.754   3.799  0.1154  0.0834  0.3219
  899MOL0     O23932   7.331   3.853   3.735  0.2583  0.1951  0.0381
  899MOL0     C23933   7.344   3.958   3.822 -0.6782 -0.2703  0.7995
  899MOL0     C23934   7.462   4.036   3.775 -0.4694 -0.7755 -0.1215
  899MOL0     C23935   7.594   3.949   3.783  1.1035 -0.0501  0.2199
  899MOL0     C23936   7.716   4.041   3.758 -0.3325  1.1680 -0.8759
  899MOL0     C23937   7.841   3.945   3.762 -1.0295  0.1000 -0.3501
  899MOL0     C23938   7.882   3.900   3.612 -0.7765 -0.0764  0.1401
  899MOL0     C23939   8.015   3.824   3.635  0.0549  0.5850  0.2347
  899MOL0     C23940   7.983   3.676   3.667 -0.6386 -0.3075 -0.1216
  899MOL0     N23941   8.109   3.610   3.697  0.5984  0.6715  0.2061
  899MOL0     C23942   8.151   3.488   3.651 -0.5442 -0.5929  0.3922
  899MOL0     C23943   8.280   3.475   3.703 -0.2912 -0.3470  0.0556
  899MOL0     C23944   8.369   3.359   3.670 -0.2199 -0.0368 -0.5655
  899MOL0     C23945   8.365   3.243   3.764 -0.1239  0.1082 -0.0625
  899MOL0     C23946   8.438   3.110   3.727  0.1888  1.1683 -1.1517
  899MOL0     C23947   8.346   3.034   3.639 -0.0125 -0.8042  0.4756
  899MOL0     O23948   8.238   2.981   3.711 -0.3800  0.0708  0.4083
  899MOL0     C23949   8.152   2.897   3.654 -0.2993 -0.1765 -0.0931
  899MOL0     C23950   8.144   2.871   3.516  0.1160 -0.1404 -0.4410
  899MOL0     C23951   8.035   2.796   3.470  1.4909 -0.4797  0.1364
  899MOL0     C23952   8.026   2.793   3.322 -0.3904 -0.1491  0.5842
  899MOL0     C23953   7.928   2.747   3.552  0.4830 -0.0449 -0.1318
  899MOL0     C23954   7.823   2.647   3.513 -0.5335  0.0424 -1.1278
  899MOL0     O23955   7.820   2.596   3.396  0.5236  0.3308  0.1921
  899MOL0     C23956   7.749   2.475   3.360  0.3828  0.7610 -0.5940
  899MOL0     C23957   7.779   2.346   3.414  0.2363  0.0038 -0.5204
  899MOL0     C23958   7.694   2.240   3.394  0.0708 -0.3180  0.6660
  899MOL0     C23959   7.575   2.256   3.313  0.0854 -0.0190  1.0825
  899MOL0     O23960   7.496   2.151   3.304  0.1691  0.4813  0.4601
  899MOL0     C23961   7.395   2.138   3.206 -0.1770  0.2929  0.3183
  899MOL0     C23962   7.350   1.992   3.201  0.2123 -1.0515 -0.4562
  899MOL0     C23963   7.450   1.906   3.109  0.5783 -0.1519  0.2265
  899MOL0     C23964   7.426   1.756   3.115 -0.5114  0.2655  0.1460
  899MOL0     C23965   7.290   1.710   3.079  0.2953 -0.0112  0.5465
  899MOL0     C23966   7.280   1.561   3.047  0.0297  1.3818  0.5188
  899MOL0     C23967   7.145   1.506   3.023  0.3817 -0.0363  0.8083
  899MOL0     C23968   7.159   1.352   3.010  0.0799 -0.3023  0.9070
  899MOL0    Cl23969   7.201   1.292   3.171  0.5988  0.3856 -0.0246
  899MOL0     C23970   7.551   2.382   3.254  0.6245 -0.7355 -0.8799
  899MOL0     C23971   7.635   2.487   3.284 -0.2646 -0.1388 -0.6022
  899MOL0     O23972   7.742   2.619   3.602 -0.7807  0.4387  0.1824
  899MOL0     C23973   7.943   2.786   3.693 -0.2491  0.4265 -0.5592
  899MOL0     C23974   8.054   2.857   3.737  0.0542 -0.1744  0.5375
  899MOL0     N23975   8.298   3.577   3.798 -0.3144  1.1607  0.5926
  899MOL0     N23976   8.200   3.655   3.792 -0.4006  0.3844  0.5125
  899MOL0     C23977   7.322   3.635   3.851 -0.3441 -0.3009 -0.0804
  899MOL0     C23978   7.252   3.537   3.918 -0.6469  0.4257  0.8722
  899MOL0     C23979   6.972   3.207   3.980  0.3635  0.5507 -0.6367
  899MOL0     C23980   6.944   3.205   4.119 -0.1007  0.9767  1.1614
  899MOL0     C23981   6.848   3.126   4.182 -0.5280  0.1384 -0.7900
  899MOL0     C23982   6.791   3.025   4.106  0.5550 -0.3322  0.3881
  899MOL0     O23983   6.679   2.958   4.138 -0.0152  0.2736  0.0524
  899MOL0     C23984   6.661   2.908   4.275  0.0151  0.1969  0.3765
  899MOL0     C23985   6.577   2.783   4.270 -0.0643 -0.8620  0.3581
  899MOL0     C23986   6.662   2.671   4.201  0.0711 -0.5220 -0.0597
  899MOL0     C23987   6.586   2.545   4.215 -0.5158 -0.4728 -0.0395
  899MOL0     C23988   6.620   2.441   4.114  0.0696  0.7758 -0.3303
  899MOL0     C23989   6.620   2.354   4.029 -0.2851  0.2152  0.0458
  899MOL0     C23990   6.824   3.015   3.969  0.2077 -0.0834 -0.0151
  899MOL0     C23991   6.908   3.108   3.905 -0.1007  0.1444 -0.3813
  899MOL0     C23992   6.928   3.095   3.750  0.3596 -1.4004  1.0388
  899MOL0     H23993   6.937   3.661   3.874  0.3967  1.6108  1.0987
  899MOL0     H23994   7.058   3.840   3.792  0.5137  0.5904 -1.0505
  899MOL0     H23995   7.364   3.930   3.926 -0.3576  0.2327  0.8770
  899MOL0     H23996   7.258   4.025   3.818 -1.5776 -1.4665 -0.8112
  899MOL0     H23997   7.442   4.057   3.669  2.6645  1.3973 -0.4114
  899MOL0     H23998   7.480   4.131   3.825  3.7448 -0.3906 -1.8998
  899MOL0     H23999   7.602   3.900   3.880  2.4435 -0.5772 -0.1328
  899MOL0     H24000   7.587   3.879   3.699  1.7310 -0.4711  0.5152
  899MOL0     H24001   7.716   4.102   3.667 -1.1503  3.1555  0.3768
  899MOL0     H24002   7.718   4.108   3.845  0.1022 -1.8790  1.6380
  899MOL0     H24003   7.830   3.858   3.828  0.3873 -0.5793 -0.9802
  899MOL0     H24004   7.925   4.006   3.797 -1.5756 -0.4141  2.0656
  899MOL0     H24005   7.810   3.832   3.566  0.9148 -0.5846 -1.9122
  899MOL0     H24006   7.898   3.979   3.539  0.0453 -0.8251 -0.5169
  899MOL0     H24007   8.090   3.874   3.696  3.7201 -2.0322 -1.7506
  899MOL0     H24008   8.063   3.822   3.537  1.4980 -1.8273  0.8910
  899MOL0     H24009   7.910   3.651   3.744 -0.7804  2.0321  0.6041
  899MOL0     H24010   7.947   3.633   3.573  0.1371 -0.5707 -0.3039
  899MOL0     H24011   8.112   3.416   3.579  0.2603 -1.6945  1.0265
  899MOL0     H24012   8.469   3.404   3.668 -0.3090  0.1295 -1.2209
  899MOL0     H24013   8.331   3.334   3.571 -1.9217 -0.3504  0.1365
  899MOL0     H24014   8.406   3.281   3.857  1.2926  0.2643 -0.7266
  899MOL0     H24015   8.262   3.212   3.786 -0.0794  0.3854  0.5387
  899MOL0     H24016   8.536   3.129   3.681 -0.4935 -2.6612 -4.8671
  899MOL0     H24017   8.449   3.048   3.817 -4.3530  0.6981 -0.6949
  899MOL0     H24018   8.308   3.108   3.568 -2.0562  1.2093  3.4311
  899MOL0     H24019   8.403   2.954   3.591  0.4575 -0.2753  0.1401
  899MOL0     H24020   8.219   2.913   3.450 -0.9708  2.0951 -0.3815
  899MOL0     H24021   8.071   2.883   3.278 -2.2821  2.1035  2.9434
  899MOL0     H24022   7.925   2.769   3.287  1.4452 -7.6696 -1.4006
  899MOL0     H24023   8.091   2.707   3.301  2.4109  1.7461  0.8778
  899MOL0     H24024   7.864   2.328   3.480 -0.7797 -0.2440  0.7639
  899MOL0     H24025   7.717   2.140   3.431  1.3618 -0.1515  0.3696
  899MOL0     H24026   7.306   2.200   3.216 -1.8321 -1.6188 -1.4375
  899MOL0     H24027   7.435   2.172   3.109  0.6529  0.6140  0.7632
  899MOL0     H24028   7.340   1.958   3.304  1.9730  0.5069  0.2949
  899MOL0     H24029   7.252   1.985   3.153  1.3490 -0.7552 -3.0205
  899MOL0     H24030   7.543   1.920   3.165  0.5189 -1.9032  0.8265
  899MOL0     H24031   7.454   1.943   3.007  1.8419 -2.3578 -0.5999
  899MOL0     H24032   7.445   1.714   3.214  0.8457 -0.2978 -0.3278
  899MOL0     H24033   7.500   1.733   3.038 -0.1795  2.9496 -0.4569
  899MOL0     H24034   7.210   1.743   3.145 -3.8688  1.0783 -4.3754
  899MOL0     H24035   7.257   1.761   2.988 -1.0097 -3.9288 -1.4490
  899MOL0     H24036   7.320   1.512   3.137 -0.2691  0.2012  0.0290
  899MOL0     H24037   7.340   1.541   2.958 -2.7914  0.0737 -1.2511
  899MOL0     H24038   7.097   1.549   2.935  1.3404 -1.8425 -0.6699
  899MOL0     H24039   7.070   1.515   3.102  1.2380 -2.0058  1.9125
  899MOL0     H24040   7.241   1.315   2.948 -0.8679  1.7302 -1.8115
  899MOL0     H24041   7.060   1.320   2.974 -0.1862  0.5484  0.8375
  899MOL0     H24042   7.468   2.414   3.192  0.2157  0.9040  0.4342
  899MOL0     H24043   7.617   2.590   3.257 -0.2877  0.3633  1.2443
  899MOL0     H24044   7.865   2.773   3.768 -0.1461  0.1543 -0.5007
  899MOL0     H24045   8.058   2.879   3.843 -1.9926 -1.1408  0.8569
  899MOL0     H24046   7.429   3.636   3.834  0.2646  0.5366  3.0847
  899MOL0     H24047   7.304   3.461   3.976  0.6648  1.7281  1.4719
  899MOL0     H24048   6.996   3.280   4.178  0.8295 -0.3426  2.0600
  899MOL0     H24049   6.812   3.147   4.282  1.2799 -3.1782  0.7162
  899MOL0     H24050   6.755   2.890   4.328  1.3916  1.1553 -1.6421
  899MOL0     H24051   6.607   2.987   4.329  0.3752  1.2696 -0.7995
  899MOL0     H24052   6.491   2.804   4.206 -0.4432  0.4374  1.2497
  899MOL0     H24053   6.525   2.758   4.363 -0.0058  0.7999  0.8729
  899MOL0     H24054   6.677   2.704   4.098 -0.2418  0.6485  0.2491
  899MOL0     H24055   6.762   2.667   4.245  0.9836 -0.1233 -2.0127
  899MOL0     H24056   6.479   2.569   4.206 -0.7606 -1.9244 -1.3155
  899MOL0     H24057   6.597   2.498   4.313 -1.8120  3.0576  2.0376
  899MOL0     H24058   6.645   2.285   3.951  1.7929 -0.0902  0.9098
  899MOL0     H24059   6.759   2.948   3.913 -0.8529  1.7268 -1.0595
  899MOL0     H24060   6.872   3.008   3.714 -1.2563  0.1428 -0.3235
  899MOL0     H24061   6.894   3.172   3.681 -0.5300 -1.1759  1.7102
  899MOL0     H24062   7.034   3.070   3.736  0.7365 -0.9263  2.6881
  900MOL0     O24063   7.055   2.496   7.811  0.4339  0.1967 -0.3964
  900MOL0     C24064   7.172   2.497   7.850  1.1059 -0.0798  0.3295
  900MOL0     O24065   7.231   2.395   7.911  0.7691  1.0410  0.5049
  900MOL0     C24066   7.184   2.264   7.920  0.3451  0.2609  0.0654
  900MOL0     C24067   7.213   2.191   8.028 -0.8235 -0.4926  0.0584
  900MOL0     C24068   7.196   2.058   8.042  0.2655  0.1064 -0.4568
  900MOL0     C24069   7.129   1.986   7.937  0.5483 -0.0191 -0.1800
  900MOL0     O24070   7.083   1.851   7.938  0.7160  0.6415  0.1330
  900MOL0     C24071   7.138   1.769   7.834  0.0345  1.0035  0.7992
  900MOL0     C24072   7.128   1.624   7.867  0.7268  0.1746 -0.7168
  900MOL0     C24073   7.157   1.546   7.746  0.6479  0.2973 -0.4558
  900MOL0     C24074   7.102   1.405   7.738 -0.1376 -1.2611 -0.6765
  900MOL0     C24075   7.176   1.297   7.828 -0.4866  0.1429  0.7548
  900MOL0     C24076   7.074   1.259   7.940 -0.0723 -0.1878 -0.6534
  900MOL0     C24077   7.150   1.159   8.035 -0.5882 -0.4861  0.7335
  900MOL0     C24078   7.074   1.126   8.159  0.0772 -0.2173 -1.4471
  900MOL0     N24079   6.935   1.088   8.151  0.0495 -0.1810  0.7402
  900MOL0     C24080   6.891   0.959   8.146  0.3627  0.3793  0.0350
  900MOL0     C24081   6.755   0.971   8.111 -0.2533  0.5048 -0.0812
  900MOL0     C24082   6.669   0.844   8.078 -0.8222 -0.5072 -0.1328
  900MOL0     C24083   6.628   0.863   7.932 -0.5474 -0.4190 -0.3247
  900MOL0     C24084   6.510   0.757   7.915 -0.8982  0.3706 -0.0397
  900MOL0     C24085   6.477   0.786   7.771 -0.1868 -0.0293 -0.1165
  900MOL0     O24086   6.422   0.675   7.705 -0.9001  0.4194  0.5058
  900MOL0     C24087   6.329   0.589   7.754  1.4966  0.3006 -0.3611
  900MOL0     C24088   6.216   0.633   7.822  0.8166 -0.0191  0.5070
  900MOL0     C24089   6.121   0.541   7.870 -0.3339 -0.8195  1.1937
  900MOL0     C24090   6.004   0.604   7.932 -0.1213 -0.0143  0.0024
  900MOL0     C24091   6.139   0.393   7.849 -0.5181 -0.7553 -0.2668
  900MOL0     C24092   6.054   0.293   7.900  0.6877  0.1096 -0.8384
  900MOL0     O24093   5.925   0.332   7.944 -0.0922 -0.4481  0.8915
  900MOL0     C24094   5.850   0.236   8.001  0.5371 -0.2744 -0.7683
  900MOL0     C24095   5.811   0.243   8.141 -1.6821  0.2421 -0.0452
  900MOL0     C24096   5.754   0.136   8.200  0.3759  0.0476  0.1895
  900MOL0     C24097   5.721   0.021   8.126 -0.5714  0.7985  0.4814
  900MOL0     O24098   5.665  -0.085   8.196  0.2320  0.1451 -0.2026
  900MOL0     C24099   5.566  -0.153   8.116  0.4054 -0.6941  0.2774
  900MOL0     C24100   5.432  -0.099   8.174 -0.3948  0.3428  0.9576
  900MOL0     C24101   5.403  -0.183   8.302  0.1020 -0.3637  0.5654
  900MOL0     C24102   5.311  -0.130   8.415 -0.6943  0.4229 -0.2094
  900MOL0     C24103   5.317  -0.233   8.531  1.2144 -0.1360  0.3339
  900MOL0     C24104   5.211  -0.356   8.499  0.2600 -0.2659 -0.3474
  900MOL0     C24105   5.064  -0.314   8.508 -0.2533  1.0970 -0.0747
  900MOL0     C24106   4.978  -0.443   8.487  0.7963 -1.0413  0.4233
  900MOL0    Cl24107   4.984  -0.504   8.326 -0.3557 -0.2273  0.2707
  900MOL0     C24108   5.758   0.015   7.987  0.4313  0.7415  0.6207
  900MOL0     C24109   5.814   0.124   7.926  0.2821 -0.1444  0.7359
  900MOL0     O24110   6.098   0.180   7.915 -1.5753 -0.0258  0.4446
  900MOL0     C24111   6.249   0.358   7.763  0.3547 -0.3750  1.2801
  900MOL0     C24112   6.341   0.449   7.720  0.2449  0.5355  0.4134
  900MOL0     N24113   6.720   1.104   8.111 -0.8094  0.4287 -0.3873
  900MOL0     N24114   6.831   1.174   8.139  0.6376 -0.6552 -0.1708
  900MOL0     C24115   7.084   2.061   7.832  0.3712  0.8684 -0.3670
  900MOL0     C24116   7.103   2.200   7.823  0.8536  0.4936  0.0181
  900MOL0     C24117   7.246   2.613   7.816  0.0229  1.0459 -0.0907
  900MOL0     C24118   7.357   2.595   7.745  1.7040  0.2430 -0.2858
  900MOL0     C24119   7.434   2.697   7.694  0.8138 -0.7258 -0.1169
  900MOL0     C24120   7.396   2.824   7.731  0.8590 -0.0549  0.3746
  900MOL0     O24121   7.471   2.929   7.689  0.7362 -0.0908  0.4293
  900MOL0     C24122   7.415   3.062   7.702 -0.4769  0.9797  0.1252
  900MOL0     C24123   7.510   3.171   7.639  0.7453  0.4190 -0.1445
  900MOL0     C24124   7.525   3.166   7.483  0.4727 -0.5169 -0.3916
  900MOL0     C24125   7.571   3.037   7.435  0.0903  0.0656  0.6615
  900MOL0     C24126   7.598   3.046   7.291  0.3179 -0.3103 -0.1365
  900MOL0     C24127   7.599   3.044   7.171 -0.2379  0.1086  0.3627
  900MOL0     C24128   7.289   2.839   7.823  0.1122 -0.9571 -0.2091
  900MOL0     C24129   7.216   2.735   7.872  0.0978  0.4347  0.6292
  900MOL0     C24130   7.090   2.762   7.952 -0.3257  0.8321 -0.0565
  900MOL0     H24131   7.247   2.251   8.112 -3.8435  1.4377  0.0676
  900MOL0     H24132   7.217   2.006   8.134 -2.5317 -2.3109 -1.0240
  900MOL0     H24133   7.240   1.805   7.819  0.9766 -1.0367  1.9436
  900MOL0     H24134   7.080   1.788   7.743  1.3907 -1.5201 -0.7118
  900MOL0     H24135   7.198   1.608   7.949 -0.8663 -4.6511  0.0250
  900MOL0     H24136   7.027   1.601   7.901 -0.4847  0.8355 -3.5658
  900MOL0     H24137   7.119   1.595   7.656 -0.2988 -1.2991 -0.9743
  900MOL0     H24138   7.264   1.530   7.728 -0.0880 -7.0410 -1.1328
  900MOL0     H24139   6.994   1.403   7.754 -0.1895  0.0696 -0.7141
  900MOL0     H24140   7.121   1.376   7.634 -0.1276  2.4052 -1.8311
  900MOL0     H24141   7.267   1.337   7.873 -1.7008  1.3726  2.2052
  900MOL0     H24142   7.206   1.217   7.759 -0.3446 -1.6358  2.7844
  900MOL0     H24143   7.034   1.341   8.001  1.7670  1.0097 -0.9581
  900MOL0     H24144   6.995   1.210   7.883 -1.0197  0.6151 -0.0675
  900MOL0     H24145   7.250   1.181   8.075 -0.1440 -2.3783  0.7277
  900MOL0     H24146   7.169   1.068   7.977 -0.2560  1.8811 -3.2471
  900MOL0     H24147   7.128   1.044   8.207 -0.0971  0.5484  0.1441
  900MOL0     H24148   7.076   1.204   8.236  1.6018  0.3070 -1.9888
  900MOL0     H24149   6.942   0.867   8.171  1.9530  0.6905 -1.8513
  900MOL0     H24150   6.590   0.837   8.154 -0.9710 -2.5462 -0.4017
  900MOL0     H24151   6.732   0.755   8.089  0.0988  0.3678  2.7512
  900MOL0     H24152   6.592   0.964   7.910 -0.6627 -0.6944 -1.4539
  900MOL0     H24153   6.709   0.845   7.860 -0.4929  0.3104 -0.4600
  900MOL0     H24154   6.544   0.656   7.940 -0.2177  0.8799  1.1934
  900MOL0     H24155   6.424   0.780   7.978 -0.8100 -1.9784  1.0306
  900MOL0     H24156   6.410   0.872   7.773  3.3253  2.9541 -0.0821
  900MOL0     H24157   6.566   0.816   7.715 -0.1890  1.6000  0.6809
  900MOL0     H24158   6.210   0.738   7.849 -0.7944 -1.0112  4.8154
  900MOL0     H24159   5.924   0.574   7.864  1.0083 -1.4578 -0.7609
  900MOL0     H24160   6.003   0.712   7.950 -0.0831 -0.0010 -0.0724
  900MOL0     H24161   5.999   0.556   8.030  3.0778 -2.1562 -0.7086
  900MOL0     H24162   5.830   0.337   8.192  1.2795 -1.5775  2.5155
  900MOL0     H24163   5.740   0.134   8.307  2.7814  1.6904  0.6208
  900MOL0     H24164   5.565  -0.128   8.010  3.7580  0.3922  0.3855
  900MOL0     H24165   5.583  -0.261   8.123  1.6159 -0.5387 -0.1030
  900MOL0     H24166   5.441   0.008   8.193 -1.1489  0.9086 -1.4785
  900MOL0     H24167   5.345  -0.127   8.113 -0.4468 -0.1865  1.2649
  900MOL0     H24168   5.503  -0.199   8.343  0.4660 -3.5117 -1.2220
  900MOL0     H24169   5.363  -0.275   8.259 -1.5541  0.3260  0.5488
  900MOL0     H24170   5.210  -0.114   8.375 -0.9078 -1.2477 -0.3960
  900MOL0     H24171   5.355  -0.032   8.437 -0.4083  1.0961 -3.3233
  900MOL0     H24172   5.420  -0.267   8.541  1.3071  0.5327  1.8487
  900MOL0     H24173   5.275  -0.200   8.626 -2.2505 -3.7030  0.3223
  900MOL0     H24174   5.249  -0.433   8.566  1.9237 -0.2449 -1.2076
  900MOL0     H24175   5.227  -0.392   8.397  1.1165  1.2069 -0.7547
  900MOL0     H24176   5.031  -0.234   8.441  0.9614  0.5709 -1.3489
  900MOL0     H24177   5.059  -0.277   8.611  3.0180 -1.6455  1.2675
  900MOL0     H24178   4.882  -0.422   8.536 -0.6129 -2.5971 -1.5056
  900MOL0     H24179   5.021  -0.524   8.547  1.0918 -1.1184  0.1116
  900MOL0     H24180   5.720  -0.062   7.921 -0.4511  1.9973 -0.3768
  900MOL0     H24181   5.834   0.128   7.820 -2.7039  1.9930  0.1437
  900MOL0     H24182   6.267   0.257   7.728  0.5729  0.6271 -1.8573
  900MOL0     H24183   6.420   0.397   7.668  1.5108  0.8399  1.9391
  900MOL0     H24184   7.051   2.007   7.744  2.3739 -3.2451  1.1455
  900MOL0     H24185   7.065   2.256   7.738  0.5184 -1.7942 -1.4030
  900MOL0     H24186   7.384   2.498   7.704  0.8350  1.0121 -2.8855
  900MOL0     H24187   7.521   2.680   7.632  2.3967  1.8695  1.2200
  900MOL0     H24188   7.323   3.065   7.642  0.4068  3.5385 -1.2354
  900MOL0     H24189   7.401   3.063   7.811  1.2257 -2.9210  0.5203
  900MOL0     H24190   7.611   3.176   7.682  0.6597  2.1941 -0.0761
  900MOL0     H24191   7.455   3.262   7.666  0.9742  0.3749  0.4986
  900MOL0     H24192   7.423   3.191   7.453 -0.5036 -0.9167  2.3029
  900MOL0     H24193   7.599   3.241   7.453 -0.3399  0.0938 -0.8902
  900MOL0     H24194   7.493   2.961   7.439  1.0502 -0.9088  2.5087
  900MOL0     H24195   7.648   2.987   7.494 -1.2142 -2.3657  0.4168
  900MOL0     H24196   7.618   3.038   7.065  0.7869 -0.7991  0.5863
  900MOL0     H24197   7.254   2.939   7.847  0.6880 -0.6348 -0.6854
  900MOL0     H24198   7.079   2.867   7.981 -5.5934  0.9259 -1.4077
  900MOL0     H24199   7.006   2.738   7.887  2.1733 -0.4976 -3.0790
  900MOL0     H24200   7.083   2.703   8.044  3.0243  1.7112  0.9015
  901MOL0     O24201   0.936   2.711  10.882  0.2488  0.1185 -0.3291
  901MOL0     C24202   1.033   2.725  10.813  0.6037 -0.5568  0.2782
  901MOL0     O24203   1.151   2.655  10.823  0.1116  0.2865 -0.0584
  901MOL0     C24204   1.181   2.577  10.930 -0.0792 -0.1695  0.4279
  901MOL0     C24205   1.088   2.497  11.001 -0.8498 -0.7090  1.1244
  901MOL0     C24206   1.134   2.442  11.120 -1.2097  0.5913  0.0101
  901MOL0     C24207   1.265   2.459  11.177 -0.2913 -0.4575  0.5872
  901MOL0     O24208   1.313   2.412  11.295 -0.9143 -0.4088  0.6955
  901MOL0     C24209   1.221   2.353  11.391 -0.8737 -0.3501 -0.3223
  901MOL0     C24210   1.168   2.460  11.494  0.5773 -0.3108 -0.6630
  901MOL0     C24211   1.270   2.525  11.579  0.5088 -0.2521  0.1397
  901MOL0     C24212   1.200   2.599  11.693 -0.8235 -1.0973  0.0303
  901MOL0     C24213   1.306   2.690  11.760  0.1158  0.0711 -0.2734
  901MOL0     C24214   1.335   2.811  11.674  0.9924  0.2652  0.0457
  901MOL0     C24215   1.437   2.910  11.723  0.7332 -0.0586  0.2799
  901MOL0     C24216   1.426   3.049  11.672 -0.6730  0.1185  0.1842
  901MOL0     N24217   1.546   3.134  11.711 -0.7021 -0.1547  0.4443
  901MOL0     C24218   1.530   3.260  11.768  0.3628 -0.4671 -0.2824
  901MOL0     C24219   1.652   3.318  11.770  0.3578  0.7273  0.7675
  901MOL0     C24220   1.682   3.462  11.814 -0.3347 -0.1576 -0.4900
  901MOL0     C24221   1.787   3.458  11.930 -0.5384 -0.0340 -0.7942
  901MOL0     C24222   1.711   3.446  12.064  0.4006 -0.2857  0.8325
  901MOL0     C24223   1.802   3.418  12.176  0.5852 -0.1409  0.3566
  901MOL0     O24224   1.714   3.394  12.286 -0.1293 -0.3050 -0.8255
  901MOL0     C24225   1.769   3.355  12.406 -0.6197 -0.0866 -0.3285
  901MOL0     C24226   1.688   3.285  12.500 -0.2870  0.3273  0.4555
  901MOL0     C24227   1.754   3.229  12.618  0.0586 -0.9003 -0.1271
  901MOL0     C24228   1.660   3.188  12.730  0.7557  0.5618  0.0463
  901MOL0     C24229   1.889   3.238  12.645  0.3090 -0.5756  0.1799
  901MOL0     C24230   1.956   3.198  12.777 -0.4627  0.0467  0.3542
  901MOL0     O24231   1.893   3.208  12.895 -0.1906  0.1411 -0.1250
  901MOL0     C24232   1.959   3.198  13.024  0.0486  0.0084  0.0079
  901MOL0     C24233   2.065   3.286  13.056  0.7133  0.0344  0.4542
  901MOL0     C24234   2.104   3.300  13.184  1.0370 -0.3010 -0.5744
  901MOL0     C24235   2.052   3.214  13.284  0.4346 -0.1465  0.5013
  901MOL0     O24236   2.114   3.222  13.408  0.3757 -0.1185  0.6072
  901MOL0     C24237   2.093   3.117  13.511 -0.0822  0.1301  0.7703
  901MOL0     C24238   2.210   3.125  13.603 -0.0143 -0.6665  0.3586
  901MOL0     C24239   2.345   3.077  13.540  0.2840 -0.1501 -0.3086
  901MOL0     C24240   2.442   3.060  13.655 -0.2528 -0.4933 -0.6525
  901MOL0     C24241   2.587   3.027  13.604  0.4651  1.1150 -0.4273
  901MOL0     C24242   2.660   3.165  13.592  0.1765 -0.6860  0.2633
  901MOL0     C24243   2.810   3.143  13.562  0.4154 -0.0791  0.1056
  901MOL0     C24244   2.888   3.270  13.608 -0.1512  0.5292 -0.6188
  901MOL0    Cl24245   2.895   3.397  13.476  0.0726  0.0390  0.0091
  901MOL0     C24246   1.948   3.128  13.254 -0.5146  0.0066 -0.5620
  901MOL0     C24247   1.899   3.118  13.127  0.6525 -0.7546 -0.2839
  901MOL0     O24248   2.073   3.152  12.774  0.9740  0.9339  0.3965
  901MOL0     C24249   1.959   3.293  12.545  0.2845  0.4109  0.3205
  901MOL0     C24250   1.909   3.359  12.433 -0.3570  0.9905  0.4588
  901MOL0     N24251   1.749   3.224  11.724 -0.4429  0.2807  0.4609
  901MOL0     N24252   1.679   3.119  11.685  0.7779 -0.0935  0.2251
  901MOL0     C24253   1.363   2.516  11.094 -0.2673  0.2401 -0.2913
  901MOL0     C24254   1.316   2.574  10.976 -0.2733  0.1592  0.0736
  901MOL0     C24255   1.034   2.825  10.709 -0.2001  0.0941  0.7411
  901MOL0     C24256   1.117   2.800  10.600  0.7923 -0.1385 -0.1418
  901MOL0     C24257   1.118   2.887  10.488  0.1572 -0.2329  0.7501
  901MOL0     C24258   1.031   3.002  10.483  0.4136 -0.1354 -0.6333
  901MOL0     O24259   1.021   3.089  10.381  0.7371 -0.5080 -0.4595
  901MOL0     C24260   1.078   3.057  10.256  0.9860 -0.4993  0.1058
  901MOL0     C24261   1.035   3.175  10.161  0.3926  0.2124 -0.1328
  901MOL0     C24262   1.135   3.208  10.049 -0.1399 -0.3162  0.1956
  901MOL0     C24263   1.110   3.359  10.015 -0.3798 -0.6777 -0.2086
  901MOL0     C24264   1.174   3.404   9.888  0.1594  0.0906  0.2127
  901MOL0     C24265   1.209   3.442   9.778 -0.0830 -0.7501 -0.0116
  901MOL0     C24266   0.949   3.028  10.594  0.2194 -0.6358 -0.2535
  901MOL0     C24267   0.952   2.941  10.705  0.1320 -0.0154  0.3418
  901MOL0     C24268   0.841   2.977  10.806 -0.1929  0.5735 -1.3939
  901MOL0     H24269   0.990   2.477  10.960  0.1161  2.6826 -3.7148
  901MOL0     H24270   1.063   2.395  11.187 -0.6474  1.6512  1.4008
  901MOL0     H24271   1.287   2.298  11.458 -0.2677  4.8726  4.0570
  901MOL0     H24272   1.138   2.291  11.357 -1.7080 -1.4427  3.2537
  901MOL0     H24273   1.101   2.524  11.435  1.7660 -0.9513 -2.8530
  901MOL0     H24274   1.093   2.400  11.546 -0.0258  1.3405  0.4551
  901MOL0     H24275   1.330   2.448  11.630 -0.5318  0.2316  2.2232
  901MOL0     H24276   1.338   2.577  11.511 -1.8021  0.3479 -1.8324
  901MOL0     H24277   1.113   2.658  11.661 -0.6989 -0.3374  1.0325
  901MOL0     H24278   1.165   2.521  11.761 -1.4953 -1.0300 -0.2296
  901MOL0     H24279   1.395   2.629  11.781  1.8956  2.4806 -0.3656
  901MOL0     H24280   1.267   2.736  11.851  0.8516 -1.5261  0.8912
  901MOL0     H24281   1.366   2.780  11.574 -2.0846 -2.4403 -0.2375
  901MOL0     H24282   1.237   2.859  11.670  2.1200  2.7023 -0.9531
  901MOL0     H24283   1.538   2.876  11.699  0.9915 -1.1726  2.6214
  901MOL0     H24284   1.428   2.910  11.832 -1.0310  0.1814  0.1545
  901MOL0     H24285   1.415   3.046  11.563 -4.8139  2.6189  0.2983
  901MOL0     H24286   1.335   3.091  11.715 -0.5883  1.2436 -0.6698
  901MOL0     H24287   1.438   3.313  11.790  2.2091  1.2842  4.7919
  901MOL0     H24288   1.594   3.516  11.850  0.9652 -0.9219  4.5232
  901MOL0     H24289   1.719   3.512  11.724  0.8795  1.0468  0.6304
  901MOL0     H24290   1.865   3.382  11.914  2.6467  3.0020 -0.9233
  901MOL0     H24291   1.834   3.556  11.939  0.3086 -0.4908  0.0201
  901MOL0     H24292   1.658   3.540  12.082  1.3480  0.3883  0.2125
  901MOL0     H24293   1.640   3.363  12.065 -1.7688  1.4127 -1.0630
  901MOL0     H24294   1.862   3.328  12.162  2.5476  0.7496  2.3638
  901MOL0     H24295   1.868   3.505  12.186 -0.5508  0.5289  2.5080
  901MOL0     H24296   1.584   3.283  12.470  0.2567  1.3942 -1.7907
  901MOL0     H24297   1.679   3.254  12.815  3.0459  0.9946 -0.7463
  901MOL0     H24298   1.675   3.086  12.767  1.7532  0.0818 -1.5810
  901MOL0     H24299   1.553   3.189  12.707  0.1101  0.9946  2.7403
  901MOL0     H24300   2.118   3.343  12.981 -0.0006 -1.3768 -1.1866
  901MOL0     H24301   2.189   3.365  13.202  0.7117 -0.3318  1.3577
  901MOL0     H24302   2.001   3.145  13.563 -1.7188 -0.6886 -1.5397
  901MOL0     H24303   2.077   3.025  13.453 -0.1606 -0.4397  1.6654
  901MOL0     H24304   2.224   3.232  13.619  2.8737 -0.6498 -1.6044
  901MOL0     H24305   2.181   3.070  13.693  0.6844 -0.2002  0.8861
  901MOL0     H24306   2.393   3.136  13.462  2.1565 -1.5330 -0.2847
  901MOL0     H24307   2.323   2.976  13.503 -1.1573  0.7601 -2.0549
  901MOL0     H24308   2.410   2.972  13.712  0.1444 -0.6652 -0.6860
  901MOL0     H24309   2.448   3.145  13.723 -0.0440  0.6313 -2.0425
  901MOL0     H24310   2.620   2.971  13.692 -1.7481  0.2325 -0.0756
  901MOL0     H24311   2.601   2.966  13.514  2.4597 -0.3945  0.8162
  901MOL0     H24312   2.648   3.224  13.684  2.8476 -0.8850  0.8096
  901MOL0     H24313   2.602   3.226  13.522 -2.7369  1.3027  4.0029
  901MOL0     H24314   2.829   3.139  13.454 -2.7909 -3.3389 -0.5472
  901MOL0     H24315   2.848   3.052  13.608  1.8778  1.1296  1.3842
  901MOL0     H24316   2.988   3.234  13.633  0.1668  1.4757 -0.4695
  901MOL0     H24317   2.847   3.296  13.707 -0.7951 -3.8710  0.4805
  901MOL0     H24318   1.912   3.071  13.339  0.5181 -0.7514 -0.6157
  901MOL0     H24319   1.811   3.056  13.111  2.4220 -2.7939 -3.0608
  901MOL0     H24320   2.064   3.293  12.570  0.0927 -0.8339  1.2521
  901MOL0     H24321   1.987   3.404  12.372  1.0192 -0.5493  1.0109
  901MOL0     H24322   1.467   2.518  11.124 -0.6501 -2.1565  1.4574
  901MOL0     H24323   1.394   2.621  10.917 -1.4251 -0.1157 -1.7538
  901MOL0     H24324   1.181   2.713  10.585  2.6748  1.1931 -0.2131
  901MOL0     H24325   1.197   2.864  10.418  1.8574  4.3359  0.8544
  901MOL0     H24326   1.187   3.063  10.266  1.1134 -1.6868 -0.3940
  901MOL0     H24327   1.045   2.958  10.223  2.0141 -0.7132 -0.3225
  901MOL0     H24328   1.021   3.263  10.225 -2.9686 -0.8769  0.8083
  901MOL0     H24329   0.936   3.153  10.122 -1.2655  3.7830  1.5884
  901MOL0     H24330   1.236   3.192  10.088  0.1799  1.3394  0.1007
  901MOL0     H24331   1.123   3.144   9.961 -4.3918  1.9129 -1.1221
  901MOL0     H24332   1.148   3.430  10.089 -0.0211  1.7175 -2.5244
  901MOL0     H24333   1.004   3.387  10.002  0.2750  3.2091  1.3771
  901MOL0     H24334   1.237   3.477   9.680 -0.5403  1.3411  0.5386
  901MOL0     H24335   0.865   3.095  10.577  0.1725 -0.2462  1.3852
  901MOL0     H24336   0.797   3.076  10.790 -1.1091  0.2381 -0.9478
  901MOL0     H24337   0.772   2.894  10.787 -1.5497  1.1391  0.8211
  901MOL0     H24338   0.889   2.976  10.904  3.4595  0.6851 -2.9916
  902MOL0     O24339   6.618   5.389  11.199  0.4606  0.0934  0.4616
  902MOL0     C24340   6.733   5.363  11.209 -0.5741  0.9699  0.3175
  902MOL0     O24341   6.837   5.390  11.133 -0.4227  0.4320 -0.0518
  902MOL0     C24342   6.836   5.483  11.026 -0.5286  0.4240  0.7496
  902MOL0     C24343   6.719   5.542  10.977  0.4457 -0.2612  0.1793
  902MOL0     C24344   6.725   5.618  10.855 -0.4031  1.1591 -0.1126
  902MOL0     C24345   6.844   5.642  10.790 -0.2625  0.0516 -0.3349
  902MOL0     O24346   6.848   5.727  10.679 -0.2766 -0.4697  0.2729
  902MOL0     C24347   6.950   5.820  10.640 -0.5347 -0.3349 -0.6013
  902MOL0     C24348   6.993   5.905  10.756 -0.4167 -0.1790 -0.0821
  902MOL0     C24349   7.035   6.045  10.699  0.2135  0.1278  0.1028
  902MOL0     C24350   7.163   6.058  10.626  0.1063  0.1551  0.0771
  902MOL0     C24351   7.210   6.196  10.568  0.1736 -0.6811  0.1585
  902MOL0     C24352   7.204   6.317  10.658 -0.6394  0.2202 -0.0288
  902MOL0     C24353   7.282   6.305  10.779 -0.6780  0.4542 -1.0860
  902MOL0     C24354   7.298   6.442  10.844  0.0686 -0.1100  0.4380
  902MOL0     N24355   7.420   6.512  10.806  0.0349 -0.7792  0.0943
  902MOL0     C24356   7.435   6.585  10.692 -0.6963  0.7480 -0.4110
  902MOL0     C24357   7.570   6.603  10.694 -0.0167  0.2495 -0.3890
  902MOL0     C24358   7.651   6.665  10.583  0.1155 -0.0361 -0.2549
  902MOL0     C24359   7.754   6.581  10.527 -1.1409 -0.3614 -0.9036
  902MOL0     C24360   7.890   6.615  10.584  1.2485 -0.7875 -0.0568
  902MOL0     C24361   7.977   6.706  10.486 -0.1221  1.1027 -0.1503
  902MOL0     O24362   8.108   6.699  10.534 -0.4905  0.0204 -0.0805
  902MOL0     C24363   8.207   6.783  10.482 -0.5747 -0.1321  0.0309
  902MOL0     C24364   8.330   6.790  10.547 -0.4775 -1.2753 -1.3401
  902MOL0     C24365   8.425   6.887  10.509  0.5468  0.0812 -0.2832
  902MOL0     C24366   8.572   6.875  10.577  0.0612  0.0362 -0.1404
  902MOL0     C24367   8.396   6.985  10.419  0.6814 -0.5859  0.4171
  902MOL0     C24368   8.484   7.091  10.385  1.1690  0.2811  0.2747
  902MOL0     O24369   8.465   7.153  10.255 -0.7050 -0.2093  0.7806
  902MOL0     C24370   8.575   7.208  10.192  0.3014 -0.8451 -0.5521
  902MOL0     C24371   8.544   7.283  10.080 -0.4594  0.1459 -0.2565
  902MOL0     C24372   8.649   7.338   9.999  0.9608  0.5178 -0.8395
  902MOL0     C24373   8.782   7.331  10.049  0.5803  0.6919  0.0144
  902MOL0     O24374   8.879   7.399   9.994 -0.2129 -0.3950 -0.0151
  902MOL0     C24375   8.856   7.535   9.941 -0.1869 -0.5001  0.0982
  902MOL0     C24376   8.804   7.640  10.048  0.7458  0.5274 -0.0176
  902MOL0     C24377   8.879   7.770  10.048  0.2894  0.5191 -0.4429
  902MOL0     C24378   8.820   7.860   9.929 -0.8477  0.4091 -0.4436
  902MOL0     C24379   8.861   8.011   9.937 -0.3058  0.8551 -0.9969
  902MOL0     C24380   9.009   8.021   9.921 -0.3058 -1.1040  0.9190
  902MOL0     C24381   9.062   8.169   9.896  0.6043 -0.1059 -0.2819
  902MOL0     C24382   9.010   8.245   9.774  0.0698  0.0608 -0.0997
  902MOL0    Cl24383   9.091   8.178   9.628 -0.3546  0.3314  0.5228
  902MOL0     C24384   8.815   7.259  10.158  0.7250 -0.5661 -0.7803
  902MOL0     C24385   8.708   7.197  10.234 -0.9093 -0.1291  0.0413
  902MOL0     O24386   8.565   7.131  10.469  0.8840 -0.1809 -0.1144
  902MOL0     C24387   8.278   6.976  10.349  0.2521 -0.4720  0.2512
  902MOL0     C24388   8.184   6.879  10.385  0.4880  0.8546 -0.9347
  902MOL0     N24389   7.626   6.545  10.806 -0.7502 -0.2834 -0.2987
  902MOL0     N24390   7.531   6.500  10.877  0.3665  0.6926  0.3388
  902MOL0     C24391   6.962   5.592  10.854  0.5467 -0.5127  0.9065
  902MOL0     C24392   6.958   5.505  10.963 -0.2784  0.8847  0.6204
  902MOL0     C24393   6.766   5.274  11.331  0.1919  0.4212 -0.3634
  902MOL0     C24394   6.668   5.183  11.378 -0.5211  0.3905  0.1733
  902MOL0     C24395   6.690   5.106  11.493  0.3254 -0.0669 -0.6240
  902MOL0     C24396   6.817   5.095  11.551 -0.0609 -0.4924 -0.3652
  902MOL0     O24397   6.854   5.015  11.655  0.8201 -1.0075 -0.2866
  902MOL0     C24398   6.769   4.966  11.758 -1.0107 -1.0232 -0.2843
  902MOL0     C24399   6.800   4.815  11.767 -0.4934 -0.5958  0.2523
  902MOL0     C24400   6.743   4.725  11.658 -0.6715  0.5470 -0.9997
  902MOL0     C24401   6.856   4.653  11.577  0.8606  0.6391  0.5054
  902MOL0     C24402   6.802   4.579  11.465  0.0261 -0.3473 -0.2234
  902MOL0     C24403   6.754   4.527  11.370 -1.0837 -0.7323 -0.8337
  902MOL0     C24404   6.919   5.174  11.494  0.0206 -0.1324  0.3915
  902MOL0     C24405   6.892   5.265  11.390 -0.4352 -1.3523 -0.5050
  902MOL0     C24406   7.020   5.344  11.344  0.4929 -0.4002 -0.3449
  902MOL0     H24407   6.619   5.545  11.019 -1.3875  0.8255 -3.8187
  902MOL0     H24408   6.639   5.670  10.813 -0.3500  0.7332 -0.7643
  902MOL0     H24409   6.904   5.880  10.560 -1.0158  0.6132  0.3622
  902MOL0     H24410   7.036   5.765  10.601  0.8026  0.3171  1.2842
  902MOL0     H24411   6.905   5.926  10.818  0.4313 -0.9678  1.4696
  902MOL0     H24412   7.079   5.864  10.810  0.0409 -1.6702 -1.8299
  902MOL0     H24413   6.963   6.077  10.623  2.1002  2.0043 -1.0145
  902MOL0     H24414   7.039   6.123  10.776  2.6192  3.0288 -2.6521
  902MOL0     H24415   7.244   6.008  10.682  0.3583 -1.1556 -1.4003
  902MOL0     H24416   7.144   5.989  10.544 -4.0289  0.7386  0.3718
  902MOL0     H24417   7.149   6.219  10.480 -0.5206 -1.9960  0.2823
  902MOL0     H24418   7.311   6.184  10.528  0.7949  0.0868  1.4169
  902MOL0     H24419   7.246   6.396  10.596 -1.1062 -0.6081 -1.4461
  902MOL0     H24420   7.101   6.345  10.682 -0.5325 -1.0836  2.3137
  902MOL0     H24421   7.385   6.272  10.763 -1.1870 -1.1641 -1.1841
  902MOL0     H24422   7.244   6.241  10.859 -0.3508  1.3066 -0.2192
  902MOL0     H24423   7.215   6.510  10.821 -0.5401 -0.8714  0.3531
  902MOL0     H24424   7.301   6.424  10.952 -1.8373 -2.9877  0.1065
  902MOL0     H24425   7.369   6.613  10.611  3.9237 -0.9264 -5.3449
  902MOL0     H24426   7.688   6.762  10.617  2.0711  0.1173 -2.5758
  902MOL0     H24427   7.579   6.686  10.503 -0.9489  3.2700  1.3635
  902MOL0     H24428   7.738   6.480  10.565 -2.4108  0.9865  2.5459
  902MOL0     H24429   7.752   6.582  10.418 -0.5002  0.6534 -0.9215
  902MOL0     H24430   7.880   6.682  10.670 -2.4859 -2.3626  0.9074
  902MOL0     H24431   7.936   6.524  10.624 -1.7513 -1.7128  1.5579
  902MOL0     H24432   7.974   6.680  10.379 -2.4702 -0.6301  0.2374
  902MOL0     H24433   7.933   6.805  10.501  0.4558  1.3842 -0.3081
  902MOL0     H24434   8.346   6.712  10.621 -0.1981  0.1603  0.1478
  902MOL0     H24435   8.662   6.861  10.516  2.0215 -1.4154  2.8207
  902MOL0     H24436   8.564   6.781  10.631 -3.5679 -0.2657 -1.0013
  902MOL0     H24437   8.594   6.948  10.656  3.0247 -0.3068 -0.5349
  902MOL0     H24438   8.442   7.294  10.044 -0.2597 -0.7029 -1.1116
  902MOL0     H24439   8.620   7.379   9.903 -2.0349 -0.9401 -0.6823
  902MOL0     H24440   8.949   7.582   9.906 -0.5583 -1.0122 -1.6893
  902MOL0     H24441   8.789   7.527   9.855  0.0480  0.9824 -0.2518
  902MOL0     H24442   8.697   7.659  10.042  0.6529  0.2822  0.7743
  902MOL0     H24443   8.807   7.596  10.148 -2.2205  1.7845  0.7222
  902MOL0     H24444   8.987   7.758  10.041  0.2474  0.6233 -1.4184
  902MOL0     H24445   8.862   7.825  10.142  1.5597 -1.5297  1.0611
  902MOL0     H24446   8.712   7.875   9.938 -0.5555  1.3999  2.5136
  902MOL0     H24447   8.874   7.820   9.843 -1.8158 -1.5709 -0.1811
  902MOL0     H24448   8.798   8.067   9.868  0.1258  1.9328 -0.5292
  902MOL0     H24449   8.838   8.038  10.040 -0.4833  1.4752 -1.1941
  902MOL0     H24450   9.041   7.953   9.841  0.7430  0.5880 -0.1718
  902MOL0     H24451   9.051   7.986  10.016 -1.0938  0.2042  1.7608
  902MOL0     H24452   9.171   8.169   9.899  0.6650  2.1615 -0.4385
  902MOL0     H24453   9.029   8.237   9.975  1.6230 -0.0019  0.0658
  902MOL0     H24454   9.048   8.346   9.791 -2.2942  0.9895 -0.0251
  902MOL0     H24455   8.902   8.252   9.760 -0.0168 -3.1780 -2.1075
  902MOL0     H24456   8.915   7.258  10.201  1.3491  4.4581 -1.4420
  902MOL0     H24457   8.744   7.127  10.309  1.3494 -2.1311 -2.7256
  902MOL0     H24458   8.251   7.035  10.262  2.9877  1.7275  0.7174
  902MOL0     H24459   8.093   6.872  10.327  1.6343  2.3549 -3.0328
  902MOL0     H24460   7.056   5.617  10.805  0.6770 -0.6628  1.0767
  902MOL0     H24461   7.049   5.455  10.995 -0.3485 -1.2443 -2.1427
  902MOL0     H24462   6.570   5.184  11.332 -0.7139  3.0114  0.4636
  902MOL0     H24463   6.612   5.043  11.535 -2.2448  3.1389 -0.2604
  902MOL0     H24464   6.781   5.013  11.857 -0.2334  0.3939 -1.0125
  902MOL0     H24465   6.665   4.998  11.740 -1.2321 -1.3264  0.4224
  902MOL0     H24466   6.753   4.784  11.861  2.1834  0.5833  2.0915
  902MOL0     H24467   6.906   4.791  11.781 -1.2504 -3.9156  1.1268
  902MOL0     H24468   6.686   4.642  11.703 -0.3217  1.5929  1.5002
  902MOL0     H24469   6.676   4.777  11.588 -0.4380 -1.3664 -2.7650
  902MOL0     H24470   6.907   4.592  11.651  0.5430 -1.1942 -0.7301
  902MOL0     H24471   6.920   4.737  11.545  1.4810 -0.8600 -2.5747
  902MOL0     H24472   6.724   4.483  11.277  0.6991 -1.1167 -1.2469
  902MOL0     H24473   7.022   5.161  11.527 -0.7427 -0.6467  2.8324
  902MOL0     H24474   6.981   5.438  11.306 -1.2155 -0.1132  1.9031
  902MOL0     H24475   7.088   5.368  11.427  1.1532 -0.6175 -0.8117
  902MOL0     H24476   7.085   5.284  11.279 -0.3880 -0.5759 -1.0867
  903MOL0     O24477   2.881   3.528   9.386  0.0075  0.1612 -0.0243
  903MOL0     C24478   2.980   3.579   9.353 -0.5307 -0.2795 -0.9102
  903MOL0     O24479   2.996   3.656   9.239 -0.4999  0.1348  0.2069
  903MOL0     C24480   2.905   3.640   9.138  0.0140  0.4414 -0.8909
  903MOL0     C24481   2.776   3.679   9.133  0.0159 -0.2184 -0.3058
  903MOL0     C24482   2.697   3.652   9.015  0.5052 -0.3871 -0.5070
  903MOL0     C24483   2.744   3.595   8.898  0.2967 -0.1553  0.6903
  903MOL0     O24484   2.678   3.574   8.777 -0.2790  0.2490 -0.8865
  903MOL0     C24485   2.567   3.499   8.803  0.0767  0.1005 -0.5318
  903MOL0     C24486   2.499   3.455   8.681  0.2634 -0.4753 -0.7378
  903MOL0     C24487   2.399   3.338   8.712 -0.5024  0.5076  0.2741
  903MOL0     C24488   2.337   3.280   8.581  0.0715  0.0313  0.0239
  903MOL0     C24489   2.209   3.207   8.622  0.1425 -0.5587 -0.1874
  903MOL0     C24490   2.114   3.175   8.505 -0.0501 -0.4878  0.0043
  903MOL0     C24491   1.995   3.090   8.547  1.2239 -0.5521  0.2633
  903MOL0     C24492   2.022   2.960   8.618  0.7816 -0.4704  0.7190
  903MOL0     N24493   1.910   2.860   8.639  0.0788  0.2320 -0.0576
  903MOL0     C24494   1.816   2.816   8.550  0.6289  0.2254  0.5397
  903MOL0     C24495   1.768   2.696   8.600  0.1854  0.1190  0.4144
  903MOL0     C24496   1.660   2.595   8.546 -0.5746 -0.1582 -0.0130
  903MOL0     C24497   1.545   2.575   8.635  0.2201  0.0131 -0.6502
  903MOL0     C24498   1.496   2.690   8.720 -0.1772 -0.0197 -0.2353
  903MOL0     C24499   1.440   2.806   8.635 -0.5111 -0.9185 -0.0650
  903MOL0     O24500   1.365   2.899   8.707 -0.2698  0.2993 -0.0171
  903MOL0     C24501   1.417   3.002   8.778 -1.1848  0.7263 -0.6542
  903MOL0     C24502   1.544   3.024   8.822 -0.2463  0.1935 -0.6925
  903MOL0     C24503   1.574   3.117   8.916  0.6413 -0.5855  0.0043
  903MOL0     C24504   1.711   3.117   8.974 -0.2108  0.4997  0.3469
  903MOL0     C24505   1.474   3.209   8.964  0.1081 -0.3210 -0.4274
  903MOL0     C24506   1.500   3.306   9.069  0.5978 -0.4309 -0.0521
  903MOL0     O24507   1.609   3.389   9.058 -0.0384  0.4964  0.2558
  903MOL0     C24508   1.632   3.501   9.147  0.3823 -0.3746 -0.2839
  903MOL0     C24509   1.524   3.575   9.190  0.5911  0.0099  0.5705
  903MOL0     C24510   1.537   3.676   9.287 -0.4899 -1.2314  0.8208
  903MOL0     C24511   1.664   3.710   9.333 -0.5312 -0.1130  0.1104
  903MOL0     O24512   1.705   3.793   9.436  0.2450 -0.1908 -0.9959
  903MOL0     C24513   1.607   3.899   9.481  1.4058  0.3072 -0.3493
  903MOL0     C24514   1.630   3.984   9.605 -0.3569 -0.1374 -0.0864
  903MOL0     C24515   1.739   4.080   9.559  0.1585 -0.2237  0.2201
  903MOL0     C24516   1.736   4.211   9.645  0.1292 -0.1603  0.1636
  903MOL0     C24517   1.881   4.262   9.669  0.7747  0.7449 -0.3963
  903MOL0     C24518   1.941   4.317   9.540  0.4403 -0.2326 -0.5139
  903MOL0     C24519   1.864   4.438   9.484 -0.0257  0.6266  0.1843
  903MOL0     C24520   1.964   4.529   9.411 -0.3159  0.0246 -0.7732
  903MOL0    Cl24521   1.900   4.687   9.351 -0.4058  0.1124 -0.2700
  903MOL0     C24522   1.770   3.644   9.275  0.3072 -0.8300  1.3078
  903MOL0     C24523   1.758   3.532   9.187 -0.7570 -0.3512 -0.1408
  903MOL0     O24524   1.426   3.293   9.164  0.7517  0.4642 -0.0248
  903MOL0     C24525   1.347   3.198   8.909 -0.1821  0.0622 -0.1828
  903MOL0     C24526   1.324   3.097   8.816 -0.8335  0.7732  0.6439
  903MOL0     N24527   1.826   2.685   8.724 -0.4073 -0.1215 -0.1226
  903MOL0     N24528   1.905   2.784   8.749  0.3732  0.8827  0.3037
  903MOL0     C24529   2.876   3.550   8.909 -0.5476  0.8823  0.5800
  903MOL0     C24530   2.955   3.574   9.025 -0.0781  0.5741 -0.3109
  903MOL0     C24531   3.097   3.563   9.433  0.3742  1.0270 -0.1078
  903MOL0     C24532   3.213   3.494   9.381  0.3226  0.0731  0.2810
  903MOL0     C24533   3.316   3.452   9.463  0.1207  0.4889 -0.4199
  903MOL0     C24534   3.324   3.501   9.598  0.9208 -0.1502  0.4956
  903MOL0     O24535   3.436   3.492   9.674  0.8379  0.7410  0.1937
  903MOL0     C24536   3.514   3.616   9.695 -0.3512 -0.0431 -0.9914
  903MOL0     C24537   3.659   3.579   9.734 -0.2837 -0.1798 -1.1715
  903MOL0     C24538   3.725   3.473   9.639  0.7731  0.3958  0.2017
  903MOL0     C24539   3.750   3.514   9.491 -1.2910 -0.0998  0.3731
  903MOL0     C24540   3.839   3.417   9.430  0.3074  0.3721  0.3637
  903MOL0     C24541   3.911   3.331   9.374  0.4964  0.3664  0.0812
  903MOL0     C24542   3.207   3.571   9.642  0.6707 -0.6487 -0.4201
  903MOL0     C24543   3.096   3.593   9.565  0.3193  0.1342  0.0152
  903MOL0     C24544   2.969   3.648   9.632  0.6544 -0.4609  0.0927
  903MOL0     H24545   2.718   3.736   9.206 -1.3600 -1.3156 -0.5041
  903MOL0     H24546   2.592   3.677   9.014  0.3268 -1.1190 -0.6912
  903MOL0     H24547   2.499   3.558   8.865 -1.7239 -3.8266  1.5521
  903MOL0     H24548   2.586   3.419   8.875 -0.4505  2.0168  1.8790
  903MOL0     H24549   2.446   3.531   8.623  1.0898 -1.2722 -2.6414
  903MOL0     H24550   2.572   3.413   8.611 -1.4517 -1.2745 -2.1375
  903MOL0     H24551   2.455   3.253   8.752 -0.5862 -0.5442 -1.6914
  903MOL0     H24552   2.319   3.370   8.780 -2.5436 -0.6312 -1.4484
  903MOL0     H24553   2.311   3.366   8.519 -0.8689  1.3288  2.1097
  903MOL0     H24554   2.408   3.211   8.533 -1.2615 -0.4813 -1.2868
  903MOL0     H24555   2.154   3.257   8.703  0.5541 -1.7795  0.8734
  903MOL0     H24556   2.248   3.117   8.670  0.9462 -0.0443  0.1496
  903MOL0     H24557   2.081   3.270   8.461 -0.5558 -0.8668 -0.4540
  903MOL0     H24558   2.169   3.118   8.429 -2.1515 -1.7792 -0.6321
  903MOL0     H24559   1.942   3.070   8.454 -0.5543  0.8763  0.9070
  903MOL0     H24560   1.929   3.145   8.615 -1.5763  0.2366 -2.8388
  903MOL0     H24561   2.103   2.908   8.566  1.0017 -2.4888  2.8935
  903MOL0     H24562   2.065   2.986   8.715 -0.8922  5.2754  0.2663
  903MOL0     H24563   1.803   2.832   8.443 -1.9401 -1.5530  0.4796
  903MOL0     H24564   1.708   2.497   8.537  3.3810  1.6883 -1.1341
  903MOL0     H24565   1.644   2.636   8.446  1.1558  0.1523 -0.2051
  903MOL0     H24566   1.455   2.532   8.590  0.2073 -0.7430  0.0677
  903MOL0     H24567   1.581   2.490   8.694  1.3045  0.8307 -0.1029
  903MOL0     H24568   1.407   2.661   8.777 -0.7417 -0.0294 -1.1007
  903MOL0     H24569   1.572   2.729   8.788  1.3649 -0.4628 -1.6650
  903MOL0     H24570   1.521   2.860   8.584 -1.0016 -0.3291 -0.2261
  903MOL0     H24571   1.368   2.767   8.563 -1.6185 -2.3314  1.7245
  903MOL0     H24572   1.619   2.955   8.783 -0.3034 -0.0937 -0.2993
  903MOL0     H24573   1.770   3.034   8.933 -0.2407  0.8720 -0.4714
  903MOL0     H24574   1.701   3.109   9.082 -0.1518 -2.9089  0.2176
  903MOL0     H24575   1.766   3.208   8.949  0.2208 -0.5080 -2.9035
  903MOL0     H24576   1.430   3.531   9.160  0.9283 -0.0449 -0.4418
  903MOL0     H24577   1.448   3.702   9.343 -0.4059  1.0118  0.0248
  903MOL0     H24578   1.578   3.959   9.395 -0.2627  0.8859  0.5740
  903MOL0     H24579   1.518   3.850   9.521  1.2152  0.2831 -0.8098
  903MOL0     H24580   1.546   4.048   9.633  0.6078  0.6730  1.0537
  903MOL0     H24581   1.657   3.939   9.701 -2.2042 -0.0162  0.5360
  903MOL0     H24582   1.736   4.108   9.454  2.5043 -0.4010  0.0578
  903MOL0     H24583   1.828   4.019   9.577 -0.4277 -0.7282  1.5446
  903MOL0     H24584   1.706   4.192   9.749  0.0261 -1.7501 -0.1305
  903MOL0     H24585   1.677   4.295   9.607 -1.6322 -1.4145  0.0198
  903MOL0     H24586   1.875   4.346   9.739  3.3213  0.5683  0.1106
  903MOL0     H24587   1.937   4.179   9.714  0.9375 -1.3900 -4.1798
  903MOL0     H24588   1.940   4.236   9.466  2.1575 -1.9129  1.1991
  903MOL0     H24589   2.043   4.351   9.563 -0.4417  1.3297  1.3956
  903MOL0     H24590   1.805   4.488   9.561 -0.4194  1.8695 -0.8698
  903MOL0     H24591   1.786   4.402   9.416 -1.9089  3.5150  0.5998
  903MOL0     H24592   2.013   4.480   9.326  2.3896  0.7628  0.2474
  903MOL0     H24593   2.044   4.550   9.484  1.0144  0.5124 -2.3017
  903MOL0     H24594   1.874   3.672   9.291  0.8079 -0.4940 -1.7949
  903MOL0     H24595   1.848   3.492   9.141 -1.6587 -1.5736 -0.9171
  903MOL0     H24596   1.280   3.276   8.945 -0.0091  0.8442 -1.5134
  903MOL0     H24597   1.233   3.091   8.758 -1.5347  1.4102  1.6386
  903MOL0     H24598   2.931   3.498   8.830  3.3938  2.2014  2.1920
  903MOL0     H24599   3.058   3.540   9.028 -0.2456  0.1324  1.4510
  903MOL0     H24600   3.205   3.468   9.275  0.2050  0.2077  0.2575
  903MOL0     H24601   3.404   3.416   9.411 -0.9613 -0.4922 -1.6344
  903MOL0     H24602   3.510   3.672   9.602 -1.4439  0.3531 -0.7258
  903MOL0     H24603   3.475   3.666   9.785 -0.9823 -0.2072 -1.1686
  903MOL0     H24604   3.675   3.541   9.835  0.6253  2.2938 -0.3027
  903MOL0     H24605   3.722   3.668   9.725  3.6300 -2.3985  1.3048
  903MOL0     H24606   3.825   3.448   9.677  1.1492  1.0803 -0.3101
  903MOL0     H24607   3.668   3.380   9.637 -1.2745  1.4160  3.5071
  903MOL0     H24608   3.808   3.607   9.493  1.6023 -1.8072  2.6060
  903MOL0     H24609   3.661   3.525   9.428  0.2935  1.8756 -1.6845
  903MOL0     H24610   3.974   3.254   9.335  0.6290 -0.9556  2.6709
  903MOL0     H24611   3.210   3.607   9.744 -1.7719 -0.4429 -0.3577
  903MOL0     H24612   2.983   3.662   9.740 -1.4397 -1.2429  0.5093
  903MOL0     H24613   2.942   3.742   9.583  1.7655 -0.9013 -1.4322
  903MOL0     H24614   2.881   3.583   9.630  0.4628 -0.2099  0.2802
  904MOL0     O24615   6.810   9.237   8.077  0.5289 -0.3918  0.4138
  904MOL0     C24616   6.717   9.279   8.015 -0.6799 -0.5883  0.3106
  904MOL0     O24617   6.600   9.326   8.065  0.0486  0.3767  0.1280
  904MOL0     C24618   6.574   9.300   8.198 -0.4457 -0.4632  0.1851
  904MOL0     C24619   6.591   9.400   8.297 -0.9325  0.0493  0.0180
  904MOL0     C24620   6.565   9.373   8.430 -0.2269 -0.4742 -0.4210
  904MOL0     C24621   6.524   9.247   8.477  1.2037  0.2690 -1.4136
  904MOL0     O24622   6.503   9.203   8.607 -0.0303 -0.2356 -0.0399
  904MOL0     C24623   6.487   9.311   8.706 -0.4317  0.7062 -0.1985
  904MOL0     C24624   6.452   9.253   8.840 -0.1583 -0.4053  0.2852
  904MOL0     C24625   6.472   9.370   8.945 -0.8394 -0.6841 -0.6028
  904MOL0     C24626   6.458   9.313   9.085 -1.1968  0.3928  0.3543
  904MOL0     C24627   6.523   9.405   9.182 -0.2802  0.4547  0.1154
  904MOL0     C24628   6.510   9.361   9.325  0.4202  1.0170  0.4154
  904MOL0     C24629   6.508   9.488   9.416 -0.1697 -0.1839  0.2216
  904MOL0     C24630   6.600   9.467   9.543  0.8815  0.2285  0.3298
  904MOL0     N24631   6.581   9.574   9.646 -0.1660  0.1577  0.5232
  904MOL0     C24632   6.621   9.563   9.777  0.2882 -0.3436 -0.1355
  904MOL0     C24633   6.610   9.688   9.823 -0.4511  0.1759 -0.4415
  904MOL0     C24634   6.609   9.730   9.976 -0.2468 -0.3880 -0.7747
  904MOL0     C24635   6.653   9.629  10.079 -0.7143  0.1668 -0.9076
  904MOL0     C24636   6.547   9.530  10.131  0.0331  0.8708 -0.3000
  904MOL0     C24637   6.487   9.587  10.258 -0.0973 -0.4774  0.4547
  904MOL0     O24638   6.357   9.527  10.251  0.0098 -0.0530 -0.2487
  904MOL0     C24639   6.262   9.590  10.318 -0.1480  0.0457  0.0993
  904MOL0     C24640   6.192   9.696  10.260  0.6188 -0.2670  0.0859
  904MOL0     C24641   6.095   9.764  10.333  0.3646 -0.3783 -0.5087
  904MOL0     C24642   6.040   9.886  10.260 -0.2268  0.0569 -0.6887
  904MOL0     C24643   6.080   9.740  10.468  1.1357 -0.3160 -1.0074
  904MOL0     C24644   5.961   9.801  10.548  0.1493 -0.1127  0.3631
  904MOL0     O24645   5.947   9.745  10.668 -0.4938  0.3291  0.2152
  904MOL0     C24646   5.854   9.795  10.751  0.0774 -1.1222  0.3778
  904MOL0     C24647   5.750   9.710  10.785 -0.3547  0.9780  0.0711
  904MOL0     C24648   5.650   9.756  10.878  0.0205 -0.0798  0.2650
  904MOL0     C24649   5.670   9.871  10.953  0.0941  0.5262 -0.1049
  904MOL0     O24650   5.587   9.902  11.054  0.3150 -0.0695  0.1440
  904MOL0     C24651   5.477   9.994  11.022  0.4298  1.3690 -0.1567
  904MOL0     C24652   5.427  10.082  11.129  1.0819 -0.0512  0.1606
  904MOL0     C24653   5.532  10.156  11.204 -0.6977  0.4157  0.0198
  904MOL0     C24654   5.474  10.258  11.303 -0.8991 -0.4720  0.3626
  904MOL0     C24655   5.566  10.338  11.397 -0.2095  0.7389 -0.1693
  904MOL0     C24656   5.487  10.420  11.497  1.0559 -0.1272  0.3739
  904MOL0     C24657   5.582  10.522  11.568  0.1132  1.1054 -0.0228
  904MOL0     C24658   5.534  10.668  11.571 -0.2885 -0.8244 -0.7800
  904MOL0    Cl24659   5.526  10.724  11.402 -0.0033 -0.0600 -0.2477
  904MOL0     C24660   5.766   9.962  10.913  0.6889 -0.3005  0.0463
  904MOL0     C24661   5.863   9.920  10.816 -0.0465 -0.1641  0.4073
  904MOL0     O24662   5.894   9.893  10.501  0.0896 -0.5324  0.2414
  904MOL0     C24663   6.158   9.645  10.525  0.8293 -0.6019 -0.4859
  904MOL0     C24664   6.248   9.562  10.455 -0.0805  0.0885  0.5068
  904MOL0     N24665   6.570   9.771   9.724 -0.6611  0.2191  0.5909
  904MOL0     N24666   6.547   9.703   9.615 -0.1919 -0.2042  0.7316
  904MOL0     C24667   6.513   9.147   8.380  0.1586  0.8828  0.4994
  904MOL0     C24668   6.523   9.174   8.241  0.0888 -0.9320  0.5750
  904MOL0     C24669   6.720   9.278   7.867 -0.5835  0.4378 -0.3758
  904MOL0     C24670   6.808   9.358   7.801  0.5876 -0.0029  0.9154
  904MOL0     C24671   6.819   9.351   7.663 -0.6619 -0.3732  0.6913
  904MOL0     C24672   6.741   9.256   7.593  0.2076  0.8171  0.4918
  904MOL0     O24673   6.779   9.241   7.461  0.5711  0.8892 -0.2283
  904MOL0     C24674   6.701   9.145   7.384 -0.3553 -0.6838  0.1894
  904MOL0     C24675   6.749   9.133   7.246 -0.1818 -0.2389  0.3978
  904MOL0     C24676   6.900   9.096   7.249  0.2219 -0.0457  0.0682
  904MOL0     C24677   6.940   9.054   7.110  0.0327  0.4085  0.0220
  904MOL0     C24678   7.084   9.023   7.111  0.1351 -1.2151 -0.0923
  904MOL0     C24679   7.203   9.008   7.129  0.0815  0.1861 -0.4631
  904MOL0     C24680   6.630   9.193   7.654  0.0273  1.2422  0.2079
  904MOL0     C24681   6.627   9.196   7.794  0.5091  0.5489 -0.2742
  904MOL0     C24682   6.522   9.107   7.856 -0.9659  0.4141  0.0946
  904MOL0     H24683   6.620   9.500   8.265  0.8578 -0.3691  0.2250
  904MOL0     H24684   6.592   9.446   8.505  2.6597 -2.2995  0.5217
  904MOL0     H24685   6.414   9.385   8.672 -1.8530 -1.0993 -1.3065
  904MOL0     H24686   6.583   9.363   8.711  0.7472 -0.9235 -2.9636
  904MOL0     H24687   6.350   9.214   8.848  0.1111 -1.4793 -1.1275
  904MOL0     H24688   6.512   9.162   8.854 -0.4243 -0.3248  2.2658
  904MOL0     H24689   6.576   9.406   8.947 -0.7350 -1.0010  0.3162
  904MOL0     H24690   6.390   9.443   8.940 -0.3445  0.7377  5.0130
  904MOL0     H24691   6.354   9.289   9.111 -1.4459 -0.9828 -1.6445
  904MOL0     H24692   6.504   9.214   9.089 -4.0357 -1.0531  0.1540
  904MOL0     H24693   6.486   9.508   9.181 -1.2542  0.1723  2.4587
  904MOL0     H24694   6.630   9.411   9.157 -0.5600 -0.6307 -1.4982
  904MOL0     H24695   6.422   9.301   9.351 -0.8172  1.9384 -1.4200
  904MOL0     H24696   6.603   9.304   9.336 -1.7579 -3.0374 -0.3176
  904MOL0     H24697   6.406   9.518   9.442 -1.0382  0.1163 -3.1364
  904MOL0     H24698   6.551   9.576   9.367 -0.2740 -0.3972 -0.2606
  904MOL0     H24699   6.574   9.364   9.568 -0.5668  0.6978  0.8916
  904MOL0     H24700   6.703   9.473   9.507  0.6516  0.7899 -0.2473
  904MOL0     H24701   6.637   9.478   9.843 -6.3652 -2.0319  0.0423
  904MOL0     H24702   6.507   9.763  10.001  0.0192  1.1849 -1.6220
  904MOL0     H24703   6.674   9.818   9.975 -0.3658 -0.2491  0.9689
  904MOL0     H24704   6.734   9.567  10.040 -1.8357 -0.3064 -2.5590
  904MOL0     H24705   6.697   9.680  10.166 -2.4069 -0.4772  0.3934
  904MOL0     H24706   6.477   9.526  10.046 -0.4135 -0.7180  0.1181
  904MOL0     H24707   6.575   9.426  10.145 -1.5018  0.4289 -0.3537
  904MOL0     H24708   6.535   9.541  10.345  0.3987 -2.4652 -0.7987
  904MOL0     H24709   6.496   9.696  10.265 -2.1296 -0.2206 -0.2590
  904MOL0     H24710   6.219   9.722  10.159  1.0337  0.2751  0.3315
  904MOL0     H24711   6.048   9.975  10.322  2.8155 -0.3703 -0.3402
  904MOL0     H24712   5.935   9.867  10.234 -1.1251  2.1537  1.1069
  904MOL0     H24713   6.095   9.909  10.168 -0.9007 -2.3727 -1.8064
  904MOL0     H24714   5.734   9.611  10.741 -0.9323  1.7511 -1.5660
  904MOL0     H24715   5.565   9.693  10.904 -1.5075  1.4350 -0.7726
  904MOL0     H24716   5.519  10.058  10.944  3.2562  0.9680  0.9036
  904MOL0     H24717   5.395   9.933  10.984  2.7996 -1.5412 -0.9909
  904MOL0     H24718   5.367  10.157  11.077  0.2673 -0.0781  1.0516
  904MOL0     H24719   5.359  10.018  11.184  0.2383 -0.0198 -0.8197
  904MOL0     H24720   5.593  10.216  11.136 -1.4612  0.8505 -0.3073
  904MOL0     H24721   5.589  10.081  11.259  1.2175  1.3905 -0.5522
  904MOL0     H24722   5.391  10.205  11.352 -1.2708 -1.5586 -1.3871
  904MOL0     H24723   5.431  10.332  11.236 -2.2159  1.5642  3.2360
  904MOL0     H24724   5.625  10.271  11.461 -1.0668 -0.3093 -0.4372
  904MOL0     H24725   5.620  10.399  11.324  1.4255 -3.1014 -2.4690
  904MOL0     H24726   5.436  10.356  11.568 -0.3521  0.5302 -0.0138
  904MOL0     H24727   5.406  10.472  11.445 -0.6542 -1.5421  1.5267
  904MOL0     H24728   5.676  10.523  11.514 -1.6437 -0.6629 -3.4302
  904MOL0     H24729   5.597  10.487  11.670  2.2732  0.4089 -0.5346
  904MOL0     H24730   5.607  10.738  11.611  0.8938 -0.6133 -3.1656
  904MOL0     H24731   5.443  10.680  11.631 -1.0718  2.7181 -2.4230
  904MOL0     H24732   5.774  10.061  10.957 -0.5777  0.6282 -1.6974
  904MOL0     H24733   5.922   9.998  10.768  0.8004 -1.9071 -1.5502
  904MOL0     H24734   6.138   9.629  10.631 -0.4394  2.0266 -0.2583
  904MOL0     H24735   6.288   9.484  10.519 -1.3708 -1.2402 -0.2383
  904MOL0     H24736   6.479   9.045   8.395 -0.3139  0.8342 -0.7847
  904MOL0     H24737   6.515   9.090   8.172  1.5569  0.0239 -0.8316
  904MOL0     H24738   6.869   9.425   7.861  1.8417 -1.7575  1.6777
  904MOL0     H24739   6.894   9.406   7.607 -1.6397 -0.2395 -0.5186
  904MOL0     H24740   6.699   9.042   7.422 -1.5879 -1.7017 -2.3988
  904MOL0     H24741   6.598   9.180   7.378  0.6790  2.8665  0.5919
  904MOL0     H24742   6.726   9.229   7.198  1.5653 -0.0042 -0.0519
  904MOL0     H24743   6.683   9.062   7.197 -2.6222  2.8035 -1.1185
  904MOL0     H24744   6.963   9.181   7.277 -1.1754  1.2723 -0.6195
  904MOL0     H24745   6.916   9.013   7.318 -1.4913  0.4248  1.0810
  904MOL0     H24746   6.914   9.111   7.021  0.2010 -2.4527 -1.9975
  904MOL0     H24747   6.894   8.956   7.094 -3.9363  2.0318  0.4465
  904MOL0     H24748   7.296   9.008   7.183  1.0734  1.9173 -2.0388
  904MOL0     H24749   6.563   9.125   7.601  0.0006  0.2311  1.5051
  904MOL0     H24750   6.468   9.143   7.945 -2.0983 -1.3456  0.1776
  904MOL0     H24751   6.440   9.076   7.791 -1.2984 -2.7269  1.8334
  904MOL0     H24752   6.558   9.009   7.887 -1.6262 -0.1657 -0.9144
  905MOL0     O24753   0.322   8.045   1.984  0.6543  0.8581 -0.8146
  905MOL0     C24754   0.439   8.018   1.976 -0.7301  0.5555 -0.6455
  905MOL0     O24755   0.488   7.900   1.929  0.3124 -0.4285  0.3686
  905MOL0     C24756   0.398   7.822   1.865 -0.4854  0.1303  1.4117
  905MOL0     C24757   0.405   7.681   1.895 -0.9253 -1.3266 -0.5579
  905MOL0     C24758   0.305   7.602   1.841 -0.2348 -0.5487 -0.5827
  905MOL0     C24759   0.210   7.650   1.744  0.4760 -0.7141  0.4851
  905MOL0     O24760   0.123   7.581   1.662  0.1876 -1.2967  0.1053
  905MOL0     C24761   0.087   7.453   1.715  0.1298 -0.3467 -0.1162
  905MOL0     C24762  -0.066   7.433   1.674 -0.6700 -0.2755 -0.1026
  905MOL0     C24763  -0.127   7.337   1.789 -0.5371 -0.0830  0.7859
  905MOL0     C24764  -0.076   7.194   1.790  0.1427  0.7248  0.2736
  905MOL0     C24765  -0.143   7.117   1.901 -0.5206 -0.5882  0.4674
  905MOL0     C24766  -0.289   7.081   1.874 -0.4654 -0.6776 -0.8904
  905MOL0     C24767  -0.318   6.962   1.965  0.1743 -1.2757  0.1517
  905MOL0     C24768  -0.430   6.884   1.901 -0.8117 -0.3141  0.6864
  905MOL0     N24769  -0.546   6.966   1.869 -1.3714  0.5013 -0.4467
  905MOL0     C24770  -0.660   6.972   1.953 -0.3468  0.0905  1.0453
  905MOL0     C24771  -0.725   7.081   1.908 -0.0835  0.3116 -0.1527
  905MOL0     C24772  -0.847   7.138   1.964  0.3270  0.2374  0.6202
  905MOL0     C24773  -0.822   7.280   2.031 -0.1658  0.4482  0.3141
  905MOL0     C24774  -0.957   7.349   2.079 -0.1527  0.4782 -0.1458
  905MOL0     C24775  -0.925   7.466   2.171 -0.0774 -0.3216  0.0446
  905MOL0     O24776  -0.835   7.560   2.109 -0.2346 -0.3463 -0.5736
  905MOL0     C24777  -0.765   7.642   2.195 -0.0111 -0.6966  0.4679
  905MOL0     C24778  -0.782   7.656   2.335 -0.5028 -0.3458 -0.4681
  905MOL0     C24779  -0.720   7.741   2.413 -0.5427 -0.2314  0.5135
  905MOL0     C24780  -0.772   7.741   2.560 -0.6005  0.8672 -0.8402
  905MOL0     C24781  -0.619   7.827   2.353  0.1803 -0.1919  0.6314
  905MOL0     C24782  -0.551   7.947   2.415  0.1302  0.0545 -0.6522
  905MOL0     O24783  -0.509   8.052   2.336 -0.1058 -0.0590  0.3885
  905MOL0     C24784  -0.495   8.174   2.389 -0.3033  0.1626 -0.3115
  905MOL0     C24785  -0.406   8.260   2.319  0.5272  0.6759  0.3356
  905MOL0     C24786  -0.386   8.382   2.372  0.2948  0.0179 -0.6005
  905MOL0     C24787  -0.457   8.430   2.490 -1.0721  0.2712 -0.5257
  905MOL0     O24788  -0.432   8.554   2.542 -0.4089 -0.4818  0.8229
  905MOL0     C24789  -0.546   8.622   2.570  0.6019 -0.6943 -0.3384
  905MOL0     C24790  -0.539   8.768   2.545 -0.5740 -0.5736  0.6008
  905MOL0     C24791  -0.544   8.801   2.390 -0.1186  0.1623  0.8608
  905MOL0     C24792  -0.648   8.910   2.364  0.6757 -0.4501  0.5221
  905MOL0     C24793  -0.649   8.953   2.216  0.4833 -0.4691  0.2088
  905MOL0     C24794  -0.762   9.061   2.199  0.1459 -0.1661  0.0072
  905MOL0     C24795  -0.828   9.062   2.060 -0.3751 -0.3318  0.8871
  905MOL0     C24796  -0.959   9.118   2.063  0.2285 -1.8253 -1.2769
  905MOL0    Cl24797  -0.973   9.298   2.095  0.4320 -0.4534 -0.5241
  905MOL0     C24798  -0.552   8.345   2.551  0.2926  0.0570  0.4351
  905MOL0     C24799  -0.565   8.216   2.502  1.1993 -0.1343  0.2722
  905MOL0     O24800  -0.551   7.946   2.541  0.0646  0.4218  0.3217
  905MOL0     C24801  -0.595   7.801   2.213  0.1923 -1.1216 -0.4223
  905MOL0     C24802  -0.667   7.713   2.138  0.2348  0.2778 -0.5030
  905MOL0     N24803  -0.656   7.140   1.805  0.2194  0.3603  0.2622
  905MOL0     N24804  -0.556   7.067   1.777  1.0069  0.8611  0.3197
  905MOL0     C24805   0.221   7.783   1.707  0.1855  0.6340 -0.8948
  905MOL0     C24806   0.320   7.865   1.764  0.0538 -0.0091  0.1944
  905MOL0     C24807   0.547   8.115   2.025  0.5625 -1.5051 -0.5631
  905MOL0     C24808   0.684   8.075   2.041  0.2817  0.3992  0.1651
  905MOL0     C24809   0.772   8.159   2.102 -0.0204  0.1802  0.3916
  905MOL0     C24810   0.734   8.281   2.153 -0.2284  1.1084  0.0977
  905MOL0     O24811   0.816   8.367   2.218 -0.1045 -0.0889 -1.1205
  905MOL0     C24812   0.943   8.398   2.157 -0.6578  1.0730  0.1159
  905MOL0     C24813   1.062   8.396   2.251 -0.1357  0.0399 -0.0156
  905MOL0     C24814   1.195   8.389   2.168  0.0534 -0.8427 -0.6957
  905MOL0     C24815   1.211   8.476   2.039  0.3505  1.2018 -0.0510
  905MOL0     C24816   1.208   8.614   2.079  0.9448  0.3794 -0.1162
  905MOL0     C24817   1.226   8.724   2.100 -0.2567 -1.0164 -0.7904
  905MOL0     C24818   0.608   8.324   2.139  0.3286  0.6039 -0.6319
  905MOL0     C24819   0.513   8.251   2.071  0.4651 -0.5370  0.2136
  905MOL0     C24820   0.379   8.306   2.076 -0.6104 -0.3800 -0.1459
  905MOL0     H24821   0.477   7.647   1.969 -0.8464 -0.5535 -0.2722
  905MOL0     H24822   0.314   7.499   1.876 -0.0670  0.3176  2.1585
  905MOL0     H24823   0.096   7.445   1.824 -1.7279  1.9552  0.2820
  905MOL0     H24824   0.156   7.375   1.680 -0.0994 -1.0556  0.9560
  905MOL0     H24825  -0.122   7.526   1.662  0.1960  0.0961 -1.5157
  905MOL0     H24826  -0.062   7.385   1.576  0.5415 -0.7459  0.1598
  905MOL0     H24827  -0.115   7.391   1.884  3.0881  0.3407  0.2178
  905MOL0     H24828  -0.235   7.340   1.768 -0.2644  0.0554 -0.7575
  905MOL0     H24829  -0.094   7.145   1.694 -0.7209  0.1703  0.7094
  905MOL0     H24830   0.032   7.193   1.808  0.0143  1.7569  1.2526
  905MOL0     H24831  -0.118   7.174   1.991  1.1293  0.2260 -0.4386
  905MOL0     H24832  -0.091   7.023   1.922  0.4730  0.1186  1.3579
  905MOL0     H24833  -0.356   7.167   1.891 -2.1504 -2.1910  0.5849
  905MOL0     H24834  -0.292   7.049   1.770 -0.4617  0.2891 -1.2005
  905MOL0     H24835  -0.352   7.008   2.058 -1.4165  0.3718 -1.1492
  905MOL0     H24836  -0.226   6.904   1.972  1.8447  1.1231 -0.3955
  905MOL0     H24837  -0.405   6.827   1.811 -1.2529  0.0598  0.3236
  905MOL0     H24838  -0.462   6.815   1.980 -0.6376 -0.0361  1.0032
  905MOL0     H24839  -0.674   6.907   2.039  1.0974 -1.0025  0.4935
  905MOL0     H24840  -0.897   7.077   2.040  2.2076 -0.5993  1.2326
  905MOL0     H24841  -0.914   7.160   1.880 -1.0620  1.4706  1.9825
  905MOL0     H24842  -0.751   7.283   2.115  2.1396 -0.6721 -1.4629
  905MOL0     H24843  -0.778   7.333   1.946  0.8678 -2.2980 -0.9980
  905MOL0     H24844  -1.015   7.377   1.991  1.3481 -0.6242 -1.5341
  905MOL0     H24845  -1.024   7.282   2.133  0.2497  0.2328  0.0554
  905MOL0     H24846  -1.017   7.514   2.204  1.1614  2.6212 -0.4458
  905MOL0     H24847  -0.882   7.425   2.262  1.0433  1.0125  0.1526
  905MOL0     H24848  -0.865   7.603   2.381 -0.7971  0.9033  0.4846
  905MOL0     H24849  -0.772   7.845   2.594 -0.1402  0.9979 -1.2376
  905MOL0     H24850  -0.694   7.678   2.604  1.4726  3.9029  0.1362
  905MOL0     H24851  -0.873   7.699   2.564 -0.5305  0.7882  0.8850
  905MOL0     H24852  -0.354   8.229   2.228 -1.0588 -1.6029  0.1150
  905MOL0     H24853  -0.314   8.447   2.323  1.0665  2.5006  3.3341
  905MOL0     H24854  -0.632   8.573   2.523  0.5154 -1.9668  1.0441
  905MOL0     H24855  -0.565   8.607   2.677  1.8201 -2.2160 -0.3106
  905MOL0     H24856  -0.614   8.816   2.610  1.8381  0.8863  2.4868
  905MOL0     H24857  -0.443   8.802   2.584 -0.6516 -1.4912  1.6347
  905MOL0     H24858  -0.572   8.706   2.344 -1.6908 -0.7438  3.4961
  905MOL0     H24859  -0.440   8.823   2.364  0.1213  0.0103  1.6691
  905MOL0     H24860  -0.636   9.008   2.413 -1.6764  3.2380 -5.1594
  905MOL0     H24861  -0.742   8.863   2.394  0.1629  0.1882 -0.0345
  905MOL0     H24862  -0.554   8.984   2.172  0.2277 -1.4994 -1.1165
  905MOL0     H24863  -0.678   8.860   2.166  1.5328 -2.0711  2.3830
  905MOL0     H24864  -0.724   9.163   2.208 -1.1855  0.5727 -1.9575
  905MOL0     H24865  -0.831   9.054   2.284  0.5669 -1.9374  0.2341
  905MOL0     H24866  -0.822   8.957   2.028  2.8657 -0.3841  1.3335
  905MOL0     H24867  -0.765   9.129   2.002 -4.2186 -0.4123 -3.9864
  905MOL0     H24868  -1.035   9.065   2.121  0.6299  0.8433  1.9919
  905MOL0     H24869  -1.000   9.112   1.962 -0.4665  1.3176 -1.3133
  905MOL0     H24870  -0.614   8.382   2.633  3.1701  0.9445  2.3906
  905MOL0     H24871  -0.637   8.158   2.558  0.8319  1.3712  1.4413
  905MOL0     H24872  -0.530   7.865   2.154 -0.5180 -0.0994 -0.1166
  905MOL0     H24873  -0.659   7.709   2.030 -2.9550  1.5381 -0.9124
  905MOL0     H24874   0.151   7.829   1.637  1.3776  0.7433 -2.0391
  905MOL0     H24875   0.321   7.972   1.745  3.0480  0.0599  0.2183
  905MOL0     H24876   0.722   7.981   2.003  2.5364  1.0593  0.6489
  905MOL0     H24877   0.873   8.122   2.112  0.4351  1.4401  0.6206
  905MOL0     H24878   0.964   8.342   2.065 -2.1670  0.5862  0.0395
  905MOL0     H24879   0.944   8.501   2.120  0.4799  1.5937  1.5080
  905MOL0     H24880   1.057   8.308   2.316  2.2243  0.5613  0.9607
  905MOL0     H24881   1.068   8.484   2.315  0.6114 -0.5560  0.7495
  905MOL0     H24882   1.278   8.418   2.233  0.6753 -2.1063 -0.8833
  905MOL0     H24883   1.215   8.285   2.138 -0.0896  0.2078 -5.2747
  905MOL0     H24884   1.122   8.459   1.978 -0.4252  0.1009  1.3141
  905MOL0     H24885   1.300   8.444   1.984 -1.5074  0.0311 -2.5433
  905MOL0     H24886   1.247   8.826   2.122 -3.5268 -0.6224  1.1402
  905MOL0     H24887   0.595   8.419   2.190 -0.8431 -0.2153  0.6703
  905MOL0     H24888   0.315   8.284   1.990 -1.5096 -1.6871  0.8139
  905MOL0     H24889   0.329   8.264   2.164 -0.6911 -2.0977 -0.9673
  905MOL0     H24890   0.374   8.414   2.091 -3.0610 -0.5956  1.1888
  906MOL0     O24891   7.659   8.078   4.980 -0.3096 -0.5178 -0.2879
  906MOL0     C24892   7.612   7.995   4.896 -0.1078  0.1298 -0.0693
  906MOL0     O24893   7.527   8.027   4.798 -0.4688  0.1668 -0.1743
  906MOL0     C24894   7.481   8.152   4.799 -0.5369 -0.2722 -0.3448
  906MOL0     C24895   7.398   8.196   4.908  0.8152  0.6997 -0.0539
  906MOL0     C24896   7.349   8.326   4.923  0.4190 -0.2706  0.1614
  906MOL0     C24897   7.389   8.424   4.819  0.4811  0.6564  0.0432
  906MOL0     O24898   7.356   8.559   4.817  0.4613  0.5188  0.1222
  906MOL0     C24899   7.286   8.620   4.929  0.5830 -0.7012  0.0322
  906MOL0     C24900   7.134   8.606   4.915  0.0991  0.3343  1.0937
  906MOL0     C24901   7.063   8.688   5.023  0.2296  0.2760  0.8021
  906MOL0     C24902   7.053   8.623   5.158  0.1834  0.5911 -0.5514
  906MOL0     C24903   6.987   8.717   5.264 -0.0908 -0.7215  0.7648
  906MOL0     C24904   7.007   8.666   5.403  0.2625 -0.7247  0.6659
  906MOL0     C24905   7.134   8.729   5.472  0.7245 -0.3275 -0.3878
  906MOL0     C24906   7.125   8.725   5.632 -1.1601  0.3510  0.8236
  906MOL0     N24907   7.022   8.828   5.680  0.2187  0.6488  0.1576
  906MOL0     C24908   7.025   8.963   5.648  0.0200  0.8941 -0.6231
  906MOL0     C24909   6.896   8.993   5.664  0.9561 -0.1922 -0.2097
  906MOL0     C24910   6.841   9.128   5.637 -0.5311  0.4014 -0.0988
  906MOL0     C24911   6.690   9.145   5.637 -0.0229 -0.1201 -0.6182
  906MOL0     C24912   6.660   9.290   5.630  0.0257 -0.4271 -0.2186
  906MOL0     C24913   6.518   9.323   5.596  0.2295 -0.1066  0.2664
  906MOL0     O24914   6.469   9.272   5.476 -0.0651 -0.4366 -0.3498
  906MOL0     C24915   6.351   9.333   5.450  0.0395 -0.5985  0.5778
  906MOL0     C24916   6.350   9.465   5.400  0.6505 -0.0477 -0.3320
  906MOL0     C24917   6.225   9.530   5.367  0.4538  0.7244 -0.4898
  906MOL0     C24918   6.227   9.667   5.320  0.2755  0.1971  0.0030
  906MOL0     C24919   6.103   9.452   5.378  0.6089  0.8123  0.2163
  906MOL0     C24920   5.962   9.507   5.345  0.3799  0.4337  0.1851
  906MOL0     O24921   5.859   9.443   5.406  1.1823  0.6748  0.2033
  906MOL0     C24922   5.730   9.489   5.392 -0.4232 -1.1768 -0.8377
  906MOL0     C24923   5.640   9.471   5.503 -0.1686  0.8454  0.2207
  906MOL0     C24924   5.499   9.492   5.487  0.2342  0.0287  0.5855
  906MOL0     C24925   5.441   9.525   5.365  0.6303  0.0681  0.0579
  906MOL0     O24926   5.308   9.553   5.366 -0.2613 -0.9493 -0.8133
  906MOL0     C24927   5.262   9.630   5.243 -0.3676 -0.5012 -0.4674
  906MOL0     C24928   5.111   9.662   5.246 -0.7250  0.9937 -0.2880
  906MOL0     C24929   5.084   9.749   5.372 -0.7137 -0.0714 -0.5787
  906MOL0     C24930   4.942   9.807   5.383 -0.1090  0.3981  0.1598
  906MOL0     C24931   4.919   9.846   5.529 -0.0570  0.2290  0.1085
  906MOL0     C24932   4.773   9.874   5.546 -0.5269 -1.3406 -0.4204
  906MOL0     C24933   4.738   9.911   5.689  0.5668 -0.3234  0.4404
  906MOL0     C24934   4.590   9.956   5.685  0.5340 -0.2863  0.3979
  906MOL0    Cl24935   4.515   9.972   5.857  0.2301  0.5497  0.2078
  906MOL0     C24936   5.530   9.526   5.255 -0.7729 -1.3272  0.4541
  906MOL0     C24937   5.667   9.506   5.269  0.6350 -0.3010 -0.3360
  906MOL0     O24938   5.949   9.604   5.281 -0.6935 -0.7955  0.5608
  906MOL0     C24939   6.109   9.315   5.428 -0.0228  0.4678 -0.6263
  906MOL0     C24940   6.236   9.255   5.462 -0.0078 -0.5331 -0.7824
  906MOL0     N24941   6.821   8.890   5.717 -0.2928 -0.4686  0.6924
  906MOL0     N24942   6.897   8.785   5.714  0.1723 -0.6089 -0.3780
  906MOL0     C24943   7.473   8.384   4.714  0.2717  1.0638  0.2091
  906MOL0     C24944   7.514   8.246   4.702  0.3943 -0.8161 -0.1244
  906MOL0     C24945   7.655   7.852   4.911 -0.2243 -0.9610  0.4236
  906MOL0     C24946   7.779   7.838   4.968  0.3849 -0.1109  0.2449
  906MOL0     C24947   7.828   7.713   4.987  0.8245 -0.2725  1.0076
  906MOL0     C24948   7.776   7.594   4.936 -0.1060 -0.5499 -0.0253
  906MOL0     O24949   7.827   7.472   4.955 -0.2235  0.2239  0.1841
  906MOL0     C24950   7.850   7.397   4.827 -0.2720 -0.2411 -0.5656
  906MOL0     C24951   7.993   7.325   4.829 -0.5886  0.8928  0.4495
  906MOL0     C24952   8.029   7.245   4.703 -0.4625 -0.1851  0.5450
  906MOL0     C24953   8.003   7.313   4.576 -0.4346  0.4420 -0.4249
  906MOL0     C24954   8.065   7.246   4.459  0.5962 -0.1588  0.3772
  906MOL0     C24955   8.105   7.185   4.361 -0.2543  0.4209  0.4659
  906MOL0     C24956   7.652   7.610   4.876 -1.0207 -0.0290  0.1479
  906MOL0     C24957   7.585   7.737   4.876 -0.1246  0.0394 -0.2161
  906MOL0     C24958   7.446   7.732   4.826  0.7773 -0.6406 -0.3590
  906MOL0     H24959   7.369   8.143   4.998 -2.8049  3.3480  0.5637
  906MOL0     H24960   7.286   8.351   5.007  0.2945  1.0125 -0.2809
  906MOL0     H24961   7.307   8.727   4.937  0.9061 -0.5801 -1.7922
  906MOL0     H24962   7.321   8.577   5.023  1.4894 -1.5866 -0.6833
  906MOL0     H24963   7.100   8.636   4.815 -0.7451  0.0477  1.2930
  906MOL0     H24964   7.103   8.502   4.925  1.7911 -0.0352  3.2817
  906MOL0     H24965   7.109   8.784   5.045 -1.8095  0.9612  2.4043
  906MOL0     H24966   6.963   8.717   4.989  0.2401  0.7887  1.2069
  906MOL0     H24967   6.992   8.532   5.154  4.2821 -2.4010 -0.3174
  906MOL0     H24968   7.154   8.593   5.184 -0.3270 -3.3940 -2.4771
  906MOL0     H24969   6.882   8.712   5.234  0.6432 -1.1816 -1.9583
  906MOL0     H24970   7.021   8.820   5.253  0.0902 -0.9406 -1.1151
  906MOL0     H24971   6.922   8.678   5.470  1.0764 -0.4338  1.6766
  906MOL0     H24972   7.024   8.558   5.399  0.6142 -0.6325 -0.6921
  906MOL0     H24973   7.145   8.832   5.435 -0.9615 -0.6567 -1.9730
  906MOL0     H24974   7.217   8.678   5.425  1.4022  0.5513 -0.1806
  906MOL0     H24975   7.095   8.624   5.662 -2.1812  0.4422  0.1521
  906MOL0     H24976   7.230   8.738   5.659 -0.7081  2.0994 -1.4482
  906MOL0     H24977   7.103   9.038   5.634 -0.2607  1.7236  1.7826
  906MOL0     H24978   6.885   9.164   5.544  0.5828 -2.5012 -0.8084
  906MOL0     H24979   6.888   9.188   5.716  1.0412 -0.1394 -0.5783
  906MOL0     H24980   6.637   9.099   5.553  1.0252 -2.0591 -0.2851
  906MOL0     H24981   6.651   9.096   5.727  0.9711 -0.4808 -0.3602
  906MOL0     H24982   6.672   9.333   5.730  1.5314  1.6340 -1.2266
  906MOL0     H24983   6.723   9.345   5.560 -1.2068  1.9732  0.4767
  906MOL0     H24984   6.452   9.290   5.676 -2.1429 -0.3258 -1.6511
  906MOL0     H24985   6.518   9.432   5.599 -0.2543 -0.0784 -0.5317
  906MOL0     H24986   6.445   9.515   5.388 -0.6940  3.7158  2.4790
  906MOL0     H24987   6.312   9.713   5.370  0.6576 -2.4570  1.9804
  906MOL0     H24988   6.143   9.729   5.353  1.2759  1.0420  1.0024
  906MOL0     H24989   6.239   9.669   5.211 -1.7012 -1.0673 -0.3005
  906MOL0     H24990   5.677   9.444   5.602 -2.7930  0.5650  1.1879
  906MOL0     H24991   5.440   9.488   5.578 -0.3919 -1.5874  0.1482
  906MOL0     H24992   5.330   9.713   5.226 -2.6222  1.3094 -1.1414
  906MOL0     H24993   5.271   9.561   5.159  1.3976 -1.7497  0.6856
  906MOL0     H24994   5.066   9.725   5.168 -2.9094  3.0062  2.4152
  906MOL0     H24995   5.051   9.572   5.261 -0.9390  1.2774  0.6155
  906MOL0     H24996   5.162   9.823   5.390 -0.4370  0.2784 -2.9265
  906MOL0     H24997   5.097   9.675   5.451  0.2616  1.3356  0.6183
  906MOL0     H24998   4.868   9.730   5.360 -0.3854  0.6822  0.0943
  906MOL0     H24999   4.936   9.903   5.331  0.3461  2.1801  3.1711
  906MOL0     H25000   4.937   9.750   5.580  0.5625 -1.2890 -2.7396
  906MOL0     H25001   4.986   9.927   5.557 -1.0990  0.0740  3.5199
  906MOL0     H25002   4.703   9.795   5.518 -1.3292 -0.4837 -0.9220
  906MOL0     H25003   4.758   9.958   5.477  0.9725  1.3040  2.2089
  906MOL0     H25004   4.804   9.991   5.722 -1.7691  1.5020  0.9278
  906MOL0     H25005   4.747   9.823   5.753  0.7916  2.1503  4.1291
  906MOL0     H25006   4.522   9.898   5.621 -1.7071  5.0378 -2.7304
  906MOL0     H25007   4.593  10.058   5.645 -1.2529 -0.0012  0.9081
  906MOL0     H25008   5.500   9.552   5.154 -2.3178 -1.8962  0.7501
  906MOL0     H25009   5.736   9.503   5.186 -0.5979 -0.7550 -1.3801
  906MOL0     H25010   6.019   9.258   5.449 -1.9658  3.1127 -1.3381
  906MOL0     H25011   6.230   9.153   5.498  2.8782  0.2092  2.2628
  906MOL0     H25012   7.509   8.445   4.632  1.1558 -2.6104 -2.3795
  906MOL0     H25013   7.576   8.213   4.620 -0.6692  1.2074 -1.8161
  906MOL0     H25014   7.841   7.922   4.999  2.3059 -1.1665 -0.5754
  906MOL0     H25015   7.922   7.705   5.043 -0.1819 -0.4834  2.7458
  906MOL0     H25016   7.784   7.310   4.823  0.6977 -1.0029 -0.4366
  906MOL0     H25017   7.838   7.450   4.732 -1.9677 -1.5513 -1.1444
  906MOL0     H25018   7.993   7.259   4.916 -1.4088  1.8391  1.1957
  906MOL0     H25019   8.075   7.398   4.835  0.0026  0.6419 -2.8817
  906MOL0     H25020   8.134   7.213   4.702  0.1006  1.5973  0.6512
  906MOL0     H25021   7.991   7.142   4.699  0.7465 -0.6172 -1.3316
  906MOL0     H25022   8.048   7.412   4.581  1.1235 -0.2344 -0.5549
  906MOL0     H25023   7.895   7.320   4.561 -0.6520 -1.2866  0.1328
  906MOL0     H25024   8.157   7.120   4.293 -0.9949  0.8596 -0.5462
  906MOL0     H25025   7.606   7.516   4.849 -1.0294 -1.0678  3.3101
  906MOL0     H25026   7.403   7.633   4.807 -0.2658 -0.6092  1.5653
  906MOL0     H25027   7.388   7.782   4.904  2.7488 -0.5306  1.1281
  906MOL0     H25028   7.430   7.792   4.735 -2.9899  0.2768  0.7483
  907MOL0     O25029   4.467   5.018   2.013 -0.5416 -0.2861 -0.4927
  907MOL0     C25030   4.456   5.139   1.972  0.4033  1.0433 -0.1123
  907MOL0     O25031   4.347   5.223   1.990 -0.3342 -0.3549  0.0895
  907MOL0     C25032   4.236   5.175   2.049 -0.4233 -0.1083  0.5923
  907MOL0     C25033   4.178   5.250   2.150 -0.0312  0.0032 -0.1951
  907MOL0     C25034   4.059   5.203   2.208 -0.0693  0.4925  0.0129
  907MOL0     C25035   4.007   5.079   2.177  0.7284  0.0772 -0.1686
  907MOL0     O25036   3.895   5.039   2.246 -0.4191  0.3471  0.1997
  907MOL0     C25037   3.816   4.936   2.189 -0.0161  0.2541  1.1965
  907MOL0     C25038   3.701   4.912   2.299 -0.5550  0.4598 -0.4502
  907MOL0     C25039   3.621   5.043   2.330 -0.1152 -0.4248  0.3577
  907MOL0     C25040   3.504   5.010   2.417 -0.5790  0.2295  0.4960
  907MOL0     C25041   3.480   5.114   2.525  0.1763 -0.3194  0.3840
  907MOL0     C25042   3.393   5.063   2.639 -0.4445 -0.3238  0.7858
  907MOL0     C25043   3.396   5.156   2.768 -0.1355  1.0876 -0.2560
  907MOL0     C25044   3.295   5.110   2.875  0.3003 -0.2454  1.2758
  907MOL0     N25045   3.334   5.150   3.007  0.0063  0.0684  0.6359
  907MOL0     C25046   3.360   5.283   3.039  0.1146  0.0529 -0.6006
  907MOL0     C25047   3.366   5.283   3.176  0.5980 -0.6273  0.5212
  907MOL0     C25048   3.393   5.414   3.250  0.0782  0.9160  0.4464
  907MOL0     C25049   3.548   5.449   3.250  0.1374  1.7135 -0.2948
  907MOL0     C25050   3.631   5.361   3.344  0.0169  0.2343  0.0938
  907MOL0     C25051   3.578   5.319   3.478  0.2637 -0.9491 -0.2722
  907MOL0     O25052   3.542   5.435   3.560 -0.8575 -0.1636  0.0719
  907MOL0     C25053   3.650   5.501   3.626 -0.2100  0.0853 -0.2406
  907MOL0     C25054   3.617   5.606   3.707  0.8638 -0.8249  0.0098
  907MOL0     C25055   3.694   5.685   3.792 -1.0335  0.2585 -0.0382
  907MOL0     C25056   3.630   5.789   3.882  0.6142  0.8795  0.2995
  907MOL0     C25057   3.838   5.671   3.776  0.5063 -0.5403  0.9062
  907MOL0     C25058   3.931   5.757   3.849  0.0768 -0.0038 -0.4910
  907MOL0     O25059   4.058   5.719   3.826 -0.4313 -0.6069  0.4405
  907MOL0     C25060   4.165   5.772   3.881 -0.2012  0.5314  0.0649
  907MOL0     C25061   4.273   5.686   3.872  0.3833  0.5497 -0.1655
  907MOL0     C25062   4.403   5.724   3.914 -0.2332  0.2348 -0.3645
  907MOL0     C25063   4.428   5.849   3.973  0.5024 -1.2998  0.8441
  907MOL0     O25064   4.557   5.876   4.018  0.0229  0.4868  0.2229
  907MOL0     C25065   4.593   6.003   4.066 -0.3802 -0.5182 -0.0753
  907MOL0     C25066   4.740   6.012   4.133  0.0662  0.1797  0.0238
  907MOL0     C25067   4.850   5.996   4.028  0.0661 -0.0262 -0.8941
  907MOL0     C25068   4.953   5.889   4.061 -0.2546 -0.2214  0.8855
  907MOL0     C25069   5.050   5.892   3.931 -0.1126  0.2378  0.8432
  907MOL0     C25070   5.145   5.766   3.912  0.8195  0.0947 -0.1279
  907MOL0     C25071   5.076   5.632   3.900 -0.2222  0.5870 -0.3092
  907MOL0     C25072   5.173   5.537   3.838  0.1325 -0.0993  0.0586
  907MOL0    Cl25073   5.168   5.554   3.657 -0.3995 -0.4107 -0.2477
  907MOL0     C25074   4.318   5.930   3.999  0.1218  0.2923  0.0533
  907MOL0     C25075   4.185   5.891   3.954  0.5274 -0.3982  0.0571
  907MOL0     O25076   3.902   5.850   3.916  0.8449 -0.6280  0.3908
  907MOL0     C25077   3.879   5.562   3.698 -0.0963 -0.6402 -0.7019
  907MOL0     C25078   3.789   5.479   3.629 -0.4218  0.0674  0.6505
  907MOL0     N25079   3.340   5.156   3.215  0.5049 -0.2935  0.6628
  907MOL0     N25080   3.325   5.073   3.118  0.8696  1.2720 -0.7551
  907MOL0     C25081   4.056   5.014   2.064 -0.3970  0.5279 -0.6526
  907MOL0     C25082   4.170   5.056   2.000 -0.4112 -0.3283 -0.0749
  907MOL0     C25083   4.564   5.203   1.905  0.0383 -0.2408  0.1980
  907MOL0     C25084   4.595   5.335   1.932 -0.6862 -0.2944 -0.4843
  907MOL0     C25085   4.713   5.394   1.874  0.2907  0.4158 -0.2817
  907MOL0     C25086   4.796   5.322   1.783  0.1867  0.3032 -0.8828
  907MOL0     O25087   4.906   5.372   1.720 -1.1760 -0.3896  0.6772
  907MOL0     C25088   4.964   5.505   1.767  0.1949 -0.6690 -0.2905
  907MOL0     C25089   5.042   5.473   1.891 -0.7271  0.1986  0.6350
  907MOL0     C25090   5.149   5.368   1.856  0.3055 -0.2611  0.3668
  907MOL0     C25091   5.236   5.325   1.986 -0.4358 -0.7401  0.0728
  907MOL0     C25092   5.287   5.436   2.068  0.7025  1.2191 -0.1723
  907MOL0     C25093   5.315   5.525   2.146  0.7808 -0.0720 -0.7536
  907MOL0     C25094   4.749   5.195   1.747 -0.9859  0.9248 -0.6939
  907MOL0     C25095   4.636   5.134   1.805 -0.2891 -0.0735  0.9751
  907MOL0     C25096   4.591   4.996   1.754 -0.1523 -0.9037  0.2397
  907MOL0     H25097   4.219   5.346   2.180 -0.6205  0.3426 -0.4732
  907MOL0     H25098   4.011   5.266   2.282 -2.3332  0.4203 -1.3215
  907MOL0     H25099   3.872   4.842   2.183  1.4732  1.1844  0.0792
  907MOL0     H25100   3.776   4.955   2.089  4.4108  0.7362 -0.6952
  907MOL0     H25101   3.630   4.838   2.261  0.2661 -2.2660  2.8765
  907MOL0     H25102   3.740   4.862   2.388 -0.6650  0.6803 -0.2763
  907MOL0     H25103   3.684   5.111   2.387 -0.4385  0.9929 -0.9215
  907MOL0     H25104   3.589   5.092   2.238 -0.5618 -1.3572 -0.0045
  907MOL0     H25105   3.413   5.018   2.357 -0.5222 -2.1007  0.0235
  907MOL0     H25106   3.511   4.907   2.452 -2.2727  0.4593  1.6553
  907MOL0     H25107   3.442   5.210   2.491  0.0181 -0.2630  0.7195
  907MOL0     H25108   3.580   5.128   2.567  1.3526 -2.3229 -1.5407
  907MOL0     H25109   3.287   5.064   2.612 -0.6033 -0.1740  1.3805
  907MOL0     H25110   3.419   4.961   2.670  2.1687  0.0457  0.0551
  907MOL0     H25111   3.391   5.263   2.745 -2.2226  0.8327 -1.2129
  907MOL0     H25112   3.494   5.154   2.818 -0.9677  3.8438  1.7297
  907MOL0     H25113   3.200   5.155   2.842 -0.1855 -2.2378 -0.2572
  907MOL0     H25114   3.266   5.005   2.875 -0.3548 -0.1952 -2.1351
  907MOL0     H25115   3.398   5.362   2.975  1.7652 -0.5698 -0.4579
  907MOL0     H25116   3.350   5.431   3.349  1.8086  3.2180  0.9157
  907MOL0     H25117   3.347   5.490   3.186 -0.4670  2.7981  2.9313
  907MOL0     H25118   3.581   5.427   3.148  2.2620 -0.0788  0.6975
  907MOL0     H25119   3.569   5.553   3.277  0.3060  1.3044  1.2924
  907MOL0     H25120   3.650   5.276   3.278 -0.9046  0.9433 -1.1389
  907MOL0     H25121   3.722   5.415   3.371  0.9264 -1.2959  0.1961
  907MOL0     H25122   3.500   5.244   3.465 -1.6042  1.1475 -1.9523
  907MOL0     H25123   3.654   5.269   3.538  2.2526  2.0920 -0.0178
  907MOL0     H25124   3.510   5.623   3.701  0.1379 -4.5061  0.4770
  907MOL0     H25125   3.662   5.787   3.986 -0.6575 -1.6523  0.6999
  907MOL0     H25126   3.522   5.771   3.886  1.0134 -3.0436 -2.0958
  907MOL0     H25127   3.648   5.889   3.840  1.3896  0.6309  0.0173
  907MOL0     H25128   4.262   5.592   3.818  1.9091  0.5924 -0.6012
  907MOL0     H25129   4.487   5.659   3.889 -1.1876 -0.6882 -1.2706
  907MOL0     H25130   4.590   6.068   3.978 -0.6824  1.4879  1.3594
  907MOL0     H25131   4.521   6.043   4.137 -0.7203  3.3843 -2.3298
  907MOL0     H25132   4.751   6.101   4.195 -1.4313  1.8777 -1.9747
  907MOL0     H25133   4.758   5.923   4.193  2.3007  2.3942  2.9107
  907MOL0     H25134   4.892   6.097   4.025 -0.8390  0.3379 -1.8705
  907MOL0     H25135   4.813   5.981   3.927  0.3725  0.5537 -1.0961
  907MOL0     H25136   4.905   5.791   4.071 -0.5412 -0.2459 -0.6446
  907MOL0     H25137   4.998   5.917   4.157 -3.1420 -2.0462  2.9489
  907MOL0     H25138   4.970   5.891   3.857  1.1300  3.2212 -0.6905
  907MOL0     H25139   5.105   5.985   3.918 -0.0137 -0.1393 -2.0411
  907MOL0     H25140   5.205   5.769   4.003 -2.8077  1.0496  2.4380
  907MOL0     H25141   5.202   5.790   3.822 -0.6670 -0.8192 -1.3658
  907MOL0     H25142   4.989   5.649   3.836  1.5802  0.3936 -2.9644
  907MOL0     H25143   5.056   5.604   4.004  2.1013  3.1127  0.9326
  907MOL0     H25144   5.155   5.429   3.850 -1.2035  0.1225  0.1165
  907MOL0     H25145   5.273   5.552   3.881 -0.6341  0.7369  1.6462
  907MOL0     H25146   4.338   6.032   4.029  0.2554  0.1296  0.5323
  907MOL0     H25147   4.108   5.965   3.975 -0.4877 -1.4463  0.0790
  907MOL0     H25148   3.987   5.548   3.692  0.0808  0.0111  0.5575
  907MOL0     H25149   3.841   5.403   3.573  0.3751  1.2764 -0.3192
  907MOL0     H25150   4.014   4.923   2.021  1.5276 -1.2599  1.0392
  907MOL0     H25151   4.209   4.979   1.934  1.7717  1.8982 -1.5255
  907MOL0     H25152   4.560   5.393   2.017  2.0746 -0.3832  0.8065
  907MOL0     H25153   4.728   5.494   1.913  0.1772 -0.2151  1.4811
  907MOL0     H25154   5.021   5.544   1.682  1.8217 -0.4821  0.8522
  907MOL0     H25155   4.884   5.576   1.788  1.1796  0.1960  0.6847
  907MOL0     H25156   4.978   5.412   1.956 -0.1324 -2.9238 -1.4993
  907MOL0     H25157   5.084   5.566   1.931 -2.4700  0.4757  2.0220
  907MOL0     H25158   5.098   5.274   1.835 -0.5390  0.2071  0.2879
  907MOL0     H25159   5.228   5.400   1.787 -1.2070  1.8788 -0.4673
  907MOL0     H25160   5.329   5.278   1.954 -0.2038  0.7436 -1.6096
  907MOL0     H25161   5.181   5.258   2.053 -1.8554  1.5402  1.3248
  907MOL0     H25162   5.333   5.609   2.210 -1.2100  0.7728 -1.2373
  907MOL0     H25163   4.816   5.146   1.678 -0.2997  1.6607 -0.5669
  907MOL0     H25164   4.484   4.972   1.756  0.0866 -2.0320  2.2418
  907MOL0     H25165   4.620   4.988   1.649 -1.5112 -3.0513 -0.0539
  907MOL0     H25166   4.645   4.925   1.816 -0.1252 -2.3101 -1.3301
  908MOL0     O25167   6.300   5.479   2.865  0.1221  0.1635  0.6174
  908MOL0     C25168   6.293   5.355   2.870 -0.5534 -0.4388  0.6436
  908MOL0     O25169   6.197   5.277   2.812  0.0450  0.1675 -1.5334
  908MOL0     C25170   6.119   5.331   2.708  0.2608  1.3119 -0.1450
  908MOL0     C25171   5.987   5.298   2.700 -0.2682 -0.7157 -0.2980
  908MOL0     C25172   5.911   5.334   2.586 -0.1194  0.2389 -0.1268
  908MOL0     C25173   5.958   5.417   2.493  1.0999  0.2448  0.0694
  908MOL0     O25174   5.889   5.456   2.385  0.7037  0.2219 -0.8529
  908MOL0     C25175   5.747   5.460   2.385 -0.3935  0.2806  0.3085
  908MOL0     C25176   5.709   5.520   2.239  0.7981 -1.0045  0.1999
  908MOL0     C25177   5.682   5.433   2.117 -0.2236 -0.6505  0.2050
  908MOL0     C25178   5.668   5.514   1.990  0.0250  0.1792 -0.0610
  908MOL0     C25179   5.641   5.415   1.876  0.4941 -0.2219  0.0692
  908MOL0     C25180   5.769   5.342   1.813 -0.2522  0.6517  0.1099
  908MOL0     C25181   5.714   5.226   1.726  0.0446  0.1318 -0.3174
  908MOL0     C25182   5.663   5.272   1.591 -0.3523  0.3401  0.5402
  908MOL0     N25183   5.537   5.215   1.539 -0.0681 -0.8983  0.2418
  908MOL0     C25184   5.417   5.209   1.605  0.3037 -0.1580  0.5750
  908MOL0     C25185   5.343   5.128   1.522 -0.0952  0.5583  0.4660
  908MOL0     C25186   5.201   5.079   1.527  0.2319  0.2952  0.5003
  908MOL0     C25187   5.175   4.986   1.641 -0.4224 -0.0743  0.4165
  908MOL0     C25188   5.270   4.866   1.672  0.0632  0.0940  0.1277
  908MOL0     C25189   5.267   4.829   1.823 -0.4319  0.6713 -1.1593
  908MOL0     O25190   5.281   4.949   1.909 -0.2247  0.5328  0.3218
  908MOL0     C25191   5.403   4.982   1.957 -1.2093  0.4083  0.2522
  908MOL0     C25192   5.412   5.035   2.087  0.4745 -0.4093  0.0572
  908MOL0     C25193   5.536   5.061   2.143  0.4759  0.7437  0.8131
  908MOL0     C25194   5.528   5.130   2.275  0.1683 -0.6467  0.1755
  908MOL0     C25195   5.658   5.019   2.081  0.1601  0.1104  0.3327
  908MOL0     C25196   5.789   5.045   2.140 -0.5321  0.5954 -0.4383
  908MOL0     O25197   5.880   5.070   2.041  0.7236  0.3410  0.0473
  908MOL0     C25198   6.012   5.091   2.081  0.5539 -0.2153  0.1485
  908MOL0     C25199   6.107   5.008   2.042  1.0123  0.6275  0.6560
  908MOL0     C25200   6.242   5.027   2.088 -0.2895  0.5606 -0.8153
  908MOL0     C25201   6.281   5.132   2.175  0.8296  0.0661  0.3286
  908MOL0     O25202   6.410   5.159   2.211  0.1228  0.0704  0.0776
  908MOL0     C25203   6.437   5.256   2.314 -0.3442  1.5235 -0.1100
  908MOL0     C25204   6.586   5.272   2.313 -0.2389 -0.9396 -0.2296
  908MOL0     C25205   6.650   5.135   2.360 -0.4695  0.0550 -0.6590
  908MOL0     C25206   6.804   5.155   2.386  0.6027  0.5338 -0.5369
  908MOL0     C25207   6.883   5.179   2.247 -0.0539 -0.1358  0.3643
  908MOL0     C25208   6.938   5.322   2.239  0.7696 -1.0775 -0.8507
  908MOL0     C25209   6.982   5.376   2.096 -0.3098 -0.0161 -0.0030
  908MOL0     C25210   7.014   5.516   2.079  0.3541  0.0773  1.1446
  908MOL0    Cl25211   6.882   5.624   2.163  0.4262  0.4182 -0.2793
  908MOL0     C25212   6.173   5.214   2.217 -0.3883  0.7313 -0.3950
  908MOL0     C25213   6.041   5.200   2.168 -0.5740 -0.7402  1.2675
  908MOL0     O25214   5.822   5.016   2.258  0.3605 -0.2398 -0.1220
  908MOL0     C25215   5.641   4.953   1.959  0.2706  0.4224  0.1535
  908MOL0     C25216   5.521   4.943   1.884 -0.5173  0.3852 -0.7247
  908MOL0     N25217   5.410   5.095   1.408 -0.5913 -0.0933  1.0408
  908MOL0     N25218   5.528   5.153   1.418 -0.4659  0.3785  0.3238
  908MOL0     C25219   6.096   5.448   2.502 -1.0311 -0.4365 -1.1123
  908MOL0     C25220   6.174   5.410   2.613 -0.4302  0.3993  0.5180
  908MOL0     C25221   6.386   5.293   2.960  0.2738  0.7944 -0.1408
  908MOL0     C25222   6.361   5.335   3.088 -0.0131 -0.7381  0.4066
  908MOL0     C25223   6.446   5.283   3.187  0.9615  0.4677  0.3848
  908MOL0     C25224   6.541   5.177   3.155  0.4306  0.2814 -0.9240
  908MOL0     O25225   6.603   5.117   3.264  0.6609 -0.7929  0.4637
  908MOL0     C25226   6.700   5.019   3.234  0.6139  0.3828  0.6664
  908MOL0     C25227   6.740   4.946   3.363  0.0224  0.0751 -0.7605
  908MOL0     C25228   6.776   5.037   3.485 -0.2680  0.3550 -1.1401
  908MOL0     C25229   6.830   4.960   3.611  0.2787  0.6274  0.5900
  908MOL0     C25230   6.889   5.062   3.699  0.2271 -0.2445 -0.1057
  908MOL0     C25231   6.953   5.154   3.756 -0.4658  0.6630  0.9572
  908MOL0     C25232   6.573   5.153   3.014  0.4153 -0.0959 -0.1916
  908MOL0     C25233   6.499   5.219   2.918  0.0443  0.2237  0.7082
  908MOL0     C25234   6.525   5.195   2.773 -0.0351  0.8067 -0.3176
  908MOL0     H25235   5.948   5.232   2.777  0.4645 -1.1861 -0.3255
  908MOL0     H25236   5.813   5.288   2.577 -0.2002  0.6053 -1.3933
  908MOL0     H25237   5.703   5.521   2.465  2.0740  0.6034  1.5149
  908MOL0     H25238   5.715   5.359   2.411 -1.8069  1.5240  4.1030
  908MOL0     H25239   5.619   5.581   2.252 -0.6197 -3.3307  2.0627
  908MOL0     H25240   5.787   5.594   2.218 -0.3550  1.6049  4.0190
  908MOL0     H25241   5.768   5.367   2.102  0.5349  0.4035 -0.2194
  908MOL0     H25242   5.595   5.369   2.133 -1.9376  1.0579 -1.8930
  908MOL0     H25243   5.587   5.584   2.009 -0.1455 -0.8210  3.4341
  908MOL0     H25244   5.754   5.578   1.968 -0.9833  0.9561 -2.0824
  908MOL0     H25245   5.587   5.466   1.795  2.6382  1.9639 -0.1160
  908MOL0     H25246   5.571   5.343   1.919  0.2134  1.2852  2.3004
  908MOL0     H25247   5.828   5.410   1.750 -1.1983  0.7617 -0.6858
  908MOL0     H25248   5.826   5.295   1.893 -0.3033  2.4358  1.2417
  908MOL0     H25249   5.637   5.168   1.779  0.8464 -0.2107  0.4815
  908MOL0     H25250   5.783   5.143   1.710 -3.3340 -2.4580 -3.3195
  908MOL0     H25251   5.647   5.379   1.579 -1.0272  0.1160 -0.8141
  908MOL0     H25252   5.744   5.245   1.522 -2.6169  0.6678 -2.4903
  908MOL0     H25253   5.379   5.250   1.698 -1.1868 -1.0690  0.4029
  908MOL0     H25254   5.170   5.026   1.437  0.8559  2.2043 -0.8949
  908MOL0     H25255   5.137   5.167   1.539  0.2156  0.2095  1.1021
  908MOL0     H25256   5.165   5.040   1.736 -2.8762 -2.9827  2.0228
  908MOL0     H25257   5.075   4.942   1.629 -0.6019 -0.8056  3.5175
  908MOL0     H25258   5.241   4.780   1.610  1.2044  1.6194 -2.6942
  908MOL0     H25259   5.372   4.888   1.640 -0.5188  4.2721  0.6479
  908MOL0     H25260   5.175   4.773   1.839  0.5793 -0.6593  0.2895
  908MOL0     H25261   5.347   4.759   1.849 -0.7112  0.5491 -0.6193
  908MOL0     H25262   5.329   5.062   2.151 -1.2763 -2.1332 -1.3566
  908MOL0     H25263   5.533   5.056   2.355  0.8323  0.2441  0.9800
  908MOL0     H25264   5.434   5.186   2.277 -0.3433 -1.3176 -2.0119
  908MOL0     H25265   5.609   5.195   2.308 -0.2240  0.2261 -0.5349
  908MOL0     H25266   6.075   4.920   1.986  1.5372  0.7253  0.1890
  908MOL0     H25267   6.316   4.954   2.058  2.1550  3.1916 -1.6113
  908MOL0     H25268   6.380   5.344   2.283 -4.7681 -1.4769 -1.3644
  908MOL0     H25269   6.409   5.223   2.415  2.7901 -3.2451 -0.4573
  908MOL0     H25270   6.610   5.283   2.206 -0.4929 -1.1292 -0.3069
  908MOL0     H25271   6.627   5.352   2.375 -0.4582 -1.5496  0.7176
  908MOL0     H25272   6.638   5.055   2.286 -0.9435 -0.1287 -0.3862
  908MOL0     H25273   6.600   5.109   2.454  2.6858 -1.1254  0.8431
  908MOL0     H25274   6.847   5.068   2.436  3.8124  1.1618 -1.9434
  908MOL0     H25275   6.817   5.237   2.457 -0.6403 -1.0692  1.6512
  908MOL0     H25276   6.957   5.100   2.230 -0.1199  0.2319 -2.0873
  908MOL0     H25277   6.815   5.162   2.162  0.1710 -0.8807  0.3244
  908MOL0     H25278   7.023   5.329   2.307  0.8873  1.8052 -1.1801
  908MOL0     H25279   6.853   5.383   2.271  0.9243 -1.1576 -0.2834
  908MOL0     H25280   6.892   5.352   2.038 -0.6542 -4.3439  1.9489
  908MOL0     H25281   7.071   5.318   2.069  0.3824 -1.0408  3.8649
  908MOL0     H25282   7.023   5.553   1.977  0.2162  2.4376  1.9216
  908MOL0     H25283   7.116   5.534   2.114  0.2183 -1.8180  2.7288
  908MOL0     H25284   6.195   5.288   2.293  2.1608  0.7057 -1.0236
  908MOL0     H25285   5.954   5.253   2.205 -1.5221  1.6104 -3.5522
  908MOL0     H25286   5.720   4.900   1.907 -0.9979 -0.9236 -0.4596
  908MOL0     H25287   5.528   4.902   1.784  1.9331  0.8214 -0.8110
  908MOL0     H25288   6.141   5.500   2.418  0.1349 -2.1805 -1.6320
  908MOL0     H25289   6.280   5.437   2.612 -0.6135  1.5730 -3.1514
  908MOL0     H25290   6.284   5.409   3.108 -0.7356 -1.3894  0.1160
  908MOL0     H25291   6.434   5.309   3.291  2.0375  1.6309  0.2435
  908MOL0     H25292   6.653   4.943   3.173  1.1738  1.1448 -0.7652
  908MOL0     H25293   6.791   5.056   3.185  0.5929  0.3555  0.6078
  908MOL0     H25294   6.830   4.887   3.343 -0.6041 -1.3535  0.3966
  908MOL0     H25295   6.651   4.888   3.390  0.8313 -2.5807 -3.3096
  908MOL0     H25296   6.843   5.121   3.468  1.8565 -0.1560  3.2270
  908MOL0     H25297   6.676   5.070   3.515  0.6431  0.7365  1.8541
  908MOL0     H25298   6.902   4.894   3.563 -1.7085  0.0919 -1.8414
  908MOL0     H25299   6.754   4.907   3.669 -0.2713 -1.1244 -1.6157
  908MOL0     H25300   7.014   5.228   3.803  1.3064 -0.4416  0.5010
  908MOL0     H25301   6.665   5.099   2.995  0.0445 -0.1706 -1.9593
  908MOL0     H25302   6.515   5.291   2.722  2.4725  1.4431  0.2748
  908MOL0     H25303   6.629   5.174   2.750  1.1053  2.0714  3.0519
  908MOL0     H25304   6.454   5.114   2.755 -0.0416  0.7430 -0.0028
  909MOL0     O25305   4.609   0.751   2.475 -0.6550 -0.2189 -0.2765
  909MOL0     C25306   4.540   0.849   2.457 -0.1063  0.1064  0.9432
  909MOL0     O25307   4.430   0.885   2.514 -0.2158  0.6874  0.0150
  909MOL0     C25308   4.432   0.848   2.644 -0.5510 -1.1220 -0.4933
  909MOL0     C25309   4.364   0.741   2.700  0.1865  0.1299  0.1752
  909MOL0     C25310   4.367   0.716   2.844  0.1714 -0.3517  0.0512
  909MOL0     C25311   4.425   0.801   2.931 -0.6824  0.1385  0.1011
  909MOL0     O25312   4.409   0.791   3.065  0.1366 -0.9460  0.0742
  909MOL0     C25313   4.531   0.811   3.146 -0.5608 -0.0291  0.5193
  909MOL0     C25314   4.556   0.678   3.212 -0.4700  0.5102  0.3432
  909MOL0     C25315   4.440   0.655   3.311 -0.6104  0.0068  0.3902
  909MOL0     C25316   4.495   0.544   3.398 -0.8689 -0.2554 -0.4696
  909MOL0     C25317   4.388   0.511   3.513 -0.9514 -0.2382  1.2476
  909MOL0     C25318   4.456   0.400   3.600  0.4342  0.6512 -0.0837
  909MOL0     C25319   4.363   0.388   3.725 -0.5314  0.6807 -0.2980
  909MOL0     C25320   4.413   0.279   3.818 -0.2484  0.0987  1.0562
  909MOL0     N25321   4.333   0.261   3.936  0.0810  0.7066  0.5951
  909MOL0     C25322   4.347   0.325   4.059  0.0197  0.1191 -0.2191
  909MOL0     C25323   4.242   0.275   4.130  0.1123 -0.3956 -0.7057
  909MOL0     C25324   4.223   0.318   4.275 -0.4104 -0.0827 -0.1943
  909MOL0     C25325   4.096   0.383   4.318 -0.2257 -0.1249  0.2851
  909MOL0     C25326   4.054   0.499   4.222  0.2034  0.6701  0.2734
  909MOL0     C25327   3.906   0.549   4.243  0.7425  0.2242  0.1822
  909MOL0     O25328   3.822   0.437   4.279  0.1230  0.2644 -0.3385
  909MOL0     C25329   3.686   0.453   4.299  0.0156 -0.2752  0.8022
  909MOL0     C25330   3.622   0.566   4.274 -0.4019  0.9591 -0.3562
  909MOL0     C25331   3.488   0.587   4.322  0.2707 -0.6462  0.1353
  909MOL0     C25332   3.421   0.716   4.284  0.3080 -0.1895 -0.4340
  909MOL0     C25333   3.429   0.489   4.399  0.5527  1.3475 -0.6823
  909MOL0     C25334   3.291   0.505   4.456 -0.5742  0.3960 -0.2928
  909MOL0     O25335   3.204   0.394   4.466 -0.0503  0.5044  0.7949
  909MOL0     C25336   3.076   0.413   4.506 -0.9218  0.2100  0.4141
  909MOL0     C25337   2.993   0.480   4.422 -0.5710  0.2979  0.4810
  909MOL0     C25338   2.855   0.508   4.459  0.6230 -0.4003 -0.0366
  909MOL0     C25339   2.814   0.467   4.589  1.6636  0.1816 -0.1058
  909MOL0     O25340   2.684   0.480   4.633 -0.4210 -0.4374  0.7240
  909MOL0     C25341   2.601   0.515   4.522 -0.0487 -0.0884  0.4823
  909MOL0     C25342   2.457   0.514   4.569 -0.3046 -0.0920  0.9970
  909MOL0     C25343   2.434   0.588   4.703 -0.2493 -0.7391  0.0238
  909MOL0     C25344   2.294   0.658   4.714 -0.2205 -0.7927 -0.1539
  909MOL0     C25345   2.282   0.751   4.836  0.0998 -1.4849 -0.7852
  909MOL0     C25346   2.327   0.892   4.808 -0.1828 -0.8742  0.5415
  909MOL0     C25347   2.299   0.996   4.917 -0.3273 -0.0846 -0.3547
  909MOL0     C25348   2.361   1.140   4.908 -0.0669 -0.9330 -0.0149
  909MOL0    Cl25349   2.291   1.241   4.778 -0.1999  0.1507  0.5068
  909MOL0     C25350   2.912   0.391   4.662  0.7075 -0.0059 -0.1017
  909MOL0     C25351   3.040   0.357   4.621  0.6974 -0.3286  0.5500
  909MOL0     O25352   3.265   0.614   4.501  0.0190  0.8056 -0.4844
  909MOL0     C25353   3.492   0.368   4.411  1.1160 -0.5554 -0.3584
  909MOL0     C25354   3.627   0.345   4.369 -1.3405  0.1855  0.1707
  909MOL0     N25355   4.174   0.177   4.069 -0.7166 -0.1622  0.1431
  909MOL0     N25356   4.233   0.168   3.950  0.0252 -0.3091  0.0602
  909MOL0     C25357   4.506   0.902   2.873 -0.3936 -0.3501 -0.3958
  909MOL0     C25358   4.508   0.929   2.734 -0.4899 -0.4341 -0.0758
  909MOL0     C25359   4.587   0.956   2.366  0.5303  0.0185  0.0790
  909MOL0     C25360   4.554   1.087   2.389  0.8207 -0.1236 -0.1404
  909MOL0     C25361   4.583   1.179   2.292  0.7006  0.8941  0.7439
  909MOL0     C25362   4.669   1.160   2.182  0.2018 -0.2570  1.3914
  909MOL0     O25363   4.713   1.266   2.105 -0.2197 -0.3199 -0.0551
  909MOL0     C25364   4.861   1.279   2.090 -0.0934 -0.7053 -0.3746
  909MOL0     C25365   4.903   1.269   1.953  1.0483  1.2982 -0.0937
  909MOL0     C25366   4.867   1.385   1.863  0.1675  0.2963 -0.9556
  909MOL0     C25367   4.863   1.344   1.713  1.0256 -0.4428 -0.4832
  909MOL0     C25368   4.782   1.430   1.623  0.1776 -0.0467 -0.2236
  909MOL0     C25369   4.727   1.508   1.546 -0.8335 -0.9763 -0.1207
  909MOL0     C25370   4.713   1.033   2.154  0.4594  0.8810  0.2461
  909MOL0     C25371   4.665   0.931   2.243  0.0542  0.7444 -0.1095
  909MOL0     C25372   4.717   0.791   2.222 -0.3588  0.3902  0.1316
  909MOL0     H25373   4.310   0.683   2.626  3.1896 -0.5134 -1.7026
  909MOL0     H25374   4.305   0.636   2.884 -2.9902  2.0724  0.4241
  909MOL0     H25375   4.503   0.890   3.217 -0.3957  1.7947 -1.3695
  909MOL0     H25376   4.620   0.842   3.090 -1.9860  2.9945 -0.2730
  909MOL0     H25377   4.561   0.596   3.141 -0.9592  1.9207 -1.3931
  909MOL0     H25378   4.658   0.684   3.251  0.2276 -0.2683 -1.2962
  909MOL0     H25379   4.423   0.749   3.365 -0.7634 -1.1866  2.5106
  909MOL0     H25380   4.356   0.619   3.252 -0.0614 -1.1145  0.2812
  909MOL0     H25381   4.517   0.454   3.339 -0.1565 -1.5036  1.6165
  909MOL0     H25382   4.587   0.566   3.452 -1.2751 -3.8836  2.0400
  909MOL0     H25383   4.295   0.474   3.467 -0.1204  0.6998 -1.4034
  909MOL0     H25384   4.378   0.595   3.582  0.8959  0.9747  0.1438
  909MOL0     H25385   4.462   0.307   3.543 -0.5900 -1.8991  3.6364
  909MOL0     H25386   4.552   0.435   3.639 -0.1076  4.1403 -1.5095
  909MOL0     H25387   4.265   0.360   3.686 -0.3085 -2.5057  1.0754
  909MOL0     H25388   4.352   0.483   3.776 -1.3076 -0.4523  1.7498
  909MOL0     H25389   4.410   0.183   3.764 -1.7960  0.5236  0.3347
  909MOL0     H25390   4.515   0.310   3.842  0.8475  1.1335 -3.8318
  909MOL0     H25391   4.420   0.402   4.085 -0.8959  0.0535  3.0251
  909MOL0     H25392   4.307   0.386   4.296  1.0199 -2.3935  2.1438
  909MOL0     H25393   4.246   0.232   4.338 -1.9496  0.0084  0.5528
  909MOL0     H25394   4.008   0.317   4.323 -1.3409  1.3884  2.1334
  909MOL0     H25395   4.112   0.429   4.416 -3.2740  2.4140 -0.2375
  909MOL0     H25396   4.119   0.586   4.238 -0.3840  0.5315  4.7363
  909MOL0     H25397   4.059   0.466   4.118  1.0197 -1.7342  1.0116
  909MOL0     H25398   3.890   0.622   4.323  1.6952  0.4624  0.1710
  909MOL0     H25399   3.877   0.589   4.145  1.5058  1.7686  0.5431
  909MOL0     H25400   3.669   0.645   4.217 -1.1908  0.9508 -1.0329
  909MOL0     H25401   3.328   0.696   4.230 -0.0230 -2.1271  0.7641
  909MOL0     H25402   3.485   0.783   4.225  1.9428  0.0764  1.5271
  909MOL0     H25403   3.404   0.782   4.370  2.1588  1.6035 -1.3434
  909MOL0     H25404   3.040   0.515   4.330  1.6978 -1.5317  0.8281
  909MOL0     H25405   2.789   0.561   4.392  0.3876 -0.4432  0.1587
  909MOL0     H25406   2.618   0.617   4.486 -1.0087 -0.5193 -1.2878
  909MOL0     H25407   2.608   0.441   4.442 -3.0350  0.7272 -0.6745
  909MOL0     H25408   2.387   0.552   4.494  0.7691  0.5387  0.2949
  909MOL0     H25409   2.431   0.410   4.593 -2.8374  0.2862  0.1677
  909MOL0     H25410   2.505   0.670   4.719 -2.7074  1.4850  0.2551
  909MOL0     H25411   2.447   0.517   4.785  2.4514  1.9116  2.1242
  909MOL0     H25412   2.210   0.588   4.716 -2.7618  1.9965 -0.4530
  909MOL0     H25413   2.271   0.721   4.627 -1.6344 -0.6623  0.2872
  909MOL0     H25414   2.181   0.758   4.877  0.0930  1.1001 -1.0632
  909MOL0     H25415   2.358   0.719   4.908  1.5087  2.2480 -0.3833
  909MOL0     H25416   2.275   0.920   4.716  4.0586  1.4153 -1.4850
  909MOL0     H25417   2.434   0.889   4.785 -0.0787  3.3043 -0.2494
  909MOL0     H25418   2.329   0.961   5.016  0.4998  0.7932 -0.2847
  909MOL0     H25419   2.191   1.018   4.919  0.0248  1.8470  0.3688
  909MOL0     H25420   2.470   1.138   4.901  0.0096  2.5773 -3.8818
  909MOL0     H25421   2.344   1.203   4.996  1.2970  0.0759 -0.4480
  909MOL0     H25422   2.875   0.351   4.755 -0.6730  2.7600  0.6562
  909MOL0     H25423   3.092   0.285   4.683 -0.3832 -3.4182 -1.8792
  909MOL0     H25424   3.442   0.282   4.454  0.7901 -1.0340 -1.6532
  909MOL0     H25425   3.674   0.249   4.387 -3.0861 -0.9100 -0.8080
  909MOL0     H25426   4.547   0.980   2.936 -1.5015  0.4664 -0.6684
  909MOL0     H25427   4.560   1.018   2.698 -0.6741 -0.7398 -1.1288
  909MOL0     H25428   4.497   1.118   2.477 -6.7591 -3.5666 -2.9317
  909MOL0     H25429   4.552   1.279   2.320  3.2832  1.4342  1.9466
  909MOL0     H25430   4.910   1.371   2.122 -0.3748 -1.5735  2.8859
  909MOL0     H25431   4.905   1.204   2.156 -0.5624 -0.4228  0.2696
  909MOL0     H25432   4.851   1.176   1.926  3.4646 -0.2763  0.3598
  909MOL0     H25433   5.012   1.260   1.942  1.3136  3.0939  0.7161
  909MOL0     H25434   4.769   1.418   1.899  1.5794  0.3625  3.3273
  909MOL0     H25435   4.937   1.467   1.877 -0.7903  0.9436  0.2739
  909MOL0     H25436   4.841   1.237   1.702 -1.8372 -0.3177  2.5136
  909MOL0     H25437   4.961   1.360   1.668  0.8353 -1.3348 -1.2565
  909MOL0     H25438   4.672   1.571   1.479 -3.1459  0.1365  2.6058
  909MOL0     H25439   4.769   1.000   2.067 -0.0684  1.1559 -0.2043
  909MOL0     H25440   4.764   0.775   2.124 -1.0063 -4.2279  0.3402
  909MOL0     H25441   4.809   0.781   2.280 -0.0673 -2.1316 -0.6492
  909MOL0     H25442   4.635   0.719   2.226 -0.0456  0.0825  2.1670
  910MOL0     O25443  11.045  11.279  11.401 -0.5622  0.0311 -0.0897
  910MOL0     C25444  11.107  11.313  11.503  0.6843 -0.9433 -0.4785
  910MOL0     O25445  11.243  11.330  11.518  0.2735 -0.1492 -0.2600
  910MOL0     C25446  11.315  11.308  11.406 -0.1900 -1.1749  0.5304
  910MOL0     C25447  11.337  11.423  11.324 -0.5227 -0.3909  0.1080
  910MOL0     C25448  11.418  11.416  11.208 -0.4355 -0.6872 -1.0766
  910MOL0     C25449  11.453  11.293  11.152  0.6948  0.5264 -0.3784
  910MOL0     O25450  11.531  11.272  11.037 -1.0910  0.2913 -0.1993
  910MOL0     C25451  11.559  11.392  10.959  0.4037  1.1060  0.1278
  910MOL0     C25452  11.646  11.364  10.845 -0.6663 -0.6831  0.1886
  910MOL0     C25453  11.601  11.239  10.770  0.1608  1.1459  0.5212
  910MOL0     C25454  11.670  11.238  10.631  0.1912 -0.4084 -0.4576
  910MOL0     C25455  11.612  11.129  10.541  0.0678 -0.0549  0.1304
  910MOL0     C25456  11.700  11.121  10.418  0.2722  0.2393  0.9063
  910MOL0     C25457  11.632  11.044  10.301 -0.0202 -0.7249  0.3183
  910MOL0     C25458  11.736  11.020  10.192 -0.9366  0.4286 -0.1111
  910MOL0     N25459  11.822  10.901  10.203 -0.5819 -0.9687  0.5192
  910MOL0     C25460  11.940  10.902  10.284 -0.6381 -0.4242 -0.4721
  910MOL0     C25461  11.966  10.771  10.288 -0.3560  0.5420 -0.4212
  910MOL0     C25462  12.090  10.694  10.329  0.5095 -0.0233  0.5556
  910MOL0     C25463  12.089  10.669  10.480 -0.1492  0.8957 -0.4217
  910MOL0     C25464  12.218  10.583  10.509  0.1870 -0.6219 -0.7477
  910MOL0     C25465  12.221  10.442  10.451  0.5137  0.6038 -1.0229
  910MOL0     O25466  12.308  10.446  10.337  0.1626  0.4461  0.3464
  910MOL0     C25467  12.321  10.319  10.275  1.2765  0.5001 -0.4588
  910MOL0     C25468  12.238  10.300  10.163 -0.5814  0.0010 -0.6190
  910MOL0     C25469  12.257  10.182  10.088  0.1590 -0.2892 -0.5118
  910MOL0     C25470  12.167  10.158   9.977  0.3238  0.5440  0.2569
  910MOL0     C25471  12.351  10.084  10.127 -0.9364  0.5208 -0.4084
  910MOL0     C25472  12.373   9.960  10.053 -0.6928  0.9794  0.1400
  910MOL0     O25473  12.391   9.966   9.910  0.2523  0.1812 -0.5126
  910MOL0     C25474  12.409   9.842   9.846  0.3648  0.5290  0.0846
  910MOL0     C25475  12.304   9.752   9.841 -0.6981  0.6962 -0.0756
  910MOL0     C25476  12.318   9.641   9.756  0.6234 -0.1177  0.4819
  910MOL0     C25477  12.435   9.598   9.694 -0.6528  0.4358  0.1097
  910MOL0     O25478  12.426   9.474   9.640  0.0368  1.2106  0.4542
  910MOL0     C25479  12.548   9.395   9.650  0.7124  1.0105  0.3815
  910MOL0     C25480  12.535   9.249   9.582  0.7096  0.3834 -0.2032
  910MOL0     C25481  12.438   9.160   9.656 -0.7461  1.0484  0.2943
  910MOL0     C25482  12.441   9.016   9.599  0.0498 -0.9535 -0.3712
  910MOL0     C25483  12.354   8.982   9.475  0.2840  0.6693  0.2123
  910MOL0     C25484  12.207   9.022   9.486 -0.0217 -0.3907  0.7307
  910MOL0     C25485  12.117   8.974   9.374  0.8134 -0.0707  0.7295
  910MOL0     C25486  12.075   8.828   9.390 -0.4582 -0.2012 -0.3258
  910MOL0    Cl25487  12.023   8.779   9.232  0.3947  0.3930  0.2955
  910MOL0     C25488  12.541   9.685   9.721  0.7951 -0.3382 -0.3338
  910MOL0     C25489  12.536   9.802   9.787 -0.3254 -1.6196  0.8497
  910MOL0     O25490  12.354   9.857  10.125 -0.3211 -0.0318  0.2663
  910MOL0     C25491  12.424  10.101  10.245 -0.4868  0.4808  0.2842
  910MOL0     C25492  12.416  10.228  10.310  0.0533  0.0699  0.4438
  910MOL0     N25493  11.871  10.705  10.216 -0.2026  0.2728 -0.0666
  910MOL0     N25494  11.791  10.777  10.152 -0.1115 -0.8561 -0.3952
  910MOL0     C25495  11.413  11.172  11.227  0.2152 -0.3085  0.3677
  910MOL0     C25496  11.351  11.183  11.352 -0.0381  0.5148 -0.6423
  910MOL0     C25497  11.027  11.380  11.616  0.5218 -0.0969  0.1966
  910MOL0     C25498  11.078  11.496  11.681  0.1277 -0.7726  0.2505
  910MOL0     C25499  11.012  11.562  11.783 -0.8553 -0.6041  0.2662
  910MOL0     C25500  10.882  11.522  11.818  0.5586  0.4856  0.5664
  910MOL0     O25501  10.816  11.590  11.921  0.0919 -0.6769  0.0371
  910MOL0     C25502  10.884  11.667  12.022 -0.5346  0.1418 -0.7162
  910MOL0     C25503  10.873  11.818  11.988 -0.8250 -0.2406 -0.3459
  910MOL0     C25504  10.949  11.901  12.091 -0.1317 -0.9768  0.8257
  910MOL0     C25505  10.907  12.048  12.102 -1.2221 -0.6295 -0.1903
  910MOL0     C25506  10.960  12.130  11.997 -0.0242 -0.1536 -0.1041
  910MOL0     C25507  10.989  12.214  11.914 -0.0722  0.5325  0.5113
  910MOL0     C25508  10.824  11.415  11.752 -0.1556 -0.1221  0.2368
  910MOL0     C25509  10.891  11.343  11.655  0.0059  0.2734 -0.0383
  910MOL0     C25510  10.833  11.216  11.604  0.2002  0.3029  0.6749
  910MOL0     H25511  11.318  11.519  11.371 -0.1737 -1.4244  2.4566
  910MOL0     H25512  11.451  11.510  11.165 -0.3359 -0.1533  0.1498
  910MOL0     H25513  11.619  11.456  11.024 -3.3493  3.7443  1.3398
  910MOL0     H25514  11.473  11.456  10.937 -2.4252 -0.6457  4.6186
  910MOL0     H25515  11.638  11.448  10.774 -1.6043 -1.2937 -0.4425
  910MOL0     H25516  11.748  11.358  10.883 -1.4362 -0.6945  2.3696
  910MOL0     H25517  11.609  11.150  10.833 -0.6942  0.6433 -0.0717
  910MOL0     H25518  11.496  11.250  10.743  0.8957  1.9110 -2.4307
  910MOL0     H25519  11.657  11.330  10.574  1.7722 -2.1704 -3.9584
  910MOL0     H25520  11.778  11.225  10.643  0.2750 -1.5150 -2.1189
  910MOL0     H25521  11.509  11.153  10.514  1.6101  4.4742 -3.0157
  910MOL0     H25522  11.618  11.037  10.600  0.2879  0.1262  0.3931
  910MOL0     H25523  11.725  11.226  10.400 -1.3813  1.2539  3.9360
  910MOL0     H25524  11.790  11.063  10.441  0.6803  0.4631 -0.0350
  910MOL0     H25525  11.555  11.110  10.261  3.1813  2.0868 -1.6990
  910MOL0     H25526  11.582  10.954  10.340 -1.3194  0.4223  1.4131
  910MOL0     H25527  11.689  11.020  10.093  2.3430  1.1157 -1.7907
  910MOL0     H25528  11.804  11.105  10.187  1.1306 -1.2269 -2.3243
  910MOL0     H25529  12.000  10.983  10.324 -0.9124 -2.1791  4.0659
  910MOL0     H25530  12.178  10.745  10.288 -0.2255 -0.9010 -2.2907
  910MOL0     H25531  12.094  10.599  10.276 -0.5695  0.0626  0.3002
  910MOL0     H25532  12.089  10.761  10.540 -1.0597 -0.6208  2.0822
  910MOL0     H25533  11.996  10.618  10.508  1.6347 -0.9765  2.7285
  910MOL0     H25534  12.309  10.638  10.485  0.5925 -1.5715 -1.4513
  910MOL0     H25535  12.225  10.573  10.617 -1.0053 -0.1505 -0.6068
  910MOL0     H25536  12.250  10.358  10.515  0.5665 -1.0673 -3.1359
  910MOL0     H25537  12.117  10.422  10.424 -0.4005  2.9360  0.4465
  910MOL0     H25538  12.174  10.382  10.132  1.7318  0.9931 -3.2086
  910MOL0     H25539  12.097  10.241   9.963 -3.1713 -2.4551 -2.2231
  910MOL0     H25540  12.105  10.072  10.006  0.6365  0.5989  1.1292
  910MOL0     H25541  12.213  10.134   9.881 -2.0145 -0.1484 -0.7624
  910MOL0     H25542  12.209   9.779   9.885  0.0463  0.3386  1.8285
  910MOL0     H25543  12.229   9.579   9.749  1.2796 -1.1215  0.9221
  910MOL0     H25544  12.618   9.457   9.593  0.7250 -1.5069 -2.5910
  910MOL0     H25545  12.581   9.383   9.754 -0.0008 -2.2275  0.3550
  910MOL0     H25546  12.520   9.251   9.474  3.9828 -0.6426 -0.7808
  910MOL0     H25547  12.640   9.219   9.584  0.5274 -0.2912 -0.2897
  910MOL0     H25548  12.334   9.194   9.660 -1.4258 -0.5044 -1.7845
  910MOL0     H25549  12.468   9.161   9.761  1.3211 -0.6081 -0.2002
  910MOL0     H25550  12.408   8.943   9.674 -1.5749 -1.9928 -2.0085
  910MOL0     H25551  12.543   8.985   9.573 -0.2020 -1.4596 -0.7675
  910MOL0     H25552  12.409   9.035   9.397  2.9783 -0.6449  1.0566
  910MOL0     H25553  12.357   8.873   9.463 -0.2543  0.5558  1.0150
  910MOL0     H25554  12.199   9.130   9.471  0.4608 -0.6762 -2.1751
  910MOL0     H25555  12.163   8.986   9.579  1.0644 -3.8515  0.0667
  910MOL0     H25556  12.159   8.994   9.275  1.3747 -3.4635  0.1494
  910MOL0     H25557  12.031   9.041   9.359  3.8510  4.2753  0.8578
  910MOL0     H25558  12.006   8.814   9.474  2.1369 -0.7928  1.8338
  910MOL0     H25559  12.155   8.755   9.407 -1.6459 -1.5533 -0.4056
  910MOL0     H25560  12.638   9.674   9.673  0.5034 -0.9210 -0.8076
  910MOL0     H25561  12.625   9.864   9.798 -2.3820  1.4285  1.4127
  910MOL0     H25562  12.491  10.028  10.290 -0.3029  1.0176  0.9134
  910MOL0     H25563  12.495  10.244  10.382 -1.3905 -1.1458  2.3944
  910MOL0     H25564  11.438  11.069  11.204  1.3250  0.1181 -0.4179
  910MOL0     H25565  11.310  11.093  11.397  0.3214 -0.4931 -2.2391
  910MOL0     H25566  11.168  11.547  11.651 -0.0509 -0.2710  0.5565
  910MOL0     H25567  11.066  11.639  11.837 -0.8173 -1.4644  1.5169
  910MOL0     H25568  10.818  11.653  12.108 -0.2630  2.7373  0.0209
  910MOL0     H25569  10.982  11.634  12.059 -1.2094 -2.2643 -0.9348
  910MOL0     H25570  10.766  11.838  11.993 -1.9957 -5.2744  0.0027
  910MOL0     H25571  10.916  11.839  11.889 -1.2105  0.0328 -0.4591
  910MOL0     H25572  10.940  11.847  12.186 -1.2430 -3.9216 -0.8245
  910MOL0     H25573  11.055  11.899  12.064  0.1611 -1.0735  1.9234
  910MOL0     H25574  10.962  12.086  12.189  1.0597  1.5058 -2.3930
  910MOL0     H25575  10.799  12.059  12.113 -1.2525 -1.5743  0.5372
  910MOL0     H25576  11.021  12.278  11.835  0.5280  0.1770  0.4617
  910MOL0     H25577  10.720  11.390  11.766 -0.3620 -0.6023 -1.7441
  910MOL0     H25578  10.740  11.187  11.653  0.4328 -0.5173  0.6440
  910MOL0     H25579  10.800  11.233  11.501  1.0960  0.4804  0.4060
  910MOL0     H25580  10.909  11.140  11.585  1.7665  2.2079 -1.1683
  911MOL0     O25581   3.255   3.839   0.138  0.0847  0.1950 -1.0706
  911MOL0     C25582   3.142   3.895   0.154 -0.4671 -0.8974 -0.0930
  911MOL0     O25583   3.050   3.908   0.049  0.1429  0.5618  0.1268
  911MOL0     C25584   3.076   3.839  -0.072 -0.9084 -0.2969  0.1036
  911MOL0     C25585   3.137   3.713  -0.086 -0.2579  0.7900  0.4748
  911MOL0     C25586   3.134   3.653  -0.214  0.3863  0.2841  0.1132
  911MOL0     C25587   3.091   3.730  -0.325  0.3218 -0.1639 -1.1379
  911MOL0     O25588   3.091   3.684  -0.451  0.7764  0.8313  0.1548
  911MOL0     C25589   3.064   3.547  -0.475 -0.5394 -0.1906  0.0209
  911MOL0     C25590   3.040   3.541  -0.620  0.0354  0.4952  0.3222
  911MOL0     C25591   3.036   3.393  -0.667 -0.0760 -0.4546  0.1646
  911MOL0     C25592   3.000   3.365  -0.817 -0.4090  0.5367  0.5719
  911MOL0     C25593   2.959   3.222  -0.855 -0.1908 -1.3514 -0.6233
  911MOL0     C25594   2.825   3.204  -0.921  0.9638 -0.4035 -0.9816
  911MOL0     C25595   2.782   3.069  -0.969 -0.1729  0.2162 -0.1729
  911MOL0     C25596   2.629   3.036  -0.964 -0.4751  0.5856 -0.3826
  911MOL0     N25597   2.546   3.139  -1.006 -0.0739 -0.8175 -0.3863
  911MOL0     C25598   2.534   3.191  -1.126  0.9531  0.6682  1.3745
  911MOL0     C25599   2.449   3.297  -1.121  0.2859 -0.5744  0.2186
  911MOL0     C25600   2.413   3.395  -1.227 -0.2239 -0.4887  0.5620
  911MOL0     C25601   2.540   3.466  -1.282 -0.0555 -0.6680 -1.1433
  911MOL0     C25602   2.585   3.586  -1.193  0.3822 -0.1178  0.5880
  911MOL0     C25603   2.569   3.569  -1.050 -0.3608 -0.2094  0.5441
  911MOL0     O25604   2.625   3.684  -0.973 -0.2147 -0.1462 -0.0851
  911MOL0     C25605   2.602   3.671  -0.842 -0.6342 -0.5162 -0.2956
  911MOL0     C25606   2.687   3.758  -0.773  0.4275 -0.1296 -0.8436
  911MOL0     C25607   2.690   3.754  -0.629  0.7351 -0.0617  0.3640
  911MOL0     C25608   2.791   3.848  -0.561  0.4702  0.9837  0.3278
  911MOL0     C25609   2.616   3.658  -0.554 -0.6192  0.0976  0.0758
  911MOL0     C25610   2.613   3.638  -0.411 -0.2342  0.5759 -0.8182
  911MOL0     O25611   2.526   3.547  -0.358  0.3043  0.8801 -0.6573
  911MOL0     C25612   2.510   3.545  -0.220 -1.0655  1.3635  1.4237
  911MOL0     C25613   2.610   3.510  -0.139 -0.2208 -0.0969  0.0957
  911MOL0     C25614   2.602   3.499  -0.002  0.1080 -0.2276 -0.4076
  911MOL0     C25615   2.481   3.538   0.057  0.6546 -0.3368  0.0342
  911MOL0     O25616   2.476   3.561   0.192  0.5807 -0.2207  0.3742
  911MOL0     C25617   2.519   3.444   0.262 -0.1449  0.3174 -0.1404
  911MOL0     C25618   2.448   3.438   0.397  0.5842  0.9094 -0.1661
  911MOL0     C25619   2.474   3.302   0.467  0.0969 -1.3015  0.1028
  911MOL0     C25620   2.622   3.262   0.473 -1.1844 -0.5011 -0.3237
  911MOL0     C25621   2.636   3.144   0.565  0.1028  0.7711 -0.2126
  911MOL0     C25622   2.577   3.009   0.535 -0.0716 -0.7052 -0.5895
  911MOL0     C25623   2.602   2.886   0.627 -1.1172 -0.1630 -0.1636
  911MOL0     C25624   2.579   2.913   0.780 -0.1109  0.1142 -0.0788
  911MOL0    Cl25625   2.441   3.016   0.827 -0.1676  0.1579 -0.0266
  911MOL0     C25626   2.373   3.577  -0.022  0.1485 -0.7400  0.2548
  911MOL0     C25627   2.389   3.571  -0.162 -0.0074  0.2525 -0.8854
  911MOL0     O25628   2.694   3.708  -0.343  0.1597 -0.0972  0.1948
  911MOL0     C25629   2.525   3.578  -0.632 -0.1166  0.4274 -0.7238
  911MOL0     C25630   2.520   3.590  -0.767 -0.2476  0.1621  0.4887
  911MOL0     N25631   2.400   3.291  -0.994  0.3040  0.2277 -1.3000
  911MOL0     N25632   2.444   3.195  -0.931 -0.5242  0.0493 -0.5857
  911MOL0     C25633   3.036   3.861  -0.306 -0.0736 -0.2914  0.3990
  911MOL0     C25634   3.037   3.914  -0.182 -0.9295 -0.1158  0.2623
  911MOL0     C25635   3.128   3.960   0.286  0.2719 -0.1815 -0.9448
  911MOL0     C25636   3.013   4.040   0.301  0.6395  0.1190  0.2783
  911MOL0     C25637   2.984   4.108   0.420 -0.3217  1.1970 -0.4620
  911MOL0     C25638   3.086   4.104   0.520 -0.0720 -0.6106 -0.9910
  911MOL0     O25639   3.052   4.182   0.637  0.0970 -0.3282 -0.3334
  911MOL0     C25640   3.157   4.171   0.737  0.1742 -0.4220  0.3583
  911MOL0     C25641   3.124   4.243   0.864 -1.0682  0.0904 -0.1395
  911MOL0     C25642   3.170   4.390   0.871  0.4045 -0.1778 -0.0074
  911MOL0     C25643   3.104   4.475   0.764 -0.1086 -0.6799  0.7613
  911MOL0     C25644   3.139   4.613   0.780  0.3206 -1.0309  0.4041
  911MOL0     C25645   3.179   4.717   0.820  0.2473 -0.3481 -0.9639
  911MOL0     C25646   3.205   4.027   0.510 -0.4796  0.2765  0.0799
  911MOL0     C25647   3.219   3.950   0.395 -0.2961  1.3099  1.0767
  911MOL0     C25648   3.340   3.857   0.392 -0.1679 -0.1384 -0.6987
  911MOL0     H25649   3.169   3.657   0.001 -1.2607 -0.9460 -0.2292
  911MOL0     H25650   3.179   3.555  -0.229  1.3528  0.5959  0.8720
  911MOL0     H25651   2.996   3.504  -0.400 -0.5843  0.0837  0.1375
  911MOL0     H25652   3.156   3.492  -0.451 -1.3605 -2.7916 -2.2876
  911MOL0     H25653   2.950   3.598  -0.646 -1.3606 -1.5204  0.4449
  911MOL0     H25654   3.124   3.577  -0.679 -0.5689 -2.4210 -2.6641
  911MOL0     H25655   3.135   3.349  -0.656  1.2749  1.5917 -2.5719
  911MOL0     H25656   2.962   3.347  -0.601 -0.4051 -0.7336 -0.3849
  911MOL0     H25657   2.912   3.421  -0.848 -1.0567 -0.9401 -0.3588
  911MOL0     H25658   3.072   3.395  -0.894 -1.5619 -1.2704 -1.3206
  911MOL0     H25659   2.962   3.162  -0.764 -1.7354 -0.7884 -0.1672
  911MOL0     H25660   3.045   3.183  -0.910  1.6782 -1.1098  1.9799
  911MOL0     H25661   2.761   3.224  -0.834  0.8362 -0.6387 -1.0219
  911MOL0     H25662   2.804   3.279  -0.998  2.2019  0.7369 -0.2557
  911MOL0     H25663   2.830   2.991  -0.909  0.8968  1.1642  0.2377
  911MOL0     H25664   2.817   3.066  -1.073 -0.4130 -0.2704 -0.2466
  911MOL0     H25665   2.615   2.963  -1.045  0.2984 -1.0275  0.8808
  911MOL0     H25666   2.600   2.994  -0.867  1.7397 -3.3886 -1.2401
  911MOL0     H25667   2.591   3.158  -1.212  0.2662 -0.2618  1.2624
  911MOL0     H25668   2.343   3.466  -1.182  1.7725  0.2802  2.6658
  911MOL0     H25669   2.357   3.343  -1.305  2.3721 -2.0125 -0.3858
  911MOL0     H25670   2.618   3.399  -1.317  0.7010 -0.8655  0.8100
  911MOL0     H25671   2.511   3.524  -1.371  1.9896 -2.5013 -3.1383
  911MOL0     H25672   2.693   3.600  -1.205  0.7211 -1.8747  1.3038
  911MOL0     H25673   2.537   3.679  -1.226 -0.8516  0.0906  2.8087
  911MOL0     H25674   2.462   3.553  -1.032 -0.5153 -2.9547 -1.9749
  911MOL0     H25675   2.611   3.474  -1.014  0.7900 -0.9014 -2.3281
  911MOL0     H25676   2.757   3.826  -0.820  1.3694  1.0517  2.0555
  911MOL0     H25677   2.875   3.796  -0.515 -0.1850 -0.1615  0.2453
  911MOL0     H25678   2.742   3.907  -0.482 -1.9521 -0.8964  0.3522
  911MOL0     H25679   2.827   3.916  -0.639  0.4009 -1.4240 -1.9458
  911MOL0     H25680   2.701   3.478  -0.189 -0.1609 -0.5955  0.5159
  911MOL0     H25681   2.688   3.460   0.051  0.0538  0.3214  0.0919
  911MOL0     H25682   2.484   3.357   0.206 -1.6283  1.5792 -1.2656
  911MOL0     H25683   2.628   3.437   0.272 -0.4176 -1.1145  3.0020
  911MOL0     H25684   2.476   3.520   0.463  1.1945  0.9048 -0.4060
  911MOL0     H25685   2.340   3.432   0.380  0.4788 -2.9287  0.8091
  911MOL0     H25686   2.412   3.221   0.428 -3.8586 -0.0271  3.0510
  911MOL0     H25687   2.424   3.305   0.565 -3.1500  0.9869 -1.4501
  911MOL0     H25688   2.682   3.340   0.522 -2.1151  0.6509 -0.9472
  911MOL0     H25689   2.658   3.249   0.371  1.4937  5.2001 -0.4969
  911MOL0     H25690   2.744   3.125   0.562 -0.1371 -2.8707  3.8211
  911MOL0     H25691   2.607   3.172   0.667  0.0661  1.6464 -0.4543
  911MOL0     H25692   2.597   2.985   0.430 -2.3145 -2.5121 -0.6880
  911MOL0     H25693   2.469   3.023   0.529  0.2377  1.2366 -3.8082
  911MOL0     H25694   2.700   2.839   0.620 -0.2966  1.3221  0.8439
  911MOL0     H25695   2.532   2.809   0.592  0.1072 -1.0745 -0.7039
  911MOL0     H25696   2.675   2.948   0.818 -0.1167 -0.5881  0.5921
  911MOL0     H25697   2.560   2.812   0.816 -0.8417  0.8087  1.5917
  911MOL0     H25698   2.294   3.641   0.017  0.1693  0.1881 -1.1423
  911MOL0     H25699   2.301   3.602  -0.218  0.1844  1.4907 -0.5354
  911MOL0     H25700   2.465   3.504  -0.578 -0.9439  0.8008 -1.1124
  911MOL0     H25701   2.447   3.525  -0.814 -2.3893  1.4173  1.8801
  911MOL0     H25702   3.017   3.925  -0.391  1.8627 -1.1491 -0.7353
  911MOL0     H25703   2.995   4.012  -0.160  1.0444  0.9814 -0.6042
  911MOL0     H25704   2.942   4.055   0.221  1.0139 -0.3793 -0.1525
  911MOL0     H25705   2.895   4.171   0.428 -0.2817  1.6740 -3.0691
  911MOL0     H25706   3.178   4.066   0.759 -2.5223 -1.5058 -1.6484
  911MOL0     H25707   3.249   4.223   0.710 -2.0142  3.2512 -0.8635
  911MOL0     H25708   3.183   4.191   0.941 -1.3760 -1.0547 -0.6616
  911MOL0     H25709   3.017   4.233   0.882 -0.7630  0.1279  2.0775
  911MOL0     H25710   3.143   4.440   0.964 -1.0619  1.9174 -1.4527
  911MOL0     H25711   3.278   4.399   0.860  0.0683  2.1922 -2.5992
  911MOL0     H25712   2.995   4.481   0.769 -0.1412  0.5058 -0.7181
  911MOL0     H25713   3.126   4.441   0.663 -3.6303  1.7187 -1.0142
  911MOL0     H25714   3.215   4.809   0.863 -2.8774  0.5415 -0.0367
  911MOL0     H25715   3.276   4.006   0.589  0.5229  1.6154 -0.4254
  911MOL0     H25716   3.421   3.900   0.333 -0.0944 -1.9466 -1.9829
  911MOL0     H25717   3.376   3.853   0.495  0.3842 -1.0000 -0.9204
  911MOL0     H25718   3.318   3.761   0.346  3.7058 -2.1643  1.2297
  912MOL0     O25719   6.572   3.554   3.759  0.5707 -0.0349 -0.0254
  912MOL0     C25720   6.587   3.644   3.839  0.3571 -0.0203 -0.2758
  912MOL0     O25721   6.543   3.645   3.968 -0.4107 -0.0459  0.6129
  912MOL0     C25722   6.485   3.532   4.023  0.1905 -0.0169 -0.4360
  912MOL0     C25723   6.397   3.563   4.127  0.6774  0.0041  0.8369
  912MOL0     C25724   6.345   3.462   4.212  0.4168 -0.2056  0.5089
  912MOL0     C25725   6.369   3.328   4.205  0.1185 -0.9180 -0.0511
  912MOL0     O25726   6.322   3.240   4.295 -0.3206 -0.4320 -0.1212
  912MOL0     C25727   6.286   3.110   4.251 -0.0105  0.8232  0.8008
  912MOL0     C25728   6.185   3.043   4.350  0.1706  0.2445 -0.0101
  912MOL0     C25729   6.259   3.001   4.474 -0.0629 -0.1369  0.3829
  912MOL0     C25730   6.223   2.854   4.502  0.6701  0.2902 -0.1727
  912MOL0     C25731   6.264   2.804   4.640 -0.1136 -0.1637 -0.4083
  912MOL0     C25732   6.168   2.690   4.707 -0.0350  0.3229  0.2185
  912MOL0     C25733   6.029   2.735   4.758  0.9740 -0.0654 -0.4861
  912MOL0     C25734   6.040   2.856   4.849 -0.6278  0.1869  0.1259
  912MOL0     N25735   6.107   2.832   4.976 -0.2164  0.8116  0.0146
  912MOL0     C25736   6.040   2.804   5.094 -0.1962 -0.1715 -0.0177
  912MOL0     C25737   6.145   2.798   5.182 -0.1012 -1.3687  0.2514
  912MOL0     C25738   6.154   2.760   5.329 -0.4860 -0.9998  0.0963
  912MOL0     C25739   6.077   2.864   5.419  0.3526  0.0736 -0.0246
  912MOL0     C25740   6.140   3.002   5.446  0.2779  0.8944 -0.6036
  912MOL0     C25741   6.050   3.125   5.489  0.2437  0.3027  0.4042
  912MOL0     O25742   5.993   3.209   5.386  0.9691  0.7684  0.0515
  912MOL0     C25743   6.086   3.302   5.339  0.6350  0.5767  0.1022
  912MOL0     C25744   6.116   3.417   5.410  0.0420  0.6317  0.0632
  912MOL0     C25745   6.212   3.507   5.364  0.2041  0.8483  0.5050
  912MOL0     C25746   6.195   3.642   5.430  0.1399 -0.5742  0.0473
  912MOL0     C25747   6.290   3.482   5.242  0.3013  0.6882  0.0413
  912MOL0     C25748   6.374   3.582   5.185 -0.7007  0.0214 -0.7494
  912MOL0     O25749   6.422   3.545   5.069 -0.1668  0.2769  0.5593
  912MOL0     C25750   6.540   3.592   5.030  0.1603  0.0686  0.2278
  912MOL0     C25751   6.549   3.603   4.893  0.3162  0.1920 -0.4537
  912MOL0     C25752   6.664   3.643   4.830 -0.1908 -0.8723  0.8099
  912MOL0     C25753   6.780   3.669   4.903  0.5794 -0.0643  0.7242
  912MOL0     O25754   6.900   3.709   4.843 -0.3337 -1.2534 -0.5919
  912MOL0     C25755   6.915   3.717   4.699  1.1417 -0.0665 -0.4577
  912MOL0     C25756   7.040   3.791   4.660  0.3281 -0.5576 -0.4220
  912MOL0     C25757   7.021   3.944   4.685  0.0622 -0.1360  0.2395
  912MOL0     C25758   7.073   3.984   4.820 -0.2451 -0.4673 -0.2394
  912MOL0     C25759   7.069   4.134   4.847  0.0474 -0.4117 -0.0761
  912MOL0     C25760   7.103   4.160   4.992 -0.2817 -0.0036 -0.0567
  912MOL0     C25761   7.147   4.305   5.037  0.0719  0.3824  0.9505
  912MOL0     C25762   7.056   4.420   4.989 -0.3063  0.2661  0.2644
  912MOL0    Cl25763   7.076   4.459   4.822  0.0482 -0.1663 -0.6759
  912MOL0     C25764   6.775   3.659   5.039  0.5383 -0.3711  0.5213
  912MOL0     C25765   6.658   3.608   5.103 -0.0732 -0.3030  0.4544
  912MOL0     O25766   6.417   3.674   5.253 -0.7006 -0.1005  0.4216
  912MOL0     C25767   6.260   3.359   5.175 -0.4860 -0.1645  0.0638
  912MOL0     C25768   6.149   3.283   5.209 -0.6902  0.0327 -0.1336
  912MOL0     N25769   6.260   2.825   5.118  0.5671 -0.4117 -0.3657
  912MOL0     N25770   6.236   2.856   4.995 -1.0002  0.5566 -0.5045
  912MOL0     C25771   6.449   3.297   4.091 -0.0223 -0.2022  0.4547
  912MOL0     C25772   6.513   3.399   4.011 -0.1584 -0.0403  0.1786
  912MOL0     C25773   6.664   3.778   3.805  1.0327 -0.1286  0.9901
  912MOL0     C25774   6.713   3.789   3.678 -0.0953  0.2207  0.0262
  912MOL0     C25775   6.788   3.901   3.636 -0.3596  0.5642 -0.2166
  912MOL0     C25776   6.809   4.010   3.713 -1.8886  0.2599 -0.6469
  912MOL0     O25777   6.886   4.114   3.664  0.2635  1.4180  0.0910
  912MOL0     C25778   6.957   4.195   3.756  0.3911 -0.6852 -0.4155
  912MOL0     C25779   7.036   4.303   3.681  0.8253 -0.2820  0.3889
  912MOL0     C25780   7.154   4.250   3.598 -0.0979 -0.1295 -0.5269
  912MOL0     C25781   7.116   4.231   3.448 -0.0437  0.1757 -0.4094
  912MOL0     C25782   7.102   4.358   3.379  0.7950 -0.3643  0.2907
  912MOL0     C25783   7.088   4.468   3.319 -1.2703  0.2040 -0.5069
  912MOL0     C25784   6.766   3.996   3.846 -0.4735  0.3643 -0.3777
  912MOL0     C25785   6.700   3.877   3.896  0.8208 -0.4742  0.5660
  912MOL0     C25786   6.665   3.889   4.043  0.6453 -0.2680 -0.4495
  912MOL0     H25787   6.366   3.666   4.140 -1.3457  0.2374 -3.8308
  912MOL0     H25788   6.284   3.501   4.293  2.6552  1.2681  1.6004
  912MOL0     H25789   6.368   3.046   4.220 -4.7454 -4.0879 -3.8818
  912MOL0     H25790   6.239   3.132   4.154  0.9448 -0.1215  0.1033
  912MOL0     H25791   6.114   3.124   4.370  0.6279  1.0900 -1.6743
  912MOL0     H25792   6.138   2.955   4.305  3.3154 -0.9492 -1.2988
  912MOL0     H25793   6.366   3.006   4.454 -0.4617 -2.5093 -3.1842
  912MOL0     H25794   6.238   3.059   4.564  0.3856 -0.7829  0.9186
  912MOL0     H25795   6.114   2.844   4.500  0.6673 -0.2529  1.1936
  912MOL0     H25796   6.275   2.797   4.425  1.3506  1.3959 -0.5600
  912MOL0     H25797   6.267   2.888   4.710  0.8243  0.2812 -0.9719
  912MOL0     H25798   6.366   2.765   4.635  0.6714  0.8602  3.6418
  912MOL0     H25799   6.142   2.611   4.636  0.7883 -0.2932  0.5923
  912MOL0     H25800   6.225   2.650   4.791 -0.2867  1.4613  0.9588
  912MOL0     H25801   5.987   2.654   4.817  2.7438  0.9265  2.3554
  912MOL0     H25802   5.972   2.759   4.668  1.9450  0.7856 -0.9013
  912MOL0     H25803   6.085   2.938   4.792 -3.2833  0.5135 -1.6371
  912MOL0     H25804   5.939   2.889   4.876 -0.2359 -0.0912  2.1238
  912MOL0     H25805   5.937   2.786   5.121 -0.2804  0.6005  0.1857
  912MOL0     H25806   6.258   2.738   5.354 -0.1819 -2.1838 -1.9345
  912MOL0     H25807   6.099   2.665   5.333  1.5860 -2.3235 -0.8482
  912MOL0     H25808   5.979   2.880   5.372 -0.0204  1.7082  1.2210
  912MOL0     H25809   6.057   2.805   5.509  2.8269  0.2657  0.7210
  912MOL0     H25810   6.212   2.971   5.523 -0.8146 -4.7953 -1.4303
  912MOL0     H25811   6.208   3.043   5.371 -1.3691  2.0495 -1.5252
  912MOL0     H25812   5.966   3.087   5.548  1.0793 -0.8826  0.8617
  912MOL0     H25813   6.110   3.188   5.556  3.4952 -1.0528 -1.0047
  912MOL0     H25814   6.063   3.431   5.504  0.9018  0.1083  0.6438
  912MOL0     H25815   6.258   3.722   5.390  0.1975 -1.4276 -1.6561
  912MOL0     H25816   6.197   3.623   5.538 -3.0184 -3.0908 -0.1752
  912MOL0     H25817   6.094   3.681   5.413  1.0260  0.1269 -5.2315
  912MOL0     H25818   6.459   3.572   4.841 -1.8340  0.0491  3.0361
  912MOL0     H25819   6.665   3.629   4.723 -0.8362  2.4766  0.2599
  912MOL0     H25820   6.919   3.613   4.669 -0.2392 -0.6913  1.3139
  912MOL0     H25821   6.832   3.770   4.652  1.7987 -0.9240 -2.6742
  912MOL0     H25822   7.122   3.750   4.720  0.1319 -2.4882 -1.3672
  912MOL0     H25823   7.059   3.771   4.554 -1.2978 -0.7153 -0.7152
  912MOL0     H25824   6.916   3.975   4.676 -0.8594 -2.6098  1.6156
  912MOL0     H25825   7.078   3.994   4.606 -1.7516  1.4703 -0.1465
  912MOL0     H25826   7.173   3.944   4.842  0.1535  1.1998  1.1400
  912MOL0     H25827   7.012   3.946   4.903  0.8280  1.1305  1.3499
  912MOL0     H25828   7.144   4.181   4.782  0.6673  1.4066  1.8625
  912MOL0     H25829   6.972   4.170   4.814 -0.4966 -0.3314  1.5638
  912MOL0     H25830   7.188   4.093   5.011  0.4905 -0.6130 -4.6175
  912MOL0     H25831   7.031   4.126   5.068  2.8774 -2.4802  2.1288
  912MOL0     H25832   7.247   4.329   4.998 -0.2056 -1.6192 -1.1965
  912MOL0     H25833   7.148   4.308   5.146 -0.7931 -1.7137  1.0598
  912MOL0     H25834   7.072   4.504   5.057 -2.6755 -0.1832  1.4823
  912MOL0     H25835   6.949   4.399   5.000 -0.4841  1.3344  0.6243
  912MOL0     H25836   6.860   3.702   5.091  0.5544  0.0198  0.1735
  912MOL0     H25837   6.676   3.604   5.210  0.1151 -0.0810  0.4319
  912MOL0     H25838   6.303   3.344   5.076 -2.0125  1.1814 -0.8770
  912MOL0     H25839   6.110   3.193   5.162 -1.4403 -1.6660  3.3381
  912MOL0     H25840   6.461   3.189   4.097 -1.1223 -0.2728  1.8315
  912MOL0     H25841   6.588   3.367   3.939 -0.9545 -3.5898  0.7499
  912MOL0     H25842   6.699   3.716   3.599  0.0997  2.0376 -1.7771
  912MOL0     H25843   6.807   3.901   3.529  1.4468 -1.2401  0.0655
  912MOL0     H25844   6.879   4.243   3.815  1.8231  1.6671 -0.2965
  912MOL0     H25845   7.032   4.130   3.803  1.5598 -0.1159 -1.4357
  912MOL0     H25846   7.078   4.365   3.761 -0.2299  2.1298 -0.8443
  912MOL0     H25847   6.973   4.372   3.625  2.1090  0.8452  0.3053
  912MOL0     H25848   7.230   4.329   3.604  0.3325 -0.6147  4.4352
  912MOL0     H25849   7.196   4.157   3.638  0.8799  0.2375 -0.6697
  912MOL0     H25850   7.018   4.182   3.451 -0.2670  0.6160  2.2072
  912MOL0     H25851   7.186   4.172   3.389 -1.5810  0.9669 -3.2308
  912MOL0     H25852   7.080   4.563   3.269  0.8589  1.4311  1.2809
  912MOL0     H25853   6.770   4.076   3.919  0.9527  1.0150 -1.1278
  912MOL0     H25854   6.711   3.974   4.094 -1.7831  1.5891 -1.1531
  912MOL0     H25855   6.557   3.902   4.053  0.7446  3.0069 -2.1733
  912MOL0     H25856   6.696   3.798   4.095  1.6509  0.1449 -0.3159
  913MOL0     O25857   7.022  10.651   2.539 -0.3143  0.1367 -0.4501
  913MOL0     C25858   6.911  10.634   2.577  0.6729  0.2663  0.0663
  913MOL0     O25859   6.855  10.710   2.668  0.7661  0.5803  0.5302
  913MOL0     C25860   6.896  10.840   2.691  0.3949 -0.0312  0.3701
  913MOL0     C25861   6.906  10.872   2.825  0.3934 -0.6505  0.1585
  913MOL0     C25862   6.939  11.001   2.854  0.0731 -0.0025 -0.9297
  913MOL0     C25863   6.961  11.103   2.764 -0.4438  0.5445  0.3111
  913MOL0     O25864   6.999  11.224   2.807  0.3226  0.7008  0.4841
  913MOL0     C25865   6.930  11.336   2.764  0.3288  0.3329  0.6104
  913MOL0     C25866   6.802  11.338   2.852 -0.0319 -0.0567  0.8415
  913MOL0     C25867   6.825  11.313   3.000  0.2770  0.4734  0.7248
  913MOL0     C25868   6.698  11.362   3.085 -0.5273 -0.0064  0.8480
  913MOL0     C25869   6.724  11.321   3.221  0.3585  0.1316 -0.1337
  913MOL0     C25870   6.598  11.355   3.307 -0.3793  1.1249  0.4550
  913MOL0     C25871   6.622  11.314   3.453 -0.2253 -1.0584 -0.7852
  913MOL0     C25872   6.515  11.333   3.558 -0.7787 -1.1166  0.1622
  913MOL0     N25873   6.571  11.285   3.686 -1.1424 -0.6877 -0.5442
  913MOL0     C25874   6.585  11.374   3.797  0.0036 -0.3172 -0.1398
  913MOL0     C25875   6.634  11.291   3.894  0.0586 -1.7637 -0.0488
  913MOL0     C25876   6.661  11.336   4.027 -0.6243  0.0603 -0.0093
  913MOL0     C25877   6.554  11.266   4.124 -0.2233  0.1317  0.3540
  913MOL0     C25878   6.545  11.331   4.262 -0.2166  0.0962  0.5325
  913MOL0     C25879   6.468  11.246   4.353  0.0397 -0.9883 -0.8257
  913MOL0     O25880   6.466  11.309   4.491 -0.0143  0.1926  0.2201
  913MOL0     C25881   6.409  11.242   4.589  1.1010  0.1078  0.5606
  913MOL0     C25882   6.393  11.313   4.707  0.0790 -0.6343  0.4007
  913MOL0     C25883   6.346  11.250   4.823  0.2757  0.7489 -0.6973
  913MOL0     C25884   6.343  11.329   4.952 -0.0189 -0.6067  0.8742
  913MOL0     C25885   6.309  11.113   4.817  0.0595  0.1069  0.2936
  913MOL0     C25886   6.265  11.035   4.936 -0.6991  0.2164 -0.3131
  913MOL0     O25887   6.130  11.018   4.952  0.5558 -0.1805  0.4902
  913MOL0     C25888   6.079  10.921   5.030  0.2869 -0.1105 -0.0550
  913MOL0     C25889   5.976  10.834   4.977 -0.2023 -0.7190 -0.3046
  913MOL0     C25890   5.934  10.728   5.047 -0.0592  0.2542  0.3683
  913MOL0     C25891   5.981  10.693   5.168 -0.3142  0.1888 -0.6169
  913MOL0     O25892   5.932  10.588   5.244 -0.3976  0.2580  0.5540
  913MOL0     C25893   5.853  10.481   5.182  0.0114 -0.6183  1.3338
  913MOL0     C25894   5.826  10.355   5.256  0.3759  0.9925 -0.1819
  913MOL0     C25895   5.929  10.335   5.368 -0.9568  1.3424  0.5759
  913MOL0     C25896   5.942  10.186   5.402  0.5295 -0.7817 -0.4459
  913MOL0     C25897   6.062  10.160   5.493  0.5185  0.3556 -0.0044
  913MOL0     C25898   6.092  10.006   5.516  0.2906 -0.4481  0.5490
  913MOL0     C25899   5.979   9.954   5.610  1.3598  0.1463 -0.1408
  913MOL0     C25900   5.888   9.857   5.525  0.8510 -0.5361  0.3908
  913MOL0    Cl25901   5.749   9.793   5.634  0.5508  0.5041 -0.0478
  913MOL0     C25902   6.070  10.790   5.224 -0.0312 -0.0200 -0.2673
  913MOL0     C25903   6.120  10.894   5.153 -1.0179  0.1225  0.0754
  913MOL0     O25904   6.349  10.964   4.999 -0.0439 -0.5664 -0.3579
  913MOL0     C25905   6.312  11.048   4.698 -0.2183  0.3567 -0.8469
  913MOL0     C25906   6.363  11.111   4.591 -0.1276  0.0132  0.5983
  913MOL0     N25907   6.662  11.168   3.854 -0.4078  0.0357 -0.0222
  913MOL0     N25908   6.614  11.162   3.731 -0.4191 -0.2254 -0.1315
  913MOL0     C25909   6.963  11.065   2.627 -0.4296 -0.8052 -0.5772
  913MOL0     C25910   6.930  10.935   2.595  0.5531  0.6875 -0.0577
  913MOL0     C25911   6.834  10.506   2.532 -0.1482 -0.3257 -0.0558
  913MOL0     C25912   6.707  10.477   2.594 -0.2404  0.3295  0.0346
  913MOL0     C25913   6.626  10.370   2.557  0.2751 -0.8213 -0.0691
  913MOL0     C25914   6.664  10.290   2.455  0.3266 -0.1120  0.9896
  913MOL0     O25915   6.572  10.197   2.420  1.1086  0.0192  0.5142
  913MOL0     C25916   6.618  10.066   2.367  0.2201 -0.3602 -1.0503
  913MOL0     C25917   6.500   9.978   2.390 -0.2882  0.0564 -0.2014
  913MOL0     C25918   6.536   9.833   2.363  0.5169  0.3092 -0.6914
  913MOL0     C25919   6.416   9.736   2.362 -0.3753  0.2966 -0.5161
  913MOL0     C25920   6.374   9.692   2.499  0.2870 -0.8593 -0.7312
  913MOL0     C25921   6.346   9.653   2.612 -0.0856 -0.7366 -0.4203
  913MOL0     C25922   6.779  10.311   2.383 -0.9226 -0.2594 -0.4184
  913MOL0     C25923   6.869  10.417   2.427 -1.0546 -0.2360  0.5403
  913MOL0     C25924   6.990  10.440   2.340 -0.3331 -0.1854  0.5224
  913MOL0     H25925   6.880  10.797   2.899  0.9342 -2.8554 -1.7720
  913MOL0     H25926   6.947  11.036   2.956 -0.9029  1.2382 -1.2525
  913MOL0     H25927   6.890  11.332   2.663 -1.0711  0.5850  1.1313
  913MOL0     H25928   6.998  11.420   2.777  0.7144  0.0543  0.4295
  913MOL0     H25929   6.764  11.440   2.845  0.7627  0.1706 -0.5800
  913MOL0     H25930   6.725  11.270   2.815  0.5136 -2.2258  3.3876
  913MOL0     H25931   6.835  11.205   3.014  1.1225 -0.2540 -3.8813
  913MOL0     H25932   6.920  11.362   3.025  2.6273 -0.8285 -4.2190
  913MOL0     H25933   6.674  11.468   3.069 -3.0867 -0.9798 -3.1030
  913MOL0     H25934   6.609  11.310   3.050  2.6923 -4.1206 -2.3305
  913MOL0     H25935   6.814  11.374   3.254  1.3359 -1.0622 -0.8102
  913MOL0     H25936   6.751  11.216   3.233  1.9837  0.8194  3.9030
  913MOL0     H25937   6.586  11.463   3.314  2.0297  1.3606  2.4680
  913MOL0     H25938   6.511  11.299   3.272  1.4060 -1.2793 -0.4220
  913MOL0     H25939   6.714  11.353   3.496 -2.5599 -0.0630  4.1021
  913MOL0     H25940   6.640  11.206   3.459 -2.0153 -1.3078  1.9770
  913MOL0     H25941   6.487  11.438   3.569 -2.3270 -1.3757 -0.9230
  913MOL0     H25942   6.430  11.270   3.530 -1.8345 -0.1942  1.1632
  913MOL0     H25943   6.550  11.477   3.797 -0.8233 -0.5242  2.2209
  913MOL0     H25944   6.653  11.444   4.041  1.0295  0.1531  0.3788
  913MOL0     H25945   6.765  11.313   4.053 -0.3913  0.0189 -0.9217
  913MOL0     H25946   6.460  11.254   4.070 -0.0174 -1.5890  0.3307
  913MOL0     H25947   6.591  11.164   4.139 -1.3748 -0.1252  1.5959
  913MOL0     H25948   6.643  11.359   4.302  0.7028  1.9033 -2.5652
  913MOL0     H25949   6.493  11.427   4.259  1.3176  1.0605  2.5438
  913MOL0     H25950   6.362  11.239   4.329  0.2049 -1.8176 -1.3768
  913MOL0     H25951   6.508  11.144   4.354  1.8211 -0.3190  0.0196
  913MOL0     H25952   6.436  11.413   4.701  1.6123 -1.3019 -0.5293
  913MOL0     H25953   6.440  11.377   4.969  2.0252 -4.1064  0.1013
  913MOL0     H25954   6.320  11.273   5.044 -2.5948 -0.2236  0.5293
  913MOL0     H25955   6.258  11.397   4.946 -1.2858 -2.2148 -0.3212
  913MOL0     H25956   5.937  10.855   4.878 -3.3035  2.7432  1.3921
  913MOL0     H25957   5.875  10.658   4.987  2.4863  0.4362 -2.6090
  913MOL0     H25958   5.758  10.523   5.148 -0.1174 -0.3206  2.0521
  913MOL0     H25959   5.907  10.455   5.090  0.1812  3.9290 -0.1071
  913MOL0     H25960   5.731  10.351   5.310  0.8447 -2.4722  0.6306
  913MOL0     H25961   5.826  10.270   5.187  1.1455  0.8678 -0.0368
  913MOL0     H25962   5.899  10.386   5.460 -0.4898 -2.3460  2.9933
  913MOL0     H25963   6.025  10.379   5.340 -1.4216  0.8547 -2.1095
  913MOL0     H25964   5.954  10.117   5.318  2.7527  0.8880 -1.5987
  913MOL0     H25965   5.852  10.167   5.461 -1.5012  1.8525 -2.4356
  913MOL0     H25966   6.158  10.186   5.447  2.2647 -1.7648  2.1710
  913MOL0     H25967   6.057  10.210   5.590 -1.1972  1.5327 -0.6567
  913MOL0     H25968   6.186  10.011   5.572  0.7023  0.0513 -0.1887
  913MOL0     H25969   6.102   9.948   5.424 -2.7021 -2.3236  1.2531
  913MOL0     H25970   5.931  10.039   5.659  2.4192 -1.3744  3.9575
  913MOL0     H25971   6.024   9.892   5.688  1.2822 -0.8595 -0.8836
  913MOL0     H25972   5.941   9.777   5.473 -1.2623 -0.3601 -2.2466
  913MOL0     H25973   5.846   9.908   5.438  0.3190  0.0497  0.9737
  913MOL0     H25974   6.116  10.776   5.321 -0.7671 -2.9703 -0.2490
  913MOL0     H25975   6.188  10.952   5.213 -1.6544  0.7125  0.2382
  913MOL0     H25976   6.277  10.946   4.692 -1.1126  0.5815  0.1692
  913MOL0     H25977   6.355  11.066   4.492  1.5164  5.1424 -2.2643
  913MOL0     H25978   7.004  11.138   2.558 -0.1834 -0.5916 -0.2103
  913MOL0     H25979   6.937  10.910   2.490  4.5072 -0.9043  0.3954
  913MOL0     H25980   6.676  10.531   2.682 -3.1558 -2.2729  0.7618
  913MOL0     H25981   6.536  10.349   2.614  1.3372 -0.6776  1.7435
  913MOL0     H25982   6.655  10.067   2.264  0.6362 -1.0121 -0.9099
  913MOL0     H25983   6.698  10.023   2.429 -0.6202  3.2752  3.0842
  913MOL0     H25984   6.415  10.009   2.330 -0.1704 -0.7370 -0.7952
  913MOL0     H25985   6.472   9.997   2.494  1.1898 -0.7221  0.3775
  913MOL0     H25986   6.578   9.831   2.262  1.9204 -0.7549 -0.1212
  913MOL0     H25987   6.613   9.800   2.434 -1.9111 -1.6713  1.2116
  913MOL0     H25988   6.441   9.654   2.293  2.9910  0.1075  0.7483
  913MOL0     H25989   6.333   9.784   2.310 -0.2780  0.3155 -0.6563
  913MOL0     H25990   6.314   9.619   2.709  1.5741  1.1792  0.8859
  913MOL0     H25991   6.801  10.236   2.307 -3.2396 -0.1587 -1.2750
  913MOL0     H25992   6.960  10.524   2.277 -0.7214 -1.6999 -1.4238
  913MOL0     H25993   7.073  10.467   2.406 -0.4977  0.1566  0.5917
  913MOL0     H25994   7.029  10.350   2.292  1.5235 -0.3402  2.1944
  914MOL0     O25995   7.683   1.877   8.016 -0.5485  0.0550  0.1252
  914MOL0     C25996   7.604   1.974   8.017  0.4468  0.1074  0.1361
  914MOL0     O25997   7.515   2.008   8.109 -0.1432 -0.7394 -1.2878
  914MOL0     C25998   7.506   1.933   8.226 -0.0632 -0.1400 -0.1183
  914MOL0     C25999   7.514   2.000   8.352  0.5853  0.2469  0.1486
  914MOL0     C26000   7.511   1.932   8.472  0.3650  0.1120 -0.2426
  914MOL0     C26001   7.505   1.792   8.463 -0.1135 -0.1781  0.1329
  914MOL0     O26002   7.508   1.714   8.566 -1.0358  0.2643  0.4164
  914MOL0     C26003   7.592   1.752   8.681  0.5765 -0.4076 -0.6400
  914MOL0     C26004   7.635   1.640   8.779  0.0880 -0.8418  0.3772
  914MOL0     C26005   7.688   1.715   8.898  0.1486  0.3907 -0.7831
  914MOL0     C26006   7.680   1.638   9.032 -0.3045  0.2502  0.0896
  914MOL0     C26007   7.758   1.693   9.147  0.6297 -0.9396  0.3353
  914MOL0     C26008   7.903   1.634   9.146 -0.3200 -0.8942 -0.7139
  914MOL0     C26009   7.973   1.696   9.267  0.3402  0.2804 -0.3402
  914MOL0     C26010   8.036   1.830   9.229  0.2868  0.6033 -0.8736
  914MOL0     N26011   8.105   1.873   9.348 -0.2629  0.4265 -1.0911
  914MOL0     C26012   8.047   1.901   9.471 -1.0581 -0.3560  0.1161
  914MOL0     C26013   8.149   1.965   9.537 -0.2224 -1.4303 -0.8453
  914MOL0     C26014   8.147   2.011   9.681 -0.1560  0.4451  0.5676
  914MOL0     C26015   8.241   2.137   9.698  0.2951 -0.2402  0.3778
  914MOL0     C26016   8.248   2.154   9.843  0.0239 -0.8080  0.1438
  914MOL0     C26017   8.362   2.253   9.879  0.0421 -0.3614 -0.6150
  914MOL0     O26018   8.485   2.225   9.821 -0.1973 -0.5930  0.2475
  914MOL0     C26019   8.576   2.308   9.874  0.0454  0.4666  0.8682
  914MOL0     C26020   8.707   2.261   9.867 -0.5117  0.0119 -0.3902
  914MOL0     C26021   8.820   2.340   9.923  0.0535  0.3840 -0.0255
  914MOL0     C26022   8.960   2.292   9.889 -0.1378  0.5972  0.0485
  914MOL0     C26023   8.793   2.464   9.985 -0.2430  0.3881  0.1494
  914MOL0     C26024   8.893   2.558  10.047 -0.9014  1.1367  0.2633
  914MOL0     O26025   8.856   2.692  10.054 -0.0164  0.3331 -0.7562
  914MOL0     C26026   8.955   2.783  10.074  0.2967 -0.3313 -0.3175
  914MOL0     C26027   9.035   2.827   9.966  0.1475  1.1106 -0.6514
  914MOL0     C26028   9.152   2.907   9.994  0.2932  0.3906  0.0426
  914MOL0     C26029   9.185   2.945  10.121  0.7161 -0.0502  0.9102
  914MOL0     O26030   9.307   3.020  10.128  0.6608 -0.3847 -0.2425
  914MOL0     C26031   9.352   3.067  10.258 -0.6176 -0.7713  0.0884
  914MOL0     C26032   9.508   3.081  10.248  0.4041  0.5755  0.8719
  914MOL0     C26033   9.579   2.945  10.223 -0.3570 -0.2422 -0.3925
  914MOL0     C26034   9.730   2.944  10.242 -0.3180  0.2734  0.2778
  914MOL0     C26035   9.810   2.808  10.233 -0.3115 -0.1990  0.3299
  914MOL0     C26036   9.832   2.743  10.373  0.3816 -0.8483  0.1857
  914MOL0     C26037   9.709   2.654  10.417 -0.3268 -0.2747 -0.5217
  914MOL0     C26038   9.739   2.557  10.540  0.8827  0.0045 -0.1399
  914MOL0    Cl26039   9.757   2.642  10.699  0.1594  0.0540  0.0144
  914MOL0     C26040   9.104   2.902  10.226  1.1223 -0.2357 -0.8852
  914MOL0     C26041   8.990   2.831  10.200  0.7975  0.3565  0.7155
  914MOL0     O26042   9.001   2.510  10.087 -0.0537 -0.3937 -0.4819
  914MOL0     C26043   8.662   2.513   9.976 -0.1770  0.9552 -0.9126
  914MOL0     C26044   8.559   2.440   9.923 -0.5613  0.7816 -0.8523
  914MOL0     N26045   8.267   1.966   9.453 -0.2749  0.3528  0.0235
  914MOL0     N26046   8.237   1.912   9.345  0.5059  0.1952  1.1603
  914MOL0     C26047   7.501   1.726   8.336  0.0259 -0.9538  0.1742
  914MOL0     C26048   7.497   1.796   8.218 -0.1377 -0.3210 -0.5714
  914MOL0     C26049   7.615   2.065   7.903 -0.3704  0.6370  0.4266
  914MOL0     C26050   7.599   2.208   7.921  0.3122 -0.0982  0.2083
  914MOL0     C26051   7.612   2.306   7.825 -0.0512 -0.2372 -0.4448
  914MOL0     C26052   7.651   2.268   7.706  0.5250  0.7024  0.8618
  914MOL0     O26053   7.677   2.370   7.611  0.3354 -0.0398  0.4366
  914MOL0     C26054   7.737   2.330   7.478  0.3181  0.5737  0.0735
  914MOL0     C26055   7.788   2.457   7.410 -0.0924 -0.3321 -0.0573
  914MOL0     C26056   7.671   2.554   7.397 -0.3064  0.5271 -0.5653
  914MOL0     C26057   7.699   2.675   7.311 -0.8192 -0.0591 -0.4325
  914MOL0     C26058   7.703   2.656   7.168  0.4868 -0.4382  0.6909
  914MOL0     C26059   7.699   2.641   7.055 -0.0637  1.1566  0.4638
  914MOL0     C26060   7.671   2.130   7.675  0.0704  0.4840  0.0388
  914MOL0     C26061   7.645   2.027   7.769 -0.5248  0.8521  0.0889
  914MOL0     C26062   7.642   1.872   7.728 -0.8968  0.0013 -0.2738
  914MOL0     H26063   7.493   2.106   8.356 -1.5051 -0.0470 -1.3953
  914MOL0     H26064   7.517   1.984   8.567  0.7983 -0.4100  0.0212
  914MOL0     H26065   7.539   1.832   8.734 -0.3581 -1.3054 -0.1962
  914MOL0     H26066   7.686   1.802   8.653  0.3088 -0.0582 -0.9237
  914MOL0     H26067   7.549   1.576   8.802 -1.5322  1.3718  0.8451
  914MOL0     H26068   7.713   1.571   8.746 -3.1923 -3.8656 -1.8379
  914MOL0     H26069   7.790   1.755   8.889 -0.0563  1.0834 -0.1030
  914MOL0     H26070   7.635   1.809   8.911  0.4300  0.7565 -2.0782
  914MOL0     H26071   7.574   1.655   9.054 -0.1228  0.7162  0.6250
  914MOL0     H26072   7.701   1.531   9.024 -2.6766 -0.4595  1.9486
  914MOL0     H26073   7.701   1.654   9.231 -2.2064  0.1915 -0.9401
  914MOL0     H26074   7.751   1.802   9.155 -0.6058 -0.7314 -2.2744
  914MOL0     H26075   7.890   1.526   9.155 -0.1563 -0.7847  1.1379
  914MOL0     H26076   7.959   1.670   9.059  2.2140  0.4673  1.3591
  914MOL0     H26077   8.051   1.626   9.297 -2.5064 -2.8803  0.3232
  914MOL0     H26078   7.897   1.720   9.342 -0.4330  3.5687 -1.9923
  914MOL0     H26079   8.104   1.812   9.145  2.8257  2.0127  0.7745
  914MOL0     H26080   7.965   1.908   9.201 -0.5593  0.0761 -0.2270
  914MOL0     H26081   7.948   1.875   9.508 -2.0075 -0.6679 -2.4147
  914MOL0     H26082   8.184   1.930   9.744 -0.5396  2.2386  3.2664
  914MOL0     H26083   8.047   2.038   9.716  1.4876  0.7108  6.0143
  914MOL0     H26084   8.336   2.117   9.649 -0.7100 -3.2187 -0.5705
  914MOL0     H26085   8.190   2.221   9.649 -3.1709 -1.0688  2.1877
  914MOL0     H26086   8.160   2.206   9.881  1.5451  0.8590  1.6209
  914MOL0     H26087   8.262   2.058   9.893 -0.8876 -0.4033  1.2388
  914MOL0     H26088   8.336   2.348   9.832  5.2620  1.0437 -1.3488
  914MOL0     H26089   8.368   2.261   9.988  2.8451  0.0277 -0.7315
  914MOL0     H26090   8.725   2.164   9.821 -0.2302  0.1448 -0.5697
  914MOL0     H26091   9.009   2.240   9.971  0.7217 -0.4585 -1.1026
  914MOL0     H26092   9.017   2.383   9.867 -0.1375  0.2999 -1.2225
  914MOL0     H26093   8.953   2.217   9.810 -1.8039 -0.9678  1.5786
  914MOL0     H26094   9.027   2.789   9.865 -1.3434 -1.8609  0.4680
  914MOL0     H26095   9.216   2.927   9.909 -2.2814  1.6566 -1.7537
  914MOL0     H26096   9.301   3.163  10.267  1.5731  0.6818 -1.7052
  914MOL0     H26097   9.335   3.007  10.348  1.0131 -0.9735  0.2943
  914MOL0     H26098   9.531   3.143  10.160 -1.4066  0.5668  0.3480
  914MOL0     H26099   9.555   3.143  10.325  0.8314  2.5714 -0.8996
  914MOL0     H26100   9.554   2.911  10.122 -0.0195 -2.7954  0.3018
  914MOL0     H26101   9.539   2.871  10.293 -2.6413 -2.9484 -4.1338
  914MOL0     H26102   9.762   3.004  10.328  0.3685  0.3593 -0.0296
  914MOL0     H26103   9.757   3.007  10.157  1.5803  1.0112  1.3564
  914MOL0     H26104   9.757   2.749  10.157  0.1869  0.6677 -0.7218
  914MOL0     H26105   9.908   2.836  10.192 -0.5531  2.6596  1.4606
  914MOL0     H26106   9.841   2.820  10.450 -1.3847  1.7887 -2.0908
  914MOL0     H26107   9.920   2.679  10.364 -0.3574 -1.7812 -0.7199
  914MOL0     H26108   9.685   2.596  10.327  3.0520  1.6234 -2.8935
  914MOL0     H26109   9.614   2.702  10.440 -0.8145 -2.3066  2.1572
  914MOL0     H26110   9.822   2.489  10.519 -0.8099 -1.8343 -1.2099
  914MOL0     H26111   9.659   2.486  10.560 -0.7941  1.5982 -0.9289
  914MOL0     H26112   9.138   2.933  10.324  0.5841 -1.0851 -0.4287
  914MOL0     H26113   8.919   2.799  10.275  0.5537 -0.1481  0.2827
  914MOL0     H26114   8.633   2.605  10.025 -2.3533 -1.4070  2.7060
  914MOL0     H26115   8.467   2.498   9.925 -0.9198  0.2017 -0.3126
  914MOL0     H26116   7.510   1.619   8.319  0.4503 -0.5044 -3.0835
  914MOL0     H26117   7.502   1.745   8.122  1.2168 -1.5756  0.1308
  914MOL0     H26118   7.571   2.252   8.017 -3.7616  1.6556 -1.5201
  914MOL0     H26119   7.609   2.414   7.841 -2.1626 -0.2064 -0.7754
  914MOL0     H26120   7.828   2.273   7.498 -1.5033 -2.7035 -0.2447
  914MOL0     H26121   7.671   2.273   7.412 -0.4090  2.1085 -0.5840
  914MOL0     H26122   7.823   2.435   7.309 -2.6178 -0.4921 -0.9868
  914MOL0     H26123   7.878   2.495   7.458 -1.2508  3.1425 -0.3226
  914MOL0     H26124   7.590   2.498   7.350 -1.0922  1.3628 -0.2401
  914MOL0     H26125   7.640   2.568   7.501 -1.4200 -5.2358  0.2304
  914MOL0     H26126   7.785   2.733   7.345 -0.1872 -2.4577  2.5200
  914MOL0     H26127   7.613   2.737   7.339 -1.6208 -1.7387  1.0414
  914MOL0     H26128   7.686   2.646   6.949 -0.0808 -0.3845  0.3717
  914MOL0     H26129   7.709   2.089   7.582  1.0115 -0.0445  0.6353
  914MOL0     H26130   7.543   1.839   7.762 -0.4017  1.7156  3.4023
  914MOL0     H26131   7.662   1.860   7.622  2.0141  2.5262 -0.1481
  914MOL0     H26132   7.723   1.818   7.777  1.1230 -0.6239 -4.0101
  915MOL0     O26133   1.738   8.511   9.485  0.8605 -0.3327  0.5063
  915MOL0     C26134   1.838   8.572   9.528 -0.3768 -0.4567  0.2541
  915MOL0     O26135   1.834   8.662   9.628 -0.1205 -0.9241 -0.6755
  915MOL0     C26136   1.715   8.716   9.675  1.1514  0.2686  0.5421
  915MOL0     C26137   1.640   8.648   9.776  0.5118  0.2155  0.6084
  915MOL0     C26138   1.528   8.713   9.818 -0.5641 -0.2307  0.1850
  915MOL0     C26139   1.473   8.831   9.750  1.0376  1.1299 -0.3381
  915MOL0     O26140   1.360   8.891   9.802  0.2648  0.1040  0.5512
  915MOL0     C26141   1.248   8.807   9.847  0.1018 -0.2177 -0.6130
  915MOL0     C26142   1.128   8.896   9.859 -0.3605  0.0586 -0.4252
  915MOL0     C26143   1.132   8.947  10.004 -1.0101 -0.6608  1.0180
  915MOL0     C26144   1.025   9.053  10.041 -0.3245 -0.0834 -0.3575
  915MOL0     C26145   1.042   9.090  10.191 -1.4801  0.0172  1.6104
  915MOL0     C26146   1.149   9.193  10.223  0.8056 -0.0741 -1.0740
  915MOL0     C26147   1.146   9.214  10.381 -0.6468  0.6798 -0.2378
  915MOL0     C26148   1.178   9.079  10.462 -0.5435 -0.6774 -0.0742
  915MOL0     N26149   1.194   9.120  10.600  0.2669 -0.1928 -0.4263
  915MOL0     C26150   1.113   9.189  10.687  1.0077  0.1961 -0.0276
  915MOL0     C26151   1.183   9.202  10.798 -0.6811 -0.2904  0.5923
  915MOL0     C26152   1.136   9.289  10.912 -0.5632  0.8230  0.3441
  915MOL0     C26153   1.157   9.215  11.047  0.7123  0.2734  0.2202
  915MOL0     C26154   1.158   9.317  11.159  0.1115  0.5029 -0.2458
  915MOL0     C26155   1.165   9.256  11.308  0.4539 -0.3238 -0.1183
  915MOL0     O26156   1.284   9.306  11.365  0.4757 -1.0382  0.0336
  915MOL0     C26157   1.314   9.255  11.489 -0.8993  0.7876 -0.3098
  915MOL0     C26158   1.437   9.288  11.551  0.7080  0.3124  0.1525
  915MOL0     C26159   1.484   9.229  11.672 -0.3380  0.8164 -0.1821
  915MOL0     C26160   1.611   9.274  11.720 -0.3411 -0.1688 -0.1751
  915MOL0     C26161   1.408   9.129  11.741 -0.4517  0.2478  0.5497
  915MOL0     C26162   1.450   9.060  11.861  0.0920 -0.8172  0.4364
  915MOL0     O26163   1.388   8.938  11.881  0.1124 -0.7127 -0.2431
  915MOL0     C26164   1.440   8.871  11.987 -0.9367 -0.3770 -0.3370
  915MOL0     C26165   1.535   8.766  11.970 -0.1448 -0.9850 -0.6045
  915MOL0     C26166   1.566   8.677  12.082 -0.3310 -1.0983  0.4030
  915MOL0     C26167   1.512   8.699  12.210  0.4170 -1.2996 -0.3049
  915MOL0     O26168   1.550   8.630  12.321 -1.6863  0.5173 -0.7640
  915MOL0     C26169   1.460   8.558  12.406 -0.3560 -1.1602  1.3309
  915MOL0     C26170   1.386   8.447  12.320 -0.4605  0.1184  0.3235
  915MOL0     C26171   1.297   8.351  12.400  0.9563 -0.0457 -0.4085
  915MOL0     C26172   1.254   8.239  12.305  0.4030 -0.8167  0.5029
  915MOL0     C26173   1.136   8.158  12.367 -0.3461 -0.5292  0.0484
  915MOL0     C26174   0.996   8.235  12.381 -0.2230  0.6662  1.2578
  915MOL0     C26175   0.957   8.318  12.250 -0.4310  0.1513 -0.6352
  915MOL0     C26176   0.811   8.360  12.227 -0.8964 -0.0497  0.1525
  915MOL0    Cl26177   0.746   8.429  12.379 -0.0149  0.2675  0.1315
  915MOL0     C26178   1.415   8.809  12.227 -0.4143  0.5179  0.0796
  915MOL0     C26179   1.381   8.880  12.119 -0.7132 -0.0174  0.2252
  915MOL0     O26180   1.532   9.115  11.938  0.6770 -0.0094  0.8271
  915MOL0     C26181   1.279   9.096  11.678  0.4232  0.3915  0.1930
  915MOL0     C26182   1.229   9.158  11.559 -0.9435 -0.4020  0.4567
  915MOL0     N26183   1.304   9.133  10.781 -0.6011 -0.7382  0.0068
  915MOL0     N26184   1.306   9.076  10.667 -0.1698 -0.6100 -0.0632
  915MOL0     C26185   1.540   8.868   9.635  0.2955  0.0889  0.2067
  915MOL0     C26186   1.666   8.817   9.602  0.1511 -0.2013 -0.5262
  915MOL0     C26187   1.961   8.540   9.452 -0.1635 -0.5341 -0.4847
  915MOL0     C26188   2.057   8.641   9.419 -0.8597 -0.1177  0.8042
  915MOL0     C26189   2.183   8.607   9.366  0.4361  0.2297 -0.8400
  915MOL0     C26190   2.224   8.472   9.355  0.3833 -0.2209 -0.3755
  915MOL0     O26191   2.349   8.448   9.308  1.2018  0.6792 -0.0730
  915MOL0     C26192   2.391   8.319   9.260  0.3883  0.5365 -0.1506
  915MOL0     C26193   2.433   8.225   9.383  0.2158 -0.3233 -0.5103
  915MOL0     C26194   2.470   8.087   9.331 -0.5125  0.1230 -0.8411
  915MOL0     C26195   2.606   8.088   9.246  0.9138  0.4787  0.1708
  915MOL0     C26196   2.719   8.130   9.320 -0.4148 -0.4556  1.0523
  915MOL0     C26197   2.832   8.156   9.358 -0.3110  0.7623  0.3402
  915MOL0     C26198   2.120   8.375   9.360 -0.1954 -0.6862 -0.5493
  915MOL0     C26199   1.999   8.407   9.417  0.0439 -0.4854 -0.4638
  915MOL0     C26200   1.906   8.287   9.449  0.1187 -0.1416  1.0410
  915MOL0     H26201   1.680   8.555   9.814  2.3470  1.4878  1.9594
  915MOL0     H26202   1.476   8.665   9.900 -0.5347 -1.0284 -0.2537
  915MOL0     H26203   1.274   8.763   9.943 -1.3421  1.5122  0.6426
  915MOL0     H26204   1.236   8.729   9.771  0.4667  1.2239 -2.2338
  915MOL0     H26205   1.139   8.965   9.775  1.9347 -1.5651 -1.5841
  915MOL0     H26206   1.038   8.835   9.847 -0.4159 -0.1416  0.8833
  915MOL0     H26207   1.146   8.859  10.068  4.8290 -0.7916  0.0587
  915MOL0     H26208   1.226   9.000  10.021 -0.7633 -0.6900 -0.1662
  915MOL0     H26209   1.026   9.140   9.974 -1.5693 -1.3513 -2.1191
  915MOL0     H26210   0.928   9.008  10.021  0.2558 -1.1385 -0.9406
  915MOL0     H26211   1.062   9.005  10.256 -3.1023  1.1267  3.7198
  915MOL0     H26212   0.946   9.127  10.229 -0.4564  2.3949  2.0875
  915MOL0     H26213   1.249   9.158  10.196 -0.8971 -5.0758 -1.9471
  915MOL0     H26214   1.126   9.284  10.166 -4.1976  0.0715  0.6845
  915MOL0     H26215   1.059   9.268  10.417 -0.4583  0.8374 -0.0145
  915MOL0     H26216   1.226   9.282  10.410 -1.5096  1.6713 -0.1415
  915MOL0     H26217   1.089   9.015  10.454 -1.6436  0.9460 -1.5297
  915MOL0     H26218   1.267   9.028  10.424  1.0144  2.2237 -0.6293
  915MOL0     H26219   1.012   9.226  10.673  0.9978  1.2453  2.2136
  915MOL0     H26220   1.032   9.319  10.895 -1.2153 -1.6520 -0.4546
  915MOL0     H26221   1.202   9.376  10.915 -2.3740  2.3160 -0.4418
  915MOL0     H26222   1.079   9.139  11.044  1.3420 -0.3633 -0.5977
  915MOL0     H26223   1.256   9.169  11.031  0.8331  0.9587 -1.1849
  915MOL0     H26224   1.256   9.362  11.143  0.3676  0.4091  0.9527
  915MOL0     H26225   1.073   9.384  11.149  0.5826  1.0377 -0.7158
  915MOL0     H26226   1.080   9.297  11.363  0.2353 -1.2760  0.2844
  915MOL0     H26227   1.163   9.147  11.312 -1.6592 -0.2986  0.2019
  915MOL0     H26228   1.496   9.363  11.499  0.7817  0.5256  0.5389
  915MOL0     H26229   1.605   9.333  11.812  1.2246 -1.1225  0.5746
  915MOL0     H26230   1.672   9.328  11.647  1.6447  0.3610  1.7686
  915MOL0     H26231   1.669   9.182  11.733 -1.7021 -0.6423  4.0998
  915MOL0     H26232   1.577   8.744  11.873  0.0719 -2.5169 -0.1947
  915MOL0     H26233   1.652   8.614  12.059  1.0310  1.1514 -0.9832
  915MOL0     H26234   1.508   8.510  12.492  0.4033 -4.4909 -0.7278
  915MOL0     H26235   1.389   8.633  12.441 -0.8506 -1.0427  0.1286
  915MOL0     H26236   1.331   8.479  12.231  1.8873  0.1528 -1.2106
  915MOL0     H26237   1.468   8.385  12.282 -0.8983 -1.1717  1.4160
  915MOL0     H26238   1.204   8.398  12.433 -0.3482 -2.3121 -0.5835
  915MOL0     H26239   1.358   8.307  12.479 -0.0766 -0.4411  0.1839
  915MOL0     H26240   1.339   8.173  12.286  1.2386  0.4452 -0.2617
  915MOL0     H26241   1.234   8.284  12.207  1.7610 -0.0213  0.5713
  915MOL0     H26242   1.120   8.067  12.308  2.7315 -0.1495 -1.5832
  915MOL0     H26243   1.166   8.129  12.468 -1.8535 -0.9943  0.3908
  915MOL0     H26244   0.994   8.300  12.469 -2.6107 -0.0504  1.7984
  915MOL0     H26245   0.925   8.155  12.401 -0.5085  0.5591 -0.0459
  915MOL0     H26246   0.999   8.265  12.165 -0.0396  0.0219 -0.3658
  915MOL0     H26247   1.008   8.414  12.261  0.3529  0.1590 -3.6343
  915MOL0     H26248   0.758   8.273  12.188  1.6374 -1.0849 -1.1884
  915MOL0     H26249   0.815   8.443  12.156 -0.4016  0.4111  0.7083
  915MOL0     H26250   1.369   8.826  12.324 -1.8338  2.3805 -0.8513
  915MOL0     H26251   1.300   8.952  12.111  0.2567  0.8962 -2.3500
  915MOL0     H26252   1.207   9.024  11.716 -0.9137  1.2422 -0.6413
  915MOL0     H26253   1.131   9.123  11.529 -0.3805 -2.6375  1.0354
  915MOL0     H26254   1.497   8.940   9.566  2.7856  1.3696 -0.1195
  915MOL0     H26255   1.723   8.847   9.515  1.4485  0.4858  0.5160
  915MOL0     H26256   2.031   8.744   9.439 -2.9154 -0.7290  1.5763
  915MOL0     H26257   2.246   8.693   9.343 -0.6854  1.1296 -0.6558
  915MOL0     H26258   2.315   8.265   9.203 -0.1718 -0.0292  1.0955
  915MOL0     H26259   2.480   8.338   9.198  0.2835 -0.8170 -0.7653
  915MOL0     H26260   2.355   8.219   9.460  2.2914  2.8501  2.1636
  915MOL0     H26261   2.519   8.260   9.442 -0.6587 -0.2693  0.7750
  915MOL0     H26262   2.486   8.024   9.418  2.2046  0.2861 -1.1235
  915MOL0     H26263   2.382   8.045   9.283 -0.4682  0.3249 -1.1034
  915MOL0     H26264   2.611   8.140   9.150  2.4171  0.2535  0.1022
  915MOL0     H26265   2.629   7.987   9.211 -0.3014 -1.2173  3.7472
  915MOL0     H26266   2.927   8.190   9.394 -0.6072  2.6109 -0.4734
  915MOL0     H26267   2.145   8.273   9.331  0.3468 -0.9806  0.8684
  915MOL0     H26268   1.856   8.288   9.546 -2.0952 -4.0738  0.1320
  915MOL0     H26269   1.831   8.282   9.369  3.2496 -2.7279 -2.0471
  915MOL0     H26270   1.971   8.199   9.453  0.2271 -0.0200  2.3692
  916MOL0     O26271   9.415   2.610   2.263 -0.5357  0.2289  0.1560
  916MOL0     C26272   9.539   2.622   2.247 -0.5246 -0.0914 -0.0319
  916MOL0     O26273   9.634   2.551   2.328  0.4469 -0.3683 -0.0967
  916MOL0     C26274   9.593   2.456   2.419 -0.3846  0.0530 -0.0266
  916MOL0     C26275   9.601   2.319   2.397  0.3971 -1.0486  0.1167
  916MOL0     C26276   9.548   2.239   2.506  0.1409  0.0886  0.2541
  916MOL0     C26277   9.486   2.294   2.622  0.6088  0.3243  0.5419
  916MOL0     O26278   9.405   2.223   2.710  0.3587 -0.3692 -1.0999
  916MOL0     C26279   9.408   2.083   2.703  0.1740 -0.0965 -0.3568
  916MOL0     C26280   9.333   2.025   2.829  0.0620 -0.6056 -0.5045
  916MOL0     C26281   9.383   2.074   2.966  0.3522  1.4451  0.3343
  916MOL0     C26282   9.410   1.970   3.080 -0.7734 -0.5865 -1.0450
  916MOL0     C26283   9.480   2.045   3.208  1.1722 -0.3346 -0.0833
  916MOL0     C26284   9.510   1.949   3.326  0.0733 -0.4882 -0.8345
  916MOL0     C26285   9.567   2.029   3.453 -0.1080 -0.2685 -0.8959
  916MOL0     C26286   9.634   1.937   3.562 -0.1938  0.8770 -0.2782
  916MOL0     N26287   9.705   2.019   3.657 -0.2452 -0.0449  0.8623
  916MOL0     C26288   9.732   2.156   3.647 -1.4761 -0.2503 -1.1851
  916MOL0     C26289   9.804   2.185   3.764 -0.0954 -0.2110  0.3908
  916MOL0     C26290   9.845   2.320   3.797  0.3258 -0.4133 -0.3344
  916MOL0     C26291   9.964   2.358   3.713  0.1784  0.4281 -0.4808
  916MOL0     C26292  10.035   2.488   3.758 -0.9019 -0.2602  0.2266
  916MOL0     C26293   9.975   2.615   3.701 -0.2208  0.0930  0.2712
  916MOL0     O26294   9.835   2.614   3.685  0.1962 -0.1956 -0.0961
  916MOL0     C26295   9.778   2.738   3.690  0.7495 -0.0192 -0.2117
  916MOL0     C26296   9.797   2.824   3.588  0.7516  0.8128 -0.4911
  916MOL0     C26297   9.737   2.949   3.595 -0.3640  0.2011  0.2442
  916MOL0     C26298   9.741   3.040   3.479  0.7200 -0.6190  0.6509
  916MOL0     C26299   9.678   2.991   3.720 -0.3869  0.2405  0.4715
  916MOL0     C26300   9.605   3.120   3.734 -0.2089 -0.1688  0.1770
  916MOL0     O26301   9.498   3.115   3.825 -0.1329  0.2557  0.2257
  916MOL0     C26302   9.431   3.229   3.860 -0.2150  0.0480 -0.6299
  916MOL0     C26303   9.393   3.242   3.992 -0.3724  0.7419  0.3477
  916MOL0     C26304   9.308   3.354   4.025 -0.0645 -0.2684 -0.0546
  916MOL0     C26305   9.257   3.442   3.924  0.0956 -0.1137 -0.3746
  916MOL0     O26306   9.178   3.542   3.961  0.4272 -0.2834  0.5585
  916MOL0     C26307   9.238   3.668   3.936 -0.8685 -0.2900  0.2937
  916MOL0     C26308   9.138   3.781   3.915  0.6143 -0.2271 -0.4666
  916MOL0     C26309   9.060   3.814   4.037 -0.3439  0.6163  0.4858
  916MOL0     C26310   8.996   3.955   4.017  0.2924  0.6346  0.3173
  916MOL0     C26311   8.971   4.011   4.156  0.2137  0.8030 -0.7345
  916MOL0     C26312   8.920   4.159   4.154 -0.2125  0.5817  1.1417
  916MOL0     C26313   8.779   4.180   4.086  0.3983 -0.0413 -0.1106
  916MOL0     C26314   8.661   4.140   4.175 -0.2969 -0.1275  0.0961
  916MOL0    Cl26315   8.504   4.216   4.133 -0.1317  0.2199 -0.0395
  916MOL0     C26316   9.299   3.428   3.802  0.2594  0.2078  0.1286
  916MOL0     C26317   9.390   3.326   3.769  0.3729 -0.4227 -0.4814
  916MOL0     O26318   9.664   3.222   3.700 -0.1820 -0.2972  0.3139
  916MOL0     C26319   9.657   2.892   3.821  0.0248 -0.3181  1.0906
  916MOL0     C26320   9.713   2.765   3.807 -0.8403 -0.8509  0.4788
  916MOL0     N26321   9.822   2.074   3.840 -0.0475 -0.4869 -0.7795
  916MOL0     N26322   9.772   1.974   3.770  0.0712 -0.9471  0.3560
  916MOL0     C26323   9.504   2.426   2.651 -0.2910  0.5490  0.5432
  916MOL0     C26324   9.544   2.504   2.548 -0.0925  0.3606  0.6728
  916MOL0     C26325   9.595   2.721   2.149  0.4813  0.9345 -0.7909
  916MOL0     C26326   9.735   2.740   2.157 -0.4689  0.3562 -0.2960
  916MOL0     C26327   9.793   2.846   2.096 -0.2289 -0.1368 -0.5305
  916MOL0     C26328   9.722   2.932   2.018  0.8324  0.5752 -0.2760
  916MOL0     O26329   9.780   3.045   1.974 -0.1859 -0.0185 -0.1542
  916MOL0     C26330   9.769   3.160   2.062  0.1653 -0.4248 -0.8569
  916MOL0     C26331   9.842   3.279   2.006  0.5669 -0.3332 -0.3495
  916MOL0     C26332   9.981   3.261   1.946  0.4351 -0.7397  0.6658
  916MOL0     C26333  10.032   3.400   1.890  0.6383 -0.0333 -0.3679
  916MOL0     C26334  10.137   3.348   1.806  0.1020  0.5411  0.9567
  916MOL0     C26335  10.228   3.308   1.739 -0.6994  0.8583 -0.6246
  916MOL0     C26336   9.586   2.911   1.995  0.2898  0.6795 -0.6964
  916MOL0     C26337   9.521   2.806   2.063  0.3883 -0.4975  0.8056
  916MOL0     C26338   9.373   2.783   2.048  0.9111 -0.2131  0.2750
  916MOL0     H26339   9.645   2.262   2.315 -0.1663 -1.0478 -0.1931
  916MOL0     H26340   9.543   2.130   2.499 -1.3680  0.0961  0.9440
  916MOL0     H26341   9.511   2.046   2.700  0.5855  0.7689  1.6035
  916MOL0     H26342   9.348   2.061   2.614  0.4507 -0.0748 -0.5493
  916MOL0     H26343   9.226   2.044   2.826  0.2446  1.6863 -6.3187
  916MOL0     H26344   9.355   1.917   2.832  0.0227 -0.5930  2.0225
  916MOL0     H26345   9.468   2.140   2.946  1.6891  0.6256  2.9265
  916MOL0     H26346   9.304   2.138   3.005 -0.2782  2.5815 -2.5259
  916MOL0     H26347   9.313   1.936   3.117 -0.2817  1.5964  2.7126
  916MOL0     H26348   9.474   1.888   3.045 -0.4738 -0.6289 -0.4108
  916MOL0     H26349   9.410   2.118   3.249  1.4790  0.6907 -1.3369
  916MOL0     H26350   9.573   2.093   3.177  0.0987  1.6543 -0.3572
  916MOL0     H26351   9.419   1.894   3.350 -0.1475 -0.0766 -0.7160
  916MOL0     H26352   9.573   1.865   3.295 -1.4490 -1.5872 -1.0530
  916MOL0     H26353   9.485   2.082   3.501  0.2651 -0.2787 -0.2403
  916MOL0     H26354   9.639   2.098   3.408 -1.7307 -0.7835 -4.7087
  916MOL0     H26355   9.558   1.875   3.610 -0.3314 -1.7743 -3.5690
  916MOL0     H26356   9.705   1.863   3.525  3.0466  2.5584  2.0672
  916MOL0     H26357   9.713   2.228   3.567  1.1738  1.6160 -0.2820
  916MOL0     H26358   9.867   2.326   3.904  3.1066 -1.2023 -0.7708
  916MOL0     H26359   9.761   2.384   3.771  1.4600  1.4548  0.3828
  916MOL0     H26360  10.042   2.282   3.707  1.2781  1.4030  1.0175
  916MOL0     H26361   9.935   2.364   3.607  0.1595 -2.5358 -0.7351
  916MOL0     H26362  10.033   2.489   3.868 -6.0746 -0.8958  0.3948
  916MOL0     H26363  10.135   2.480   3.715 -1.7916  1.4443 -2.3598
  916MOL0     H26364  10.018   2.699   3.756  1.6452 -1.2214  0.9539
  916MOL0     H26365  10.008   2.616   3.597  2.7638  0.3173  1.1110
  916MOL0     H26366   9.848   2.802   3.494  0.1246 -0.2356 -0.6047
  916MOL0     H26367   9.640   3.064   3.444  0.2055 -0.0926  2.3855
  916MOL0     H26368   9.796   2.990   3.399 -1.0223 -1.1141 -0.2990
  916MOL0     H26369   9.790   3.136   3.495 -0.0641 -0.2831  1.1047
  916MOL0     H26370   9.418   3.170   4.069  0.5410  2.5087  1.7714
  916MOL0     H26371   9.269   3.361   4.126 -0.9090 -1.8685 -0.2364
  916MOL0     H26372   9.302   3.688   4.023 -1.1045 -0.7477  0.5751
  916MOL0     H26373   9.308   3.663   3.852  1.5063 -0.6790  2.1620
  916MOL0     H26374   9.188   3.875   3.891 -1.1001  0.5208 -1.2366
  916MOL0     H26375   9.069   3.763   3.832 -2.1350 -0.7093  1.7826
  916MOL0     H26376   9.135   3.809   4.118 -1.1108 -3.8557  1.1786
  916MOL0     H26377   8.992   3.731   4.059  2.3136 -0.9956  3.5664
  916MOL0     H26378   8.903   3.949   3.959 -2.1587  2.2555  3.7197
  916MOL0     H26379   9.063   4.027   3.969  1.3446  0.2292  1.1454
  916MOL0     H26380   8.897   3.947   4.204  2.0658 -2.5828 -2.1149
  916MOL0     H26381   9.057   4.018   4.223 -1.7532  1.4319  1.8950
  916MOL0     H26382   8.998   4.211   4.097 -1.4561 -1.4667 -2.7508
  916MOL0     H26383   8.913   4.200   4.256  0.7459  1.0396  1.0336
  916MOL0     H26384   8.778   4.129   3.989  3.2510  3.2715 -2.1244
  916MOL0     H26385   8.775   4.288   4.069 -1.4472  0.3826  2.5511
  916MOL0     H26386   8.688   4.175   4.275  0.9886  1.3851 -0.7527
  916MOL0     H26387   8.663   4.030   4.173 -1.6856 -0.1768 -2.0719
  916MOL0     H26388   9.258   3.489   3.723 -0.5667  0.2842  0.6123
  916MOL0     H26389   9.407   3.318   3.663  0.3592 -0.8917 -0.4539
  916MOL0     H26390   9.588   2.913   3.902  1.8856 -1.0522  2.9488
  916MOL0     H26391   9.710   2.687   3.882 -0.1004 -0.6384  0.7341
  916MOL0     H26392   9.443   2.465   2.733 -2.8704  0.6412 -1.3019
  916MOL0     H26393   9.545   2.612   2.556 -0.8467  0.5625 -1.3694
  916MOL0     H26394   9.794   2.669   2.214  0.3597  1.6759  0.5622
  916MOL0     H26395   9.898   2.872   2.108 -0.2743  0.0036 -0.4270
  916MOL0     H26396   9.670   3.190   2.096 -0.6887 -3.1082 -0.7691
  916MOL0     H26397   9.816   3.136   2.158 -0.9847  1.5720  0.2699
  916MOL0     H26398   9.853   3.350   2.088 -0.2661 -0.1336 -0.3962
  916MOL0     H26399   9.776   3.332   1.936  0.3374 -2.8209 -2.1726
  916MOL0     H26400  10.055   3.211   2.008 -0.2766 -2.7342 -0.0104
  916MOL0     H26401   9.961   3.196   1.860 -3.1792  1.5839 -0.5234
  916MOL0     H26402  10.069   3.455   1.976 -0.8381  3.4757 -1.7907
  916MOL0     H26403   9.949   3.446   1.836 -0.4740 -0.6898  0.7210
  916MOL0     H26404  10.305   3.258   1.683  1.5111  2.0818  1.1673
  916MOL0     H26405   9.521   2.983   1.946 -2.0405 -1.8689 -1.6415
  916MOL0     H26406   9.317   2.819   2.134  0.0630 -2.4854  0.7445
  916MOL0     H26407   9.336   2.829   1.956  0.5730 -2.2568 -0.6777
  916MOL0     H26408   9.337   2.680   2.036  0.1582  0.0854 -0.1162
  917MOL0     O26409   9.521  10.569   4.187 -0.3075  0.5093  0.6326
  917MOL0     C26410   9.418  10.622   4.220 -0.6592  0.1167  0.3827
  917MOL0     O26411   9.310  10.558   4.281  0.7351 -0.1484  0.3235
  917MOL0     C26412   9.337  10.464   4.377 -0.1559  0.0598 -0.3076
  917MOL0     C26413   9.466  10.443   4.439  0.5948 -0.8308 -0.1632
  917MOL0     C26414   9.486  10.345   4.526  0.5365  0.4627  0.7761
  917MOL0     C26415   9.385  10.257   4.559  0.1790 -0.6043 -0.1287
  917MOL0     O26416   9.420  10.153   4.642  0.6250  0.4605 -0.5902
  917MOL0     C26417   9.324  10.054   4.672  0.8458 -0.5114  0.1748
  917MOL0     C26418   9.365   9.956   4.785 -0.5537  0.4084 -0.0851
  917MOL0     C26419   9.469   9.857   4.728  0.0235  0.2462  0.0514
  917MOL0     C26420   9.528   9.768   4.842  0.7847  0.2685  0.1699
  917MOL0     C26421   9.622   9.656   4.798  0.0341 -0.4243 -0.1389
  917MOL0     C26422   9.588   9.582   4.670 -0.1475 -0.2011  0.0515
  917MOL0     C26423   9.695   9.475   4.633  0.1185 -0.0171 -0.5363
  917MOL0     C26424   9.705   9.363   4.743  0.1619  0.7027 -1.5470
  917MOL0     N26425   9.785   9.255   4.681  0.0715 -0.4340 -0.7263
  917MOL0     C26426   9.732   9.127   4.670 -0.4093  0.5582 -0.8834
  917MOL0     C26427   9.837   9.047   4.631  0.3218  0.6662  0.0291
  917MOL0     C26428   9.824   8.902   4.593  0.0735 -0.9257 -0.5027
  917MOL0     C26429   9.709   8.878   4.493  0.5438  0.0286  0.3148
  917MOL0     C26430   9.707   8.964   4.370 -0.2875 -0.1692  0.2857
  917MOL0     C26431   9.640   8.895   4.251 -0.2956  1.1137  0.5368
  917MOL0     O26432   9.601   8.985   4.150  0.0634 -0.1398 -0.3079
  917MOL0     C26433   9.613   8.935   4.023 -0.8210 -0.9183  0.4693
  917MOL0     C26434   9.616   9.043   3.934  0.6271 -0.5366  0.1139
  917MOL0     C26435   9.632   9.017   3.793 -0.3776 -0.8152  0.0397
  917MOL0     C26436   9.633   9.132   3.700  1.1179  0.6495 -0.7703
  917MOL0     C26437   9.626   8.887   3.747  0.3863 -0.5577 -0.7213
  917MOL0     C26438   9.647   8.849   3.604  0.3309  0.4046 -1.2577
  917MOL0     O26439   9.758   8.904   3.551  1.0807  0.9743  0.1673
  917MOL0     C26440   9.790   8.861   3.428  0.4956 -0.5040  0.4813
  917MOL0     C26441   9.767   8.735   3.365 -0.8570  0.3823 -0.0921
  917MOL0     C26442   9.818   8.709   3.235  0.0169  0.0056 -0.5030
  917MOL0     C26443   9.884   8.815   3.162 -0.4583  0.5800  0.9250
  917MOL0     O26444   9.898   8.780   3.029 -1.1864 -0.7164 -0.5646
  917MOL0     C26445   9.985   8.858   2.946  0.9805 -0.0901 -1.4379
  917MOL0     C26446  10.019   8.769   2.827  0.1902  0.1510 -0.3578
  917MOL0     C26447  10.161   8.699   2.829 -0.5254 -0.1428 -0.3574
  917MOL0     C26448  10.281   8.798   2.818 -0.4051 -0.1605  0.5241
  917MOL0     C26449  10.422   8.731   2.805 -0.0110 -0.1181  0.2452
  917MOL0     C26450  10.544   8.809   2.866  0.5966 -0.3793  0.4158
  917MOL0     C26451  10.668   8.732   2.832 -0.9678 -0.0006  0.3395
  917MOL0     C26452  10.677   8.594   2.905 -0.6609 -0.9770  0.0680
  917MOL0    Cl26453  10.732   8.624   3.072 -0.0933  0.3640 -0.0432
  917MOL0     C26454   9.905   8.934   3.220 -0.3460  0.4441  1.1314
  917MOL0     C26455   9.864   8.956   3.349 -0.0016 -0.0302 -1.1107
  917MOL0     O26456   9.552   8.800   3.547  0.2974  0.2039 -0.0444
  917MOL0     C26457   9.609   8.783   3.838  0.6045 -0.4410 -0.4448
  917MOL0     C26458   9.592   8.806   3.973 -0.7191  0.2811 -0.0340
  917MOL0     N26459   9.952   9.128   4.623  0.9017 -0.6051  0.7907
  917MOL0     N26460   9.924   9.247   4.660 -0.7718 -0.9242 -0.7147
  917MOL0     C26461   9.262  10.271   4.498  0.1231 -0.4267 -1.2266
  917MOL0     C26462   9.238  10.377   4.421  1.1346  0.0299 -0.0144
  917MOL0     C26463   9.390  10.760   4.165 -0.4350  0.5874  0.4359
  917MOL0     C26464   9.271  10.773   4.090 -0.5345 -0.6061  0.4873
  917MOL0     C26465   9.231  10.901   4.043  0.2365  0.7428  0.6065
  917MOL0     C26466   9.305  11.013   4.083  0.0768 -0.0758  0.0871
  917MOL0     O26467   9.255  11.137   4.060  0.0392 -0.6529  0.7306
  917MOL0     C26468   9.229  11.210   4.185 -0.3842 -0.7367 -0.4789
  917MOL0     C26469   9.100  11.294   4.168  0.0736 -0.4292  0.0418
  917MOL0     C26470   8.971  11.209   4.130 -0.2276 -0.1947  0.3199
  917MOL0     C26471   8.886  11.166   4.247  0.3165 -0.0053  0.0288
  917MOL0     C26472   8.774  11.086   4.204 -0.1834 -0.2945 -0.1152
  917MOL0     C26473   8.676  11.026   4.154 -0.2633 -0.3509  0.0824
  917MOL0     C26474   9.424  10.993   4.149  0.5135 -0.3937  0.7088
  917MOL0     C26475   9.475  10.868   4.183  0.3692  0.8908  0.3921
  917MOL0     C26476   9.604  10.859   4.257 -0.3941 -0.7750 -0.3679
  917MOL0     H26477   9.559  10.496   4.421 -0.5561  1.5361  0.5098
  917MOL0     H26478   9.588  10.326   4.559  1.6190  2.7615 -0.9101
  917MOL0     H26479   9.303  10.005   4.576 -2.9338  2.0984 -0.5350
  917MOL0     H26480   9.234  10.094   4.719  0.3875 -0.4728 -0.7302
  917MOL0     H26481   9.405  10.022   4.863  2.6920  2.5292 -3.2032
  917MOL0     H26482   9.273   9.903   4.810 -1.8858  0.4299 -4.2588
  917MOL0     H26483   9.410   9.798   4.657  0.5482  0.4752 -0.5853
  917MOL0     H26484   9.548   9.896   4.663  2.8336 -1.9050  1.9454
  917MOL0     H26485   9.580   9.824   4.920  0.2625 -0.6335  1.1943
  917MOL0     H26486   9.444   9.723   4.896  2.4893 -1.1136  1.8060
  917MOL0     H26487   9.621   9.585   4.881  2.5022 -0.4720 -0.0886
  917MOL0     H26488   9.727   9.686   4.796  1.2075 -3.9432  1.5816
  917MOL0     H26489   9.494   9.527   4.682 -0.6872 -0.5321 -4.1564
  917MOL0     H26490   9.580   9.665   4.600 -0.2561  2.1436  2.6419
  917MOL0     H26491   9.796   9.516   4.632  1.3434 -2.8047 -0.0381
  917MOL0     H26492   9.668   9.424   4.540 -1.4109 -0.9953  0.3940
  917MOL0     H26493   9.771   9.397   4.823  1.1414  1.7887 -2.7480
  917MOL0     H26494   9.602   9.341   4.771  1.1155  1.0219  2.8649
  917MOL0     H26495   9.631   9.089   4.683 -0.9132  1.5939 -1.6682
  917MOL0     H26496   9.805   8.836   4.677  0.5367 -3.5054 -2.2955
  917MOL0     H26497   9.918   8.855   4.561  0.5041 -0.6128  0.2733
  917MOL0     H26498   9.709   8.771   4.471 -5.0873 -0.2674  0.1062
  917MOL0     H26499   9.612   8.889   4.544 -0.0264  1.2736 -0.9778
  917MOL0     H26500   9.651   9.056   4.390  1.2455  0.8880 -0.1219
  917MOL0     H26501   9.801   9.005   4.334 -1.4420  2.1382 -0.3048
  917MOL0     H26502   9.716   8.828   4.211 -0.9034  0.9372 -0.3602
  917MOL0     H26503   9.554   8.833   4.280  1.2620  0.1610  3.4677
  917MOL0     H26504   9.610   9.140   3.982 -1.9722 -0.3480 -0.4054
  917MOL0     H26505   9.612   9.221   3.761  1.9493 -0.4341  1.2059
  917MOL0     H26506   9.556   9.122   3.624  0.1682  0.1875  0.2187
  917MOL0     H26507   9.728   9.143   3.647  0.7448 -0.4279 -1.6845
  917MOL0     H26508   9.715   8.655   3.417  1.1579 -1.2146 -0.3866
  917MOL0     H26509   9.803   8.621   3.173 -1.5950 -0.6615  0.7924
  917MOL0     H26510   9.944   8.953   2.911  1.6521  0.2841 -1.2381
  917MOL0     H26511  10.078   8.890   2.994  2.6221 -3.6440 -1.8765
  917MOL0     H26512   9.933   8.709   2.796  0.3506  0.2923 -1.0993
  917MOL0     H26513  10.037   8.836   2.743 -2.5828  0.0278 -1.1473
  917MOL0     H26514  10.168   8.632   2.743  0.5407 -0.0628 -0.3533
  917MOL0     H26515  10.169   8.646   2.924  1.5696 -0.4919 -0.6815
  917MOL0     H26516  10.287   8.848   2.915  1.0481 -0.2305  0.4940
  917MOL0     H26517  10.270   8.878   2.744  1.1231 -3.2396 -3.4520
  917MOL0     H26518  10.422   8.633   2.854 -2.3858 -0.1996  0.1942
  917MOL0     H26519  10.425   8.716   2.697 -2.4076 -1.4313  0.2934
  917MOL0     H26520  10.516   8.815   2.971 -1.1208 -1.3952  0.0623
  917MOL0     H26521  10.555   8.910   2.825 -0.2819  0.4133  2.0541
  917MOL0     H26522  10.761   8.783   2.860 -0.2663 -0.7803 -0.5171
  917MOL0     H26523  10.668   8.711   2.725  1.5994 -0.7382  0.4124
  917MOL0     H26524  10.756   8.533   2.860  0.5156  2.0641 -2.3381
  917MOL0     H26525  10.583   8.539   2.917 -0.6026 -0.4485  4.6513
  917MOL0     H26526   9.946   9.022   3.170  0.4343 -1.5210 -1.9899
  917MOL0     H26527   9.883   9.055   3.388 -0.9272 -0.2013 -0.1859
  917MOL0     H26528   9.600   8.686   3.791 -1.7130  0.5522 -2.2464
  917MOL0     H26529   9.587   8.724   4.043  1.2739  1.0721  1.1435
  917MOL0     H26530   9.175  10.208   4.514 -0.9952  0.5032 -3.1701
  917MOL0     H26531   9.137  10.394   4.385  0.2399 -3.9722  0.1189
  917MOL0     H26532   9.210  10.692   4.053  0.0878 -0.0918 -1.7840
  917MOL0     H26533   9.145  10.912   3.978  0.0416 -1.3625  0.4425
  917MOL0     H26534   9.219  11.144   4.272  1.5751 -2.0008 -1.1449
  917MOL0     H26535   9.306  11.282   4.211 -1.1965  1.1049 -2.8025
  917MOL0     H26536   9.115  11.366   4.088  1.4188 -0.7133  0.0254
  917MOL0     H26537   9.077  11.353   4.257 -0.5183  2.4291 -1.8652
  917MOL0     H26538   8.916  11.269   4.057  0.5041  0.0864 -0.0124
  917MOL0     H26539   8.995  11.129   4.060  0.1964 -0.7420  1.0684
  917MOL0     H26540   8.849  11.258   4.293  0.7664  0.4869 -0.5728
  917MOL0     H26541   8.950  11.116   4.320 -0.2230 -1.2678 -0.3337
  917MOL0     H26542   8.609  10.964   4.098  0.4715 -0.8867 -0.2180
  917MOL0     H26543   9.484  11.074   4.190  2.4372 -0.7728 -1.2132
  917MOL0     H26544   9.662  10.946   4.225 -0.2336 -0.1717  1.4522
  917MOL0     H26545   9.590  10.868   4.365 -0.8197 -0.0741 -0.4728
  917MOL0     H26546   9.666  10.769   4.246  2.1064  1.0358 -2.0407
  918MOL0     O26547   6.199  10.538   3.797  0.5105  0.0280 -0.8236
  918MOL0     C26548   6.087  10.520   3.861 -0.0672 -1.1158  0.5858
  918MOL0     O26549   6.048  10.409   3.919  0.2142  0.0486  0.1716
  918MOL0     C26550   6.137  10.307   3.934  0.1253  1.2780 -0.8790
  918MOL0     C26551   6.086  10.174   3.906 -0.3837 -1.0252  0.3963
  918MOL0     C26552   6.162  10.062   3.935  0.0546  0.6723  0.5088
  918MOL0     C26553   6.296  10.078   3.983 -0.1557  0.3127  0.1607
  918MOL0     O26554   6.374   9.961   4.013 -0.3569 -0.0914 -0.4543
  918MOL0     C26555   6.494   9.970   4.095  0.1030 -0.7203  0.5796
  918MOL0     C26556   6.564   9.835   4.129 -0.5995 -0.3847  0.1818
  918MOL0     C26557   6.477   9.737   4.200 -0.4129  0.1104 -0.9027
  918MOL0     C26558   6.557   9.612   4.231  0.9523  0.4538 -0.3711
  918MOL0     C26559   6.473   9.512   4.315  0.4097 -0.1301  0.2949
  918MOL0     C26560   6.530   9.369   4.337  1.1110  0.1006  0.5379
  918MOL0     C26561   6.453   9.276   4.440  0.4709 -0.4047  0.6829
  918MOL0     C26562   6.320   9.234   4.388 -0.8062  0.2642  1.3681
  918MOL0     N26563   6.265   9.133   4.474  0.1314 -1.0963  0.2871
  918MOL0     C26564   6.290   9.000   4.459 -0.1598  0.5343  0.0370
  918MOL0     C26565   6.191   8.941   4.525  0.8325 -0.0948  0.4617
  918MOL0     C26566   6.163   8.792   4.529 -0.3438  0.2889 -0.1527
  918MOL0     C26567   6.121   8.747   4.669  0.3022  0.7276 -0.0963
  918MOL0     C26568   5.967   8.759   4.698 -0.9069 -1.1121  0.3488
  918MOL0     C26569   5.918   8.714   4.831  0.9199  0.8832 -0.5489
  918MOL0     O26570   5.936   8.564   4.827 -0.5237 -0.5160 -0.1261
  918MOL0     C26571   6.010   8.512   4.929 -0.4413  0.4166 -0.0286
  918MOL0     C26572   5.958   8.394   4.987  0.6439 -0.2440  0.6306
  918MOL0     C26573   6.023   8.323   5.091  0.0057  0.1764 -1.4363
  918MOL0     C26574   5.967   8.195   5.161 -0.2923 -0.6242  1.1138
  918MOL0     C26575   6.139   8.380   5.142 -0.1167  0.1543 -0.2942
  918MOL0     C26576   6.232   8.303   5.215 -0.8924  0.2725 -0.3812
  918MOL0     O26577   6.295   8.216   5.140 -0.4033  0.7307 -0.2456
  918MOL0     C26578   6.374   8.113   5.176 -0.4783  0.1280 -0.8042
  918MOL0     C26579   6.432   8.035   5.073  0.7389 -0.2152 -0.1867
  918MOL0     C26580   6.510   7.927   5.101  0.6299  0.5258 -0.0971
  918MOL0     C26581   6.548   7.903   5.232 -0.0770  0.0497 -0.2435
  918MOL0     O26582   6.627   7.798   5.267 -0.8145 -0.7731  0.2321
  918MOL0     C26583   6.745   7.837   5.345 -0.1352  1.3170 -0.0363
  918MOL0     C26584   6.837   7.701   5.337  0.8761 -0.1694  0.4573
  918MOL0     C26585   6.960   7.712   5.422 -0.2479 -0.7882 -0.3652
  918MOL0     C26586   6.933   7.755   5.565  0.8109  0.1805  0.2525
  918MOL0     C26587   7.072   7.755   5.635 -0.0907  0.5206  0.2898
  918MOL0     C26588   7.187   7.816   5.554 -0.2459 -0.5773  0.1259
  918MOL0     C26589   7.302   7.831   5.653 -0.2628 -0.3584  1.3187
  918MOL0     C26590   7.430   7.866   5.576  0.1197  0.6651 -1.2715
  918MOL0    Cl26591   7.406   8.007   5.463  0.0759 -0.0729  0.0798
  918MOL0     C26592   6.482   7.974   5.333 -0.2452 -0.2927  0.0813
  918MOL0     C26593   6.398   8.076   5.311  0.1546 -0.1905  0.3871
  918MOL0     O26594   6.263   8.333   5.326 -0.1167  0.1222 -0.4896
  918MOL0     C26595   6.183   8.504   5.093 -0.1584  0.1248 -0.4345
  918MOL0     C26596   6.121   8.571   4.985  0.2065 -0.1533  0.2562
  918MOL0     N26597   6.110   9.043   4.581 -0.7492  0.5659 -0.3614
  918MOL0     N26598   6.161   9.158   4.557 -1.4070  0.7737 -0.2603
  918MOL0     C26599   6.347  10.209   4.004  0.1337  0.1284 -0.3749
  918MOL0     C26600   6.268  10.314   3.985  0.6169 -0.6794 -0.5395
  918MOL0     C26601   6.012  10.646   3.871 -0.0412  0.6305  0.9495
  918MOL0     C26602   5.956  10.673   3.995 -0.3577  0.0547 -0.9448
  918MOL0     C26603   5.858  10.777   4.009 -0.0064 -0.7002 -0.3142
  918MOL0     C26604   5.829  10.854   3.899 -0.3474 -0.6577  0.0552
  918MOL0     O26605   5.738  10.952   3.891  0.4467  0.3210  0.7239
  918MOL0     C26606   5.692  11.019   4.011 -0.5375  1.0556  0.2498
  918MOL0     C26607   5.585  11.119   3.965 -0.0193 -0.2556 -0.5850
  918MOL0     C26608   5.547  11.186   4.101 -0.0996 -0.1904 -0.3530
  918MOL0     C26609   5.421  11.279   4.077  0.4119  0.4158 -0.9910
  918MOL0     C26610   5.308  11.197   4.098 -0.5283  0.9757 -0.5832
  918MOL0     C26611   5.198  11.137   4.108  0.1414  0.1157 -0.4112
  918MOL0     C26612   5.878  10.816   3.775  0.0358 -0.0140  0.2795
  918MOL0     C26613   5.958  10.701   3.756 -0.9397  0.1555  1.0773
  918MOL0     C26614   5.998  10.668   3.611  0.4913 -0.7374 -0.7234
  918MOL0     H26615   5.985  10.173   3.865  0.5666  0.4647 -2.1889
  918MOL0     H26616   6.129   9.961   3.912 -0.4374  0.4241  2.1844
  918MOL0     H26617   6.474  10.014   4.193 -1.1726  1.8978 -0.7654
  918MOL0     H26618   6.569  10.035   4.050 -0.9057  0.1355  0.1069
  918MOL0     H26619   6.604   9.795   4.036  1.8945 -0.3136  1.1460
  918MOL0     H26620   6.647   9.863   4.195 -1.4249 -0.8213  1.4357
  918MOL0     H26621   6.441   9.782   4.293 -2.1674 -2.1043 -0.4238
  918MOL0     H26622   6.392   9.710   4.137 -1.4061 -2.5500  1.3778
  918MOL0     H26623   6.576   9.561   4.136 -0.6912 -2.5616  0.8063
  918MOL0     H26624   6.643   9.638   4.293  4.7980 -7.1233 -1.4115
  918MOL0     H26625   6.374   9.500   4.271  1.4367 -1.8910 -1.7611
  918MOL0     H26626   6.452   9.564   4.408 -2.2513 -1.3596  0.4691
  918MOL0     H26627   6.549   9.325   4.239 -0.4304  0.3404  0.0938
  918MOL0     H26628   6.632   9.388   4.371  1.3640 -0.5048  0.1255
  918MOL0     H26629   6.432   9.328   4.534 -3.1144 -2.3435  1.1198
  918MOL0     H26630   6.523   9.193   4.454 -0.4301 -1.2102  0.4274
  918MOL0     H26631   6.258   9.323   4.374 -0.5649 -0.0021 -2.3701
  918MOL0     H26632   6.349   9.188   4.293  1.0941 -3.2254  3.4274
  918MOL0     H26633   6.374   8.961   4.402 -0.6788  1.1314 -1.1537
  918MOL0     H26634   6.258   8.745   4.504  0.0526  1.8836 -1.8742
  918MOL0     H26635   6.078   8.774   4.462 -0.6916  0.5468  0.2130
  918MOL0     H26636   6.143   8.641   4.660  1.7668  1.2059 -4.6597
  918MOL0     H26637   6.185   8.788   4.747  0.1389 -0.3382  0.6140
  918MOL0     H26638   5.947   8.862   4.668  1.9700 -1.0405 -1.7106
  918MOL0     H26639   5.913   8.694   4.629 -2.7249 -0.5436  1.1865
  918MOL0     H26640   5.975   8.763   4.910 -1.4397  3.3021 -0.2337
  918MOL0     H26641   5.811   8.730   4.844  0.6228 -1.0947 -0.2256
  918MOL0     H26642   5.867   8.351   4.945  0.2436 -0.3708  1.5972
  918MOL0     H26643   5.921   8.221   5.257 -0.1002 -2.3332  1.7115
  918MOL0     H26644   6.050   8.123   5.170 -0.7405 -1.6963 -2.0929
  918MOL0     H26645   5.896   8.144   5.096 -0.5598  0.8333  0.2307
  918MOL0     H26646   6.422   8.067   4.970  2.8729 -2.1013 -1.0621
  918MOL0     H26647   6.571   7.875   5.028  0.8243  0.7442 -0.0937
  918MOL0     H26648   6.808   7.913   5.298  3.5033 -1.6535 -0.4879
  918MOL0     H26649   6.712   7.865   5.446  0.0946 -2.0778  1.1058
  918MOL0     H26650   6.784   7.612   5.372  0.1329  0.4781  1.0296
  918MOL0     H26651   6.872   7.698   5.234  0.9268  0.7539  0.4362
  918MOL0     H26652   7.015   7.782   5.358 -0.5481 -1.2448 -1.1414
  918MOL0     H26653   6.994   7.608   5.424  0.6458 -0.5506  3.1868
  918MOL0     H26654   6.863   7.684   5.610  0.2961 -0.0823 -0.9177
  918MOL0     H26655   6.890   7.856   5.561  1.9638  0.6577 -0.9848
  918MOL0     H26656   7.047   7.806   5.728  0.4302  1.0065  0.1717
  918MOL0     H26657   7.090   7.652   5.667 -1.3706  0.4798  0.9251
  918MOL0     H26658   7.170   7.919   5.520  2.4829 -0.7280 -2.0619
  918MOL0     H26659   7.226   7.758   5.470 -0.0862 -2.8299  1.6623
  918MOL0     H26660   7.326   7.733   5.694  0.0884 -1.2420 -0.8664
  918MOL0     H26661   7.277   7.905   5.730 -0.4527 -0.2525  1.1545
  918MOL0     H26662   7.468   7.786   5.513  1.8549  1.2743 -1.0583
  918MOL0     H26663   7.501   7.884   5.657  2.0057  0.7068 -2.8579
  918MOL0     H26664   6.506   7.932   5.430  1.8990  2.2789  0.7760
  918MOL0     H26665   6.360   8.130   5.397  2.2118 -0.5852  1.6249
  918MOL0     H26666   6.279   8.549   5.117 -0.0517  0.5368 -1.5658
  918MOL0     H26667   6.166   8.662   4.949  0.8255 -0.2282  0.8259
  918MOL0     H26668   6.440  10.227   4.057 -0.7617 -1.5386  1.9342
  918MOL0     H26669   6.297  10.412   4.022 -1.3477 -0.9548  1.9665
  918MOL0     H26670   5.985  10.627   4.089 -2.7913 -2.2098 -1.1776
  918MOL0     H26671   5.815  10.794   4.108  0.7036 -2.2618  0.3053
  918MOL0     H26672   5.655  10.947   4.085 -0.0190 -1.7548 -2.0448
  918MOL0     H26673   5.778  11.067   4.059  0.7930 -0.5219 -0.4566
  918MOL0     H26674   5.504  11.062   3.918  1.7581 -3.3763 -0.1376
  918MOL0     H26675   5.618  11.189   3.888 -0.6423  1.8060  0.9352
  918MOL0     H26676   5.530  11.116   4.183 -0.7431  0.4985  0.1122
  918MOL0     H26677   5.628  11.255   4.126 -0.5079  0.3781 -0.5957
  918MOL0     H26678   5.416  11.329   3.980 -0.7902  2.9635  0.2756
  918MOL0     H26679   5.428  11.363   4.147  0.9599  1.3421 -2.1234
  918MOL0     H26680   5.110  11.077   4.108 -0.9108  1.5500  1.3968
  918MOL0     H26681   5.841  10.870   3.688 -0.4542 -1.8903 -0.7204
  918MOL0     H26682   5.933  10.712   3.535  0.5635  0.1688 -0.2722
  918MOL0     H26683   6.100  10.705   3.594  0.5409 -0.6545 -0.2641
  918MOL0     H26684   5.992  10.561   3.587 -0.7617 -1.9708  4.1456
  919MOL0     O26685  10.850   0.742  10.060  0.2041  0.4680  0.6021
  919MOL0     C26686  10.837   0.837  10.138  0.4953  0.0721 -0.0479
  919MOL0     O26687  10.902   0.848  10.252  0.4964 -0.0433  0.1912
  919MOL0     C26688  11.027   0.798  10.269  0.6387  0.4604  0.5673
  919MOL0     C26689  11.139   0.890  10.271 -0.0746  0.2716 -0.0688
  919MOL0     C26690  11.262   0.832  10.320 -0.0602 -0.0671  0.8422
  919MOL0     C26691  11.281   0.699  10.355  0.7266 -0.4388 -0.4167
  919MOL0     O26692  11.405   0.639  10.382 -0.4416  0.1091 -0.7838
  919MOL0     C26693  11.513   0.686  10.310 -1.2712  0.6784  0.3609
  919MOL0     C26694  11.631   0.629  10.394 -0.4629  0.2129  0.6713
  919MOL0     C26695  11.769   0.671  10.348  1.2276  1.0636 -0.8886
  919MOL0     C26696  11.885   0.640  10.435  0.4287  0.6245  0.0506
  919MOL0     C26697  11.904   0.486  10.419 -0.3209 -0.6751 -0.4591
  919MOL0     C26698  12.032   0.437  10.485  0.4957  0.3810  0.0547
  919MOL0     C26699  12.072   0.299  10.442  0.2290 -0.0599  0.4928
  919MOL0     C26700  12.153   0.313  10.316 -0.5093 -0.8649  0.1467
  919MOL0     N26701  12.219   0.194  10.267 -0.2185 -0.1877 -0.6572
  919MOL0     C26702  12.165   0.082  10.200  0.3558  0.0526  0.1096
  919MOL0     C26703  12.264  -0.001  10.184 -0.4396 -0.1793  0.6586
  919MOL0     C26704  12.271  -0.133  10.116  1.3261 -0.0683  0.5534
  919MOL0     C26705  12.154  -0.220  10.157  0.4227  0.4051 -0.0224
  919MOL0     C26706  12.176  -0.359  10.099  0.6380 -0.0063 -0.1809
  919MOL0     C26707  12.296  -0.436  10.155  0.9432  0.0145  1.2278
  919MOL0     O26708  12.278  -0.569  10.110 -0.5225  0.4850  0.6186
  919MOL0     C26709  12.376  -0.660  10.140  0.8152  0.2862 -0.6667
  919MOL0     C26710  12.390  -0.779  10.071  0.3099  0.0592 -0.4912
  919MOL0     C26711  12.492  -0.873  10.104 -0.2534 -0.0699  0.4140
  919MOL0     C26712  12.493  -0.996  10.016  0.1174  1.0839  0.0335
  919MOL0     C26713  12.580  -0.844  10.210  0.0820 -0.1915  0.1274
  919MOL0     C26714  12.685  -0.948  10.252 -0.4332 -0.4288  0.3056
  919MOL0     O26715  12.643  -1.076  10.272 -0.1321 -0.0180  0.4288
  919MOL0     C26716  12.741  -1.165  10.310  0.2181  0.0088  0.3102
  919MOL0     C26717  12.824  -1.221  10.216 -0.2287  0.4094 -0.6159
  919MOL0     C26718  12.931  -1.315  10.254 -0.1012 -0.8638 -1.2234
  919MOL0     C26719  12.952  -1.342  10.389  0.1923 -0.4533 -1.1450
  919MOL0     O26720  13.043  -1.439  10.433  0.6230 -0.2508  0.2214
  919MOL0     C26721  13.157  -1.475  10.361 -0.3788 -0.5578  0.1317
  919MOL0     C26722  13.233  -1.584  10.437  0.4590 -0.0520 -0.2156
  919MOL0     C26723  13.353  -1.643  10.355  0.4398 -0.2100 -0.4408
  919MOL0     C26724  13.313  -1.714  10.229  0.0859 -0.0816  0.3748
  919MOL0     C26725  13.434  -1.781  10.172  0.0420  0.5063  0.9923
  919MOL0     C26726  13.389  -1.894  10.079  0.1494  0.5323 -0.0518
  919MOL0     C26727  13.490  -1.956   9.988 -0.4572  0.1368 -0.0383
  919MOL0     C26728  13.519  -1.867   9.866 -0.4485 -0.4712  0.5293
  919MOL0    Cl26729  13.663  -1.757   9.895 -0.1030 -0.2945 -0.2453
  919MOL0     C26730  12.864  -1.291  10.485 -0.8280  0.6070  0.2551
  919MOL0     C26731  12.764  -1.209  10.446  0.0046 -0.9242  0.7854
  919MOL0     O26732  12.795  -0.900  10.249 -0.0359  0.6637  0.7750
  919MOL0     C26733  12.558  -0.729  10.292 -0.0978  0.8091  0.2592
  919MOL0     C26734  12.456  -0.640  10.260  0.7275  0.5074  0.5695
  919MOL0     N26735  12.383   0.054  10.240 -0.8736 -0.4348 -0.1976
  919MOL0     N26736  12.354   0.174  10.286  0.4078  0.7893  0.3766
  919MOL0     C26737  11.174   0.616  10.346  0.3681 -0.4369  1.1544
  919MOL0     C26738  11.052   0.662  10.299 -0.0719 -0.8861  0.0599
  919MOL0     C26739  10.744   0.942  10.106  1.2608  0.6301  0.2973
  919MOL0     C26740  10.676   1.008  10.206 -0.0984  0.2684 -0.3991
  919MOL0     C26741  10.587   1.116  10.171 -0.3791  0.0200 -1.2065
  919MOL0     C26742  10.558   1.145  10.038 -0.1497 -0.1766 -0.7198
  919MOL0     O26743  10.464   1.230   9.993 -0.4494  0.2250  0.3851
  919MOL0     C26744  10.398   1.320  10.077  0.7302  0.7374  0.4875
  919MOL0     C26745  10.278   1.262  10.148 -0.2728 -0.2376  0.7848
  919MOL0     C26746  10.166   1.357  10.177 -0.3179  0.7091  0.0412
  919MOL0     C26747  10.073   1.307  10.278  0.2557  0.4957  0.2216
  919MOL0     C26748   9.994   1.422  10.318 -0.4534 -0.4763 -0.1378
  919MOL0     C26749   9.910   1.503  10.347  0.5464 -0.5273 -0.4939
  919MOL0     C26750  10.635   1.090   9.934  0.5636  0.5511  0.3062
  919MOL0     C26751  10.726   0.982   9.966 -0.1733 -0.0440 -0.3716
  919MOL0     C26752  10.787   0.921   9.847 -0.2925 -0.4614  0.8188
  919MOL0     H26753  11.143   0.991  10.232  1.3265  0.3016  0.1069
  919MOL0     H26754  11.336   0.911  10.331 -1.2308  1.0140  1.3307
  919MOL0     H26755  11.515   0.795  10.306 -1.9018  0.6383 -1.5871
  919MOL0     H26756  11.501   0.646  10.209 -0.9856  0.0446  0.5689
  919MOL0     H26757  11.628   0.666  10.497  1.0573 -0.5515  1.0209
  919MOL0     H26758  11.614   0.521  10.403  2.1182 -0.2409  0.8035
  919MOL0     H26759  11.782   0.635  10.245  0.6227  0.5457 -0.7959
  919MOL0     H26760  11.759   0.779  10.356  0.2982  0.8262  2.0796
  919MOL0     H26761  11.973   0.682  10.385  0.3625  1.3058  0.4908
  919MOL0     H26762  11.878   0.665  10.541  1.0500 -2.1491  0.8187
  919MOL0     H26763  11.913   0.465  10.312 -1.2159  0.5831 -0.8009
  919MOL0     H26764  11.821   0.433  10.467 -0.6904  1.7851  1.8350
  919MOL0     H26765  12.107   0.514  10.467  0.4553  0.3215 -0.3882
  919MOL0     H26766  12.019   0.438  10.593 -0.9109 -0.1037 -0.0844
  919MOL0     H26767  11.984   0.242  10.412  1.7774 -2.5769  0.4824
  919MOL0     H26768  12.119   0.247  10.525 -2.2068 -0.7940  1.5026
  919MOL0     H26769  12.090   0.353  10.236  0.8614 -2.2137 -1.6987
  919MOL0     H26770  12.229   0.387  10.342 -0.2801 -0.7716 -0.7469
  919MOL0     H26771  12.062   0.075  10.166  0.2202  1.0939  0.2630
  919MOL0     H26772  12.363  -0.182  10.150  2.9657  2.4345 -0.0365
  919MOL0     H26773  12.284  -0.124  10.008  0.7414 -4.8060 -0.1246
  919MOL0     H26774  12.169  -0.226  10.265  2.9646  3.3894 -0.0549
  919MOL0     H26775  12.058  -0.176  10.128 -0.0798  1.1090  2.5157
  919MOL0     H26776  12.091  -0.422  10.128  0.2040  0.8614  0.4709
  919MOL0     H26777  12.187  -0.350   9.990 -1.7572  1.6522 -0.3775
  919MOL0     H26778  12.386  -0.407  10.102  0.9656  0.0483  1.2844
  919MOL0     H26779  12.305  -0.425  10.264  2.6996  0.3039  1.0734
  919MOL0     H26780  12.329  -0.811   9.987 -0.0668 -0.0046 -0.1992
  919MOL0     H26781  12.460  -1.084  10.072 -0.6337  1.4420  0.1742
  919MOL0     H26782  12.593  -1.017   9.978 -0.0725  0.4931 -0.1407
  919MOL0     H26783  12.426  -0.993   9.930  3.1012  0.0635 -2.5072
  919MOL0     H26784  12.798  -1.189  10.115 -1.1996  3.1270  0.3915
  919MOL0     H26785  12.999  -1.360  10.183 -0.7542 -1.8422 -1.2477
  919MOL0     H26786  13.137  -1.521  10.264  3.4766 -2.7051  0.1346
  919MOL0     H26787  13.222  -1.388  10.349 -0.9082 -0.1002  0.5104
  919MOL0     H26788  13.267  -1.539  10.532  2.8272  0.6168 -1.2941
  919MOL0     H26789  13.161  -1.665  10.454  1.1182 -0.9981 -1.7332
  919MOL0     H26790  13.395  -1.714  10.427 -1.7238 -0.0303  1.0991
  919MOL0     H26791  13.425  -1.563  10.333 -0.4257  1.4098  2.1598
  919MOL0     H26792  13.269  -1.635  10.168  0.7863  0.4863  0.5827
  919MOL0     H26793  13.233  -1.782  10.258 -2.2810  3.5794  3.3237
  919MOL0     H26794  13.489  -1.700  10.125  1.3569 -2.4412 -3.0865
  919MOL0     H26795  13.491  -1.821  10.256 -4.0163  0.1063  3.8602
  919MOL0     H26796  13.302  -1.856  10.025  1.6736  2.0400 -1.5764
  919MOL0     H26797  13.357  -1.976  10.144  1.7964 -0.3829 -0.3545
  919MOL0     H26798  13.436  -2.042   9.947 -1.0834  0.3050  0.4287
  919MOL0     H26799  13.579  -1.999  10.035  0.0892 -1.3616 -2.2877
  919MOL0     H26800  13.430  -1.810   9.839  0.8595  1.9416  1.0149
  919MOL0     H26801  13.544  -1.937   9.785 -0.5512 -0.2419  0.2950
  919MOL0     H26802  12.855  -1.345  10.579  2.1939  0.1031  0.3687
  919MOL0     H26803  12.685  -1.176  10.513 -3.1755  1.6969 -3.6856
  919MOL0     H26804  12.630  -0.704  10.369 -1.1129 -1.4965  2.0909
  919MOL0     H26805  12.453  -0.560  10.333  0.0162  0.4092  0.6562
  919MOL0     H26806  11.184   0.508  10.351 -1.8641 -0.6671  1.6481
  919MOL0     H26807  10.978   0.589  10.267  0.4779 -1.8205  0.8855
  919MOL0     H26808  10.695   0.969  10.305 -0.7182 -2.9048 -1.4131
  919MOL0     H26809  10.532   1.169  10.249  0.6419  1.0632 -1.1851
  919MOL0     H26810  10.473   1.358  10.147  3.4589 -0.4272 -1.6040
  919MOL0     H26811  10.372   1.405  10.014  3.5941  1.0498 -0.4258
  919MOL0     H26812  10.311   1.200  10.232  3.4011 -0.0221 -0.3086
  919MOL0     H26813  10.235   1.190  10.078 -3.1373  1.7982  0.2490
  919MOL0     H26814  10.218   1.442  10.220 -0.5842  0.1883  1.4892
  919MOL0     H26815  10.126   1.375  10.077  0.0962  1.4355  0.0007
  919MOL0     H26816  10.127   1.265  10.364  2.0269  1.1557 -0.5149
  919MOL0     H26817  10.016   1.226  10.233  3.6665 -1.3769 -1.0880
  919MOL0     H26818   9.823   1.552  10.387 -2.6616 -5.8068 -0.0294
  919MOL0     H26819  10.605   1.105   9.831  0.7242  1.2867  0.3644
  919MOL0     H26820  10.724   0.834   9.826  0.2849 -0.5186 -0.7848
  919MOL0     H26821  10.779   0.978   9.754 -0.6599  0.2413  1.2696
  919MOL0     H26822  10.894   0.905   9.864  0.0037  2.1821  1.9605
  920MOL0     O26823   0.827   8.291   9.079 -0.6428  0.5035  0.4176
  920MOL0     C26824   0.808   8.201   9.159  0.8319  0.3323 -0.0950
  920MOL0     O26825   0.860   8.070   9.146  0.2519 -0.8161 -0.6365
  920MOL0     C26826   0.891   8.015   9.027  0.3833 -0.5980 -0.5037
  920MOL0     C26827   0.795   7.969   8.940  0.2791  0.0467  0.1365
  920MOL0     C26828   0.822   7.895   8.825  0.0150 -0.1583 -0.3291
  920MOL0     C26829   0.953   7.867   8.791 -1.0107  0.5611 -0.7715
  920MOL0     O26830   0.992   7.800   8.682 -0.2786 -0.1722  0.1737
  920MOL0     C26831   0.908   7.801   8.569 -0.4063 -0.1017  0.3152
  920MOL0     C26832   0.991   7.724   8.468 -0.4730  0.2378  0.6559
  920MOL0     C26833   0.911   7.704   8.337  0.9223  0.6059  0.3399
  920MOL0     C26834   0.999   7.618   8.242 -0.4218  0.0198 -0.8345
  920MOL0     C26835   0.914   7.558   8.133  0.6369 -0.6393 -0.7221
  920MOL0     C26836   0.995   7.478   8.028  0.2156 -0.4640 -0.4370
  920MOL0     C26837   0.915   7.416   7.922  0.2946  0.7811  0.2005
  920MOL0     C26838   0.985   7.406   7.789  0.0079 -0.0524  0.0631
  920MOL0     N26839   0.876   7.366   7.699 -1.2371 -0.5555 -0.7486
  920MOL0     C26840   0.829   7.241   7.681 -0.1044  0.5624  0.7342
  920MOL0     C26841   0.732   7.268   7.585  0.4069  0.2274  0.4090
  920MOL0     C26842   0.624   7.166   7.541  0.1364 -0.3141  0.7703
  920MOL0     C26843   0.482   7.222   7.579  0.2562 -0.0138 -0.7259
  920MOL0     C26844   0.374   7.154   7.496 -0.5165  0.1871  0.0486
  920MOL0     C26845   0.243   7.177   7.573  0.3381  0.5108 -1.0238
  920MOL0     O26846   0.141   7.121   7.494  0.6867  0.3978  0.0152
  920MOL0     C26847   0.083   6.995   7.508  0.2028 -0.7659  0.7741
  920MOL0     C26848   0.003   6.945   7.408  0.1734 -0.0141 -0.5696
  920MOL0     C26849  -0.047   6.817   7.413 -0.0878  0.3114 -0.8391
  920MOL0     C26850  -0.110   6.754   7.292  0.7905  0.6629  0.5475
  920MOL0     C26851  -0.020   6.734   7.533  0.0847 -0.5594 -0.7148
  920MOL0     C26852  -0.068   6.593   7.562 -0.0984 -0.0359 -0.0274
  920MOL0     O26853  -0.006   6.524   7.661 -1.1439 -0.6833 -0.4275
  920MOL0     C26854  -0.068   6.422   7.716 -0.2676  1.5663 -0.7644
  920MOL0     C26855  -0.048   6.296   7.655  0.1087 -0.5584 -0.0269
  920MOL0     C26856  -0.121   6.183   7.715  0.0326 -0.9861  0.0573
  920MOL0     C26857  -0.192   6.196   7.835 -0.0334 -0.8377 -0.0553
  920MOL0     O26858  -0.260   6.096   7.894  0.3789  0.4222  0.0776
  920MOL0     C26859  -0.225   5.965   7.886  0.8055 -0.1086 -0.3029
  920MOL0     C26860  -0.340   5.895   7.960  0.3031  0.0966  0.5623
  920MOL0     C26861  -0.339   5.891   8.115 -0.0258 -0.1342  0.4542
  920MOL0     C26862  -0.397   6.015   8.179  0.7244 -0.6232 -0.5969
  920MOL0     C26863  -0.406   6.022   8.337  0.5205 -0.2010  0.2615
  920MOL0     C26864  -0.516   5.935   8.385  0.8434  0.2398 -0.6917
  920MOL0     C26865  -0.512   5.934   8.541 -0.2214  0.1635  0.5957
  920MOL0     C26866  -0.467   5.795   8.602 -0.0393  0.1417  0.1518
  920MOL0    Cl26867  -0.556   5.651   8.556 -0.6911 -0.3647  0.0230
  920MOL0     C26868  -0.204   6.320   7.899 -0.3797 -0.3065  0.2176
  920MOL0     C26869  -0.148   6.432   7.835 -0.3469 -0.0287  0.0920
  920MOL0     O26870  -0.168   6.555   7.498 -0.4189  0.5751 -0.0793
  920MOL0     C26871   0.057   6.789   7.638  0.4784  0.8886  0.3969
  920MOL0     C26872   0.109   6.914   7.623 -0.8905 -0.4403 -0.9534
  920MOL0     N26873   0.742   7.403   7.546 -0.1157 -0.1226 -0.5775
  920MOL0     N26874   0.827   7.461   7.628  0.3606  0.0825 -0.4379
  920MOL0     C26875   1.051   7.907   8.885 -0.5163 -0.1243 -0.0879
  920MOL0     C26876   1.018   7.987   8.996  0.4786 -0.3940  0.2355
  920MOL0     C26877   0.731   8.229   9.281  0.0610 -0.3102 -0.5012
  920MOL0     C26878   0.710   8.128   9.382 -0.0969 -0.5130  0.2696
  920MOL0     C26879   0.627   8.147   9.493 -0.5122 -0.3931  1.0383
  920MOL0     C26880   0.589   8.280   9.529 -0.7579 -0.0751 -0.8858
  920MOL0     O26881   0.537   8.294   9.653  0.1025 -0.0548 -0.1818
  920MOL0     C26882   0.484   8.425   9.700 -0.7416  0.9437 -0.1659
  920MOL0     C26883   0.340   8.428   9.636 -0.3224 -0.2335  0.1531
  920MOL0     C26884   0.274   8.562   9.636  0.4633 -0.0822  0.2716
  920MOL0     C26885   0.188   8.573   9.761 -0.9364 -0.5991  0.2894
  920MOL0     C26886   0.117   8.703   9.757  0.2755 -0.4054 -0.5827
  920MOL0     C26887   0.052   8.808   9.760 -0.4168 -0.5747 -0.3432
  920MOL0     C26888   0.624   8.386   9.438 -0.2985 -0.3161  0.1525
  920MOL0     C26889   0.691   8.362   9.310 -0.5134 -0.3860 -1.3037
  920MOL0     C26890   0.744   8.500   9.248  0.3071  1.3606  1.3028
  920MOL0     H26891   0.689   7.982   8.957 -0.5600 -3.1954 -1.7117
  920MOL0     H26892   0.740   7.871   8.758  2.2085 -2.3126 -2.4366
  920MOL0     H26893   0.885   7.904   8.540  3.4596 -0.0174 -3.5221
  920MOL0     H26894   0.818   7.741   8.588  0.4131 -2.0980 -1.5492
  920MOL0     H26895   1.085   7.778   8.449  0.2696 -0.8992  1.0040
  920MOL0     H26896   1.017   7.629   8.514 -0.8096  1.0445  2.6155
  920MOL0     H26897   0.817   7.656   8.365  0.2434  1.0065 -1.1515
  920MOL0     H26898   0.895   7.801   8.288 -2.9210 -0.4065 -0.7053
  920MOL0     H26899   1.077   7.681   8.197  1.5407 -0.6880  1.4154
  920MOL0     H26900   1.056   7.545   8.299  0.7369  1.6463  0.2035
  920MOL0     H26901   0.848   7.630   8.084 -0.8926  0.3371  2.5223
  920MOL0     H26902   0.832   7.500   8.174 -0.3828  0.1897 -1.5305
  920MOL0     H26903   1.069   7.545   7.983  0.4759 -0.0204  0.6274
  920MOL0     H26904   1.056   7.402   8.077 -1.3002 -1.5540 -0.1587
  920MOL0     H26905   0.821   7.469   7.905 -0.0292  0.2264  0.2095
  920MOL0     H26906   0.883   7.315   7.952  1.3381  0.9577  2.0420
  920MOL0     H26907   1.031   7.500   7.757 -0.3506  0.4171  0.8818
  920MOL0     H26908   1.057   7.325   7.788  1.7904  1.3318 -3.9818
  920MOL0     H26909   0.859   7.143   7.718  2.8690  1.2917  0.5624
  920MOL0     H26910   0.636   7.073   7.597 -3.5710 -0.4825  1.5444
  920MOL0     H26911   0.628   7.133   7.437 -1.3174 -0.8077  0.8433
  920MOL0     H26912   0.460   7.201   7.684 -0.0927  2.9926 -0.1139
  920MOL0     H26913   0.476   7.330   7.568  0.9504 -0.0091 -1.1291
  920MOL0     H26914   0.382   7.194   7.394 -2.2742 -0.4167 -0.3530
  920MOL0     H26915   0.373   7.045   7.490 -3.0978  0.2130 -1.2391
  920MOL0     H26916   0.244   7.140   7.676 -1.7163  0.2586 -1.0548
  920MOL0     H26917   0.220   7.284   7.584 -1.8812 -0.1916  4.3851
  920MOL0     H26918   0.001   7.012   7.323  0.3890  3.4365  1.9304
  920MOL0     H26919  -0.217   6.775   7.303  0.9282  0.1853  4.1192
  920MOL0     H26920  -0.083   6.648   7.284  2.0879  1.0526 -0.6830
  920MOL0     H26921  -0.071   6.803   7.203 -1.2490  0.7715 -0.3328
  920MOL0     H26922   0.011   6.290   7.564  0.5607 -1.0559  0.2942
  920MOL0     H26923  -0.131   6.095   7.653 -1.4856  0.9522 -2.6796
  920MOL0     H26924  -0.220   5.926   7.784 -1.6323  2.5853 -1.5969
  920MOL0     H26925  -0.133   5.947   7.943 -1.2462 -0.0434  3.2577
  920MOL0     H26926  -0.436   5.937   7.929 -0.1851 -0.9650  0.6248
  920MOL0     H26927  -0.339   5.790   7.931 -1.5950 -0.3686  2.0001
  920MOL0     H26928  -0.236   5.866   8.142  1.0656  1.5930 -1.7706
  920MOL0     H26929  -0.403   5.808   8.147  1.2708 -1.3119  0.1040
  920MOL0     H26930  -0.501   6.007   8.146  0.6570 -8.0770 -0.1581
  920MOL0     H26931  -0.351   6.107   8.141 -4.5790  3.9634  2.3650
  920MOL0     H26932  -0.309   5.983   8.367  0.6205 -1.9775 -2.1466
  920MOL0     H26933  -0.433   6.121   8.377 -2.1552 -1.0362  0.7620
  920MOL0     H26934  -0.499   5.835   8.344 -2.7485 -1.5511  1.6730
  920MOL0     H26935  -0.615   5.972   8.357  0.8704 -0.4457 -1.7430
  920MOL0     H26936  -0.609   5.954   8.586  0.6512  0.5718  2.3967
  920MOL0     H26937  -0.440   6.006   8.582  2.1906 -2.0631  0.5087
  920MOL0     H26938  -0.454   5.801   8.710  1.6388 -1.9584  0.1252
  920MOL0     H26939  -0.368   5.777   8.558 -0.0819 -1.8545  0.8030
  920MOL0     H26940  -0.258   6.317   7.992 -0.5452 -4.6342  0.2219
  920MOL0     H26941  -0.172   6.525   7.886  2.1777 -1.2287  3.8903
  920MOL0     H26942   0.078   6.724   7.722  0.4560 -0.8838 -0.9006
  920MOL0     H26943   0.169   6.948   7.707 -1.5392 -0.8522 -0.3098
  920MOL0     H26944   1.158   7.890   8.878 -0.1195  0.3320  3.2454
  920MOL0     H26945   1.087   8.036   9.063 -1.3011  1.8891  0.5382
  920MOL0     H26946   0.753   8.032   9.356 -0.0348 -0.5820  0.6252
  920MOL0     H26947   0.626   8.065   9.565  4.3022 -0.0989  1.7888
  920MOL0     H26948   0.491   8.415   9.809 -1.6860  0.8590 -0.1016
  920MOL0     H26949   0.544   8.510   9.667  0.9165 -0.0008  0.3096
  920MOL0     H26950   0.276   8.356   9.687  0.5455  0.4683  2.3469
  920MOL0     H26951   0.349   8.402   9.530 -0.5647 -0.1994  0.1237
  920MOL0     H26952   0.351   8.640   9.626 -0.8364  1.4508  1.7415
  920MOL0     H26953   0.213   8.565   9.546  1.7958 -2.1649 -0.7935
  920MOL0     H26954   0.269   8.561   9.833  2.2580 -1.2884 -3.1117
  920MOL0     H26955   0.114   8.494   9.774 -2.8464  1.2913  1.5596
  920MOL0     H26956   0.008   8.904   9.742  0.6021 -0.2849 -1.4436
  920MOL0     H26957   0.605   8.490   9.462  1.1733  0.2041 -0.8384
  920MOL0     H26958   0.847   8.517   9.282  1.3248  0.2438 -1.0079
  920MOL0     H26959   0.733   8.496   9.139 -0.6976  3.7144  1.2543
  920MOL0     H26960   0.681   8.584   9.278  0.0765  2.6926 -2.4214
  921MOL0     O26961   0.653   5.680   0.702  0.7522 -0.1698 -0.2059
  921MOL0     C26962   0.693   5.572   0.678 -0.6056 -0.6751 -0.0056
  921MOL0     O26963   0.715   5.524   0.552 -0.2325 -0.5561 -1.2027
  921MOL0     C26964   0.707   5.604   0.446 -0.7135  0.2438  0.9835
  921MOL0     C26965   0.804   5.693   0.414 -1.3433  0.0137 -0.4643
  921MOL0     C26966   0.799   5.760   0.295  0.5642 -0.2574  0.7562
  921MOL0     C26967   0.698   5.749   0.198 -0.6959  0.0909 -0.5563
  921MOL0     O26968   0.696   5.836   0.086  0.3012  0.7146  0.2074
  921MOL0     C26969   0.816   5.908   0.046 -0.1692 -0.4692  0.1069
  921MOL0     C26970   0.786   5.968  -0.088  0.1790  0.6552  0.3005
  921MOL0     C26971   0.903   6.034  -0.155  0.3164  0.8603 -0.2664
  921MOL0     C26972   0.903   6.042  -0.309  0.0642 -0.2106 -0.6586
  921MOL0     C26973   1.045   6.094  -0.340 -0.7038 -0.3898  0.3990
  921MOL0     C26974   1.070   6.115  -0.488 -0.4118 -0.4621  0.3066
  921MOL0     C26975   1.200   6.211  -0.505 -0.3303  0.2359 -0.0393
  921MOL0     C26976   1.329   6.125  -0.503 -1.0810 -0.5492 -0.1968
  921MOL0     N26977   1.396   6.117  -0.374  0.0339  0.3147 -0.3098
  921MOL0     C26978   1.434   6.219  -0.297  0.1709 -0.5434 -1.1756
  921MOL0     C26979   1.453   6.164  -0.173 -0.2716  0.6137  1.0568
  921MOL0     C26980   1.479   6.241  -0.049 -0.0251 -0.2566 -0.8030
  921MOL0     C26981   1.358   6.315  -0.005  0.3839 -0.3439 -0.9867
  921MOL0     C26982   1.231   6.222   0.032 -0.1619  0.3698  0.1844
  921MOL0     C26983   1.261   6.130   0.153  0.1391  0.9383 -0.4588
  921MOL0     O26984   1.152   6.098   0.239 -0.4952  0.1432 -0.5193
  921MOL0     C26985   1.171   6.023   0.356  0.2709  0.8410  1.1770
  921MOL0     C26986   1.307   6.001   0.398  0.4721  0.4917 -1.0623
  921MOL0     C26987   1.322   5.933   0.519 -0.2492  1.0379 -0.5338
  921MOL0     C26988   1.469   5.898   0.547 -0.1147  0.2251  0.4920
  921MOL0     C26989   1.214   5.879   0.599 -0.4201  1.2244  0.5768
  921MOL0     C26990   1.226   5.810   0.726  0.0364 -0.2894  0.0425
  921MOL0     O26991   1.105   5.782   0.790  0.2660  0.1833  0.9649
  921MOL0     C26992   1.113   5.714   0.907 -0.3518  0.2834  0.2764
  921MOL0     C26993   1.167   5.780   1.018  0.0118 -0.6534  0.4994
  921MOL0     C26994   1.166   5.716   1.144 -0.1890  0.6906 -0.4833
  921MOL0     C26995   1.119   5.583   1.155 -0.1754  1.4829  0.1806
  921MOL0     O26996   1.127   5.523   1.278  0.2023  0.0249  0.2962
  921MOL0     C26997   1.019   5.451   1.327  0.4683 -0.8219  0.0404
  921MOL0     C26998   0.938   5.541   1.425  0.6850 -0.1879 -0.8024
  921MOL0     C26999   0.785   5.496   1.410  0.5455 -0.6717  0.0494
  921MOL0     C27000   0.699   5.558   1.514  1.2824 -0.0319 -0.3677
  921MOL0     C27001   0.554   5.563   1.453 -0.5076  0.1194  0.8175
  921MOL0     C27002   0.452   5.636   1.528 -0.8947 -0.0289  0.2742
  921MOL0     C27003   0.312   5.626   1.461 -0.2879  0.4874  0.7207
  921MOL0     C27004   0.223   5.728   1.524  0.0322 -0.1664 -0.7811
  921MOL0    Cl27005   0.110   5.792   1.401 -0.0755  0.6846 -0.0315
  921MOL0     C27006   1.067   5.518   1.040 -0.0894  0.0590 -0.9726
  921MOL0     C27007   1.058   5.582   0.923  0.6826  0.5024  0.8013
  921MOL0     O27008   1.338   5.789   0.770 -0.0644  0.3713 -0.2320
  921MOL0     C27009   1.086   5.909   0.550  0.4706  0.4069 -0.1530
  921MOL0     C27010   1.065   5.973   0.435 -0.2391  0.3908  0.9797
  921MOL0     N27011   1.435   6.034  -0.186  0.5405  0.7430  0.1228
  921MOL0     N27012   1.390   6.003  -0.304 -0.5617 -0.4960  0.5487
  921MOL0     C27013   0.596   5.658   0.236 -0.1385 -0.8630 -1.3343
  921MOL0     C27014   0.606   5.587   0.361  0.8112 -0.5551 -0.4977
  921MOL0     C27015   0.719   5.489   0.797 -0.5103  0.0415  1.0117
  921MOL0     C27016   0.804   5.378   0.773  0.6055  0.2743 -0.1677
  921MOL0     C27017   0.840   5.295   0.884  0.5596 -0.4217 -0.2191
  921MOL0     C27018   0.774   5.307   1.009 -0.3995  0.3539 -0.4452
  921MOL0     O27019   0.787   5.228   1.123 -0.4366 -0.9495 -0.7023
  921MOL0     C27020   0.878   5.111   1.098 -0.0941 -0.3997 -0.7064
  921MOL0     C27021   0.804   4.993   1.049 -0.0212  0.4652  0.0125
  921MOL0     C27022   0.895   4.877   1.016  0.3285 -0.1340  0.6421
  921MOL0     C27023   0.822   4.766   0.932  0.2104 -0.5685  0.4349
  921MOL0     C27024   0.836   4.792   0.796  0.6816  0.3555 -0.5102
  921MOL0     C27025   0.866   4.841   0.690  0.4634  1.3184 -0.1101
  921MOL0     C27026   0.689   5.416   1.025  0.3014  0.5859 -0.6777
  921MOL0     C27027   0.669   5.510   0.929  0.9427  0.0294 -0.2473
  921MOL0     C27028   0.598   5.633   0.988  0.2766  0.5258 -0.0121
  921MOL0     H27029   0.880   5.730   0.481  1.6718  2.0165 -4.5393
  921MOL0     H27030   0.879   5.830   0.274 -0.5433  0.0803 -3.2463
  921MOL0     H27031   0.909   5.851   0.040  0.6379  0.7702  0.3856
  921MOL0     H27032   0.835   5.981   0.125  0.7898  2.0979 -2.3479
  921MOL0     H27033   0.759   5.874  -0.136  1.4925  1.1181 -1.4370
  921MOL0     H27034   0.690   6.022  -0.094 -0.6535 -0.3345  3.2018
  921MOL0     H27035   0.916   6.136  -0.115  0.5124  0.8437 -0.2854
  921MOL0     H27036   0.990   5.975  -0.126 -0.9269 -0.5982  0.6420
  921MOL0     H27037   0.889   5.945  -0.357  2.0733 -0.5174 -0.7072
  921MOL0     H27038   0.820   6.106  -0.341 -1.6128 -0.8152  2.1864
  921MOL0     H27039   1.120   6.022  -0.305  1.5988  1.1928 -0.9258
  921MOL0     H27040   1.060   6.191  -0.291 -1.2420  0.6043 -1.3233
  921MOL0     H27041   1.099   6.030  -0.550 -0.7228  0.3717 -1.0285
  921MOL0     H27042   0.987   6.168  -0.536  0.5843  2.3224  1.4486
  921MOL0     H27043   1.193   6.291  -0.430  0.0166  0.7273 -0.5173
  921MOL0     H27044   1.195   6.269  -0.599 -1.8191 -1.0590 -0.8048
  921MOL0     H27045   1.315   6.026  -0.547 -0.5163 -1.7428  2.2008
  921MOL0     H27046   1.399   6.182  -0.565 -3.1747  2.1930 -0.2453
  921MOL0     H27047   1.428   6.324  -0.322  2.5722  0.2523  1.2104
  921MOL0     H27048   1.560   6.313  -0.060 -0.8190  0.6170 -1.0934
  921MOL0     H27049   1.488   6.159   0.024 -2.6617 -0.9852 -1.1938
  921MOL0     H27050   1.369   6.370   0.089  1.6069 -2.0238 -0.0956
  921MOL0     H27051   1.321   6.379  -0.086 -2.9853  0.1633  0.7711
  921MOL0     H27052   1.150   6.290   0.059 -2.1818 -1.7765 -0.1188
  921MOL0     H27053   1.195   6.156  -0.047 -0.6351  1.2048 -0.3053
  921MOL0     H27054   1.309   6.041   0.110  0.2900  0.5684  0.4482
  921MOL0     H27055   1.340   6.176   0.214  1.4957  0.5136 -1.8097
  921MOL0     H27056   1.395   6.036   0.345  0.8314  0.9259 -0.2154
  921MOL0     H27057   1.489   5.791   0.544  1.3935  0.4736  0.6495
  921MOL0     H27058   1.493   5.940   0.646  0.6740 -1.8076  1.2077
  921MOL0     H27059   1.538   5.941   0.474  0.8237  0.1562  1.3131
  921MOL0     H27060   1.194   5.885   1.022  1.9582 -1.1186  0.3941
  921MOL0     H27061   1.210   5.768   1.228 -0.1597  1.2640 -0.8499
  921MOL0     H27062   0.960   5.408   1.246  1.6590  1.8415 -2.4545
  921MOL0     H27063   1.054   5.362   1.380 -2.9544 -1.8888  0.6972
  921MOL0     H27064   0.979   5.533   1.527  0.4791 -0.5293 -0.7448
  921MOL0     H27065   0.941   5.641   1.381 -0.0445 -0.7212 -2.1200
  921MOL0     H27066   0.782   5.387   1.409  0.1584 -0.6658  0.1187
  921MOL0     H27067   0.752   5.524   1.310  1.9317  1.9457  0.2391
  921MOL0     H27068   0.736   5.657   1.543 -0.1502  0.8588 -1.4426
  921MOL0     H27069   0.686   5.498   1.605 -0.1038 -0.1986 -0.6404
  921MOL0     H27070   0.562   5.617   1.358 -1.6562  0.8611  1.1272
  921MOL0     H27071   0.530   5.458   1.436  0.8072 -0.4576  2.2737
  921MOL0     H27072   0.487   5.739   1.524 -2.8822  0.6884 -0.0781
  921MOL0     H27073   0.445   5.597   1.631 -1.8372 -0.3982  0.0865
  921MOL0     H27074   0.266   5.528   1.476  0.3433 -0.0269 -0.5092
  921MOL0     H27075   0.324   5.642   1.353  1.0643  0.8520  0.9040
  921MOL0     H27076   0.275   5.822   1.548  0.1475 -0.4789  0.2581
  921MOL0     H27077   0.171   5.682   1.608 -1.5230  1.3653 -0.8323
  921MOL0     H27078   1.039   5.414   1.038 -1.7424  0.3629  1.7803
  921MOL0     H27079   1.020   5.538   0.832  2.8513  0.5792 -0.2114
  921MOL0     H27080   1.001   5.894   0.616 -0.1104  0.6080 -0.8458
  921MOL0     H27081   0.968   6.008   0.399  0.7632  1.2500 -1.0475
  921MOL0     H27082   0.514   5.644   0.167  0.5189 -0.5962 -2.1784
  921MOL0     H27083   0.536   5.512   0.395  2.2043 -1.2312  1.0368
  921MOL0     H27084   0.847   5.353   0.677  0.2706  2.9620 -1.1174
  921MOL0     H27085   0.908   5.212   0.867  1.5325 -0.2781  2.5287
  921MOL0     H27086   0.969   5.124   1.040  1.5674 -1.9325  1.3731
  921MOL0     H27087   0.923   5.078   1.193  1.6561 -1.5445 -1.8750
  921MOL0     H27088   0.762   5.028   0.954  1.7537  2.3445 -0.1437
  921MOL0     H27089   0.719   4.968   1.113 -0.8677  4.5526  0.7563
  921MOL0     H27090   0.987   4.909   0.966  1.0340 -2.2040  0.5520
  921MOL0     H27091   0.928   4.832   1.110 -1.4019 -0.0126  1.3445
  921MOL0     H27092   0.714   4.768   0.946  0.1129 -0.5567 -0.2889
  921MOL0     H27093   0.872   4.674   0.964 -1.3254 -2.4057 -2.0851
  921MOL0     H27094   0.897   4.888   0.599  4.5244  2.3166  1.5657
  921MOL0     H27095   0.643   5.418   1.123 -3.2989 -5.1261 -1.8133
  921MOL0     H27096   0.548   5.602   1.080 -3.1183  1.6424 -1.3595
  921MOL0     H27097   0.666   5.718   1.004  0.4796  0.2149  0.8236
  921MOL0     H27098   0.511   5.660   0.928 -1.4620  0.9020  2.5257
  922MOL0     O27099   5.841   4.888   2.882  0.5259 -0.0451  0.2375
  922MOL0     C27100   5.789   4.897   2.767  0.6283  0.2405  0.1198
  922MOL0     O27101   5.852   4.948   2.657 -0.1304 -0.1928 -0.4417
  922MOL0     C27102   5.989   4.953   2.646 -0.0636  0.6170  0.4345
  922MOL0     C27103   6.047   4.939   2.523  0.2600  0.5062 -0.3768
  922MOL0     C27104   6.182   4.941   2.496 -0.7404 -0.6971 -0.4821
  922MOL0     C27105   6.269   4.942   2.607 -0.0966 -0.6330 -0.2986
  922MOL0     O27106   6.406   4.943   2.601 -0.0953 -0.1802  0.1321
  922MOL0     C27107   6.462   4.852   2.501 -0.2616  0.1687 -1.0829
  922MOL0     C27108   6.603   4.810   2.552 -0.2832 -0.3859 -0.0352
  922MOL0     C27109   6.684   4.738   2.451 -0.5930 -0.3593 -0.4757
  922MOL0     C27110   6.718   4.593   2.475  0.0035  0.0426  0.6443
  922MOL0     C27111   6.820   4.538   2.364  0.0545 -0.2203  0.6061
  922MOL0     C27112   6.972   4.564   2.401  0.1590 -0.1243 -0.5683
  922MOL0     C27113   7.071   4.506   2.297 -0.1745 -0.0546 -0.0254
  922MOL0     C27114   7.075   4.593   2.173 -0.4704  0.5187  1.1261
  922MOL0     N27115   7.184   4.544   2.081 -0.3043 -0.4130 -0.1408
  922MOL0     C27116   7.207   4.421   2.028 -0.1021 -1.3228  0.0251
  922MOL0     C27117   7.330   4.431   1.983  0.3213 -0.0885 -0.8168
  922MOL0     C27118   7.409   4.330   1.904 -0.2661  0.5620  0.4383
  922MOL0     C27119   7.342   4.330   1.765 -0.1806 -0.5029  0.1943
  922MOL0     C27120   7.449   4.283   1.668  0.0667  0.5656 -0.0642
  922MOL0     C27121   7.450   4.128   1.663 -0.8229  0.2423  0.6432
  922MOL0     O27122   7.571   4.088   1.595  0.1613  0.0707  0.4400
  922MOL0     C27123   7.593   3.950   1.582 -0.8121 -1.0158 -0.3483
  922MOL0     C27124   7.514   3.850   1.629  0.2675  0.2262  0.3278
  922MOL0     C27125   7.560   3.716   1.635  0.7659  0.2455 -0.2818
  922MOL0     C27126   7.467   3.609   1.690 -0.1162  0.1064 -0.9341
  922MOL0     C27127   7.703   3.685   1.615  0.6908  0.1950  0.2419
  922MOL0     C27128   7.777   3.556   1.652  0.5029  0.0102  0.5196
  922MOL0     O27129   7.896   3.534   1.593  0.1535 -1.0310 -0.1026
  922MOL0     C27130   7.971   3.418   1.621 -0.7063  0.0580 -0.5598
  922MOL0     C27131   7.926   3.289   1.648  0.0797 -1.1560  0.1849
  922MOL0     C27132   8.017   3.187   1.682 -0.1150  0.0784  0.9389
  922MOL0     C27133   8.152   3.210   1.704  0.6221  0.1990  0.4522
  922MOL0     O27134   8.239   3.119   1.744  0.4515  0.3492  0.3451
  922MOL0     C27135   8.195   3.041   1.862  0.5712 -1.0566 -0.9263
  922MOL0     C27136   8.181   2.890   1.833  0.0475  0.2137 -0.4819
  922MOL0     C27137   8.303   2.829   1.762  0.3349  0.2443 -0.0937
  922MOL0     C27138   8.266   2.769   1.629  0.1831  0.5118  0.3878
  922MOL0     C27139   8.209   2.635   1.649  0.4178 -0.0975 -0.5513
  922MOL0     C27140   8.320   2.533   1.682  0.0724  0.2863 -0.4872
  922MOL0     C27141   8.261   2.393   1.678 -0.7890 -0.4021  0.0772
  922MOL0     C27142   8.371   2.291   1.645  0.2384  0.3480  0.2623
  922MOL0    Cl27143   8.351   2.222   1.480 -0.6291 -0.1212 -0.2150
  922MOL0     C27144   8.198   3.337   1.678 -0.0982 -0.8945  0.6162
  922MOL0     C27145   8.110   3.443   1.639 -0.5546 -0.2523 -0.9570
  922MOL0     O27146   7.724   3.481   1.729  0.2659  0.0799  0.4516
  922MOL0     C27147   7.767   3.784   1.542 -0.4585 -0.1870 -0.7179
  922MOL0     C27148   7.710   3.910   1.531 -0.7001  0.3314 -0.7062
  922MOL0     N27149   7.384   4.551   2.004  0.1493  0.6661 -0.5216
  922MOL0     N27150   7.296   4.615   2.068 -0.3729 -0.5159  0.9774
  922MOL0     C27151   6.210   4.962   2.730 -0.4178 -0.5533 -0.3944
  922MOL0     C27152   6.074   4.969   2.751  0.1729  0.0646  0.0287
  922MOL0     C27153   5.638   4.877   2.760  0.3295  0.6064  0.5069
  922MOL0     C27154   5.574   4.901   2.638 -0.2992 -0.8659  0.4159
  922MOL0     C27155   5.448   4.865   2.616  0.5209  0.1951 -0.5275
  922MOL0     C27156   5.365   4.810   2.712 -0.4789  0.4223 -0.7086
  922MOL0     O27157   5.229   4.803   2.688 -0.0382  0.5641  0.0924
  922MOL0     C27158   5.145   4.728   2.774 -0.3842  0.4850 -0.1366
  922MOL0     C27159   5.015   4.694   2.704 -1.2322  0.0405  0.2133
  922MOL0     C27160   4.917   4.640   2.795  0.8641  0.4141 -0.9422
  922MOL0     C27161   4.928   4.490   2.813  0.6420  0.1563 -0.1211
  922MOL0     C27162   4.939   4.426   2.678 -0.6347 -0.0152  0.6860
  922MOL0     C27163   4.954   4.369   2.571  0.3180  0.2555 -1.0171
  922MOL0     C27164   5.424   4.802   2.847 -0.2356  0.4081  0.0331
  922MOL0     C27165   5.548   4.824   2.870  0.0294 -1.0764  0.2090
  922MOL0     C27166   5.606   4.782   3.000  0.3722  0.1573 -0.4496
  922MOL0     H27167   5.985   4.903   2.442  1.3808 -4.0295  0.4800
  922MOL0     H27168   6.231   4.932   2.400  0.9120  0.9194  0.1380
  922MOL0     H27169   6.487   4.913   2.413 -1.3410  1.7682 -0.3212
  922MOL0     H27170   6.410   4.757   2.487 -0.4911  0.0558  0.3992
  922MOL0     H27171   6.664   4.894   2.587  2.8191 -1.9497 -1.2733
  922MOL0     H27172   6.590   4.749   2.642  1.0713 -2.2824 -1.0620
  922MOL0     H27173   6.644   4.755   2.350 -0.1674  0.1138 -0.5689
  922MOL0     H27174   6.782   4.783   2.433 -1.7521  2.6678  0.1926
  922MOL0     H27175   6.766   4.570   2.571 -1.2002  1.2245  1.5705
  922MOL0     H27176   6.626   4.534   2.465 -2.2719  3.3302  0.5820
  922MOL0     H27177   6.790   4.559   2.261 -1.0868 -1.5848  0.6365
  922MOL0     H27178   6.809   4.429   2.367  3.5659 -0.7762 -1.2138
  922MOL0     H27179   6.985   4.672   2.413 -4.0996  0.5008 -0.0070
  922MOL0     H27180   6.999   4.523   2.499  3.3167  0.4062 -1.1080
  922MOL0     H27181   7.063   4.399   2.279  0.9332 -0.0174 -0.8132
  922MOL0     H27182   7.170   4.513   2.343 -0.2581  0.7346  0.0536
  922MOL0     H27183   6.981   4.578   2.120 -0.0386 -1.2231  0.8123
  922MOL0     H27184   7.094   4.700   2.184 -3.9302  1.4190 -0.4832
  922MOL0     H27185   7.135   4.342   2.012  1.6311 -3.0815  0.5111
  922MOL0     H27186   7.396   4.227   1.940  1.6516 -0.8898 -2.6152
  922MOL0     H27187   7.515   4.356   1.898 -0.1074 -0.2672 -0.6985
  922MOL0     H27188   7.248   4.275   1.762 -0.8677  0.6663 -0.7474
  922MOL0     H27189   7.311   4.433   1.745 -1.1221 -0.4910  1.5562
  922MOL0     H27190   7.421   4.314   1.567  0.0333 -2.0400 -0.9362
  922MOL0     H27191   7.546   4.329   1.687  2.0834 -3.1935 -0.3315
  922MOL0     H27192   7.453   4.089   1.765  1.2282  0.7966  0.8409
  922MOL0     H27193   7.363   4.095   1.605  0.4933  3.4177 -3.6789
  922MOL0     H27194   7.414   3.867   1.669 -1.1764  1.3937 -3.3068
  922MOL0     H27195   7.465   3.620   1.798  1.8748 -0.7489 -0.7759
  922MOL0     H27196   7.473   3.509   1.646 -3.3630 -1.2753  1.3961
  922MOL0     H27197   7.363   3.639   1.676 -0.2241  0.2809  0.1484
  922MOL0     H27198   7.824   3.254   1.638  0.0298 -0.5866 -1.6792
  922MOL0     H27199   7.978   3.086   1.689 -1.1012 -0.0041 -3.4384
  922MOL0     H27200   8.270   3.068   1.938 -0.1698 -0.7281 -0.3040
  922MOL0     H27201   8.101   3.065   1.912  1.4889  0.5833  0.1569
  922MOL0     H27202   8.157   2.831   1.922 -0.7306  0.4695 -0.5156
  922MOL0     H27203   8.090   2.874   1.775 -1.3339  0.1962  1.6185
  922MOL0     H27204   8.363   2.760   1.822  0.9621 -0.0673 -1.0640
  922MOL0     H27205   8.363   2.916   1.736 -2.1932  2.0211 -0.4309
  922MOL0     H27206   8.351   2.762   1.560  0.1351 -0.3028  0.3993
  922MOL0     H27207   8.197   2.832   1.573 -1.1283  0.3230  1.7089
  922MOL0     H27208   8.132   2.636   1.726 -0.4784  0.4588 -1.4257
  922MOL0     H27209   8.164   2.602   1.555 -0.2964 -0.1254 -0.1987
  922MOL0     H27210   8.363   2.547   1.782 -0.5024 -0.0002 -0.1900
  922MOL0     H27211   8.405   2.552   1.617 -0.8819  1.9669 -1.2809
  922MOL0     H27212   8.175   2.392   1.610 -0.6977  4.4305 -0.4688
  922MOL0     H27213   8.228   2.374   1.780 -2.2028  2.7603  0.3291
  922MOL0     H27214   8.351   2.209   1.715  0.2013  0.8634  0.8632
  922MOL0     H27215   8.474   2.318   1.668  0.0582  2.5035 -1.1716
  922MOL0     H27216   8.305   3.357   1.680 -0.3252  2.0015 -3.2593
  922MOL0     H27217   8.146   3.545   1.632 -2.7960  0.8506  1.6207
  922MOL0     H27218   7.866   3.779   1.499 -0.8190  1.7859 -1.9180
  922MOL0     H27219   7.770   3.983   1.478  0.0971 -0.0707 -0.3701
  922MOL0     H27220   6.280   4.979   2.812 -2.8592  2.6794  1.2733
  922MOL0     H27221   6.052   4.999   2.853  2.4525  0.5781  0.4164
  922MOL0     H27222   5.635   4.951   2.563 -1.0507 -1.0886 -0.3496
  922MOL0     H27223   5.399   4.906   2.528  0.6708  2.4053  0.3427
  922MOL0     H27224   5.188   4.632   2.803 -3.2620 -1.1493 -0.9098
  922MOL0     H27225   5.136   4.786   2.867  1.5794 -1.5113  1.4305
  922MOL0     H27226   5.022   4.637   2.610 -1.3516 -1.4638  1.0950
  922MOL0     H27227   4.971   4.790   2.675 -0.3195  1.0525  2.0301
  922MOL0     H27228   4.910   4.694   2.889  1.3884 -0.3934 -0.4277
  922MOL0     H27229   4.821   4.654   2.744 -0.8678  0.3326  2.1061
  922MOL0     H27230   4.843   4.454   2.872  0.0540  2.5885  0.6728
  922MOL0     H27231   5.021   4.470   2.867 -0.9281 -1.1784  2.2372
  922MOL0     H27232   4.957   4.322   2.475  2.1858 -0.0388 -0.8480
  922MOL0     H27233   5.372   4.757   2.932  0.1520  1.2512  0.7381
  922MOL0     H27234   5.530   4.752   3.073 -0.7771  1.0349 -1.2643
  922MOL0     H27235   5.670   4.695   2.984  1.9069  1.2100 -0.3036
  922MOL0     H27236   5.668   4.859   3.048  0.6142 -0.8886  0.9894
  923MOL0     O27237  10.616   4.118  11.104 -0.1109 -0.3648  0.1253
  923MOL0     C27238  10.512   4.076  11.154  1.3628 -0.8279 -0.0479
  923MOL0     O27239  10.417   4.151  11.218 -0.0875  0.5522  0.2713
  923MOL0     C27240  10.454   4.259  11.299  0.3397  0.4194 -0.2407
  923MOL0     C27241  10.429   4.384  11.257 -0.0828  0.5823  0.8918
  923MOL0     C27242  10.457   4.497  11.340 -0.4720  0.3683 -0.5005
  923MOL0     C27243  10.501   4.471  11.473 -0.0393 -0.2949  0.8168
  923MOL0     O27244  10.511   4.567  11.567 -0.5964  0.2538  0.0278
  923MOL0     C27245  10.525   4.703  11.531 -0.7544 -0.5251 -0.8029
  923MOL0     C27246  10.558   4.783  11.657 -0.2680  0.1265 -0.0975
  923MOL0     C27247  10.609   4.923  11.606 -0.3030 -0.5239  0.6340
  923MOL0     C27248  10.561   5.048  11.693  0.0745  0.0703 -0.7519
  923MOL0     C27249  10.609   5.193  11.654  0.8204  0.0045  1.1747
  923MOL0     C27250  10.517   5.256  11.550 -1.6196 -0.0429  0.6382
  923MOL0     C27251  10.550   5.403  11.506 -0.2009  0.3881  0.3373
  923MOL0     C27252  10.703   5.427  11.509 -0.0970  0.6249 -0.0071
  923MOL0     N27253  10.737   5.557  11.461  0.1778  0.1780  0.1416
  923MOL0     C27254  10.868   5.600  11.449  0.6370 -0.2407  0.9370
  923MOL0     C27255  10.865   5.713  11.374  0.4072  0.2597 -0.5047
  923MOL0     C27256  10.989   5.814  11.348  0.8883  0.0023 -0.7538
  923MOL0     C27257  11.021   5.812  11.188 -0.0262  0.3777 -0.3058
  923MOL0     C27258  11.147   5.900  11.169 -0.1086  0.0310 -0.3721
  923MOL0     C27259  11.203   5.898  11.032  0.3192  0.7576 -0.2690
  923MOL0     O27260  11.117   5.956  10.930 -0.0372 -0.6030  0.9898
  923MOL0     C27261  11.151   5.948  10.797 -0.4563 -0.0526  0.5126
  923MOL0     C27262  11.262   5.883  10.742  0.2212 -0.8362 -0.0225
  923MOL0     C27263  11.284   5.865  10.610 -0.2802 -0.6310 -0.3302
  923MOL0     C27264  11.421   5.803  10.585 -0.7793  0.2445 -0.5592
  923MOL0     C27265  11.200   5.930  10.520  0.4550 -0.4219  0.3924
  923MOL0     C27266  11.237   5.949  10.368  0.1315  0.4196 -0.1265
  923MOL0     O27267  11.136   5.982  10.281 -0.3979  0.2865  0.8090
  923MOL0     C27268  11.172   6.011  10.149  1.0211  0.2548 -0.8027
  923MOL0     C27269  11.213   6.144  10.116 -0.2076 -0.5920 -0.8964
  923MOL0     C27270  11.242   6.179   9.983 -0.1412  0.1703 -0.0753
  923MOL0     C27271  11.236   6.077   9.883  0.6766 -0.5505 -0.4030
  923MOL0     O27272  11.282   6.098   9.750 -0.0144 -0.3267 -0.3009
  923MOL0     C27273  11.366   6.217   9.727 -0.0370  0.2452 -0.0112
  923MOL0     C27274  11.424   6.216   9.589 -0.9065  0.1324 -0.1410
  923MOL0     C27275  11.492   6.353   9.569  0.1117  0.2268  0.4278
  923MOL0     C27276  11.419   6.478   9.626 -0.7165  0.3133 -1.3405
  923MOL0     C27277  11.476   6.613   9.574  0.1011 -0.7304 -0.3526
  923MOL0     C27278  11.393   6.733   9.636  0.5028 -0.8968  0.9803
  923MOL0     C27279  11.439   6.765   9.777  0.3047  1.0914  0.9780
  923MOL0     C27280  11.389   6.912   9.816  0.5921  0.9383  0.2789
  923MOL0    Cl27281  11.436   6.930   9.978 -0.0905  0.3265 -0.0900
  923MOL0     C27282  11.186   5.946   9.920 -0.4108  0.2812  0.2266
  923MOL0     C27283  11.155   5.913  10.053 -0.3991 -0.6135 -1.2126
  923MOL0     O27284  11.353   5.925  10.332  0.1958  0.4007 -0.1731
  923MOL0     C27285  11.088   5.991  10.564  1.0184  0.5470 -0.3083
  923MOL0     C27286  11.070   6.004  10.706 -0.6352  0.1433  0.0418
  923MOL0     N27287  10.736   5.730  11.331  0.6154  0.7402  0.4211
  923MOL0     N27288  10.659   5.641  11.388  0.2355  0.0789 -0.0255
  923MOL0     C27289  10.523   4.344  11.511  0.0318  0.3421  0.7695
  923MOL0     C27290  10.499   4.231  11.428  0.6018  0.0364 -1.4634
  923MOL0     C27291  10.485   3.928  11.135  0.6784 -0.7690 -0.5124
  923MOL0     C27292  10.363   3.880  11.189 -0.3885 -0.0731  0.4325
  923MOL0     C27293  10.323   3.749  11.160 -0.3264 -0.6521 -0.5878
  923MOL0     C27294  10.399   3.675  11.075  0.4790  0.1007 -0.5785
  923MOL0     O27295  10.347   3.541  11.050 -1.0247  0.4252 -0.3960
  923MOL0     C27296  10.347   3.496  10.917  0.4084  0.1248  0.5537
  923MOL0     C27297  10.247   3.588  10.844  0.4710 -0.0259  0.0785
  923MOL0     C27298  10.101   3.584  10.890 -0.1204 -0.0175 -0.3234
  923MOL0     C27299  10.003   3.689  10.828 -0.0697 -1.5405  0.1376
  923MOL0     C27300   9.977   3.804  10.915 -0.3273 -0.7609  0.1303
  923MOL0     C27301   9.945   3.910  10.969  0.7153  0.2960  0.3984
  923MOL0     C27302  10.514   3.723  11.025 -0.0828 -0.0674 -0.1534
  923MOL0     C27303  10.568   3.847  11.051 -0.5880  0.8548  0.5903
  923MOL0     C27304  10.683   3.891  10.961  0.4743  0.0499 -0.7449
  923MOL0     H27305  10.390   4.399  11.157  2.7801  0.5652 -0.3191
  923MOL0     H27306  10.445   4.598  11.302 -0.6931  0.0582 -1.2618
  923MOL0     H27307  10.432   4.745  11.490  0.4738 -0.1584 -3.4757
  923MOL0     H27308  10.613   4.718  11.467 -0.6025 -0.2687 -0.5322
  923MOL0     H27309  10.465   4.799  11.712 -0.5981  0.2710 -0.6850
  923MOL0     H27310  10.636   4.738  11.719  2.4749  3.1862 -1.0510
  923MOL0     H27311  10.717   4.929  11.615  0.0266  1.6652 -2.8645
  923MOL0     H27312  10.586   4.927  11.499  1.2924 -2.2090  0.1752
  923MOL0     H27313  10.452   5.057  11.691 -0.0420 -0.4144  1.1857
  923MOL0     H27314  10.582   5.026  11.798  2.7926 -2.6965 -1.7221
  923MOL0     H27315  10.714   5.188  11.623  0.0716 -2.9920 -1.4668
  923MOL0     H27316  10.601   5.255  11.743  0.4595 -0.6897  1.6349
  923MOL0     H27317  10.511   5.203  11.454  2.7631 -0.0918  0.2028
  923MOL0     H27318  10.415   5.258  11.589 -2.0798 -1.5120 -0.4225
  923MOL0     H27319  10.502   5.473  11.575 -1.6618  0.4367 -0.6889
  923MOL0     H27320  10.510   5.438  11.410  0.6677  3.8333  1.0982
  923MOL0     H27321  10.740   5.409  11.611  0.7875 -1.0210 -0.5803
  923MOL0     H27322  10.747   5.356  11.438 -0.3246  2.5897 -2.2155
  923MOL0     H27323  10.953   5.546  11.490  0.9760 -0.9939 -0.6782
  923MOL0     H27324  11.075   5.786  11.409 -0.5944 -1.7465  0.6329
  923MOL0     H27325  10.956   5.915  11.376 -3.9626 -1.0858 -1.5708
  923MOL0     H27326  11.046   5.709  11.163  1.5795  0.6433  0.0618
  923MOL0     H27327  10.938   5.849  11.128 -0.9203 -1.8216 -0.5021
  923MOL0     H27328  11.122   6.006  11.174 -2.6744 -0.5129 -0.2150
  923MOL0     H27329  11.226   5.876  11.240 -2.3946 -1.2580  1.9139
  923MOL0     H27330  11.303   5.943  11.031  0.0177  1.8107  3.0802
  923MOL0     H27331  11.211   5.791  11.011  1.3253  0.6456  0.5557
  923MOL0     H27332  11.330   5.832  10.810  1.1459 -0.8898 -0.9601
  923MOL0     H27333  11.392   5.700  10.561  1.7253 -0.8581  0.7704
  923MOL0     H27334  11.462   5.787  10.685 -5.4380 -0.9252  1.4725
  923MOL0     H27335  11.487   5.841  10.507  1.1478 -1.6116  0.0818
  923MOL0     H27336  11.228   6.225  10.186 -0.1305 -0.2711 -1.2779
  923MOL0     H27337  11.261   6.282   9.955  0.4040 -0.7591 -3.6206
  923MOL0     H27338  11.302   6.301   9.754  0.0482  0.3900 -0.2579
  923MOL0     H27339  11.452   6.199   9.793  2.1007  2.7616 -1.9187
  923MOL0     H27340  11.496   6.134   9.574  1.3339  1.7092  1.4069
  923MOL0     H27341  11.343   6.205   9.516 -1.6153 -1.8387  0.8600
  923MOL0     H27342  11.507   6.364   9.461  0.9852 -1.0978  0.3994
  923MOL0     H27343  11.591   6.335   9.611 -0.5810 -0.6365  1.7522
  923MOL0     H27344  11.438   6.481   9.734  2.9663  3.6664 -1.8413
  923MOL0     H27345  11.311   6.480   9.615 -0.8427  2.2461 -0.2976
  923MOL0     H27346  11.581   6.629   9.601  0.7191 -3.3567 -0.9495
  923MOL0     H27347  11.476   6.624   9.465 -2.9959 -0.2083 -0.4027
  923MOL0     H27348  11.287   6.708   9.635  0.3425 -0.2930 -0.4056
  923MOL0     H27349  11.410   6.824   9.576 -0.1568  1.2013  3.7603
  923MOL0     H27350  11.547   6.748   9.781  0.5616  2.1306 -0.6407
  923MOL0     H27351  11.388   6.691   9.839 -2.4724 -0.0676 -2.3739
  923MOL0     H27352  11.280   6.919   9.811  0.4178 -0.0053  2.0944
  923MOL0     H27353  11.437   6.989   9.754  2.7451 -1.3107 -1.0252
  923MOL0     H27354  11.188   5.876   9.837  1.9594 -2.1145  2.1185
  923MOL0     H27355  11.124   5.816  10.090  2.9377 -0.5185  2.5673
  923MOL0     H27356  11.012   6.038  10.502  1.1454 -0.7583 -1.5077
  923MOL0     H27357  10.986   6.064  10.741 -0.8572  1.6592 -2.8341
  923MOL0     H27358  10.556   4.324  11.613 -3.1455 -1.2060  1.6170
  923MOL0     H27359  10.512   4.136  11.478  0.7572  0.2786 -1.0358
  923MOL0     H27360  10.303   3.952  11.244  1.4776  0.6563  1.5826
  923MOL0     H27361  10.238   3.697  11.203 -1.3102  1.5764  0.3201
  923MOL0     H27362  10.444   3.502  10.866 -0.4481  2.4805 -0.9607
  923MOL0     H27363  10.317   3.391  10.922 -2.8209  0.6941 -2.6992
  923MOL0     H27364  10.242   3.555  10.740 -2.4358 -0.6130  0.3188
  923MOL0     H27365  10.280   3.693  10.849 -1.5231  0.7134 -1.2399
  923MOL0     H27366  10.065   3.483  10.870  0.5539 -0.5475  1.0257
  923MOL0     H27367  10.102   3.595  10.999 -0.1081  1.1563 -0.4277
  923MOL0     H27368   9.914   3.634  10.798  0.2335 -1.5647 -0.7686
  923MOL0     H27369  10.042   3.730  10.733  0.8936  0.6782  1.4045
  923MOL0     H27370   9.923   3.999  11.024 -1.0224 -1.0704  2.0684
  923MOL0     H27371  10.566   3.662  10.952 -0.9540  0.3435 -1.1343
  923MOL0     H27372  10.720   3.802  10.910  0.3042 -0.1870 -0.4634
  923MOL0     H27373  10.646   3.971  10.897 -1.9558 -1.0898 -0.8811
  923MOL0     H27374  10.771   3.923  11.017 -1.1422  1.0090  1.4313
  924MOL0     O27375   2.512   5.062   9.344 -0.2367  0.2055  0.5198
  924MOL0     C27376   2.539   5.004   9.447  0.4899 -0.5551 -1.3400
  924MOL0     O27377   2.546   4.872   9.466 -0.6520  0.9374  0.8298
  924MOL0     C27378   2.511   4.792   9.358 -0.0150  0.1464  0.2184
  924MOL0     C27379   2.626   4.721   9.310 -0.0662 -0.8036 -0.2703
  924MOL0     C27380   2.627   4.640   9.206  0.9707 -0.1390  0.1527
  924MOL0     C27381   2.517   4.639   9.120  0.7877 -0.4152 -0.2760
  924MOL0     O27382   2.520   4.564   9.004 -0.7796  0.6874 -0.5674
  924MOL0     C27383   2.414   4.574   8.901  1.0083  0.7447 -0.0203
  924MOL0     C27384   2.430   4.465   8.793 -0.1939 -0.1752  0.2489
  924MOL0     C27385   2.380   4.327   8.821 -0.1981  0.3452  0.1883
  924MOL0     C27386   2.237   4.293   8.809 -0.4488  0.8512 -0.9150
  924MOL0     C27387   2.194   4.256   8.666  0.2196 -0.3810  0.0044
  924MOL0     C27388   2.050   4.200   8.674 -0.5379 -0.0273  0.3683
  924MOL0     C27389   1.983   4.133   8.540 -0.1445 -0.1953 -0.0973
  924MOL0     C27390   1.830   4.103   8.573 -0.0152 -0.3553 -0.2608
  924MOL0     N27391   1.777   4.007   8.470 -0.4667  0.2532  0.1736
  924MOL0     C27392   1.753   3.867   8.478 -0.1929  0.0411  0.5421
  924MOL0     C27393   1.696   3.831   8.363 -0.7074 -0.6461 -0.7342
  924MOL0     C27394   1.665   3.699   8.318 -0.6914  0.4378  0.0217
  924MOL0     C27395   1.549   3.691   8.220 -1.0749  0.6634 -0.0856
  924MOL0     C27396   1.536   3.550   8.161  0.6547 -0.4040  0.0670
  924MOL0     C27397   1.632   3.533   8.042  0.4258  0.3138  0.3166
  924MOL0     O27398   1.575   3.444   7.926  0.5479 -0.9165 -1.1331
  924MOL0     C27399   1.647   3.419   7.813 -1.1993 -0.8276  0.1819
  924MOL0     C27400   1.765   3.478   7.772 -0.5885 -0.6804  0.9711
  924MOL0     C27401   1.823   3.462   7.642  0.6496 -1.0752 -0.9142
  924MOL0     C27402   1.938   3.553   7.612  0.9539  0.0594  0.1317
  924MOL0     C27403   1.757   3.377   7.552  0.6021 -0.0530 -0.5979
  924MOL0     C27404   1.819   3.329   7.424 -0.7120 -0.1443 -0.3532
  924MOL0     O27405   1.731   3.254   7.341  0.4398 -0.4595 -0.7991
  924MOL0     C27406   1.778   3.185   7.227  0.4900 -0.5215  0.1498
  924MOL0     C27407   1.740   3.219   7.095  0.3766  0.1958  0.2425
  924MOL0     C27408   1.795   3.148   6.988 -0.2688  0.6210  0.5685
  924MOL0     C27409   1.892   3.046   7.008  0.0084 -0.2111 -0.5538
  924MOL0     O27410   1.935   2.982   6.890 -0.2797 -0.0512  0.3174
  924MOL0     C27411   1.974   2.842   6.900  0.6012  0.8600 -0.2062
  924MOL0     C27412   2.028   2.796   6.762  0.5692 -0.2730 -0.4386
  924MOL0     C27413   1.918   2.784   6.659  0.3869  0.6673  0.5898
  924MOL0     C27414   1.988   2.771   6.520  0.6174 -0.4955  0.4555
  924MOL0     C27415   1.904   2.790   6.397  0.6481  0.0265  0.0395
  924MOL0     C27416   1.803   2.669   6.362  0.1174 -0.4170  0.2084
  924MOL0     C27417   1.675   2.735   6.289 -0.1696  1.0416  0.0320
  924MOL0     C27418   1.582   2.795   6.387 -0.7324  0.0761  0.4182
  924MOL0    Cl27419   1.419   2.793   6.317  0.2111  0.1585 -0.0668
  924MOL0     C27420   1.928   3.021   7.137 -0.4545 -0.2125  0.4707
  924MOL0     C27421   1.882   3.090   7.239  0.2687 -0.1350 -0.4994
  924MOL0     O27422   1.938   3.339   7.408 -0.5997 -0.4813 -0.8913
  924MOL0     C27423   1.631   3.323   7.593  0.3641 -0.5800 -0.3539
  924MOL0     C27424   1.582   3.343   7.716  0.3562 -0.0284 -0.1830
  924MOL0     N27425   1.673   3.937   8.283 -0.9429 -0.3148  0.4583
  924MOL0     N27426   1.721   4.040   8.353 -0.1204  0.4932 -0.4198
  924MOL0     C27427   2.412   4.724   9.153  0.8945 -0.2003 -0.6015
  924MOL0     C27428   2.405   4.799   9.271  0.5078  1.2966  0.4239
  924MOL0     C27429   2.579   5.086   9.561  0.0966  0.5205  0.2242
  924MOL0     C27430   2.558   5.025   9.686  0.5087  0.2816 -0.7917
  924MOL0     C27431   2.575   5.097   9.812  0.5262  0.3322 -0.7585
  924MOL0     C27432   2.624   5.223   9.803 -0.3417 -0.1108  0.9912
  924MOL0     O27433   2.651   5.283   9.919 -0.4480  0.0163  0.1537
  924MOL0     C27434   2.714   5.411   9.935  0.1138  0.2319  0.1904
  924MOL0     C27435   2.704   5.450  10.081  0.2339 -0.3683 -0.3010
  924MOL0     C27436   2.767   5.353  10.187 -0.1533  0.2891 -0.4860
  924MOL0     C27437   2.924   5.356  10.180  0.4058  0.3828 -0.1225
  924MOL0     C27438   2.970   5.244  10.274 -1.2039  0.0527  0.5050
  924MOL0     C27439   3.018   5.166  10.348  0.0963  0.8827  0.0808
  924MOL0     C27440   2.643   5.285   9.677 -0.4034 -1.1085 -0.6066
  924MOL0     C27441   2.616   5.221   9.562 -1.0727  0.6494 -0.2766
  924MOL0     C27442   2.634   5.303   9.431  0.7279 -0.1107 -1.1086
  924MOL0     H27443   2.711   4.737   9.376  1.0034  1.9015 -2.1327
  924MOL0     H27444   2.708   4.584   9.158  0.0283 -3.3668  2.0150
  924MOL0     H27445   2.425   4.668   8.847  0.5684  1.6086  1.3577
  924MOL0     H27446   2.315   4.578   8.948  1.2384  1.6436  0.4071
  924MOL0     H27447   2.367   4.508   8.714 -0.7273  2.7589  2.0907
  924MOL0     H27448   2.529   4.457   8.746 -0.0357 -0.4754  0.6334
  924MOL0     H27449   2.420   4.267   8.739  1.5268  3.2507 -1.2692
  924MOL0     H27450   2.415   4.283   8.915 -0.4407 -0.7851 -0.2389
  924MOL0     H27451   2.206   4.217   8.880  0.5671  2.1050  0.9535
  924MOL0     H27452   2.178   4.384   8.826 -1.5355 -0.0105 -0.0240
  924MOL0     H27453   2.265   4.183   8.627  3.1358  2.3708 -0.2139
  924MOL0     H27454   2.216   4.331   8.591 -3.8279 -1.6880 -2.8537
  924MOL0     H27455   2.046   4.131   8.759  3.4154  0.6999  1.3893
  924MOL0     H27456   1.992   4.285   8.711  0.3148  0.7704 -0.0670
  924MOL0     H27457   2.043   4.050   8.501 -1.7538 -1.2875 -0.3370
  924MOL0     H27458   1.991   4.214   8.467  0.8135  1.4310  1.7048
  924MOL0     H27459   1.825   4.043   8.665 -5.2126  3.6862  2.6418
  924MOL0     H27460   1.785   4.202   8.587 -1.8150 -1.1744  0.0672
  924MOL0     H27461   1.805   3.793   8.537  1.2803 -0.6597 -1.5209
  924MOL0     H27462   1.650   3.628   8.400 -1.8283 -0.3170 -0.8119
  924MOL0     H27463   1.742   3.664   8.249  1.4566 -2.1776  3.4206
  924MOL0     H27464   1.453   3.717   8.267 -0.5560  0.3833  1.1594
  924MOL0     H27465   1.575   3.762   8.141  2.3557 -1.4018 -1.0243
  924MOL0     H27466   1.550   3.481   8.245 -0.6435 -1.1099 -0.2670
  924MOL0     H27467   1.434   3.537   8.124  1.5760  1.6712 -3.7381
  924MOL0     H27468   1.665   3.632   8.010  1.8138 -0.3345 -0.3339
  924MOL0     H27469   1.730   3.496   8.075  0.9402  0.8347 -0.5937
  924MOL0     H27470   1.813   3.556   7.830 -2.4557 -0.8672  2.8969
  924MOL0     H27471   1.983   3.602   7.699  2.9504 -2.2853  0.5435
  924MOL0     H27472   1.908   3.623   7.534  1.5057  1.4790  1.1548
  924MOL0     H27473   2.030   3.507   7.574  0.9245  0.5378 -0.5460
  924MOL0     H27474   1.678   3.305   7.073 -1.9459 -1.3789  0.2647
  924MOL0     H27475   1.773   3.173   6.884  2.4797  0.9816  0.0014
  924MOL0     H27476   2.062   2.828   6.963  0.5344 -3.0833 -0.7602
  924MOL0     H27477   1.888   2.783   6.935  2.4257 -2.2613 -0.5939
  924MOL0     H27478   2.112   2.860   6.732  1.9750 -1.2867  1.1535
  924MOL0     H27479   2.051   2.692   6.784 -0.5386 -0.7681 -1.5370
  924MOL0     H27480   1.852   2.872   6.660 -0.8381 -0.1365 -1.8191
  924MOL0     H27481   1.854   2.699   6.685  1.4796  0.2748  2.1235
  924MOL0     H27482   2.040   2.674   6.524  2.0161  0.2086  0.0986
  924MOL0     H27483   2.071   2.840   6.504  0.2401 -0.2713 -0.6713
  924MOL0     H27484   1.855   2.885   6.422  1.9283  1.0030 -1.0167
  924MOL0     H27485   1.965   2.800   6.307  1.0043  4.6273  0.5407
  924MOL0     H27486   1.767   2.614   6.449  1.1318  0.5798  1.2951
  924MOL0     H27487   1.861   2.607   6.293  2.0424  1.7894 -0.3029
  924MOL0     H27488   1.610   2.665   6.235  0.2395  1.1307 -0.5905
  924MOL0     H27489   1.712   2.817   6.227  3.3493  0.2439  0.8899
  924MOL0     H27490   1.613   2.897   6.414  1.2415 -0.5934  0.8572
  924MOL0     H27491   1.585   2.743   6.483 -0.1725  2.6973  1.9164
  924MOL0     H27492   2.010   2.951   7.152  2.6760  2.2914 -3.0855
  924MOL0     H27493   1.911   3.068   7.341  0.7214 -3.1880 -1.1890
  924MOL0     H27494   1.567   3.259   7.533 -0.8561  0.1491  0.1376
  924MOL0     H27495   1.503   3.271   7.736 -0.3846  1.0399  0.9481
  924MOL0     H27496   2.326   4.724   9.087 -0.2954  0.2963  0.8805
  924MOL0     H27497   2.318   4.863   9.281 -2.8160 -2.4095 -1.8923
  924MOL0     H27498   2.520   4.924   9.699 -0.2866  0.5831 -0.6809
  924MOL0     H27499   2.554   5.055   9.910 -2.2571 -1.3919 -1.9624
  924MOL0     H27500   2.818   5.391   9.907 -0.4079  0.3158 -1.9872
  924MOL0     H27501   2.665   5.480   9.866 -2.0106  0.7090  2.0997
  924MOL0     H27502   2.598   5.468  10.102  0.1382  2.1031 -2.3578
  924MOL0     H27503   2.748   5.550  10.091 -0.5325 -0.1328  0.8035
  924MOL0     H27504   2.736   5.383  10.288  0.1155 -0.1762 -0.2627
  924MOL0     H27505   2.733   5.251  10.169 -0.9792  0.3777  0.4983
  924MOL0     H27506   2.948   5.456  10.216  0.5471  0.3974 -0.2537
  924MOL0     H27507   2.959   5.360  10.077  0.4290 -1.7487 -0.2519
  924MOL0     H27508   3.060   5.090  10.411 -0.0988 -0.9141 -1.8848
  924MOL0     H27509   2.686   5.385   9.675  3.1744 -2.2257  3.7532
  924MOL0     H27510   2.642   5.242   9.341 -3.2346 -1.9014 -0.4544
  924MOL0     H27511   2.549   5.370   9.416  0.1649 -0.8992 -1.5205
  924MOL0     H27512   2.726   5.363   9.432  0.1170  0.8523 -0.3452
  925MOL0     O27513   9.775   4.507   0.683 -0.5647  0.0238  0.1352
  925MOL0     C27514   9.668   4.471   0.729 -0.6872  1.0168  0.2240
  925MOL0     O27515   9.563   4.555   0.751  0.5860  0.0107 -0.7288
  925MOL0     C27516   9.542   4.657   0.666 -0.0319  0.4265 -1.0715
  925MOL0     C27517   9.483   4.776   0.716  0.9326  0.4851  0.3709
  925MOL0     C27518   9.454   4.883   0.636  0.6565  0.2894  0.1589
  925MOL0     C27519   9.480   4.875   0.502 -0.1470  0.3001  0.0958
  925MOL0     O27520   9.431   4.972   0.418 -0.6439 -0.0325  0.4746
  925MOL0     C27521   9.358   4.921   0.309  0.5388  0.0741 -0.3873
  925MOL0     C27522   9.239   5.017   0.282 -0.6141  1.6702  0.1431
  925MOL0     C27523   9.169   4.973   0.159 -0.4091  0.1431  0.4195
  925MOL0     C27524   9.037   5.054   0.148 -0.4138  0.3043 -1.2118
  925MOL0     C27525   8.953   5.013   0.028 -1.2746 -0.7885 -1.2479
  925MOL0     C27526   8.975   5.093  -0.099  0.4393 -0.3892  0.1830
  925MOL0     C27527   8.866   5.059  -0.203 -0.2728 -0.2566  0.8110
  925MOL0     C27528   8.728   5.109  -0.170  1.0574 -0.1393 -0.0244
  925MOL0     N27529   8.633   5.096  -0.289 -0.0913  0.8438 -0.6751
  925MOL0     C27530   8.635   5.170  -0.405 -0.3303 -0.0740  0.1976
  925MOL0     C27531   8.564   5.111  -0.496 -0.4635  0.2722  0.6033
  925MOL0     C27532   8.536   5.168  -0.636 -0.0560 -0.5119 -0.5886
  925MOL0     C27533   8.517   5.066  -0.747 -0.1111  0.2176  0.5743
  925MOL0     C27534   8.655   5.002  -0.781 -0.3206 -0.0520 -0.6387
  925MOL0     C27535   8.634   4.889  -0.879 -0.8499 -0.9352 -0.1999
  925MOL0     O27536   8.574   4.935  -0.999 -0.2237  0.7998  0.8147
  925MOL0     C27537   8.641   5.038  -1.070  0.6680  1.4033 -1.1788
  925MOL0     C27538   8.756   5.018  -1.145 -0.0377 -0.2712  0.3751
  925MOL0     C27539   8.830   5.125  -1.209 -0.0613  0.1375 -0.4526
  925MOL0     C27540   8.962   5.069  -1.273  0.4802 -0.1710  0.2686
  925MOL0     C27541   8.769   5.259  -1.196 -0.3216 -0.4103  0.0485
  925MOL0     C27542   8.834   5.383  -1.252 -0.3545 -0.1848 -1.3452
  925MOL0     O27543   8.772   5.495  -1.223 -0.1696  0.2091  0.2662
  925MOL0     C27544   8.846   5.608  -1.229 -0.1975 -0.1569  0.1901
  925MOL0     C27545   8.836   5.689  -1.341 -0.3143  0.0552 -0.5400
  925MOL0     C27546   8.905   5.811  -1.360  0.6862 -0.4658 -0.2000
  925MOL0     C27547   8.986   5.859  -1.260 -0.2094 -0.5010  0.1344
  925MOL0     O27548   9.061   5.976  -1.273 -0.0886  0.6645  0.6560
  925MOL0     C27549   9.014   6.089  -1.350 -0.3346 -0.3312  0.5108
  925MOL0     C27550   9.030   6.213  -1.261  0.2052 -0.0829  0.2974
  925MOL0     C27551   9.001   6.190  -1.118  0.6801  0.0064  0.3611
  925MOL0     C27552   9.128   6.178  -1.035  0.9696  0.2183 -0.2049
  925MOL0     C27553   9.083   6.174  -0.891  0.4812 -0.9423  0.8154
  925MOL0     C27554   9.207   6.201  -0.816 -0.5639 -1.1433  0.4604
  925MOL0     C27555   9.316   6.088  -0.828 -0.2894  0.3077  0.3052
  925MOL0     C27556   9.447   6.106  -0.746  0.5606  0.5119  0.2115
  925MOL0    Cl27557   9.394   6.076  -0.576 -0.0812 -0.4372 -0.2783
  925MOL0     C27558   9.012   5.776  -1.151 -0.4385  0.8262 -0.3671
  925MOL0     C27559   8.939   5.654  -1.135  0.2979  0.3798  0.2116
  925MOL0     O27560   8.921   5.371  -1.334  0.0140  1.3036 -0.0418
  925MOL0     C27561   8.648   5.270  -1.127  0.4237 -0.3186 -1.2669
  925MOL0     C27562   8.587   5.162  -1.072 -0.7018 -0.4381  1.0294
  925MOL0     N27563   8.510   5.004  -0.440  0.7224  0.1175 -0.0135
  925MOL0     N27564   8.550   4.992  -0.314 -0.1328 -0.1457  0.1049
  925MOL0     C27565   9.536   4.754   0.454 -0.0458 -0.8499 -0.5782
  925MOL0     C27566   9.572   4.647   0.530  0.4645 -0.1303  0.2992
  925MOL0     C27567   9.642   4.321   0.747 -0.3759 -1.0851  0.3300
  925MOL0     C27568   9.760   4.243   0.744  1.1322  0.7255  0.0835
  925MOL0     C27569   9.756   4.106   0.785  0.2348  0.7603  0.1406
  925MOL0     C27570   9.632   4.053   0.822  0.7246  0.4707  0.8678
  925MOL0     O27571   9.608   3.913   0.853  0.0532 -0.2874 -0.3895
  925MOL0     C27572   9.717   3.811   0.854 -1.1731 -1.0179  0.3844
  925MOL0     C27573   9.794   3.802   0.979  0.4297  0.3661  0.5918
  925MOL0     C27574   9.885   3.687   0.959  0.4531  0.3536  0.1015
  925MOL0     C27575  10.019   3.696   1.035  0.0440 -1.0165 -1.3617
  925MOL0     C27576  10.092   3.825   1.009  0.0380  0.5926  0.8767
  925MOL0     C27577  10.153   3.927   0.991 -0.7590 -1.4119 -0.4919
  925MOL0     C27578   9.518   4.130   0.808 -0.5407  0.0714  0.5099
  925MOL0     C27579   9.517   4.259   0.763 -0.1068  0.4755 -0.2601
  925MOL0     C27580   9.382   4.315   0.738  0.3829 -0.7213  0.3312
  925MOL0     H27581   9.445   4.779   0.818  2.2885  1.6439  0.8741
  925MOL0     H27582   9.395   4.970   0.665  1.8337  1.3200 -0.3969
  925MOL0     H27583   9.321   4.823   0.340  1.4412 -0.3399 -0.5791
  925MOL0     H27584   9.424   4.919   0.221 -0.9826  2.0857 -1.6750
  925MOL0     H27585   9.171   5.000   0.366 -1.4044 -2.4789 -1.1033
  925MOL0     H27586   9.260   5.125   0.275 -0.6218  1.7313  0.8964
  925MOL0     H27587   9.234   4.984   0.071 -0.2461  0.3066  0.5614
  925MOL0     H27588   9.155   4.865   0.170  1.7427 -0.4193 -1.4050
  925MOL0     H27589   8.983   5.028   0.240 -2.7387  3.1137 -1.6263
  925MOL0     H27590   9.054   5.161   0.157  2.0213 -0.0448 -1.0439
  925MOL0     H27591   8.848   5.028   0.058 -1.2080 -1.4124 -0.6631
  925MOL0     H27592   8.962   4.904   0.019 -1.9422 -1.1548  1.4906
  925MOL0     H27593   8.957   5.198  -0.075 -0.3189 -1.0847  3.0246
  925MOL0     H27594   9.078   5.090  -0.137  0.4993  1.3176  0.1297
  925MOL0     H27595   8.874   4.953  -0.229  3.2959  0.3114 -0.9968
  925MOL0     H27596   8.896   5.113  -0.293 -2.6838  0.0121  0.0919
  925MOL0     H27597   8.686   5.052  -0.087 -2.7672 -1.8382 -2.8027
  925MOL0     H27598   8.743   5.212  -0.139  0.9219  0.0574 -0.5981
  925MOL0     H27599   8.683   5.266  -0.426 -2.2912  1.0643  0.6587
  925MOL0     H27600   8.605   5.249  -0.664 -0.7129 -0.0081 -0.7792
  925MOL0     H27601   8.436   5.212  -0.634 -0.1015 -0.4829 -2.1660
  925MOL0     H27602   8.453   4.989  -0.703  0.3887  0.5377  1.9077
  925MOL0     H27603   8.455   5.099  -0.831  0.0662 -0.7744  0.0449
  925MOL0     H27604   8.733   5.071  -0.814 -1.7937  1.8797 -0.2687
  925MOL0     H27605   8.697   4.948  -0.696  0.6752  5.1570  2.6641
  925MOL0     H27606   8.727   4.835  -0.895 -0.8455 -1.0707  0.2499
  925MOL0     H27607   8.566   4.812  -0.840  0.3471 -3.1484 -2.2498
  925MOL0     H27608   8.805   4.921  -1.145  1.5857  0.4722  1.9555
  925MOL0     H27609   9.045   5.132  -1.242 -1.9554  2.8086  1.2217
  925MOL0     H27610   8.957   5.080  -1.381 -1.4981  3.3909  0.5753
  925MOL0     H27611   8.988   4.969  -1.237  0.9972  0.2342  1.0506
  925MOL0     H27612   8.766   5.657  -1.417 -2.7678  0.7913  1.2869
  925MOL0     H27613   8.894   5.862  -1.455 -1.8639  0.8287  0.6927
  925MOL0     H27614   9.059   6.094  -1.450  2.7592  2.3139  1.8474
  925MOL0     H27615   8.907   6.076  -1.365  0.1192 -2.9960 -1.1313
  925MOL0     H27616   9.133   6.247  -1.266  0.0501  0.1601 -2.0962
  925MOL0     H27617   8.962   6.289  -1.302 -0.7772 -0.9514  0.2689
  925MOL0     H27618   8.951   6.093  -1.108 -3.3260  2.0529  2.9440
  925MOL0     H27619   8.934   6.270  -1.085  1.2008  1.1334 -1.1430
  925MOL0     H27620   9.193   6.263  -1.054 -0.3668  0.9775 -1.6306
  925MOL0     H27621   9.179   6.084  -1.057 -1.3579 -1.1914  0.0181
  925MOL0     H27622   9.023   6.266  -0.885 -0.2954 -1.1036 -2.5711
  925MOL0     H27623   9.025   6.085  -0.866 -0.5197 -0.2221  1.1158
  925MOL0     H27624   9.183   6.208  -0.709 -1.0177 -0.0808  0.3056
  925MOL0     H27625   9.255   6.293  -0.850  0.3389 -1.4761  0.7847
  925MOL0     H27626   9.344   6.084  -0.934 -1.9993 -0.4187 -0.1499
  925MOL0     H27627   9.281   5.989  -0.798  2.0701  0.1378  2.8287
  925MOL0     H27628   9.493   6.205  -0.745  0.7220  0.4375  0.1507
  925MOL0     H27629   9.522   6.030  -0.767 -3.1674 -3.6035  0.2173
  925MOL0     H27630   9.081   5.815  -1.078  3.2677 -1.7873 -2.1367
  925MOL0     H27631   8.955   5.578  -1.058  0.4354  1.2424  1.0592
  925MOL0     H27632   8.584   5.355  -1.102 -2.7479 -2.6907 -0.6708
  925MOL0     H27633   8.491   5.181  -1.024 -2.1414 -2.0618 -1.0023
  925MOL0     H27634   9.554   4.736   0.349 -0.6002 -0.6400 -0.7111
  925MOL0     H27635   9.608   4.557   0.480 -0.1229 -0.3763  0.3151
  925MOL0     H27636   9.858   4.288   0.732  0.1155  2.4799 -2.7343
  925MOL0     H27637   9.842   4.041   0.771  0.1736  1.3250 -4.7670
  925MOL0     H27638   9.671   3.716   0.825  3.6240 -3.0802 -1.5446
  925MOL0     H27639   9.795   3.824   0.779 -0.0992  1.5192  1.7965
  925MOL0     H27640   9.734   3.773   1.065  0.3754  2.0858  1.1725
  925MOL0     H27641   9.845   3.896   1.004 -0.3233  1.5153 -1.8531
  925MOL0     H27642   9.832   3.599   0.996  0.7840  0.8642  1.8626
  925MOL0     H27643   9.915   3.668   0.856 -0.7857 -2.4831  0.1875
  925MOL0     H27644  10.085   3.610   1.026  2.0324  0.1929  0.7093
  925MOL0     H27645   9.983   3.695   1.138 -1.8928  1.4554 -1.9069
  925MOL0     H27646  10.206   4.019   0.974 -2.9144 -0.0041  0.0066
  925MOL0     H27647   9.415   4.096   0.820 -1.2689  1.9006 -0.2814
  925MOL0     H27648   9.303   4.241   0.753 -1.0865  0.4517 -1.2138
  925MOL0     H27649   9.369   4.411   0.790  1.3052 -0.5500  0.2716
  925MOL0     H27650   9.364   4.347   0.635  3.1934 -2.7997 -0.9277
  926MOL0     O27651   5.745   2.640   0.483  0.0849 -0.1615 -0.6149
  926MOL0     C27652   5.841   2.648   0.564  0.6427 -0.4083 -0.7061
  926MOL0     O27653   5.972   2.695   0.528  0.2948 -0.3521  0.5395
  926MOL0     C27654   6.000   2.704   0.397  0.1412  0.2315  0.2526
  926MOL0     C27655   6.015   2.829   0.335  0.0531  0.5701 -0.0702
  926MOL0     C27656   6.065   2.833   0.203 -0.5315 -0.3154 -0.2076
  926MOL0     C27657   6.088   2.710   0.128 -0.7442 -0.2725 -0.9195
  926MOL0     O27658   6.140   2.710   0.001 -0.2954  0.4635 -0.2163
  926MOL0     C27659   6.151   2.829  -0.073  0.3386  0.2306 -0.1761
  926MOL0     C27660   6.202   2.786  -0.208 -0.1464  0.5730  0.4996
  926MOL0     C27661   6.223   2.888  -0.312  0.9114 -0.2969  0.3533
  926MOL0     C27662   6.336   2.994  -0.291  0.4724  0.2894  0.2440
  926MOL0     C27663   6.362   3.078  -0.418 -0.1993 -0.1461  0.9686
  926MOL0     C27664   6.468   3.185  -0.407 -0.1565 -1.0354 -0.2806
  926MOL0     C27665   6.461   3.268  -0.536  1.0268  0.4980 -0.4883
  926MOL0     C27666   6.527   3.407  -0.514  0.2808 -0.0394  0.4136
  926MOL0     N27667   6.673   3.412  -0.516  0.7990 -0.2077 -0.0365
  926MOL0     C27668   6.748   3.488  -0.430 -0.2531  0.4883 -0.2864
  926MOL0     C27669   6.876   3.465  -0.468  0.2370 -0.2404  0.1746
  926MOL0     C27670   6.997   3.534  -0.412  0.1473  0.5237 -0.0020
  926MOL0     C27671   7.032   3.664  -0.493 -0.2172  0.3673 -0.1155
  926MOL0     C27672   7.094   3.623  -0.628  0.9792  0.6377 -0.4821
  926MOL0     C27673   7.140   3.734  -0.724 -0.0830  0.6363 -0.2170
  926MOL0     O27674   7.034   3.802  -0.791 -0.4778  0.6838  0.2816
  926MOL0     C27675   7.059   3.851  -0.923  0.0582  0.3863 -0.1668
  926MOL0     C27676   6.962   3.914  -0.999  0.9887 -0.0627 -0.6373
  926MOL0     C27677   6.978   3.961  -1.127 -0.3045  0.5043  0.2685
  926MOL0     C27678   6.862   4.033  -1.201  0.3291  0.6289  0.7846
  926MOL0     C27679   7.107   3.951  -1.180 -0.1945 -0.1631  0.3899
  926MOL0     C27680   7.122   3.981  -1.321 -0.3442 -0.4053  0.2016
  926MOL0     O27681   7.071   4.097  -1.370 -0.9426 -0.0239 -0.6734
  926MOL0     C27682   7.078   4.108  -1.506  0.7074 -0.3643 -0.7388
  926MOL0     C27683   6.956   4.136  -1.568  0.1013 -0.8503 -0.1813
  926MOL0     C27684   6.953   4.173  -1.699  0.6694  0.4888 -0.1702
  926MOL0     C27685   7.071   4.197  -1.769  0.3840  0.1029  0.0223
  926MOL0     O27686   7.052   4.242  -1.899 -0.2454 -0.1500  0.5057
  926MOL0     C27687   7.171   4.300  -1.961 -0.1121  0.6388 -0.1600
  926MOL0     C27688   7.120   4.394  -2.072 -0.1876 -0.4174  0.2484
  926MOL0     C27689   7.041   4.513  -2.026  0.5746  0.2415 -0.3298
  926MOL0     C27690   7.067   4.637  -2.120  0.0857 -0.3203  0.1096
  926MOL0     C27691   7.038   4.603  -2.263  0.7701 -0.3523  0.2074
  926MOL0     C27692   7.040   4.734  -2.344  0.9356 -0.8277 -0.1438
  926MOL0     C27693   6.977   4.715  -2.491  0.0772 -0.1840 -0.5538
  926MOL0     C27694   7.083   4.733  -2.595 -0.1482  0.8344  0.1772
  926MOL0    Cl27695   7.089   4.623  -2.732 -0.1681  0.3381  0.0718
  926MOL0     C27696   7.194   4.187  -1.703  0.2027  0.6940  0.2791
  926MOL0     C27697   7.198   4.140  -1.568  0.2611  1.0208 -0.0252
  926MOL0     O27698   7.175   3.892  -1.391 -0.5740 -0.3948  0.2840
  926MOL0     C27699   7.215   3.896  -1.109  0.8455 -0.1488 -0.2792
  926MOL0     C27700   7.195   3.847  -0.983  1.2636  0.1800 -0.0554
  926MOL0     N27701   6.879   3.386  -0.585  0.9895 -0.4143  0.0643
  926MOL0     N27702   6.759   3.345  -0.605  0.0929 -0.8413  0.0516
  926MOL0     C27703   6.071   2.592   0.195  0.0582  0.5316  0.2337
  926MOL0     C27704   6.011   2.584   0.323 -0.0394  1.4154 -0.1402
  926MOL0     C27705   5.810   2.613   0.708 -0.6849  0.1139 -0.1800
  926MOL0     C27706   5.909   2.633   0.804  0.8028 -0.7906  0.9494
  926MOL0     C27707   5.897   2.579   0.926 -0.3724  0.3397  0.1777
  926MOL0     C27708   5.770   2.527   0.974 -0.5926  0.6761  0.3322
  926MOL0     O27709   5.767   2.495   1.107  0.3155 -0.8714  0.3686
  926MOL0     C27710   5.668   2.578   1.168  0.3082 -0.2384 -1.4285
  926MOL0     C27711   5.685   2.574   1.322  0.1692 -0.0007 -0.0260
  926MOL0     C27712   5.617   2.443   1.365  0.4731  0.2596 -0.0053
  926MOL0     C27713   5.693   2.399   1.490 -0.2195 -0.5332 -1.1753
  926MOL0     C27714   5.584   2.352   1.589 -0.4315  0.1669 -0.1816
  926MOL0     C27715   5.485   2.318   1.648  0.2908  1.2614 -0.1993
  926MOL0     C27716   5.667   2.510   0.888 -0.3349 -0.6447 -0.1628
  926MOL0     C27717   5.691   2.545   0.744  0.4165  0.1159  0.5563
  926MOL0     C27718   5.577   2.485   0.656  0.1958 -0.1851 -0.1119
  926MOL0     H27719   6.001   2.922   0.387 -2.5728 -0.4802  1.2731
  926MOL0     H27720   6.079   2.930   0.157  2.5995 -1.5991 -2.3090
  926MOL0     H27721   6.212   2.909  -0.029  0.2270  0.2200 -0.0005
  926MOL0     H27722   6.054   2.877  -0.083 -0.3604 -0.2722  3.0143
  926MOL0     H27723   6.296   2.733  -0.185 -0.2013 -0.3077 -1.1172
  926MOL0     H27724   6.140   2.707  -0.252 -0.8355  2.1353 -1.4527
  926MOL0     H27725   6.231   2.850  -0.414  1.5670  2.5034 -0.7278
  926MOL0     H27726   6.134   2.949  -0.331  3.0145  2.4201 -1.6140
  926MOL0     H27727   6.310   3.069  -0.215 -0.2328 -0.7408  1.0573
  926MOL0     H27728   6.420   2.935  -0.255 -0.8613 -3.8321 -2.6255
  926MOL0     H27729   6.265   3.120  -0.447  0.0133 -0.1238  0.2532
  926MOL0     H27730   6.386   2.999  -0.490 -0.4802  1.8223 -1.4123
  926MOL0     H27731   6.474   3.243  -0.315 -1.0336 -2.4104  0.6819
  926MOL0     H27732   6.566   3.139  -0.420  2.2124  3.5682 -0.6768
  926MOL0     H27733   6.359   3.287  -0.569  1.2128  0.0460 -1.3528
  926MOL0     H27734   6.519   3.221  -0.616  2.8819 -1.6325  1.9321
  926MOL0     H27735   6.488   3.474  -0.591  0.4981  1.2225  1.3720
  926MOL0     H27736   6.490   3.461  -0.427  0.5289  0.7304  0.0469
  926MOL0     H27737   6.709   3.552  -0.351  0.5797 -0.6419  1.0885
  926MOL0     H27738   7.083   3.467  -0.423  2.1093  2.7828  0.5990
  926MOL0     H27739   6.978   3.568  -0.309  0.5115  1.7576 -0.3250
  926MOL0     H27740   6.947   3.733  -0.500 -0.6228 -0.1007  0.1751
  926MOL0     H27741   7.106   3.725  -0.439 -1.3971  0.9865  0.8580
  926MOL0     H27742   7.186   3.569  -0.604  0.0362 -1.4039 -1.2032
  926MOL0     H27743   7.028   3.559  -0.687  1.8407  1.0081 -1.8967
  926MOL0     H27744   7.206   3.804  -0.673  0.9985  0.2862 -1.0858
  926MOL0     H27745   7.187   3.680  -0.807 -1.2446  0.3025 -0.6768
  926MOL0     H27746   6.868   3.929  -0.946  1.5533  0.4967  0.2260
  926MOL0     H27747   6.879   4.141  -1.207  0.6203  0.4863 -2.1463
  926MOL0     H27748   6.766   4.012  -1.153  0.4202 -1.3846  0.1508
  926MOL0     H27749   6.841   4.002  -1.303 -0.1600  4.5789 -0.4698
  926MOL0     H27750   6.869   4.130  -1.504  3.5723 -1.7796  5.1021
  926MOL0     H27751   6.861   4.202  -1.750  0.5476  0.0107 -0.2255
  926MOL0     H27752   7.231   4.370  -1.903 -2.0358  4.3715 -2.2866
  926MOL0     H27753   7.230   4.217  -2.001 -1.3850 -0.9156  1.0372
  926MOL0     H27754   7.213   4.433  -2.114 -0.4034  1.8852  1.7152
  926MOL0     H27755   7.073   4.330  -2.147  1.2269 -2.0531  0.6853
  926MOL0     H27756   7.061   4.536  -1.921 -1.5692  1.3119 -0.0987
  926MOL0     H27757   6.935   4.485  -2.023  0.9920 -1.9477 -2.5351
  926MOL0     H27758   7.170   4.672  -2.108  0.2398 -0.3190 -1.1020
  926MOL0     H27759   7.001   4.713  -2.076  2.0490  1.7699 -0.3885
  926MOL0     H27760   7.115   4.541  -2.311 -1.9862  0.0295 -5.5543
  926MOL0     H27761   6.944   4.548  -2.273  1.1802 -0.8333 -1.4275
  926MOL0     H27762   7.145   4.765  -2.341  0.9507 -0.9286  0.4734
  926MOL0     H27763   6.980   4.817  -2.307 -0.9339 -0.2290 -4.0350
  926MOL0     H27764   6.900   4.789  -2.514 -0.8404 -1.6875 -2.5002
  926MOL0     H27765   6.936   4.615  -2.500  3.2946 -1.6648 -0.3935
  926MOL0     H27766   7.180   4.712  -2.547 -0.9140 -1.3727  0.8688
  926MOL0     H27767   7.084   4.840  -2.619 -3.3638  1.2160  1.2955
  926MOL0     H27768   7.279   4.211  -1.766  2.2484 -3.6519  1.0339
  926MOL0     H27769   7.291   4.133  -1.512  0.3897  1.3536 -0.1901
  926MOL0     H27770   7.310   3.877  -1.159  0.8010  0.7046 -0.7140
  926MOL0     H27771   7.286   3.802  -0.944  2.0495  0.4060 -1.5806
  926MOL0     H27772   6.099   2.500   0.145  4.0479  1.6887  0.0563
  926MOL0     H27773   5.977   2.490   0.365  2.8035  0.3668  0.0199
  926MOL0     H27774   6.004   2.681   0.780  0.9702 -1.4647  0.2385
  926MOL0     H27775   5.979   2.581   0.997 -1.0141 -0.6880  0.9808
  926MOL0     H27776   5.679   2.674   1.115 -0.4657  1.0153  0.5670
  926MOL0     H27777   5.570   2.530   1.164  0.3582 -0.2627 -3.2149
  926MOL0     H27778   5.624   2.654   1.366  1.0799  0.9360 -0.4144
  926MOL0     H27779   5.793   2.580   1.336  0.2560 -1.6301  0.1282
  926MOL0     H27780   5.509   2.453   1.379  0.1661 -1.5926 -0.7262
  926MOL0     H27781   5.646   2.361   1.298 -1.6868 -0.3510 -0.2513
  926MOL0     H27782   5.753   2.480   1.534  1.2401 -1.3018 -1.6798
  926MOL0     H27783   5.755   2.311   1.469  0.2805 -0.7978  1.0615
  926MOL0     H27784   5.405   2.283   1.710  1.5020  2.8238  2.4028
  926MOL0     H27785   5.572   2.478   0.930 -0.9420  1.8956  0.5573
  926MOL0     H27786   5.513   2.407   0.698  0.8460  0.8104  2.9951
  926MOL0     H27787   5.505   2.559   0.618  0.7603  0.7996  0.6785
  926MOL0     H27788   5.621   2.431   0.572  1.2485 -1.5498  1.2713
  927MOL0     O27789   3.186   0.496   0.389 -0.1689  0.6252  0.5390
  927MOL0     C27790   3.237   0.565   0.473  0.3189 -0.6973  0.9887
  927MOL0     O27791   3.209   0.702   0.494  0.8730  0.5025  0.1303
  927MOL0     C27792   3.111   0.778   0.428  0.1671  0.9164  0.2338
  927MOL0     C27793   3.020   0.733   0.320  0.3212  0.6854 -0.1499
  927MOL0     C27794   2.927   0.824   0.261  0.5214  0.9639 -0.6594
  927MOL0     C27795   2.921   0.956   0.306 -0.7789 -0.2678  0.0575
  927MOL0     O27796   2.828   1.031   0.236 -0.5846  0.0020  0.2585
  927MOL0     C27797   2.721   1.085   0.303  0.0513  0.9678 -0.5009
  927MOL0     C27798   2.611   1.125   0.200 -0.3684  0.6368 -0.4159
  927MOL0     C27799   2.551   0.987   0.153 -0.0681  0.0014 -0.3672
  927MOL0     C27800   2.436   0.935   0.252  0.2836 -0.0811  0.8516
  927MOL0     C27801   2.349   0.840   0.172  0.3135  0.6271 -0.3576
  927MOL0     C27802   2.229   0.786   0.250  0.2325 -0.1247  0.7501
  927MOL0     C27803   2.266   0.671   0.346  0.5354  0.1165  0.1588
  927MOL0     C27804   2.132   0.621   0.405 -0.2905  0.2207  0.0090
  927MOL0     N27805   2.163   0.512   0.501 -0.4294 -0.2817 -0.1001
  927MOL0     C27806   2.246   0.405   0.470  0.4928  0.3859 -0.4920
  927MOL0     C27807   2.258   0.326   0.583  0.5413 -0.0597  0.5732
  927MOL0     C27808   2.365   0.223   0.595 -0.2131  0.6010 -0.0634
  927MOL0     C27809   2.482   0.266   0.693  0.6320  0.7544 -0.3829
  927MOL0     C27810   2.622   0.203   0.666  0.1733 -0.0048 -0.3808
  927MOL0     C27811   2.712   0.211   0.794 -0.9440 -0.1929 -0.6227
  927MOL0     O27812   2.850   0.197   0.763 -0.1305 -0.1838 -0.0711
  927MOL0     C27813   2.933   0.238   0.865 -0.3823  0.1893 -0.3180
  927MOL0     C27814   3.052   0.177   0.838  0.3776 -1.5112 -0.7718
  927MOL0     C27815   3.152   0.180   0.936  0.0091  0.0982 -0.2047
  927MOL0     C27816   3.290   0.124   0.888  0.2572 -0.6954  0.5777
  927MOL0     C27817   3.132   0.244   1.064  0.6123  0.5107 -0.3078
  927MOL0     C27818   3.240   0.250   1.159 -0.0468 -0.6009 -0.3313
  927MOL0     O27819   3.357   0.180   1.157 -0.5765 -0.5697  0.0819
  927MOL0     C27820   3.456   0.182   1.256  0.6764 -1.3126 -0.0070
  927MOL0     C27821   3.569   0.111   1.224 -0.3569 -0.6879 -0.2169
  927MOL0     C27822   3.686   0.106   1.299 -0.3521 -0.3279  0.0752
  927MOL0     C27823   3.675   0.159   1.428 -0.8034 -0.2344 -0.6769
  927MOL0     O27824   3.765   0.151   1.531 -0.4381  0.3226 -0.3093
  927MOL0     C27825   3.859   0.042   1.520 -0.0696  0.0313  0.1374
  927MOL0     C27826   3.787  -0.104   1.537  0.5145 -0.3720 -0.9691
  927MOL0     C27827   3.718  -0.122   1.678  0.4997 -0.0670  0.6585
  927MOL0     C27828   3.645  -0.260   1.666 -1.3372 -0.3603  0.4782
  927MOL0     C27829   3.527  -0.256   1.769  0.1674 -0.0690 -0.7173
  927MOL0     C27830   3.458  -0.391   1.781  0.4768 -0.4372 -0.3395
  927MOL0     C27831   3.398  -0.442   1.652  0.3253 -0.1855  0.2816
  927MOL0     C27832   3.280  -0.533   1.681 -0.6977  0.3350  0.0566
  927MOL0    Cl27833   3.227  -0.597   1.508  0.0903  0.4265 -0.0067
  927MOL0     C27834   3.562   0.236   1.468 -0.1297  0.5258  0.5536
  927MOL0     C27835   3.453   0.250   1.383 -0.1374 -0.1719  0.5809
  927MOL0     O27836   3.225   0.316   1.252  0.3758 -1.3170  0.3227
  927MOL0     C27837   3.015   0.320   1.071 -0.3864  0.8415  0.4980
  927MOL0     C27838   2.912   0.311   0.986  0.7104 -0.8868  0.5452
  927MOL0     N27839   2.178   0.389   0.677 -0.5333  0.7306 -0.1759
  927MOL0     N27840   2.123   0.497   0.625 -0.0350 -0.1607 -0.7343
  927MOL0     C27841   2.991   0.990   0.424 -1.4106  0.1769 -0.4707
  927MOL0     C27842   3.087   0.899   0.484  0.4493 -0.7434 -0.7738
  927MOL0     C27843   3.345   0.504   0.560  0.0560  0.3913  0.9360
  927MOL0     C27844   3.407   0.582   0.660 -0.4939  0.4221  0.0417
  927MOL0     C27845   3.510   0.524   0.748  0.6835  0.8399  0.0397
  927MOL0     C27846   3.541   0.389   0.739 -0.3019 -0.2665  0.3220
  927MOL0     O27847   3.640   0.349   0.826 -0.4822 -0.0908 -0.2578
  927MOL0     C27848   3.692   0.209   0.825  0.5373 -0.1904 -0.4432
  927MOL0     C27849   3.795   0.182   0.940 -0.3775  0.4441  0.2231
  927MOL0     C27850   3.903   0.297   0.948  0.7178 -1.0522  0.9263
  927MOL0     C27851   4.040   0.251   0.997  0.5727 -0.0205  0.1042
  927MOL0     C27852   4.018   0.252   1.145  0.7075  1.7259 -0.5274
  927MOL0     C27853   4.004   0.260   1.261 -0.1497 -0.0841  0.4067
  927MOL0     C27854   3.485   0.314   0.640 -0.1721 -0.8671  0.7044
  927MOL0     C27855   3.387   0.366   0.561  0.4891 -0.0401  0.5827
  927MOL0     C27856   3.310   0.265   0.485 -0.2390 -0.4761 -0.1064
  927MOL0     H27857   3.020   0.639   0.266 -0.3209  0.2015  0.6720
  927MOL0     H27858   2.859   0.785   0.186  1.9132 -1.0010 -0.9724
  927MOL0     H27859   2.751   1.178   0.353  0.9519  0.5437 -0.2476
  927MOL0     H27860   2.683   1.022   0.384 -0.7450  1.0953 -0.7626
  927MOL0     H27861   2.528   1.180   0.246  0.4531  1.2794  0.3287
  927MOL0     H27862   2.652   1.190   0.123  1.8960 -1.8524 -1.4662
  927MOL0     H27863   2.513   1.014   0.054 -0.5177  1.2062  0.1166
  927MOL0     H27864   2.635   0.918   0.141 -0.4447 -0.3632 -0.9129
  927MOL0     H27865   2.480   0.894   0.343  1.0783  4.2074  2.6801
  927MOL0     H27866   2.364   1.016   0.269 -2.2368 -2.1589  0.6138
  927MOL0     H27867   2.421   0.760   0.153  0.5121  0.9025 -0.7683
  927MOL0     H27868   2.312   0.871   0.074 -1.9607  0.0244  0.2456
  927MOL0     H27869   2.175   0.870   0.294  0.8078  2.7203 -3.4690
  927MOL0     H27870   2.160   0.736   0.182  3.0929 -0.1920 -2.3731
  927MOL0     H27871   2.346   0.695   0.417  2.4019 -3.6635 -0.4394
  927MOL0     H27872   2.308   0.589   0.289  0.8614  1.7895 -2.1223
  927MOL0     H27873   2.081   0.704   0.455 -1.3261 -0.0944 -0.4843
  927MOL0     H27874   2.066   0.570   0.334 -0.2088 -1.1100  0.8615
  927MOL0     H27875   2.307   0.400   0.381 -2.3416 -0.9808 -2.4923
  927MOL0     H27876   2.405   0.198   0.496  0.2744  1.1601 -0.0158
  927MOL0     H27877   2.332   0.133   0.647  1.2079  1.3053  2.1810
  927MOL0     H27878   2.496   0.375   0.697 -1.7323  1.0776  0.8712
  927MOL0     H27879   2.455   0.225   0.790  2.3948  1.2141  0.3423
  927MOL0     H27880   2.606   0.096   0.650  4.3263 -0.6772 -1.0193
  927MOL0     H27881   2.667   0.241   0.574 -1.2529 -0.9573 -1.5233
  927MOL0     H27882   2.686   0.303   0.847 -2.5338 -1.4841  0.9742
  927MOL0     H27883   2.688   0.126   0.858  0.7253  0.4360  0.9060
  927MOL0     H27884   3.064   0.112   0.752 -2.0986 -0.8072 -1.7107
  927MOL0     H27885   3.279   0.074   0.791  4.8728 -0.8318 -0.1198
  927MOL0     H27886   3.330   0.036   0.939  0.2662 -1.5074 -0.7812
  927MOL0     H27887   3.363   0.205   0.876 -0.5312 -0.3098 -2.5567
  927MOL0     H27888   3.568   0.056   1.131 -1.5750 -1.4589  0.2277
  927MOL0     H27889   3.769   0.058   1.249 -1.3026  0.6860 -2.6720
  927MOL0     H27890   3.915   0.043   1.425  1.6505  2.2840  1.0744
  927MOL0     H27891   3.931   0.044   1.603  0.1549 -1.3632 -0.0008
  927MOL0     H27892   3.702  -0.114   1.469 -0.8219  5.2485 -0.6257
  927MOL0     H27893   3.869  -0.177   1.532 -1.8776 -3.3555  0.3247
  927MOL0     H27894   3.639  -0.046   1.673  0.5622  0.0171 -4.3861
  927MOL0     H27895   3.794  -0.102   1.754 -0.3773  0.1201  1.5079
  927MOL0     H27896   3.713  -0.343   1.686  2.1047  2.2291  0.3140
  927MOL0     H27897   3.591  -0.266   1.571 -1.5744  0.1048  0.5797
  927MOL0     H27898   3.564  -0.218   1.865  0.0826  2.5425 -1.6403
  927MOL0     H27899   3.452  -0.186   1.731 -0.7190  0.8283  2.3625
  927MOL0     H27900   3.371  -0.384   1.848 -0.7343 -1.4199 -1.7376
  927MOL0     H27901   3.530  -0.462   1.822 -1.2453 -1.6114  0.7665
  927MOL0     H27902   3.472  -0.499   1.596  0.4558  0.5155 -0.2725
  927MOL0     H27903   3.353  -0.358   1.598  2.1661  1.9876  1.9306
  927MOL0     H27904   3.199  -0.487   1.738  0.3832  2.9826 -0.4164
  927MOL0     H27905   3.315  -0.613   1.747  0.3417  2.0634  1.6802
  927MOL0     H27906   3.547   0.282   1.565 -0.9741 -0.6113  0.9787
  927MOL0     H27907   3.377   0.318   1.421 -0.5601 -0.0687 -0.4114
  927MOL0     H27908   3.004   0.377   1.162 -2.0456 -0.7852  1.3756
  927MOL0     H27909   2.814   0.356   1.001  0.8011 -0.3215 -0.4282
  927MOL0     H27910   2.976   1.086   0.472 -1.5926  0.9295 -1.9911
  927MOL0     H27911   3.141   0.932   0.572 -1.0730  1.7171 -0.6426
  927MOL0     H27912   3.369   0.682   0.673  0.2903  0.7810 -0.3780
  927MOL0     H27913   3.538   0.588   0.831 -1.7933  0.6934  1.0447
  927MOL0     H27914   3.606   0.145   0.847  0.1508 -0.1211 -1.6710
  927MOL0     H27915   3.739   0.182   0.731 -1.0653  0.1271 -1.3722
  927MOL0     H27916   3.843   0.085   0.929  0.1365  0.8857 -1.9079
  927MOL0     H27917   3.748   0.186   1.039 -1.1637  0.8293 -0.1520
  927MOL0     H27918   3.921   0.331   0.846 -2.1744  1.9980  1.2658
  927MOL0     H27919   3.866   0.383   1.005  0.1323  0.3332 -1.4012
  927MOL0     H27920   4.112   0.329   0.974 -0.0631  0.3175 -0.8101
  927MOL0     H27921   4.078   0.159   0.952 -1.1060 -0.3471 -0.7560
  927MOL0     H27922   3.999   0.266   1.368  0.4852  2.2308  0.3707
  927MOL0     H27923   3.513   0.211   0.657  1.4005 -0.3131  1.6704
  927MOL0     H27924   3.206   0.266   0.520  0.5236 -0.4896  2.2966
  927MOL0     H27925   3.317   0.286   0.378  1.7516 -1.5287 -0.2256
  927MOL0     H27926   3.355   0.166   0.491 -1.2863 -0.8968  1.2868
  928MOL0     O27927   6.914   5.675  10.317  0.3645 -0.2132  0.3351
  928MOL0     C27928   6.835   5.668  10.224  0.2802 -0.6224 -0.4553
  928MOL0     O27929   6.741   5.567  10.213  0.3359  0.4948 -0.2888
  928MOL0     C27930   6.723   5.460  10.307  0.3597 -0.8331  0.2060
  928MOL0     C27931   6.716   5.484  10.446 -0.1036  0.4699 -0.2926
  928MOL0     C27932   6.696   5.376  10.540 -0.3802  0.2422  0.8982
  928MOL0     C27933   6.677   5.248  10.485 -0.4244 -0.0759 -0.1669
  928MOL0     O27934   6.663   5.130  10.551 -0.4342 -0.8607 -0.2485
  928MOL0     C27935   6.680   5.130  10.691 -0.2233 -0.2555 -0.0764
  928MOL0     C27936   6.819   5.105  10.755  0.3492 -0.2997  1.2617
  928MOL0     C27937   6.785   5.063  10.901  0.2260 -0.2484  0.4552
  928MOL0     C27938   6.913   5.064  10.975 -0.6884  0.8834 -0.0746
  928MOL0     C27939   6.892   4.995  11.113  0.0695  0.0768  0.2415
  928MOL0     C27940   7.028   4.951  11.179  0.3199  0.2815  0.0167
  928MOL0     C27941   7.034   4.871  11.307 -0.5997  0.6983 -0.4898
  928MOL0     C27942   7.188   4.857  11.353  0.2222 -0.3871 -0.4699
  928MOL0     N27943   7.207   4.853  11.500 -0.0254 -0.5716 -0.0943
  928MOL0     C27944   7.228   4.965  11.575  0.7881  0.3587 -0.3591
  928MOL0     C27945   7.201   4.922  11.699  0.4692 -1.2532  0.2974
  928MOL0     C27946   7.205   4.985  11.828  0.6182  1.1095  0.8294
  928MOL0     C27947   7.335   4.969  11.900 -0.3415 -0.2085  0.0127
  928MOL0     C27948   7.318   5.016  12.045 -0.7681  0.2536 -0.3787
  928MOL0     C27949   7.447   4.987  12.121 -0.0958  0.6312 -0.4232
  928MOL0     O27950   7.537   5.082  12.065 -0.2753  0.0486  0.0691
  928MOL0     C27951   7.674   5.067  12.082  0.1058  0.7301  0.3333
  928MOL0     C27952   7.752   5.188  12.057  0.2538  0.4848 -0.1310
  928MOL0     C27953   7.890   5.179  12.060 -0.6191 -0.4041 -0.3240
  928MOL0     C27954   7.959   5.305  11.999 -0.0686 -0.0151 -0.3198
  928MOL0     C27955   7.962   5.072  12.115 -1.2070  0.0138 -0.0782
  928MOL0     C27956   8.114   5.062  12.127 -0.6987 -0.3625  0.0684
  928MOL0     O27957   8.166   4.943  12.161 -0.5840 -0.4324 -0.4769
  928MOL0     C27958   8.301   4.933  12.163  0.8656  0.2267 -0.5254
  928MOL0     C27959   8.375   4.946  12.048  0.0236 -0.3446  0.2470
  928MOL0     C27960   8.514   4.918  12.051  0.2315 -0.2818 -0.0242
  928MOL0     C27961   8.576   4.856  12.159 -0.1264 -0.1163  0.6807
  928MOL0     O27962   8.709   4.819  12.161  0.6484  0.1254  0.0229
  928MOL0     C27963   8.808   4.893  12.089  0.2703 -0.7958  0.1731
  928MOL0     C27964   8.944   4.848  12.140  0.1093 -0.5606  0.3571
  928MOL0     C27965   8.993   4.722  12.052 -0.6461 -0.3089 -0.1630
  928MOL0     C27966   9.091   4.611  12.108 -0.4842  0.7135 -0.2686
  928MOL0     C27967   9.079   4.481  12.017 -0.1087  0.0460  0.2944
  928MOL0     C27968   9.053   4.375  12.131  0.2056  0.4968 -0.1911
  928MOL0     C27969   9.071   4.227  12.086 -0.8635 -0.6737 -0.2857
  928MOL0     C27970   8.985   4.182  11.965 -0.0957  0.3397 -0.7868
  928MOL0    Cl27971   9.085   4.145  11.817 -0.3126 -0.0397 -0.3270
  928MOL0     C27972   8.495   4.834  12.273  0.3925 -0.6333  0.6736
  928MOL0     C27973   8.362   4.878  12.276 -0.5240 -0.1568  0.3778
  928MOL0     O27974   8.185   5.164  12.111  0.5226 -0.0066 -0.0230
  928MOL0     C27975   7.889   4.960  12.153 -0.2807 -0.2968  0.6962
  928MOL0     C27976   7.749   4.957  12.129 -0.8820  0.4215  0.0438
  928MOL0     N27977   7.177   4.793  11.695 -0.7330  0.5952 -0.0084
  928MOL0     N27978   7.179   4.747  11.575 -0.8569 -0.1429  0.0727
  928MOL0     C27979   6.675   5.242  10.348  0.0101 -0.0564  0.5388
  928MOL0     C27980   6.705   5.337  10.261 -0.3643 -0.5173 -0.3789
  928MOL0     C27981   6.807   5.770  10.111  0.1272  0.0426 -1.0873
  928MOL0     C27982   6.751   5.726   9.987  0.6785  0.0699  0.3399
  928MOL0     C27983   6.725   5.822   9.893  0.2628  0.4234 -0.0199
  928MOL0     C27984   6.745   5.958   9.925  0.0546 -0.5928  0.3392
  928MOL0     O27985   6.704   6.044   9.825  0.1355 -0.0490 -0.1342
  928MOL0     C27986   6.663   6.172   9.864 -0.3515 -0.6109  0.2851
  928MOL0     C27987   6.775   6.282   9.852  0.1774  0.8637  0.2559
  928MOL0     C27988   6.791   6.315   9.702  0.3832 -0.6154  0.6835
  928MOL0     C27989   6.735   6.452   9.657 -0.5414  0.7635  0.4275
  928MOL0     C27990   6.743   6.468   9.513 -0.1774  0.0844  0.1023
  928MOL0     C27991   6.767   6.488   9.395  1.3142 -0.0559  0.7762
  928MOL0     C27992   6.806   6.002  10.047  0.0532 -0.0264 -0.6884
  928MOL0     C27993   6.848   5.907  10.133  0.0910 -0.9215 -0.2066
  928MOL0     C27994   6.896   5.944  10.272 -0.7716 -0.9284  0.2770
  928MOL0     H27995   6.733   5.587  10.475  0.9500  0.3851 -0.5420
  928MOL0     H27996   6.685   5.406  10.644  3.2943  1.0260  1.2040
  928MOL0     H27997   6.628   5.040  10.727  0.7302 -0.8980 -0.2644
  928MOL0     H27998   6.632   5.220  10.732 -0.2976  0.1536 -1.0287
  928MOL0     H27999   6.871   5.021  10.708 -1.7101 -0.0946 -1.6200
  928MOL0     H28000   6.875   5.199  10.748 -0.9321  0.3635 -1.1437
  928MOL0     H28001   6.703   5.125  10.939 -0.2095 -0.6652  0.1966
  928MOL0     H28002   6.751   4.959  10.899  1.7236 -0.7495 -0.0058
  928MOL0     H28003   6.996   5.017  10.921  1.9762  1.6330  3.0605
  928MOL0     H28004   6.936   5.169  10.994 -4.2132  1.5102  1.3744
  928MOL0     H28005   6.820   4.914  11.103  1.1032 -0.7639 -0.5151
  928MOL0     H28006   6.842   5.060  11.186 -2.2035 -2.1041  0.7343
  928MOL0     H28007   7.072   4.890  11.100 -1.8475 -2.9853  1.1283
  928MOL0     H28008   7.085   5.043  11.195  2.0047 -1.1335  2.7154
  928MOL0     H28009   6.992   4.774  11.279  1.3071  0.2049 -1.8734
  928MOL0     H28010   6.984   4.919  11.392  0.6698 -1.2697  1.4558
  928MOL0     H28011   7.233   4.769  11.303  0.5345 -1.2914  1.3273
  928MOL0     H28012   7.250   4.940  11.316  0.1998  1.0224  2.4025
  928MOL0     H28013   7.250   5.067  11.544 -1.5374 -0.4596 -6.0487
  928MOL0     H28014   7.116   4.960  11.887  0.4609  0.4192  0.3181
  928MOL0     H28015   7.198   5.092  11.807 -2.2554  0.3437 -3.2416
  928MOL0     H28016   7.361   4.863  11.903  1.5475  0.1745 -1.2262
  928MOL0     H28017   7.415   5.027  11.853  0.2269 -0.2632  0.8801
  928MOL0     H28018   7.302   5.123  12.058  1.7616  0.8048 -1.1120
  928MOL0     H28019   7.236   4.970  12.100 -0.3716 -0.2499 -0.1963
  928MOL0     H28020   7.441   5.006  12.229  1.7865  2.8255 -0.6272
  928MOL0     H28021   7.476   4.882  12.118  3.3344  1.3315  1.8118
  928MOL0     H28022   7.700   5.271  12.011 -1.1059  0.2169  0.8770
  928MOL0     H28023   8.037   5.336  12.069  0.6851  1.1620 -1.6227
  928MOL0     H28024   7.892   5.391  11.990  2.9840  2.6272  0.1924
  928MOL0     H28025   8.007   5.282  11.903  0.3158 -4.0995  0.6708
  928MOL0     H28026   8.341   5.001  11.962  2.3157  0.7808 -0.0136
  928MOL0     H28027   8.573   4.948  11.965 -1.7681 -0.4449 -1.5417
  928MOL0     H28028   8.804   4.867  11.982  1.2001  0.2097 -0.1268
  928MOL0     H28029   8.799   5.002  12.094 -0.7206 -0.9271  2.2474
  928MOL0     H28030   9.015   4.929  12.117 -1.6943  0.9433 -0.1408
  928MOL0     H28031   8.946   4.824  12.246 -0.0682 -1.2742  0.2000
  928MOL0     H28032   9.049   4.772  11.972  1.1077 -0.7780  0.7325
  928MOL0     H28033   8.903   4.673  12.014  1.4568 -3.3291 -1.6962
  928MOL0     H28034   9.073   4.586  12.213  0.7184 -1.5048 -0.5116
  928MOL0     H28035   9.192   4.651  12.103 -0.6834  1.2382 -0.0881
  928MOL0     H28036   9.003   4.480  11.938  1.0761  1.1278 -0.9098
  928MOL0     H28037   9.176   4.455  11.974  0.6284  1.1835  1.2143
  928MOL0     H28038   8.948   4.390  12.161 -0.6353  0.1320 -2.6804
  928MOL0     H28039   9.106   4.383  12.226  0.3728 -2.2488  0.0146
  928MOL0     H28040   9.037   4.173  12.175 -0.3697  0.2269  0.4695
  928MOL0     H28041   9.174   4.199  12.063 -0.5469  0.5453 -0.4248
  928MOL0     H28042   8.913   4.261  11.945 -0.4742  0.0050 -0.7718
  928MOL0     H28043   8.923   4.096  11.993  0.0172 -0.0150 -1.5937
  928MOL0     H28044   8.527   4.780  12.362  0.1297 -2.4397 -0.2926
  928MOL0     H28045   8.301   4.862  12.365  0.5403  0.0065  1.1641
  928MOL0     H28046   7.933   4.875  12.203 -0.0648  0.0777  1.1520
  928MOL0     H28047   7.703   4.861  12.151  1.4711 -1.1558 -1.4372
  928MOL0     H28048   6.664   5.148  10.294 -1.8543  1.2143 -1.4510
  928MOL0     H28049   6.723   5.312  10.157  1.3146  3.7214 -1.3105
  928MOL0     H28050   6.723   5.624   9.964  1.2068 -0.1136  0.4971
  928MOL0     H28051   6.670   5.789   9.806  1.1356  5.4915 -2.9057
  928MOL0     H28052   6.581   6.209   9.801  0.5632 -1.5413 -1.5249
  928MOL0     H28053   6.637   6.172   9.970 -1.9418 -0.1591 -0.0766
  928MOL0     H28054   6.865   6.247   9.904 -2.4321  1.6860  6.0901
  928MOL0     H28055   6.726   6.365   9.904 -1.8827  0.1889 -0.5241
  928MOL0     H28056   6.897   6.304   9.675 -0.0367  1.1755 -2.1978
  928MOL0     H28057   6.746   6.236   9.641  0.6479 -1.5500  1.6877
  928MOL0     H28058   6.799   6.524   9.709  1.5199 -0.0688 -0.8087
  928MOL0     H28059   6.627   6.455   9.676 -1.1179 -0.1814 -2.2766
  928MOL0     H28060   6.784   6.509   9.292 -4.4828 -2.1590 -1.0064
  928MOL0     H28061   6.823   6.106  10.071  2.2776 -0.6520  0.7316
  928MOL0     H28062   6.833   5.911  10.355  2.4031 -1.0547  2.8211
  928MOL0     H28063   6.991   5.897  10.298 -1.2913 -0.3644  3.6311
  928MOL0     H28064   6.926   6.049  10.286 -0.3134 -1.1612  1.0791
  929MOL0     O28065   2.021   5.389  10.378 -0.5349 -0.2486  0.2336
  929MOL0     C28066   1.920   5.457  10.343  0.4148  0.2709 -0.2707
  929MOL0     O28067   1.907   5.590  10.381 -0.0742 -0.1988 -0.5022
  929MOL0     C28068   2.001   5.657  10.457  0.8125 -0.1436  0.4410
  929MOL0     C28069   2.079   5.615  10.570 -0.4267  0.4298  0.2275
  929MOL0     C28070   2.173   5.696  10.637 -0.5896  0.9485 -0.6479
  929MOL0     C28071   2.180   5.831  10.609 -0.1220 -0.5599 -0.8431
  929MOL0     O28072   2.280   5.907  10.667  0.3662 -0.2202  1.1072
  929MOL0     C28073   2.289   5.886  10.803  0.5462  0.4096  0.0783
  929MOL0     C28074   2.409   5.964  10.863  0.4784 -0.4867 -0.0712
  929MOL0     C28075   2.542   5.898  10.820  0.1276  1.0408 -0.1171
  929MOL0     C28076   2.660   5.984  10.874  0.0895  0.0331 -0.2587
  929MOL0     C28077   2.790   5.923  10.822  0.7201  0.5835  0.6373
  929MOL0     C28078   2.790   5.901  10.675 -0.2745  1.4225  0.1242
  929MOL0     C28079   2.933   5.910  10.614 -0.0276  0.5465  0.2561
  929MOL0     C28080   3.013   5.786  10.670  0.1279 -0.0428 -1.1961
  929MOL0     N28081   3.117   5.741  10.582  0.3319  0.2414  0.0977
  929MOL0     C28082   3.101   5.653  10.473 -0.1021  0.3401 -1.0054
  929MOL0     C28083   3.217   5.604  10.443  0.2717 -0.7476  0.7398
  929MOL0     C28084   3.246   5.510  10.337 -0.2002 -0.2265  0.0467
  929MOL0     C28085   3.386   5.525  10.278 -0.3732 -0.0363  0.1843
  929MOL0     C28086   3.495   5.457  10.360 -0.5861 -0.9749  0.3488
  929MOL0     C28087   3.612   5.398  10.277 -0.5856  0.3595  0.4267
  929MOL0     O28088   3.636   5.476  10.159  0.6583  0.4582  0.2401
  929MOL0     C28089   3.729   5.431  10.071 -0.3644 -0.2574  0.1804
  929MOL0     C28090   3.842   5.360  10.097  0.5195 -0.2104  0.5805
  929MOL0     C28091   3.937   5.325   9.995  0.5201 -0.7776 -0.2390
  929MOL0     C28092   4.074   5.284  10.033  0.0524  0.7486 -0.3148
  929MOL0     C28093   3.885   5.329   9.859 -0.9738 -0.1671 -0.4984
  929MOL0     C28094   3.941   5.257   9.743  0.8559 -0.7186 -0.4528
  929MOL0     O28095   3.892   5.306   9.624 -0.3480 -0.2253 -0.7002
  929MOL0     C28096   3.919   5.245   9.509  1.3878  0.4343  1.3219
  929MOL0     C28097   3.817   5.204   9.430  0.0655 -1.2088 -0.4139
  929MOL0     C28098   3.844   5.145   9.308  0.7735 -0.8538 -0.3649
  929MOL0     C28099   3.975   5.124   9.266 -0.1248  0.2920 -0.1001
  929MOL0     O28100   3.991   5.075   9.144  0.8040  0.0564  0.2502
  929MOL0     C28101   4.124   5.030   9.106 -0.1394  0.9121 -0.5136
  929MOL0     C28102   4.220   5.132   9.046 -0.1695 -0.6968 -0.3565
  929MOL0     C28103   4.173   5.169   8.907 -0.2697 -0.5715  0.7741
  929MOL0     C28104   4.239   5.086   8.802 -0.3174 -0.3534 -0.8784
  929MOL0     C28105   4.177   5.099   8.672  0.4036  0.3718  0.3375
  929MOL0     C28106   4.203   4.972   8.597  0.3038 -0.0488 -0.4305
  929MOL0     C28107   4.339   4.984   8.532 -1.0244 -0.2573 -0.0451
  929MOL0     C28108   4.388   4.861   8.446  0.2686  0.7530 -0.1421
  929MOL0    Cl28109   4.547   4.903   8.369 -0.3399  0.4224 -0.2271
  929MOL0     C28110   4.080   5.150   9.355 -0.5252 -0.3808  0.0100
  929MOL0     C28111   4.051   5.220   9.472 -0.2086 -0.0578 -0.0421
  929MOL0     O28112   4.022   5.173   9.762 -0.0374  0.5292 -0.5289
  929MOL0     C28113   3.765   5.401   9.832 -0.2936  0.3532 -0.8760
  929MOL0     C28114   3.685   5.447   9.939 -0.1774  0.3165  0.4441
  929MOL0     N28115   3.290   5.654  10.547 -0.8685 -0.3197  0.0607
  929MOL0     N28116   3.241   5.750  10.620 -0.9055  0.8150  0.4240
  929MOL0     C28117   2.106   5.872  10.501  0.4279  0.6997  0.0405
  929MOL0     C28118   2.009   5.793  10.429 -0.3573  0.1065 -0.4725
  929MOL0     C28119   1.811   5.403  10.257 -0.3539 -0.1391  0.1027
  929MOL0     C28120   1.705   5.479  10.200  0.7617  0.4649  0.0043
  929MOL0     C28121   1.587   5.425  10.158 -0.2502  0.1270 -1.3334
  929MOL0     C28122   1.572   5.292  10.130 -0.0282 -0.5122  0.0107
  929MOL0     O28123   1.471   5.227  10.071  0.1353 -0.1151 -0.2295
  929MOL0     C28124   1.406   5.296   9.962  0.7666 -0.6179 -0.0822
  929MOL0     C28125   1.372   5.189   9.858 -0.3648 -0.6179 -0.1274
  929MOL0     C28126   1.319   5.261   9.721  1.0651 -0.0772 -0.7674
  929MOL0     C28127   1.172   5.310   9.727 -0.0478 -0.7834  0.3783
  929MOL0     C28128   1.145   5.425   9.811 -0.2531 -0.5591  0.8352
  929MOL0     C28129   1.130   5.525   9.882  0.2692 -0.6448  0.8549
  929MOL0     C28130   1.677   5.211  10.172  1.2230  0.3248  0.6015
  929MOL0     C28131   1.785   5.256  10.245 -0.1333  0.7099 -0.3947
  929MOL0     C28132   1.884   5.144  10.292  1.2047 -0.3395  0.7419
  929MOL0     H28133   2.084   5.507  10.579  0.9479  0.4556 -0.0338
  929MOL0     H28134   2.238   5.646  10.707 -1.2911  0.9097 -0.0079
  929MOL0     H28135   2.299   5.782  10.835  0.2442  0.4996  0.4770
  929MOL0     H28136   2.199   5.932  10.846 -1.6408 -1.2958 -2.3636
  929MOL0     H28137   2.414   6.072  10.847  1.0164 -0.6687 -1.2100
  929MOL0     H28138   2.400   5.958  10.972 -4.2286 -0.8733 -0.2511
  929MOL0     H28139   2.553   5.794  10.850  0.2629  0.6902 -1.3274
  929MOL0     H28140   2.540   5.908  10.711 -0.1241 -0.7389 -0.3119
  929MOL0     H28141   2.652   6.086  10.837  1.2480  1.6155  3.3696
  929MOL0     H28142   2.650   5.996  10.982 -2.2830 -0.9121 -0.2989
  929MOL0     H28143   2.806   5.825  10.868 -0.8001 -0.1989 -0.4143
  929MOL0     H28144   2.867   5.995  10.851  0.0162  1.8612 -0.5833
  929MOL0     H28145   2.740   5.807  10.653 -0.2995  1.9189 -2.1927
  929MOL0     H28146   2.721   5.970  10.626 -0.5374  0.2526 -1.2020
  929MOL0     H28147   2.981   6.003  10.648 -1.0158  0.3229  2.4158
  929MOL0     H28148   2.930   5.903  10.505  2.0384  1.0383  0.1206
  929MOL0     H28149   3.052   5.814  10.768  0.3230  0.7185 -1.4910
  929MOL0     H28150   2.937   5.709  10.689  1.1850 -1.2978 -1.9107
  929MOL0     H28151   2.999   5.629  10.443  0.0082 -1.8097  0.1195
  929MOL0     H28152   3.179   5.531  10.253 -2.5975  0.2035  1.9516
  929MOL0     H28153   3.222   5.410  10.372  3.1408 -0.2314  2.7508
  929MOL0     H28154   3.378   5.462  10.189 -5.0343 -0.5255  0.7225
  929MOL0     H28155   3.412   5.627  10.247 -0.8805 -0.0648 -0.3560
  929MOL0     H28156   3.538   5.535  10.424  1.9205 -0.7703 -1.4524
  929MOL0     H28157   3.448   5.380  10.422  3.5283 -0.9094  4.0191
  929MOL0     H28158   3.704   5.381  10.335 -0.5936  0.9911  0.6319
  929MOL0     H28159   3.577   5.299  10.246  0.2715 -0.4376  1.9069
  929MOL0     H28160   3.868   5.349  10.202 -1.2973  1.7636  1.3226
  929MOL0     H28161   4.095   5.180  10.007  2.7108  1.3369 -0.8506
  929MOL0     H28162   4.103   5.301  10.137 -0.7682  2.4583 -0.3285
  929MOL0     H28163   4.141   5.339   9.965  2.3289 -0.8901  0.4712
  929MOL0     H28164   3.716   5.219   9.468  0.1360  3.6507 -1.4325
  929MOL0     H28165   3.761   5.111   9.247 -0.2401 -0.2855  0.6711
  929MOL0     H28166   4.164   4.970   9.188 -0.8071 -0.3734 -1.0858
  929MOL0     H28167   4.119   4.954   9.027 -1.9951  1.2340 -0.7421
  929MOL0     H28168   4.227   5.214   9.119 -0.0302 -0.2789 -0.8375
  929MOL0     H28169   4.322   5.092   9.050 -0.1753 -0.7319  3.6376
  929MOL0     H28170   4.197   5.274   8.884  2.4977 -1.4474 -0.7794
  929MOL0     H28171   4.069   5.138   8.902  0.6916 -4.2277  1.0764
  929MOL0     H28172   4.215   4.987   8.843  0.0223 -0.3747 -0.7263
  929MOL0     H28173   4.346   5.109   8.798  0.5486 -3.0730  2.1914
  929MOL0     H28174   4.071   5.105   8.694  0.5736 -0.0362  1.3122
  929MOL0     H28175   4.199   5.192   8.619  0.1954  0.3984  0.2963
  929MOL0     H28176   4.121   4.973   8.524 -3.1807 -3.6183  2.9030
  929MOL0     H28177   4.194   4.877   8.650  1.0013 -1.1929 -2.2377
  929MOL0     H28178   4.419   5.005   8.604  0.2953  0.0814 -1.5587
  929MOL0     H28179   4.330   5.068   8.462 -0.6864 -0.4943 -0.3790
  929MOL0     H28180   4.314   4.839   8.368  0.6365 -2.3417  0.2299
  929MOL0     H28181   4.397   4.766   8.501  0.4263  1.8263  1.7685
  929MOL0     H28182   4.184   5.124   9.335 -0.8408 -0.8048 -1.1573
  929MOL0     H28183   4.127   5.250   9.543 -1.3014  1.2505  0.6217
  929MOL0     H28184   3.737   5.409   9.727  0.4114 -0.4514 -1.1355
  929MOL0     H28185   3.588   5.490   9.914 -0.1638 -0.4901 -1.1173
  929MOL0     H28186   2.117   5.979  10.485 -2.4680  1.1721  0.6263
  929MOL0     H28187   1.953   5.831  10.344  0.8203  3.3301  0.0435
  929MOL0     H28188   1.713   5.587  10.201  0.7912  0.4623  0.0971
  929MOL0     H28189   1.506   5.494  10.135  0.2219  1.9489  1.8334
  929MOL0     H28190   1.320   5.354   9.997  2.6159  1.5332  1.1967
  929MOL0     H28191   1.470   5.370   9.912  0.2379  0.8079  1.2900
  929MOL0     H28192   1.296   5.123   9.901 -0.8126 -0.0447 -0.0263
  929MOL0     H28193   1.464   5.135   9.836  1.7084  2.6015 -0.0541
  929MOL0     H28194   1.379   5.351   9.701  1.9083 -0.9200 -2.2560
  929MOL0     H28195   1.326   5.196   9.633 -0.1147 -0.0727 -0.8739
  929MOL0     H28196   1.101   5.236   9.765 -0.5743  1.5084  4.3666
  929MOL0     H28197   1.139   5.331   9.625 -0.4389  1.3540  0.9001
  929MOL0     H28198   1.139   5.609   9.948  1.3402 -0.8745  1.0150
  929MOL0     H28199   1.670   5.107  10.141  1.6865  0.8520 -1.4692
  929MOL0     H28200   1.834   5.047  10.287 -0.4532  0.5262 -2.5977
  929MOL0     H28201   1.958   5.160  10.213  0.2081  1.5666  0.1339
  929MOL0     H28202   1.927   5.173  10.388  1.5407  2.2162 -0.1037
  930MOL0     O28203   0.398  10.284   8.978 -0.4088 -0.1134 -0.2363
  930MOL0     C28204   0.507  10.263   9.025 -0.4481 -0.4307  0.0963
  930MOL0     O28205   0.542  10.148   9.095  0.1601  0.4422 -0.3545
  930MOL0     C28206   0.450  10.049   9.083  0.2638  0.0056 -0.1681
  930MOL0     C28207   0.435   9.979   8.959 -0.4097 -0.3706  0.4116
  930MOL0     C28208   0.341   9.881   8.949  0.0036  0.0220 -0.0518
  930MOL0     C28209   0.259   9.843   9.061  0.0895  0.2122  0.1584
  930MOL0     O28210   0.162   9.756   9.047  0.0643 -0.4224 -0.0235
  930MOL0     C28211   0.199   9.627   8.991 -0.8753 -0.0793  0.0837
  930MOL0     C28212   0.203   9.509   9.086 -0.6493 -0.0366 -0.0625
  930MOL0     C28213   0.270   9.535   9.219 -0.5688 -0.4246  0.4137
  930MOL0     C28214   0.298   9.415   9.307  0.5860  1.0427 -0.0604
  930MOL0     C28215   0.415   9.445   9.406 -0.3036  0.9701  0.3116
  930MOL0     C28216   0.425   9.339   9.518 -0.0672  0.3286  1.0259
  930MOL0     C28217   0.496   9.371   9.641 -0.3540  0.8988 -0.6154
  930MOL0     C28218   0.493   9.249   9.741  0.0159  0.3356 -0.4077
  930MOL0     N28219   0.582   9.253   9.862  0.1198  0.1944  0.2082
  930MOL0     C28220   0.609   9.371   9.925  0.1224 -0.8000 -0.1173
  930MOL0     C28221   0.706   9.339  10.013  0.3375  0.2931  0.6701
  930MOL0     C28222   0.774   9.429  10.110 -0.4047 -0.8457 -0.7845
  930MOL0     C28223   0.912   9.451  10.060 -0.4945 -0.0341 -0.3987
  930MOL0     C28224   0.982   9.537  10.156 -0.1888 -0.8959  0.0589
  930MOL0     C28225   1.133   9.552  10.133 -0.1976  1.0832  0.6151
  930MOL0     O28226   1.186   9.676  10.193 -0.4164  0.1240 -0.1800
  930MOL0     C28227   1.182   9.701  10.334  0.3356 -0.3929 -0.1123
  930MOL0     C28228   1.179   9.599  10.431  0.0915 -0.5849 -0.4463
  930MOL0     C28229   1.194   9.643  10.566 -0.1199  0.5250 -0.1060
  930MOL0     C28230   1.202   9.533  10.664 -0.2088  0.2611  0.4408
  930MOL0     C28231   1.207   9.775  10.618 -0.8733 -0.2583  0.3430
  930MOL0     C28232   1.236   9.827  10.757  0.0752 -0.1490  0.3045
  930MOL0     O28233   1.203   9.958  10.782 -0.3700 -0.2177  0.3846
  930MOL0     C28234   1.194  10.018  10.903 -0.3940  0.4357 -0.0487
  930MOL0     C28235   1.300  10.109  10.927  0.5615  0.1030 -0.6183
  930MOL0     C28236   1.282  10.197  11.035  0.2963 -0.4990  0.2803
  930MOL0     C28237   1.170  10.181  11.125  0.9991 -0.1721  0.2202
  930MOL0     O28238   1.142  10.266  11.236  0.7800 -0.7652  0.3195
  930MOL0     C28239   1.192  10.400  11.229 -0.3490 -0.2153  0.8182
  930MOL0     C28240   1.090  10.500  11.284  0.5497 -0.3081  0.2910
  930MOL0     C28241   1.102  10.515  11.435  1.4878 -0.4889 -0.1859
  930MOL0     C28242   0.986  10.601  11.493  0.2153  1.1399 -0.1550
  930MOL0     C28243   0.979  10.586  11.643  0.2371  0.4788 -0.4596
  930MOL0     C28244   0.866  10.669  11.700  0.2189 -0.2618  0.0177
  930MOL0     C28245   0.831  10.631  11.842 -0.5488 -0.5780 -0.5783
  930MOL0     C28246   0.750  10.502  11.848  0.4673  0.1073  0.5064
  930MOL0    Cl28247   0.697  10.465  12.015 -0.2390  0.3843  0.3776
  930MOL0     C28248   1.077  10.073  11.104 -0.5897 -1.0458 -1.0399
  930MOL0     C28249   1.084  10.001  10.987  0.4393  0.3074 -0.0954
  930MOL0     O28250   1.275   9.751  10.844  0.2523  0.1635 -0.6157
  930MOL0     C28251   1.207   9.875  10.514 -0.5451 -0.5630  0.5956
  930MOL0     C28252   1.200   9.836  10.381 -0.2879 -0.1449  0.1142
  930MOL0     N28253   0.738   9.208  10.000 -0.0726 -0.5664  0.7560
  930MOL0     N28254   0.658   9.153   9.905  0.1607  0.6051  0.0665
  930MOL0     C28255   0.272   9.919   9.173 -0.2732  0.3037  0.2595
  930MOL0     C28256   0.369  10.021   9.183  0.6178 -0.1511 -0.2189
  930MOL0     C28257   0.611  10.365   8.999 -0.8983 -0.5133 -0.2910
  930MOL0     C28258   0.751  10.326   9.024 -0.2409  0.2757  0.6273
  930MOL0     C28259   0.854  10.421   9.014  0.1175 -0.8718 -0.5340
  930MOL0     C28260   0.834  10.551   8.996 -0.6488  0.1494  0.4300
  930MOL0     O28261   0.939  10.641   8.988 -0.5903  1.3804  0.5569
  930MOL0     C28262   0.909  10.757   9.062 -1.1292 -1.0308 -0.3338
  930MOL0     C28263   1.041  10.828   9.101 -0.6949  0.1241  0.6436
  930MOL0     C28264   1.011  10.947   9.193  0.0930  0.1222 -0.6199
  930MOL0     C28265   0.960  11.074   9.106  0.2078 -0.3229  0.2662
  930MOL0     C28266   1.070  11.162   9.087 -1.1873 -0.4777  0.8935
  930MOL0     C28267   1.167  11.237   9.066  0.6918  0.3088  0.5391
  930MOL0     C28268   0.707  10.582   8.959  0.1123 -0.8242  0.6049
  930MOL0     C28269   0.595  10.501   8.966  0.7053 -0.1695 -0.0152
  930MOL0     C28270   0.459  10.560   8.965 -0.4373 -0.9965 -0.3202
  930MOL0     H28271   0.494  10.008   8.872 -0.7240  1.4239  0.7654
  930MOL0     H28272   0.332   9.815   8.864  0.9601 -2.9299  2.0111
  930MOL0     H28273   0.297   9.625   8.943 -0.4704  2.9834  0.5938
  930MOL0     H28274   0.124   9.597   8.918  0.5380 -4.5589  0.1818
  930MOL0     H28275   0.097   9.481   9.096 -1.1054  1.1262 -1.3729
  930MOL0     H28276   0.249   9.420   9.043  2.4252  1.6271 -0.5182
  930MOL0     H28277   0.368   9.577   9.199 -1.0372  0.8404  0.6785
  930MOL0     H28278   0.213   9.614   9.269 -0.0176  2.4877 -3.1554
  930MOL0     H28279   0.204   9.388   9.357  1.2201 -2.0297 -0.3314
  930MOL0     H28280   0.320   9.330   9.242  0.0069  0.4476  0.5078
  930MOL0     H28281   0.386   9.536   9.459 -0.5100  0.4188  1.1650
  930MOL0     H28282   0.510   9.454   9.351 -1.3293  1.1766 -1.5261
  930MOL0     H28283   0.324   9.318   9.554  0.7332 -0.1985  3.1239
  930MOL0     H28284   0.474   9.250   9.478 -0.0828 -0.1218  1.9701
  930MOL0     H28285   0.463   9.469   9.675 -0.5809 -0.1218  2.4319
  930MOL0     H28286   0.601   9.390   9.618 -0.2965  2.8925  0.9940
  930MOL0     H28287   0.387   9.251   9.770 -0.1002 -0.3433 -0.7706
  930MOL0     H28288   0.518   9.160   9.683 -1.9967  0.3044 -1.3356
  930MOL0     H28289   0.560   9.466   9.908 -0.4030 -0.3630  3.1408
  930MOL0     H28290   0.770   9.397  10.214  1.3340 -1.6631 -0.9390
  930MOL0     H28291   0.738   9.532  10.100  1.3213  0.0840  1.7006
  930MOL0     H28292   0.966   9.356  10.059  2.5982  1.5548 -2.2260
  930MOL0     H28293   0.899   9.490   9.958 -2.1899  1.9335  0.5015
  930MOL0     H28294   0.942   9.637  10.141  3.4907  0.3071 -4.2207
  930MOL0     H28295   0.975   9.494  10.256 -1.1395  2.7822  1.7106
  930MOL0     H28296   1.191   9.469  10.172  0.5265  2.0366  1.6198
  930MOL0     H28297   1.160   9.541  10.027  3.1215  0.2043  1.4549
  930MOL0     H28298   1.167   9.495  10.402  2.2877 -0.3526 -2.4562
  930MOL0     H28299   1.218   9.433  10.621  0.3051 -1.2547  3.7861
  930MOL0     H28300   1.123   9.518  10.737  0.2328 -0.4155  0.7936
  930MOL0     H28301   1.295   9.549  10.721  0.8317  3.4512 -1.8922
  930MOL0     H28302   1.385  10.120  10.860 -0.8424  0.6850 -2.3995
  930MOL0     H28303   1.356  10.276  11.044  2.3231 -2.4056  1.4275
  930MOL0     H28304   1.279  10.404  11.295  0.7404  0.2210 -0.5874
  930MOL0     H28305   1.224  10.430  11.129 -0.4212  1.4454  1.2770
  930MOL0     H28306   1.104  10.600  11.244  1.1685 -0.3090  0.4972
  930MOL0     H28307   0.990  10.462  11.260  0.7011 -1.6693  1.6552
  930MOL0     H28308   1.205  10.547  11.451  1.1361  2.6955 -3.0690
  930MOL0     H28309   1.097  10.415  11.478 -2.1196  0.0265  0.9318
  930MOL0     H28310   0.890  10.565  11.455  1.8836 -0.9677 -2.7289
  930MOL0     H28311   0.992  10.705  11.459 -1.4490  1.4835  0.4914
  930MOL0     H28312   0.952  10.482  11.667  1.8925  0.2137  0.3857
  930MOL0     H28313   1.071  10.603  11.699  0.9017 -3.9951  0.1379
  930MOL0     H28314   0.780  10.656  11.635  0.1841 -2.1833  0.4107
  930MOL0     H28315   0.891  10.776  11.691  0.4951 -0.3556 -0.3625
  930MOL0     H28316   0.779  10.713  11.892 -1.7989 -0.2254 -2.3426
  930MOL0     H28317   0.925  10.619  11.896 -0.0460  1.4144 -0.9288
  930MOL0     H28318   0.804  10.417  11.806  2.6538  2.8862 -2.8628
  930MOL0     H28319   0.663  10.508  11.783  0.4653 -2.9450  0.0696
  930MOL0     H28320   0.989  10.069  11.168  0.4355 -1.6905  0.4027
  930MOL0     H28321   1.007   9.934  10.948  0.3085  0.1702  0.3932
  930MOL0     H28322   1.207   9.980  10.541  3.1794  0.2688 -1.8273
  930MOL0     H28323   1.198   9.912  10.303 -0.2931 -0.5130 -0.2492
  930MOL0     H28324   0.205   9.902   9.257 -0.8715  2.7125  0.3560
  930MOL0     H28325   0.381  10.080   9.272 -1.4129 -0.3702  0.2467
  930MOL0     H28326   0.778  10.222   9.039  0.0226  0.1116 -0.8947
  930MOL0     H28327   0.956  10.395   9.040 -0.5479 -2.2659  0.8889
  930MOL0     H28328   0.847  10.827   9.005 -0.0506 -2.1286 -3.0188
  930MOL0     H28329   0.858  10.726   9.154 -1.3268  0.6716  0.1792
  930MOL0     H28330   1.093  10.859   9.011  0.3925 -3.1981 -0.0158
  930MOL0     H28331   1.095  10.747   9.152 -1.8522  1.1227  3.6888
  930MOL0     H28332   0.936  10.924   9.268  0.6800  3.8700  1.3860
  930MOL0     H28333   1.097  10.974   9.256  0.3497 -1.1947 -0.3903
  930MOL0     H28334   0.875  11.127   9.150 -0.4347  0.2104 -1.5466
  930MOL0     H28335   0.937  11.049   9.002 -2.9030  0.6720  0.6172
  930MOL0     H28336   1.259  11.284   9.038  1.1615 -1.6929 -1.4947
  930MOL0     H28337   0.695  10.685   8.928  1.9150 -0.7241  0.0821
  930MOL0     H28338   0.459  10.669   8.951 -1.8807 -1.2038 -2.3153
  930MOL0     H28339   0.392  10.509   8.896  0.7464 -0.0931 -2.2299
  930MOL0     H28340   0.412  10.547   9.064 -1.1499  1.9859 -0.1419
  931MOL0     O28341   7.996   1.646   3.790 -0.0418  0.9481  0.2884
  931MOL0     C28342   7.895   1.666   3.853  0.2683 -1.0670  0.3881
  931MOL0     O28343   7.838   1.590   3.957  0.0062  0.1629  0.1829
  931MOL0     C28344   7.894   1.463   3.965 -0.1698  0.9105  0.4930
  931MOL0     C28345   8.026   1.442   4.003 -0.8390 -0.8167  0.6338
  931MOL0     C28346   8.076   1.310   4.029 -0.4702 -0.9248 -0.5879
  931MOL0     C28347   8.003   1.203   3.987 -0.2969 -0.1797 -0.2237
  931MOL0     O28348   8.066   1.083   4.010  0.7471 -0.5405  0.0426
  931MOL0     C28349   8.008   0.967   3.957  0.1372 -0.3300 -0.1570
  931MOL0     C28350   8.003   0.955   3.803  0.5352  0.4555  0.9253
  931MOL0     C28351   8.159   0.944   3.755  0.8166 -0.6924 -0.0318
  931MOL0     C28352   8.187   0.999   3.618 -1.2928 -0.2355 -0.8761
  931MOL0     C28353   8.124   0.903   3.512 -0.1290  0.0250 -0.7663
  931MOL0     C28354   8.164   0.944   3.369 -0.0438  0.3303  0.0486
  931MOL0     C28355   8.135   0.820   3.280 -0.3383  0.7032  0.5202
  931MOL0     C28356   8.146   0.853   3.133 -0.7765 -0.3240  0.1838
  931MOL0     N28357   8.093   0.749   3.050  0.3277 -0.1234 -0.3451
  931MOL0     C28358   7.961   0.704   3.044 -0.5318  0.1640 -0.4617
  931MOL0     C28359   7.963   0.615   2.947  0.4586  0.7258  0.3614
  931MOL0     C28360   7.844   0.540   2.886 -0.1960  0.3007  0.4738
  931MOL0     C28361   7.785   0.622   2.775  0.8510 -0.7020  0.1681
  931MOL0     C28362   7.678   0.535   2.700  0.4050 -0.9199  0.5039
  931MOL0     C28363   7.621   0.626   2.583  0.6545 -0.2909 -0.5663
  931MOL0     O28364   7.536   0.542   2.503  0.3452  0.3607  0.7753
  931MOL0     C28365   7.448   0.612   2.427 -0.0360 -0.3237  0.4458
  931MOL0     C28366   7.454   0.753   2.409  0.3655 -0.5990  0.4144
  931MOL0     C28367   7.354   0.823   2.348  0.2024  0.1133  0.8114
  931MOL0     C28368   7.376   0.972   2.341  0.5024  0.1011 -0.4300
  931MOL0     C28369   7.255   0.747   2.281  0.1463  0.4098  0.4126
  931MOL0     C28370   7.158   0.799   2.181  0.8240  1.2234 -0.5495
  931MOL0     O28371   7.033   0.731   2.185  0.2849  0.6505 -0.1138
  931MOL0     C28372   6.948   0.761   2.079 -0.2865 -0.6099 -0.3579
  931MOL0     C28373   6.916   0.661   1.985 -1.2493  0.0368 -0.0985
  931MOL0     C28374   6.826   0.680   1.883 -0.4138 -0.6933  0.3467
  931MOL0     C28375   6.772   0.808   1.856 -0.0491  0.3748  0.0527
  931MOL0     O28376   6.703   0.845   1.739 -0.0591  0.6213  0.0070
  931MOL0     C28377   6.567   0.890   1.769 -0.5754 -0.7041  0.7204
  931MOL0     C28378   6.470   0.801   1.689  0.3769  0.2625 -0.2336
  931MOL0     C28379   6.441   0.662   1.749  0.7062 -0.5737  0.0830
  931MOL0     C28380   6.333   0.596   1.666 -0.3310 -0.3131  0.0004
  931MOL0     C28381   6.317   0.445   1.696  0.1185 -0.2452  0.1928
  931MOL0     C28382   6.219   0.375   1.609 -0.0795  0.7461  0.0364
  931MOL0     C28383   6.229   0.219   1.629 -0.6428  0.0987 -0.5871
  931MOL0     C28384   6.089   0.158   1.588 -0.0124  0.1845  0.4048
  931MOL0    Cl28385   6.105  -0.022   1.626 -0.3074 -0.3781 -0.1316
  931MOL0     C28386   6.805   0.912   1.950 -1.3032  0.4416  0.1197
  931MOL0     C28387   6.897   0.890   2.063 -0.2846 -0.0836  0.5135
  931MOL0     O28388   7.197   0.881   2.102  0.7500 -0.5079 -0.6183
  931MOL0     C28389   7.255   0.603   2.296  0.1887  0.9050 -0.6890
  931MOL0     C28390   7.348   0.535   2.377  0.2137  0.5161  0.2381
  931MOL0     N28391   8.092   0.609   2.892 -0.4713  0.1076  0.0199
  931MOL0     N28392   8.167   0.684   2.958  0.0733 -0.5106  1.1020
  931MOL0     C28393   7.867   1.216   3.957  0.1700 -0.3760 -0.4961
  931MOL0     C28394   7.815   1.346   3.949 -0.5582  0.0396 -0.8851
  931MOL0     C28395   7.827   1.799   3.841 -0.5270 -0.4330 -0.6707
  931MOL0     C28396   7.785   1.854   3.965 -0.6422 -0.1411  0.7854
  931MOL0     C28397   7.723   1.985   3.958  0.0483  0.2666  0.7509
  931MOL0     C28398   7.723   2.068   3.845 -0.4561 -0.5026  0.1174
  931MOL0     O28399   7.682   2.198   3.859 -0.9019 -0.0481  0.4732
  931MOL0     C28400   7.625   2.273   3.749  0.2452  0.2245  0.5541
  931MOL0     C28401   7.482   2.230   3.718 -0.2841 -0.6329  0.2403
  931MOL0     C28402   7.396   2.321   3.628 -0.0279 -0.7585  0.6165
  931MOL0     C28403   7.347   2.446   3.710  0.0375  0.3091 -0.3809
  931MOL0     C28404   7.219   2.431   3.787  0.2388 -0.6241  0.4478
  931MOL0     C28405   7.115   2.420   3.857 -0.8851  0.4791 -0.8394
  931MOL0     C28406   7.769   2.009   3.726  0.0774 -0.3876  0.3700
  931MOL0     C28407   7.809   1.874   3.717 -0.0506 -0.0606 -0.2743
  931MOL0     C28408   7.838   1.822   3.579  0.7088  1.0144 -0.4177
  931MOL0     H28409   8.097   1.524   4.004  1.7649 -2.9207  1.6743
  931MOL0     H28410   8.179   1.298   4.060 -0.2627 -1.0966 -1.3290
  931MOL0     H28411   7.910   0.950   4.003  0.6456  0.8509  1.4411
  931MOL0     H28412   8.064   0.881   3.996  0.6417  0.2423  0.3926
  931MOL0     H28413   7.959   0.862   3.764 -0.1234  1.2264 -0.2227
  931MOL0     H28414   7.961   1.037   3.745  0.2820 -0.6806 -0.5720
  931MOL0     H28415   8.218   1.014   3.816 -0.8612  1.6353 -0.9120
  931MOL0     H28416   8.199   0.844   3.771 -0.3545 -1.2680 -0.6087
  931MOL0     H28417   8.167   1.105   3.599  0.1250  1.0539  3.6391
  931MOL0     H28418   8.294   0.990   3.597 -1.4308  0.1713 -1.8135
  931MOL0     H28419   8.015   0.902   3.518 -0.1351 -2.1563 -0.1480
  931MOL0     H28420   8.135   0.797   3.537 -4.7808 -0.8092 -1.4559
  931MOL0     H28421   8.108   1.032   3.335  1.4526  1.0283 -0.7134
  931MOL0     H28422   8.270   0.961   3.352 -0.1058 -0.3091 -1.0647
  931MOL0     H28423   8.035   0.783   3.304 -0.7495  0.0173 -1.9696
  931MOL0     H28424   8.209   0.745   3.310  0.5592  1.2725 -0.2178
  931MOL0     H28425   8.106   0.953   3.114  1.4249  0.1099 -2.8095
  931MOL0     H28426   8.251   0.852   3.101 -0.2839  0.3383  1.7295
  931MOL0     H28427   7.876   0.745   3.100 -0.6368  2.2096 -1.9987
  931MOL0     H28428   7.772   0.531   2.968 -0.3613 -5.5636  0.0930
  931MOL0     H28429   7.870   0.439   2.853  3.1841  0.3328  2.6465
  931MOL0     H28430   7.724   0.694   2.832  0.1189  0.2664 -1.7584
  931MOL0     H28431   7.854   0.678   2.712 -0.4083  1.9707  0.9630
  931MOL0     H28432   7.719   0.442   2.661  1.2393 -1.1925  1.9598
  931MOL0     H28433   7.593   0.515   2.765  0.4280  0.9430  1.1769
  931MOL0     H28434   7.564   0.711   2.623 -0.5723 -1.0280 -0.6874
  931MOL0     H28435   7.695   0.679   2.522 -1.0350  2.4646 -0.3973
  931MOL0     H28436   7.529   0.816   2.456  0.0202  0.6088 -0.5962
  931MOL0     H28437   7.409   1.012   2.438  2.5394 -1.1712 -0.5444
  931MOL0     H28438   7.274   1.010   2.326 -0.2874 -1.4714  0.7168
  931MOL0     H28439   7.438   1.011   2.260  0.3362  1.5872  0.1126
  931MOL0     H28440   6.966   0.567   2.006 -2.4475 -0.6922 -0.3854
  931MOL0     H28441   6.806   0.605   1.808  0.1745 -1.1783  0.6718
  931MOL0     H28442   6.537   0.887   1.874  1.6144 -4.3377  1.4249
  931MOL0     H28443   6.555   0.988   1.721 -3.1507 -2.2989 -2.2215
  931MOL0     H28444   6.375   0.855   1.679 -0.7213 -1.4197  0.6884
  931MOL0     H28445   6.507   0.796   1.586 -0.1359  0.6684 -0.4440
  931MOL0     H28446   6.407   0.673   1.852 -1.6320 -3.6215 -0.2190
  931MOL0     H28447   6.539   0.612   1.751  1.3725  0.6380  2.9445
  931MOL0     H28448   6.359   0.613   1.561 -1.9670  4.4654  0.1322
  931MOL0     H28449   6.240   0.652   1.679 -0.3515 -0.7595  2.1120
  931MOL0     H28450   6.413   0.394   1.688 -1.3931 -3.0958 -1.0609
  931MOL0     H28451   6.296   0.440   1.804 -1.2189 -1.2727 -0.0938
  931MOL0     H28452   6.241   0.395   1.504  0.1079  0.1789 -0.0416
  931MOL0     H28453   6.116   0.405   1.630 -0.9350 -0.1315 -2.5412
  931MOL0     H28454   6.247   0.192   1.734  0.5595  0.3350 -0.7158
  931MOL0     H28455   6.310   0.184   1.565  1.4754 -1.2704  2.6096
  931MOL0     H28456   6.070   0.158   1.480 -4.5407  1.1318  0.9782
  931MOL0     H28457   6.002   0.208   1.631 -0.1741  1.1464 -0.9441
  931MOL0     H28458   6.763   1.012   1.940 -2.6456 -0.1156 -0.1225
  931MOL0     H28459   6.918   0.972   2.130 -0.1821 -1.3927  2.1554
  931MOL0     H28460   7.175   0.551   2.244 -2.6232  1.8636  2.2902
  931MOL0     H28461   7.341   0.428   2.394  0.6277  0.2196 -1.2846
  931MOL0     H28462   7.799   1.131   3.949 -1.0316  0.5080  0.0404
  931MOL0     H28463   7.710   1.369   3.933 -0.6444  3.6062  3.1328
  931MOL0     H28464   7.798   1.804   4.061  3.8863  0.8333  0.8846
  931MOL0     H28465   7.698   2.040   4.048 -0.2873 -0.1039  0.8848
  931MOL0     H28466   7.618   2.374   3.791 -0.7486  1.0593 -1.4360
  931MOL0     H28467   7.681   2.259   3.656  0.4072  0.7957  0.5603
  931MOL0     H28468   7.429   2.190   3.805 -0.7420 -0.7277 -0.0800
  931MOL0     H28469   7.510   2.145   3.655 -0.1799  0.9913 -2.0396
  931MOL0     H28470   7.458   2.355   3.545  0.0634  1.9875  1.7092
  931MOL0     H28471   7.306   2.271   3.590  1.5505 -2.4523 -1.0839
  931MOL0     H28472   7.338   2.517   3.628 -0.3605 -2.7508 -3.2311
  931MOL0     H28473   7.425   2.485   3.776 -1.3530  2.1296  0.2495
  931MOL0     H28474   7.037   2.419   3.930  1.2360  2.1295  1.6026
  931MOL0     H28475   7.795   2.071   3.641  2.1973 -1.4160  0.1720
  931MOL0     H28476   7.746   1.833   3.521  0.8301  0.7793 -0.6535
  931MOL0     H28477   7.927   1.871   3.538  1.5990 -1.5334 -1.7050
  931MOL0     H28478   7.859   1.715   3.572  0.2852  0.9656 -1.0142
  932MOL0     O28479   9.931   9.381   2.458  0.1772  0.1215  0.2915
  932MOL0     C28480   9.905   9.430   2.346  0.5298 -0.2133  0.0282
  932MOL0     O28481   9.780   9.477   2.308  0.5284  0.8513  0.3386
  932MOL0     C28482   9.676   9.425   2.382  0.7061  0.4841  0.2115
  932MOL0     C28483   9.579   9.515   2.403 -0.4876 -0.7711 -0.1774
  932MOL0     C28484   9.444   9.467   2.438 -0.4096  0.5497 -0.5294
  932MOL0     C28485   9.423   9.330   2.456  1.5196 -1.1602 -0.5419
  932MOL0     O28486   9.298   9.285   2.499  0.5371 -0.4346 -0.5221
  932MOL0     C28487   9.294   9.197   2.616 -0.1411 -0.2231 -0.0514
  932MOL0     C28488   9.283   9.279   2.736 -0.5917  0.0560 -0.6807
  932MOL0     C28489   9.140   9.339   2.750  1.0845  0.0800 -1.0058
  932MOL0     C28490   9.098   9.408   2.885 -0.1330 -0.2558  0.2790
  932MOL0     C28491   9.205   9.504   2.939 -0.2748 -0.4862  0.3575
  932MOL0     C28492   9.184   9.559   3.085 -0.2021  0.2262 -0.4229
  932MOL0     C28493   9.068   9.655   3.099 -0.8981  0.2495  0.0008
  932MOL0     C28494   9.044   9.710   3.231  0.4987  0.9099  0.0820
  932MOL0     N28495   8.906   9.767   3.233 -0.6974  0.0153  0.2297
  932MOL0     C28496   8.802   9.706   3.290  0.9039 -0.9311 -0.2305
  932MOL0     C28497   8.699   9.789   3.263  0.7556 -0.1884  0.1506
  932MOL0     C28498   8.563   9.787   3.325  0.4639 -0.8735  0.8333
  932MOL0     C28499   8.449   9.763   3.227  0.6249 -0.5572  0.0593
  932MOL0     C28500   8.304   9.820   3.269  0.2167 -0.2983  0.5641
  932MOL0     C28501   8.226   9.727   3.364  0.2985 -0.1870 -0.1032
  932MOL0     O28502   8.120   9.814   3.413 -0.6751  0.1828  0.6279
  932MOL0     C28503   8.088   9.795   3.542 -0.5289  0.5999  0.1603
  932MOL0     C28504   8.093   9.679   3.615  0.6571 -0.1028 -0.4992
  932MOL0     C28505   8.072   9.675   3.750 -1.6472  0.4337 -0.6496
  932MOL0     C28506   8.074   9.533   3.815 -0.4953 -0.2621 -0.4453
  932MOL0     C28507   8.041   9.803   3.816 -0.7861  1.2057 -0.3111
  932MOL0     C28508   7.988   9.815   3.955  0.6839  0.4659 -0.5971
  932MOL0     O28509   7.991   9.936   4.010  0.1907  0.9094 -1.4374
  932MOL0     C28510   7.949   9.976   4.135 -0.6619  0.1659 -0.2220
  932MOL0     C28511   7.889  10.102   4.132 -1.2770 -0.4440 -0.0236
  932MOL0     C28512   7.826  10.160   4.246  0.0174 -0.4646  0.3313
  932MOL0     C28513   7.869  10.119   4.370  0.8381  0.0849  0.4100
  932MOL0     O28514   7.831  10.200   4.471  0.1873 -0.3532 -0.7853
  932MOL0     C28515   7.894  10.190   4.598 -0.0082 -0.2755  0.7399
  932MOL0     C28516   7.823  10.278   4.702  0.0360 -0.8623 -0.1816
  932MOL0     C28517   7.721  10.207   4.811 -0.4626  1.3815 -0.6280
  932MOL0     C28518   7.588  10.197   4.742 -0.6380 -1.0755  0.0893
  932MOL0     C28519   7.488  10.122   4.838 -0.0147 -0.7962 -0.1333
  932MOL0     C28520   7.505   9.972   4.846 -0.4294  0.1198 -0.1858
  932MOL0     C28521   7.494   9.899   4.711  0.4317  0.1928  0.7642
  932MOL0     C28522   7.414   9.765   4.729 -0.0932  0.2101 -0.0686
  932MOL0    Cl28523   7.236   9.793   4.799 -0.2688 -0.7587  0.2508
  932MOL0     C28524   7.936   9.993   4.378 -0.4080 -0.4827  0.1404
  932MOL0     C28525   7.963   9.913   4.261  0.0528  0.0283  0.4819
  932MOL0     O28526   7.936   9.720   4.006  0.2927 -0.0147  0.0807
  932MOL0     C28527   8.053   9.915   3.741 -1.5326 -0.0783 -0.3011
  932MOL0     C28528   8.080   9.909   3.608 -0.0816  0.1961  0.2185
  932MOL0     N28529   8.741   9.889   3.177 -0.6328 -0.6162  0.3425
  932MOL0     N28530   8.864   9.874   3.161 -0.0777  0.6805 -0.4840
  932MOL0     C28531   9.531   9.244   2.447 -0.4217  0.3672  0.0308
  932MOL0     C28532   9.656   9.292   2.411 -0.1843 -0.1577  0.3889
  932MOL0     C28533   9.999   9.431   2.229 -0.4877  0.0559  0.0179
  932MOL0     C28534   9.954   9.431   2.098  0.8613  0.3857 -0.2600
  932MOL0     C28535  10.034   9.473   1.991 -0.1710 -0.0261 -0.2084
  932MOL0     C28536  10.173   9.481   2.016  0.6660 -0.0514  0.4878
  932MOL0     O28537  10.241   9.502   1.902  0.0885 -0.6870 -0.7330
  932MOL0     C28538  10.359   9.576   1.912  0.7731 -0.0797 -0.6434
  932MOL0     C28539  10.374   9.682   1.811  0.4573  0.0684  0.2977
  932MOL0     C28540  10.374   9.617   1.663 -0.3706 -0.0283 -0.0611
  932MOL0     C28541  10.428   9.720   1.564 -0.8236  0.8422  0.3821
  932MOL0     C28542  10.388   9.852   1.585 -0.2328 -0.0534 -0.2684
  932MOL0     C28543  10.349   9.959   1.627 -0.4658  0.5424  0.8585
  932MOL0     C28544  10.226   9.456   2.142 -0.5980 -1.0286  0.4658
  932MOL0     C28545  10.145   9.437   2.249  0.0903  0.0649  0.2393
  932MOL0     C28546  10.225   9.424   2.379  0.4222  0.3991  0.1426
  932MOL0     H28547   9.613   9.617   2.387  0.7008 -1.7011 -5.6303
  932MOL0     H28548   9.354   9.527   2.447  0.1934  1.8031 -2.4427
  932MOL0     H28549   9.386   9.140   2.632  0.3124  0.1728 -1.1645
  932MOL0     H28550   9.209   9.128   2.606 -0.5024  0.5044 -3.2780
  932MOL0     H28551   9.296   9.212   2.822 -3.3321 -1.1765 -1.1236
  932MOL0     H28552   9.347   9.368   2.738 -1.6086  0.8434 -1.6187
  932MOL0     H28553   9.132   9.408   2.665  0.3203  2.8037  1.1429
  932MOL0     H28554   9.059   9.266   2.738  0.8168  0.1692  0.1981
  932MOL0     H28555   8.997   9.448   2.888  0.3695  1.9905 -4.2694
  932MOL0     H28556   9.113   9.335   2.966  1.2659 -1.0223 -0.6310
  932MOL0     H28557   9.223   9.588   2.871  1.7558 -1.5492 -0.5254
  932MOL0     H28558   9.289   9.434   2.945 -0.1403 -0.1768  4.5314
  932MOL0     H28559   9.161   9.474   3.150 -0.9554  0.0796 -0.8640
  932MOL0     H28560   9.279   9.606   3.113  0.8160  0.8528 -4.2848
  932MOL0     H28561   8.978   9.599   3.071  0.8747 -3.2477  0.7779
  932MOL0     H28562   9.089   9.731   3.023 -2.0094 -0.7780 -1.4084
  932MOL0     H28563   9.043   9.625   3.301  3.3995 -0.2130 -1.1063
  932MOL0     H28564   9.123   9.777   3.265 -0.9249  2.4969  0.4002
  932MOL0     H28565   8.815   9.619   3.353 -0.5113 -1.4886 -0.6632
  932MOL0     H28566   8.547   9.890   3.359  1.7236 -0.7985  1.2815
  932MOL0     H28567   8.557   9.721   3.413  0.0374 -0.1533  1.3542
  932MOL0     H28568   8.489   9.815   3.140  3.1410  1.3623  2.2133
  932MOL0     H28569   8.451   9.655   3.209 -1.2092 -0.6532  0.2204
  932MOL0     H28570   8.321   9.919   3.313 -1.2439  0.1206  0.2381
  932MOL0     H28571   8.244   9.832   3.179  0.8423  0.5548  0.2538
  932MOL0     H28572   8.180   9.641   3.315 -0.7955  1.2146 -1.6326
  932MOL0     H28573   8.301   9.693   3.436 -0.4316 -4.5220 -1.0833
  932MOL0     H28574   8.109   9.586   3.562  1.5825  0.5721 -1.4794
  932MOL0     H28575   8.158   9.528   3.884 -1.8614 -2.1133  1.2368
  932MOL0     H28576   8.081   9.443   3.753 -1.0999 -1.6392  1.3823
  932MOL0     H28577   7.979   9.523   3.868 -2.2442 -0.4374 -3.3897
  932MOL0     H28578   7.890  10.159   4.039 -1.4054  2.3260  1.5590
  932MOL0     H28579   7.760  10.242   4.220 -0.9351 -1.7502 -1.5208
  932MOL0     H28580   7.898  10.085   4.629  4.4289 -0.0138  1.5746
  932MOL0     H28581   7.995  10.226   4.578 -0.6885  1.5735  0.4702
  932MOL0     H28582   7.905  10.317   4.762  0.0295  0.7851 -1.1658
  932MOL0     H28583   7.787  10.371   4.655  2.1801 -0.0840 -0.3634
  932MOL0     H28584   7.720  10.259   4.907 -0.1068 -0.8629  0.6494
  932MOL0     H28585   7.754  10.106   4.835  0.4484  1.7421 -0.3190
  932MOL0     H28586   7.602  10.134   4.654  5.1152 -3.6485  2.3561
  932MOL0     H28587   7.553  10.298   4.717 -0.0104 -0.4738  1.5103
  932MOL0     H28588   7.486  10.155   4.943  0.1810 -4.0138  0.9750
  932MOL0     H28589   7.389  10.144   4.798 -1.7647  0.2759  4.1788
  932MOL0     H28590   7.431   9.926   4.912  0.4701 -2.1841 -0.6771
  932MOL0     H28591   7.603   9.956   4.892 -0.8558 -1.0596  0.3423
  932MOL0     H28592   7.592   9.873   4.671  0.5266  2.9463 -1.0845
  932MOL0     H28593   7.443   9.953   4.630  2.6784 -0.5786 -1.2618
  932MOL0     H28594   7.466   9.697   4.796  0.3425  0.7859  0.1855
  932MOL0     H28595   7.408   9.724   4.628  1.7504 -0.7504  0.1767
  932MOL0     H28596   7.973   9.941   4.465 -2.2398 -4.6862 -1.3367
  932MOL0     H28597   8.010   9.815   4.264  1.0576  0.4664 -0.4997
  932MOL0     H28598   8.020  10.015   3.766 -0.0494  0.9403 -2.1005
  932MOL0     H28599   8.091  10.004   3.556  3.3485 -0.5559 -0.7055
  932MOL0     H28600   9.516   9.139   2.470 -2.2040 -0.5645 -4.3693
  932MOL0     H28601   9.728   9.219   2.376  0.9677  1.5664 -1.0487
  932MOL0     H28602   9.849   9.410   2.080  1.3882 -1.7397 -1.1302
  932MOL0     H28603  10.004   9.498   1.890  1.3206  2.3227 -0.1615
  932MOL0     H28604  10.364   9.620   2.012  2.1390 -0.2117 -0.6320
  932MOL0     H28605  10.443   9.506   1.903 -0.2641 -1.9201  2.4732
  932MOL0     H28606  10.468   9.735   1.828  2.5310 -2.8894 -1.1860
  932MOL0     H28607  10.292   9.754   1.817  1.2720  1.0903 -0.3664
  932MOL0     H28608  10.427   9.522   1.658 -1.8655 -0.9513  0.6562
  932MOL0     H28609  10.271   9.598   1.629 -1.0530  2.8854  0.0763
  932MOL0     H28610  10.400   9.686   1.463 -1.7989 -0.2133  0.9842
  932MOL0     H28611  10.537   9.729   1.557 -0.4988 -0.3626  2.7917
  932MOL0     H28612  10.315  10.056   1.660 -2.0332  0.4651 -0.4052
  932MOL0     H28613  10.332   9.472   2.156 -0.2850 -0.2745 -2.3384
  932MOL0     H28614  10.214   9.516   2.436  2.6088  2.1320 -2.0736
  932MOL0     H28615  10.183   9.335   2.427  0.9394  0.0628 -0.0198
  932MOL0     H28616  10.328   9.395   2.357 -0.6918 -2.2592 -2.2914
  933MOL0     O28617   2.065   8.860   8.331  0.5666  0.5512  0.1269
  933MOL0     C28618   2.072   8.793   8.434 -0.0446  0.9583  0.5933
  933MOL0     O28619   2.128   8.833   8.551  0.4050 -0.7429 -0.1359
  933MOL0     C28620   2.166   8.956   8.583 -0.7881 -0.1141  0.4558
  933MOL0     C28621   2.300   8.974   8.634  0.2696 -0.7866  0.5753
  933MOL0     C28622   2.339   9.106   8.670  0.0506  0.0848  0.4757
  933MOL0     C28623   2.253   9.218   8.649 -0.2223  0.4757 -0.3038
  933MOL0     O28624   2.306   9.345   8.670 -0.5663  0.3992  0.5545
  933MOL0     C28625   2.438   9.374   8.718  0.0252  0.0500  0.3104
  933MOL0     C28626   2.424   9.521   8.764 -0.3993 -0.2473 -1.0009
  933MOL0     C28627   2.525   9.537   8.881  0.0162 -0.7362 -0.9733
  933MOL0     C28628   2.533   9.686   8.921  0.2473 -0.2382 -0.2271
  933MOL0     C28629   2.619   9.769   8.822 -0.3952 -0.0384 -0.5595
  933MOL0     C28630   2.673   9.896   8.887  0.2823  0.1287  0.1291
  933MOL0     C28631   2.791   9.884   8.992  1.3939 -0.2484  0.7913
  933MOL0     C28632   2.852  10.020   9.035 -0.1313 -0.1963 -1.3932
  933MOL0     N28633   2.943  10.073   8.937  0.4362 -0.7456 -0.2504
  933MOL0     C28634   2.913  10.166   8.834 -0.0698  0.0875 -0.7658
  933MOL0     C28635   3.033  10.186   8.774 -0.7083 -0.1600  0.3383
  933MOL0     C28636   3.058  10.287   8.664  0.2797 -0.6615  0.5388
  933MOL0     C28637   3.034  10.433   8.695 -0.3736  0.1648  0.2927
  933MOL0     C28638   3.108  10.479   8.816  0.3174 -0.0795 -0.0689
  933MOL0     C28639   3.100  10.627   8.846  0.5016 -0.0154 -0.3394
  933MOL0     O28640   3.155  10.665   8.978 -0.2467 -0.8034  0.5224
  933MOL0     C28641   3.292  10.680   9.010 -0.0443 -0.8329  0.4963
  933MOL0     C28642   3.400  10.664   8.920  0.0813 -0.2389  0.2591
  933MOL0     C28643   3.534  10.700   8.957  0.1143  0.4691  0.5303
  933MOL0     C28644   3.632  10.681   8.848  0.4403 -0.2970  0.5076
  933MOL0     C28645   3.558  10.741   9.089  0.0855 -0.1751  0.5701
  933MOL0     C28646   3.690  10.777   9.138  0.0877  0.7921 -0.5067
  933MOL0     O28647   3.704  10.771   9.276 -1.0377  0.5147 -0.0254
  933MOL0     C28648   3.829  10.783   9.331  0.5042  0.9178 -0.5327
  933MOL0     C28649   3.943  10.725   9.272  0.3200 -0.0155 -0.7791
  933MOL0     C28650   4.064  10.733   9.335 -0.2976 -0.0193 -0.2443
  933MOL0     C28651   4.074  10.800   9.458  0.4304  0.4729 -0.2120
  933MOL0     O28652   4.193  10.810   9.530 -0.8259  0.2979  0.0294
  933MOL0     C28653   4.303  10.720   9.490 -1.1456  0.6978  0.1772
  933MOL0     C28654   4.398  10.727   9.616 -0.3851 -0.2477 -0.0718
  933MOL0     C28655   4.536  10.664   9.593 -0.8658  0.3619  0.1397
  933MOL0     C28656   4.646  10.690   9.697 -0.3057  0.0169 -0.4791
  933MOL0     C28657   4.773  10.622   9.661 -0.0039 -1.3698  0.3841
  933MOL0     C28658   4.905  10.694   9.676 -0.4988 -0.1098  0.8427
  933MOL0     C28659   4.926  10.788   9.562  0.6414 -0.2646  0.5346
  933MOL0     C28660   5.080  10.820   9.539 -0.3483  0.0704 -0.0303
  933MOL0    Cl28661   5.167  10.671   9.470 -0.2144  0.2235  0.0110
  933MOL0     C28662   3.959  10.860   9.512  0.0891 -1.1751 -0.3229
  933MOL0     C28663   3.834  10.850   9.454  0.4595 -0.4675 -0.8320
  933MOL0     O28664   3.777  10.822   9.061 -0.0989 -0.2615 -0.9951
  933MOL0     C28665   3.450  10.755   9.173  0.6714  0.0547 -0.0685
  933MOL0     C28666   3.321  10.731   9.131 -0.4201  0.3695 -0.8215
  933MOL0     N28667   3.129  10.114   8.846 -1.5019 -0.2561  0.2990
  933MOL0     N28668   3.079  10.053   8.950 -0.2101 -0.0966  0.4693
  933MOL0     C28669   2.124   9.195   8.591 -0.3856  0.0084  0.4634
  933MOL0     C28670   2.084   9.067   8.558 -0.3222  0.0149  0.8166
  933MOL0     C28671   2.055   8.645   8.420  0.1277  0.0456 -0.2460
  933MOL0     C28672   2.126   8.569   8.513 -0.2065  0.6097 -0.0877
  933MOL0     C28673   2.125   8.431   8.488 -0.2141 -0.3551  0.0531
  933MOL0     C28674   2.069   8.368   8.377 -0.2240  0.2791 -0.8586
  933MOL0     O28675   2.073   8.233   8.375 -0.2371  1.2853 -1.2139
  933MOL0     C28676   2.031   8.157   8.254 -0.8145 -0.0125  0.1926
  933MOL0     C28677   2.126   8.174   8.129  0.3636  0.2485  0.1330
  933MOL0     C28678   2.255   8.111   8.159  0.6390  0.1977  0.5200
  933MOL0     C28679   2.354   8.091   8.042  0.4098  0.1758 -0.3267
  933MOL0     C28680   2.471   8.011   8.089  0.7138 -1.0368 -0.8796
  933MOL0     C28681   2.575   7.954   8.120  0.0082  0.3177  0.3110
  933MOL0     C28682   1.998   8.448   8.292  0.0642  0.0194 -0.5739
  933MOL0     C28683   1.987   8.587   8.314  0.6198  0.5366  0.4626
  933MOL0     C28684   1.889   8.658   8.221  0.0007 -0.4158  0.9252
  933MOL0     H28685   2.362   8.889   8.660  0.3318 -0.2443  2.3247
  933MOL0     H28686   2.438   9.105   8.714 -0.0920 -1.4102  0.8057
  933MOL0     H28687   2.502   9.364   8.630 -0.9449 -2.4498 -0.2214
  933MOL0     H28688   2.459   9.305   8.801 -3.7347 -0.8193  0.7201
  933MOL0     H28689   2.449   9.584   8.678 -0.5440 -1.4771 -1.9661
  933MOL0     H28690   2.326   9.552   8.800  0.0124  0.8048 -0.7290
  933MOL0     H28691   2.480   9.492   8.970 -0.1803  0.6740 -0.3303
  933MOL0     H28692   2.630   9.507   8.874  0.9596  2.0662 -0.4592
  933MOL0     H28693   2.435   9.726   8.950  0.1894 -2.6005  3.5377
  933MOL0     H28694   2.582   9.679   9.019  0.9246  0.4274 -0.5039
  933MOL0     H28695   2.559   9.790   8.733  1.7535  0.3206 -1.9935
  933MOL0     H28696   2.706   9.711   8.789 -0.5476  0.3011 -1.5801
  933MOL0     H28697   2.709   9.940   8.794  0.5682 -1.8869 -0.7720
  933MOL0     H28698   2.599   9.967   8.924 -0.0368 -0.7767  1.2830
  933MOL0     H28699   2.877   9.826   8.956  2.6382  0.7642  2.0545
  933MOL0     H28700   2.749   9.837   9.082 -0.8420  2.1546  1.1187
  933MOL0     H28701   2.778  10.099   9.051 -1.2050 -1.3415 -0.3949
  933MOL0     H28702   2.908  10.016   9.129 -0.3109 -0.1294 -1.2826
  933MOL0     H28703   2.813  10.202   8.810 -0.2194  0.1564 -0.0464
  933MOL0     H28704   2.978  10.272   8.591  0.8519 -0.8341 -0.0602
  933MOL0     H28705   3.155  10.273   8.615  1.4859  2.3209  1.8370
  933MOL0     H28706   3.062  10.503   8.616  3.1902  2.3623  3.1885
  933MOL0     H28707   2.928  10.448   8.716 -0.8158  0.3996 -1.8685
  933MOL0     H28708   3.066  10.426   8.901 -0.9704 -1.2969 -1.4229
  933MOL0     H28709   3.216  10.465   8.804  0.3025  0.2421 -0.6332
  933MOL0     H28710   3.151  10.694   8.777  1.9203  3.3377  3.5918
  933MOL0     H28711   2.995  10.658   8.849  0.4411 -0.2913  1.1433
  933MOL0     H28712   3.385  10.636   8.816  2.5294  2.2479 -0.8837
  933MOL0     H28713   3.604  10.762   8.780 -0.4467 -1.0843 -0.0993
  933MOL0     H28714   3.613  10.589   8.793  3.0065 -0.2369 -0.6423
  933MOL0     H28715   3.735  10.676   8.886 -0.0159 -1.0327  1.6936
  933MOL0     H28716   3.928  10.668   9.181  0.7036 -1.4566  0.0408
  933MOL0     H28717   4.135  10.686   9.268 -1.4266 -1.9737 -0.1568
  933MOL0     H28718   4.269  10.619   9.467  1.9231 -0.2646 -0.5881
  933MOL0     H28719   4.349  10.769   9.403  0.4766 -1.2944 -0.1519
  933MOL0     H28720   4.405  10.827   9.658  0.3423 -0.8085  1.2057
  933MOL0     H28721   4.353  10.661   9.691  0.7745 -0.1833  0.7071
  933MOL0     H28722   4.585  10.701   9.503 -1.5497 -0.8293 -0.7479
  933MOL0     H28723   4.521  10.558   9.575  0.1199  0.0870  0.8267
  933MOL0     H28724   4.622  10.669   9.802  1.2635  2.9168  0.5796
  933MOL0     H28725   4.656  10.799   9.696 -0.6722  0.0676  0.5942
  933MOL0     H28726   4.778  10.532   9.723  1.1455 -0.7859  1.1710
  933MOL0     H28727   4.773  10.597   9.555  0.1788  2.5492 -0.6990
  933MOL0     H28728   4.985  10.620   9.679  2.2924  2.7203  1.2828
  933MOL0     H28729   4.922  10.760   9.761  3.3612 -0.9289  0.8642
  933MOL0     H28730   4.883  10.886   9.585 -0.1253  0.6444 -3.8937
  933MOL0     H28731   4.876  10.757   9.470  2.5036  2.9309 -1.7800
  933MOL0     H28732   5.130  10.853   9.631 -1.7794  0.8987  0.4879
  933MOL0     H28733   5.087  10.899   9.464  2.0301 -0.5888 -0.5874
  933MOL0     H28734   3.974  10.906   9.609  0.1603 -1.4383 -0.2065
  933MOL0     H28735   3.754  10.898   9.510  3.0417 -0.6417  3.5068
  933MOL0     H28736   3.458  10.789   9.276 -0.4284  0.1260  0.0056
  933MOL0     H28737   3.236  10.757   9.193 -1.7488  0.2449 -2.5024
  933MOL0     H28738   2.071   9.286   8.566  0.3271 -0.0244 -1.2735
  933MOL0     H28739   1.984   9.052   8.519  0.6092 -1.4657 -1.2132
  933MOL0     H28740   2.176   8.613   8.599 -2.4959 -0.4532  1.8969
  933MOL0     H28741   2.180   8.364   8.553 -2.0418 -3.5873 -1.5047
  933MOL0     H28742   2.028   8.052   8.284 -0.0367  0.6904  3.0629
  933MOL0     H28743   1.935   8.177   8.206 -0.4853  0.8695 -0.1330
  933MOL0     H28744   2.145   8.277   8.097  4.0227  0.6282  2.9012
  933MOL0     H28745   2.067   8.121   8.053 -0.0077  0.5671  0.1979
  933MOL0     H28746   2.308   8.169   8.236 -0.1137  1.4316  0.1265
  933MOL0     H28747   2.238   8.011   8.200  0.4135  0.3188  0.7248
  933MOL0     H28748   2.392   8.189   8.010 -0.2323  1.5822  2.8865
  933MOL0     H28749   2.310   8.028   7.964 -1.0518  0.6134  0.1226
  933MOL0     H28750   2.667   7.901   8.135  0.3383  0.9958  0.7410
  933MOL0     H28751   1.941   8.400   8.213  1.5724  0.8226 -2.2169
  933MOL0     H28752   1.818   8.722   8.274  0.5922  1.3998 -0.3779
  933MOL0     H28753   1.952   8.732   8.170  0.4194  0.1556  2.2288
  933MOL0     H28754   1.836   8.592   8.151 -1.7212  2.6839 -0.9140
  934MOL0     O28755   1.385   1.734   0.695 -0.0506 -0.3564  0.3639
  934MOL0     C28756   1.281   1.773   0.646  0.0343  0.1868  0.2080
  934MOL0     O28757   1.256   1.891   0.595 -0.2564 -0.3274  0.1742
  934MOL0     C28758   1.309   2.015   0.640 -0.7000  0.4051  0.2345
  934MOL0     C28759   1.307   2.119   0.545 -1.4583 -0.1492 -0.2992
  934MOL0     C28760   1.373   2.244   0.582  0.5773 -0.5787  0.0129
  934MOL0     C28761   1.425   2.261   0.711 -0.0956  0.0074  0.2880
  934MOL0     O28762   1.486   2.380   0.745 -0.7506  0.3033  0.0264
  934MOL0     C28763   1.436   2.440   0.860 -0.9024 -0.2895  0.1498
  934MOL0     C28764   1.507   2.575   0.885  0.2266 -0.6405 -0.0408
  934MOL0     C28765   1.649   2.556   0.925  0.5479  0.0215 -0.1564
  934MOL0     C28766   1.715   2.705   0.924  0.0833 -0.1735  0.0674
  934MOL0     C28767   1.690   2.780   1.052 -0.3873 -0.6793  1.1621
  934MOL0     C28768   1.762   2.720   1.167 -0.3732  0.0425  0.5456
  934MOL0     C28769   1.696   2.775   1.292 -0.1406 -0.5992 -0.2970
  934MOL0     C28770   1.787   2.772   1.413 -0.2918 -0.3823 -0.6577
  934MOL0     N28771   1.713   2.740   1.543 -0.4006  0.9541  0.1866
  934MOL0     C28772   1.643   2.624   1.577  0.0600 -1.0277  0.0262
  934MOL0     C28773   1.590   2.650   1.702  0.1975  0.1930  0.0767
  934MOL0     C28774   1.500   2.574   1.804  0.1167  0.5978 -0.1508
  934MOL0     C28775   1.385   2.649   1.852 -0.2548  0.1227 -0.7220
  934MOL0     C28776   1.361   2.629   2.002 -1.0712 -0.1556 -0.7012
  934MOL0     C28777   1.252   2.718   2.057  0.9633 -0.5503 -0.9542
  934MOL0     O28778   1.231   2.691   2.193  0.2015 -0.0248 -0.5130
  934MOL0     C28779   1.330   2.708   2.293  1.0538 -0.0288  0.9900
  934MOL0     C28780   1.298   2.646   2.409 -0.2878  0.6766  0.9812
  934MOL0     C28781   1.407   2.629   2.501 -0.0990 -0.7161 -0.0254
  934MOL0     C28782   1.373   2.546   2.615  0.2232 -0.3473 -0.6139
  934MOL0     C28783   1.531   2.703   2.498 -0.1783  0.1435  0.8588
  934MOL0     C28784   1.639   2.695   2.603  0.1586  0.0253  0.0972
  934MOL0     O28785   1.742   2.774   2.567  0.1514  0.0316 -0.5369
  934MOL0     C28786   1.860   2.782   2.651 -0.6489 -0.2370  1.3714
  934MOL0     C28787   1.929   2.903   2.670 -0.7043  0.0184 -0.1185
  934MOL0     C28788   2.045   2.901   2.745  0.0979 -0.9621 -0.4088
  934MOL0     C28789   2.099   2.790   2.806  0.3139  0.0910 -0.4854
  934MOL0     O28790   2.204   2.813   2.888  0.7346 -0.3603 -0.4200
  934MOL0     C28791   2.215   2.934   2.966  0.6688 -0.0776  0.0406
  934MOL0     C28792   2.313   2.943   3.071  0.7896 -0.6650 -0.9778
  934MOL0     C28793   2.452   2.946   3.013 -1.1898  0.5893 -0.0303
  934MOL0     C28794   2.564   2.965   3.115 -0.0998 -0.9106  0.3982
  934MOL0     C28795   2.575   2.848   3.207 -0.8572  0.0560  0.4717
  934MOL0     C28796   2.697   2.852   3.291 -0.0861 -0.3399  0.0210
  934MOL0     C28797   2.701   2.732   3.385 -0.1286 -0.3263 -0.6691
  934MOL0     C28798   2.818   2.729   3.481 -1.0727 -0.5610  0.1148
  934MOL0    Cl28799   2.965   2.689   3.386 -0.3230 -0.6230  0.3907
  934MOL0     C28800   2.029   2.667   2.792  0.7897  0.5666 -0.0409
  934MOL0     C28801   1.911   2.661   2.717 -0.9406 -0.3170  0.3064
  934MOL0     O28802   1.630   2.634   2.704  0.4815 -0.5322  0.5194
  934MOL0     C28803   1.542   2.775   2.381 -0.7619 -0.0258 -0.3568
  934MOL0     C28804   1.448   2.782   2.276  0.7194 -0.3244 -0.4465
  934MOL0     N28805   1.643   2.778   1.739  0.0243 -0.1648  0.1298
  934MOL0     N28806   1.709   2.829   1.641  0.1467  0.6746 -0.2987
  934MOL0     C28807   1.433   2.162   0.808  1.1873  0.1628 -0.5743
  934MOL0     C28808   1.367   2.039   0.770  0.2312 -0.0678 -0.3702
  934MOL0     C28809   1.178   1.681   0.653  0.0850  1.2916 -0.2478
  934MOL0     C28810   1.128   1.624   0.535 -0.7061  0.6146 -0.1762
  934MOL0     C28811   1.034   1.518   0.546  0.1052 -0.1526  0.2791
  934MOL0     C28812   0.991   1.472   0.667  0.8763 -0.3308 -0.8187
  934MOL0     O28813   0.912   1.363   0.665 -0.8503 -0.5219  0.2331
  934MOL0     C28814   0.862   1.324   0.790  0.4513 -0.2954  0.2470
  934MOL0     C28815   0.725   1.265   0.766 -0.4168  0.3318 -0.4502
  934MOL0     C28816   0.629   1.348   0.667  0.7592 -0.0573 -0.2988
  934MOL0     C28817   0.611   1.498   0.704 -0.3604 -0.6256  1.3741
  934MOL0     C28818   0.560   1.502   0.838 -0.2096 -0.3621 -0.7656
  934MOL0     C28819   0.505   1.509   0.949 -0.3472  0.3486  0.5809
  934MOL0     C28820   1.034   1.531   0.785 -0.3786  0.2422  0.1930
  934MOL0     C28821   1.129   1.633   0.778 -0.7176  0.0087 -0.3781
  934MOL0     C28822   1.170   1.679   0.915  0.5249 -0.0438 -0.7875
  934MOL0     H28823   1.259   2.108   0.448  0.1052  2.0666 -1.4015
  934MOL0     H28824   1.362   2.325   0.511  1.0273 -1.9892 -1.7466
  934MOL0     H28825   1.467   2.378   0.945  0.9281 -1.7482 -1.4811
  934MOL0     H28826   1.328   2.448   0.853 -0.9273 -1.5147 -1.5187
  934MOL0     H28827   1.493   2.644   0.801  0.5355  0.3683  0.7279
  934MOL0     H28828   1.462   2.615   0.976  0.5408 -1.3550  0.4416
  934MOL0     H28829   1.662   2.499   1.018  0.0785 -3.3336 -1.9663
  934MOL0     H28830   1.698   2.496   0.847  2.8145 -1.5227  2.2825
  934MOL0     H28831   1.824   2.701   0.916  0.0945  0.2235 -0.0149
  934MOL0     H28832   1.690   2.761   0.833  3.1914  2.6423  0.7256
  934MOL0     H28833   1.582   2.789   1.067 -0.4106  1.9840 -0.0635
  934MOL0     H28834   1.720   2.884   1.036  0.3074 -1.1198 -0.5872
  934MOL0     H28835   1.752   2.611   1.165 -6.7890  0.1704  2.0575
  934MOL0     H28836   1.868   2.737   1.150 -0.2418 -2.7169 -2.2412
  934MOL0     H28837   1.615   2.705   1.313 -0.3069 -0.2913  0.1139
  934MOL0     H28838   1.668   2.879   1.275  1.5494  0.1011  0.9419
  934MOL0     H28839   1.852   2.686   1.395  0.4364  0.2421 -1.0824
  934MOL0     H28840   1.828   2.872   1.433 -4.9877  2.1405 -1.9843
  934MOL0     H28841   1.626   2.544   1.506 -2.4816  0.4311 -1.1774
  934MOL0     H28842   1.571   2.550   1.884 -1.1080 -3.2988 -0.0036
  934MOL0     H28843   1.463   2.479   1.765  0.1395 -0.0168  1.2537
  934MOL0     H28844   1.382   2.755   1.826  0.1162 -0.0014 -1.2806
  934MOL0     H28845   1.298   2.594   1.814 -0.9332 -1.2727  2.5242
  934MOL0     H28846   1.350   2.521   2.009  3.1604 -0.6914  0.2801
  934MOL0     H28847   1.452   2.661   2.053 -0.6689 -5.2762  2.5129
  934MOL0     H28848   1.275   2.825   2.047  3.3308 -0.6643  2.0756
  934MOL0     H28849   1.162   2.697   1.997  0.6957 -0.9907 -0.4025
  934MOL0     H28850   1.203   2.595   2.425 -2.0463  2.4862 -2.5264
  934MOL0     H28851   1.275   2.500   2.597 -1.3452  3.8089 -4.5388
  934MOL0     H28852   1.375   2.608   2.705 -2.4208  0.8072 -1.2532
  934MOL0     H28853   1.450   2.467   2.620 -1.0164 -1.5954 -0.6213
  934MOL0     H28854   1.887   2.998   2.638 -0.8982  0.4709  1.3823
  934MOL0     H28855   2.104   2.992   2.744  2.4440 -2.3192 -4.0210
  934MOL0     H28856   2.237   3.018   2.899  0.1488  1.1938  1.4065
  934MOL0     H28857   2.120   2.948   3.018  1.1546  1.2534  0.6220
  934MOL0     H28858   2.306   3.040   3.121 -1.7569  0.3226 -2.9821
  934MOL0     H28859   2.303   2.865   3.148 -0.6883  0.1008 -0.3480
  934MOL0     H28860   2.460   3.028   2.941 -1.9826  1.4698  0.8624
  934MOL0     H28861   2.482   2.851   2.966  2.5543  0.2379  2.6052
  934MOL0     H28862   2.535   3.059   3.163  1.8355  0.3670 -0.7793
  934MOL0     H28863   2.660   2.994   3.071 -0.2883  0.2456  0.7019
  934MOL0     H28864   2.487   2.849   3.273  0.7268  0.9578  2.6956
  934MOL0     H28865   2.575   2.758   3.144 -1.4077 -0.3084  0.9768
  934MOL0     H28866   2.705   2.951   3.337 -0.0974 -2.0063  3.9543
  934MOL0     H28867   2.779   2.832   3.222  0.4684  1.7491  0.0113
  934MOL0     H28868   2.682   2.638   3.333 -1.5324  0.6496 -2.0124
  934MOL0     H28869   2.618   2.747   3.454  0.5441 -1.9145  0.5481
  934MOL0     H28870   2.802   2.650   3.554 -0.5366 -1.7042 -0.9614
  934MOL0     H28871   2.854   2.821   3.529  0.8764 -0.8201 -0.7487
  934MOL0     H28872   2.067   2.580   2.844 -1.7016 -0.9728 -0.6383
  934MOL0     H28873   1.847   2.573   2.721  0.2811 -1.3743 -1.6553
  934MOL0     H28874   1.637   2.825   2.364  0.3957 -2.1805 -0.6333
  934MOL0     H28875   1.467   2.833   2.182 -1.6010 -0.7509 -1.2212
  934MOL0     H28876   1.479   2.182   0.904 -2.0330  0.3621  1.0612
  934MOL0     H28877   1.348   1.961   0.843  1.8959 -2.0173 -1.9036
  934MOL0     H28878   1.159   1.658   0.437  0.8023 -1.4719 -0.4901
  934MOL0     H28879   0.989   1.468   0.462  1.3572  0.5922 -0.8713
  934MOL0     H28880   0.930   1.247   0.827  1.2014 -0.9335 -2.2099
  934MOL0     H28881   0.841   1.397   0.869  1.1287 -0.3240  0.4621
  934MOL0     H28882   0.686   1.235   0.863  1.4815 -2.0096 -0.3275
  934MOL0     H28883   0.746   1.174   0.709 -2.1188  0.9067 -2.1439
  934MOL0     H28884   0.667   1.334   0.566 -1.2781  3.1374 -1.6714
  934MOL0     H28885   0.529   1.304   0.678  0.2099  1.1782 -0.2277
  934MOL0     H28886   0.539   1.543   0.635 -0.8501 -2.3902  0.6923
  934MOL0     H28887   0.700   1.561   0.696 -1.1614  0.3087 -0.9684
  934MOL0     H28888   0.454   1.507   1.043 -2.4394  0.1889 -0.5011
  934MOL0     H28889   1.002   1.493   0.881 -1.3092 -1.2344 -0.6788
  934MOL0     H28890   1.274   1.649   0.927  0.9226  2.2410  3.5122
  934MOL0     H28891   1.152   1.787   0.915  0.8780  0.0219  0.1024
  934MOL0     H28892   1.106   1.635   0.993  0.8067  0.3279 -0.3386
  935MOL0     O28893   3.758   5.940   9.807 -0.1546 -0.8158 -0.1784
  935MOL0     C28894   3.844   5.971   9.716  0.0934 -0.1236 -0.4095
  935MOL0     O28895   3.926   6.079   9.728  0.2589  0.4189  0.1423
  935MOL0     C28896   3.911   6.160   9.843 -0.6243  0.0014 -0.0321
  935MOL0     C28897   3.788   6.200   9.901 -0.1628  0.1942  0.4901
  935MOL0     C28898   3.770   6.261  10.019 -1.1464  0.0503 -1.2578
  935MOL0     C28899   3.882   6.302  10.094 -0.0398 -0.1360 -0.6514
  935MOL0     O28900   3.865   6.386  10.202  0.0999  0.0277 -0.1890
  935MOL0     C28901   3.752   6.382  10.296 -0.2248  0.3054 -0.5132
  935MOL0     C28902   3.753   6.477  10.409 -0.6884  0.4169  0.2700
  935MOL0     C28903   3.772   6.616  10.353 -0.1439  0.3735 -0.0145
  935MOL0     C28904   3.747   6.716  10.467 -0.2578 -0.0827 -0.0571
  935MOL0     C28905   3.773   6.862  10.414 -0.4981  0.2246 -0.5140
  935MOL0     C28906   3.707   6.967  10.500  1.1085  0.3519 -1.0155
  935MOL0     C28907   3.705   7.114  10.445 -0.0797 -0.2603  0.3982
  935MOL0     C28908   3.842   7.180  10.433 -1.0290 -0.2874 -0.1411
  935MOL0     N28909   3.913   7.181  10.561  0.3393  0.4423  0.1172
  935MOL0     C28910   4.048   7.144  10.586  0.3333 -0.5019  0.7377
  935MOL0     C28911   4.072   7.197  10.707  0.1448 -0.6636  0.2197
  935MOL0     C28912   4.193   7.190  10.775 -0.3612  0.6279 -0.3675
  935MOL0     C28913   4.248   7.043  10.795 -1.0002  0.1373  0.2589
  935MOL0     C28914   4.352   7.006  10.682 -0.3994  1.1295 -0.5889
  935MOL0     C28915   4.415   6.870  10.722  0.2747  0.0613  0.3889
  935MOL0     O28916   4.530   6.904  10.791  0.2300  0.3358  0.2643
  935MOL0     C28917   4.629   6.819  10.796  0.6704  0.2740 -0.3254
  935MOL0     C28918   4.751   6.858  10.857  0.3365 -0.8090  0.0637
  935MOL0     C28919   4.862   6.775  10.860 -0.3955  0.3357 -0.4447
  935MOL0     C28920   4.968   6.841  10.942 -0.4004 -0.2356 -0.2755
  935MOL0     C28921   4.856   6.644  10.812 -0.3274  0.3713 -0.7701
  935MOL0     C28922   4.965   6.552  10.802  0.3751  1.1543  0.1822
  935MOL0     O28923   4.928   6.417  10.771 -0.8376 -0.6373  0.4806
  935MOL0     C28924   5.021   6.321  10.724 -0.2103  1.1159  0.1971
  935MOL0     C28925   4.994   6.184  10.762 -0.5959 -0.3275  0.6889
  935MOL0     C28926   5.076   6.074  10.723  0.5523 -0.1082 -0.2293
  935MOL0     C28927   5.190   6.096  10.643 -0.4846 -0.1614 -0.4921
  935MOL0     O28928   5.243   5.979  10.590  0.5726 -0.1664 -0.4845
  935MOL0     C28929   5.329   5.998  10.480 -0.8282 -0.2719  0.0060
  935MOL0     C28930   5.389   5.861  10.447 -0.0731 -0.7284 -0.1560
  935MOL0     C28931   5.274   5.753  10.435 -0.3693 -0.4563  0.1088
  935MOL0     C28932   5.332   5.617  10.389 -0.0970  1.0610  0.5246
  935MOL0     C28933   5.227   5.506  10.393  0.8713 -0.4460 -0.4089
  935MOL0     C28934   5.287   5.368  10.383  0.8320 -0.5297  0.1098
  935MOL0     C28935   5.167   5.263  10.377 -0.1694  0.1703 -0.0289
  935MOL0     C28936   5.237   5.123  10.361  0.2532 -0.5357 -0.1717
  935MOL0    Cl28937   5.130   4.996  10.425 -0.1018 -0.0309  0.2439
  935MOL0     C28938   5.226   6.226  10.601 -0.2640  0.0121 -0.4297
  935MOL0     C28939   5.137   6.336  10.634  0.6625  0.4191  0.5315
  935MOL0     O28940   5.076   6.598  10.812  0.1787  0.1437  0.5151
  935MOL0     C28941   4.739   6.618  10.744 -0.1343  1.2562  0.1929
  935MOL0     C28942   4.626   6.697  10.728  0.6727  0.1771  1.0812
  935MOL0     N28943   3.959   7.276  10.740 -0.0972 -0.3136  1.2672
  935MOL0     N28944   3.859   7.258  10.659  0.1172  0.8095 -0.0133
  935MOL0     C28945   4.007   6.268  10.039  0.2898  0.2790 -0.6011
  935MOL0     C28946   4.029   6.195   9.921 -0.8022 -0.0976 -0.0252
  935MOL0     C28947   3.865   5.871   9.612  0.4416  0.8021 -0.4622
  935MOL0     C28948   3.777   5.766   9.603 -0.0094  0.9256 -0.4563
  935MOL0     C28949   3.787   5.669   9.498  0.3748 -0.1939 -0.0394
  935MOL0     C28950   3.875   5.676   9.386 -0.3309 -1.1556 -0.8041
  935MOL0     O28951   3.869   5.577   9.295  0.3328 -1.0332  0.3731
  935MOL0     C28952   3.961   5.586   9.180 -0.4151  0.9089  0.1729
  935MOL0     C28953   3.933   5.467   9.084 -0.1841 -0.7418 -0.2167
  935MOL0     C28954   3.783   5.455   9.043  0.0132  0.7195 -0.3232
  935MOL0     C28955   3.745   5.344   8.943 -0.2889  0.6059  0.3409
  935MOL0     C28956   3.827   5.370   8.819  0.2653  1.3674  0.2262
  935MOL0     C28957   3.879   5.401   8.716  0.7139 -0.5442  0.7805
  935MOL0     C28958   3.967   5.775   9.404 -0.1892  0.0197 -0.8677
  935MOL0     C28959   3.966   5.878   9.507 -0.4651 -0.0712 -0.4197
  935MOL0     C28960   4.070   5.991   9.505  0.4939 -0.0160  0.0440
  935MOL0     H28961   3.696   6.170   9.852  0.8503 -4.0661  0.8372
  935MOL0     H28962   3.674   6.279  10.066  1.2080 -0.9177  4.6754
  935MOL0     H28963   3.743   6.284  10.344  0.3639  0.6200  0.2603
  935MOL0     H28964   3.656   6.391  10.244  0.7928  1.2721 -2.3307
  935MOL0     H28965   3.665   6.463  10.473 -2.2606  1.1679 -1.6375
  935MOL0     H28966   3.839   6.448  10.470 -0.9289 -2.1762 -0.4918
  935MOL0     H28967   3.878   6.626  10.329  0.5331  3.6392  3.4436
  935MOL0     H28968   3.708   6.638  10.267  2.6024  3.8412 -1.3905
  935MOL0     H28969   3.642   6.698  10.491 -1.3195 -0.6996 -4.2415
  935MOL0     H28970   3.814   6.692  10.550  0.5086 -3.7849 -1.5297
  935MOL0     H28971   3.740   6.885  10.313 -1.8923  3.1028  0.4743
  935MOL0     H28972   3.880   6.883  10.406 -0.0262 -1.9106 -0.4580
  935MOL0     H28973   3.605   6.929  10.513  1.8326 -1.8212 -1.2589
  935MOL0     H28974   3.759   6.978  10.595 -1.7560  0.4514  0.6578
  935MOL0     H28975   3.637   7.183  10.497 -3.6360 -1.9493 -1.6641
  935MOL0     H28976   3.668   7.113  10.342 -0.6042  1.9488  0.5147
  935MOL0     H28977   3.903   7.122  10.364 -0.5292  1.7208 -1.4812
  935MOL0     H28978   3.817   7.281  10.399  0.5854 -0.1990 -1.1611
  935MOL0     H28979   4.097   7.075  10.519 -2.8394  0.2512 -2.6699
  935MOL0     H28980   4.188   7.240  10.873  0.0930  3.5232 -1.7013
  935MOL0     H28981   4.265   7.248  10.717  0.5005 -0.5278 -0.4836
  935MOL0     H28982   4.301   7.045  10.891  2.2458 -2.6838 -1.2537
  935MOL0     H28983   4.168   6.969  10.800 -0.7097 -0.1761  0.4035
  935MOL0     H28984   4.284   6.998  10.596 -0.5249  3.4033 -0.7700
  935MOL0     H28985   4.429   7.081  10.664 -3.5016  3.9661 -3.7849
  935MOL0     H28986   4.341   6.812  10.778 -0.2886  0.3525 -0.0559
  935MOL0     H28987   4.434   6.829  10.622  0.4364  1.8173 -0.3253
  935MOL0     H28988   4.745   6.945  10.921  2.4239 -1.2936  0.9911
  935MOL0     H28989   4.945   6.941  10.978 -2.1203  0.0500 -1.9557
  935MOL0     H28990   5.065   6.842  10.891  0.9898 -2.3557  2.0949
  935MOL0     H28991   4.974   6.772  11.026  1.3443 -0.5082 -0.5927
  935MOL0     H28992   4.907   6.182  10.827 -2.4596  1.3266 -1.6164
  935MOL0     H28993   5.058   5.970  10.746 -1.7116  0.3542  0.2781
  935MOL0     H28994   5.273   6.041  10.396  0.9071  0.0334 -1.0385
  935MOL0     H28995   5.410   6.066  10.508 -2.6331  1.7478  0.6436
  935MOL0     H28996   5.445   5.871  10.354 -0.9142  0.9201 -0.5295
  935MOL0     H28997   5.462   5.834  10.525  0.1634  0.1644 -0.0555
  935MOL0     H28998   5.195   5.792  10.369  1.2862  2.2128 -0.4149
  935MOL0     H28999   5.233   5.749  10.536 -0.2658  2.2060  0.3206
  935MOL0     H29000   5.416   5.599  10.456 -2.1413 -2.8672  2.3480
  935MOL0     H29001   5.362   5.635  10.285 -1.8577  0.0742 -0.2025
  935MOL0     H29002   5.170   5.509  10.486  2.1428 -0.6398  0.4011
  935MOL0     H29003   5.155   5.528  10.314  2.1903  0.9977 -1.2512
  935MOL0     H29004   5.336   5.368  10.481 -0.0020  3.1998  0.6554
  935MOL0     H29005   5.354   5.350  10.299  0.0757  0.1611 -0.6573
  935MOL0     H29006   5.100   5.279  10.292  0.5967 -1.5424 -1.0152
  935MOL0     H29007   5.104   5.275  10.465 -1.0338 -2.5165 -0.1866
  935MOL0     H29008   5.331   5.120  10.417  0.0027  2.5767  0.5426
  935MOL0     H29009   5.270   5.114  10.257  2.2399  3.1118 -0.0175
  935MOL0     H29010   5.299   6.248  10.524 -0.4172 -0.4092 -0.7000
  935MOL0     H29011   5.144   6.429  10.578  0.1508 -0.0448 -0.3129
  935MOL0     H29012   4.716   6.521  10.703  1.8499  1.3128 -1.1587
  935MOL0     H29013   4.542   6.659  10.672 -0.1602 -0.8217  2.9189
  935MOL0     H29014   4.090   6.293  10.105  0.3326  1.0923 -0.9456
  935MOL0     H29015   4.126   6.156   9.892 -2.2855 -1.9838 -3.0347
  935MOL0     H29016   3.713   5.751   9.689 -0.1946 -0.0483 -0.7493
  935MOL0     H29017   3.714   5.590   9.481 -0.4936  1.1406 -3.1557
  935MOL0     H29018   3.942   5.678   9.123  4.5431  2.3253  0.3302
  935MOL0     H29019   4.068   5.574   9.201 -0.9995 -1.5606  2.2150
  935MOL0     H29020   3.960   5.376   9.138  1.9094  1.0382  1.9724
  935MOL0     H29021   3.994   5.479   8.994 -0.0097  0.8878  0.0861
  935MOL0     H29022   3.717   5.444   9.130 -1.7878  3.8659 -1.1392
  935MOL0     H29023   3.756   5.549   8.993 -2.2629 -0.4067 -1.3531
  935MOL0     H29024   3.639   5.354   8.922 -0.3045 -0.0925  0.0946
  935MOL0     H29025   3.776   5.249   8.988 -1.1137 -0.0372 -0.4219
  935MOL0     H29026   3.939   5.392   8.628 -0.7560  1.1602 -0.4871
  935MOL0     H29027   4.050   5.787   9.336  1.4647  0.5042  1.1485
  935MOL0     H29028   4.127   5.980   9.597  2.2628 -1.3759 -1.1397
  935MOL0     H29029   4.155   5.973   9.439 -0.9927 -0.1793 -1.9265
  935MOL0     H29030   4.033   6.094   9.499  2.1195  0.5968  0.0572
  936MOL0     O29031   1.037   5.852   6.255 -0.3295 -0.8265  0.0253
  936MOL0     C29032   1.004   5.773   6.166  0.0167 -0.8884 -0.2656
  936MOL0     O29033   1.040   5.778   6.038 -0.0423 -0.1232 -0.4366
  936MOL0     C29034   1.124   5.878   6.001  0.4815  0.4492  0.5904
  936MOL0     C29035   1.260   5.858   5.997  0.2187  0.2732 -0.8197
  936MOL0     C29036   1.349   5.945   5.934  0.3555  0.0810  0.4408
  936MOL0     C29037   1.296   6.066   5.891 -0.1254 -0.7530 -0.6322
  936MOL0     O29038   1.369   6.159   5.825 -0.2300  0.0948 -0.3421
  936MOL0     C29039   1.413   6.279   5.896  0.7977 -0.0199  0.1191
  936MOL0     C29040   1.499   6.368   5.802  0.8205 -0.4367  0.2627
  936MOL0     C29041   1.418   6.405   5.673 -0.2495 -0.7624 -0.1819
  936MOL0     C29042   1.478   6.497   5.568  0.3035 -0.8826  0.5007
  936MOL0     C29043   1.607   6.431   5.510  0.1917  0.8924  0.6084
  936MOL0     C29044   1.656   6.509   5.390 -0.7504 -0.5890 -0.1724
  936MOL0     C29045   1.778   6.437   5.313 -0.1852  0.5294  0.8467
  936MOL0     C29046   1.928   6.482   5.342  0.7298  0.0843 -0.8294
  936MOL0     N29047   1.954   6.446   5.481  0.6879  0.0364 -0.0860
  936MOL0     C29048   1.991   6.320   5.511 -1.7060 -0.9702 -0.0404
  936MOL0     C29049   1.996   6.315   5.647 -1.1509 -0.0952  0.1923
  936MOL0     C29050   2.060   6.200   5.717 -0.4503 -0.7967 -0.4876
  936MOL0     C29051   2.135   6.234   5.844  0.1525  0.4722  0.9214
  936MOL0     C29052   2.254   6.323   5.813 -0.1081 -0.4715 -0.4582
  936MOL0     C29053   2.312   6.369   5.944  0.3180 -0.3439  0.3551
  936MOL0     O29054   2.399   6.479   5.927  0.0015  0.2968  0.2361
  936MOL0     C29055   2.399   6.563   6.032  0.8674  0.6465  0.3535
  936MOL0     C29056   2.349   6.690   6.009 -0.6499  0.2906  0.1977
  936MOL0     C29057   2.324   6.775   6.118  0.1910  0.3045 -0.1460
  936MOL0     C29058   2.249   6.905   6.084 -0.0775 -0.0266 -1.0452
  936MOL0     C29059   2.366   6.730   6.247  1.1152 -0.4219  0.2996
  936MOL0     C29060   2.346   6.794   6.374  0.5706 -0.1440  0.1622
  936MOL0     O29061   2.427   6.757   6.481  0.6738 -0.2601  0.9503
  936MOL0     C29062   2.384   6.771   6.607  0.0514  0.2137 -0.3662
  936MOL0     C29063   2.476   6.821   6.700 -0.2754  0.0069 -0.5693
  936MOL0     C29064   2.437   6.843   6.833 -0.2190  0.1964 -0.2641
  936MOL0     C29065   2.303   6.829   6.878  0.4814 -0.2354  0.1999
  936MOL0     O29066   2.249   6.828   7.002 -0.9015  0.6923 -0.1423
  936MOL0     C29067   2.332   6.872   7.114  0.3615  0.5398 -0.8195
  936MOL0     C29068   2.255   6.857   7.238  0.1871 -0.4116  0.1469
  936MOL0     C29069   2.257   6.713   7.296  0.9353  0.1545 -0.2052
  936MOL0     C29070   2.120   6.667   7.338 -0.2887  1.3588  0.0509
  936MOL0     C29071   2.129   6.558   7.443 -0.0210  0.2892  0.5329
  936MOL0     C29072   1.996   6.491   7.473  0.0627  0.3869  0.4974
  936MOL0     C29073   2.019   6.402   7.602  0.4566 -0.3578 -0.9275
  936MOL0     C29074   1.922   6.283   7.614 -0.2092  0.6332  0.5352
  936MOL0    Cl29075   1.955   6.151   7.487 -0.1930  0.0875  0.0678
  936MOL0     C29076   2.208   6.801   6.773  0.3266 -0.0970  2.1844
  936MOL0     C29077   2.247   6.766   6.649  0.0607  0.1798 -0.2048
  936MOL0     O29078   2.281   6.894   6.374 -0.7500 -0.4214  0.2102
  936MOL0     C29079   2.436   6.611   6.255 -0.2540  0.3307  0.3037
  936MOL0     C29080   2.455   6.529   6.148  0.0828 -0.8174 -0.5182
  936MOL0     N29081   1.965   6.442   5.697 -0.1494 -0.0222 -0.0987
  936MOL0     N29082   1.930   6.520   5.595  0.4232 -0.6026  0.3591
  936MOL0     C29083   1.160   6.089   5.899 -0.0732  0.2028  0.0642
  936MOL0     C29084   1.075   5.993   5.961 -0.6078 -0.4652  0.0480
  936MOL0     C29085   0.941   5.643   6.200 -0.6665  0.0112 -0.3110
  936MOL0     C29086   0.834   5.619   6.120  0.2200  0.0553  0.2674
  936MOL0     C29087   0.772   5.490   6.126 -0.2257  1.0132  0.0897
  936MOL0     C29088   0.810   5.399   6.220 -0.2576  0.4940 -0.1822
  936MOL0     O29089   0.748   5.279   6.231  0.1554  0.7058  0.3731
  936MOL0     C29090   0.677   5.277   6.353  0.5090 -0.2346 -0.2337
  936MOL0     C29091   0.611   5.143   6.371 -0.3206  0.2067  0.3532
  936MOL0     C29092   0.722   5.041   6.391 -1.0833 -0.5664 -0.2261
  936MOL0     C29093   0.802   5.066   6.516  0.2951  0.0225 -0.4498
  936MOL0     C29094   0.720   5.078   6.638 -0.6893  0.1187  0.2970
  936MOL0     C29095   0.652   5.086   6.745 -1.0706 -0.5297  0.1512
  936MOL0     C29096   0.921   5.425   6.296  0.0230  0.4422 -0.2281
  936MOL0     C29097   0.995   5.551   6.285  0.0798  0.4493 -0.2720
  936MOL0     C29098   1.132   5.568   6.359  0.6644 -0.1946 -0.1251
  936MOL0     H29099   1.291   5.758   6.027 -0.9782 -0.0061 -0.4778
  936MOL0     H29100   1.456   5.929   5.927  0.0531 -1.3202 -2.1162
  936MOL0     H29101   1.473   6.252   5.983 -0.0488 -0.9514  0.4272
  936MOL0     H29102   1.337   6.354   5.923 -0.7719 -0.9366 -1.5403
  936MOL0     H29103   1.523   6.458   5.860 -2.1847  0.9087 -0.3508
  936MOL0     H29104   1.588   6.313   5.771  0.8272  0.4569 -1.4338
  936MOL0     H29105   1.402   6.310   5.621  0.6580 -0.9662 -0.0935
  936MOL0     H29106   1.325   6.456   5.703  0.1119  0.7995 -1.5771
  936MOL0     H29107   1.408   6.531   5.491  0.7610 -0.1950  0.3764
  936MOL0     H29108   1.501   6.595   5.609 -1.1504  0.3710 -1.5044
  936MOL0     H29109   1.589   6.328   5.480  2.5842  0.3211  0.9440
  936MOL0     H29110   1.697   6.426   5.572 -0.9052  1.2969  2.3393
  936MOL0     H29111   1.568   6.507   5.326  0.2578 -0.6532 -1.6032
  936MOL0     H29112   1.695   6.607   5.418  1.6339 -0.9617 -1.8973
  936MOL0     H29113   1.774   6.466   5.208  0.6575  2.7275  1.3687
  936MOL0     H29114   1.772   6.328   5.317 -0.1154  0.4482 -0.7548
  936MOL0     H29115   2.007   6.440   5.279  0.1388 -2.8732  0.2341
  936MOL0     H29116   1.926   6.591   5.334 -0.7504  0.1716  0.1833
  936MOL0     H29117   2.012   6.248   5.433 -1.7590 -0.5784 -0.4224
  936MOL0     H29118   2.133   6.146   5.656  0.0734 -0.8251  0.1629
  936MOL0     H29119   1.982   6.127   5.743  1.1151 -2.6391 -0.7693
  936MOL0     H29120   2.059   6.266   5.915 -1.9866 -2.2199  0.0356
  936MOL0     H29121   2.173   6.138   5.881  0.7624 -0.0062 -0.8146
  936MOL0     H29122   2.336   6.268   5.767 -1.1634 -3.0659  0.5781
  936MOL0     H29123   2.220   6.405   5.748 -3.7438 -0.0795  1.6224
  936MOL0     H29124   2.230   6.398   6.010  2.3914 -1.7681  3.8461
  936MOL0     H29125   2.353   6.285   6.001 -1.8506 -0.4844  1.8464
  936MOL0     H29126   2.314   6.706   5.907 -0.1376 -0.2094 -0.0602
  936MOL0     H29127   2.145   6.903   6.120  0.6288 -0.8384  1.1401
  936MOL0     H29128   2.247   6.931   5.978 -0.3777 -0.1810 -1.0801
  936MOL0     H29129   2.305   6.993   6.117 -1.5507  0.2976  0.7855
  936MOL0     H29130   2.580   6.823   6.668  0.3949 -0.9911  1.3308
  936MOL0     H29131   2.513   6.865   6.908 -0.4406  1.5201 -0.3887
  936MOL0     H29132   2.419   6.806   7.121 -0.7369 -1.2618 -3.0002
  936MOL0     H29133   2.365   6.976   7.115  1.2667  0.3288  1.8832
  936MOL0     H29134   2.304   6.926   7.307 -0.1831 -0.5399  0.5414
  936MOL0     H29135   2.161   6.901   7.205  0.4327 -1.5770 -2.3273
  936MOL0     H29136   2.312   6.728   7.390  2.0623  0.1714 -0.8461
  936MOL0     H29137   2.311   6.637   7.238  0.1135 -0.5351 -0.0922
  936MOL0     H29138   2.057   6.632   7.255 -1.8763 -0.2915  1.8658
  936MOL0     H29139   2.074   6.758   7.377  0.1522  2.4835 -1.8931
  936MOL0     H29140   2.203   6.487   7.405 -0.8061 -2.4530  3.6663
  936MOL0     H29141   2.167   6.608   7.533 -0.8676  1.6569  0.1725
  936MOL0     H29142   1.953   6.435   7.390 -0.0951  0.8358  0.2731
  936MOL0     H29143   1.914   6.560   7.496  0.1780  0.2424  1.3602
  936MOL0     H29144   2.004   6.471   7.686  1.7424 -0.7971 -0.3001
  936MOL0     H29145   2.119   6.357   7.608 -0.3702 -2.2670 -0.8291
  936MOL0     H29146   1.815   6.305   7.611 -0.7675 -1.8960 -2.4603
  936MOL0     H29147   1.939   6.231   7.709  1.5761  0.3206  0.0785
  936MOL0     H29148   2.101   6.806   6.790 -0.2648 -0.6783 -0.8175
  936MOL0     H29149   2.168   6.754   6.576 -0.2165  0.1704  0.0988
  936MOL0     H29150   2.453   6.555   6.346 -0.1037  0.5418  0.4038
  936MOL0     H29151   2.489   6.429   6.173  2.0783  0.2043  1.1259
  936MOL0     H29152   1.110   6.183   5.879 -1.8015 -0.3671  1.4514
  936MOL0     H29153   0.968   6.007   5.960 -0.6391 -0.6541 -1.2234
  936MOL0     H29154   0.802   5.689   6.044 -2.7208 -2.0613 -0.6222
  936MOL0     H29155   0.692   5.467   6.056 -1.1498 -3.9889  2.3073
  936MOL0     H29156   0.740   5.302   6.439 -0.0459  0.2705  0.0331
  936MOL0     H29157   0.599   5.354   6.359  1.0541  0.2313  1.2510
  936MOL0     H29158   0.545   5.115   6.288  1.9473  0.3512 -1.6458
  936MOL0     H29159   0.540   5.146   6.454 -1.1557 -2.3211 -0.1788
  936MOL0     H29160   0.676   4.942   6.391  0.9659 -1.7003 -3.6249
  936MOL0     H29161   0.797   5.030   6.312 -0.4256 -1.1412  0.4563
  936MOL0     H29162   0.872   5.147   6.494 -0.2380  1.9974  4.0443
  936MOL0     H29163   0.858   4.972   6.521 -1.1258 -1.0310 -2.8036
  936MOL0     H29164   0.594   5.106   6.833 -0.9285  1.3538 -0.1408
  936MOL0     H29165   0.942   5.340   6.361 -3.1474  0.5147  1.0544
  936MOL0     H29166   1.134   5.651   6.429 -0.3070 -0.0891 -0.2084
  936MOL0     H29167   1.169   5.489   6.425 -0.2060 -0.8835 -0.4437
  936MOL0     H29168   1.209   5.595   6.286 -0.6890 -0.8437 -1.8756
  937MOL0     O29169   4.266   1.456   6.593  0.2420  0.0318 -0.6399
  937MOL0     C29170   4.165   1.445   6.652  0.1520 -0.0916 -0.1201
  937MOL0     O29171   4.115   1.534   6.737 -0.8762  0.1002 -0.0259
  937MOL0     C29172   4.199   1.620   6.800 -0.0143 -0.0137 -0.6649
  937MOL0     C29173   4.212   1.758   6.775  0.8290  0.0965  0.2493
  937MOL0     C29174   4.278   1.845   6.864  0.0441 -1.0823  0.0241
  937MOL0     C29175   4.345   1.785   6.977 -0.8518  0.4687 -0.5564
  937MOL0     O29176   4.415   1.859   7.075  0.4807 -0.6061 -0.5887
  937MOL0     C29177   4.406   2.001   7.080  0.8869 -0.5900 -1.1889
  937MOL0     C29178   4.419   2.060   7.224  0.4182  0.1750  0.6789
  937MOL0     C29179   4.302   2.030   7.311  0.6390  0.0657  0.4058
  937MOL0     C29180   4.347   2.042   7.458  0.6016  0.4117 -0.0804
  937MOL0     C29181   4.224   2.014   7.551 -0.4796 -0.2865  0.2893
  937MOL0     C29182   4.261   2.035   7.693  0.1041 -0.6489 -1.1924
  937MOL0     C29183   4.158   1.991   7.793  0.2844 -0.2394  0.5902
  937MOL0     C29184   4.019   2.052   7.772 -0.4226  0.8181 -0.9293
  937MOL0     N29185   3.932   2.026   7.888 -0.3133 -0.5388  0.2491
  937MOL0     C29186   3.858   2.125   7.952 -0.1191  0.0042 -0.3522
  937MOL0     C29187   3.760   2.048   8.014  0.4910 -0.0026  0.5675
  937MOL0     C29188   3.643   2.107   8.074 -0.4403  0.2131 -0.6311
  937MOL0     C29189   3.668   2.122   8.230  0.6759 -0.6448  0.1961
  937MOL0     C29190   3.548   2.175   8.319 -0.7446  0.0090  0.0112
  937MOL0     C29191   3.547   2.328   8.305  0.2042  0.8228 -0.7574
  937MOL0     O29192   3.633   2.406   8.394  0.5925  0.5544 -0.4712
  937MOL0     C29193   3.646   2.356   8.526  0.2492  0.3059  0.6072
  937MOL0     C29194   3.531   2.325   8.612  0.4538 -1.0245  0.1506
  937MOL0     C29195   3.553   2.279   8.745 -0.3581 -0.1774  0.3050
  937MOL0     C29196   3.443   2.273   8.844  0.5657  0.0038 -0.1505
  937MOL0     C29197   3.693   2.257   8.779 -0.0201  0.1917 -0.0812
  937MOL0     C29198   3.737   2.192   8.908  0.5422  0.3905 -0.2015
  937MOL0     O29199   3.859   2.142   8.910  0.7555 -0.3189  0.3941
  937MOL0     C29200   3.890   2.066   9.021  0.5839 -0.6155  0.3706
  937MOL0     C29201   3.952   2.124   9.130  0.9432  0.6850  0.0713
  937MOL0     C29202   3.967   2.056   9.253 -0.6573  1.3362 -0.3890
  937MOL0     C29203   3.928   1.915   9.259  0.5534 -1.0746 -0.5503
  937MOL0     O29204   3.963   1.855   9.383  0.6362 -0.2129 -0.5029
  937MOL0     C29205   3.969   1.710   9.393 -0.3485 -0.2118 -0.2419
  937MOL0     C29206   4.005   1.677   9.535  0.2663  0.0913 -0.3670
  937MOL0     C29207   3.879   1.659   9.619 -0.3847  0.1694  0.6973
  937MOL0     C29208   3.925   1.616   9.764 -0.1418  0.0148  0.0196
  937MOL0     C29209   3.812   1.611   9.862 -0.8315 -0.2287 -0.2966
  937MOL0     C29210   3.696   1.529   9.821  0.0510 -0.6376  0.3681
  937MOL0     C29211   3.570   1.528   9.912  0.3664  0.1367  0.1619
  937MOL0     C29212   3.472   1.423   9.867 -0.7491  0.0613  0.6149
  937MOL0    Cl29213   3.410   1.483   9.712  0.1728 -0.2538  0.2246
  937MOL0     C29214   3.878   1.858   9.150  0.3250  0.9104  0.1298
  937MOL0     C29215   3.849   1.931   9.032  0.3074  0.8315 -0.5924
  937MOL0     O29216   3.658   2.189   9.007 -0.0989  0.2918  0.2010
  937MOL0     C29217   3.799   2.282   8.693 -0.3809  0.5025  0.2042
  937MOL0     C29218   3.771   2.328   8.564 -0.1911 -0.4194 -0.2138
  937MOL0     N29219   3.777   1.914   7.993 -0.2852 -0.1962  0.1459
  937MOL0     N29220   3.873   1.904   7.914  0.0220  0.3792 -0.9046
  937MOL0     C29221   4.349   1.641   6.980 -0.1509 -0.8074 -0.8826
  937MOL0     C29222   4.286   1.561   6.889 -0.7786 -0.1268  0.1979
  937MOL0     C29223   4.085   1.320   6.635 -0.1238  0.1082 -0.3597
  937MOL0     C29224   3.962   1.313   6.705  1.1311 -0.5387  0.2665
  937MOL0     C29225   3.873   1.211   6.680 -0.4370  1.2793  0.6032
  937MOL0     C29226   3.910   1.105   6.597 -0.2072 -0.1909 -0.8034
  937MOL0     O29227   3.826   1.005   6.568  0.3559 -0.4307 -0.6945
  937MOL0     C29228   3.747   1.038   6.462 -0.2135  0.5133  0.6890
  937MOL0     C29229   3.605   1.050   6.494 -0.2380 -0.4707 -0.5571
  937MOL0     C29230   3.552   0.904   6.528 -0.3937  0.6362 -0.5502
  937MOL0     C29231   3.404   0.914   6.566 -0.3827 -0.5244  0.2742
  937MOL0     C29232   3.393   0.971   6.706 -0.6851 -0.0560  0.6160
  937MOL0     C29233   3.367   1.024   6.809 -0.4505  0.0483  0.0828
  937MOL0     C29234   4.041   1.102   6.533 -0.1791 -0.3018  0.5926
  937MOL0     C29235   4.128   1.206   6.558 -0.2289  0.0179 -0.0277
  937MOL0     C29236   4.257   1.195   6.479 -0.2172  0.1282  0.0619
  937MOL0     H29237   4.178   1.791   6.677  1.5275  2.1065  0.6382
  937MOL0     H29238   4.286   1.946   6.824 -0.9913 -1.2636 -0.6494
  937MOL0     H29239   4.308   2.033   7.043  0.5495  1.5772  1.2148
  937MOL0     H29240   4.483   2.037   7.012  2.2038 -4.8954 -2.2800
  937MOL0     H29241   4.494   2.001   7.277  1.2321 -1.2602 -1.8662
  937MOL0     H29242   4.427   2.168   7.208  0.4884  0.2755  1.3733
  937MOL0     H29243   4.231   2.112   7.298 -0.4179 -0.5007  2.2347
  937MOL0     H29244   4.254   1.933   7.292  2.3308 -0.8836  0.7306
  937MOL0     H29245   4.432   1.976   7.474 -0.6036 -0.9689  0.8774
  937MOL0     H29246   4.369   2.146   7.484 -1.8752  0.5338  1.9008
  937MOL0     H29247   4.189   1.914   7.526  1.3846 -0.8168 -0.3734
  937MOL0     H29248   4.152   2.092   7.522  0.3453 -0.0096 -1.0961
  937MOL0     H29249   4.356   1.982   7.706 -0.6758 -2.3697 -2.1723
  937MOL0     H29250   4.279   2.141   7.713  0.6773 -0.9749  0.1457
  937MOL0     H29251   4.180   2.016   7.897  0.9189  6.9338 -0.7689
  937MOL0     H29252   4.156   1.882   7.784  0.2228 -0.2051  0.1389
  937MOL0     H29253   4.053   2.156   7.774  2.2303  0.0211  1.5139
  937MOL0     H29254   3.961   2.026   7.683 -3.0647  0.3850  0.8082
  937MOL0     H29255   3.856   2.232   7.969  0.4155 -0.0805  0.3032
  937MOL0     H29256   3.563   2.040   8.042  0.1460 -1.0603  0.4318
  937MOL0     H29257   3.619   2.204   8.031  1.2233  0.1220 -1.8712
  937MOL0     H29258   3.689   2.024   8.273 -1.7432 -0.6290  1.6409
  937MOL0     H29259   3.753   2.190   8.239  0.9084  0.0300 -4.4915
  937MOL0     H29260   3.457   2.126   8.284 -0.7742 -0.9641  1.3862
  937MOL0     H29261   3.556   2.146   8.424 -1.0522  0.7877  0.2643
  937MOL0     H29262   3.592   2.357   8.210  0.4167  0.4862 -0.7627
  937MOL0     H29263   3.439   2.346   8.313 -0.2620 -2.2125  3.0205
  937MOL0     H29264   3.429   2.347   8.583  0.1151  1.3023  2.6793
  937MOL0     H29265   3.347   2.293   8.797  0.7889  0.0786 -0.5760
  937MOL0     H29266   3.480   2.344   8.919 -0.5580  0.2823  0.1531
  937MOL0     H29267   3.431   2.169   8.876  1.9619 -0.5197 -1.2055
  937MOL0     H29268   3.982   2.227   9.118 -3.2412  1.9465 -1.4879
  937MOL0     H29269   4.026   2.092   9.337 -2.2952  0.8605  1.0320
  937MOL0     H29270   3.873   1.660   9.383 -0.7254  0.1251  1.4443
  937MOL0     H29271   4.047   1.683   9.321  0.6639  3.7434 -0.8900
  937MOL0     H29272   4.060   1.582   9.534 -1.9400 -1.3200  1.2904
  937MOL0     H29273   4.071   1.754   9.577 -2.2703  1.9055  0.5538
  937MOL0     H29274   3.825   1.571   9.582  2.7089 -2.2440  1.5399
  937MOL0     H29275   3.815   1.748   9.620 -0.0560  0.4078  1.0239
  937MOL0     H29276   4.010   1.682   9.784  1.8100 -1.6959 -2.0564
  937MOL0     H29277   3.977   1.521   9.743  3.1549  1.5977  0.3563
  937MOL0     H29278   3.850   1.566   9.954 -1.2664 -0.5298 -0.2613
  937MOL0     H29279   3.766   1.709   9.883 -1.7939 -1.3698  3.9181
  937MOL0     H29280   3.740   1.430   9.802 -0.9944 -0.6195 -2.8841
  937MOL0     H29281   3.662   1.558   9.721  2.3468  0.7580 -0.0745
  937MOL0     H29282   3.524   1.627   9.906 -0.1419  0.0468  1.8845
  937MOL0     H29283   3.593   1.498  10.015 -3.2797  1.5074  1.5408
  937MOL0     H29284   3.394   1.392   9.937  0.4345 -0.9841  1.5175
  937MOL0     H29285   3.515   1.333   9.820 -3.4502 -0.1068 -1.8691
  937MOL0     H29286   3.838   1.757   9.145  2.7848 -0.1207 -0.2588
  937MOL0     H29287   3.803   1.883   8.947 -0.4343 -1.1061  0.8319
  937MOL0     H29288   3.903   2.265   8.721  0.0856  0.6861 -1.2909
  937MOL0     H29289   3.844   2.344   8.485 -0.9417 -1.0223 -1.0554
  937MOL0     H29290   4.403   1.589   7.059 -1.1317  0.3795  0.6198
  937MOL0     H29291   4.295   1.453   6.892 -0.0363 -0.1182 -1.0477
  937MOL0     H29292   3.915   1.392   6.763  1.5932  1.5024 -1.9886
  937MOL0     H29293   3.771   1.215   6.718 -0.7416  3.9416 -0.2698
  937MOL0     H29294   3.784   1.126   6.409 -1.5931  0.8308  0.2023
  937MOL0     H29295   3.737   0.956   6.390 -0.6624  1.5848 -0.5036
  937MOL0     H29296   3.554   1.094   6.408 -0.5606  1.2726  0.4556
  937MOL0     H29297   3.596   1.121   6.578 -0.5736  0.5980 -1.4680
  937MOL0     H29298   3.566   0.847   6.436 -1.3309 -1.8044  0.7476
  937MOL0     H29299   3.606   0.843   6.601 -1.4905 -2.5990 -2.2430
  937MOL0     H29300   3.362   0.814   6.565 -1.6145 -0.0251  0.5363
  937MOL0     H29301   3.343   0.958   6.487  0.1157  0.3438  0.3576
  937MOL0     H29302   3.327   1.081   6.891 -3.1548 -0.6565 -0.6392
  937MOL0     H29303   4.075   1.023   6.466 -0.9445  0.0531 -0.2440
  937MOL0     H29304   4.281   1.092   6.451  1.2245  0.2772  0.6844
  937MOL0     H29305   4.247   1.262   6.393  1.0123  2.5201  1.6796
  937MOL0     H29306   4.342   1.242   6.529  0.3657  1.8618 -2.3791
  938MOL0     O29307   0.491  10.041   0.823 -0.8026 -0.1803 -0.0928
  938MOL0     C29308   0.470  10.063   0.942  0.7727 -0.6522  0.3722
  938MOL0     O29309   0.514  10.171   1.011 -0.9315  0.0935 -0.1827
  938MOL0     C29310   0.620  10.232   0.942  0.7146 -0.5481  0.5318
  938MOL0     C29311   0.616  10.356   0.878  0.9959 -0.4928 -0.1402
  938MOL0     C29312   0.730  10.419   0.819 -0.8436  0.7888 -1.1909
  938MOL0     C29313   0.851  10.355   0.846  0.2333 -0.7465 -0.8925
  938MOL0     O29314   0.962  10.425   0.798 -0.6492 -0.2735 -0.3076
  938MOL0     C29315   1.068  10.436   0.896 -0.4241 -0.3112  0.2321
  938MOL0     C29316   1.200  10.439   0.818  0.2216 -0.3088 -0.9950
  938MOL0     C29317   1.309  10.528   0.866 -0.1425  0.2488  0.2797
  938MOL0     C29318   1.443  10.539   0.787  0.8415 -0.3685 -0.0563
  938MOL0     C29319   1.543  10.633   0.845 -0.3546 -0.2324 -0.8511
  938MOL0     C29320   1.671  10.690   0.779 -0.3711 -0.0224 -0.3232
  938MOL0     C29321   1.779  10.577   0.777 -0.4367  0.3579 -0.3190
  938MOL0     C29322   1.915  10.628   0.711  0.8704 -0.3144 -0.4952
  938MOL0     N29323   2.015  10.530   0.706 -0.2079  0.6460 -0.5574
  938MOL0     C29324   2.080  10.491   0.594 -0.3967 -0.4677 -0.2797
  938MOL0     C29325   2.165  10.398   0.631  0.8321 -0.7205 -0.4528
  938MOL0     C29326   2.272  10.326   0.552  0.8829 -0.3577  0.8875
  938MOL0     C29327   2.401  10.383   0.591  0.3995 -0.5652  0.0938
  938MOL0     C29328   2.432  10.500   0.493  0.0291  0.0044 -0.0460
  938MOL0     C29329   2.589  10.521   0.472  0.9584  0.3257  1.0209
  938MOL0     O29330   2.651  10.502   0.597 -0.4612 -0.2648  0.0345
  938MOL0     C29331   2.780  10.525   0.602  0.1671  0.0201 -0.3472
  938MOL0     C29332   2.857  10.568   0.487 -0.3401 -0.5564  0.7356
  938MOL0     C29333   2.994  10.613   0.504 -0.0546 -0.5540  0.2668
  938MOL0     C29334   3.061  10.638   0.369  1.0509 -0.4293 -0.0777
  938MOL0     C29335   3.063  10.611   0.622  1.2947  0.7002 -0.5873
  938MOL0     C29336   3.206  10.649   0.643  0.0499  0.0510 -0.2853
  938MOL0     O29337   3.243  10.754   0.733 -0.3387  0.1201 -1.8253
  938MOL0     C29338   3.376  10.776   0.766  0.2594  0.4876 -0.0554
  938MOL0     C29339   3.460  10.677   0.811  0.3185  0.3914  0.4342
  938MOL0     C29340   3.588  10.709   0.864  0.0074 -0.8805  0.6002
  938MOL0     C29341   3.634  10.835   0.854  0.0987 -0.3005  1.0418
  938MOL0     O29342   3.752  10.867   0.898  0.7212  0.0229 -0.9009
  938MOL0     C29343   3.852  10.791   0.830  0.5795  0.6153 -0.8107
  938MOL0     C29344   3.979  10.858   0.865 -0.4740 -0.5865  0.4010
  938MOL0     C29345   4.093  10.845   0.761  0.3474  0.2285 -0.0198
  938MOL0     C29346   4.223  10.895   0.828  0.1678 -0.0900  0.6744
  938MOL0     C29347   4.339  10.877   0.723  0.6025 -0.3618  0.2805
  938MOL0     C29348   4.478  10.933   0.779  0.2686  0.7972 -0.1690
  938MOL0     C29349   4.590  10.934   0.687 -0.2398 -0.8080  0.6065
  938MOL0     C29350   4.724  10.932   0.750 -1.3814 -0.8743  0.8521
  938MOL0    Cl29351   4.744  11.047   0.885 -0.4590  0.0881  0.2112
  938MOL0     C29352   3.547  10.937   0.813 -1.1369  0.4605 -0.0665
  938MOL0     C29353   3.419  10.905   0.777  0.1837 -0.7422  0.4093
  938MOL0     O29354   3.288  10.576   0.587  0.3253  0.0441 -0.8849
  938MOL0     C29355   2.984  10.563   0.733 -0.0820  0.2162  0.1161
  938MOL0     C29356   2.854  10.527   0.720  0.8896  0.2007 -0.5112
  938MOL0     N29357   2.138  10.372   0.768 -0.0728 -0.1906  0.6575
  938MOL0     N29358   2.048  10.454   0.812 -0.1819  0.9741  0.3370
  938MOL0     C29359   0.860  10.225   0.908  0.6058  0.8966 -0.7770
  938MOL0     C29360   0.740  10.161   0.946  0.0098 -0.5125 -0.2244
  938MOL0     C29361   0.365   9.978   1.017 -0.9796 -1.1755 -0.7277
  938MOL0     C29362   0.325  10.017   1.151 -0.4616  0.6955 -0.1771
  938MOL0     C29363   0.237   9.949   1.232  1.3103  0.0986 -0.5438
  938MOL0     C29364   0.169   9.837   1.178 -0.1940  0.5028  0.0317
  938MOL0     O29365   0.091   9.765   1.273  0.5218 -0.2603 -0.0038
  938MOL0     C29366   0.125   9.627   1.296 -0.2568 -0.3705  0.3171
  938MOL0     C29367   0.005   9.541   1.340 -0.4963 -0.3204  0.0189
  938MOL0     C29368   0.058   9.407   1.409 -0.1620  0.0200 -1.2717
  938MOL0     C29369   0.064   9.302   1.294  0.4182 -0.5478 -0.6805
  938MOL0     C29370   0.146   9.181   1.338 -0.1456  0.1923 -0.0849
  938MOL0     C29371   0.193   9.086   1.396 -0.2945  0.5425  0.4803
  938MOL0     C29372   0.216   9.790   1.050 -0.6898 -0.0812 -0.3499
  938MOL0     C29373   0.312   9.860   0.972 -0.1121  0.2274  0.2011
  938MOL0     C29374   0.356   9.787   0.854  0.6437 -0.2911  0.5908
  938MOL0     H29375   0.522  10.410   0.877  1.4962  0.4029 -0.3177
  938MOL0     H29376   0.731  10.514   0.768 -0.2546  1.3770 -0.1194
  938MOL0     H29377   1.062  10.354   0.968  0.1357 -0.8333 -0.3007
  938MOL0     H29378   1.047  10.531   0.945 -3.8173 -0.1645 -1.1897
  938MOL0     H29379   1.231  10.334   0.818 -0.4351 -0.5284  0.5065
  938MOL0     H29380   1.180  10.473   0.716 -1.3711 -0.6440 -0.8289
  938MOL0     H29381   1.268  10.629   0.878 -0.8717  0.1869 -1.4865
  938MOL0     H29382   1.344  10.500   0.966  1.0650  1.0696  0.1179
  938MOL0     H29383   1.480  10.438   0.768 -0.1017 -0.7440  0.0556
  938MOL0     H29384   1.413  10.585   0.692 -0.9383  2.4249  1.7318
  938MOL0     H29385   1.579  10.585   0.936  0.9212  1.1057 -0.6139
  938MOL0     H29386   1.504  10.722   0.894  2.9740  0.6654  0.4392
  938MOL0     H29387   1.664  10.726   0.676  1.7927  0.7207 -0.2672
  938MOL0     H29388   1.696  10.772   0.846  1.5244  0.2392 -1.2750
  938MOL0     H29389   1.737  10.492   0.723  3.0920  0.1950 -3.2267
  938MOL0     H29390   1.790  10.538   0.878  0.3258  4.7245  1.4905
  938MOL0     H29391   1.894  10.654   0.607  1.1133 -0.4278 -0.5727
  938MOL0     H29392   1.941  10.721   0.764  0.9954 -0.1427 -0.8515
  938MOL0     H29393   2.069  10.525   0.492 -0.1959 -1.7933 -0.7657
  938MOL0     H29394   2.249  10.347   0.447 -3.4164  3.8882  2.2669
  938MOL0     H29395   2.265  10.219   0.574  2.1783 -0.0096  3.2243
  938MOL0     H29396   2.406  10.420   0.693 -3.9560  3.5927 -0.8721
  938MOL0     H29397   2.471  10.301   0.572 -0.2560 -1.8861  2.8714
  938MOL0     H29398   2.391  10.491   0.392  0.0232 -0.2691 -0.0198
  938MOL0     H29399   2.395  10.595   0.534  0.1194  0.5968 -1.2976
  938MOL0     H29400   2.626  10.460   0.389 -0.3174  0.2849  0.4617
  938MOL0     H29401   2.591  10.628   0.448 -1.2336 -0.0308 -1.1827
  938MOL0     H29402   2.826  10.566   0.383 -2.7960 -0.0911  1.4006
  938MOL0     H29403   3.119  10.553   0.331  2.8711  2.1150 -3.5733
  938MOL0     H29404   3.134  10.719   0.382  3.8928 -2.5516 -1.6635
  938MOL0     H29405   2.982  10.667   0.300 -0.4407 -0.2385  1.6366
  938MOL0     H29406   3.417  10.577   0.803  0.4167  0.3617  0.2845
  938MOL0     H29407   3.650  10.628   0.901 -1.1797 -1.0257  2.3703
  938MOL0     H29408   3.856  10.683   0.846 -2.1723  0.2216 -2.2269
  938MOL0     H29409   3.834  10.800   0.723  1.7197 -1.3508 -1.2242
  938MOL0     H29410   3.955  10.964   0.861 -1.3492 -0.8115 -2.0511
  938MOL0     H29411   4.004  10.848   0.971  0.2411  4.5095  0.9468
  938MOL0     H29412   4.076  10.898   0.667  1.3651  1.1927  0.3203
  938MOL0     H29413   4.106  10.739   0.738  0.5032  0.5285 -1.3969
  938MOL0     H29414   4.236  10.829   0.914  0.7893 -1.7710 -0.6545
  938MOL0     H29415   4.221  10.996   0.869 -0.6251 -0.3758  1.3630
  938MOL0     H29416   4.334  10.774   0.688  0.8916 -0.1770 -0.3066
  938MOL0     H29417   4.323  10.925   0.626  0.0093 -3.2648 -1.1518
  938MOL0     H29418   4.509  10.857   0.851  0.7601  0.3168 -0.8779
  938MOL0     H29419   4.464  11.029   0.830 -0.3372 -1.1888  3.7505
  938MOL0     H29420   4.579  11.026   0.630  1.5653 -1.5220 -1.0143
  938MOL0     H29421   4.586  10.846   0.622 -0.3962  0.9355 -1.8899
  938MOL0     H29422   4.805  10.948   0.678  0.0415 -0.2006  2.5105
  938MOL0     H29423   4.733  10.830   0.788  2.6552 -1.3435 -0.8255
  938MOL0     H29424   3.592  11.034   0.833  0.8064 -0.5372  0.7001
  938MOL0     H29425   3.344  10.982   0.764 -0.5842 -1.6001 -0.3401
  938MOL0     H29426   3.037  10.557   0.828  1.3992 -1.1494 -0.7538
  938MOL0     H29427   2.790  10.518   0.806 -0.9768 -0.8001 -1.9332
  938MOL0     H29428   0.955  10.172   0.905  0.4150  0.5821 -1.2883
  938MOL0     H29429   0.736  10.062   0.992  1.1894  0.4291  2.0518
  938MOL0     H29430   0.367  10.103   1.201 -1.2378  0.0064  1.7249
  938MOL0     H29431   0.224   9.991   1.331  1.3897 -0.7339 -0.1659
  938MOL0     H29432   0.165   9.587   1.202  0.8668  3.8481 -1.2137
  938MOL0     H29433   0.210   9.627   1.365 -1.5784 -0.0255  1.9803
  938MOL0     H29434  -0.070   9.532   1.261 -1.3698 -0.9826  0.8948
  938MOL0     H29435  -0.045   9.601   1.416 -0.0872  0.6836 -0.4928
  938MOL0     H29436   0.153   9.427   1.459 -0.3245  0.3107 -1.0773
  938MOL0     H29437  -0.015   9.368   1.481  0.5558 -1.6540 -1.4125
  938MOL0     H29438   0.122   9.331   1.205  1.6743  1.8302  0.8218
  938MOL0     H29439  -0.031   9.253   1.271 -1.3379  1.3433  1.9111
  938MOL0     H29440   0.221   9.003   1.458  0.5801  1.6990  1.6953
  938MOL0     H29441   0.186   9.691   1.017  2.3839 -1.7357  1.3748
  938MOL0     H29442   0.456   9.752   0.883  1.1002  0.8444  0.4362
  938MOL0     H29443   0.294   9.702   0.827  1.2246  0.1362 -2.3867
  938MOL0     H29444   0.364   9.857   0.770 -0.0412 -1.5880 -0.5822
  939MOL0     O29445   7.095   6.680   8.991  0.5247  0.8603  0.4642
  939MOL0     C29446   7.185   6.636   8.915 -0.0971  0.1647 -0.3393
  939MOL0     O29447   7.308   6.587   8.959 -0.1607  0.6148  0.0627
  939MOL0     C29448   7.290   6.537   9.087 -0.8363 -0.6840  0.6936
  939MOL0     C29449   7.213   6.430   9.109  0.2349 -0.3538 -0.4479
  939MOL0     C29450   7.204   6.371   9.236  0.2298 -0.7706  0.6569
  939MOL0     C29451   7.278   6.421   9.347  0.9790 -0.9539 -0.0157
  939MOL0     O29452   7.267   6.364   9.472  0.5677 -0.4822 -0.7148
  939MOL0     C29453   7.188   6.237   9.489  0.4087  0.4685 -0.7515
  939MOL0     C29454   7.191   6.170   9.629 -0.1199 -0.6369  0.2039
  939MOL0     C29455   7.195   6.018   9.630 -1.0377 -1.0076 -0.1619
  939MOL0     C29456   7.312   5.976   9.717 -1.0377  0.6545  0.6448
  939MOL0     C29457   7.281   5.986   9.864 -0.8817 -0.2386 -0.0938
  939MOL0     C29458   7.155   5.907   9.923  0.0335 -1.1220  0.2754
  939MOL0     C29459   7.135   5.761   9.909 -0.5445  0.4553 -0.2137
  939MOL0     C29460   7.239   5.671   9.993  1.3259 -0.6946  1.6809
  939MOL0     N29461   7.179   5.535   9.994 -0.1719  0.1425 -0.1036
  939MOL0     C29462   7.109   5.486  10.102 -0.5818  0.0244  0.2451
  939MOL0     C29463   7.112   5.356  10.087  0.2786  0.0000  0.3084
  939MOL0     C29464   7.068   5.245  10.186 -0.2952 -0.1331 -0.4251
  939MOL0     C29465   7.016   5.117  10.129  0.9767  0.3981 -0.6980
  939MOL0     C29466   6.950   5.026  10.234 -0.1658  0.3505  0.2651
  939MOL0     C29467   7.039   4.903  10.256  0.2061  0.3595 -0.9892
  939MOL0     O29468   6.961   4.806  10.330  0.0718 -0.7438  0.9391
  939MOL0     C29469   6.988   4.778  10.458  0.0678  0.0867 -0.4686
  939MOL0     C29470   7.120   4.741  10.492  0.6668  0.3017 -0.5745
  939MOL0     C29471   7.146   4.687  10.625  0.8820 -0.3504  1.1023
  939MOL0     C29472   7.280   4.612  10.642 -0.0959 -0.3890  0.1143
  939MOL0     C29473   7.048   4.680  10.726 -0.5350 -0.6053 -0.3440
  939MOL0     C29474   7.080   4.643  10.874 -0.7167 -0.4310 -0.2124
  939MOL0     O29475   7.196   4.578  10.899 -0.0653 -0.6452  0.1303
  939MOL0     C29476   7.248   4.534  11.016 -0.6811 -0.1533 -0.0365
  939MOL0     C29477   7.167   4.528  11.139  0.2993 -0.1294  0.2623
  939MOL0     C29478   7.222   4.480  11.251  1.0471  0.4030  0.4565
  939MOL0     C29479   7.359   4.441  11.258 -0.1871 -0.0472 -0.2073
  939MOL0     O29480   7.426   4.387  11.371  0.0834 -0.0781 -0.4153
  939MOL0     C29481   7.369   4.404  11.499 -0.7920  0.9358  0.6870
  939MOL0     C29482   7.469   4.346  11.607 -0.2250  0.0971 -0.9159
  939MOL0     C29483   7.412   4.367  11.744 -0.8996  0.2164 -0.5344
  939MOL0     C29484   7.520   4.322  11.844  0.1246  1.0020  0.0985
  939MOL0     C29485   7.475   4.361  11.980  0.6339 -0.4984  0.0845
  939MOL0     C29486   7.583   4.358  12.087 -0.0084 -0.4137  0.1829
  939MOL0     C29487   7.512   4.357  12.228  0.9441  0.2829 -0.4558
  939MOL0     C29488   7.612   4.337  12.337 -0.0710 -0.3611 -0.1789
  939MOL0    Cl29489   7.707   4.488  12.355  0.2487 -0.4124  0.2708
  939MOL0     C29490   7.434   4.443  11.140  0.5716  0.1563 -0.1893
  939MOL0     C29491   7.384   4.498  11.020  0.4915 -1.1033 -0.7655
  939MOL0     O29492   7.007   4.688  10.961  0.3375  0.4710 -0.0915
  939MOL0     C29493   6.919   4.712  10.684  0.8753 -0.1822  0.3429
  939MOL0     C29494   6.891   4.755  10.558  0.6929  0.5826 -0.2570
  939MOL0     N29495   7.172   5.328   9.969  0.1772 -0.3042  0.6866
  939MOL0     N29496   7.215   5.433   9.908  0.4592 -0.3727  0.0372
  939MOL0     C29497   7.367   6.529   9.319 -0.1851 -0.0177 -0.1903
  939MOL0     C29498   7.374   6.574   9.189 -0.9983  0.2598  0.3032
  939MOL0     C29499   7.179   6.635   8.768  0.7219  0.3273 -0.4318
  939MOL0     C29500   7.292   6.619   8.693 -0.9126 -1.0759  0.8833
  939MOL0     C29501   7.290   6.632   8.550 -0.5202  0.4192  0.8202
  939MOL0     C29502   7.173   6.642   8.477 -0.9101 -0.1629  0.0887
  939MOL0     O29503   7.168   6.621   8.345  1.0088 -0.4778  0.0630
  939MOL0     C29504   7.056   6.533   8.300 -0.4690 -1.2301  0.2703
  939MOL0     C29505   7.121   6.420   8.225 -0.4935 -0.6812 -0.2137
  939MOL0     C29506   7.041   6.291   8.246  0.2900 -0.3212  0.2739
  939MOL0     C29507   7.089   6.174   8.155 -0.6030 -0.1022  0.4994
  939MOL0     C29508   7.067   6.186   8.016  1.2165 -0.5335  0.5233
  939MOL0     C29509   7.033   6.204   7.904 -0.0680 -0.8977 -0.4961
  939MOL0     C29510   7.068   6.659   8.561  0.8408  0.5541  0.7502
  939MOL0     C29511   7.065   6.665   8.696  0.0821  0.3873  0.1970
  939MOL0     C29512   6.933   6.693   8.757  0.3115  0.4338  0.1884
  939MOL0     H29513   7.147   6.388   9.033  1.4222 -0.4892 -1.4179
  939MOL0     H29514   7.130   6.292   9.230 -1.0306  0.4291 -0.3000
  939MOL0     H29515   7.221   6.164   9.414 -1.1667 -2.2019  1.0306
  939MOL0     H29516   7.081   6.248   9.471  0.3303 -0.6401 -1.0026
  939MOL0     H29517   7.276   6.218   9.677 -0.7632  1.5807 -0.7670
  939MOL0     H29518   7.095   6.206   9.669  0.4615  1.0546  0.1332
  939MOL0     H29519   7.105   5.972   9.674 -1.3248 -0.4768 -0.1837
  939MOL0     H29520   7.206   5.992   9.525 -1.8759  0.5157 -0.6641
  939MOL0     H29521   7.340   5.872   9.699  0.8160  1.2938 -0.3782
  939MOL0     H29522   7.400   6.036   9.697 -0.1168  0.5221  3.7593
  939MOL0     H29523   7.275   6.093   9.887 -0.5134 -0.4327  1.0127
  939MOL0     H29524   7.371   5.953   9.918  0.8417  2.6067 -1.0426
  939MOL0     H29525   7.137   5.936  10.027 -0.4430 -1.4055  0.2745
  939MOL0     H29526   7.074   5.949   9.863  1.2971 -0.0305 -0.7188
  939MOL0     H29527   7.143   5.735   9.803  1.7652  2.4632 -0.6232
  939MOL0     H29528   7.032   5.743   9.942  0.3466 -1.2938  1.8662
  939MOL0     H29529   7.341   5.674   9.954  0.4228  0.9419 -0.7653
  939MOL0     H29530   7.236   5.719  10.092 -1.7411 -0.9808  1.8290
  939MOL0     H29531   7.060   5.516  10.194  2.2663 -1.8161  2.5240
  939MOL0     H29532   7.007   5.287  10.266  1.4521  0.5699  0.6138
  939MOL0     H29533   7.148   5.226  10.258 -0.5689  0.5168  0.0584
  939MOL0     H29534   6.928   5.141  10.068 -0.0717  0.4514  0.7975
  939MOL0     H29535   7.086   5.064  10.063  1.4616  1.3241 -0.9516
  939MOL0     H29536   6.948   5.075  10.332 -0.0852  0.8952  0.0006
  939MOL0     H29537   6.853   5.002  10.189  1.2580 -2.1969 -1.6970
  939MOL0     H29538   7.053   4.850  10.161 -0.1481 -2.5406  0.4440
  939MOL0     H29539   7.129   4.938  10.307 -1.4231  0.4462  2.0552
  939MOL0     H29540   7.192   4.755  10.412 -0.6753  0.7665 -1.7641
  939MOL0     H29541   7.261   4.509  10.675 -0.1391  0.1313  1.8385
  939MOL0     H29542   7.350   4.654  10.715 -1.6290 -0.1405  1.5059
  939MOL0     H29543   7.334   4.611  10.547  0.0007  0.2187  0.1593
  939MOL0     H29544   7.063   4.559  11.144  0.1504 -0.2528 -1.4041
  939MOL0     H29545   7.156   4.464  11.335 -0.3265 -1.0586 -0.8190
  939MOL0     H29546   7.360   4.511  11.520 -3.2233  1.7255 -3.2091
  939MOL0     H29547   7.279   4.341  11.502 -0.0280 -0.2483 -0.2257
  939MOL0     H29548   7.484   4.241  11.581  3.5085  0.1699  0.4338
  939MOL0     H29549   7.566   4.397  11.605  0.3618 -0.9821 -2.8247
  939MOL0     H29550   7.319   4.314  11.769 -1.4536  1.6370  0.5656
  939MOL0     H29551   7.396   4.474  11.755  0.6582  0.4656 -0.4716
  939MOL0     H29552   7.613   4.369  11.813  0.0262 -0.6815 -3.0962
  939MOL0     H29553   7.528   4.214  11.831 -2.5432  0.8826 -1.2622
  939MOL0     H29554   7.441   4.464  11.991 -2.3629 -1.4832  1.0753
  939MOL0     H29555   7.396   4.295  12.017  0.2415  0.5778  1.2187
  939MOL0     H29556   7.629   4.456  12.075  0.7788 -0.4849  2.2178
  939MOL0     H29557   7.654   4.275  12.079  2.0438  1.2270  0.7085
  939MOL0     H29558   7.451   4.267  12.234 -1.5650  1.8966 -0.2751
  939MOL0     H29559   7.445   4.441  12.249  2.2095  1.5138 -1.1272
  939MOL0     H29560   7.684   4.260  12.308 -1.1773 -1.0160 -1.3000
  939MOL0     H29561   7.560   4.315  12.431 -1.5629 -3.4569 -1.5897
  939MOL0     H29562   7.539   4.417  11.132  0.8385  1.5590 -2.5031
  939MOL0     H29563   7.436   4.507  10.925 -0.0463  2.3755 -0.8758
  939MOL0     H29564   6.834   4.709  10.751  1.5677 -3.5353  1.2596
  939MOL0     H29565   6.785   4.772  10.541  0.0221 -2.2439  0.6022
  939MOL0     H29566   7.432   6.571   9.394 -1.6024  0.9026  0.5569
  939MOL0     H29567   7.452   6.644   9.162 -0.0378 -1.2837 -1.1195
  939MOL0     H29568   7.394   6.608   8.728  0.0279 -0.0742 -1.3354
  939MOL0     H29569   7.379   6.606   8.493 -0.6522  2.9546 -0.7116
  939MOL0     H29570   6.991   6.492   8.378 -0.0342 -2.6175 -0.0593
  939MOL0     H29571   7.011   6.590   8.218  1.1375 -0.9705 -0.4721
  939MOL0     H29572   7.219   6.386   8.260 -0.5879 -1.3760 -0.5967
  939MOL0     H29573   7.142   6.451   8.122 -0.3745  0.2687  0.0972
  939MOL0     H29574   7.052   6.262   8.351  1.9532  2.2092  0.8728
  939MOL0     H29575   6.932   6.301   8.237 -0.0240 -2.3794  1.0829
  939MOL0     H29576   7.055   6.082   8.203  2.2579 -1.1157  0.7840
  939MOL0     H29577   7.196   6.165   8.177 -1.0460  0.4837  3.3960
  939MOL0     H29578   6.990   6.200   7.806 -0.5801  1.3336 -0.4093
  939MOL0     H29579   6.967   6.652   8.521 -0.0648 -1.2939  3.1386
  939MOL0     H29580   6.903   6.607   8.818 -3.4586  1.0680 -0.4987
  939MOL0     H29581   6.937   6.777   8.827 -0.6045 -1.2492  2.4032
  939MOL0     H29582   6.859   6.705   8.677  0.7581 -1.5867 -0.5905
  940MOL0     O29583   8.361   9.650  11.438  0.0172  0.1082  0.6887
  940MOL0     C29584   8.425   9.570  11.506  0.2823 -0.1824 -0.1619
  940MOL0     O29585   8.533   9.604  11.579  0.1608  0.7380 -0.0487
  940MOL0     C29586   8.551   9.740  11.611  1.0533 -0.0292 -0.3747
  940MOL0     C29587   8.448   9.827  11.656  0.7547  0.7384 -0.0898
  940MOL0     C29588   8.491   9.969  11.668  1.6819  0.3801  0.6123
  940MOL0     C29589   8.617  10.010  11.626  0.8731 -0.2586  1.0917
  940MOL0     O29590   8.640  10.143  11.628  0.2915 -0.2084 -0.3155
  940MOL0     C29591   8.737  10.209  11.543  0.5282  1.5020 -0.9185
  940MOL0     C29592   8.678  10.212  11.400  0.5704  0.0471 -0.2373
  940MOL0     C29593   8.787  10.294  11.313  0.1493  0.7044 -0.7746
  940MOL0     C29594   8.714  10.321  11.173 -0.6436 -0.3261 -0.4932
  940MOL0     C29595   8.768  10.440  11.107  0.3317 -1.1088  0.0387
  940MOL0     C29596   8.727  10.580  11.165 -0.6989 -1.5109 -0.2416
  940MOL0     C29597   8.798  10.696  11.096 -0.0461  0.4552 -0.3106
  940MOL0     C29598   8.706  10.769  11.007  0.4573  0.3083 -0.3775
  940MOL0     N29599   8.760  10.888  10.942 -0.1375 -0.2535 -0.5419
  940MOL0     C29600   8.789  11.006  11.013  1.4227  0.4321  0.3671
  940MOL0     C29601   8.834  11.098  10.921  0.1957 -0.4791  1.4951
  940MOL0     C29602   8.861  11.241  10.957  0.1757  0.1663  1.0303
  940MOL0     C29603   8.729  11.317  10.955 -0.2677  0.8263 -0.3051
  940MOL0     C29604   8.655  11.294  11.086 -0.0158  0.2748  0.1506
  940MOL0     C29605   8.516  11.355  11.075  0.4964  0.4286  0.2081
  940MOL0     O29606   8.437  11.297  10.956 -0.4333 -0.2519 -0.9159
  940MOL0     C29607   8.393  11.170  10.959 -0.8268  0.0217 -0.3562
  940MOL0     C29608   8.334  11.124  10.837  0.1203  0.2859  0.0200
  940MOL0     C29609   8.293  10.996  10.809 -1.0015  0.3361 -0.8155
  940MOL0     C29610   8.234  10.957  10.675 -0.9699 -0.3888  0.7772
  940MOL0     C29611   8.307  10.902  10.914  0.0758  0.1543 -0.5007
  940MOL0     C29612   8.277  10.752  10.902 -0.3061 -0.8243 -0.5251
  940MOL0     O29613   8.276  10.682  11.026  0.4430 -0.6613  0.5804
  940MOL0     C29614   8.254  10.550  11.055 -0.3298  0.4415  0.3016
  940MOL0     C29615   8.267  10.509  11.189 -0.3104  0.2709  0.6554
  940MOL0     C29616   8.236  10.381  11.234 -0.1030 -0.2624 -0.7562
  940MOL0     C29617   8.197  10.288  11.139 -0.0871 -0.3827 -0.2999
  940MOL0     O29618   8.160  10.159  11.158 -0.5880 -0.4646  0.6684
  940MOL0     C29619   8.152  10.096  11.282  0.1925  0.4289  0.6304
  940MOL0     C29620   8.029  10.126  11.381  0.3341 -0.6071 -0.2464
  940MOL0     C29621   7.896  10.086  11.323  0.4275  0.3394 -0.1731
  940MOL0     C29622   7.798  10.030  11.432  0.0070  0.0068 -0.1313
  940MOL0     C29623   7.671   9.971  11.362  1.3505 -0.1675 -0.0796
  940MOL0     C29624   7.585   9.899  11.470 -0.9012  0.3421 -0.5213
  940MOL0     C29625   7.495  10.000  11.546 -0.0622  0.0830  0.2895
  940MOL0     C29626   7.387   9.925  11.633  0.1325 -0.3055  0.7100
  940MOL0    Cl29627   7.471   9.818  11.755  0.1213 -0.1914  0.0780
  940MOL0     C29628   8.194  10.323  11.003  0.9063  0.0680  0.3805
  940MOL0     C29629   8.219  10.452  10.965 -0.3478  0.0272  0.0058
  940MOL0     O29630   8.264  10.696  10.797  0.1764 -0.1368 -0.0585
  940MOL0     C29631   8.356  10.950  11.040  0.2998 -0.0630 -0.8120
  940MOL0     C29632   8.402  11.082  11.058  0.7914 -0.6199 -0.1426
  940MOL0     N29633   8.809  11.044  10.795 -0.3083 -0.3819 -0.1345
  940MOL0     N29634   8.765  10.926  10.813  0.4220  0.9843 -0.3415
  940MOL0     C29635   8.725   9.917  11.597 -0.8753  0.0521  0.3461
  940MOL0     C29636   8.685   9.782  11.588 -0.0582 -0.4026 -0.0215
  940MOL0     C29637   8.368   9.430  11.518  0.8409 -0.2140  0.7579
  940MOL0     C29638   8.240   9.413  11.462  0.9893  0.1563  0.1996
  940MOL0     C29639   8.183   9.285  11.460 -1.0492 -0.5310  0.3828
  940MOL0     C29640   8.250   9.173  11.509 -0.3580  0.5954 -0.2877
  940MOL0     O29641   8.175   9.055  11.513  0.2313 -0.0944 -0.9771
  940MOL0     C29642   8.206   8.952  11.602 -0.2962  0.6068 -0.1112
  940MOL0     C29643   8.301   8.861  11.514  0.3528  0.6570 -0.5305
  940MOL0     C29644   8.234   8.806  11.387 -0.0772  0.5002 -1.0291
  940MOL0     C29645   8.344   8.747  11.293 -0.0547  1.3302  0.2343
  940MOL0     C29646   8.379   8.600  11.324  0.3534  0.2631 -0.1719
  940MOL0     C29647   8.424   8.492  11.361 -0.3441 -0.0941  0.6613
  940MOL0     C29648   8.377   9.194  11.563  0.7152  0.6315  0.0289
  940MOL0     C29649   8.445   9.317  11.560 -0.3386  0.7909  1.2965
  940MOL0     C29650   8.580   9.335  11.616 -0.4361 -0.6252 -0.0258
  940MOL0     H29651   8.348   9.793  11.681  2.0112 -0.8007  3.6043
  940MOL0     H29652   8.418  10.047  11.690  0.3973 -0.9635  1.2596
  940MOL0     H29653   8.828  10.151  11.524  1.2663  3.2786 -3.2780
  940MOL0     H29654   8.759  10.307  11.586 -2.5525  2.0562 -0.3068
  940MOL0     H29655   8.661  10.112  11.360 -2.8618  0.6518 -0.5770
  940MOL0     H29656   8.577  10.253  11.395  0.2636 -0.8134 -1.8769
  940MOL0     H29657   8.825  10.381  11.366  1.8724 -1.7329  2.3591
  940MOL0     H29658   8.872  10.229  11.291  0.2692  0.5877  0.0095
  940MOL0     H29659   8.726  10.232  11.110 -0.5143 -0.3321 -0.4618
  940MOL0     H29660   8.607  10.335  11.188 -0.3250  1.6922  0.1429
  940MOL0     H29661   8.728  10.423  11.006 -1.3778  0.7560  0.3364
  940MOL0     H29662   8.877  10.432  11.102  0.4410 -1.0519  1.8257
  940MOL0     H29663   8.620  10.602  11.167 -0.4489 -0.2120 -0.1187
  940MOL0     H29664   8.760  10.587  11.269 -1.3293  1.6266 -0.1456
  940MOL0     H29665   8.884  10.661  11.039  1.0562  3.1473 -0.4884
  940MOL0     H29666   8.836  10.769  11.168 -1.2682 -0.4272  1.2769
  940MOL0     H29667   8.665  10.697  10.936  1.1880 -0.8359  0.3166
  940MOL0     H29668   8.618  10.798  11.065  1.7618 -0.4935  2.1893
  940MOL0     H29669   8.802  11.001  11.120 -2.3419  3.7249  1.2111
  940MOL0     H29670   8.925  11.281  10.877 -0.8484  2.9469  1.4874
  940MOL0     H29671   8.905  11.248  11.057 -0.0334 -3.5411  1.5133
  940MOL0     H29672   8.745  11.425  10.943  1.1268  0.9649  2.1007
  940MOL0     H29673   8.669  11.273  10.875  0.0578 -3.7537  1.6781
  940MOL0     H29674   8.655  11.188  11.112  3.2443  0.6351  2.2258
  940MOL0     H29675   8.714  11.336  11.168  1.8999  0.2525 -1.1646
  940MOL0     H29676   8.463  11.328  11.167  0.7516 -0.2138  0.1727
  940MOL0     H29677   8.507  11.463  11.058 -2.2945  0.0740 -1.3418
  940MOL0     H29678   8.351  11.198  10.759  2.7262 -1.0336 -0.7830
  940MOL0     H29679   8.314  10.907  10.621 -0.3013  2.5262 -1.1484
  940MOL0     H29680   8.211  11.049  10.621 -0.0651  1.0125  2.6519
  940MOL0     H29681   8.141  10.902  10.692 -1.6986  0.3263 -0.7237
  940MOL0     H29682   8.283  10.577  11.271 -0.9509  1.1647  0.0642
  940MOL0     H29683   8.243  10.359  11.340  2.9766 -0.1409 -0.8620
  940MOL0     H29684   8.160   9.987  11.270  1.8064  0.3541  2.0493
  940MOL0     H29685   8.249  10.115  11.330 -0.4128 -1.9934  3.0986
  940MOL0     H29686   8.044  10.072  11.475  2.7398  0.2887 -0.0408
  940MOL0     H29687   8.028  10.233  11.403 -2.2999 -0.6892  0.3409
  940MOL0     H29688   7.917  10.011  11.246 -0.6423  0.6875 -0.8330
  940MOL0     H29689   7.849  10.162  11.260 -2.8330 -1.0692  0.3020
  940MOL0     H29690   7.778  10.118  11.494  2.6622  0.2984  0.4321
  940MOL0     H29691   7.848   9.957  11.498  0.4050  0.0101 -0.4245
  940MOL0     H29692   7.608  10.047  11.316  1.9008  1.3376  1.5789
  940MOL0     H29693   7.680   9.884  11.296 -1.5258 -1.0911  0.6203
  940MOL0     H29694   7.645   9.839  11.539  1.6407  0.5696 -2.4164
  940MOL0     H29695   7.521   9.830  11.414 -0.6106 -1.0664  0.8002
  940MOL0     H29696   7.464  10.083  11.482  3.3405  0.8303 -0.5774
  940MOL0     H29697   7.565  10.051  11.612  0.1962 -2.5306  2.1682
  940MOL0     H29698   7.319   9.865  11.572  0.1606  0.3665 -0.0153
  940MOL0     H29699   7.324   9.994  11.689 -2.5567 -2.7292  0.8882
  940MOL0     H29700   8.150  10.272  10.918 -0.6004  2.2980 -0.2487
  940MOL0     H29701   8.215  10.467  10.858 -1.5072 -0.6672 -0.0710
  940MOL0     H29702   8.359  10.890  11.130  0.9253  1.2611  0.0809
  940MOL0     H29703   8.428  11.116  11.158 -2.7601  0.7006  0.4817
  940MOL0     H29704   8.821   9.956  11.567 -0.7672 -1.5749 -1.5971
  940MOL0     H29705   8.745   9.708  11.536  0.9940  1.1611 -1.1565
  940MOL0     H29706   8.168   9.488  11.429  0.8662  1.3451  2.9609
  940MOL0     H29707   8.082   9.269  11.426 -0.9489 -2.0873  0.7120
  940MOL0     H29708   8.255   8.990  11.692 -0.4632  2.1098 -0.6366
  940MOL0     H29709   8.111   8.907  11.631  0.0541 -0.7234 -0.9182
  940MOL0     H29710   8.330   8.777  11.579 -1.4939  2.3476  2.7177
  940MOL0     H29711   8.394   8.915  11.494  0.0505  0.7900 -1.6529
  940MOL0     H29712   8.151   8.743  11.420  1.4174  0.4001  3.0744
  940MOL0     H29713   8.186   8.879  11.321 -1.3910 -0.4751 -1.1900
  940MOL0     H29714   8.434   8.809  11.286 -0.2685  1.4947 -4.9321
  940MOL0     H29715   8.305   8.754  11.191  1.4471 -3.0314 -0.8504
  940MOL0     H29716   8.475   8.403  11.391  0.1042  1.1053  3.8545
  940MOL0     H29717   8.423   9.110  11.613  1.5271  0.1724 -1.4315
  940MOL0     H29718   8.643   9.379  11.538  0.5487 -0.7030  0.7150
  940MOL0     H29719   8.567   9.397  11.705 -0.9476 -2.7452  1.4227
  940MOL0     H29720   8.630   9.244  11.649  1.5891  0.1452 -0.8096
  941MOL0     O29721   6.156   8.334   1.276 -0.7355 -0.6430  0.7918
  941MOL0     C29722   6.142   8.278   1.166  0.1887 -0.5504 -0.3343
  941MOL0     O29723   6.025   8.259   1.107 -0.3131 -0.5460  0.3578
  941MOL0     C29724   5.921   8.273   1.188  0.7570  0.0323  0.1394
  941MOL0     C29725   5.867   8.399   1.223 -0.3216 -0.2380 -0.3512
  941MOL0     C29726   5.763   8.407   1.318 -0.0007 -0.4141 -0.6385
  941MOL0     C29727   5.687   8.294   1.356  0.1483 -0.1272  0.5130
  941MOL0     O29728   5.587   8.298   1.446 -0.1269  0.1042  0.3429
  941MOL0     C29729   5.510   8.418   1.467 -1.6587  0.1718  0.1666
  941MOL0     C29730   5.371   8.387   1.527 -0.0692 -0.5293 -1.1428
  941MOL0     C29731   5.367   8.379   1.680  0.4824  0.4279  0.0413
  941MOL0     C29732   5.478   8.294   1.748 -0.2109  0.3002 -0.7159
  941MOL0     C29733   5.446   8.136   1.746 -0.3033  0.1707 -0.2633
  941MOL0     C29734   5.524   8.058   1.853 -1.0048  0.7734 -0.3956
  941MOL0     C29735   5.548   7.909   1.813 -0.1700 -0.6586  1.3682
  941MOL0     C29736   5.606   7.898   1.667 -0.7347 -0.5120 -0.2425
  941MOL0     N29737   5.737   7.961   1.646 -0.4374  0.0938  0.4064
  941MOL0     C29738   5.750   8.101   1.625 -0.6701  0.0163 -0.3349
  941MOL0     C29739   5.877   8.122   1.626 -0.1678  0.0408 -0.1564
  941MOL0     C29740   5.937   8.255   1.653  0.0986 -0.8707  0.2706
  941MOL0     C29741   6.001   8.247   1.789 -0.0807  0.6210 -0.1764
  941MOL0     C29742   5.915   8.218   1.920  0.1407 -0.8994 -0.3733
  941MOL0     C29743   5.922   8.075   1.969 -0.1361  0.1050 -0.2997
  941MOL0     O29744   5.873   8.050   2.100 -0.1964  0.2605 -0.3428
  941MOL0     C29745   5.946   7.959   2.181 -0.5629 -0.3583  0.3282
  941MOL0     C29746   5.978   7.997   2.309  0.0084  0.6474 -0.2956
  941MOL0     C29747   6.053   7.909   2.389 -0.2653 -0.7005  0.1629
  941MOL0     C29748   6.087   7.960   2.523  0.0042 -0.2633 -0.2691
  941MOL0     C29749   6.091   7.776   2.343  1.0787  0.8628  0.5505
  941MOL0     C29750   6.169   7.681   2.420  0.6340 -0.7979 -0.5628
  941MOL0     O29751   6.255   7.604   2.343 -0.1217  0.8383  0.2247
  941MOL0     C29752   6.331   7.501   2.392  0.3131 -0.3123  0.1394
  941MOL0     C29753   6.275   7.399   2.471 -0.2319 -0.6979  0.6290
  941MOL0     C29754   6.351   7.299   2.508  0.0535  0.4399  1.1017
  941MOL0     C29755   6.482   7.286   2.475  0.0214  0.0260 -0.0300
  941MOL0     O29756   6.543   7.169   2.519 -0.0311  0.4547 -0.0711
  941MOL0     C29757   6.658   7.186   2.596 -0.6557  0.0371  1.3563
  941MOL0     C29758   6.703   7.055   2.657 -0.2201  1.1449 -0.7249
  941MOL0     C29759   6.837   7.072   2.728 -0.0948 -0.5165  0.3561
  941MOL0     C29760   6.896   6.932   2.747  0.7895  0.0245  0.1823
  941MOL0     C29761   6.985   6.925   2.877 -1.3872 -0.8205  0.3767
  941MOL0     C29762   7.107   7.023   2.870  0.2090  0.6592  0.0686
  941MOL0     C29763   7.214   6.984   2.982 -0.8452 -0.3321  0.9706
  941MOL0     C29764   7.158   6.986   3.124  0.3934  0.2126 -0.1170
  941MOL0    Cl29765   7.274   6.938   3.241 -0.1915  0.4617  0.0188
  941MOL0     C29766   6.547   7.384   2.399  0.6562  0.3372  0.0499
  941MOL0     C29767   6.472   7.494   2.363 -0.1101  0.3292  1.2604
  941MOL0     O29768   6.151   7.666   2.540  0.2977  0.0832 -0.0051
  941MOL0     C29769   6.051   7.747   2.207  0.0229  0.8157 -0.2671
  941MOL0     C29770   5.988   7.840   2.128  0.0327 -0.1303 -0.8160
  941MOL0     N29771   5.942   8.000   1.652  0.0510 -0.0285  1.3907
  941MOL0     N29772   5.857   7.898   1.659  0.0862 -0.3044 -0.8122
  941MOL0     C29773   5.731   8.167   1.309  0.4015 -0.6869 -0.3675
  941MOL0     C29774   5.849   8.157   1.226  0.0014  0.3421  0.0567
  941MOL0     C29775   6.277   8.246   1.104 -0.6899 -0.3599  0.1661
  941MOL0     C29776   6.393   8.315   1.133  0.0292 -0.5070  0.2768
  941MOL0     C29777   6.518   8.285   1.084 -0.2941 -0.0937 -0.3519
  941MOL0     C29778   6.531   8.200   0.970 -0.6536  0.6324  0.8857
  941MOL0     O29779   6.654   8.194   0.917 -0.2374  0.5898  0.1027
  941MOL0     C29780   6.696   8.086   0.826  0.5314 -0.4531  0.7849
  941MOL0     C29781   6.838   8.117   0.815  0.4566 -0.1862 -0.3900
  941MOL0     C29782   6.926   8.015   0.753  0.1653  0.4846 -0.7073
  941MOL0     C29783   6.861   7.930   0.631 -0.1960  0.4769  0.8994
  941MOL0     C29784   6.817   8.006   0.520 -0.3434 -0.3524  0.9371
  941MOL0     C29785   6.803   8.060   0.411 -0.2009 -0.5492  0.2415
  941MOL0     C29786   6.418   8.127   0.935  0.0433  0.1965 -0.0601
  941MOL0     C29787   6.294   8.145   0.999  0.2136 -0.5882  0.4691
  941MOL0     C29788   6.175   8.059   0.961 -0.0107  0.2970 -0.2707
  941MOL0     H29789   5.916   8.489   1.186  2.2341 -1.4241 -0.0899
  941MOL0     H29790   5.732   8.505   1.352 -0.1154 -1.3292  2.1231
  941MOL0     H29791   5.493   8.470   1.372 -0.8277  0.1587  0.0064
  941MOL0     H29792   5.563   8.474   1.544  1.4455 -4.1446  1.5312
  941MOL0     H29793   5.299   8.464   1.498 -0.5113 -0.8034 -0.7868
  941MOL0     H29794   5.327   8.299   1.481  0.3561 -0.0358 -2.5555
  941MOL0     H29795   5.377   8.476   1.729 -0.1271 -0.1863  1.4195
  941MOL0     H29796   5.266   8.357   1.716  0.9255  0.2802  1.2251
  941MOL0     H29797   5.583   8.312   1.720 -1.0218  3.8580 -1.9939
  941MOL0     H29798   5.483   8.317   1.854 -2.6421 -1.4551 -0.1427
  941MOL0     H29799   5.454   8.102   1.643  3.0620  0.5673 -0.2249
  941MOL0     H29800   5.347   8.121   1.791  0.2458  0.0674  0.9443
  941MOL0     H29801   5.616   8.117   1.856 -1.4323  1.4135  1.5621
  941MOL0     H29802   5.470   8.073   1.947  2.0546  4.5217  1.0289
  941MOL0     H29803   5.454   7.852   1.818  1.3103 -3.5175 -0.5163
  941MOL0     H29804   5.614   7.874   1.892  0.1230 -2.7959  0.2617
  941MOL0     H29805   5.623   7.791   1.651  1.0364 -0.0504 -1.8038
  941MOL0     H29806   5.537   7.923   1.587 -0.9907  1.0428  0.4262
  941MOL0     H29807   5.676   8.176   1.600 -0.1590  0.1355 -1.5713
  941MOL0     H29808   5.862   8.335   1.654  2.4694  1.4868  0.8608
  941MOL0     H29809   6.018   8.280   1.584  0.5005 -0.5734  0.8418
  941MOL0     H29810   6.087   8.180   1.790 -0.8383 -0.5112 -2.5998
  941MOL0     H29811   6.034   8.351   1.804 -0.8997  1.0667 -1.3394
  941MOL0     H29812   5.956   8.283   1.999 -1.8386  2.2473 -1.7386
  941MOL0     H29813   5.815   8.260   1.904  1.7442  3.5278 -0.1484
  941MOL0     H29814   5.870   8.016   1.894  2.1991 -0.1128 -1.8648
  941MOL0     H29815   6.029   8.050   1.966 -0.0299  0.6576 -1.5391
  941MOL0     H29816   5.961   8.101   2.333  3.5423  1.6916 -1.6169
  941MOL0     H29817   6.009   7.922   2.590  1.1668 -0.6302  0.9094
  941MOL0     H29818   6.093   8.069   2.532  1.9100 -0.3867  0.2281
  941MOL0     H29819   6.186   7.923   2.550 -1.0395 -1.6763  1.8605
  941MOL0     H29820   6.169   7.397   2.492 -0.5054 -0.6330 -0.6778
  941MOL0     H29821   6.303   7.223   2.568  1.6919 -2.0749 -0.5687
  941MOL0     H29822   6.736   7.226   2.530 -3.2921  0.4874 -1.7690
  941MOL0     H29823   6.644   7.254   2.680 -1.7665 -1.8296  2.7632
  941MOL0     H29824   6.627   7.016   2.725 -0.8956  0.5884 -1.7689
  941MOL0     H29825   6.708   6.989   2.570 -0.8364 -1.3879  1.0819
  941MOL0     H29826   6.817   7.126   2.821 -0.0822 -0.2888  0.2288
  941MOL0     H29827   6.903   7.133   2.667 -3.0644  2.8279  0.1203
  941MOL0     H29828   6.958   6.914   2.658 -0.7802  2.3035 -1.5044
  941MOL0     H29829   6.828   6.848   2.735  1.4312 -0.4286 -0.3411
  941MOL0     H29830   6.929   6.956   2.966 -0.3411 -3.8750  2.2694
  941MOL0     H29831   7.025   6.825   2.898 -1.6529 -0.3449  3.7406
  941MOL0     H29832   7.082   7.126   2.894 -0.5934 -0.4310  5.1849
  941MOL0     H29833   7.168   7.003   2.782 -0.6387  2.9523 -1.1045
  941MOL0     H29834   7.301   7.050   2.984 -0.4716 -0.7423 -0.5247
  941MOL0     H29835   7.259   6.884   2.977  3.3598  1.1204  3.6073
  941MOL0     H29836   7.062   6.934   3.135 -0.5849  1.6902 -1.2961
  941MOL0     H29837   7.115   7.081   3.155 -0.1162 -0.6631  2.0162
  941MOL0     H29838   6.652   7.387   2.373  0.6636 -0.0586  0.0210
  941MOL0     H29839   6.498   7.578   2.299  0.8609  0.9061  2.3692
  941MOL0     H29840   6.073   7.651   2.160 -0.8767  1.2136 -1.5654
  941MOL0     H29841   5.986   7.832   2.020 -0.3517  0.2913 -0.8473
  941MOL0     H29842   5.678   8.074   1.329 -0.6761  0.4069  2.3223
  941MOL0     H29843   5.890   8.062   1.191  0.7875  0.0579  1.6517
  941MOL0     H29844   6.393   8.397   1.205  1.9363 -0.2520  0.0531
  941MOL0     H29845   6.613   8.330   1.115 -0.2343 -1.1886  1.1788
  941MOL0     H29846   6.691   7.987   0.872  2.0623 -1.6094 -1.3874
  941MOL0     H29847   6.642   8.102   0.732  1.2291 -0.8587  0.3102
  941MOL0     H29848   6.879   8.135   0.915  0.7722  0.7593 -0.6722
  941MOL0     H29849   6.852   8.213   0.763 -1.2171  0.8875  1.0251
  941MOL0     H29850   7.019   8.066   0.726  1.6577 -2.5406 -1.6822
  941MOL0     H29851   6.943   7.941   0.831  0.1955 -0.4613 -1.6001
  941MOL0     H29852   6.790   7.856   0.669  0.9629 -0.2240  1.7927
  941MOL0     H29853   6.940   7.869   0.586  1.4379  0.9600  2.9892
  941MOL0     H29854   6.779   8.099   0.315 -0.0454  2.6300  1.3520
  941MOL0     H29855   6.401   8.065   0.847 -0.2575  2.7925 -1.9398
  941MOL0     H29856   6.109   8.110   0.890  0.0335 -0.1457 -0.6349
  941MOL0     H29857   6.205   7.961   0.923  0.4009  0.2005  0.2867
  941MOL0     H29858   6.113   8.045   1.049  1.2395 -1.3341  0.3972
  942MOL0     O29859   7.753   9.138   2.596 -0.2248  0.4454  0.1386
  942MOL0     C29860   7.730   9.165   2.475  0.3522  0.3106 -0.9472
  942MOL0     O29861   7.683   9.080   2.374 -1.1982 -0.4815 -0.1554
  942MOL0     C29862   7.618   8.953   2.390  1.2377 -0.2361  0.1275
  942MOL0     C29863   7.523   8.905   2.296 -0.4262 -0.0485 -1.1143
  942MOL0     C29864   7.451   8.781   2.312  0.0268  0.3877 -0.9709
  942MOL0     C29865   7.497   8.688   2.413  0.3882  0.1600 -0.0343
  942MOL0     O29866   7.439   8.565   2.436 -0.3959 -0.2640  1.1581
  942MOL0     C29867   7.332   8.498   2.357 -0.3184 -0.1670 -0.3305
  942MOL0     C29868   7.319   8.343   2.375 -0.4236 -0.9149  0.4002
  942MOL0     C29869   7.204   8.291   2.282 -0.3059  0.6190  0.0714
  942MOL0     C29870   7.109   8.184   2.342  0.3665  0.5643  0.2269
  942MOL0     C29871   6.972   8.173   2.280 -0.4493  0.1838  0.2004
  942MOL0     C29872   6.895   8.073   2.377 -1.5922 -0.5602  1.2421
  942MOL0     C29873   6.755   8.047   2.327  0.4225 -0.3695 -0.1601
  942MOL0     C29874   6.670   8.175   2.281  0.0584  0.3336 -1.3968
  942MOL0     N29875   6.674   8.206   2.142  0.2109 -0.1750  0.8134
  942MOL0     C29876   6.658   8.111   2.036 -0.1290  0.7611  0.8838
  942MOL0     C29877   6.627   8.191   1.929  0.6006  0.0205 -1.5188
  942MOL0     C29878   6.576   8.147   1.793 -0.6832  0.5300 -0.0095
  942MOL0     C29879   6.691   8.146   1.695 -0.2640  0.4633 -0.8219
  942MOL0     C29880   6.644   8.131   1.547 -0.8220 -0.0051 -0.6229
  942MOL0     C29881   6.562   8.011   1.523  0.6906 -0.6925 -0.5048
  942MOL0     O29882   6.624   7.903   1.598  0.2651 -0.6175 -0.0304
  942MOL0     C29883   6.559   7.784   1.580 -0.4981 -0.0491 -1.5573
  942MOL0     C29884   6.436   7.749   1.516  0.1213  0.4415  0.3867
  942MOL0     C29885   6.389   7.619   1.498  0.3667  1.2361 -0.8501
  942MOL0     C29886   6.257   7.607   1.419 -0.5528 -0.3190  0.0005
  942MOL0     C29887   6.465   7.509   1.549 -0.1035  0.2719  0.7806
  942MOL0     C29888   6.416   7.366   1.541 -0.6631  0.3941 -0.2657
  942MOL0     O29889   6.285   7.331   1.503  0.6536 -0.8479 -0.7894
  942MOL0     C29890   6.238   7.202   1.492 -0.0157 -0.6547 -1.0681
  942MOL0     C29891   6.311   7.086   1.483 -0.1862  0.5923  0.2924
  942MOL0     C29892   6.241   6.973   1.447  0.1261 -0.0801 -0.3521
  942MOL0     C29893   6.101   6.967   1.428  0.8785  0.0866 -0.7833
  942MOL0     O29894   6.027   6.859   1.387  0.0691 -0.2817 -0.4552
  942MOL0     C29895   6.073   6.721   1.404 -0.2689  0.2801  0.2255
  942MOL0     C29896   6.067   6.682   1.543  0.0283  0.5312 -0.0545
  942MOL0     C29897   6.148   6.559   1.585  0.5710 -0.6059 -0.1933
  942MOL0     C29898   6.094   6.445   1.490  0.5051  0.6681  0.6218
  942MOL0     C29899   6.154   6.305   1.518 -0.1316 -0.8962  0.2386
  942MOL0     C29900   6.301   6.282   1.481  0.7070 -0.5146 -0.1639
  942MOL0     C29901   6.320   6.286   1.319  0.7479 -0.6594 -0.1784
  942MOL0     C29902   6.455   6.281   1.255 -0.4133  0.6816 -0.4669
  942MOL0    Cl29903   6.568   6.387   1.346 -0.2563  0.3946  0.5596
  942MOL0     C29904   6.032   7.089   1.426  0.6734  0.0817 -0.7883
  942MOL0     C29905   6.104   7.201   1.468 -0.4122  0.5839  0.0469
  942MOL0     O29906   6.496   7.284   1.578  0.7794  0.8227  0.8483
  942MOL0     C29907   6.594   7.540   1.600 -0.7583 -0.5145  0.3939
  942MOL0     C29908   6.641   7.679   1.627  0.4031 -0.1463 -0.3974
  942MOL0     N29909   6.611   8.319   1.972  0.3247  0.3965 -0.4894
  942MOL0     N29910   6.644   8.338   2.098 -0.2398  0.4282  0.2751
  942MOL0     C29911   7.596   8.730   2.497  0.0860 -0.3957 -0.0045
  942MOL0     C29912   7.645   8.867   2.491 -0.5418 -0.2372 -0.5605
  942MOL0     C29913   7.727   9.310   2.445  0.0816 -0.0076  0.2202
  942MOL0     C29914   7.808   9.386   2.540 -0.3779  0.4745  0.0350
  942MOL0     C29915   7.840   9.514   2.515  1.0088  0.1358  0.4175
  942MOL0     C29916   7.796   9.576   2.395  0.1463  0.0479 -0.3616
  942MOL0     O29917   7.840   9.708   2.386  0.3683  0.3686  0.4825
  942MOL0     C29918   7.971   9.712   2.330 -0.1923  0.2134 -0.0305
  942MOL0     C29919   7.968   9.681   2.179  0.1303 -0.7169  0.5582
  942MOL0     C29920   7.897   9.795   2.105 -0.3108  2.0710 -0.3489
  942MOL0     C29921   7.840   9.751   1.966 -0.1219 -0.5885  0.3790
  942MOL0     C29922   7.692   9.756   1.982  0.4207  0.1523 -0.2345
  942MOL0     C29923   7.575   9.740   1.998 -0.1480  0.8910  0.1708
  942MOL0     C29924   7.715   9.510   2.301  0.8422  0.7906  0.2707
  942MOL0     C29925   7.682   9.379   2.320  0.6140  0.6234  0.0508
  942MOL0     C29926   7.604   9.307   2.218 -0.2905 -0.0288 -0.6607
  942MOL0     H29927   7.501   8.977   2.217  0.5547 -0.0956 -1.4344
  942MOL0     H29928   7.370   8.757   2.244 -0.4983 -0.0474 -0.2102
  942MOL0     H29929   7.349   8.508   2.249 -0.7954  2.4207 -0.2372
  942MOL0     H29930   7.234   8.544   2.374  0.0697  1.0383 -1.2554
  942MOL0     H29931   7.409   8.292   2.341 -0.7234 -0.6696 -0.7810
  942MOL0     H29932   7.310   8.324   2.483 -1.1553  3.4282  1.2947
  942MOL0     H29933   7.147   8.377   2.247  0.5957  0.4457 -1.9524
  942MOL0     H29934   7.252   8.251   2.192 -2.5619 -0.9224 -0.5502
  942MOL0     H29935   7.150   8.085   2.320 -1.4497  0.4975 -3.6369
  942MOL0     H29936   7.111   8.219   2.446  0.4507 -0.1004  0.4546
  942MOL0     H29937   6.996   8.141   2.179 -0.2311 -1.3934  0.7308
  942MOL0     H29938   6.934   8.275   2.276 -0.1449  0.2590 -1.5700
  942MOL0     H29939   6.955   7.984   2.396 -1.7681 -1.0992 -0.5458
  942MOL0     H29940   6.898   8.129   2.471  0.9836  0.7447  0.4665
  942MOL0     H29941   6.701   7.996   2.407  0.1333  0.9884  0.5381
  942MOL0     H29942   6.761   7.974   2.246 -2.9404 -0.2792 -0.6034
  942MOL0     H29943   6.566   8.158   2.308  0.4263  0.8993  0.5602
  942MOL0     H29944   6.704   8.256   2.348 -4.2539  2.3086 -1.2771
  942MOL0     H29945   6.682   8.005   2.030 -3.0257  0.0285  0.8531
  942MOL0     H29946   6.506   8.224   1.758 -1.9749 -1.4483 -2.1158
  942MOL0     H29947   6.527   8.049   1.788  2.2678 -1.0014 -0.8975
  942MOL0     H29948   6.729   8.246   1.720 -0.0524  0.1493  0.1453
  942MOL0     H29949   6.765   8.068   1.708  0.0366  1.0801  1.5544
  942MOL0     H29950   6.583   8.215   1.512  3.2528  2.1575 -3.4039
  942MOL0     H29951   6.736   8.119   1.489 -0.3443 -0.3291  0.1787
  942MOL0     H29952   6.465   8.028   1.572  1.6161  2.0389  0.5740
  942MOL0     H29953   6.544   7.998   1.416 -2.8958  0.0330 -0.1312
  942MOL0     H29954   6.376   7.836   1.491 -2.9541 -1.3826  0.9411
  942MOL0     H29955   6.172   7.623   1.486 -1.7901  4.3159 -2.2460
  942MOL0     H29956   6.248   7.511   1.367 -2.5894  0.9437 -2.2018
  942MOL0     H29957   6.251   7.695   1.354  3.5225  1.4826  1.7387
  942MOL0     H29958   6.419   7.080   1.492 -0.2216  1.5468  1.7401
  942MOL0     H29959   6.313   6.894   1.428 -0.8714 -1.4623  1.3213
  942MOL0     H29960   6.002   6.654   1.354 -0.1816 -1.5637  2.4465
  942MOL0     H29961   6.173   6.721   1.360 -2.2478 -0.5330 -4.9816
  942MOL0     H29962   6.115   6.761   1.602 -2.2127  1.1590  1.0329
  942MOL0     H29963   5.962   6.670   1.571  0.3683 -0.3340  0.9259
  942MOL0     H29964   6.123   6.536   1.689  4.4760  2.7306  1.7505
  942MOL0     H29965   6.256   6.566   1.576  0.4635 -0.5590 -1.6859
  942MOL0     H29966   6.114   6.471   1.385 -1.4594  0.6652  0.2236
  942MOL0     H29967   5.986   6.434   1.499  0.3034 -0.1198 -1.9233
  942MOL0     H29968   6.141   6.287   1.625  0.5731 -0.3835  0.4114
  942MOL0     H29969   6.106   6.227   1.458 -2.1216  1.4752 -1.4400
  942MOL0     H29970   6.330   6.180   1.509 -0.7762 -0.5551  1.3604
  942MOL0     H29971   6.364   6.348   1.540  0.6163 -1.8584  1.5171
  942MOL0     H29972   6.276   6.381   1.288  0.4447 -0.5791  0.4830
  942MOL0     H29973   6.268   6.197   1.284  0.5589 -0.7909  0.4205
  942MOL0     H29974   6.459   6.301   1.147  0.9152 -2.2839 -1.0829
  942MOL0     H29975   6.484   6.176   1.264 -0.7116  0.6666  0.4125
  942MOL0     H29976   5.924   7.091   1.426  0.6627  2.6783 -0.1457
  942MOL0     H29977   6.057   7.298   1.484  0.9615  1.5051 -1.2480
  942MOL0     H29978   6.650   7.458   1.646 -1.7439 -2.2993 -1.4153
  942MOL0     H29979   6.732   7.701   1.682 -0.0977 -0.5715  0.6145
  942MOL0     H29980   7.612   8.676   2.590 -1.2644 -0.0167  0.4766
  942MOL0     H29981   7.724   8.887   2.563 -0.1098  1.3646 -1.4201
  942MOL0     H29982   7.855   9.343   2.628  1.0381 -2.8457 -2.1526
  942MOL0     H29983   7.890   9.570   2.593 -3.4000  2.4043  1.9510
  942MOL0     H29984   8.022   9.806   2.354 -2.1060  0.4125  4.0363
  942MOL0     H29985   8.038   9.643   2.382  0.6420  0.1742 -1.1179
  942MOL0     H29986   7.909   9.590   2.165 -0.6253 -0.5394  2.3293
  942MOL0     H29987   8.065   9.655   2.134 -1.3693 -0.8841 -2.9256
  942MOL0     H29988   7.812   9.827   2.166 -0.8435 -1.3058  0.8930
  942MOL0     H29989   7.962   9.883   2.099  0.4377  1.5208 -0.4856
  942MOL0     H29990   7.873   9.651   1.939 -4.4991 -1.0651 -4.7160
  942MOL0     H29991   7.869   9.822   1.888 -0.9976  1.6837  1.9917
  942MOL0     H29992   7.469   9.728   2.009 -0.5576  0.8137 -2.9494
  942MOL0     H29993   7.688   9.570   2.215  1.7114 -0.0607 -0.6136
  942MOL0     H29994   7.573   9.375   2.138  0.6147  1.5625  0.3112
  942MOL0     H29995   7.653   9.220   2.172  1.7704 -0.4153  2.0437
  942MOL0     H29996   7.517   9.285   2.281  0.9860  2.8316  2.3724
  943MOL0     O29997   3.439   7.084   9.510  0.5054  0.7646 -0.2593
  943MOL0     C29998   3.399   6.973   9.540 -0.2637 -0.0767 -0.3735
  943MOL0     O29999   3.381   6.932   9.672 -0.3344 -0.4689 -0.3022
  943MOL0     C30000   3.426   7.035   9.761 -0.0365  0.3010  0.1388
  943MOL0     C30001   3.329   7.114   9.825 -0.2896  0.3913  0.2810
  943MOL0     C30002   3.351   7.182   9.948 -0.6201  0.1178 -0.6095
  943MOL0     C30003   3.480   7.176  10.002 -0.0331  0.0962 -0.6673
  943MOL0     O30004   3.534   7.242  10.106 -0.2509 -0.4718 -0.6883
  943MOL0     C30005   3.447   7.341  10.160 -0.3405  0.5708 -0.0179
  943MOL0     C30006   3.514   7.393  10.283  1.0808 -0.7472 -0.6175
  943MOL0     C30007   3.445   7.529  10.334  0.2569  0.4082  0.0234
  943MOL0     C30008   3.297   7.534  10.347  0.9241 -0.3694 -1.2955
  943MOL0     C30009   3.249   7.657  10.438  0.4050 -0.2695 -0.9170
  943MOL0     C30010   3.256   7.619  10.585 -2.0271 -0.0962 -0.5595
  943MOL0     C30011   3.202   7.718  10.690 -0.5697  0.9107  0.5008
  943MOL0     C30012   3.059   7.713  10.727 -0.2811  0.6040  0.7033
  943MOL0     N30013   3.029   7.811  10.838 -0.5397  0.0161  0.3404
  943MOL0     C30014   2.924   7.907  10.837 -0.0556 -0.2529 -0.5914
  943MOL0     C30015   2.932   7.975  10.952  0.8928  1.1308 -0.4867
  943MOL0     C30016   2.839   8.087  10.992 -0.2885  0.2077  0.7741
  943MOL0     C30017   2.869   8.211  10.898 -0.2295  0.5672 -0.4090
  943MOL0     C30018   2.800   8.342  10.929 -1.2626  0.1098  0.3276
  943MOL0     C30019   2.851   8.397  11.054  1.0821 -0.9343  0.0411
  943MOL0     O30020   2.777   8.519  11.080 -0.3614 -0.0868 -0.4644
  943MOL0     C30021   2.817   8.601  11.179 -0.8881  0.0516 -0.3244
  943MOL0     C30022   2.749   8.719  11.178  0.3839 -1.2912 -0.2954
  943MOL0     C30023   2.790   8.817  11.270 -0.6159  0.0626  0.3504
  943MOL0     C30024   2.740   8.958  11.240  0.3700  0.1287 -0.1232
  943MOL0     C30025   2.893   8.788  11.374  0.3150 -0.2650  0.2906
  943MOL0     C30026   2.957   8.897  11.459  0.5294  1.0398 -0.0123
  943MOL0     O30027   3.075   8.864  11.522 -0.3032  0.2918 -0.2416
  943MOL0     C30028   3.156   8.976  11.538  0.3443  0.3578 -0.9793
  943MOL0     C30029   3.148   9.051  11.658  1.3127  0.2293  0.2849
  943MOL0     C30030   3.249   9.154  11.684 -0.6479  1.0535  0.8883
  943MOL0     C30031   3.351   9.174  11.594  0.7062 -0.0759  1.2773
  943MOL0     O30032   3.458   9.258  11.629 -0.2140 -0.0013  0.3847
  943MOL0     C30033   3.465   9.354  11.525  1.4752  0.0236  0.9763
  943MOL0     C30034   3.443   9.495  11.581 -0.0978 -0.3429 -0.2529
  943MOL0     C30035   3.579   9.568  11.612 -0.2635 -0.2663 -0.2831
  943MOL0     C30036   3.572   9.673  11.722  1.7077 -0.6104 -0.4784
  943MOL0     C30037   3.703   9.751  11.743 -1.0616 -0.3440  0.7428
  943MOL0     C30038   3.697   9.838  11.868 -1.3639 -0.4801  0.2775
  943MOL0     C30039   3.833   9.911  11.897  1.4444  0.3558  0.9689
  943MOL0     C30040   3.825  10.009  12.012  0.2596  0.0633 -0.2990
  943MOL0    Cl30041   3.987  10.081  12.031  0.1634 -0.4529  0.0698
  943MOL0     C30042   3.346   9.102  11.469 -0.3086  0.0286 -0.4027
  943MOL0     C30043   3.254   8.999  11.444  0.2754  0.1406 -0.9862
  943MOL0     O30044   2.894   9.006  11.465  0.0024 -0.4554  0.4699
  943MOL0     C30045   2.948   8.656  11.369 -1.1589 -0.6102 -0.1446
  943MOL0     C30046   2.914   8.566  11.279  0.4657  0.1150  1.0616
  943MOL0     N30047   3.032   7.912  11.025  0.2553 -0.1277  0.0646
  943MOL0     N30048   3.092   7.821  10.952  0.2045  0.7031 -0.4219
  943MOL0     C30049   3.579   7.107   9.936 -0.4507  0.7363 -0.3057
  943MOL0     C30050   3.556   7.036   9.814 -0.8474  0.4441 -0.4792
  943MOL0     C30051   3.361   6.884   9.424 -0.5796 -0.3515  0.1546
  943MOL0     C30052   3.301   6.761   9.452 -0.3811  0.5726 -0.4822
  943MOL0     C30053   3.275   6.673   9.342  0.5645 -0.5340 -0.8854
  943MOL0     C30054   3.274   6.712   9.211  1.5696 -0.2837 -0.7996
  943MOL0     O30055   3.220   6.614   9.126 -0.2786  0.7259 -0.4646
  943MOL0     C30056   3.193   6.657   8.985 -0.5956 -0.2898 -0.2384
  943MOL0     C30057   3.199   6.524   8.904  0.0684 -0.2783  0.4145
  943MOL0     C30058   3.329   6.442   8.901 -0.5657 -0.3257  0.6984
  943MOL0     C30059   3.453   6.535   8.881 -0.2616 -0.3610  0.0085
  943MOL0     C30060   3.575   6.463   8.856 -0.4392 -0.6994 -0.0375
  943MOL0     C30061   3.679   6.404   8.846  0.2155 -0.2337  0.4511
  943MOL0     C30062   3.330   6.833   9.185 -0.1238 -0.2950 -0.4839
  943MOL0     C30063   3.382   6.919   9.288  1.1934 -0.0889 -0.5463
  943MOL0     C30064   3.445   7.046   9.242  0.3195 -0.0464  0.4840
  943MOL0     H30065   3.228   7.104   9.785 -0.6569 -2.7866  1.7264
  943MOL0     H30066   3.265   7.228   9.996  0.4924 -1.3393  3.0730
  943MOL0     H30067   3.357   7.290  10.196  0.7437  0.1056  2.2288
  943MOL0     H30068   3.435   7.417  10.082 -3.0465 -1.1294 -1.4018
  943MOL0     H30069   3.512   7.318  10.363  0.8035  1.3263  1.4322
  943MOL0     H30070   3.616   7.415  10.253  0.6566  3.8959  0.5850
  943MOL0     H30071   3.501   7.569  10.419 -1.0978  1.9660  0.2446
  943MOL0     H30072   3.465   7.603  10.255  0.8267 -2.6386 -2.9278
  943MOL0     H30073   3.241   7.540  10.254 -0.1911  0.8415 -0.5797
  943MOL0     H30074   3.279   7.435  10.391  0.6367 -0.3932 -1.4651
  943MOL0     H30075   3.147   7.682  10.409 -1.1004 -1.8107  2.5344
  943MOL0     H30076   3.313   7.742  10.409  0.6800 -0.2181 -0.1780
  943MOL0     H30077   3.200   7.527  10.605 -0.4795 -0.8097  0.7448
  943MOL0     H30078   3.360   7.586  10.596 -1.4873  1.4719 -0.8319
  943MOL0     H30079   3.219   7.819  10.653 -3.3342  0.8162 -1.2729
  943MOL0     H30080   3.261   7.698  10.780  1.6249  1.4771 -0.7280
  943MOL0     H30081   2.991   7.717  10.642  0.3226 -1.9885  0.0109
  943MOL0     H30082   3.035   7.613  10.765  2.2008  0.7871  3.1172
  943MOL0     H30083   2.864   7.936  10.752 -0.4261  0.3334 -0.1298
  943MOL0     H30084   2.851   8.111  11.098 -1.3782  1.7970  0.5751
  943MOL0     H30085   2.735   8.058  10.980  0.1261 -1.4128  0.7965
  943MOL0     H30086   2.976   8.235  10.898  0.4064 -1.7538  1.7675
  943MOL0     H30087   2.850   8.177  10.796 -0.5944 -4.0685  0.9583
  943MOL0     H30088   2.821   8.409  10.845 -3.5999 -0.6852 -0.9919
  943MOL0     H30089   2.693   8.321  10.916 -0.9668 -2.0965  1.1602
  943MOL0     H30090   2.842   8.325  11.136  0.7228  0.9267  1.7149
  943MOL0     H30091   2.960   8.411  11.048  1.0513 -0.2760  0.8102
  943MOL0     H30092   2.665   8.736  11.112  0.1428 -2.5629 -0.3385
  943MOL0     H30093   2.690   8.958  11.142  1.4316 -1.3434 -0.7033
  943MOL0     H30094   2.825   9.027  11.237 -0.5279  1.2432 -0.7099
  943MOL0     H30095   2.684   8.990  11.328 -1.4268  2.0825 -1.8319
  943MOL0     H30096   3.079   9.026  11.738  2.2213 -1.0319  0.7042
  943MOL0     H30097   3.253   9.214  11.775  4.4146 -0.2598  1.8680
  943MOL0     H30098   3.563   9.348  11.477 -0.2442 -1.6402 -2.7157
  943MOL0     H30099   3.394   9.349  11.442  1.4373  1.6238  0.8669
  943MOL0     H30100   3.404   9.557  11.500  1.9520  0.8699 -0.3790
  943MOL0     H30101   3.369   9.493  11.662 -0.5091  0.0671 -0.6168
  943MOL0     H30102   3.608   9.623  11.522 -1.6622 -0.9339 -1.1800
  943MOL0     H30103   3.661   9.503  11.643  0.8816  1.0699 -0.4245
  943MOL0     H30104   3.534   9.631  11.816  0.1677 -1.2416 -1.3534
  943MOL0     H30105   3.492   9.744  11.699  0.8677 -0.0542  3.4734
  943MOL0     H30106   3.785   9.679  11.742 -2.2567 -1.7335 -0.6684
  943MOL0     H30107   3.728   9.813  11.657  3.8255 -0.1098  2.0232
  943MOL0     H30108   3.675   9.788  11.963  2.2641  1.1529  2.1820
  943MOL0     H30109   3.617   9.909  11.845  0.0059  1.0647  0.0916
  943MOL0     H30110   3.847   9.963  11.801  0.8606 -2.5610 -0.8093
  943MOL0     H30111   3.909   9.840  11.930 -0.9727 -2.3594  1.1368
  943MOL0     H30112   3.791   9.961  12.105  2.4026  0.7914  0.9377
  943MOL0     H30113   3.758  10.092  11.986  3.7918  2.7567 -1.5269
  943MOL0     H30114   3.423   9.098  11.393  0.9483  1.9771  0.6878
  943MOL0     H30115   3.273   8.940  11.355 -2.2853 -0.5864 -1.1194
  943MOL0     H30116   3.022   8.632  11.445 -0.3747 -2.3879 -1.3892
  943MOL0     H30117   2.941   8.461  11.277 -0.3025 -0.0943  1.1986
  943MOL0     H30118   3.684   7.109   9.966 -1.0203 -1.3516  2.2534
  943MOL0     H30119   3.630   6.980   9.758 -2.2940 -1.5370 -0.5219
  943MOL0     H30120   3.297   6.716   9.550 -2.7172  1.4752 -0.0877
  943MOL0     H30121   3.238   6.572   9.361  1.4032 -0.2811  3.0097
  943MOL0     H30122   3.096   6.706   8.976 -1.6549 -2.4641 -1.4794
  943MOL0     H30123   3.267   6.721   8.936  0.8305 -0.2122  1.8510
  943MOL0     H30124   3.189   6.550   8.798  5.6661  0.1226 -0.3072
  943MOL0     H30125   3.116   6.457   8.927 -3.5213  2.1655 -3.8797
  943MOL0     H30126   3.348   6.391   8.996  2.1457 -2.9945 -1.1263
  943MOL0     H30127   3.333   6.372   8.817  0.2616 -1.0514  1.3324
  943MOL0     H30128   3.472   6.599   8.968  3.6867 -0.5256 -0.5276
  943MOL0     H30129   3.424   6.604   8.801 -1.1810  0.6682  1.1839
  943MOL0     H30130   3.778   6.366   8.855  0.3063 -1.0275 -2.7059
  943MOL0     H30131   3.327   6.876   9.085  0.6109  0.9345 -0.0037
  943MOL0     H30132   3.371   7.121   9.270 -0.1398 -0.4714  0.4075
  943MOL0     H30133   3.539   7.076   9.290 -0.3852  0.7968  1.3955
  943MOL0     H30134   3.465   7.038   9.135 -0.2862 -3.8624  0.5402
  944MOL0     O30135   0.799   9.183  11.195 -0.1129 -0.6050  0.6386
  944MOL0     C30136   0.782   9.210  11.077  0.0551 -0.5448 -0.7580
  944MOL0     O30137   0.784   9.332  11.029  0.6076  0.2580  0.1697
  944MOL0     C30138   0.801   9.442  11.105  0.0227 -0.0731 -0.5991
  944MOL0     C30139   0.785   9.463  11.241  0.1184 -0.5436  0.6948
  944MOL0     C30140   0.794   9.591  11.293 -0.0452  0.4680  0.2411
  944MOL0     C30141   0.818   9.705  11.216 -0.3819 -0.4141 -0.1268
  944MOL0     O30142   0.819   9.834  11.266  0.1464  0.4227 -0.3525
  944MOL0     C30143   0.773   9.842  11.403 -0.7127  0.4338  0.8687
  944MOL0     C30144   0.777   9.984  11.445  0.1283  0.4236 -0.0547
  944MOL0     C30145   0.723   9.990  11.588  0.0090  0.2943 -0.4565
  944MOL0     C30146   0.720  10.138  11.635 -0.1843  0.0462 -0.4144
  944MOL0     C30147   0.654  10.153  11.776 -0.0398  0.7735  0.7991
  944MOL0     C30148   0.705  10.083  11.900  0.1908 -0.3475 -0.3517
  944MOL0     C30149   0.842  10.129  11.933  0.2787  0.4366  0.0628
  944MOL0     C30150   0.849  10.118  12.089  0.5062 -0.2394 -0.2237
  944MOL0     N30151   0.880   9.978  12.128  0.2937 -0.9190  0.6059
  944MOL0     C30152   0.797   9.895  12.197  0.5217 -0.3165 -0.5620
  944MOL0     C30153   0.861   9.778  12.210 -0.2013  0.6613 -0.5454
  944MOL0     C30154   0.812   9.657  12.280 -0.6919 -0.4002  0.7870
  944MOL0     C30155   0.723   9.581  12.184  0.1165  0.5649  0.0707
  944MOL0     C30156   0.706   9.440  12.226  0.5619 -1.3795 -0.0380
  944MOL0     C30157   0.605   9.365  12.141  0.6647 -0.5745 -0.1040
  944MOL0     O30158   0.608   9.227  12.188 -0.8235 -0.9237 -0.2699
  944MOL0     C30159   0.686   9.128  12.126  0.3243 -0.0720  0.0147
  944MOL0     C30160   0.648   8.990  12.139  0.5518 -0.4776 -0.2282
  944MOL0     C30161   0.708   8.882  12.070 -0.5933 -0.1325 -0.5815
  944MOL0     C30162   0.632   8.755  12.040 -0.4260  0.6197 -0.0752
  944MOL0     C30163   0.831   8.909  12.007  0.2359 -0.1074  0.6482
  944MOL0     C30164   0.926   8.810  11.955  0.5033  0.4665 -0.1815
  944MOL0     O30165   0.950   8.714  12.047 -0.2299 -1.0070 -0.3912
  944MOL0     C30166   1.032   8.618  11.996 -0.7508  0.0701 -0.5954
  944MOL0     C30167   1.176   8.617  12.023  0.9824  0.0702 -0.4515
  944MOL0     C30168   1.254   8.514  11.978 -0.4376  0.3009 -0.0305
  944MOL0     C30169   1.190   8.400  11.918 -0.9504 -0.6253 -0.5623
  944MOL0     O30170   1.258   8.283  11.898  0.4555 -0.0164  0.5775
  944MOL0     C30171   1.388   8.276  11.840  0.5915 -0.0889  0.1005
  944MOL0     C30172   1.415   8.130  11.798 -0.4125 -0.7950  0.1035
  944MOL0     C30173   1.444   8.038  11.920 -0.7542 -0.9147  0.3764
  944MOL0     C30174   1.508   7.906  11.879 -0.4968  0.5407 -0.4494
  944MOL0     C30175   1.521   7.825  12.009  0.1991 -0.6305 -0.0010
  944MOL0     C30176   1.557   7.675  11.977  0.7798  0.2518  0.1399
  944MOL0     C30177   1.551   7.574  12.097  0.5916  0.7191  0.0075
  944MOL0     C30178   1.614   7.622  12.225 -0.0589 -0.3031  0.1458
  944MOL0    Cl30179   1.660   7.479  12.324 -0.1458 -0.0409  0.0850
  944MOL0     C30180   1.052   8.394  11.905 -1.0544  0.6723 -0.0257
  944MOL0     C30181   0.973   8.507  11.940 -1.6475 -0.4792  0.4453
  944MOL0     O30182   0.970   8.816  11.840 -0.3493 -0.0350 -0.1390
  944MOL0     C30183   0.874   9.042  12.001 -0.5383  0.0475  0.0889
  944MOL0     C30184   0.802   9.153  12.052  0.4724 -0.3224 -0.7753
  944MOL0     N30185   0.988   9.802  12.162 -0.5371 -0.2151  0.6125
  944MOL0     N30186   1.002   9.923  12.118 -0.6927  1.1025  0.2279
  944MOL0     C30187   0.852   9.688  11.088 -0.3690 -0.6655  1.1562
  944MOL0     C30188   0.838   9.561  11.026  0.5238  0.7925 -0.0453
  944MOL0     C30189   0.780   9.107  10.965  0.3563  0.8333  0.1819
  944MOL0     C30190   0.760   9.152  10.835  0.4267  0.4059 -0.0473
  944MOL0     C30191   0.739   9.066  10.725  0.2141  0.6577 -0.5986
  944MOL0     C30192   0.725   8.932  10.747  0.2180  0.8620 -0.5339
  944MOL0     O30193   0.681   8.862  10.636 -0.2223  0.6717 -0.2257
  944MOL0     C30194   0.674   8.717  10.649 -0.2615  0.1437  0.0388
  944MOL0     C30195   0.667   8.645  10.513  0.1724  0.2410 -0.4207
  944MOL0     C30196   0.582   8.514  10.521 -0.6480 -0.0901  0.0867
  944MOL0     C30197   0.668   8.395  10.579  0.2714  0.6727  0.8171
  944MOL0     C30198   0.689   8.406  10.722  0.1339  0.9360  0.0869
  944MOL0     C30199   0.731   8.422  10.835  0.1572  0.0375 -0.0685
  944MOL0     C30200   0.754   8.875  10.876  0.3522 -0.7597  0.1751
  944MOL0     C30201   0.785   8.963  10.980 -0.3604  0.1744  0.4484
  944MOL0     C30202   0.802   8.900  11.113  0.6589  1.7936  0.7327
  944MOL0     H30203   0.741   9.388  11.307 -1.2753  0.1740  0.6285
  944MOL0     H30204   0.779   9.580  11.400  0.2358  0.0618  0.2437
  944MOL0     H30205   0.849   9.802  11.470  0.4491  2.9158  1.1372
  944MOL0     H30206   0.679   9.788  11.420  0.6014 -2.4500 -0.3506
  944MOL0     H30207   0.874  10.033  11.437 -0.1844  1.0721  0.0453
  944MOL0     H30208   0.717  10.041  11.374  1.7505  0.3397 -1.5462
  944MOL0     H30209   0.627   9.937  11.587 -0.1620  0.1887  3.6249
  944MOL0     H30210   0.780   9.933  11.663 -0.1174 -1.0914 -1.3781
  944MOL0     H30211   0.821  10.176  11.654  0.0674 -0.8658  0.1615
  944MOL0     H30212   0.674  10.200  11.557  0.1580  0.2074 -0.4894
  944MOL0     H30213   0.551  10.117  11.769  0.0384  0.4851  1.0912
  944MOL0     H30214   0.636  10.259  11.797 -1.1186  0.9549 -0.9079
  944MOL0     H30215   0.633  10.112  11.978  1.5852  1.5470  0.2978
  944MOL0     H30216   0.697   9.975  11.891  0.1390 -0.6227  2.3094
  944MOL0     H30217   0.863  10.227  11.891  2.3590  0.3036  0.6965
  944MOL0     H30218   0.916  10.064  11.885  1.3785  1.4789  0.3142
  944MOL0     H30219   0.920  10.192  12.126  2.5724 -0.5815 -3.1499
  944MOL0     H30220   0.760  10.150  12.145 -0.0043 -1.9414  0.0134
  944MOL0     H30221   0.692   9.893  12.225  0.2207 -0.6836 -1.6641
  944MOL0     H30222   0.762   9.681  12.375 -3.6128 -3.1971  0.1271
  944MOL0     H30223   0.903   9.601  12.304  0.7445  1.6831  0.4807
  944MOL0     H30224   0.627   9.629  12.163 -0.5948 -1.6390 -2.2576
  944MOL0     H30225   0.758   9.581  12.080 -0.5214  0.7349 -0.1508
  944MOL0     H30226   0.804   9.391  12.226  0.2720 -1.9527  0.2379
  944MOL0     H30227   0.676   9.440  12.331 -1.7723  0.4609 -0.6033
  944MOL0     H30228   0.505   9.403  12.164  1.2341  0.6180  0.5325
  944MOL0     H30229   0.637   9.365  12.036  4.2209  0.8438  0.8215
  944MOL0     H30230   0.555   8.969  12.190 -0.0324 -2.0173 -1.8395
  944MOL0     H30231   0.535   8.797  12.010 -0.0962  0.6505 -1.1170
  944MOL0     H30232   0.633   8.698  12.134 -2.0378 -2.0905 -1.5872
  944MOL0     H30233   0.664   8.703  11.950 -3.0246 -1.7455  0.2311
  944MOL0     H30234   1.203   8.701  12.086 -3.4117  1.2681  0.2231
  944MOL0     H30235   1.360   8.523  12.003 -0.2254 -0.8658 -0.4445
  944MOL0     H30236   1.392   8.350  11.759  1.6040  2.2411  2.1350
  944MOL0     H30237   1.461   8.304  11.916 -1.2346  0.2827  1.7936
  944MOL0     H30238   1.337   8.102  11.727  0.3607  0.8370 -1.4567
  944MOL0     H30239   1.508   8.140  11.742 -1.9411  2.9558 -2.1272
  944MOL0     H30240   1.353   8.023  11.980 -1.7696 -1.0308 -1.1351
  944MOL0     H30241   1.523   8.083  11.981  0.3830 -2.8220  0.3835
  944MOL0     H30242   1.601   7.904  11.822 -0.4937 -2.3547 -0.4734
  944MOL0     H30243   1.438   7.858  11.810  0.2471  0.8571 -1.4478
  944MOL0     H30244   1.607   7.866  12.064  2.2997 -0.7177 -3.0266
  944MOL0     H30245   1.442   7.830  12.086  0.3219 -2.9600  0.3441
  944MOL0     H30246   1.657   7.672  11.933  2.0164 -0.9048  2.7950
  944MOL0     H30247   1.483   7.638  11.905 -0.1075 -0.6753  1.4839
  944MOL0     H30248   1.590   7.477  12.064  0.7270  0.6815  0.2719
  944MOL0     H30249   1.445   7.564  12.122  0.3138  2.9415 -0.0864
  944MOL0     H30250   1.532   7.674  12.276 -1.3557  1.1492 -3.1667
  944MOL0     H30251   1.707   7.677  12.207  1.5882 -2.8853  0.2694
  944MOL0     H30252   1.015   8.312  11.845  2.0679 -0.6865 -0.2847
  944MOL0     H30253   0.868   8.508  11.913 -1.3160 -0.7866 -0.9656
  944MOL0     H30254   0.968   9.068  11.952 -1.6392  2.8828 -0.6762
  944MOL0     H30255   0.836   9.255  12.040  0.2546 -0.1590 -0.0171
  944MOL0     H30256   0.876   9.769  11.020  3.1622 -2.0193  0.5683
  944MOL0     H30257   0.849   9.555  10.918  2.7354  2.4120  0.0307
  944MOL0     H30258   0.766   9.256  10.804  2.3398  0.0135 -1.1109
  944MOL0     H30259   0.712   9.118  10.633 -1.8882 -0.7332 -0.8453
  944MOL0     H30260   0.764   8.689  10.705  0.1499 -0.8122 -1.0702
  944MOL0     H30261   0.593   8.696  10.720 -0.0756  1.4617  0.6899
  944MOL0     H30262   0.764   8.628  10.465  0.3400  0.8864 -0.3103
  944MOL0     H30263   0.607   8.713  10.453  3.1483  3.0609 -0.4710
  944MOL0     H30264   0.490   8.531  10.578  0.7020 -1.1339  2.7533
  944MOL0     H30265   0.562   8.496  10.415  0.7775  1.2372 -0.4429
  944MOL0     H30266   0.759   8.408  10.519 -0.9026  2.9178 -0.5959
  944MOL0     H30267   0.616   8.300  10.568 -0.2074  0.6544  2.8561
  944MOL0     H30268   0.755   8.424  10.940  0.0806  2.2660 -0.0367
  944MOL0     H30269   0.748   8.769  10.898 -0.7691 -1.1542 -1.8089
  944MOL0     H30270   0.741   8.951  11.189 -0.3480  1.2760  0.2957
  944MOL0     H30271   0.771   8.795  11.115  1.4977  1.4873 -0.8295
  944MOL0     H30272   0.910   8.902  11.131  0.9869 -0.7023 -0.5126
  945MOL0     O30273   9.107   8.095   6.745  0.6567  0.0760  0.2959
  945MOL0     C30274   9.165   7.997   6.701 -0.0356 -0.9658 -0.0933
  945MOL0     O30275   9.253   8.001   6.594 -0.5273 -0.4464  0.1426
  945MOL0     C30276   9.301   8.125   6.545  0.7566  0.1941  0.1567
  945MOL0     C30277   9.431   8.174   6.552 -0.8065  0.3562  0.0485
  945MOL0     C30278   9.468   8.291   6.500 -0.7027 -0.1888  0.4599
  945MOL0     C30279   9.376   8.374   6.440  0.1114 -0.1623  0.1285
  945MOL0     O30280   9.425   8.482   6.376 -0.6572  1.2825 -0.0523
  945MOL0     C30281   9.509   8.572   6.445  0.3921  0.1021  1.6964
  945MOL0     C30282   9.519   8.706   6.360  0.0788  0.5124  1.0839
  945MOL0     C30283   9.608   8.813   6.439 -0.9434  0.0038 -0.0296
  945MOL0     C30284   9.603   8.939   6.365  0.0552  0.0588  0.9992
  945MOL0     C30285   9.658   9.062   6.437  0.2904 -0.0172 -0.4434
  945MOL0     C30286   9.673   9.170   6.328  0.4663  0.3311 -1.0134
  945MOL0     C30287   9.707   9.302   6.401 -1.1739  1.3023  0.0007
  945MOL0     C30288   9.678   9.438   6.332  0.1206  0.3168 -0.0010
  945MOL0     N30289   9.721   9.433   6.197  0.3075  0.3211  1.2127
  945MOL0     C30290   9.857   9.424   6.165 -0.6008  0.2062 -0.6405
  945MOL0     C30291   9.861   9.382   6.042  0.0293 -0.6398 -0.0500
  945MOL0     C30292   9.983   9.378   5.973  0.6732  0.1905  0.2931
  945MOL0     C30293   9.985   9.269   5.866  0.2735 -0.3439  0.9979
  945MOL0     C30294   9.978   9.129   5.931 -0.1127 -1.4242 -0.4163
  945MOL0     C30295  10.031   9.024   5.827 -0.2806  0.6201 -0.7497
  945MOL0     O30296   9.923   9.000   5.736  0.6016 -0.8619 -0.0599
  945MOL0     C30297   9.952   8.919   5.633 -0.0408 -0.7638  1.5584
  945MOL0     C30298  10.073   8.861   5.606  0.4704  0.2699  0.4088
  945MOL0     C30299  10.101   8.794   5.481 -0.0434  0.4984 -0.3008
  945MOL0     C30300  10.246   8.747   5.459 -0.2083 -0.3506  0.2693
  945MOL0     C30301   9.999   8.777   5.384 -0.3055  1.0754 -0.1393
  945MOL0     C30302  10.013   8.689   5.260  0.1085 -0.5091  0.3751
  945MOL0     O30303   9.906   8.697   5.179 -0.4952  0.5081  0.3144
  945MOL0     C30304   9.888   8.593   5.082 -0.1785 -0.1308 -0.0120
  945MOL0     C30305   9.971   8.588   4.973  0.7397  0.2180 -0.7239
  945MOL0     C30306   9.942   8.510   4.874 -0.3072 -0.2225 -0.1203
  945MOL0     C30307   9.858   8.402   4.879  0.1554 -0.0853 -0.7232
  945MOL0     O30308   9.861   8.316   4.771  0.1775  0.0180 -1.1559
  945MOL0     C30309   9.834   8.177   4.801  0.5972 -0.2796 -0.8901
  945MOL0     C30310   9.682   8.152   4.785 -0.1577 -0.0404 -0.3146
  945MOL0     C30311   9.646   8.158   4.631 -0.8454 -0.3807 -0.6941
  945MOL0     C30312   9.530   8.254   4.594  0.3629 -1.0543 -0.1118
  945MOL0     C30313   9.512   8.278   4.446  0.4945 -0.2514 -0.7006
  945MOL0     C30314   9.406   8.378   4.414  0.0858  0.3520  0.1111
  945MOL0     C30315   9.360   8.381   4.260  0.3778 -0.7825 -0.6506
  945MOL0     C30316   9.470   8.396   4.161 -0.3307 -0.5704  0.3600
  945MOL0    Cl30317   9.578   8.537   4.209 -0.4611  0.1027  0.2769
  945MOL0     C30318   9.782   8.393   4.999 -2.0402  0.6209 -0.4969
  945MOL0     C30319   9.797   8.493   5.095 -0.4362  0.1044  0.1667
  945MOL0     O30320  10.106   8.620   5.235 -0.4619 -0.0028  0.7061
  945MOL0     C30321   9.872   8.841   5.411 -0.6728  0.7894  0.2310
  945MOL0     C30322   9.849   8.912   5.533  0.2656  0.9057  0.2463
  945MOL0     N30323   9.734   9.377   5.989 -0.7821  0.1061 -0.3643
  945MOL0     N30324   9.652   9.373   6.087  0.5019  0.0245 -0.7009
  945MOL0     C30325   9.243   8.345   6.435 -0.4023  0.8059  0.0587
  945MOL0     C30326   9.212   8.212   6.472  0.0720 -0.0359  0.5030
  945MOL0     C30327   9.145   7.860   6.759  0.3956  0.0967  0.3040
  945MOL0     C30328   9.137   7.756   6.674  0.6918  0.2614  0.2137
  945MOL0     C30329   9.115   7.626   6.714  0.0926 -0.3136 -0.4723
  945MOL0     C30330   9.108   7.597   6.855  0.4917  0.3160  0.4124
  945MOL0     O30331   9.070   7.476   6.904 -0.6393 -0.3865 -0.2887
  945MOL0     C30332   9.092   7.444   7.038  0.3127 -1.2897  0.2732
  945MOL0     C30333   9.130   7.294   7.051 -0.5337 -0.4864  0.6816
  945MOL0     C30334   9.129   7.264   7.206 -0.9559  0.1347  0.3535
  945MOL0     C30335   9.118   7.112   7.213  0.1552  0.5251  0.0735
  945MOL0     C30336   9.245   7.041   7.225  0.1769  0.2925 -0.4839
  945MOL0     C30337   9.357   6.997   7.230  0.5789  0.8681  0.3920
  945MOL0     C30338   9.115   7.706   6.943  0.3059 -0.4786 -0.7695
  945MOL0     C30339   9.121   7.836   6.899  0.1755  0.7096  1.7077
  945MOL0     C30340   9.131   7.958   6.990 -0.8238  0.0060 -0.1162
  945MOL0     H30341   9.513   8.118   6.596  0.3491  0.4700 -1.8574
  945MOL0     H30342   9.572   8.318   6.487 -0.7287 -0.0761  0.4922
  945MOL0     H30343   9.605   8.521   6.458 -0.7199 -2.9238 -0.6278
  945MOL0     H30344   9.469   8.607   6.541 -0.8573  2.9386  0.2803
  945MOL0     H30345   9.567   8.677   6.266 -0.9591 -1.0276  0.9963
  945MOL0     H30346   9.417   8.737   6.336 -0.7406  0.0881  3.6397
  945MOL0     H30347   9.569   8.833   6.540 -0.4623 -1.1311  0.3963
  945MOL0     H30348   9.709   8.772   6.432  0.3500  2.5966  1.6288
  945MOL0     H30349   9.656   8.914   6.273 -2.8852 -0.7948 -0.5875
  945MOL0     H30350   9.501   8.955   6.328  0.6810 -2.0668 -1.9792
  945MOL0     H30351   9.759   9.045   6.475  0.7713  3.5171  0.2251
  945MOL0     H30352   9.586   9.098   6.512  1.3966  0.2411  0.5303
  945MOL0     H30353   9.751   9.156   6.252  0.7238  0.3618 -0.7558
  945MOL0     H30354   9.579   9.177   6.271  0.1235  2.7641 -0.2712
  945MOL0     H30355   9.809   9.306   6.440 -0.3806  1.9162 -1.9989
  945MOL0     H30356   9.639   9.309   6.486 -2.4289  1.7945 -1.0106
  945MOL0     H30357   9.570   9.447   6.343 -0.3563 -2.2968 -1.7198
  945MOL0     H30358   9.724   9.525   6.380 -1.2294  1.7260 -1.1579
  945MOL0     H30359   9.942   9.447   6.230 -0.2285  0.5938 -1.2556
  945MOL0     H30360  10.065   9.369   6.044 -0.0711 -2.8332  0.9227
  945MOL0     H30361   9.987   9.478   5.930  0.2322 -0.2268 -0.7510
  945MOL0     H30362   9.896   9.299   5.810  0.9321 -1.7633 -0.9357
  945MOL0     H30363  10.076   9.272   5.805  1.0695 -0.3326  2.1606
  945MOL0     H30364  10.031   9.133   6.027  1.3306  3.1964 -1.1481
  945MOL0     H30365   9.879   9.103   5.970 -0.1529 -0.9794 -0.2136
  945MOL0     H30366  10.125   9.066   5.788 -0.0342 -0.7405 -1.6844
  945MOL0     H30367  10.044   8.923   5.866 -0.7393  0.8229 -0.0600
  945MOL0     H30368  10.161   8.893   5.662 -0.3208 -1.0397  2.4991
  945MOL0     H30369  10.254   8.638   5.468 -2.4243 -0.6141 -0.3953
  945MOL0     H30370  10.322   8.797   5.519 -0.0042 -0.2950 -0.0290
  945MOL0     H30371  10.270   8.766   5.354  3.4158  0.9104  1.1880
  945MOL0     H30372  10.042   8.670   4.974  0.2010  0.8442  3.1052
  945MOL0     H30373   9.999   8.521   4.783 -0.8751 -2.4061 -0.7972
  945MOL0     H30374   9.894   8.104   4.745 -1.0187 -0.1363 -2.9475
  945MOL0     H30375   9.859   8.152   4.904  0.9866 -0.3276 -0.9944
  945MOL0     H30376   9.647   8.055   4.822 -1.0247  1.2789  2.5730
  945MOL0     H30377   9.623   8.218   4.848  0.4839 -0.7697  1.0898
  945MOL0     H30378   9.630   8.056   4.595 -2.4375 -1.4380  2.5586
  945MOL0     H30379   9.727   8.208   4.578 -1.6692  1.1480 -0.5515
  945MOL0     H30380   9.550   8.355   4.631 -0.8505 -0.4174 -1.0954
  945MOL0     H30381   9.439   8.209   4.635 -0.4934  0.8529  0.2223
  945MOL0     H30382   9.607   8.316   4.407 -0.6951  1.1943 -2.3567
  945MOL0     H30383   9.500   8.184   4.392 -0.9902 -0.5834  0.1614
  945MOL0     H30384   9.456   8.473   4.428  1.8598 -0.5309 -0.0119
  945MOL0     H30385   9.310   8.370   4.466  0.6241  3.9278  1.8954
  945MOL0     H30386   9.287   8.462   4.264 -0.2810 -1.4055  0.3213
  945MOL0     H30387   9.320   8.280   4.247  2.3722 -1.4118 -2.6311
  945MOL0     H30388   9.435   8.420   4.060 -0.1418 -1.8962 -0.0302
  945MOL0     H30389   9.522   8.300   4.157  2.7289  0.7704  3.0006
  945MOL0     H30390   9.733   8.300   5.027  2.2783 -1.7710  0.0641
  945MOL0     H30391   9.746   8.481   5.190  1.1656 -1.3800  0.9207
  945MOL0     H30392   9.787   8.824   5.346  0.4843  0.6661 -1.2862
  945MOL0     H30393   9.744   8.935   5.548 -0.5946  1.2763 -4.6882
  945MOL0     H30394   9.166   8.403   6.385 -1.1576 -1.4643 -1.5713
  945MOL0     H30395   9.111   8.180   6.451  0.9503 -1.7045 -1.5094
  945MOL0     H30396   9.157   7.767   6.568 -1.5288 -1.3779 -0.4240
  945MOL0     H30397   9.098   7.546   6.643 -2.4002 -0.0389 -0.2604
  945MOL0     H30398   9.171   7.497   7.092  1.0736  1.5548 -3.1824
  945MOL0     H30399   8.996   7.467   7.084 -0.6379  1.6619 -2.7417
  945MOL0     H30400   9.230   7.274   7.012  0.4016  2.7478  1.0715
  945MOL0     H30401   9.049   7.240   7.001 -0.9387  1.2106 -0.6206
  945MOL0     H30402   9.221   7.300   7.253 -2.5089 -0.1493  3.9857
  945MOL0     H30403   9.051   7.325   7.253  0.4908  0.8896  1.8926
  945MOL0     H30404   9.067   7.076   7.123 -1.2651  1.6056  0.4070
  945MOL0     H30405   9.053   7.094   7.300 -0.2591 -3.6980 -0.9234
  945MOL0     H30406   9.450   6.946   7.240 -0.8600 -1.8129  1.2142
  945MOL0     H30407   9.107   7.703   7.051  1.7577  1.0451 -0.5742
  945MOL0     H30408   9.058   8.038   6.972 -0.4124  0.1909 -1.0169
  945MOL0     H30409   9.132   7.925   7.094 -2.9523 -0.2049 -0.1178
  945MOL0     H30410   9.226   8.007   6.967  0.3336 -2.6027 -1.2665
  946MOL0     O30411   1.641   5.258   5.337 -0.0810  0.7569  0.0001
  946MOL0     C30412   1.568   5.271   5.436 -0.2787 -0.2746 -0.5148
  946MOL0     O30413   1.517   5.389   5.492  0.0389  0.4919 -0.1851
  946MOL0     C30414   1.538   5.501   5.421  0.0110 -0.3229  0.4938
  946MOL0     C30415   1.587   5.618   5.481  0.8578 -0.1795 -0.2395
  946MOL0     C30416   1.604   5.737   5.412  0.7819 -0.5210 -0.2642
  946MOL0     C30417   1.572   5.754   5.277  1.7622  0.1590 -0.4459
  946MOL0     O30418   1.564   5.870   5.207 -0.0754 -0.9185  0.4088
  946MOL0     C30419   1.608   5.986   5.281 -0.1413 -0.9270  0.2146
  946MOL0     C30420   1.632   6.102   5.183  0.3909  0.3934 -0.0266
  946MOL0     C30421   1.742   6.071   5.079 -0.0201  0.1201 -0.6071
  946MOL0     C30422   1.781   6.204   5.012 -0.5774 -0.2846  0.1950
  946MOL0     C30423   1.861   6.193   4.878 -0.5344 -0.1639  1.4485
  946MOL0     C30424   1.972   6.085   4.866  0.0241  0.8396 -0.3690
  946MOL0     C30425   2.107   6.112   4.919 -0.3736 -1.1092  0.3287
  946MOL0     C30426   2.174   5.985   4.967  0.1403  0.6932 -0.1962
  946MOL0     N30427   2.119   5.970   5.109 -0.4790 -0.4743 -0.2518
  946MOL0     C30428   2.136   5.854   5.178  0.4778 -0.7120 -0.4709
  946MOL0     C30429   2.085   5.880   5.305  0.0968  1.1036 -0.5524
  946MOL0     C30430   2.083   5.784   5.424 -0.2096 -0.5774  0.3109
  946MOL0     C30431   2.232   5.748   5.455 -0.6423  0.4424  0.6314
  946MOL0     C30432   2.320   5.870   5.491 -0.5683 -0.6636 -0.0152
  946MOL0     C30433   2.457   5.824   5.537 -1.0322 -0.0764  0.1338
  946MOL0     O30434   2.540   5.939   5.572 -0.5468 -0.1221  0.0517
  946MOL0     C30435   2.539   5.986   5.702  0.5322 -1.0348 -0.2067
  946MOL0     C30436   2.636   6.075   5.730  0.0012 -0.5862  0.2883
  946MOL0     C30437   2.664   6.120   5.856  0.6900  0.1051  0.2806
  946MOL0     C30438   2.791   6.212   5.865 -0.1167  0.1327 -0.3584
  946MOL0     C30439   2.591   6.074   5.965 -0.5319 -0.2084 -0.0654
  946MOL0     C30440   2.623   6.132   6.101  1.0003  0.3010 -0.2205
  946MOL0     O30441   2.579   6.054   6.212 -0.0369  0.2729 -0.7270
  946MOL0     C30442   2.598   6.119   6.332  0.0297  0.5417  0.1382
  946MOL0     C30443   2.724   6.155   6.380  0.0026 -0.3710  0.6581
  946MOL0     C30444   2.733   6.232   6.496  0.3419  0.0283 -0.4368
  946MOL0     C30445   2.613   6.274   6.565  0.2426  0.8589 -0.3359
  946MOL0     O30446   2.607   6.332   6.680 -0.2101  0.1882 -0.2611
  946MOL0     C30447   2.706   6.433   6.716  0.2680  0.2859  0.6178
  946MOL0     C30448   2.640   6.533   6.812 -0.4031  0.0923 -0.1442
  946MOL0     C30449   2.614   6.461   6.949 -0.3989  0.6054  0.8051
  946MOL0     C30450   2.549   6.567   7.039  0.3713 -0.1872 -0.5519
  946MOL0     C30451   2.581   6.544   7.188 -0.1342 -0.0022 -0.2899
  946MOL0     C30452   2.516   6.420   7.239 -0.1512  0.3226 -0.3872
  946MOL0     C30453   2.571   6.400   7.379 -0.4808  0.1756  0.0877
  946MOL0     C30454   2.603   6.257   7.420 -0.3668 -0.3654  0.2262
  946MOL0    Cl30455   2.627   6.272   7.597 -0.3248  0.0192  0.2477
  946MOL0     C30456   2.493   6.218   6.516 -0.5883  0.0157  0.3979
  946MOL0     C30457   2.485   6.152   6.397 -0.3252  0.6337  0.2937
  946MOL0     O30458   2.661   6.246   6.111 -0.0310 -0.4369  0.1060
  946MOL0     C30459   2.497   5.972   5.943  0.4402  0.2680  0.3376
  946MOL0     C30460   2.469   5.936   5.809  0.2995  0.2183  0.7465
  946MOL0     N30461   2.064   6.012   5.311  0.1462  0.0368 -0.3988
  946MOL0     N30462   2.068   6.066   5.197 -0.5858  0.2520 -0.0356
  946MOL0     C30463   1.537   5.636   5.208 -0.3870 -0.2047  0.1245
  946MOL0     C30464   1.518   5.514   5.281 -0.6329  0.6169 -0.4050
  946MOL0     C30465   1.536   5.159   5.524 -0.3981 -0.4144 -0.1787
  946MOL0     C30466   1.493   5.177   5.657  0.0414 -0.3409 -0.1392
  946MOL0     C30467   1.465   5.071   5.745  0.5439 -1.0579  0.2370
  946MOL0     C30468   1.452   4.942   5.694  1.7962  0.1621  0.2893
  946MOL0     O30469   1.406   4.844   5.784 -0.2395  0.2901  0.2171
  946MOL0     C30470   1.411   4.707   5.741  0.2827  0.0633 -0.0428
  946MOL0     C30471   1.553   4.654   5.725  0.0217 -1.1701 -0.7415
  946MOL0     C30472   1.555   4.496   5.716  0.6859  0.3186 -0.1019
  946MOL0     C30473   1.696   4.448   5.713  0.9151  0.2673 -0.0037
  946MOL0     C30474   1.751   4.402   5.839 -0.5861 -0.5377 -0.2103
  946MOL0     C30475   1.808   4.373   5.943  0.3172  0.2657  0.1571
  946MOL0     C30476   1.485   4.924   5.560 -0.1522  0.5006 -0.2170
  946MOL0     C30477   1.531   5.029   5.477 -0.0449 -0.6047 -0.6771
  946MOL0     C30478   1.560   4.998   5.332  0.0102 -0.2645  0.9274
  946MOL0     H30479   1.608   5.606   5.587  2.3050 -2.7439 -0.7454
  946MOL0     H30480   1.650   5.821   5.462 -1.9514 -0.4473  2.4283
  946MOL0     H30481   1.700   5.969   5.337  1.8821 -0.6085 -2.7861
  946MOL0     H30482   1.526   6.013   5.348  0.4244  0.9527  0.2101
  946MOL0     H30483   1.549   6.130   5.117 -0.0656  5.2707  2.1993
  946MOL0     H30484   1.649   6.196   5.236  0.1574  2.6728 -3.5983
  946MOL0     H30485   1.836   6.030   5.117  0.5887  3.1224  1.4511
  946MOL0     H30486   1.710   6.000   5.002  1.9217 -2.8015  1.0831
  946MOL0     H30487   1.697   6.272   5.001  0.3650  0.7268 -1.0415
  946MOL0     H30488   1.855   6.254   5.076 -1.0829 -1.5132  1.8185
  946MOL0     H30489   1.898   6.287   4.837 -1.4047 -1.3630 -2.5752
  946MOL0     H30490   1.783   6.174   4.803  0.7246  0.6834 -0.1328
  946MOL0     H30491   1.935   5.995   4.917 -0.8677  2.2196  1.5656
  946MOL0     H30492   2.000   6.053   4.765  2.5092 -1.6343  0.9464
  946MOL0     H30493   2.116   6.189   4.996  1.6009 -1.5863  0.6422
  946MOL0     H30494   2.171   6.152   4.840 -1.2464 -1.7444 -0.7173
  946MOL0     H30495   2.137   5.898   4.910  0.2924 -0.6555  1.6661
  946MOL0     H30496   2.283   5.983   4.971  0.1595 -2.6874  1.0352
  946MOL0     H30497   2.172   5.756   5.149  0.5155 -0.8322 -0.0380
  946MOL0     H30498   2.024   5.697   5.392 -1.2881  0.6424 -1.1702
  946MOL0     H30499   2.026   5.816   5.511  2.4589  0.3236  1.8272
  946MOL0     H30500   2.243   5.672   5.532 -0.4888 -0.2320 -0.0472
  946MOL0     H30501   2.273   5.700   5.365 -3.4560  0.8722 -0.9927
  946MOL0     H30502   2.339   5.933   5.404 -1.4937  0.2874  0.4407
  946MOL0     H30503   2.271   5.936   5.563  0.8696  2.0438 -1.3692
  946MOL0     H30504   2.472   5.747   5.614 -0.6493  1.6126  1.8531
  946MOL0     H30505   2.513   5.776   5.456  0.8586  1.7281  0.2618
  946MOL0     H30506   2.695   6.113   5.647  1.0472 -1.9059  0.3868
  946MOL0     H30507   2.756   6.316   5.870  1.4410  0.6302  0.6469
  946MOL0     H30508   2.864   6.192   5.786  0.7606 -0.6006  0.6271
  946MOL0     H30509   2.843   6.186   5.957 -1.2345  0.6764  0.4648
  946MOL0     H30510   2.815   6.131   6.327 -0.4853  3.4842 -2.4785
  946MOL0     H30511   2.836   6.255   6.523  0.2755 -0.0241 -0.1342
  946MOL0     H30512   2.790   6.379   6.760 -1.4086 -1.6975  1.5931
  946MOL0     H30513   2.733   6.493   6.629  0.4064 -0.3067  0.2499
  946MOL0     H30514   2.700   6.623   6.830  1.9252 -0.9063 -2.3521
  946MOL0     H30515   2.554   6.580   6.763 -0.2800  2.2961  1.6031
  946MOL0     H30516   2.708   6.428   6.995  0.7626 -0.4437 -2.1047
  946MOL0     H30517   2.549   6.375   6.936  0.5717 -0.1552  0.8605
  946MOL0     H30518   2.442   6.576   7.016 -0.4114  1.2060  2.9557
  946MOL0     H30519   2.590   6.666   7.017 -0.8853  0.2347 -1.1198
  946MOL0     H30520   2.688   6.541   7.208 -0.3981  3.0622  2.2444
  946MOL0     H30521   2.534   6.615   7.256 -0.7660 -2.9370  2.6186
  946MOL0     H30522   2.526   6.336   7.170 -0.5892  3.8258 -5.2703
  946MOL0     H30523   2.407   6.428   7.246 -0.7613 -2.5364 -3.7686
  946MOL0     H30524   2.488   6.431   7.444  0.7519 -0.0732  1.8561
  946MOL0     H30525   2.655   6.464   7.408  0.2087 -1.7845  2.9371
  946MOL0     H30526   2.683   6.215   7.358 -1.3778  2.7378 -3.6204
  946MOL0     H30527   2.519   6.190   7.402 -0.1518 -0.8983  1.1386
  946MOL0     H30528   2.401   6.239   6.570 -1.0282  1.3719 -0.8351
  946MOL0     H30529   2.388   6.137   6.352  0.9905  0.8708 -2.8894
  946MOL0     H30530   2.463   5.923   6.034  4.7999 -0.1961  1.9898
  946MOL0     H30531   2.395   5.861   5.786  0.8157  0.1835 -0.9277
  946MOL0     H30532   1.526   5.631   5.100 -0.2958 -2.1572  0.1723
  946MOL0     H30533   1.482   5.434   5.217  1.6572  0.2826 -1.3851
  946MOL0     H30534   1.498   5.277   5.699 -0.6509  0.0367 -0.9387
  946MOL0     H30535   1.459   5.085   5.853  0.3369 -2.6774  0.4567
  946MOL0     H30536   1.365   4.652   5.824 -1.4498  1.7421  0.1859
  946MOL0     H30537   1.341   4.691   5.659 -2.2722  0.5741  1.9100
  946MOL0     H30538   1.619   4.688   5.805 -0.8374 -0.9554 -0.1113
  946MOL0     H30539   1.605   4.688   5.635 -2.8674  4.9253 -0.6004
  946MOL0     H30540   1.503   4.439   5.794  1.2708  0.1409  0.1621
  946MOL0     H30541   1.508   4.455   5.626 -2.1754 -1.5479  2.0540
  946MOL0     H30542   1.766   4.516   5.664  0.2194 -0.1181 -1.6099
  946MOL0     H30543   1.693   4.360   5.648 -1.1960  1.2743 -1.3860
  946MOL0     H30544   1.854   4.330   6.030  1.7199  0.6820 -0.3552
  946MOL0     H30545   1.478   4.836   5.496 -0.1872  2.7436 -3.5409
  946MOL0     H30546   1.555   4.894   5.300  2.8840  0.4059 -2.3280
  946MOL0     H30547   1.497   5.054   5.262  2.5263 -0.5339 -1.7300
  946MOL0     H30548   1.661   5.032   5.306 -1.4443  2.6492 -1.6355
  947MOL0     O30549   7.579   7.756   1.441 -0.4183 -0.5117 -0.4787
  947MOL0     C30550   7.516   7.859   1.435 -0.3779  0.5281  0.7077
  947MOL0     O30551   7.385   7.860   1.421 -0.0950 -0.5316  0.1278
  947MOL0     C30552   7.314   7.748   1.451  0.0455  0.9960 -0.4527
  947MOL0     C30553   7.301   7.637   1.368 -0.4846 -0.4152 -0.1485
  947MOL0     C30554   7.233   7.528   1.401  0.7034 -0.3755 -0.1605
  947MOL0     C30555   7.158   7.527   1.528 -0.0673  0.7446 -0.6652
  947MOL0     O30556   7.086   7.414   1.551 -1.0172 -0.2299 -0.5292
  947MOL0     C30557   6.967   7.415   1.620 -1.1092 -0.1928  0.3120
  947MOL0     C30558   6.908   7.272   1.615 -1.2346  1.0407 -0.5292
  947MOL0     C30559   7.011   7.167   1.670  0.2189  0.1119  0.2648
  947MOL0     C30560   7.031   7.174   1.823  0.2099 -0.3238  0.1310
  947MOL0     C30561   7.156   7.102   1.862 -1.0289 -0.3396 -0.0331
  947MOL0     C30562   7.187   7.105   2.010  0.0148  0.1893  0.2888
  947MOL0     C30563   7.310   7.020   2.051 -0.1669 -0.6400 -0.7323
  947MOL0     C30564   7.444   7.046   1.977 -0.3417  0.1958 -0.4149
  947MOL0     N30565   7.554   7.070   2.072  1.2068  0.6572  0.4017
  947MOL0     C30566   7.576   7.193   2.120  0.5877 -0.2919  0.5533
  947MOL0     C30567   7.694   7.194   2.170 -0.1081  0.4321  1.0658
  947MOL0     C30568   7.761   7.317   2.233  0.3375 -0.7656 -0.4240
  947MOL0     C30569   7.868   7.378   2.146 -0.4321 -0.3043 -0.3838
  947MOL0     C30570   7.922   7.493   2.232  0.2224 -0.0022  0.9504
  947MOL0     C30571   8.004   7.598   2.152 -0.0588  0.2339  0.7146
  947MOL0     O30572   7.927   7.703   2.089  0.7690  0.8064  0.1947
  947MOL0     C30573   7.907   7.820   2.159  0.0597 -0.1515  0.4944
  947MOL0     C30574   7.829   7.918   2.102  0.1878  0.2158  0.0351
  947MOL0     C30575   7.771   8.030   2.173  0.2895  0.2600  0.4286
  947MOL0     C30576   7.682   8.119   2.080 -0.1153 -0.5267  0.5717
  947MOL0     C30577   7.806   8.049   2.308 -0.1664 -0.1054 -0.8102
  947MOL0     C30578   7.738   8.149   2.401  0.3354 -0.1263 -0.3241
  947MOL0     O30579   7.772   8.152   2.539 -0.0922 -0.0543 -0.3822
  947MOL0     C30580   7.694   8.218   2.639 -1.0888 -0.9496 -0.6097
  947MOL0     C30581   7.675   8.161   2.765  0.3037 -0.1728 -0.0757
  947MOL0     C30582   7.601   8.226   2.860  0.8281 -0.1479 -1.0307
  947MOL0     C30583   7.529   8.342   2.828 -0.3152  1.6282  0.7775
  947MOL0     O30584   7.448   8.377   2.928 -0.2937 -0.7868 -0.5829
  947MOL0     C30585   7.383   8.507   2.903  0.7469  0.3558 -0.3746
  947MOL0     C30586   7.316   8.539   3.041  0.1753  0.7700 -0.2866
  947MOL0     C30587   7.191   8.460   3.077 -0.1641 -0.3614 -0.4304
  947MOL0     C30588   7.215   8.324   3.151  0.3843 -0.2271  0.8535
  947MOL0     C30589   7.095   8.253   3.211  0.8382 -0.1200  0.2427
  947MOL0     C30590   7.145   8.140   3.308 -0.0767 -0.4345  0.1146
  947MOL0     C30591   7.033   8.033   3.349 -0.2128 -0.3655  0.1223
  947MOL0     C30592   6.908   8.084   3.419  0.4103 -0.2404  0.0663
  947MOL0    Cl30593   6.962   8.126   3.588 -0.2296 -0.1405 -0.1315
  947MOL0     C30594   7.542   8.396   2.709  0.0768 -0.3556 -0.4122
  947MOL0     C30595   7.628   8.345   2.615  0.1362  0.4834 -0.1743
  947MOL0     O30596   7.654   8.215   2.344 -0.3737 -0.0316 -0.6071
  947MOL0     C30597   7.894   7.953   2.360  0.3957 -0.5153 -0.1670
  947MOL0     C30598   7.941   7.847   2.292 -0.7411 -0.5611  0.5102
  947MOL0     N30599   7.761   7.073   2.146 -0.5902 -0.0199 -0.0069
  947MOL0     N30600   7.671   7.004   2.085  0.4074 -0.5888  0.7233
  947MOL0     C30601   7.155   7.640   1.618 -0.2459  1.2982  0.2470
  947MOL0     C30602   7.242   7.747   1.575 -1.4154 -0.1504 -0.3851
  947MOL0     C30603   7.573   7.992   1.465  0.5277 -0.1338  0.7757
  947MOL0     C30604   7.578   8.088   1.350  0.2184 -0.0520  0.2746
  947MOL0     C30605   7.650   8.205   1.360  0.1956  0.1402 -0.3492
  947MOL0     C30606   7.706   8.228   1.480 -0.2640 -0.0668 -0.4538
  947MOL0     O30607   7.757   8.347   1.512 -0.1400 -0.2731 -0.0046
  947MOL0     C30608   7.742   8.455   1.426 -0.4687  0.0416  0.5213
  947MOL0     C30609   7.834   8.574   1.449  0.8569 -0.8395 -0.2742
  947MOL0     C30610   7.799   8.677   1.346  0.0614  0.3303 -0.0892
  947MOL0     C30611   7.799   8.824   1.402 -0.1337 -0.8785 -0.6549
  947MOL0     C30612   7.690   8.836   1.503 -0.3856 -0.3906 -0.7662
  947MOL0     C30613   7.599   8.846   1.581 -0.1416  0.8443  0.1529
  947MOL0     C30614   7.701   8.139   1.589 -0.8627 -0.1690  0.4079
  947MOL0     C30615   7.638   8.017   1.581  0.1246  0.6403  0.0745
  947MOL0     C30616   7.656   7.912   1.698 -0.2302  0.5694  0.3301
  947MOL0     H30617   7.352   7.627   1.272  0.1147  2.0490 -0.1451
  947MOL0     H30618   7.227   7.450   1.326  1.8448 -1.0049  0.3788
  947MOL0     H30619   6.902   7.480   1.562 -1.3926 -3.7500 -3.8305
  947MOL0     H30620   6.991   7.453   1.720  2.3378  3.9017 -1.7277
  947MOL0     H30621   6.813   7.264   1.669 -0.4644  0.0391  0.7485
  947MOL0     H30622   6.890   7.256   1.508  0.4008 -1.7816 -0.4844
  947MOL0     H30623   6.979   7.065   1.647  2.1450 -0.8667  1.6500
  947MOL0     H30624   7.111   7.175   1.627  1.7722 -4.5103  2.3674
  947MOL0     H30625   7.045   7.278   1.854 -2.4218  0.4289 -0.8988
  947MOL0     H30626   6.944   7.143   1.881  0.2575 -0.3453  0.1904
  947MOL0     H30627   7.245   7.139   1.810 -0.1779 -2.4717 -0.1992
  947MOL0     H30628   7.150   6.999   1.826  0.9381  0.1432 -1.9663
  947MOL0     H30629   7.208   7.209   2.034  1.2045 -0.2622  1.3406
  947MOL0     H30630   7.106   7.061   2.069  0.4464  0.0720  0.7983
  947MOL0     H30631   7.275   6.917   2.049 -0.2919 -0.7521  2.5943
  947MOL0     H30632   7.334   7.040   2.156  0.9764  1.0352 -1.2610
  947MOL0     H30633   7.458   6.961   1.910 -0.3000 -2.6113  2.8705
  947MOL0     H30634   7.414   7.136   1.924 -1.5039  0.0626 -0.0105
  947MOL0     H30635   7.520   7.283   2.098  1.0683 -0.2342 -0.5080
  947MOL0     H30636   7.801   7.293   2.332  3.8086 -1.6960 -1.9089
  947MOL0     H30637   7.691   7.395   2.265  1.5445  0.2516 -0.1983
  947MOL0     H30638   7.943   7.301   2.125 -0.0405 -0.1704  0.4702
  947MOL0     H30639   7.821   7.416   2.055 -1.1003 -0.8629 -0.2768
  947MOL0     H30640   7.841   7.550   2.279  0.2775 -1.6478  3.2102
  947MOL0     H30641   7.975   7.445   2.315  0.0885 -2.9467 -0.5633
  947MOL0     H30642   8.087   7.644   2.208  1.1995  0.5937 -1.3459
  947MOL0     H30643   8.054   7.550   2.068 -3.1513 -1.4326 -0.3302
  947MOL0     H30644   7.805   7.893   2.000 -0.7158 -1.6902  0.6767
  947MOL0     H30645   7.695   8.227   2.090 -1.5827  0.0165 -2.3621
  947MOL0     H30646   7.576   8.096   2.095 -0.2482 -1.2798 -1.2215
  947MOL0     H30647   7.707   8.105   1.974  1.9813  1.5301  0.7153
  947MOL0     H30648   7.730   8.073   2.798 -1.1002 -0.6421  1.1143
  947MOL0     H30649   7.594   8.191   2.962  1.1846 -0.3235 -1.0666
  947MOL0     H30650   7.461   8.581   2.881  2.8780 -0.8701  2.3110
  947MOL0     H30651   7.312   8.517   2.821 -0.2354 -1.6055  0.1803
  947MOL0     H30652   7.382   8.524   3.127 -0.9056  2.2621  0.8684
  947MOL0     H30653   7.305   8.648   3.044  1.7552  0.9398  2.1033
  947MOL0     H30654   7.138   8.437   2.984  2.5967 -0.6962 -2.0458
  947MOL0     H30655   7.132   8.518   3.149 -0.5469 -4.2578  2.7512
  947MOL0     H30656   7.285   8.350   3.231  0.5689  2.0088  0.0258
  947MOL0     H30657   7.266   8.254   3.084 -1.8335 -1.7745  0.6398
  947MOL0     H30658   7.034   8.322   3.271 -4.0291 -2.7340 -1.1149
  947MOL0     H30659   7.019   8.203   3.150  0.8271 -2.9277  2.3679
  947MOL0     H30660   7.179   8.171   3.407  0.1429 -4.8676  1.6499
  947MOL0     H30661   7.239   8.099   3.269  1.1027  2.3771 -0.2071
  947MOL0     H30662   7.064   7.950   3.413 -4.0981 -2.2593 -0.1275
  947MOL0     H30663   7.009   7.986   3.253 -1.3612 -1.6823  1.0083
  947MOL0     H30664   6.822   8.017   3.410 -2.1558  2.5612  1.8383
  947MOL0     H30665   6.886   8.179   3.369 -2.0123 -1.0353 -0.5522
  947MOL0     H30666   7.492   8.489   2.684  1.8031  0.4465 -1.0309
  947MOL0     H30667   7.622   8.380   2.513 -0.2917 -0.2336 -0.4008
  947MOL0     H30668   7.925   7.958   2.464  0.2435  2.0065 -0.1660
  947MOL0     H30669   8.005   7.775   2.341  0.9610 -1.3600 -2.5949
  947MOL0     H30670   7.100   7.640   1.712  1.1651  3.6403  1.1746
  947MOL0     H30671   7.251   7.842   1.627 -2.4266  0.4670 -1.2701
  947MOL0     H30672   7.543   8.055   1.253  1.8367 -1.0525 -0.0004
  947MOL0     H30673   7.633   8.275   1.279 -1.7906 -0.3012 -0.3720
  947MOL0     H30674   7.762   8.430   1.322 -3.6553 -0.3722 -0.1031
  947MOL0     H30675   7.639   8.492   1.425 -0.7777 -0.8067 -0.2658
  947MOL0     H30676   7.943   8.564   1.448  0.9830  0.4035 -0.8425
  947MOL0     H30677   7.819   8.604   1.554 -0.6068 -1.7433 -0.2023
  947MOL0     H30678   7.876   8.678   1.269  1.7259 -0.1815  1.4899
  947MOL0     H30679   7.700   8.654   1.305  0.3258 -2.4840  0.6143
  947MOL0     H30680   7.776   8.893   1.319  0.9716  0.0168 -0.2458
  947MOL0     H30681   7.894   8.864   1.437 -0.3563  1.8100 -2.7482
  947MOL0     H30682   7.528   8.864   1.659 -2.6090  1.4317 -2.0830
  947MOL0     H30683   7.764   8.162   1.674  1.9893  1.4881 -1.9530
  947MOL0     H30684   7.673   7.809   1.664 -0.7002  1.3503 -2.5219
  947MOL0     H30685   7.740   7.935   1.765 -0.8353 -1.4810  1.8847
  947MOL0     H30686   7.565   7.913   1.759 -0.3264  1.7598  0.1968
  948MOL0     O30687   9.617   9.446  10.367 -0.2229 -0.2529  0.0845
  948MOL0     C30688   9.708   9.458  10.282  0.1957 -0.5752 -0.2906
  948MOL0     O30689   9.749   9.582  10.237 -0.4479 -0.0445 -0.5337
  948MOL0     C30690   9.674   9.695  10.265  0.4807 -0.2196 -0.6435
  948MOL0     C30691   9.737   9.810  10.319 -0.2730  0.5054 -1.4743
  948MOL0     C30692   9.671   9.936  10.327 -1.5518 -0.1109  0.8529
  948MOL0     C30693   9.534   9.949  10.293  0.6204  0.5842  0.0593
  948MOL0     O30694   9.460  10.065  10.303  0.6284 -0.2984 -0.6546
  948MOL0     C30695   9.535  10.184  10.320  0.4639 -0.4472  0.6355
  948MOL0     C30696   9.438  10.301  10.344  0.5568  0.3398  0.2047
  948MOL0     C30697   9.356  10.335  10.222 -0.7377 -0.6520  0.0350
  948MOL0     C30698   9.305  10.481  10.239 -0.3559  0.0639  0.8755
  948MOL0     C30699   9.170  10.475  10.313 -0.0575  0.6457  0.8264
  948MOL0     C30700   9.112  10.607  10.343  0.2585 -0.6149 -0.8089
  948MOL0     C30701   8.976  10.611  10.412  0.8769  0.1085 -0.0738
  948MOL0     C30702   8.931  10.741  10.469  0.6131 -0.5669 -0.3033
  948MOL0     N30703   8.896  10.831  10.361  0.4278  0.2484 -0.3548
  948MOL0     C30704   8.769  10.871  10.337 -0.6255 -0.3999  0.4624
  948MOL0     C30705   8.785  10.964  10.238 -0.6041 -0.3775 -0.1089
  948MOL0     C30706   8.670  11.048  10.203  0.5548 -0.7218 -0.2868
  948MOL0     C30707   8.579  11.110  10.311 -0.1030 -0.3277 -0.7311
  948MOL0     C30708   8.647  11.225  10.383 -1.3478 -0.3883 -0.4682
  948MOL0     C30709   8.565  11.275  10.506 -0.0214 -0.0180 -0.0757
  948MOL0     O30710   8.430  11.321  10.462 -1.4459  0.4985 -0.2834
  948MOL0     C30711   8.420  11.451  10.432  1.4881 -0.9113 -0.1739
  948MOL0     C30712   8.296  11.507  10.419 -0.2089  0.2221  0.2262
  948MOL0     C30713   8.264  11.649  10.400  0.2165  0.3501  0.7754
  948MOL0     C30714   8.123  11.684  10.411 -0.3859  0.1452  0.2783
  948MOL0     C30715   8.369  11.737  10.387  0.2431 -0.2800  0.6538
  948MOL0     C30716   8.354  11.885  10.384 -0.7412 -0.3587 -0.0652
  948MOL0     O30717   8.469  11.939  10.324  0.4785 -0.1260 -0.4679
  948MOL0     C30718   8.501  12.069  10.356 -0.4994 -0.8372 -0.1402
  948MOL0     C30719   8.455  12.170  10.264  0.9042 -0.5124  0.6261
  948MOL0     C30720   8.494  12.302  10.284 -0.7274  1.2405  0.0985
  948MOL0     C30721   8.587  12.333  10.392  0.2150  0.0979 -0.4066
  948MOL0     O30722   8.613  12.466  10.420 -0.3770  0.3901  0.1475
  948MOL0     C30723   8.589  12.564  10.320  0.1001 -1.3891 -0.4492
  948MOL0     C30724   8.624  12.690  10.393  0.3730 -0.7374 -0.0934
  948MOL0     C30725   8.777  12.732  10.385 -0.3509 -0.1916 -0.3061
  948MOL0     C30726   8.865  12.621  10.460  0.1580 -0.1522 -0.5999
  948MOL0     C30727   9.006  12.673  10.481  0.1303  0.9369 -0.0449
  948MOL0     C30728   9.094  12.673  10.345 -0.1854  0.8755 -0.4649
  948MOL0     C30729   9.239  12.727  10.382  0.6638 -0.6409  0.3497
  948MOL0     C30730   9.361  12.653  10.316 -0.0143  0.0054  0.4236
  948MOL0    Cl30731   9.391  12.694  10.148 -0.4968  0.1985 -0.1693
  948MOL0     C30732   8.648  12.236  10.467 -0.3542 -0.6207 -0.9414
  948MOL0     C30733   8.596  12.108  10.455  0.4703  0.5622  0.2592
  948MOL0     O30734   8.255  11.952  10.413 -0.6305  0.0724  0.0413
  948MOL0     C30735   8.496  11.675  10.375 -0.5746 -0.4513  0.8224
  948MOL0     C30736   8.526  11.535  10.395 -0.3301  0.0865 -0.4884
  948MOL0     N30737   8.921  10.985  10.210  0.2531 -0.3213  0.6163
  948MOL0     N30738   8.993  10.907  10.303  0.2267  0.2929 -0.7859
  948MOL0     C30739   9.475   9.833  10.247  0.0757 -0.3340  0.2150
  948MOL0     C30740   9.543   9.714  10.213  0.6847 -0.4813 -0.8277
  948MOL0     C30741   9.761   9.335  10.220 -1.1070 -0.2545  0.0247
  948MOL0     C30742   9.892   9.339  10.165 -0.7688 -0.3047  0.4052
  948MOL0     C30743   9.952   9.235  10.098  0.7998 -0.4192 -0.4240
  948MOL0     C30744   9.884   9.115  10.087 -0.1271  0.8762  0.2271
  948MOL0     O30745   9.936   8.998  10.045 -0.4533  0.5952 -0.2344
  948MOL0     C30746  10.071   8.987  10.002  0.0073  0.4068  1.3362
  948MOL0     C30747  10.124   8.850  10.027 -0.6442  1.0036 -1.0301
  948MOL0     C30748  10.274   8.847   9.994  0.0735 -0.7804  0.5743
  948MOL0     C30749  10.321   8.704   9.950  0.0243 -0.4573 -0.4323
  948MOL0     C30750  10.463   8.686   9.935  0.3357  0.0112  0.2587
  948MOL0     C30751  10.578   8.659   9.930  0.1908 -0.2133 -0.0328
  948MOL0     C30752   9.742   9.107  10.122  0.0105  0.5268  0.9036
  948MOL0     C30753   9.687   9.212  10.196  0.1734  0.6684  0.2050
  948MOL0     C30754   9.552   9.187  10.261 -0.0286  0.5166  0.4660
  948MOL0     H30755   9.843   9.808  10.341 -0.9192  1.9135  2.5975
  948MOL0     H30756   9.729  10.027  10.343 -0.4140 -0.2116 -2.0467
  948MOL0     H30757   9.598  10.197  10.231  0.4667  1.4831  0.8812
  948MOL0     H30758   9.596  10.185  10.411  0.6602  2.0710  0.5660
  948MOL0     H30759   9.387  10.277  10.437  1.1454  0.7031  0.6311
  948MOL0     H30760   9.493  10.394  10.364  0.7384  0.2880 -0.0362
  948MOL0     H30761   9.428  10.328  10.141  2.1306 -0.4296  2.3959
  948MOL0     H30762   9.275  10.262  10.211 -1.7877  0.6633 -1.3204
  948MOL0     H30763   9.381  10.549  10.279  4.1505 -1.7510 -3.6629
  948MOL0     H30764   9.282  10.525  10.142 -0.1168 -1.0593  0.2991
  948MOL0     H30765   9.187  10.420  10.406  1.5237  0.1456  0.2843
  948MOL0     H30766   9.102  10.409  10.258  1.5669  0.7487 -1.4880
  948MOL0     H30767   9.180  10.670  10.401 -0.7990 -0.5511  0.3900
  948MOL0     H30768   9.098  10.656  10.246 -2.1299 -2.4320 -1.4912
  948MOL0     H30769   8.967  10.529  10.485  1.4835  0.3075  0.2342
  948MOL0     H30770   8.908  10.585  10.331  2.3174 -0.1640 -1.2359
  948MOL0     H30771   8.844  10.720  10.533 -1.1723  0.6995 -2.1910
  948MOL0     H30772   9.016  10.780  10.525 -1.4749  0.0200  2.6924
  948MOL0     H30773   8.678  10.835  10.383 -1.7378 -0.7899 -1.9077
  948MOL0     H30774   8.612  10.979  10.141 -0.1918 -0.4129  0.0587
  948MOL0     H30775   8.719  11.133  10.154 -1.4383 -0.9101 -2.8103
  948MOL0     H30776   8.488  11.154  10.269 -1.8129 -2.9541 -0.0358
  948MOL0     H30777   8.547  11.032  10.380  0.1756 -1.1509 -1.5134
  948MOL0     H30778   8.740  11.186  10.425 -0.8858 -1.1849 -2.1605
  948MOL0     H30779   8.665  11.306  10.312  2.4263  0.8313  1.6465
  948MOL0     H30780   8.564  11.195  10.581 -0.8750 -0.4762 -0.5548
  948MOL0     H30781   8.623  11.356  10.550 -0.7548  0.1097  0.6945
  948MOL0     H30782   8.220  11.429  10.417 -0.6580  0.5434 -3.7330
  948MOL0     H30783   8.091  11.748  10.328  1.6791  3.4297  1.8120
  948MOL0     H30784   8.095  11.715  10.512 -2.0642  3.2708 -1.0229
  948MOL0     H30785   8.073  11.587  10.398  1.8106 -1.1922  1.2514
  948MOL0     H30786   8.398  12.138  10.177  0.6380 -1.9437  1.3007
  948MOL0     H30787   8.464  12.374  10.209 -0.9181 -0.5340 -1.6058
  948MOL0     H30788   8.649  12.554  10.229  2.2826 -0.8763  0.8583
  948MOL0     H30789   8.482  12.561  10.299  0.0931 -1.0700 -0.4604
  948MOL0     H30790   8.555  12.767  10.358 -0.5176 -1.0834  0.8632
  948MOL0     H30791   8.607  12.672  10.499  0.5284 -2.4118 -0.3263
  948MOL0     H30792   8.790  12.829  10.435  0.0524  1.1677 -2.8596
  948MOL0     H30793   8.806  12.755  10.282 -1.1098 -0.8520 -0.6775
  948MOL0     H30794   8.863  12.528  10.402  1.6961 -1.8901  1.9287
  948MOL0     H30795   8.817  12.618  10.558 -3.4310  0.4652 -2.1509
  948MOL0     H30796   9.007  12.773  10.525 -3.8701  1.1900 -0.1641
  948MOL0     H30797   9.054  12.610  10.557 -1.0053 -0.6528 -0.5951
  948MOL0     H30798   9.059  12.736  10.262  4.1701  1.6727 -1.9912
  948MOL0     H30799   9.100  12.567  10.319 -1.8018 -0.1098  2.7010
  948MOL0     H30800   9.244  12.712  10.490  1.6686 -1.2359  0.2254
  948MOL0     H30801   9.247  12.835  10.364  2.2077 -0.3440  2.5024
  948MOL0     H30802   9.357  12.545  10.332  3.1686 -0.2053  0.2540
  948MOL0     H30803   9.451  12.681  10.371  0.8504 -1.8537  0.0359
  948MOL0     H30804   8.715  12.271  10.545 -0.7825  0.3010 -0.9785
  948MOL0     H30805   8.643  12.027  10.512 -1.7656 -0.0702  1.3228
  948MOL0     H30806   8.585  11.734  10.360  0.4765 -1.8662  1.2914
  948MOL0     H30807   8.626  11.498  10.380 -0.9424 -2.0243  0.3723
  948MOL0     H30808   9.367   9.821  10.254  0.4095 -3.0725  2.3152
  948MOL0     H30809   9.490   9.638  10.158  0.4121  1.1798 -3.0090
  948MOL0     H30810   9.940   9.437  10.161 -0.0403 -0.6592  0.0509
  948MOL0     H30811  10.052   9.248  10.060  0.7959  1.5565  0.1174
  948MOL0     H30812  10.071   8.999   9.893  0.9818 -2.7151  0.9112
  948MOL0     H30813  10.141   9.056  10.052  1.8332  0.5583 -1.2419
  948MOL0     H30814  10.073   8.782   9.959  0.7996 -1.6538  0.3628
  948MOL0     H30815  10.107   8.829  10.133 -2.0712  0.5278 -1.3319
  948MOL0     H30816  10.284   8.910   9.906  0.5716 -0.3415  0.9410
  948MOL0     H30817  10.344   8.883  10.069  0.3087 -0.0949  0.0371
  948MOL0     H30818  10.272   8.688   9.853 -0.3137 -1.4298 -0.1134
  948MOL0     H30819  10.277   8.631  10.018 -2.0867 -1.6487 -2.8643
  948MOL0     H30820  10.680   8.627   9.920 -0.4255 -1.6041 -2.5439
  948MOL0     H30821   9.684   9.016  10.114  4.5116 -2.6370  0.1270
  948MOL0     H30822   9.564   9.160  10.367  0.0202 -1.3847  0.0117
  948MOL0     H30823   9.483   9.269  10.238 -0.6183  0.5806  2.3006
  948MOL0     H30824   9.505   9.102  10.210  3.0471  1.0721 -3.7492
  949MOL0     O30825   4.865   3.402   3.251 -0.3509  0.3280  0.3248
  949MOL0     C30826   4.757   3.355   3.287  0.1865 -0.0216 -0.5504
  949MOL0     O30827   4.664   3.423   3.361 -0.5872 -0.4852  0.0279
  949MOL0     C30828   4.711   3.539   3.419  0.0028  0.3663 -0.1246
  949MOL0     C30829   4.726   3.651   3.338 -0.4350  0.0185 -0.0464
  949MOL0     C30830   4.765   3.776   3.390 -0.9591  0.2455  0.5450
  949MOL0     C30831   4.782   3.796   3.528 -0.1729 -0.1378  1.3939
  949MOL0     O30832   4.827   3.923   3.570 -0.6870  0.4919  0.1248
  949MOL0     C30833   4.776   4.033   3.499  0.4234 -0.0620 -0.2858
  949MOL0     C30834   4.761   4.166   3.584  0.3777 -0.3498 -0.4711
  949MOL0     C30835   4.712   4.122   3.722 -0.4232  0.3044  1.1240
  949MOL0     C30836   4.668   4.240   3.797 -0.9084 -0.0761  0.7510
  949MOL0     C30837   4.638   4.216   3.938  1.2402  0.7121  0.9046
  949MOL0     C30838   4.541   4.310   4.002 -0.1830  0.0030  0.6287
  949MOL0     C30839   4.600   4.454   4.021 -0.5927  0.3415  0.0107
  949MOL0     C30840   4.701   4.465   4.146  0.1127 -1.1501  0.1793
  949MOL0     N30841   4.632   4.450   4.269 -0.1521  0.3366  0.5428
  949MOL0     C30842   4.662   4.354   4.367 -0.5266 -0.3833  0.5217
  949MOL0     C30843   4.557   4.360   4.440 -0.3459 -0.4350 -0.6415
  949MOL0     C30844   4.525   4.260   4.552  0.4313 -0.1346  0.5507
  949MOL0     C30845   4.489   4.131   4.473 -0.0865  0.2968  0.1287
  949MOL0     C30846   4.453   4.016   4.572  1.3443  0.2798  1.1711
  949MOL0     C30847   4.420   3.880   4.521 -1.3761 -0.4371 -0.0166
  949MOL0     O30848   4.332   3.897   4.410 -0.3843 -0.0895 -0.6672
  949MOL0     C30849   4.261   3.794   4.364  0.6221  0.0191 -0.7153
  949MOL0     C30850   4.157   3.821   4.278 -0.0631  0.6708 -0.3912
  949MOL0     C30851   4.072   3.738   4.207  1.2253 -0.0679 -0.1854
  949MOL0     C30852   3.981   3.797   4.096 -0.5928 -0.4992  0.3549
  949MOL0     C30853   4.087   3.600   4.241 -0.3204 -0.2482 -0.1448
  949MOL0     C30854   3.992   3.493   4.208  0.0165 -0.1817  0.2965
  949MOL0     O30855   4.003   3.373   4.277 -1.3338 -0.0628  0.4478
  949MOL0     C30856   3.905   3.282   4.290  0.4227 -0.4072  0.0751
  949MOL0     C30857   3.769   3.302   4.269 -0.4269  0.0845 -0.4224
  949MOL0     C30858   3.681   3.186   4.295 -0.3966 -0.0240 -0.5361
  949MOL0     C30859   3.729   3.058   4.322  0.5616  0.7792  0.4165
  949MOL0     O30860   3.643   2.944   4.325  0.5703 -0.8160  0.4325
  949MOL0     C30861   3.675   2.843   4.415  0.2637  0.1549  0.5356
  949MOL0     C30862   3.551   2.752   4.436 -0.6304  0.1714 -0.4982
  949MOL0     C30863   3.446   2.829   4.528 -0.3323  1.3287  0.5264
  949MOL0     C30864   3.303   2.779   4.498  0.0867 -0.3539 -0.5446
  949MOL0     C30865   3.264   2.626   4.475 -0.1039 -0.3023 -1.2543
  949MOL0     C30866   3.321   2.518   4.568 -0.9720  0.9132  0.3675
  949MOL0     C30867   3.284   2.527   4.718  0.8046  0.6374 -0.3585
  949MOL0     C30868   3.355   2.432   4.812 -0.6823 -0.0891  1.1096
  949MOL0    Cl30869   3.532   2.458   4.820 -0.1361  0.1103 -0.1868
  949MOL0     C30870   3.864   3.043   4.354  0.0009 -0.5775 -0.0109
  949MOL0     C30871   3.951   3.155   4.325  0.0538  0.6482  0.3957
  949MOL0     O30872   3.904   3.529   4.126  0.2264 -0.2580 -0.1121
  949MOL0     C30873   4.194   3.566   4.328 -0.3047  0.0738  0.0946
  949MOL0     C30874   4.284   3.658   4.383  0.0120  0.1114 -0.3731
  949MOL0     N30875   4.471   4.457   4.397 -0.5506 -0.3793 -0.2271
  949MOL0     N30876   4.506   4.497   4.286  0.6948 -0.0102  0.0069
  949MOL0     C30877   4.773   3.683   3.611 -0.6745 -1.1580  0.4056
  949MOL0     C30878   4.734   3.555   3.562  0.1192  0.4646  0.0325
  949MOL0     C30879   4.704   3.231   3.228 -0.6583  0.4407  0.1249
  949MOL0     C30880   4.590   3.174   3.284  0.9784 -0.3404 -0.7018
  949MOL0     C30881   4.529   3.068   3.222  0.0840 -0.6392  0.3925
  949MOL0     C30882   4.589   3.003   3.115 -0.3420  0.6737  0.0124
  949MOL0     O30883   4.532   2.903   3.042 -0.0873  0.3305 -0.5390
  949MOL0     C30884   4.429   2.827   3.097 -0.0520  0.6432  1.0016
  949MOL0     C30885   4.371   2.743   2.982 -0.6509  0.7203  0.3793
  949MOL0     C30886   4.261   2.647   3.036 -0.0959 -0.1979 -0.1946
  949MOL0     C30887   4.200   2.558   2.926  0.1648  0.4491  0.0954
  949MOL0     C30888   4.066   2.516   2.956  0.0882 -0.2149 -1.1909
  949MOL0     C30889   3.954   2.477   2.990 -0.5748 -0.5416 -0.1921
  949MOL0     C30890   4.706   3.048   3.061  0.4421 -0.1913  0.8816
  949MOL0     C30891   4.761   3.165   3.111 -1.5005 -0.2401 -0.2583
  949MOL0     C30892   4.892   3.199   3.043 -1.5331 -0.1162  0.5552
  949MOL0     H30893   4.727   3.649   3.229 -0.0040  1.2981 -0.0861
  949MOL0     H30894   4.797   3.844   3.312  1.2100  1.0012  2.0040
  949MOL0     H30895   4.676   4.015   3.459  0.7400 -0.4919 -0.9033
  949MOL0     H30896   4.839   4.048   3.411  1.8124 -1.3491  0.4413
  949MOL0     H30897   4.860   4.209   3.597  0.0489  0.1576  0.3613
  949MOL0     H30898   4.703   4.250   3.544  3.8810  2.9205  0.7199
  949MOL0     H30899   4.621   4.063   3.710  0.6103 -1.0847 -0.4511
  949MOL0     H30900   4.784   4.062   3.779 -1.5415 -1.5160  0.7220
  949MOL0     H30901   4.743   4.319   3.794 -1.8885  0.8398 -0.9218
  949MOL0     H30902   4.584   4.284   3.743  0.4046 -0.6263 -1.9275
  949MOL0     H30903   4.729   4.195   3.995  2.1933  0.0739 -0.8005
  949MOL0     H30904   4.576   4.125   3.944 -1.2212  2.2782  0.7418
  949MOL0     H30905   4.456   4.317   3.934 -0.0685  2.9749  0.6610
  949MOL0     H30906   4.499   4.271   4.095 -1.0555 -0.9179 -0.1353
  949MOL0     H30907   4.509   4.515   4.034 -1.6792 -0.6670 -2.3496
  949MOL0     H30908   4.656   4.491   3.935 -2.2342 -1.7190 -2.0827
  949MOL0     H30909   4.776   4.386   4.131 -0.7192 -1.8424 -0.4209
  949MOL0     H30910   4.747   4.564   4.144 -1.1059 -0.5609 -2.4426
  949MOL0     H30911   4.736   4.276   4.353  0.0474  0.5301 -2.2187
  949MOL0     H30912   4.439   4.297   4.610 -0.1847 -2.5967  1.3154
  949MOL0     H30913   4.616   4.259   4.614 -0.2520  0.5240  1.6055
  949MOL0     H30914   4.420   4.149   4.391  1.2079 -0.3317 -1.1423
  949MOL0     H30915   4.581   4.088   4.432 -0.5506 -1.2652  0.6174
  949MOL0     H30916   4.529   4.008   4.650  2.2769  3.8598  0.8469
  949MOL0     H30917   4.361   4.053   4.617  1.5751  3.8050 -0.8360
  949MOL0     H30918   4.512   3.835   4.483 -1.7816 -0.5496 -0.8953
  949MOL0     H30919   4.385   3.818   4.604  1.1690 -1.0348  0.7030
  949MOL0     H30920   4.135   3.927   4.268  0.2717  0.8701  0.7378
  949MOL0     H30921   3.874   3.775   4.103 -0.4621 -1.6078 -0.9020
  949MOL0     H30922   4.011   3.767   3.996  1.1161  1.5206  0.1779
  949MOL0     H30923   3.996   3.906   4.103 -1.8255 -0.4272  2.9801
  949MOL0     H30924   3.739   3.403   4.244  2.0898  1.0009 -0.0382
  949MOL0     H30925   3.574   3.204   4.293 -0.0981  1.9620 -2.7727
  949MOL0     H30926   3.746   2.776   4.365 -2.4727  0.1318 -3.8059
  949MOL0     H30927   3.731   2.879   4.502  2.4270 -1.7023  0.0179
  949MOL0     H30928   3.506   2.734   4.338  2.9366 -6.0387 -1.5742
  949MOL0     H30929   3.576   2.650   4.467 -2.1033  0.5604  2.2742
  949MOL0     H30930   3.451   2.938   4.518 -3.5736  1.3587 -2.5600
  949MOL0     H30931   3.459   2.811   4.635 -1.4293 -0.8700  0.3449
  949MOL0     H30932   3.286   2.839   4.409  0.4930 -0.1606 -0.4888
  949MOL0     H30933   3.240   2.823   4.576  1.6193 -1.5120  1.4633
  949MOL0     H30934   3.155   2.622   4.481 -0.0890  1.0808  1.8976
  949MOL0     H30935   3.299   2.605   4.373 -0.1606 -0.3119 -1.2720
  949MOL0     H30936   3.427   2.526   4.547 -1.4393  0.9844 -2.2049
  949MOL0     H30937   3.300   2.417   4.530  0.3403 -0.6134  3.3272
  949MOL0     H30938   3.176   2.508   4.727  1.0709  0.0311  2.1595
  949MOL0     H30939   3.294   2.631   4.751 -2.4337 -0.0674  3.7277
  949MOL0     H30940   3.335   2.327   4.789 -2.5048  0.4995 -0.1267
  949MOL0     H30941   3.307   2.443   4.910 -1.3864 -1.1074  0.8919
  949MOL0     H30942   3.900   2.957   4.409 -1.1121 -2.7305 -2.4603
  949MOL0     H30943   4.058   3.144   4.315 -0.3708 -2.2265 -2.9625
  949MOL0     H30944   4.211   3.461   4.351 -4.0482 -1.1229 -1.7209
  949MOL0     H30945   4.365   3.617   4.443 -1.6023 -1.3038  0.9540
  949MOL0     H30946   4.780   3.700   3.718 -0.9164  1.4759  0.0653
  949MOL0     H30947   4.728   3.481   3.641  1.7079 -1.2037 -1.3097
  949MOL0     H30948   4.532   3.221   3.363 -0.0130 -0.1021 -1.5558
  949MOL0     H30949   4.440   3.037   3.276 -1.3309  0.1131 -1.4184
  949MOL0     H30950   4.490   2.765   3.162  0.9258 -0.1573 -0.6224
  949MOL0     H30951   4.343   2.873   3.147 -0.9303 -1.2778  1.3273
  949MOL0     H30952   4.452   2.681   2.941 -1.2522  0.1467  0.0425
  949MOL0     H30953   4.342   2.812   2.903  0.4764  1.4239  0.5664
  949MOL0     H30954   4.302   2.576   3.107 -0.5264 -1.4723 -1.1696
  949MOL0     H30955   4.179   2.698   3.087 -1.0579 -0.2534 -1.6096
  949MOL0     H30956   4.247   2.461   2.908 -2.7003 -1.5477  2.3859
  949MOL0     H30957   4.199   2.610   2.830 -1.1309  0.0363 -0.1439
  949MOL0     H30958   3.850   2.456   3.002 -1.2602  3.1558  1.9042
  949MOL0     H30959   4.756   3.001   2.977  0.1256 -0.2065  0.7019
  949MOL0     H30960   4.968   3.206   3.121  0.4760  2.5736 -1.4450
  949MOL0     H30961   4.923   3.134   2.960  1.2615  1.4029  0.2961
  949MOL0     H30962   4.891   3.296   2.992 -0.0901 -1.1230 -1.5582
  950MOL0     O30963  11.037  10.698   4.089  0.6257  0.2350  0.4016
  950MOL0     C30964  11.107  10.794   4.111  1.0133 -0.4398 -0.3478
  950MOL0     O30965  11.118  10.899   4.019  0.2145  0.0637  0.2970
  950MOL0     C30966  11.039  10.892   3.900 -0.0690  0.4527 -0.3653
  950MOL0     C30967  11.084  10.804   3.807  0.4135 -0.2593 -0.7668
  950MOL0     C30968  11.022  10.784   3.683  0.0987  0.0341  0.3748
  950MOL0     C30969  10.898  10.848   3.661 -0.4019 -0.2112  0.7364
  950MOL0     O30970  10.807  10.818   3.564  0.0275 -0.2875 -0.7916
  950MOL0     C30971  10.850  10.771   3.437 -1.1660  0.0607  0.0682
  950MOL0     C30972  10.948  10.869   3.367 -0.7970 -1.1791  0.4552
  950MOL0     C30973  10.969  10.823   3.221  0.5276 -0.4564 -0.0196
  950MOL0     C30974  11.053  10.928   3.138 -0.4152  0.2097  0.7643
  950MOL0     C30975  11.056  10.878   2.989 -0.3791  0.2658 -0.0872
  950MOL0     C30976  11.163  10.767   2.965  0.2237  0.6141 -0.5425
  950MOL0     C30977  11.195  10.734   2.810 -0.3674  0.2747  0.2411
  950MOL0     C30978  11.073  10.681   2.741 -0.1628  0.3271 -0.5626
  950MOL0     N30979  11.110  10.632   2.607 -0.0362 -0.3425  0.5025
  950MOL0     C30980  11.122  10.492   2.580  0.9558  0.1065  0.6806
  950MOL0     C30981  11.156  10.492   2.451 -1.0173  0.6574 -0.2203
  950MOL0     C30982  11.166  10.368   2.369 -0.1543 -0.0718 -0.5005
  950MOL0     C30983  11.029  10.317   2.299  0.2043  0.4052 -0.1622
  950MOL0     C30984  11.032  10.181   2.230  0.2917 -0.6379  0.0130
  950MOL0     C30985  10.892  10.118   2.206  0.1658 -0.2705 -0.4451
  950MOL0     O30986  10.890   9.980   2.185  0.2277  0.1699  0.1766
  950MOL0     C30987  10.933   9.904   2.278 -0.2950 -0.5192  0.0625
  950MOL0     C30988  11.042   9.821   2.267 -0.3597  0.0483  0.0896
  950MOL0     C30989  11.074   9.722   2.363 -0.2454 -0.7010  0.5625
  950MOL0     C30990  11.166   9.622   2.312  0.0673  0.1158 -0.5861
  950MOL0     C30991  11.008   9.729   2.489 -1.0896  0.0211 -1.0586
  950MOL0     C30992  11.056   9.646   2.605 -0.6370 -0.5888  0.5908
  950MOL0     O30993  10.978   9.657   2.713  0.5649  0.0669 -0.8290
  950MOL0     C30994  11.005   9.585   2.825  1.1511  0.1592  0.4637
  950MOL0     C30995  10.891   9.535   2.895  0.2973  0.4753  0.4810
  950MOL0     C30996  10.912   9.453   3.003  0.0561  0.2740  0.3381
  950MOL0     C30997  11.040   9.440   3.057 -0.6727 -0.0779  0.2082
  950MOL0     O30998  11.058   9.373   3.174 -0.0755  0.0348 -0.6302
  950MOL0     C30999  10.968   9.405   3.280  0.4369 -0.1292 -0.1792
  950MOL0     C31000  11.032   9.397   3.409  0.8249  0.4958  0.1476
  950MOL0     C31001  10.916   9.380   3.507  0.1316 -0.1846  0.3595
  950MOL0     C31002  10.995   9.376   3.646 -0.0879 -0.5753  1.3559
  950MOL0     C31003  10.916   9.313   3.757  0.1287  0.7750 -0.4033
  950MOL0     C31004  10.788   9.393   3.782 -0.1646  0.3849  0.2559
  950MOL0     C31005  10.746   9.353   3.926  1.2096  0.4032 -0.1334
  950MOL0     C31006  10.672   9.208   3.926 -1.7135 -0.1225 -0.1467
  950MOL0    Cl31007  10.518   9.220   3.834 -0.0856 -0.1227 -0.2477
  950MOL0     C31008  11.155   9.491   2.990  0.9877 -0.4320  0.2914
  950MOL0     C31009  11.139   9.562   2.879 -0.0414  0.4052  0.7113
  950MOL0     O31010  11.162   9.583   2.599 -0.0977 -0.3701  0.6644
  950MOL0     C31011  10.917   9.829   2.513 -0.0820 -0.2389 -0.2259
  950MOL0     C31012  10.873   9.907   2.408 -0.4309  0.8307  0.8984
  950MOL0     N31013  11.164  10.617   2.400 -0.2399  0.4250 -0.3321
  950MOL0     N31014  11.131  10.700   2.495  0.0235 -0.5412  0.1423
  950MOL0     C31015  10.856  10.946   3.754 -0.0356  0.0317  0.5256
  950MOL0     C31016  10.922  10.970   3.871 -0.0664  0.1762 -0.8402
  950MOL0     C31017  11.189  10.797   4.233  0.1699  0.4497  0.2399
  950MOL0     C31018  11.316  10.857   4.216  1.0307  0.6510 -0.4790
  950MOL0     C31019  11.403  10.876   4.326  0.0737  0.9513 -0.2329
  950MOL0     C31020  11.358  10.828   4.446 -0.1171  0.7732 -0.8866
  950MOL0     O31021  11.446  10.861   4.547  0.6671  0.0627 -0.2388
  950MOL0     C31022  11.414  10.816   4.684 -0.5383 -0.4408 -0.4562
  950MOL0     C31023  11.535  10.786   4.777  0.2868  0.5175 -0.0347
  950MOL0     C31024  11.623  10.659   4.742  0.2279 -0.1000 -0.2631
  950MOL0     C31025  11.553  10.536   4.684  0.9176  0.4141  0.4601
  950MOL0     C31026  11.649  10.464   4.598 -0.1155  0.1450 -0.5918
  950MOL0     C31027  11.722  10.428   4.513 -0.1059 -0.2860  0.5102
  950MOL0     C31028  11.243  10.754   4.456 -0.3054 -0.0634 -0.0014
  950MOL0     C31029  11.152  10.733   4.349 -0.1348  0.2058 -0.7836
  950MOL0     C31030  11.039  10.621   4.369 -0.0750  0.0217 -1.0262
  950MOL0     H31031  11.176  10.753   3.835  1.4199  1.4686 -0.7940
  950MOL0     H31032  11.055  10.712   3.609  1.7909  3.2987 -2.2836
  950MOL0     H31033  10.762  10.733   3.384 -0.1970 -2.7698  0.3355
  950MOL0     H31034  10.900  10.675   3.450 -0.7517  0.2385 -0.2102
  950MOL0     H31035  10.916  10.973   3.368 -0.2167 -0.9897  0.1449
  950MOL0     H31036  11.039  10.867   3.429 -0.2171 -0.9214 -0.3687
  950MOL0     H31037  11.022  10.727   3.222  0.6799 -0.3736  0.5310
  950MOL0     H31038  10.877  10.808   3.165 -0.4935  2.1426  0.8374
  950MOL0     H31039  10.993  11.019   3.129  1.0188  1.0833 -0.5377
  950MOL0     H31040  11.154  10.952   3.172  1.0768 -2.1097 -1.5976
  950MOL0     H31041  11.093  10.968   2.939  5.6304 -0.5042  2.1707
  950MOL0     H31042  10.959  10.840   2.955 -0.6061  1.7884 -1.2391
  950MOL0     H31043  11.245  10.807   3.026 -1.2432  0.3618  1.7384
  950MOL0     H31044  11.127  10.681   3.022 -0.7104  0.9622 -0.5905
  950MOL0     H31045  11.275  10.659   2.807 -3.3198 -3.1325 -0.7644
  950MOL0     H31046  11.225  10.820   2.750  0.5865  0.3050  0.7404
  950MOL0     H31047  11.042  10.599   2.807  0.7255  1.5135  1.4108
  950MOL0     H31048  10.990  10.751   2.740  0.0676  0.5979 -0.8992
  950MOL0     H31049  11.109  10.407   2.647  0.9100  2.0118  3.2597
  950MOL0     H31050  11.205  10.289   2.434  0.6626  1.5168  1.0375
  950MOL0     H31051  11.238  10.385   2.289  1.5357 -1.1314  0.7204
  950MOL0     H31052  10.940  10.313   2.363 -0.2226 -0.6120 -0.7969
  950MOL0     H31053  11.014  10.390   2.219 -0.9743  2.4888  1.8228
  950MOL0     H31054  11.093  10.202   2.142 -1.6670  2.7177 -0.7039
  950MOL0     H31055  11.093  10.108   2.284 -2.3165 -3.0303  0.0176
  950MOL0     H31056  10.826  10.143   2.289 -0.5572 -1.8492 -0.5167
  950MOL0     H31057  10.831  10.162   2.127 -2.7868 -1.2084  1.1789
  950MOL0     H31058  11.097   9.818   2.173 -1.9696  0.5488 -0.9146
  950MOL0     H31059  11.267   9.643   2.349 -0.3004  1.1686 -0.1262
  950MOL0     H31060  11.165   9.619   2.203 -0.0208 -0.2499 -0.5755
  950MOL0     H31061  11.133   9.523   2.345 -0.2582 -0.3974 -2.3685
  950MOL0     H31062  10.795   9.556   2.848 -1.0476 -1.0808  2.3721
  950MOL0     H31063  10.834   9.397   3.054 -1.5306 -1.1494 -3.2315
  950MOL0     H31064  10.930   9.506   3.264 -0.8205 -0.6898 -0.9629
  950MOL0     H31065  10.886   9.334   3.265  0.2423 -0.0559  0.4995
  950MOL0     H31066  11.099   9.311   3.413 -0.7111 -0.7804 -0.4469
  950MOL0     H31067  11.085   9.491   3.425  0.6018  0.4141  1.4511
  950MOL0     H31068  10.858   9.289   3.491 -0.8861  0.8693 -2.6879
  950MOL0     H31069  10.841   9.460   3.508 -1.7064 -1.8235  2.1320
  950MOL0     H31070  11.005   9.484   3.662  2.7991 -0.0739 -2.5345
  950MOL0     H31071  11.095   9.331   3.643 -0.5299 -1.5435  0.6979
  950MOL0     H31072  10.893   9.210   3.731  0.9660  0.2888  0.6958
  950MOL0     H31073  10.983   9.325   3.843  3.1591  1.0072 -2.6359
  950MOL0     H31074  10.715   9.369   3.704 -0.7750  2.9607 -0.0540
  950MOL0     H31075  10.805   9.501   3.787  0.0968  0.3368  0.3918
  950MOL0     H31076  10.676   9.426   3.967 -0.7309 -1.3677 -0.1060
  950MOL0     H31077  10.828   9.345   3.998  0.7937 -0.4279  0.2628
  950MOL0     H31078  10.662   9.188   4.034 -0.0994  0.0077  0.0598
  950MOL0     H31079  10.717   9.130   3.864 -0.9134  2.7442 -3.4625
  950MOL0     H31080  11.250   9.476   3.040  0.8084  1.8690  1.4325
  950MOL0     H31081  11.231   9.598   2.834  1.0237 -2.2019  0.6026
  950MOL0     H31082  10.864   9.831   2.608 -0.3389 -3.0388 -0.2359
  950MOL0     H31083  10.803   9.985   2.433 -0.3665  1.6335 -1.2034
  950MOL0     H31084  10.763  10.999   3.734  0.6540  0.7623 -0.9122
  950MOL0     H31085  10.879  11.034   3.948  0.1586  1.8200 -2.0430
  950MOL0     H31086  11.352  10.903   4.125  2.6361 -0.4176 -0.4400
  950MOL0     H31087  11.497  10.928   4.309  0.7683 -1.0452 -3.0747
  950MOL0     H31088  11.352  10.894   4.730 -3.2175 -1.8655 -1.4116
  950MOL0     H31089  11.351  10.727   4.692 -0.3702 -0.3977  2.6683
  950MOL0     H31090  11.498  10.768   4.878  0.7123  2.1143  0.4264
  950MOL0     H31091  11.597  10.876   4.776 -1.7868  2.1168  2.1467
  950MOL0     H31092  11.689  10.682   4.657  0.1438 -3.7759 -1.4975
  950MOL0     H31093  11.686  10.633   4.828  2.9832  0.2055 -2.0531
  950MOL0     H31094  11.472  10.550   4.611  2.0014 -2.9373 -1.6111
  950MOL0     H31095  11.515  10.476   4.767  1.9291  0.3519  0.8846
  950MOL0     H31096  11.781  10.404   4.427 -1.7825  0.1305 -0.8140
  950MOL0     H31097  11.213  10.702   4.546  0.7249 -0.0457  0.3655
  950MOL0     H31098  11.049  10.528   4.314 -4.3141 -0.4815 -1.2343
  950MOL0     H31099  11.027  10.598   4.476 -0.7189  0.4125 -1.0101
  950MOL0     H31100  10.948  10.670   4.334  1.2929  1.8740 -2.2148
  951MOL0     O31101   1.305   8.738  10.259 -1.0428 -0.6986 -0.1601
  951MOL0     C31102   1.382   8.729  10.357 -0.5290 -0.0612 -0.3675
  951MOL0     O31103   1.508   8.775  10.360  0.1421 -0.2245 -0.5946
  951MOL0     C31104   1.533   8.873  10.269 -0.7960 -0.4447  0.6793
  951MOL0     C31105   1.601   8.843  10.149  0.9395 -0.0606  0.6593
  951MOL0     C31106   1.628   8.946  10.050 -0.1845 -0.0852 -0.9060
  951MOL0     C31107   1.595   9.080  10.081  0.4603 -0.5309 -0.7429
  951MOL0     O31108   1.617   9.184   9.995 -0.1294  1.3345  0.5212
  951MOL0     C31109   1.640   9.148   9.857  0.2603  0.2434 -0.2717
  951MOL0     C31110   1.635   9.263   9.749 -0.8361  0.2200  0.8507
  951MOL0     C31111   1.499   9.349   9.747  0.5596 -1.0200 -0.2359
  951MOL0     C31112   1.502   9.449   9.863  0.6975  1.0049  0.4740
  951MOL0     C31113   1.403   9.564   9.840  0.3324 -0.5109 -0.0714
  951MOL0     C31114   1.433   9.672   9.931  1.6571 -0.4561  0.0321
  951MOL0     C31115   1.338   9.791   9.898 -0.6885  0.7143  0.1272
  951MOL0     C31116   1.378   9.911   9.986 -0.2124  0.0258 -0.0571
  951MOL0     N31117   1.297  10.033   9.966  0.9345 -0.1336 -0.0554
  951MOL0     C31118   1.282  10.108   9.851 -0.0554  0.0077 -0.3135
  951MOL0     C31119   1.172  10.184   9.863  0.2645  0.2142  0.4669
  951MOL0     C31120   1.120  10.288   9.771 -0.2311  0.5261  0.0075
  951MOL0     C31121   1.047  10.232   9.658  0.3280  0.9882 -0.5531
  951MOL0     C31122   1.142  10.168   9.549 -0.9150  0.3004  0.4472
  951MOL0     C31123   1.052  10.147   9.425 -0.6365  0.7916 -0.6056
  951MOL0     O31124   0.976  10.028   9.442  0.2241  0.5934  0.4281
  951MOL0     C31125   0.917   9.970   9.333 -0.2099  0.1918  0.3639
  951MOL0     C31126   0.853   9.844   9.348 -0.4476 -0.1937 -0.2113
  951MOL0     C31127   0.782   9.777   9.238  0.0088 -0.3113  0.9548
  951MOL0     C31128   0.715   9.649   9.262 -0.8978  0.5712 -0.8210
  951MOL0     C31129   0.798   9.843   9.108  0.0732 -0.2661 -0.4156
  951MOL0     C31130   0.737   9.804   8.983  0.2386 -0.1023  0.0874
  951MOL0     O31131   0.712   9.673   8.970 -0.3809  0.1381  0.6059
  951MOL0     C31132   0.636   9.623   8.864  0.1341  0.0142  0.0957
  951MOL0     C31133   0.640   9.660   8.728  0.3666 -0.5867 -0.0095
  951MOL0     C31134   0.557   9.597   8.641 -1.0212 -0.2157  0.6001
  951MOL0     C31135   0.473   9.496   8.673  0.6885 -0.5333 -0.6520
  951MOL0     O31136   0.382   9.440   8.582 -0.1093 -0.1318  0.0624
  951MOL0     C31137   0.348   9.504   8.450 -0.8716  0.6240 -0.6140
  951MOL0     C31138   0.261   9.633   8.458  0.8431 -0.1193 -1.2073
  951MOL0     C31139   0.114   9.597   8.491  0.4569  0.6413 -0.4926
  951MOL0     C31140   0.030   9.704   8.571  0.2141  0.1403  0.0970
  951MOL0     C31141  -0.110   9.644   8.607  0.0996  0.2050  0.0140
  951MOL0     C31142  -0.179   9.580   8.485  0.0167 -0.5332  0.1159
  951MOL0     C31143  -0.328   9.575   8.498  0.1197  0.6854  0.2178
  951MOL0     C31144  -0.401   9.510   8.382  0.3351  0.4892  0.7545
  951MOL0    Cl31145  -0.570   9.512   8.414  0.4400 -0.2322 -0.2288
  951MOL0     C31146   0.464   9.459   8.803 -0.7892 -1.0538 -0.6144
  951MOL0     C31147   0.544   9.517   8.900 -0.1770  1.1745  0.6821
  951MOL0     O31148   0.708   9.892   8.901 -0.4682  0.3730 -0.2432
  951MOL0     C31149   0.870   9.963   9.109 -0.0125 -0.1950  0.0534
  951MOL0     C31150   0.932  10.021   9.211 -0.7539  0.1119 -0.4299
  951MOL0     N31151   1.113  10.150   9.986  0.1091 -0.3562 -0.4803
  951MOL0     N31152   1.184  10.061  10.045 -0.0215 -0.1383 -0.8557
  951MOL0     C31153   1.551   9.114  10.208 -0.0498 -0.4016  0.2283
  951MOL0     C31154   1.522   9.008  10.297 -0.0580  0.3511 -0.8635
  951MOL0     C31155   1.330   8.654  10.475 -0.3876 -0.5860 -0.2413
  951MOL0     C31156   1.434   8.616  10.569 -0.2542  0.0172 -0.2768
  951MOL0     C31157   1.394   8.548  10.693  0.6107  0.2737  0.0175
  951MOL0     C31158   1.259   8.520  10.713 -0.3156 -0.5789 -0.0819
  951MOL0     O31159   1.221   8.451  10.823 -0.1717 -0.3170 -0.4453
  951MOL0     C31160   1.174   8.536  10.928  0.0435  0.9121 -0.5142
  951MOL0     C31161   1.111   8.449  11.039  0.2652 -0.2950 -0.2942
  951MOL0     C31162   1.151   8.502  11.179  0.7582  0.5114 -0.1802
  951MOL0     C31163   1.096   8.646  11.193 -0.6898 -0.7743 -0.4249
  951MOL0     C31164   1.204   8.742  11.159  0.2539 -0.3683 -0.1645
  951MOL0     C31165   1.310   8.810  11.153  0.1647  0.2486  0.4768
  951MOL0     C31166   1.161   8.558  10.615  0.8127 -0.1785  0.4009
  951MOL0     C31167   1.192   8.636  10.507 -0.1030 -0.5566  0.6070
  951MOL0     C31168   1.076   8.672  10.413  0.1282 -0.5941  0.1245
  951MOL0     H31169   1.637   8.745  10.121  1.7486  1.0563 -2.7277
  951MOL0     H31170   1.660   8.925   9.948  0.9994  0.1571 -0.6031
  951MOL0     H31171   1.574   9.068   9.823  0.0330 -0.8705  2.5406
  951MOL0     H31172   1.742   9.108   9.853  0.3399  0.5161 -1.2322
  951MOL0     H31173   1.711   9.337   9.776  0.2145 -1.4079  2.5600
  951MOL0     H31174   1.656   9.223   9.649 -2.1089 -0.6497  0.9009
  951MOL0     H31175   1.509   9.404   9.653  0.0628  0.6385  0.6331
  951MOL0     H31176   1.413   9.281   9.738 -0.7213 -0.1325  3.4919
  951MOL0     H31177   1.482   9.400   9.958 -1.2183 -1.8273 -1.2330
  951MOL0     H31178   1.602   9.493   9.865  0.4425  1.6003  0.4335
  951MOL0     H31179   1.306   9.517   9.856 -0.1259  0.6480  0.6861
  951MOL0     H31180   1.397   9.595   9.735  1.9635 -1.4701 -0.4812
  951MOL0     H31181   1.398   9.660  10.034  1.3657 -3.2775 -0.2957
  951MOL0     H31182   1.535   9.711   9.923  0.1357  4.3403  1.0282
  951MOL0     H31183   1.237   9.757   9.919 -0.2032 -1.5998 -0.9835
  951MOL0     H31184   1.335   9.817   9.792 -2.8025 -1.3039 -0.3735
  951MOL0     H31185   1.382   9.879  10.091  0.9804  0.3401 -0.0005
  951MOL0     H31186   1.479   9.945   9.963 -0.4869  0.9041  0.0164
  951MOL0     H31187   1.351  10.112   9.767  0.7785 -1.7415  0.2357
  951MOL0     H31188   1.200  10.348   9.726 -1.0635  0.5521 -1.4775
  951MOL0     H31189   1.057  10.359   9.826 -1.0408 -0.2791  0.1500
  951MOL0     H31190   0.990  10.150   9.702  2.9117  0.1166  1.4073
  951MOL0     H31191   0.976  10.298   9.608  0.3901 -0.8290 -3.3077
  951MOL0     H31192   1.219  10.244   9.534 -1.1865  1.8405  5.1030
  951MOL0     H31193   1.182  10.072   9.582 -2.2770  0.4291  2.7265
  951MOL0     H31194   0.987  10.234   9.410  1.0664  1.9336 -1.7786
  951MOL0     H31195   1.117  10.142   9.337 -3.2228 -0.7200 -2.5575
  951MOL0     H31196   0.855   9.808   9.450 -2.1461 -0.0096 -0.0819
  951MOL0     H31197   0.726   9.621   9.367  1.8802 -2.1676 -1.6804
  951MOL0     H31198   0.760   9.570   9.200 -0.7606  0.1823 -0.2359
  951MOL0     H31199   0.607   9.656   9.247 -1.0543 -0.0794 -0.0964
  951MOL0     H31200   0.698   9.743   8.690 -0.9495 -0.6909 -2.4732
  951MOL0     H31201   0.551   9.637   8.540  1.2149  1.3297  0.9961
  951MOL0     H31202   0.441   9.533   8.400  0.1053  0.2662  0.9022
  951MOL0     H31203   0.288   9.430   8.396 -1.5178 -0.5455  1.5821
  951MOL0     H31204   0.296   9.700   8.537  1.4527 -2.3710  0.5525
  951MOL0     H31205   0.264   9.672   8.356 -0.7013 -1.4935 -1.8198
  951MOL0     H31206   0.112   9.507   8.552 -1.9404  1.2290  0.3627
  951MOL0     H31207   0.074   9.575   8.391  0.7017 -0.1853 -0.4165
  951MOL0     H31208   0.025   9.784   8.496  3.6038  0.9031  0.5148
  951MOL0     H31209   0.072   9.762   8.653 -2.3949  3.5600 -0.7549
  951MOL0     H31210  -0.107   9.572   8.690 -1.1577 -3.5616 -2.9223
  951MOL0     H31211  -0.169   9.729   8.642  0.7707  0.4862  0.5002
  951MOL0     H31212  -0.140   9.479   8.473  1.9150  0.2527 -0.7138
  951MOL0     H31213  -0.160   9.647   8.401  1.4321 -0.0795  0.7562
  951MOL0     H31214  -0.351   9.682   8.507  1.4625  0.8891  1.7440
  951MOL0     H31215  -0.356   9.528   8.592 -1.6443 -0.5802 -0.8957
  951MOL0     H31216  -0.357   9.416   8.347  1.2164  1.6690 -1.4942
  951MOL0     H31217  -0.380   9.572   8.295  2.2363  0.6121  1.2702
  951MOL0     H31218   0.397   9.385   8.845  0.1149 -0.3516  2.2707
  951MOL0     H31219   0.546   9.469   8.998 -0.9756  1.1254  0.6825
  951MOL0     H31220   0.892  10.001   9.010 -2.3538 -0.5028 -0.6415
  951MOL0     H31221   0.978  10.117   9.193  4.8274 -2.3774 -1.8431
  951MOL0     H31222   1.519   9.213  10.237 -1.9659 -1.8066  3.4011
  951MOL0     H31223   1.478   9.045  10.389 -0.6726  1.5427 -1.6136
  951MOL0     H31224   1.541   8.630  10.558 -0.0063  0.7885  2.3891
  951MOL0     H31225   1.461   8.531  10.777 -0.8331 -0.6874  1.0190
  951MOL0     H31226   1.265   8.578  10.970 -0.0387  0.3732  0.2181
  951MOL0     H31227   1.115   8.622  10.897 -0.3995 -0.0983 -2.7095
  951MOL0     H31228   1.156   8.350  11.031  0.9154  0.0632 -1.2180
  951MOL0     H31229   1.003   8.438  11.024 -0.4954  3.8021  0.9036
  951MOL0     H31230   1.097   8.448  11.257 -0.1501  1.9646  0.2428
  951MOL0     H31231   1.259   8.496  11.190  0.5162 -1.1261  1.9077
  951MOL0     H31232   1.066   8.665  11.296 -2.1963 -1.3725 -0.7181
  951MOL0     H31233   1.010   8.665  11.127  0.1416  2.4736 -0.7448
  951MOL0     H31234   1.392   8.878  11.160 -0.9629  1.5432  1.9794
  951MOL0     H31235   1.059   8.546  10.652  0.3073  1.5060 -0.3596
  951MOL0     H31236   0.983   8.690  10.468 -0.3318  0.6566 -1.0084
  951MOL0     H31237   1.094   8.769  10.365 -1.2748  0.2365  1.1966
  951MOL0     H31238   1.054   8.586  10.350 -1.4150 -0.9619  1.1008
  952MOL0     O31239   8.964   0.461   2.623  0.5382 -0.0133 -0.2484
  952MOL0     C31240   8.897   0.377   2.682  0.1799 -0.3563  0.1955
  952MOL0     O31241   8.754   0.374   2.683  0.2553 -0.2182 -0.4685
  952MOL0     C31242   8.693   0.491   2.631  0.4699 -0.0646 -0.1970
  952MOL0     C31243   8.714   0.622   2.673 -1.1659 -0.0096 -0.1185
  952MOL0     C31244   8.647   0.722   2.594  0.2768  0.3697  0.5480
  952MOL0     C31245   8.556   0.694   2.486 -0.7923 -0.7129  1.2693
  952MOL0     O31246   8.484   0.801   2.429 -0.0446  0.2043 -0.7815
  952MOL0     C31247   8.385   0.761   2.341 -0.0041 -0.2760  0.3995
  952MOL0     C31248   8.271   0.855   2.309 -0.9073 -0.1890  0.1418
  952MOL0     C31249   8.169   0.867   2.418  0.6409  0.0903 -0.1962
  952MOL0     C31250   8.026   0.926   2.388  0.5247 -0.6526 -0.1394
  952MOL0     C31251   7.940   0.935   2.513 -1.3463  0.0741  0.5658
  952MOL0     C31252   7.795   0.984   2.488  0.2154 -0.5306  0.4326
  952MOL0     C31253   7.704   0.999   2.620 -0.0852 -1.4247  0.5576
  952MOL0     C31254   7.737   1.137   2.689  0.0442  1.4245  0.3541
  952MOL0     N31255   7.866   1.141   2.771  0.2251 -0.2742  0.0554
  952MOL0     C31256   7.967   1.220   2.735  0.1005 -0.4356  0.4854
  952MOL0     C31257   8.069   1.192   2.825 -0.7476 -1.3122 -0.2722
  952MOL0     C31258   8.212   1.263   2.818  0.9114  1.7340 -0.1052
  952MOL0     C31259   8.330   1.174   2.849  0.2048 -0.5359  0.3551
  952MOL0     C31260   8.385   1.067   2.750  0.5375  1.1779 -0.5571
  952MOL0     C31261   8.414   0.943   2.820 -0.0213  1.1629  0.1686
  952MOL0     O31262   8.507   0.969   2.926  0.8513  0.5750 -0.3481
  952MOL0     C31263   8.518   0.878   3.033  0.8007 -0.2774  0.9867
  952MOL0     C31264   8.541   0.938   3.157  0.3853  0.1029  0.0584
  952MOL0     C31265   8.547   0.857   3.272  0.9521  0.1720 -0.0108
  952MOL0     C31266   8.580   0.930   3.401  0.3016 -0.5927  0.3833
  952MOL0     C31267   8.551   0.712   3.260  0.3271 -0.6405  1.2230
  952MOL0     C31268   8.568   0.622   3.375 -0.7133  0.8446  0.3758
  952MOL0     O31269   8.632   0.508   3.344  0.0190 -0.4202  0.2719
  952MOL0     C31270   8.626   0.412   3.439  0.1381 -0.4807  0.2494
  952MOL0     C31271   8.512   0.337   3.473  0.1894  0.3662 -0.3123
  952MOL0     C31272   8.518   0.214   3.553  0.1152  0.4574  0.0528
  952MOL0     C31273   8.641   0.189   3.617  0.7568 -0.0491  0.0033
  952MOL0     O31274   8.675   0.087   3.702 -0.2985 -0.3402 -1.0763
  952MOL0     C31275   8.576  -0.017   3.743 -0.3917 -0.0086 -0.1674
  952MOL0     C31276   8.655  -0.109   3.837 -0.0013 -0.0278 -0.1818
  952MOL0     C31277   8.561  -0.207   3.916  0.3663  0.2527 -0.1382
  952MOL0     C31278   8.537  -0.164   4.056  0.1108  0.2472 -0.2575
  952MOL0     C31279   8.434  -0.258   4.128 -0.7997 -0.1040  0.6738
  952MOL0     C31280   8.357  -0.187   4.248  0.8463  0.3059 -0.4471
  952MOL0     C31281   8.205  -0.201   4.213 -0.1819  0.1796 -0.6317
  952MOL0     C31282   8.135  -0.100   4.303  0.0689  0.2970 -0.1764
  952MOL0    Cl31283   8.140  -0.127   4.480 -0.1945  0.4409  0.3268
  952MOL0     C31284   8.759   0.268   3.584  0.7956  1.3638  0.1649
  952MOL0     C31285   8.750   0.369   3.492  0.3384  0.8698  0.9200
  952MOL0     O31286   8.513   0.649   3.478  0.8636  0.0921 -0.0402
  952MOL0     C31287   8.526   0.658   3.135 -0.2414  0.2680  0.2419
  952MOL0     C31288   8.514   0.738   3.023  0.8882  0.5755  1.1038
  952MOL0     N31289   8.032   1.081   2.896  0.2437 -0.0702  0.7516
  952MOL0     N31290   7.913   1.046   2.862  0.3014 -0.4202  0.6027
  952MOL0     C31291   8.556   0.556   2.448 -0.0320  0.3512  0.9121
  952MOL0     C31292   8.629   0.463   2.514 -0.3603  0.2224 -0.0305
  952MOL0     C31293   8.969   0.266   2.754  0.0581 -0.0134  1.0249
  952MOL0     C31294   9.067   0.298   2.854 -0.1159  0.2329  0.4948
  952MOL0     C31295   9.134   0.200   2.916 -0.1312 -0.4316 -0.4376
  952MOL0     C31296   9.114   0.064   2.880  0.4449 -0.5307  0.4858
  952MOL0     O31297   9.196  -0.026   2.943  0.6254 -0.4137  0.0579
  952MOL0     C31298   9.222  -0.165   2.899  0.5358 -0.8990 -0.5829
  952MOL0     C31299   9.340  -0.235   2.971 -1.3351 -0.3212 -0.0709
  952MOL0     C31300   9.306  -0.292   3.104  1.0444 -0.3040  0.2212
  952MOL0     C31301   9.293  -0.188   3.216 -0.7228  0.0216  0.1641
  952MOL0     C31302   9.418  -0.130   3.253  0.1364 -0.3075  0.4614
  952MOL0     C31303   9.518  -0.072   3.293 -0.0912  0.1052 -0.7933
  952MOL0     C31304   9.006   0.035   2.794  0.5476 -0.6060 -0.2493
  952MOL0     C31305   8.936   0.138   2.731 -0.3215  0.0024 -0.6087
  952MOL0     C31306   8.845   0.096   2.620 -1.0926 -0.2770 -0.3102
  952MOL0     H31307   8.779   0.641   2.758  0.3292 -2.2433 -0.6936
  952MOL0     H31308   8.654   0.827   2.620 -3.9113  0.3678  2.6512
  952MOL0     H31309   8.333   0.672   2.378  0.0406 -0.9394 -1.0555
  952MOL0     H31310   8.436   0.733   2.248  0.1503 -0.8674  0.6539
  952MOL0     H31311   8.308   0.951   2.272  4.2437 -0.8683  2.6012
  952MOL0     H31312   8.214   0.810   2.227 -4.1691  1.4520  1.3402
  952MOL0     H31313   8.141   0.769   2.457 -1.0644 -0.4054 -2.4873
  952MOL0     H31314   8.213   0.919   2.504  0.4995  0.6663 -0.4680
  952MOL0     H31315   8.031   1.024   2.338  0.3010  0.7515  2.4402
  952MOL0     H31316   7.978   0.849   2.327  0.0332  1.3117 -2.4149
  952MOL0     H31317   7.982   1.004   2.586  0.5098 -0.2021 -0.1681
  952MOL0     H31318   7.937   0.833   2.554 -0.3878  0.4770  1.6794
  952MOL0     H31319   7.784   1.067   2.418 -0.2300 -0.7588  0.2258
  952MOL0     H31320   7.751   0.898   2.438  2.5641 -2.1284  0.9385
  952MOL0     H31321   7.714   0.911   2.684 -1.2715  0.1901  3.1384
  952MOL0     H31322   7.603   1.003   2.579  0.8921 -1.7089 -2.0853
  952MOL0     H31323   7.752   1.213   2.613  1.4631  1.7077  0.8831
  952MOL0     H31324   7.651   1.159   2.753  0.4689  0.5046  1.2850
  952MOL0     H31325   7.970   1.299   2.661  2.4125 -1.0927 -0.2009
  952MOL0     H31326   8.204   1.343   2.891 -2.3192  2.1463 -0.7442
  952MOL0     H31327   8.223   1.302   2.716  2.9427  1.3229 -0.0916
  952MOL0     H31328   8.415   1.238   2.874  1.9275 -2.1024 -1.1799
  952MOL0     H31329   8.300   1.132   2.946 -1.9396  1.3752  0.5995
  952MOL0     H31330   8.315   1.050   2.668  1.1942  1.3737 -1.1743
  952MOL0     H31331   8.481   1.108   2.714  0.2673  0.8617 -1.6716
  952MOL0     H31332   8.316   0.905   2.851 -0.4778  1.4221 -0.9340
  952MOL0     H31333   8.459   0.866   2.758  1.2282 -0.6091  3.0480
  952MOL0     H31334   8.539   1.047   3.164 -0.0083  0.0578  0.7511
  952MOL0     H31335   8.673   0.899   3.449 -0.1521 -0.4316  1.4146
  952MOL0     H31336   8.494   0.921   3.469 -1.5711  0.6472 -1.6936
  952MOL0     H31337   8.577   1.035   3.374  1.6716 -1.0165 -1.6043
  952MOL0     H31338   8.418   0.357   3.423  1.4248  0.3397 -2.8292
  952MOL0     H31339   8.428   0.153   3.557 -0.7283  1.5134 -1.4730
  952MOL0     H31340   8.494   0.034   3.794  1.5903  2.2250  0.9980
  952MOL0     H31341   8.528  -0.071   3.660 -0.1110  0.2295 -0.4894
  952MOL0     H31342   8.728  -0.171   3.785  1.1355 -0.0333  1.3336
  952MOL0     H31343   8.712  -0.040   3.900  2.2586 -2.2147  0.3333
  952MOL0     H31344   8.607  -0.306   3.916  1.4357  0.7149  1.3910
  952MOL0     H31345   8.464  -0.214   3.866  0.5584 -1.6564 -0.3248
  952MOL0     H31346   8.493  -0.064   4.061 -3.3963 -1.1824  2.5040
  952MOL0     H31347   8.622  -0.160   4.124 -0.3668  0.1126  0.3608
  952MOL0     H31348   8.361  -0.290   4.054 -0.5726 -2.7116  1.4425
  952MOL0     H31349   8.483  -0.348   4.168 -1.4011 -0.1432  1.3383
  952MOL0     H31350   8.387  -0.083   4.264  1.6280 -0.2476  2.3301
  952MOL0     H31351   8.375  -0.245   4.339  0.7717 -1.4147 -1.4793
  952MOL0     H31352   8.162  -0.300   4.231 -0.2802  0.4206  0.5359
  952MOL0     H31353   8.195  -0.171   4.108  3.1236  0.4772 -0.9451
  952MOL0     H31354   8.029  -0.099   4.275  0.0175 -1.5629 -0.1971
  952MOL0     H31355   8.159   0.003   4.276 -3.8463  1.0136 -1.7151
  952MOL0     H31356   8.849   0.230   3.632  0.8855  0.0810 -0.9600
  952MOL0     H31357   8.845   0.409   3.457  0.8603 -1.1274 -0.0696
  952MOL0     H31358   8.527   0.551   3.115  3.9931  0.2930 -0.5449
  952MOL0     H31359   8.506   0.688   2.927 -1.4217  3.4844 -0.3702
  952MOL0     H31360   8.510   0.528   2.354  1.0307 -0.3751  0.5945
  952MOL0     H31361   8.622   0.360   2.480 -0.6708  1.2448 -3.4953
  952MOL0     H31362   9.084   0.400   2.887  1.3081 -0.5310  2.2904
  952MOL0     H31363   9.204   0.229   2.994 -0.2321 -2.1463  0.3451
  952MOL0     H31364   9.135  -0.227   2.922  1.6794 -2.6482 -0.7917
  952MOL0     H31365   9.240  -0.161   2.791  1.5532 -0.1307 -0.4008
  952MOL0     H31366   9.431  -0.174   2.981 -0.9440 -1.0689  1.0959
  952MOL0     H31367   9.359  -0.322   2.907 -2.9832  1.6406 -3.4914
  952MOL0     H31368   9.209  -0.343   3.104 -0.0181  1.6416  0.0570
  952MOL0     H31369   9.383  -0.366   3.130  1.8353  0.3606 -0.1584
  952MOL0     H31370   9.254  -0.238   3.305 -2.0494  0.1105 -0.3319
  952MOL0     H31371   9.236  -0.100   3.183  1.8301  1.2875 -1.1387
  952MOL0     H31372   9.604  -0.020   3.329  0.9404 -0.7966 -1.8687
  952MOL0     H31373   8.965  -0.065   2.779  0.1361 -0.5834  0.6924
  952MOL0     H31374   8.876   0.002   2.574  1.2784  1.2712 -2.1323
  952MOL0     H31375   8.743   0.086   2.657 -1.4246  3.4230  0.1933
  952MOL0     H31376   8.838   0.168   2.538 -2.9700  0.0173  0.0644
  953MOL0     O31377   8.215  10.411   9.707 -0.1491  0.2112 -0.0206
  953MOL0     C31378   8.129  10.341   9.656  1.0652 -0.5716  0.2149
  953MOL0     O31379   8.093  10.337   9.525 -0.1183 -0.4184 -0.8083
  953MOL0     C31380   8.115  10.425   9.427 -1.1711  0.5960 -0.7553
  953MOL0     C31381   8.028  10.433   9.320  0.3944  0.3048 -0.5370
  953MOL0     C31382   8.055  10.515   9.211 -0.1219  0.5731  0.2352
  953MOL0     C31383   8.181  10.579   9.197  0.8765  0.5949  0.1905
  953MOL0     O31384   8.224  10.635   9.077 -0.5543 -0.5645 -0.1742
  953MOL0     C31385   8.347  10.591   9.018 -0.1227 -0.2906 -0.2980
  953MOL0     C31386   8.396  10.710   8.945 -0.5452 -0.6119 -0.6392
  953MOL0     C31387   8.499  10.681   8.839  0.6996 -0.4683  0.6622
  953MOL0     C31388   8.635  10.708   8.892 -0.6505  0.6808  0.0204
  953MOL0     C31389   8.737  10.680   8.781  0.3808  0.1027 -0.7526
  953MOL0     C31390   8.878  10.726   8.827  0.3155 -0.4128  0.0277
  953MOL0     C31391   8.938  10.687   8.961  0.6237 -0.0106 -0.4254
  953MOL0     C31392   9.085  10.710   8.970  0.6968 -0.5750  0.2145
  953MOL0     N31393   9.144  10.597   9.039 -0.9244  0.1138 -0.5807
  953MOL0     C31394   9.202  10.498   8.970  0.2059  0.7383  0.7026
  953MOL0     C31395   9.251  10.417   9.063 -0.1467 -0.7525 -0.1551
  953MOL0     C31396   9.312  10.278   9.049 -0.6694 -1.6258  0.6090
  953MOL0     C31397   9.224  10.180   8.973  0.2856  0.6700  0.6235
  953MOL0     C31398   9.277  10.134   8.835 -0.0588  0.2656  1.0976
  953MOL0     C31399   9.204  10.016   8.775  0.1571 -0.1159  0.4374
  953MOL0     O31400   9.221   9.903   8.862 -0.3273  0.9530  0.5196
  953MOL0     C31401   9.125   9.848   8.945  0.8873 -0.9564 -0.3524
  953MOL0     C31402   9.169   9.729   9.020 -0.3332  0.3939  0.1741
  953MOL0     C31403   9.080   9.667   9.116 -0.4390 -0.9039  0.4993
  953MOL0     C31404   9.140   9.544   9.179  0.1140 -0.5935 -0.1344
  953MOL0     C31405   8.947   9.709   9.121 -0.7520 -1.1771 -0.8788
  953MOL0     C31406   8.844   9.653   9.203  0.0551  1.1281 -0.3702
  953MOL0     O31407   8.732   9.732   9.229 -0.2014  0.5319 -0.4876
  953MOL0     C31408   8.650   9.713   9.337  0.0768  0.9502 -0.4799
  953MOL0     C31409   8.670   9.614   9.445  0.4659 -0.1372  0.9636
  953MOL0     C31410   8.569   9.595   9.545  0.0448  0.0707  0.9938
  953MOL0     C31411   8.451   9.666   9.545  0.4126  0.4896  0.0240
  953MOL0     O31412   8.366   9.647   9.651 -0.1621 -0.6666 -0.2385
  953MOL0     C31413   8.235   9.700   9.644 -0.4216 -0.0509  0.8077
  953MOL0     C31414   8.162   9.690   9.771 -1.3567  0.6873 -0.0483
  953MOL0     C31415   8.125   9.531   9.784 -0.6831  0.3873  0.3104
  953MOL0     C31416   8.040   9.510   9.907 -1.1238  0.3320  0.3882
  953MOL0     C31417   8.002   9.364   9.918  0.0842  1.2239 -0.2970
  953MOL0     C31418   7.892   9.332  10.018  0.8019 -0.2931  0.4644
  953MOL0     C31419   7.862   9.182  10.024 -0.1049  0.1786 -1.3097
  953MOL0     C31420   7.989   9.090  10.053 -0.6310  0.5037  0.9605
  953MOL0    Cl31421   7.919   8.920  10.095  0.2702 -0.0492  0.0700
  953MOL0     C31422   8.433   9.760   9.446  0.0921 -0.4224 -0.5700
  953MOL0     C31423   8.527   9.781   9.347  1.1815 -0.1684  0.6116
  953MOL0     O31424   8.856   9.538   9.230  0.0350  1.0382  0.1325
  953MOL0     C31425   8.908   9.829   9.056 -0.6412 -0.0487  0.0998
  953MOL0     C31426   8.993   9.908   8.971 -0.0466  0.4763 -0.8232
  953MOL0     N31427   9.208  10.465   9.186  0.7557 -0.7032  0.0531
  953MOL0     N31428   9.157  10.582   9.171 -0.2307  0.1672 -0.7557
  953MOL0     C31429   8.264  10.578   9.314  0.4397 -0.6967  0.0081
  953MOL0     C31430   8.235  10.500   9.420  0.4384 -0.7052 -0.0284
  953MOL0     C31431   8.073  10.245   9.749  0.4305 -0.8935  0.3839
  953MOL0     C31432   7.969  10.162   9.701  0.1985  0.0313  0.5761
  953MOL0     C31433   7.915  10.061   9.781  0.2615  0.3238  0.0041
  953MOL0     C31434   7.958  10.034   9.907  0.7311  0.0841  0.0049
  953MOL0     O31435   7.895   9.928   9.959  0.2891 -0.3783 -0.1316
  953MOL0     C31436   7.920   9.909  10.102  0.4306  0.1176 -0.2921
  953MOL0     C31437   7.886   9.758  10.150 -0.0406 -0.2421 -1.3258
  953MOL0     C31438   7.765   9.763  10.235 -0.4003  0.1116 -1.2227
  953MOL0     C31439   7.792   9.798  10.376  0.2185 -0.5704  0.4648
  953MOL0     C31440   7.833   9.689  10.457  0.3561  0.5597 -0.6755
  953MOL0     C31441   7.869   9.586  10.517 -1.1915  0.2460  0.0018
  953MOL0     C31442   8.060  10.109   9.953  0.0194  0.1948 -0.0875
  953MOL0     C31443   8.115  10.221   9.882 -0.5032  0.1251  0.3453
  953MOL0     C31444   8.223  10.294   9.968  0.3946 -0.4132 -0.4519
  953MOL0     H31445   7.935  10.377   9.322 -0.0487  1.0203 -0.6544
  953MOL0     H31446   7.995  10.513   9.120  0.8419  1.9113 -0.4718
  953MOL0     H31447   8.327  10.514   8.943 -3.9224  1.5884 -1.5154
  953MOL0     H31448   8.411  10.558   9.100 -0.4978 -1.3738 -0.4316
  953MOL0     H31449   8.313  10.766   8.900 -0.0558  1.2005  0.6229
  953MOL0     H31450   8.429  10.782   9.021 -0.6714  0.0229 -1.1775
  953MOL0     H31451   8.482  10.585   8.789 -0.1939  0.2655 -0.4867
  953MOL0     H31452   8.479  10.750   8.757 -0.4328 -0.6172  0.8065
  953MOL0     H31453   8.640  10.811   8.930 -0.3912 -0.1160  2.2985
  953MOL0     H31454   8.658  10.651   8.982  1.0861  2.3227  0.6979
  953MOL0     H31455   8.723  10.735   8.688 -1.7842  3.2473  1.2605
  953MOL0     H31456   8.741  10.573   8.755  2.2682 -0.9122  2.9323
  953MOL0     H31457   8.936  10.678   8.747 -2.6033 -0.6750 -2.1014
  953MOL0     H31458   8.888  10.834   8.812  0.9479 -0.5857 -0.8819
  953MOL0     H31459   8.912  10.581   8.971  0.1338  0.1279 -0.1915
  953MOL0     H31460   8.886  10.739   9.043  0.5962 -3.4323  1.9452
  953MOL0     H31461   9.132  10.723   8.872  2.5328 -1.1909  0.9581
  953MOL0     H31462   9.110  10.803   9.022  1.0729 -0.2646 -0.5051
  953MOL0     H31463   9.209  10.480   8.863 -0.8105 -0.6765  0.8354
  953MOL0     H31464   9.337  10.249   9.151 -0.1840  0.1250  1.0212
  953MOL0     H31465   9.411  10.283   9.002 -1.0872  1.8097 -0.2126
  953MOL0     H31466   9.218  10.088   9.033  0.5641 -0.2356 -0.6769
  953MOL0     H31467   9.126  10.227   8.964  0.2772  0.3886 -1.1246
  953MOL0     H31468   9.251  10.209   8.760 -1.7044 -0.5053  0.8631
  953MOL0     H31469   9.382  10.105   8.843 -0.3663 -0.4264  3.0834
  953MOL0     H31470   9.100  10.043   8.758  0.6017 -0.2175 -3.2943
  953MOL0     H31471   9.224   9.991   8.671  1.0864 -1.5625  0.9252
  953MOL0     H31472   9.270   9.693   9.010 -0.5924 -0.2171 -0.2503
  953MOL0     H31473   9.249   9.551   9.184  0.2876 -0.2983 -2.7836
  953MOL0     H31474   9.110   9.463   9.112 -0.5143 -1.5300  1.2483
  953MOL0     H31475   9.111   9.524   9.282  2.5172 -1.8828  0.3650
  953MOL0     H31476   8.749   9.540   9.444  1.2047  0.6176 -0.6476
  953MOL0     H31477   8.599   9.535   9.630 -0.2058  0.3200  1.2619
  953MOL0     H31478   8.236   9.804   9.610  2.1679  0.7585  3.0514
  953MOL0     H31479   8.185   9.647   9.562 -0.8188 -0.4333  1.2928
  953MOL0     H31480   8.235   9.719   9.848 -0.3659  1.8232 -1.3765
  953MOL0     H31481   8.068   9.746   9.769 -2.4994 -1.1648 -2.3215
  953MOL0     H31482   8.219   9.478   9.806  0.8154  1.5469 -2.7925
  953MOL0     H31483   8.080   9.480   9.698 -1.0296  1.6399 -0.2676
  953MOL0     H31484   7.955   9.579   9.897 -1.4081  0.1645  1.4612
  953MOL0     H31485   8.097   9.544   9.995 -1.0190 -0.2474  0.5435
  953MOL0     H31486   7.969   9.332   9.818  0.1174 -1.2494  0.4254
  953MOL0     H31487   8.087   9.302   9.949 -0.8479 -0.0422 -0.1771
  953MOL0     H31488   7.794   9.378  10.004  1.1473 -0.0082 -1.2124
  953MOL0     H31489   7.933   9.364  10.115  0.5240  0.8971  0.2049
  953MOL0     H31490   7.803   9.143   9.940  1.8571 -2.4238 -1.6208
  953MOL0     H31491   7.794   9.167  10.110  1.0744  0.9000 -0.2178
  953MOL0     H31492   8.040   9.141  10.135 -0.1030  2.4144 -0.4887
  953MOL0     H31493   8.061   9.086   9.971 -2.5505 -1.5765 -0.7595
  953MOL0     H31494   8.345   9.822   9.447  0.2827 -0.1079  2.1661
  953MOL0     H31495   8.501   9.855   9.272 -3.5126 -1.7975  0.2694
  953MOL0     H31496   8.811   9.875   9.070 -0.9888 -0.4711 -0.8602
  953MOL0     H31497   8.954   9.999   8.926 -2.9518 -0.5200 -0.5133
  953MOL0     H31498   8.354  10.638   9.314 -2.2420  3.8546 -0.7337
  953MOL0     H31499   8.304  10.474   9.500  0.5308 -4.2869 -1.1040
  953MOL0     H31500   7.928  10.182   9.602  2.8272 -0.9657 -0.8262
  953MOL0     H31501   7.834  10.003   9.738 -1.2108  2.1945  0.0920
  953MOL0     H31502   8.028   9.919  10.116  1.0348 -1.6313 -2.9578
  953MOL0     H31503   7.876   9.984  10.169 -0.2800 -0.7124  0.1860
  953MOL0     H31504   7.972   9.729  10.211  0.1517  2.3781 -0.1889
  953MOL0     H31505   7.872   9.702  10.057  1.6866  1.8854 -2.9692
  953MOL0     H31506   7.693   9.835  10.196 -0.4462  1.6664  1.5122
  953MOL0     H31507   7.713   9.666  10.237 -1.7098  0.8020 -0.9818
  953MOL0     H31508   7.702   9.843  10.419  1.1534  0.9179  0.9864
  953MOL0     H31509   7.879   9.864  10.382  1.0524 -1.6734  0.7918
  953MOL0     H31510   7.904   9.505  10.578 -2.5166  0.4275  1.0545
  953MOL0     H31511   8.092  10.103  10.056 -0.5595  2.2028  0.2606
  953MOL0     H31512   8.209  10.266  10.072  1.0190  1.5370  0.1945
  953MOL0     H31513   8.327  10.274   9.940 -0.0090 -0.1791 -2.2744
  953MOL0     H31514   8.218  10.403   9.960  5.0658  0.1014  0.9028
  954MOL0     O31515   3.630   3.639   8.436  0.5127 -0.2179 -0.9584
  954MOL0     C31516   3.516   3.687   8.461 -0.6718  0.0643  0.2117
  954MOL0     O31517   3.415   3.697   8.362  0.7838 -0.4835 -0.4119
  954MOL0     C31518   3.423   3.654   8.232  1.0789 -0.0671  0.2054
  954MOL0     C31519   3.318   3.575   8.181  0.5868  0.1292 -0.4603
  954MOL0     C31520   3.335   3.526   8.057  0.5975 -0.0727  0.3645
  954MOL0     C31521   3.441   3.562   7.973 -0.0539  0.4951  0.1597
  954MOL0     O31522   3.459   3.531   7.839  0.0893  0.0268  0.5463
  954MOL0     C31523   3.376   3.436   7.775 -0.3897 -0.3660  0.4994
  954MOL0     C31524   3.459   3.380   7.657  0.0997  0.1123 -0.1963
  954MOL0     C31525   3.367   3.273   7.579 -0.8404 -0.6156  0.7172
  954MOL0     C31526   3.447   3.224   7.457  0.9917 -0.3310 -0.0378
  954MOL0     C31527   3.359   3.125   7.365 -0.9060 -0.0121  0.1576
  954MOL0     C31528   3.444   3.069   7.251 -0.4896 -0.2957 -0.0211
  954MOL0     C31529   3.386   2.947   7.172 -0.2315  0.0680 -0.1535
  954MOL0     C31530   3.497   2.893   7.071  0.1117 -0.1315  0.6398
  954MOL0     N31531   3.600   2.826   7.144 -0.2897 -0.2628 -0.0176
  954MOL0     C31532   3.598   2.692   7.155  0.0965  1.3225 -0.6369
  954MOL0     C31533   3.710   2.658   7.230  1.0730  0.3803  0.7063
  954MOL0     C31534   3.747   2.513   7.294  0.6636 -0.1744 -0.8350
  954MOL0     C31535   3.892   2.479   7.267 -0.5589 -0.9350  0.2931
  954MOL0     C31536   3.930   2.333   7.306  0.5545  0.0251 -0.5012
  954MOL0     C31537   3.915   2.228   7.199  1.0004 -0.3557  0.7884
  954MOL0     O31538   3.944   2.098   7.247 -0.3627  0.4102 -0.3363
  954MOL0     C31539   3.907   1.988   7.162 -0.3534  0.0726 -0.4138
  954MOL0     C31540   3.969   1.861   7.192  0.1845 -0.2378 -0.2399
  954MOL0     C31541   3.933   1.749   7.122  0.1103 -0.0192  0.6225
  954MOL0     C31542   3.991   1.621   7.167  0.1164 -0.5577  0.7736
  954MOL0     C31543   3.852   1.767   7.006  0.5335  0.3755  0.8285
  954MOL0     C31544   3.811   1.662   6.907 -0.5189 -0.6156  0.4477
  954MOL0     O31545   3.808   1.704   6.780  0.1535  0.3890  0.7807
  954MOL0     C31546   3.750   1.629   6.681 -1.0829  0.8115  0.0599
  954MOL0     C31547   3.810   1.638   6.553 -0.0758  0.2929  0.5700
  954MOL0     C31548   3.770   1.561   6.446  0.6881  0.1745 -1.0894
  954MOL0     C31549   3.664   1.472   6.468  0.8335  0.3762  0.7526
  954MOL0     O31550   3.632   1.374   6.371  0.5064 -0.2715 -0.1986
  954MOL0     C31551   3.546   1.422   6.274 -0.1202 -0.6437  0.0186
  954MOL0     C31552   3.622   1.470   6.144 -0.1130 -0.0263  0.1670
  954MOL0     C31553   3.524   1.504   6.043  0.1694  0.3563 -0.5172
  954MOL0     C31554   3.567   1.567   5.915 -0.2713 -0.3215  0.2678
  954MOL0     C31555   3.443   1.631   5.837 -0.3893  0.3860  0.4000
  954MOL0     C31556   3.430   1.573   5.689 -0.8569  0.8252 -0.4919
  954MOL0     C31557   3.409   1.428   5.677 -0.4223 -1.1106 -1.4099
  954MOL0     C31558   3.383   1.388   5.529 -0.1215  0.1960  0.7598
  954MOL0    Cl31559   3.222   1.425   5.466 -0.2098 -0.5262 -0.2411
  954MOL0     C31560   3.603   1.461   6.587 -0.3591 -0.6932 -0.4439
  954MOL0     C31561   3.646   1.540   6.697  0.9176 -0.6755  0.2584
  954MOL0     O31562   3.794   1.546   6.941 -0.5250 -0.0543  0.6144
  954MOL0     C31563   3.802   1.891   6.972  0.2668  0.1329  1.5089
  954MOL0     C31564   3.826   2.000   7.052 -0.1079 -0.7552  0.6348
  954MOL0     N31565   3.779   2.778   7.249  0.3789 -0.0960  0.2689
  954MOL0     N31566   3.723   2.877   7.191  0.4047 -0.7192 -0.0535
  954MOL0     C31567   3.541   3.634   8.029 -0.9723 -0.2847  0.3357
  954MOL0     C31568   3.535   3.688   8.150  0.3681 -1.0865 -1.2500
  954MOL0     C31569   3.493   3.739   8.589  1.2969 -0.0205 -0.6933
  954MOL0     C31570   3.452   3.875   8.602 -0.1147  0.2390  0.2109
  954MOL0     C31571   3.449   3.931   8.729  0.4000  0.3345  0.7087
  954MOL0     C31572   3.448   3.856   8.843 -1.0144 -0.0201  0.0704
  954MOL0     O31573   3.441   3.920   8.961  0.1896  0.5564  0.1255
  954MOL0     C31574   3.414   3.828   9.074  0.0752 -0.4627 -0.4915
  954MOL0     C31575   3.364   3.928   9.184  0.5556 -0.6474  0.2989
  954MOL0     C31576   3.375   3.859   9.315  0.8185 -0.2410 -0.0410
  954MOL0     C31577   3.319   3.953   9.426 -0.1501  0.5032 -0.1040
  954MOL0     C31578   3.394   4.078   9.442 -0.2448  0.5509 -0.8011
  954MOL0     C31579   3.481   4.161   9.465  0.9346  0.0717 -0.9107
  954MOL0     C31580   3.471   3.718   8.834  0.2873 -0.0364 -0.3400
  954MOL0     C31581   3.487   3.658   8.706 -0.0313  0.2508 -1.4258
  954MOL0     C31582   3.526   3.512   8.692 -1.0934 -0.4885  0.6789
  954MOL0     H31583   3.234   3.545   8.242  2.4513 -0.1983  2.1242
  954MOL0     H31584   3.253   3.465   8.021  1.6579 -0.4920 -1.4548
  954MOL0     H31585   3.286   3.491   7.745 -0.7936 -0.4462  1.5087
  954MOL0     H31586   3.365   3.350   7.842 -0.8047  0.1263  1.0725
  954MOL0     H31587   3.497   3.458   7.590  0.1261  0.9030  0.7022
  954MOL0     H31588   3.541   3.319   7.693  0.7718  2.0327  1.7480
  954MOL0     H31589   3.347   3.187   7.644  1.4891 -1.9416 -0.1798
  954MOL0     H31590   3.275   3.319   7.544 -1.7592 -0.5357  3.0843
  954MOL0     H31591   3.456   3.316   7.399 -0.4486 -0.6326 -0.7782
  954MOL0     H31592   3.541   3.179   7.490  0.5131 -0.0832  1.8037
  954MOL0     H31593   3.282   3.190   7.322  0.2186  2.5058  1.7140
  954MOL0     H31594   3.318   3.044   7.425  0.0272 -0.9541 -0.4469
  954MOL0     H31595   3.486   3.149   7.189 -2.3175  0.9639  0.2906
  954MOL0     H31596   3.526   3.026   7.310  1.1383  2.8533  0.2186
  954MOL0     H31597   3.293   2.969   7.119 -1.6237 -0.6389  1.8813
  954MOL0     H31598   3.361   2.868   7.243  0.5264  1.2036  1.4478
  954MOL0     H31599   3.452   2.827   6.996 -0.5209  0.8065  0.1747
  954MOL0     H31600   3.546   2.968   7.009  0.3434 -1.1688 -0.4752
  954MOL0     H31601   3.525   2.623   7.113  2.5168 -2.3077  0.6938
  954MOL0     H31602   3.681   2.432   7.260 -0.0156  0.3643 -0.8304
  954MOL0     H31603   3.728   2.515   7.401  2.4742  1.6090 -0.4893
  954MOL0     H31604   3.912   2.503   7.163 -0.3442 -3.0652 -0.2074
  954MOL0     H31605   3.951   2.543   7.333  1.9398 -1.5782 -1.2140
  954MOL0     H31606   4.034   2.331   7.340  0.2978 -1.3412  0.2843
  954MOL0     H31607   3.861   2.300   7.383  0.2459 -1.3704 -1.3450
  954MOL0     H31608   3.811   2.235   7.167  0.7421  0.5446  1.7467
  954MOL0     H31609   3.984   2.254   7.119  1.7157 -1.2931  1.0821
  954MOL0     H31610   4.025   1.859   7.285 -1.1525 -0.0515  0.6031
  954MOL0     H31611   4.094   1.634   7.201  0.7344 -0.5966 -0.9887
  954MOL0     H31612   3.985   1.544   7.089  2.6196  0.0199 -0.0787
  954MOL0     H31613   3.932   1.588   7.254  0.5621 -1.8304  0.6185
  954MOL0     H31614   3.908   1.683   6.541  1.5057 -2.9867  0.0276
  954MOL0     H31615   3.811   1.577   6.347  0.5087  0.6770 -1.0878
  954MOL0     H31616   3.482   1.336   6.252 -0.5602 -0.2053 -0.4302
  954MOL0     H31617   3.481   1.503   6.309  3.1909  1.3297  2.1423
  954MOL0     H31618   3.698   1.544   6.172 -0.8954  0.7831  0.1683
  954MOL0     H31619   3.678   1.396   6.085  2.0596  0.3557  1.6201
  954MOL0     H31620   3.459   1.572   6.099 -0.2921 -1.8013  1.7494
  954MOL0     H31621   3.456   1.420   6.025 -0.0947  0.3244  0.5949
  954MOL0     H31622   3.630   1.493   5.865  2.8061  1.4392  1.2543
  954MOL0     H31623   3.630   1.656   5.922 -2.4343  1.2801  0.7097
  954MOL0     H31624   3.350   1.602   5.886  0.5020 -0.2513  1.7911
  954MOL0     H31625   3.442   1.740   5.830  1.0849  0.2990 -2.4989
  954MOL0     H31626   3.522   1.598   5.635  0.2615 -0.5074  0.7021
  954MOL0     H31627   3.343   1.621   5.643 -0.1632  0.4524 -2.2862
  954MOL0     H31628   3.324   1.403   5.741  1.3796  0.1508  1.6845
  954MOL0     H31629   3.502   1.390   5.722  0.2848  1.5819 -0.4177
  954MOL0     H31630   3.383   1.279   5.539 -0.3279 -0.5359 -4.4001
  954MOL0     H31631   3.447   1.417   5.445 -0.2233 -0.1208  0.5711
  954MOL0     H31632   3.536   1.380   6.615 -0.2854  0.1197  2.4422
  954MOL0     H31633   3.586   1.535   6.787  0.2045 -1.7371 -0.2483
  954MOL0     H31634   3.731   1.895   6.890  2.8298 -0.8156 -0.8987
  954MOL0     H31635   3.776   2.093   7.028  0.4463 -0.1578  1.7266
  954MOL0     H31636   3.624   3.641   7.960 -1.8931 -2.5782 -1.1219
  954MOL0     H31637   3.616   3.744   8.195  2.1516 -4.4939  0.2082
  954MOL0     H31638   3.423   3.936   8.518 -0.9154  2.5227  2.0248
  954MOL0     H31639   3.432   4.038   8.729 -1.2712  0.1068  1.5249
  954MOL0     H31640   3.332   3.759   9.052  0.0259 -0.6950  0.3986
  954MOL0     H31641   3.504   3.778   9.110 -0.8611 -2.0299 -0.2424
  954MOL0     H31642   3.260   3.955   9.164  0.7295 -0.0617  0.1625
  954MOL0     H31643   3.436   4.009   9.195 -0.1372  0.0025  0.1496
  954MOL0     H31644   3.321   3.764   9.302  0.1318  0.0813  0.3838
  954MOL0     H31645   3.477   3.840   9.350 -0.0466  1.8418  4.2736
  954MOL0     H31646   3.304   3.898   9.519  3.0621  1.4781  1.1421
  954MOL0     H31647   3.217   3.983   9.400 -0.8702 -0.8981  0.9555
  954MOL0     H31648   3.559   4.232   9.482  0.3339  0.3970  0.6191
  954MOL0     H31649   3.468   3.645   8.915  1.7215  0.4796  0.2014
  954MOL0     H31650   3.520   3.466   8.791 -4.3157  0.4933  1.0599
  954MOL0     H31651   3.452   3.464   8.627 -1.7042  0.7584  0.4175
  954MOL0     H31652   3.626   3.490   8.653 -1.1107  2.6865 -1.5705
  955MOL0     O31653   1.143   5.232   4.601  0.2176 -0.5090  0.0535
  955MOL0     C31654   1.125   5.331   4.678 -0.0696 -0.3530  0.3475
  955MOL0     O31655   1.185   5.339   4.805  0.3902  0.7613  0.2430
  955MOL0     C31656   1.260   5.226   4.838 -0.6565 -0.8958 -0.9444
  955MOL0     C31657   1.396   5.253   4.845 -0.4481  0.4687 -0.3317
  955MOL0     C31658   1.486   5.137   4.866  0.3387 -0.5640  0.5234
  955MOL0     C31659   1.442   4.999   4.876  0.4625  0.0571 -0.9119
  955MOL0     O31660   1.526   4.883   4.882  0.2122 -0.2970 -0.0308
  955MOL0     C31661   1.661   4.909   4.855  0.6154 -0.8118  0.7173
  955MOL0     C31662   1.738   4.789   4.785 -0.4136 -0.4117 -0.0043
  955MOL0     C31663   1.696   4.789   4.640  0.1392 -0.1925  0.7325
  955MOL0     C31664   1.754   4.668   4.567  0.2145  0.2128  1.1450
  955MOL0     C31665   1.709   4.668   4.423  0.9207 -0.0782  0.3382
  955MOL0     C31666   1.711   4.801   4.348  0.3275 -0.0933  1.8479
  955MOL0     C31667   1.843   4.881   4.356  0.1334 -0.2115  0.0143
  955MOL0     C31668   1.882   4.958   4.234  0.3564 -0.4901 -0.4594
  955MOL0     N31669   2.015   5.007   4.232 -0.1609  0.9199  0.3797
  955MOL0     C31670   2.130   4.932   4.270  0.7566  0.2624  0.1619
  955MOL0     C31671   2.225   5.019   4.295 -0.4147  0.9558  0.3390
  955MOL0     C31672   2.354   4.966   4.340  0.0406  0.4291 -0.3581
  955MOL0     C31673   2.480   5.047   4.313  1.2195  0.1934  0.7356
  955MOL0     C31674   2.498   5.187   4.374  0.2819  0.1077 -0.7107
  955MOL0     C31675   2.460   5.194   4.527 -1.0874 -1.2840 -0.6947
  955MOL0     O31676   2.439   5.334   4.566  0.6271 -0.1212 -0.3295
  955MOL0     C31677   2.405   5.355   4.702  0.3055  0.8648  0.2744
  955MOL0     C31678   2.370   5.487   4.734 -0.4630  0.2281  0.0087
  955MOL0     C31679   2.352   5.533   4.865  0.2811  0.1396  0.1563
  955MOL0     C31680   2.328   5.679   4.879 -0.0226 -0.1839  0.2976
  955MOL0     C31681   2.353   5.440   4.972  0.0031  0.0068 -0.2953
  955MOL0     C31682   2.352   5.477   5.114 -0.3171 -0.2374 -1.4100
  955MOL0     O31683   2.336   5.373   5.205  0.3346  0.1818 -0.2141
  955MOL0     C31684   2.344   5.393   5.342  0.3788 -0.3756 -0.6628
  955MOL0     C31685   2.243   5.348   5.425  0.5486 -0.7762  0.6572
  955MOL0     C31686   2.252   5.366   5.565  0.0685 -1.7194 -0.6932
  955MOL0     C31687   2.374   5.419   5.622  0.0363  0.0233 -0.0246
  955MOL0     O31688   2.379   5.429   5.758  0.6050  0.7360 -0.6802
  955MOL0     C31689   2.271   5.399   5.848 -0.2863  0.7006  0.5516
  955MOL0     C31690   2.320   5.455   5.981  0.2763 -0.5709 -0.8865
  955MOL0     C31691   2.241   5.384   6.091  0.4291 -0.0360 -0.0030
  955MOL0     C31692   2.302   5.430   6.226 -0.2034 -0.1006 -0.3380
  955MOL0     C31693   2.251   5.351   6.341  0.5820 -0.4377 -0.0331
  955MOL0     C31694   2.101   5.362   6.367 -0.2793 -0.0797  0.4432
  955MOL0     C31695   2.062   5.291   6.498  0.0527 -0.5262 -0.8891
  955MOL0     C31696   2.079   5.374   6.625 -0.5248  0.7229  0.5269
  955MOL0    Cl31697   1.957   5.503   6.638  0.1800 -0.1478 -0.3165
  955MOL0     C31698   2.468   5.463   5.529  0.2593 -0.1346 -0.4477
  955MOL0     C31699   2.460   5.441   5.398  0.6669  0.1343  0.0228
  955MOL0     O31700   2.371   5.594   5.145 -0.1235 -0.1102 -0.0603
  955MOL0     C31701   2.384   5.303   4.942  0.0983 -0.9597 -0.2775
  955MOL0     C31702   2.418   5.265   4.811 -0.3622  0.4558 -0.0453
  955MOL0     N31703   2.184   5.146   4.269  0.3244  0.2794  0.3859
  955MOL0     N31704   2.055   5.136   4.229 -0.4866 -0.2262  0.5667
  955MOL0     C31705   1.308   4.988   4.866  0.3680  0.6707  0.1773
  955MOL0     C31706   1.213   5.093   4.855 -0.4913 -0.2340 -0.7589
  955MOL0     C31707   1.061   5.463   4.651  0.0961 -0.3781 -0.4573
  955MOL0     C31708   1.021   5.541   4.755  0.3028 -0.9086 -0.4592
  955MOL0     C31709   0.952   5.666   4.730  0.9564  1.5749  0.5492
  955MOL0     C31710   0.925   5.713   4.599 -0.7465  0.1689 -0.7442
  955MOL0     O31711   0.848   5.826   4.585 -0.1475  0.0143  0.0127
  955MOL0     C31712   0.840   5.886   4.462  0.4247  0.0715  0.8744
  955MOL0     C31713   0.950   5.987   4.453 -0.0319 -0.8416  0.2917
  955MOL0     C31714   1.090   5.958   4.426  0.4943 -0.6378  0.3534
  955MOL0     C31715   1.186   6.080   4.452  0.9607  1.2404  0.6640
  955MOL0     C31716   1.140   6.175   4.350  0.9698  0.2420  0.3229
  955MOL0     C31717   1.117   6.249   4.248 -0.2463 -0.2006 -0.9848
  955MOL0     C31718   0.975   5.622   4.484 -0.5033 -0.9330 -0.6774
  955MOL0     C31719   1.034   5.501   4.518 -0.3346 -0.0280 -0.1358
  955MOL0     C31720   1.062   5.420   4.393 -0.2596  0.0270 -0.1738
  955MOL0     H31721   1.442   5.351   4.843  2.6218 -0.8807 -1.8647
  955MOL0     H31722   1.591   5.163   4.874  0.1524  2.7000 -4.0099
  955MOL0     H31723   1.718   4.945   4.942  0.9751  1.7287 -0.4818
  955MOL0     H31724   1.675   4.986   4.779  0.1858 -0.4089  1.0387
  955MOL0     H31725   1.846   4.803   4.793 -0.4587 -0.5936  1.0717
  955MOL0     H31726   1.724   4.689   4.827 -0.3963 -0.0440  0.8997
  955MOL0     H31727   1.587   4.802   4.631 -0.0407  0.4000  3.0424
  955MOL0     H31728   1.737   4.885   4.607  0.7066 -0.8529 -0.5112
  955MOL0     H31729   1.862   4.679   4.566  0.1192  1.1552 -0.1448
  955MOL0     H31730   1.729   4.568   4.606 -1.8148 -1.7424 -4.2564
  955MOL0     H31731   1.607   4.632   4.436  1.8035 -2.8310  0.1267
  955MOL0     H31732   1.759   4.591   4.364 -0.9915 -2.5565  1.8013
  955MOL0     H31733   1.689   4.771   4.245  2.6713 -1.3186  1.6432
  955MOL0     H31734   1.624   4.854   4.389  0.5950 -0.1578  2.5164
  955MOL0     H31735   1.918   4.810   4.393  0.2934 -0.3406 -0.5442
  955MOL0     H31736   1.830   4.960   4.430  0.1244  1.6182 -1.8727
  955MOL0     H31737   1.861   4.884   4.156 -1.6001 -3.5522  2.7042
  955MOL0     H31738   1.806   5.032   4.206  0.9146  0.1899 -0.2204
  955MOL0     H31739   2.139   4.824   4.273 -0.7116  0.1019 -0.2567
  955MOL0     H31740   2.373   4.875   4.283  0.0404  0.7355 -0.8540
  955MOL0     H31741   2.342   4.947   4.447  1.0730  2.9931  0.2959
  955MOL0     H31742   2.561   4.987   4.354  1.2403  1.7655  3.2085
  955MOL0     H31743   2.501   5.054   4.206  0.1910 -0.3275  0.4816
  955MOL0     H31744   2.599   5.228   4.368  1.0990 -1.7665 -0.2299
  955MOL0     H31745   2.427   5.249   4.317  0.7351  0.0144 -1.3918
  955MOL0     H31746   2.371   5.134   4.552 -0.7186 -1.4113  0.3808
  955MOL0     H31747   2.551   5.148   4.567  0.1751  1.0374 -0.7640
  955MOL0     H31748   2.364   5.559   4.652 -0.5478 -1.2734 -1.3652
  955MOL0     H31749   2.300   5.716   4.978 -0.7303 -0.9465  0.3890
  955MOL0     H31750   2.247   5.710   4.813 -1.4001 -0.9588  1.5789
  955MOL0     H31751   2.404   5.747   4.839 -2.8060  2.5326 -0.7138
  955MOL0     H31752   2.149   5.316   5.380  1.3808  0.5705 -2.2782
  955MOL0     H31753   2.182   5.318   5.633  0.6272  1.0402  2.0588
  955MOL0     H31754   2.183   5.458   5.821 -1.0435  1.5042  4.1810
  955MOL0     H31755   2.250   5.292   5.863 -1.9814  1.1710  1.9149
  955MOL0     H31756   2.426   5.436   5.996  0.4002 -0.9898 -2.1588
  955MOL0     H31757   2.300   5.562   5.985 -2.6926 -0.9854 -1.5494
  955MOL0     H31758   2.262   5.278   6.080  4.5393  0.3556  2.3237
  955MOL0     H31759   2.136   5.417   6.096  1.7195  4.7123  2.2883
  955MOL0     H31760   2.290   5.537   6.244  2.3770  0.5978 -2.1412
  955MOL0     H31761   2.411   5.417   6.236  0.0435 -2.9979 -4.3550
  955MOL0     H31762   2.263   5.242   6.333 -0.9741 -1.1826  4.5073
  955MOL0     H31763   2.323   5.380   6.417  1.0046 -0.2218 -0.5129
  955MOL0     H31764   2.071   5.305   6.279  0.1970 -2.0361  1.4692
  955MOL0     H31765   2.061   5.464   6.366 -2.0372 -0.7263 -1.2571
  955MOL0     H31766   2.136   5.211   6.501  2.3844  1.5463  0.5001
  955MOL0     H31767   1.956   5.265   6.487 -0.1399  0.7260 -2.3978
  955MOL0     H31768   2.186   5.400   6.626  0.5867 -2.9547 -2.1221
  955MOL0     H31769   2.063   5.313   6.714 -2.1698  0.6469  0.1974
  955MOL0     H31770   2.563   5.497   5.568  0.6700 -2.1067  0.3906
  955MOL0     H31771   2.542   5.475   5.335  1.0090 -1.3485 -0.3686
  955MOL0     H31772   2.392   5.235   5.026 -1.0524 -2.5915 -1.4370
  955MOL0     H31773   2.457   5.165   4.799  1.2254  0.7094  2.3246
  955MOL0     H31774   1.266   4.890   4.844 -0.7809  0.3193  3.3610
  955MOL0     H31775   1.111   5.074   4.823 -0.8480  1.3087 -0.5975
  955MOL0     H31776   1.036   5.507   4.857  0.1960  0.3027 -0.0199
  955MOL0     H31777   0.922   5.731   4.812 -3.2981 -1.1036  1.4579
  955MOL0     H31778   0.838   5.808   4.385 -0.0540  1.3268 -0.4148
  955MOL0     H31779   0.746   5.942   4.464  0.3282 -0.0206 -0.4741
  955MOL0     H31780   0.946   6.043   4.547 -0.2653 -1.2051  0.4974
  955MOL0     H31781   0.917   6.053   4.372  2.6571  0.4884  0.1681
  955MOL0     H31782   1.123   5.883   4.498  1.8617 -0.5232 -0.1191
  955MOL0     H31783   1.098   5.940   4.319  2.2177  3.3119 -0.3625
  955MOL0     H31784   1.293   6.058   4.441  0.8582  1.6495 -1.8138
  955MOL0     H31785   1.167   6.112   4.555  1.7317  4.0864  0.0334
  955MOL0     H31786   1.089   6.301   4.160  1.7104  1.5595 -0.6560
  955MOL0     H31787   0.958   5.652   4.381  0.4233 -0.0335 -0.5817
  955MOL0     H31788   1.170   5.410   4.381 -0.2432  0.2145 -0.1827
  955MOL0     H31789   1.022   5.322   4.422 -0.8906  1.0280  2.7421
  955MOL0     H31790   1.018   5.462   4.303 -0.3560 -0.5722 -0.4136
  956MOL0     O31791   6.712   1.608   4.554  0.6054 -0.2436  0.4337
  956MOL0     C31792   6.781   1.599   4.657  1.4448 -0.0271 -0.2817
  956MOL0     O31793   6.911   1.643   4.671  0.0761  0.0924 -0.9898
  956MOL0     C31794   6.990   1.702   4.569 -0.1406  0.9625  0.6005
  956MOL0     C31795   6.962   1.671   4.430  0.0989 -0.3061 -0.5927
  956MOL0     C31796   7.036   1.746   4.338  0.7409  0.2977 -0.7161
  956MOL0     C31797   7.141   1.844   4.376  0.5229 -0.0390  0.0419
  956MOL0     O31798   7.196   1.928   4.276  0.1227 -0.0361 -0.0273
  956MOL0     C31799   7.334   1.985   4.303  0.2981 -0.0115  0.5311
  956MOL0     C31800   7.416   2.030   4.175  0.0501 -0.0143 -0.0254
  956MOL0     C31801   7.361   2.164   4.128 -0.3160 -0.3138 -0.0375
  956MOL0     C31802   7.439   2.299   4.174 -0.2165 -0.2582 -1.0369
  956MOL0     C31803   7.374   2.428   4.130  0.2884  0.8033 -0.1302
  956MOL0     C31804   7.421   2.554   4.211  0.3660  0.0672  0.2899
  956MOL0     C31805   7.366   2.549   4.355 -0.7015 -0.9034  0.0328
  956MOL0     C31806   7.427   2.664   4.436 -0.5129 -0.3192 -0.0009
  956MOL0     N31807   7.351   2.689   4.556 -0.0855  0.1980  0.3690
  956MOL0     C31808   7.243   2.779   4.572  0.4391 -0.4266 -0.6612
  956MOL0     C31809   7.209   2.772   4.710 -1.3822  0.6017  0.5126
  956MOL0     C31810   7.137   2.873   4.788 -0.6705  0.1528 -0.0337
  956MOL0     C31811   6.998   2.830   4.839 -0.2681  0.4015  0.0489
  956MOL0     C31812   6.877   2.846   4.745  0.2746  0.3832  0.8013
  956MOL0     C31813   6.751   2.786   4.808 -0.8445  0.6763 -0.4913
  956MOL0     O31814   6.778   2.645   4.829 -0.4120 -0.4049  0.7205
  956MOL0     C31815   6.667   2.579   4.868  0.3822  0.6190 -0.6228
  956MOL0     C31816   6.654   2.448   4.840 -0.1472  0.4447 -1.0528
  956MOL0     C31817   6.530   2.383   4.877  0.1659  0.2021 -0.4659
  956MOL0     C31818   6.525   2.230   4.845 -0.5723 -0.0395 -0.0718
  956MOL0     C31819   6.426   2.450   4.939  0.2159 -0.2181 -0.1085
  956MOL0     C31820   6.290   2.386   4.971  0.2070 -0.2259  0.4326
  956MOL0     O31821   6.189   2.478   4.974 -0.6410 -0.1813 -0.5470
  956MOL0     C31822   6.062   2.428   4.958 -0.2468  0.4160  0.6597
  956MOL0     C31823   6.020   2.389   4.827 -0.2552  0.2147 -0.1228
  956MOL0     C31824   5.893   2.335   4.801  0.5310  0.4066 -0.8254
  956MOL0     C31825   5.806   2.315   4.915 -1.3096 -0.4359  0.2032
  956MOL0     O31826   5.688   2.270   4.872 -0.9612  0.2237 -0.5487
  956MOL0     C31827   5.599   2.225   4.974 -0.7719  0.8201 -0.2457
  956MOL0     C31828   5.478   2.156   4.913 -0.1576 -0.1468  0.3512
  956MOL0     C31829   5.361   2.250   4.915  0.5875  0.4558 -0.2521
  956MOL0     C31830   5.225   2.179   4.888 -0.3661 -0.6534 -0.2023
  956MOL0     C31831   5.171   2.105   5.004  0.0603  1.1504  0.0125
  956MOL0     C31832   5.102   2.194   5.111  0.3308 -0.0266 -0.5603
  956MOL0     C31833   5.015   2.108   5.206  0.1831  1.3141 -0.5847
  956MOL0     C31834   4.882   2.076   5.139 -0.1674  0.5266 -0.2796
  956MOL0    Cl31835   4.786   1.997   5.259  0.5964  0.2165  0.3103
  956MOL0     C31836   5.840   2.367   5.046  0.5518  0.1504  0.2763
  956MOL0     C31837   5.967   2.421   5.067  0.1789 -0.2137 -0.6918
  956MOL0     O31838   6.276   2.266   4.968 -0.0342  0.4299 -0.7778
  956MOL0     C31839   6.448   2.584   4.970  0.2411  0.1977  0.2277
  956MOL0     C31840   6.563   2.642   4.938 -1.0211 -0.2359 -0.7129
  956MOL0     N31841   7.280   2.665   4.760 -0.4114  0.1690  0.7656
  956MOL0     N31842   7.363   2.625   4.676  0.7556 -0.1502 -0.3286
  956MOL0     C31843   7.176   1.849   4.517  0.3967  0.6955  0.3743
  956MOL0     C31844   7.096   1.787   4.609 -0.1879  0.1643 -0.7789
  956MOL0     C31845   6.705   1.544   4.776  0.5693  0.1582 -0.2175
  956MOL0     C31846   6.565   1.535   4.778  0.0781 -0.0922  0.8866
  956MOL0     C31847   6.501   1.477   4.881 -0.0035  0.2072 -1.0204
  956MOL0     C31848   6.563   1.425   4.989 -0.1489 -0.3405 -0.4110
  956MOL0     O31849   6.485   1.383   5.094 -0.3875 -0.0664  0.2398
  956MOL0     C31850   6.515   1.443   5.218 -0.0453 -0.4251  1.1868
  956MOL0     C31851   6.422   1.403   5.337 -0.6645 -0.1019  0.0988
  956MOL0     C31852   6.410   1.252   5.347  0.8026  1.1255 -0.7591
  956MOL0     C31853   6.279   1.206   5.291 -0.4490 -0.3821 -0.5790
  956MOL0     C31854   6.256   1.057   5.295  0.4452  0.0513 -0.1662
  956MOL0     C31855   6.231   0.941   5.271  0.0722 -0.9759 -0.1683
  956MOL0     C31856   6.700   1.437   4.995 -1.0104 -0.2411 -0.0007
  956MOL0     C31857   6.781   1.504   4.894  0.3949 -0.3760 -0.0086
  956MOL0     C31858   6.925   1.530   4.931  0.4898 -1.2041  0.0264
  956MOL0     H31859   6.894   1.590   4.408 -1.1275  0.3979  0.4893
  956MOL0     H31860   7.017   1.741   4.231 -0.7826  2.1154 -0.5789
  956MOL0     H31861   7.382   1.911   4.368 -1.5646 -2.4798 -0.7253
  956MOL0     H31862   7.305   2.073   4.360 -3.9087 -2.5044  2.6713
  956MOL0     H31863   7.524   2.023   4.190  0.0746  0.6868  0.1235
  956MOL0     H31864   7.400   1.963   4.089 -1.7448  2.8586 -2.1377
  956MOL0     H31865   7.365   2.157   4.019  1.5306  2.1667 -0.2239
  956MOL0     H31866   7.253   2.170   4.137 -1.2524 -6.9560 -1.2413
  956MOL0     H31867   7.471   2.296   4.279 -2.0490 -0.9417 -0.4493
  956MOL0     H31868   7.537   2.304   4.127 -0.6529  0.7346 -1.8698
  956MOL0     H31869   7.266   2.410   4.137  0.5791 -1.4828 -0.5135
  956MOL0     H31870   7.389   2.443   4.023 -3.7408 -0.4681 -1.0636
  956MOL0     H31871   7.529   2.555   4.200  0.2133 -1.7155 -2.3084
  956MOL0     H31872   7.380   2.642   4.161  1.4971  1.2418  1.3646
  956MOL0     H31873   7.386   2.456   4.409 -1.6860 -1.1315  0.0136
  956MOL0     H31874   7.258   2.562   4.341 -0.8162 -2.0074 -0.1493
  956MOL0     H31875   7.525   2.634   4.475 -1.3705 -0.7206  1.9703
  956MOL0     H31876   7.441   2.758   4.382  1.6058 -1.1181 -0.9408
  956MOL0     H31877   7.214   2.841   4.487  0.1727  2.2635  1.2773
  956MOL0     H31878   7.133   2.964   4.728 -0.5643  0.2762  0.1444
  956MOL0     H31879   7.195   2.902   4.876  1.2055 -0.7304 -0.9283
  956MOL0     H31880   7.008   2.727   4.873 -0.6785  0.6671  1.0025
  956MOL0     H31881   6.982   2.886   4.932 -2.4911 -1.3865  0.8457
  956MOL0     H31882   6.876   2.949   4.709  2.0366  0.2978  0.4249
  956MOL0     H31883   6.895   2.790   4.652 -0.0009  0.5282  0.6586
  956MOL0     H31884   6.745   2.831   4.908  2.9160 -0.9717  0.6659
  956MOL0     H31885   6.663   2.806   4.745 -0.2192  0.5195 -1.4306
  956MOL0     H31886   6.745   2.398   4.810  0.3839 -0.6361  1.9831
  956MOL0     H31887   6.507   2.176   4.939 -1.5348 -0.6031 -0.5724
  956MOL0     H31888   6.623   2.203   4.806  0.8458  0.7224  2.7167
  956MOL0     H31889   6.443   2.222   4.773  0.5842  1.6568 -1.6750
  956MOL0     H31890   6.087   2.402   4.744 -1.3328 -2.0619 -1.4349
  956MOL0     H31891   5.866   2.297   4.704 -0.0153 -3.8197  0.7724
  956MOL0     H31892   5.651   2.150   5.036  0.0687  1.1931 -0.4852
  956MOL0     H31893   5.575   2.312   5.035  0.9082  2.2696 -1.5458
  956MOL0     H31894   5.502   2.124   4.811 -1.1642  2.8783 -0.9468
  956MOL0     H31895   5.446   2.073   4.977 -1.8965  2.8153  3.6920
  956MOL0     H31896   5.382   2.317   4.831 -0.8981  1.9148  0.4918
  956MOL0     H31897   5.348   2.316   5.001  1.8726  1.1871 -0.5724
  956MOL0     H31898   5.237   2.115   4.799  0.2435 -0.3692 -0.3307
  956MOL0     H31899   5.152   2.255   4.861  0.2315 -0.1745 -0.4937
  956MOL0     H31900   5.088   2.041   4.970 -0.4104  1.4268  0.6290
  956MOL0     H31901   5.247   2.049   5.059  0.6959  0.2114 -1.7457
  956MOL0     H31902   5.040   2.272   5.066 -2.2129 -1.0573  0.9262
  956MOL0     H31903   5.177   2.240   5.175 -0.1116 -1.8855  1.4152
  956MOL0     H31904   5.002   2.152   5.306  2.3054  0.0893  0.3023
  956MOL0     H31905   5.067   2.013   5.221  0.1066  1.4129  0.4329
  956MOL0     H31906   4.896   2.023   5.045 -3.2021 -1.2581  0.1448
  956MOL0     H31907   4.846   2.178   5.121  1.3615  1.0219 -0.6894
  956MOL0     H31908   5.762   2.360   5.121  0.2172 -2.0400 -0.1830
  956MOL0     H31909   5.998   2.467   5.160  0.5510 -3.0451  0.6921
  956MOL0     H31910   6.372   2.626   5.034 -0.9955 -1.8044  0.1872
  956MOL0     H31911   6.560   2.740   4.984  0.6264 -0.4478 -0.0782
  956MOL0     H31912   7.251   1.918   4.554  1.3767  1.2293 -2.3539
  956MOL0     H31913   7.118   1.805   4.714  1.2301  4.4955 -1.5905
  956MOL0     H31914   6.508   1.571   4.693  0.3833 -1.5330  0.0276
  956MOL0     H31915   6.393   1.475   4.893 -0.0101 -2.1196 -0.9340
  956MOL0     H31916   6.616   1.412   5.245  0.2818  0.8927  1.5040
  956MOL0     H31917   6.517   1.552   5.208 -1.3710 -0.6018 -3.4509
  956MOL0     H31918   6.325   1.449   5.318 -1.1890 -2.1140 -2.6540
  956MOL0     H31919   6.456   1.455   5.427  0.1092 -0.5210  0.0564
  956MOL0     H31920   6.486   1.197   5.291  0.3553  0.9595 -1.2139
  956MOL0     H31921   6.407   1.215   5.450 -1.8788  2.5266 -0.2283
  956MOL0     H31922   6.283   1.230   5.185 -0.7625  2.1338 -0.0962
  956MOL0     H31923   6.201   1.266   5.340  0.1524  0.0743 -0.1635
  956MOL0     H31924   6.221   0.837   5.245  1.7337 -2.2851  3.6982
  956MOL0     H31925   6.743   1.399   5.087  0.9343  0.9804 -0.3522
  956MOL0     H31926   6.952   1.635   4.944 -1.4387 -0.6846  0.2204
  956MOL0     H31927   6.944   1.479   5.026 -0.9272 -1.0392  0.4230
  956MOL0     H31928   6.991   1.479   4.861  1.0862 -0.3274 -0.0630
  957MOL0     O31929   7.071   2.387   8.577  0.4524 -0.1083 -0.2224
  957MOL0     C31930   7.078   2.381   8.457  0.6403 -1.1598 -0.4792
  957MOL0     O31931   6.963   2.371   8.382  0.1754  0.4950  0.4323
  957MOL0     C31932   6.834   2.357   8.419  0.0411 -0.1278  0.6850
  957MOL0     C31933   6.777   2.344   8.550 -0.5902  0.7427  0.2314
  957MOL0     C31934   6.640   2.326   8.570 -0.4644 -0.1073 -0.7591
  957MOL0     C31935   6.550   2.323   8.455 -0.8984 -0.6916  0.8452
  957MOL0     O31936   6.419   2.295   8.477  0.8433 -0.3834  0.1565
  957MOL0     C31937   6.348   2.235   8.368  0.0149 -0.4332 -0.6923
  957MOL0     C31938   6.210   2.187   8.421  0.8016  0.2858  0.6102
  957MOL0     C31939   6.118   2.154   8.294  0.0185  0.6100 -0.4788
  957MOL0     C31940   6.001   2.061   8.337 -0.1124  0.2387 -0.1440
  957MOL0     C31941   5.889   2.126   8.426 -0.6288 -0.2429 -0.4564
  957MOL0     C31942   5.773   2.033   8.466 -0.2173  0.2540  0.5725
  957MOL0     C31943   5.680   2.111   8.564 -0.0550 -0.1099  0.0024
  957MOL0     C31944   5.710   2.082   8.715  1.1897 -0.3298 -0.0659
  957MOL0     N31945   5.842   2.120   8.758 -0.3426  0.0827 -0.3294
  957MOL0     C31946   5.935   2.027   8.785 -0.8575  0.0779 -0.0967
  957MOL0     C31947   6.029   2.099   8.855  0.8035 -0.6959 -0.0773
  957MOL0     C31948   6.140   2.037   8.927 -1.0810  0.3610  0.2062
  957MOL0     C31949   6.271   2.034   8.848  0.3334  0.3268  0.7073
  957MOL0     C31950   6.310   2.159   8.764  0.4127 -0.7809  0.0070
  957MOL0     C31951   6.330   2.284   8.857 -0.5649 -0.1971 -0.0607
  957MOL0     O31952   6.414   2.248   8.960  0.1689 -0.2193 -0.5131
  957MOL0     C31953   6.542   2.270   8.945  1.1144  0.2521 -0.5042
  957MOL0     C31954   6.636   2.183   8.889  0.2656 -0.7087  1.3749
  957MOL0     C31955   6.775   2.207   8.890  0.7344 -0.7149  0.4000
  957MOL0     C31956   6.865   2.114   8.810 -0.4638 -0.4761 -0.1828
  957MOL0     C31957   6.809   2.335   8.950  0.2363  0.2781  0.3970
  957MOL0     C31958   6.950   2.371   8.963 -0.1678 -0.0162 -0.9162
  957MOL0     O31959   6.985   2.502   8.984  0.3572 -1.4002 -0.2844
  957MOL0     C31960   7.112   2.519   9.032 -0.7603 -0.8032 -0.2762
  957MOL0     C31961   7.138   2.540   9.163 -0.2777 -0.1909 -0.2323
  957MOL0     C31962   7.267   2.568   9.216  0.5056 -0.2489  0.6877
  957MOL0     C31963   7.374   2.559   9.125 -0.5696  0.2405  0.0947
  957MOL0     O31964   7.497   2.560   9.190  0.3414  0.2851  0.2080
  957MOL0     C31965   7.602   2.625   9.115  0.2676  0.1189  0.7128
  957MOL0     C31966   7.728   2.621   9.209  0.2805 -0.1100 -0.1830
  957MOL0     C31967   7.850   2.643   9.121  0.3102 -1.2087  0.4633
  957MOL0     C31968   7.973   2.668   9.203  0.0431 -0.3270 -1.2059
  957MOL0     C31969   8.100   2.664   9.123 -0.3973  0.3546 -0.4693
  957MOL0     C31970   8.223   2.669   9.205  0.0096 -0.4731 -0.4234
  957MOL0     C31971   8.354   2.673   9.135  0.3406  0.0466 -0.5992
  957MOL0     C31972   8.401   2.807   9.083  0.2367 -0.3657 -0.9058
  957MOL0    Cl31973   8.356   2.947   9.183 -0.1816 -0.4427 -0.2161
  957MOL0     C31974   7.348   2.531   8.991 -0.0447 -0.4001 -0.6823
  957MOL0     C31975   7.220   2.510   8.948 -0.2900 -0.0787 -0.4464
  957MOL0     O31976   7.030   2.276   8.989  0.2215 -0.1643 -0.5356
  957MOL0     C31977   6.714   2.418   9.015 -0.7863  1.2864 -0.4617
  957MOL0     C31978   6.582   2.387   9.010 -0.1484 -0.2645 -0.2085
  957MOL0     N31979   6.000   2.242   8.848 -0.6754  0.1941 -0.4520
  957MOL0     N31980   5.885   2.247   8.797 -0.5118  0.4150 -0.2128
  957MOL0     C31981   6.603   2.350   8.330 -0.0952 -0.0827  0.8825
  957MOL0     C31982   6.745   2.352   8.315 -0.1709  0.5461  0.5267
  957MOL0     C31983   7.214   2.388   8.383  0.0885 -0.2601 -0.6916
  957MOL0     C31984   7.219   2.455   8.264  0.6305 -0.1162  0.7439
  957MOL0     C31985   7.337   2.482   8.201 -0.8047  0.7255 -0.5633
  957MOL0     C31986   7.461   2.442   8.255  0.1680  1.4007  0.3375
  957MOL0     O31987   7.585   2.463   8.201  0.5382 -0.4707  0.9048
  957MOL0     C31988   7.606   2.595   8.144  1.2863  0.1007 -0.0166
  957MOL0     C31989   7.746   2.632   8.161 -0.2154 -0.1619  0.0514
  957MOL0     C31990   7.801   2.743   8.066  0.1691 -0.3699 -0.5823
  957MOL0     C31991   7.804   2.704   7.912 -0.6494  0.3890  0.0616
  957MOL0     C31992   7.864   2.573   7.892  0.4763 -0.0859 -0.2610
  957MOL0     C31993   7.924   2.475   7.871  0.1723 -1.2718 -0.3083
  957MOL0     C31994   7.460   2.369   8.373  0.4669 -0.4926  1.1567
  957MOL0     C31995   7.333   2.342   8.437  0.8601  0.1039  0.0756
  957MOL0     C31996   7.341   2.270   8.562 -0.3544 -0.3371  0.2884
  957MOL0     H31997   6.835   2.332   8.641 -0.4792 -0.9478 -0.0236
  957MOL0     H31998   6.590   2.314   8.666  2.4540 -2.0082  0.6709
  957MOL0     H31999   6.409   2.152   8.331  1.1577  0.4245 -0.8239
  957MOL0     H32000   6.322   2.315   8.297 -0.3147 -1.2741 -1.5448
  957MOL0     H32001   6.230   2.105   8.490 -0.3720  2.2103  3.4198
  957MOL0     H32002   6.168   2.258   8.492 -0.4715 -1.3740  1.5760
  957MOL0     H32003   6.084   2.252   8.260 -0.5286 -0.1587 -2.2754
  957MOL0     H32004   6.174   2.106   8.212 -3.0142  0.6139 -2.7212
  957MOL0     H32005   5.952   2.005   8.256 -1.7770  2.0705 -0.4690
  957MOL0     H32006   6.051   1.983   8.396  0.9751 -0.4303 -1.8584
  957MOL0     H32007   5.843   2.211   8.374  3.3997  1.4669 -1.6259
  957MOL0     H32008   5.928   2.166   8.520 -2.3265  4.0501 -1.3222
  957MOL0     H32009   5.723   2.010   8.371  0.6067  1.3123 -0.1376
  957MOL0     H32010   5.803   1.939   8.512 -4.3791 -1.0245  1.0849
  957MOL0     H32011   5.573   2.101   8.545 -0.3499  1.8351  0.4061
  957MOL0     H32012   5.694   2.216   8.534  1.3948 -1.2541 -3.9046
  957MOL0     H32013   5.633   2.133   8.773  0.6333 -1.5915  0.3535
  957MOL0     H32014   5.704   1.973   8.724 -2.1655 -0.2907 -0.5286
  957MOL0     H32015   5.936   1.920   8.769  1.6503  0.4627 -3.6350
  957MOL0     H32016   6.114   1.939   8.967 -0.1944 -0.1866 -0.5122
  957MOL0     H32017   6.170   2.097   9.014 -2.0572  1.2499 -0.0451
  957MOL0     H32018   6.356   2.016   8.914  1.2079 -1.1633 -0.7443
  957MOL0     H32019   6.269   1.952   8.775  0.6281  2.7154 -2.2115
  957MOL0     H32020   6.402   2.131   8.713  0.5006  0.6177 -0.6384
  957MOL0     H32021   6.235   2.181   8.687 -1.5378  1.1794  2.2737
  957MOL0     H32022   6.370   2.372   8.806  0.7925 -0.4687  0.4968
  957MOL0     H32023   6.243   2.306   8.920  0.7999 -2.4228  2.8184
  957MOL0     H32024   6.617   2.083   8.853 -0.3299 -0.5309  1.1897
  957MOL0     H32025   6.799   2.061   8.741 -1.5479  3.5016 -2.5676
  957MOL0     H32026   6.922   2.052   8.880 -0.4704  0.2533  0.4971
  957MOL0     H32027   6.929   2.170   8.742 -1.0738 -0.2252 -0.5548
  957MOL0     H32028   7.057   2.564   9.230 -0.3753 -1.3654  0.0917
  957MOL0     H32029   7.276   2.583   9.323  0.2790  0.4468  0.6165
  957MOL0     H32030   7.616   2.567   9.024  0.7176 -1.4375  1.7157
  957MOL0     H32031   7.587   2.729   9.087 -2.3931 -0.3193  0.1932
  957MOL0     H32032   7.721   2.695   9.289  3.3099 -2.3297  2.3643
  957MOL0     H32033   7.749   2.529   9.263  0.0234  0.8573  1.6321
  957MOL0     H32034   7.835   2.727   9.053  2.0515 -0.9461  0.3643
  957MOL0     H32035   7.870   2.559   9.053  2.4413 -1.5688  1.4790
  957MOL0     H32036   7.964   2.605   9.292 -3.7457  2.4145  0.6714
  957MOL0     H32037   7.964   2.771   9.239  3.7372  1.0391 -3.5827
  957MOL0     H32038   8.101   2.573   9.063 -0.5811  1.6105 -2.4709
  957MOL0     H32039   8.094   2.753   9.059 -4.9887 -0.0986 -1.0342
  957MOL0     H32040   8.201   2.581   9.266 -0.6581 -2.0006 -2.7465
  957MOL0     H32041   8.217   2.747   9.282 -0.9844 -2.8834  2.1283
  957MOL0     H32042   8.358   2.601   9.053 -1.6118  1.7468 -2.3100
  957MOL0     H32043   8.417   2.629   9.212  0.0194  0.5106 -0.0682
  957MOL0     H32044   8.361   2.824   8.982 -2.1515  2.8429  0.3811
  957MOL0     H32045   8.510   2.799   9.078  0.3459 -1.2993  1.6519
  957MOL0     H32046   7.430   2.505   8.925  2.2822  1.7024  1.1574
  957MOL0     H32047   7.204   2.480   8.844  2.2310 -0.7288 -0.6941
  957MOL0     H32048   6.742   2.496   9.085  2.0277 -0.2062  0.2221
  957MOL0     H32049   6.504   2.450   9.052  0.6990 -0.1582  1.2724
  957MOL0     H32050   6.540   2.358   8.243 -2.0502  0.4510  2.2652
  957MOL0     H32051   6.770   2.341   8.210 -0.7241 -0.0668  0.4585
  957MOL0     H32052   7.125   2.484   8.219  0.4265 -0.4894  0.9271
  957MOL0     H32053   7.319   2.517   8.100 -0.9420  0.9848 -0.4508
  957MOL0     H32054   7.589   2.573   8.038  0.8743 -3.8023  0.7225
  957MOL0     H32055   7.535   2.671   8.180  0.5637  0.1972 -1.5395
  957MOL0     H32056   7.812   2.544   8.158  1.1147  0.8155 -0.0198
  957MOL0     H32057   7.752   2.677   8.260 -0.4911 -0.5025  0.2248
  957MOL0     H32058   7.748   2.837   8.083  2.4826  0.7162  1.2827
  957MOL0     H32059   7.905   2.769   8.088 -0.1092  1.3661 -1.1951
  957MOL0     H32060   7.886   2.769   7.881  1.2674 -1.4209  1.0823
  957MOL0     H32061   7.714   2.733   7.857 -1.6130  1.1861  1.9631
  957MOL0     H32062   7.973   2.382   7.850 -0.9145 -1.7017 -1.0120
  957MOL0     H32063   7.554   2.331   8.413  0.3917 -1.1561  0.7238
  957MOL0     H32064   7.372   2.326   8.650  1.2203 -0.8101  0.0737
  957MOL0     H32065   7.250   2.216   8.590 -1.5629 -0.2773 -3.0146
  957MOL0     H32066   7.410   2.187   8.543  0.0807  0.1792 -0.4458
  958MOL0     O32067  10.649   9.227   3.305 -0.6542  0.2408 -0.3313
  958MOL0     C32068  10.554   9.170   3.268  0.6709  0.0473 -0.1397
  958MOL0     O32069  10.556   9.084   3.163 -0.4104 -0.8793 -0.0025
  958MOL0     C32070  10.664   9.082   3.074  1.4625 -1.1108  0.4357
  958MOL0     C32071  10.771   9.006   3.093 -0.4219  0.2891 -0.1415
  958MOL0     C32072  10.876   8.993   3.000  0.6441  0.0770 -0.8535
  958MOL0     C32073  10.884   9.066   2.887  0.9964 -0.4562 -0.1297
  958MOL0     O32074  10.984   9.054   2.801 -0.1897  0.1367  0.6751
  958MOL0     C32075  11.038   9.176   2.769 -0.5246  0.7555 -0.9149
  958MOL0     C32076  11.147   9.139   2.662 -0.3569  1.2429 -0.3081
  958MOL0     C32077  11.118   9.215   2.538 -0.7594 -0.6290  1.0951
  958MOL0     C32078  11.213   9.173   2.424  0.0807 -0.7478  0.0407
  958MOL0     C32079  11.189   9.222   2.283  0.4166 -0.6942  0.1900
  958MOL0     C32080  11.270   9.150   2.165  0.1002 -1.3160  0.1452
  958MOL0     C32081  11.240   9.201   2.025  0.0239  0.3820 -0.0966
  958MOL0     C32082  11.312   9.110   1.915  0.3346 -0.0632 -0.7076
  958MOL0     N32083  11.448   9.142   1.898 -1.6285 -0.2755  0.3916
  958MOL0     C32084  11.499   9.253   1.836  0.4696 -0.6854  0.6408
  958MOL0     C32085  11.633   9.232   1.827 -0.1342  0.8190  0.1477
  958MOL0     C32086  11.741   9.313   1.757 -0.8136  0.0481  0.6323
  958MOL0     C32087  11.887   9.258   1.791 -0.0185 -0.1397  0.0738
  958MOL0     C32088  11.991   9.375   1.783 -0.3311 -0.4313 -1.0815
  958MOL0     C32089  12.128   9.345   1.843  0.2473  0.3467 -0.3798
  958MOL0     O32090  12.132   9.347   1.989 -0.8502 -0.5846  0.1001
  958MOL0     C32091  12.136   9.471   2.058 -0.2187 -0.1364 -0.5701
  958MOL0     C32092  12.128   9.467   2.206  0.1334 -0.2806  0.3009
  958MOL0     C32093  12.125   9.581   2.284 -0.3854 -0.2455 -0.6312
  958MOL0     C32094  12.127   9.566   2.442  0.8303  1.1938  0.6260
  958MOL0     C32095  12.131   9.706   2.222 -0.4673  0.6061  0.5865
  958MOL0     C32096  12.101   9.835   2.290  0.2063  1.1063  0.5711
  958MOL0     O32097  12.156   9.855   2.410 -0.6253 -0.1397 -0.4195
  958MOL0     C32098  12.126   9.965   2.492 -0.0478  0.1358  0.4637
  958MOL0     C32099  12.014  10.046   2.489  0.3234 -1.1215  0.1194
  958MOL0     C32100  11.993  10.148   2.592 -0.5508 -0.0705  0.3818
  958MOL0     C32101  12.091  10.169   2.690  0.3186  0.5551 -0.0504
  958MOL0     O32102  12.070  10.280   2.763  0.3103  0.0817  0.5353
  958MOL0     C32103  12.053  10.272   2.903 -1.1059 -0.4901  0.3833
  958MOL0     C32104  11.944  10.379   2.944 -0.0655 -0.0756  0.5730
  958MOL0     C32105  11.815  10.386   2.850 -0.5472  0.1170  0.2467
  958MOL0     C32106  11.808  10.501   2.750 -0.9721 -0.2540  0.0789
  958MOL0     C32107  11.660  10.516   2.683  0.2939  0.0995 -1.4858
  958MOL0     C32108  11.653  10.608   2.560  0.7964 -0.1690 -0.1775
  958MOL0     C32109  11.631  10.764   2.593  0.0895  0.7484 -0.4628
  958MOL0     C32110  11.497  10.790   2.665  0.7311 -0.2259  0.0533
  958MOL0    Cl32111  11.443  10.957   2.651 -0.2317 -0.1027 -0.1531
  958MOL0     C32112  12.201  10.086   2.687 -0.5283 -0.1723 -0.4615
  958MOL0     C32113  12.226   9.992   2.589  0.8423 -0.4538 -1.1115
  958MOL0     O32114  12.044   9.926   2.230 -0.0955 -0.0886  1.0331
  958MOL0     C32115  12.140   9.705   2.083 -0.7617 -0.0417 -0.5879
  958MOL0     C32116  12.138   9.599   1.997 -0.1905  0.6505 -0.5425
  958MOL0     N32117  11.657   9.106   1.871  0.5955  0.3751 -0.5746
  958MOL0     N32118  11.552   9.051   1.925 -0.1229 -0.4630  0.5530
  958MOL0     C32119  10.774   9.163   2.872 -1.1243  0.6008  0.7521
  958MOL0     C32120  10.671   9.171   2.964 -0.8254  0.7444 -1.0781
  958MOL0     C32121  10.432   9.160   3.364 -0.0368 -0.9147  0.6659
  958MOL0     C32122  10.443   9.263   3.462  0.0198  0.0098  0.4598
  958MOL0     C32123  10.328   9.282   3.545 -0.1028  0.3466 -0.0532
  958MOL0     C32124  10.218   9.188   3.551 -0.1562 -0.7035  0.7669
  958MOL0     O32125  10.129   9.209   3.651  0.2850  0.5827  0.3082
  958MOL0     C32126  10.041   9.097   3.676 -1.3061  0.6486 -0.1042
  958MOL0     C32127   9.976   9.129   3.806 -0.1762 -1.2885  0.2324
  958MOL0     C32128  10.058   9.083   3.919 -1.2541 -0.3373  0.4674
  958MOL0     C32129   9.957   9.051   4.024 -0.0992  1.0174 -0.2847
  958MOL0     C32130  10.020   9.037   4.156  0.1157 -0.3723  0.3566
  958MOL0     C32131  10.066   9.038   4.265 -0.8628 -0.1284  0.2642
  958MOL0     C32132  10.215   9.081   3.454 -0.3690  0.5343  0.2606
  958MOL0     C32133  10.327   9.065   3.359 -0.4574 -0.0859 -0.0514
  958MOL0     C32134  10.316   8.952   3.258  0.5551 -0.4880  0.7098
  958MOL0     H32135  10.784   8.957   3.189 -3.9809 -0.3040  0.1876
  958MOL0     H32136  10.942   8.913   3.033 -1.9409 -0.2949  4.4084
  958MOL0     H32137  11.099   9.219   2.849 -0.1593  1.3272 -1.4937
  958MOL0     H32138  10.971   9.255   2.735 -0.8640 -0.0588 -2.2394
  958MOL0     H32139  11.248   9.170   2.690 -0.9466  1.9953  1.0931
  958MOL0     H32140  11.138   9.033   2.639  0.5672  1.3825 -1.3708
  958MOL0     H32141  11.011   9.201   2.521 -1.5179  2.1368  2.8994
  958MOL0     H32142  11.131   9.323   2.553  3.9069 -0.9593  0.8203
  958MOL0     H32143  11.315   9.192   2.458  0.5775  4.1560 -3.1534
  958MOL0     H32144  11.220   9.065   2.415  2.4683 -0.5958 -0.6949
  958MOL0     H32145  11.208   9.329   2.278 -3.1453  0.0365 -0.3616
  958MOL0     H32146  11.081   9.224   2.262  0.4284 -1.6584 -0.0492
  958MOL0     H32147  11.378   9.154   2.183 -0.1684 -0.3035  1.7466
  958MOL0     H32148  11.244   9.043   2.171  1.3053 -1.5329  2.9461
  958MOL0     H32149  11.254   9.309   2.012 -0.9864  0.4587 -0.6371
  958MOL0     H32150  11.131   9.187   2.025  0.0633 -0.5335 -3.3005
  958MOL0     H32151  11.307   9.005   1.942  2.2301  0.0612  0.3546
  958MOL0     H32152  11.269   9.116   1.815 -1.0396  0.4683 -0.1027
  958MOL0     H32153  11.437   9.333   1.796 -0.4304 -1.4332  0.5066
  958MOL0     H32154  11.727   9.418   1.783 -1.8427 -0.0446  0.4876
  958MOL0     H32155  11.739   9.316   1.648 -0.4765  0.8428  0.6396
  958MOL0     H32156  11.886   9.224   1.895  0.5380 -1.7252 -0.4140
  958MOL0     H32157  11.920   9.172   1.733 -0.0957 -0.3362  0.3205
  958MOL0     H32158  12.002   9.402   1.678 -0.0839 -1.1789 -1.2556
  958MOL0     H32159  11.956   9.463   1.839  2.4734 -0.3685  0.8032
  958MOL0     H32160  12.161   9.251   1.799  2.0548  2.1426 -3.1970
  958MOL0     H32161  12.194   9.421   1.799  1.6634  0.1106  1.2026
  958MOL0     H32162  12.130   9.375   2.263  0.3787 -0.2057  0.4150
  958MOL0     H32163  12.093   9.469   2.478  0.0379  2.4510  3.5275
  958MOL0     H32164  12.072   9.648   2.490  3.7261  3.1824  0.7973
  958MOL0     H32165  12.232   9.568   2.473  1.9293 -1.7026 -2.3790
  958MOL0     H32166  11.941  10.032   2.410  0.8975  2.8685 -1.3795
  958MOL0     H32167  11.896  10.197   2.591 -1.1845 -1.2217 -1.6248
  958MOL0     H32168  12.026  10.177   2.952  3.1245 -1.5570  1.0116
  958MOL0     H32169  12.152  10.291   2.944 -0.9350  0.8641 -0.5906
  958MOL0     H32170  11.905  10.345   3.041  0.0677  0.9610  1.0119
  958MOL0     H32171  11.998  10.472   2.963  2.4636 -0.8964 -1.9284
  958MOL0     H32172  11.722  10.377   2.907 -0.0219 -1.7103  0.8777
  958MOL0     H32173  11.821  10.293   2.793  0.4634  0.2282  0.1515
  958MOL0     H32174  11.893  10.484   2.683  1.7393  1.4833  2.8140
  958MOL0     H32175  11.831  10.596   2.799  0.1387 -0.5650  0.1822
  958MOL0     H32176  11.630  10.416   2.652  0.1882 -0.8377  1.3595
  958MOL0     H32177  11.597  10.553   2.764  0.6238  2.7411 -2.3428
  958MOL0     H32178  11.571  10.581   2.493  1.4196 -1.2270 -0.5430
  958MOL0     H32179  11.753  10.611   2.515  2.0466  4.6188  2.2457
  958MOL0     H32180  11.633  10.813   2.495  0.7148  0.5764 -0.5372
  958MOL0     H32181  11.705  10.807   2.661 -1.5765  1.8021  0.7724
  958MOL0     H32182  11.527  10.750   2.763  2.6603 -1.2923 -0.9189
  958MOL0     H32183  11.416  10.730   2.621 -0.8892  1.7365  0.1937
  958MOL0     H32184  12.272  10.110   2.766  0.0075  5.2103 -2.1496
  958MOL0     H32185  12.306   9.919   2.591 -0.8123 -2.3454  0.3716
  958MOL0     H32186  12.122   9.800   2.034 -3.4174 -0.0810  0.1406
  958MOL0     H32187  12.155   9.619   1.891 -0.7343  3.1519 -0.2129
  958MOL0     H32188  10.765   9.232   2.788 -4.5060 -1.0280 -0.4116
  958MOL0     H32189  10.596   9.246   2.939 -2.0054 -0.4037 -1.0770
  958MOL0     H32190  10.528   9.327   3.483  0.8352 -0.5102 -1.0896
  958MOL0     H32191  10.345   9.366   3.611 -0.3581  1.2543 -1.1036
  958MOL0     H32192   9.972   9.088   3.591  0.0214 -1.0887 -1.0678
  958MOL0     H32193  10.091   9.000   3.681 -0.7751  0.9271  0.0441
  958MOL0     H32194   9.878   9.082   3.796 -1.2343  0.9116 -0.4900
  958MOL0     H32195   9.971   9.238   3.814 -3.0989 -1.3791  0.9611
  958MOL0     H32196  10.130   9.002   3.903  0.0761  1.3001 -2.7109
  958MOL0     H32197  10.118   9.170   3.949 -1.3477  0.7913 -2.3668
  958MOL0     H32198   9.910   8.957   3.994 -1.1221  1.6162 -0.5881
  958MOL0     H32199   9.881   9.130   4.023 -0.6696  0.5404  1.5201
  958MOL0     H32200  10.101   9.052   4.365 -0.1873 -0.6669  0.1084
  958MOL0     H32201  10.136   9.007   3.463 -0.7869  1.2187  3.3919
  958MOL0     H32202  10.395   8.884   3.292 -0.7513 -2.1407  0.5227
  958MOL0     H32203  10.222   8.897   3.255  0.9769 -1.2407  0.9989
  958MOL0     H32204  10.338   8.991   3.158  0.1330 -1.6463  0.1566
  959MOL0     O32205   6.182   9.335   9.254  0.7432  0.2468  0.4107
  959MOL0     C32206   6.064   9.312   9.256 -0.5321  0.1793 -0.9218
  959MOL0     O32207   6.011   9.193   9.218  0.1517  0.2760 -0.5912
  959MOL0     C32208   6.084   9.107   9.148 -0.8978  0.1041  0.1426
  959MOL0     C32209   6.204   9.048   9.201  0.4578 -1.0837  0.1132
  959MOL0     C32210   6.280   8.953   9.125 -0.3114  0.8829  0.4490
  959MOL0     C32211   6.248   8.924   8.999  0.7275 -0.0654  0.7045
  959MOL0     O32212   6.340   8.841   8.924 -0.3380  0.0612 -0.4316
  959MOL0     C32213   6.339   8.844   8.779 -0.2526 -0.0583 -0.1726
  959MOL0     C32214   6.454   8.766   8.728 -0.3031 -0.3652 -0.1065
  959MOL0     C32215   6.426   8.714   8.581 -0.1460  0.8296 -0.4746
  959MOL0     C32216   6.540   8.737   8.491 -0.8779 -0.1491 -0.6512
  959MOL0     C32217   6.540   8.670   8.360 -0.0079 -0.0236 -0.3412
  959MOL0     C32218   6.640   8.729   8.261  0.2843 -0.3462 -0.7219
  959MOL0     C32219   6.785   8.703   8.296  0.1512  0.7131 -0.5895
  959MOL0     C32220   6.898   8.724   8.184  0.3566  0.5060  0.4290
  959MOL0     N32221   6.879   8.619   8.075  0.9431 -0.9453 -0.4906
  959MOL0     C32222   6.802   8.636   7.958 -0.7644  0.2611  0.0673
  959MOL0     C32223   6.800   8.510   7.900 -0.4077 -0.3203  0.4003
  959MOL0     C32224   6.720   8.475   7.776  0.5928 -0.1419 -0.2305
  959MOL0     C32225   6.682   8.327   7.784 -1.1355 -0.5963 -0.0398
  959MOL0     C32226   6.583   8.281   7.679  0.0879  0.3244  0.9610
  959MOL0     C32227   6.549   8.132   7.670  0.5134 -0.6551  0.4882
  959MOL0     O32228   6.482   8.113   7.797 -0.2614 -0.5853  0.7633
  959MOL0     C32229   6.404   8.003   7.801 -0.1165 -0.2423 -0.2324
  959MOL0     C32230   6.425   7.884   7.723 -0.0104  0.4081  0.0476
  959MOL0     C32231   6.335   7.774   7.728 -0.0402 -0.2097 -0.0412
  959MOL0     C32232   6.379   7.642   7.663  0.7375 -0.5266 -0.1685
  959MOL0     C32233   6.223   7.777   7.814  0.1287  0.8355 -0.2014
  959MOL0     C32234   6.121   7.666   7.821  0.0122  0.8456 -0.0730
  959MOL0     O32235   6.032   7.685   7.920  0.0373  0.5800  0.0880
  959MOL0     C32236   5.951   7.586   7.953  0.1996 -0.5402  0.8711
  959MOL0     C32237   5.987   7.509   8.056  0.0113  0.2135  0.1041
  959MOL0     C32238   5.898   7.411   8.104  0.6950  0.3298  0.0026
  959MOL0     C32239   5.764   7.411   8.061  0.2869 -0.8055 -1.2865
  959MOL0     O32240   5.683   7.319   8.112  0.3669  0.0055  0.2148
  959MOL0     C32241   5.658   7.212   8.021  0.5949 -0.5115  0.3693
  959MOL0     C32242   5.545   7.131   8.074  0.4400  0.3299  0.1085
  959MOL0     C32243   5.524   7.020   7.978  0.9163  0.5431  0.0203
  959MOL0     C32244   5.649   6.918   7.961 -0.6560  0.3864 -0.2456
  959MOL0     C32245   5.599   6.812   7.861 -0.0516  0.7723  0.2213
  959MOL0     C32246   5.707   6.714   7.807 -0.0767 -0.9794 -0.1809
  959MOL0     C32247   5.764   6.620   7.909 -0.4937  0.8730  1.2325
  959MOL0     C32248   5.903   6.570   7.865  0.2204 -0.4948  0.4803
  959MOL0    Cl32249   5.894   6.442   7.730 -0.1042 -0.3861 -0.0957
  959MOL0     C32250   5.721   7.509   7.965 -0.7716  0.8978  0.4520
  959MOL0     C32251   5.814   7.589   7.915  0.1748  0.2860  0.6295
  959MOL0     O32252   6.113   7.587   7.725 -0.0410 -0.2475 -0.0035
  959MOL0     C32253   6.207   7.886   7.901  1.0623 -0.0325  0.6966
  959MOL0     C32254   6.296   7.996   7.890  0.5930  0.9159 -0.0202
  959MOL0     N32255   6.891   8.428   7.973 -0.2509 -0.1470 -0.2024
  959MOL0     N32256   6.931   8.497   8.074 -0.1535  0.4580 -0.1456
  959MOL0     C32257   6.123   8.978   8.952  0.0279  0.2314  0.0246
  959MOL0     C32258   6.043   9.071   9.028  0.7429  0.6633  0.5514
  959MOL0     C32259   5.965   9.398   9.347 -0.1622 -0.7626  0.9949
  959MOL0     C32260   6.022   9.488   9.438  0.2199  0.9304  0.5297
  959MOL0     C32261   5.941   9.553   9.524 -0.3947 -0.2661 -0.4664
  959MOL0     C32262   5.803   9.546   9.522 -0.8357 -0.4525 -0.7323
  959MOL0     O32263   5.722   9.624   9.606 -0.0163 -0.3614  0.6810
  959MOL0     C32264   5.761   9.748   9.673 -0.5453  0.7419  0.0678
  959MOL0     C32265   5.733   9.873   9.594 -1.0712  0.1329 -0.3140
  959MOL0     C32266   5.597   9.934   9.633  0.3769  0.3741 -0.1972
  959MOL0     C32267   5.604  10.001   9.768 -1.8160 -0.0816 -0.3822
  959MOL0     C32268   5.473  10.061   9.801 -0.5016  0.3215 -0.2375
  959MOL0     C32269   5.365  10.111   9.821  0.9516 -1.3741 -0.5932
  959MOL0     C32270   5.744   9.472   9.423 -0.0696 -0.0264  0.4498
  959MOL0     C32271   5.818   9.392   9.340 -0.2388 -0.1013 -0.0731
  959MOL0     C32272   5.735   9.311   9.240 -0.3846 -0.5230  0.3239
  959MOL0     H32273   6.248   9.070   9.298  0.9968  1.1414 -0.5883
  959MOL0     H32274   6.366   8.903   9.170 -0.6732  0.3700  0.5830
  959MOL0     H32275   6.342   8.952   8.762 -2.3285  0.3901  1.7846
  959MOL0     H32276   6.244   8.804   8.741 -0.0403 -0.6380 -0.0926
  959MOL0     H32277   6.537   8.836   8.734 -0.2589 -0.5141  3.2456
  959MOL0     H32278   6.472   8.678   8.791 -0.0565  0.2164  0.6578
  959MOL0     H32279   6.399   8.608   8.583  1.7250  0.3296  0.3565
  959MOL0     H32280   6.338   8.770   8.547 -1.7702  0.1305  2.3039
  959MOL0     H32281   6.536   8.845   8.476 -1.5947 -0.4225 -2.9191
  959MOL0     H32282   6.629   8.697   8.542 -0.5235  0.7196 -0.5669
  959MOL0     H32283   6.439   8.678   8.320 -0.2372  0.2019  0.2698
  959MOL0     H32284   6.552   8.563   8.379 -0.7486 -0.0188  0.2071
  959MOL0     H32285   6.623   8.675   8.167  2.6512 -1.8909 -0.3501
  959MOL0     H32286   6.621   8.835   8.243  0.8487 -0.7799 -4.6573
  959MOL0     H32287   6.782   8.599   8.329 -0.2589  0.9312  0.0807
  959MOL0     H32288   6.812   8.771   8.378  0.0905 -1.2001  1.0774
  959MOL0     H32289   6.880   8.826   8.148  1.0657 -0.8632 -4.6529
  959MOL0     H32290   7.001   8.711   8.216 -0.2505 -0.3236  2.1798
  959MOL0     H32291   6.739   8.719   7.927 -0.4163  0.7773  0.7192
  959MOL0     H32292   6.776   8.498   7.686  1.1565  0.1559  0.1881
  959MOL0     H32293   6.633   8.541   7.770  0.0977 -0.7308  0.2597
  959MOL0     H32294   6.778   8.280   7.762 -0.6699  1.5940 -3.6345
  959MOL0     H32295   6.636   8.304   7.880 -0.2888 -0.5228  0.3916
  959MOL0     H32296   6.491   8.338   7.696 -1.4170 -1.3974 -0.9323
  959MOL0     H32297   6.616   8.312   7.580  2.5347 -0.2749  1.5219
  959MOL0     H32298   6.488   8.111   7.581  0.2833 -0.9354  0.7086
  959MOL0     H32299   6.646   8.084   7.655  2.2941  2.3212  1.7129
  959MOL0     H32300   6.514   7.875   7.660  0.2572  1.4947  0.2572
  959MOL0     H32301   6.316   7.621   7.576 -0.5485  2.2658 -0.0115
  959MOL0     H32302   6.369   7.563   7.738  0.2337  0.5256  0.9097
  959MOL0     H32303   6.484   7.638   7.632  0.5552 -2.0038 -0.6838
  959MOL0     H32304   6.083   7.513   8.108 -0.6774  0.3950  1.4093
  959MOL0     H32305   5.940   7.336   8.171 -0.0631  1.8977  2.3801
  959MOL0     H32306   5.621   7.249   7.925  1.7483  1.3329  0.5799
  959MOL0     H32307   5.749   7.155   7.999 -0.6964 -1.9336 -1.6797
  959MOL0     H32308   5.569   7.084   8.170  1.2538 -1.4886 -0.9204
  959MOL0     H32309   5.462   7.201   8.081  0.3442  0.4853 -1.8434
  959MOL0     H32310   5.509   7.062   7.878  2.1574 -1.0026 -0.8740
  959MOL0     H32311   5.434   6.968   8.013  2.1123 -1.7357 -0.0684
  959MOL0     H32312   5.671   6.871   8.057  1.4237  1.0225 -0.3644
  959MOL0     H32313   5.736   6.971   7.921  1.2058 -1.7509  0.7423
  959MOL0     H32314   5.516   6.755   7.903  0.5261  0.5245  1.0401
  959MOL0     H32315   5.560   6.858   7.769 -1.3898 -2.9840 -1.2716
  959MOL0     H32316   5.788   6.778   7.773 -0.3433 -0.1173  0.7575
  959MOL0     H32317   5.673   6.660   7.718 -0.6638 -0.5687 -0.2107
  959MOL0     H32318   5.699   6.533   7.918 -0.3575  0.1389 -2.8204
  959MOL0     H32319   5.779   6.682   7.998 -0.4486  5.8045 -1.8022
  959MOL0     H32320   5.955   6.522   7.948  2.2584 -5.5041 -3.1842
  959MOL0     H32321   5.967   6.654   7.837 -1.0144  0.4842  0.5184
  959MOL0     H32322   5.616   7.516   7.941 -0.6295  0.4947 -0.3093
  959MOL0     H32323   5.790   7.658   7.835  0.3108 -0.3777  0.0062
  959MOL0     H32324   6.116   7.890   7.960  0.1702 -1.6935 -0.5035
  959MOL0     H32325   6.299   8.088   7.947  1.6321  1.4126 -0.8306
  959MOL0     H32326   6.073   8.953   8.859 -0.6645  1.7314 -0.0369
  959MOL0     H32327   5.957   9.128   8.993  0.9710  0.2893 -0.6439
  959MOL0     H32328   6.130   9.501   9.438  0.2224  0.9657 -0.3581
  959MOL0     H32329   5.991   9.607   9.604  1.2688 -1.7456 -0.4334
  959MOL0     H32330   5.712   9.756   9.770 -1.4202  3.2437 -0.4925
  959MOL0     H32331   5.865   9.742   9.705 -0.3488 -1.3892 -0.7794
  959MOL0     H32332   5.722   9.853   9.487  0.4032  0.6731 -0.5913
  959MOL0     H32333   5.819   9.939   9.609  0.7297 -2.3796  1.1896
  959MOL0     H32334   5.569  10.009   9.559  0.2531  0.8336  0.3033
  959MOL0     H32335   5.518   9.858   9.632  1.1321 -0.6370 -4.8319
  959MOL0     H32336   5.674  10.084   9.756 -1.2598 -0.3205  1.0707
  959MOL0     H32337   5.635   9.927   9.842 -1.3804  0.3090 -0.1722
  959MOL0     H32338   5.266  10.130   9.857  1.5476 -1.5695  1.2447
  959MOL0     H32339   5.637   9.484   9.409 -0.2024 -2.0729 -0.7124
  959MOL0     H32340   5.781   9.319   9.142 -2.4278  0.0563 -0.6382
  959MOL0     H32341   5.724   9.209   9.278 -3.5168  0.1136  1.4490
  959MOL0     H32342   5.635   9.351   9.218  0.0734 -0.8904 -2.8019
  960MOL0     O32343   2.113   1.521   2.164 -0.2957 -0.1302 -0.7488
  960MOL0     C32344   2.178   1.425   2.180 -0.4502  0.5781 -0.2955
  960MOL0     O32345   2.213   1.331   2.075 -0.6308 -0.9437 -0.6268
  960MOL0     C32346   2.191   1.367   1.948  0.1390 -0.3305 -0.4325
  960MOL0     C32347   2.075   1.319   1.880  0.6252  0.1153  0.0380
  960MOL0     C32348   2.033   1.370   1.755 -0.8359  0.9656 -0.4688
  960MOL0     C32349   2.103   1.470   1.695 -0.1727 -0.3342  0.9416
  960MOL0     O32350   2.073   1.518   1.569  0.0130  0.2685 -0.4900
  960MOL0     C32351   1.936   1.544   1.514  0.0022  0.5552 -0.1810
  960MOL0     C32352   1.904   1.690   1.552  0.2400 -0.6620  0.1224
  960MOL0     C32353   1.762   1.706   1.569  1.0840  0.6956  0.0815
  960MOL0     C32354   1.710   1.851   1.603  0.1217  0.5781 -0.3677
  960MOL0     C32355   1.560   1.849   1.655 -0.2817  1.0333 -0.7862
  960MOL0     C32356   1.460   1.778   1.552  0.1046 -0.1617 -0.2861
  960MOL0     C32357   1.325   1.740   1.610  0.1497  0.0525 -1.2043
  960MOL0     C32358   1.335   1.664   1.744  0.7604  0.4012 -0.4437
  960MOL0     N32359   1.215   1.603   1.800  0.4432  0.0941 -0.1042
  960MOL0     C32360   1.089   1.606   1.741 -0.3261  0.2046  0.3313
  960MOL0     C32361   1.028   1.514   1.814 -0.1493  0.1122  0.0074
  960MOL0     C32362   0.885   1.468   1.783  0.1780 -0.4283 -0.1161
  960MOL0     C32363   0.783   1.497   1.895  0.4436 -0.4744 -0.4756
  960MOL0     C32364   0.643   1.447   1.852  0.1770 -0.9086  0.2323
  960MOL0     C32365   0.596   1.316   1.901  0.7370 -0.4665 -1.2513
  960MOL0     O32366   0.576   1.320   2.042  0.2165 -0.5238  0.3107
  960MOL0     C32367   0.601   1.212   2.125  0.5079  0.1823  0.0947
  960MOL0     C32368   0.633   1.086   2.089  0.1216  1.3911 -0.2615
  960MOL0     C32369   0.650   0.981   2.185  0.6452  0.0935 -0.3320
  960MOL0     C32370   0.663   0.839   2.146  0.5351 -0.6313 -0.1811
  960MOL0     C32371   0.635   1.026   2.324 -0.1265 -0.1104 -0.4955
  960MOL0     C32372   0.651   0.931   2.434  0.2756  0.3457 -0.5780
  960MOL0     O32373   0.747   0.843   2.417 -0.3797  0.2806  0.7489
  960MOL0     C32374   0.780   0.757   2.512 -0.3544  0.5989  0.1302
  960MOL0     C32375   0.920   0.750   2.547  0.2886  0.1520 -0.7983
  960MOL0     C32376   0.965   0.649   2.637 -1.0396  0.2759 -0.7070
  960MOL0     C32377   0.878   0.559   2.690 -0.1927 -0.3169  0.0384
  960MOL0     O32378   0.933   0.458   2.768 -0.8759 -1.0098 -0.4217
  960MOL0     C32379   0.915   0.325   2.720  0.5617 -0.0495  0.4572
  960MOL0     C32380   1.032   0.235   2.754 -0.2477 -0.4899  0.5947
  960MOL0     C32381   1.017   0.085   2.730  0.8288  0.1179  0.9622
  960MOL0     C32382   1.128   0.008   2.788  0.6424 -0.1280 -0.6250
  960MOL0     C32383   1.253   0.026   2.707  0.3352 -0.9045  0.7708
  960MOL0     C32384   1.371  -0.057   2.775  0.0430 -0.6805  0.1392
  960MOL0     C32385   1.484  -0.066   2.676 -0.5799 -0.5452 -0.1046
  960MOL0     C32386   1.613  -0.107   2.743  0.5170 -0.0189  0.3364
  960MOL0    Cl32387   1.609  -0.277   2.805  0.1667  0.0327 -0.4813
  960MOL0     C32388   0.745   0.563   2.655 -0.1423  0.6828 -0.1654
  960MOL0     C32389   0.704   0.661   2.564  0.6667 -0.5322 -0.5530
  960MOL0     O32390   0.570   0.932   2.530 -0.2337 -0.3043 -0.5247
  960MOL0     C32391   0.617   1.158   2.359  0.6303 -0.4446 -0.2016
  960MOL0     C32392   0.602   1.251   2.260  0.8151  0.8848 -0.2392
  960MOL0     N32393   1.123   1.453   1.908  0.5965 -0.1389  0.3377
  960MOL0     N32394   1.231   1.511   1.898 -0.7723  0.1725  0.6159
  960MOL0     C32395   2.217   1.512   1.755  0.2929 -1.2914  0.3748
  960MOL0     C32396   2.263   1.476   1.880 -0.0913 -0.3300 -0.1864
  960MOL0     C32397   2.213   1.400   2.319 -1.4161  0.2624  0.5735
  960MOL0     C32398   2.300   1.290   2.322  0.1946 -1.3129 -1.2841
  960MOL0     C32399   2.358   1.258   2.454  0.3178 -0.0169  0.5594
  960MOL0     C32400   2.326   1.335   2.567  0.0118  0.5713 -0.2096
  960MOL0     O32401   2.380   1.283   2.690  0.1539 -0.4050 -0.1149
  960MOL0     C32402   2.290   1.287   2.793  0.4216  1.9114  0.0861
  960MOL0     C32403   2.279   1.419   2.879 -0.9315  0.4534 -0.5124
  960MOL0     C32404   2.152   1.450   2.932  0.1320 -0.0041  0.5013
  960MOL0     C32405   2.180   1.569   3.028  0.4538 -0.5761  0.2411
  960MOL0     C32406   2.054   1.618   3.102 -0.2189  0.2518  0.7293
  960MOL0     C32407   1.964   1.677   3.161  0.3255  0.6739 -0.0891
  960MOL0     C32408   2.224   1.433   2.554 -1.1225  0.2422 -0.5675
  960MOL0     C32409   2.169   1.461   2.435  0.3745 -0.3175 -0.0497
  960MOL0     C32410   2.057   1.569   2.439 -0.3714 -0.2005  0.1374
  960MOL0     H32411   2.014   1.252   1.940  0.5713  0.4201  0.3241
  960MOL0     H32412   1.944   1.324   1.713 -0.7219 -1.0774  1.3590
  960MOL0     H32413   1.864   1.477   1.562  1.5923  0.2142  1.8344
  960MOL0     H32414   1.962   1.512   1.413  0.9118 -2.6226  0.9480
  960MOL0     H32415   1.955   1.713   1.647 -1.1480 -3.0659  1.5570
  960MOL0     H32416   1.947   1.758   1.478  0.2483 -0.8645 -0.0619
  960MOL0     H32417   1.723   1.673   1.472 -2.4966  1.5269  1.0602
  960MOL0     H32418   1.715   1.632   1.635  2.3293  0.3551  0.6100
  960MOL0     H32419   1.775   1.900   1.676  1.9816 -0.6378 -1.1261
  960MOL0     H32420   1.705   1.899   1.505  0.2123 -2.7421 -2.1124
  960MOL0     H32421   1.519   1.949   1.672 -1.3841  0.9776 -2.8376
  960MOL0     H32422   1.554   1.800   1.753  0.6323  0.8364 -0.8135
  960MOL0     H32423   1.443   1.850   1.471  1.3117 -0.0653 -0.4695
  960MOL0     H32424   1.508   1.689   1.510  0.8427 -1.2521  2.6213
  960MOL0     H32425   1.277   1.676   1.536 -0.4168 -1.1443  0.1535
  960MOL0     H32426   1.269   1.833   1.625 -0.2231  0.5401 -4.7347
  960MOL0     H32427   1.410   1.585   1.733  0.9322  0.8150 -2.4736
  960MOL0     H32428   1.380   1.725   1.823 -0.1270  1.2698 -0.5874
  960MOL0     H32429   1.044   1.669   1.665  2.1211  0.3799 -1.0761
  960MOL0     H32430   0.870   1.361   1.768 -2.0378 -0.2911  0.5926
  960MOL0     H32431   0.852   1.515   1.690  2.4808  0.2550 -0.6536
  960MOL0     H32432   0.814   1.433   1.979  0.8292 -0.6504 -0.7495
  960MOL0     H32433   0.792   1.600   1.929  3.0099 -0.9151  0.4236
  960MOL0     H32434   0.586   1.526   1.902  0.6355 -1.8177  2.2866
  960MOL0     H32435   0.636   1.456   1.743  1.0539 -3.0951 -0.0608
  960MOL0     H32436   0.500   1.306   1.850  0.8184 -6.1203 -0.9862
  960MOL0     H32437   0.648   1.226   1.866 -0.4235 -2.5049  1.8597
  960MOL0     H32438   0.626   1.050   1.987 -1.0153 -2.3504  0.9768
  960MOL0     H32439   0.590   0.781   2.203  1.0351 -3.2459 -2.0083
  960MOL0     H32440   0.764   0.802   2.166  0.2162 -1.4969 -0.1589
  960MOL0     H32441   0.650   0.841   2.038  1.8741  1.2834 -0.3651
  960MOL0     H32442   0.981   0.830   2.506  0.4136  0.6162  0.2543
  960MOL0     H32443   1.068   0.644   2.670 -0.6050  0.1231 -2.0237
  960MOL0     H32444   0.825   0.283   2.768 -1.1013  1.2173 -1.3751
  960MOL0     H32445   0.896   0.333   2.613 -0.1647  3.7229  0.7425
  960MOL0     H32446   1.115   0.278   2.697 -1.5265 -1.3727 -2.1028
  960MOL0     H32447   1.056   0.246   2.860  1.0463  1.7085  0.1564
  960MOL0     H32448   1.008   0.056   2.625 -1.6478  0.5593  0.9932
  960MOL0     H32449   0.935   0.054   2.796  3.0990 -1.2650  3.3113
  960MOL0     H32450   1.104  -0.096   2.808  2.2457 -0.3342  0.4149
  960MOL0     H32451   1.142   0.045   2.890 -2.4683 -1.6464  0.4798
  960MOL0     H32452   1.240   0.005   2.601 -0.7459 -1.6229  1.0347
  960MOL0     H32453   1.288   0.129   2.717  0.0015 -0.6527 -0.5203
  960MOL0     H32454   1.326  -0.155   2.790 -0.9015 -0.0310  1.8319
  960MOL0     H32455   1.401  -0.019   2.873 -0.4703  1.1564 -0.3770
  960MOL0     H32456   1.504   0.027   2.622  0.4540 -0.9249 -0.3924
  960MOL0     H32457   1.457  -0.139   2.599 -0.4131 -0.1054 -0.5851
  960MOL0     H32458   1.638  -0.034   2.820 -0.1088  0.9432 -0.3575
  960MOL0     H32459   1.688  -0.103   2.663 -0.9158  0.1039 -1.0629
  960MOL0     H32460   0.666   0.496   2.685 -1.2330  1.4025 -1.3326
  960MOL0     H32461   0.600   0.642   2.539 -0.2620  0.7167  2.0939
  960MOL0     H32462   0.599   1.177   2.465  2.3190 -2.2637  0.4852
  960MOL0     H32463   0.562   1.346   2.292  2.7529  1.3532  0.9676
  960MOL0     H32464   2.275   1.596   1.717 -0.4493 -0.7517  0.4011
  960MOL0     H32465   2.342   1.533   1.928 -1.6968  2.1346 -0.3446
  960MOL0     H32466   2.326   1.223   2.240  0.1809 -2.3613 -0.4628
  960MOL0     H32467   2.425   1.175   2.471 -2.2713 -2.0128  1.7189
  960MOL0     H32468   2.192   1.252   2.758  1.4715  0.1831 -1.3237
  960MOL0     H32469   2.322   1.211   2.864 -0.1491 -1.4138 -2.9035
  960MOL0     H32470   2.315   1.497   2.811  0.5288  2.4512  2.3283
  960MOL0     H32471   2.355   1.408   2.957 -0.4517  1.7057 -0.7843
  960MOL0     H32472   2.085   1.481   2.851  0.2574  0.4394  0.5631
  960MOL0     H32473   2.106   1.361   2.976 -2.1710  0.8414 -0.0446
  960MOL0     H32474   2.232   1.647   2.972  0.4310 -2.2036 -2.1786
  960MOL0     H32475   2.242   1.531   3.109  0.5009 -1.7294 -0.3151
  960MOL0     H32476   1.899   1.737   3.221 -0.4849  1.7557 -1.9711
  960MOL0     H32477   2.205   1.506   2.631 -1.8169 -0.8142  0.3006
  960MOL0     H32478   2.028   1.583   2.544 -0.6162  0.4508 -0.0120
  960MOL0     H32479   2.090   1.663   2.395 -1.4336  1.2354  2.2168
  960MOL0     H32480   1.968   1.537   2.384 -0.7779 -0.9026  1.1681
  961MOL0     O32481   1.239   3.250   2.642 -0.3672  0.4300  0.5204
  961MOL0     C32482   1.309   3.151   2.663 -0.1457  0.4555 -0.0924
  961MOL0     O32483   1.304   3.026   2.594 -0.5106 -0.4972  0.8705
  961MOL0     C32484   1.204   3.009   2.503 -0.3625 -0.2438 -0.2753
  961MOL0     C32485   1.112   2.914   2.534 -0.6165 -0.3770 -0.3587
  961MOL0     C32486   0.999   2.905   2.455 -0.5094  0.7683 -0.1481
  961MOL0     C32487   0.974   2.991   2.342 -0.5145  0.2212 -0.0579
  961MOL0     O32488   0.869   2.982   2.262  0.4778  0.3404  0.0817
  961MOL0     C32489   0.787   2.866   2.252 -0.3796  0.2511  0.1369
  961MOL0     C32490   0.756   2.847   2.109 -0.4683  0.1828  0.8893
  961MOL0     C32491   0.671   2.962   2.040 -0.2120  0.5115 -0.4170
  961MOL0     C32492   0.523   2.957   2.084 -0.3650 -0.0386 -1.1501
  961MOL0     C32493   0.427   3.047   2.011 -1.0501  0.3985  0.4159
  961MOL0     C32494   0.288   2.996   2.024 -0.6895  0.1877  0.0529
  961MOL0     C32495   0.174   3.099   2.015 -0.6480  0.6540  0.3133
  961MOL0     C32496   0.157   3.158   1.872  0.7494 -0.7434 -0.4075
  961MOL0     N32497   0.017   3.214   1.871 -0.2676 -0.1082 -0.3178
  961MOL0     C32498  -0.004   3.343   1.892 -0.3274  0.4217  1.4171
  961MOL0     C32499  -0.129   3.359   1.864 -0.1675 -0.9172  0.2793
  961MOL0     C32500  -0.210   3.483   1.876  0.4388 -0.3850 -0.6794
  961MOL0     C32501  -0.291   3.471   2.009 -0.3170  0.3209  0.3882
  961MOL0     C32502  -0.328   3.605   2.078  0.8813  0.4119  0.4962
  961MOL0     C32503  -0.451   3.590   2.172 -0.6995  0.8487 -0.1455
  961MOL0     O32504  -0.441   3.709   2.252 -0.7326  0.1486 -0.0144
  961MOL0     C32505  -0.544   3.725   2.341 -0.4562 -0.1330 -0.5976
  961MOL0     C32506  -0.524   3.825   2.438  0.8995 -0.1333  0.2657
  961MOL0     C32507  -0.618   3.859   2.533  0.4773 -0.6077 -0.1135
  961MOL0     C32508  -0.566   3.967   2.629 -0.2829  0.0016 -0.6651
  961MOL0     C32509  -0.750   3.801   2.530 -0.9619  0.4864 -0.0982
  961MOL0     C32510  -0.856   3.844   2.622 -0.1386  0.2245  0.5068
  961MOL0     O32511  -0.957   3.756   2.625 -0.6120 -0.1551 -0.6062
  961MOL0     C32512  -1.058   3.751   2.717  0.6983  0.2828  0.2817
  961MOL0     C32513  -1.111   3.849   2.798  0.4853 -0.4787  0.2711
  961MOL0     C32514  -1.221   3.814   2.881 -0.5381 -0.0076  0.7458
  961MOL0     C32515  -1.275   3.683   2.868 -0.4283 -0.1767  0.4249
  961MOL0     O32516  -1.386   3.673   2.941 -0.4721  0.2664 -0.4109
  961MOL0     C32517  -1.505   3.619   2.879 -0.1521 -0.8415 -0.2594
  961MOL0     C32518  -1.641   3.699   2.913  0.3648  0.0461  0.3830
  961MOL0     C32519  -1.629   3.851   2.931  0.6803 -0.6411 -0.3048
  961MOL0     C32520  -1.698   3.898   3.065  0.2396 -0.4392  0.0385
  961MOL0     C32521  -1.847   3.920   3.057  0.6595  0.3959  1.4416
  961MOL0     C32522  -1.875   4.070   3.018 -0.3111 -0.5196 -0.1401
  961MOL0     C32523  -2.004   4.119   3.067  0.1213 -0.1685  0.7301
  961MOL0     C32524  -2.033   4.259   3.011  0.6715 -0.4337  0.7873
  961MOL0    Cl32525  -1.934   4.376   3.102 -0.0175 -0.2570  0.4184
  961MOL0     C32526  -1.224   3.582   2.795 -0.5398  0.9181  0.1506
  961MOL0     C32527  -1.110   3.615   2.721  0.1312  0.2062  0.1857
  961MOL0     O32528  -0.857   3.961   2.659  0.7869 -0.3113 -0.2809
  961MOL0     C32529  -0.768   3.693   2.435  0.0047 -0.3842  0.2637
  961MOL0     C32530  -0.666   3.658   2.344  0.2619 -0.3401 -0.3104
  961MOL0     N32531  -0.182   3.245   1.813 -0.3736 -0.3270 -0.2758
  961MOL0     N32532  -0.087   3.158   1.820  0.7024  0.3959  0.4634
  961MOL0     C32533   1.071   3.095   2.327 -0.3096 -0.3615 -1.4017
  961MOL0     C32534   1.194   3.095   2.396 -0.1075 -0.0101  0.0319
  961MOL0     C32535   1.421   3.175   2.755  0.4000 -0.5418  0.5301
  961MOL0     C32536   1.544   3.116   2.711  0.9108 -0.8864 -0.1204
  961MOL0     C32537   1.649   3.109   2.801  0.7877  0.3440  0.7009
  961MOL0     C32538   1.634   3.191   2.916 -0.0203 -0.4612 -0.7511
  961MOL0     O32539   1.731   3.202   3.013  0.1385  0.4928 -0.8541
  961MOL0     C32540   1.875   3.193   2.974  0.8408 -0.4828 -0.2282
  961MOL0     C32541   1.951   3.291   3.068 -0.8346 -0.2703  0.0761
  961MOL0     C32542   2.093   3.311   3.011  0.6109  0.5513  1.0604
  961MOL0     C32543   2.158   3.404   3.120  1.0623 -0.1647  0.1334
  961MOL0     C32544   2.239   3.347   3.225 -0.1590 -0.8922  0.8057
  961MOL0     C32545   2.307   3.303   3.307  0.0053  0.9268 -0.1428
  961MOL0     C32546   1.515   3.255   2.952 -1.2223  0.1280 -0.0682
  961MOL0     C32547   1.412   3.251   2.869  0.0190 -0.6899  0.2123
  961MOL0     C32548   1.281   3.307   2.920  0.5690 -0.4616 -0.1212
  961MOL0     H32549   1.125   2.869   2.632 -0.2035  0.5476  0.0326
  961MOL0     H32550   0.926   2.834   2.490  1.2527 -0.0161  2.2380
  961MOL0     H32551   0.691   2.888   2.300 -1.1079 -1.6023 -0.3858
  961MOL0     H32552   0.833   2.783   2.306  0.7649  2.5814  3.0256
  961MOL0     H32553   0.845   2.816   2.054 -1.3395 -1.5610  0.4079
  961MOL0     H32554   0.686   2.764   2.111 -1.0050  0.5971 -0.1629
  961MOL0     H32555   0.715   3.056   2.076  1.2179 -0.5034  0.6041
  961MOL0     H32556   0.677   2.967   1.931 -0.3155  0.0848 -0.4427
  961MOL0     H32557   0.497   2.851   2.076  0.2813 -0.1687 -1.5420
  961MOL0     H32558   0.511   2.982   2.190  1.5082 -1.2465 -0.6099
  961MOL0     H32559   0.452   3.052   1.905  0.6539  2.0633  0.8566
  961MOL0     H32560   0.440   3.145   2.057  1.0617  0.1513  0.4349
  961MOL0     H32561   0.264   2.920   1.950  2.1278 -0.4326 -0.3536
  961MOL0     H32562   0.285   2.945   2.121  1.6224  2.7393  1.6549
  961MOL0     H32563   0.190   3.173   2.094  1.5323  1.5102 -0.8365
  961MOL0     H32564   0.094   3.029   2.043  1.6905 -1.9356  0.9904
  961MOL0     H32565   0.243   3.224   1.861  0.4853 -0.5151 -1.2419
  961MOL0     H32566   0.170   3.083   1.793  2.6115 -1.2542  0.3505
  961MOL0     H32567   0.069   3.419   1.916  0.7523  0.0819 -0.5763
  961MOL0     H32568  -0.277   3.489   1.790 -1.6118  1.0305  0.8931
  961MOL0     H32569  -0.148   3.573   1.868  1.7850 -1.3620 -1.5261
  961MOL0     H32570  -0.390   3.431   1.985 -0.4651  0.4050  0.8477
  961MOL0     H32571  -0.229   3.413   2.078 -2.2615 -1.7705  0.4817
  961MOL0     H32572  -0.236   3.649   2.119  0.3654  1.9500  0.0840
  961MOL0     H32573  -0.374   3.672   2.004 -1.9977  1.5669  3.1310
  961MOL0     H32574  -0.543   3.586   2.113  0.1888 -3.1665 -1.5712
  961MOL0     H32575  -0.444   3.509   2.245 -2.6420 -2.8541 -3.6840
  961MOL0     H32576  -0.424   3.867   2.439  0.3007  1.8114  4.4337
  961MOL0     H32577  -0.620   3.975   2.724 -2.0558 -3.5399 -1.1879
  961MOL0     H32578  -0.575   4.064   2.580 -0.4185  0.6525  0.5958
  961MOL0     H32579  -0.461   3.947   2.652 -0.8324 -2.5068  0.0183
  961MOL0     H32580  -1.067   3.948   2.805  0.5036 -0.5840  2.0156
  961MOL0     H32581  -1.277   3.881   2.945  0.6973  1.4999  0.3170
  961MOL0     H32582  -1.501   3.608   2.770 -4.4166 -3.5983 -0.3883
  961MOL0     H32583  -1.516   3.519   2.923 -1.8067 -0.7399 -0.3935
  961MOL0     H32584  -1.712   3.694   2.831  0.2245 -1.1887  0.5648
  961MOL0     H32585  -1.701   3.663   2.997 -2.0051  2.1877 -0.2782
  961MOL0     H32586  -1.664   3.900   2.840 -0.5431  0.2931  0.6285
  961MOL0     H32587  -1.523   3.877   2.937  1.3961 -3.4498  0.5452
  961MOL0     H32588  -1.664   3.993   3.106 -1.5638  0.2300  0.0788
  961MOL0     H32589  -1.680   3.820   3.140  0.5533 -1.4550 -1.0559
  961MOL0     H32590  -1.894   3.845   2.993  0.3696  1.5288  0.2818
  961MOL0     H32591  -1.887   3.914   3.159  0.7672  2.1302  1.6264
  961MOL0     H32592  -1.888   4.078   2.909  0.3812  0.1750 -0.1796
  961MOL0     H32593  -1.791   4.135   3.047  0.5868 -1.2849 -0.9318
  961MOL0     H32594  -2.012   4.125   3.176 -0.5483 -1.6495  0.7914
  961MOL0     H32595  -2.094   4.061   3.042 -0.1762 -0.7020  2.8233
  961MOL0     H32596  -2.141   4.281   3.013  0.5469 -0.7115 -1.3250
  961MOL0     H32597  -2.018   4.261   2.903  1.6595 -0.9577  0.9042
  961MOL0     H32598  -1.279   3.492   2.767  1.2512 -0.0063 -0.5223
  961MOL0     H32599  -1.059   3.545   2.655 -0.5635 -1.0057  0.8906
  961MOL0     H32600  -0.865   3.645   2.426 -0.2474 -0.5794  3.0288
  961MOL0     H32601  -0.689   3.584   2.267 -1.5307  2.3713 -2.5725
  961MOL0     H32602   1.050   3.178   2.259 -1.9899  0.7018  0.3126
  961MOL0     H32603   1.275   3.161   2.369 -0.6859  0.7386  0.0893
  961MOL0     H32604   1.546   3.059   2.619  1.0785  0.7436 -1.1585
  961MOL0     H32605   1.730   3.038   2.788 -0.2135 -0.5883 -0.6625
  961MOL0     H32606   1.918   3.093   2.975 -0.6326 -1.1426  0.1934
  961MOL0     H32607   1.883   3.227   2.870  1.3427 -1.1078 -0.4022
  961MOL0     H32608   1.964   3.255   3.171  1.2805  2.5460  0.9095
  961MOL0     H32609   1.897   3.386   3.078  2.3656  1.6384  0.4236
  961MOL0     H32610   2.138   3.210   3.010  2.3343  1.2667  1.5915
  961MOL0     H32611   2.099   3.349   2.909  0.2622 -3.0711 -0.4740
  961MOL0     H32612   2.076   3.461   3.164  0.4304  0.0444 -1.2556
  961MOL0     H32613   2.221   3.479   3.071 -1.3418  1.2537 -0.9274
  961MOL0     H32614   2.367   3.264   3.386 -0.1518  1.6172  0.3283
  961MOL0     H32615   1.502   3.322   3.037  1.7130 -0.1007  0.6481
  961MOL0     H32616   1.289   3.339   3.024 -1.9654 -0.3867  0.1176
  961MOL0     H32617   1.249   3.396   2.865 -1.5869  0.2334  2.0348
  961MOL0     H32618   1.213   3.221   2.923  2.1702 -1.7584  1.3259
  962MOL0     O32619   1.133   4.191   5.414  0.1025  0.1152  0.1475
  962MOL0     C32620   1.130   4.061   5.400  0.3174  0.0609 -0.2078
  962MOL0     O32621   1.179   3.970   5.487 -1.0188 -0.2548  0.0013
  962MOL0     C32622   1.259   4.010   5.589 -0.3470  0.1991  1.0720
  962MOL0     C32623   1.368   4.097   5.560  0.8012 -0.2857  0.4231
  962MOL0     C32624   1.464   4.117   5.668 -0.0464 -0.1549 -0.0069
  962MOL0     C32625   1.458   4.047   5.784 -0.5041 -0.5769  0.2942
  962MOL0     O32626   1.552   4.082   5.886  0.3394 -1.1975  0.5661
  962MOL0     C32627   1.655   3.978   5.888  0.4076  0.0483  0.2383
  962MOL0     C32628   1.746   3.987   6.006 -1.1263  1.1016  0.6131
  962MOL0     C32629   1.668   4.003   6.136 -0.4929  0.5361 -0.5763
  962MOL0     C32630   1.752   4.070   6.250  0.3915  0.1957 -1.4001
  962MOL0     C32631   1.644   4.069   6.353  0.3886 -0.4385 -0.8123
  962MOL0     C32632   1.661   4.175   6.463  0.1199 -0.2277  0.5203
  962MOL0     C32633   1.536   4.168   6.557  0.2891  0.4509  0.2921
  962MOL0     C32634   1.548   4.253   6.683  0.3412 -0.4763  0.9496
  962MOL0     N32635   1.533   4.394   6.640  0.3428 -0.6869  0.1963
  962MOL0     C32636   1.552   4.499   6.728  0.3491  0.8140  0.6244
  962MOL0     C32637   1.505   4.611   6.670 -1.3108  0.2125 -0.2136
  962MOL0     C32638   1.522   4.759   6.721  0.2259 -0.3305  0.0916
  962MOL0     C32639   1.463   4.861   6.622 -0.2459 -0.5435 -0.5737
  962MOL0     C32640   1.420   4.988   6.703  0.4726  0.1470  0.2053
  962MOL0     C32641   1.422   5.108   6.611 -0.1817 -0.0938 -0.4148
  962MOL0     O32642   1.555   5.175   6.602  0.1875  0.3136 -0.3609
  962MOL0     C32643   1.544   5.299   6.556 -0.1389 -0.1718 -0.3212
  962MOL0     C32644   1.635   5.333   6.460  0.7720  0.5096 -0.2230
  962MOL0     C32645   1.637   5.453   6.394  0.4781  0.4585 -0.1311
  962MOL0     C32646   1.729   5.464   6.276 -0.0022  0.4171  0.1477
  962MOL0     C32647   1.548   5.552   6.441 -0.8690 -0.9440  0.0611
  962MOL0     C32648   1.554   5.689   6.385  0.1254 -0.9305 -1.2382
  962MOL0     O32649   1.538   5.786   6.483 -0.1670 -0.2268 -0.2456
  962MOL0     C32650   1.514   5.902   6.423 -1.1154  0.1462  0.0713
  962MOL0     C32651   1.381   5.925   6.396 -0.1614  0.1069 -1.2334
  962MOL0     C32652   1.336   6.040   6.329 -0.0167 -0.6642 -0.6630
  962MOL0     C32653   1.420   6.144   6.297 -1.2475 -0.4437  0.3443
  962MOL0     O32654   1.395   6.267   6.252 -0.4708  0.2622 -0.1282
  962MOL0     C32655   1.266   6.302   6.214  0.7421 -0.8732  0.0423
  962MOL0     C32656   1.199   6.369   6.335  0.1473 -0.4055 -0.4815
  962MOL0     C32657   1.058   6.422   6.303  0.1059 -0.3465  0.2564
  962MOL0     C32658   0.986   6.478   6.433 -0.3769  0.2292  0.5357
  962MOL0     C32659   1.052   6.604   6.495 -0.2561 -0.0185  0.1805
  962MOL0     C32660   1.027   6.740   6.427  0.9723  0.7537  0.0433
  962MOL0     C32661   1.059   6.853   6.525 -0.4429  1.1031 -0.5685
  962MOL0     C32662   1.015   6.993   6.470 -0.2996 -0.0253 -0.4038
  962MOL0    Cl32663   0.849   7.012   6.517  0.4926  0.0278 -0.3214
  962MOL0     C32664   1.559   6.127   6.325  0.3988  0.6222  0.1071
  962MOL0     C32665   1.604   6.006   6.393  0.3379 -0.7851 -0.2085
  962MOL0     O32666   1.569   5.704   6.266 -0.0387 -0.4073 -0.3779
  962MOL0     C32667   1.459   5.527   6.549  0.1897 -0.1888  0.3880
  962MOL0     C32668   1.458   5.392   6.595  0.7708  0.5760 -0.0579
  962MOL0     N32669   1.461   4.573   6.546  0.4544 -0.0313  0.0056
  962MOL0     N32670   1.465   4.447   6.531 -0.3427  0.6583  0.3583
  962MOL0     C32671   1.355   3.958   5.807 -0.3224  0.2433 -0.1061
  962MOL0     C32672   1.261   3.930   5.710 -0.7056 -0.9918 -1.2504
  962MOL0     C32673   1.061   4.010   5.269  0.4778  0.9925  0.7829
  962MOL0     C32674   1.018   4.104   5.178  0.2436 -0.5948 -0.8267
  962MOL0     C32675   0.944   4.086   5.063  0.0431  0.5184  0.6708
  962MOL0     C32676   0.904   3.961   5.032  0.2439  0.4850 -1.1232
  962MOL0     O32677   0.829   3.941   4.922  1.2537  0.7511 -0.3596
  962MOL0     C32678   0.903   3.928   4.799  0.6167 -0.0959 -0.5884
  962MOL0     C32679   0.865   4.046   4.705  0.0830 -0.1511 -0.2560
  962MOL0     C32680   0.725   4.036   4.631  0.5301  0.9700  0.3047
  962MOL0     C32681   0.677   4.177   4.581 -0.8832 -0.2384  0.0957
  962MOL0     C32682   0.766   4.236   4.475  0.5326 -0.5755 -0.0611
  962MOL0     C32683   0.837   4.300   4.396  0.8685 -0.6487 -0.4204
  962MOL0     C32684   0.949   3.849   5.113  0.1202 -0.4711  0.3537
  962MOL0     C32685   1.035   3.874   5.229  0.5557 -0.1921 -0.3819
  962MOL0     C32686   1.083   3.759   5.318  0.7377 -0.5273 -0.2077
  962MOL0     H32687   1.379   4.151   5.467 -0.3920  2.6061  1.8253
  962MOL0     H32688   1.549   4.178   5.640  0.5136 -0.4892  0.9198
  962MOL0     H32689   1.701   3.992   5.790 -2.2137 -0.5376 -1.1798
  962MOL0     H32690   1.611   3.878   5.886 -0.3005  0.3615 -0.7575
  962MOL0     H32691   1.805   3.896   6.016  0.7031  1.8968 -1.8625
  962MOL0     H32692   1.807   4.077   5.997 -0.3037  0.8851  3.2498
  962MOL0     H32693   1.584   4.071   6.120 -0.5646  0.0621 -2.5192
  962MOL0     H32694   1.625   3.908   6.169 -0.0440  0.5850  0.1587
  962MOL0     H32695   1.838   4.014   6.287  0.0162  0.6877  0.3527
  962MOL0     H32696   1.779   4.168   6.210 -1.0149  1.2669  0.1337
  962MOL0     H32697   1.638   3.970   6.400 -3.6431  0.6156  1.3883
  962MOL0     H32698   1.542   4.090   6.320  0.3625 -1.6981 -1.6021
  962MOL0     H32699   1.749   4.144   6.520  0.4426 -0.2612  0.0060
  962MOL0     H32700   1.686   4.274   6.423 -0.4211 -0.1036  0.4850
  962MOL0     H32701   1.526   4.064   6.588 -1.5789  0.9259  1.4151
  962MOL0     H32702   1.449   4.184   6.493  1.7745 -1.5644 -2.4147
  962MOL0     H32703   1.477   4.231   6.763  1.1058  0.1763  1.8383
  962MOL0     H32704   1.651   4.240   6.719 -0.3437 -4.8487  1.8070
  962MOL0     H32705   1.587   4.502   6.831  1.5747  1.8791  0.2033
  962MOL0     H32706   1.625   4.793   6.738 -0.1471  0.4593  0.8506
  962MOL0     H32707   1.481   4.759   6.822 -0.7183  1.2680 -0.2558
  962MOL0     H32708   1.542   4.891   6.553  0.3705  1.1228  0.7602
  962MOL0     H32709   1.378   4.829   6.562  1.3960 -2.6294 -1.9231
  962MOL0     H32710   1.319   4.968   6.739  0.5328 -1.8779 -0.6393
  962MOL0     H32711   1.493   5.014   6.780  0.9594  2.4589 -0.9394
  962MOL0     H32712   1.388   5.063   6.518 -1.1153  1.3110 -0.7713
  962MOL0     H32713   1.342   5.178   6.637  0.3543  0.0163  1.0830
  962MOL0     H32714   1.710   5.258   6.440 -1.0805 -1.3202 -0.6910
  962MOL0     H32715   1.785   5.557   6.287 -2.5793  2.0923  0.0563
  962MOL0     H32716   1.667   5.465   6.185  1.8313 -2.2863 -1.2510
  962MOL0     H32717   1.799   5.382   6.261  0.9817  1.2781 -0.0513
  962MOL0     H32718   1.314   5.845   6.425 -0.8267  1.8169  2.5705
  962MOL0     H32719   1.234   6.037   6.293  0.4766 -0.0190 -2.2356
  962MOL0     H32720   1.267   6.362   6.123 -0.9586 -0.4117  0.2937
  962MOL0     H32721   1.210   6.212   6.186  1.3738 -1.4917  0.7235
  962MOL0     H32722   1.206   6.303   6.422 -1.5470 -2.9345 -2.1408
  962MOL0     H32723   1.270   6.450   6.355  3.4360 -2.8906 -1.2178
  962MOL0     H32724   1.001   6.336   6.266 -0.8854  0.2766  0.3105
  962MOL0     H32725   1.070   6.488   6.217  1.7251 -1.9391 -0.8277
  962MOL0     H32726   0.995   6.402   6.512  3.0902  0.2512  0.2934
  962MOL0     H32727   0.881   6.500   6.411 -0.2116 -0.4038 -1.0574
  962MOL0     H32728   1.015   6.613   6.598  1.2557  1.8707  0.5972
  962MOL0     H32729   1.160   6.591   6.491 -0.0185 -0.1646  3.7277
  962MOL0     H32730   0.920   6.747   6.406  0.5812  0.8159  1.8284
  962MOL0     H32731   1.084   6.736   6.334  3.1101  0.9061  1.2702
  962MOL0     H32732   1.167   6.847   6.533 -0.3767 -2.1222 -2.0496
  962MOL0     H32733   1.026   6.847   6.629  1.4003 -0.6587 -0.0300
  962MOL0     H32734   1.019   6.992   6.361  0.2121 -0.2768 -0.3822
  962MOL0     H32735   1.072   7.078   6.510 -0.6159 -0.3251  0.7162
  962MOL0     H32736   1.630   6.206   6.307  0.5711  0.1321 -1.4604
  962MOL0     H32737   1.712   6.005   6.409  0.3329  0.9825  0.1674
  962MOL0     H32738   1.405   5.616   6.581 -2.3477 -1.5613  0.2174
  962MOL0     H32739   1.382   5.377   6.671 -0.3014  2.7210 -0.6006
  962MOL0     H32740   1.340   3.907   5.901  2.0769 -1.0462 -0.3394
  962MOL0     H32741   1.188   3.854   5.734  1.0206 -2.7937 -1.4312
  962MOL0     H32742   1.046   4.208   5.191 -0.2007 -0.7345  1.9572
  962MOL0     H32743   0.913   4.161   4.991 -1.0448 -0.5026  0.0433
  962MOL0     H32744   1.011   3.922   4.819  0.4730 -1.1098 -0.0685
  962MOL0     H32745   0.878   3.830   4.757  0.0063 -1.4049  2.5478
  962MOL0     H32746   0.948   4.069   4.637  1.5735 -0.7979  1.2863
  962MOL0     H32747   0.849   4.135   4.767 -2.3761 -0.4747 -0.3270
  962MOL0     H32748   0.732   3.976   4.540 -1.8066  0.0920  0.6359
  962MOL0     H32749   0.649   3.994   4.697 -2.1511 -0.0429 -3.1381
  962MOL0     H32750   0.682   4.237   4.672 -0.1331  0.9321 -0.6864
  962MOL0     H32751   0.573   4.172   4.547 -0.7189 -1.4862 -0.3045
  962MOL0     H32752   0.887   4.349   4.315 -0.5272 -0.9303 -1.4837
  962MOL0     H32753   0.913   3.752   5.082 -1.4659  0.7748 -2.0777
  962MOL0     H32754   1.031   3.767   5.414  1.1757  2.2981 -0.1070
  962MOL0     H32755   1.041   3.671   5.268 -1.1880  0.5821 -0.6366
  962MOL0     H32756   1.192   3.760   5.329  0.5888  0.1623  1.4812
  963MOL0     O32757  11.516   6.200   2.351 -0.0954  0.2733  0.4226
  963MOL0     C32758  11.441   6.101   2.356 -0.3138 -1.1083  1.3025
  963MOL0     O32759  11.424   6.011   2.252  0.7474 -0.5529 -0.5635
  963MOL0     C32760  11.480   6.037   2.135 -0.2993 -0.6543 -0.2936
  963MOL0     C32761  11.428   6.134   2.049  0.1794  0.7488  0.0614
  963MOL0     C32762  11.501   6.159   1.932  0.3117 -0.7929 -0.5603
  963MOL0     C32763  11.620   6.101   1.903  0.7919 -0.7100 -0.1094
  963MOL0     O32764  11.690   6.116   1.785  0.5654  0.1557 -0.5932
  963MOL0     C32765  11.704   6.249   1.735  0.9857 -0.2024 -0.8535
  963MOL0     C32766  11.833   6.260   1.658  0.1167  0.4541 -0.0095
  963MOL0     C32767  11.847   6.398   1.587  0.3474 -0.1921 -0.4502
  963MOL0     C32768  11.936   6.490   1.670  0.5789  0.2418  0.2978
  963MOL0     C32769  11.943   6.622   1.601 -0.2344 -0.0153 -0.3812
  963MOL0     C32770  12.052   6.715   1.676 -0.0252 -0.3969 -0.1635
  963MOL0     C32771  12.024   6.743   1.823  0.2326  0.8949 -0.6463
  963MOL0     C32772  12.129   6.834   1.902  0.3084  0.6890 -0.5619
  963MOL0     N32773  12.268   6.775   1.922 -0.4795  0.8816 -0.2276
  963MOL0     C32774  12.311   6.683   2.020 -0.0012 -0.0535  1.2868
  963MOL0     C32775  12.449   6.675   1.997 -0.4108 -0.1117 -0.6343
  963MOL0     C32776  12.532   6.597   2.082  0.0458 -0.0460 -0.2044
  963MOL0     C32777  12.564   6.472   2.011 -0.6177 -0.1737  0.3745
  963MOL0     C32778  12.636   6.364   2.089 -0.7226 -0.5452  0.1962
  963MOL0     C32779  12.585   6.224   2.056 -0.5293  0.5575 -0.1935
  963MOL0     O32780  12.602   6.175   1.920 -0.2317 -0.2362 -0.4055
  963MOL0     C32781  12.729   6.188   1.862  0.2343 -0.3187 -0.6745
  963MOL0     C32782  12.844   6.140   1.927  0.5359  0.3491  0.9420
  963MOL0     C32783  12.969   6.156   1.856  0.0832  0.3075  0.6226
  963MOL0     C32784  13.092   6.093   1.913 -0.0146 -0.7436  0.5854
  963MOL0     C32785  12.981   6.230   1.736 -1.0828 -0.0858 -0.3036
  963MOL0     C32786  13.106   6.260   1.659  0.3511  0.4819  0.4620
  963MOL0     O32787  13.082   6.305   1.533 -0.1702  0.2649  0.7494
  963MOL0     C32788  13.174   6.272   1.437  0.6177 -1.1243  0.7077
  963MOL0     C32789  13.177   6.363   1.332  0.0126  0.2591  0.6852
  963MOL0     C32790  13.270   6.345   1.235  0.1136 -0.9621  1.6239
  963MOL0     C32791  13.360   6.240   1.228  0.4253  0.6830  0.3734
  963MOL0     O32792  13.452   6.223   1.135 -0.1489  0.4348 -0.3741
  963MOL0     C32793  13.531   6.334   1.103 -0.2539 -0.3470  0.4043
  963MOL0     C32794  13.656   6.275   1.064 -0.5016 -0.5977 -0.1938
  963MOL0     C32795  13.765   6.241   1.174 -0.3409 -0.3932  1.2791
  963MOL0     C32796  13.835   6.373   1.229 -1.5227  0.7077 -0.9979
  963MOL0     C32797  13.945   6.421   1.127  0.5946  0.1635  0.7205
  963MOL0     C32798  13.989   6.563   1.171 -0.8057 -0.7074  0.7621
  963MOL0     C32799  13.888   6.661   1.116 -0.3170 -0.1331  0.5014
  963MOL0     C32800  13.953   6.799   1.160  0.0630 -0.1273  0.5553
  963MOL0    Cl32801  13.868   6.938   1.080 -0.0089  0.3724 -0.3485
  963MOL0     C32802  13.357   6.160   1.337  0.2116  0.6915 -0.2142
  963MOL0     C32803  13.264   6.163   1.439 -0.4827 -0.8392  0.2350
  963MOL0     O32804  13.216   6.252   1.707  0.1900 -0.1127  0.2298
  963MOL0     C32805  12.858   6.281   1.678 -1.0517  0.4621 -0.8041
  963MOL0     C32806  12.743   6.249   1.740 -0.9993  0.5446 -0.7001
  963MOL0     N32807  12.485   6.751   1.889 -0.0773 -0.5276 -0.1816
  963MOL0     N32808  12.379   6.805   1.844  0.3227 -0.3315  0.0777
  963MOL0     C32809  11.670   5.998   1.990  0.3204  0.4652  1.1810
  963MOL0     C32810  11.607   5.978   2.107 -0.4868  0.9498  0.1318
  963MOL0     C32811  11.369   6.069   2.479 -0.4353 -0.4515 -0.1658
  963MOL0     C32812  11.272   5.968   2.473 -0.6758  0.3836  0.1731
  963MOL0     C32813  11.187   5.928   2.572  0.7901 -0.3011 -0.4119
  963MOL0     C32814  11.209   5.982   2.692 -0.0710  0.0776 -0.6409
  963MOL0     O32815  11.148   5.955   2.824  0.9244 -0.5660  0.0381
  963MOL0     C32816  11.080   5.831   2.844 -0.5854  0.2522  0.6256
  963MOL0     C32817  10.937   5.860   2.820 -1.0162 -0.5559  0.3406
  963MOL0     C32818  10.856   5.757   2.744 -0.8946 -0.1818  0.3187
  963MOL0     C32819  10.853   5.623   2.811 -0.7634  0.2429 -0.0041
  963MOL0     C32820  10.738   5.606   2.903  0.2097 -0.1717  0.1285
  963MOL0     C32821  10.650   5.618   2.982 -0.5609 -0.5156  0.0504
  963MOL0     C32822  11.298   6.089   2.708  0.4845  0.5338 -0.8246
  963MOL0     C32823  11.389   6.123   2.609 -1.0883  0.4825 -0.3631
  963MOL0     C32824  11.500   6.228   2.628 -0.0910 -0.1164 -1.2015
  963MOL0     H32825  11.333   6.186   2.062 -0.3317  0.6877 -2.8152
  963MOL0     H32826  11.461   6.226   1.857 -0.7533  0.0551  0.7205
  963MOL0     H32827  11.717   6.326   1.811  0.8859  3.2756 -4.0484
  963MOL0     H32828  11.614   6.274   1.678 -2.3378 -1.6268  3.2364
  963MOL0     H32829  11.914   6.246   1.730 -2.8480  0.9480  3.7607
  963MOL0     H32830  11.845   6.172   1.594  3.4670 -0.3508  1.4847
  963MOL0     H32831  11.905   6.371   1.498  1.5355 -2.0726  0.8228
  963MOL0     H32832  11.757   6.451   1.553  2.3596  1.8546 -3.0022
  963MOL0     H32833  11.897   6.507   1.771  0.1250  1.8694 -0.1092
  963MOL0     H32834  12.038   6.450   1.672  0.1907 -0.7530  1.0330
  963MOL0     H32835  11.845   6.669   1.611  0.5315  1.4344  0.7739
  963MOL0     H32836  11.974   6.612   1.496  0.2461  3.5197 -0.7110
  963MOL0     H32837  12.151   6.667   1.674  0.7222  1.0001  1.0448
  963MOL0     H32838  12.074   6.806   1.620 -0.6497 -0.5629 -0.6918
  963MOL0     H32839  12.011   6.652   1.882 -0.4712  1.6807  0.4681
  963MOL0     H32840  11.924   6.788   1.821  0.2835  1.0643  0.0297
  963MOL0     H32841  12.120   6.932   1.853  0.7435  0.4452 -1.1318
  963MOL0     H32842  12.095   6.840   2.006 -0.7239  0.8416 -0.8929
  963MOL0     H32843  12.258   6.633   2.100 -0.9047 -3.9022 -1.4182
  963MOL0     H32844  12.473   6.578   2.172 -0.4601  0.4944 -0.4178
  963MOL0     H32845  12.618   6.661   2.102  0.9099 -0.5265 -2.1085
  963MOL0     H32846  12.471   6.423   1.980 -0.1984  0.5222 -2.1757
  963MOL0     H32847  12.626   6.505   1.927 -1.2564  1.1112  0.3809
  963MOL0     H32848  12.744   6.373   2.071 -0.2602  1.6486  3.1484
  963MOL0     H32849  12.621   6.381   2.196 -0.7012 -0.2982  0.1619
  963MOL0     H32850  12.630   6.152   2.125 -1.2887  0.7240  0.5034
  963MOL0     H32851  12.480   6.215   2.086 -0.9472 -2.3508 -2.1922
  963MOL0     H32852  12.831   6.102   2.028 -0.0011 -0.9421  0.4189
  963MOL0     H32853  13.088   6.019   1.993  0.0238 -0.6716  0.6540
  963MOL0     H32854  13.145   6.179   1.955 -1.0942  1.6147 -2.4906
  963MOL0     H32855  13.138   6.032   1.834 -1.5216 -1.0687 -0.0882
  963MOL0     H32856  13.111   6.449   1.336 -1.5887 -0.9575  2.7017
  963MOL0     H32857  13.273   6.407   1.146  1.1032 -3.5418 -0.2740
  963MOL0     H32858  13.483   6.389   1.022  0.5743  0.8405  0.6881
  963MOL0     H32859  13.536   6.404   1.188 -0.0653  0.9074 -0.6034
  963MOL0     H32860  13.637   6.188   1.000 -0.1687 -1.2025  0.5287
  963MOL0     H32861  13.696   6.357   1.003 -0.4575 -1.8011 -1.8635
  963MOL0     H32862  13.846   6.191   1.119 -0.4377  1.8540 -1.1651
  963MOL0     H32863  13.712   6.176   1.243 -3.0158 -0.6022 -0.7940
  963MOL0     H32864  13.882   6.363   1.327 -0.5911 -1.4200 -1.5980
  963MOL0     H32865  13.753   6.442   1.250 -1.4723 -0.0258  1.9830
  963MOL0     H32866  14.034   6.357   1.130  0.5499 -0.1895 -2.3434
  963MOL0     H32867  13.905   6.424   1.026  0.1048 -1.2216  0.8406
  963MOL0     H32868  14.092   6.575   1.134 -1.1866  2.4214  0.4610
  963MOL0     H32869  13.990   6.571   1.280  0.6401  1.4197  0.6526
  963MOL0     H32870  13.787   6.655   1.158 -0.0604 -0.2319  1.1043
  963MOL0     H32871  13.883   6.651   1.007 -1.3992 -0.9110  0.6087
  963MOL0     H32872  14.061   6.808   1.149  0.1712 -0.9323  0.8980
  963MOL0     H32873  13.947   6.816   1.268  1.2894  2.5950  0.2726
  963MOL0     H32874  13.429   6.079   1.345  2.0979  2.2799 -0.1590
  963MOL0     H32875  13.254   6.089   1.518 -0.9590 -0.6091  0.3932
  963MOL0     H32876  12.864   6.341   1.589  0.9575  1.3963 -0.0981
  963MOL0     H32877  12.656   6.289   1.689 -1.0310 -1.6389 -2.5250
  963MOL0     H32878  11.755   5.940   1.955 -1.6376 -2.5022  1.0624
  963MOL0     H32879  11.653   5.921   2.188 -2.1030  1.3454  1.3843
  963MOL0     H32880  11.248   5.927   2.376  3.2401  0.8550 -1.1779
  963MOL0     H32881  11.103   5.863   2.550  1.0084 -0.4093 -0.9418
  963MOL0     H32882  11.112   5.758   2.769  2.6369  0.5862  1.5575
  963MOL0     H32883  11.096   5.779   2.938 -1.0317 -0.0431  0.5444
  963MOL0     H32884  10.935   5.945   2.752 -2.2537 -0.9072 -0.0959
  963MOL0     H32885  10.894   5.893   2.915  1.8688  0.6855  1.3286
  963MOL0     H32886  10.760   5.803   2.719  0.4149  1.5587 -1.9852
  963MOL0     H32887  10.901   5.736   2.646  1.5662 -1.8582  1.6859
  963MOL0     H32888  10.950   5.611   2.859 -0.8241  1.4219  0.4463
  963MOL0     H32889  10.848   5.545   2.734 -2.2508  0.5004 -0.2100
  963MOL0     H32890  10.560   5.620   3.040 -1.3466 -0.7731 -1.1176
  963MOL0     H32891  11.315   6.147   2.798  2.8876 -0.3439 -0.6210
  963MOL0     H32892  11.602   6.194   2.608 -0.0955 -0.8875 -0.0795
  963MOL0     H32893  11.483   6.315   2.565  1.3391 -0.0041 -1.4566
  963MOL0     H32894  11.505   6.251   2.735 -1.0738 -4.0170 -0.1543
  964MOL0     O32895   0.182   5.475   5.974  0.0716  0.8688 -0.4325
  964MOL0     C32896   0.245   5.407   6.053  0.0793  0.9123 -0.5204
  964MOL0     O32897   0.328   5.462   6.145  0.5201  0.4892  0.2148
  964MOL0     C32898   0.376   5.586   6.121  0.2920  1.2473  0.1243
  964MOL0     C32899   0.321   5.683   6.209 -0.0915  0.0663  0.0740
  964MOL0     C32900   0.348   5.818   6.197  0.2033  0.7990 -0.0024
  964MOL0     C32901   0.435   5.860   6.098  0.3963 -0.3196 -0.3482
  964MOL0     O32902   0.458   5.998   6.087  0.0370 -0.1490 -0.2928
  964MOL0     C32903   0.563   6.047   6.004 -0.0260 -0.5757  0.1112
  964MOL0     C32904   0.702   6.023   6.066 -0.8372  0.2719  0.9780
  964MOL0     C32905   0.725   6.040   6.221  0.4996  0.5755  0.4420
  964MOL0     C32906   0.704   5.909   6.301  0.3895  0.8935 -0.9498
  964MOL0     C32907   0.762   5.931   6.445 -0.2952 -0.5273  0.2396
  964MOL0     C32908   0.738   5.806   6.529  0.1196 -0.2274  0.9958
  964MOL0     C32909   0.821   5.821   6.663  0.3646 -0.8787  1.4185
  964MOL0     C32910   0.800   5.704   6.760 -0.0356  0.2283  0.6193
  964MOL0     N32911   0.874   5.590   6.709 -0.4052  0.4933 -0.1323
  964MOL0     C32912   0.991   5.536   6.754 -0.3047 -0.8907  0.5806
  964MOL0     C32913   0.994   5.410   6.715 -0.0234 -0.0475  0.4488
  964MOL0     C32914   1.099   5.324   6.743 -1.3251  0.6630  0.5604
  964MOL0     C32915   1.055   5.190   6.804  0.3248  0.4081 -0.4456
  964MOL0     C32916   1.009   5.198   6.941 -0.9647  0.1627 -0.6690
  964MOL0     C32917   0.935   5.072   6.982  0.0480 -1.0651  1.6935
  964MOL0     O32918   0.886   5.081   7.114 -0.5030 -0.2438 -0.5688
  964MOL0     C32919   0.972   5.113   7.221 -1.4507 -0.3751  0.6442
  964MOL0     C32920   0.938   5.216   7.307 -0.1490  0.6181 -1.8060
  964MOL0     C32921   1.023   5.252   7.418  0.7987  0.5511  0.0020
  964MOL0     C32922   0.970   5.359   7.521 -0.2324 -0.0611  0.4166
  964MOL0     C32923   1.146   5.177   7.439  0.5906 -0.4326  0.4583
  964MOL0     C32924   1.220   5.192   7.564 -0.0374  0.1436 -0.5949
  964MOL0     O32925   1.161   5.224   7.690  0.3211  0.6397  0.1785
  964MOL0     C32926   1.237   5.249   7.802 -0.9279  0.5484 -0.5493
  964MOL0     C32927   1.370   5.304   7.809  1.2814  0.0551  0.2945
  964MOL0     C32928   1.426   5.329   7.934  0.5056 -1.0363  0.5421
  964MOL0     C32929   1.358   5.308   8.054  0.1945  0.7405  0.2861
  964MOL0     O32930   1.429   5.327   8.163  0.4049 -0.3763  0.4073
  964MOL0     C32931   1.414   5.241   8.272 -0.0111  0.2786 -0.2920
  964MOL0     C32932   1.530   5.275   8.372 -0.7090  0.1095  0.1429
  964MOL0     C32933   1.507   5.219   8.519  0.7367 -1.0478 -0.1114
  964MOL0     C32934   1.620   5.249   8.613 -0.0749  0.6063 -0.0626
  964MOL0     C32935   1.589   5.188   8.751  1.0412 -0.1234  1.0492
  964MOL0     C32936   1.649   5.265   8.866  0.5367  0.2007  0.4107
  964MOL0     C32937   1.641   5.180   8.995 -0.2883 -0.3730 -0.6092
  964MOL0     C32938   1.747   5.075   8.995  0.1188  1.5782 -0.4620
  964MOL0    Cl32939   1.777   4.996   9.155 -0.0955 -0.2209  0.1484
  964MOL0     C32940   1.226   5.258   8.054 -0.0131 -0.3397  0.4900
  964MOL0     C32941   1.169   5.237   7.933  0.0201  0.2212  0.2333
  964MOL0     O32942   1.338   5.171   7.551 -0.0214  0.1038  1.3498
  964MOL0     C32943   1.181   5.076   7.352 -0.2197 -0.0558 -0.5195
  964MOL0     C32944   1.092   5.043   7.249  0.0903 -0.9306  0.2221
  964MOL0     N32945   0.885   5.379   6.641  0.3630 -0.0919 -0.4638
  964MOL0     N32946   0.811   5.483   6.647  0.3953  0.2040 -0.0484
  964MOL0     C32947   0.498   5.766   6.014  0.8575 -0.0580  0.5624
  964MOL0     C32948   0.462   5.630   6.026  0.3733  0.9894 -0.5494
  964MOL0     C32949   0.226   5.262   6.060 -0.0089 -0.4760  0.6096
  964MOL0     C32950   0.301   5.195   6.153  0.6811 -0.5047 -0.0025
  964MOL0     C32951   0.283   5.061   6.178  0.5403  0.0380  0.2853
  964MOL0     C32952   0.183   4.989   6.112  0.6936  0.0431 -0.5348
  964MOL0     O32953   0.173   4.850   6.144  0.0389 -0.4033 -0.3601
  964MOL0     C32954   0.042   4.798   6.139  0.7765 -0.4899 -0.3619
  964MOL0     C32955  -0.070   4.877   6.224  0.2355  1.6053  0.0342
  964MOL0     C32956  -0.033   4.908   6.368  0.1221  0.2971 -0.0722
  964MOL0     C32957  -0.045   4.786   6.467 -0.7995 -0.2977  0.3005
  964MOL0     C32958   0.059   4.683   6.459  0.0206  0.0619  0.3327
  964MOL0     C32959   0.144   4.603   6.453 -1.1811 -0.7515  1.3098
  964MOL0     C32960   0.107   5.052   6.018  0.3217 -0.3768  0.3293
  964MOL0     C32961   0.130   5.186   5.985  0.6574  0.7823 -0.3529
  964MOL0     C32962   0.044   5.245   5.877  0.1173 -0.4304 -0.2344
  964MOL0     H32963   0.244   5.652   6.279 -1.1315 -0.6634 -1.3577
  964MOL0     H32964   0.300   5.898   6.254  0.7445  3.4106 -2.9459
  964MOL0     H32965   0.545   6.151   5.976  2.4017 -0.2927 -0.6644
  964MOL0     H32966   0.569   5.998   5.907  0.2999 -1.3456  0.5095
  964MOL0     H32967   0.735   5.921   6.044 -0.8526  0.2149  1.2177
  964MOL0     H32968   0.766   6.100   6.021 -1.0042  0.4222  0.9957
  964MOL0     H32969   0.829   6.072   6.227  1.0719 -0.9806 -0.4968
  964MOL0     H32970   0.667   6.126   6.256 -0.5712  0.2077 -0.3626
  964MOL0     H32971   0.601   5.874   6.310  0.3418  0.8437 -1.6609
  964MOL0     H32972   0.759   5.830   6.250  1.7496 -0.1725  1.9251
  964MOL0     H32973   0.709   6.017   6.487  2.7050  1.7737 -0.3498
  964MOL0     H32974   0.871   5.942   6.444 -0.2120 -1.2629  0.6453
  964MOL0     H32975   0.629   5.799   6.541  0.1238 -0.6746  0.7832
  964MOL0     H32976   0.754   5.715   6.470 -0.3716 -0.3375  1.0294
  964MOL0     H32977   0.780   5.907   6.717  2.7819  0.2557  1.5509
  964MOL0     H32978   0.921   5.853   6.633 -0.6873  0.1651 -1.4242
  964MOL0     H32979   0.839   5.724   6.861  0.4544 -1.6192  0.8284
  964MOL0     H32980   0.694   5.678   6.758 -0.4176  1.7388 -0.4445
  964MOL0     H32981   1.074   5.585   6.805  0.9292 -1.5201 -0.7392
  964MOL0     H32982   1.159   5.376   6.817 -1.9950  2.6400 -0.2141
  964MOL0     H32983   1.153   5.311   6.649  2.6220  2.5857  2.3184
  964MOL0     H32984   0.981   5.141   6.739 -0.2604 -0.3205  0.7471
  964MOL0     H32985   1.138   5.120   6.800  0.0526  0.0043 -5.0622
  964MOL0     H32986   1.088   5.211   7.016 -2.7894  2.5295  1.0123
  964MOL0     H32987   0.949   5.285   6.971 -3.7822 -0.9422 -2.6710
  964MOL0     H32988   0.845   5.062   6.920  0.4263  1.4678  0.5993
  964MOL0     H32989   1.008   4.993   6.966 -0.2732 -1.1235  0.3892
  964MOL0     H32990   0.840   5.262   7.302 -0.5924  0.2966  1.4487
  964MOL0     H32991   0.902   5.314   7.594 -0.7818 -0.9984 -0.6389
  964MOL0     H32992   0.903   5.433   7.476  0.2462  3.2690  4.4893
  964MOL0     H32993   1.048   5.415   7.573 -0.7524  1.1180 -0.0379
  964MOL0     H32994   1.440   5.318   7.728  3.2593 -1.0591  1.7100
  964MOL0     H32995   1.524   5.371   7.951  0.9495 -1.3436 -1.0504
  964MOL0     H32996   1.322   5.255   8.330  1.2610  0.3761  1.7923
  964MOL0     H32997   1.425   5.137   8.239 -0.8224  0.7179 -2.0426
  964MOL0     H32998   1.620   5.227   8.333 -0.2136  0.5220  0.7733
  964MOL0     H32999   1.549   5.382   8.387 -0.5845 -0.0059  0.8622
  964MOL0     H33000   1.498   5.110   8.511  4.6990 -1.5006 -0.4864
  964MOL0     H33001   1.420   5.271   8.559  1.6594  1.6138 -1.2861
  964MOL0     H33002   1.638   5.357   8.622  2.5764  0.4589 -2.2709
  964MOL0     H33003   1.711   5.205   8.571 -1.1763 -0.4830 -1.3966
  964MOL0     H33004   1.482   5.173   8.767  0.8605  1.8192  1.8985
  964MOL0     H33005   1.629   5.088   8.738 -0.6862 -0.5758 -1.6463
  964MOL0     H33006   1.591   5.356   8.884  1.5456  1.2026 -1.2080
  964MOL0     H33007   1.744   5.303   8.827 -1.3469  4.4129 -0.5452
  964MOL0     H33008   1.548   5.129   9.021  0.7548 -0.3116  4.0176
  964MOL0     H33009   1.648   5.246   9.082  1.1190  0.9977 -1.7190
  964MOL0     H33010   1.850   5.101   8.967  1.8042  0.0306  3.5698
  964MOL0     H33011   1.711   5.001   8.923  0.3956  0.7441  0.2511
  964MOL0     H33012   1.171   5.245   8.147  1.4725  0.7022  1.5688
  964MOL0     H33013   1.066   5.206   7.924  0.2318 -0.7863  1.0512
  964MOL0     H33014   1.257   5.005   7.384 -1.1111 -0.2351  1.3211
  964MOL0     H33015   1.120   4.961   7.184  1.0997  0.8292 -1.6698
  964MOL0     H33016   0.565   5.801   5.935 -0.5964  1.7215  0.0379
  964MOL0     H33017   0.515   5.563   5.958  3.0768 -0.3431  2.5894
  964MOL0     H33018   0.380   5.236   6.215  0.3483  0.5467 -0.2568
  964MOL0     H33019   0.346   5.002   6.244 -1.6029  0.6637  3.1002
  964MOL0     H33020   0.017   4.788   6.033 -0.4437  1.5403 -0.3203
  964MOL0     H33021   0.066   4.705   6.191 -0.1108 -0.3759  0.2808
  964MOL0     H33022  -0.158   4.813   6.224  0.5756  1.1283  0.2222
  964MOL0     H33023  -0.095   4.970   6.172 -1.3657  1.2152  0.0748
  964MOL0     H33024   0.066   4.953   6.364 -1.2827  3.5965 -1.7085
  964MOL0     H33025  -0.097   4.987   6.409 -0.7832 -0.0158 -0.8274
  964MOL0     H33026  -0.142   4.738   6.450 -2.4822  2.3266  1.8290
  964MOL0     H33027  -0.038   4.836   6.564  3.4540 -1.3400  0.7185
  964MOL0     H33028   0.226   4.534   6.453  1.6566  2.3727  0.5301
  964MOL0     H33029   0.020   5.004   5.974 -0.6123 -0.8139  2.4991
  964MOL0     H33030  -0.017   5.172   5.823 -0.6142  1.1877 -1.7026
  964MOL0     H33031  -0.026   5.320   5.914 -1.2688 -1.3846 -0.8278
  964MOL0     H33032   0.107   5.300   5.806  0.1595  3.6489  2.5946
  965MOL0     O33033  10.261   0.259   7.946  0.4272 -0.5616 -0.8723
  965MOL0     C33034  10.181   0.340   7.912  0.4783 -1.2290 -0.4341
  965MOL0     O33035  10.059   0.351   7.960 -0.1062  0.5928 -0.1924
  965MOL0     C33036  10.004   0.251   8.043 -0.3867 -0.3009 -0.9304
  965MOL0     C33037  10.033   0.111   8.039 -0.0916  0.6766  0.5539
  965MOL0     C33038   9.968   0.021   8.117 -0.6557  0.0052 -0.5341
  965MOL0     C33039   9.894   0.065   8.225 -0.4527  1.4414  0.6091
  965MOL0     O33040   9.848  -0.021   8.314 -0.1746  0.2836  0.1443
  965MOL0     C33041   9.714  -0.067   8.282 -0.3507 -0.0946 -0.2498
  965MOL0     C33042   9.671  -0.145   8.412  0.0528 -0.4982  0.0109
  965MOL0     C33043   9.717  -0.069   8.540 -0.9247 -0.1936 -0.8532
  965MOL0     C33044   9.683  -0.153   8.661  0.2218  0.5721  0.0198
  965MOL0     C33045   9.693  -0.065   8.790 -0.0409 -0.1391  0.3642
  965MOL0     C33046   9.560   0.008   8.799  0.7697  0.9694  0.3320
  965MOL0     C33047   9.595   0.116   8.897  0.2232 -0.8677  0.2166
  965MOL0     C33048   9.478   0.207   8.932  0.0423  1.1370  0.2427
  965MOL0     N33049   9.374   0.149   9.023 -1.1176 -0.4124  0.9327
  965MOL0     C33050   9.401   0.086   9.144  0.4291 -0.4356 -0.3670
  965MOL0     C33051   9.280   0.026   9.171 -0.2665 -0.2474 -0.3409
  965MOL0     C33052   9.265  -0.051   9.300  0.5037  0.1887 -0.3308
  965MOL0     C33053   9.182  -0.182   9.259 -0.5974  0.2327 -0.5003
  965MOL0     C33054   9.185  -0.288   9.374 -0.2159 -0.2403 -0.2983
  965MOL0     C33055   9.306  -0.288   9.462  0.9052  0.0398  0.5438
  965MOL0     O33056   9.313  -0.410   9.537  0.4660  0.3111  0.4105
  965MOL0     C33057   9.344  -0.395   9.669 -0.0727  0.8417 -0.0661
  965MOL0     C33058   9.240  -0.403   9.761 -0.0659  0.2036 -1.1828
  965MOL0     C33059   9.263  -0.383   9.895  0.1446 -0.0652  0.1878
  965MOL0     C33060   9.147  -0.383   9.986  0.2157  0.0775 -0.0693
  965MOL0     C33061   9.396  -0.358   9.944 -0.0980  0.5125 -0.9296
  965MOL0     C33062   9.434  -0.327  10.079 -0.5143 -0.8861 -0.4666
  965MOL0     O33063   9.548  -0.393  10.133  0.8928 -0.9156  0.0574
  965MOL0     C33064   9.589  -0.336  10.251  0.9875  0.7674 -0.9720
  965MOL0     C33065   9.663  -0.224  10.276  0.2931  1.2105 -0.1909
  965MOL0     C33066   9.668  -0.165  10.407  0.1001  0.1227  0.3688
  965MOL0     C33067   9.613  -0.230  10.517  0.7011 -0.1585  0.5264
  965MOL0     O33068   9.631  -0.189  10.647  0.4657  0.5970  0.2280
  965MOL0     C33069   9.764  -0.154  10.681  0.9514 -0.4032 -0.4768
  965MOL0     C33070   9.770  -0.168  10.834  0.6052  0.2228 -1.1207
  965MOL0     C33071   9.674  -0.098  10.915  0.4487  0.0416 -0.0004
  965MOL0     C33072   9.676  -0.140  11.068 -0.4110  0.4295 -0.5107
  965MOL0     C33073   9.674  -0.015  11.168 -0.0338  0.2716 -0.7815
  965MOL0     C33074   9.674  -0.039  11.321 -1.1091  0.0114 -0.3180
  965MOL0     C33075   9.654   0.094  11.404  0.6562  0.7867  0.3440
  965MOL0     C33076   9.563   0.069  11.524  0.4280  0.0713  0.5444
  965MOL0    Cl33077   9.531   0.225  11.616  0.1192 -0.1227  0.3392
  965MOL0     C33078   9.539  -0.354  10.494  0.3872 -0.0756  0.6363
  965MOL0     C33079   9.526  -0.402  10.361 -0.1703  0.8836  0.3542
  965MOL0     O33080   9.379  -0.227  10.130 -0.1002 -0.1981  0.2972
  965MOL0     C33081   9.502  -0.346   9.845 -0.4713  0.2578  0.5438
  965MOL0     C33082   9.475  -0.370   9.710 -0.0372  0.1764 -0.1972
  965MOL0     N33083   9.187   0.055   9.079  0.8535 -0.7260  0.7038
  965MOL0     N33084   9.244   0.128   8.985  0.5746  0.5104  0.1831
  965MOL0     C33085   9.869   0.200   8.243  0.6158 -0.3507  1.0999
  965MOL0     C33086   9.922   0.291   8.147 -0.2239  0.5991  0.2518
  965MOL0     C33087  10.230   0.436   7.812  1.1572  0.4018 -0.2179
  965MOL0     C33088  10.338   0.399   7.729 -0.1657  1.4083 -0.5515
  965MOL0     C33089  10.398   0.486   7.643 -0.0652  0.4749 -1.1642
  965MOL0     C33090  10.345   0.613   7.622  1.0298  0.6087 -0.0089
  965MOL0     O33091  10.396   0.706   7.534 -0.0801 -0.0338  0.4454
  965MOL0     C33092  10.468   0.815   7.587  0.1526  0.4803  0.4451
  965MOL0     C33093  10.618   0.795   7.586 -0.7881 -0.8108 -0.0995
  965MOL0     C33094  10.691   0.929   7.618  0.2214 -0.5344  0.2850
  965MOL0     C33095  10.661   0.980   7.753  0.0552  0.5575  1.0220
  965MOL0     C33096  10.726   0.897   7.851  0.0635  1.0149  0.7390
  965MOL0     C33097  10.772   0.825   7.936 -0.2810  0.0049 -0.8180
  965MOL0     C33098  10.245   0.656   7.708 -0.3568  1.1186 -0.3353
  965MOL0     C33099  10.175   0.562   7.797  0.0908 -0.2776  0.0424
  965MOL0     C33100  10.061   0.613   7.879 -0.1290 -0.3420  0.1554
  965MOL0     H33101  10.104   0.065   7.971  2.8445  1.0703  3.1286
  965MOL0     H33102   9.977  -0.086   8.103 -0.0851  0.0590 -0.5894
  965MOL0     H33103   9.707  -0.137   8.198 -1.4172 -0.1447 -0.1316
  965MOL0     H33104   9.648   0.017   8.260 -1.4566 -0.2013  2.2724
  965MOL0     H33105   9.562  -0.152   8.406 -0.1022  1.4328 -0.1552
  965MOL0     H33106   9.733  -0.235   8.416  0.0502 -0.4759  0.5723
  965MOL0     H33107   9.824  -0.055   8.556 -1.2454  1.1428  0.3994
  965MOL0     H33108   9.650   0.018   8.545 -0.7642 -0.1211  0.6484
  965MOL0     H33109   9.598  -0.220   8.647  0.0907  0.9039 -0.7832
  965MOL0     H33110   9.758  -0.232   8.666  0.7119  1.0758  0.8102
  965MOL0     H33111   9.776   0.005   8.776 -0.9877  0.8290 -0.6039
  965MOL0     H33112   9.703  -0.131   8.877 -1.0611 -2.4143 -1.1274
  965MOL0     H33113   9.531   0.055   8.705  2.0516  0.9369 -0.0910
  965MOL0     H33114   9.480  -0.061   8.828  1.6610 -1.0065 -1.6969
  965MOL0     H33115   9.676   0.175   8.854  1.2056 -1.4326  1.2448
  965MOL0     H33116   9.636   0.084   8.993 -0.4692  1.8669  1.5127
  965MOL0     H33117   9.507   0.304   8.973 -0.9667  1.8324 -0.6124
  965MOL0     H33118   9.430   0.236   8.838  2.2429  3.3083 -0.3159
  965MOL0     H33119   9.493   0.081   9.201  0.5487 -0.9018 -0.5999
  965MOL0     H33120   9.208   0.004   9.375  2.9411  1.6899  0.5560
  965MOL0     H33121   9.368  -0.064   9.334  0.5967  0.9492 -0.2993
  965MOL0     H33122   9.082  -0.143   9.233  0.4872  1.9661 -2.4198
  965MOL0     H33123   9.228  -0.217   9.166 -0.8540 -1.5932  0.0172
  965MOL0     H33124   9.095  -0.272   9.435  0.6426 -0.4063  1.0563
  965MOL0     H33125   9.181  -0.383   9.320  0.2523 -0.5835  0.2569
  965MOL0     H33126   9.395  -0.277   9.400  0.8820  0.2187  0.5410
  965MOL0     H33127   9.308  -0.204   9.532  2.4209  0.4065  0.1073
  965MOL0     H33128   9.141  -0.427   9.723 -0.7037  0.2313  0.3536
  965MOL0     H33129   9.139  -0.302  10.059  4.7456  0.6518  0.0771
  965MOL0     H33130   9.155  -0.480  10.035  2.1881 -0.2070 -0.8545
  965MOL0     H33131   9.056  -0.379   9.925 -0.0450  3.2019  0.3508
  965MOL0     H33132   9.710  -0.177  10.190  0.2884 -1.2593 -1.6202
  965MOL0     H33133   9.745  -0.090  10.422  2.6482 -2.4032  0.8905
  965MOL0     H33134   9.840  -0.208  10.623  2.2094 -0.2139  0.9339
  965MOL0     H33135   9.767  -0.046  10.664  1.2381  0.2516  2.9608
  965MOL0     H33136   9.747  -0.273  10.855  0.3034  0.3811 -0.6352
  965MOL0     H33137   9.868  -0.144  10.875 -0.1459 -0.6352  1.4035
  965MOL0     H33138   9.577  -0.111  10.866 -0.0115  2.4135  0.1352
  965MOL0     H33139   9.701   0.007  10.900  0.5701 -0.3339 -2.9771
  965MOL0     H33140   9.759  -0.207  11.092 -1.9656 -0.8220  1.7251
  965MOL0     H33141   9.585  -0.200  11.074 -0.7106  0.7522 -1.6733
  965MOL0     H33142   9.752   0.058  11.140  1.1463 -0.1411  1.2065
  965MOL0     H33143   9.588   0.049  11.145  1.1099  2.7388  1.2963
  965MOL0     H33144   9.766  -0.085  11.359  0.5512  0.8998 -2.9705
  965MOL0     H33145   9.596  -0.115  11.337 -0.6514 -0.2207  0.9057
  965MOL0     H33146   9.617   0.166  11.331 -0.7142  0.3075  0.5441
  965MOL0     H33147   9.746   0.128  11.452  0.7945  1.3414 -0.3087
  965MOL0     H33148   9.607  -0.011  11.583  1.6657 -2.2364 -3.1244
  965MOL0     H33149   9.470   0.029  11.483 -0.0409  0.3330  1.3441
  965MOL0     H33150   9.492  -0.404  10.579 -3.2806 -0.0398 -1.1978
  965MOL0     H33151   9.465  -0.490  10.342 -1.3081  1.8673 -0.6760
  965MOL0     H33152   9.606  -0.337   9.875  0.6331  3.3526 -3.3907
  965MOL0     H33153   9.549  -0.388   9.633 -1.2278 -2.3053 -0.8834
  965MOL0     H33154   9.805   0.247   8.316  0.4855 -1.1823  1.5289
  965MOL0     H33155   9.891   0.395   8.155 -0.5502  0.4673  0.7041
  965MOL0     H33156  10.383   0.301   7.715 -1.6618  0.5326  0.4325
  965MOL0     H33157  10.487   0.464   7.585 -1.7444  0.7721 -4.0397
  965MOL0     H33158  10.438   0.903   7.530 -3.3396 -1.1924 -0.6156
  965MOL0     H33159  10.427   0.844   7.684 -1.0890 -0.0694  0.1142
  965MOL0     H33160  10.667   0.762   7.495 -1.6160  1.0361 -1.2621
  965MOL0     H33161  10.645   0.718   7.660  2.5623  0.4845  0.2138
  965MOL0     H33162  10.797   0.904   7.609  0.1418 -0.7149 -0.2073
  965MOL0     H33163  10.670   1.010   7.548  3.3482  0.0342 -0.1268
  965MOL0     H33164  10.556   0.987   7.781 -0.2596 -1.6114  0.5857
  965MOL0     H33165  10.717   1.070   7.780 -0.0935  0.9422  0.1072
  965MOL0     H33166  10.828   0.773   8.012 -1.7176 -1.1007 -0.4738
  965MOL0     H33167  10.215   0.759   7.693  0.6758  1.2975 -1.3607
  965MOL0     H33168  10.064   0.722   7.867  0.0605 -0.1199  1.9705
  965MOL0     H33169   9.963   0.586   7.837  0.3190 -0.9734 -0.4887
  965MOL0     H33170  10.071   0.605   7.988  3.5007  0.5123 -0.0015
  966MOL0     O33171  10.388   7.016   7.921  0.0002 -0.0787  0.1983
  966MOL0     C33172  10.302   7.100   7.935  0.4179  1.0905 -0.4085
  966MOL0     O33173  10.296   7.187   8.039 -0.0029  0.1468  0.3190
  966MOL0     C33174  10.382   7.167   8.142 -0.8883 -0.7490 -0.6866
  966MOL0     C33175  10.512   7.133   8.148 -0.5337  0.1122 -0.0826
  966MOL0     C33176  10.577   7.104   8.268 -0.9164 -1.0416  0.4436
  966MOL0     C33177  10.508   7.123   8.391 -0.4732  0.6907 -0.2896
  966MOL0     O33178  10.578   7.110   8.511  0.3949 -0.4449  0.4991
  966MOL0     C33179  10.567   6.982   8.577  0.3695  0.2129 -0.1912
  966MOL0     C33180  10.495   7.006   8.711  0.2941  0.0894 -0.9262
  966MOL0     C33181  10.485   6.880   8.795 -0.1194  0.4346 -0.5056
  966MOL0     C33182  10.397   6.901   8.919 -0.5113  0.8147 -0.3946
  966MOL0     C33183  10.389   6.769   9.017 -0.1902 -1.0345  0.8209
  966MOL0     C33184  10.533   6.728   9.087  0.8405  0.3380  0.1391
  966MOL0     C33185  10.523   6.636   9.211  0.0124 -0.6585  0.0167
  966MOL0     C33186  10.662   6.626   9.276  0.3410  0.0029 -0.4806
  966MOL0     N33187  10.690   6.492   9.319 -0.3608 -0.2258  0.9836
  966MOL0     C33188  10.616   6.412   9.401 -0.4717  0.1143 -0.8962
  966MOL0     C33189  10.683   6.288   9.412  0.1038 -0.1245  0.6093
  966MOL0     C33190  10.656   6.171   9.509  0.2782  0.6197 -0.0169
  966MOL0     C33191  10.779   6.132   9.591 -0.4706  0.1933  0.0924
  966MOL0     C33192  10.751   6.012   9.678  0.2379  0.7234 -0.2395
  966MOL0     C33193  10.877   5.936   9.703 -0.2121  0.2377  0.4516
  966MOL0     O33194  10.839   5.826   9.785 -0.2949  0.7294 -0.2143
  966MOL0     C33195  10.912   5.712   9.764  1.0571  0.1717 -0.3554
  966MOL0     C33196  10.937   5.660   9.635  0.6010 -0.2902 -0.0721
  966MOL0     C33197  11.037   5.565   9.605 -0.3624  0.3636 -0.4623
  966MOL0     C33198  11.075   5.524   9.464  0.5882  0.1621  0.0242
  966MOL0     C33199  11.115   5.524   9.715 -1.3470  0.0280  0.6681
  966MOL0     C33200  11.241   5.424   9.722 -0.3472 -0.1633  0.9437
  966MOL0     O33201  11.298   5.406   9.851  0.1279  0.6638  0.4335
  966MOL0     C33202  11.407   5.318   9.848 -0.6704  0.0082  0.1427
  966MOL0     C33203  11.541   5.352   9.881  0.3990 -1.2702 -0.0408
  966MOL0     C33204  11.640   5.257   9.894 -0.0406  0.1176  0.5799
  966MOL0     C33205  11.616   5.120   9.868  0.8585  0.1901  0.4241
  966MOL0     O33206  11.697   5.011   9.893  0.7790 -0.0586  0.2581
  966MOL0     C33207  11.833   5.029   9.936  0.1583 -0.1959 -0.6130
  966MOL0     C33208  11.935   5.051   9.825 -0.3207 -1.0723 -0.4944
  966MOL0     C33209  11.917   4.957   9.702 -0.1692 -0.7336  0.7161
  966MOL0     C33210  12.055   4.949   9.630 -0.2801  0.7316  0.3868
  966MOL0     C33211  12.060   4.838   9.536 -0.1421  0.6159  0.2151
  966MOL0     C33212  12.184   4.857   9.452 -0.7188 -0.2470 -0.3013
  966MOL0     C33213  12.177   4.752   9.333 -0.6040  0.4079  1.1211
  966MOL0     C33214  12.315   4.753   9.262  0.8667  0.1400 -0.1367
  966MOL0    Cl33215  12.334   4.632   9.131 -0.4987 -0.5634 -0.0982
  966MOL0     C33216  11.486   5.085   9.844  0.9651  0.0103  0.4294
  966MOL0     C33217  11.382   5.178   9.831 -0.2675 -0.1894  0.3138
  966MOL0     O33218  11.274   5.379   9.615  0.7115 -0.1948  0.5432
  966MOL0     C33219  11.073   5.555   9.840  0.3072 -0.4601  0.9643
  966MOL0     C33220  10.975   5.651   9.872 -0.1683 -0.5266  0.2726
  966MOL0     N33221  10.795   6.289   9.327  0.3405  0.5460  0.5820
  966MOL0     N33222  10.791   6.407   9.273 -0.0308  0.1315 -0.3796
  966MOL0     C33223  10.379   7.179   8.388 -1.3977 -0.4666 -0.0955
  966MOL0     C33224  10.321   7.196   8.263  0.6978  0.0343 -0.3093
  966MOL0     C33225  10.184   7.077   7.849 -0.0434 -0.9464  0.1314
  966MOL0     C33226  10.214   7.055   7.702 -0.6554 -0.3492  0.6975
  966MOL0     C33227  10.109   7.029   7.612  0.0209  0.0548  0.1351
  966MOL0     C33228   9.977   7.016   7.661  0.3870 -0.6318  0.3048
  966MOL0     O33229   9.869   6.980   7.575  0.3405 -0.3655 -0.2343
  966MOL0     C33230   9.886   6.928   7.442  0.0950 -0.2172 -0.1851
  966MOL0     C33231   9.914   7.054   7.351  0.0616 -0.7889 -0.8404
  966MOL0     C33232   9.795   7.147   7.334  0.1309  0.1516 -0.2078
  966MOL0     C33233   9.831   7.265   7.243 -0.7790 -0.0432 -0.7915
  966MOL0     C33234   9.893   7.362   7.330 -0.4534 -0.3536  0.9670
  966MOL0     C33235   9.948   7.453   7.396  0.7476  0.3331 -0.3371
  966MOL0     C33236   9.950   7.042   7.798 -0.2371 -0.3428  0.5449
  966MOL0     C33237  10.052   7.066   7.888  0.5448  0.3333 -0.1984
  966MOL0     C33238  10.003   7.081   8.031  0.0762  1.1210 -0.4453
  966MOL0     H33239  10.569   7.113   8.058 -0.5389 -0.2661 -0.0021
  966MOL0     H33240  10.677   7.062   8.274 -0.2214  0.5945  0.8322
  966MOL0     H33241  10.666   6.939   8.595 -0.4377 -1.3026  0.9091
  966MOL0     H33242  10.505   6.907   8.527  1.2918 -0.7464  0.0570
  966MOL0     H33243  10.559   7.068   8.774 -0.6591 -0.8755  1.0773
  966MOL0     H33244  10.400   7.060   8.702 -0.3774 -0.7130  0.8440
  966MOL0     H33245  10.421   6.814   8.736 -1.0735  1.1849 -0.3379
  966MOL0     H33246  10.574   6.825   8.827 -0.7200  1.6537  4.0086
  966MOL0     H33247  10.436   6.987   8.975  1.0810 -0.0828 -0.0752
  966MOL0     H33248  10.295   6.919   8.884 -1.3771  1.8858  2.3455
  966MOL0     H33249  10.337   6.695   8.955  1.4812 -1.3132 -0.3092
  966MOL0     H33250  10.319   6.796   9.097 -1.8004 -2.6138  0.0300
  966MOL0     H33251  10.591   6.671   9.014 -2.7551 -1.5107 -1.5168
  966MOL0     H33252  10.586   6.823   9.102  0.5715  0.1957  2.4170
  966MOL0     H33253  10.490   6.535   9.186  2.3734 -1.2568 -1.0249
  966MOL0     H33254  10.447   6.682   9.274  0.4623  2.4198 -1.4824
  966MOL0     H33255  10.747   6.665   9.220  1.1897 -0.3426  0.5415
  966MOL0     H33256  10.653   6.688   9.365  2.7298  2.6810 -1.9483
  966MOL0     H33257  10.520   6.430   9.447 -0.1410  3.6890 -1.3235
  966MOL0     H33258  10.627   6.093   9.437  3.8310  0.4105 -1.4154
  966MOL0     H33259  10.578   6.200   9.581 -0.5223  0.7223 -0.8993
  966MOL0     H33260  10.872   6.121   9.534 -0.7683  1.8173 -0.7609
  966MOL0     H33261  10.792   6.221   9.653 -0.5373  2.1494 -2.5477
  966MOL0     H33262  10.707   6.049   9.772 -0.1341  2.4244 -1.0406
  966MOL0     H33263  10.666   5.953   9.644  0.7734  1.4062 -3.0226
  966MOL0     H33264  10.918   5.915   9.604 -1.6958  0.7471 -0.2998
  966MOL0     H33265  10.947   5.998   9.760  0.0715  0.7134 -0.3980
  966MOL0     H33266  10.885   5.708   9.552 -0.5781 -2.0766 -0.4165
  966MOL0     H33267  11.071   5.415   9.460  0.3731  0.1902 -0.5651
  966MOL0     H33268  11.178   5.560   9.449 -0.1951  3.2259  1.2426
  966MOL0     H33269  11.013   5.581   9.394 -1.2357  1.9484  2.8983
  966MOL0     H33270  11.570   5.454   9.902 -0.4118 -1.3658  1.7364
  966MOL0     H33271  11.743   5.285   9.914  0.5347 -2.2471  1.2311
  966MOL0     H33272  11.835   5.106  10.013  1.2591 -0.0867 -0.7427
  966MOL0     H33273  11.849   4.937   9.993  1.5390  1.5676  2.0255
  966MOL0     H33274  11.925   5.151   9.781 -0.8759 -0.5400  0.8002
  966MOL0     H33275  12.036   5.050   9.865 -0.0692 -0.6713 -1.0957
  966MOL0     H33276  11.830   4.975   9.638  1.7916  0.9399 -1.6525
  966MOL0     H33277  11.890   4.858   9.740 -1.2690 -1.5265 -1.9013
  966MOL0     H33278  12.136   4.940   9.703 -0.9833  1.7404  1.3303
  966MOL0     H33279  12.082   5.042   9.578  0.6428  0.5648  0.5536
  966MOL0     H33280  12.057   4.739   9.582 -0.5743  1.4573  2.1075
  966MOL0     H33281  11.973   4.850   9.470  0.6888  0.2182 -0.9892
  966MOL0     H33282  12.277   4.849   9.510 -1.9455 -0.0567  1.7629
  966MOL0     H33283  12.179   4.954   9.401 -3.1650  0.4837  1.1808
  966MOL0     H33284  12.096   4.785   9.267  0.7545 -0.2868 -0.9973
  966MOL0     H33285  12.149   4.654   9.374  0.3120 -0.7111 -0.8243
  966MOL0     H33286  12.395   4.728   9.332  0.4900 -2.5661 -0.5747
  966MOL0     H33287  12.340   4.852   9.222 -2.5110  0.4521 -1.7796
  966MOL0     H33288  11.463   4.979   9.848  3.1996 -0.7545 -2.9966
  966MOL0     H33289  11.284   5.136   9.809 -0.6209  2.3011 -3.7694
  966MOL0     H33290  11.108   5.498   9.925 -2.5277 -0.1954  2.4517
  966MOL0     H33291  10.959   5.685   9.974  1.4715  1.8847 -0.2068
  966MOL0     H33292  10.328   7.218   8.475 -0.2986  1.1543 -0.1280
  966MOL0     H33293  10.218   7.229   8.263  0.3812 -0.9059 -1.0925
  966MOL0     H33294  10.318   7.061   7.673 -0.0781  1.1403  2.8332
  966MOL0     H33295  10.126   7.007   7.507  1.4312  0.2120  0.3093
  966MOL0     H33296   9.972   6.861   7.444  2.4208  2.4485  3.9276
  966MOL0     H33297   9.802   6.863   7.418  0.8093 -2.1038  2.0653
  966MOL0     H33298   9.943   7.033   7.248 -1.1353  2.9558 -2.0804
  966MOL0     H33299   9.997   7.113   7.391  0.2064  0.4528 -2.8289
  966MOL0     H33300   9.727   7.085   7.274 -0.7710  1.6999 -0.8336
  966MOL0     H33301   9.757   7.185   7.429  1.6055  0.7171  0.1768
  966MOL0     H33302   9.746   7.308   7.190 -2.0363 -0.4379  0.8051
  966MOL0     H33303   9.889   7.243   7.153 -1.8346  4.2088 -2.7471
  966MOL0     H33304   9.981   7.525   7.468 -3.2304  1.1613  0.9276
  966MOL0     H33305   9.849   7.024   7.835  0.5264 -0.5757  2.6799
  966MOL0     H33306   9.999   7.185   8.065 -0.1640  0.4890  1.5922
  966MOL0     H33307   9.904   7.041   8.055  0.7282  0.3530  1.1316
  966MOL0     H33308  10.066   7.021   8.097  1.6086  2.2422 -0.8249
  967MOL0     O33309   1.907   8.484   6.458 -0.5018  0.0588  0.6643
  967MOL0     C33310   1.949   8.597   6.414  0.4255  0.1136  0.5722
  967MOL0     O33311   1.902   8.724   6.443  0.8141  0.6223 -0.5368
  967MOL0     C33312   1.827   8.732   6.553 -0.4294  0.7729  0.1568
  967MOL0     C33313   1.893   8.788   6.665 -0.5599 -0.0445  0.5875
  967MOL0     C33314   1.829   8.795   6.789  0.3065  0.0121  0.3870
  967MOL0     C33315   1.695   8.760   6.811  1.2497 -0.3028  0.2700
  967MOL0     O33316   1.649   8.778   6.935  0.2293  0.4614  1.4564
  967MOL0     C33317   1.628   8.919   6.969  0.4819  0.6974  0.7149
  967MOL0     C33318   1.488   8.923   7.040 -0.4116 -0.1653 -0.1000
  967MOL0     C33319   1.431   9.070   7.072 -0.3516 -0.4269  0.0055
  967MOL0     C33320   1.506   9.180   7.147 -0.3116 -0.4381 -0.3997
  967MOL0     C33321   1.439   9.321   7.135 -0.6959  0.8956  0.8071
  967MOL0     C33322   1.500   9.440   7.211 -0.0645 -0.3224  0.1106
  967MOL0     C33323   1.430   9.575   7.208  0.7849 -0.6447  0.3044
  967MOL0     C33324   1.458   9.654   7.080 -0.5216  0.5570  0.1527
  967MOL0     N33325   1.400   9.785   7.085 -0.9481  0.8169  1.1677
  967MOL0     C33326   1.468   9.895   7.133 -0.3987 -0.0967 -0.3730
  967MOL0     C33327   1.370   9.987   7.115 -1.2180  0.2695  0.4309
  967MOL0     C33328   1.392  10.128   7.146  0.5718 -0.4974 -0.6656
  967MOL0     C33329   1.354  10.162   7.295 -0.0320 -0.1303  0.0731
  967MOL0     C33330   1.474  10.132   7.382 -0.0653  0.1409  0.2756
  967MOL0     C33331   1.455  10.166   7.529  0.3056  0.3145 -0.3978
  967MOL0     O33332   1.579  10.155   7.594 -0.0743 -0.4943  0.5017
  967MOL0     C33333   1.596  10.116   7.726  0.3749 -0.6190 -0.0910
  967MOL0     C33334   1.588  10.210   7.830  0.7555 -0.1650 -0.3520
  967MOL0     C33335   1.599  10.168   7.969 -0.2351 -0.5692  0.5694
  967MOL0     C33336   1.586  10.271   8.079  0.0264 -0.5013  0.8854
  967MOL0     C33337   1.610  10.032   7.989 -0.0527 -0.3286  0.8227
  967MOL0     C33338   1.599   9.977   8.134 -0.3288 -0.1931 -0.1199
  967MOL0     O33339   1.585  10.050   8.251 -0.1003 -0.0277  0.0782
  967MOL0     C33340   1.604   9.987   8.368  0.4890 -0.0158  0.2219
  967MOL0     C33341   1.503   9.923   8.443  0.1214 -0.7020  0.1256
  967MOL0     C33342   1.522   9.889   8.576  0.3780  0.2175  0.4920
  967MOL0     C33343   1.649   9.896   8.632 -0.6539 -0.2279  0.6208
  967MOL0     O33344   1.656   9.844   8.752 -0.0068 -0.1346  0.4663
  967MOL0     C33345   1.712   9.942   8.847 -0.7994  0.7904 -0.6867
  967MOL0     C33346   1.703   9.893   8.994 -0.2433  0.5547  0.0259
  967MOL0     C33347   1.790   9.763   9.027  1.0443 -0.2798 -0.1382
  967MOL0     C33348   1.803   9.768   9.178  0.2165  1.2091  0.2666
  967MOL0     C33349   1.892   9.655   9.240 -0.1762 -0.2727  0.1658
  967MOL0     C33350   2.030   9.667   9.189 -0.4378  0.2441 -0.1152
  967MOL0     C33351   2.119   9.557   9.253 -0.0482 -0.2163  0.8862
  967MOL0     C33352   2.254   9.550   9.179 -0.1130 -0.2205  0.6825
  967MOL0    Cl33353   2.348   9.401   9.219 -0.4532  0.4392 -0.4443
  967MOL0     C33354   1.756   9.947   8.559  0.4034 -0.5264 -0.3982
  967MOL0     C33355   1.727   9.991   8.430  0.1159  0.2990  0.4452
  967MOL0     O33356   1.584   9.855   8.134 -0.5716 -0.0319 -0.2865
  967MOL0     C33357   1.621   9.940   7.884 -0.0902  0.2478 -0.1491
  967MOL0     C33358   1.615   9.983   7.749  1.2547  0.5987 -0.9181
  967MOL0     N33359   1.247   9.926   7.084 -1.2208  1.2964 -0.1702
  967MOL0     N33360   1.276   9.805   7.065 -0.0265  0.1026 -0.0954
  967MOL0     C33361   1.630   8.704   6.693 -0.0372 -0.0382  0.2063
  967MOL0     C33362   1.698   8.686   6.575  0.6877 -0.9332 -0.5402
  967MOL0     C33363   2.055   8.593   6.304  0.0669 -0.1820 -0.7862
  967MOL0     C33364   2.068   8.710   6.229 -0.4216  0.0252  0.3378
  967MOL0     C33365   2.122   8.715   6.103 -0.8992  1.2836  0.8533
  967MOL0     C33366   2.200   8.607   6.045 -0.1484  0.0508 -0.7562
  967MOL0     O33367   2.261   8.625   5.922 -0.3196  0.1388  0.3111
  967MOL0     C33368   2.346   8.517   5.879  0.2656 -0.4012 -0.8003
  967MOL0     C33369   2.433   8.557   5.757  0.2079  0.6042 -0.3522
  967MOL0     C33370   2.488   8.699   5.778 -0.5714  0.2482 -0.1915
  967MOL0     C33371   2.589   8.751   5.675 -0.1597  1.2920 -0.9875
  967MOL0     C33372   2.702   8.663   5.682  0.2828  0.5553  0.4031
  967MOL0     C33373   2.788   8.567   5.684  0.0704 -0.2215  0.9227
  967MOL0     C33374   2.210   8.494   6.134  0.1055  0.8267  0.2678
  967MOL0     C33375   2.136   8.488   6.261 -0.8800  0.3773 -0.1503
  967MOL0     C33376   2.130   8.357   6.330 -0.9150  1.1566  0.3104
  967MOL0     H33377   1.994   8.827   6.656  0.4962 -2.8369 -0.9790
  967MOL0     H33378   1.893   8.828   6.870  0.7749 -0.8644  0.3799
  967MOL0     H33379   1.639   8.983   6.881  1.6272 -1.1625 -0.5709
  967MOL0     H33380   1.701   8.953   7.042  0.9509 -0.0043  0.5869
  967MOL0     H33381   1.413   8.861   6.989 -0.8935  0.9298 -0.7723
  967MOL0     H33382   1.516   8.879   7.136  0.8818 -2.3550 -1.3794
  967MOL0     H33383   1.417   9.102   6.968  0.1424 -3.1752 -1.0039
  967MOL0     H33384   1.334   9.061   7.123 -0.7971 -0.4384 -0.8256
  967MOL0     H33385   1.503   9.158   7.254 -0.0374  0.5668 -0.1736
  967MOL0     H33386   1.613   9.176   7.121  0.0642  0.5119  0.8790
  967MOL0     H33387   1.333   9.303   7.155 -0.5369 -2.5534 -0.7025
  967MOL0     H33388   1.452   9.360   7.034  4.4924  0.8220  1.2000
  967MOL0     H33389   1.501   9.410   7.316  0.3418  1.6535  0.6948
  967MOL0     H33390   1.606   9.447   7.185  1.1689 -3.8918  3.1647
  967MOL0     H33391   1.451   9.632   7.299  0.6571  0.4398 -0.3317
  967MOL0     H33392   1.322   9.556   7.211  0.9982 -1.9101  1.1684
  967MOL0     H33393   1.565   9.671   7.066  0.2307 -0.6119  3.5314
  967MOL0     H33394   1.409   9.602   6.997  2.2122 -2.7444  0.3994
  967MOL0     H33395   1.574   9.915   7.149 -0.0739 -1.1846 -1.0491
  967MOL0     H33396   1.330  10.186   7.077  0.8852 -2.4044 -2.6631
  967MOL0     H33397   1.494  10.163   7.130  1.7950 -2.3187  2.2827
  967MOL0     H33398   1.325  10.268   7.302 -2.7686 -0.8216  0.3023
  967MOL0     H33399   1.273  10.094   7.324  2.2744 -2.2159  2.0402
  967MOL0     H33400   1.489  10.024   7.368 -0.7093  0.1859 -0.8481
  967MOL0     H33401   1.566  10.176   7.343 -0.6856  1.7540  0.5501
  967MOL0     H33402   1.423  10.270   7.540  0.1560  0.1722  0.6265
  967MOL0     H33403   1.374  10.107   7.573  1.4683 -0.1513  1.2223
  967MOL0     H33404   1.561  10.311   7.801 -1.1479 -0.1555  1.2376
  967MOL0     H33405   1.584  10.369   8.029  2.1591 -1.8755 -2.2194
  967MOL0     H33406   1.676  10.270   8.141 -0.2962  1.9180  1.5254
  967MOL0     H33407   1.496  10.256   8.140  0.6491 -2.0480  1.4733
  967MOL0     H33408   1.405   9.924   8.395  0.7991  0.3877 -1.3222
  967MOL0     H33409   1.439   9.854   8.635  1.4866 -0.6005  1.6086
  967MOL0     H33410   1.816   9.969   8.823 -1.3441  3.6863 -0.1680
  967MOL0     H33411   1.662  10.038   8.835  1.2520  1.9301 -0.6340
  967MOL0     H33412   1.743   9.980   9.046  3.8541 -0.1616 -1.5993
  967MOL0     H33413   1.600   9.880   9.028  0.1668 -0.3636  0.9527
  967MOL0     H33414   1.887   9.769   8.976  1.0435  1.0176 -0.0361
  967MOL0     H33415   1.744   9.670   8.992  0.5158  0.2749 -0.9563
  967MOL0     H33416   1.708   9.734   9.220  0.4341 -3.7347 -2.3958
  967MOL0     H33417   1.836   9.866   9.213  3.2502 -0.0586  1.3371
  967MOL0     H33418   1.883   9.657   9.349  1.2569 -0.0776  0.2996
  967MOL0     H33419   1.846   9.561   9.209  1.4631 -0.6190 -1.3157
  967MOL0     H33420   2.081   9.762   9.202  2.1043 -1.1105  0.3979
  967MOL0     H33421   2.021   9.653   9.081  3.1137 -0.0366 -0.4967
  967MOL0     H33422   2.079   9.455   9.259 -1.6760  0.4008  0.9275
  967MOL0     H33423   2.144   9.588   9.354 -0.7894  0.8120  0.7640
  967MOL0     H33424   2.312   9.639   9.204 -0.3777 -0.3067  1.6246
  967MOL0     H33425   2.240   9.543   9.071 -2.3931 -1.5338  0.9879
  967MOL0     H33426   1.857   9.960   8.597  0.3141 -1.4537  0.1969
  967MOL0     H33427   1.800  10.048   8.374 -1.3848  3.6627  1.6517
  967MOL0     H33428   1.617   9.834   7.903  1.4281 -0.0191 -1.1517
  967MOL0     H33429   1.620   9.913   7.666  1.7575 -1.6354  0.8859
  967MOL0     H33430   1.532   8.659   6.697 -0.8453  1.3658 -2.0739
  967MOL0     H33431   1.662   8.639   6.484  0.8558 -0.9442 -0.6018
  967MOL0     H33432   2.024   8.804   6.261 -0.2129  0.5909 -0.9705
  967MOL0     H33433   2.120   8.805   6.042 -0.1812  1.1082  0.5621
  967MOL0     H33434   2.402   8.484   5.967 -5.3043 -2.3755  2.5034
  967MOL0     H33435   2.297   8.421   5.862  1.4876 -1.2215  0.1087
  967MOL0     H33436   2.377   8.549   5.664  1.3059  1.6378 -1.1276
  967MOL0     H33437   2.524   8.498   5.740  0.0330  0.3010 -0.2405
  967MOL0     H33438   2.404   8.768   5.770 -1.1215  0.4472  4.6003
  967MOL0     H33439   2.531   8.710   5.878 -0.9194 -1.4838  0.1822
  967MOL0     H33440   2.614   8.853   5.705 -2.4939  1.5503  0.3924
  967MOL0     H33441   2.560   8.764   5.571  1.0742  1.2223 -1.3553
  967MOL0     H33442   2.865   8.495   5.665 -0.0073 -0.2742  0.8069
  967MOL0     H33443   2.268   8.406   6.109 -2.5328 -0.5399 -1.5446
  967MOL0     H33444   2.035   8.304   6.320 -1.1117  0.9558  2.6177
  967MOL0     H33445   2.215   8.295   6.299 -3.3400 -0.7168 -3.1670
  967MOL0     H33446   2.146   8.368   6.438  1.7688  0.2391  0.0821
  968MOL0     O33447   8.394   9.941   7.701 -0.6118  0.4998 -0.1260
  968MOL0     C33448   8.287   9.961   7.756  0.6780 -0.3869  0.0486
  968MOL0     O33449   8.241   9.902   7.868 -0.6320  0.1871 -1.0467
  968MOL0     C33450   8.309   9.796   7.927  1.0490 -0.9533 -0.2562
  968MOL0     C33451   8.449   9.809   7.954 -0.0537  0.0465 -1.1493
  968MOL0     C33452   8.512   9.706   8.017  0.0490 -0.4615  0.8832
  968MOL0     C33453   8.449   9.582   8.032 -1.2263  0.6813 -0.5534
  968MOL0     O33454   8.518   9.470   8.076 -0.3232  0.1533  0.4479
  968MOL0     C33455   8.450   9.366   8.150  0.0841 -0.0273 -0.8805
  968MOL0     C33456   8.405   9.254   8.056 -0.2165  0.2998  0.9131
  968MOL0     C33457   8.344   9.136   8.136 -0.4833 -0.0148  0.1033
  968MOL0     C33458   8.327   9.010   8.053  0.2539 -0.5259  0.2151
  968MOL0     C33459   8.320   9.023   7.892  0.6447  0.8585 -0.4507
  968MOL0     C33460   8.333   8.882   7.830 -1.5268  1.5068  0.0857
  968MOL0     C33461   8.345   8.884   7.675  0.0159 -0.1503 -0.2642
  968MOL0     C33462   8.374   8.755   7.596  0.0368 -0.3669 -0.1954
  968MOL0     N33463   8.281   8.646   7.636 -0.2147 -0.5318  0.0666
  968MOL0     C33464   8.320   8.573   7.743  0.7039  0.5365  0.6424
  968MOL0     C33465   8.249   8.459   7.734  0.3225  0.7078 -0.6331
  968MOL0     C33466   8.252   8.367   7.852  0.4715 -0.2586 -0.3770
  968MOL0     C33467   8.385   8.291   7.855  0.1988  0.6616  0.5446
  968MOL0     C33468   8.394   8.210   7.972 -0.1338  0.0690 -0.2266
  968MOL0     C33469   8.283   8.103   7.982 -0.2967 -1.3374  0.2191
  968MOL0     O33470   8.291   8.020   8.100  0.4575 -0.4481 -0.1924
  968MOL0     C33471   8.226   7.900   8.101 -0.0859 -0.4339 -0.2463
  968MOL0     C33472   8.133   7.864   7.997 -0.0947  0.3403  0.4674
  968MOL0     C33473   8.068   7.734   7.998  0.3931  0.1039 -0.3342
  968MOL0     C33474   7.984   7.699   7.867 -0.1294 -0.5781 -0.9541
  968MOL0     C33475   8.090   7.645   8.101 -0.1858 -0.8861  0.9278
  968MOL0     C33476   8.025   7.512   8.099 -0.3410 -0.4840  0.0128
  968MOL0     O33477   8.032   7.446   8.221 -0.1755  0.4604 -0.2730
  968MOL0     C33478   7.940   7.344   8.227 -0.2280 -0.5382  0.4308
  968MOL0     C33479   7.970   7.221   8.167 -0.1108 -0.5871 -0.6636
  968MOL0     C33480   7.880   7.116   8.172  0.0970  0.5271  0.0907
  968MOL0     C33481   7.760   7.123   8.244 -0.4552  0.2535 -0.6919
  968MOL0     O33482   7.668   7.020   8.244  0.4953  0.1602  0.4312
  968MOL0     C33483   7.603   6.972   8.367  0.0923 -0.7427 -0.5525
  968MOL0     C33484   7.449   6.984   8.340 -0.5533  0.3136 -0.4779
  968MOL0     C33485   7.403   6.903   8.219  0.2652  0.4054  0.1852
  968MOL0     C33486   7.258   6.921   8.192  0.7747 -0.1090  0.4318
  968MOL0     C33487   7.235   6.863   8.059 -0.0944  0.9824 -0.5921
  968MOL0     C33488   7.103   6.898   7.994 -0.0408 -0.4186 -0.0936
  968MOL0     C33489   7.081   6.864   7.855  0.4581 -0.4945  0.5582
  968MOL0     C33490   7.071   6.717   7.825 -0.4252  1.0914  0.4815
  968MOL0    Cl33491   6.919   6.635   7.890 -0.2857  0.4334  0.1771
  968MOL0     C33492   7.745   7.235   8.320 -0.4854  0.4208  0.1118
  968MOL0     C33493   7.821   7.351   8.297 -0.0908 -0.5792 -0.3132
  968MOL0     O33494   7.970   7.459   7.999 -0.7049 -0.4003  0.6543
  968MOL0     C33495   8.175   7.683   8.201  0.5366  0.1519  0.0850
  968MOL0     C33496   8.248   7.806   8.197  0.0056 -0.5615 -0.7648
  968MOL0     N33497   8.165   8.465   7.628 -0.3779  0.5829  0.7781
  968MOL0     N33498   8.189   8.578   7.567  0.1335  0.0693  0.1349
  968MOL0     C33499   8.310   9.564   7.987 -0.4439 -0.4935 -0.3602
  968MOL0     C33500   8.241   9.676   7.936 -0.3377  0.5114 -0.2010
  968MOL0     C33501   8.180  10.043   7.680 -0.5921 -0.3843  0.7412
  968MOL0     C33502   8.225  10.122   7.569 -0.7758  0.0481 -0.8515
  968MOL0     C33503   8.138  10.198   7.496 -0.7152 -0.0754 -0.0621
  968MOL0     C33504   8.001  10.182   7.512  1.2725  0.2857 -0.7767
  968MOL0     O33505   7.915  10.249   7.425  0.5019 -0.6050  0.1616
  968MOL0     C33506   7.776  10.204   7.402 -0.3599 -0.8256 -0.8009
  968MOL0     C33507   7.782  10.081   7.317 -0.3121 -0.1012 -0.1905
  968MOL0     C33508   7.850  10.111   7.179 -0.8803  0.5263 -0.3529
  968MOL0     C33509   7.748  10.070   7.068  0.4073 -0.9575  0.7650
  968MOL0     C33510   7.828  10.079   6.946  0.4686 -1.3994  0.4072
  968MOL0     C33511   7.911  10.088   6.854  0.1893  1.0570 -0.8310
  968MOL0     C33512   7.951  10.111   7.624 -0.8866 -0.2692  0.5630
  968MOL0     C33513   8.038  10.042   7.708  0.1383  0.1857 -0.1584
  968MOL0     C33514   7.972   9.951   7.822  0.1353  0.0239  0.4694
  968MOL0     H33515   8.501   9.900   7.923 -0.8372  0.2884 -1.7949
  968MOL0     H33516   8.619   9.725   8.021  0.0525  1.7293 -3.5947
  968MOL0     H33517   8.368   9.414   8.203  1.9464  3.2213 -0.6573
  968MOL0     H33518   8.523   9.332   8.224  0.0647  0.2587 -0.7282
  968MOL0     H33519   8.335   9.272   7.974  1.3467 -2.3758 -1.1807
  968MOL0     H33520   8.493   9.218   8.002 -1.1066  0.0325 -0.3994
  968MOL0     H33521   8.410   9.106   8.217 -0.7183 -2.7887 -0.6222
  968MOL0     H33522   8.245   9.164   8.174  0.2362  0.6023  1.5769
  968MOL0     H33523   8.418   8.949   8.059  2.0778  1.8308 -1.2217
  968MOL0     H33524   8.243   8.958   8.098  1.1180  0.0564  2.6715
  968MOL0     H33525   8.403   9.087   7.861 -0.1933  1.6190 -1.1834
  968MOL0     H33526   8.223   9.067   7.866  0.8214  2.6891  1.6357
  968MOL0     H33527   8.423   8.841   7.876 -1.2891  0.0954 -1.5647
  968MOL0     H33528   8.262   8.802   7.851  0.6205 -1.0336 -1.7230
  968MOL0     H33529   8.425   8.954   7.649  1.5529 -0.3943  3.2916
  968MOL0     H33530   8.250   8.924   7.637  0.1313  3.8897  3.0028
  968MOL0     H33531   8.370   8.779   7.490 -2.8322  2.9670  0.4620
  968MOL0     H33532   8.476   8.718   7.607 -0.1281 -0.3298  2.0411
  968MOL0     H33533   8.398   8.608   7.809  1.5352 -2.9322  1.7151
  968MOL0     H33534   8.160   8.308   7.847  0.0859  0.3074 -0.0279
  968MOL0     H33535   8.243   8.427   7.943 -0.0290 -1.8224  0.6566
  968MOL0     H33536   8.404   8.228   7.767  0.9619 -1.0265  1.8710
  968MOL0     H33537   8.468   8.363   7.856 -0.7490  1.7842  2.0360
  968MOL0     H33538   8.494   8.165   7.973  1.8361  3.9335  2.8208
  968MOL0     H33539   8.391   8.277   8.058 -2.3127  0.2052 -0.3486
  968MOL0     H33540   8.190   8.158   7.994 -0.4007 -1.2940 -0.7225
  968MOL0     H33541   8.279   8.046   7.889 -2.0169  0.5661 -0.9508
  968MOL0     H33542   8.128   7.924   7.907 -2.9728 -0.3128  0.0810
  968MOL0     H33543   8.042   7.645   7.791  0.1280 -1.4848 -0.1298
  968MOL0     H33544   7.956   7.798   7.830  0.6035  1.1834  2.7746
  968MOL0     H33545   7.887   7.649   7.881  0.4960 -1.4143  0.5749
  968MOL0     H33546   8.068   7.210   8.120  0.1475 -0.1858 -0.2347
  968MOL0     H33547   7.893   7.021   8.121 -1.1177 -0.7443  1.9920
  968MOL0     H33548   7.642   6.872   8.389 -2.2052 -1.3523  1.0775
  968MOL0     H33549   7.631   7.040   8.448 -1.6411  1.1105 -1.4259
  968MOL0     H33550   7.411   6.933   8.429  2.6466 -2.6472 -0.6023
  968MOL0     H33551   7.419   7.089   8.340  1.5607  0.9672 -0.7843
  968MOL0     H33552   7.426   6.796   8.231 -0.9434 -0.0229 -1.0564
  968MOL0     H33553   7.463   6.939   8.135 -0.7085  1.4536 -0.0723
  968MOL0     H33554   7.228   7.026   8.186 -0.1680 -0.4482 -1.5394
  968MOL0     H33555   7.198   6.878   8.272 -1.7688  1.6529 -0.4118
  968MOL0     H33556   7.307   6.904   7.987 -2.3487  4.9940 -0.8885
  968MOL0     H33557   7.245   6.755   8.061 -0.3938  0.9631  0.4488
  968MOL0     H33558   7.094   7.007   7.994  2.0867 -0.1407 -2.7247
  968MOL0     H33559   7.025   6.856   8.058 -0.6366  0.9896  0.1553
  968MOL0     H33560   7.169   6.919   7.819  0.8402 -0.0835  2.0619
  968MOL0     H33561   6.989   6.904   7.811  0.9659 -1.4392 -1.5074
  968MOL0     H33562   7.158   6.660   7.857 -0.0811  1.7104  0.6567
  968MOL0     H33563   7.073   6.707   7.716  1.3569 -0.1469  0.5849
  968MOL0     H33564   7.654   7.245   8.379 -0.3823 -2.8949  1.0197
  968MOL0     H33565   7.806   7.450   8.339 -0.7642 -0.4335 -0.8620
  968MOL0     H33566   8.204   7.612   8.278  1.6971 -0.6596 -1.0557
  968MOL0     H33567   8.313   7.826   8.282 -1.2748 -0.7516  0.2835
  968MOL0     H33568   8.268   9.464   7.992 -0.1918 -0.5835 -0.0306
  968MOL0     H33569   8.138   9.662   7.904 -0.5938 -0.4451  0.9614
  968MOL0     H33570   8.330  10.131   7.544 -0.8785  0.2641 -1.2169
  968MOL0     H33571   8.174  10.263   7.417 -1.0188 -2.2853 -2.1393
  968MOL0     H33572   7.729  10.191   7.500 -0.2414 -0.0398 -0.6306
  968MOL0     H33573   7.712  10.280   7.357 -1.3095  0.2233  2.1107
  968MOL0     H33574   7.682  10.044   7.294  0.3556 -2.4248  0.2875
  968MOL0     H33575   7.834  10.001   7.371 -1.9461  0.4469  2.3568
  968MOL0     H33576   7.879  10.216   7.166 -1.8476  0.7673 -0.6621
  968MOL0     H33577   7.945  10.057   7.182  1.1559  3.8494  1.8989
  968MOL0     H33578   7.671  10.147   7.062  1.4963  0.6122  4.1473
  968MOL0     H33579   7.714   9.967   7.079  1.1029 -1.0505  2.2383
  968MOL0     H33580   7.981  10.102   6.774 -0.1645 -0.3018 -1.4160
  968MOL0     H33581   7.846  10.094   7.646 -0.2772 -3.9031  1.1548
  968MOL0     H33582   7.865   9.974   7.820 -0.6634 -3.0548  1.6514
  968MOL0     H33583   7.998   9.845   7.812  0.0370 -0.0035  0.5087
  968MOL0     H33584   8.009   9.986   7.919  0.0456 -1.2007  0.9610
  969MOL0     O33585   2.437  11.516  10.727  0.0612  1.0421  0.1640
  969MOL0     C33586   2.326  11.489  10.749 -0.0441  0.7067 -0.5385
  969MOL0     O33587   2.281  11.462  10.874 -0.3974  0.0509  0.2815
  969MOL0     C33588   2.354  11.468  10.988 -0.3939  0.0327 -0.0789
  969MOL0     C33589   2.465  11.385  11.004  0.2833  0.0458 -0.8404
  969MOL0     C33590   2.544  11.394  11.122  0.1345  1.5593 -0.9304
  969MOL0     C33591   2.510  11.480  11.231 -0.3918  0.1102 -0.9408
  969MOL0     O33592   2.592  11.492  11.344  0.4572 -1.3363 -0.2165
  969MOL0     C33593   2.731  11.504  11.335  0.2334 -0.5830 -0.3509
  969MOL0     C33594   2.787  11.631  11.273 -0.2382 -0.1543  0.7465
  969MOL0     C33595   2.731  11.766  11.320 -0.1949  0.1786 -0.1873
  969MOL0     C33596   2.833  11.838  11.411 -0.0590  0.0532 -0.8882
  969MOL0     C33597   2.843  11.772  11.551  0.4236 -0.1105 -0.2810
  969MOL0     C33598   2.917  11.861  11.652 -0.5990  0.1186  0.2689
  969MOL0     C33599   2.935  11.802  11.789  0.5103  0.2338  0.2051
  969MOL0     C33600   2.794  11.790  11.863 -0.5215  0.1813 -0.4135
  969MOL0     N33601   2.712  11.913  11.871  0.0428 -0.0843 -0.1225
  969MOL0     C33602   2.764  12.019  11.949 -0.3508  0.0406  0.7388
  969MOL0     C33603   2.655  12.090  11.979  0.0058 -0.0770  0.7880
  969MOL0     C33604   2.652  12.225  12.045 -0.6871 -0.4017  0.3592
  969MOL0     C33605   2.743  12.232  12.165  0.8941  1.3442  0.6071
  969MOL0     C33606   2.692  12.349  12.248 -0.0698  0.1604  0.5650
  969MOL0     C33607   2.766  12.376  12.375 -0.0420 -0.5026 -0.0200
  969MOL0     O33608   2.908  12.377  12.351  0.2283  0.2477 -0.2647
  969MOL0     C33609   2.988  12.327  12.446  0.4630  0.8580 -0.1844
  969MOL0     C33610   2.952  12.327  12.580  0.1803 -0.9711 -0.0244
  969MOL0     C33611   3.044  12.290  12.684 -0.4544 -0.1961 -0.3173
  969MOL0     C33612   2.998  12.326  12.833  0.8553 -0.3795  0.5544
  969MOL0     C33613   3.166  12.236  12.644 -0.7349 -0.1604 -0.1062
  969MOL0     C33614   3.279  12.203  12.748  0.1960  0.8047  0.4850
  969MOL0     O33615   3.405  12.163  12.693 -0.6353 -0.3002  1.0386
  969MOL0     C33616   3.514  12.133  12.777 -1.5185  0.0827  1.0858
  969MOL0     C33617   3.540  12.203  12.894  0.4346  0.5205 -0.5243
  969MOL0     C33618   3.652  12.157  12.972  0.3289 -0.1420  0.2163
  969MOL0     C33619   3.740  12.055  12.930 -1.3946 -0.3275  0.1874
  969MOL0     O33620   3.846  11.993  13.004 -0.6954 -0.1989  0.2059
  969MOL0     C33621   3.904  12.080  13.111  0.1373  0.3050 -0.5017
  969MOL0     C33622   3.830  12.052  13.236  0.2425 -0.1837  0.1035
  969MOL0     C33623   3.933  12.040  13.348  1.1387 -0.0550 -0.2889
  969MOL0     C33624   4.026  12.168  13.358  0.6171 -0.1640  0.2897
  969MOL0     C33625   4.089  12.193  13.501 -0.0452  0.1178  0.0351
  969MOL0     C33626   4.183  12.326  13.512  0.6239  0.5555  0.0871
  969MOL0     C33627   4.215  12.340  13.664 -0.1017 -0.0148 -0.2762
  969MOL0     C33628   4.291  12.467  13.703  0.6799  0.2785  0.5229
  969MOL0    Cl33629   4.190  12.600  13.657 -0.1405 -0.3366 -0.4005
  969MOL0     C33630   3.717  12.004  12.803  0.2034  0.2904 -0.2132
  969MOL0     C33631   3.611  12.045  12.726 -0.2929  0.0630 -0.0577
  969MOL0     O33632   3.257  12.209  12.868 -0.6200  0.0207 -0.2920
  969MOL0     C33633   3.187  12.213  12.510 -0.9061  0.7412 -0.4284
  969MOL0     C33634   3.107  12.264  12.413  0.8878 -0.8349  0.0564
  969MOL0     N33635   2.542  12.029  11.918 -0.1560  0.5176  0.5219
  969MOL0     N33636   2.580  11.925  11.864 -0.1491  0.2182  1.2281
  969MOL0     C33637   2.393  11.557  11.215  0.2558 -0.5295  0.0711
  969MOL0     C33638   2.315  11.543  11.096 -0.1585  0.7602 -0.2864
  969MOL0     C33639   2.228  11.468  10.633 -0.5762  0.1068 -1.0130
  969MOL0     C33640   2.118  11.392  10.662  0.8617 -0.0626 -0.1275
  969MOL0     C33641   2.030  11.356  10.560  0.3978 -0.6533 -0.7910
  969MOL0     C33642   2.051  11.407  10.431 -0.3019  0.2314  0.6595
  969MOL0     O33643   1.959  11.365  10.340  0.5282 -0.7490  0.2111
  969MOL0     C33644   1.961  11.398  10.205 -0.7009 -0.1352 -1.4584
  969MOL0     C33645   1.850  11.331  10.136  0.6349  0.6888  0.1846
  969MOL0     C33646   1.719  11.415  10.153  0.0802  0.8918 -0.0226
  969MOL0     C33647   1.596  11.322  10.161 -0.4762  0.8397  0.0193
  969MOL0     C33648   1.563  11.269  10.031  1.3517  0.5409 -0.7204
  969MOL0     C33649   1.535  11.230   9.920 -0.4584 -0.9932  0.6581
  969MOL0     C33650   2.159  11.491  10.401  1.1249  0.1978  0.0344
  969MOL0     C33651   2.251  11.509  10.499 -0.8296 -0.0694 -1.2133
  969MOL0     C33652   2.377  11.594  10.465  0.9040 -0.5260 -0.5794
  969MOL0     H33653   2.512  11.329  10.924  1.6616 -1.9626  1.2500
  969MOL0     H33654   2.636  11.338  11.116 -1.0646 -0.4234 -2.3913
  969MOL0     H33655   2.768  11.427  11.266 -1.4991 -0.7113 -1.1805
  969MOL0     H33656   2.788  11.495  11.428  2.4601  0.2022 -1.5498
  969MOL0     H33657   2.896  11.632  11.284 -0.0534 -2.0251 -0.5605
  969MOL0     H33658   2.762  11.625  11.167  2.5608 -0.2905  0.0023
  969MOL0     H33659   2.716  11.825  11.230 -2.8051  0.2839  0.2385
  969MOL0     H33660   2.639  11.739  11.372  0.9783 -0.4209  1.7146
  969MOL0     H33661   2.929  11.846  11.358  0.4182  1.2465  0.1014
  969MOL0     H33662   2.792  11.937  11.432  0.0407  0.4657 -2.4978
  969MOL0     H33663   2.887  11.672  11.546 -0.8831 -0.8095  1.1999
  969MOL0     H33664   2.741  11.758  11.587 -0.5034  2.3967 -1.6872
  969MOL0     H33665   3.020  11.874  11.618 -1.2379 -0.4700 -2.1193
  969MOL0     H33666   2.866  11.957  11.663  1.5169  1.8045 -3.1706
  969MOL0     H33667   3.006  11.863  11.847  0.2914  1.1483 -0.4643
  969MOL0     H33668   2.975  11.702  11.771 -0.4760 -0.0448 -0.5564
  969MOL0     H33669   2.733  11.719  11.806 -0.3841 -0.8063  0.6249
  969MOL0     H33670   2.808  11.733  11.956 -2.5873 -1.2540 -0.9059
  969MOL0     H33671   2.868  12.030  11.980 -0.1236 -1.4839  0.5737
  969MOL0     H33672   2.549  12.254  12.068 -1.1318 -1.1492 -0.5779
  969MOL0     H33673   2.688  12.301  11.974 -2.6829  0.8194  0.5676
  969MOL0     H33674   2.760  12.133  12.209  5.5831  1.1489 -1.0672
  969MOL0     H33675   2.843  12.254  12.127  0.3617  1.2554 -0.8917
  969MOL0     H33676   2.694  12.442  12.190 -2.2619 -1.2827 -2.1091
  969MOL0     H33677   2.593  12.330  12.289 -0.0352  2.3111  1.7792
  969MOL0     H33678   2.727  12.475  12.402  0.5855  0.1752 -1.5006
  969MOL0     H33679   2.749  12.293  12.445 -0.9195  0.4414  0.9268
  969MOL0     H33680   2.858  12.370  12.612 -0.1783 -0.3282 -1.8028
  969MOL0     H33681   3.072  12.381  12.892  0.9697  0.8600 -0.6805
  969MOL0     H33682   2.969  12.241  12.896 -2.0335 -0.0806 -0.2482
  969MOL0     H33683   2.906  12.385  12.827  1.4249  0.5454  0.6866
  969MOL0     H33684   3.484  12.285  12.937  2.8821  0.6091  2.9242
  969MOL0     H33685   3.670  12.206  13.068 -2.3569  0.1112  0.6607
  969MOL0     H33686   4.012  12.062  13.117  0.0999 -0.2173 -1.1572
  969MOL0     H33687   3.900  12.188  13.096  1.3183  0.6201  1.1747
  969MOL0     H33688   3.758  12.134  13.245  1.5116  0.8914  0.7692
  969MOL0     H33689   3.775  11.960  13.218 -3.7297  2.2049 -1.4559
  969MOL0     H33690   4.000  11.958  13.320  2.0771  1.0278 -1.3396
  969MOL0     H33691   3.899  12.004  13.445  0.3732 -0.8707 -0.8527
  969MOL0     H33692   3.968  12.259  13.338 -1.4180 -0.5069  3.8075
  969MOL0     H33693   4.106  12.157  13.285 -0.8681 -2.2540 -1.1515
  969MOL0     H33694   4.005  12.192  13.571 -1.8905  1.5622 -2.0213
  969MOL0     H33695   4.141  12.103  13.535  0.8099  1.5954  2.9449
  969MOL0     H33696   4.136  12.414  13.468  3.6885  3.1298  1.5928
  969MOL0     H33697   4.267  12.312  13.445  1.4414  0.1553  1.1663
  969MOL0     H33698   4.272  12.249  13.689 -0.0126 -0.3243 -1.5696
  969MOL0     H33699   4.116  12.345  13.709 -0.5626 -1.8546 -0.9888
  969MOL0     H33700   4.393  12.476  13.666  0.5775 -0.8548 -0.0975
  969MOL0     H33701   4.299  12.467  13.812  1.6724 -1.1423  0.4876
  969MOL0     H33702   3.784  11.924  12.773  0.8159  0.6345  0.2028
  969MOL0     H33703   3.582  11.980  12.644 -1.7986  2.4192 -1.4835
  969MOL0     H33704   3.278  12.160  12.482  0.8320  1.8962  2.5656
  969MOL0     H33705   3.127  12.240  12.309  0.7987  0.1974 -0.2080
  969MOL0     H33706   2.352  11.612  11.299 -1.0590 -1.7259  0.2537
  969MOL0     H33707   2.220  11.594  11.090 -0.7639 -0.4006 -0.9939
  969MOL0     H33708   2.107  11.354  10.763  1.5038  2.0414  0.7850
  969MOL0     H33709   1.958  11.279  10.586  1.7470 -1.2527  1.3798
  969MOL0     H33710   1.957  11.508  10.211 -2.0552 -0.2299  2.2121
  969MOL0     H33711   2.056  11.363  10.163  1.7848  0.9650  2.6565
  969MOL0     H33712   1.818  11.232  10.171 -6.4579  2.1756 -0.5005
  969MOL0     H33713   1.874  11.326  10.029 -1.2788  2.3988 -0.4006
  969MOL0     H33714   1.728  11.474  10.245 -2.7668  0.7718  0.4142
  969MOL0     H33715   1.697  11.478  10.067 -1.1411 -0.4512 -0.7229
  969MOL0     H33716   1.508  11.373  10.203 -1.6220 -1.5001  0.5953
  969MOL0     H33717   1.617  11.235  10.223  1.2462 -1.0247 -2.9321
  969MOL0     H33718   1.509  11.181   9.829  1.2153 -0.9031  0.1118
  969MOL0     H33719   2.177  11.539  10.305 -1.3012  0.9509 -0.1111
  969MOL0     H33720   2.387  11.686  10.522 -0.4870  0.7467 -2.2844
  969MOL0     H33721   2.469  11.538  10.483  1.0888  0.5805  2.4545
  969MOL0     H33722   2.381  11.614  10.357  1.5864 -2.4622 -0.9642
  970MOL0     O33723  11.247   5.670   2.394  0.7071 -0.8436  0.0486
  970MOL0     C33724  11.278   5.597   2.300 -0.8020  0.9601 -0.4239
  970MOL0     O33725  11.195   5.535   2.215  0.1342  0.8298  0.4614
  970MOL0     C33726  11.058   5.554   2.220  0.0901 -0.7320  0.4108
  970MOL0     C33727  10.998   5.600   2.099  0.5037 -0.1470  0.6530
  970MOL0     C33728  10.853   5.616   2.099 -0.5599  0.4789 -0.4040
  970MOL0     C33729  10.774   5.589   2.217  0.4037  0.0010  0.1673
  970MOL0     O33730  10.630   5.586   2.220  0.1320  0.3229 -0.0242
  970MOL0     C33731  10.572   5.707   2.173 -0.8081  0.9513 -1.0791
  970MOL0     C33732  10.430   5.722   2.217  0.5092  0.1663  0.9523
  970MOL0     C33733  10.416   5.772   2.363 -0.0380  0.5317 -1.1995
  970MOL0     C33734  10.402   5.655   2.460 -0.2159  0.2626  0.6604
  970MOL0     C33735  10.403   5.704   2.602 -0.2241 -0.3722  0.5329
  970MOL0     C33736  10.263   5.749   2.641  0.3604  0.3082  0.4418
  970MOL0     C33737  10.274   5.789   2.785  0.2110  0.1834  0.0954
  970MOL0     C33738  10.149   5.807   2.874  0.0960  0.5900 -0.2119
  970MOL0     N33739  10.181   5.817   3.021  0.3381  0.1857 -0.0937
  970MOL0     C33740  10.193   5.713   3.111 -0.2441 -0.3981  0.3760
  970MOL0     C33741  10.248   5.776   3.217 -1.1395 -0.3940 -0.2210
  970MOL0     C33742  10.266   5.705   3.346 -1.0110 -0.2185 -0.9865
  970MOL0     C33743  10.384   5.758   3.440 -0.6371 -0.2086  0.0609
  970MOL0     C33744  10.405   5.660   3.563 -0.6882  0.3738  0.2478
  970MOL0     C33745  10.542   5.711   3.641  0.2285  0.9939 -0.1175
  970MOL0     O33746  10.659   5.633   3.607 -0.5594 -0.3334  0.9977
  970MOL0     C33747  10.782   5.697   3.638  0.9532 -0.2892  0.3138
  970MOL0     C33748  10.817   5.738   3.765 -0.4272 -0.8690 -0.4421
  970MOL0     C33749  10.939   5.807   3.788  0.2872  0.2059  0.1645
  970MOL0     C33750  10.977   5.873   3.917 -0.0628  0.4607 -0.1985
  970MOL0     C33751  11.034   5.815   3.681 -0.3839  0.1794  0.2973
  970MOL0     C33752  11.182   5.850   3.697 -0.3744 -0.0879  0.2328
  970MOL0     O33753  11.227   5.956   3.626  0.2326 -0.3126 -0.0055
  970MOL0     C33754  11.361   5.994   3.636  0.0821 -0.1950  0.7718
  970MOL0     C33755  11.385   6.126   3.667 -0.0366 -0.0134  1.3949
  970MOL0     C33756  11.516   6.175   3.657 -0.3128 -0.2841  0.8434
  970MOL0     C33757  11.621   6.085   3.611 -0.5039 -0.3699 -0.4576
  970MOL0     O33758  11.754   6.136   3.588  0.5580 -0.3914 -0.0826
  970MOL0     C33759  11.797   6.128   3.450 -0.5879 -0.3200 -0.5799
  970MOL0     C33760  11.702   6.182   3.337 -0.0847 -0.1354 -0.3606
  970MOL0     C33761  11.677   6.333   3.348 -0.1806 -0.1343 -0.6112
  970MOL0     C33762  11.585   6.377   3.228  0.5405  0.1038 -0.1347
  970MOL0     C33763  11.545   6.530   3.242 -0.2874 -0.1787 -0.5349
  970MOL0     C33764  11.646   6.638   3.277  0.4687  0.0920  0.8719
  970MOL0     C33765  11.783   6.618   3.203 -0.2939  0.9696  0.8510
  970MOL0     C33766  11.833   6.751   3.148 -0.5390 -0.6619 -0.3145
  970MOL0    Cl33767  11.999   6.724   3.086 -0.1447  0.0441 -0.2433
  970MOL0     C33768  11.587   5.956   3.587 -0.4893 -0.2102 -0.8637
  970MOL0     C33769  11.467   5.906   3.593  0.0754 -0.8561 -1.0541
  970MOL0     O33770  11.248   5.793   3.777 -0.5179  0.1746  0.1856
  970MOL0     C33771  10.991   5.774   3.553  0.0018  0.5075 -0.2161
  970MOL0     C33772  10.869   5.719   3.526  0.3532  0.3525 -1.2842
  970MOL0     N33773  10.277   5.911   3.197 -0.0642 -0.3006  0.3777
  970MOL0     N33774  10.229   5.932   3.081 -0.0867 -0.8111 -0.4167
  970MOL0     C33775  10.846   5.552   2.333 -0.1450 -0.4890  0.0748
  970MOL0     C33776  10.985   5.537   2.340 -0.4392  1.0966  0.5444
  970MOL0     C33777  11.421   5.566   2.282  0.5150 -0.2612 -0.4619
  970MOL0     C33778  11.509   5.679   2.287  0.2147  0.4330  0.0402
  970MOL0     C33779  11.644   5.653   2.272  0.0944  0.4214  0.1406
  970MOL0     C33780  11.691   5.522   2.232 -0.4555  0.0773 -0.4404
  970MOL0     O33781  11.819   5.480   2.209  0.0525 -0.4201  0.0885
  970MOL0     C33782  11.862   5.534   2.081 -1.0546  0.2910 -0.1238
  970MOL0     C33783  12.015   5.548   2.093  0.0815  0.0148 -0.4368
  970MOL0     C33784  12.062   5.641   2.206 -0.6310 -0.6767 -0.2288
  970MOL0     C33785  12.012   5.786   2.190  0.1160 -0.7225  0.0728
  970MOL0     C33786  12.118   5.893   2.185 -0.3906  0.5400  0.7124
  970MOL0     C33787  12.194   5.984   2.181  0.2350 -0.9736  0.7768
  970MOL0     C33788  11.596   5.427   2.222 -0.7383  0.0902 -0.8783
  970MOL0     C33789  11.467   5.440   2.244 -1.1538  0.3746  1.1472
  970MOL0     C33790  11.380   5.319   2.234 -0.3228 -0.4568  0.1774
  970MOL0     H33791  11.064   5.638   2.023 -0.2351  4.0506  1.8366
  970MOL0     H33792  10.799   5.650   2.011 -1.8300  2.6312  1.0970
  970MOL0     H33793  10.573   5.703   2.064 -2.3360  0.4196 -1.0959
  970MOL0     H33794  10.631   5.793   2.208 -0.0448  0.0849 -0.1968
  970MOL0     H33795  10.381   5.797   2.154 -1.2032  0.9376  3.0498
  970MOL0     H33796  10.378   5.626   2.208 -2.9268  1.7166  2.5808
  970MOL0     H33797  10.504   5.832   2.388 -0.0328  0.1379 -0.2326
  970MOL0     H33798  10.337   5.846   2.379 -1.0647 -1.0345  1.4841
  970MOL0     H33799  10.311   5.599   2.434 -1.2851  1.5189  1.5519
  970MOL0     H33800  10.492   5.596   2.444  0.6370  1.5416  0.5795
  970MOL0     H33801  10.472   5.787   2.613 -1.0997  0.3000  1.1294
  970MOL0     H33802  10.434   5.627   2.673 -1.3898 -0.1897  1.2708
  970MOL0     H33803  10.234   5.838   2.585 -1.3695  0.9475  2.2335
  970MOL0     H33804  10.192   5.667   2.625  0.2030  1.1623 -5.3406
  970MOL0     H33805  10.335   5.879   2.796  0.1419  0.2059  0.3091
  970MOL0     H33806  10.327   5.706   2.833 -0.9521 -0.9039 -0.4335
  970MOL0     H33807  10.111   5.903   2.837  0.3049 -0.1969 -2.6329
  970MOL0     H33808  10.074   5.729   2.857  2.1340 -1.0869 -2.1139
  970MOL0     H33809  10.158   5.611   3.105 -2.1487  0.3120 -2.3572
  970MOL0     H33810  10.275   5.597   3.333 -0.4449 -0.2942 -0.0607
  970MOL0     H33811  10.169   5.725   3.393 -1.0392  0.2356 -1.2311
  970MOL0     H33812  10.480   5.768   3.389  0.0208 -3.7008  0.3816
  970MOL0     H33813  10.356   5.860   3.469 -0.2837 -0.1731  0.2862
  970MOL0     H33814  10.327   5.668   3.639  0.2771  0.7895  1.2206
  970MOL0     H33815  10.431   5.561   3.524  2.5632  0.8659  0.8048
  970MOL0     H33816  10.571   5.809   3.603  0.1140  0.5682 -1.3624
  970MOL0     H33817  10.539   5.715   3.750 -2.3970  0.7186 -0.1207
  970MOL0     H33818  10.739   5.741   3.840  0.4008  0.6037  0.4180
  970MOL0     H33819  11.071   5.837   3.959 -0.4007  3.0125  3.1251
  970MOL0     H33820  10.897   5.855   3.989 -1.5969 -1.1584 -2.1801
  970MOL0     H33821  10.987   5.980   3.897 -1.4849  0.4777 -0.9227
  970MOL0     H33822  11.311   6.200   3.696  1.7819  3.4482 -1.9158
  970MOL0     H33823  11.537   6.282   3.657 -0.7869 -0.1745 -0.2708
  970MOL0     H33824  11.887   6.190   3.446 -0.7487 -0.0637 -0.2170
  970MOL0     H33825  11.823   6.023   3.433  0.9949  0.0100 -0.3859
  970MOL0     H33826  11.737   6.143   3.241  1.8590 -1.8355  0.9518
  970MOL0     H33827  11.605   6.139   3.361 -0.1777 -0.3455 -1.1019
  970MOL0     H33828  11.771   6.388   3.353 -0.7883  0.8055  1.3386
  970MOL0     H33829  11.630   6.365   3.441  1.5354  2.4823 -0.5612
  970MOL0     H33830  11.492   6.321   3.213 -0.3499  0.4807  3.2929
  970MOL0     H33831  11.648   6.355   3.141  0.5535  2.0478 -0.6672
  970MOL0     H33832  11.514   6.562   3.142  0.8477  1.7091 -0.3401
  970MOL0     H33833  11.458   6.538   3.307 -0.2582 -2.9546 -0.0445
  970MOL0     H33834  11.660   6.640   3.385  2.5906  0.2263  0.6242
  970MOL0     H33835  11.601   6.736   3.260  1.0098  0.2634  0.3910
  970MOL0     H33836  11.768   6.554   3.115 -0.6653  1.8492  0.2661
  970MOL0     H33837  11.858   6.585   3.277  2.1505  3.7114 -0.2218
  970MOL0     H33838  11.832   6.824   3.229 -0.2047 -0.0319 -0.8643
  970MOL0     H33839  11.764   6.787   3.071  1.2005  0.4338 -1.4544
  970MOL0     H33840  11.663   5.883   3.559  0.4684  0.2016  0.5443
  970MOL0     H33841  11.444   5.805   3.561 -0.0920 -0.6527 -1.5762
  970MOL0     H33842  11.071   5.779   3.479 -0.2812  2.0323 -0.4614
  970MOL0     H33843  10.843   5.689   3.425  0.4311 -3.1373 -0.4115
  970MOL0     H33844  10.796   5.538   2.429  0.8318  0.8580  0.8208
  970MOL0     H33845  11.036   5.507   2.431 -0.4110 -0.4004  0.0693
  970MOL0     H33846  11.482   5.784   2.294 -1.6773 -0.0964  1.8941
  970MOL0     H33847  11.721   5.728   2.290  0.6450  0.1957 -1.2212
  970MOL0     H33848  11.836   5.459   2.006 -1.1397 -0.1649  0.3512
  970MOL0     H33849  11.819   5.633   2.061 -2.4171  0.1916  2.0393
  970MOL0     H33850  12.059   5.583   1.999  0.5238  2.5845  0.6431
  970MOL0     H33851  12.072   5.455   2.105  1.8744  1.3156  1.8583
  970MOL0     H33852  12.029   5.604   2.304  1.6103  2.9785  2.1430
  970MOL0     H33853  12.171   5.639   2.207 -0.6266 -0.3611  0.0723
  970MOL0     H33854  11.946   5.823   2.268  2.5563 -1.0249  2.4418
  970MOL0     H33855  11.956   5.796   2.097  1.1457 -1.1292 -0.6182
  970MOL0     H33856  12.259   6.064   2.151 -1.7076  0.4055  0.0562
  970MOL0     H33857  11.643   5.331   2.209  1.9137  1.0890  0.5068
  970MOL0     H33858  11.353   5.296   2.131  1.6797  1.2699 -0.8125
  970MOL0     H33859  11.434   5.228   2.262 -2.1369 -1.5393  0.2923
  970MOL0     H33860  11.290   5.309   2.295 -0.1961 -5.8541 -0.0231
  971MOL0     O33861   5.111  10.877   5.432  0.1455 -0.2974 -0.6393
  971MOL0     C33862   5.056  10.791   5.366  0.2277 -0.1366 -0.2401
  971MOL0     O33863   5.079  10.664   5.389  0.6486  0.0243 -0.5239
  971MOL0     C33864   5.180  10.613   5.463 -0.6076  0.2231 -0.1178
  971MOL0     C33865   5.257  10.505   5.408  0.5330  0.0802  0.1122
  971MOL0     C33866   5.353  10.447   5.484  0.9728 -0.3715  0.5038
  971MOL0     C33867   5.397  10.495   5.592 -0.7852 -1.1235  0.4654
  971MOL0     O33868   5.497  10.448   5.666 -0.6825  0.1866  0.1529
  971MOL0     C33869   5.620  10.421   5.602 -0.0850 -0.1488 -0.1206
  971MOL0     C33870   5.709  10.386   5.722  0.6192  0.3928  0.4272
  971MOL0     C33871   5.683  10.241   5.766  0.6495 -0.5069 -0.1994
  971MOL0     C33872   5.760  10.202   5.888  0.6155  0.7198 -0.0554
  971MOL0     C33873   5.745  10.055   5.908 -0.4016 -0.1232  0.4832
  971MOL0     C33874   5.807  10.002   6.040 -0.2719 -0.5914 -0.1020
  971MOL0     C33875   5.829   9.854   6.051 -0.6016  0.0012 -0.6296
  971MOL0     C33876   5.952   9.791   5.980  0.5323 -1.2229  0.0365
  971MOL0     N33877   6.081   9.824   6.036 -0.4393 -0.0977 -0.0153
  971MOL0     C33878   6.137   9.781   6.158 -0.3667  0.2693 -0.2992
  971MOL0     C33879   6.271   9.837   6.161  0.1430  0.5858  0.8263
  971MOL0     C33880   6.393   9.791   6.248  0.7549  0.2328  0.2373
  971MOL0     C33881   6.482   9.694   6.167 -0.2423  0.7330 -1.7516
  971MOL0     C33882   6.477   9.552   6.228  0.3148 -0.7925 -0.0098
  971MOL0     C33883   6.563   9.458   6.133 -0.6616 -0.3215  0.1010
  971MOL0     O33884   6.538   9.470   5.989  0.6426  0.5636  0.5818
  971MOL0     C33885   6.409   9.437   5.939 -0.0536 -0.6599  0.3926
  971MOL0     C33886   6.339   9.529   5.862  0.8517 -0.0587 -0.9291
  971MOL0     C33887   6.213   9.495   5.811  0.6648  0.3533 -0.8634
  971MOL0     C33888   6.161   9.610   5.718 -0.0580 -0.1370 -0.2421
  971MOL0     C33889   6.154   9.377   5.827  1.0241  0.9060 -0.1331
  971MOL0     C33890   6.022   9.339   5.766  0.3371  0.3322 -0.6839
  971MOL0     O33891   6.006   9.206   5.733  0.2137 -0.2106  0.1526
  971MOL0     C33892   5.881   9.171   5.688 -0.2511  0.6036 -0.6178
  971MOL0     C33893   5.766   9.211   5.743 -1.0210 -0.2999 -0.4810
  971MOL0     C33894   5.648   9.163   5.689 -0.4027  0.6454 -0.5777
  971MOL0     C33895   5.644   9.075   5.581 -0.2291 -0.0137 -0.5112
  971MOL0     O33896   5.518   9.042   5.539  0.4380  0.6696 -0.2969
  971MOL0     C33897   5.520   8.947   5.432  1.1841  0.0747 -0.2322
  971MOL0     C33898   5.384   8.905   5.386  0.0146 -0.3069  1.4326
  971MOL0     C33899   5.303   9.000   5.296  0.6019 -0.7056 -0.2614
  971MOL0     C33900   5.166   8.927   5.272  0.1694  0.6741 -0.3133
  971MOL0     C33901   5.073   9.006   5.184  0.9335 -0.4068 -0.0027
  971MOL0     C33902   4.938   8.941   5.181  0.3022  0.1578  0.0356
  971MOL0     C33903   4.945   8.789   5.141  0.5607 -0.7330  0.2725
  971MOL0     C33904   4.807   8.741   5.109  0.2275 -0.4088 -0.0747
  971MOL0    Cl33905   4.824   8.573   5.057  0.7070  0.1309  0.0216
  971MOL0     C33906   5.770   9.020   5.532  0.5223  0.3343 -0.6013
  971MOL0     C33907   5.880   9.070   5.586  0.0056  0.4655 -0.5950
  971MOL0     O33908   5.936   9.429   5.742 -0.1986  0.7873 -0.4138
  971MOL0     C33909   6.228   9.274   5.905  0.5055  0.2929 -0.6910
  971MOL0     C33910   6.343   9.317   5.969  0.1799 -0.1989  0.6914
  971MOL0     N33911   6.283   9.917   6.047  0.2763  0.5813 -1.5784
  971MOL0     N33912   6.167   9.912   5.980 -0.0749 -0.4535  0.3982
  971MOL0     C33913   5.324  10.603   5.654  0.3813  0.0039 -0.4804
  971MOL0     C33914   5.215  10.657   5.584  0.0563  0.1418 -0.3787
  971MOL0     C33915   4.980  10.823   5.248  0.8716 -0.7096 -0.6387
  971MOL0     C33916   5.049  10.859   5.130  0.0848 -0.4468 -0.5674
  971MOL0     C33917   4.985  10.891   5.012  0.1477  0.3160  0.5500
  971MOL0     C33918   4.845  10.873   5.001 -0.0580 -0.3766  0.6800
  971MOL0     O33919   4.776  10.897   4.886  0.3512 -0.6466 -0.2060
  971MOL0     C33920   4.842  10.943   4.770  0.2541  0.0452 -0.2795
  971MOL0     C33921   4.738  10.959   4.671  0.7766 -0.9145 -0.6930
  971MOL0     C33922   4.790  11.000   4.536 -0.3632 -0.3674  0.0036
  971MOL0     C33923   4.697  11.039   4.426  0.6112  0.0337  0.4983
  971MOL0     C33924   4.754  11.034   4.291  0.2093  0.3363 -0.2647
  971MOL0     C33925   4.800  11.039   4.180 -0.6265  1.1115  0.1399
  971MOL0     C33926   4.775  10.817   5.110  0.3279  1.0288  0.8019
  971MOL0     C33927   4.843  10.786   5.226 -0.1924 -0.2870 -0.4878
  971MOL0     C33928   4.764  10.704   5.323 -0.1428 -0.8204 -0.3425
  971MOL0     H33929   5.230  10.471   5.308 -0.2344  1.7404 -0.2929
  971MOL0     H33930   5.384  10.345   5.465 -0.1388 -0.8265  1.0900
  971MOL0     H33931   5.654  10.513   5.554  0.0447 -1.5258 -2.8412
  971MOL0     H33932   5.617  10.344   5.524 -1.4319  3.1075 -3.5676
  971MOL0     H33933   5.812  10.396   5.686  0.2047  0.8700 -0.6859
  971MOL0     H33934   5.686  10.452   5.805 -1.5510 -1.9867  1.8454
  971MOL0     H33935   5.575  10.235   5.787  0.4219  0.3968 -1.0059
  971MOL0     H33936   5.690  10.183   5.674 -2.8611  1.2183 -1.7643
  971MOL0     H33937   5.862  10.236   5.867  0.1026  2.8786  0.6412
  971MOL0     H33938   5.718  10.265   5.968 -0.6843  0.6886 -0.6909
  971MOL0     H33939   5.804  10.012   5.827  1.3871  1.0444  1.1155
  971MOL0     H33940   5.637  10.039   5.901 -1.3252  4.9672 -2.5770
  971MOL0     H33941   5.901  10.053   6.060 -0.6982  0.8354 -1.5272
  971MOL0     H33942   5.738  10.042   6.114  0.9288 -0.6576  1.0841
  971MOL0     H33943   5.743   9.795   6.018  0.6917 -2.2317 -0.2798
  971MOL0     H33944   5.850   9.830   6.156  4.9560  1.8803 -0.9889
  971MOL0     H33945   5.943   9.682   5.979 -3.1766 -1.0409  0.3123
  971MOL0     H33946   5.946   9.824   5.876  0.7731 -1.3735 -0.0258
  971MOL0     H33947   6.094   9.709   6.227  1.9521 -1.5149 -0.5973
  971MOL0     H33948   6.361   9.752   6.345 -3.1491  0.6165 -0.7149
  971MOL0     H33949   6.448   9.884   6.266 -1.3444  1.4484  0.6553
  971MOL0     H33950   6.448   9.701   6.063 -0.9552  0.6632 -1.5217
  971MOL0     H33951   6.589   9.720   6.164  0.4869 -0.6890  3.0961
  971MOL0     H33952   6.517   9.564   6.329  0.0560 -1.2697  0.1492
  971MOL0     H33953   6.369   9.534   6.236 -0.5280  2.6785 -1.3652
  971MOL0     H33954   6.671   9.472   6.150 -0.4429 -0.2461 -1.2624
  971MOL0     H33955   6.543   9.358   6.171 -3.1249  0.8088  2.0366
  971MOL0     H33956   6.383   9.628   5.854  0.2713  0.4309  1.2512
  971MOL0     H33957   6.071   9.653   5.763  1.5190  2.1563  0.9815
  971MOL0     H33958   6.145   9.559   5.623 -2.1732  1.8480 -1.0450
  971MOL0     H33959   6.240   9.685   5.706 -0.3986  0.7405  2.3148
  971MOL0     H33960   5.762   9.282   5.825  2.1885 -0.8847  0.3041
  971MOL0     H33961   5.557   9.195   5.738  0.4086 -0.6907  1.9937
  971MOL0     H33962   5.578   9.007   5.361  0.8273  0.9846  0.2325
  971MOL0     H33963   5.569   8.855   5.466 -0.4315 -1.3014 -1.4869
  971MOL0     H33964   5.391   8.811   5.330 -0.2043  0.3553  0.2652
  971MOL0     H33965   5.331   8.879   5.478  1.0048 -0.7571  1.8943
  971MOL0     H33966   5.347   9.021   5.198 -2.4156  2.1409 -1.2153
  971MOL0     H33967   5.291   9.094   5.351 -1.5278 -0.2632 -1.3462
  971MOL0     H33968   5.126   8.890   5.367  1.1515 -2.2794 -0.9420
  971MOL0     H33969   5.195   8.836   5.218 -1.7011  1.0587 -2.0994
  971MOL0     H33970   5.062   9.106   5.228  0.3787  0.0699 -1.1909
  971MOL0     H33971   5.124   9.009   5.088  3.3935  3.6625  1.1877
  971MOL0     H33972   4.866   8.998   5.121 -1.5703 -0.3497  1.6862
  971MOL0     H33973   4.904   8.950   5.285  0.4845 -1.2184  0.2370
  971MOL0     H33974   4.972   8.727   5.226 -0.0311  0.9745  1.7635
  971MOL0     H33975   5.009   8.781   5.053  0.0589  0.0837 -0.1800
  971MOL0     H33976   4.758   8.803   5.032 -0.4396  1.0043  1.4138
  971MOL0     H33977   4.747   8.749   5.201  1.3537  1.2508  0.5662
  971MOL0     H33978   5.769   8.943   5.455 -1.0216 -3.0733  2.5526
  971MOL0     H33979   5.974   9.024   5.556  0.9879  0.2405  2.4556
  971MOL0     H33980   6.201   9.173   5.935  1.7788 -0.6913 -2.6519
  971MOL0     H33981   6.385   9.243   6.036  0.0858 -0.1664  0.7864
  971MOL0     H33982   5.334  10.642   5.755 -0.6761 -2.3957  0.6419
  971MOL0     H33983   5.170  10.745   5.628 -0.1940  0.2540 -0.8529
  971MOL0     H33984   5.156  10.874   5.138 -0.2519  2.6175 -0.5395
  971MOL0     H33985   5.038  10.913   4.920  1.0133 -0.2218  0.9105
  971MOL0     H33986   4.905  11.028   4.797  1.7393 -2.0701  3.7261
  971MOL0     H33987   4.920  10.874   4.735  2.0868  0.4237  2.6707
  971MOL0     H33988   4.668  11.038   4.701 -1.4358 -2.6602 -0.9565
  971MOL0     H33989   4.687  10.864   4.651  2.9500 -2.6192  1.2747
  971MOL0     H33990   4.852  11.085   4.564  2.0226 -1.7007 -0.8553
  971MOL0     H33991   4.871  10.934   4.502 -0.0768 -0.6385  1.1827
  971MOL0     H33992   4.654  11.140   4.422 -0.8990 -0.6207 -1.5363
  971MOL0     H33993   4.607  10.978   4.434 -0.1307  0.5340 -2.7338
  971MOL0     H33994   4.830  11.023   4.078  0.2628  0.5976  0.4736
  971MOL0     H33995   4.671  10.792   5.093  0.4295  1.2732 -0.2231
  971MOL0     H33996   4.664  10.685   5.283 -0.2701 -2.8938  0.8117
  971MOL0     H33997   4.805  10.604   5.337 -0.7704 -1.0688 -0.2501
  971MOL0     H33998   4.750  10.756   5.418 -0.5053 -0.6384 -0.4934
  972MOL0     O33999   5.009  10.443   8.796  0.0639  0.3624 -0.7815
  972MOL0     C34000   4.932  10.475   8.883  0.2094  0.0056 -0.8263
  972MOL0     O34001   4.916  10.607   8.928  0.5279 -0.8232 -0.3813
  972MOL0     C34002   5.012  10.702   8.896 -0.5199 -1.0467 -0.2554
  972MOL0     C34003   4.983  10.806   8.803  0.3480  1.0260  0.4233
  972MOL0     C34004   5.066  10.901   8.773 -0.6730 -1.1595 -0.0665
  972MOL0     C34005   5.196  10.899   8.829  1.0710 -1.8770  0.6411
  972MOL0     O34006   5.282  11.003   8.799 -0.0293 -0.6389  0.0438
  972MOL0     C34007   5.252  11.126   8.865 -0.2993  0.2378  0.5089
  972MOL0     C34008   5.382  11.194   8.916  0.2911 -0.1462  0.7422
  972MOL0     C34009   5.360  11.339   8.979 -0.0294  0.4170  0.7600
  972MOL0     C34010   5.476  11.391   9.046  0.1269 -0.8145  0.2386
  972MOL0     C34011   5.466  11.524   9.127 -0.4535  0.4402 -1.3115
  972MOL0     C34012   5.569  11.624   9.084 -0.9613  1.0693 -0.1064
  972MOL0     C34013   5.568  11.762   9.153 -0.4322 -0.8556 -0.6966
  972MOL0     C34014   5.440  11.842   9.133 -0.2255 -0.7549  0.1963
  972MOL0     N34015   5.457  11.972   9.205 -0.0323  0.5511  0.1107
  972MOL0     C34016   5.386  12.087   9.184 -0.3196 -0.5626  0.3651
  972MOL0     C34017   5.446  12.172   9.269 -0.3157  0.5005 -0.1100
  972MOL0     C34018   5.404  12.318   9.281 -0.2928  0.6313 -0.5142
  972MOL0     C34019   5.320  12.343   9.401 -0.7194  0.3905  0.6699
  972MOL0     C34020   5.260  12.484   9.404 -0.1803 -0.0105 -0.8287
  972MOL0     C34021   5.363  12.591   9.439 -0.3623  0.1752  1.5165
  972MOL0     O34022   5.417  12.573   9.566 -0.3679  0.5626 -0.1646
  972MOL0     C34023   5.337  12.595   9.672 -0.1311  0.3545 -0.7251
  972MOL0     C34024   5.393  12.572   9.798  0.3047 -0.1618 -0.1248
  972MOL0     C34025   5.326  12.581   9.916 -1.2473 -0.3844 -0.6101
  972MOL0     C34026   5.393  12.512  10.040  0.3824 -0.7929 -0.4787
  972MOL0     C34027   5.199  12.647   9.916 -0.6910 -1.2343 -0.5018
  972MOL0     C34028   5.124  12.674  10.045 -0.3122  0.8265  1.0330
  972MOL0     O34029   4.986  12.681  10.023  0.0809  0.1253 -0.5394
  972MOL0     C34030   4.898  12.763  10.098  0.3028  0.1261  1.2720
  972MOL0     C34031   4.768  12.723  10.083  0.3564 -0.3403  0.2407
  972MOL0     C34032   4.668  12.799  10.153 -0.2737 -0.8202  0.9061
  972MOL0     C34033   4.705  12.898  10.255 -0.1348 -0.1091 -0.6010
  972MOL0     O34034   4.616  12.969  10.332  0.0161  0.4500  0.3062
  972MOL0     C34035   4.477  12.935  10.332 -1.1132  0.5916 -0.2759
  972MOL0     C34036   4.458  12.814  10.426  0.4818 -0.6723  0.2575
  972MOL0     C34037   4.322  12.803  10.483 -0.2991  0.0765  0.8234
  972MOL0     C34038   4.305  12.908  10.598 -0.9390  0.2406 -0.2591
  972MOL0     C34039   4.162  12.963  10.593  0.0539 -0.1306 -0.7478
  972MOL0     C34040   4.143  13.110  10.664 -0.0137 -0.3960  0.5303
  972MOL0     C34041   4.129  13.108  10.815 -0.1869 -0.7238  1.0006
  972MOL0     C34042   4.088  13.247  10.874  0.9475 -0.2689 -0.0663
  972MOL0    Cl34043   4.231  13.358  10.837  0.1061 -0.4016  0.5338
  972MOL0     C34044   4.842  12.915  10.280 -0.7951  0.0054  0.2578
  972MOL0     C34045   4.938  12.843  10.201  0.5153  0.5517 -0.0454
  972MOL0     O34046   5.187  12.700  10.146 -0.5157 -0.0222  0.2962
  972MOL0     C34047   5.140  12.678   9.794  1.0746 -1.6770  0.4404
  972MOL0     C34048   5.200  12.642   9.673  0.2143  0.2471 -0.1488
  972MOL0     N34049   5.550  12.113   9.339  0.0036 -0.5285 -0.2313
  972MOL0     N34050   5.544  11.988   9.303 -0.0125 -1.0652  0.1135
  972MOL0     C34051   5.238  10.789   8.901  0.2108 -0.0863 -0.0260
  972MOL0     C34052   5.146  10.687   8.933  0.4162  0.2692  0.1434
  972MOL0     C34053   4.821  10.383   8.906 -0.8789 -0.1446  0.2862
  972MOL0     C34054   4.780  10.306   8.795 -0.9674  0.8000  0.9192
  972MOL0     C34055   4.695  10.195   8.806 -0.1326 -0.7376 -0.3438
  972MOL0     C34056   4.633  10.177   8.930  0.4512 -0.0616  0.1394
  972MOL0     O34057   4.538  10.090   8.956 -0.4977 -0.2236 -0.2713
  972MOL0     C34058   4.507  10.000   8.848  0.3387  0.6085 -0.5959
  972MOL0     C34059   4.399   9.909   8.914  0.0855  0.1710 -0.2320
  972MOL0     C34060   4.265   9.978   8.920  0.1296 -0.4175 -1.1297
  972MOL0     C34061   4.179   9.926   9.042  0.4432  0.3184 -0.7178
  972MOL0     C34062   4.077  10.021   9.086 -0.2894 -0.4158  0.4183
  972MOL0     C34063   3.993  10.078   9.142  0.6494  0.2545 -0.7656
  972MOL0     C34064   4.649  10.265   9.029  0.2986 -0.0192 -0.3213
  972MOL0     C34065   4.753  10.358   9.030  0.3743 -0.1108 -0.0664
  972MOL0     C34066   4.775  10.435   9.158  0.0364 -0.1058 -0.2367
  972MOL0     H34067   4.885  10.796   8.757  2.0952 -1.2378 -3.2747
  972MOL0     H34068   5.036  10.996   8.731 -0.2380 -0.1029  1.8648
  972MOL0     H34069   5.177  11.113   8.944 -1.1045  2.3597  0.1508
  972MOL0     H34070   5.206  11.201   8.800 -1.4079  1.2301  2.3628
  972MOL0     H34071   5.412  11.125   8.995  1.0360 -3.3203 -2.0904
  972MOL0     H34072   5.458  11.194   8.838  0.4162 -1.6475  0.8408
  972MOL0     H34073   5.312  11.412   8.913 -4.8941 -1.4036  1.7912
  972MOL0     H34074   5.282  11.330   9.056 -1.7027 -0.3440 -0.9362
  972MOL0     H34075   5.519  11.307   9.102 -0.9342  0.4518  3.1601
  972MOL0     H34076   5.541  11.414   8.962  0.1010  0.1247  0.4654
  972MOL0     H34077   5.482  11.514   9.234 -1.0970  0.4292 -1.2166
  972MOL0     H34078   5.365  11.565   9.121 -0.7504 -0.3316 -1.7277
  972MOL0     H34079   5.665  11.579   9.109 -1.0753  1.1581  0.5236
  972MOL0     H34080   5.578  11.631   8.975  0.5510 -3.2936 -0.4579
  972MOL0     H34081   5.658  11.822   9.138  0.2749 -1.4945  0.8471
  972MOL0     H34082   5.570  11.743   9.260 -1.9558 -1.1211 -0.6931
  972MOL0     H34083   5.436  11.853   9.024  4.6168  0.2771 -0.1018
  972MOL0     H34084   5.359  11.789   9.184  2.0473 -2.5420  2.1469
  972MOL0     H34085   5.300  12.104   9.120  1.0446 -1.7378 -1.9344
  972MOL0     H34086   5.335  12.347   9.201 -1.2901 -1.8787 -0.6670
  972MOL0     H34087   5.485  12.390   9.295 -2.6513  3.3269  0.5481
  972MOL0     H34088   5.251  12.259   9.394 -0.1204 -0.0589  0.1032
  972MOL0     H34089   5.382  12.321   9.489  1.1959  0.3599 -0.6368
  972MOL0     H34090   5.210  12.499   9.308 -1.0988 -0.5353 -0.4500
  972MOL0     H34091   5.187  12.479   9.486 -1.3077 -2.4997 -1.8772
  972MOL0     H34092   5.443  12.586   9.365 -1.3686 -1.6273  0.4974
  972MOL0     H34093   5.308  12.686   9.439 -0.0951  0.3395  2.0745
  972MOL0     H34094   5.491  12.528   9.807  0.3147  0.2606  2.9550
  972MOL0     H34095   5.427  12.411  10.014  1.5863 -1.2797  2.5503
  972MOL0     H34096   5.326  12.506  10.126  0.4356 -0.3667 -0.4099
  972MOL0     H34097   5.485  12.567  10.062 -0.0384  0.9260 -2.7244
  972MOL0     H34098   4.741  12.651  10.006 -1.1008  0.4167  0.0163
  972MOL0     H34099   4.567  12.761  10.138 -0.3872  0.0066 -0.6502
  972MOL0     H34100   4.419  13.020  10.369 -3.4627 -0.7104 -0.7354
  972MOL0     H34101   4.435  12.898  10.238 -3.0222  3.3008 -0.6159
  972MOL0     H34102   4.481  12.723  10.369 -1.7468 -1.3217  0.2839
  972MOL0     H34103   4.529  12.815  10.509 -0.7282  1.9802  1.3572
  972MOL0     H34104   4.309  12.703  10.525  2.2731 -0.6296  0.0780
  972MOL0     H34105   4.243  12.819  10.409 -2.1207  0.3597  2.7371
  972MOL0     H34106   4.380  12.986  10.590 -1.0829  0.4219  0.1038
  972MOL0     H34107   4.323  12.860  10.695  1.6070  0.9046 -0.3401
  972MOL0     H34108   4.123  12.976  10.491 -0.4639  0.3442 -0.4960
  972MOL0     H34109   4.096  12.899  10.652 -0.8605  1.7569  0.4061
  972MOL0     H34110   4.058  13.158  10.614  0.2765 -3.4560 -3.4402
  972MOL0     H34111   4.237  13.165  10.653  1.0957 -1.3914  3.9482
  972MOL0     H34112   4.229  13.077  10.849 -0.3601 -3.3846 -0.6314
  972MOL0     H34113   4.049  13.040  10.843 -2.1027  0.7048 -0.7109
  972MOL0     H34114   4.061  13.238  10.980 -0.8320 -1.8550 -0.6095
  972MOL0     H34115   3.997  13.279  10.822  0.2137  0.4016  1.5405
  972MOL0     H34116   4.873  12.988  10.355 -1.0180 -1.0789  1.4276
  972MOL0     H34117   5.042  12.864  10.225 -0.5045  3.9155  2.0791
  972MOL0     H34118   5.044  12.727   9.781  1.1082 -2.3755 -5.1819
  972MOL0     H34119   5.165  12.670   9.575  2.6142  3.1485 -0.3126
  972MOL0     H34120   5.343  10.778   8.925 -0.4502 -2.6120  2.1125
  972MOL0     H34121   5.170  10.599   8.991 -1.4960 -0.1059  0.4447
  972MOL0     H34122   4.819  10.322   8.695  1.7505 -2.0598  1.3409
  972MOL0     H34123   4.674  10.127   8.723 -2.5775 -0.1789 -0.2532
  972MOL0     H34124   4.468  10.063   8.767 -3.5524 -2.2129 -1.1858
  972MOL0     H34125   4.595   9.939   8.827 -0.1900 -1.3658  2.3192
  972MOL0     H34126   4.428   9.888   9.017  3.0128  1.3095 -0.7078
  972MOL0     H34127   4.410   9.816   8.857  1.5702  0.3422 -0.2745
  972MOL0     H34128   4.285  10.084   8.938  4.7853 -1.2604 -0.2252
  972MOL0     H34129   4.218   9.964   8.822  2.3283 -2.9912 -1.9280
  972MOL0     H34130   4.253   9.906   9.120  2.3226 -1.0417 -2.7281
  972MOL0     H34131   4.133   9.831   9.013 -0.6878 -0.4514  3.1180
  972MOL0     H34132   3.912  10.122   9.197  2.4800 -0.8339  3.1596
  972MOL0     H34133   4.592  10.249   9.120  4.0522  0.9268  2.4170
  972MOL0     H34134   4.750  10.365   9.238 -1.3638  2.4543  1.7110
  972MOL0     H34135   4.873  10.480   9.175 -0.2052 -0.6225  3.3001
  972MOL0     H34136   4.705  10.520   9.160  0.7976  0.5174  1.5940
  973MOL0     O34137  10.607  10.243   5.124 -0.4976 -0.2065  0.1618
  973MOL0     C34138  10.549  10.312   5.206  0.2883 -0.4869 -0.2394
  973MOL0     O34139  10.508  10.447   5.186  0.1298 -0.8139  0.4978
  973MOL0     C34140  10.513  10.509   5.062  0.3211  0.5527 -0.2634
  973MOL0     C34141  10.637  10.503   5.002  0.7002  0.1968 -0.5141
  973MOL0     C34142  10.660  10.566   4.883 -0.3991 -0.3465 -0.8915
  973MOL0     C34143  10.552  10.614   4.809  0.3683 -0.3276  0.0977
  973MOL0     O34144  10.565  10.650   4.677 -0.0410  0.1914  0.5839
  973MOL0     C34145  10.679  10.619   4.595  0.4481 -1.0417  0.2726
  973MOL0     C34146  10.648  10.586   4.449  0.6684 -0.1345  1.1511
  973MOL0     C34147  10.587  10.448   4.441  1.0024  0.0365 -0.3855
  973MOL0     C34148  10.612  10.369   4.311  0.1968 -0.2244 -0.0829
  973MOL0     C34149  10.638  10.230   4.356  0.8788  0.1449  0.4147
  973MOL0     C34150  10.662  10.147   4.229 -0.3372  0.0500 -1.0225
  973MOL0     C34151  10.529  10.109   4.179  0.3677 -0.5496  0.7104
  973MOL0     C34152  10.534  10.011   4.068  0.3202  0.1194  0.0444
  973MOL0     N34153  10.420  10.011   3.980  0.2799  0.5694  0.7847
  973MOL0     C34154  10.297   9.990   4.031 -0.0209  0.8912 -0.5153
  973MOL0     C34155  10.215  10.028   3.931  0.7626  0.2830  0.2516
  973MOL0     C34156  10.070  10.054   3.929  0.1481  0.2354 -0.5862
  973MOL0     C34157   9.998   9.976   3.826 -1.1593  0.1992  0.2712
  973MOL0     C34158   9.987   9.830   3.869  0.0736  0.0890  0.4759
  973MOL0     C34159   9.937   9.735   3.764 -0.0982 -0.0335 -0.2044
  973MOL0     O34160  10.015   9.755   3.647  0.0352 -0.6757 -0.3768
  973MOL0     C34161  10.013   9.664   3.548  0.3400 -0.0666 -0.9521
  973MOL0     C34162   9.927   9.558   3.536  0.3257  0.1288 -0.7665
  973MOL0     C34163   9.933   9.472   3.422  0.3966  1.1327  1.3187
  973MOL0     C34164   9.826   9.362   3.405 -0.3930  0.2067  0.5097
  973MOL0     C34165  10.041   9.490   3.332 -0.3001  0.4189  0.0567
  973MOL0     C34166  10.069   9.397   3.215  0.1268  0.7610 -0.8679
  973MOL0     O34167  10.129   9.451   3.103  0.4099  0.3880 -0.9537
  973MOL0     C34168  10.178   9.376   2.994  1.6816 -0.5577 -0.1873
  973MOL0     C34169  10.144   9.413   2.872  0.9551 -0.4766  0.5754
  973MOL0     C34170  10.188   9.345   2.760  0.1783  0.6548 -0.2902
  973MOL0     C34171  10.262   9.229   2.770  0.0180  0.3685 -0.1821
  973MOL0     O34172  10.284   9.171   2.647 -0.0606  0.5175 -0.0870
  973MOL0     C34173  10.429   9.167   2.609  0.7597  0.4594  0.1880
  973MOL0     C34174  10.442   9.091   2.469  0.7276  0.3082  0.8297
  973MOL0     C34175  10.419   8.950   2.480  0.6357  0.3435 -0.0357
  973MOL0     C34176  10.275   8.906   2.451  0.0504 -0.0357  0.7902
  973MOL0     C34177  10.262   8.749   2.447 -0.5495  0.8544 -1.2232
  973MOL0     C34178  10.122   8.720   2.383 -0.0535 -0.7370 -0.5558
  973MOL0     C34179  10.113   8.585   2.329  0.0448 -0.1263  0.3533
  973MOL0     C34180  10.014   8.588   2.220  0.2623  0.5075  1.3569
  973MOL0    Cl34181  10.025   8.411   2.160  0.3635 -0.1122 -0.2023
  973MOL0     C34182  10.296   9.182   2.895 -0.1910  0.3197 -0.6463
  973MOL0     C34183  10.257   9.253   3.010 -0.2369 -0.4167  0.5254
  973MOL0     O34184  10.046   9.274   3.225 -0.4261 -0.4680 -1.1648
  973MOL0     C34185  10.118   9.601   3.346 -1.0620 -0.8070  0.0726
  973MOL0     C34186  10.102   9.696   3.453 -0.1668  0.1721  0.8577
  973MOL0     N34187  10.293  10.054   3.817  0.2607 -0.1496 -0.2735
  973MOL0     N34188  10.409  10.040   3.849  0.0615  0.8692  0.3281
  973MOL0     C34189  10.429  10.624   4.872 -0.2057  0.0051  0.1322
  973MOL0     C34190  10.404  10.574   5.001 -0.6809 -1.3092 -0.0476
  973MOL0     C34191  10.521  10.245   5.335 -0.9677 -0.1128 -0.1515
  973MOL0     C34192  10.410  10.275   5.414  0.1925  0.6735  0.3781
  973MOL0     C34193  10.367  10.207   5.526 -0.3320  0.7513 -0.1488
  973MOL0     C34194  10.445  10.112   5.574 -0.4665 -0.4284 -0.2772
  973MOL0     O34195  10.417  10.060   5.700 -0.0116  0.5273 -0.2373
  973MOL0     C34196  10.418   9.919   5.711 -0.1500 -0.7675  0.1716
  973MOL0     C34197  10.376   9.874   5.859  0.5655 -1.1727 -0.4266
  973MOL0     C34198  10.226   9.887   5.887 -0.0530 -0.3701  0.7178
  973MOL0     C34199  10.189   9.824   6.018 -0.0712  0.5536  0.0705
  973MOL0     C34200  10.049   9.807   6.049  0.1755  0.0935  1.2642
  973MOL0     C34201   9.924   9.788   6.069 -0.5015 -0.1406  0.3784
  973MOL0     C34202  10.564  10.081   5.502 -0.2217 -0.4722  0.3291
  973MOL0     C34203  10.606  10.143   5.387  0.2032  0.5509  1.1328
  973MOL0     C34204  10.740  10.095   5.331  0.6313 -0.3626  0.7955
  973MOL0     H34205  10.724  10.456   5.047 -0.2484 -0.4035  0.7889
  973MOL0     H34206  10.760  10.561   4.841  0.4917  1.0804  0.9520
  973MOL0     H34207  10.734  10.537   4.640 -0.9454 -2.2172 -0.0944
  973MOL0     H34208  10.742  10.709   4.587 -0.7040 -0.3565 -1.9294
  973MOL0     H34209  10.581  10.662   4.409  1.8337  0.6725  0.6840
  973MOL0     H34210  10.737  10.586   4.385  0.6740 -1.4958  1.1221
  973MOL0     H34211  10.610  10.390   4.531 -5.5436 -2.6773  0.0521
  973MOL0     H34212  10.478  10.456   4.446  0.8699  0.0497 -2.2892
  973MOL0     H34213  10.524  10.354   4.249  0.3068 -3.9442  0.4214
  973MOL0     H34214  10.704  10.395   4.258 -0.4037 -0.7264 -1.4224
  973MOL0     H34215  10.558  10.192   4.421 -2.5031  3.0252 -1.7192
  973MOL0     H34216  10.725  10.233   4.423 -0.2365 -0.9685  2.0004
  973MOL0     H34217  10.730  10.205   4.166 -0.2486  2.3732  1.0558
  973MOL0     H34218  10.705  10.051   4.259  1.0821  1.2804  1.1106
  973MOL0     H34219  10.484  10.197   4.133  4.0295 -0.0632 -2.3588
  973MOL0     H34220  10.474  10.060   4.261  0.7648 -2.4515 -0.0977
  973MOL0     H34221  10.620  10.041   4.007  1.6375  0.1371  1.8407
  973MOL0     H34222  10.553   9.908   4.100 -2.0247  0.3606  2.5635
  973MOL0     H34223  10.279   9.976   4.137  1.0365  3.9765  0.1679
  973MOL0     H34224  10.058  10.161   3.911  3.3170  1.4874  3.3934
  973MOL0     H34225  10.025  10.030   4.026  4.1697 -1.2653  1.1152
  973MOL0     H34226   9.898  10.013   3.800 -1.0045 -0.3922 -1.2928
  973MOL0     H34227  10.055   9.977   3.733  0.1414 -1.3639  0.9952
  973MOL0     H34228  10.087   9.795   3.894  0.3662 -1.7834 -2.8401
  973MOL0     H34229   9.916   9.814   3.952 -2.1390 -1.1609 -1.5276
  973MOL0     H34230   9.959   9.634   3.802 -0.5163  0.4266  1.3417
  973MOL0     H34231   9.830   9.746   3.745 -0.3001  0.2093  0.9711
  973MOL0     H34232   9.852   9.542   3.613  0.8391 -0.6450 -0.4101
  973MOL0     H34233   9.858   9.265   3.446 -0.4950  0.0475  0.2127
  973MOL0     H34234   9.799   9.354   3.300 -1.5101 -2.0694  0.8978
  973MOL0     H34235   9.731   9.367   3.459 -2.0649 -1.0125 -2.1229
  973MOL0     H34236  10.074   9.496   2.868  1.3430 -0.1839 -1.4864
  973MOL0     H34237  10.167   9.382   2.660  2.8099  2.0561 -0.4085
  973MOL0     H34238  10.461   9.269   2.586  1.4073  0.0414 -0.7777
  973MOL0     H34239  10.500   9.121   2.678  2.1295  1.0829 -0.7635
  973MOL0     H34240  10.398   9.144   2.384  0.8103  0.1627  0.6952
  973MOL0     H34241  10.547   9.109   2.447  1.6650 -1.0221  3.7446
  973MOL0     H34242  10.450   8.922   2.581 -1.4582 -2.5171 -0.0698
  973MOL0     H34243  10.494   8.908   2.412 -0.5875 -2.0152 -0.0484
  973MOL0     H34244  10.248   8.929   2.348 -1.7656  1.7966  1.6162
  973MOL0     H34245  10.205   8.954   2.520 -3.5477 -1.8491 -1.3351
  973MOL0     H34246  10.341   8.699   2.390  2.2417  3.1585  0.3436
  973MOL0     H34247  10.272   8.698   2.544  2.9909  0.7303 -1.5258
  973MOL0     H34248  10.111   8.799   2.308 -1.5165  0.8950  1.2507
  973MOL0     H34249  10.056   8.744   2.467  0.1789  0.3678 -0.6744
  973MOL0     H34250  10.069   8.517   2.403  0.8259 -4.2051 -2.5882
  973MOL0     H34251  10.212   8.549   2.304 -0.3887 -0.3985 -1.0583
  973MOL0     H34252  10.045   8.660   2.143  0.4550 -0.9269  0.0364
  973MOL0     H34253   9.912   8.613   2.250 -0.4349  2.8225 -2.2563
  973MOL0     H34254  10.364   9.097   2.900  3.4410  3.0714  2.0637
  973MOL0     H34255  10.275   9.219   3.112  3.5353  0.5970  0.3452
  973MOL0     H34256  10.194   9.619   3.271 -2.6649 -0.4152 -1.5466
  973MOL0     H34257  10.159   9.788   3.462 -1.4603  1.3099 -1.7701
  973MOL0     H34258  10.348  10.667   4.814 -0.1747  0.2149  0.2426
  973MOL0     H34259  10.297  10.574   5.021 -1.0378  1.3658 -1.4727
  973MOL0     H34260  10.340  10.351   5.381 -0.5782 -0.5101 -0.8072
  973MOL0     H34261  10.274  10.244   5.568 -0.9272 -1.1601  0.3107
  973MOL0     H34262  10.352   9.870   5.639 -0.5337 -2.4364  1.6095
  973MOL0     H34263  10.521   9.890   5.691  0.7626  2.9483 -1.4038
  973MOL0     H34264  10.421   9.944   5.930 -1.9420  0.5797 -0.4797
  973MOL0     H34265  10.412   9.775   5.891 -0.3000 -2.0599 -2.1090
  973MOL0     H34266  10.210   9.995   5.896  2.0207  0.2322 -1.7811
  973MOL0     H34267  10.170   9.849   5.801 -1.0243 -0.1916  1.2594
  973MOL0     H34268  10.232   9.873   6.106  2.9157 -2.1361  0.3372
  973MOL0     H34269  10.235   9.726   6.035 -1.0733  0.1673  0.6162
  973MOL0     H34270   9.828   9.769   6.112  0.2094 -0.7525  1.7594
  973MOL0     H34271  10.630  10.018   5.561  1.3324  1.0963  0.3392
  973MOL0     H34272  10.772  10.018   5.403 -2.8780 -0.7909  2.1264
  973MOL0     H34273  10.720  10.043   5.237 -1.3636 -0.9372  1.4855
  973MOL0     H34274  10.817  10.172   5.333  1.8818 -1.5838  0.6401
  974MOL0     O34275  10.815   2.619   4.106 -0.3766 -0.7171  0.0740
  974MOL0     C34276  10.904   2.535   4.136  0.5108 -0.2284 -0.3264
  974MOL0     O34277  11.024   2.571   4.193  0.1203  0.1686  0.4609
  974MOL0     C34278  11.072   2.700   4.211  0.2902 -0.0174  0.0072
  974MOL0     C34279  10.992   2.822   4.249 -1.0059 -0.4980  0.2005
  974MOL0     C34280  11.054   2.950   4.265  0.1819  0.6013 -0.4757
  974MOL0     C34281  11.193   2.960   4.261 -0.3832  0.3646  0.0111
  974MOL0     O34282  11.270   3.073   4.270  0.6366 -0.0664  0.6687
  974MOL0     C34283  11.201   3.192   4.307 -0.0952  0.7432  0.9010
  974MOL0     C34284  11.298   3.309   4.325  0.6498 -0.6909 -0.6785
  974MOL0     C34285  11.228   3.446   4.302 -0.3379  0.5181 -0.5343
  974MOL0     C34286  11.347   3.546   4.302  0.3502  0.5119  0.1019
  974MOL0     C34287  11.309   3.685   4.323 -0.0381 -0.6352 -0.6861
  974MOL0     C34288  11.430   3.774   4.291 -0.2865 -0.4393  0.8224
  974MOL0     C34289  11.408   3.930   4.317  0.0231 -1.0471 -0.2795
  974MOL0     C34290  11.543   4.010   4.296 -0.5171  0.1202  0.1998
  974MOL0     N34291  11.665   3.949   4.353 -0.0344 -0.7310 -0.1561
  974MOL0     C34292  11.710   3.974   4.475  0.2017  0.0195 -0.4244
  974MOL0     C34293  11.832   3.906   4.479  0.0931 -1.1275  0.6305
  974MOL0     C34294  11.904   3.899   4.595  0.0135 -1.2056  0.4245
  974MOL0     C34295  11.843   3.782   4.692 -0.1889 -0.5251  0.7533
  974MOL0     C34296  11.901   3.810   4.829  0.3384  0.1236  0.5651
  974MOL0     C34297  11.882   3.687   4.910  0.0569 -1.0848  1.0725
  974MOL0     O34298  11.941   3.565   4.857 -0.8315 -0.0637  0.6773
  974MOL0     C34299  11.916   3.452   4.930  0.7655 -0.6441 -0.4237
  974MOL0     C34300  11.980   3.337   4.883  0.5098 -0.6488  0.1171
  974MOL0     C34301  11.987   3.213   4.955 -0.0922 -0.0181  0.6250
  974MOL0     C34302  12.067   3.101   4.885 -0.7853  1.2923 -0.0027
  974MOL0     C34303  11.899   3.199   5.066  0.5189 -0.3148 -0.4861
  974MOL0     C34304  11.888   3.067   5.133 -0.2650 -0.2346  0.3258
  974MOL0     O34305  11.863   3.072   5.266 -0.7975  0.0512  0.2660
  974MOL0     C34306  11.807   2.974   5.339  0.4727 -1.4132  0.1492
  974MOL0     C34307  11.846   2.973   5.476 -0.0903  0.9415  0.8467
  974MOL0     C34308  11.778   2.883   5.564 -1.3124  0.7018 -0.1933
  974MOL0     C34309  11.672   2.799   5.520 -1.5272  0.1983 -0.2701
  974MOL0     O34310  11.601   2.708   5.593 -0.3839 -0.7067  0.0657
  974MOL0     C34311  11.603   2.735   5.735  0.2318  0.3531 -0.2809
  974MOL0     C34312  11.701   2.641   5.811 -0.2805  0.5516  0.0222
  974MOL0     C34313  11.702   2.667   5.960  0.6760 -0.0310  0.4914
  974MOL0     C34314  11.572   2.649   6.029 -0.8458  0.1130  0.3214
  974MOL0     C34315  11.595   2.587   6.161  0.3245 -0.2353 -0.5673
  974MOL0     C34316  11.452   2.575   6.227 -0.9872 -0.1200 -0.0036
  974MOL0     C34317  11.347   2.482   6.155 -0.2846 -0.3066 -0.2664
  974MOL0     C34318  11.245   2.427   6.256 -0.8567 -0.0337  0.4726
  974MOL0    Cl34319  11.164   2.575   6.316  0.2640 -0.4248  0.2112
  974MOL0     C34320  11.627   2.814   5.382  0.0873  0.6862 -0.1472
  974MOL0     C34321  11.686   2.905   5.299  0.4019 -0.4684 -0.1452
  974MOL0     O34322  11.901   2.966   5.063 -0.0703  0.3673  0.2729
  974MOL0     C34323  11.844   3.320   5.123  0.3587  0.6202 -0.6672
  974MOL0     C34324  11.857   3.443   5.056  0.1450  0.1381 -0.2185
  974MOL0     N34325  11.851   3.855   4.351  0.4775 -0.5245 -0.0571
  974MOL0     N34326  11.748   3.874   4.275  0.1616  0.5743  0.3837
  974MOL0     C34327  11.276   2.845   4.239 -0.6772 -0.2374  0.3985
  974MOL0     C34328  11.216   2.721   4.209  1.0072  0.4811 -0.6645
  974MOL0     C34329  10.899   2.387   4.112 -1.1359 -0.3889 -0.2095
  974MOL0     C34330  10.951   2.302   4.207  0.0665 -0.3430  0.4506
  974MOL0     C34331  10.923   2.169   4.184 -0.2406 -0.3568  0.0409
  974MOL0     C34332  10.861   2.107   4.083 -0.2982  0.6613  0.2009
  974MOL0     O34333  10.869   1.974   4.092 -0.4498  0.8041  0.6430
  974MOL0     C34334  10.843   1.903   3.968 -0.0794  0.4944 -0.0735
  974MOL0     C34335  10.983   1.897   3.896  0.8225  1.0118  0.3204
  974MOL0     C34336  11.090   1.846   3.990  0.4276  0.7426 -1.2310
  974MOL0     C34337  11.100   1.692   4.000  0.3645 -0.3317 -0.4115
  974MOL0     C34338  11.204   1.660   4.086 -1.1323  0.7479 -0.0451
  974MOL0     C34339  11.282   1.614   4.170  0.4028 -0.2318 -0.4157
  974MOL0     C34340  10.808   2.190   3.990  0.4342 -0.3806  0.3762
  974MOL0     C34341  10.828   2.330   4.001  0.0915 -0.1265 -0.2997
  974MOL0     C34342  10.775   2.423   3.886  0.7100  0.5691 -1.0829
  974MOL0     H34343  10.884   2.811   4.252 -0.9183 -1.2695  2.5319
  974MOL0     H34344  10.984   3.033   4.268  0.2345  0.6204  1.0463
  974MOL0     H34345  11.136   3.185   4.395  1.1531 -1.9441  1.7225
  974MOL0     H34346  11.132   3.218   4.227  0.4478  3.5361  1.2341
  974MOL0     H34347  11.345   3.296   4.423  3.1366 -0.9747 -1.8457
  974MOL0     H34348  11.370   3.305   4.243 -1.6429 -0.2556 -2.8449
  974MOL0     H34349  11.179   3.457   4.205  0.8961  1.0273 -1.1217
  974MOL0     H34350  11.166   3.458   4.391  0.7170 -2.0696  0.6540
  974MOL0     H34351  11.428   3.514   4.368  0.6017  0.1908 -0.3561
  974MOL0     H34352  11.389   3.534   4.201 -2.8532 -1.0875 -1.1997
  974MOL0     H34353  11.282   3.711   4.425  0.7222 -2.3105 -0.0284
  974MOL0     H34354  11.227   3.712   4.255  0.7123  0.3784 -1.2230
  974MOL0     H34355  11.516   3.739   4.349 -2.2514 -2.2824  2.8159
  974MOL0     H34356  11.450   3.756   4.185 -1.4757  0.3015  0.4448
  974MOL0     H34357  11.357   3.957   4.410 -0.3361  3.9476 -1.6288
  974MOL0     H34358  11.328   3.968   4.253 -3.2606 -3.3191  2.1818
  974MOL0     H34359  11.562   4.016   4.189 -1.3305  0.1332  0.0499
  974MOL0     H34360  11.526   4.113   4.329  0.3668 -0.0375  1.2216
  974MOL0     H34361  11.655   4.026   4.553 -1.6974  3.6050 -3.8002
  974MOL0     H34362  11.903   3.993   4.652  2.9505 -2.5846  3.0326
  974MOL0     H34363  12.002   3.872   4.555  0.5908 -0.4406  1.2764
  974MOL0     H34364  11.734   3.775   4.689 -0.2366 -0.0756  1.4263
  974MOL0     H34365  11.889   3.688   4.658  0.2570 -0.8006  2.0512
  974MOL0     H34366  12.009   3.827   4.825  0.1835  1.8573  2.2837
  974MOL0     H34367  11.844   3.897   4.862  1.7328  1.2390  0.1278
  974MOL0     H34368  11.913   3.714   5.011 -2.5852  3.8176  0.8628
  974MOL0     H34369  11.773   3.680   4.904 -0.1457  1.5844 -3.6232
  974MOL0     H34370  12.022   3.339   4.783  2.4627 -0.3344  0.9044
  974MOL0     H34371  12.142   3.146   4.819  1.2048 -2.4915 -0.6557
  974MOL0     H34372  12.012   3.025   4.829  0.8871 -0.7806  1.0139
  974MOL0     H34373  12.130   3.042   4.952 -0.0782  0.6496 -1.1867
  974MOL0     H34374  11.926   3.042   5.501  0.1091  1.1439 -0.2994
  974MOL0     H34375  11.808   2.870   5.668  1.8460 -1.6494 -1.2127
  974MOL0     H34376  11.605   2.840   5.765 -2.4579 -0.1464  2.1593
  974MOL0     H34377  11.508   2.710   5.784  1.5177  0.4245  2.4217
  974MOL0     H34378  11.663   2.540   5.791 -2.7083  1.5642 -0.9533
  974MOL0     H34379  11.798   2.651   5.762 -0.5931 -0.5887 -0.8858
  974MOL0     H34380  11.736   2.766   5.992 -1.1968  0.8782 -0.1978
  974MOL0     H34381  11.776   2.600   6.004  1.1397  0.5242  0.5552
  974MOL0     H34382  11.490   2.591   5.987 -0.4816  0.8289 -1.4521
  974MOL0     H34383  11.537   2.753   6.037 -0.3496  0.4984 -1.9687
  974MOL0     H34384  11.632   2.484   6.154  0.6413 -0.1628  0.0075
  974MOL0     H34385  11.663   2.646   6.222  0.2797 -0.3167 -0.4369
  974MOL0     H34386  11.417   2.677   6.247  2.4205  0.9533  1.1681
  974MOL0     H34387  11.465   2.529   6.325 -0.4895 -0.0676 -0.0413
  974MOL0     H34388  11.394   2.401   6.099 -1.1671 -1.4067  0.5559
  974MOL0     H34389  11.304   2.559   6.089  0.0265  0.0874 -0.0131
  974MOL0     H34390  11.292   2.368   6.335  2.2128  1.7681  0.1671
  974MOL0     H34391  11.169   2.368   6.204  1.8150 -1.6790 -1.8230
  974MOL0     H34392  11.536   2.769   5.344  0.9982 -0.6529 -0.8382
  974MOL0     H34393  11.640   2.908   5.200 -1.4194 -1.6294  0.6055
  974MOL0     H34394  11.815   3.306   5.227 -3.2614  1.9375 -1.3457
  974MOL0     H34395  11.804   3.525   5.104 -0.0838 -0.6439  0.8885
  974MOL0     H34396  11.384   2.857   4.247 -0.2025 -2.6556 -1.3313
  974MOL0     H34397  11.284   2.638   4.194  1.7073  1.0263 -0.5495
  974MOL0     H34398  11.019   2.340   4.282 -1.0387  1.0123  0.8146
  974MOL0     H34399  10.946   2.108   4.271  0.5355 -1.6422 -1.0300
  974MOL0     H34400  10.814   1.799   3.988  1.4862  0.2371  1.1223
  974MOL0     H34401  10.762   1.931   3.900 -0.8254 -0.5758  0.3390
  974MOL0     H34402  11.000   2.001   3.868 -1.9348  2.5513  3.6321
  974MOL0     H34403  10.966   1.834   3.808 -1.6606  1.2590  0.5474
  974MOL0     H34404  11.185   1.889   3.955  1.2990 -0.0659  0.0743
  974MOL0     H34405  11.083   1.886   4.092 -0.4152 -2.8033  0.2197
  974MOL0     H34406  11.111   1.652   3.899 -2.5125  0.0692 -0.9892
  974MOL0     H34407  11.004   1.653   4.037  0.2045 -1.5317 -1.9885
  974MOL0     H34408  11.340   1.546   4.228 -0.7474 -3.3108 -2.5948
  974MOL0     H34409  10.751   2.150   3.906  2.7248  1.4768 -2.2818
  974MOL0     H34410  10.750   2.348   3.810  4.0070 -0.7379 -1.0393
  974MOL0     H34411  10.686   2.485   3.902 -0.5029 -0.6986 -2.5462
  974MOL0     H34412  10.846   2.485   3.831  1.2520  1.4905  0.5814
  975MOL0     O34413   6.047   8.164   8.046  0.1656  0.5930  0.1397
  975MOL0     C34414   5.987   8.259   8.097 -0.1784 -0.9763  0.1437
  975MOL0     O34415   5.963   8.384   8.034 -0.3004  0.0274 -0.2627
  975MOL0     C34416   5.994   8.411   7.903  0.4779  0.6382  0.8714
  975MOL0     C34417   6.066   8.328   7.812  0.9089  0.2179  0.0943
  975MOL0     C34418   6.108   8.379   7.688  0.1558 -0.0064  0.5001
  975MOL0     C34419   6.059   8.495   7.634  0.3305  0.4551  0.6243
  975MOL0     O34420   6.079   8.539   7.508 -0.0879 -0.6090 -0.4431
  975MOL0     C34421   6.073   8.439   7.405 -0.2524  0.1981 -0.3043
  975MOL0     C34422   6.052   8.516   7.274  0.4603 -0.2500  0.4061
  975MOL0     C34423   5.922   8.589   7.275 -0.3668 -0.6753  0.5208
  975MOL0     C34424   5.824   8.560   7.150  0.2772  0.3063 -0.0782
  975MOL0     C34425   5.743   8.429   7.167 -0.2660  0.9824 -0.3275
  975MOL0     C34426   5.704   8.372   7.039 -0.3681  0.2722 -0.5790
  975MOL0     C34427   5.601   8.264   7.066 -0.1311  0.9075 -0.1263
  975MOL0     C34428   5.674   8.132   7.071  0.5904 -0.6041 -0.4153
  975MOL0     N34429   5.738   8.094   6.941 -0.1735  0.5141  0.6450
  975MOL0     C34430   5.666   8.092   6.825  0.0964  0.2300 -0.2972
  975MOL0     C34431   5.771   8.081   6.730  0.5080  0.5257  0.2095
  975MOL0     C34432   5.775   8.064   6.584 -0.5119  0.3688  0.7209
  975MOL0     C34433   5.729   7.919   6.548 -0.5191  0.5807 -0.3058
  975MOL0     C34434   5.739   7.872   6.412  0.0615 -0.1489  0.2422
  975MOL0     C34435   5.869   7.781   6.392 -1.1090 -0.5214  1.2635
  975MOL0     O34436   5.984   7.862   6.431  0.6175 -0.6537 -0.1031
  975MOL0     C34437   6.107   7.807   6.447 -0.6051 -0.0614  0.0154
  975MOL0     C34438   6.201   7.883   6.517 -1.0590 -0.7507 -0.0847
  975MOL0     C34439   6.323   7.833   6.548 -0.1549 -0.0950  0.0258
  975MOL0     C34440   6.412   7.938   6.623 -0.1452 -0.2390 -0.3476
  975MOL0     C34441   6.361   7.700   6.508  0.0874  0.0638  1.0956
  975MOL0     C34442   6.485   7.640   6.545  0.0293  0.5237  0.3483
  975MOL0     O34443   6.564   7.571   6.456 -0.6439 -0.9167  0.2879
  975MOL0     C34444   6.668   7.495   6.501  0.0653 -0.3252  0.6430
  975MOL0     C34445   6.647   7.398   6.590  0.0038 -1.3338  0.0035
  975MOL0     C34446   6.755   7.340   6.650 -0.5096  0.1528  0.6289
  975MOL0     C34447   6.885   7.362   6.605 -0.6460 -0.1720  0.1400
  975MOL0     O34448   6.989   7.291   6.658 -0.6207 -0.6951 -0.2988
  975MOL0     C34449   6.984   7.149   6.631  1.1170 -0.6568  0.1884
  975MOL0     C34450   6.978   7.079   6.773 -0.2007  0.1922 -0.0091
  975MOL0     C34451   7.113   7.113   6.842  0.5356  0.1608  0.0544
  975MOL0     C34452   7.140   7.014   6.955 -0.0513  0.5323  0.4698
  975MOL0     C34453   7.286   7.039   6.996 -0.2604  0.0864 -0.0111
  975MOL0     C34454   7.300   6.977   7.137 -0.2099 -0.2110 -0.0397
  975MOL0     C34455   7.448   6.968   7.188 -0.4403 -0.7232 -0.3602
  975MOL0     C34456   7.507   7.099   7.241  0.6327  0.3809  0.3453
  975MOL0    Cl34457   7.666   7.083   7.339  0.2755  0.7334  0.6647
  975MOL0     C34458   6.910   7.461   6.512  0.1695  0.7089 -0.3125
  975MOL0     C34459   6.795   7.526   6.455 -0.4221  0.0938  0.6101
  975MOL0     O34460   6.505   7.636   6.666 -1.1402  0.0281  0.1711
  975MOL0     C34461   6.271   7.622   6.430  0.1883 -0.1123  0.4494
  975MOL0     C34462   6.147   7.676   6.404  0.8119 -0.6514  0.6125
  975MOL0     N34463   5.893   8.073   6.790  0.9645 -0.5177 -0.1561
  975MOL0     N34464   5.868   8.082   6.917  0.3874  0.1390  0.0021
  975MOL0     C34465   5.975   8.568   7.714 -0.8163  0.7118 -0.2632
  975MOL0     C34466   5.945   8.530   7.851  0.3265 -0.3261 -0.0011
  975MOL0     C34467   5.922   8.241   8.229  0.2718 -0.1532  0.2364
  975MOL0     C34468   5.942   8.341   8.329 -0.0090 -0.1445 -0.5097
  975MOL0     C34469   5.893   8.322   8.462 -0.5972 -0.8361  0.7348
  975MOL0     C34470   5.804   8.229   8.492 -0.0514  0.3180  0.9186
  975MOL0     O34471   5.742   8.235   8.615 -0.0384 -0.2474 -0.1930
  975MOL0     C34472   5.701   8.123   8.693 -1.7517  0.5044 -0.3956
  975MOL0     C34473   5.829   8.082   8.771 -0.3054  0.4636 -0.0289
  975MOL0     C34474   5.876   8.185   8.878 -0.0285 -0.3278 -0.4225
  975MOL0     C34475   5.773   8.206   8.987 -0.5857  0.7102 -0.6750
  975MOL0     C34476   5.808   8.134   9.111  0.2507 -0.1982 -0.2140
  975MOL0     C34477   5.827   8.059   9.209 -0.2500  0.3965 -0.0017
  975MOL0     C34478   5.773   8.136   8.388  0.6365  0.3579 -0.3436
  975MOL0     C34479   5.830   8.139   8.261 -0.2485  0.3582  0.7120
  975MOL0     C34480   5.786   8.024   8.161 -0.4775 -0.9161  0.7998
  975MOL0     H34481   6.105   8.235   7.852  0.6090  0.7071  1.5946
  975MOL0     H34482   6.193   8.327   7.645 -0.3315 -0.7902  0.4609
  975MOL0     H34483   5.995   8.366   7.429 -0.0805  0.0053 -0.3314
  975MOL0     H34484   6.170   8.388   7.401 -0.0939  0.2741  1.6449
  975MOL0     H34485   6.131   8.591   7.263  1.8331 -1.9552 -2.5511
  975MOL0     H34486   6.064   8.460   7.181  1.4304  2.3697 -1.1681
  975MOL0     H34487   5.868   8.571   7.368 -2.5365  0.0988 -0.5337
  975MOL0     H34488   5.954   8.694   7.270  0.6906 -1.0443 -1.7341
  975MOL0     H34489   5.751   8.642   7.144 -0.3567 -0.0323  1.9646
  975MOL0     H34490   5.883   8.567   7.059  0.2871  2.1184  0.0139
  975MOL0     H34491   5.654   8.447   7.228  0.5803 -3.4079  2.6829
  975MOL0     H34492   5.811   8.364   7.224 -0.2910  1.4671  0.2621
  975MOL0     H34493   5.658   8.445   6.973 -1.5668  0.8722  0.8696
  975MOL0     H34494   5.791   8.334   6.984 -0.9479  1.1302 -2.1208
  975MOL0     H34495   5.521   8.266   6.991 -0.0525  0.2803 -0.2384
  975MOL0     H34496   5.545   8.276   7.158 -2.4601 -0.5722 -1.2486
  975MOL0     H34497   5.756   8.148   7.142  3.3090 -2.1566 -2.9386
  975MOL0     H34498   5.601   8.054   7.094  0.5944 -0.0434  1.5949
  975MOL0     H34499   5.561   8.111   6.808 -0.1568 -1.8246 -1.4137
  975MOL0     H34500   5.881   8.079   6.561 -1.2151  1.3119 -2.2843
  975MOL0     H34501   5.719   8.138   6.527  0.5134  0.1289 -0.6322
  975MOL0     H34502   5.772   7.841   6.611 -0.2929  0.8559 -0.1185
  975MOL0     H34503   5.622   7.913   6.572 -0.7618 -0.7547 -1.5746
  975MOL0     H34504   5.654   7.805   6.395  2.9956 -4.0891 -0.3444
  975MOL0     H34505   5.750   7.962   6.350  3.7659  0.4535  1.5363
  975MOL0     H34506   5.864   7.685   6.443  0.7780 -0.6485  1.2882
  975MOL0     H34507   5.878   7.771   6.283 -1.5169  1.8460  0.9481
  975MOL0     H34508   6.192   7.985   6.553  4.6550 -0.8714  2.8580
  975MOL0     H34509   6.405   8.035   6.573 -3.9254 -0.1910 -0.0188
  975MOL0     H34510   6.517   7.910   6.633  0.2466  0.2817 -2.4295
  975MOL0     H34511   6.370   7.941   6.724  0.0457 -1.7139 -0.1920
  975MOL0     H34512   6.546   7.385   6.628 -0.8336 -0.9720 -1.9699
  975MOL0     H34513   6.728   7.263   6.721 -0.3175 -1.3100 -0.8176
  975MOL0     H34514   6.891   7.126   6.578  0.5536 -1.7064  1.5726
  975MOL0     H34515   7.076   7.116   6.582  1.0081  0.2442 -0.6669
  975MOL0     H34516   6.889   7.099   6.833  0.7290  0.1412  1.4115
  975MOL0     H34517   6.967   6.973   6.748  1.7464  0.1575 -0.8631
  975MOL0     H34518   7.116   7.216   6.880  0.0124  1.0120 -2.0692
  975MOL0     H34519   7.194   7.085   6.774 -0.5157  2.5049 -2.3786
  975MOL0     H34520   7.133   6.909   6.924  0.7612 -0.2777  2.8547
  975MOL0     H34521   7.075   7.028   7.042  0.2591 -1.4367  1.0668
  975MOL0     H34522   7.349   6.986   6.923 -1.8762 -0.9393 -0.7267
  975MOL0     H34523   7.317   7.143   7.002  1.8965 -0.3590 -1.8897
  975MOL0     H34524   7.260   6.875   7.137  1.8250 -1.0965 -2.3267
  975MOL0     H34525   7.238   7.035   7.206  0.8603  1.9814 -0.8363
  975MOL0     H34526   7.508   6.942   7.100 -0.4506  1.6232 -1.1266
  975MOL0     H34527   7.459   6.890   7.263 -2.7583 -1.1077 -0.3329
  975MOL0     H34528   7.434   7.139   7.313 -1.8328 -1.1483 -1.1432
  975MOL0     H34529   7.509   7.175   7.162 -0.7647 -0.1936 -0.2852
  975MOL0     H34530   7.012   7.476   6.478  0.2170 -2.6768 -2.1373
  975MOL0     H34531   6.808   7.614   6.393 -1.6825  1.4035  2.1026
  975MOL0     H34532   6.303   7.526   6.392  0.6730 -1.1616  3.2490
  975MOL0     H34533   6.086   7.631   6.327 -2.5206 -0.4812  2.9517
  975MOL0     H34534   5.937   8.663   7.680 -0.9286  0.3834 -1.0882
  975MOL0     H34535   5.892   8.600   7.915 -1.4640 -2.6099  1.1227
  975MOL0     H34536   6.009   8.423   8.308 -0.3943  0.8317  1.8027
  975MOL0     H34537   5.906   8.391   8.545 -3.4286  0.7203  0.0334
  975MOL0     H34538   5.617   8.142   8.760 -0.6728  0.5018  1.0200
  975MOL0     H34539   5.672   8.045   8.623  2.4965 -1.8424  0.1073
  975MOL0     H34540   5.903   8.046   8.699 -0.8154 -1.1462  0.1910
  975MOL0     H34541   5.813   7.987   8.823 -1.2176  0.6780  0.1036
  975MOL0     H34542   5.979   8.161   8.906  0.5002 -1.5232 -3.0803
  975MOL0     H34543   5.892   8.280   8.826  0.6604  1.4038  2.6906
  975MOL0     H34544   5.668   8.179   8.968 -0.9651  1.1500  0.6045
  975MOL0     H34545   5.769   8.313   9.012  0.4013  0.6330 -0.1252
  975MOL0     H34546   5.844   8.000   9.297  1.3334 -0.5208 -0.8774
  975MOL0     H34547   5.699   8.061   8.414 -1.2944  3.1850  3.3350
  975MOL0     H34548   5.782   7.928   8.214  1.0053 -0.4782  1.7722
  975MOL0     H34549   5.684   8.037   8.125  0.5664 -1.4733 -2.8647
  975MOL0     H34550   5.859   8.026   8.079  1.5684 -1.5670  2.5019
  976MOL0     O34551   4.939   0.200  10.869 -0.1722 -0.5205  0.1229
  976MOL0     C34552   4.892   0.097  10.919 -0.5589  0.5730 -0.2171
  976MOL0     O34553   4.810   0.091  11.032  0.1910  0.5594  0.3173
  976MOL0     C34554   4.760   0.207  11.080 -0.6083 -0.9524  0.2345
  976MOL0     C34555   4.630   0.254  11.061 -0.4318 -0.7271 -0.5074
  976MOL0     C34556   4.585   0.369  11.127 -0.0114  0.0676  0.1475
  976MOL0     C34557   4.676   0.455  11.197  0.1209  0.4290  0.7324
  976MOL0     O34558   4.653   0.577  11.251 -0.0440 -0.1730 -0.4436
  976MOL0     C34559   4.516   0.608  11.285 -0.9408 -0.1196 -0.3250
  976MOL0     C34560   4.521   0.760  11.308  0.4439 -0.2309 -0.4170
  976MOL0     C34561   4.390   0.815  11.375 -0.0271 -0.4672  0.2305
  976MOL0     C34562   4.257   0.767  11.317  0.0151  0.4880 -0.5389
  976MOL0     C34563   4.127   0.858  11.332  0.0254 -0.0297  0.0199
  976MOL0     C34564   4.112   0.940  11.195  0.3081 -0.2990 -0.0632
  976MOL0     C34565   4.034   1.068  11.198  0.2733  0.5174 -1.5366
  976MOL0     C34566   4.071   1.162  11.313 -0.0876 -0.5038  0.8686
  976MOL0     N34567   4.005   1.291  11.278 -0.2353 -0.2022 -0.0188
  976MOL0     C34568   3.874   1.334  11.286 -0.1291  0.9127 -0.7309
  976MOL0     C34569   3.877   1.466  11.246  0.1125 -0.5531 -0.3337
  976MOL0     C34570   3.760   1.561  11.247 -0.0161 -0.5014  0.1620
  976MOL0     C34571   3.768   1.668  11.359  0.4903  0.0938 -0.0428
  976MOL0     C34572   3.650   1.761  11.342  0.4656 -0.2122 -0.6293
  976MOL0     C34573   3.664   1.871  11.446 -0.6255 -0.5817  0.1567
  976MOL0     O34574   3.584   1.980  11.395 -0.0429  0.6975 -0.1405
  976MOL0     C34575   3.596   2.101  11.439  1.1240  1.2311  0.6812
  976MOL0     C34576   3.528   2.195  11.358 -0.5957  0.0398  0.6635
  976MOL0     C34577   3.535   2.335  11.386 -0.5535  0.3738  0.2410
  976MOL0     C34578   3.459   2.428  11.299  0.2264 -0.2657  0.0489
  976MOL0     C34579   3.617   2.384  11.500 -0.1520 -0.0503 -0.6435
  976MOL0     C34580   3.643   2.525  11.539 -0.1054 -0.6540 -0.4772
  976MOL0     O34581   3.759   2.544  11.615 -0.4453 -0.1677 -0.0716
  976MOL0     C34582   3.787   2.655  11.684  0.9295 -1.3435  0.1006
  976MOL0     C34583   3.695   2.767  11.710 -0.4027  0.0022  1.2007
  976MOL0     C34584   3.746   2.883  11.772  0.1122 -0.7181  0.0707
  976MOL0     C34585   3.883   2.897  11.804 -0.4829 -0.4210 -0.1264
  976MOL0     O34586   3.943   3.004  11.863  0.1126 -0.2078 -0.4126
  976MOL0     C34587   3.862   3.116  11.896 -0.1449  0.6261 -0.5074
  976MOL0     C34588   3.893   3.213  11.788 -0.3293  0.6116 -0.6864
  976MOL0     C34589   3.871   3.361  11.834 -0.1263 -0.4352  0.4093
  976MOL0     C34590   3.725   3.375  11.883  0.9024 -0.0973  1.0464
  976MOL0     C34591   3.694   3.526  11.922  0.9204  0.9577  0.7651
  976MOL0     C34592   3.745   3.550  12.056 -0.3223  0.4248 -0.8073
  976MOL0     C34593   3.710   3.690  12.100 -0.2523  0.5117 -0.5689
  976MOL0     C34594   3.761   3.736  12.235 -0.3058 -0.1961  0.4715
  976MOL0    Cl34595   3.745   3.914  12.235 -0.0882 -0.2031 -0.3682
  976MOL0     C34596   3.968   2.783  11.793  0.9459 -0.5355  0.9158
  976MOL0     C34597   3.916   2.669  11.726 -0.0954  1.7242  0.6261
  976MOL0     O34598   3.554   2.610  11.508 -0.4907  0.0588  0.5982
  976MOL0     C34599   3.682   2.286  11.581  0.0690 -0.3836  1.0064
  976MOL0     C34600   3.672   2.146  11.547  0.2809 -0.5282 -0.5764
  976MOL0     N34601   4.005   1.497  11.217 -0.2117  0.4904 -0.0527
  976MOL0     N34602   4.083   1.398  11.237 -0.4437  0.0843  0.5746
  976MOL0     C34603   4.808   0.415  11.208 -0.7495  0.3649 -0.2210
  976MOL0     C34604   4.856   0.293  11.147 -1.0016  0.1574 -0.1761
  976MOL0     C34605   4.951  -0.033  10.879 -0.3024 -1.0225 -0.5638
  976MOL0     C34606   5.021  -0.038  10.749 -0.3962  0.7024  0.2608
  976MOL0     C34607   5.081  -0.156  10.715  0.7282 -0.2503  0.4462
  976MOL0     C34608   5.083  -0.271  10.789 -1.1989  0.9635 -0.4992
  976MOL0     O34609   5.131  -0.387  10.722  0.3311  0.0327  0.2142
  976MOL0     C34610   5.170  -0.500  10.799 -0.2304  0.1497  0.1833
  976MOL0     C34611   5.303  -0.559  10.763  0.2906 -1.3360 -0.0268
  976MOL0     C34612   5.336  -0.668  10.867  0.6027 -1.0584 -0.2901
  976MOL0     C34613   5.281  -0.800  10.819  0.1707 -0.5084 -0.3420
  976MOL0     C34614   5.319  -0.888  10.929  0.9983 -0.4937  0.1572
  976MOL0     C34615   5.366  -0.970  11.004  0.3201  1.1603 -1.4300
  976MOL0     C34616   5.015  -0.273  10.909  0.1307  0.8351 -0.0402
  976MOL0     C34617   4.945  -0.157  10.953 -0.6011  0.1627  0.6027
  976MOL0     C34618   4.868  -0.173  11.082 -1.0442 -0.0012 -0.4649
  976MOL0     H34619   4.566   0.181  11.011 -0.4090 -0.5959 -0.7304
  976MOL0     H34620   4.481   0.402  11.127 -0.1314 -0.0188 -3.2874
  976MOL0     H34621   4.480   0.557  11.375 -1.3672  1.0989  0.2215
  976MOL0     H34622   4.445   0.595  11.202 -0.2548  2.2636 -1.3857
  976MOL0     H34623   4.608   0.802  11.359  0.3599 -0.6505  0.0905
  976MOL0     H34624   4.523   0.807  11.209 -1.9419  0.6935 -0.0900
  976MOL0     H34625   4.396   0.795  11.483  1.5657  0.5747  0.3687
  976MOL0     H34626   4.397   0.924  11.365 -2.0155 -0.3707 -0.5453
  976MOL0     H34627   4.262   0.749  11.209  1.6649  3.4999 -1.0511
  976MOL0     H34628   4.236   0.667  11.357 -1.6019  0.2229 -1.9226
  976MOL0     H34629   4.150   0.929  11.412 -1.3180 -2.1486  2.4178
  976MOL0     H34630   4.036   0.798  11.334 -0.1941  0.2505 -1.0830
  976MOL0     H34631   4.212   0.974  11.167  0.1418  1.6057  1.4636
  976MOL0     H34632   4.074   0.870  11.120 -0.4691 -1.5287  1.4141
  976MOL0     H34633   3.929   1.044  11.214  0.8099 -1.4365 -0.6777
  976MOL0     H34634   4.051   1.113  11.099  1.5858  2.0368 -0.6790
  976MOL0     H34635   4.019   1.117  11.398 -2.0565 -3.9846 -1.9458
  976MOL0     H34636   4.181   1.162  11.320 -0.1404  0.5528  5.9158
  976MOL0     H34637   3.787   1.280  11.322 -0.0679  2.3987  1.9025
  976MOL0     H34638   3.673   1.495  11.255  0.9688 -2.2123 -1.9176
  976MOL0     H34639   3.752   1.612  11.150 -0.1603  0.1371  0.5078
  976MOL0     H34640   3.759   1.621  11.458 -1.5826 -0.3828 -0.3996
  976MOL0     H34641   3.862   1.722  11.349  0.8805 -0.6690 -0.6352
  976MOL0     H34642   3.648   1.794  11.238 -0.7136  0.6331 -0.3600
  976MOL0     H34643   3.562   1.697  11.351 -0.0891  0.3794 -1.6577
  976MOL0     H34644   3.622   1.848  11.544 -3.9098 -1.1584 -1.2523
  976MOL0     H34645   3.771   1.893  11.457 -0.1691 -2.0008 -1.1129
  976MOL0     H34646   3.469   2.163  11.272 -0.3482 -0.6356  0.7415
  976MOL0     H34647   3.389   2.491  11.354 -0.3295 -1.5560  0.8475
  976MOL0     H34648   3.406   2.383  11.214 -0.8869  1.5344 -0.2774
  976MOL0     H34649   3.523   2.495  11.240  0.0520 -1.5421 -1.6790
  976MOL0     H34650   3.594   2.773  11.672  0.0608 -0.3406 -0.1423
  976MOL0     H34651   3.669   2.959  11.775  0.9046  0.0801  1.6114
  976MOL0     H34652   3.755   3.098  11.908 -0.2138  0.4811 -1.3422
  976MOL0     H34653   3.894   3.160  11.991 -1.6611 -1.1357  0.9074
  976MOL0     H34654   3.996   3.214  11.751 -0.4627 -2.5094 -1.3772
  976MOL0     H34655   3.847   3.182  11.694  2.4607 -2.1268 -1.3359
  976MOL0     H34656   3.903   3.424  11.751  0.6692 -0.4685  0.6875
  976MOL0     H34657   3.944   3.387  11.911  1.5005  3.6934 -2.1778
  976MOL0     H34658   3.706   3.313  11.971 -3.2883  1.6106  1.5547
  976MOL0     H34659   3.663   3.345  11.799  2.6717  1.2961 -0.8669
  976MOL0     H34660   3.743   3.588  11.846 -0.9953  0.1486 -1.2128
  976MOL0     H34661   3.588   3.547  11.907  1.1498  0.5516 -1.8616
  976MOL0     H34662   3.853   3.529  12.060 -0.8613 -2.7966 -0.9005
  976MOL0     H34663   3.694   3.476  12.117 -0.4626 -0.0101 -1.4421
  976MOL0     H34664   3.601   3.690  12.091 -0.4207 -1.2972  0.7428
  976MOL0     H34665   3.752   3.758  12.026  2.5697 -1.1496 -0.6590
  976MOL0     H34666   3.866   3.705  12.241  0.5877  2.4163 -0.5219
  976MOL0     H34667   3.697   3.689  12.311 -1.7542  1.9819  0.6803
  976MOL0     H34668   4.072   2.784  11.823  1.7497 -0.5068 -1.6824
  976MOL0     H34669   3.979   2.582  11.709 -1.3884  0.2565  2.8494
  976MOL0     H34670   3.740   2.312  11.669 -1.5454  3.4787  1.1229
  976MOL0     H34671   3.728   2.070  11.599 -1.0416 -1.6307 -0.7039
  976MOL0     H34672   4.886   0.470  11.259  0.1533 -1.1667  0.1149
  976MOL0     H34673   4.954   0.251  11.165 -1.5524 -1.4169 -0.6261
  976MOL0     H34674   5.022   0.042  10.676  2.7903  1.3658  0.8824
  976MOL0     H34675   5.126  -0.178  10.619  1.5577  1.5157  0.3876
  976MOL0     H34676   5.178  -0.476  10.906 -0.6366  1.1472  0.0011
  976MOL0     H34677   5.096  -0.575  10.772 -2.3331  2.1306  0.1552
  976MOL0     H34678   5.382  -0.483  10.758 -2.0583  1.2531  0.3755
  976MOL0     H34679   5.307  -0.597  10.661  1.0468 -3.3687  0.6884
  976MOL0     H34680   5.445  -0.670  10.858  0.4341 -1.3546 -2.9178
  976MOL0     H34681   5.311  -0.641  10.970 -0.3377 -2.3642 -0.1526
  976MOL0     H34682   5.330  -0.838  10.729 -3.1126 -0.6231 -2.2547
  976MOL0     H34683   5.172  -0.803  10.810  0.3038  0.0362 -2.9079
  976MOL0     H34684   5.411  -1.036  11.075  1.2007  2.1116 -1.0684
  976MOL0     H34685   5.001  -0.365  10.965 -3.3442 -1.3662 -3.9793
  976MOL0     H34686   4.895  -0.254  11.151  1.4614  1.9558  1.0370
  976MOL0     H34687   4.897  -0.092  11.150  0.0346 -1.7029  1.2024
  976MOL0     H34688   4.760  -0.156  11.070 -1.3529 -1.1422  0.4914
  977MOL0     O34689   2.689   8.272   4.504  0.4833 -0.6674  0.0910
  977MOL0     C34690   2.753   8.337   4.425  0.3571 -0.3459  0.4171
  977MOL0     O34691   2.735   8.467   4.401 -0.6062 -0.2381  0.2406
  977MOL0     C34692   2.646   8.536   4.474 -1.0033 -0.8234 -0.4477
  977MOL0     C34693   2.518   8.493   4.527  0.6902 -0.3884  0.2130
  977MOL0     C34694   2.447   8.594   4.599 -0.0942  0.0813  0.6662
  977MOL0     C34695   2.490   8.726   4.610 -0.5150  0.2685 -1.0279
  977MOL0     O34696   2.434   8.837   4.676 -0.2108  0.0719 -0.8432
  977MOL0     C34697   2.318   8.807   4.749  0.2377  0.7954 -0.0997
  977MOL0     C34698   2.230   8.927   4.787  0.1426  1.2839  0.0765
  977MOL0     C34699   2.201   9.002   4.657 -0.4975 -0.7989  0.1220
  977MOL0     C34700   2.142   9.135   4.723  1.4755  0.1403  0.6867
  977MOL0     C34701   2.083   9.223   4.607  0.0992  0.2882 -0.6471
  977MOL0     C34702   1.953   9.188   4.545  0.2202  0.6972  0.5908
  977MOL0     C34703   1.919   9.291   4.435 -0.1395  0.7386 -0.3705
  977MOL0     C34704   1.799   9.245   4.355 -0.2568  0.5586 -0.7260
  977MOL0     N34705   1.665   9.288   4.404  0.0232 -0.8349 -0.0361
  977MOL0     C34706   1.554   9.214   4.391 -0.0665  1.2432  0.6111
  977MOL0     C34707   1.454   9.283   4.452  0.1481  0.0936  0.8012
  977MOL0     C34708   1.312   9.245   4.472  0.4421  0.6954  0.6227
  977MOL0     C34709   1.211   9.327   4.392 -0.0880  0.1266  0.5948
  977MOL0     C34710   1.065   9.291   4.450  0.0153  0.1189 -0.0157
  977MOL0     C34711   0.961   9.382   4.378 -0.1428  0.0731 -0.6939
  977MOL0     O34712   0.958   9.338   4.248  0.7099 -0.2559  0.2584
  977MOL0     C34713   0.851   9.270   4.194 -0.7005 -0.3670 -0.9805
  977MOL0     C34714   0.808   9.146   4.240  0.0633  0.8394  0.2566
  977MOL0     C34715   0.691   9.082   4.184 -0.2605  1.7427 -0.4721
  977MOL0     C34716   0.642   8.957   4.258  0.1087 -1.0884 -0.0116
  977MOL0     C34717   0.626   9.154   4.085  0.0709 -0.6956 -0.6655
  977MOL0     C34718   0.488   9.113   4.039 -0.5225  0.4172  0.4969
  977MOL0     O34719   0.475   8.987   3.972 -0.5001  0.7088  0.0809
  977MOL0     C34720   0.353   8.956   3.919 -0.6953  0.1064  0.5259
  977MOL0     C34721   0.292   8.855   3.983  0.1459 -0.7240  0.7670
  977MOL0     C34722   0.161   8.813   3.943 -0.6273  0.0430  0.2382
  977MOL0     C34723   0.104   8.885   3.833  0.5995 -1.3019 -0.6555
  977MOL0     O34724  -0.025   8.867   3.790 -0.0583  0.2548 -0.1868
  977MOL0     C34725  -0.131   8.865   3.891 -0.3433  0.5020 -0.0676
  977MOL0     C34726  -0.251   8.951   3.854  0.4713 -0.2240  0.7879
  977MOL0     C34727  -0.355   8.915   3.959 -0.2599  0.2468  0.7026
  977MOL0     C34728  -0.487   8.979   3.924 -0.6875 -0.9359  0.3769
  977MOL0     C34729  -0.601   8.952   4.023 -0.1757 -0.0804  0.3492
  977MOL0     C34730  -0.651   8.811   4.033  0.0030 -0.3652  0.2198
  977MOL0     C34731  -0.776   8.798   4.126 -0.5184  0.6934  0.2221
  977MOL0     C34732  -0.903   8.870   4.087  0.8514  0.0194  0.6451
  977MOL0    Cl34733  -0.970   8.934   4.243 -0.4659 -0.5008 -0.0128
  977MOL0     C34734   0.180   8.980   3.763 -0.4068 -0.3152 -0.6434
  977MOL0     C34735   0.313   9.013   3.803  0.4266 -0.3232 -0.0946
  977MOL0     O34736   0.405   9.201   4.040  0.2635  0.0095  0.5690
  977MOL0     C34737   0.679   9.275   4.032  0.1941 -0.6670 -0.4101
  977MOL0     C34738   0.792   9.329   4.084 -0.3864  0.6706  0.1383
  977MOL0     N34739   1.510   9.404   4.480  0.3525 -0.9489 -0.0619
  977MOL0     N34740   1.633   9.400   4.476  0.1636  0.6457 -0.1486
  977MOL0     C34741   2.607   8.760   4.550 -0.4759  0.2618  0.3207
  977MOL0     C34742   2.689   8.669   4.486  0.4332 -0.4948  0.8842
  977MOL0     C34743   2.855   8.257   4.351 -0.9893 -0.2411 -0.9329
  977MOL0     C34744   2.979   8.320   4.320 -0.7292  0.0133  0.6137
  977MOL0     C34745   3.077   8.264   4.249  0.4140  0.0935 -0.5232
  977MOL0     C34746   3.070   8.128   4.210  0.1983  0.7254 -0.6514
  977MOL0     O34747   3.163   8.041   4.149 -0.2499  0.0768  0.5656
  977MOL0     C34748   3.291   8.100   4.157  0.4472 -0.4147 -0.3159
  977MOL0     C34749   3.388   8.033   4.066  0.6046  0.5039 -0.0108
  977MOL0     C34750   3.401   7.886   4.100 -0.0529 -0.1953 -1.3327
  977MOL0     C34751   3.485   7.823   3.992  0.1793 -0.2258 -0.3953
  977MOL0     C34752   3.463   7.840   3.852 -0.4764 -0.4373 -0.1847
  977MOL0     C34753   3.454   7.869   3.740  0.7058  0.9495 -0.1718
  977MOL0     C34754   2.955   8.064   4.249 -0.1093 -0.4916  0.3547
  977MOL0     C34755   2.845   8.122   4.310 -0.5652  0.1786  0.2194
  977MOL0     C34756   2.713   8.047   4.326  0.5109  0.3141 -0.0695
  977MOL0     H34757   2.475   8.394   4.526 -1.2694  0.3875  1.6586
  977MOL0     H34758   2.355   8.576   4.655 -0.0172 -1.9104  0.2022
  977MOL0     H34759   2.355   8.748   4.833 -0.8517 -0.3452 -0.3953
  977MOL0     H34760   2.248   8.741   4.698  0.4345  1.0703 -0.7384
  977MOL0     H34761   2.133   8.884   4.814 -0.1283  0.0695 -2.5148
  977MOL0     H34762   2.281   8.984   4.865 -0.2830 -1.8805  2.8954
  977MOL0     H34763   2.292   9.030   4.604 -0.0367  0.7429  1.6492
  977MOL0     H34764   2.126   8.952   4.594 -1.2337 -2.0547  1.9234
  977MOL0     H34765   2.058   9.112   4.789  1.2125  0.5517  0.5035
  977MOL0     H34766   2.219   9.192   4.775  0.8098  0.1935  1.6433
  977MOL0     H34767   2.145   9.208   4.519  1.0156 -0.0865  0.0395
  977MOL0     H34768   2.091   9.326   4.644  0.2961 -0.7756  2.6029
  977MOL0     H34769   1.963   9.087   4.506 -0.1716  0.7035  0.4744
  977MOL0     H34770   1.876   9.206   4.620  1.3027  4.0237  1.0898
  977MOL0     H34771   2.001   9.309   4.365 -0.2254  0.1666 -0.6215
  977MOL0     H34772   1.907   9.388   4.486  1.1480  1.4034 -1.2745
  977MOL0     H34773   1.812   9.298   4.261 -0.3910  1.0274 -0.4800
  977MOL0     H34774   1.797   9.135   4.348 -1.1051  0.5225 -0.0889
  977MOL0     H34775   1.546   9.114   4.349  0.6507  2.5534 -3.0395
  977MOL0     H34776   1.290   9.264   4.578  0.7427  2.0836  0.4630
  977MOL0     H34777   1.302   9.136   4.466  0.9107  0.6109  1.2720
  977MOL0     H34778   1.241   9.432   4.396 -0.2235  0.1565  0.7953
  977MOL0     H34779   1.221   9.295   4.288  0.3647 -0.8323  0.9259
  977MOL0     H34780   1.027   9.188   4.447  1.4136 -0.4852  1.9025
  977MOL0     H34781   1.064   9.302   4.558  0.5538 -1.8311  0.2165
  977MOL0     H34782   0.866   9.376   4.432  0.4762 -2.7539  0.2866
  977MOL0     H34783   0.987   9.488   4.375  0.6570  0.0115  1.7815
  977MOL0     H34784   0.860   9.094   4.320  1.1773 -0.9313 -1.5326
  977MOL0     H34785   0.580   8.893   4.194 -0.5864  0.9682 -1.4838
  977MOL0     H34786   0.591   8.989   4.350 -0.6420  2.0293 -1.3857
  977MOL0     H34787   0.730   8.899   4.286  1.3494 -0.3559 -2.1728
  977MOL0     H34788   0.349   8.791   4.049  1.3753 -0.8293 -0.3661
  977MOL0     H34789   0.101   8.735   3.989 -1.3218 -0.6924 -1.7893
  977MOL0     H34790  -0.147   8.756   3.896  2.2324  0.0514  5.7354
  977MOL0     H34791  -0.094   8.911   3.983 -2.3192  4.2456 -0.9651
  977MOL0     H34792  -0.240   9.059   3.866 -0.1515 -0.0752  0.0760
  977MOL0     H34793  -0.287   8.934   3.752 -0.9894  2.0806  0.8765
  977MOL0     H34794  -0.314   8.932   4.060  3.8763 -2.1478 -0.3324
  977MOL0     H34795  -0.371   8.807   3.953 -4.0218  0.7125  0.2959
  977MOL0     H34796  -0.531   8.929   3.838  0.5821 -0.1974 -0.7296
  977MOL0     H34797  -0.484   9.087   3.910 -2.3999 -0.8240  0.6445
  977MOL0     H34798  -0.570   8.986   4.122  0.6263 -1.1957  0.4976
  977MOL0     H34799  -0.678   9.022   3.989  3.5545  3.6695 -1.3101
  977MOL0     H34800  -0.579   8.754   4.092 -1.6684 -1.3773  1.3852
  977MOL0     H34801  -0.664   8.770   3.933  2.5670  3.7163 -2.0530
  977MOL0     H34802  -0.757   8.834   4.227 -0.0348  2.6206 -0.5146
  977MOL0     H34803  -0.804   8.692   4.125  1.8153 -0.0122 -1.9661
  977MOL0     H34804  -0.980   8.800   4.053  2.2564 -0.3402 -2.0546
  977MOL0     H34805  -0.878   8.951   4.018  1.3710  0.6913  1.5959
  977MOL0     H34806   0.139   9.037   3.680  1.1851  1.7899 -0.0349
  977MOL0     H34807   0.368   9.088   3.747 -0.0442  0.9640  1.1223
  977MOL0     H34808   0.625   9.342   3.967 -0.8644  1.3321  2.3278
  977MOL0     H34809   0.836   9.421   4.047  2.9300 -1.1084 -0.7876
  977MOL0     H34810   2.623   8.867   4.544  0.3833  0.0798 -0.9954
  977MOL0     H34811   2.788   8.685   4.446  0.0997 -2.8474 -1.1537
  977MOL0     H34812   3.005   8.420   4.353  2.2044 -0.0252 -1.2059
  977MOL0     H34813   3.167   8.323   4.236 -0.1235  0.5944 -2.1382
  977MOL0     H34814   3.282   8.204   4.125 -0.9447 -0.3440  0.2175
  977MOL0     H34815   3.329   8.086   4.259  0.0540 -0.7405 -0.2070
  977MOL0     H34816   3.482   8.089   4.068  1.0153 -0.0339  4.1428
  977MOL0     H34817   3.344   8.041   3.966 -2.5358 -0.0600  1.2108
  977MOL0     H34818   3.433   7.872   4.203 -1.5769  0.9792 -0.6653
  977MOL0     H34819   3.303   7.839   4.083 -1.1087  0.5631  1.9721
  977MOL0     H34820   3.473   7.715   4.002 -2.7811  0.1691  1.5221
  977MOL0     H34821   3.593   7.832   4.003  0.4554 -1.6105 -1.6267
  977MOL0     H34822   3.459   7.874   3.633  0.0401 -1.0670 -0.3360
  977MOL0     H34823   2.942   7.958   4.232  0.7878 -0.4086 -0.9412
  977MOL0     H34824   2.695   7.993   4.419 -2.2737 -2.6396 -2.1167
  977MOL0     H34825   2.631   8.120   4.317  3.0537  3.5239  0.9008
  977MOL0     H34826   2.702   7.975   4.244  2.4036  0.5674 -0.5874
  978MOL0     O34827   1.853   1.768   7.461  0.1300  0.6971  0.5972
  978MOL0     C34828   1.894   1.650   7.488 -0.1346 -0.0267  0.5605
  978MOL0     O34829   1.821   1.561   7.554  0.2483  0.9867 -0.2384
  978MOL0     C34830   1.706   1.593   7.608  0.5039  0.5099 -0.4042
  978MOL0     C34831   1.617   1.487   7.624  0.1333 -0.6890 -0.3213
  978MOL0     C34832   1.501   1.505   7.705 -0.5369  0.6326 -0.5645
  978MOL0     C34833   1.489   1.613   7.790  0.7752 -0.0193  0.0323
  978MOL0     O34834   1.380   1.642   7.874  0.1141  0.3949  0.0171
  978MOL0     C34835   1.293   1.528   7.900  0.0927 -0.9316 -0.3806
  978MOL0     C34836   1.364   1.409   7.966 -0.3596 -0.0975  0.3767
  978MOL0     C34837   1.287   1.272   7.944 -0.0136 -0.4865  0.6549
  978MOL0     C34838   1.136   1.278   7.980  0.2764  0.5675 -0.2235
  978MOL0     C34839   1.116   1.327   8.121 -0.3290 -0.3826  0.0872
  978MOL0     C34840   0.966   1.320   8.167 -1.0155 -0.2999  0.2796
  978MOL0     C34841   0.934   1.419   8.283 -0.5686  0.4098  0.5064
  978MOL0     C34842   0.997   1.386   8.415 -0.2613  0.1549 -0.4538
  978MOL0     N34843   0.937   1.471   8.520  0.3041 -0.5022  0.6422
  978MOL0     C34844   0.854   1.585   8.503 -0.7305 -0.0138  0.1324
  978MOL0     C34845   0.824   1.611   8.634  0.9214  1.1306 -0.6609
  978MOL0     C34846   0.741   1.727   8.687  0.9559  0.0323  0.2025
  978MOL0     C34847   0.599   1.668   8.722  0.3573 -0.7568 -0.5140
  978MOL0     C34848   0.532   1.774   8.807  0.2198 -0.8340  0.0279
  978MOL0     C34849   0.389   1.746   8.824  0.3152 -0.3867  0.9125
  978MOL0     O34850   0.312   1.807   8.717 -1.1523  0.2716 -0.8032
  978MOL0     C34851   0.182   1.768   8.693 -0.1146 -0.7276  0.2673
  978MOL0     C34852   0.134   1.777   8.566 -0.1492 -0.6184 -0.1797
  978MOL0     C34853   0.004   1.743   8.535 -0.0506 -1.4542 -0.4654
  978MOL0     C34854  -0.022   1.741   8.390 -0.5053  0.2303  0.1514
  978MOL0     C34855  -0.091   1.725   8.643  0.8980  0.4584  0.3886
  978MOL0     C34856  -0.237   1.682   8.631 -0.1977  0.5149 -0.3083
  978MOL0     O34857  -0.292   1.588   8.716  0.7512  0.3151  0.2665
  978MOL0     C34858  -0.421   1.541   8.677 -0.3042 -0.2010  0.1893
  978MOL0     C34859  -0.418   1.416   8.619  0.1504  0.0470 -0.0610
  978MOL0     C34860  -0.527   1.356   8.557  0.5639 -0.0315 -0.2816
  978MOL0     C34861  -0.644   1.428   8.549  0.5692  0.7553  0.6116
  978MOL0     O34862  -0.754   1.370   8.486 -0.1236  0.6619  0.2178
  978MOL0     C34863  -0.852   1.439   8.400 -1.3302  0.8687  0.0143
  978MOL0     C34864  -0.771   1.498   8.282  0.7644 -0.4085  0.4053
  978MOL0     C34865  -0.778   1.404   8.161  0.3169 -0.9114  0.1699
  978MOL0     C34866  -0.659   1.322   8.153 -0.1211 -0.0404  0.9703
  978MOL0     C34867  -0.675   1.214   8.050  0.3934 -0.2330  0.5921
  978MOL0     C34868  -0.554   1.123   8.061  0.9148 -0.7998  0.3082
  978MOL0     C34869  -0.434   1.188   7.992  0.2003 -0.8497 -0.2079
  978MOL0     C34870  -0.334   1.080   7.968  0.3626  0.1814  0.3148
  978MOL0    Cl34871  -0.194   1.162   7.890 -0.1498 -0.3609  0.6823
  978MOL0     C34872  -0.652   1.557   8.600  0.3563 -0.4793 -0.6845
  978MOL0     C34873  -0.535   1.619   8.661 -0.0107 -0.1053  0.3999
  978MOL0     O34874  -0.288   1.733   8.528 -0.0986  0.0415  0.5402
  978MOL0     C34875  -0.043   1.729   8.781  0.2549 -1.1331  0.8078
  978MOL0     C34876   0.091   1.756   8.802 -0.0793 -0.0099 -0.3657
  978MOL0     N34877   0.879   1.515   8.711 -0.2070 -0.8361 -0.2140
  978MOL0     N34878   0.937   1.425   8.642  0.2491 -0.6260  0.2181
  978MOL0     C34879   1.583   1.718   7.773  0.5782  0.1986  0.0194
  978MOL0     C34880   1.688   1.708   7.686 -0.5968 -0.3975  0.1892
  978MOL0     C34881   2.034   1.610   7.455 -0.6616 -0.5848  0.7810
  978MOL0     C34882   2.064   1.477   7.427 -0.5760  0.5175 -0.2690
  978MOL0     C34883   2.197   1.432   7.395 -0.2523 -0.0457  0.3182
  978MOL0     C34884   2.304   1.525   7.385 -0.7527 -0.0613 -1.1713
  978MOL0     O34885   2.435   1.513   7.341  0.3712 -0.5463 -0.5725
  978MOL0     C34886   2.468   1.374   7.329  0.0341  0.7812  0.0583
  978MOL0     C34887   2.447   1.318   7.188 -0.0396 -0.3421 -0.0837
  978MOL0     C34888   2.478   1.171   7.199 -0.1988  0.7811 -0.0664
  978MOL0     C34889   2.356   1.080   7.204 -0.1157  0.5425  0.7284
  978MOL0     C34890   2.302   1.076   7.341 -0.5595  0.1319  0.6013
  978MOL0     C34891   2.258   1.081   7.453  0.8006 -0.0925 -0.0975
  978MOL0     C34892   2.276   1.657   7.433 -0.9057 -0.6837  0.0729
  978MOL0     C34893   2.143   1.696   7.460 -0.2914 -0.2525  0.8080
  978MOL0     C34894   2.130   1.849   7.502  0.0890  0.2680  0.5768
  978MOL0     H34895   1.637   1.389   7.582  0.9903 -0.0182 -1.5274
  978MOL0     H34896   1.443   1.413   7.702  2.0535 -1.1484  0.4789
  978MOL0     H34897   1.245   1.504   7.804 -0.7439  4.1259 -1.4878
  978MOL0     H34898   1.214   1.559   7.969 -0.1772  0.3375 -1.2237
  978MOL0     H34899   1.468   1.387   7.939 -0.1485  0.9140  0.3252
  978MOL0     H34900   1.373   1.430   8.073 -1.0225 -0.6361  0.5454
  978MOL0     H34901   1.294   1.246   7.838  2.3225 -2.8755  1.2828
  978MOL0     H34902   1.342   1.201   8.006  1.4562 -0.0483 -0.0990
  978MOL0     H34903   1.085   1.343   7.908  0.2183  1.8819  0.9730
  978MOL0     H34904   1.096   1.176   7.977  1.0754  0.2180  0.5164
  978MOL0     H34905   1.147   1.431   8.136 -2.3842 -0.0017  2.3239
  978MOL0     H34906   1.165   1.258   8.189 -0.1555  0.3515  0.7237
  978MOL0     H34907   0.901   1.338   8.082 -1.8968 -0.5712  0.8842
  978MOL0     H34908   0.938   1.217   8.190  0.6234 -1.3300 -2.0041
  978MOL0     H34909   0.825   1.423   8.291 -0.6137 -0.6730  0.5806
  978MOL0     H34910   0.971   1.519   8.259  1.5767 -0.6224 -0.7105
  978MOL0     H34911   0.977   1.280   8.438 -2.4972  1.0350  2.3564
  978MOL0     H34912   1.106   1.390   8.408 -0.2655 -1.6415 -2.4672
  978MOL0     H34913   0.828   1.646   8.417 -2.8373 -0.6905  0.2183
  978MOL0     H34914   0.740   1.807   8.613  2.4958 -0.6362 -0.5851
  978MOL0     H34915   0.802   1.758   8.772  0.1257  4.0713 -0.5070
  978MOL0     H34916   0.542   1.652   8.630  0.9888  0.9058 -1.2343
  978MOL0     H34917   0.615   1.573   8.774  1.2571 -0.4142 -0.1554
  978MOL0     H34918   0.577   1.776   8.907 -2.0332  2.7861  1.1734
  978MOL0     H34919   0.540   1.874   8.763 -1.1524 -0.5204  0.4428
  978MOL0     H34920   0.387   1.638   8.836  0.8099 -0.4683  0.3119
  978MOL0     H34921   0.360   1.786   8.922  0.4903 -2.1687  1.7241
  978MOL0     H34922   0.206   1.815   8.494 -1.6791  2.7843 -0.0886
  978MOL0     H34923  -0.055   1.840   8.360 -1.0032 -0.7605 -2.9389
  978MOL0     H34924  -0.087   1.656   8.368  2.2166 -1.8384 -0.5066
  978MOL0     H34925   0.065   1.731   8.325 -1.0956  4.8056 -1.6680
  978MOL0     H34926  -0.326   1.357   8.622 -1.2695 -2.7989 -3.9411
  978MOL0     H34927  -0.528   1.251   8.527 -0.9866 -0.5923  1.4968
  978MOL0     H34928  -0.924   1.361   8.373 -2.0357  1.1104  1.1525
  978MOL0     H34929  -0.902   1.513   8.463 -0.8536 -0.8598  2.5728
  978MOL0     H34930  -0.800   1.599   8.249  2.0335  0.1212  0.8533
  978MOL0     H34931  -0.667   1.519   8.310  1.2966 -1.9594 -0.2912
  978MOL0     H34932  -0.782   1.467   8.072  0.3727  0.9876  1.4717
  978MOL0     H34933  -0.868   1.341   8.158  1.0872 -2.0689  0.7241
  978MOL0     H34934  -0.633   1.270   8.246  0.2247 -3.0071 -0.6722
  978MOL0     H34935  -0.572   1.382   8.127  1.0241 -2.0646 -0.1268
  978MOL0     H34936  -0.762   1.153   8.079 -0.1242  0.8058  1.2782
  978MOL0     H34937  -0.696   1.256   7.951 -1.4595  3.1553  2.2404
  978MOL0     H34938  -0.572   1.031   8.005 -2.5886 -1.6395  2.4607
  978MOL0     H34939  -0.533   1.085   8.161  4.8124 -3.6409 -1.3559
  978MOL0     H34940  -0.393   1.278   8.039 -0.9752 -0.7303  0.6292
  978MOL0     H34941  -0.475   1.220   7.896  0.8211  1.9975  0.3735
  978MOL0     H34942  -0.368   0.995   7.908  1.8932 -2.4742  2.9262
  978MOL0     H34943  -0.304   1.028   8.060  1.2229 -4.9975 -2.4979
  978MOL0     H34944  -0.746   1.605   8.576  0.4861 -0.3662 -0.9651
  978MOL0     H34945  -0.531   1.724   8.687 -2.0329  0.1615 -0.2065
  978MOL0     H34946  -0.101   1.704   8.869  2.3291 -1.2836  2.2277
  978MOL0     H34947   0.124   1.755   8.906 -2.4304  0.9826  0.4601
  978MOL0     H34948   1.568   1.810   7.828 -0.3334 -0.1080  0.3102
  978MOL0     H34949   1.771   1.779   7.683 -0.0005 -1.0231 -3.3731
  978MOL0     H34950   1.986   1.404   7.447  0.5843  0.2176  3.9584
  978MOL0     H34951   2.220   1.337   7.347 -2.3741 -0.2471 -0.4005
  978MOL0     H34952   2.575   1.360   7.346  0.0813 -1.2207 -1.5066
  978MOL0     H34953   2.420   1.318   7.411 -2.5511  3.1205  0.2974
  978MOL0     H34954   2.525   1.355   7.121  0.2777 -1.6834 -0.4904
  978MOL0     H34955   2.344   1.342   7.158  1.0320  1.9681 -2.3544
  978MOL0     H34956   2.533   1.145   7.108  1.0081  1.8522  0.3397
  978MOL0     H34957   2.556   1.147   7.271 -2.3608 -4.5240  1.0610
  978MOL0     H34958   2.387   0.979   7.175 -1.1418 -0.0296  1.4972
  978MOL0     H34959   2.278   1.110   7.134  0.1251 -2.0190 -0.7684
  978MOL0     H34960   2.224   1.072   7.554 -1.7680  2.1244 -0.6372
  978MOL0     H34961   2.353   1.733   7.438 -1.7757  0.1067  2.3186
  978MOL0     H34962   2.060   1.912   7.447  0.7336  2.4899  2.1769
  978MOL0     H34963   2.096   1.849   7.605  0.4193  1.5813  0.7041
  978MOL0     H34964   2.228   1.899   7.508 -0.6450  1.6931  1.0595
  979MOL0     O34965   4.032   6.960   5.947  0.7321 -0.6162  0.5417
  979MOL0     C34966   4.154   6.963   5.959 -0.5997 -0.0769 -0.2583
  979MOL0     O34967   4.249   6.894   5.886  0.1633  0.4098  0.4161
  979MOL0     C34968   4.221   6.810   5.782  0.0692  0.4587  0.9895
  979MOL0     C34969   4.108   6.797   5.698 -0.1399  0.2474 -0.4323
  979MOL0     C34970   4.106   6.692   5.602 -0.3989 -0.2260 -0.0716
  979MOL0     C34971   4.221   6.599   5.595  0.7952 -0.9644 -1.0576
  979MOL0     O34972   4.218   6.482   5.520 -0.2755  0.5035  0.2875
  979MOL0     C34973   4.106   6.454   5.434 -0.0292  0.4274  0.1017
  979MOL0     C34974   4.116   6.345   5.335 -0.7627  0.6138 -0.2776
  979MOL0     C34975   3.988   6.316   5.279  0.1610  0.1306 -0.2288
  979MOL0     C34976   4.000   6.208   5.162 -0.6827 -0.5914 -0.6537
  979MOL0     C34977   3.864   6.147   5.136  0.6366 -0.5989  0.3144
  979MOL0     C34978   3.811   6.050   5.239 -0.2202 -0.2045 -0.3532
  979MOL0     C34979   3.652   6.044   5.237  0.1129 -0.4428 -0.8543
  979MOL0     C34980   3.612   5.936   5.123  1.6880 -1.4075 -0.6804
  979MOL0     N34981   3.673   5.807   5.145 -0.3482 -0.2098 -0.3029
  979MOL0     C34982   3.670   5.722   5.256  1.1487 -1.4505  0.8352
  979MOL0     C34983   3.748   5.620   5.229 -1.0092 -0.1926  0.2200
  979MOL0     C34984   3.769   5.502   5.312 -0.1468 -1.0198 -0.1472
  979MOL0     C34985   3.633   5.427   5.326  0.9495 -0.6922 -0.3204
  979MOL0     C34986   3.632   5.299   5.400  0.4537  1.8194 -0.4549
  979MOL0     C34987   3.728   5.188   5.344  0.2567  0.0737 -0.0861
  979MOL0     O34988   3.748   5.078   5.434 -0.3567 -0.1837 -0.1806
  979MOL0     C34989   3.665   4.972   5.460  0.4836  0.2357  0.6517
  979MOL0     C34990   3.580   4.910   5.367  0.0625  0.1076  0.2574
  979MOL0     C34991   3.496   4.797   5.387 -0.3121  0.3945  0.3313
  979MOL0     C34992   3.427   4.738   5.271 -0.4413 -0.4208  0.2080
  979MOL0     C34993   3.489   4.730   5.511  0.1714 -0.9565 -0.5675
  979MOL0     C34994   3.422   4.599   5.538 -0.2961  0.2433 -0.6704
  979MOL0     O34995   3.424   4.563   5.672  0.5809  0.2748  0.0954
  979MOL0     C34996   3.355   4.451   5.711  0.6630 -0.7584 -1.0525
  979MOL0     C34997   3.321   4.448   5.845  0.8464  0.4779 -0.4874
  979MOL0     C34998   3.283   4.326   5.905  0.4578  0.0463 -0.5836
  979MOL0     C34999   3.280   4.204   5.843 -1.5088 -0.3199  0.0706
  979MOL0     O35000   3.252   4.091   5.913 -0.4932 -1.0157 -0.2191
  979MOL0     C35001   3.334   3.975   5.887 -0.7919 -0.3048  0.4654
  979MOL0     C35002   3.486   3.975   5.896  0.0489  0.6232  0.3896
  979MOL0     C35003   3.541   4.041   6.031  1.2484  0.3674  0.3921
  979MOL0     C35004   3.559   3.932   6.135  0.1474 -0.6836  0.4758
  979MOL0     C35005   3.605   3.973   6.270 -0.7575 -0.5326 -0.1625
  979MOL0     C35006   3.507   4.062   6.344  0.5844 -0.0838  0.6462
  979MOL0     C35007   3.523   4.217   6.328 -0.2608  0.0727  1.4079
  979MOL0     C35008   3.416   4.293   6.402  0.0613  0.8316 -0.1099
  979MOL0    Cl35009   3.250   4.273   6.350  0.3526  0.1926  0.5992
  979MOL0     C35010   3.322   4.209   5.708  0.3218 -1.4563 -1.1309
  979MOL0     C35011   3.357   4.329   5.643 -0.2670 -0.9094  0.3284
  979MOL0     O35012   3.360   4.533   5.457  0.1057 -0.0101  0.8483
  979MOL0     C35013   3.575   4.788   5.608 -0.2668  0.9032  0.7234
  979MOL0     C35014   3.660   4.900   5.580  0.4954 -0.6347  0.2517
  979MOL0     N35015   3.803   5.629   5.104 -0.8844 -0.0969  0.7578
  979MOL0     N35016   3.753   5.740   5.056  0.1356 -0.5350 -0.2963
  979MOL0     C35017   4.328   6.617   5.673  0.0119 -0.5498  0.0735
  979MOL0     C35018   4.339   6.725   5.761  0.6495  0.7104 -0.7803
  979MOL0     C35019   4.210   7.075   6.039 -0.0664  0.2067  0.0736
  979MOL0     C35020   4.346   7.116   6.018 -0.0755 -0.3964 -0.4030
  979MOL0     C35021   4.415   7.214   6.089  1.0945 -0.4698  0.1905
  979MOL0     C35022   4.343   7.287   6.185 -0.4811 -0.8896  0.2768
  979MOL0     O35023   4.412   7.390   6.238  1.0388  0.2708 -0.8170
  979MOL0     C35024   4.349   7.478   6.327 -0.2546  0.4506 -0.5978
  979MOL0     C35025   4.265   7.580   6.253 -1.1059 -0.1778 -0.1092
  979MOL0     C35026   4.354   7.683   6.196 -0.3869  0.5143 -0.2443
  979MOL0     C35027   4.296   7.787   6.108 -0.0221 -0.4506 -0.4897
  979MOL0     C35028   4.245   7.896   6.193  0.0365 -0.0719  0.5225
  979MOL0     C35029   4.212   7.986   6.261 -0.9822 -0.3743 -0.1978
  979MOL0     C35030   4.207   7.252   6.209  0.7508 -0.5305 -0.3615
  979MOL0     C35031   4.139   7.139   6.149  0.5091 -0.9174  0.4662
  979MOL0     C35032   3.998   7.109   6.196  0.1811  0.0007  0.1060
  979MOL0     H35033   4.017   6.856   5.709 -1.4324 -2.0345  2.4304
  979MOL0     H35034   4.022   6.679   5.535 -0.7955 -1.9981  0.7237
  979MOL0     H35035   4.072   6.541   5.378  2.4587  0.3907 -1.5888
  979MOL0     H35036   4.018   6.436   5.497 -0.3811  2.5195  0.2883
  979MOL0     H35037   4.182   6.386   5.258  0.9065 -0.6503  0.4141
  979MOL0     H35038   4.153   6.250   5.374  0.0757  1.2860  0.6387
  979MOL0     H35039   3.923   6.276   5.358  2.0135 -2.0836  0.3131
  979MOL0     H35040   3.942   6.409   5.245 -2.2135  0.2413  2.8595
  979MOL0     H35041   4.031   6.260   5.071 -0.1068 -2.2990 -1.4804
  979MOL0     H35042   4.064   6.123   5.190 -1.8336 -1.9606 -2.0374
  979MOL0     H35043   3.865   6.101   5.037 -0.8836  0.6778 -0.3410
  979MOL0     H35044   3.796   6.231   5.120 -2.2213 -3.0100 -1.2978
  979MOL0     H35045   3.857   5.953   5.217 -0.7718 -0.2552 -1.3569
  979MOL0     H35046   3.842   6.072   5.341  2.0654 -1.5490 -0.6820
  979MOL0     H35047   3.616   6.146   5.221  0.8885  0.2456  1.4118
  979MOL0     H35048   3.609   6.005   5.329  0.1769 -2.0239 -1.4675
  979MOL0     H35049   3.507   5.915   5.144  2.5675 -3.5198  2.2437
  979MOL0     H35050   3.628   5.981   5.025 -1.3810  0.4094 -0.4673
  979MOL0     H35051   3.605   5.735   5.342 -1.3176 -0.7181 -1.0072
  979MOL0     H35052   3.809   5.542   5.406  2.7995  3.0889 -2.7833
  979MOL0     H35053   3.847   5.446   5.260 -1.2333 -0.6179 -2.3453
  979MOL0     H35054   3.554   5.494   5.362  2.0972  0.5551 -0.0404
  979MOL0     H35055   3.606   5.418   5.220  4.0689  2.6404 -1.6064
  979MOL0     H35056   3.661   5.322   5.503  2.6836 -0.2036 -0.5383
  979MOL0     H35057   3.535   5.248   5.391  2.7790 -3.3729  0.3090
  979MOL0     H35058   3.692   5.163   5.244 -0.6854  1.6511 -0.1813
  979MOL0     H35059   3.831   5.223   5.329 -0.0723  0.0934 -2.8434
  979MOL0     H35060   3.600   4.938   5.265  2.7101 -0.5401  0.5449
  979MOL0     H35061   3.448   4.631   5.281 -3.1120 -1.0508 -0.1941
  979MOL0     H35062   3.448   4.786   5.175 -0.6152  1.5880  1.1159
  979MOL0     H35063   3.320   4.760   5.282 -0.0935  2.9813 -1.6763
  979MOL0     H35064   3.338   4.532   5.912  0.6499 -0.1845  0.4008
  979MOL0     H35065   3.283   4.328   6.013 -2.0088  2.6755 -0.4935
  979MOL0     H35066   3.299   3.896   5.953 -0.7832 -1.1961 -0.5724
  979MOL0     H35067   3.313   3.937   5.787  0.9171 -0.8297  0.2820
  979MOL0     H35068   3.530   3.875   5.894 -0.9075  0.2147 -0.5674
  979MOL0     H35069   3.534   4.018   5.808 -2.5026 -0.4942 -1.6416
  979MOL0     H35070   3.467   4.118   6.056 -3.5150 -3.7732  0.6010
  979MOL0     H35071   3.640   4.084   6.011  1.6201  0.0840  1.5282
  979MOL0     H35072   3.629   3.860   6.093  1.5572 -0.3878  2.1992
  979MOL0     H35073   3.461   3.884   6.141 -1.3385  2.0758 -0.1511
  979MOL0     H35074   3.627   3.883   6.329  1.8186  1.2798  1.9150
  979MOL0     H35075   3.700   4.026   6.257 -2.1635  1.5279 -3.4028
  979MOL0     H35076   3.526   4.053   6.451  0.0880 -0.7380  0.6905
  979MOL0     H35077   3.404   4.035   6.317 -0.0153  2.1448  0.5167
  979MOL0     H35078   3.526   4.243   6.222  0.7031 -0.0646  1.3905
  979MOL0     H35079   3.625   4.232   6.365 -0.2862  0.8220  1.1850
  979MOL0     H35080   3.438   4.398   6.420 -1.0486  0.5798  3.2453
  979MOL0     H35081   3.427   4.264   6.507  1.4614  1.1645 -0.1476
  979MOL0     H35082   3.337   4.117   5.651  1.1930 -1.4971 -0.8425
  979MOL0     H35083   3.400   4.310   5.545 -0.4737 -1.2621  0.3025
  979MOL0     H35084   3.557   4.745   5.706 -0.3253 -0.6481  0.0583
  979MOL0     H35085   3.734   4.930   5.654  2.5046  0.5986 -2.1217
  979MOL0     H35086   4.420   6.560   5.663  0.2722 -0.4761  1.7462
  979MOL0     H35087   4.421   6.725   5.832  1.3035  2.1500 -1.4979
  979MOL0     H35088   4.394   7.064   5.936  1.3071  1.6001 -0.9529
  979MOL0     H35089   4.520   7.234   6.074  1.1974  1.9852  3.2478
  979MOL0     H35090   4.297   7.414   6.398 -0.5589  1.5400  0.1876
  979MOL0     H35091   4.420   7.531   6.391 -1.4198  1.2573  0.0686
  979MOL0     H35092   4.196   7.627   6.324 -4.0404 -1.2006 -2.0459
  979MOL0     H35093   4.203   7.528   6.178  0.2394 -0.7882 -0.8296
  979MOL0     H35094   4.406   7.734   6.277  0.5753 -1.9464  0.7825
  979MOL0     H35095   4.432   7.631   6.139  1.4010  0.2281  2.3187
  979MOL0     H35096   4.220   7.741   6.045  0.5199 -0.9106 -0.8184
  979MOL0     H35097   4.373   7.836   6.048 -1.5767  3.1311  0.1485
  979MOL0     H35098   4.183   8.064   6.327  1.7205  0.0227  0.6687
  979MOL0     H35099   4.156   7.312   6.284  0.7434  0.2223 -0.9584
  979MOL0     H35100   3.932   7.076   6.115  2.5097  0.2008 -2.0182
  979MOL0     H35101   4.011   7.034   6.274  0.7571  1.6336  1.6476
  979MOL0     H35102   3.954   7.197   6.243 -0.7530  0.1333 -0.9857
  980MOL0     O35103   5.929  10.294  10.105  0.0076  0.0359  0.2214
  980MOL0     C35104   5.839  10.320  10.028 -0.4357 -0.6539 -0.5952
  980MOL0     O35105   5.813  10.260   9.916 -0.0148 -0.0187 -0.1448
  980MOL0     C35106   5.907  10.167   9.871  0.3338  0.3527 -0.5597
  980MOL0     C35107   6.004  10.196   9.774 -0.3945 -0.0161 -0.3487
  980MOL0     C35108   6.078  10.090   9.721 -0.3896 -0.9223 -0.6544
  980MOL0     C35109   6.074   9.959   9.781  0.4365  0.3883 -0.0942
  980MOL0     O35110   6.123   9.845   9.725  0.3106 -0.0032  0.4619
  980MOL0     C35111   6.214   9.856   9.612 -0.1722  0.6897 -0.9673
  980MOL0     C35112   6.131   9.888   9.482  0.6002  0.4583  0.4388
  980MOL0     C35113   6.206   9.920   9.363 -0.0224  0.5821 -0.3673
  980MOL0     C35114   6.315   9.827   9.336 -1.8236  0.7454  0.7150
  980MOL0     C35115   6.423   9.875   9.227 -0.8597  0.0386 -0.9423
  980MOL0     C35116   6.357   9.899   9.089 -0.9265 -0.5272 -0.3505
  980MOL0     C35117   6.452   9.951   8.980 -0.6083 -0.0038 -0.1483
  980MOL0     C35118   6.396  10.010   8.850 -0.2713  0.1640 -0.1232
  980MOL0     N35119   6.320   9.915   8.770  0.0974  0.0289  0.5426
  980MOL0     C35120   6.181   9.897   8.774 -0.1222  0.2779  0.2372
  980MOL0     C35121   6.150   9.807   8.683  0.1376  0.9059 -0.7399
  980MOL0     C35122   6.016   9.736   8.679 -0.1256 -0.7117  0.1247
  980MOL0     C35123   5.991   9.652   8.803 -1.1120  1.2342 -0.1498
  980MOL0     C35124   6.093   9.532   8.812 -0.0899  0.0150  0.2070
  980MOL0     C35125   6.068   9.428   8.925  0.4257  0.6887 -0.0760
  980MOL0     O35126   5.933   9.377   8.940 -0.1413  0.5296 -0.3296
  980MOL0     C35127   5.885   9.325   8.827  0.7353  0.3986 -0.7533
  980MOL0     C35128   5.761   9.364   8.781  0.3197 -1.0675  0.9295
  980MOL0     C35129   5.721   9.329   8.652 -0.0088 -0.6156 -0.9647
  980MOL0     C35130   5.604   9.406   8.600 -0.0798 -0.1423  0.2188
  980MOL0     C35131   5.791   9.231   8.580 -0.0430  0.5899 -0.2480
  980MOL0     C35132   5.746   9.174   8.452 -0.1175 -0.2379 -0.0643
  980MOL0     O35133   5.837   9.084   8.387  0.1793  0.4959  0.0751
  980MOL0     C35134   5.785   9.016   8.279  0.3117  0.6398 -0.4567
  980MOL0     C35135   5.808   9.051   8.149 -0.5693  0.6822  0.4111
  980MOL0     C35136   5.750   8.985   8.040 -0.8383  0.0516 -0.2945
  980MOL0     C35137   5.697   8.861   8.063 -0.2120 -0.1547  0.5690
  980MOL0     O35138   5.670   8.796   7.947  0.0069 -0.0091 -0.2822
  980MOL0     C35139   5.626   8.659   7.969  0.7843  0.7805  1.5006
  980MOL0     C35140   5.604   8.602   7.827 -0.3485  0.3431  0.3907
  980MOL0     C35141   5.555   8.458   7.810 -0.7028 -0.4566  0.6393
  980MOL0     C35142   5.534   8.401   7.660  1.1666 -0.2450 -0.4723
  980MOL0     C35143   5.664   8.391   7.570  0.6885  0.1948 -0.0664
  980MOL0     C35144   5.762   8.292   7.631  0.7330 -1.2293  0.0092
  980MOL0     C35145   5.698   8.155   7.653  0.0599 -0.6436  0.2771
  980MOL0     C35146   5.781   8.082   7.745 -1.4203 -0.6977  0.4460
  980MOL0    Cl35147   5.729   7.914   7.740 -0.0602  0.2935 -0.3218
  980MOL0     C35148   5.663   8.826   8.199 -0.2813  0.6930 -0.3931
  980MOL0     C35149   5.706   8.903   8.303 -0.1020 -0.5556  0.1226
  980MOL0     O35150   5.631   9.194   8.411 -0.3001 -0.2091 -0.8849
  980MOL0     C35151   5.915   9.194   8.622  0.1611  0.5201 -0.6139
  980MOL0     C35152   5.957   9.236   8.750  0.4050 -0.8353  0.0920
  980MOL0     N35153   6.269   9.769   8.616 -0.4508 -0.6910 -0.1967
  980MOL0     N35154   6.374   9.833   8.663 -0.9648 -1.2512 -1.5593
  980MOL0     C35155   5.990   9.943   9.896 -0.2189  0.4187 -0.2818
  980MOL0     C35156   5.899  10.037   9.930 -0.0520 -0.6324  0.0190
  980MOL0     C35157   5.742  10.436  10.070  0.1478 -0.3304 -0.5236
  980MOL0     C35158   5.621  10.441  10.010  1.1666 -0.7011 -0.8996
  980MOL0     C35159   5.519  10.538  10.059 -0.4416  1.4328  0.3123
  980MOL0     C35160   5.551  10.626  10.150 -0.6361  0.3866  0.0925
  980MOL0     O35161   5.464  10.732  10.166 -0.3968  0.5697 -0.0732
  980MOL0     C35162   5.474  10.821  10.286 -0.8043 -0.3589  0.0556
  980MOL0     C35163   5.329  10.873  10.308 -1.0264 -0.6107 -0.1725
  980MOL0     C35164   5.311  10.978  10.196  0.6898  0.3205  0.4156
  980MOL0     C35165   5.397  11.109  10.203 -0.1089  1.3018 -0.0271
  980MOL0     C35166   5.423  11.174  10.329  1.0766  0.2295  0.0499
  980MOL0     C35167   5.434  11.234  10.430  1.3586 -0.4375 -0.4294
  980MOL0     C35168   5.677  10.624  10.208  0.1729  0.0323 -0.5302
  980MOL0     C35169   5.775  10.530  10.169  0.3777  0.6557  0.1086
  980MOL0     C35170   5.918  10.555  10.209  0.5510 -0.7271  0.4909
  980MOL0     H35171   6.004  10.299   9.739 -4.0322  0.8225  1.6298
  980MOL0     H35172   6.146  10.119   9.641 -0.5477 -1.9251 -1.1792
  980MOL0     H35173   6.282   9.770   9.606  1.6527  1.8240  1.6676
  980MOL0     H35174   6.283   9.936   9.640  0.9139 -0.8434  1.0665
  980MOL0     H35175   6.071   9.798   9.466  1.0518 -0.0260  1.3534
  980MOL0     H35176   6.056   9.966   9.500 -2.0130 -1.3060 -1.9546
  980MOL0     H35177   6.141   9.937   9.277  0.1355  7.1362  0.2991
  980MOL0     H35178   6.245  10.020   9.386  0.0747  0.0999  1.7886
  980MOL0     H35179   6.376   9.814   9.426 -2.0509  0.4901  0.8329
  980MOL0     H35180   6.284   9.726   9.308  0.8672 -0.0894  0.5039
  980MOL0     H35181   6.487   9.788   9.207 -1.6146 -0.6772 -0.3010
  980MOL0     H35182   6.483   9.961   9.256 -0.0547 -0.6490 -0.5060
  980MOL0     H35183   6.311   9.804   9.059  0.9277 -1.6197  0.0853
  980MOL0     H35184   6.277   9.972   9.106 -3.9257 -3.0225 -2.5881
  980MOL0     H35185   6.523   9.875   8.948  0.6186  1.6378 -1.5278
  980MOL0     H35186   6.508  10.031   9.029 -0.7598  0.1042 -0.1509
  980MOL0     H35187   6.327  10.094   8.870 -0.7514 -0.4564  0.8975
  980MOL0     H35188   6.482  10.052   8.798  2.4175 -2.2806  2.0357
  980MOL0     H35189   6.112   9.943   8.843  1.4943  0.9727  1.4616
  980MOL0     H35190   6.004   9.692   8.579  1.1868 -0.7367 -0.0453
  980MOL0     H35191   5.943   9.817   8.669  2.9761  2.2155 -0.6249
  980MOL0     H35192   6.008   9.721   8.886  0.8515  1.3785 -0.6152
  980MOL0     H35193   5.889   9.613   8.803 -1.5891  2.3870  0.9481
  980MOL0     H35194   6.101   9.471   8.721 -0.8297 -0.3414  0.3732
  980MOL0     H35195   6.192   9.578   8.817  0.8440 -1.8294 -0.2944
  980MOL0     H35196   6.142   9.351   8.906  0.8313  0.8491  0.8012
  980MOL0     H35197   6.099   9.471   9.021  2.0183  1.3506 -0.8548
  980MOL0     H35198   5.713   9.427   8.856  0.5874  2.0798 -1.3572
  980MOL0     H35199   5.596   9.502   8.650  2.7875 -0.8509  2.3098
  980MOL0     H35200   5.512   9.350   8.616 -1.0853  1.5509  0.5546
  980MOL0     H35201   5.614   9.419   8.491 -0.7772 -1.6038 -0.0489
  980MOL0     H35202   5.852   9.147   8.125 -4.5670  2.0818 -2.4208
  980MOL0     H35203   5.768   9.019   7.939  0.6194  0.4110  0.0630
  980MOL0     H35204   5.693   8.602   8.033  3.6319  2.7463  0.4785
  980MOL0     H35205   5.531   8.667   8.022  0.7037  2.4884  1.1705
  980MOL0     H35206   5.526   8.661   7.778 -2.9206 -4.1634 -1.4774
  980MOL0     H35207   5.698   8.618   7.773 -0.4334 -0.8485 -0.1459
  980MOL0     H35208   5.455   8.454   7.853 -2.1433 -0.7646 -2.4471
  980MOL0     H35209   5.616   8.385   7.864 -0.2146 -0.8427 -0.3893
  980MOL0     H35210   5.453   8.460   7.615  1.1087 -0.7658 -1.0694
  980MOL0     H35211   5.484   8.304   7.664  0.9259 -0.0795  2.4718
  980MOL0     H35212   5.643   8.365   7.466  1.2225  2.1333 -0.6963
  980MOL0     H35213   5.706   8.491   7.558  0.0292  0.3144 -1.6001
  980MOL0     H35214   5.789   8.335   7.728 -1.2783 -0.6366  0.3413
  980MOL0     H35215   5.853   8.297   7.571 -0.9075  3.2254 -2.5781
  980MOL0     H35216   5.683   8.103   7.557 -0.5377 -2.3289  1.2405
  980MOL0     H35217   5.601   8.158   7.704  0.1066  0.3808  0.3176
  980MOL0     H35218   5.784   8.124   7.846  0.3340 -0.5637  0.3596
  980MOL0     H35219   5.879   8.087   7.696 -1.5203  2.8744  0.3307
  980MOL0     H35220   5.615   8.730   8.215 -1.8224  1.7352  1.7157
  980MOL0     H35221   5.690   8.873   8.406  0.8943 -0.3835  0.3359
  980MOL0     H35222   5.981   9.127   8.567 -1.8711 -0.1758 -2.3298
  980MOL0     H35223   6.051   9.205   8.794  0.7652  1.3183  0.9595
  980MOL0     H35224   5.995   9.847   9.948 -1.4420  1.4713  1.9142
  980MOL0     H35225   5.830  10.011  10.010 -1.0584 -1.8957 -1.1870
  980MOL0     H35226   5.599  10.361   9.940 -0.9804  0.0356 -1.1328
  980MOL0     H35227   5.418  10.522  10.022  0.5754 -3.2244 -1.1968
  980MOL0     H35228   5.509  10.773  10.378  1.7598 -0.0272 -0.6497
  980MOL0     H35229   5.551  10.898  10.275  0.8170 -2.0486 -0.9630
  980MOL0     H35230   5.320  10.931  10.401  0.2469  1.0693 -1.0310
  980MOL0     H35231   5.252  10.796  10.308 -0.2933 -1.3810 -1.1365
  980MOL0     H35232   5.320  10.945  10.092  0.0740  3.6773 -0.8259
  980MOL0     H35233   5.202  10.991  10.190  0.2798 -2.5580 -0.0640
  980MOL0     H35234   5.344  11.179  10.138 -0.7769 -1.1416 -2.3022
  980MOL0     H35235   5.495  11.088  10.158 -0.1434 -0.9435  0.7999
  980MOL0     H35236   5.444  11.271  10.530  0.0752  0.8636 -0.7549
  980MOL0     H35237   5.716  10.707  10.266 -1.4656  0.7830 -0.4454
  980MOL0     H35238   5.984  10.550  10.122 -0.3721 -1.0806 -0.2024
  980MOL0     H35239   5.927  10.648  10.266 -0.0162 -0.4910  0.2030
  980MOL0     H35240   5.936  10.478  10.284 -1.6681 -0.3929  1.4456
  981MOL0     O35241   0.769  11.495   6.207  0.6510 -0.2540 -0.2366
  981MOL0     C35242   0.755  11.422   6.300  0.0153  0.6495  0.7840
  981MOL0     O35243   0.751  11.287   6.289  0.1694  0.3674 -0.0680
  981MOL0     C35244   0.811  11.227   6.180 -1.0421  0.5126 -0.9571
  981MOL0     C35245   0.950  11.241   6.136 -0.2590 -0.1258  0.2908
  981MOL0     C35246   0.992  11.179   6.024 -0.8196 -0.8472 -1.9568
  981MOL0     C35247   0.911  11.095   5.948 -1.0547 -0.0159 -0.9528
  981MOL0     O35248   0.948  11.005   5.855 -0.0010  0.9082  0.2483
  981MOL0     C35249   1.051  11.042   5.768  0.2759 -0.4754  0.6763
  981MOL0     C35250   1.022  10.979   5.631 -0.1030  0.0194 -0.0962
  981MOL0     C35251   0.895  11.023   5.564 -0.4189  0.2870  0.7994
  981MOL0     C35252   0.886  10.981   5.411 -0.7476 -0.9905 -0.6660
  981MOL0     C35253   0.749  10.934   5.364  0.0112 -0.3542 -0.8272
  981MOL0     C35254   0.641  11.041   5.376 -0.6021 -0.3476  0.1845
  981MOL0     C35255   0.515  10.978   5.340  0.1065  0.1101 -0.2951
  981MOL0     C35256   0.406  11.085   5.290 -0.5520  0.2104 -0.2686
  981MOL0     N35257   0.361  11.169   5.405 -0.3431  0.9336  0.4005
  981MOL0     C35258   0.400  11.305   5.404  0.0772 -0.2018  0.4915
  981MOL0     C35259   0.317  11.354   5.501  0.4871  0.4467 -0.5511
  981MOL0     C35260   0.312  11.505   5.515  0.3153 -0.5030 -0.4375
  981MOL0     C35261   0.452  11.561   5.565  1.0714 -0.1710 -0.1218
  981MOL0     C35262   0.456  11.711   5.553  0.0342  0.0443 -0.0704
  981MOL0     C35263   0.585  11.769   5.606 -0.0809  0.1199  0.0045
  981MOL0     O35264   0.564  11.906   5.601 -0.2087  0.7071  0.2670
  981MOL0     C35265   0.676  11.980   5.628  0.3053 -0.9598  0.8333
  981MOL0     C35266   0.677  12.111   5.583 -0.3786 -0.0905  0.5639
  981MOL0     C35267   0.777  12.201   5.615 -1.0792 -0.4669 -0.3002
  981MOL0     C35268   0.756  12.341   5.565  0.3968 -0.1741  0.4572
  981MOL0     C35269   0.890  12.157   5.691  0.4371 -0.5614 -0.3937
  981MOL0     C35270   1.001  12.245   5.717 -0.5023  0.2966 -0.2084
  981MOL0     O35271   1.035  12.336   5.623 -0.6168 -1.0236 -0.0174
  981MOL0     C35272   1.148  12.410   5.647 -0.5087  0.2079  0.2532
  981MOL0     C35273   1.154  12.505   5.744  1.2374 -0.0984  0.1839
  981MOL0     C35274   1.265  12.586   5.772  0.4118  0.1511  0.5013
  981MOL0     C35275   1.384  12.560   5.701 -0.4360 -0.3343 -0.0626
  981MOL0     O35276   1.491  12.645   5.735  0.0332  0.7374 -0.5082
  981MOL0     C35277   1.607  12.574   5.762 -0.1002 -0.1738 -0.1699
  981MOL0     C35278   1.728  12.661   5.812 -0.6924  0.2794 -0.2698
  981MOL0     C35279   1.783  12.747   5.695 -0.0532 -0.7601  0.9160
  981MOL0     C35280   1.880  12.845   5.760 -0.0929  0.1007  0.1611
  981MOL0     C35281   1.908  12.978   5.678  0.0180 -0.0586  0.9322
  981MOL0     C35282   1.959  12.944   5.539  0.4133 -0.1567  1.1975
  981MOL0     C35283   2.021  13.069   5.477  0.6813 -0.1518 -0.0339
  981MOL0     C35284   2.073  13.034   5.340  0.3093 -0.1096  0.5703
  981MOL0    Cl35285   1.940  13.008   5.216  0.1856  0.0976 -0.2670
  981MOL0     C35286   1.388  12.468   5.602 -0.1665  0.1869  0.6522
  981MOL0     C35287   1.267  12.398   5.570 -0.5135  0.1286  0.2530
  981MOL0     O35288   1.061  12.230   5.821 -0.0296 -0.1860  0.5206
  981MOL0     C35289   0.901  12.016   5.729 -0.3018 -0.2766 -0.2769
  981MOL0     C35290   0.794  11.935   5.693  0.1081 -0.0166  0.1405
  981MOL0     N35291   0.232  11.257   5.548 -0.2538  0.6525 -0.3924
  981MOL0     N35292   0.251  11.142   5.482 -0.9106 -0.8628 -0.0152
  981MOL0     C35293   0.775  11.079   5.992  0.2226  0.5764 -0.6229
  981MOL0     C35294   0.740  11.141   6.104  0.4819 -0.7031 -0.4663
  981MOL0     C35295   0.727  11.477   6.435 -0.5855 -1.0054  0.3937
  981MOL0     C35296   0.757  11.617   6.452  0.3928 -0.1838 -0.1524
  981MOL0     C35297   0.719  11.679   6.570  0.9684 -0.3702  1.2400
  981MOL0     C35298   0.671  11.611   6.683  0.2144  0.7961 -0.4440
  981MOL0     O35299   0.647  11.665   6.805 -0.2061 -0.3951 -0.4621
  981MOL0     C35300   0.596  11.796   6.807 -0.0927  0.2534 -0.7888
  981MOL0     C35301   0.480  11.795   6.914 -0.2215  0.1607 -0.4886
  981MOL0     C35302   0.406  11.933   6.919 -0.7220 -0.7193 -0.0198
  981MOL0     C35303   0.292  11.920   7.015  0.8750 -0.4207 -0.0479
  981MOL0     C35304   0.345  11.894   7.154  0.6097  0.6983 -0.2325
  981MOL0     C35305   0.401  11.854   7.259  0.8269 -0.0646  0.4043
  981MOL0     C35306   0.646  11.478   6.674 -0.1996  0.6146  0.7946
  981MOL0     C35307   0.672  11.410   6.551 -0.2505 -1.1954 -1.3142
  981MOL0     C35308   0.645  11.255   6.567  0.6143 -0.4125  0.3659
  981MOL0     H35309   1.014  11.305   6.194 -1.3847  1.1543  0.1751
  981MOL0     H35310   1.098  11.183   6.001 -0.6954  0.2901 -1.2774
  981MOL0     H35311   1.150  11.011   5.802  0.2046  0.1629  1.4869
  981MOL0     H35312   1.048  11.151   5.762 -0.8885 -0.4925  0.6702
  981MOL0     H35313   1.103  10.996   5.559  1.9272 -2.1093  1.5234
  981MOL0     H35314   1.019  10.870   5.632 -0.0030 -0.1061 -3.2353
  981MOL0     H35315   0.822  10.960   5.615  1.7465 -2.4854  0.6727
  981MOL0     H35316   0.874  11.127   5.594  1.6459  0.8352  0.4983
  981MOL0     H35317   0.920  11.069   5.355 -0.6454  0.5408  1.6821
  981MOL0     H35318   0.951  10.895   5.393  1.6848  0.1375  2.0929
  981MOL0     H35319   0.716  10.848   5.423 -1.2068 -1.4578 -2.9965
  981MOL0     H35320   0.764  10.909   5.259 -2.6193  0.3365 -1.4605
  981MOL0     H35321   0.642  11.083   5.477  0.8170  0.5825 -0.1889
  981MOL0     H35322   0.665  11.119   5.303 -0.1026 -0.8555 -0.1956
  981MOL0     H35323   0.492  10.930   5.435  4.6173  0.7892  1.3597
  981MOL0     H35324   0.528  10.910   5.255  0.5586  0.6161 -0.6410
  981MOL0     H35325   0.443  11.155   5.214 -0.2301  1.0597  0.6382
  981MOL0     H35326   0.313  11.039   5.255  0.0194 -0.8962 -0.3558
  981MOL0     H35327   0.476  11.369   5.360 -1.7010  0.1523 -2.3707
  981MOL0     H35328   0.245  11.531   5.597  2.3996 -0.7640  1.4706
  981MOL0     H35329   0.276  11.563   5.430 -1.6394  0.3481  0.8967
  981MOL0     H35330   0.464  11.527   5.669  0.2972 -1.8765 -0.5528
  981MOL0     H35331   0.530  11.518   5.502  1.5467 -1.4430  1.2619
  981MOL0     H35332   0.442  11.741   5.448 -2.3471  3.2713  1.0110
  981MOL0     H35333   0.376  11.759   5.611  0.5131 -1.4304  1.9056
  981MOL0     H35334   0.605  11.723   5.704 -0.4691  1.6085  0.8183
  981MOL0     H35335   0.662  11.739   5.535 -0.5864  1.5842 -1.2206
  981MOL0     H35336   0.589  12.130   5.522 -0.9551 -0.3965  1.2954
  981MOL0     H35337   0.812  12.339   5.471  0.2331 -1.3405  0.3635
  981MOL0     H35338   0.793  12.420   5.631  1.0089 -0.6281  0.6762
  981MOL0     H35339   0.651  12.364   5.546  0.1062 -2.1665 -0.6915
  981MOL0     H35340   1.065  12.524   5.804  1.6391 -0.0784  0.7913
  981MOL0     H35341   1.258  12.668   5.843  0.7173  0.2862  0.3793
  981MOL0     H35342   1.590  12.505   5.844  3.0289 -2.0971 -0.9725
  981MOL0     H35343   1.639  12.523   5.670  2.3450  2.0379 -0.6856
  981MOL0     H35344   1.690  12.726   5.892 -3.8099 -0.1389 -1.2560
  981MOL0     H35345   1.810  12.593   5.837 -0.5321  0.1544 -1.1063
  981MOL0     H35346   1.691  12.792   5.656  0.9359 -1.0656 -2.0084
  981MOL0     H35347   1.847  12.700   5.619  0.6203  4.6073 -2.3634
  981MOL0     H35348   1.977  12.794   5.754  2.2550  3.9884  1.8160
  981MOL0     H35349   1.860  12.868   5.865  3.1625 -0.3793  1.0075
  981MOL0     H35350   1.816  13.035   5.660 -0.1301 -0.1972  1.2394
  981MOL0     H35351   1.976  13.046   5.731  0.6656  1.0802 -1.2453
  981MOL0     H35352   1.868  12.919   5.483  0.3774  0.7979  0.8047
  981MOL0     H35353   2.040  12.871   5.540  1.4463  0.7883 -1.7720
  981MOL0     H35354   2.099  13.123   5.532 -1.2680  0.8534  1.9177
  981MOL0     H35355   1.939  13.134   5.445  2.4607  2.2146 -0.0974
  981MOL0     H35356   2.130  12.941   5.351  0.3327 -0.0249  1.2163
  981MOL0     H35357   2.150  13.103   5.307  1.3350  0.4039  3.7221
  981MOL0     H35358   1.475  12.437   5.544 -1.4313  0.3317 -1.4433
  981MOL0     H35359   1.280  12.328   5.488 -0.5455  0.4985 -0.0732
  981MOL0     H35360   0.993  11.988   5.780  1.2236  2.8494 -1.0215
  981MOL0     H35361   0.804  11.830   5.719  1.2715  0.1157  0.2847
  981MOL0     H35362   0.701  11.017   5.943  1.3094 -1.0368 -0.3020
  981MOL0     H35363   0.633  11.133   6.119  0.5573  0.7904  1.2281
  981MOL0     H35364   0.791  11.680   6.371  0.6751  0.5068  0.4910
  981MOL0     H35365   0.723  11.786   6.586 -0.2019 -0.6025  3.5778
  981MOL0     H35366   0.684  11.854   6.837  2.1839 -2.6673 -1.3869
  981MOL0     H35367   0.551  11.837   6.716 -0.4103  3.1350  0.5712
  981MOL0     H35368   0.528  11.778   7.011 -0.2275 -0.3697 -0.5775
  981MOL0     H35369   0.408  11.715   6.892 -0.1851  0.0576 -0.2291
  981MOL0     H35370   0.468  12.012   6.965 -1.1626 -1.7862  2.6103
  981MOL0     H35371   0.363  11.958   6.822 -0.3003 -1.9811 -0.5342
  981MOL0     H35372   0.236  11.834   6.980  0.0897 -0.8897  2.1808
  981MOL0     H35373   0.229  12.009   7.017  1.8585  0.2912  1.1114
  981MOL0     H35374   0.459  11.828   7.345  3.4431 -0.2106 -1.3013
  981MOL0     H35375   0.601  11.428   6.759 -0.0427  0.8695  1.0281
  981MOL0     H35376   0.576  11.231   6.486  0.6854  0.2247  0.1099
  981MOL0     H35377   0.740  11.201   6.559  0.7845 -0.0821  0.1071
  981MOL0     H35378   0.601  11.236   6.665  1.7511  2.1112  1.4772
  982MOL0     O35379   1.675   0.088   0.778 -0.8095  0.7206 -0.1317
  982MOL0     C35380   1.676   0.212   0.765  0.0061  0.0895  0.1807
  982MOL0     O35381   1.785   0.283   0.818  0.5448  0.1477  0.7742
  982MOL0     C35382   1.840   0.234   0.925 -0.0810  0.5003 -0.5495
  982MOL0     C35383   1.769   0.259   1.041  0.7557 -0.6126 -0.0135
  982MOL0     C35384   1.813   0.217   1.163 -0.2722 -0.7249  0.7819
  982MOL0     C35385   1.932   0.149   1.181 -0.0378 -0.1125 -0.8071
  982MOL0     O35386   1.965   0.121   1.320 -0.0204 -0.0415  0.1041
  982MOL0     C35387   2.035  -0.003   1.341 -0.5214 -0.4694  0.2904
  982MOL0     C35388   1.950  -0.131   1.336 -0.0681  0.1305  0.2614
  982MOL0     C35389   2.028  -0.256   1.303 -0.5890  0.1416 -0.4173
  982MOL0     C35390   1.946  -0.381   1.300 -0.6119 -0.4387  0.2033
  982MOL0     C35391   1.871  -0.413   1.419 -0.0865  0.5205  0.1435
  982MOL0     C35392   1.843  -0.563   1.433  1.3500  0.4619  0.0114
  982MOL0     C35393   1.756  -0.589   1.551  0.2769  0.7377 -0.3610
  982MOL0     C35394   1.738  -0.741   1.583 -0.0697  0.3009 -0.1921
  982MOL0     N35395   1.683  -0.809   1.463  0.4396  0.9508 -0.0566
  982MOL0     C35396   1.594  -0.756   1.371 -0.0770 -0.2131 -0.1137
  982MOL0     C35397   1.534  -0.871   1.311  0.1541  0.2637 -0.2725
  982MOL0     C35398   1.434  -0.878   1.194 -0.3037  0.2345 -0.6572
  982MOL0     C35399   1.280  -0.904   1.220  0.5892 -0.3283  0.7832
  982MOL0     C35400   1.235  -1.028   1.297  0.2205 -0.0850 -0.6773
  982MOL0     C35401   1.087  -1.020   1.338  0.2037  0.7348 -0.5421
  982MOL0     O35402   1.014  -1.027   1.208 -0.0955 -0.3384  0.5065
  982MOL0     C35403   0.878  -1.015   1.218 -0.1210  0.4357 -0.4631
  982MOL0     C35404   0.809  -0.909   1.155  0.8979 -0.5152  0.0125
  982MOL0     C35405   0.671  -0.903   1.143 -0.1521  0.2465 -0.1608
  982MOL0     C35406   0.609  -0.795   1.067 -0.2086 -0.0108  0.4098
  982MOL0     C35407   0.604  -1.009   1.216  0.6259  0.8159  0.4071
  982MOL0     C35408   0.452  -1.016   1.213 -0.4158 -0.4024 -0.6191
  982MOL0     O35409   0.406  -1.146   1.191 -0.0416 -0.4389 -0.2096
  982MOL0     C35410   0.270  -1.180   1.211  0.5127 -0.3125  0.6252
  982MOL0     C35411   0.189  -1.224   1.102  1.0022 -0.1039  0.6167
  982MOL0     C35412   0.051  -1.254   1.120 -0.3208 -0.3589 -0.6294
  982MOL0     C35413  -0.013  -1.241   1.249 -0.2311  0.8336  0.5818
  982MOL0     O35414  -0.138  -1.288   1.261  0.9496 -0.4164 -0.6169
  982MOL0     C35415  -0.138  -1.436   1.267  0.4553  0.0177  0.1248
  982MOL0     C35416  -0.092  -1.476   1.407  0.4964  0.0147  0.8521
  982MOL0     C35417  -0.152  -1.605   1.439  0.2526  1.1255  0.8947
  982MOL0     C35418  -0.287  -1.598   1.505  0.3515  0.1064  0.0775
  982MOL0     C35419  -0.369  -1.731   1.494 -0.3375 -0.4424 -0.2112
  982MOL0     C35420  -0.309  -1.853   1.569  0.2856  0.0622 -0.1292
  982MOL0     C35421  -0.275  -1.836   1.721 -0.1057  0.1400 -0.2952
  982MOL0     C35422  -0.220  -1.961   1.787  0.5599 -0.2114  0.2936
  982MOL0    Cl35423  -0.189  -1.948   1.961 -0.4093 -0.0290 -0.0501
  982MOL0     C35424   0.071  -1.206   1.352 -0.1139 -0.3793 -0.0842
  982MOL0     C35425   0.207  -1.169   1.335 -0.5410 -0.4715 -0.3739
  982MOL0     O35426   0.380  -0.919   1.236 -0.2888  0.4384 -0.4736
  982MOL0     C35427   0.662  -1.118   1.281 -1.8549 -0.1371  0.0471
  982MOL0     C35428   0.801  -1.111   1.292  0.2187 -0.6485  0.2034
  982MOL0     N35429   1.604  -0.980   1.365 -1.1327 -0.3298  0.3626
  982MOL0     N35430   1.693  -0.944   1.459 -0.0714 -0.4787  0.4491
  982MOL0     C35431   2.005   0.118   1.059 -0.2868 -0.2774  0.2573
  982MOL0     C35432   1.964   0.168   0.930  0.8814  0.7221 -0.2549
  982MOL0     C35433   1.594   0.278   0.651 -0.3483 -0.3306  0.3428
  982MOL0     C35434   1.644   0.392   0.592  0.0508  0.9199 -0.2494
  982MOL0     C35435   1.574   0.455   0.486 -0.1218 -0.0425 -0.8522
  982MOL0     C35436   1.467   0.394   0.422  0.9968  0.7180 -0.0524
  982MOL0     O35437   1.432   0.451   0.303 -0.7633 -0.3629  0.4501
  982MOL0     C35438   1.324   0.385   0.235  0.4150 -0.3327  0.5856
  982MOL0     C35439   1.185   0.392   0.298 -0.2750  0.6605  0.5402
  982MOL0     C35440   1.091   0.290   0.219  0.4802 -0.4501  0.5397
  982MOL0     C35441   0.951   0.354   0.191  0.4696  0.3434 -0.1768
  982MOL0     C35442   0.876   0.281   0.091 -0.3268 -0.2446  0.2580
  982MOL0     C35443   0.830   0.198   0.019 -0.2219 -0.4357 -0.9436
  982MOL0     C35444   1.413   0.273   0.480  0.1250  0.5566 -1.2463
  982MOL0     C35445   1.474   0.227   0.604  0.1877 -0.2659  1.2861
  982MOL0     C35446   1.389   0.116   0.667 -0.7405  0.3122  0.0463
  982MOL0     H35447   1.685   0.324   1.017  2.1330  0.9165 -0.9002
  982MOL0     H35448   1.760   0.251   1.252  0.3890 -1.7379  1.5860
  982MOL0     H35449   2.058  -0.001   1.448 -1.1323 -1.1908  0.4440
  982MOL0     H35450   2.128  -0.015   1.283 -0.1689 -2.9736  1.2373
  982MOL0     H35451   1.906  -0.136   1.436 -1.6276 -1.0747 -0.4451
  982MOL0     H35452   1.871  -0.117   1.262  1.7583 -0.2183 -1.8638
  982MOL0     H35453   2.082  -0.231   1.211  0.8825  0.7171  0.5705
  982MOL0     H35454   2.100  -0.255   1.386 -0.4035  1.6356 -0.5734
  982MOL0     H35455   1.875  -0.382   1.216 -2.4985  0.5833  1.7198
  982MOL0     H35456   2.018  -0.460   1.276  0.3741 -0.3265  2.6103
  982MOL0     H35457   1.777  -0.357   1.419 -1.8606 -2.2774  0.3598
  982MOL0     H35458   1.932  -0.383   1.505  0.5766 -2.1845  0.7251
  982MOL0     H35459   1.783  -0.605   1.351  0.5421  0.8325  0.4051
  982MOL0     H35460   1.940  -0.612   1.447  0.8418 -0.3820  0.6907
  982MOL0     H35461   1.661  -0.540   1.529  0.2834  0.2558 -1.5500
  982MOL0     H35462   1.796  -0.543   1.642  0.6623 -3.2921  1.7554
  982MOL0     H35463   1.832  -0.788   1.615 -0.9559 -1.3289  0.1418
  982MOL0     H35464   1.672  -0.759   1.668  0.9385  0.4088  0.6345
  982MOL0     H35465   1.575  -0.653   1.346  3.1199  0.1848 -1.4633
  982MOL0     H35466   1.456  -0.959   1.125 -2.5006  0.5958 -1.8881
  982MOL0     H35467   1.453  -0.779   1.151 -1.2916  1.1348  0.8823
  982MOL0     H35468   1.229  -0.818   1.264 -0.4174 -1.2333  1.4284
  982MOL0     H35469   1.235  -0.919   1.122 -0.3885 -3.1973  1.5674
  982MOL0     H35470   1.231  -1.116   1.231  0.4191  0.9560 -2.1325
  982MOL0     H35471   1.299  -1.033   1.385 -1.6482 -0.4833  0.7261
  982MOL0     H35472   1.064  -1.109   1.399 -0.8313  0.7224 -0.9370
  982MOL0     H35473   1.059  -0.933   1.398 -1.2519  0.3582 -0.6394
  982MOL0     H35474   0.871  -0.830   1.114  2.0544 -0.9005  0.9385
  982MOL0     H35475   0.521  -0.762   1.124 -0.4161 -0.8409  0.5736
  982MOL0     H35476   0.574  -0.827   0.968  1.5282 -0.8393  0.0213
  982MOL0     H35477   0.673  -0.706   1.061 -2.2903  1.4831 -1.9640
  982MOL0     H35478   0.241  -1.261   1.015 -2.4873  1.0349 -2.1847
  982MOL0     H35479  -0.024  -1.290   1.051 -6.0675  0.3918  4.3366
  982MOL0     H35480  -0.239  -1.473   1.249 -0.3351  0.9265  2.3518
  982MOL0     H35481  -0.073  -1.491   1.199 -0.8398 -0.4200 -0.7874
  982MOL0     H35482   0.017  -1.477   1.414  0.4554 -0.0733  1.5041
  982MOL0     H35483  -0.126  -1.398   1.476 -0.8359 -0.6782  1.0142
  982MOL0     H35484  -0.078  -1.644   1.510 -0.1257  2.8880  2.3327
  982MOL0     H35485  -0.147  -1.670   1.351 -0.3796  0.7471  1.1355
  982MOL0     H35486  -0.339  -1.514   1.456  4.1585  2.7349  0.1471
  982MOL0     H35487  -0.280  -1.553   1.604 -3.2556  0.9176  0.1289
  982MOL0     H35488  -0.471  -1.704   1.526  0.2347  2.7885 -0.7720
  982MOL0     H35489  -0.365  -1.760   1.389  0.1676  2.0587 -0.9540
  982MOL0     H35490  -0.221  -1.879   1.510 -1.4421  0.0999 -2.9448
  982MOL0     H35491  -0.365  -1.946   1.562  0.0929  0.1780 -0.1377
  982MOL0     H35492  -0.370  -1.808   1.768  1.5042  1.4184  2.4535
  982MOL0     H35493  -0.196  -1.761   1.735  1.5020 -1.2803 -1.4068
  982MOL0     H35494  -0.129  -1.992   1.735  1.3500  0.0876  1.4389
  982MOL0     H35495  -0.300  -2.034   1.774  0.9319 -0.4484 -0.7968
  982MOL0     H35496   0.034  -1.215   1.453 -0.0840  0.4018  0.0041
  982MOL0     H35497   0.268  -1.146   1.422 -2.7328  4.1452  0.2592
  982MOL0     H35498   0.603  -1.171   1.356 -3.2572  2.9274  1.3103
  982MOL0     H35499   0.852  -1.189   1.347  1.2114  1.3832  2.3573
  982MOL0     H35500   2.105   0.075   1.065 -1.1592 -2.2706  3.3471
  982MOL0     H35501   2.021   0.152   0.839  2.7662 -1.2408  1.1589
  982MOL0     H35502   1.740   0.428   0.627  0.7438  0.0266 -1.1592
  982MOL0     H35503   1.613   0.546   0.441  1.4266  0.1507  0.7908
  982MOL0     H35504   1.311   0.437   0.139 -2.1714 -1.0407  0.4601
  982MOL0     H35505   1.345   0.278   0.226 -3.3458 -1.3413  1.7067
  982MOL0     H35506   1.157   0.497   0.289 -2.1686  0.0696 -1.2138
  982MOL0     H35507   1.184   0.372   0.406 -2.5858  1.2570  0.6865
  982MOL0     H35508   1.124   0.263   0.119 -3.7524 -0.3008 -1.0947
  982MOL0     H35509   1.080   0.200   0.281  0.0978  0.2240  1.4741
  982MOL0     H35510   0.980   0.450   0.147  3.0903  0.5037  1.6556
  982MOL0     H35511   0.882   0.365   0.276 -1.1635  0.8014 -1.5028
  982MOL0     H35512   0.787   0.137  -0.058  0.4072  1.2462 -2.6895
  982MOL0     H35513   1.332   0.217   0.435 -1.2136  2.8583 -1.8596
  982MOL0     H35514   1.290   0.160   0.683  0.2467  2.8311 -0.4484
  982MOL0     H35515   1.381   0.041   0.587 -1.2672 -1.4559  1.6866
  982MOL0     H35516   1.430   0.068   0.756 -0.6785  1.2757  0.5404
  983MOL0     O35517   7.876   2.200   9.725 -0.5183 -0.1321 -0.7338
  983MOL0     C35518   7.765   2.212   9.787 -0.6104  0.1649 -0.2732
  983MOL0     O35519   7.735   2.264   9.914  0.4835 -0.7313  0.7606
  983MOL0     C35520   7.834   2.308   9.991 -0.2217  0.2758  0.3858
  983MOL0     C35521   7.912   2.220  10.075 -0.2010  0.5757  0.1101
  983MOL0     C35522   8.022   2.279  10.127 -1.0698  0.8778 -0.6791
  983MOL0     C35523   8.066   2.407  10.115 -0.0878  0.1289  1.0745
  983MOL0     O35524   8.174   2.444  10.190  0.4989  0.1359  0.7700
  983MOL0     C35525   8.236   2.571  10.157  0.5131 -0.1976  0.1145
  983MOL0     C35526   8.357   2.595  10.239  0.0894 -0.1323 -0.2429
  983MOL0     C35527   8.431   2.465  10.281 -0.3520 -1.5248  0.5686
  983MOL0     C35528   8.576   2.502  10.347  0.3601  0.5036  0.3913
  983MOL0     C35529   8.639   2.381  10.419 -0.1650  0.7467 -0.5957
  983MOL0     C35530   8.767   2.427  10.492  0.0491  0.3184  0.1811
  983MOL0     C35531   8.887   2.326  10.492  0.8663  0.2578 -0.2556
  983MOL0     C35532   8.845   2.181  10.545  0.0539  0.0504  0.2608
  983MOL0     N35533   8.951   2.091  10.570  0.3398 -0.3834  0.2346
  983MOL0     C35534   9.043   2.045  10.473  0.1073  0.6146 -0.3934
  983MOL0     C35535   9.136   1.977  10.536  0.3854  0.1961  0.9288
  983MOL0     C35536   9.236   1.892  10.471  0.5639  0.0496 -0.3007
  983MOL0     C35537   9.218   1.744  10.501 -0.2902 -0.0517 -0.8557
  983MOL0     C35538   9.070   1.699  10.472  0.4945 -0.2473 -0.3766
  983MOL0     C35539   9.063   1.557  10.520  0.4736  0.7609 -0.0916
  983MOL0     O35540   9.078   1.542  10.667  0.1502  0.0618  1.2312
  983MOL0     C35541   9.041   1.425  10.720  0.2223 -0.4056 -0.3691
  983MOL0     C35542   8.912   1.378  10.719 -0.7528 -0.2212 -0.1212
  983MOL0     C35543   8.878   1.264  10.785  0.1639  0.8594 -0.4543
  983MOL0     C35544   8.732   1.229  10.790 -0.6223 -0.4641  0.0817
  983MOL0     C35545   8.978   1.184  10.850 -0.2080  0.1759  0.4083
  983MOL0     C35546   8.957   1.069  10.944  0.1990 -0.4838  0.5807
  983MOL0     O35547   9.064   1.026  11.021 -0.2782  0.1442 -0.1524
  983MOL0     C35548   9.043   0.905  11.083  0.3036  0.3133  0.6843
  983MOL0     C35549   9.140   0.810  11.064  0.5030  0.7166  0.0224
  983MOL0     C35550   9.127   0.679  11.125 -0.4143 -1.1495  0.0643
  983MOL0     C35551   9.029   0.651  11.217 -0.6494 -0.0918 -0.3319
  983MOL0     O35552   9.019   0.528  11.270 -0.0858 -0.0027  0.1691
  983MOL0     C35553   8.915   0.501  11.356 -0.2212 -0.0064 -0.1745
  983MOL0     C35554   8.940   0.367  11.419 -0.2636 -0.0521  0.2063
  983MOL0     C35555   8.837   0.344  11.532 -0.9098  0.6507  0.1493
  983MOL0     C35556   8.862   0.214  11.603  0.1011  0.6225  0.5796
  983MOL0     C35557   8.775   0.197  11.729  0.2627 -0.4882 -0.5657
  983MOL0     C35558   8.784   0.058  11.781  0.2284  0.1073 -0.0626
  983MOL0     C35559   8.889   0.046  11.897  0.3135 -0.0972 -0.5076
  983MOL0     C35560   8.908  -0.099  11.946  0.6673  1.4650  0.0668
  983MOL0    Cl35561   8.996  -0.115  12.113  0.4463 -0.0008 -0.3749
  983MOL0     C35562   8.935   0.766  11.236  0.3568  0.0643  0.2349
  983MOL0     C35563   8.950   0.892  11.181  0.4128  0.3047 -0.6411
  983MOL0     O35564   8.839   1.022  10.951  0.1193 -0.0348  0.4206
  983MOL0     C35565   9.118   1.227  10.853 -0.7161 -1.1080  0.7026
  983MOL0     C35566   9.143   1.343  10.776 -0.6020 -0.0973  0.7156
  983MOL0     N35567   9.100   1.982  10.674  0.4380  0.3482  0.2272
  983MOL0     N35568   8.987   2.050  10.692 -0.4551  0.8548  0.5170
  983MOL0     C35569   7.990   2.479  10.026 -0.0904 -0.6820  0.2283
  983MOL0     C35570   7.872   2.437   9.970  0.4285  0.2363  0.5049
  983MOL0     C35571   7.648   2.175   9.710 -0.0845  0.3150  0.0792
  983MOL0     C35572   7.650   2.220   9.582  0.0470 -0.0310 -0.0148
  983MOL0     C35573   7.537   2.199   9.487 -0.3407  1.8362 -1.0642
  983MOL0     C35574   7.420   2.142   9.542  0.2755 -0.0956  0.3336
  983MOL0     O35575   7.310   2.137   9.455  0.3847 -0.6300  0.0647
  983MOL0     C35576   7.181   2.152   9.512  0.0863  0.8155 -0.5134
  983MOL0     C35577   7.096   2.212   9.406  0.4870  0.0897 -0.7124
  983MOL0     C35578   6.968   2.278   9.471 -0.0043 -0.4217 -0.0355
  983MOL0     C35579   6.886   2.313   9.343 -0.6660  0.6903  0.7706
  983MOL0     C35580   6.747   2.328   9.384  1.1523  0.4427  0.1864
  983MOL0     C35581   6.633   2.330   9.412 -0.1781  0.2547  0.1101
  983MOL0     C35582   7.413   2.098   9.674  0.3596 -0.1882  0.2692
  983MOL0     C35583   7.537   2.100   9.749  0.4276  0.4141  0.0581
  983MOL0     C35584   7.521   2.032   9.885 -0.3176 -0.5869  0.2522
  983MOL0     H35585   7.900   2.112  10.081  2.6034  0.0971 -1.3137
  983MOL0     H35586   8.070   2.211  10.197  1.4328  0.4989 -2.6087
  983MOL0     H35587   8.162   2.650  10.172 -1.3030 -1.7675 -0.2360
  983MOL0     H35588   8.272   2.563  10.055  0.6830 -1.5695  0.2583
  983MOL0     H35589   8.426   2.662  10.187  0.5009 -1.2220 -1.1439
  983MOL0     H35590   8.327   2.651  10.328  2.4011 -1.7458  1.6907
  983MOL0     H35591   8.372   2.397  10.343 -0.4237 -1.5513  0.4726
  983MOL0     H35592   8.443   2.406  10.189 -0.6429 -2.3439  1.0489
  983MOL0     H35593   8.640   2.544  10.269 -0.7199 -0.3143 -0.9790
  983MOL0     H35594   8.558   2.577  10.424  1.1103  3.3281 -2.0336
  983MOL0     H35595   8.664   2.295  10.356 -0.3947  1.0410 -1.1017
  983MOL0     H35596   8.565   2.339  10.488  1.7224 -1.2238  0.3518
  983MOL0     H35597   8.809   2.518  10.447  0.3795  2.1125  3.7641
  983MOL0     H35598   8.740   2.452  10.595 -1.1308 -0.7830  0.1593
  983MOL0     H35599   8.981   2.357  10.536  1.5569 -2.2903  0.2012
  983MOL0     H35600   8.904   2.319  10.384  0.2340  2.1398 -0.5189
  983MOL0     H35601   8.765   2.181  10.619  0.4373 -2.6713  0.7840
  983MOL0     H35602   8.790   2.134  10.463 -0.5091  0.9586  0.1023
  983MOL0     H35603   9.033   2.047  10.365 -0.4459  0.2356 -0.3605
  983MOL0     H35604   9.333   1.927  10.509  1.0463 -0.2811 -1.1860
  983MOL0     H35605   9.221   1.905  10.363 -1.0057  2.0672  0.1079
  983MOL0     H35606   9.294   1.685  10.449 -0.9389 -1.1333 -0.5844
  983MOL0     H35607   9.240   1.732  10.608  1.0395  0.8896 -0.9946
  983MOL0     H35608   8.991   1.757  10.521  0.0963 -1.7475  0.8177
  983MOL0     H35609   9.041   1.699  10.366  2.3327  1.0613 -0.9233
  983MOL0     H35610   8.974   1.505  10.482 -0.0005 -0.3684  2.3452
  983MOL0     H35611   9.141   1.499  10.469  3.2447  2.1143  2.3489
  983MOL0     H35612   8.838   1.441  10.671 -0.6600 -0.9319 -1.2499
  983MOL0     H35613   8.698   1.218  10.894 -0.3202 -1.5363  0.0742
  983MOL0     H35614   8.700   1.137  10.742 -3.4981  1.0526 -1.1132
  983MOL0     H35615   8.678   1.319  10.760  1.8664  1.8544  1.9545
  983MOL0     H35616   9.225   0.843  11.006  0.9859  1.4833  1.1214
  983MOL0     H35617   9.200   0.604  11.098  0.3548  0.3509 -2.3308
  983MOL0     H35618   8.921   0.573  11.439 -1.0275 -0.7388  0.5301
  983MOL0     H35619   8.814   0.514  11.317  0.2693 -0.9087 -1.8121
  983MOL0     H35620   8.942   0.289  11.343 -0.6225  0.9874 -0.9033
  983MOL0     H35621   9.044   0.372  11.451  0.2633 -2.3229 -0.9527
  983MOL0     H35622   8.734   0.350  11.495 -1.3961  0.0576  1.3636
  983MOL0     H35623   8.849   0.419  11.610 -1.9794  0.3372  0.6229
  983MOL0     H35624   8.968   0.195  11.627  0.4293  1.3463 -0.2587
  983MOL0     H35625   8.835   0.132  11.537  1.6834  0.3672  0.2007
  983MOL0     H35626   8.800   0.269  11.807 -0.6045 -1.7533  0.9353
  983MOL0     H35627   8.673   0.216  11.694 -0.2732 -1.0793  0.6105
  983MOL0     H35628   8.807  -0.010  11.698 -1.7855 -1.9806  0.9539
  983MOL0     H35629   8.685   0.042  11.824  0.5831 -0.7836  0.4424
  983MOL0     H35630   8.851   0.103  11.983 -0.0892 -0.2088 -0.6054
  983MOL0     H35631   8.984   0.093  11.872 -0.9844  2.0745 -1.7348
  983MOL0     H35632   8.970  -0.157  11.877  1.1828  1.0333  0.8728
  983MOL0     H35633   8.807  -0.142  11.949  1.9848 -1.9955  0.2067
  983MOL0     H35634   8.847   0.758  11.299 -1.0233  1.1824 -1.4542
  983MOL0     H35635   8.873   0.967  11.191 -0.2910 -0.2536 -1.6430
  983MOL0     H35636   9.189   1.190  10.926  1.1077 -1.0948 -0.9786
  983MOL0     H35637   9.243   1.384  10.778 -1.2844  1.6862  0.7443
  983MOL0     H35638   8.012   2.584  10.009  2.2532 -0.8838  1.6438
  983MOL0     H35639   7.809   2.494   9.902  2.1874  2.4731  0.6551
  983MOL0     H35640   7.736   2.272   9.539  0.6096  1.8763  3.1103
  983MOL0     H35641   7.529   2.237   9.385  0.9974  1.5753 -1.2869
  983MOL0     H35642   7.136   2.059   9.548  0.5160 -0.0472 -2.1015
  983MOL0     H35643   7.193   2.222   9.594 -1.3768  1.3977 -0.7802
  983MOL0     H35644   7.072   2.125   9.345 -1.2684 -1.4372  1.9380
  983MOL0     H35645   7.145   2.287   9.343  1.5400 -0.7146 -0.8693
  983MOL0     H35646   6.916   2.204   9.533 -0.9046  0.6345  0.5149
  983MOL0     H35647   6.991   2.375   9.515 -2.0902  1.5109 -2.8280
  983MOL0     H35648   6.905   2.237   9.266 -1.4665 -2.3122  3.3401
  983MOL0     H35649   6.922   2.406   9.298  1.2381 -0.2947  0.1030
  983MOL0     H35650   6.527   2.330   9.426 -0.0920 -0.8960  0.9197
  983MOL0     H35651   7.326   2.052   9.720  0.1815 -1.9552 -1.6964
  983MOL0     H35652   7.451   2.093   9.943  0.0929 -1.4541  1.6888
  983MOL0     H35653   7.483   1.930   9.882 -0.3415 -0.7285  2.9059
  983MOL0     H35654   7.613   2.023   9.943 -1.0290 -3.4454  1.1090
  984MOL0     O35655   0.198   8.024   6.968 -0.4704  0.2222 -0.9752
  984MOL0     C35656   0.142   8.134   6.977  0.8123  0.6448 -0.0444
  984MOL0     O35657   0.087   8.175   7.093 -0.4677  0.1452 -0.9681
  984MOL0     C35658   0.080   8.094   7.203  0.1436 -0.0530 -0.0951
  984MOL0     C35659   0.111   8.145   7.329 -0.2193 -0.0818 -0.0044
  984MOL0     C35660   0.094   8.077   7.446 -0.5772 -0.2444 -0.6980
  984MOL0     C35661   0.036   7.943   7.444 -0.0165  0.3464  0.8472
  984MOL0     O35662   0.016   7.862   7.551  0.0624  0.6619 -0.0233
  984MOL0     C35663   0.022   7.903   7.685 -1.1426 -0.0303  0.3046
  984MOL0     C35664  -0.044   7.804   7.776  0.9013  0.3469  0.2016
  984MOL0     C35665  -0.081   7.859   7.910  0.3982 -0.0818 -0.4859
  984MOL0     C35666  -0.109   7.740   8.008  1.6250 -0.7226  0.4808
  984MOL0     C35667  -0.234   7.671   7.960 -0.3845 -0.7136  0.2651
  984MOL0     C35668  -0.316   7.609   8.082 -0.6415  0.3736 -0.3496
  984MOL0     C35669  -0.273   7.466   8.123 -0.1449 -0.5355  0.5949
  984MOL0     C35670  -0.212   7.471   8.272 -0.5926 -0.0958 -0.0872
  984MOL0     N35671  -0.312   7.499   8.373  0.2703  0.6055  0.8910
  984MOL0     C35672  -0.434   7.428   8.395  0.1909 -0.9870  0.4745
  984MOL0     C35673  -0.481   7.485   8.515  0.1426  0.2396 -0.6434
  984MOL0     C35674  -0.619   7.454   8.577  0.2873 -0.7149 -0.3399
  984MOL0     C35675  -0.695   7.321   8.536 -1.0949  0.5296 -0.7191
  984MOL0     C35676  -0.603   7.190   8.563  0.1895  0.3299  0.4046
  984MOL0     C35677  -0.541   7.176   8.706 -0.9038 -0.1648  0.1185
  984MOL0     O35678  -0.413   7.245   8.714  0.2594  1.1599  0.2282
  984MOL0     C35679  -0.311   7.149   8.711 -0.2573 -0.4792 -0.1141
  984MOL0     C35680  -0.244   7.114   8.822 -0.2141  0.3897 -0.9714
  984MOL0     C35681  -0.135   7.014   8.827  0.0674 -0.1379 -0.4419
  984MOL0     C35682  -0.088   6.970   8.965  1.2244  0.0302  0.6364
  984MOL0     C35683  -0.097   6.962   8.705  0.1524 -0.3231 -0.0542
  984MOL0     C35684   0.018   6.864   8.691 -0.1364 -0.0499  0.8005
  984MOL0     O35685   0.022   6.793   8.575  0.5111  0.1269  0.1718
  984MOL0     C35686   0.124   6.700   8.551  0.0146 -0.3934 -0.5080
  984MOL0     C35687   0.122   6.574   8.607  0.3733  0.0534  0.0261
  984MOL0     C35688   0.222   6.474   8.582  0.5793 -0.6766 -0.0056
  984MOL0     C35689   0.339   6.509   8.510  0.6477 -0.6461  0.0628
  984MOL0     O35690   0.434   6.413   8.487  0.2019  0.5543  0.1364
  984MOL0     C35691   0.563   6.465   8.456  0.4940 -0.4253  0.2490
  984MOL0     C35692   0.684   6.373   8.457  0.4353  0.4053 -0.4876
  984MOL0     C35693   0.673   6.287   8.592 -0.5842 -1.4636  0.4293
  984MOL0     C35694   0.809   6.216   8.633  0.1171 -0.5052  0.5139
  984MOL0     C35695   0.911   6.318   8.681 -0.3203 -0.9156 -0.0017
  984MOL0     C35696   1.028   6.257   8.779  1.0676 -0.4332  0.8248
  984MOL0     C35697   1.157   6.338   8.760 -0.6781 -0.1025  0.3322
  984MOL0     C35698   1.261   6.262   8.666 -0.8160  0.9890 -1.3775
  984MOL0    Cl35699   1.307   6.109   8.756  0.0640  0.2168 -0.5220
  984MOL0     C35700   0.340   6.644   8.461 -0.5680 -0.3702  0.1546
  984MOL0     C35701   0.230   6.733   8.476  0.1747  0.2342 -0.0543
  984MOL0     O35702   0.101   6.851   8.785 -0.3074  0.2672  0.5574
  984MOL0     C35703  -0.174   6.992   8.585 -0.0564  0.3017  0.0026
  984MOL0     C35704  -0.286   7.078   8.590  0.4374 -0.2042  0.0802
  984MOL0     N35705  -0.395   7.587   8.552 -0.5785 -0.0903 -0.5535
  984MOL0     N35706  -0.294   7.600   8.468 -0.2560  0.1941 -0.3109
  984MOL0     C35707   0.007   7.892   7.315 -0.0628  0.2277 -0.7479
  984MOL0     C35708   0.032   7.960   7.191 -0.3331 -0.3764 -0.1610
  984MOL0     C35709   0.125   8.210   6.861 -0.2020 -0.0058 -0.3099
  984MOL0     C35710   0.121   8.149   6.740  0.2752  0.4669  0.2255
  984MOL0     C35711   0.110   8.210   6.610  0.1002 -0.7529 -0.5919
  984MOL0     C35712   0.093   8.348   6.605  0.0139  0.0711 -0.0662
  984MOL0     O35713   0.060   8.422   6.493 -0.1753 -0.6360  0.1924
  984MOL0     C35714   0.038   8.356   6.374 -0.5660  0.4865  0.3137
  984MOL0     C35715  -0.033   8.452   6.274  0.0790  0.0071  0.1052
  984MOL0     C35716  -0.164   8.506   6.335  0.7960  0.5695  0.3616
  984MOL0     C35717  -0.243   8.571   6.222  0.1724 -0.2731 -0.4180
  984MOL0     C35718  -0.179   8.687   6.170  0.0394 -0.9924 -0.1677
  984MOL0     C35719  -0.125   8.784   6.114 -0.2168  0.3706 -0.2907
  984MOL0     C35720   0.110   8.409   6.728 -0.0362 -0.2154 -0.0926
  984MOL0     C35721   0.122   8.350   6.852  0.2970  0.9621  0.3433
  984MOL0     C35722   0.125   8.446   6.973  0.1805 -0.0879 -0.2342
  984MOL0     H35723   0.145   8.247   7.330  0.0150 -0.1424 -1.0349
  984MOL0     H35724   0.117   8.134   7.536 -0.5469 -1.5712  0.1747
  984MOL0     H35725  -0.009   8.007   7.699  2.1249  1.0026  0.8880
  984MOL0     H35726   0.126   7.920   7.714 -2.4327  3.6776  3.8033
  984MOL0     H35727  -0.131   7.762   7.723 -0.7544  1.1184  2.1909
  984MOL0     H35728   0.021   7.718   7.795 -0.3326 -0.1379  2.7118
  984MOL0     H35729   0.003   7.917   7.950 -0.5724 -0.0370  1.5954
  984MOL0     H35730  -0.169   7.923   7.910  0.3963 -0.0526  1.1999
  984MOL0     H35731  -0.021   7.675   8.013  1.6362 -0.7686 -0.1810
  984MOL0     H35732  -0.128   7.776   8.109 -0.2361  3.5557 -1.1316
  984MOL0     H35733  -0.205   7.593   7.889 -0.7057 -1.4480  0.9283
  984MOL0     H35734  -0.295   7.738   7.899  1.7030 -1.1962 -2.5059
  984MOL0     H35735  -0.321   7.689   8.156  1.0441  1.1910 -1.0461
  984MOL0     H35736  -0.416   7.606   8.038 -0.7860  4.0493 -0.5635
  984MOL0     H35737  -0.194   7.427   8.057  2.1319  1.3594  2.0189
  984MOL0     H35738  -0.367   7.411   8.114 -0.1033 -0.8113  1.6645
  984MOL0     H35739  -0.157   7.381   8.301 -2.0011 -1.1160 -0.4667
  984MOL0     H35740  -0.140   7.553   8.274  0.5810 -1.0738  2.9186
  984MOL0     H35741  -0.470   7.341   8.342  1.7220 -2.6072  1.9234
  984MOL0     H35742  -0.696   7.532   8.565  0.1477 -0.6944  0.5979
  984MOL0     H35743  -0.600   7.461   8.684 -2.1014  3.0185  0.0599
  984MOL0     H35744  -0.781   7.310   8.603  0.1465  2.3881  1.2818
  984MOL0     H35745  -0.723   7.307   8.431  2.5712 -0.5458 -1.7279
  984MOL0     H35746  -0.659   7.099   8.539  1.5662 -0.0965 -1.3969
  984MOL0     H35747  -0.528   7.191   8.484  1.0848  0.8971  1.2445
  984MOL0     H35748  -0.601   7.227   8.783  0.8179 -1.1822  2.2450
  984MOL0     H35749  -0.542   7.069   8.728 -3.0246 -0.5832 -1.6913
  984MOL0     H35750  -0.295   7.162   8.904 -4.7377 -1.7764 -2.2266
  984MOL0     H35751  -0.080   6.861   8.973 -1.4440 -0.3982 -1.1237
  984MOL0     H35752  -0.167   6.992   9.037 -1.1429  1.3924 -2.1518
  984MOL0     H35753   0.005   7.018   8.994  2.3722  0.8701 -3.6929
  984MOL0     H35754   0.043   6.548   8.678 -1.2262  1.6464 -1.0893
  984MOL0     H35755   0.217   6.369   8.609 -2.5086 -0.1716  1.7802
  984MOL0     H35756   0.559   6.484   8.348  0.3531 -2.4742 -0.1470
  984MOL0     H35757   0.571   6.556   8.517 -0.1811 -0.4926  0.4452
  984MOL0     H35758   0.663   6.304   8.375 -1.2054 -1.5624  1.5015
  984MOL0     H35759   0.775   6.433   8.441 -0.6785  2.9392  1.9468
  984MOL0     H35760   0.602   6.209   8.567  1.1087 -2.4048 -1.8451
  984MOL0     H35761   0.643   6.349   8.677  1.2062  0.3885 -0.1904
  984MOL0     H35762   0.845   6.157   8.548  0.7055  0.8302 -0.1883
  984MOL0     H35763   0.783   6.142   8.709  0.0278 -0.5712  0.4197
  984MOL0     H35764   0.953   6.369   8.594  1.3898 -0.9598  0.7661
  984MOL0     H35765   0.861   6.389   8.748  1.9222  2.8812 -2.0133
  984MOL0     H35766   1.042   6.151   8.756  0.2125  0.1515 -2.9346
  984MOL0     H35767   0.979   6.279   8.874 -0.3089  2.3926 -0.4388
  984MOL0     H35768   1.208   6.359   8.854 -2.0038  0.6366  0.9036
  984MOL0     H35769   1.137   6.435   8.714  1.0139 -0.1668 -0.6616
  984MOL0     H35770   1.351   6.321   8.644  0.5079  0.0738  1.2089
  984MOL0     H35771   1.222   6.229   8.569  1.4153 -0.5896 -1.8147
  984MOL0     H35772   0.433   6.673   8.415  0.6516 -0.2122  2.5471
  984MOL0     H35773   0.244   6.827   8.423 -0.0208 -0.3867 -1.2357
  984MOL0     H35774  -0.161   6.931   8.496  1.3577  1.4440 -0.6153
  984MOL0     H35775  -0.349   7.095   8.504 -1.1857 -0.8067  1.0861
  984MOL0     H35776  -0.035   7.792   7.305 -1.8309  1.1497 -3.1910
  984MOL0     H35777   0.008   7.906   7.100  0.2557 -2.7974  1.0153
  984MOL0     H35778   0.147   8.044   6.725 -1.4792  0.1744 -1.2182
  984MOL0     H35779   0.101   8.156   6.517 -1.8051  2.6637 -2.6101
  984MOL0     H35780   0.124   8.329   6.313 -2.1346 -0.1136 -1.7443
  984MOL0     H35781  -0.035   8.275   6.386 -1.0942  0.7733 -0.8140
  984MOL0     H35782  -0.061   8.392   6.187 -0.5231  0.0929  0.2374
  984MOL0     H35783   0.033   8.534   6.243 -0.2765  0.2224 -0.0900
  984MOL0     H35784  -0.224   8.425   6.378 -1.6355  1.2833 -1.4326
  984MOL0     H35785  -0.134   8.573   6.417 -1.5644 -2.0649  3.6906
  984MOL0     H35786  -0.345   8.587   6.256  0.1470 -3.5908  1.4681
  984MOL0     H35787  -0.246   8.498   6.141  0.7886 -1.7570  0.8415
  984MOL0     H35788  -0.094   8.864   6.050 -0.9050  0.3031 -0.7245
  984MOL0     H35789   0.100   8.517   6.726 -0.9193 -0.2424  1.2796
  984MOL0     H35790   0.136   8.548   6.933  1.9635  0.2092  0.9222
  984MOL0     H35791   0.029   8.435   7.026  0.9819  0.4430  1.4066
  984MOL0     H35792   0.204   8.420   7.043  0.5425  0.3359 -0.4818
  985MOL0     O35793  10.999   6.423   2.538  0.0642 -0.7482  0.0285
  985MOL0     C35794  11.022   6.321   2.604  0.5435 -0.3610 -0.7896
  985MOL0     O35795  10.999   6.194   2.563 -0.9832  0.1933  0.4411
  985MOL0     C35796  10.985   6.159   2.430 -0.2142 -0.8266 -0.7608
  985MOL0     C35797  10.948   6.029   2.410 -0.4445  0.1183  0.7852
  985MOL0     C35798  10.931   5.980   2.281 -0.2158 -0.5878 -0.5613
  985MOL0     C35799  10.960   6.057   2.170 -0.1725 -0.3080  0.2609
  985MOL0     O35800  10.932   5.983   2.058  1.0398 -0.3027 -0.0597
  985MOL0     C35801  10.983   6.025   1.934 -0.7991 -0.2746  0.0483
  985MOL0     C35802  10.977   5.920   1.825  0.5212  0.0296 -0.2735
  985MOL0     C35803  11.022   5.966   1.681 -0.0505  0.2018  0.3123
  985MOL0     C35804  11.171   6.029   1.658 -0.2699  0.7024  0.2739
  985MOL0     C35805  11.220   6.032   1.518 -0.2083 -1.0892  0.1400
  985MOL0     C35806  11.344   6.118   1.493  0.0153 -0.3795 -0.0658
  985MOL0     C35807  11.411   6.089   1.364  0.2137  0.4658 -0.4819
  985MOL0     C35808  11.526   6.187   1.360 -0.1463 -0.1425 -0.9404
  985MOL0     N35809  11.494   6.329   1.317  0.0208  0.9112  0.4117
  985MOL0     C35810  11.436   6.386   1.204  0.2148 -0.0520  0.0673
  985MOL0     C35811  11.385   6.504   1.240  0.1017 -0.6036  1.1073
  985MOL0     C35812  11.313   6.592   1.130  1.0801 -0.2053  0.0915
  985MOL0     C35813  11.412   6.662   1.034 -0.1502 -0.7285  0.0683
  985MOL0     C35814  11.436   6.595   0.896 -1.0096 -0.0850 -1.2044
  985MOL0     C35815  11.563   6.639   0.829  0.2846 -0.2375  0.2799
  985MOL0     O35816  11.679   6.583   0.891  0.0476  0.4489  0.4195
  985MOL0     C35817  11.739   6.653   0.987  0.6389  0.6349  0.2156
  985MOL0     C35818  11.802   6.773   0.952  0.2702  0.2855 -0.6304
  985MOL0     C35819  11.866   6.848   1.053  0.5070 -0.8800 -0.1691
  985MOL0     C35820  11.938   6.985   1.028 -0.3292  0.3980 -0.1778
  985MOL0     C35821  11.864   6.803   1.185  0.9358 -1.8055  0.7561
  985MOL0     C35822  11.912   6.884   1.293  0.4748 -0.3759  0.2656
  985MOL0     O35823  11.837   6.994   1.321  0.1093  0.7453 -0.2227
  985MOL0     C35824  11.877   7.079   1.419 -0.4895 -1.2420  0.2077
  985MOL0     C35825  11.884   7.215   1.385 -0.4734  1.1128 -0.1585
  985MOL0     C35826  11.929   7.310   1.483 -0.0417 -0.1243  0.1061
  985MOL0     C35827  11.947   7.274   1.616 -0.1236 -0.2758  0.8691
  985MOL0     O35828  11.963   7.376   1.711 -0.2102  0.1003 -0.4870
  985MOL0     C35829  12.088   7.441   1.704 -0.2508  0.2359  0.3774
  985MOL0     C35830  12.171   7.399   1.820 -0.7593 -0.0352 -0.2840
  985MOL0     C35831  12.302   7.472   1.835  0.7431 -0.0450  0.5291
  985MOL0     C35832  12.376   7.427   1.966 -0.4578 -0.2679 -0.0229
  985MOL0     C35833  12.519   7.485   1.958  1.0850 -0.0677  0.2365
  985MOL0     C35834  12.615   7.411   2.037  0.4659  0.5776 -0.1005
  985MOL0     C35835  12.748   7.479   2.018 -0.4375 -0.1865 -0.7543
  985MOL0     C35836  12.766   7.596   2.122 -0.1671 -0.4342  0.2011
  985MOL0    Cl35837  12.902   7.702   2.072 -0.4403  0.2817  0.4137
  985MOL0     C35838  11.915   7.143   1.657  0.5378  0.1351  0.7123
  985MOL0     C35839  11.889   7.046   1.556  0.6239 -0.5931 -0.4778
  985MOL0     O35840  12.019   6.854   1.344 -0.5119 -0.3157 -0.3060
  985MOL0     C35841  11.793   6.685   1.223  0.1610  0.0839 -0.0892
  985MOL0     C35842  11.737   6.604   1.126 -0.3989 -0.1221  0.5530
  985MOL0     N35843  11.429   6.537   1.367 -0.5463  0.0905  0.0314
  985MOL0     N35844  11.490   6.429   1.405  0.5444  0.1709  0.6268
  985MOL0     C35845  10.999   6.192   2.183 -0.2848  0.3318 -0.5376
  985MOL0     C35846  11.006   6.243   2.313  0.3114 -0.5418  0.3071
  985MOL0     C35847  11.058   6.338   2.744 -0.2472  0.2306 -0.0639
  985MOL0     C35848  11.013   6.245   2.835  0.0846  1.4165 -0.1064
  985MOL0     C35849  11.069   6.227   2.965  0.2612  0.8680  0.5038
  985MOL0     C35850  11.155   6.327   3.020 -0.2050 -0.3075 -0.9467
  985MOL0     O35851  11.203   6.322   3.149  0.1034 -0.1077  0.9044
  985MOL0     C35852  11.236   6.192   3.214  0.7733  0.1471  0.1965
  985MOL0     C35853  11.115   6.102   3.267 -0.0530 -0.0109 -0.0297
  985MOL0     C35854  11.117   5.960   3.223 -0.7553  0.3107 -0.0696
  985MOL0     C35855  10.972   5.906   3.232 -0.4897 -0.1839 -0.3285
  985MOL0     C35856  10.973   5.765   3.206  0.3767  0.4120 -0.2591
  985MOL0     C35857  10.955   5.649   3.171 -0.4192 -0.0839  0.0067
  985MOL0     C35858  11.197   6.427   2.929  0.4537 -0.1408 -0.0598
  985MOL0     C35859  11.151   6.430   2.794  0.4672  0.4224 -0.1639
  985MOL0     C35860  11.215   6.543   2.706 -0.3793 -0.4206 -0.3392
  985MOL0     H35861  10.928   5.970   2.498  2.3172 -1.2578  0.6064
  985MOL0     H35862  10.901   5.876   2.277 -2.9112  0.0037  1.5100
  985MOL0     H35863  11.090   6.044   1.952 -0.9289  2.8975 -1.6313
  985MOL0     H35864  10.934   6.117   1.900 -0.7066 -0.0928  0.4059
  985MOL0     H35865  11.027   5.828   1.855 -3.8193 -2.6265 -0.2941
  985MOL0     H35866  10.870   5.897   1.825  0.5107 -0.4296  3.3728
  985MOL0     H35867  11.023   5.869   1.629  2.4309 -0.6153  1.6833
  985MOL0     H35868  10.963   6.044   1.634 -0.0811  0.2874  0.4938
  985MOL0     H35869  11.169   6.127   1.706 -1.2200  0.1406  1.4412
  985MOL0     H35870  11.236   5.970   1.723  0.3492  0.6625 -0.3742
  985MOL0     H35871  11.149   6.056   1.439  1.4871  2.7822 -0.4176
  985MOL0     H35872  11.252   5.929   1.498  0.9293 -0.7273 -0.0071
  985MOL0     H35873  11.317   6.224   1.498  3.1803  0.4926  1.2881
  985MOL0     H35874  11.411   6.100   1.578 -1.3316  2.6852  1.8299
  985MOL0     H35875  11.346   6.097   1.277  2.0321  0.2996 -1.9307
  985MOL0     H35876  11.448   5.986   1.367  0.7114  0.6023 -1.5219
  985MOL0     H35877  11.569   6.198   1.460 -2.3442  1.4517 -0.0713
  985MOL0     H35878  11.611   6.155   1.299  0.6292 -0.8699  0.4431
  985MOL0     H35879  11.429   6.348   1.102 -1.1832 -2.7353  1.0725
  985MOL0     H35880  11.246   6.658   1.184  1.9364  0.0560  0.8718
  985MOL0     H35881  11.249   6.521   1.077 -2.6529 -0.2259  4.1086
  985MOL0     H35882  11.356   6.753   1.012 -0.2106 -0.1693  2.2883
  985MOL0     H35883  11.501   6.696   1.088 -1.6621 -0.2947  2.4167
  985MOL0     H35884  11.438   6.486   0.904 -1.9312 -0.0585  6.0046
  985MOL0     H35885  11.346   6.618   0.837 -0.7843 -0.2554 -1.6158
  985MOL0     H35886  11.559   6.600   0.727  1.9316 -1.1203  0.5239
  985MOL0     H35887  11.571   6.748   0.829 -2.1527  0.2134 -4.7991
  985MOL0     H35888  11.802   6.803   0.847  2.3770 -1.1719 -1.1296
  985MOL0     H35889  11.944   7.009   0.921 -3.9411 -1.5237 -0.9852
  985MOL0     H35890  12.033   6.979   1.081 -0.6352  2.7966  0.8001
  985MOL0     H35891  11.886   7.072   1.071 -1.0508  0.6373 -1.4556
  985MOL0     H35892  11.883   7.242   1.280 -2.4656  2.6184  0.1940
  985MOL0     H35893  11.937   7.415   1.454  1.8022 -0.4035 -0.5244
  985MOL0     H35894  12.148   7.404   1.620  4.2050 -0.5955  3.6036
  985MOL0     H35895  12.070   7.549   1.711 -3.4185 -0.2494  1.0993
  985MOL0     H35896  12.108   7.425   1.905 -0.9537 -3.1776  0.6567
  985MOL0     H35897  12.193   7.293   1.806 -1.4687 -0.2103 -0.1094
  985MOL0     H35898  12.276   7.578   1.837  0.0875 -0.1536 -1.0481
  985MOL0     H35899  12.363   7.455   1.746 -2.5609 -1.8247 -1.6018
  985MOL0     H35900  12.373   7.317   1.967 -0.7666 -0.2988  2.4628
  985MOL0     H35901  12.314   7.461   2.050 -1.8314 -0.6334 -0.8532
  985MOL0     H35902  12.551   7.502   1.855 -1.2035 -0.4555 -0.6073
  985MOL0     H35903  12.513   7.584   2.003  1.5081 -1.3300  3.2783
  985MOL0     H35904  12.627   7.312   1.991  0.7679  0.6184 -0.1122
  985MOL0     H35905  12.597   7.401   2.144 -0.1827 -0.1952 -0.2744
  985MOL0     H35906  12.745   7.534   1.923  2.9023  1.6043 -0.0077
  985MOL0     H35907  12.826   7.404   2.034 -0.5031 -0.3030 -0.9729
  985MOL0     H35908  12.786   7.561   2.224 -1.9675 -0.5187  0.5700
  985MOL0     H35909  12.670   7.647   2.130  0.9952  1.5957  2.0635
  985MOL0     H35910  11.930   7.098   1.754 -0.6144  1.1460  1.3794
  985MOL0     H35911  11.875   6.942   1.583  0.1455 -0.6009 -0.7434
  985MOL0     H35912  11.792   6.654   1.327  1.3106 -1.9481 -0.6378
  985MOL0     H35913  11.676   6.514   1.134 -2.5268  1.0707 -1.3029
  985MOL0     H35914  11.032   6.240   2.092 -1.4727 -0.0112 -1.1724
  985MOL0     H35915  11.038   6.347   2.313  0.1317 -0.2823 -4.3470
  985MOL0     H35916  10.932   6.178   2.809  2.5970 -1.0976 -2.1934
  985MOL0     H35917  11.034   6.136   3.013 -2.9240  1.8487  0.2417
  985MOL0     H35918  11.291   6.131   3.142  2.1845  3.2426 -1.5475
  985MOL0     H35919  11.307   6.189   3.297  1.7340 -1.4389 -0.6376
  985MOL0     H35920  11.020   6.151   3.240 -0.1808 -1.2051 -1.9618
  985MOL0     H35921  11.130   6.098   3.375  2.2300  0.1064 -0.3075
  985MOL0     H35922  11.146   5.947   3.119 -2.7120  1.4142 -0.8017
  985MOL0     H35923  11.181   5.907   3.294 -1.9045  1.2586  1.7698
  985MOL0     H35924  10.910   5.944   3.150 -2.1773  0.4626  1.1853
  985MOL0     H35925  10.921   5.932   3.325  2.0403 -0.7578  1.3029
  985MOL0     H35926  10.943   5.545   3.151 -1.1289  0.4104 -2.5670
  985MOL0     H35927  11.256   6.510   2.968  2.6442 -1.2690 -0.8370
  985MOL0     H35928  11.161   6.550   2.611 -0.0339 -1.6135 -0.6477
  985MOL0     H35929  11.206   6.635   2.764  2.2475 -0.2558 -0.0710
  985MOL0     H35930  11.318   6.523   2.676  0.0155 -0.0745  0.7642
  986MOL0     O35931   4.372   3.069   9.984  0.0300 -0.8862  0.2332
  986MOL0     C35932   4.312   3.078  10.092 -0.4240  0.3019 -0.5398
  986MOL0     O35933   4.187   3.027  10.127  0.2632  0.2944  1.4291
  986MOL0     C35934   4.127   2.932  10.047 -0.0599 -1.0287 -0.1296
  986MOL0     C35935   4.102   2.805  10.101  0.4812 -0.0664 -0.7558
  986MOL0     C35936   4.027   2.713  10.040  0.0128 -0.2642 -0.1642
  986MOL0     C35937   3.965   2.745   9.915  1.0948 -0.3731 -0.2596
  986MOL0     O35938   3.886   2.640   9.857  0.0523 -0.4019  0.7663
  986MOL0     C35939   3.839   2.666   9.728 -0.8146 -0.1669 -0.1201
  986MOL0     C35940   3.749   2.561   9.657  0.3118 -0.0739  0.0498
  986MOL0     C35941   3.693   2.610   9.521  0.4342 -0.4894  0.1368
  986MOL0     C35942   3.602   2.499   9.459 -0.6919  0.0873 -0.1540
  986MOL0     C35943   3.562   2.553   9.322 -0.0452 -0.1537 -0.3600
  986MOL0     C35944   3.468   2.479   9.256  0.7434 -0.0509 -0.5872
  986MOL0     C35945   3.381   2.559   9.161 -0.0623 -0.0633 -0.2419
  986MOL0     C35946   3.470   2.645   9.058  0.9371  0.5357  0.2058
  986MOL0     N35947   3.385   2.712   8.961 -0.7211 -0.1019  0.8638
  986MOL0     C35948   3.279   2.669   8.888  0.1162 -0.3774  0.5750
  986MOL0     C35949   3.262   2.761   8.789  0.9758 -0.1364  0.3607
  986MOL0     C35950   3.204   2.722   8.649  0.2293  0.3031  0.2280
  986MOL0     C35951   3.327   2.691   8.557 -0.7599 -0.2213  0.0834
  986MOL0     C35952   3.373   2.823   8.480  0.9933  0.3001  0.3102
  986MOL0     C35953   3.299   2.846   8.347 -0.3584 -0.6279 -0.7847
  986MOL0     O35954   3.289   2.726   8.266 -0.1150  0.0870 -0.8427
  986MOL0     C35955   3.376   2.674   8.179 -0.3035  0.3408 -0.1328
  986MOL0     C35956   3.350   2.559   8.114 -0.0439 -0.2228 -0.0211
  986MOL0     C35957   3.445   2.512   8.015 -0.3853  0.4221  0.3354
  986MOL0     C35958   3.401   2.405   7.916 -0.3286  1.2025 -0.9959
  986MOL0     C35959   3.580   2.565   8.006  0.5782 -0.2754 -0.3321
  986MOL0     C35960   3.690   2.531   7.909 -0.0670 -0.4773 -0.2953
  986MOL0     O35961   3.787   2.627   7.901 -0.2829 -0.3745  0.8359
  986MOL0     C35962   3.904   2.591   7.843 -0.5438 -1.0034 -0.2709
  986MOL0     C35963   3.906   2.590   7.703  1.2649  0.3499 -0.0337
  986MOL0     C35964   4.022   2.546   7.637 -0.0413 -0.0457 -0.0827
  986MOL0     C35965   4.138   2.498   7.708 -0.4445  0.1437  0.1100
  986MOL0     O35966   4.254   2.443   7.667 -0.1201  0.2462 -0.0582
  986MOL0     C35967   4.295   2.443   7.533 -0.2070 -0.0639  0.0586
  986MOL0     C35968   4.314   2.586   7.475  0.1453 -0.2479 -1.0180
  986MOL0     C35969   4.385   2.579   7.342  0.2809 -0.2192 -0.2136
  986MOL0     C35970   4.308   2.511   7.232 -0.6127 -0.1192 -0.0136
  986MOL0     C35971   4.380   2.521   7.098 -0.0086  0.5884  0.3577
  986MOL0     C35972   4.305   2.441   6.995 -0.9581 -0.7773 -0.3959
  986MOL0     C35973   4.390   2.450   6.862 -0.5612  1.2474 -0.1006
  986MOL0     C35974   4.310   2.389   6.752 -0.3456  0.2067 -0.2234
  986MOL0    Cl35975   4.331   2.222   6.749  0.0312  0.1337  0.2825
  986MOL0     C35976   4.134   2.510   7.851 -0.9712 -0.3801 -0.0993
  986MOL0     C35977   4.020   2.558   7.912 -0.3196 -0.1523  0.3970
  986MOL0     O35978   3.679   2.437   7.833  0.5844  0.0846 -0.4271
  986MOL0     C35979   3.602   2.678   8.084  0.6920 -0.4239 -0.0632
  986MOL0     C35980   3.500   2.732   8.158 -0.6410 -0.0972  0.3664
  986MOL0     N35981   3.357   2.859   8.804  0.2592  0.0585 -1.3736
  986MOL0     N35982   3.434   2.827   8.907  0.1007 -0.0016 -0.2518
  986MOL0     C35983   3.995   2.869   9.862  0.5028  1.1178  0.1719
  986MOL0     C35984   4.083   2.963   9.923 -0.6324  0.1662 -0.9922
  986MOL0     C35985   4.398   3.151  10.191  0.4391 -0.2233 -0.2237
  986MOL0     C35986   4.425   3.079  10.310  0.7405 -0.1120 -0.0613
  986MOL0     C35987   4.513   3.126  10.403  0.3645  0.4230  0.0569
  986MOL0     C35988   4.578   3.244  10.383  0.6232  0.6423 -0.8764
  986MOL0     O35989   4.651   3.287  10.494 -0.4457 -0.0686  0.9127
  986MOL0     C35990   4.717   3.415  10.482 -0.0762 -0.1367  0.2105
  986MOL0     C35991   4.617   3.533  10.503  0.3553  0.0865 -1.1174
  986MOL0     C35992   4.688   3.666  10.497  0.1800  0.2501 -0.0167
  986MOL0     C35993   4.580   3.774  10.489 -0.0023 -0.4588 -0.6262
  986MOL0     C35994   4.515   3.778  10.353 -0.4033 -0.0913  0.6783
  986MOL0     C35995   4.481   3.780  10.236 -0.2760  0.0232  0.1426
  986MOL0     C35996   4.540   3.321  10.272 -0.5631 -0.0427  0.0324
  986MOL0     C35997   4.450   3.277  10.172 -0.1897  0.0899 -0.1111
  986MOL0     C35998   4.426   3.366  10.051 -0.1803  1.1237 -0.8839
  986MOL0     H35999   4.150   2.788  10.197 -0.6393  1.6490  0.1701
  986MOL0     H36000   4.004   2.621  10.093 -0.3926 -0.1972 -0.2237
  986MOL0     H36001   3.929   2.678   9.666 -0.6098  1.4837  0.4568
  986MOL0     H36002   3.775   2.754   9.729 -1.2249 -0.2335  5.2944
  986MOL0     H36003   3.798   2.463   9.657 -0.0303 -0.2475  0.2171
  986MOL0     H36004   3.657   2.547   9.714 -0.3425  0.6379 -0.8192
  986MOL0     H36005   3.636   2.703   9.533 -1.6567 -1.3431 -2.2378
  986MOL0     H36006   3.768   2.636   9.445 -1.3403  2.8572 -0.6783
  986MOL0     H36007   3.657   2.407   9.437 -0.9453  0.2137 -1.4008
  986MOL0     H36008   3.519   2.489   9.529 -0.0709 -0.8374  0.4757
  986MOL0     H36009   3.658   2.559   9.270  0.4169 -1.6412  0.2606
  986MOL0     H36010   3.525   2.655   9.329 -0.4402 -0.3706  1.1489
  986MOL0     H36011   3.524   2.402   9.201 -0.6025 -1.5878  0.0839
  986MOL0     H36012   3.403   2.430   9.329 -0.4913  3.1722  0.6359
  986MOL0     H36013   3.315   2.633   9.207  1.3700  0.1082  1.6740
  986MOL0     H36014   3.317   2.494   9.102  1.1990  0.1074 -1.8799
  986MOL0     H36015   3.516   2.724   9.119 -1.1227  3.2703 -1.5279
  986MOL0     H36016   3.546   2.593   9.000 -0.0009 -1.8335  0.9646
  986MOL0     H36017   3.226   2.575   8.882  1.4001 -1.1428  0.9942
  986MOL0     H36018   3.140   2.794   8.597  1.6885  1.5546  0.1134
  986MOL0     H36019   3.138   2.635   8.657 -2.2227  2.2403  3.6214
  986MOL0     H36020   3.408   2.660   8.624 -1.0121  3.1970  2.1901
  986MOL0     H36021   3.305   2.615   8.481  0.4938 -0.5301  0.0120
  986MOL0     H36022   3.361   2.917   8.534 -0.0374 -0.7449  1.9617
  986MOL0     H36023   3.473   2.799   8.442  0.1779 -1.4413 -0.9038
  986MOL0     H36024   3.202   2.877   8.386  0.9719  2.4444  0.4571
  986MOL0     H36025   3.338   2.930   8.288  1.5657 -0.9268 -0.0030
  986MOL0     H36026   3.251   2.515   8.112  0.4831 -1.4219 -0.8285
  986MOL0     H36027   3.454   2.310   7.930 -3.8948 -0.5499  2.4587
  986MOL0     H36028   3.423   2.443   7.816 -0.9483 -1.5336 -2.2762
  986MOL0     H36029   3.296   2.380   7.934 -0.2177  1.2511 -0.2512
  986MOL0     H36030   3.825   2.621   7.638  0.8538  0.2667  0.4366
  986MOL0     H36031   4.022   2.549   7.528 -0.0802  0.7080 -0.0631
  986MOL0     H36032   4.391   2.392   7.518 -0.4439  0.2988 -3.8427
  986MOL0     H36033   4.226   2.383   7.474 -1.2799  0.3757  0.8414
  986MOL0     H36034   4.218   2.640   7.470  0.3115  0.1041 -0.4801
  986MOL0     H36035   4.374   2.648   7.542 -1.3279  3.0629 -2.5019
  986MOL0     H36036   4.477   2.521   7.355 -1.5863 -4.1766 -2.5898
  986MOL0     H36037   4.403   2.684   7.322  0.4573  0.1666  1.7236
  986MOL0     H36038   4.206   2.550   7.222 -0.3104  0.9532  0.9708
  986MOL0     H36039   4.304   2.403   7.249  1.2173 -0.2271 -0.0618
  986MOL0     H36040   4.363   2.619   7.052 -0.9574 -0.5391 -1.8748
  986MOL0     H36041   4.477   2.473   7.109 -0.9176 -1.0896  1.5272
  986MOL0     H36042   4.209   2.489   6.981 -1.3366 -1.5532 -0.5157
  986MOL0     H36043   4.294   2.340   7.036  3.2474 -0.6781  1.5806
  986MOL0     H36044   4.484   2.395   6.863 -1.9687 -1.3151  0.2679
  986MOL0     H36045   4.393   2.554   6.826 -1.4015  1.2525 -0.1696
  986MOL0     H36046   4.356   2.415   6.656 -0.2712 -1.4743 -0.6656
  986MOL0     H36047   4.203   2.411   6.757 -0.0520  2.0227 -1.2095
  986MOL0     H36048   4.214   2.488   7.920 -1.1326  3.1904  1.4807
  986MOL0     H36049   4.030   2.556   8.020 -0.9716 -2.8881  0.4828
  986MOL0     H36050   3.693   2.737   8.089  1.1236 -0.9695 -1.0639
  986MOL0     H36051   3.531   2.820   8.212 -0.2250  1.4222 -2.1686
  986MOL0     H36052   3.963   2.898   9.762  0.4911 -1.0298 -0.4907
  986MOL0     H36053   4.122   3.053   9.875  0.9336  0.1711  0.2331
  986MOL0     H36054   4.382   2.982  10.333 -1.7366  1.1002  0.8422
  986MOL0     H36055   4.539   3.066  10.490  5.6826 -1.2409 -2.2778
  986MOL0     H36056   4.786   3.424  10.566 -0.9940  0.9936  0.8757
  986MOL0     H36057   4.781   3.422  10.394  3.7771 -3.9979  2.3198
  986MOL0     H36058   4.561   3.528  10.598  0.6200 -2.4218 -1.0087
  986MOL0     H36059   4.537   3.537  10.428  0.8367  2.4440 -1.5764
  986MOL0     H36060   4.764   3.681  10.575 -0.9642  1.0969  0.9897
  986MOL0     H36061   4.747   3.664  10.406  0.1244 -0.2608 -0.0433
  986MOL0     H36062   4.614   3.876  10.511 -2.4634  0.5525 -1.1439
  986MOL0     H36063   4.513   3.757  10.574  0.5622  1.1708  0.1843
  986MOL0     H36064   4.456   3.765  10.132 -3.2011  1.2296  0.5858
  986MOL0     H36065   4.585   3.419  10.259 -0.3598 -0.2388 -0.7921
  986MOL0     H36066   4.323   3.351  10.016 -1.8103 -1.5001  4.1066
  986MOL0     H36067   4.431   3.469  10.089 -1.9408  0.1187  2.4373
  986MOL0     H36068   4.498   3.344   9.971  2.1206  0.2613  1.2930
  987MOL0     O36069   0.855   6.105   5.708 -0.1784 -0.5836  0.5359
  987MOL0     C36070   0.766   6.100   5.629  0.1771 -0.1614  0.2845
  987MOL0     O36071   0.670   6.007   5.614 -0.2865  0.2773  0.4997
  987MOL0     C36072   0.699   5.878   5.640  0.5567 -1.0093 -1.1002
  987MOL0     C36073   0.828   5.812   5.658  0.4556  0.1045 -0.3847
  987MOL0     C36074   0.839   5.686   5.699 -0.0023  0.1359  0.2885
  987MOL0     C36075   0.721   5.604   5.711 -0.3701  0.3612  0.1623
  987MOL0     O36076   0.731   5.472   5.740 -0.1512 -0.3264 -0.1376
  987MOL0     C36077   0.638   5.374   5.693 -1.2486 -0.8485 -0.1594
  987MOL0     C36078   0.646   5.350   5.543  0.3403 -0.6603  0.3199
  987MOL0     C36079   0.568   5.226   5.510 -0.4343  0.2268 -0.4125
  987MOL0     C36080   0.468   5.235   5.391  0.2714 -1.0440 -0.7721
  987MOL0     C36081   0.354   5.330   5.430  0.5711  0.3109 -0.8908
  987MOL0     C36082   0.291   5.395   5.307  0.2021 -0.9051  0.5436
  987MOL0     C36083   0.357   5.525   5.257 -0.1818  0.0269 -0.6612
  987MOL0     C36084   0.331   5.642   5.359 -0.5372  0.3546 -0.3053
  987MOL0     N36085   0.367   5.766   5.289 -0.3818 -1.2872 -0.5273
  987MOL0     C36086   0.282   5.868   5.247 -0.2668  0.7837  0.2898
  987MOL0     C36087   0.356   5.972   5.220 -0.9178  0.0800  0.4336
  987MOL0     C36088   0.300   6.111   5.165 -0.0281  0.2977 -1.1378
  987MOL0     C36089   0.392   6.144   5.055  0.0419 -0.1184  0.3133
  987MOL0     C36090   0.365   6.282   4.994 -0.0915  0.2507  0.0356
  987MOL0     C36091   0.458   6.298   4.879  0.3132 -0.7259 -1.1431
  987MOL0     O36092   0.419   6.402   4.792  1.2361  0.6747  0.0866
  987MOL0     C36093   0.470   6.525   4.805  0.5462 -0.6997 -0.5089
  987MOL0     C36094   0.383   6.626   4.847 -0.3408 -0.3980  0.5000
  987MOL0     C36095   0.418   6.764   4.856  0.2961 -0.1980  0.7741
  987MOL0     C36096   0.328   6.869   4.921 -0.6314  0.6363  0.5397
  987MOL0     C36097   0.542   6.797   4.792  0.0156 -0.8672  0.0074
  987MOL0     C36098   0.584   6.949   4.774 -0.0806  0.0606  0.8124
  987MOL0     O36099   0.718   6.970   4.775  0.1753  0.0576  0.8892
  987MOL0     C36100   0.760   7.097   4.767 -0.1576  0.3267 -1.0301
  987MOL0     C36101   0.750   7.182   4.875 -0.8271  0.8911  0.2880
  987MOL0     C36102   0.794   7.313   4.871  0.1923  0.1376 -0.7262
  987MOL0     C36103   0.859   7.359   4.756  0.5010 -0.3145 -0.1673
  987MOL0     O36104   0.917   7.488   4.748 -0.6918  0.4526 -0.3056
  987MOL0     C36105   1.028   7.519   4.837 -0.3570  0.3526  0.5395
  987MOL0     C36106   1.036   7.670   4.872  0.3755  0.8722  0.3180
  987MOL0     C36107   0.907   7.701   4.948  0.0212  0.7861  0.3257
  987MOL0     C36108   0.930   7.849   5.008  0.5213 -0.9268  0.1357
  987MOL0     C36109   0.796   7.905   5.039 -0.1833 -0.3580 -0.2197
  987MOL0     C36110   0.827   8.043   5.096  0.1587 -1.0181 -0.2319
  987MOL0     C36111   0.689   8.102   5.149 -0.9693 -0.2667  1.1554
  987MOL0     C36112   0.659   8.035   5.286  0.1805 -0.4006 -0.7082
  987MOL0    Cl36113   0.524   8.111   5.338  0.2620  0.5985 -0.5035
  987MOL0     C36114   0.865   7.272   4.643  0.5280 -0.1150  0.9352
  987MOL0     C36115   0.818   7.143   4.648 -0.4208 -0.7031 -0.0086
  987MOL0     O36116   0.500   7.032   4.768 -0.7173  0.3622  0.1183
  987MOL0     C36117   0.634   6.697   4.755 -0.4299  0.5127 -1.1837
  987MOL0     C36118   0.602   6.558   4.763 -0.2472 -0.3185  1.0021
  987MOL0     N36119   0.490   5.944   5.244 -0.6346 -0.1167 -0.1603
  987MOL0     N36120   0.492   5.822   5.290  0.6963 -0.5347  0.1705
  987MOL0     C36121   0.596   5.663   5.671  0.8462 -0.4929  0.4421
  987MOL0     C36122   0.582   5.798   5.638 -0.3195 -0.8933 -0.6341
  987MOL0     C36123   0.739   6.227   5.553  0.0533 -0.6185 -1.3492
  987MOL0     C36124   0.627   6.226   5.466 -0.3414  1.3703  0.0851
  987MOL0     C36125   0.608   6.325   5.376 -0.0348 -0.8848 -0.0768
  987MOL0     C36126   0.686   6.438   5.382 -0.6802  0.2669 -0.0192
  987MOL0     O36127   0.672   6.545   5.309  0.3771 -0.1661 -0.4907
  987MOL0     C36128   0.653   6.544   5.162 -0.6035  0.1113 -0.8482
  987MOL0     C36129   0.765   6.623   5.108 -0.9817 -0.7297  0.5943
  987MOL0     C36130   0.742   6.764   5.159  0.3267  0.0989 -0.3560
  987MOL0     C36131   0.858   6.844   5.084  0.0577  0.2391 -0.0171
  987MOL0     C36132   0.881   6.977   5.139 -0.0836 -0.0714  0.3805
  987MOL0     C36133   0.892   7.083   5.194  0.0043  0.3236  0.2250
  987MOL0     C36134   0.784   6.449   5.476  0.5411  0.1704 -0.5095
  987MOL0     C36135   0.819   6.345   5.566 -0.4529 -0.0965  0.5223
  987MOL0     C36136   0.932   6.370   5.663  0.4583 -0.2520  0.5761
  987MOL0     H36137   0.920   5.870   5.655  1.1433 -0.9559 -0.1372
  987MOL0     H36138   0.939   5.647   5.714 -0.7175 -2.1366 -0.4805
  987MOL0     H36139   0.543   5.396   5.741  0.1415  1.1929  1.9016
  987MOL0     H36140   0.678   5.285   5.743 -0.8625  0.1283  1.3778
  987MOL0     H36141   0.620   5.444   5.492  1.4381  0.5704  1.9111
  987MOL0     H36142   0.748   5.334   5.507 -0.0978 -0.6051 -0.9975
  987MOL0     H36143   0.645   5.151   5.490  1.6276  2.3636 -0.8682
  987MOL0     H36144   0.525   5.192   5.605  3.7472  0.5880  1.8713
  987MOL0     H36145   0.520   5.264   5.299  0.4123 -0.3099 -0.4730
  987MOL0     H36146   0.422   5.137   5.374  2.5884 -1.8201 -3.2831
  987MOL0     H36147   0.387   5.409   5.499 -0.5634 -1.7057  2.1889
  987MOL0     H36148   0.277   5.281   5.491  2.3433  0.6162  1.7566
  987MOL0     H36149   0.276   5.320   5.229  2.1705  0.2286 -1.0205
  987MOL0     H36150   0.190   5.413   5.345 -0.3511 -4.4310  1.1209
  987MOL0     H36151   0.315   5.542   5.158  0.2841 -1.5487 -1.1574
  987MOL0     H36152   0.461   5.502   5.230 -0.8737 -1.8004 -1.9266
  987MOL0     H36153   0.225   5.651   5.383 -0.0164  2.9976  1.4144
  987MOL0     H36154   0.395   5.632   5.447  1.1582 -0.5739 -1.5745
  987MOL0     H36155   0.174   5.857   5.243 -0.2274  0.6894 -1.1077
  987MOL0     H36156   0.301   6.191   5.240  1.4542 -1.2260  0.5746
  987MOL0     H36157   0.192   6.106   5.147 -0.4042 -0.9587  1.0215
  987MOL0     H36158   0.495   6.161   5.088  0.7692  2.9503 -2.9969
  987MOL0     H36159   0.396   6.062   4.982  2.0036  0.4246 -0.2508
  987MOL0     H36160   0.261   6.281   4.960  0.1556 -1.7004 -0.8234
  987MOL0     H36161   0.375   6.363   5.066  2.2496  0.3463 -0.3135
  987MOL0     H36162   0.560   6.317   4.912 -0.2055 -1.3313  0.9329
  987MOL0     H36163   0.449   6.204   4.824 -0.6325 -0.2779 -1.7816
  987MOL0     H36164   0.282   6.608   4.880 -0.5894 -4.4002 -1.7886
  987MOL0     H36165   0.283   6.944   4.856 -0.7703 -0.4482 -0.6564
  987MOL0     H36166   0.383   6.923   4.999  1.4332 -3.4279  2.2155
  987MOL0     H36167   0.247   6.813   4.968  0.2562 -0.3130  0.9871
  987MOL0     H36168   0.708   7.143   4.967  1.8879  1.0572  1.7112
  987MOL0     H36169   0.785   7.365   4.965 -2.4298 -2.6212  0.7305
  987MOL0     H36170   1.034   7.476   4.937  0.3445  2.4691  1.4692
  987MOL0     H36171   1.120   7.488   4.786 -0.9667 -1.7689  0.6214
  987MOL0     H36172   1.129   7.694   4.924  0.6984  1.4467 -0.5182
  987MOL0     H36173   1.032   7.730   4.781 -0.7473  0.3894  0.0260
  987MOL0     H36174   0.888   7.630   5.029  0.9574  1.6941  1.3701
  987MOL0     H36175   0.825   7.692   4.877 -0.0335 -0.1732  0.4926
  987MOL0     H36176   0.986   7.919   4.946 -2.5398  0.4173 -1.3471
  987MOL0     H36177   0.993   7.843   5.097  0.9190  0.5462 -0.0245
  987MOL0     H36178   0.744   7.933   4.946  3.1182  2.6329 -1.4201
  987MOL0     H36179   0.742   7.847   5.114  4.1821 -0.5495  3.2254
  987MOL0     H36180   0.861   8.111   5.017  1.6475 -2.7343 -1.1595
  987MOL0     H36181   0.911   8.043   5.165 -0.3790 -0.7343  0.4356
  987MOL0     H36182   0.611   8.093   5.072  0.0275 -0.3983  0.1305
  987MOL0     H36183   0.718   8.206   5.164  2.3516 -0.9205  0.0042
  987MOL0     H36184   0.736   8.064   5.358 -0.1703  0.8737 -0.8324
  987MOL0     H36185   0.635   7.928   5.287 -0.0552 -0.3451  0.0578
  987MOL0     H36186   0.909   7.294   4.546  1.0401 -1.2712  0.8908
  987MOL0     H36187   0.826   7.075   4.564 -0.6761 -3.1867  1.8670
  987MOL0     H36188   0.729   6.730   4.713  2.4806 -2.4883  2.3139
  987MOL0     H36189   0.669   6.487   4.715  2.7469  3.9223 -1.8545
  987MOL0     H36190   0.503   5.607   5.669 -0.0991  1.0295  0.2359
  987MOL0     H36191   0.484   5.838   5.618  0.2936  1.4624  0.6400
  987MOL0     H36192   0.562   6.142   5.442  4.2174 -2.6395  0.1984
  987MOL0     H36193   0.525   6.311   5.308 -0.8078 -1.9977  1.0334
  987MOL0     H36194   0.669   6.439   5.137 -0.6014 -0.4812  1.3930
  987MOL0     H36195   0.554   6.578   5.131 -1.2739  2.4095  3.1650
  987MOL0     H36196   0.758   6.629   4.998 -1.3741  0.2331  0.6610
  987MOL0     H36197   0.866   6.588   5.127 -0.3123  1.8841  2.4108
  987MOL0     H36198   0.641   6.797   5.131  0.2527  1.4051  1.2759
  987MOL0     H36199   0.747   6.771   5.268  0.3899 -0.4950 -0.3225
  987MOL0     H36200   0.830   6.844   4.978 -1.1875  0.9698  0.2935
  987MOL0     H36201   0.953   6.789   5.086 -1.5903 -2.9021 -1.5688
  987MOL0     H36202   0.909   7.174   5.249  0.3540  0.4183 -0.0365
  987MOL0     H36203   0.842   6.539   5.490 -0.6907  0.6578  2.2140
  987MOL0     H36204   0.954   6.477   5.661 -1.9696  0.3545  1.7370
  987MOL0     H36205   0.909   6.339   5.765 -0.0388 -2.5005 -0.1547
  987MOL0     H36206   1.023   6.318   5.633  0.1864 -0.7345  0.5825
  988MOL0     O36207   8.734   7.404   1.510 -0.0926 -0.3180 -0.3292
  988MOL0     C36208   8.670   7.506   1.523 -0.5517  0.3019  0.7679
  988MOL0     O36209   8.622   7.578   1.417 -0.5786  0.2417 -0.2842
  988MOL0     C36210   8.540   7.682   1.424 -0.2496  0.2878 -0.3901
  988MOL0     C36211   8.597   7.807   1.412  0.6260 -1.4776  0.5434
  988MOL0     C36212   8.509   7.922   1.415  0.1357  1.1081  0.2460
  988MOL0     C36213   8.374   7.905   1.412  0.2506 -0.1330  0.1924
  988MOL0     O36214   8.286   8.013   1.380 -1.4357 -0.5628  0.2042
  988MOL0     C36215   8.161   7.987   1.309 -0.6579 -1.0917  0.7955
  988MOL0     C36216   8.106   8.114   1.250  0.4079 -0.2188  0.4170
  988MOL0     C36217   8.017   8.084   1.130 -0.0061  0.1440 -0.6912
  988MOL0     C36218   7.991   8.216   1.058  0.0033 -0.4917 -0.5509
  988MOL0     C36219   7.869   8.217   0.951  0.3986 -0.2560  0.2711
  988MOL0     C36220   7.728   8.197   1.020 -0.1474  0.2675 -0.0849
  988MOL0     C36221   7.610   8.184   0.919  0.2319 -0.4807 -0.0252
  988MOL0     C36222   7.528   8.317   0.914  0.9119  0.0733  0.3475
  988MOL0     N36223   7.472   8.350   1.047  0.4720 -0.0565 -0.4592
  988MOL0     C36224   7.378   8.275   1.119 -0.4932  0.2081  0.2904
  988MOL0     C36225   7.361   8.342   1.236  0.1753 -0.3299 -0.6726
  988MOL0     C36226   7.280   8.285   1.362 -0.7878  0.3292  0.5826
  988MOL0     C36227   7.183   8.174   1.329 -0.6003  0.6295 -0.2709
  988MOL0     C36228   7.091   8.144   1.451  0.5724 -0.3448  0.8546
  988MOL0     C36229   7.017   8.018   1.432  0.2272  0.2757  0.6061
  988MOL0     O36230   6.910   8.018   1.337 -0.4231 -0.7652  0.2472
  988MOL0     C36231   6.856   7.898   1.314  0.6323 -0.1940  0.7247
  988MOL0     C36232   6.743   7.896   1.234  0.1076  0.0620 -0.8691
  988MOL0     C36233   6.669   7.776   1.201 -0.3035 -0.1426  0.5965
  988MOL0     C36234   6.537   7.812   1.120 -0.6507  0.7515  0.3182
  988MOL0     C36235   6.718   7.652   1.247 -0.2987 -0.4113  0.1529
  988MOL0     C36236   6.651   7.524   1.190 -0.0460 -0.0104 -0.5969
  988MOL0     O36237   6.681   7.410   1.259  1.4945 -0.2423  0.8699
  988MOL0     C36238   6.628   7.294   1.207 -0.1143  0.6058 -0.5822
  988MOL0     C36239   6.496   7.263   1.177 -0.0517 -0.8385  0.2306
  988MOL0     C36240   6.447   7.152   1.126 -0.8232  0.2805  0.3693
  988MOL0     C36241   6.542   7.045   1.102 -0.7477  0.4858  0.2829
  988MOL0     O36242   6.494   6.918   1.073 -0.1167  0.0098  0.4408
  988MOL0     C36243   6.420   6.901   0.950  0.4143 -1.0670  0.1690
  988MOL0     C36244   6.350   6.762   0.942  0.5143  0.9156 -0.4094
  988MOL0     C36245   6.233   6.779   1.040 -0.5214 -0.1669 -1.2692
  988MOL0     C36246   6.163   6.642   1.062 -0.7229 -0.6676 -0.2082
  988MOL0     C36247   6.067   6.611   0.945 -0.1901  0.2705  0.2817
  988MOL0     C36248   6.030   6.462   0.922 -0.3725  0.4845 -0.0368
  988MOL0     C36249   6.004   6.383   1.052  0.3952  0.1822  0.2001
  988MOL0     C36250   6.025   6.242   1.024  0.1095  0.2478 -0.1262
  988MOL0    Cl36251   5.957   6.149   1.174 -0.1907 -0.2041 -0.2012
  988MOL0     C36252   6.679   7.065   1.138  0.0813  0.4472 -0.5179
  988MOL0     C36253   6.719   7.187   1.193 -0.0358  0.3920  0.6353
  988MOL0     O36254   6.591   7.531   1.078 -0.1384 -0.0911  0.6563
  988MOL0     C36255   6.831   7.652   1.334  0.3482 -0.1465 -0.2807
  988MOL0     C36256   6.901   7.771   1.365  0.7869 -1.5482  0.6017
  988MOL0     N36257   7.436   8.455   1.231 -0.4993 -0.1632 -0.5334
  988MOL0     N36258   7.494   8.471   1.113 -0.3071 -0.1077  0.3515
  988MOL0     C36259   8.318   7.773   1.423  0.7442  0.3499 -0.4291
  988MOL0     C36260   8.399   7.667   1.438 -0.0581 -0.1193  0.4870
  988MOL0     C36261   8.624   7.531   1.668 -0.7154 -1.0974 -0.3244
  988MOL0     C36262   8.684   7.647   1.739 -0.4223  0.5631  0.6089
  988MOL0     C36263   8.655   7.670   1.875 -0.0707  0.2754  0.1536
  988MOL0     C36264   8.575   7.576   1.948 -0.7613  0.2604  0.5229
  988MOL0     O36265   8.541   7.605   2.079  0.0541  0.2952 -0.1909
  988MOL0     C36266   8.644   7.642   2.179  0.7644 -0.3604 -0.5056
  988MOL0     C36267   8.581   7.670   2.318 -0.3585 -0.0195 -0.5861
  988MOL0     C36268   8.475   7.572   2.364  0.3200  0.4296  0.1370
  988MOL0     C36269   8.515   7.424   2.380 -0.1037  0.1331  0.9108
  988MOL0     C36270   8.605   7.419   2.490 -0.0449  0.0413 -0.5929
  988MOL0     C36271   8.680   7.416   2.590 -0.0120  0.8048  0.7798
  988MOL0     C36272   8.519   7.472   1.874 -0.9677 -0.3608 -0.1451
  988MOL0     C36273   8.543   7.451   1.734 -0.7667  0.0512 -0.0737
  988MOL0     C36274   8.463   7.338   1.670  0.6349 -0.2733  0.3349
  988MOL0     H36275   8.703   7.823   1.401  0.0909  1.7769 -0.9458
  988MOL0     H36276   8.554   8.019   1.394  2.5307 -0.1226 -0.7485
  988MOL0     H36277   8.098   7.943   1.387 -0.6917 -0.1523  1.3206
  988MOL0     H36278   8.178   7.916   1.228  1.8439 -0.2331  0.4884
  988MOL0     H36279   8.063   8.179   1.327 -0.2388 -0.6015  0.3891
  988MOL0     H36280   8.201   8.155   1.214  0.0808 -0.6739 -1.0339
  988MOL0     H36281   8.060   8.005   1.067 -2.9552 -1.4475 -0.9035
  988MOL0     H36282   7.918   8.049   1.162 -0.2043  0.9393 -0.4282
  988MOL0     H36283   7.958   8.288   1.133 -1.1842 -1.6414  0.0730
  988MOL0     H36284   8.076   8.246   0.995 -0.4823 -0.3752 -1.1639
  988MOL0     H36285   7.887   8.145   0.870 -3.0139  2.9715 -3.8660
  988MOL0     H36286   7.862   8.311   0.896  1.8274 -1.5598 -2.3417
  988MOL0     H36287   7.727   8.100   1.071  2.4118 -1.7718 -3.4460
  988MOL0     H36288   7.727   8.278   1.093  2.1019  0.9222 -0.6924
  988MOL0     H36289   7.545   8.103   0.955 -1.4406  0.8065  0.0074
  988MOL0     H36290   7.637   8.171   0.814  0.6922  0.5799 -0.0478
  988MOL0     H36291   7.598   8.399   0.894  2.2946 -0.5989  2.0994
  988MOL0     H36292   7.460   8.309   0.829  1.1849  1.6504 -0.0447
  988MOL0     H36293   7.336   8.176   1.099 -2.1329  0.7126  1.0685
  988MOL0     H36294   7.216   8.363   1.403 -4.3787 -2.7071  1.3648
  988MOL0     H36295   7.361   8.257   1.429 -2.3233  0.4396  2.5730
  988MOL0     H36296   7.122   8.211   1.246 -0.8012 -0.4790 -0.6403
  988MOL0     H36297   7.235   8.079   1.311  1.6490  1.6676  0.4950
  988MOL0     H36298   7.154   8.125   1.539 -0.8240 -1.3826  1.6599
  988MOL0     H36299   7.023   8.228   1.466 -0.5196 -1.0973  0.2418
  988MOL0     H36300   7.091   7.945   1.398  1.0330  1.4955 -0.3591
  988MOL0     H36301   6.988   7.983   1.531  3.6902 -4.8517  0.2019
  988MOL0     H36302   6.694   7.988   1.206 -2.1873 -0.0495  2.3800
  988MOL0     H36303   6.458   7.752   1.167 -0.9639  0.9575  0.0550
  988MOL0     H36304   6.560   7.797   1.014  2.7540  1.5965  0.8233
  988MOL0     H36305   6.514   7.919   1.121 -0.8848  0.7076 -0.1358
  988MOL0     H36306   6.431   7.347   1.197  1.1115  0.6473 -1.8488
  988MOL0     H36307   6.344   7.151   1.092 -0.8729 -0.4738  0.5139
  988MOL0     H36308   6.345   6.979   0.931 -0.1782 -1.1319  2.0858
  988MOL0     H36309   6.494   6.911   0.870 -2.4156  2.5484 -2.3658
  988MOL0     H36310   6.313   6.729   0.845 -1.3868 -0.7479  0.8064
  988MOL0     H36311   6.430   6.694   0.972  2.0043  2.0778 -1.5381
  988MOL0     H36312   6.166   6.854   0.996 -0.4518  0.0500 -1.0088
  988MOL0     H36313   6.259   6.815   1.140  1.8924  1.2330 -2.3045
  988MOL0     H36314   6.108   6.650   1.156 -1.7190 -1.3222 -0.7164
  988MOL0     H36315   6.240   6.565   1.064 -0.7171 -0.6814 -0.8401
  988MOL0     H36316   5.981   6.678   0.943  0.4575  1.1641 -2.1952
  988MOL0     H36317   6.109   6.629   0.845 -0.5028 -1.5655 -0.2273
  988MOL0     H36318   6.109   6.414   0.863  0.5597 -1.1603  2.3721
  988MOL0     H36319   5.937   6.469   0.865 -0.2162  1.0549 -0.2276
  988MOL0     H36320   5.904   6.395   1.094  0.7908 -0.9078  1.5397
  988MOL0     H36321   6.074   6.412   1.131  0.3847 -0.5373  0.4756
  988MOL0     H36322   6.133   6.232   1.016  0.1067  1.5349 -2.8230
  988MOL0     H36323   5.973   6.216   0.931 -2.4823 -0.2251  1.3439
  988MOL0     H36324   6.740   6.976   1.142  0.1934  0.5510  0.5972
  988MOL0     H36325   6.823   7.205   1.219 -0.0260  1.5005 -0.0964
  988MOL0     H36326   6.837   7.554   1.381 -0.8888 -0.7334 -1.2600
  988MOL0     H36327   6.991   7.769   1.427  1.2230  0.3240  0.0792
  988MOL0     H36328   8.212   7.752   1.426  0.5482  1.3769  0.3150
  988MOL0     H36329   8.362   7.568   1.463  1.2555 -0.1770  2.4490
  988MOL0     H36330   8.740   7.718   1.680 -0.0934 -1.7984 -2.1917
  988MOL0     H36331   8.694   7.757   1.926  0.9820  0.1766 -0.4491
  988MOL0     H36332   8.720   7.565   2.198  0.2345 -0.5298  1.1387
  988MOL0     H36333   8.690   7.738   2.154  0.8592  0.5249  2.6247
  988MOL0     H36334   8.529   7.766   2.327  2.1409  1.2674  0.9160
  988MOL0     H36335   8.656   7.692   2.394 -0.2891  1.5749 -1.0729
  988MOL0     H36336   8.442   7.607   2.462  2.7099 -0.0660  1.1860
  988MOL0     H36337   8.395   7.562   2.290  0.8257 -1.1960 -0.2183
  988MOL0     H36338   8.566   7.389   2.290  1.0847  1.8210  0.8776
  988MOL0     H36339   8.432   7.358   2.409 -0.2801  0.2715  0.7327
  988MOL0     H36340   8.743   7.390   2.673  3.1934 -2.0599 -2.2181
  988MOL0     H36341   8.453   7.398   1.918  0.9748 -0.9066  2.0497
  988MOL0     H36342   8.375   7.375   1.616  0.3831 -3.4907 -1.7206
  988MOL0     H36343   8.524   7.276   1.604 -0.6970 -0.0347 -1.1826
  988MOL0     H36344   8.422   7.272   1.746 -1.9457 -0.1001 -0.8038
  989MOL0     O36345   9.231   7.584   2.142 -0.0653 -0.2578 -0.2548
  989MOL0     C36346   9.132   7.611   2.071  0.1469  0.2401  0.2394
  989MOL0     O36347   9.010   7.662   2.109  0.6515 -0.7679  1.4793
  989MOL0     C36348   8.991   7.703   2.231  0.4180 -0.3948  0.7383
  989MOL0     C36349   8.993   7.604   2.335 -0.8797 -0.0015 -0.3919
  989MOL0     C36350   8.958   7.631   2.467 -0.0342  0.5155 -0.4436
  989MOL0     C36351   8.930   7.773   2.489  0.5842 -0.2218  0.8362
  989MOL0     O36352   8.893   7.802   2.615  0.6661  0.8907 -0.5490
  989MOL0     C36353   8.753   7.802   2.643 -0.7051  0.5222 -0.1044
  989MOL0     C36354   8.719   7.864   2.779  0.2531  0.5762  0.0690
  989MOL0     C36355   8.744   7.767   2.898  0.4429 -1.0326  0.5948
  989MOL0     C36356   8.690   7.625   2.880  0.5114 -0.6279  0.0240
  989MOL0     C36357   8.547   7.626   2.836  0.3275 -1.2280 -0.6672
  989MOL0     C36358   8.461   7.504   2.880  0.3711  0.8227 -0.0787
  989MOL0     C36359   8.312   7.511   2.841 -0.6399  0.3070 -0.2958
  989MOL0     C36360   8.284   7.506   2.688  0.2640 -0.2297 -0.1516
  989MOL0     N36361   8.137   7.533   2.665 -0.3517  1.1405  0.5386
  989MOL0     C36362   8.065   7.651   2.678 -0.3481  0.0996 -0.2202
  989MOL0     C36363   7.937   7.616   2.650 -0.7927 -1.3474 -0.8311
  989MOL0     C36364   7.828   7.720   2.670 -0.6226 -0.4366  0.4930
  989MOL0     C36365   7.722   7.709   2.552 -0.1696 -0.2955  0.3230
  989MOL0     C36366   7.618   7.830   2.541  0.2602 -0.1555  0.4204
  989MOL0     C36367   7.535   7.828   2.413  0.4793 -0.0539  0.4465
  989MOL0     O36368   7.440   7.936   2.408 -0.2037  0.1444  0.0132
  989MOL0     C36369   7.343   7.948   2.501 -0.0918 -0.0286 -0.1726
  989MOL0     C36370   7.340   8.049   2.601 -0.2281  0.1467 -0.1369
  989MOL0     C36371   7.230   8.062   2.685  0.5019 -0.0247  0.3947
  989MOL0     C36372   7.224   8.156   2.797  0.2093 -0.7940 -1.1744
  989MOL0     C36373   7.120   7.972   2.677 -0.0948 -0.2826 -1.2345
  989MOL0     C36374   6.994   7.975   2.760 -0.0775 -0.2702 -0.1035
  989MOL0     O36375   6.867   7.969   2.701 -0.6013  0.1506  0.3632
  989MOL0     C36376   6.748   7.957   2.765  1.0905 -0.3708 -0.7381
  989MOL0     C36377   6.645   7.903   2.689  0.3025  0.4842  0.0725
  989MOL0     C36378   6.517   7.897   2.741 -1.1871 -0.0393 -0.0177
  989MOL0     C36379   6.493   7.932   2.882 -0.6366  0.4205 -0.1080
  989MOL0     O36380   6.372   7.922   2.934 -0.0329  0.5768  0.1539
  989MOL0     C36381   6.248   7.901   2.859  0.1166  0.7294  0.1817
  989MOL0     C36382   6.143   7.938   2.964  0.1855 -0.5248 -0.2852
  989MOL0     C36383   6.008   7.874   2.953  0.4027  0.6367 -0.0644
  989MOL0     C36384   5.902   7.920   3.064 -0.2424  0.3824  0.3025
  989MOL0     C36385   5.762   7.880   3.014 -0.2763  0.2093  0.1437
  989MOL0     C36386   5.703   7.938   2.876  0.0218 -0.1011 -0.5041
  989MOL0     C36387   5.701   8.094   2.882  0.2022  0.9289 -0.0438
  989MOL0     C36388   5.591   8.150   2.967 -0.6634  1.0653  0.2358
  989MOL0    Cl36389   5.601   8.322   2.937  0.1422  0.0253  0.1239
  989MOL0     C36390   6.607   7.963   2.955 -0.4376  0.4432 -0.1549
  989MOL0     C36391   6.726   7.981   2.895 -0.0861 -0.4861 -0.0079
  989MOL0     O36392   7.016   7.951   2.877 -0.1970  0.4255 -0.8441
  989MOL0     C36393   7.132   7.867   2.578  0.6260 -0.1648  0.4149
  989MOL0     C36394   7.238   7.858   2.493 -0.8253  0.6539 -0.1546
  989MOL0     N36395   7.930   7.489   2.605  0.3254  0.5172  1.0517
  989MOL0     N36396   8.049   7.442   2.614  0.5121  0.8931 -0.3622
  989MOL0     C36397   8.917   7.867   2.394  0.3699 -0.5326  0.2997
  989MOL0     C36398   8.956   7.837   2.263 -0.3825  0.1941 -0.6457
  989MOL0     C36399   9.148   7.562   1.925 -0.2067  0.0488 -0.5119
  989MOL0     C36400   9.049   7.483   1.873  0.3827 -0.2445 -0.0476
  989MOL0     C36401   9.047   7.452   1.729 -0.3318 -0.9255 -0.7148
  989MOL0     C36402   9.170   7.478   1.662  0.0997 -1.0235  0.2565
  989MOL0     O36403   9.201   7.435   1.527 -0.2095 -0.2562  0.4717
  989MOL0     C36404   9.114   7.336   1.464 -0.0957  0.9993  0.0031
  989MOL0     C36405   9.170   7.310   1.327  0.0775 -0.4712  0.0723
  989MOL0     C36406   9.317   7.256   1.333  0.8265 -0.7781 -0.0789
  989MOL0     C36407   9.362   7.219   1.183 -0.1699  0.6722  0.3744
  989MOL0     C36408   9.456   7.320   1.116  0.0704  0.6900  0.2733
  989MOL0     C36409   9.521   7.377   1.038 -0.0087  0.1713 -0.6287
  989MOL0     C36410   9.268   7.563   1.716 -0.1106 -0.2909  0.0956
  989MOL0     C36411   9.264   7.602   1.854  1.0040  0.5142  0.5586
  989MOL0     C36412   9.371   7.698   1.896  0.0588 -0.1209 -0.8338
  989MOL0     H36413   9.007   7.504   2.296 -0.4892 -0.1348  0.0706
  989MOL0     H36414   8.971   7.558   2.547  1.9989  1.5231  0.2140
  989MOL0     H36415   8.724   7.697   2.650  0.9882  0.0514  6.1107
  989MOL0     H36416   8.711   7.857   2.558 -1.1756  1.3011  0.6174
  989MOL0     H36417   8.784   7.950   2.799 -0.4161  1.5449 -1.7234
  989MOL0     H36418   8.614   7.895   2.772  0.5389  1.4461 -0.5128
  989MOL0     H36419   8.850   7.773   2.922  0.9289  0.2909 -1.6878
  989MOL0     H36420   8.687   7.821   2.975 -0.1658  1.5721 -1.5490
  989MOL0     H36421   8.744   7.558   2.813 -0.3348 -2.7843  1.3839
  989MOL0     H36422   8.691   7.575   2.977 -2.3758  0.0202  0.4774
  989MOL0     H36423   8.532   7.641   2.729 -3.5567  0.3891 -0.0736
  989MOL0     H36424   8.500   7.710   2.888  1.9045 -0.2144 -0.8168
  989MOL0     H36425   8.498   7.409   2.840 -1.2948  0.2790 -0.3975
  989MOL0     H36426   8.469   7.496   2.988  1.5746  0.1830 -0.1940
  989MOL0     H36427   8.276   7.607   2.881  0.9328  0.8578 -0.1058
  989MOL0     H36428   8.265   7.426   2.890 -0.6175  0.2209 -0.4247
  989MOL0     H36429   8.323   7.597   2.641 -0.8619  0.9374  1.1007
  989MOL0     H36430   8.327   7.418   2.639 -1.6289 -0.8976 -0.6881
  989MOL0     H36431   8.098   7.752   2.700 -2.5652  0.3705  2.6014
  989MOL0     H36432   7.868   7.822   2.675  1.6297 -1.3167  3.7427
  989MOL0     H36433   7.772   7.696   2.761 -1.3641 -0.7610 -0.0383
  989MOL0     H36434   7.788   7.714   2.465 -0.5066 -0.8113  0.0318
  989MOL0     H36435   7.662   7.618   2.553 -0.7012  0.0519  2.0742
  989MOL0     H36436   7.560   7.831   2.634 -1.5536 -1.9703 -0.6037
  989MOL0     H36437   7.668   7.927   2.542  0.1098 -0.0780  0.9608
  989MOL0     H36438   7.610   7.845   2.335  0.6200 -2.7441 -0.1070
  989MOL0     H36439   7.490   7.728   2.405  0.1052  0.2507 -2.2443
  989MOL0     H36440   7.415   8.127   2.606 -0.8104  0.9326 -2.3708
  989MOL0     H36441   7.290   8.239   2.769 -2.4981  1.2002 -2.1264
  989MOL0     H36442   7.263   8.102   2.883 -2.4772 -0.9729  0.0258
  989MOL0     H36443   7.125   8.201   2.810  0.3476 -0.9206  0.4891
  989MOL0     H36444   6.680   7.870   2.592 -1.2320 -1.7861  0.2206
  989MOL0     H36445   6.445   7.865   2.666 -0.7889 -0.9249 -0.0313
  989MOL0     H36446   6.235   7.966   2.772 -0.2478 -0.0959 -0.3810
  989MOL0     H36447   6.223   7.803   2.818 -1.8599  1.7844 -1.3048
  989MOL0     H36448   6.177   7.908   3.063 -1.0894  0.2714  0.4256
  989MOL0     H36449   6.129   8.047   2.958  0.4864 -0.4489  0.3611
  989MOL0     H36450   6.023   7.768   2.974  1.5852  0.9704  0.8770
  989MOL0     H36451   5.978   7.895   2.850  0.9671 -2.4219 -0.9618
  989MOL0     H36452   5.904   8.029   3.075 -0.1272  0.4284 -0.1613
  989MOL0     H36453   5.924   7.879   3.162  0.5629 -0.7931 -0.3452
  989MOL0     H36454   5.755   7.773   2.989  1.1953 -0.0622  0.7778
  989MOL0     H36455   5.700   7.916   3.096 -2.6760  0.4055 -1.6474
  989MOL0     H36456   5.606   7.893   2.854  0.1748 -0.8544  0.3114
  989MOL0     H36457   5.759   7.900   2.790  0.2579 -2.5376  0.6436
  989MOL0     H36458   5.693   8.141   2.784  0.6248  1.7216  0.2911
  989MOL0     H36459   5.800   8.125   2.918  0.6635  0.0924 -0.5645
  989MOL0     H36460   5.612   8.142   3.074 -1.0932  0.8186  0.3046
  989MOL0     H36461   5.492   8.114   2.938  0.7238 -1.1941 -2.1510
  989MOL0     H36462   6.607   7.983   3.062 -2.5475 -2.2991  0.4877
  989MOL0     H36463   6.813   8.007   2.954  3.5909 -2.3762 -4.0455
  989MOL0     H36464   7.061   7.785   2.568  0.6730 -0.4116  1.8768
  989MOL0     H36465   7.248   7.776   2.422  0.2328 -0.5188  1.2949
  989MOL0     H36466   8.882   7.967   2.419 -0.8396 -0.4944 -1.3042
  989MOL0     H36467   8.950   7.921   2.194 -0.2687 -0.5585 -1.5762
  989MOL0     H36468   8.964   7.440   1.925 -0.5013 -1.1568 -2.1544
  989MOL0     H36469   8.966   7.399   1.680  1.1997 -0.3033 -4.2337
  989MOL0     H36470   9.125   7.246   1.526  0.5162 -1.7148 -3.6928
  989MOL0     H36471   9.006   7.353   1.468 -0.0895  1.2554 -0.8042
  989MOL0     H36472   9.173   7.401   1.267  3.2109 -0.5480 -0.0922
  989MOL0     H36473   9.113   7.234   1.274 -0.8031 -0.2429  0.6717
  989MOL0     H36474   9.374   7.337   1.379 -1.5022 -0.3171  2.2346
  989MOL0     H36475   9.323   7.172   1.402  0.4954 -0.7373 -0.0008
  989MOL0     H36476   9.274   7.227   1.117  0.0138  0.1608  0.0674
  989MOL0     H36477   9.410   7.122   1.171  1.3232  1.4420 -0.0630
  989MOL0     H36478   9.589   7.415   0.965  0.9281 -1.2107 -0.5078
  989MOL0     H36479   9.354   7.580   1.652 -0.7198  0.4401 -0.5474
  989MOL0     H36480   9.314   7.787   1.924 -1.7041 -1.8225  1.4925
  989MOL0     H36481   9.413   7.654   1.987 -1.0269 -3.8624 -1.9499
  989MOL0     H36482   9.443   7.724   1.818 -1.0996  1.8765 -1.3107
  990MOL0     O36483  10.828   9.543   5.163  0.2831  0.1176  0.1748
  990MOL0     C36484  10.839   9.647   5.093  0.1206  0.2123 -0.7051
  990MOL0     O36485  10.858   9.767   5.152  0.0123  1.3027 -0.0947
  990MOL0     C36486  10.903   9.778   5.285 -0.2349  0.3915 -0.0999
  990MOL0     C36487  11.036   9.830   5.307  0.3088  0.6366  0.4600
  990MOL0     C36488  11.090   9.843   5.432 -0.1732 -0.2156  0.1288
  990MOL0     C36489  11.021   9.793   5.554  0.4618  0.0740  0.8930
  990MOL0     O36490  11.060   9.798   5.683 -0.0896  0.0976 -0.6205
  990MOL0     C36491  11.179   9.869   5.709 -0.3956 -0.4451  0.0844
  990MOL0     C36492  11.208   9.846   5.859  0.1034 -0.2750  0.5497
  990MOL0     C36493  11.114   9.929   5.953  0.3326 -0.7716 -0.8212
  990MOL0     C36494  11.159   9.913   6.097 -0.1496 -0.6177 -0.1752
  990MOL0     C36495  11.075   9.973   6.202 -0.4827  0.3349 -0.1289
  990MOL0     C36496  11.093  10.120   6.222  0.4857  0.7898 -0.0504
  990MOL0     C36497  11.234  10.176   6.242 -0.1269  0.4807  0.0667
  990MOL0     C36498  11.307  10.099   6.354  0.6304  0.5055  0.3645
  990MOL0     N36499  11.435  10.154   6.398 -0.7602  0.4479  0.5771
  990MOL0     C36500  11.548  10.175   6.317 -0.7433 -0.1569  0.8504
  990MOL0     C36501  11.636  10.227   6.403 -0.3922  0.8224  0.2952
  990MOL0     C36502  11.781  10.262   6.375  0.2985 -0.2919 -0.1503
  990MOL0     C36503  11.872  10.141   6.385 -0.0262 -0.0804 -0.1056
  990MOL0     C36504  11.977  10.146   6.278  0.0717  0.5415  0.4311
  990MOL0     C36505  12.093  10.237   6.312  0.5383  0.9638 -1.4351
  990MOL0     O36506  12.163  10.183   6.424 -0.2402  0.6064 -0.0028
  990MOL0     C36507  12.297  10.223   6.452  0.6235 -0.3174  0.1888
  990MOL0     C36508  12.359  10.312   6.378 -0.0367  0.0318 -0.3324
  990MOL0     C36509  12.498  10.337   6.404  0.7150  0.1985  0.2096
  990MOL0     C36510  12.562  10.443   6.315  0.0287 -0.0732  0.1083
  990MOL0     C36511  12.575  10.264   6.502  0.6154 -0.2470 -0.4536
  990MOL0     C36512  12.729  10.272   6.524  0.1943 -0.0431 -0.3470
  990MOL0     O36513  12.789  10.322   6.416  0.5698 -0.3547  0.0807
  990MOL0     C36514  12.919  10.302   6.401  0.6567  0.1079  0.0236
  990MOL0     C36515  13.024  10.292   6.494  0.6520  0.0245 -1.2985
  990MOL0     C36516  13.156  10.273   6.445 -1.0654 -0.0749  0.1506
  990MOL0     C36517  13.186  10.280   6.310 -0.2925 -0.2519  0.4054
  990MOL0     O36518  13.314  10.261   6.253 -0.0310  0.1255 -0.0559
  990MOL0     C36519  13.423  10.286   6.338 -0.7577  0.8152 -1.3264
  990MOL0     C36520  13.553  10.286   6.267 -0.4606  0.4317 -0.2811
  990MOL0     C36521  13.661  10.358   6.343 -0.2334  0.0386  0.0490
  990MOL0     C36522  13.636  10.502   6.361 -0.5913  0.7746 -0.5548
  990MOL0     C36523  13.699  10.557   6.487 -1.1360 -0.2093 -0.5569
  990MOL0     C36524  13.687  10.712   6.475  0.0594  0.4521 -0.5996
  990MOL0     C36525  13.789  10.794   6.550  0.1909 -0.2229 -0.4308
  990MOL0     C36526  13.813  10.935   6.489 -0.2967  0.2698 -0.4464
  990MOL0    Cl36527  13.666  11.002   6.409 -0.6572 -0.4829 -0.0145
  990MOL0     C36528  13.074  10.290   6.219 -0.6134  0.7605  0.6771
  990MOL0     C36529  12.950  10.297   6.268  0.4005 -0.0739  0.0642
  990MOL0     O36530  12.775  10.218   6.624 -0.2351  0.6277  0.4334
  990MOL0     C36531  12.495  10.187   6.587  0.1841  0.6835  0.4066
  990MOL0     C36532  12.371  10.158   6.551  0.1565  0.2444 -0.0445
  990MOL0     N36533  11.576  10.218   6.536 -0.0626 -0.6959  0.0070
  990MOL0     N36534  11.462  10.169   6.527  0.3998 -0.0792 -0.5341
  990MOL0     C36535  10.896   9.739   5.532  0.3894 -0.7503 -0.0999
  990MOL0     C36536  10.835   9.734   5.404  1.0112 -0.8825 -0.5661
  990MOL0     C36537  10.839   9.642   4.946  0.3789  0.0875 -0.7183
  990MOL0     C36538  10.898   9.750   4.880  0.6499 -0.3534  0.3415
  990MOL0     C36539  10.927   9.741   4.743  0.4838 -0.4158 -0.5084
  990MOL0     C36540  10.889   9.631   4.667  0.1087  0.1941 -0.0833
  990MOL0     O36541  10.934   9.635   4.537  0.4992 -0.1556 -0.0764
  990MOL0     C36542  10.929   9.506   4.463 -0.1311  0.3797 -0.5498
  990MOL0     C36543  11.008   9.505   4.335 -0.4407 -0.2116  0.2775
  990MOL0     C36544  10.925   9.581   4.235 -0.8534 -0.5607 -0.2281
  990MOL0     C36545  11.001   9.594   4.088 -0.0795 -0.6316 -1.0109
  990MOL0     C36546  10.916   9.684   3.999 -0.0060  0.8087  0.4284
  990MOL0     C36547  10.848   9.750   3.919  0.1866  0.7679 -0.7353
  990MOL0     C36548  10.814   9.529   4.738 -0.2017 -0.5210  0.2753
  990MOL0     C36549  10.785   9.530   4.874  0.1775  0.5288  0.1331
  990MOL0     C36550  10.704   9.403   4.917 -0.9917  0.0768  0.2615
  990MOL0     H36551  11.090   9.861   5.219 -2.2117  2.6578 -0.5202
  990MOL0     H36552  11.189   9.887   5.441 -1.0993  3.4163 -4.1266
  990MOL0     H36553  11.169   9.974   5.679  0.1419 -0.2884  0.4295
  990MOL0     H36554  11.260   9.825   5.651  0.1749 -0.5676  0.9509
  990MOL0     H36555  11.180   9.744   5.889 -1.9179  0.5723  1.7792
  990MOL0     H36556  11.309   9.879   5.883 -0.0441 -0.2348  1.1357
  990MOL0     H36557  11.120  10.035   5.927 -2.0086 -0.1807  0.7959
  990MOL0     H36558  11.015   9.882   5.951  0.1697 -0.8323  2.8947
  990MOL0     H36559  11.165   9.805   6.113  1.9242 -0.7473 -1.4921
  990MOL0     H36560  11.260   9.952   6.107 -1.2843  3.1659 -1.7978
  990MOL0     H36561  11.112   9.932   6.297  2.8139  0.4460 -1.2404
  990MOL0     H36562  10.967   9.970   6.187 -0.6874  1.1703  1.0689
  990MOL0     H36563  11.045  10.160   6.132 -1.2209 -0.4549  0.2584
  990MOL0     H36564  11.028  10.147   6.305  3.6111  1.4038  2.3990
  990MOL0     H36565  11.224  10.281   6.270  1.1181  0.7293 -0.3759
  990MOL0     H36566  11.287  10.168   6.147  0.8748 -2.8806  0.7673
  990MOL0     H36567  11.244  10.093   6.443  0.0009  3.9347  0.3078
  990MOL0     H36568  11.327   9.996   6.323  0.2067  0.6001 -0.2610
  990MOL0     H36569  11.553  10.160   6.210  0.9045 -2.2367  1.1757
  990MOL0     H36570  11.815  10.334   6.450  2.4830 -1.0227 -0.3850
  990MOL0     H36571  11.786  10.310   6.277 -1.7024  0.6584  0.1570
  990MOL0     H36572  11.916  10.139   6.485 -2.0030 -0.3858  0.8203
  990MOL0     H36573  11.809  10.054   6.365 -0.4236  0.1971 -0.0762
  990MOL0     H36574  12.007  10.041   6.274  0.4236  0.5772  1.6381
  990MOL0     H36575  11.931  10.169   6.181  1.7060  0.6260 -0.3557
  990MOL0     H36576  12.156  10.243   6.223  3.1302 -1.2824  0.1044
  990MOL0     H36577  12.057  10.336   6.344  1.4126  1.0896 -0.8229
  990MOL0     H36578  12.310  10.362   6.295  2.9570  0.3751 -2.0254
  990MOL0     H36579  12.480  10.507   6.283 -0.1171 -0.4037 -0.1854
  990MOL0     H36580  12.608  10.389   6.232 -2.4629 -2.4252  0.1202
  990MOL0     H36581  12.629  10.506   6.374  1.0233  0.9513 -2.0134
  990MOL0     H36582  13.004  10.296   6.600 -0.8252  1.3069 -1.5924
  990MOL0     H36583  13.238  10.271   6.515 -2.1157 -0.4650  1.4192
  990MOL0     H36584  13.396  10.375   6.396 -1.3902  0.8357 -1.6503
  990MOL0     H36585  13.440  10.203   6.408 -2.2166  0.5180 -1.3092
  990MOL0     H36586  13.579  10.182   6.243  0.6227  0.4363  0.7689
  990MOL0     H36587  13.547  10.322   6.164  1.6107 -0.3492 -0.7277
  990MOL0     H36588  13.756  10.357   6.290  0.0983  1.2655  0.5992
  990MOL0     H36589  13.683  10.309   6.438  3.2755 -0.7298 -1.0377
  990MOL0     H36590  13.532  10.525   6.386 -0.9296 -0.3635 -0.8269
  990MOL0     H36591  13.677  10.554   6.274  1.6233 -1.5474 -1.0367
  990MOL0     H36592  13.663  10.512   6.579  2.9248  2.2490  2.5938
  990MOL0     H36593  13.808  10.550   6.479 -1.0923  0.1445 -0.2967
  990MOL0     H36594  13.589  10.738   6.517 -0.3141 -3.4526  1.3808
  990MOL0     H36595  13.685  10.749   6.372 -0.8445 -0.7641 -1.0348
  990MOL0     H36596  13.879  10.733   6.552  1.1062  1.1144  0.7360
  990MOL0     H36597  13.761  10.811   6.654  0.6481  0.9743 -0.4853
  990MOL0     H36598  13.886  10.922   6.408  0.9708  0.3672  0.6603
  990MOL0     H36599  13.851  10.995   6.572  2.5992 -3.0866  0.9153
  990MOL0     H36600  13.083  10.276   6.112  1.5976  0.2504  0.8782
  990MOL0     H36601  12.874  10.321   6.193  2.7416  0.9390 -2.1424
  990MOL0     H36602  12.526  10.151   6.685 -1.7157 -1.9614  0.1351
  990MOL0     H36603  12.320  10.100   6.628  0.8073 -2.0345 -1.2733
  990MOL0     H36604  10.840   9.712   5.621 -0.6785  0.4308 -0.3832
  990MOL0     H36605  10.740   9.683   5.401  0.6416 -0.3169  0.5858
  990MOL0     H36606  10.940   9.835   4.933 -1.6163  0.4379  0.9798
  990MOL0     H36607  10.997   9.808   4.696  3.2590 -2.5982  0.1861
  990MOL0     H36608  10.971   9.429   4.528 -1.1972 -0.6357 -1.0392
  990MOL0     H36609  10.824   9.485   4.441 -1.4115  1.2245  3.8335
  990MOL0     H36610  11.014   9.406   4.287  4.7126  0.8089 -1.8646
  990MOL0     H36611  11.107   9.548   4.347 -0.0827 -0.9356 -0.0275
  990MOL0     H36612  10.824   9.540   4.222 -0.5055 -1.6031  0.2333
  990MOL0     H36613  10.914   9.683   4.272 -1.6011  0.1840 -2.3468
  990MOL0     H36614  11.019   9.497   4.041 -1.3196 -1.7665  0.7562
  990MOL0     H36615  11.102   9.634   4.105  0.6810 -1.8086 -2.5446
  990MOL0     H36616  10.803   9.822   3.854  0.9730  1.1248 -0.8974
  990MOL0     H36617  10.793   9.439   4.682  1.0049 -0.7259  0.1326
  990MOL0     H36618  10.777   9.350   4.979 -1.8884  0.6750  1.8836
  990MOL0     H36619  10.634   9.454   4.982 -0.0494  0.7631  0.7572
  990MOL0     H36620  10.669   9.343   4.832 -3.3334  2.5371 -0.6451
  991MOL0     O36621   8.927   5.396  10.863  0.6653 -0.0727  0.5043
  991MOL0     C36622   8.949   5.295  10.936  1.4283 -0.1140  0.3622
  991MOL0     O36623   8.934   5.298  11.074 -0.1125 -0.3636  0.5787
  991MOL0     C36624   8.893   5.414  11.145 -0.2780  0.4573 -0.7496
  991MOL0     C36625   8.972   5.439  11.260  0.8889 -0.4760  0.1629
  991MOL0     C36626   8.931   5.553  11.333 -0.3001  0.1140  0.2693
  991MOL0     C36627   8.828   5.645  11.285  0.4794  0.4339  0.4498
  991MOL0     O36628   8.807   5.763  11.359  0.2957 -0.2398  0.0233
  991MOL0     C36629   8.741   5.866  11.284 -0.0671  0.2980 -0.8586
  991MOL0     C36630   8.707   5.992  11.368 -0.3236  0.3454  0.4604
  991MOL0     C36631   8.623   6.088  11.288 -0.0689 -0.5963 -0.1073
  991MOL0     C36632   8.711   6.167  11.181 -0.1783 -0.4272  0.2425
  991MOL0     C36633   8.644   6.305  11.142 -0.9585 -0.8309 -0.5588
  991MOL0     C36634   8.737   6.375  11.040  0.5044 -0.0473  0.0239
  991MOL0     C36635   8.844   6.472  11.085  0.2962 -0.3920  0.0789
  991MOL0     C36636   8.946   6.512  10.960 -0.3214  0.0044  0.4561
  991MOL0     N36637   8.894   6.610  10.862  0.1713  0.2619  0.2976
  991MOL0     C36638   8.939   6.740  10.837 -0.4492  0.1247  1.1047
  991MOL0     C36639   8.911   6.778  10.710 -0.3011  0.4648 -0.0035
  991MOL0     C36640   8.951   6.902  10.637  0.2978 -1.2591  0.7868
  991MOL0     C36641   9.013   6.856  10.502 -0.1133  0.4478 -0.2132
  991MOL0     C36642   9.063   6.978  10.429  0.4941 -0.0570 -1.0966
  991MOL0     C36643   9.095   6.927  10.287  0.1187 -0.4207 -0.4511
  991MOL0     O36644   9.114   7.032  10.191 -0.8972  0.1327 -0.2434
  991MOL0     C36645   9.164   6.993  10.061  0.7946 -0.0573 -0.0373
  991MOL0     C36646   9.161   7.099   9.977 -0.3436  0.1217 -0.6601
  991MOL0     C36647   9.213   7.094   9.854 -0.6592  0.6258  0.4197
  991MOL0     C36648   9.230   7.219   9.771 -0.5192 -1.0136  0.1127
  991MOL0     C36649   9.260   6.970   9.805 -0.4298  1.0092  0.2201
  991MOL0     C36650   9.327   6.951   9.683 -0.5140 -0.5402  0.1455
  991MOL0     O36651   9.244   6.905   9.582 -0.5496  0.0398  0.5842
  991MOL0     C36652   9.301   6.887   9.458 -0.6974  0.2973 -0.2776
  991MOL0     C36653   9.397   6.967   9.400 -1.0634 -0.1633  0.7908
  991MOL0     C36654   9.449   6.942   9.272  0.8313  0.1949  0.5952
  991MOL0     C36655   9.397   6.838   9.198 -0.7524 -0.1919 -0.4079
  991MOL0     O36656   9.446   6.800   9.078  0.0765 -0.3062 -0.1268
  991MOL0     C36657   9.580   6.742   9.072  1.0566  0.2872 -0.5907
  991MOL0     C36658   9.557   6.610   8.982  0.2013 -0.8315  0.6837
  991MOL0     C36659   9.565   6.648   8.835  0.1199  0.3774  1.1344
  991MOL0     C36660   9.443   6.720   8.783  0.2856  0.1913  0.3871
  991MOL0     C36661   9.460   6.760   8.633  0.0494 -0.7041  1.1028
  991MOL0     C36662   9.323   6.798   8.559 -0.8077 -0.1987 -0.5120
  991MOL0     C36663   9.346   6.861   8.426  0.0500 -0.4729 -0.7127
  991MOL0     C36664   9.212   6.919   8.375 -0.0753  0.7013 -0.5172
  991MOL0    Cl36665   9.104   6.783   8.298  0.2152  0.1268 -0.5305
  991MOL0     C36666   9.304   6.752   9.254 -0.4565 -0.4820  0.4798
  991MOL0     C36667   9.252   6.779   9.382 -0.2478  0.2448 -0.7301
  991MOL0     O36668   9.453   6.969   9.687  0.0595 -0.5015  0.0592
  991MOL0     C36669   9.267   6.857   9.903  0.1728 -0.7460  0.9736
  991MOL0     C36670   9.217   6.873  10.026  0.2187  0.2499  0.6805
  991MOL0     N36671   8.837   6.669  10.664  0.2446  1.0296 -0.2778
  991MOL0     N36672   8.821   6.580  10.756  1.0525 -0.3661  0.0983
  991MOL0     C36673   8.745   5.612  11.175 -0.7045  0.3800  0.8003
  991MOL0     C36674   8.781   5.496  11.107 -0.0376  0.1877  0.2926
  991MOL0     C36675   8.977   5.167  10.875 -0.9665 -0.0131 -0.6835
  991MOL0     C36676   8.990   5.050  10.957 -0.9050 -0.3152  1.0191
  991MOL0     C36677   9.028   4.927  10.904 -0.1468  0.3094 -0.0405
  991MOL0     C36678   9.056   4.911  10.769  0.1493 -0.3818 -0.5105
  991MOL0     O36679   9.082   4.785  10.725  0.6493 -0.6979 -0.3043
  991MOL0     C36680   9.135   4.758  10.593 -0.7113  0.5376 -0.2556
  991MOL0     C36681   9.012   4.725  10.521  0.7860  0.5568  0.7420
  991MOL0     C36682   8.954   4.586  10.541  0.2321  0.0136  0.5746
  991MOL0     C36683   8.827   4.557  10.466  0.7607  1.1589  0.0676
  991MOL0     C36684   8.844   4.418  10.400  0.0447 -0.2171 -1.5233
  991MOL0     C36685   8.857   4.300  10.361  0.0825 -0.3838  0.0947
  991MOL0     C36686   9.036   5.017  10.683 -0.4540 -0.2742 -0.0207
  991MOL0     C36687   9.000   5.142  10.739  0.5128 -0.7372 -0.0192
  991MOL0     C36688   8.968   5.256  10.633  0.5284 -0.0390  0.3507
  991MOL0     H36689   9.051   5.373  11.292 -1.5387 -3.4657  0.4730
  991MOL0     H36690   8.976   5.581  11.428  1.1153 -0.8257 -0.0902
  991MOL0     H36691   8.646   5.820  11.257  0.8850 -3.9910  2.0194
  991MOL0     H36692   8.796   5.902  11.196 -3.0769  2.1856 -2.1146
  991MOL0     H36693   8.656   5.961  11.460 -1.9210 -0.2846 -0.5941
  991MOL0     H36694   8.801   6.039  11.399  0.3224 -1.6174  1.6616
  991MOL0     H36695   8.555   6.035  11.220 -1.8444  1.0521  0.3078
  991MOL0     H36696   8.569   6.161  11.349 -3.8692 -3.3527  0.1943
  991MOL0     H36697   8.813   6.179  11.219 -0.1044  1.6495 -0.5076
  991MOL0     H36698   8.717   6.097  11.097 -2.4511 -0.8421  0.3540
  991MOL0     H36699   8.637   6.365  11.233  1.1528 -0.8824 -0.3105
  991MOL0     H36700   8.538   6.308  11.115 -0.9295  0.7387 -0.6026
  991MOL0     H36701   8.787   6.297  10.982 -0.8480 -0.9537  0.0243
  991MOL0     H36702   8.666   6.433  10.982  1.6278  0.0933 -1.2578
  991MOL0     H36703   8.908   6.424  11.160  2.4482  2.9064  0.5689
  991MOL0     H36704   8.812   6.571  11.119  1.8421  1.1904 -2.6756
  991MOL0     H36705   9.048   6.533  10.993 -0.6442 -0.9895  2.2159
  991MOL0     H36706   8.966   6.415  10.911  0.5655 -0.2986  1.3905
  991MOL0     H36707   9.009   6.783  10.907  2.2112 -3.9936  1.3657
  991MOL0     H36708   9.025   6.969  10.681 -1.0314  1.4269 -0.8077
  991MOL0     H36709   8.863   6.963  10.612  0.6441 -0.4830  1.4193
  991MOL0     H36710   9.093   6.785  10.523 -0.2845  0.4486  0.4654
  991MOL0     H36711   8.931   6.802  10.454 -1.5815 -0.9641  3.4853
  991MOL0     H36712   8.978   7.046  10.436  0.7586  0.1155  2.2679
  991MOL0     H36713   9.152   7.030  10.468  1.8532 -1.3250 -2.3673
  991MOL0     H36714   9.178   6.856  10.295 -0.0190 -0.4147  2.0039
  991MOL0     H36715   9.010   6.863  10.260 -1.2595  1.0349  0.2588
  991MOL0     H36716   9.099   7.182  10.008 -0.9308 -0.1939 -0.9641
  991MOL0     H36717   9.179   7.307   9.811  3.7909  1.4248  0.9254
  991MOL0     H36718   9.197   7.193   9.670 -1.1766  2.3738 -0.6743
  991MOL0     H36719   9.333   7.256   9.759 -1.2630  1.3366  0.4302
  991MOL0     H36720   9.427   7.051   9.461  0.1775 -1.0066  1.3853
  991MOL0     H36721   9.528   7.009   9.241 -0.9532  2.4300  0.6793
  991MOL0     H36722   9.653   6.812   9.032 -0.2214  1.7097 -0.5267
  991MOL0     H36723   9.614   6.714   9.172  2.3661 -2.7229 -1.7472
  991MOL0     H36724   9.640   6.539   8.989  1.8192  0.8028 -0.7278
  991MOL0     H36725   9.471   6.548   9.006 -1.6044  0.2780 -2.3416
  991MOL0     H36726   9.562   6.558   8.772  1.4732  1.1846 -0.1583
  991MOL0     H36727   9.648   6.714   8.809  1.4215 -1.6280 -0.0811
  991MOL0     H36728   9.422   6.820   8.822 -2.7519 -0.5573  0.9394
  991MOL0     H36729   9.350   6.666   8.800  0.3315  0.0481  0.1820
  991MOL0     H36730   9.535   6.839   8.628 -0.4988 -0.0713  2.4786
  991MOL0     H36731   9.492   6.668   8.583  0.3424 -0.3378  0.6051
  991MOL0     H36732   9.260   6.860   8.622 -0.4836 -0.5871  0.2032
  991MOL0     H36733   9.261   6.709   8.542 -0.7861 -0.4151  0.4702
  991MOL0     H36734   9.392   6.792   8.354  1.9757  1.7650 -1.7624
  991MOL0     H36735   9.422   6.939   8.427 -0.1588 -0.2453 -1.7288
  991MOL0     H36736   9.232   6.991   8.295  1.4418  1.9933  0.9346
  991MOL0     H36737   9.150   6.965   8.452 -1.1666 -0.5871 -0.6018
  991MOL0     H36738   9.266   6.673   9.191 -1.0899  0.7441 -0.7447
  991MOL0     H36739   9.172   6.712   9.411  0.9349 -1.9945 -2.3153
  991MOL0     H36740   9.319   6.765   9.878 -2.1688 -1.4599 -1.7686
  991MOL0     H36741   9.214   6.780  10.082  0.6352 -0.6736 -0.7776
  991MOL0     H36742   8.661   5.671  11.141  0.5315  3.2298  2.4029
  991MOL0     H36743   8.732   5.458  11.017  3.5433 -0.1323 -1.6938
  991MOL0     H36744   8.976   5.059  11.065  1.1293  0.7250  1.2463
  991MOL0     H36745   9.030   4.831  10.955 -1.4002 -0.4395 -1.3490
  991MOL0     H36746   9.196   4.833  10.543  3.0616 -1.0942  1.4897
  991MOL0     H36747   9.199   4.670  10.606 -2.1646 -0.4725  0.3037
  991MOL0     H36748   9.032   4.753  10.417 -0.8367  1.5444  0.6567
  991MOL0     H36749   8.932   4.794  10.548  0.0084 -0.3576  0.8442
  991MOL0     H36750   9.032   4.518  10.506 -2.1219 -0.8824 -3.5614
  991MOL0     H36751   8.945   4.559  10.647 -4.2215  0.5533  0.5057
  991MOL0     H36752   8.776   4.630  10.402  0.6024 -0.7570 -2.1319
  991MOL0     H36753   8.758   4.530  10.547  1.9124 -1.8727  0.1969
  991MOL0     H36754   8.864   4.208  10.307 -2.3992  0.0556 -1.1432
  991MOL0     H36755   9.048   5.014  10.576 -0.6458 -0.9035 -0.0259
  991MOL0     H36756   8.865   5.294  10.636 -0.4962 -2.6545  0.5105
  991MOL0     H36757   9.030   5.346  10.632  1.6003 -0.7422  1.1286
  991MOL0     H36758   8.986   5.205  10.538 -1.7430 -0.2863 -0.0035
  992MOL0     O36759   2.997   9.998   1.177  0.3480 -0.1019 -0.0588
  992MOL0     C36760   2.902  10.010   1.092 -0.7535 -0.1784  0.1324
  992MOL0     O36761   2.885  10.121   1.007 -0.0412 -0.6122  0.1886
  992MOL0     C36762   2.945  10.246   1.052 -0.4053  0.0476  0.4115
  992MOL0     C36763   3.072  10.279   1.015  0.3704 -0.4299 -0.6425
  992MOL0     C36764   3.125  10.404   1.051  0.5094 -0.4369 -0.4792
  992MOL0     C36765   3.044  10.493   1.128 -0.1218 -0.5262  0.3277
  992MOL0     O36766   3.079  10.620   1.164  0.0394 -0.1068 -0.0605
  992MOL0     C36767   3.158  10.691   1.071  1.0703  0.1091  0.5341
  992MOL0     C36768   3.181  10.833   1.129 -0.0525  0.7072 -0.1437
  992MOL0     C36769   3.058  10.902   1.188  0.3778 -0.3486  0.7136
  992MOL0     C36770   2.953  10.937   1.082  0.1490  0.4381  0.5574
  992MOL0     C36771   2.837  11.012   1.138 -0.4447 -0.6038 -0.0290
  992MOL0     C36772   2.733  10.940   1.226 -1.4338  0.3466 -0.2734
  992MOL0     C36773   2.666  10.820   1.152 -0.2809  0.0079 -0.3566
  992MOL0     C36774   2.537  10.785   1.227  1.0328  0.5503 -0.9700
  992MOL0     N36775   2.517  10.639   1.217 -0.2454  0.0417  0.5417
  992MOL0     C36776   2.462  10.579   1.110 -0.4488 -0.2272 -0.5360
  992MOL0     C36777   2.468  10.448   1.142 -0.3208 -0.3089  0.6257
  992MOL0     C36778   2.429  10.336   1.048  0.6658  0.4742  0.6775
  992MOL0     C36779   2.555  10.261   0.989  0.7580  0.3203 -0.0753
  992MOL0     C36780   2.505  10.172   0.871 -0.1386 -0.0268  0.0917
  992MOL0     C36781   2.620  10.120   0.795 -0.6747 -0.9137  0.5501
  992MOL0     O36782   2.584  10.103   0.654  0.4479  0.2436  0.4891
  992MOL0     C36783   2.514   9.989   0.619 -0.2211 -0.0267 -1.0732
  992MOL0     C36784   2.461   9.891   0.701 -0.1942  0.2917 -1.1036
  992MOL0     C36785   2.380   9.782   0.668 -0.4136  0.3967 -0.4492
  992MOL0     C36786   2.345   9.679   0.778 -0.8200 -0.2667 -1.0036
  992MOL0     C36787   2.331   9.776   0.542 -0.5555 -0.0542  0.1268
  992MOL0     C36788   2.240   9.676   0.485  0.1705  0.1826 -0.5079
  992MOL0     O36789   2.226   9.546   0.531  0.0950 -0.5299 -0.0293
  992MOL0     C36790   2.184   9.455   0.441 -0.7442  0.1080  0.5156
  992MOL0     C36791   2.269   9.346   0.411  0.5502  0.7482 -0.5011
  992MOL0     C36792   2.230   9.240   0.326 -0.0322 -1.2360 -0.2174
  992MOL0     C36793   2.098   9.243   0.271 -0.5528  0.5165  0.3335
  992MOL0     O36794   2.070   9.141   0.185 -0.3104  0.0335  0.4359
  992MOL0     C36795   1.931   9.121   0.147 -0.6543 -0.0385  0.3385
  992MOL0     C36796   1.915   8.984   0.072  0.4088 -1.4513  0.4336
  992MOL0     C36797   1.773   8.928   0.091  0.0770  0.1680  0.3002
  992MOL0     C36798   1.745   8.820  -0.021 -0.0661  0.1987 -1.7557
  992MOL0     C36799   1.596   8.776   0.011 -0.2436  0.2612  0.5535
  992MOL0     C36800   1.561   8.665  -0.088  0.1124 -1.1700  0.6149
  992MOL0     C36801   1.401   8.640  -0.082 -0.6250 -0.4884 -0.6560
  992MOL0     C36802   1.342   8.588   0.051  0.6841  0.0529  0.0946
  992MOL0    Cl36803   1.166   8.576   0.020 -0.2212 -0.4918  0.4589
  992MOL0     C36804   2.018   9.346   0.301 -0.3591  0.0381  0.5764
  992MOL0     C36805   2.054   9.445   0.387 -0.9273 -0.5596  0.1333
  992MOL0     O36806   2.172   9.730   0.400  0.0899  0.1390  0.5874
  992MOL0     C36807   2.389   9.871   0.456 -0.6282 -0.4259  0.3820
  992MOL0     C36808   2.477   9.973   0.488  0.3943  0.2748  0.7472
  992MOL0     N36809   2.525  10.423   1.264 -0.5784 -0.5669  0.2362
  992MOL0     N36810   2.541  10.544   1.313 -0.5535 -0.1898 -0.1348
  992MOL0     C36811   2.917  10.455   1.171 -0.0092 -0.4565 -0.1477
  992MOL0     C36812   2.878  10.334   1.144 -0.0889  0.4429  0.0640
  992MOL0     C36813   2.828   9.890   1.063 -0.3891 -0.0888  0.4955
  992MOL0     C36814   2.832   9.838   0.936  0.1594 -0.1942 -0.3878
  992MOL0     C36815   2.778   9.708   0.913 -0.1908 -0.3624  0.4735
  992MOL0     C36816   2.719   9.631   1.014 -0.1670 -0.2694  0.8512
  992MOL0     O36817   2.666   9.503   0.997  0.2901 -0.0450 -0.1425
  992MOL0     C36818   2.657   9.447   0.867  0.5353 -0.0794 -0.2287
  992MOL0     C36819   2.609   9.303   0.873  0.7198  0.6357 -0.0394
  992MOL0     C36820   2.615   9.236   0.731  1.1384 -0.4085 -1.0854
  992MOL0     C36821   2.644   9.089   0.751 -0.8131  0.3845 -0.8472
  992MOL0     C36822   2.789   9.079   0.721 -1.2031  0.4512  0.2540
  992MOL0     C36823   2.904   9.062   0.700 -0.0703  0.6222  0.4542
  992MOL0     C36824   2.712   9.691   1.143  0.1802  0.2257 -0.1736
  992MOL0     C36825   2.769   9.818   1.164 -0.2302  0.7880  0.1394
  992MOL0     C36826   2.753   9.866   1.308 -0.0998 -0.0390  0.5399
  992MOL0     H36827   3.116  10.221   0.935 -1.5971  0.7469 -2.6822
  992MOL0     H36828   3.231  10.419   1.034  0.8300 -1.1477  0.7502
  992MOL0     H36829   3.102  10.704   0.978 -0.1936  0.2311  1.2854
  992MOL0     H36830   3.250  10.634   1.054 -0.0004 -1.7162  0.6442
  992MOL0     H36831   3.255  10.837   1.210 -0.5421 -2.6991  0.5961
  992MOL0     H36832   3.222  10.896   1.050  1.1074 -1.4062 -1.3027
  992MOL0     H36833   2.999  10.855   1.268  2.3765 -0.3870  2.2389
  992MOL0     H36834   3.082  11.001   1.229  0.7920  0.4966 -1.4405
  992MOL0     H36835   3.006  10.985   0.999  0.3679 -2.0430 -0.8229
  992MOL0     H36836   2.921  10.845   1.033  2.9134  1.6002 -4.0576
  992MOL0     H36837   2.784  11.066   1.058 -1.7531 -0.3840  0.9426
  992MOL0     H36838   2.867  11.093   1.205 -0.2165  1.2795 -2.2575
  992MOL0     H36839   2.770  10.912   1.325  0.5072 -1.4911 -1.4348
  992MOL0     H36840   2.661  11.017   1.257 -0.4773 -0.3721  4.6393
  992MOL0     H36841   2.738  10.737   1.154 -0.6790 -0.3967 -1.8451
  992MOL0     H36842   2.643  10.847   1.049 -1.8455  3.2328  0.7150
  992MOL0     H36843   2.547  10.814   1.332  0.1072 -2.8662  0.1805
  992MOL0     H36844   2.446  10.841   1.199 -3.9174 -4.8840  2.1171
  992MOL0     H36845   2.431  10.625   1.016 -2.5824  1.3699  0.8396
  992MOL0     H36846   2.367  10.377   0.967  4.1603  3.8336 -0.5934
  992MOL0     H36847   2.359  10.269   1.099 -0.7316  2.9773  2.2563
  992MOL0     H36848   2.634  10.329   0.956  0.8433  0.7722  1.0037
  992MOL0     H36849   2.590  10.197   1.070  0.1761  2.8346  2.3510
  992MOL0     H36850   2.439  10.099   0.921 -1.2661  2.2669  2.1993
  992MOL0     H36851   2.438  10.226   0.804 -0.1240 -1.4065 -1.0779
  992MOL0     H36852   2.709  10.185   0.787 -0.9095 -0.8012 -2.6986
  992MOL0     H36853   2.660  10.029   0.840  1.6959 -1.5160 -2.4458
  992MOL0     H36854   2.489   9.896   0.806  0.0190 -2.3472 -0.9841
  992MOL0     H36855   2.429   9.684   0.848 -1.5527 -0.1480 -0.1094
  992MOL0     H36856   2.340   9.577   0.739  1.8995  0.0188 -2.3728
  992MOL0     H36857   2.262   9.711   0.842  1.6096  0.6299  1.9522
  992MOL0     H36858   2.368   9.348   0.455  0.9811  2.8137 -1.4470
  992MOL0     H36859   2.302   9.164   0.299  2.8479  1.2541 -0.1128
  992MOL0     H36860   1.866   9.128   0.235 -0.4663  2.7891  0.3207
  992MOL0     H36861   1.895   9.203   0.085  1.3098 -0.4164 -1.4149
  992MOL0     H36862   1.939   8.996  -0.034  1.0396 -1.8476  0.5228
  992MOL0     H36863   1.987   8.916   0.119  1.1241 -0.6737  0.4839
  992MOL0     H36864   1.700   9.007   0.071  0.3789  0.3365 -0.1725
  992MOL0     H36865   1.766   8.884   0.191 -0.5810 -2.0368 -0.6444
  992MOL0     H36866   1.813   8.736  -0.004 -0.2299 -0.1042 -2.5327
  992MOL0     H36867   1.752   8.842  -0.128 -4.9793  1.0914 -2.1278
  992MOL0     H36868   1.597   8.738   0.113  2.8654  1.4858  1.0991
  992MOL0     H36869   1.525   8.860   0.007 -0.0356  0.4108 -0.1853
  992MOL0     H36870   1.608   8.568  -0.071 -1.5327 -1.7645  2.1342
  992MOL0     H36871   1.594   8.694  -0.189 -1.9809  1.0846  0.4924
  992MOL0     H36872   1.371   8.562  -0.153 -2.5121 -0.3069 -0.1148
  992MOL0     H36873   1.338   8.723  -0.116 -1.9744 -1.8880 -1.7351
  992MOL0     H36874   1.360   8.653   0.137 -0.4202  0.0680  0.3325
  992MOL0     H36875   1.387   8.490   0.067  2.0176  0.3191 -1.6740
  992MOL0     H36876   1.926   9.352   0.243  0.2700 -2.4760 -0.8601
  992MOL0     H36877   1.979   9.522   0.403 -1.2590 -0.7553 -0.4385
  992MOL0     H36878   2.375   9.857   0.349 -2.8306  0.7140  0.4668
  992MOL0     H36879   2.519  10.039   0.412 -1.4460  1.3677  0.6203
  992MOL0     H36880   2.866  10.512   1.248  0.1950  1.0770 -1.1229
  992MOL0     H36881   2.774  10.328   1.175 -0.8416  3.9027 -1.2129
  992MOL0     H36882   2.877   9.897   0.857 -0.7827 -0.3505 -1.0596
  992MOL0     H36883   2.791   9.660   0.817 -1.7179 -0.7692  0.4340
  992MOL0     H36884   2.595   9.519   0.814  2.3053  1.2792 -0.5379
  992MOL0     H36885   2.753   9.440   0.816  1.1204  1.9223  0.5238
  992MOL0     H36886   2.504   9.298   0.904  0.4605 -1.8371 -1.0556
  992MOL0     H36887   2.676   9.252   0.942  0.1885  0.3584  0.2748
  992MOL0     H36888   2.510   9.234   0.700  0.1589 -1.3418  1.9053
  992MOL0     H36889   2.669   9.284   0.650 -2.1582  0.6565 -2.8086
  992MOL0     H36890   2.594   9.037   0.669 -2.9327  3.0634 -1.4014
  992MOL0     H36891   2.612   9.049   0.847 -2.5714  3.6807  0.1053
  992MOL0     H36892   3.007   9.055   0.672 -0.4674  1.6164 -1.3873
  992MOL0     H36893   2.664   9.631   1.219 -0.8304 -2.0588 -2.4893
  992MOL0     H36894   2.671   9.939   1.313 -0.4685 -0.5256  3.3967
  992MOL0     H36895   2.736   9.785   1.380  3.7595 -0.5393  1.0921
  992MOL0     H36896   2.838   9.920   1.352 -1.4430  1.1364  1.8264
  993MOL0     O36897   2.652   0.421   3.663  0.4892 -0.2032  0.0659
  993MOL0     C36898   2.571   0.468   3.747  0.9073 -0.4318 -0.3038
  993MOL0     O36899   2.607   0.544   3.851 -0.0309  0.1088 -0.3141
  993MOL0     C36900   2.740   0.560   3.866  0.1741 -0.5775  0.5022
  993MOL0     C36901   2.821   0.636   3.776  0.8456  0.2851 -0.0000
  993MOL0     C36902   2.959   0.644   3.794 -0.1454 -0.6330 -0.2556
  993MOL0     C36903   3.023   0.593   3.908 -1.0745  0.2134 -0.3498
  993MOL0     O36904   3.167   0.592   3.915  0.2053  0.4483 -0.0755
  993MOL0     C36905   3.222   0.495   4.001 -0.1172  0.6783 -0.0054
  993MOL0     C36906   3.368   0.493   3.975  0.3996 -0.4270 -1.1406
  993MOL0     C36907   3.417   0.465   3.832 -0.0339 -0.4898  0.0138
  993MOL0     C36908   3.408   0.311   3.803 -0.2649  0.8972 -0.3606
  993MOL0     C36909   3.473   0.283   3.664 -0.2981  0.3850  1.2770
  993MOL0     C36910   3.466   0.135   3.633  1.1452 -0.6261  0.1730
  993MOL0     C36911   3.493   0.107   3.482 -0.2272 -0.0528  0.6019
  993MOL0     C36912   3.504  -0.047   3.466  0.5455  0.0993  0.2372
  993MOL0     N36913   3.621  -0.107   3.529 -0.7410  0.6925  0.6051
  993MOL0     C36914   3.752  -0.075   3.511  0.2551 -0.4214  0.0365
  993MOL0     C36915   3.821  -0.142   3.596 -0.1803 -0.1446 -0.1254
  993MOL0     C36916   3.968  -0.154   3.608  0.4617  0.2328 -0.3747
  993MOL0     C36917   4.039  -0.023   3.581 -0.5181 -0.5001 -0.3045
  993MOL0     C36918   4.178  -0.014   3.635  0.2770 -0.2555 -0.6060
  993MOL0     C36919   4.278  -0.116   3.573 -0.3726 -0.6616 -0.0562
  993MOL0     O36920   4.408  -0.095   3.646 -0.1261  0.2864  0.4488
  993MOL0     C36921   4.496  -0.194   3.653  0.3509  0.4825 -0.0134
  993MOL0     C36922   4.466  -0.327   3.624  0.9499 -0.2786 -0.0261
  993MOL0     C36923   4.572  -0.419   3.643 -0.1990  1.3653 -0.0446
  993MOL0     C36924   4.530  -0.570   3.610  0.3099 -1.2671 -0.1245
  993MOL0     C36925   4.701  -0.388   3.700  0.3725 -0.0558 -0.2151
  993MOL0     C36926   4.813  -0.479   3.728  0.4580 -1.0105 -0.2085
  993MOL0     O36927   4.789  -0.598   3.784  0.4353  0.8508  0.6202
  993MOL0     C36928   4.895  -0.676   3.827 -0.3645 -0.0144  0.7733
  993MOL0     C36929   5.035  -0.650   3.826  0.4689 -0.5469 -0.5810
  993MOL0     C36930   5.130  -0.730   3.893 -0.8524 -0.1038 -0.1135
  993MOL0     C36931   5.089  -0.845   3.972 -0.2643 -0.7966  0.5228
  993MOL0     O36932   5.173  -0.929   4.032  0.3370  0.0897  0.0572
  993MOL0     C36933   5.315  -0.917   4.026 -0.2908  0.0183 -0.3813
  993MOL0     C36934   5.382  -1.010   4.125  0.0047 -0.6321 -0.1278
  993MOL0     C36935   5.358  -1.164   4.102 -0.8820 -0.8369 -0.3682
  993MOL0     C36936   5.425  -1.249   4.211 -0.1996  0.2159 -0.7029
  993MOL0     C36937   5.565  -1.315   4.168  0.2148 -0.7396  1.1252
  993MOL0     C36938   5.633  -1.412   4.274  0.6081  0.2866 -0.7196
  993MOL0     C36939   5.538  -1.513   4.328  0.4212 -0.3706 -0.2752
  993MOL0     C36940   5.499  -1.460   4.468  0.6342  0.9570  0.3255
  993MOL0    Cl36941   5.458  -1.607   4.561  0.1272  0.0019 -0.4733
  993MOL0     C36942   4.955  -0.870   3.974  0.7757 -0.4108  0.2777
  993MOL0     C36943   4.867  -0.789   3.906  0.7484 -0.5955  0.5648
  993MOL0     O36944   4.916  -0.435   3.691 -0.5129  0.5679 -0.5214
  993MOL0     C36945   4.712  -0.257   3.756  0.0067  0.4255  0.5668
  993MOL0     C36946   4.615  -0.160   3.726 -0.0212 -0.7925  0.5347
  993MOL0     N36947   3.740  -0.212   3.679 -0.8241 -0.5779  1.0335
  993MOL0     N36948   3.617  -0.185   3.644  0.5563  0.0726 -0.3548
  993MOL0     C36949   2.947   0.522   4.005  0.1940 -0.0006  0.4590
  993MOL0     C36950   2.804   0.504   3.982  0.2322 -0.4677 -0.3576
  993MOL0     C36951   2.422   0.452   3.718  0.0853 -0.4773  1.2167
  993MOL0     C36952   2.325   0.501   3.815 -0.7797  0.3572  1.3924
  993MOL0     C36953   2.186   0.495   3.793  0.6107  1.6610  0.1318
  993MOL0     C36954   2.133   0.439   3.678 -0.5474 -0.0329 -0.0286
  993MOL0     O36955   2.000   0.458   3.649 -0.1134  0.2679  0.0998
  993MOL0     C36956   1.920   0.345   3.613 -0.4880  0.3910  0.6833
  993MOL0     C36957   1.776   0.396   3.592  0.1366  0.0857  0.6140
  993MOL0     C36958   1.773   0.506   3.488 -0.3525  0.3564 -0.9010
  993MOL0     C36959   1.632   0.563   3.477 -0.4804  0.4199  0.3037
  993MOL0     C36960   1.633   0.700   3.407 -0.3896 -0.1118  0.3140
  993MOL0     C36961   1.621   0.813   3.377 -0.4192  0.5451  0.4789
  993MOL0     C36962   2.221   0.399   3.575 -0.7605  0.3776  0.9126
  993MOL0     C36963   2.364   0.405   3.598 -0.6328 -0.6096  1.0005
  993MOL0     C36964   2.441   0.367   3.473  0.7842 -0.5632  0.2272
  993MOL0     H36965   2.771   0.666   3.685  0.7693  1.5101  0.4323
  993MOL0     H36966   3.020   0.702   3.725  1.8146  1.4047  2.9071
  993MOL0     H36967   3.176   0.396   3.991  1.5931 -0.2332  0.6435
  993MOL0     H36968   3.195   0.519   4.104 -1.9863 -2.8285  0.5038
  993MOL0     H36969   3.409   0.589   4.008  1.3148 -1.5769  1.3178
  993MOL0     H36970   3.405   0.411   4.037 -0.7650 -0.1550 -0.0206
  993MOL0     H36971   3.341   0.521   3.777  0.3240  1.0133  0.9873
  993MOL0     H36972   3.521   0.501   3.833  1.1117 -3.5687  1.3023
  993MOL0     H36973   3.476   0.268   3.876  0.0569  1.2924 -0.4231
  993MOL0     H36974   3.309   0.264   3.811 -0.8295  1.7667 -1.7397
  993MOL0     H36975   3.576   0.316   3.649  0.0913 -1.0114  0.7912
  993MOL0     H36976   3.416   0.322   3.580  0.7935  0.2923  0.4805
  993MOL0     H36977   3.551   0.095   3.690  2.7980  2.6016  0.2548
  993MOL0     H36978   3.379   0.073   3.658  0.8609 -0.9153 -1.4679
  993MOL0     H36979   3.588   0.144   3.443  0.1239 -1.5859 -0.0875
  993MOL0     H36980   3.415   0.144   3.415  1.8096  0.6742 -1.4804
  993MOL0     H36981   3.416  -0.096   3.508  1.3727 -0.6600  1.1249
  993MOL0     H36982   3.505  -0.064   3.358 -0.1770  0.2641  0.2021
  993MOL0     H36983   3.796  -0.003   3.443  4.3219 -1.0688  1.7481
  993MOL0     H36984   4.010  -0.223   3.534 -1.1635 -0.0287 -1.0930
  993MOL0     H36985   3.987  -0.193   3.709  2.6141 -2.0166 -1.5207
  993MOL0     H36986   4.052  -0.011   3.473  1.1383  2.2557  0.0819
  993MOL0     H36987   3.973   0.060   3.607 -1.6463 -0.2025 -3.5799
  993MOL0     H36988   4.219   0.082   3.603 -1.2326  0.4165 -0.6068
  993MOL0     H36989   4.177  -0.022   3.744  1.0139 -1.0931 -0.6487
  993MOL0     H36990   4.228  -0.213   3.568  3.3244 -2.6942 -3.3104
  993MOL0     H36991   4.288  -0.092   3.467 -3.4009  0.2861 -0.2268
  993MOL0     H36992   4.372  -0.360   3.580 -0.1722  2.2457  0.3023
  993MOL0     H36993   4.517  -0.615   3.709  1.1348  2.7861  2.0404
  993MOL0     H36994   4.611  -0.614   3.552  1.1950  0.9228 -0.6598
  993MOL0     H36995   4.439  -0.565   3.549 -1.2911  1.7193  2.1904
  993MOL0     H36996   5.089  -0.568   3.780  1.3582 -1.2127 -0.7409
  993MOL0     H36997   5.233  -0.700   3.879 -0.8626 -0.0771 -0.1294
  993MOL0     H36998   5.344  -0.957   3.929 -0.6599  0.4075 -0.6607
  993MOL0     H36999   5.342  -0.811   4.023  0.7952 -0.2578 -0.7017
  993MOL0     H37000   5.491  -1.000   4.126  0.2691 -2.4861 -1.8749
  993MOL0     H37001   5.346  -0.979   4.223  0.1499  1.6258 -0.7379
  993MOL0     H37002   5.410  -1.193   4.010  0.3977  1.5842 -0.4864
  993MOL0     H37003   5.254  -1.187   4.079 -0.5240 -1.0800 -1.8391
  993MOL0     H37004   5.353  -1.329   4.227  1.8084 -1.1725  2.2832
  993MOL0     H37005   5.444  -1.184   4.298 -0.4110  1.5685 -1.6282
  993MOL0     H37006   5.547  -1.370   4.076  0.0005  2.0560 -0.5986
  993MOL0     H37007   5.637  -1.237   4.141  0.6150 -1.1895  0.8639
  993MOL0     H37008   5.683  -1.357   4.354 -1.4929  2.4558 -0.7690
  993MOL0     H37009   5.721  -1.457   4.226  1.8133  2.2360 -0.4573
  993MOL0     H37010   5.584  -1.612   4.334  1.0060  0.0038  3.5654
  993MOL0     H37011   5.450  -1.533   4.266  0.5056 -0.6554 -0.3021
  993MOL0     H37012   5.417  -1.389   4.460  0.7486  0.9383 -1.3589
  993MOL0     H37013   5.589  -1.419   4.513  1.6136 -0.6259 -0.1238
  993MOL0     H37014   4.928  -0.957   4.033  3.2925 -1.0791  0.5418
  993MOL0     H37015   4.764  -0.821   3.916  0.5579  0.5472  3.1593
  993MOL0     H37016   4.803  -0.223   3.803  0.2014  2.8156 -1.3385
  993MOL0     H37017   4.628  -0.057   3.755 -1.3393  0.4207 -2.6977
  993MOL0     H37018   2.986   0.472   4.093  2.8339 -3.1524 -2.1940
  993MOL0     H37019   2.747   0.456   4.061  2.1276 -1.4656  0.4887
  993MOL0     H37020   2.374   0.538   3.905  0.9240  1.4079  0.0993
  993MOL0     H37021   2.121   0.522   3.875 -2.1241 -0.0964 -1.3001
  993MOL0     H37022   1.955   0.299   3.520 -0.3661 -0.9521  1.3638
  993MOL0     H37023   1.915   0.273   3.695 -1.4933  0.0022  0.2952
  993MOL0     H37024   1.717   0.424   3.680 -0.3298  4.6147 -0.8892
  993MOL0     H37025   1.726   0.314   3.540  0.0935 -0.5390  1.6035
  993MOL0     H37026   1.847   0.579   3.523  0.0385 -1.8164  3.6094
  993MOL0     H37027   1.800   0.475   3.387 -0.7883 -0.6308 -0.7344
  993MOL0     H37028   1.591   0.589   3.575  1.5831 -1.4367  1.7526
  993MOL0     H37029   1.562   0.501   3.420 -0.0890  0.1966  0.0657
  993MOL0     H37030   1.627   0.916   3.348  1.4984  0.1192 -0.7966
  993MOL0     H37031   2.180   0.388   3.475 -2.0629  1.8680  1.2460
  993MOL0     H37032   2.526   0.302   3.497  1.2498  0.7629  2.4642
  993MOL0     H37033   2.371   0.332   3.397  0.0062  2.2160 -0.4389
  993MOL0     H37034   2.484   0.456   3.427 -0.1529 -0.4821 -0.5272
  994MOL0     O37035   3.517   3.590   5.594  0.1158 -0.4848 -0.4315
  994MOL0     C37036   3.581   3.667   5.664 -0.7839  0.5026  0.1791
  994MOL0     O37037   3.595   3.651   5.804 -0.5581 -0.6230 -0.0174
  994MOL0     C37038   3.540   3.540   5.862 -0.7681  0.2372 -0.2301
  994MOL0     C37039   3.605   3.415   5.860  0.6004 -0.4955 -0.4307
  994MOL0     C37040   3.553   3.307   5.938  0.1576 -0.2314  1.2051
  994MOL0     C37041   3.450   3.341   6.035  0.1227 -0.0583 -0.5946
  994MOL0     O37042   3.404   3.248   6.118  0.1489  0.5372  0.7833
  994MOL0     C37043   3.491   3.138   6.159 -0.2935 -0.8284 -0.1367
  994MOL0     C37044   3.482   3.009   6.064 -0.0275  0.3557  0.3968
  994MOL0     C37045   3.370   2.921   6.112  0.3508 -0.4564  0.2877
  994MOL0     C37046   3.232   2.968   6.059  0.4480  0.1136 -0.7130
  994MOL0     C37047   3.118   2.874   6.086 -0.2208 -0.4444 -0.7445
  994MOL0     C37048   3.132   2.734   6.028  0.5802 -0.0142 -0.0935
  994MOL0     C37049   3.008   2.663   6.026  0.5371 -0.5535  0.5276
  994MOL0     C37050   2.992   2.575   5.904  1.0642 -0.9511 -0.2370
  994MOL0     N37051   3.068   2.454   5.924  0.1325  0.9560  0.2800
  994MOL0     C37052   3.189   2.416   5.859  0.4570 -0.4603  1.1631
  994MOL0     C37053   3.201   2.287   5.894  0.9284  0.0282  0.3752
  994MOL0     C37054   3.298   2.183   5.828 -0.2360 -0.0546 -0.2294
  994MOL0     C37055   3.440   2.206   5.885  0.6518  0.2752  0.0376
  994MOL0     C37056   3.437   2.174   6.038  0.5825  0.2195  0.1167
  994MOL0     C37057   3.556   2.219   6.110  1.2289  0.4713  0.3858
  994MOL0     O37058   3.564   2.362   6.088  0.3211 -0.7728 -0.0439
  994MOL0     C37059   3.676   2.423   6.123 -0.2197 -0.8120  0.3137
  994MOL0     C37060   3.687   2.546   6.055 -0.1103  0.6551 -1.0971
  994MOL0     C37061   3.794   2.636   6.077  0.5193  0.2475 -0.1380
  994MOL0     C37062   3.791   2.762   5.999 -0.2687  0.2401  0.9785
  994MOL0     C37063   3.904   2.583   6.155  0.3618  0.3554 -0.3237
  994MOL0     C37064   4.024   2.667   6.184 -0.6613 -0.8136 -0.9766
  994MOL0     O37065   4.046   2.777   6.106 -0.2094 -0.2334  0.0282
  994MOL0     C37066   4.156   2.858   6.125  0.0530 -0.6058  0.0551
  994MOL0     C37067   4.242   2.880   6.019  0.0640  0.0173  0.4542
  994MOL0     C37068   4.359   2.957   6.034  0.0826 -0.0458 -0.4498
  994MOL0     C37069   4.390   3.002   6.160 -0.4034 -0.2219 -1.2561
  994MOL0     O37070   4.508   3.079   6.176 -0.3276  0.4968 -0.0433
  994MOL0     C37071   4.487   3.218   6.193  0.1644  0.5220 -0.3055
  994MOL0     C37072   4.617   3.296   6.217  0.7432  0.2651  0.4636
  994MOL0     C37073   4.711   3.285   6.100 -0.4153 -0.3869  0.4221
  994MOL0     C37074   4.852   3.329   6.150 -0.2843  0.4326 -0.1469
  994MOL0     C37075   4.941   3.338   6.032  0.2040 -0.4440 -0.1647
  994MOL0     C37076   4.988   3.204   5.966  0.3786 -0.2649 -0.2550
  994MOL0     C37077   5.094   3.231   5.866 -0.9234  0.1071  0.8345
  994MOL0     C37078   5.145   3.087   5.834 -0.4550  0.6077 -0.1447
  994MOL0    Cl37079   5.080   3.020   5.677  0.3565 -0.5993  0.0595
  994MOL0     C37080   4.311   2.977   6.277  0.4059 -0.4241 -0.0040
  994MOL0     C37081   4.187   2.912   6.254 -0.2776 -0.4543 -0.8213
  994MOL0     O37082   4.086   2.631   6.284 -0.4093  0.1285  0.3346
  994MOL0     C37083   3.895   2.459   6.218  0.6367 -0.2775  0.4496
  994MOL0     C37084   3.782   2.378   6.199 -0.4678  0.8751  0.0320
  994MOL0     N37085   3.093   2.255   5.971  0.1467  0.4213 -0.0420
  994MOL0     N37086   3.014   2.353   5.986  0.1112 -0.7425  0.3267
  994MOL0     C37087   3.393   3.468   6.043 -1.1373 -1.4550  0.0653
  994MOL0     C37088   3.441   3.571   5.959  0.1217  0.8395  0.1432
  994MOL0     C37089   3.643   3.796   5.614 -0.4571  0.0508 -0.6112
  994MOL0     C37090   3.587   3.862   5.501  0.7374 -0.4000 -0.2170
  994MOL0     C37091   3.638   3.983   5.458 -0.7437  0.6554  0.1436
  994MOL0     C37092   3.752   4.039   5.531  0.3629  0.1136  0.0701
  994MOL0     O37093   3.814   4.155   5.495  0.1434  0.4449  1.1097
  994MOL0     C37094   3.766   4.220   5.377  0.1874  1.1167 -0.1376
  994MOL0     C37095   3.875   4.327   5.335  1.0634 -0.3797  0.2418
  994MOL0     C37096   3.927   4.416   5.447 -0.7214  0.5726  0.7277
  994MOL0     C37097   3.805   4.501   5.499  0.6614  0.0877  0.7687
  994MOL0     C37098   3.859   4.592   5.598 -0.2685 -0.4753 -1.3769
  994MOL0     C37099   3.897   4.678   5.679  1.3646 -0.2465  0.6230
  994MOL0     C37100   3.802   3.984   5.641 -1.2029  0.6055 -0.4566
  994MOL0     C37101   3.762   3.857   5.675  0.5389  0.5565  0.1530
  994MOL0     C37102   3.846   3.788   5.773  0.2026 -0.3686 -0.1700
  994MOL0     H37103   3.687   3.401   5.790  1.2083  0.1923  0.1308
  994MOL0     H37104   3.601   3.210   5.930 -2.8329 -2.0489  3.3239
  994MOL0     H37105   3.450   3.116   6.257  3.0077  2.5183  2.2780
  994MOL0     H37106   3.589   3.187   6.162 -0.3391 -0.8165  1.9887
  994MOL0     H37107   3.468   3.033   5.959  0.7060 -1.5021 -0.1616
  994MOL0     H37108   3.575   2.951   6.071 -0.5001 -0.6086 -0.9799
  994MOL0     H37109   3.393   2.815   6.098 -0.3654 -1.0328  2.9690
  994MOL0     H37110   3.367   2.926   6.221 -1.6870 -1.5360  0.3318
  994MOL0     H37111   3.205   3.062   6.109 -0.1649 -2.5197  4.6349
  994MOL0     H37112   3.235   2.998   5.954 -2.2900  1.0784 -0.6059
  994MOL0     H37113   3.029   2.919   6.041 -2.4166 -0.3771  3.2135
  994MOL0     H37114   3.090   2.863   6.191 -0.7241  0.2369 -0.8003
  994MOL0     H37115   3.158   2.757   5.924 -1.8835  3.9860 -0.0392
  994MOL0     H37116   3.211   2.673   6.071 -0.1769 -0.0486  1.2929
  994MOL0     H37117   2.926   2.736   6.028  1.5839  0.6688 -0.0353
  994MOL0     H37118   3.008   2.599   6.115  3.5229 -1.2060  0.1379
  994MOL0     H37119   2.887   2.551   5.884  0.8818 -0.3490 -0.0144
  994MOL0     H37120   3.020   2.641   5.822 -2.4658  2.3758  0.8944
  994MOL0     H37121   3.248   2.469   5.786 -1.8049 -0.9015 -1.1398
  994MOL0     H37122   3.293   2.203   5.720  1.4282 -0.2715 -0.3691
  994MOL0     H37123   3.266   2.081   5.852 -1.5759  0.2412 -0.6448
  994MOL0     H37124   3.511   2.141   5.831  0.1025 -1.0223  0.8296
  994MOL0     H37125   3.471   2.310   5.873  2.9617 -0.0228  2.3314
  994MOL0     H37126   3.343   2.208   6.083 -2.1487 -4.6295 -1.1881
  994MOL0     H37127   3.427   2.067   6.062  0.4345  0.0321 -0.7279
  994MOL0     H37128   3.560   2.209   6.219  1.9979  1.8009  0.5121
  994MOL0     H37129   3.644   2.164   6.075  1.8209 -0.1022  2.6365
  994MOL0     H37130   3.606   2.568   5.986  0.7427 -0.1044 -2.3959
  994MOL0     H37131   3.879   2.790   5.941 -0.4113 -1.8428 -0.3516
  994MOL0     H37132   3.776   2.846   6.068  3.7129  3.5036 -1.6326
  994MOL0     H37133   3.706   2.749   5.931  1.4757  1.4731 -1.5601
  994MOL0     H37134   4.202   2.847   5.923 -1.1512  3.9764 -0.5643
  994MOL0     H37135   4.412   3.003   5.950 -2.4840  0.3081 -1.9783
  994MOL0     H37136   4.437   3.255   6.103 -3.2099 -3.5758 -0.4649
  994MOL0     H37137   4.420   3.235   6.278 -1.9609  0.8064 -1.9562
  994MOL0     H37138   4.605   3.400   6.249  2.6037  0.4282  0.7321
  994MOL0     H37139   4.673   3.247   6.298 -2.1350 -0.0552  2.4087
  994MOL0     H37140   4.670   3.346   6.019 -2.1724 -1.2929  0.5843
  994MOL0     H37141   4.709   3.179   6.073 -0.4751 -0.7786  1.8701
  994MOL0     H37142   4.880   3.251   6.221 -2.0028  0.3969  0.5450
  994MOL0     H37143   4.849   3.426   6.200  2.1874  0.3353  0.3176
  994MOL0     H37144   4.896   3.391   5.948  0.7454 -0.9539 -0.7923
  994MOL0     H37145   5.026   3.397   6.067 -0.2888  1.4043 -1.9336
  994MOL0     H37146   4.902   3.151   5.923 -1.1354 -1.3849  3.7054
  994MOL0     H37147   5.025   3.140   6.047  2.3828  1.6534  0.4478
  994MOL0     H37148   5.179   3.290   5.900  1.1678 -1.6367 -1.0343
  994MOL0     H37149   5.058   3.273   5.771  4.2063 -2.8284 -2.9186
  994MOL0     H37150   5.137   3.023   5.922  2.2591 -0.1713 -0.3889
  994MOL0     H37151   5.253   3.093   5.819  0.2670  2.6065  4.0780
  994MOL0     H37152   4.323   3.009   6.379 -2.4980 -0.7933  0.5333
  994MOL0     H37153   4.119   2.880   6.332 -0.2602 -2.4545 -1.5765
  994MOL0     H37154   3.973   2.428   6.287  3.2116  3.0022 -0.6962
  994MOL0     H37155   3.785   2.286   6.257  2.4805 -0.2984 -1.8174
  994MOL0     H37156   3.316   3.495   6.114 -1.1853 -0.1434 -0.4570
  994MOL0     H37157   3.396   3.670   5.959 -0.7183  0.4802 -0.8169
  994MOL0     H37158   3.497   3.827   5.450  0.5272  2.3108 -1.9172
  994MOL0     H37159   3.596   4.027   5.368 -0.1892  0.4175 -0.2340
  994MOL0     H37160   3.758   4.153   5.291 -0.4496  0.7878  0.1695
  994MOL0     H37161   3.672   4.265   5.408 -1.4077 -1.9870 -0.0684
  994MOL0     H37162   3.819   4.395   5.270 -0.9276 -1.0751  1.1354
  994MOL0     H37163   3.949   4.265   5.285 -1.7208  0.5821 -5.9120
  994MOL0     H37164   3.985   4.354   5.515  1.1447  1.2352 -0.1993
  994MOL0     H37165   3.997   4.489   5.405 -0.1566  0.3302  1.2390
  994MOL0     H37166   3.733   4.431   5.541 -2.7609  2.2656 -1.0319
  994MOL0     H37167   3.754   4.553   5.418  1.1800 -2.3473 -1.2628
  994MOL0     H37168   3.909   4.752   5.756 -1.1652 -1.5030  2.3692
  994MOL0     H37169   3.885   4.042   5.681 -1.5042  0.9706 -0.3516
  994MOL0     H37170   3.833   3.680   5.764 -1.3701 -0.2241 -0.0142
  994MOL0     H37171   3.952   3.813   5.767  0.3681 -1.1067 -0.3516
  994MOL0     H37172   3.816   3.827   5.871 -0.1435 -0.5066 -0.2176
  995MOL0     O37173  11.382  10.973   9.017 -0.2474 -0.8263  0.0067
  995MOL0     C37174  11.393  10.930   8.904  0.6718 -0.7300  0.7732
  995MOL0     O37175  11.287  10.883   8.832 -0.5229 -0.5351  0.3734
  995MOL0     C37176  11.153  10.912   8.860 -0.4730  0.0001 -0.3198
  995MOL0     C37177  11.098  10.903   8.988  0.0650  1.1430 -0.3796
  995MOL0     C37178  10.969  10.921   9.025 -0.0959  0.3378 -0.7101
  995MOL0     C37179  10.879  10.962   8.925 -0.6076  0.1351  0.4003
  995MOL0     O37180  10.743  10.980   8.938  0.4930 -0.5860 -0.2782
  995MOL0     C37181  10.669  10.916   9.046 -1.0608  0.7335 -0.4492
  995MOL0     C37182  10.522  10.907   9.033 -0.3716 -0.2379  0.1534
  995MOL0     C37183  10.460  11.049   9.030  1.4339 -0.3676 -0.3865
  995MOL0     C37184  10.320  11.050   9.092  0.2094 -0.7073 -0.2603
  995MOL0     C37185  10.249  11.187   9.060  0.1013  0.2814 -0.4654
  995MOL0     C37186  10.090  11.183   9.069  0.4810  0.9400  0.1191
  995MOL0     C37187  10.010  11.105   8.959 -0.0136 -0.2466 -0.9692
  995MOL0     C37188   9.950  11.192   8.845  1.0800  0.1557 -1.6148
  995MOL0     N37189  10.051  11.239   8.748 -0.7321  0.0148 -0.2702
  995MOL0     C37190  10.125  11.357   8.753  0.1128 -0.0352  0.2776
  995MOL0     C37191  10.188  11.364   8.627 -0.4139 -0.4955 -0.0643
  995MOL0     C37192  10.242  11.491   8.554  0.3798  1.1663  0.1450
  995MOL0     C37193  10.132  11.581   8.486  0.4355 -0.0147  0.8030
  995MOL0     C37194  10.183  11.711   8.435 -0.0233  0.3470  0.8609
  995MOL0     C37195  10.319  11.708   8.355  0.1375 -0.1291 -0.7933
  995MOL0     O37196  10.434  11.727   8.446 -0.3329  0.8815 -0.7201
  995MOL0     C37197  10.565  11.734   8.396  0.3947 -0.2476 -0.2682
  995MOL0     C37198  10.676  11.769   8.485 -0.1793 -0.0616 -0.3175
  995MOL0     C37199  10.812  11.739   8.457  0.8227  0.0609 -0.1130
  995MOL0     C37200  10.910  11.759   8.565 -0.8065 -0.3850 -0.2559
  995MOL0     C37201  10.839  11.679   8.327 -0.7127 -0.1152  0.8407
  995MOL0     C37202  10.974  11.641   8.279 -0.1349  1.0819  0.9705
  995MOL0     O37203  10.996  11.632   8.143 -0.0758  0.5520  0.6718
  995MOL0     C37204  11.111  11.580   8.093 -0.7570 -0.3519 -0.5627
  995MOL0     C37205  11.119  11.506   7.975 -0.0059  0.5498 -0.4191
  995MOL0     C37206  11.249  11.485   7.917  0.2071  0.3547  0.3783
  995MOL0     C37207  11.362  11.547   7.970 -1.0710  0.1347 -1.2503
  995MOL0     O37208  11.486  11.546   7.909  0.2515 -0.5462 -0.0772
  995MOL0     C37209  11.548  11.419   7.874  0.1341 -0.5684  0.0399
  995MOL0     C37210  11.688  11.446   7.837 -0.3883 -0.2256 -0.4893
  995MOL0     C37211  11.765  11.322   7.781  0.2020 -0.5371  0.3281
  995MOL0     C37212  11.850  11.222   7.877  0.0352 -0.3410 -0.0708
  995MOL0     C37213  11.899  11.098   7.798 -0.5204  0.8527  0.1268
  995MOL0     C37214  11.999  11.146   7.686 -0.1622 -0.4416 -0.0899
  995MOL0     C37215  12.056  11.039   7.598 -0.2472  0.4406  0.2391
  995MOL0     C37216  12.175  10.980   7.673 -0.4244  0.4384  0.2808
  995MOL0    Cl37217  12.109  10.849   7.783  0.1457  0.1703 -0.2943
  995MOL0     C37218  11.358  11.633   8.074 -0.0369  0.4231  0.0596
  995MOL0     C37219  11.229  11.644   8.135 -0.7617  0.7326  0.4364
  995MOL0     O37220  11.048  11.590   8.364 -0.3957 -0.2562 -0.3345
  995MOL0     C37221  10.736  11.654   8.244  0.3078 -0.2678  0.5825
  995MOL0     C37222  10.602  11.677   8.274  0.1507 -0.5758 -0.0290
  995MOL0     N37223  10.155  11.250   8.552  0.0504 -0.7973  0.4023
  995MOL0     N37224  10.073  11.185   8.624 -0.6867  0.1723 -0.3864
  995MOL0     C37225  10.928  10.965   8.789  0.2221 -0.2580  0.0960
  995MOL0     C37226  11.059  10.934   8.755 -0.0827  0.8401  0.3367
  995MOL0     C37227  11.528  10.942   8.840  0.6482  0.7396 -0.0304
  995MOL0     C37228  11.640  10.954   8.921 -0.1139  0.7560 -0.2854
  995MOL0     C37229  11.768  10.960   8.872  0.7427  0.6195 -0.5131
  995MOL0     C37230  11.796  10.949   8.739 -0.8247 -0.0187  0.6883
  995MOL0     O37231  11.922  10.963   8.678 -0.3668  0.0010 -0.3984
  995MOL0     C37232  12.039  10.897   8.749 -0.1861 -0.4818 -0.7895
  995MOL0     C37233  12.160  10.915   8.656  0.6244  0.1258  0.3908
  995MOL0     C37234  12.222  11.055   8.664  0.9693 -0.3745 -0.0288
  995MOL0     C37235  12.339  11.080   8.575  0.6102 -0.3610  0.5063
  995MOL0     C37236  12.453  10.986   8.590 -0.1992  0.1101  1.0280
  995MOL0     C37237  12.538  10.894   8.582 -0.0437 -0.3894  0.1329
  995MOL0     C37238  11.687  10.949   8.656 -0.1466 -0.7550 -1.1935
  995MOL0     C37239  11.555  10.940   8.700 -0.1833 -0.6638  1.4480
  995MOL0     C37240  11.450  10.928   8.595  0.1348  0.3473  0.6448
  995MOL0     H37241  11.155  10.861   9.071 -3.1679  1.5048  2.2142
  995MOL0     H37242  10.931  10.885   9.121  0.5413  0.7968 -0.2808
  995MOL0     H37243  10.691  10.977   9.134  0.3946 -0.8773  0.3680
  995MOL0     H37244  10.708  10.815   9.062 -1.8823  0.7626  2.0288
  995MOL0     H37245  10.503  10.849   8.942  1.1901 -1.6044  0.6483
  995MOL0     H37246  10.493  10.850   9.122  0.9464 -1.0898  0.0553
  995MOL0     H37247  10.519  11.123   9.086 -0.7686  2.1727 -1.2107
  995MOL0     H37248  10.452  11.076   8.925 -3.2125 -2.6371 -0.8491
  995MOL0     H37249  10.267  10.972   9.037 -0.0449 -0.7854  0.0978
  995MOL0     H37250  10.323  11.040   9.200  2.6870 -0.1753 -0.2301
  995MOL0     H37251  10.271  11.204   8.954 -0.9078 -0.7906 -0.8725
  995MOL0     H37252  10.291  11.271   9.116 -2.4435  0.8873  0.7021
  995MOL0     H37253  10.064  11.147   9.169 -0.2406  2.8233  0.6481
  995MOL0     H37254  10.048  11.284   9.064 -1.0249  0.2824 -1.0040
  995MOL0     H37255   9.929  11.042   8.998 -0.0731  0.7462  0.6042
  995MOL0     H37256  10.081  11.031   8.921  1.3045  0.7439 -0.5134
  995MOL0     H37257   9.867  11.132   8.804 -1.3667  0.8596  1.8239
  995MOL0     H37258   9.897  11.278   8.886  1.8195 -1.8432  4.4774
  995MOL0     H37259  10.116  11.422   8.839 -2.1035  0.2535 -0.1148
  995MOL0     H37260  10.323  11.462   8.486 -1.9721 -1.6232 -1.7293
  995MOL0     H37261  10.289  11.552   8.632 -1.3372  1.3436  1.0860
  995MOL0     H37262  10.078  11.518   8.415 -2.5310  1.6855  1.3844
  995MOL0     H37263  10.054  11.611   8.556 -1.6227 -4.4489  0.7324
  995MOL0     H37264  10.109  11.768   8.378 -0.3273  0.3274  1.2313
  995MOL0     H37265  10.211  11.775   8.519  0.8595  0.4039  0.5324
  995MOL0     H37266  10.322  11.610   8.306 -0.0592 -0.9679  0.8026
  995MOL0     H37267  10.308  11.774   8.268 -1.4592 -0.6901 -1.0493
  995MOL0     H37268  10.649  11.813   8.581 -0.7846 -0.0717 -0.4833
  995MOL0     H37269  10.997  11.807   8.520 -1.6668  2.4774  0.8964
  995MOL0     H37270  10.927  11.666   8.620 -0.0177  0.3337  0.7514
  995MOL0     H37271  10.875  11.846   8.622 -3.2335  1.0485 -3.5771
  995MOL0     H37272  11.033  11.464   7.924  0.3284  0.3235 -0.8010
  995MOL0     H37273  11.256  11.442   7.817  3.6739  1.5834 -0.0398
  995MOL0     H37274  11.542  11.347   7.956  1.5491 -2.1846 -1.2165
  995MOL0     H37275  11.497  11.374   7.789 -1.8188 -1.7655  1.7571
  995MOL0     H37276  11.683  11.518   7.754 -1.0076  0.2750 -0.0214
  995MOL0     H37277  11.741  11.483   7.925 -2.8167 -2.2136  1.9573
  995MOL0     H37278  11.838  11.371   7.716 -3.0211  1.6112 -1.9690
  995MOL0     H37279  11.695  11.263   7.721 -1.9696  0.8974  1.3465
  995MOL0     H37280  11.781  11.203   7.960 -0.0636 -1.9312 -0.4991
  995MOL0     H37281  11.943  11.268   7.912  1.9874 -3.1641 -1.2371
  995MOL0     H37282  11.941  11.030   7.873  0.5178  0.0930 -1.1060
  995MOL0     H37283  11.825  11.036   7.748 -1.0233 -0.4951  2.4018
  995MOL0     H37284  12.067  11.215   7.737  0.3235 -1.2583  0.3830
  995MOL0     H37285  11.944  11.207   7.613  1.1375 -2.3052 -2.7867
  995MOL0     H37286  12.089  11.080   7.502  1.5150 -1.8219 -0.2230
  995MOL0     H37287  11.971  10.973   7.579 -0.9020  1.5903 -1.0235
  995MOL0     H37288  12.229  11.061   7.724  2.4364 -2.1060  1.6560
  995MOL0     H37289  12.243  10.925   7.607  1.3001  2.1735  0.5282
  995MOL0     H37290  11.445  11.692   8.102 -1.8407  2.3348  2.0312
  995MOL0     H37291  11.215  11.715   8.215 -0.8029 -0.3909  1.4589
  995MOL0     H37292  10.770  11.614   8.149 -0.1774  2.5134 -0.8541
  995MOL0     H37293  10.532  11.643   8.198 -0.5330  0.8245 -0.0520
  995MOL0     H37294  10.862  10.996   8.709 -0.6935 -2.3567 -0.0191
  995MOL0     H37295  11.095  10.947   8.654 -1.5665 -3.7644 -0.9956
  995MOL0     H37296  11.623  10.952   9.029  0.0569  3.1875 -0.1520
  995MOL0     H37297  11.845  10.978   8.946 -0.3573  2.6940  0.1968
  995MOL0     H37298  12.062  10.938   8.848  0.2484 -1.9106 -0.2763
  995MOL0     H37299  12.012  10.791   8.756  0.4624 -0.5849  0.3487
  995MOL0     H37300  12.136  10.892   8.552  1.5564 -1.3560  0.4867
  995MOL0     H37301  12.239  10.847   8.690 -1.0462 -2.1146  0.0495
  995MOL0     H37302  12.142  11.123   8.632  0.2921 -0.3429  1.6507
  995MOL0     H37303  12.235  11.080   8.769 -1.9147 -0.2138  0.3653
  995MOL0     H37304  12.380  11.180   8.592 -1.0209  0.5553 -0.6598
  995MOL0     H37305  12.290  11.055   8.480  1.5448  0.1617 -0.1292
  995MOL0     H37306  12.591  10.804   8.557 -2.2673 -0.5464 -5.4491
  995MOL0     H37307  11.703  10.956   8.549 -1.8227 -0.7988 -1.4748
  995MOL0     H37308  11.384  11.015   8.606 -2.2878 -1.4968  1.8354
  995MOL0     H37309  11.486  10.921   8.492 -1.4918 -0.8196  0.0969
  995MOL0     H37310  11.402  10.832   8.615  0.3182 -0.2747 -1.6418
  996MOL0     O37311  10.178   0.379   8.843 -0.0964  0.4948 -0.5230
  996MOL0     C37312  10.191   0.439   8.738 -0.2837  0.7582 -0.1146
  996MOL0     O37313  10.290   0.526   8.716  0.2818  0.0121 -0.4412
  996MOL0     C37314  10.395   0.514   8.797 -0.0501  0.6377 -0.5453
  996MOL0     C37315  10.505   0.436   8.750  0.5877  0.1187  0.3333
  996MOL0     C37316  10.618   0.432   8.833  1.3225  0.9144 -0.0448
  996MOL0     C37317  10.630   0.504   8.939  0.4874 -0.3081 -0.8058
  996MOL0     O37318  10.746   0.501   9.019 -0.7129  0.2149 -0.4052
  996MOL0     C37319  10.872   0.549   8.967 -0.7431 -0.0485  0.5712
  996MOL0     C37320  10.992   0.555   9.066  0.1281 -0.0765 -0.0018
  996MOL0     C37321  11.065   0.413   9.091 -0.4044 -0.3734 -0.5616
  996MOL0     C37322  11.160   0.416   9.217 -0.4319 -0.4960 -0.1212
  996MOL0     C37323  11.240   0.283   9.217 -0.2927 -0.9226 -0.5427
  996MOL0     C37324  11.388   0.310   9.191 -0.0531  0.6701  0.4543
  996MOL0     C37325  11.464   0.176   9.207  0.2792  0.8126 -0.0571
  996MOL0     C37326  11.615   0.185   9.182 -0.0252  0.1404 -0.2771
  996MOL0     N37327  11.645   0.236   9.048 -0.5109 -0.5557 -0.5894
  996MOL0     C37328  11.594   0.211   8.931 -0.2297  0.2005  0.3657
  996MOL0     C37329  11.666   0.284   8.842  0.6700 -0.9396 -0.6079
  996MOL0     C37330  11.647   0.314   8.697 -0.0867 -0.4104 -0.1917
  996MOL0     C37331  11.704   0.203   8.608  0.7330 -0.4536 -0.3404
  996MOL0     C37332  11.849   0.161   8.630 -0.8055  0.3219  0.3876
  996MOL0     C37333  11.948   0.256   8.555  0.7947 -1.1525  0.3277
  996MOL0     O37334  12.072   0.181   8.581  0.3210  0.1770  0.0992
  996MOL0     C37335  12.183   0.248   8.624  1.3697 -0.5222  0.1483
  996MOL0     C37336  12.225   0.368   8.572 -0.7744  0.3868  0.4810
  996MOL0     C37337  12.338   0.443   8.609  0.0704  0.5092 -0.3676
  996MOL0     C37338  12.355   0.576   8.541 -0.6333  1.2412  1.0117
  996MOL0     C37339  12.430   0.389   8.703 -0.6372  0.5539  0.2199
  996MOL0     C37340  12.549   0.448   8.753  0.1338 -0.1679  0.2105
  996MOL0     O37341  12.554   0.457   8.894  0.0708  0.1717  0.1563
  996MOL0     C37342  12.665   0.520   8.931 -0.7222 -1.2745 -0.2408
  996MOL0     C37343  12.672   0.659   8.940 -0.3256  0.3839  0.7475
  996MOL0     C37344  12.777   0.729   8.996  0.2452  0.8198  0.0018
  996MOL0     C37345  12.889   0.657   9.032 -0.2809  0.7556  0.0908
  996MOL0     O37346  13.001   0.721   9.074  0.7063  0.6890 -0.3434
  996MOL0     C37347  13.064   0.820   8.994 -0.0074 -0.0790 -0.5558
  996MOL0     C37348  13.150   0.921   9.079 -0.0631  0.2596 -0.5466
  996MOL0     C37349  13.183   1.045   8.992  0.2489 -1.0412 -0.5325
  996MOL0     C37350  13.306   1.115   9.044 -1.2707  0.3796  0.1403
  996MOL0     C37351  13.387   1.189   8.931  0.0566  0.1504  0.0669
  996MOL0     C37352  13.510   1.240   8.996 -0.0072 -0.6093  0.2671
  996MOL0     C37353  13.616   1.273   8.892  0.0547 -0.0217 -0.2716
  996MOL0     C37354  13.746   1.326   8.954  1.1080 -0.0294  0.0377
  996MOL0    Cl37355  13.826   1.181   9.030  0.1440  0.2230 -0.1836
  996MOL0     C37356  12.888   0.508   9.031  0.0251 -0.9313 -0.3814
  996MOL0     C37357  12.771   0.450   8.984 -0.2706 -0.2396 -0.0670
  996MOL0     O37358  12.641   0.477   8.680 -0.2787  0.5491  0.0967
  996MOL0     C37359  12.393   0.267   8.757  0.1387 -0.8480 -0.7200
  996MOL0     C37360  12.269   0.196   8.717  0.4104 -0.3420 -0.4440
  996MOL0     N37361  11.763   0.356   8.909  0.1195 -0.1604  0.4473
  996MOL0     N37362  11.742   0.336   9.035 -0.1385  0.6499 -0.0098
  996MOL0     C37363  10.527   0.579   8.987  0.8732  0.2026 -0.5581
  996MOL0     C37364  10.407   0.590   8.917 -0.3715  0.6803  0.3410
  996MOL0     C37365  10.069   0.435   8.645 -1.1230  0.2626  0.0872
  996MOL0     C37366   9.947   0.382   8.685  1.9754  0.4409  1.0967
  996MOL0     C37367   9.826   0.396   8.610  0.4742  0.5154 -0.3042
  996MOL0     C37368   9.835   0.444   8.479  0.0417  1.4722 -0.1122
  996MOL0     O37369   9.731   0.469   8.392 -0.2539 -0.1430 -0.1150
  996MOL0     C37370   9.596   0.423   8.434  0.0584 -1.3538  0.8871
  996MOL0     C37371   9.503   0.396   8.319 -0.6226  0.4644 -0.4187
  996MOL0     C37372   9.443   0.523   8.261 -0.0220  0.7752  0.0429
  996MOL0     C37373   9.543   0.597   8.170  0.4095 -0.1490 -0.5791
  996MOL0     C37374   9.489   0.691   8.069 -0.6976  0.4415  0.6609
  996MOL0     C37375   9.430   0.779   8.004  0.1960  0.5859  0.0232
  996MOL0     C37376   9.953   0.494   8.434 -0.0008 -0.1674 -0.7780
  996MOL0     C37377  10.071   0.485   8.511  1.0487 -0.2856  0.8256
  996MOL0     C37378  10.198   0.533   8.452 -0.4996 -0.5938  0.0545
  996MOL0     H37379  10.493   0.397   8.649  0.2304 -2.4296  1.2705
  996MOL0     H37380  10.695   0.367   8.793 -0.4472  0.3128 -2.7900
  996MOL0     H37381  10.861   0.644   8.913  0.2340  1.1043  2.3159
  996MOL0     H37382  10.910   0.475   8.895 -1.3746 -1.2465  1.4363
  996MOL0     H37383  11.068   0.633   9.054 -1.4437  1.6282  0.7252
  996MOL0     H37384  10.936   0.593   9.151  0.1452  1.9738 -0.8467
  996MOL0     H37385  10.980   0.345   9.094 -1.5647  1.0626 -0.1059
  996MOL0     H37386  11.123   0.388   9.001 -0.3660  0.8525 -0.8954
  996MOL0     H37387  11.231   0.499   9.218 -2.3552  1.2610  1.5081
  996MOL0     H37388  11.093   0.433   9.302  0.1847 -1.2691  0.5336
  996MOL0     H37389  11.215   0.204   9.145 -1.1409 -2.6759  1.5373
  996MOL0     H37390  11.220   0.233   9.312 -2.1306  2.2278  0.8786
  996MOL0     H37391  11.404   0.354   9.092 -2.5008 -2.0319 -1.3072
  996MOL0     H37392  11.434   0.378   9.262  1.7765  1.0839 -1.0468
  996MOL0     H37393  11.423   0.093   9.149 -3.2883  2.4568 -0.1370
  996MOL0     H37394  11.458   0.150   9.313  0.4090 -1.2833 -0.5120
  996MOL0     H37395  11.657   0.251   9.258 -1.8573  0.1675  0.7630
  996MOL0     H37396  11.652   0.082   9.192 -0.1863  0.1668  0.6484
  996MOL0     H37397  11.511   0.152   8.895  0.3631  0.6992 -1.9351
  996MOL0     H37398  11.685   0.415   8.680  0.3847 -0.1686  1.9951
  996MOL0     H37399  11.541   0.316   8.672 -0.0814  0.0713 -0.1724
  996MOL0     H37400  11.636   0.122   8.638  0.1268  0.2637  0.2634
  996MOL0     H37401  11.688   0.223   8.502  0.2330  1.4445  0.0614
  996MOL0     H37402  11.870   0.131   8.733 -1.1840 -1.0916  0.0764
  996MOL0     H37403  11.857   0.067   8.575 -0.2567 -1.6834  3.5859
  996MOL0     H37404  11.929   0.258   8.447 -1.6752 -0.2413  0.7316
  996MOL0     H37405  11.952   0.358   8.594  0.5499 -1.2311  0.5579
  996MOL0     H37406  12.158   0.414   8.499 -0.2680 -0.6711 -0.6773
  996MOL0     H37407  12.267   0.611   8.487 -0.1221  2.0944  0.7060
  996MOL0     H37408  12.420   0.561   8.453 -2.9147 -2.2566 -0.2587
  996MOL0     H37409  12.387   0.657   8.608 -1.3813  0.2636  2.5867
  996MOL0     H37410  12.583   0.710   8.902 -1.1061 -0.6365  1.1537
  996MOL0     H37411  12.779   0.837   9.008 -0.8225  0.8079  0.4783
  996MOL0     H37412  13.138   0.773   8.929  1.5058 -0.6287  1.4515
  996MOL0     H37413  12.990   0.878   8.939 -1.8715 -0.3490  1.5325
  996MOL0     H37414  13.096   0.948   9.170  3.2865 -1.7084  2.3126
  996MOL0     H37415  13.232   0.857   9.115 -0.8136 -0.4942 -0.1432
  996MOL0     H37416  13.099   1.115   8.996  0.8034  0.0024 -3.9405
  996MOL0     H37417  13.187   1.018   8.887 -1.0823  0.3109 -0.9641
  996MOL0     H37418  13.370   1.036   9.087 -0.4110 -0.0510 -1.7892
  996MOL0     H37419  13.286   1.185   9.125 -2.3874  1.2075 -0.8302
  996MOL0     H37420  13.411   1.123   8.846 -1.4062  0.1203 -0.3576
  996MOL0     H37421  13.335   1.279   8.897 -1.0807 -1.3221 -2.4264
  996MOL0     H37422  13.559   1.164   9.057 -1.3198 -1.0904  0.7638
  996MOL0     H37423  13.486   1.329   9.056  1.4515  1.0942 -1.5430
  996MOL0     H37424  13.571   1.344   8.821 -0.0803 -0.0099 -0.1747
  996MOL0     H37425  13.642   1.186   8.831 -1.8220 -1.0476  0.3202
  996MOL0     H37426  13.735   1.416   9.015  2.4865  1.4537 -1.7925
  996MOL0     H37427  13.814   1.355   8.874 -0.8668 -1.2770 -2.2207
  996MOL0     H37428  12.978   0.459   9.068  0.3543  0.2760  0.4763
  996MOL0     H37429  12.775   0.345   8.956 -0.4901  0.3952 -2.8166
  996MOL0     H37430  12.458   0.212   8.825  1.8723  0.1891 -1.4611
  996MOL0     H37431  12.242   0.100   8.759  3.2580 -0.6867  0.8334
  996MOL0     H37432  10.542   0.623   9.085  1.5739 -0.6536 -0.2669
  996MOL0     H37433  10.322   0.645   8.956  0.4988  1.7395  0.7721
  996MOL0     H37434   9.943   0.323   8.776 -0.2770 -2.2667 -0.5726
  996MOL0     H37435   9.737   0.350   8.652  1.2735 -0.0583  0.8349
  996MOL0     H37436   9.600   0.324   8.481  0.1932 -3.2814 -2.8383
  996MOL0     H37437   9.548   0.505   8.489 -0.1225 -0.2572 -0.8529
  996MOL0     H37438   9.421   0.328   8.345 -0.4286  0.6706  0.7737
  996MOL0     H37439   9.570   0.343   8.250 -0.8314 -2.1254  1.2039
  996MOL0     H37440   9.361   0.486   8.199 -1.0690 -1.3279  2.5078
  996MOL0     H37441   9.402   0.583   8.342 -0.9095  2.3632 -1.5232
  996MOL0     H37442   9.601   0.520   8.118  1.2393  0.6594 -0.8827
  996MOL0     H37443   9.620   0.658   8.219 -0.9081  1.5719 -0.5460
  996MOL0     H37444   9.378   0.850   7.943  1.4107  0.5019 -1.1392
  996MOL0     H37445   9.969   0.534   8.334  6.0308  1.6090  0.4502
  996MOL0     H37446  10.186   0.538   8.344  0.1245  0.9692  0.0292
  996MOL0     H37447  10.222   0.634   8.487  1.5362 -1.8172  2.5748
  996MOL0     H37448  10.285   0.475   8.485 -0.6129  0.6086  2.7439
  997MOL0     O37449   5.689   3.423   0.652  0.6562 -0.3624 -0.6863
  997MOL0     C37450   5.654   3.397   0.539 -0.1887 -0.1324  0.2246
  997MOL0     O37451   5.737   3.416   0.432 -0.0729 -0.6570  0.9511
  997MOL0     C37452   5.828   3.517   0.436  0.1134 -0.4971  0.5740
  997MOL0     C37453   5.961   3.494   0.394 -0.4585  1.0414  0.0576
  997MOL0     C37454   6.056   3.606   0.390  0.2160  0.0438 -0.1109
  997MOL0     C37455   6.012   3.736   0.440 -0.0575 -0.0586 -0.5386
  997MOL0     O37456   6.079   3.853   0.424 -0.4223 -0.0218 -0.6775
  997MOL0     C37457   6.213   3.830   0.381 -0.7533  0.2075 -1.0686
  997MOL0     C37458   6.300   3.962   0.387  0.5056 -0.0151  1.0699
  997MOL0     C37459   6.239   4.084   0.323  0.2560 -0.2363  0.2230
  997MOL0     C37460   6.344   4.188   0.265 -0.1924 -0.6551 -0.2471
  997MOL0     C37461   6.384   4.133   0.134 -0.0261 -0.7965  0.6092
  997MOL0     C37462   6.513   4.193   0.080 -0.5952 -0.5744  0.3817
  997MOL0     C37463   6.589   4.113  -0.025 -0.5378 -0.2205  0.7425
  997MOL0     C37464   6.736   4.160  -0.034  0.3616  0.6578 -0.4998
  997MOL0     N37465   6.802   4.120  -0.157 -1.7030 -0.3836 -0.2963
  997MOL0     C37466   6.817   4.192  -0.270 -0.1009 -0.8263  0.5007
  997MOL0     C37467   6.866   4.104  -0.359 -0.6461 -0.4098 -0.4056
  997MOL0     C37468   6.894   4.142  -0.502  1.1326 -0.3400  0.3970
  997MOL0     C37469   7.040   4.183  -0.530  0.5257  0.0322  0.6243
  997MOL0     C37470   7.066   4.188  -0.681 -0.2130 -0.1779 -0.5655
  997MOL0     C37471   6.997   4.297  -0.757 -0.6460 -0.4707  0.1654
  997MOL0     O37472   7.055   4.305  -0.888 -0.4592 -0.3664  0.5052
  997MOL0     C37473   6.989   4.367  -0.998 -0.1374 -0.2079 -0.2463
  997MOL0     C37474   6.854   4.398  -1.000 -0.7281 -0.8539  0.5418
  997MOL0     C37475   6.790   4.443  -1.117 -0.0942  1.5300  0.0906
  997MOL0     C37476   6.651   4.497  -1.100 -0.4628  1.2197 -0.3108
  997MOL0     C37477   6.866   4.455  -1.239  0.0819 -0.2349 -0.6153
  997MOL0     C37478   6.802   4.504  -1.365 -0.6176 -0.1300 -0.0613
  997MOL0     O37479   6.887   4.568  -1.450  0.2419  0.0033 -0.1873
  997MOL0     C37480   6.839   4.631  -1.569 -0.3302  0.8516 -0.3937
  997MOL0     C37481   6.782   4.539  -1.656  0.1531 -0.9540  0.2764
  997MOL0     C37482   6.753   4.579  -1.785  0.8148 -0.9097  0.3236
  997MOL0     C37483   6.771   4.709  -1.829  0.1004 -0.3497 -0.6518
  997MOL0     O37484   6.742   4.753  -1.959 -0.3889  0.8954  0.8064
  997MOL0     C37485   6.644   4.707  -2.044 -0.2027 -0.0653  0.2889
  997MOL0     C37486   6.657   4.800  -2.162  0.6156  0.1665 -0.2308
  997MOL0     C37487   6.540   4.792  -2.252 -0.6054  0.2527 -0.1540
  997MOL0     C37488   6.565   4.881  -2.375  0.2923 -1.1640  0.1633
  997MOL0     C37489   6.472   4.829  -2.484  0.4011  0.3508  0.4994
  997MOL0     C37490   6.466   4.927  -2.606  0.5596  0.1178 -0.3725
  997MOL0     C37491   6.416   4.856  -2.731 -0.1102  0.1130 -0.0938
  997MOL0     C37492   6.361   4.939  -2.851  0.8390 -0.0453  0.2610
  997MOL0    Cl37493   6.252   5.069  -2.779  0.3286  0.4100  0.2578
  997MOL0     C37494   6.814   4.803  -1.732 -0.1421 -0.4752  0.0654
  997MOL0     C37495   6.851   4.764  -1.605 -1.0980 -0.1188 -0.8174
  997MOL0     O37496   6.688   4.465  -1.391  0.1638 -1.0899  0.1858
  997MOL0     C37497   7.005   4.428  -1.232 -0.1667 -0.3456 -0.2516
  997MOL0     C37498   7.063   4.382  -1.113  0.5435 -1.1199  0.8273
  997MOL0     N37499   6.871   3.976  -0.300  0.3372 -0.0587  0.8230
  997MOL0     N37500   6.821   3.990  -0.184 -0.1375  0.4187  0.3558
  997MOL0     C37501   5.886   3.754   0.477  0.3796 -0.4091 -0.8189
  997MOL0     C37502   5.791   3.648   0.469 -0.2179 -0.4337 -0.6344
  997MOL0     C37503   5.520   3.349   0.495  0.9980  0.6136 -0.7448
  997MOL0     C37504   5.484   3.339   0.353  0.3399 -0.3676 -0.4943
  997MOL0     C37505   5.358   3.299   0.311  0.1591  0.5003 -0.0782
  997MOL0     C37506   5.252   3.283   0.394 -0.2853 -0.4341  0.2549
  997MOL0     O37507   5.125   3.272   0.357 -0.6643 -0.4270  0.6296
  997MOL0     C37508   5.083   3.257   0.216 -0.5615  0.3205 -0.3740
  997MOL0     C37509   5.098   3.109   0.172 -0.2723  0.6480 -0.1169
  997MOL0     C37510   4.987   3.028   0.237  0.4170 -0.1521  0.3648
  997MOL0     C37511   4.992   2.879   0.215  0.3827  0.1421  0.1814
  997MOL0     C37512   4.954   2.834   0.077 -0.3088  0.0941  0.2731
  997MOL0     C37513   4.918   2.791  -0.027  0.7572  0.4665  0.8729
  997MOL0     C37514   5.279   3.284   0.530 -0.6254 -0.3499 -0.3805
  997MOL0     C37515   5.416   3.321   0.578  0.4899  0.1537 -1.3176
  997MOL0     C37516   5.441   3.313   0.726 -0.2101  0.1846 -0.0014
  997MOL0     H37517   5.997   3.395   0.367 -2.1365  0.8889 -1.8440
  997MOL0     H37518   6.151   3.583   0.342 -0.9087  0.7688 -2.8903
  997MOL0     H37519   6.202   3.793   0.278 -0.7538 -1.4991 -0.4799
  997MOL0     H37520   6.272   3.751   0.427  0.6488  0.6900 -1.9757
  997MOL0     H37521   6.326   3.976   0.493 -0.2779  0.3829  1.2235
  997MOL0     H37522   6.392   3.931   0.336  0.6471  2.3775 -0.2588
  997MOL0     H37523   6.169   4.052   0.244  0.1505  1.2704 -0.3210
  997MOL0     H37524   6.170   4.141   0.386  1.7980  1.1091  0.7445
  997MOL0     H37525   6.321   4.293   0.247  0.9716 -0.1860  0.8528
  997MOL0     H37526   6.431   4.175   0.331  1.3127 -1.5673 -2.3082
  997MOL0     H37527   6.306   4.152   0.059  1.5448 -2.5206 -1.6106
  997MOL0     H37528   6.394   4.024   0.138 -1.6824 -1.1115 -1.6437
  997MOL0     H37529   6.489   4.294   0.047  0.8290  0.3740  2.1059
  997MOL0     H37530   6.581   4.205   0.165 -1.8514 -1.9611  1.6632
  997MOL0     H37531   6.538   4.122  -0.121 -1.2731  0.8251  1.2054
  997MOL0     H37532   6.594   4.013   0.018  2.0806 -0.1344  0.8346
  997MOL0     H37533   6.735   4.269  -0.030 -1.0599  0.6429  0.9830
  997MOL0     H37534   6.790   4.113   0.048  2.4052  4.2476  0.4183
  997MOL0     H37535   6.783   4.292  -0.296  0.8800 -0.1449  1.7432
  997MOL0     H37536   6.830   4.224  -0.535  1.3334  0.7038  2.4996
  997MOL0     H37537   6.876   4.057  -0.569  1.9272 -1.3312  1.4088
  997MOL0     H37538   7.059   4.285  -0.497 -3.4237  2.6767 -3.9934
  997MOL0     H37539   7.110   4.109  -0.490  1.7655  1.5001  1.2351
  997MOL0     H37540   7.170   4.204  -0.708  0.7927 -1.8649  1.9096
  997MOL0     H37541   7.035   4.090  -0.718  1.1259 -0.7589 -0.1903
  997MOL0     H37542   6.892   4.267  -0.751 -0.2839 -1.9635 -0.5447
  997MOL0     H37543   7.010   4.391  -0.702 -0.5312 -0.4131  0.0411
  997MOL0     H37544   6.797   4.400  -0.907 -2.9692 -1.2577 -0.7650
  997MOL0     H37545   6.589   4.443  -1.026 -2.3173  1.3231 -1.7111
  997MOL0     H37546   6.593   4.496  -1.193 -0.2461 -2.6723 -0.5788
  997MOL0     H37547   6.663   4.601  -1.071  1.2105  1.1126 -0.5416
  997MOL0     H37548   6.769   4.433  -1.635  1.2259 -1.1492 -0.0002
  997MOL0     H37549   6.721   4.512  -1.865 -3.0290  0.1601  0.7712
  997MOL0     H37550   6.670   4.601  -2.050  1.2550  0.2312  1.0889
  997MOL0     H37551   6.543   4.724  -2.006  0.3197  4.1134  0.1853
  997MOL0     H37552   6.654   4.906  -2.139 -3.1544  0.6121 -2.0105
  997MOL0     H37553   6.756   4.793  -2.210  1.2414  4.5561  0.0139
  997MOL0     H37554   6.447   4.816  -2.200 -0.6823  1.7388 -0.9165
  997MOL0     H37555   6.530   4.691  -2.293 -0.2589  0.8619 -1.8297
  997MOL0     H37556   6.667   4.889  -2.414 -0.6102  0.0821 -2.0953
  997MOL0     H37557   6.542   4.981  -2.338 -2.1152 -2.1738  1.6908
  997MOL0     H37558   6.495   4.729  -2.522 -3.0694 -0.5022  0.3037
  997MOL0     H37559   6.371   4.819  -2.444  0.3089  0.4569  0.2939
  997MOL0     H37560   6.560   4.982  -2.612  0.6142 -0.1028 -1.8932
  997MOL0     H37561   6.379   4.991  -2.587  1.3404  1.8389 -2.2191
  997MOL0     H37562   6.338   4.794  -2.687 -1.3797  3.5539  3.0771
  997MOL0     H37563   6.501   4.796  -2.764  0.6115  0.9386  0.2116
  997MOL0     H37564   6.316   4.867  -2.921  1.3514  1.3413 -1.5811
  997MOL0     H37565   6.448   4.972  -2.908  0.5062 -2.7374 -2.0972
  997MOL0     H37566   6.804   4.908  -1.755  1.1554 -0.3668 -0.0688
  997MOL0     H37567   6.895   4.838  -1.540 -1.0655 -0.3619 -0.5597
  997MOL0     H37568   7.070   4.428  -1.319 -3.4536 -0.1403 -2.9108
  997MOL0     H37569   7.171   4.366  -1.109  0.3094 -3.5044 -0.3396
  997MOL0     H37570   5.847   3.852   0.501  1.3173 -0.1543 -0.2464
  997MOL0     H37571   5.686   3.662   0.496 -0.6906 -0.4117 -2.3702
  997MOL0     H37572   5.556   3.361   0.275  1.9220  0.7770  1.2024
  997MOL0     H37573   5.331   3.285   0.207  2.5820  0.2494 -0.7331
  997MOL0     H37574   4.976   3.278   0.207 -0.5834  0.8140  0.9097
  997MOL0     H37575   5.120   3.322   0.136 -0.9131 -0.4059 -1.1488
  997MOL0     H37576   5.194   3.075   0.213 -0.8060 -1.3695 -0.3964
  997MOL0     H37577   5.097   3.095   0.063 -1.9308 -2.1384  0.1480
  997MOL0     H37578   4.989   3.035   0.346 -1.6730 -1.8250  0.5761
  997MOL0     H37579   4.885   3.057   0.209  0.1879 -1.8949 -0.7440
  997MOL0     H37580   4.927   2.827   0.285  2.0948 -0.5580  1.3000
  997MOL0     H37581   5.093   2.850   0.242 -0.6065  0.4218  5.0505
  997MOL0     H37582   4.891   2.745  -0.120 -0.3449  1.0095  0.9055
  997MOL0     H37583   5.198   3.273   0.602  0.9661  1.6817  1.8919
  997MOL0     H37584   5.534   3.261   0.749  0.3004 -0.6047 -3.3566
  997MOL0     H37585   5.461   3.416   0.758  0.1990  0.0212  0.2768
  997MOL0     H37586   5.353   3.278   0.782 -0.4810 -0.8494 -1.0299
  998MOL0     O37587   2.735   7.021   8.986 -0.3828  0.3672  0.0158
  998MOL0     C37588   2.801   6.952   9.066  0.4949 -0.0152 -0.1729
  998MOL0     O37589   2.843   6.821   9.054  0.2576  0.0431  0.2908
  998MOL0     C37590   2.790   6.755   8.948  0.6740 -0.0993 -0.3964
  998MOL0     C37591   2.700   6.654   8.976  0.2796 -1.0443 -0.6105
  998MOL0     C37592   2.656   6.576   8.865  0.6506 -1.7455  0.5233
  998MOL0     C37593   2.691   6.609   8.736 -0.0356  0.0470  0.0218
  998MOL0     O37594   2.636   6.543   8.629 -0.1880  0.3664  1.1510
  998MOL0     C37595   2.496   6.551   8.620 -0.0582  0.1791 -0.1556
  998MOL0     C37596   2.463   6.502   8.468  0.4569 -0.5013 -0.0854
  998MOL0     C37597   2.314   6.501   8.429 -0.6324  0.6747  1.0188
  998MOL0     C37598   2.300   6.429   8.299  0.1855  0.3657  0.7756
  998MOL0     C37599   2.152   6.419   8.248  0.1397 -0.3440  0.0628
  998MOL0     C37600   2.141   6.308   8.137 -0.6990  0.8031 -0.1060
  998MOL0     C37601   2.029   6.329   8.028 -0.7654  0.3916 -0.2609
  998MOL0     C37602   1.889   6.337   8.101 -0.2587 -0.4676  0.5897
  998MOL0     N37603   1.785   6.363   8.008 -0.3700  0.0163 -0.1659
  998MOL0     C37604   1.724   6.482   7.989 -0.5824 -0.1123 -0.0006
  998MOL0     C37605   1.616   6.448   7.911 -0.0509 -1.3988  0.3073
  998MOL0     C37606   1.499   6.533   7.865  0.7322 -0.1612  0.1183
  998MOL0     C37607   1.539   6.629   7.752 -0.5865  0.2623  0.6249
  998MOL0     C37608   1.426   6.678   7.668  0.1945  0.0973  0.4822
  998MOL0     C37609   1.477   6.755   7.551 -0.1809 -0.2118  0.2303
  998MOL0     O37610   1.490   6.891   7.590  0.0778 -0.0502 -0.0371
  998MOL0     C37611   1.528   6.967   7.485 -0.5302  0.2604  0.7170
  998MOL0     C37612   1.546   6.933   7.347 -0.4722  0.0417  1.0237
  998MOL0     C37613   1.575   7.044   7.249  0.3067  0.8078  1.1040
  998MOL0     C37614   1.601   7.011   7.102 -0.0981 -1.0807 -0.4436
  998MOL0     C37615   1.588   7.166   7.304 -0.2200 -0.3189 -0.0052
  998MOL0     C37616   1.612   7.291   7.229 -0.6200  0.1823 -0.6544
  998MOL0     O37617   1.570   7.279   7.097 -0.2501 -0.5649 -0.2195
  998MOL0     C37618   1.605   7.389   7.019  0.0031  0.0142  0.3615
  998MOL0     C37619   1.738   7.427   7.000 -0.8753  0.5126 -0.2353
  998MOL0     C37620   1.775   7.522   6.898  0.7946 -0.0432 -1.1875
  998MOL0     C37621   1.671   7.570   6.812  0.0487  0.8213 -0.0829
  998MOL0     O37622   1.702   7.647   6.699  0.1270 -0.1071  0.5086
  998MOL0     C37623   1.819   7.719   6.703  0.5531  0.4083  0.4216
  998MOL0     C37624   1.818   7.833   6.608 -0.4407  0.1352  0.5313
  998MOL0     C37625   1.732   7.959   6.648  0.0100  1.0570  0.2051
  998MOL0     C37626   1.795   8.085   6.587 -0.4826  0.2565  0.2073
  998MOL0     C37627   1.747   8.229   6.644  0.1680  0.5964  1.2390
  998MOL0     C37628   1.792   8.242   6.786  0.8861 -0.7006 -0.6395
  998MOL0     C37629   1.771   8.388   6.830 -0.5922 -0.0834 -0.3448
  998MOL0     C37630   1.849   8.429   6.954 -0.3991  0.7115 -0.5729
  998MOL0    Cl37631   1.804   8.336   7.096 -0.4111  0.8813 -0.1184
  998MOL0     C37632   1.537   7.528   6.837 -0.0355 -0.5008  0.7828
  998MOL0     C37633   1.507   7.437   6.935  0.2602  0.0738  0.8219
  998MOL0     O37634   1.662   7.388   7.277 -0.6160  0.2730 -0.3498
  998MOL0     C37635   1.558   7.201   7.443  0.1091  0.1276  0.4468
  998MOL0     C37636   1.527   7.096   7.529 -0.3344 -0.2229 -0.1066
  998MOL0     N37637   1.634   6.312   7.872  0.4046  0.3112  0.5388
  998MOL0     N37638   1.730   6.261   7.938 -0.0313 -0.1897 -0.2595
  998MOL0     C37639   2.778   6.710   8.714  0.0354 -0.2690 -0.0384
  998MOL0     C37640   2.839   6.780   8.817  0.1060 -0.6037  0.2000
  998MOL0     C37641   2.851   7.033   9.183 -0.4147 -0.9925  0.6530
  998MOL0     C37642   2.980   7.000   9.237  0.0871 -0.0469  0.0522
  998MOL0     C37643   3.034   7.074   9.336  0.1204 -0.6136 -1.4832
  998MOL0     C37644   2.976   7.200   9.372 -0.9738  0.6101  0.5278
  998MOL0     O37645   3.039   7.271   9.472  0.8305  0.6280 -0.3108
  998MOL0     C37646   3.168   7.329   9.438  0.2512 -0.5728 -0.4452
  998MOL0     C37647   3.151   7.474   9.395 -0.5417  0.0442 -0.2070
  998MOL0     C37648   3.277   7.520   9.316  0.1032 -0.4197 -0.0820
  998MOL0     C37649   3.263   7.667   9.275 -0.0791  0.7818  0.0062
  998MOL0     C37650   3.153   7.698   9.181 -0.7164 -0.5361  0.0535
  998MOL0     C37651   3.067   7.710   9.095 -1.1165  0.5441 -0.5700
  998MOL0     C37652   2.858   7.236   9.315 -0.0539  0.4761  0.8757
  998MOL0     C37653   2.789   7.155   9.222 -0.5719  0.7296 -0.5430
  998MOL0     C37654   2.654   7.220   9.174 -0.5750  0.0604 -0.0809
  998MOL0     H37655   2.666   6.633   9.077  0.0884 -1.7854 -0.8235
  998MOL0     H37656   2.589   6.492   8.878 -2.8779  0.3855 -2.2902
  998MOL0     H37657   2.454   6.645   8.657 -0.1844 -0.4325  1.2999
  998MOL0     H37658   2.447   6.478   8.685 -1.0739  3.0365  2.5129
  998MOL0     H37659   2.512   6.570   8.397  0.4147 -0.4605 -0.0758
  998MOL0     H37660   2.511   6.406   8.449  2.5402 -0.3759  3.5892
  998MOL0     H37661   2.251   6.449   8.501 -3.0237 -0.6357 -1.8233
  998MOL0     H37662   2.275   6.602   8.418 -1.4734  0.3028  0.5347
  998MOL0     H37663   2.363   6.474   8.222  1.0541 -1.0521  0.6361
  998MOL0     H37664   2.329   6.327   8.323 -2.4851 -0.2808  1.6903
  998MOL0     H37665   2.132   6.513   8.195 -0.2999 -0.4993 -0.0549
  998MOL0     H37666   2.073   6.414   8.324 -1.3183  2.0403 -1.1548
  998MOL0     H37667   2.237   6.313   8.083 -0.1318  2.3269  0.9708
  998MOL0     H37668   2.123   6.208   8.178  0.2691  0.1433 -1.2183
  998MOL0     H37669   2.027   6.239   7.966 -0.3615 -0.6340  1.1541
  998MOL0     H37670   2.066   6.410   7.965  3.4396 -1.3631 -0.3881
  998MOL0     H37671   1.873   6.237   8.144  1.6896 -0.2978  1.8697
  998MOL0     H37672   1.881   6.406   8.185 -1.2273 -0.6434  0.6523
  998MOL0     H37673   1.751   6.581   8.025 -3.1483  0.7952 -0.3604
  998MOL0     H37674   1.464   6.591   7.951  2.2527  0.0958  0.5997
  998MOL0     H37675   1.422   6.461   7.837  2.2831 -1.2668 -1.4629
  998MOL0     H37676   1.599   6.710   7.794  1.0615 -2.0840  3.1134
  998MOL0     H37677   1.596   6.568   7.681 -0.0692  2.2105 -0.7096
  998MOL0     H37678   1.372   6.586   7.641 -0.3630  0.7591 -0.7291
  998MOL0     H37679   1.365   6.740   7.733  0.2701 -1.8095  2.4984
  998MOL0     H37680   1.573   6.707   7.529 -0.7204 -1.5453  0.6900
  998MOL0     H37681   1.408   6.757   7.467  0.8798 -0.5576 -0.6768
  998MOL0     H37682   1.558   6.833   7.308 -0.1689  0.7673 -0.8571
  998MOL0     H37683   1.697   7.056   7.075  0.6882 -1.7870  1.0404
  998MOL0     H37684   1.521   7.053   7.041  1.4155  0.4424 -1.4818
  998MOL0     H37685   1.616   6.903   7.101  0.2173 -1.0442 -0.0340
  998MOL0     H37686   1.813   7.379   7.062 -0.3020 -0.3916 -1.5542
  998MOL0     H37687   1.878   7.557   6.893  0.1604  3.4331  3.3508
  998MOL0     H37688   1.840   7.756   6.804 -0.6720  1.7811  0.2122
  998MOL0     H37689   1.906   7.659   6.674  1.0526  1.7885 -1.1057
  998MOL0     H37690   1.919   7.862   6.579 -1.1778 -0.2820 -2.9570
  998MOL0     H37691   1.777   7.781   6.521 -0.2964 -1.8924  1.6068
  998MOL0     H37692   1.736   7.984   6.755 -0.8836 -2.3224  1.1384
  998MOL0     H37693   1.627   7.941   6.622  0.3691  1.0932 -1.3232
  998MOL0     H37694   1.769   8.095   6.482 -1.0326  0.8916  0.3974
  998MOL0     H37695   1.904   8.081   6.583 -0.4752 -0.6870  0.9263
  998MOL0     H37696   1.789   8.315   6.589  1.1377 -0.2780  0.5729
  998MOL0     H37697   1.639   8.237   6.629 -0.0627 -2.2887  0.8806
  998MOL0     H37698   1.898   8.215   6.788  0.1720 -3.8649  0.4685
  998MOL0     H37699   1.734   8.178   6.853 -0.7778  0.0947 -1.2801
  998MOL0     H37700   1.663   8.396   6.842 -0.5401  0.4588 -0.2256
  998MOL0     H37701   1.798   8.457   6.750  0.0112 -1.3932 -1.3100
  998MOL0     H37702   1.821   8.534   6.954  2.7923  1.7013 -1.7991
  998MOL0     H37703   1.956   8.414   6.938 -0.6258 -2.6066  0.2792
  998MOL0     H37704   1.461   7.562   6.767  0.7631  0.8492  0.5205
  998MOL0     H37705   1.413   7.385   6.946 -0.3904  1.5665  2.7966
  998MOL0     H37706   1.561   7.299   7.489  0.3814  0.5812 -0.5163
  998MOL0     H37707   1.495   7.123   7.629 -2.9959 -1.0858 -0.6324
  998MOL0     H37708   2.820   6.734   8.617 -1.0188 -0.4667 -0.5642
  998MOL0     H37709   2.913   6.855   8.792 -0.0749 -0.7191 -0.6968
  998MOL0     H37710   3.025   6.905   9.207 -1.0523 -0.6834  0.2730
  998MOL0     H37711   3.123   7.042   9.389 -0.5499  0.4583  0.3549
  998MOL0     H37712   3.232   7.331   9.527  1.4923 -2.3099 -1.2284
  998MOL0     H37713   3.233   7.265   9.378  2.8431  0.3310  1.1757
  998MOL0     H37714   3.130   7.527   9.488 -1.5728 -0.9504  0.1523
  998MOL0     H37715   3.069   7.484   9.324 -0.8597 -2.9308 -0.3891
  998MOL0     H37716   3.366   7.530   9.379  0.4677  2.0440 -0.8803
  998MOL0     H37717   3.310   7.449   9.239  1.9355  0.7915 -0.4955
  998MOL0     H37718   3.358   7.691   9.228  1.6493 -0.9238  2.3796
  998MOL0     H37719   3.267   7.737   9.359  0.4238 -0.7678  1.3460
  998MOL0     H37720   2.996   7.718   9.015 -0.0898  0.1577 -1.5336
  998MOL0     H37721   2.822   7.332   9.351  1.5615  0.9842  1.2258
  998MOL0     H37722   2.671   7.284   9.086  0.7737  0.2899  0.3219
  998MOL0     H37723   2.578   7.149   9.140 -1.1821  0.7084 -0.0968
  998MOL0     H37724   2.611   7.285   9.251  0.0515  2.1495 -1.4218
  999MOL0     O37725  11.159   6.130   6.802  0.0289 -0.3632 -0.2752
  999MOL0     C37726  11.221   6.042   6.739  1.4137 -0.4307  0.1890
  999MOL0     O37727  11.337   6.064   6.672  0.7237  0.2098  0.0833
  999MOL0     C37728  11.363   6.193   6.625  0.1639 -0.0259 -0.2868
  999MOL0     C37729  11.479   6.253   6.671  0.0918  0.1666 -0.9176
  999MOL0     C37730  11.518   6.384   6.639  1.5475  0.4315  0.0387
  999MOL0     C37731  11.441   6.459   6.553  0.0797  0.0091 -0.4086
  999MOL0     O37732  11.477   6.584   6.509  0.1257  0.1479  0.0498
  999MOL0     C37733  11.376   6.695   6.519 -0.2454  0.0667 -0.4643
  999MOL0     C37734  11.432   6.821   6.450 -0.3065  0.4160  0.3592
  999MOL0     C37735  11.418   6.950   6.532  0.1345  0.1480 -0.6474
  999MOL0     C37736  11.515   6.948   6.653 -0.5613  0.0142 -0.7385
  999MOL0     C37737  11.542   7.083   6.707  0.5680  0.6899  0.7260
  999MOL0     C37738  11.632   7.068   6.828 -0.7014  0.9039 -0.1129
  999MOL0     C37739  11.639   7.194   6.925 -0.0193 -0.1632 -0.3063
  999MOL0     C37740  11.510   7.214   6.993  0.0186  0.9234 -0.3878
  999MOL0     N37741  11.515   7.324   7.089 -0.8957  0.3788 -0.1396
  999MOL0     C37742  11.615   7.344   7.186  0.1373 -0.2507  0.0044
  999MOL0     C37743  11.588   7.461   7.249 -0.3476  0.0842 -0.4381
  999MOL0     C37744  11.672   7.519   7.359  0.4926 -0.3883  0.4849
  999MOL0     C37745  11.770   7.625   7.299 -0.5350 -0.7493 -0.2867
  999MOL0     C37746  11.907   7.667   7.362 -0.6393  0.0805  0.7193
  999MOL0     C37747  11.895   7.753   7.487 -0.2030 -0.2381 -0.4430
  999MOL0     O37748  11.802   7.694   7.579  0.0296 -0.0344  0.0455
  999MOL0     C37749  11.854   7.614   7.682  0.6446 -0.3937  0.1856
  999MOL0     C37750  11.758   7.526   7.751  0.0275 -0.3988 -0.4668
  999MOL0     C37751  11.798   7.432   7.851 -0.5941 -0.3838  0.3605
  999MOL0     C37752  11.689   7.325   7.887 -0.5887 -0.5319 -0.6134
  999MOL0     C37753  11.941   7.427   7.886 -1.0726  0.2188  0.2843
  999MOL0     C37754  11.996   7.333   7.985 -0.4394  0.6154  0.1659
  999MOL0     O37755  12.131   7.359   8.032 -0.0264  0.0244  0.3838
  999MOL0     C37756  12.178   7.281   8.136  0.4863 -0.4405 -1.0215
  999MOL0     C37757  12.150   7.316   8.270  0.3732  0.1077  0.0407
  999MOL0     C37758  12.193   7.247   8.383  0.2038  0.5532 -0.8126
  999MOL0     C37759  12.281   7.136   8.363  0.2840 -0.1081 -0.6699
  999MOL0     O37760  12.322   7.047   8.456 -0.4951 -0.6551  0.1788
  999MOL0     C37761  12.227   7.012   8.559 -0.0252 -0.2758  1.0212
  999MOL0     C37762  12.287   6.925   8.670 -0.5578 -1.1129  0.2805
  999MOL0     C37763  12.175   6.861   8.745  0.3369 -0.4584 -0.5446
  999MOL0     C37764  12.221   6.718   8.790 -0.0906 -0.9336  0.4304
  999MOL0     C37765  12.107   6.665   8.874 -0.4853 -0.0269 -0.0801
  999MOL0     C37766  12.145   6.536   8.950 -0.6361  0.8002 -0.6684
  999MOL0     C37767  12.039   6.482   9.050 -0.5521 -0.0908 -0.0968
  999MOL0     C37768  12.038   6.567   9.185 -0.8407 -0.3009  0.7309
  999MOL0    Cl37769  12.167   6.512   9.303  0.1757 -0.4635  0.0211
  999MOL0     C37770  12.313   7.105   8.231  0.8471 -0.6894 -0.3166
  999MOL0     C37771  12.265   7.169   8.120  0.7123 -0.7355  0.5640
  999MOL0     O37772  11.926   7.233   8.015 -0.8755 -0.1639  1.0557
  999MOL0     C37773  12.028   7.505   7.812 -0.0334 -0.7670 -1.0190
  999MOL0     C37774  11.991   7.590   7.703  0.2680  0.5350 -1.4436
  999MOL0     N37775  11.469   7.507   7.205  0.1243 -0.1979  0.3048
  999MOL0     N37776  11.433   7.437   7.096 -0.0033  0.8597  0.7933
  999MOL0     C37777  11.333   6.397   6.495  0.4188  0.1494 -0.4262
  999MOL0     C37778  11.291   6.265   6.530 -0.2109 -0.4132 -0.3867
  999MOL0     C37779  11.188   5.912   6.770  0.3272 -0.2948 -0.6634
  999MOL0     C37780  11.241   5.837   6.881  1.0054 -0.0760  0.5978
  999MOL0     C37781  11.204   5.707   6.897 -0.2194 -0.0983  0.5680
  999MOL0     C37782  11.118   5.644   6.811  0.0901 -0.8021 -0.2016
  999MOL0     O37783  11.085   5.517   6.846  0.0826 -0.4369 -0.2808
  999MOL0     C37784  10.970   5.454   6.787 -1.3610 -0.9316  0.6626
  999MOL0     C37785  10.921   5.334   6.872  1.0041 -0.4776 -0.0570
  999MOL0     C37786  10.812   5.244   6.807 -0.3522 -0.0509  0.1763
  999MOL0     C37787  10.739   5.163   6.914 -0.1777  0.6385  0.1041
  999MOL0     C37788  10.640   5.239   6.992 -0.9413  0.4727 -1.3384
  999MOL0     C37789  10.572   5.310   7.072 -0.1299  0.3692 -0.3269
  999MOL0     C37790  11.060   5.716   6.702 -0.9159 -0.1143  0.3200
  999MOL0     C37791  11.097   5.851   6.679  0.5639 -0.3741  0.0576
  999MOL0     C37792  11.034   5.923   6.556  0.1415 -0.3100  0.6777
  999MOL0     H37793  11.528   6.192   6.746 -0.6096 -0.1125 -0.6820
  999MOL0     H37794  11.596   6.422   6.704  0.3334 -2.5039  3.5720
  999MOL0     H37795  11.356   6.713   6.625 -0.3850  1.1999 -0.6654
  999MOL0     H37796  11.273   6.678   6.485 -0.1928  1.7711 -1.6222
  999MOL0     H37797  11.536   6.816   6.417 -1.5296 -0.1760 -4.0209
  999MOL0     H37798  11.378   6.836   6.356  0.6831 -1.8041 -0.6240
  999MOL0     H37799  11.449   7.037   6.473 -1.1398  1.5928  0.7211
  999MOL0     H37800  11.317   6.974   6.566 -0.5704  1.8699 -3.5573
  999MOL0     H37801  11.478   6.879   6.729  1.8838 -0.7832 -0.1614
  999MOL0     H37802  11.613   6.913   6.617 -1.3970 -2.8661 -0.4727
  999MOL0     H37803  11.448   7.123   6.747  0.5640 -0.6238  2.1095
  999MOL0     H37804  11.572   7.153   6.629 -1.2921  2.5216  1.5513
  999MOL0     H37805  11.594   6.988   6.893 -2.2863  0.6637 -1.2712
  999MOL0     H37806  11.726   7.045   6.776 -0.6999  3.5673 -1.4382
  999MOL0     H37807  11.658   7.288   6.872  1.7116 -1.8776 -2.9586
  999MOL0     H37808  11.720   7.176   6.995  1.2902  1.8497 -1.1861
  999MOL0     H37809  11.423   7.231   6.930 -0.5754 -2.5144 -0.6596
  999MOL0     H37810  11.480   7.125   7.048 -0.4686 -0.9440 -3.4682
  999MOL0     H37811  11.710   7.293   7.200  0.7709  0.3452 -1.9051
  999MOL0     H37812  11.735   7.439   7.399  1.2070 -0.0128  0.1369
  999MOL0     H37813  11.617   7.554   7.447  3.7596  0.7195  2.2857
  999MOL0     H37814  11.793   7.577   7.204 -2.0618  3.2184 -2.9085
  999MOL0     H37815  11.708   7.706   7.261 -2.0607 -2.3861 -1.4136
  999MOL0     H37816  11.976   7.583   7.370 -1.2140 -0.6019 -0.9409
  999MOL0     H37817  11.956   7.732   7.288 -1.4583  0.0623  0.1443
  999MOL0     H37818  11.988   7.804   7.512  0.5454 -0.9550 -1.6290
  999MOL0     H37819  11.838   7.834   7.440  1.8103 -0.9257 -4.5890
  999MOL0     H37820  11.653   7.529   7.725  0.2163  1.0474 -1.1560
  999MOL0     H37821  11.662   7.333   7.992  1.5492  1.4383 -0.1427
  999MOL0     H37822  11.712   7.219   7.872  0.6328 -0.3314 -0.2422
  999MOL0     H37823  11.598   7.342   7.828 -0.7110  2.1727  0.2325
  999MOL0     H37824  12.098   7.410   8.285  1.9029  0.5768  3.3501
  999MOL0     H37825  12.192   7.292   8.482 -0.8453  1.5449 -1.2549
  999MOL0     H37826  12.175   7.098   8.604 -4.6513 -2.8362  1.2533
  999MOL0     H37827  12.149   6.954   8.508 -0.6639  2.0965 -0.9070
  999MOL0     H37828  12.358   6.862   8.615  0.8509  0.5610  0.1005
  999MOL0     H37829  12.345   6.985   8.741 -0.0454 -0.3062 -0.7835
  999MOL0     H37830  12.093   6.849   8.675 -1.1052  0.2420  0.9611
  999MOL0     H37831  12.150   6.928   8.828  0.6140 -0.0572 -0.7796
  999MOL0     H37832  12.310   6.717   8.854 -1.4627 -3.1317  2.4882
  999MOL0     H37833  12.236   6.647   8.708  2.6305 -1.2010  1.0393
  999MOL0     H37834  12.078   6.748   8.939  0.0426 -0.0194  0.1464
  999MOL0     H37835  12.025   6.642   8.805 -0.3206  1.0214 -0.6481
  999MOL0     H37836  12.238   6.542   9.007 -1.0263  0.3488  0.0206
  999MOL0     H37837  12.161   6.462   8.870 -4.3668  0.1734 -1.0188
  999MOL0     H37838  12.062   6.376   9.064  0.8554  0.0291 -1.3167
  999MOL0     H37839  11.942   6.500   9.003 -1.9967 -2.2496  1.8342
  999MOL0     H37840  11.949   6.551   9.248 -1.0318 -0.9026  0.3046
  999MOL0     H37841  12.046   6.670   9.147 -1.8296 -0.8646 -1.1182
  999MOL0     H37842  12.381   7.024   8.206  2.8778  1.2103 -1.2945
  999MOL0     H37843  12.299   7.143   8.021  1.5080  4.4143 -0.8317
  999MOL0     H37844  12.136   7.499   7.824 -0.1253 -0.2324  0.2168
  999MOL0     H37845  12.073   7.641   7.653  2.1666  0.9177  1.7619
  999MOL0     H37846  11.277   6.456   6.424 -0.6413 -1.5754 -1.0988
  999MOL0     H37847  11.196   6.232   6.489  0.1487 -0.8733 -0.8721
  999MOL0     H37848  11.322   5.874   6.943 -0.8478 -0.4302  3.3875
  999MOL0     H37849  11.251   5.647   6.974  2.8817 -1.4244 -2.0937
  999MOL0     H37850  10.884   5.516   6.759 -2.1336 -2.7326 -1.2895
  999MOL0     H37851  11.003   5.427   6.686 -2.3150  0.7796 -0.1454
  999MOL0     H37852  10.882   5.386   6.960 -0.3632 -1.3563 -0.1100
  999MOL0     H37853  11.014   5.278   6.883  1.9401 -0.3812 -5.0599
  999MOL0     H37854  10.735   5.294   6.748  0.2985 -0.3506 -0.9666
  999MOL0     H37855  10.862   5.176   6.737 -1.4694 -0.7446  0.0089
  999MOL0     H37856  10.806   5.118   6.989  0.7112 -0.0204 -1.0540
  999MOL0     H37857  10.698   5.085   6.849 -0.3173 -0.6987  1.7270
  999MOL0     H37858  10.501   5.344   7.145 -0.2824 -3.1609  1.3513
  999MOL0     H37859  10.983   5.675   6.636 -1.5259  1.7674 -0.2003
  999MOL0     H37860  11.061   6.028   6.540 -0.3167 -0.5430 -2.0712
  999MOL0     H37861  11.058   5.861   6.469 -2.0882  0.6172 -0.6816
  999MOL0     H37862  10.925   5.914   6.560 -0.0653  1.2850 -0.1965
 1000MOL0     O37863   8.539   3.948   0.222  0.4985 -0.5410  0.0785
 1000MOL0     C37864   8.492   3.986   0.115  0.3882 -1.0320  0.1239
 1000MOL0     O37865   8.388   3.931   0.054 -0.8780  0.6918 -0.1777
 1000MOL0     C37866   8.306   3.833   0.107  0.0765 -0.4434  1.0396
 1000MOL0     C37867   8.320   3.764   0.229  0.2390  0.2587  0.7118
 1000MOL0     C37868   8.224   3.667   0.263 -1.1663  0.2948  0.4161
 1000MOL0     C37869   8.122   3.637   0.178  0.8564 -0.6327 -0.0249
 1000MOL0     O37870   8.026   3.555   0.226 -0.4318  0.9467 -0.1238
 1000MOL0     C37871   7.899   3.522   0.167  0.4074 -0.6811 -1.1618
 1000MOL0     C37872   7.815   3.426   0.251 -0.1974  0.0525 -0.3063
 1000MOL0     C37873   7.902   3.338   0.350 -1.0475 -0.2004  0.0788
 1000MOL0     C37874   7.825   3.212   0.395 -0.4954 -0.7345 -0.0772
 1000MOL0     C37875   7.825   3.108   0.278 -0.1552 -0.2456  0.6170
 1000MOL0     C37876   7.781   2.970   0.329 -0.3563 -0.6226 -0.1626
 1000MOL0     C37877   7.767   2.870   0.210  0.0590  0.1586  0.3829
 1000MOL0     C37878   7.653   2.770   0.235 -0.4048  0.2210 -0.1119
 1000MOL0     N37879   7.694   2.660   0.313 -0.9996 -0.4158 -0.4428
 1000MOL0     C37880   7.770   2.564   0.261  0.1749 -0.3702 -0.4776
 1000MOL0     C37881   7.796   2.486   0.366 -0.3279 -1.0506  0.3204
 1000MOL0     C37882   7.889   2.363   0.351  0.2732 -0.0642  0.6306
 1000MOL0     C37883   8.029   2.398   0.375 -0.1003  0.0948 -0.5745
 1000MOL0     C37884   8.107   2.269   0.366  0.4562  0.2459  0.1655
 1000MOL0     C37885   8.259   2.287   0.375  0.5966  0.2664  0.4545
 1000MOL0     O37886   8.333   2.162   0.377 -0.7662  0.1390  1.0542
 1000MOL0     C37887   8.457   2.168   0.316  0.6901  1.1214 -0.0031
 1000MOL0     C37888   8.541   2.282   0.334  0.5832 -0.0587  0.1607
 1000MOL0     C37889   8.671   2.288   0.280 -0.4220 -0.0057 -0.9203
 1000MOL0     C37890   8.737   2.418   0.300 -0.5410  0.2444 -0.2475
 1000MOL0     C37891   8.713   2.191   0.184  0.2349  0.6844  0.2135
 1000MOL0     C37892   8.826   2.215   0.092 -0.1501  0.1949 -0.5589
 1000MOL0     O37893   8.801   2.202  -0.038  0.6989  0.3574 -0.3848
 1000MOL0     C37894   8.900   2.239  -0.125  0.3542  0.3063  0.2721
 1000MOL0     C37895   8.969   2.140  -0.181  0.2002 -0.1083 -0.1396
 1000MOL0     C37896   9.062   2.179  -0.280  0.8125  0.7005 -0.3776
 1000MOL0     C37897   9.098   2.318  -0.291  0.7024  0.1495 -0.1479
 1000MOL0     O37898   9.188   2.373  -0.375  0.1230 -0.5688  0.3312
 1000MOL0     C37899   9.272   2.294  -0.465 -0.2712  1.0573 -0.9036
 1000MOL0     C37900   9.386   2.218  -0.397 -0.1035  0.5061  0.2255
 1000MOL0     C37901   9.474   2.309  -0.312  0.2488  0.4021  0.8284
 1000MOL0     C37902   9.606   2.232  -0.279  0.4454 -0.0081 -0.1062
 1000MOL0     C37903   9.716   2.309  -0.207  0.4519 -0.0024 -1.2483
 1000MOL0     C37904   9.783   2.423  -0.288  0.8986  0.3613  0.4470
 1000MOL0     C37905   9.942   2.421  -0.286 -0.4730 -0.0445 -0.1439
 1000MOL0     C37906   9.997   2.519  -0.388  0.3255 -1.0271 -0.0361
 1000MOL0    Cl37907   9.956   2.691  -0.348 -0.4424  0.4735 -0.3844
 1000MOL0     C37908   9.038   2.413  -0.219 -0.3331 -0.9474 -0.7422
 1000MOL0     C37909   8.924   2.377  -0.147 -0.6459  0.5356 -0.0416
 1000MOL0     O37910   8.932   2.243   0.150  0.6356 -0.5611 -0.3785
 1000MOL0     C37911   8.630   2.073   0.165  0.6703  0.7205  0.7738
 1000MOL0     C37912   8.500   2.064   0.232  0.4786 -0.1740 -0.3018
 1000MOL0     N37913   7.755   2.538   0.489 -0.1379 -0.7297  0.4646
 1000MOL0     N37914   7.694   2.653   0.452  0.1527  1.6783 -0.1624
 1000MOL0     C37915   8.115   3.709   0.059  0.6892 -0.5191 -0.0977
 1000MOL0     C37916   8.212   3.800   0.014 -0.1127  0.6745  1.7250
 1000MOL0     C37917   8.570   4.080   0.031  0.1319  0.2264 -0.1488
 1000MOL0     C37918   8.532   4.093  -0.104 -0.6860  0.8469  0.9151
 1000MOL0     C37919   8.602   4.188  -0.185 -0.3947 -0.3989 -0.1504
 1000MOL0     C37920   8.710   4.258  -0.135 -0.0916 -0.3337  0.7625
 1000MOL0     O37921   8.801   4.331  -0.213  0.1526  0.2799 -0.2977
 1000MOL0     C37922   8.760   4.464  -0.252 -0.6121  0.1751  0.0778
 1000MOL0     C37923   8.892   4.548  -0.267  0.7004  0.2679  1.2400
 1000MOL0     C37924   8.882   4.695  -0.307  0.1528 -0.3169  0.2235
 1000MOL0     C37925   8.770   4.741  -0.389  1.4413  0.2269 -0.1321
 1000MOL0     C37926   8.789   4.679  -0.528 -1.0042 -0.3358  0.1804
 1000MOL0     C37927   8.827   4.615  -0.622 -0.1221 -0.5467  0.1754
 1000MOL0     C37928   8.747   4.246  -0.007 -0.0366 -0.0075  0.2601
 1000MOL0     C37929   8.671   4.166   0.080 -0.2076 -0.0453 -0.3780
 1000MOL0     C37930   8.695   4.179   0.233 -0.2179  0.1593  0.3674
 1000MOL0     H37931   8.393   3.800   0.301  0.4573  2.1946 -0.4117
 1000MOL0     H37932   8.234   3.631   0.364 -0.1986 -0.6519 -0.0000
 1000MOL0     H37933   7.918   3.468   0.073 -2.2531  2.4794 -3.7711
 1000MOL0     H37934   7.837   3.606   0.135  3.3334  1.3053 -2.0340
 1000MOL0     H37935   7.762   3.505   0.304  1.1530  0.9035 -0.1839
 1000MOL0     H37936   7.747   3.365   0.191 -0.2238 -0.2714  0.0469
 1000MOL0     H37937   8.002   3.310   0.316 -0.6559 -1.9408  2.4247
 1000MOL0     H37938   7.936   3.410   0.426 -1.0508  2.9263 -2.6875
 1000MOL0     H37939   7.878   3.171   0.482  0.0638 -0.5309 -0.3162
 1000MOL0     H37940   7.725   3.245   0.425  0.3406  1.3918  0.4901
 1000MOL0     H37941   7.924   3.102   0.232  0.5352 -2.6314  2.1780
 1000MOL0     H37942   7.753   3.152   0.209  1.5611 -1.2932 -2.0183
 1000MOL0     H37943   7.866   2.929   0.384  0.8835  0.7941 -0.9448
 1000MOL0     H37944   7.693   2.979   0.393  0.4716  0.5797  0.8597
 1000MOL0     H37945   7.863   2.819   0.196  0.6631  1.4751 -0.6179
 1000MOL0     H37946   7.745   2.920   0.115  0.9792 -2.3410 -1.2360
 1000MOL0     H37947   7.565   2.816   0.278 -1.4762  0.4835 -2.4277
 1000MOL0     H37948   7.617   2.735   0.138  0.6512  1.3606 -0.9477
 1000MOL0     H37949   7.791   2.552   0.155  0.4056  1.3537 -0.6547
 1000MOL0     H37950   7.854   2.312   0.260 -2.5943  2.4206  0.1291
 1000MOL0     H37951   7.850   2.295   0.427 -1.3279  0.2634  0.1488
 1000MOL0     H37952   8.059   2.465   0.294 -2.7246 -2.3394 -3.8537
 1000MOL0     H37953   8.032   2.450   0.471  0.8913 -1.5493  0.3286
 1000MOL0     H37954   8.077   2.199   0.444  1.8049 -1.8237 -1.0889
 1000MOL0     H37955   8.083   2.222   0.270 -0.6776  1.6046 -0.2499
 1000MOL0     H37956   8.290   2.353   0.293  0.9618 -0.3510  0.0833
 1000MOL0     H37957   8.288   2.347   0.462  0.7689  0.8183  0.0199
 1000MOL0     H37958   8.507   2.366   0.393 -0.6040 -2.3033  2.8946
 1000MOL0     H37959   8.839   2.403   0.337 -0.5963  2.3883  0.9392
 1000MOL0     H37960   8.680   2.489   0.361 -1.9798 -1.5596  0.5950
 1000MOL0     H37961   8.752   2.453   0.198  0.2725 -2.6886 -1.2457
 1000MOL0     H37962   8.933   2.038  -0.171  1.9089 -0.6508  1.0492
 1000MOL0     H37963   9.097   2.114  -0.359  0.3413  2.3946 -2.0479
 1000MOL0     H37964   9.203   2.223  -0.511  0.6300 -0.5143  0.0830
 1000MOL0     H37965   9.316   2.354  -0.545 -0.9257  1.8099 -0.7092
 1000MOL0     H37966   9.345   2.137  -0.335 -0.5546  0.7755  0.2845
 1000MOL0     H37967   9.445   2.177  -0.479  0.2068 -1.4319  1.3355
 1000MOL0     H37968   9.420   2.342  -0.222 -0.5400 -0.1371  0.5652
 1000MOL0     H37969   9.490   2.402  -0.368  0.2677  1.1154  1.9936
 1000MOL0     H37970   9.652   2.206  -0.375  0.8263  3.3439 -0.9640
 1000MOL0     H37971   9.577   2.151  -0.212  1.6654 -0.9864 -0.7070
 1000MOL0     H37972   9.673   2.347  -0.114 -2.8377 -1.6123 -1.9487
 1000MOL0     H37973   9.797   2.243  -0.176  1.4880  0.9902 -1.7604
 1000MOL0     H37974   9.735   2.517  -0.256  1.2917  0.3711  1.0090
 1000MOL0     H37975   9.752   2.406  -0.391 -2.2827 -2.2988  1.6707
 1000MOL0     H37976   9.981   2.321  -0.303 -0.9151 -0.4119  0.9209
 1000MOL0     H37977   9.971   2.451  -0.185 -0.4037 -1.5878  0.3200
 1000MOL0     H37978   9.959   2.498  -0.488 -0.8282  1.4392 -0.1927
 1000MOL0     H37979  10.105   2.505  -0.377  0.4876  1.0273  1.7251
 1000MOL0     H37980   9.072   2.516  -0.216  1.8477 -1.6377 -0.4345
 1000MOL0     H37981   8.880   2.457  -0.088  0.4253 -0.1487  1.7959
 1000MOL0     H37982   8.651   1.991   0.097 -0.0798  1.1382  0.0053
 1000MOL0     H37983   8.434   1.979   0.221 -0.7121  0.5043  1.2486
 1000MOL0     H37984   8.029   3.677  -0.001 -1.1853 -0.1086  2.2212
 1000MOL0     H37985   8.206   3.843  -0.085  1.9657  0.5233  1.5045
 1000MOL0     H37986   8.459   4.026  -0.148  1.5496  0.0406 -1.9099
 1000MOL0     H37987   8.575   4.185  -0.290 -2.5983  2.8545  0.1716
 1000MOL0     H37988   8.701   4.458  -0.344 -3.7481 -5.0843  1.9581
 1000MOL0     H37989   8.694   4.512  -0.179 -1.6016  0.8719 -1.2387
 1000MOL0     H37990   8.949   4.511  -0.354  1.3436  0.2208  1.6763
 1000MOL0     H37991   8.952   4.526  -0.178 -1.7922 -4.4645  2.0736
 1000MOL0     H37992   8.874   4.746  -0.210  0.8093  3.5938 -1.5810
 1000MOL0     H37993   8.965   4.744  -0.359 -1.5028 -0.7294 -2.9931
 1000MOL0     H37994   8.760   4.848  -0.406 -1.5594  0.1542  0.6315
 1000MOL0     H37995   8.676   4.708  -0.344  1.0832 -3.0493 -2.8860
 1000MOL0     H37996   8.870   4.549  -0.693 -0.7824 -0.9077  0.1009
 1000MOL0     H37997   8.842   4.290   0.022 -0.6570 -0.9148  4.1904
 1000MOL0     H37998   8.604   4.184   0.294  0.5521  2.1560  1.4526
 1000MOL0     H37999   8.766   4.106   0.273 -0.2915  0.6526  1.4456
 1000MOL0     H38000   8.738   4.279   0.242  2.1871 -0.8645  0.9610
 1001MOL0     O38001   0.203   8.449  11.395 -0.7533  0.0804 -0.6623
 1001MOL0     C38002   0.292   8.405  11.326 -0.0688  0.0531  0.4171
 1001MOL0     O38003   0.358   8.463  11.222  0.4871 -0.0895  0.3380
 1001MOL0     C38004   0.361   8.604  11.220  0.5358 -0.6722 -0.4630
 1001MOL0     C38005   0.254   8.682  11.164  0.0727  0.4145  0.2096
 1001MOL0     C38006   0.248   8.823  11.169 -0.8705 -0.2960 -0.1676
 1001MOL0     C38007   0.366   8.891  11.222  1.7238 -0.2333 -0.1885
 1001MOL0     O38008   0.350   9.025  11.208  0.3117  0.0761  0.5350
 1001MOL0     C38009   0.424   9.099  11.307 -0.4492 -0.6209 -0.6983
 1001MOL0     C38010   0.362   9.235  11.332  0.6293  0.0670  0.4183
 1001MOL0     C38011   0.346   9.324  11.203 -0.9234  0.3404  0.1882
 1001MOL0     C38012   0.328   9.477  11.246 -0.5155 -0.2615 -0.1821
 1001MOL0     C38013   0.462   9.560  11.236  0.4867 -0.2162  0.4966
 1001MOL0     C38014   0.439   9.710  11.238 -0.9470 -0.2212 -0.2632
 1001MOL0     C38015   0.370   9.766  11.365 -0.4473 -0.0573  0.3745
 1001MOL0     C38016   0.301   9.896  11.315  0.0511 -0.6091 -0.3497
 1001MOL0     N38017   0.386  10.012  11.302  0.9429  0.5823  1.0046
 1001MOL0     C38018   0.416  10.050  11.176 -0.4441 -0.4818  0.8013
 1001MOL0     C38019   0.481  10.162  11.202  0.4724 -1.2253 -0.4015
 1001MOL0     C38020   0.522  10.275  11.112 -0.1465  0.2929 -0.1853
 1001MOL0     C38021   0.673  10.276  11.098  1.2135  0.1208  0.1029
 1001MOL0     C38022   0.723  10.212  10.964 -0.0828  0.1819  0.0222
 1001MOL0     C38023   0.697  10.057  10.956 -0.4740 -0.4289 -0.1709
 1001MOL0     O38024   0.757  10.007  10.840  0.0032  0.2037  1.1412
 1001MOL0     C38025   0.707   9.895  10.776 -0.1748 -1.2194 -0.2806
 1001MOL0     C38026   0.767   9.852  10.655  0.5084 -0.5382 -0.4680
 1001MOL0     C38027   0.742   9.720  10.603  0.6539 -0.6696  0.3892
 1001MOL0     C38028   0.824   9.671  10.487 -0.0414  0.5823  0.6311
 1001MOL0     C38029   0.641   9.641  10.672  0.3634 -1.0686  0.0249
 1001MOL0     C38030   0.604   9.504  10.617 -0.5871 -0.5548  0.2979
 1001MOL0     O38031   0.472   9.488  10.585 -0.6262 -0.5272 -0.1529
 1001MOL0     C38032   0.441   9.386  10.497 -1.3954 -0.0066 -0.3577
 1001MOL0     C38033   0.519   9.337  10.386  0.0750  0.1656  0.1765
 1001MOL0     C38034   0.467   9.248  10.299 -1.1928 -0.4288  0.8748
 1001MOL0     C38035   0.337   9.198  10.299 -0.4312  0.7364  1.2368
 1001MOL0     O38036   0.298   9.117  10.189  0.9694 -0.3920  0.2534
 1001MOL0     C38037   0.178   9.044  10.189  0.6304 -0.1717 -0.2830
 1001MOL0     C38038   0.154   8.962  10.066  0.1310  0.7974 -0.0067
 1001MOL0     C38039   0.268   8.857  10.054 -0.5569  0.8589  0.1340
 1001MOL0     C38040   0.402   8.903   9.981  1.2456 -0.0232  0.8649
 1001MOL0     C38041   0.507   8.794   9.970  0.3218  0.2190  0.1847
 1001MOL0     C38042   0.580   8.786  10.099  0.2987  0.5223 -0.8940
 1001MOL0     C38043   0.672   8.661  10.099 -0.3589 -0.0521 -0.2150
 1001MOL0     C38044   0.794   8.696  10.003 -0.8407  0.1385 -0.0243
 1001MOL0    Cl38045   0.930   8.574  10.001 -0.2526  0.3140 -0.2164
 1001MOL0     C38046   0.255   9.248  10.402  0.3701 -0.4612 -0.2281
 1001MOL0     C38047   0.310   9.343  10.493  0.9297 -0.0303 -0.0947
 1001MOL0     O38048   0.684   9.417  10.619 -0.4517  0.3000  0.8454
 1001MOL0     C38049   0.573   9.694  10.788  0.7499 -0.6980  0.6263
 1001MOL0     C38050   0.605   9.823  10.829 -0.3670  0.3314  0.0455
 1001MOL0     N38051   0.489  10.183  11.343  0.7075 -0.0037 -0.0592
 1001MOL0     N38052   0.419  10.097  11.403  0.7656  0.0108 -0.7435
 1001MOL0     C38053   0.476   8.819  11.257 -0.0026  0.6438 -0.0846
 1001MOL0     C38054   0.471   8.676  11.264 -0.5069  0.4792  0.4763
 1001MOL0     C38055   0.344   8.282  11.375 -1.2326  0.9940  0.6265
 1001MOL0     C38056   0.484   8.265  11.349 -0.3630 -0.6303 -0.1429
 1001MOL0     C38057   0.552   8.143  11.376 -0.2841 -0.0448  0.4623
 1001MOL0     C38058   0.479   8.036  11.421  0.5082  0.1103  0.5137
 1001MOL0     O38059   0.529   7.911  11.442 -0.1608  0.7879  0.7334
 1001MOL0     C38060   0.646   7.870  11.364  0.0236 -0.5486  0.8707
 1001MOL0     C38061   0.628   7.717  11.348 -0.1963 -0.1167 -0.8799
 1001MOL0     C38062   0.631   7.647  11.484 -0.1231  0.1921  0.9849
 1001MOL0     C38063   0.734   7.694  11.580 -0.0397 -0.2939  0.2479
 1001MOL0     C38064   0.720   7.635  11.711 -0.6324  0.8218  0.2335
 1001MOL0     C38065   0.726   7.583  11.822 -0.8821  0.2371  0.4943
 1001MOL0     C38066   0.341   8.052  11.454 -0.0697  0.0550  0.2811
 1001MOL0     C38067   0.279   8.174  11.438 -0.1348  0.1283  0.5342
 1001MOL0     C38068   0.135   8.179  11.463  0.8284 -0.3121  0.4656
 1001MOL0     H38069   0.183   8.616  11.114  2.2290 -1.1136 -1.0048
 1001MOL0     H38070   0.158   8.865  11.125  0.6075 -0.7940 -4.0873
 1001MOL0     H38071   0.522   9.110  11.260 -1.1838  5.1863 -1.6553
 1001MOL0     H38072   0.427   9.043  11.401 -1.0130 -0.1386 -0.3802
 1001MOL0     H38073   0.269   9.216  11.386  0.4112 -1.2949 -0.4046
 1001MOL0     H38074   0.422   9.285  11.409  0.3541 -1.4606  1.6646
 1001MOL0     H38075   0.434   9.315  11.139  0.4084 -0.7726  2.0974
 1001MOL0     H38076   0.263   9.289  11.140  0.7281 -2.1963 -0.6939
 1001MOL0     H38077   0.252   9.513  11.176 -0.4496  1.3121  0.5127
 1001MOL0     H38078   0.277   9.470  11.343 -0.1475  1.0295  0.1302
 1001MOL0     H38079   0.515   9.525  11.146 -0.7247 -2.8748  0.7130
 1001MOL0     H38080   0.524   9.542  11.324  0.2310 -1.2928  0.4787
 1001MOL0     H38081   0.536   9.757  11.219 -0.2465 -2.0918 -1.5796
 1001MOL0     H38082   0.378   9.747  11.155 -1.3348  0.6312  0.3908
 1001MOL0     H38083   0.433   9.793  11.450  0.8972  1.6354 -1.0755
 1001MOL0     H38084   0.295   9.695  11.401 -0.1297 -0.4026  0.3578
 1001MOL0     H38085   0.241   9.880  11.225  2.0316  2.6233 -2.4739
 1001MOL0     H38086   0.227   9.920  11.392 -1.6441  2.2497 -2.6593
 1001MOL0     H38087   0.393  10.011  11.078  1.5426  0.4951 -0.1094
 1001MOL0     H38088   0.478  10.368  11.147 -1.3632 -0.2977 -0.1013
 1001MOL0     H38089   0.469  10.247  11.020 -0.1081 -2.9680  0.6527
 1001MOL0     H38090   0.705  10.381  11.095  2.4174 -0.2060 -2.9176
 1001MOL0     H38091   0.717  10.212  11.174 -2.5704 -4.3376 -0.9877
 1001MOL0     H38092   0.684  10.256  10.871  4.0414 -1.5931 -2.8330
 1001MOL0     H38093   0.828  10.240  10.950 -0.3374  1.6624  0.8596
 1001MOL0     H38094   0.740  10.028  11.053 -1.0421 -1.8427 -0.3271
 1001MOL0     H38095   0.590  10.039  10.961 -0.1822 -2.2012  0.5096
 1001MOL0     H38096   0.835   9.922  10.608  0.3559 -1.1433 -1.6207
 1001MOL0     H38097   0.806   9.565  10.465 -1.6177  0.6152  1.5662
 1001MOL0     H38098   0.930   9.672  10.513  0.5646 -2.5035 -1.2253
 1001MOL0     H38099   0.798   9.730  10.399 -2.8279 -0.6080  0.5239
 1001MOL0     H38100   0.625   9.351  10.369  0.3948 -2.4205 -0.3669
 1001MOL0     H38101   0.529   9.223  10.214  0.3318  0.3984  1.7036
 1001MOL0     H38102   0.171   8.982  10.279  0.0213 -1.7165 -1.3493
 1001MOL0     H38103   0.094   9.114  10.200 -1.0319 -1.7957 -1.9270
 1001MOL0     H38104   0.058   8.911  10.085  0.1776  1.3535  1.9388
 1001MOL0     H38105   0.150   9.029   9.980 -1.9202  0.0115 -0.5921
 1001MOL0     H38106   0.245   8.764  10.000  0.8818 -0.4515  1.6588
 1001MOL0     H38107   0.300   8.822  10.152  1.3574 -1.1113 -1.0819
 1001MOL0     H38108   0.436   8.994  10.030 -1.6283  1.1988  0.7565
 1001MOL0     H38109   0.353   8.915   9.884 -1.5074 -1.4172  1.9596
 1001MOL0     H38110   0.456   8.699   9.952  0.9420 -0.1435  0.3067
 1001MOL0     H38111   0.576   8.816   9.889  1.2411  3.1715  1.6136
 1001MOL0     H38112   0.509   8.771  10.181  2.4394  0.8465  1.1059
 1001MOL0     H38113   0.645   8.870  10.121 -0.1277  1.1067 -1.8225
 1001MOL0     H38114   0.613   8.575  10.066 -0.1322 -0.7185  1.0861
 1001MOL0     H38115   0.711   8.635  10.197 -1.1355  0.1956  0.1651
 1001MOL0     H38116   0.835   8.793  10.032  0.4551 -0.4608  0.2300
 1001MOL0     H38117   0.756   8.700   9.900  3.1200 -2.0330 -1.7761
 1001MOL0     H38118   0.150   9.221  10.415  0.2172  0.2613  0.0700
 1001MOL0     H38119   0.238   9.367  10.571 -1.4092  1.0105 -2.4131
 1001MOL0     H38120   0.492   9.643  10.839 -0.0672  2.6210  2.9869
 1001MOL0     H38121   0.527   9.867  10.890  0.5936 -0.1918  1.7329
 1001MOL0     H38122   0.565   8.874  11.287 -0.4026  2.8764 -2.5902
 1001MOL0     H38123   0.555   8.612  11.289 -1.5051 -1.7457 -1.5110
 1001MOL0     H38124   0.538   8.340  11.292 -0.0381  0.2849  1.2992
 1001MOL0     H38125   0.659   8.141  11.361  0.4756  0.4490  4.5722
 1001MOL0     H38126   0.654   7.913  11.263 -2.0464 -0.9029  0.5182
 1001MOL0     H38127   0.744   7.887  11.409  0.0461  1.3105  0.2091
 1001MOL0     H38128   0.703   7.684  11.277  1.0669  1.2255 -0.2215
 1001MOL0     H38129   0.526   7.710  11.308 -0.5510  3.1080 -0.7693
 1001MOL0     H38130   0.533   7.667  11.530 -1.9262 -0.9818 -2.0336
 1001MOL0     H38131   0.644   7.539  11.473 -0.1259  0.0290  2.4141
 1001MOL0     H38132   0.732   7.802  11.599  2.4471 -0.3384  1.1181
 1001MOL0     H38133   0.827   7.656  11.537  0.4888 -3.0835  3.4705
 1001MOL0     H38134   0.758   7.548  11.918  3.4559  0.4262 -0.6716
 1001MOL0     H38135   0.302   7.958  11.492  4.3774 -2.8019 -1.3888
 1001MOL0     H38136   0.081   8.235  11.387 -1.4822 -1.9585  0.7912
 1001MOL0     H38137   0.086   8.081  11.456 -0.4266  0.3098  0.2308
 1001MOL0     H38138   0.109   8.224  11.560  1.6427  1.6020 -0.1660
 1002MOL0     O38139   5.823   9.695   6.436 -0.2120  0.1322  0.6848
 1002MOL0     C38140   5.704   9.728   6.446 -0.0444  1.2071 -0.2669
 1002MOL0     O38141   5.655   9.852   6.456  0.7679  0.2320 -0.1716
 1002MOL0     C38142   5.729   9.968   6.442 -0.4703  0.0943 -0.1271
 1002MOL0     C38143   5.875   9.982   6.419  0.1555  0.7764  1.4862
 1002MOL0     C38144   5.934  10.113   6.410  0.1839  0.2813  0.1886
 1002MOL0     C38145   5.852  10.228   6.413 -0.0689  0.1883 -0.2534
 1002MOL0     O38146   5.909  10.356   6.402  0.2138 -0.7197 -0.0928
 1002MOL0     C38147   5.832  10.467   6.404 -0.2974 -1.1153  0.4344
 1002MOL0     C38148   5.739  10.481   6.288  0.1156  0.4152 -0.3094
 1002MOL0     C38149   5.678  10.619   6.272  0.4556 -0.6600 -0.4580
 1002MOL0     C38150   5.785  10.732   6.273  0.6911 -0.3916 -0.1937
 1002MOL0     C38151   5.741  10.872   6.226  0.2390 -0.1601  0.4173
 1002MOL0     C38152   5.844  10.973   6.270  1.0553 -1.2983 -0.1033
 1002MOL0     C38153   5.868  11.075   6.159 -0.1016 -0.1478  0.3736
 1002MOL0     C38154   5.979  11.181   6.167 -0.1022  0.6482  0.4928
 1002MOL0     N38155   5.969  11.243   6.297 -1.3008 -0.7036  0.4720
 1002MOL0     C38156   5.881  11.331   6.350  0.2720 -0.3791  0.9126
 1002MOL0     C38157   5.915  11.358   6.472 -0.3628 -0.2281 -0.4400
 1002MOL0     C38158   5.841  11.462   6.553  0.5669  0.6082 -0.1513
 1002MOL0     C38159   5.739  11.401   6.642  0.6205  0.9836 -1.0572
 1002MOL0     C38160   5.615  11.347   6.573  0.2086  0.5753  0.1693
 1002MOL0     C38161   5.499  11.291   6.664 -0.7166  0.7237  0.2858
 1002MOL0     O38162   5.497  11.352   6.793  0.6517  0.1129  0.1367
 1002MOL0     C38163   5.461  11.281   6.905  1.1228 -0.4037  0.2245
 1002MOL0     C38164   5.515  11.309   7.030  0.0242 -0.7227  0.1744
 1002MOL0     C38165   5.482  11.250   7.149  0.4042  0.5289  0.0768
 1002MOL0     C38166   5.531  11.307   7.283  0.5832 -0.5905  0.3530
 1002MOL0     C38167   5.381  11.150   7.143 -0.5681  0.0343 -0.4584
 1002MOL0     C38168   5.321  11.090   7.264  0.4475  0.5766  0.4488
 1002MOL0     O38169   5.316  10.950   7.260  0.6507  0.7916 -0.6869
 1002MOL0     C38170   5.270  10.869   7.369  1.1918 -0.3236 -0.0185
 1002MOL0     C38171   5.249  10.902   7.502  0.1434 -0.2494 -0.1805
 1002MOL0     C38172   5.193  10.804   7.589 -0.0494 -0.7121  0.7196
 1002MOL0     C38173   5.168  10.676   7.545 -0.3369  1.0803 -0.8057
 1002MOL0     O38174   5.106  10.576   7.609 -0.0201  0.3950  0.2795
 1002MOL0     C38175   5.177  10.556   7.737  0.0415  1.4551  0.0871
 1002MOL0     C38176   5.130  10.422   7.815 -0.1022 -0.4119  0.7088
 1002MOL0     C38177   4.985  10.436   7.846 -0.7236 -0.1695 -0.9986
 1002MOL0     C38178   4.934  10.311   7.914 -0.5954  0.2641  0.8654
 1002MOL0     C38179   4.785  10.297   7.941  0.4521 -1.0124  0.4482
 1002MOL0     C38180   4.708  10.252   7.811  0.2008 -0.7832  0.4510
 1002MOL0     C38181   4.694  10.100   7.790  0.4867 -0.5216  0.1178
 1002MOL0     C38182   4.601  10.068   7.674  0.0991  0.6172  0.2746
 1002MOL0    Cl38183   4.435  10.036   7.728 -0.3305 -0.8454  0.7700
 1002MOL0     C38184   5.202  10.649   7.418  0.8972  0.0289  0.2976
 1002MOL0     C38185   5.257  10.735   7.334  0.8516 -0.8601 -0.4821
 1002MOL0     O38186   5.258  11.158   7.336  0.2162 -0.6797  0.4240
 1002MOL0     C38187   5.318  11.122   7.022 -0.7490 -0.9428 -0.5682
 1002MOL0     C38188   5.362  11.178   6.905  0.1977 -0.6156  0.3256
 1002MOL0     N38189   6.021  11.282   6.508 -0.2147 -0.1638  1.1018
 1002MOL0     N38190   6.055  11.217   6.404 -0.1802 -1.2318  0.1590
 1002MOL0     C38191   5.721  10.220   6.467  0.4896 -0.0630 -0.0492
 1002MOL0     C38192   5.654  10.095   6.467  0.3263  0.7810 -0.5176
 1002MOL0     C38193   5.614   9.609   6.454  0.8682 -0.5320  0.5802
 1002MOL0     C38194   5.478   9.632   6.410 -0.3947  0.2177  0.3270
 1002MOL0     C38195   5.394   9.528   6.380 -0.1274  0.4539 -0.4393
 1002MOL0     C38196   5.418   9.400   6.418  0.2996  0.4235 -1.0333
 1002MOL0     O38197   5.336   9.311   6.366 -0.1876 -0.1682 -0.3508
 1002MOL0     C38198   5.350   9.180   6.416  0.2040 -0.4662 -0.3045
 1002MOL0     C38199   5.241   9.094   6.367  1.6669  1.2228  0.6706
 1002MOL0     C38200   5.256   9.045   6.214  0.3345  0.1074 -0.0970
 1002MOL0     C38201   5.248   8.889   6.203 -0.0377 -0.1863  0.1244
 1002MOL0     C38202   5.113   8.848   6.166  0.0413 -0.6514 -0.3403
 1002MOL0     C38203   5.001   8.812   6.137  0.6404 -0.1409 -0.0280
 1002MOL0     C38204   5.540   9.376   6.486  0.8481 -0.6571 -0.5956
 1002MOL0     C38205   5.638   9.476   6.505 -0.4739 -0.2352  0.1637
 1002MOL0     C38206   5.760   9.443   6.592  0.4177 -0.1589 -0.5970
 1002MOL0     H38207   5.942   9.896   6.417 -0.9539 -0.0968 -0.3188
 1002MOL0     H38208   6.042  10.123   6.404  0.1665  0.8101  0.6571
 1002MOL0     H38209   5.911  10.542   6.413  1.5855 -3.1869  2.5462
 1002MOL0     H38210   5.778  10.480   6.499  0.9570 -0.4574  1.0872
 1002MOL0     H38211   5.810  10.465   6.206  2.2447  1.6387  1.1812
 1002MOL0     H38212   5.666  10.399   6.292  1.8488 -1.2023 -0.0044
 1002MOL0     H38213   5.627  10.617   6.176 -1.1134 -3.8656  0.3094
 1002MOL0     H38214   5.605  10.638   6.351  0.0390 -4.1044  0.1240
 1002MOL0     H38215   5.810  10.736   6.380  1.7851 -0.1354 -0.4489
 1002MOL0     H38216   5.874  10.698   6.219 -0.6877 -1.9028 -1.6533
 1002MOL0     H38217   5.650  10.906   6.275  0.8767  0.8038  0.9531
 1002MOL0     H38218   5.723  10.862   6.118 -2.6661  1.4004  0.6716
 1002MOL0     H38219   5.803  11.016   6.361 -4.2423  0.9303 -3.1220
 1002MOL0     H38220   5.942  10.926   6.286  0.9746 -0.8105  2.1101
 1002MOL0     H38221   5.776  11.133   6.148  0.3709  0.9830  1.9681
 1002MOL0     H38222   5.879  11.023   6.064  0.0639  1.0037 -0.2464
 1002MOL0     H38223   6.076  11.132   6.156 -1.1228 -1.3187 -0.1984
 1002MOL0     H38224   5.954  11.255   6.091 -0.2487  0.5093  0.4052
 1002MOL0     H38225   5.804  11.389   6.299  0.6132 -0.1768  0.6138
 1002MOL0     H38226   5.795  11.530   6.480 -1.2390  1.3977  1.6450
 1002MOL0     H38227   5.904  11.526   6.615  0.5016  1.4475 -0.9266
 1002MOL0     H38228   5.776  11.325   6.710 -0.6293 -1.3770 -2.8437
 1002MOL0     H38229   5.703  11.482   6.706 -1.1614 -1.8345  1.7612
 1002MOL0     H38230   5.568  11.426   6.515  1.2167  0.8453 -0.2953
 1002MOL0     H38231   5.645  11.268   6.504 -0.1305  1.9460 -1.6114
 1002MOL0     H38232   5.401  11.322   6.626 -2.7434 -0.6009  3.9141
 1002MOL0     H38233   5.515  11.183   6.659  0.6236  0.9590 -2.3809
 1002MOL0     H38234   5.590  11.388   7.032  0.3905 -1.0329  3.3106
 1002MOL0     H38235   5.632  11.344   7.266  1.2861 -0.0116  4.6598
 1002MOL0     H38236   5.523  11.236   7.366  3.0246 -0.5295  0.7116
 1002MOL0     H38237   5.468  11.393   7.308 -0.8201 -0.5907 -2.7508
 1002MOL0     H38238   5.269  11.006   7.527 -1.4806  0.2661 -0.9144
 1002MOL0     H38239   5.164  10.828   7.691 -1.8559 -2.2454  0.6204
 1002MOL0     H38240   5.286  10.554   7.725  0.0898  1.2051  0.5129
 1002MOL0     H38241   5.156  10.646   7.796  2.9754  2.9087 -0.8574
 1002MOL0     H38242   5.125  10.339   7.744 -0.9397  0.0372  0.2291
 1002MOL0     H38243   5.193  10.390   7.899  0.9473 -0.1592  0.0464
 1002MOL0     H38244   4.938  10.461   7.751 -1.8602 -0.7001 -0.5875
 1002MOL0     H38245   4.975  10.515   7.921 -3.9553  1.1312 -2.6125
 1002MOL0     H38246   4.989  10.294   8.007 -0.7402  2.3223  1.3776
 1002MOL0     H38247   4.957  10.227   7.848 -0.8883  0.1530  0.9045
 1002MOL0     H38248   4.744  10.240   8.026 -3.9840 -1.2408 -1.5330
 1002MOL0     H38249   4.751  10.398   7.962 -1.1253 -1.5787  0.8094
 1002MOL0     H38250   4.752  10.300   7.723  2.2770  0.0531  1.8668
 1002MOL0     H38251   4.607  10.294   7.810 -1.0088 -3.4613  0.3831
 1002MOL0     H38252   4.654  10.055   7.881  1.6982 -0.4776  0.6912
 1002MOL0     H38253   4.795  10.061   7.774  1.8991  2.4787  0.9415
 1002MOL0     H38254   4.639   9.973   7.636 -2.8614 -0.9161  0.8219
 1002MOL0     H38255   4.581  10.141   7.595 -3.1191 -0.1755  0.2240
 1002MOL0     H38256   5.169  10.555   7.375 -3.3918  1.6912 -0.6292
 1002MOL0     H38257   5.284  10.715   7.231 -2.4850  0.5442 -1.7858
 1002MOL0     H38258   5.238  11.048   7.020  0.0849 -1.8577 -1.8211
 1002MOL0     H38259   5.318  11.150   6.810  1.7410 -2.4817  0.0974
 1002MOL0     H38260   5.669  10.313   6.485  0.7396  0.0214  0.2447
 1002MOL0     H38261   5.546  10.088   6.474  0.3501  0.8213 -0.0528
 1002MOL0     H38262   5.447   9.732   6.380  2.8525  1.4455  0.6128
 1002MOL0     H38263   5.312   9.550   6.312 -0.2342 -0.1624 -0.5096
 1002MOL0     H38264   5.444   9.135   6.383  0.3815  0.1101 -0.5983
 1002MOL0     H38265   5.341   9.191   6.525 -1.1479 -3.7054  0.0026
 1002MOL0     H38266   5.150   9.141   6.404  0.6790 -1.2228  1.5671
 1002MOL0     H38267   5.229   8.997   6.416 -2.4816  0.0047 -2.2193
 1002MOL0     H38268   5.171   9.093   6.165 -0.5016 -1.3693 -0.1277
 1002MOL0     H38269   5.347   9.074   6.159  0.8103 -2.5114 -0.8240
 1002MOL0     H38270   5.287   8.846   6.295  0.4337  1.3343  0.6645
 1002MOL0     H38271   5.307   8.865   6.114  2.0958  2.5508  0.6591
 1002MOL0     H38272   4.904   8.784   6.101 -1.4226  3.6898  1.9329
 1002MOL0     H38273   5.560   9.282   6.536  0.9525 -1.9128 -2.8380
 1002MOL0     H38274   5.802   9.526   6.650  0.8943  0.5091 -1.8634
 1002MOL0     H38275   5.745   9.353   6.653 -0.5321  0.7449  0.5626
 1002MOL0     H38276   5.842   9.425   6.522  1.1951 -0.9125  0.4795
 1003MOL0     O38277  10.799   5.215   7.469  0.0957  0.1331 -0.1889
 1003MOL0     C38278  10.860   5.271   7.380  0.1759 -0.0584  0.0277
 1003MOL0     O38279  10.972   5.230   7.326  0.1903 -0.6515 -0.8162
 1003MOL0     C38280  11.027   5.118   7.381  0.0729  0.1946  0.1533
 1003MOL0     C38281  11.143   5.125   7.449 -0.8765 -0.0794 -0.3735
 1003MOL0     C38282  11.201   5.008   7.507 -0.7554  0.3576  0.3825
 1003MOL0     C38283  11.151   4.884   7.494  0.5838 -0.0233  1.0022
 1003MOL0     O38284  11.217   4.776   7.549  0.4255  0.6531  0.1317
 1003MOL0     C38285  11.161   4.655   7.493 -0.6775  1.0106 -0.3862
 1003MOL0     C38286  11.243   4.536   7.540 -0.3944 -0.3065  1.1418
 1003MOL0     C38287  11.192   4.402   7.485  0.0747  0.2505  0.2743
 1003MOL0     C38288  11.272   4.290   7.540 -0.0218  0.0513  0.0590
 1003MOL0     C38289  11.260   4.254   7.682 -0.9718  0.8311 -0.0789
 1003MOL0     C38290  11.123   4.187   7.714  0.8797  0.0840 -0.7091
 1003MOL0     C38291  11.119   4.150   7.867  0.0902 -1.2860  1.1567
 1003MOL0     C38292  10.976   4.121   7.923 -0.2908 -0.2457 -0.2895
 1003MOL0     N38293  10.955   4.125   8.074 -0.0983 -0.8304  0.2538
 1003MOL0     C38294  10.834   4.153   8.136  1.4349  0.4010  0.4260
 1003MOL0     C38295  10.870   4.175   8.267  0.5553  0.3998  0.3088
 1003MOL0     C38296  10.780   4.203   8.384 -0.3687 -0.8876  0.4100
 1003MOL0     C38297  10.744   4.067   8.447 -0.6662  1.4470  0.8324
 1003MOL0     C38298  10.614   4.075   8.533  0.3914  0.0616 -0.2843
 1003MOL0     C38299  10.569   3.944   8.594  0.6244  0.9011  0.5287
 1003MOL0     O38300  10.530   3.860   8.489  0.4210 -0.1329 -0.0439
 1003MOL0     C38301  10.469   3.743   8.519 -0.9288 -0.4301 -0.0497
 1003MOL0     C38302  10.459   3.696   8.654  0.1701 -1.2629  0.7567
 1003MOL0     C38303  10.384   3.575   8.676 -0.4443  0.3923 -1.0899
 1003MOL0     C38304  10.374   3.550   8.823  0.6417  0.2613  0.5688
 1003MOL0     C38305  10.326   3.504   8.578  0.9570  0.5372  0.3579
 1003MOL0     C38306  10.262   3.372   8.605 -0.9656 -0.0900  0.5399
 1003MOL0     O38307  10.183   3.331   8.500  0.4208  0.1190 -0.3174
 1003MOL0     C38308  10.123   3.207   8.507  0.2144 -0.7497 -0.1280
 1003MOL0     C38309  10.057   3.162   8.620  0.1011 -0.0572 -0.4715
 1003MOL0     C38310  10.019   3.031   8.636 -0.3885 -0.0985  0.6785
 1003MOL0     C38311  10.015   2.950   8.515  0.0931  0.3884  0.1106
 1003MOL0     O38312   9.947   2.827   8.516 -1.3323  0.3464 -0.5540
 1003MOL0     C38313   9.939   2.752   8.636  1.0757 -0.3313 -0.1685
 1003MOL0     C38314   9.878   2.623   8.588 -0.3113  0.4182  0.4495
 1003MOL0     C38315   9.833   2.531   8.701 -0.0300 -0.7217 -0.7354
 1003MOL0     C38316   9.802   2.386   8.671  0.7400  0.7489  0.5163
 1003MOL0     C38317   9.932   2.299   8.638  0.6910 -0.2597  0.3124
 1003MOL0     C38318   9.911   2.152   8.633 -0.7687 -0.5823 -0.5512
 1003MOL0     C38319   9.880   2.105   8.782 -0.0688  0.0329  0.5278
 1003MOL0     C38320   9.875   1.955   8.787 -0.0866  1.8987 -0.1271
 1003MOL0    Cl38321   9.746   1.881   8.668  0.1609  0.2444  0.2650
 1003MOL0     C38322  10.062   2.999   8.400 -0.5077  0.1072 -0.8506
 1003MOL0     C38323  10.134   3.123   8.402  0.0882  1.0907 -0.0406
 1003MOL0     O38324  10.310   3.298   8.686 -0.4641  0.8061 -0.2831
 1003MOL0     C38325  10.339   3.560   8.446 -0.9401 -0.1215 -0.1524
 1003MOL0     C38326  10.413   3.676   8.419  0.2523  0.0730  0.9020
 1003MOL0     N38327  11.006   4.153   8.284 -0.2292 -0.1653 -0.6921
 1003MOL0     N38328  11.056   4.118   8.169  0.3735  0.1703 -0.1840
 1003MOL0     C38329  11.026   4.884   7.425 -0.0631  0.9252  0.7918
 1003MOL0     C38330  10.970   4.996   7.367 -0.0862  0.7079  0.2252
 1003MOL0     C38331  10.818   5.415   7.328 -0.7775 -1.3317  0.5418
 1003MOL0     C38332  10.896   5.489   7.231 -0.1698  0.1879  0.1824
 1003MOL0     C38333  10.859   5.617   7.179 -0.2411  0.3162  0.2090
 1003MOL0     C38334  10.750   5.689   7.230 -0.4423 -0.4912  0.4278
 1003MOL0     O38335  10.725   5.806   7.170 -0.2326 -0.5502  0.4545
 1003MOL0     C38336  10.635   5.896   7.230  0.1017 -0.1283  0.3003
 1003MOL0     C38337  10.656   5.935   7.374 -0.6160  0.1178  0.6061
 1003MOL0     C38338  10.541   6.026   7.422  0.2746  0.0058  0.4021
 1003MOL0     C38339  10.409   5.952   7.428  0.3546  0.0913  0.4838
 1003MOL0     C38340  10.411   5.842   7.527  0.0839  1.0949  0.4492
 1003MOL0     C38341  10.417   5.757   7.611 -0.8316  0.3903  0.8380
 1003MOL0     C38342  10.669   5.614   7.322 -1.2320  0.5030  0.6412
 1003MOL0     C38343  10.707   5.484   7.370  0.6787 -0.2530 -0.3075
 1003MOL0     C38344  10.620   5.432   7.484  0.1346  0.2440  0.5409
 1003MOL0     H38345  11.206   5.211   7.470 -1.0885 -0.2430  1.0513
 1003MOL0     H38346  11.291   5.005   7.569  1.5712 -2.0489 -2.7699
 1003MOL0     H38347  11.170   4.652   7.384  2.4228  0.9937 -0.2208
 1003MOL0     H38348  11.061   4.636   7.533 -1.2066 -1.3827 -2.5205
 1003MOL0     H38349  11.348   4.542   7.512  0.0500  0.2387  2.7820
 1003MOL0     H38350  11.236   4.534   7.650 -0.0457 -3.2130  1.1998
 1003MOL0     H38351  11.086   4.375   7.498 -0.4077  2.6965  2.0346
 1003MOL0     H38352  11.205   4.413   7.377  0.3689 -0.3088  0.2480
 1003MOL0     H38353  11.258   4.200   7.480 -0.8658  0.8505 -0.9682
 1003MOL0     H38354  11.376   4.312   7.516  0.8318 -2.9139  0.6048
 1003MOL0     H38355  11.288   4.347   7.733  0.1792  1.3137 -1.5250
 1003MOL0     H38356  11.334   4.177   7.709  0.1132  1.7478 -0.3720
 1003MOL0     H38357  11.046   4.264   7.705  0.7078 -0.1415 -1.1700
 1003MOL0     H38358  11.100   4.099   7.654  0.7349  0.7062 -1.5895
 1003MOL0     H38359  11.149   4.234   7.929 -3.1179  1.9086 -1.1949
 1003MOL0     H38360  11.194   4.072   7.881  2.7877  1.1039  0.9246
 1003MOL0     H38361  10.904   4.195   7.887 -1.9982 -1.2628  0.8861
 1003MOL0     H38362  10.928   4.038   7.869 -0.8359  0.1979 -0.4905
 1003MOL0     H38363  10.735   4.180   8.101  0.5621 -1.2277  1.5153
 1003MOL0     H38364  10.695   4.260   8.346  1.9519  2.6685  0.1179
 1003MOL0     H38365  10.825   4.264   8.463 -3.8670  0.4933  1.5200
 1003MOL0     H38366  10.717   3.992   8.372  2.8334  1.4557 -0.6102
 1003MOL0     H38367  10.833   4.029   8.497 -0.3371 -0.1551 -0.8411
 1003MOL0     H38368  10.644   4.139   8.616  2.1792 -0.7498 -0.2397
 1003MOL0     H38369  10.524   4.114   8.484 -1.0902 -3.6277 -0.8440
 1003MOL0     H38370  10.658   3.902   8.644  1.6904  2.1876 -0.2118
 1003MOL0     H38371  10.481   3.973   8.652 -1.6277 -0.3179 -2.1068
 1003MOL0     H38372  10.503   3.758   8.731 -0.3764  1.5185 -1.0189
 1003MOL0     H38373  10.434   3.461   8.845  0.1835 -0.5459 -1.2641
 1003MOL0     H38374  10.271   3.525   8.850  1.0346 -0.5321  1.4056
 1003MOL0     H38375  10.399   3.642   8.877  0.7312  1.4571 -1.4197
 1003MOL0     H38376  10.058   3.228   8.706  2.9080 -0.7571  0.1325
 1003MOL0     H38377   9.981   2.978   8.722  0.1446 -0.7233  0.5323
 1003MOL0     H38378  10.029   2.749   8.698  0.3793  1.8400  1.0357
 1003MOL0     H38379   9.864   2.796   8.701  1.4431  0.6858 -0.4123
 1003MOL0     H38380   9.791   2.647   8.526  0.9703 -1.0006 -2.0944
 1003MOL0     H38381   9.954   2.580   8.522  1.8484  3.1647  0.9430
 1003MOL0     H38382   9.749   2.568   8.759  0.4692 -1.3338  0.4009
 1003MOL0     H38383   9.915   2.526   8.774 -0.3558 -2.6851 -0.4379
 1003MOL0     H38384   9.732   2.383   8.587 -0.8346  1.9920  1.7295
 1003MOL0     H38385   9.761   2.343   8.763  2.0859 -1.4221  0.1817
 1003MOL0     H38386   9.966   2.340   8.543 -1.2103 -1.5690 -1.0032
 1003MOL0     H38387  10.012   2.319   8.710  1.0695  0.2684 -0.2458
 1003MOL0     H38388  10.008   2.108   8.606 -0.2109  1.5858 -2.3876
 1003MOL0     H38389   9.833   2.134   8.558  0.8814  0.8728 -2.7438
 1003MOL0     H38390   9.778   2.130   8.812 -1.0055 -2.4313 -0.3378
 1003MOL0     H38391   9.950   2.163   8.842  0.2141  2.7306 -2.1356
 1003MOL0     H38392   9.856   1.916   8.888  1.5932  1.0565 -0.0974
 1003MOL0     H38393   9.971   1.912   8.755 -0.7868 -1.5702  1.8375
 1003MOL0     H38394  10.060   2.938   8.310  1.0711  2.1097 -2.3421
 1003MOL0     H38395  10.187   3.160   8.314  4.0700 -4.4524 -0.4855
 1003MOL0     H38396  10.290   3.513   8.362 -1.7472 -1.4399  1.0043
 1003MOL0     H38397  10.424   3.713   8.317 -1.7191 -0.5418  0.4207
 1003MOL0     H38398  10.976   4.796   7.386  0.2085  0.6584  1.0423
 1003MOL0     H38399  10.881   4.984   7.305 -1.2776  0.4867  1.9075
 1003MOL0     H38400  10.992   5.449   7.200  0.7338  0.1463  2.8219
 1003MOL0     H38401  10.924   5.649   7.098  1.9816 -0.5447  1.5591
 1003MOL0     H38402  10.644   5.987   7.170 -2.7436 -1.7145 -2.8469
 1003MOL0     H38403  10.541   5.852   7.197  0.1999  1.7795 -3.0532
 1003MOL0     H38404  10.747   5.996   7.378 -2.4370  3.2959 -1.7031
 1003MOL0     H38405  10.673   5.840   7.426 -2.1359 -1.8273 -2.1883
 1003MOL0     H38406  10.563   6.067   7.521 -0.1141  2.2617 -0.3861
 1003MOL0     H38407  10.526   6.119   7.366 -5.2489  1.6311  3.7432
 1003MOL0     H38408  10.379   5.929   7.325  0.7695 -0.5175  0.4926
 1003MOL0     H38409  10.335   6.021   7.469 -1.8072 -1.1782 -1.1020
 1003MOL0     H38410  10.417   5.685   7.690 -0.3028  1.8154  2.1865
 1003MOL0     H38411  10.581   5.665   7.359  0.2117  6.0295 -2.4101
 1003MOL0     H38412  10.687   5.417   7.569  1.0456  4.7630  0.8398
 1003MOL0     H38413  10.536   5.500   7.500  0.1771  0.6988 -0.9551
 1003MOL0     H38414  10.576   5.335   7.458  1.5970 -0.8936  2.0988
 1004MOL0     O38415   8.042   7.050   5.963  0.2231 -0.5691  0.1604
 1004MOL0     C38416   8.035   6.948   6.026 -0.2749  0.5186  0.1013
 1004MOL0     O38417   7.986   6.940   6.156  0.0359  0.2642  0.3127
 1004MOL0     C38418   7.938   7.058   6.211  0.1089  0.9654  0.2049
 1004MOL0     C38419   8.023   7.144   6.283  0.1718 -0.0600  0.3754
 1004MOL0     C38420   7.967   7.267   6.327 -0.8055  0.4976 -0.7072
 1004MOL0     C38421   7.831   7.291   6.302  0.1708 -0.3664  0.5250
 1004MOL0     O38422   7.767   7.402   6.342  0.0833 -0.4025  0.5234
 1004MOL0     C38423   7.843   7.523   6.346 -0.4064  0.6807  0.1136
 1004MOL0     C38424   7.753   7.644   6.383  0.4193  0.7835  0.6816
 1004MOL0     C38425   7.820   7.775   6.408 -0.6329  0.4734  0.0088
 1004MOL0     C38426   7.711   7.888   6.404  0.0915  1.1064  0.6043
 1004MOL0     C38427   7.774   8.022   6.370  0.7738  0.5177 -0.0922
 1004MOL0     C38428   7.664   8.123   6.332 -0.5643  0.9053 -0.9291
 1004MOL0     C38429   7.716   8.268   6.339 -0.2184 -0.0302 -0.4922
 1004MOL0     C38430   7.615   8.377   6.304 -0.0795  0.0183  0.9880
 1004MOL0     N38431   7.521   8.424   6.409  0.1198 -0.1002  0.7103
 1004MOL0     C38432   7.559   8.485   6.526 -1.0425  0.7243  0.3746
 1004MOL0     C38433   7.442   8.478   6.592 -0.9224  0.8338 -0.6429
 1004MOL0     C38434   7.425   8.543   6.730  0.2458 -0.3586  1.6237
 1004MOL0     C38435   7.358   8.461   6.829  0.4089 -0.2810 -0.3565
 1004MOL0     C38436   7.425   8.470   6.969  0.3623  0.3887  0.5004
 1004MOL0     C38437   7.369   8.393   7.085 -0.1493 -0.2949  0.0886
 1004MOL0     O38438   7.229   8.403   7.110 -0.0287 -0.1673  0.2852
 1004MOL0     C38439   7.176   8.322   7.200 -0.4457  0.5767  0.0381
 1004MOL0     C38440   7.067   8.374   7.274 -0.4890  0.1130  0.0658
 1004MOL0     C38441   6.997   8.292   7.372 -0.2105  0.1157  0.1531
 1004MOL0     C38442   6.897   8.367   7.458  0.5029 -0.4547 -1.0243
 1004MOL0     C38443   7.027   8.150   7.380  0.5453  0.0769 -0.9010
 1004MOL0     C38444   6.966   8.047   7.477 -0.2140  0.6004  0.1616
 1004MOL0     O38445   7.019   7.918   7.479 -0.5801 -0.1003  0.2603
 1004MOL0     C38446   6.981   7.827   7.572 -1.1256 -0.4295 -0.5492
 1004MOL0     C38447   6.913   7.844   7.687 -0.3414 -0.7593  0.2075
 1004MOL0     C38448   6.891   7.734   7.769 -0.2991  0.3080 -0.2673
 1004MOL0     C38449   6.919   7.608   7.715 -1.3299  0.0877 -0.0650
 1004MOL0     O38450   6.892   7.483   7.769 -0.2459 -0.0390  0.7114
 1004MOL0     C38451   6.893   7.485   7.911  0.8884 -0.2570  0.6948
 1004MOL0     C38452   7.029   7.511   7.958  0.1069  0.5734 -0.7484
 1004MOL0     C38453   7.032   7.500   8.108 -0.4923  0.1521 -0.3148
 1004MOL0     C38454   7.136   7.398   8.162  0.1978  0.8319  0.2318
 1004MOL0     C38455   7.120   7.375   8.316  0.6685  0.1562 -0.6208
 1004MOL0     C38456   7.204   7.265   8.369 -0.6100 -0.5677  0.4581
 1004MOL0     C38457   7.195   7.245   8.516  0.6101  0.2263 -0.9605
 1004MOL0     C38458   7.314   7.308   8.583  0.9841  0.0569 -0.8416
 1004MOL0    Cl38459   7.445   7.202   8.599 -0.2218 -0.0001 -0.6237
 1004MOL0     C38460   6.990   7.602   7.597 -1.0196  0.4988 -0.5034
 1004MOL0     C38461   7.029   7.710   7.528  0.4084  0.6724  0.9406
 1004MOL0     O38462   6.888   8.090   7.561 -0.6315  0.6163  0.9629
 1004MOL0     C38463   7.127   8.101   7.295  0.1994 -0.4704 -0.1078
 1004MOL0     C38464   7.197   8.187   7.211  0.2427 -0.1375 -0.3283
 1004MOL0     N38465   7.340   8.427   6.512 -0.7072 -0.2431 -0.2062
 1004MOL0     N38466   7.387   8.396   6.399 -0.7083 -0.1807  0.5178
 1004MOL0     C38467   7.748   7.205   6.236 -0.1674 -0.0526  0.2304
 1004MOL0     C38468   7.800   7.085   6.190 -0.4450  0.3332  0.1029
 1004MOL0     C38469   8.097   6.818   5.982  0.3500 -0.3624  0.9789
 1004MOL0     C38470   8.067   6.698   6.053 -0.4523 -0.6701 -0.9126
 1004MOL0     C38471   8.136   6.581   6.028 -0.3400  0.7502  1.0581
 1004MOL0     C38472   8.236   6.572   5.931  0.0594  1.9433  0.3771
 1004MOL0     O38473   8.300   6.453   5.888 -0.5781  0.6375 -0.2714
 1004MOL0     C38474   8.379   6.391   5.996  0.4230  1.3047 -0.5773
 1004MOL0     C38475   8.429   6.264   5.924 -0.3887 -0.1764 -0.2178
 1004MOL0     C38476   8.514   6.172   6.003  0.0107 -0.0937 -0.1525
 1004MOL0     C38477   8.654   6.225   5.992 -0.2971  0.2697 -0.0884
 1004MOL0     C38478   8.724   6.150   6.094 -0.7784 -1.1274 -0.0136
 1004MOL0     C38479   8.761   6.092   6.194  0.2964  0.4013  0.8269
 1004MOL0     C38480   8.273   6.693   5.870  0.3159 -0.4155  0.3766
 1004MOL0     C38481   8.196   6.812   5.878  0.6070 -0.0764  0.5619
 1004MOL0     C38482   8.229   6.928   5.783 -0.3819  0.4005 -0.3286
 1004MOL0     H38483   8.123   7.105   6.301 -0.3315 -0.3262  2.9033
 1004MOL0     H38484   8.038   7.335   6.373  2.0395 -2.2633 -0.6978
 1004MOL0     H38485   7.889   7.525   6.246  0.7722 -1.7264  0.5166
 1004MOL0     H38486   7.919   7.505   6.423 -1.4762 -0.7366  0.8798
 1004MOL0     H38487   7.691   7.648   6.293  3.2674 -0.7376 -1.5366
 1004MOL0     H38488   7.701   7.606   6.471  2.4690 -1.6164  0.9893
 1004MOL0     H38489   7.868   7.777   6.507  0.9557  2.2567 -0.7272
 1004MOL0     H38490   7.893   7.801   6.331 -1.9005  2.4180 -0.5814
 1004MOL0     H38491   7.629   7.862   6.337 -1.1626  3.2894  1.1955
 1004MOL0     H38492   7.673   7.895   6.506  0.3761  0.7710  0.7360
 1004MOL0     H38493   7.841   8.008   6.285  1.9800  0.1995  0.8814
 1004MOL0     H38494   7.830   8.069   6.452 -0.0080 -1.1851  1.4869
 1004MOL0     H38495   7.626   8.111   6.230  2.4622  2.8915 -2.4362
 1004MOL0     H38496   7.586   8.109   6.408 -1.5621 -3.9348 -2.5088
 1004MOL0     H38497   7.808   8.273   6.280  0.1959  3.1876  0.2120
 1004MOL0     H38498   7.753   8.286   6.441 -1.0932 -4.7200  0.8938
 1004MOL0     H38499   7.671   8.467   6.275 -3.9960  3.2257  2.4613
 1004MOL0     H38500   7.557   8.339   6.219  2.1290  1.5781 -1.3727
 1004MOL0     H38501   7.657   8.522   6.552 -1.5664  2.7529 -0.3062
 1004MOL0     H38502   7.375   8.639   6.722 -1.5413 -1.3901 -1.6739
 1004MOL0     H38503   7.531   8.547   6.760 -0.0257 -1.3605  2.8030
 1004MOL0     H38504   7.253   8.489   6.837 -0.4274 -2.8014 -1.3976
 1004MOL0     H38505   7.364   8.355   6.805 -0.4403 -0.3364 -0.3379
 1004MOL0     H38506   7.527   8.431   6.967 -1.2400 -4.6890  2.6655
 1004MOL0     H38507   7.432   8.578   6.990  2.7051  0.8709 -2.1488
 1004MOL0     H38508   7.393   8.289   7.063  1.5079  0.2694 -0.9565
 1004MOL0     H38509   7.423   8.425   7.175  1.4319 -0.3864 -0.7955
 1004MOL0     H38510   7.050   8.481   7.269  0.5438  0.2831  0.0480
 1004MOL0     H38511   6.919   8.357   7.565 -1.3726 -1.9057 -0.7232
 1004MOL0     H38512   6.793   8.345   7.433  0.2931 -2.1224  0.9774
 1004MOL0     H38513   6.907   8.474   7.438 -0.2341 -0.2946 -0.5884
 1004MOL0     H38514   6.874   7.936   7.728  1.3769  0.2711 -0.3680
 1004MOL0     H38515   6.831   7.753   7.857  0.1284  0.6569 -0.0440
 1004MOL0     H38516   6.835   7.564   7.959  1.3952  2.2299 -2.4689
 1004MOL0     H38517   6.852   7.394   7.955  1.7291 -1.3742 -0.7153
 1004MOL0     H38518   7.097   7.441   7.909 -0.9122 -1.8563  1.1016
 1004MOL0     H38519   7.066   7.612   7.935 -1.6768  1.5118  0.2837
 1004MOL0     H38520   6.934   7.463   8.139 -0.8183 -0.2481 -1.7777
 1004MOL0     H38521   7.058   7.597   8.151 -2.6197  0.2010  1.0338
 1004MOL0     H38522   7.233   7.436   8.130  1.9017 -3.1865 -0.0292
 1004MOL0     H38523   7.114   7.304   8.110  1.1280 -0.5319  2.1465
 1004MOL0     H38524   7.133   7.476   8.357 -0.7538  0.8755 -1.8396
 1004MOL0     H38525   7.022   7.344   8.355  1.7696 -0.2375  2.0600
 1004MOL0     H38526   7.301   7.296   8.329 -1.2423  1.7810  0.6293
 1004MOL0     H38527   7.155   7.181   8.319  0.3470 -2.7466  2.9453
 1004MOL0     H38528   7.180   7.140   8.543 -1.1158  0.9387  1.0854
 1004MOL0     H38529   7.101   7.291   8.547 -1.5364 -4.5496  0.6161
 1004MOL0     H38530   7.278   7.332   8.683  0.5845  1.1186 -1.2167
 1004MOL0     H38531   7.347   7.403   8.538  0.4143  0.3411 -0.6667
 1004MOL0     H38532   7.023   7.508   7.555 -2.7997 -0.3777  0.0051
 1004MOL0     H38533   7.079   7.698   7.432 -0.0664  2.4896  0.4354
 1004MOL0     H38534   7.137   7.993   7.287  0.9109 -0.3797 -0.4795
 1004MOL0     H38535   7.274   8.147   7.146  1.3553  1.0246  0.2182
 1004MOL0     H38536   7.648   7.241   6.213 -0.0092 -0.7983 -1.8513
 1004MOL0     H38537   7.721   7.023   6.150  1.1491 -1.5163 -0.3126
 1004MOL0     H38538   7.991   6.709   6.130  1.3710 -2.0361  1.2529
 1004MOL0     H38539   8.121   6.493   6.090  3.5857  0.7078  2.2091
 1004MOL0     H38540   8.460   6.459   6.022  0.2956  0.5351  2.1861
 1004MOL0     H38541   8.318   6.363   6.082  0.8850 -2.0242 -1.2155
 1004MOL0     H38542   8.486   6.292   5.835 -2.6912 -0.2628 -1.8064
 1004MOL0     H38543   8.338   6.216   5.887  0.1278  1.0171 -3.2692
 1004MOL0     H38544   8.469   6.172   6.102 -2.6282  0.2652 -1.2506
 1004MOL0     H38545   8.513   6.073   5.958  1.4438 -0.2207  0.0662
 1004MOL0     H38546   8.646   6.334   6.003 -0.5090  0.0779  2.2789
 1004MOL0     H38547   8.714   6.208   5.903 -0.6954 -4.6453  0.3149
 1004MOL0     H38548   8.795   6.039   6.281 -1.6684 -0.4567  1.1062
 1004MOL0     H38549   8.354   6.678   5.800  0.2505 -1.2937  0.4757
 1004MOL0     H38550   8.265   7.018   5.833 -0.9121  0.2310  0.3844
 1004MOL0     H38551   8.289   6.895   5.698  1.8325  1.8506  0.5871
 1004MOL0     H38552   8.131   6.961   5.749 -0.7049 -0.7004 -0.5212
 1005MOL0     O38553   7.805  10.081   8.118 -0.7703 -0.9801 -0.2070
 1005MOL0     C38554   7.727  10.160   8.174 -0.3282  0.0133  1.2443
 1005MOL0     O38555   7.595  10.179   8.133  0.1001  0.9109 -0.3505
 1005MOL0     C38556   7.551  10.084   8.030 -0.4156 -0.0918 -0.0820
 1005MOL0     C38557   7.588  10.108   7.893 -0.9519  0.5262  0.1084
 1005MOL0     C38558   7.571  10.001   7.807 -0.9706  0.2379 -0.3757
 1005MOL0     C38559   7.517   9.878   7.844 -0.1446  0.1561 -0.1642
 1005MOL0     O38560   7.498   9.780   7.754  0.4824 -0.1167  0.1894
 1005MOL0     C38561   7.362   9.774   7.707 -0.3737 -0.2948 -0.4907
 1005MOL0     C38562   7.358   9.683   7.586  0.5998 -0.0783 -0.3415
 1005MOL0     C38563   7.210   9.647   7.554 -0.7776 -0.8395  0.5306
 1005MOL0     C38564   7.200   9.605   7.411  0.0087  0.4833  0.0050
 1005MOL0     C38565   7.058   9.552   7.377  0.4276  0.0439 -0.4366
 1005MOL0     C38566   7.037   9.523   7.229 -0.0628 -0.9095  0.1063
 1005MOL0     C38567   7.144   9.424   7.176  0.8424 -0.1921 -0.2416
 1005MOL0     C38568   7.090   9.386   7.041  0.4005  0.4453  0.4893
 1005MOL0     N38569   7.130   9.472   6.937  0.0882 -0.7315  0.3191
 1005MOL0     C38570   7.061   9.591   6.900 -0.1286  0.5110  0.0087
 1005MOL0     C38571   7.144   9.638   6.806  0.8621  0.4379 -0.2601
 1005MOL0     C38572   7.126   9.776   6.749  0.9197 -0.2032  0.1791
 1005MOL0     C38573   6.993   9.783   6.681 -0.2894  0.0521  0.4165
 1005MOL0     C38574   6.954   9.921   6.640  0.6282 -0.6819 -0.3146
 1005MOL0     C38575   7.057  10.005   6.558 -0.1031  0.6348  0.1375
 1005MOL0     O38576   7.083   9.955   6.425  0.1424 -0.8366  0.3240
 1005MOL0     C38577   7.185  10.019   6.355 -0.1777 -0.2608  0.4342
 1005MOL0     C38578   7.256  10.138   6.381  0.7048 -0.3546 -0.5051
 1005MOL0     C38579   7.326  10.205   6.277 -0.3826 -0.0431  0.0298
 1005MOL0     C38580   7.365  10.353   6.302  0.0759  1.0823 -0.6132
 1005MOL0     C38581   7.351  10.141   6.158 -0.5394  0.1549  0.8281
 1005MOL0     C38582   7.446  10.198   6.064 -0.0110 -0.4980  0.6076
 1005MOL0     O38583   7.573  10.183   6.111  0.6505 -0.2878  0.2791
 1005MOL0     C38584   7.689  10.209   6.036  0.3986  0.2456 -0.4052
 1005MOL0     C38585   7.717  10.305   5.939  0.4160  0.6142  1.0306
 1005MOL0     C38586   7.842  10.327   5.890 -0.5469 -0.7857  0.2325
 1005MOL0     C38587   7.952  10.255   5.931 -0.2743  0.2189  0.1818
 1005MOL0     O38588   8.082  10.282   5.891  0.1426 -0.4771 -0.0913
 1005MOL0     C38589   8.189  10.263   5.986 -0.6792  0.1512 -0.2933
 1005MOL0     C38590   8.195  10.355   6.105  0.1256 -0.5704 -0.7451
 1005MOL0     C38591   8.169  10.506   6.071  0.3923  1.1339 -0.7624
 1005MOL0     C38592   8.186  10.602   6.179  0.7725 -0.2927 -0.0194
 1005MOL0     C38593   8.111  10.733   6.152  0.3137  0.0882 -0.3658
 1005MOL0     C38594   8.114  10.832   6.280  1.3017  0.9937  0.0430
 1005MOL0     C38595   8.057  10.975   6.259  0.1501 -0.2989 -0.4571
 1005MOL0     C38596   8.111  11.066   6.367  0.6146  0.0202 -0.1826
 1005MOL0    Cl38597   7.985  11.144   6.448  0.4424  0.8095 -0.0037
 1005MOL0     C38598   7.920  10.136   6.004 -0.5866  0.3104  0.4969
 1005MOL0     C38599   7.791  10.116   6.058  0.5264 -0.7492  0.9389
 1005MOL0     O38600   7.408  10.246   5.961  0.1450 -0.3654  0.0268
 1005MOL0     C38601   7.308  10.013   6.141 -0.0685 -0.9427 -0.9900
 1005MOL0     C38602   7.217   9.964   6.231 -0.2394  0.5385 -0.0784
 1005MOL0     N38603   7.257   9.558   6.782  0.8276  0.0354  0.7676
 1005MOL0     N38604   7.249   9.452   6.865  0.0003  0.3959 -0.4930
 1005MOL0     C38605   7.493   9.854   7.979  0.0570 -0.0428  0.6298
 1005MOL0     C38606   7.509   9.956   8.072  0.0204 -0.4808  0.2481
 1005MOL0     C38607   7.780  10.240   8.287  0.0905  0.4201 -0.0825
 1005MOL0     C38608   7.676  10.280   8.375  0.1060  0.2646 -0.2497
 1005MOL0     C38609   7.704  10.338   8.503 -0.0705  0.3259 -0.2758
 1005MOL0     C38610   7.838  10.350   8.548 -0.4342  0.6307  0.0822
 1005MOL0     O38611   7.871  10.394   8.672  0.0902  0.7658 -0.2873
 1005MOL0     C38612   7.778  10.435   8.768 -0.2051 -0.0966  0.5256
 1005MOL0     C38613   7.737  10.326   8.860  0.6985 -0.3905 -0.0705
 1005MOL0     C38614   7.671  10.382   8.996  0.9574  1.6142  0.4078
 1005MOL0     C38615   7.563  10.293   9.060 -0.0812  0.0714  0.3877
 1005MOL0     C38616   7.494  10.352   9.170 -0.4134 -0.7525 -0.0215
 1005MOL0     C38617   7.456  10.423   9.268  0.3706  0.6563  0.1294
 1005MOL0     C38618   7.947  10.306   8.459  1.1347  0.5161  0.2640
 1005MOL0     C38619   7.918  10.265   8.324 -0.4061 -0.4952 -0.5888
 1005MOL0     C38620   8.039  10.228   8.234 -0.1106  0.1476  0.5633
 1005MOL0     H38621   7.633  10.205   7.871 -4.2225  1.8901 -1.2480
 1005MOL0     H38622   7.595  10.005   7.702 -0.2618 -1.0604 -0.2943
 1005MOL0     H38623   7.319   9.873   7.685 -3.6141 -0.9483  2.1760
 1005MOL0     H38624   7.295   9.737   7.785 -0.9533 -2.0167 -1.7445
 1005MOL0     H38625   7.403   9.741   7.504  0.8341  0.0092 -0.1490
 1005MOL0     H38626   7.409   9.588   7.601 -3.8154 -2.5240  0.9010
 1005MOL0     H38627   7.190   9.555   7.611 -0.4314 -1.8584 -0.9264
 1005MOL0     H38628   7.154   9.736   7.583  0.9284  0.6057 -0.3940
 1005MOL0     H38629   7.220   9.688   7.342 -0.8748 -1.3798 -2.6965
 1005MOL0     H38630   7.275   9.526   7.398  0.3882  0.9155 -0.4878
 1005MOL0     H38631   6.984   9.625   7.414  1.1595  0.2973  0.5875
 1005MOL0     H38632   7.045   9.458   7.430  0.5174 -0.3281 -1.0687
 1005MOL0     H38633   6.931   9.497   7.228 -0.5870  0.9080  1.7908
 1005MOL0     H38634   7.047   9.611   7.165 -0.2368 -2.5940 -2.4021
 1005MOL0     H38635   7.168   9.350   7.254  2.3749  1.3831  0.8788
 1005MOL0     H38636   7.237   9.479   7.162  0.0285  1.6903  1.3250
 1005MOL0     H38637   7.126   9.286   7.015 -2.4630 -0.3672 -0.8241
 1005MOL0     H38638   6.981   9.373   7.034  0.5402 -0.0459 -1.2047
 1005MOL0     H38639   6.978   9.628   6.959 -1.0368 -0.7052 -0.4675
 1005MOL0     H38640   7.206   9.782   6.675 -0.1007 -1.8788 -1.1402
 1005MOL0     H38641   7.145   9.856   6.820  0.7432 -0.0627  0.0706
 1005MOL0     H38642   6.997   9.726   6.588  1.0346  0.2633  0.3155
 1005MOL0     H38643   6.923   9.739   6.752 -3.1860  1.9178 -1.1271
 1005MOL0     H38644   6.860   9.915   6.584  1.5935 -0.1850 -2.0748
 1005MOL0     H38645   6.935   9.984   6.727  3.1235  1.6331 -1.2969
 1005MOL0     H38646   7.022  10.109   6.556 -3.4253 -0.3220  1.4822
 1005MOL0     H38647   7.148  10.002   6.617  1.0889 -2.6928 -1.6521
 1005MOL0     H38648   7.242  10.180   6.480  1.4181 -0.9918 -0.1247
 1005MOL0     H38649   7.299  10.381   6.384 -2.8402 -2.3726 -1.5328
 1005MOL0     H38650   7.350  10.412   6.210 -0.4290  0.7543 -0.7400
 1005MOL0     H38651   7.467  10.353   6.343 -1.2809  1.8213  3.0766
 1005MOL0     H38652   7.640  10.376   5.911  0.5122 -0.1927 -1.5792
 1005MOL0     H38653   7.860  10.414   5.829  1.9011 -1.2915  0.1211
 1005MOL0     H38654   8.198  10.159   6.018  0.0433 -0.2898 -1.8223
 1005MOL0     H38655   8.279  10.270   5.926 -1.2687  0.4198 -1.1641
 1005MOL0     H38656   8.132  10.311   6.182  2.4097 -0.2611  1.3981
 1005MOL0     H38657   8.298  10.351   6.138  1.0993  4.5916 -2.2089
 1005MOL0     H38658   8.068  10.494   6.031 -0.8360  3.2459  1.4542
 1005MOL0     H38659   8.239  10.536   5.993 -0.3419  0.1036 -1.8552
 1005MOL0     H38660   8.293  10.621   6.181  0.8759 -0.3048 -2.2764
 1005MOL0     H38661   8.141  10.556   6.267  2.8675  1.5453  2.1389
 1005MOL0     H38662   8.132  10.789   6.060 -0.3104  0.2364 -0.4220
 1005MOL0     H38663   8.010  10.700   6.125  0.2322 -1.9825  2.1211
 1005MOL0     H38664   8.222  10.843   6.291  1.0721  1.5004  2.0705
 1005MOL0     H38665   8.071  10.786   6.369 -0.9485 -1.0705 -1.9213
 1005MOL0     H38666   7.948  10.977   6.274  0.2464  0.1420  0.2374
 1005MOL0     H38667   8.091  11.016   6.163  2.9692 -3.1419 -0.8380
 1005MOL0     H38668   8.170  11.149   6.326 -2.4834  1.9115 -1.1547
 1005MOL0     H38669   8.170  11.012   6.442 -0.2548 -0.6295  0.0483
 1005MOL0     H38670   8.001  10.069   6.030  0.2391  1.0513 -0.1003
 1005MOL0     H38671   7.766  10.025   6.113 -1.5041 -1.2932 -0.7286
 1005MOL0     H38672   7.331   9.954   6.052  2.5628 -0.0122 -1.0403
 1005MOL0     H38673   7.171   9.866   6.224  1.1891 -0.2831  1.4015
 1005MOL0     H38674   7.455   9.755   8.003 -0.9698  0.1777 -0.0113
 1005MOL0     H38675   7.480   9.937   8.175 -0.3925  0.0858  0.2365
 1005MOL0     H38676   7.571  10.252   8.366  0.4617 -0.7834 -1.2825
 1005MOL0     H38677   7.623  10.363   8.571 -1.8364 -0.6073 -1.9246
 1005MOL0     H38678   7.822  10.523   8.815 -2.6430  0.4527  1.9872
 1005MOL0     H38679   7.702  10.499   8.722  1.4457  1.1852 -0.5465
 1005MOL0     H38680   7.824  10.264   8.881 -0.0150 -1.0624  0.9887
 1005MOL0     H38681   7.662  10.264   8.810  0.1429  0.2755 -0.0730
 1005MOL0     H38682   7.747  10.419   9.065  0.3389  1.5356  1.1419
 1005MOL0     H38683   7.611  10.465   8.959 -0.2730  0.6196  0.0927
 1005MOL0     H38684   7.615  10.200   9.084 -1.7834 -0.3999  2.5616
 1005MOL0     H38685   7.491  10.272   8.980  1.0486  0.1673 -0.6972
 1005MOL0     H38686   7.412  10.486   9.343 -6.2839 -1.5774 -1.2616
 1005MOL0     H38687   8.050  10.330   8.481  1.4379  0.1991 -0.7731
 1005MOL0     H38688   8.057  10.121   8.251  1.2430 -0.1309 -2.0900
 1005MOL0     H38689   8.019  10.247   8.128 -0.6301 -3.6716 -0.1609
 1005MOL0     H38690   8.131  10.280   8.260 -1.5495  1.6543  3.0456
 1006MOL0     O38691   4.870   1.133   2.866  0.1934  0.0788 -0.2429
 1006MOL0     C38692   4.914   1.245   2.849  0.8416 -0.2544 -0.2057
 1006MOL0     O38693   4.994   1.289   2.755 -0.0768  0.5957  0.5931
 1006MOL0     C38694   5.011   1.234   2.633 -0.5283  0.0725 -0.9996
 1006MOL0     C38695   5.084   1.309   2.532 -0.0387  0.2622  0.1444
 1006MOL0     C38696   5.103   1.247   2.402  0.5398 -0.2161 -0.9676
 1006MOL0     C38697   5.066   1.118   2.372 -0.7726 -0.0457 -0.7136
 1006MOL0     O38698   5.090   1.067   2.241  0.2174 -0.0453 -0.0719
 1006MOL0     C38699   5.215   1.008   2.226 -0.4150 -0.0253 -0.0929
 1006MOL0     C38700   5.214   0.865   2.203  1.0582  0.1811  0.1321
 1006MOL0     C38701   5.340   0.801   2.230 -0.4588  0.7856  0.1451
 1006MOL0     C38702   5.365   0.760   2.372  0.0615 -1.7735 -0.7994
 1006MOL0     C38703   5.501   0.711   2.416 -0.7256 -0.7981  0.2086
 1006MOL0     C38704   5.541   0.573   2.374  0.2926  1.2901 -0.2947
 1006MOL0     C38705   5.681   0.529   2.421 -0.3296  0.2731  0.4022
 1006MOL0     C38706   5.697   0.379   2.444  0.5042  0.1151 -0.0707
 1006MOL0     N38707   5.832   0.343   2.485 -0.1345 -0.0929 -0.6897
 1006MOL0     C38708   5.862   0.227   2.569  0.0029 -0.5542  0.3726
 1006MOL0     C38709   6.000   0.208   2.564  0.0083  0.0622  0.2536
 1006MOL0     C38710   6.090   0.102   2.617 -0.2137  1.3742 -0.7460
 1006MOL0     C38711   6.110   0.002   2.493  0.2758  0.2455  0.1709
 1006MOL0     C38712   6.187  -0.126   2.530 -0.5197  0.7315  0.5918
 1006MOL0     C38713   6.189  -0.216   2.408 -0.1866  0.8005  0.2407
 1006MOL0     O38714   6.072  -0.305   2.412  0.0174 -0.4198 -0.1648
 1006MOL0     C38715   6.109  -0.436   2.377  0.2375  0.1183  0.5260
 1006MOL0     C38716   6.212  -0.478   2.290 -0.0905 -0.0709  0.4301
 1006MOL0     C38717   6.243  -0.607   2.267 -0.6155  0.0459 -0.0093
 1006MOL0     C38718   6.353  -0.640   2.169 -0.5698  0.2007 -0.1244
 1006MOL0     C38719   6.166  -0.711   2.323  0.1108 -0.1047  0.2059
 1006MOL0     C38720   6.186  -0.866   2.308 -0.2755  0.2431 -0.7213
 1006MOL0     O38721   6.079  -0.941   2.347 -0.1472 -0.0098 -0.6625
 1006MOL0     C38722   6.063  -1.071   2.319 -0.2938 -0.0773  1.1707
 1006MOL0     C38723   6.163  -1.178   2.342  0.0687 -0.1990 -1.8512
 1006MOL0     C38724   6.145  -1.314   2.319  0.1306  0.2464  0.0640
 1006MOL0     C38725   6.030  -1.351   2.253 -0.3115 -0.0543  0.1584
 1006MOL0     O38726   6.006  -1.472   2.190  0.1590  0.7069 -0.9012
 1006MOL0     C38727   6.118  -1.561   2.161 -0.2569  0.8156 -0.3496
 1006MOL0     C38728   6.180  -1.525   2.027 -1.1758  0.3217  0.4561
 1006MOL0     C38729   6.328  -1.576   2.023 -0.6415  0.4107  0.6767
 1006MOL0     C38730   6.334  -1.705   1.945  0.1280  0.1669  0.2096
 1006MOL0     C38731   6.312  -1.693   1.783  0.2355 -0.2588  0.0726
 1006MOL0     C38732   6.447  -1.709   1.700 -0.1262 -0.7171 -0.0244
 1006MOL0     C38733   6.416  -1.727   1.554 -0.2914  0.0338 -0.1361
 1006MOL0     C38734   6.542  -1.761   1.483 -0.0863 -0.7325 -0.5497
 1006MOL0    Cl38735   6.534  -1.682   1.313  0.1143  0.4054 -0.2232
 1006MOL0     C38736   5.927  -1.252   2.231 -0.4924 -0.1575 -1.0870
 1006MOL0     C38737   5.938  -1.121   2.268  0.1334  0.3254 -0.2390
 1006MOL0     O38738   6.289  -0.913   2.260  0.2077 -0.3952 -0.1356
 1006MOL0     C38739   6.053  -0.672   2.402 -0.4344 -0.3722 -0.0064
 1006MOL0     C38740   6.028  -0.535   2.429  0.7091  0.4502 -1.5818
 1006MOL0     N38741   6.048   0.323   2.507 -0.3896 -1.0645 -0.1372
 1006MOL0     N38742   5.951   0.400   2.463 -0.6454 -0.5745 -0.6211
 1006MOL0     C38743   5.003   1.048   2.471  0.2015  0.1382  0.0366
 1006MOL0     C38744   4.980   1.104   2.597 -0.1560 -0.4536 -0.1520
 1006MOL0     C38745   4.901   1.341   2.963  0.0704  0.1345  0.3141
 1006MOL0     C38746   4.974   1.465   2.962 -0.5324  1.2044  0.1579
 1006MOL0     C38747   4.964   1.558   3.067  0.1688 -0.5713  0.5530
 1006MOL0     C38748   4.886   1.537   3.178  0.7509  0.0956 -0.2393
 1006MOL0     O38749   4.876   1.616   3.290  0.2925  0.7853 -0.6084
 1006MOL0     C38750   4.985   1.606   3.383 -0.1128 -0.4323 -0.8845
 1006MOL0     C38751   4.946   1.575   3.532 -0.6093 -0.2097  0.2373
 1006MOL0     C38752   4.840   1.663   3.598  0.2544  0.1998  0.0379
 1006MOL0     C38753   4.779   1.619   3.737  0.1101 -1.0682  0.1511
 1006MOL0     C38754   4.705   1.492   3.718 -0.9520  0.2019 -1.0364
 1006MOL0     C38755   4.642   1.385   3.702 -0.2818 -0.3105 -0.2707
 1006MOL0     C38756   4.825   1.409   3.182 -0.2264 -0.3990 -0.3697
 1006MOL0     C38757   4.831   1.313   3.081  0.6813 -0.5140  0.5787
 1006MOL0     C38758   4.758   1.189   3.119  0.8831 -0.8016  1.0235
 1006MOL0     H38759   5.115   1.408   2.563  2.0157 -0.4030  0.3162
 1006MOL0     H38760   5.142   1.300   2.315 -1.1324  2.7666 -0.0406
 1006MOL0     H38761   5.284   1.027   2.309  1.2260 -0.7706 -1.2203
 1006MOL0     H38762   5.257   1.056   2.137 -1.1661  2.9157  1.0201
 1006MOL0     H38763   5.138   0.821   2.269  0.0168  0.7122 -0.6670
 1006MOL0     H38764   5.183   0.839   2.101  0.0038  0.6751  0.3044
 1006MOL0     H38765   5.329   0.705   2.178 -2.0105  2.0960 -2.1247
 1006MOL0     H38766   5.426   0.847   2.179  1.6765  0.8939  3.5218
 1006MOL0     H38767   5.340   0.847   2.434 -0.1408 -1.4698 -1.3023
 1006MOL0     H38768   5.288   0.692   2.411  0.0528  0.1458  3.0898
 1006MOL0     H38769   5.525   0.730   2.521  2.6948  0.5183 -0.6905
 1006MOL0     H38770   5.578   0.775   2.371 -0.8319  0.1249  1.2837
 1006MOL0     H38771   5.462   0.515   2.423  1.0482 -0.9997 -1.6291
 1006MOL0     H38772   5.532   0.554   2.267 -1.6036  0.2123  0.0097
 1006MOL0     H38773   5.694   0.588   2.512 -0.6042  2.7821 -1.0900
 1006MOL0     H38774   5.751   0.558   2.342 -0.7141 -0.2505 -0.1329
 1006MOL0     H38775   5.622   0.331   2.507 -1.3180  3.5743  0.6644
 1006MOL0     H38776   5.676   0.327   2.350 -0.3092  1.2702 -0.5466
 1006MOL0     H38777   5.784   0.157   2.597  0.5709 -1.0748  0.6984
 1006MOL0     H38778   6.054   0.049   2.706  0.8168 -3.6822 -2.9578
 1006MOL0     H38779   6.186   0.149   2.640  1.6146 -1.2125 -2.5139
 1006MOL0     H38780   6.012  -0.034   2.460  0.8928  0.6492 -2.3575
 1006MOL0     H38781   6.160   0.049   2.407 -0.5553  1.4044  0.2985
 1006MOL0     H38782   6.289  -0.092   2.549 -0.2724  0.0399  0.5012
 1006MOL0     H38783   6.137  -0.180   2.610 -0.7828 -0.5905 -0.4363
 1006MOL0     H38784   6.192  -0.153   2.318 -1.8157  1.3540  0.5433
 1006MOL0     H38785   6.286  -0.265   2.409 -0.0817  0.9933  1.7152
 1006MOL0     H38786   6.262  -0.393   2.244 -1.8664  0.6038 -0.3620
 1006MOL0     H38787   6.318  -0.693   2.080 -1.7097 -2.0118  1.5219
 1006MOL0     H38788   6.433  -0.699   2.215  0.5050  3.1455  2.1384
 1006MOL0     H38789   6.402  -0.550   2.132  2.4780 -0.9972  0.7446
 1006MOL0     H38790   6.252  -1.144   2.394 -0.9412  1.0275 -0.8340
 1006MOL0     H38791   6.217  -1.386   2.354 -0.4876 -0.7141 -0.5924
 1006MOL0     H38792   6.190  -1.569   2.243  2.0810 -1.5039 -2.4217
 1006MOL0     H38793   6.068  -1.658   2.155 -1.2237  1.3532 -1.4555
 1006MOL0     H38794   6.121  -1.558   1.941  0.0314  1.5274 -0.8839
 1006MOL0     H38795   6.174  -1.416   2.026 -2.6571  0.2621 -1.0164
 1006MOL0     H38796   6.370  -1.582   2.124 -0.6766  3.8597  1.0088
 1006MOL0     H38797   6.388  -1.493   1.985  0.8996 -1.6619 -1.6656
 1006MOL0     H38798   6.260  -1.776   1.984  0.1833 -0.4757 -0.8050
 1006MOL0     H38799   6.434  -1.749   1.955 -1.0474 -3.2707 -1.4921
 1006MOL0     H38800   6.240  -1.773   1.763  1.8970 -0.8918 -4.5270
 1006MOL0     H38801   6.257  -1.608   1.742  2.0962  0.5533 -0.8257
 1006MOL0     H38802   6.499  -1.795   1.744  4.0114  2.2126  1.3844
 1006MOL0     H38803   6.512  -1.624   1.720 -2.9981  1.2245  1.6549
 1006MOL0     H38804   6.349  -1.652   1.510 -0.6263  0.1599  0.5764
 1006MOL0     H38805   6.351  -1.815   1.553 -0.7300  0.2323  2.4782
 1006MOL0     H38806   6.556  -1.868   1.469  1.7394 -1.0258  2.6631
 1006MOL0     H38807   6.627  -1.721   1.540 -1.1803 -1.1409  1.4676
 1006MOL0     H38808   5.840  -1.274   2.171  0.8707  0.4424 -3.3807
 1006MOL0     H38809   5.856  -1.053   2.249 -2.1682 -2.3090 -0.4449
 1006MOL0     H38810   5.983  -0.740   2.449  1.1154 -2.1480 -0.1322
 1006MOL0     H38811   5.935  -0.526   2.483 -0.5336 -2.8531 -2.8791
 1006MOL0     H38812   4.980   0.949   2.435  0.6517  0.7537 -2.0759
 1006MOL0     H38813   4.916   1.047   2.663 -1.4870  1.8302  0.6708
 1006MOL0     H38814   5.047   1.479   2.882 -0.3976 -0.1910  0.0044
 1006MOL0     H38815   5.014   1.654   3.054 -0.6967 -0.0788  0.7838
 1006MOL0     H38816   5.060   1.530   3.363 -1.7219 -1.7878 -2.0337
 1006MOL0     H38817   5.035   1.703   3.377  2.7128 -1.8447 -1.5275
 1006MOL0     H38818   5.035   1.570   3.596 -0.9316 -1.3802  0.6351
 1006MOL0     H38819   4.894   1.478   3.528  0.6813 -0.8722 -1.7208
 1006MOL0     H38820   4.871   1.768   3.607 -0.0255  0.3383 -0.5480
 1006MOL0     H38821   4.747   1.675   3.540  0.3622  1.8783  0.1508
 1006MOL0     H38822   4.712   1.696   3.777 -0.0633 -0.8917 -0.4732
 1006MOL0     H38823   4.859   1.599   3.809 -0.6855 -2.7003  0.6457
 1006MOL0     H38824   4.599   1.293   3.669 -1.1756  1.1086 -3.4629
 1006MOL0     H38825   4.785   1.387   3.281 -1.5901  5.3876  0.7399
 1006MOL0     H38826   4.830   1.107   3.124  1.6061 -0.4955 -2.1447
 1006MOL0     H38827   4.702   1.197   3.213  2.0186 -3.7288  2.0689
 1006MOL0     H38828   4.685   1.174   3.039  0.3148  1.7711  0.9739
 1007MOL0     O38829   3.721   8.337   0.869  0.4611  0.2777  0.2580
 1007MOL0     C38830   3.646   8.372   0.780 -0.1534  0.7321  0.8680
 1007MOL0     O38831   3.512   8.364   0.772 -0.1310  0.0705 -0.3500
 1007MOL0     C38832   3.424   8.277   0.841 -0.2173 -1.0718 -0.3511
 1007MOL0     C38833   3.290   8.310   0.845  0.0999 -0.0946  0.3975
 1007MOL0     C38834   3.200   8.216   0.887  0.2818  1.0207 -0.5455
 1007MOL0     C38835   3.237   8.086   0.928 -0.4272 -0.5326  0.5469
 1007MOL0     O38836   3.140   8.000   0.974  0.1300  1.3007 -0.2069
 1007MOL0     C38837   3.150   7.958   1.110 -0.5156 -0.2706 -0.5190
 1007MOL0     C38838   3.033   7.882   1.160  0.6945 -0.0242  0.1313
 1007MOL0     C38839   2.908   7.967   1.145  0.4339  0.2299 -0.0127
 1007MOL0     C38840   2.791   7.909   1.229 -0.8839 -0.2306 -0.5395
 1007MOL0     C38841   2.674   8.003   1.231 -0.0729 -0.1334  0.2976
 1007MOL0     C38842   2.572   7.984   1.344  0.0221 -0.1218  0.3795
 1007MOL0     C38843   2.536   7.840   1.392 -0.0103 -0.6478 -0.5571
 1007MOL0     C38844   2.475   7.753   1.284  0.3624 -0.8785  0.7309
 1007MOL0     N38845   2.372   7.821   1.207  0.0780  0.3836  0.0407
 1007MOL0     C38846   2.236   7.822   1.243 -1.0883 -0.7406 -0.3516
 1007MOL0     C38847   2.164   7.887   1.150  0.4606 -0.3742  0.6558
 1007MOL0     C38848   2.030   7.933   1.156  1.1547  0.8454 -0.1533
 1007MOL0     C38849   1.941   7.812   1.188 -0.0401 -0.7177  0.1981
 1007MOL0     C38850   1.948   7.711   1.074 -0.0995 -0.6851 -0.3346
 1007MOL0     C38851   1.814   7.627   1.075 -0.6304  0.8150  0.6545
 1007MOL0     O38852   1.709   7.703   1.016 -0.2577  0.6087 -0.0763
 1007MOL0     C38853   1.584   7.663   1.052  0.2804  0.0335  0.8132
 1007MOL0     C38854   1.486   7.761   1.041  0.0768 -0.8150  0.6737
 1007MOL0     C38855   1.352   7.729   1.057  0.1612 -0.6178  0.1024
 1007MOL0     C38856   1.254   7.848   1.019 -0.7732  0.2340 -0.6415
 1007MOL0     C38857   1.312   7.610   1.112 -0.3627  0.5026  0.4244
 1007MOL0     C38858   1.178   7.584   1.143  0.2172 -0.4031  0.0143
 1007MOL0     O38859   1.150   7.527   1.259  0.3510  0.0139  0.4584
 1007MOL0     C38860   1.039   7.576   1.328  0.3560 -0.3426 -0.1672
 1007MOL0     C38861   1.060   7.564   1.468  0.3265 -0.5819  0.8641
 1007MOL0     C38862   0.964   7.612   1.563  0.3378  0.9006 -0.1325
 1007MOL0     C38863   0.842   7.664   1.514 -0.0619 -0.1493 -0.4886
 1007MOL0     O38864   0.770   7.714   1.613  0.6776  0.4435  0.3504
 1007MOL0     C38865   0.718   7.850   1.608  0.8564  0.1816  0.7253
 1007MOL0     C38866   0.794   7.945   1.706 -0.3753 -0.3408  0.0277
 1007MOL0     C38867   0.942   7.976   1.682 -0.1786 -0.1153 -0.3697
 1007MOL0     C38868   0.988   8.068   1.801 -0.5530  0.2010 -0.4150
 1007MOL0     C38869   1.145   8.043   1.793  0.0913 -0.1509  0.3769
 1007MOL0     C38870   1.201   8.124   1.904  0.4894 -0.1121  0.2710
 1007MOL0     C38871   1.354   8.095   1.921  0.7799 -0.4913  1.5346
 1007MOL0     C38872   1.441   8.099   1.797 -0.5048  0.1747 -0.2093
 1007MOL0    Cl38873   1.453   8.266   1.715  0.0661 -0.2309  0.2194
 1007MOL0     C38874   0.818   7.676   1.375 -0.0382 -0.3365  0.4053
 1007MOL0     C38875   0.918   7.631   1.281 -0.7147  0.5618 -0.1023
 1007MOL0     O38876   1.099   7.603   1.051  0.5751 -0.9144 -0.6672
 1007MOL0     C38877   1.405   7.509   1.118  0.0457 -0.8563 -0.2645
 1007MOL0     C38878   1.540   7.535   1.080  0.6296 -1.5675  0.4614
 1007MOL0     N38879   2.252   7.912   1.049 -0.9506 -0.3850  0.8883
 1007MOL0     N38880   2.380   7.880   1.083 -0.4595 -0.3886  0.0538
 1007MOL0     C38881   3.371   8.055   0.933 -0.1316 -0.2338 -0.4190
 1007MOL0     C38882   3.461   8.156   0.894 -0.6739  0.7342 -0.3163
 1007MOL0     C38883   3.706   8.431   0.653 -0.7986 -0.5256 -0.7438
 1007MOL0     C38884   3.630   8.474   0.545 -0.3872 -0.1632 -0.1553
 1007MOL0     C38885   3.690   8.514   0.422  0.2831 -0.0275  0.0636
 1007MOL0     C38886   3.823   8.518   0.405  0.2582  0.3957  0.4549
 1007MOL0     O38887   3.894   8.567   0.296 -0.5127  0.0079  0.0302
 1007MOL0     C38888   3.825   8.597   0.175 -0.3932 -0.7636 -0.6747
 1007MOL0     C38889   3.800   8.476   0.100 -0.3929 -0.0110 -0.1414
 1007MOL0     C38890   3.727   8.504  -0.034  0.4040  0.1203 -1.1823
 1007MOL0     C38891   3.722   8.382  -0.121  0.3589  0.8587  1.2950
 1007MOL0     C38892   3.642   8.267  -0.082 -0.1157 -0.8826  0.2669
 1007MOL0     C38893   3.567   8.180  -0.051 -0.2430  1.0252  0.1621
 1007MOL0     C38894   3.905   8.488   0.512 -0.1294  0.8506  0.4008
 1007MOL0     C38895   3.850   8.430   0.632 -0.4503  0.1687  0.8685
 1007MOL0     C38896   3.951   8.385   0.740  0.0505 -0.5752  0.1791
 1007MOL0     H38897   3.260   8.410   0.814 -2.5767  0.8434  5.0582
 1007MOL0     H38898   3.094   8.242   0.887  0.3928  1.4677 -1.2389
 1007MOL0     H38899   3.171   8.049   1.168  0.4268 -1.5221  1.1648
 1007MOL0     H38900   3.239   7.896   1.123 -1.1330 -0.8561  1.0332
 1007MOL0     H38901   3.030   7.789   1.103  3.7045 -0.0080 -0.2180
 1007MOL0     H38902   3.059   7.856   1.263 -0.0828 -0.6529  0.1772
 1007MOL0     H38903   2.929   8.070   1.178  1.0176 -0.6060  2.4864
 1007MOL0     H38904   2.877   7.975   1.041  0.3905 -0.5866 -0.0625
 1007MOL0     H38905   2.764   7.806   1.204  0.4532 -1.0884  1.3480
 1007MOL0     H38906   2.824   7.904   1.333  0.7742  0.9237 -0.9797
 1007MOL0     H38907   2.626   7.994   1.133  1.1255 -1.8341 -0.1660
 1007MOL0     H38908   2.712   8.106   1.237  0.5194 -0.0694 -2.7720
 1007MOL0     H38909   2.590   8.045   1.433 -1.6100 -1.4649  1.6932
 1007MOL0     H38910   2.484   8.037   1.307  0.2481 -0.6923 -1.0439
 1007MOL0     H38911   2.462   7.857   1.471  3.4788  0.9969  2.7041
 1007MOL0     H38912   2.619   7.785   1.437  0.0565  0.5727  0.9171
 1007MOL0     H38913   2.554   7.736   1.210 -0.7729  2.7206 -1.5353
 1007MOL0     H38914   2.448   7.652   1.317  1.6528 -1.6171 -0.4103
 1007MOL0     H38915   2.182   7.778   1.327 -3.1051 -1.2024 -1.8188
 1007MOL0     H38916   1.991   7.977   1.064 -0.4717 -0.1052  0.0301
 1007MOL0     H38917   2.028   8.010   1.234  0.0579 -0.2941  1.0093
 1007MOL0     H38918   1.964   7.767   1.284 -2.3122  1.0900  1.7075
 1007MOL0     H38919   1.842   7.856   1.205  0.8122  0.4406  2.5741
 1007MOL0     H38920   1.948   7.760   0.976  0.0114  1.6341  0.7494
 1007MOL0     H38921   2.030   7.639   1.079  0.5338  0.1115  2.4391
 1007MOL0     H38922   1.837   7.544   1.007 -0.3867 -0.2504  1.9879
 1007MOL0     H38923   1.792   7.583   1.173  0.0532 -0.0857  0.4203
 1007MOL0     H38924   1.516   7.859   1.006  0.4921 -0.9353  0.6912
 1007MOL0     H38925   1.175   7.870   1.090 -0.9456 -0.9106 -0.4570
 1007MOL0     H38926   1.223   7.810   0.921 -0.7928  2.8807 -1.7466
 1007MOL0     H38927   1.299   7.946   1.000 -0.3192 -0.1897 -1.9307
 1007MOL0     H38928   1.147   7.508   1.502 -1.3291 -2.8312  1.6323
 1007MOL0     H38929   0.991   7.601   1.668 -0.2991  0.4784 -0.0078
 1007MOL0     H38930   0.730   7.911   1.517  7.1836  1.1128  1.6917
 1007MOL0     H38931   0.613   7.833   1.630  0.7753 -1.3535 -0.6536
 1007MOL0     H38932   0.746   8.044   1.700 -0.6892 -0.1798  3.4355
 1007MOL0     H38933   0.774   7.910   1.807  2.2282  0.1309  0.7744
 1007MOL0     H38934   0.960   8.029   1.588 -1.0711  0.4836 -0.2187
 1007MOL0     H38935   0.997   7.881   1.690  2.3220  1.3306  0.4532
 1007MOL0     H38936   0.952   8.031   1.897 -2.8368  0.3789 -1.1252
 1007MOL0     H38937   0.965   8.175   1.787  1.5273  0.5099 -1.8829
 1007MOL0     H38938   1.145   7.937   1.821  1.1271 -0.3405 -0.2866
 1007MOL0     H38939   1.192   8.062   1.696  0.9887 -0.9467  0.6369
 1007MOL0     H38940   1.153   8.100   2.000 -0.9114  1.3010 -0.0413
 1007MOL0     H38941   1.194   8.231   1.883 -1.1682 -0.4755 -1.2207
 1007MOL0     H38942   1.360   7.991   1.956 -0.1681 -0.5965  1.4197
 1007MOL0     H38943   1.389   8.155   2.006 -1.3814 -0.0175  2.1472
 1007MOL0     H38944   1.408   8.016   1.735 -3.0780 -0.5090  1.9199
 1007MOL0     H38945   1.542   8.071   1.830 -0.8297 -2.5179 -1.2721
 1007MOL0     H38946   0.731   7.725   1.332  0.2407  2.1688  2.4268
 1007MOL0     H38947   0.902   7.650   1.176  0.3197 -1.2630 -0.6287
 1007MOL0     H38948   1.367   7.411   1.144  0.1690 -0.4025  1.7585
 1007MOL0     H38949   1.613   7.454   1.085 -0.4792 -2.5410  1.5073
 1007MOL0     H38950   3.400   7.957   0.967 -2.0752 -0.6645  0.1464
 1007MOL0     H38951   3.565   8.129   0.874 -1.0313 -1.7711  0.7498
 1007MOL0     H38952   3.523   8.471   0.561 -0.2906 -0.6183  0.4678
 1007MOL0     H38953   3.621   8.534   0.341  1.5227  0.2976 -0.9493
 1007MOL0     H38954   3.739   8.664   0.184 -1.1904 -1.7501 -0.7280
 1007MOL0     H38955   3.893   8.656   0.113  1.1314  0.2040  1.7598
 1007MOL0     H38956   3.736   8.415   0.164 -2.9504  0.3186 -2.2348
 1007MOL0     H38957   3.889   8.416   0.076 -0.9094 -1.0280  0.4265
 1007MOL0     H38958   3.630   8.548  -0.010  0.1781 -0.1984 -1.5002
 1007MOL0     H38959   3.785   8.580  -0.088  0.5120  0.9480  0.0612
 1007MOL0     H38960   3.823   8.348  -0.149 -0.5119 -2.0889  1.4304
 1007MOL0     H38961   3.688   8.413  -0.221  3.9502 -0.3046 -0.4751
 1007MOL0     H38962   3.504   8.096  -0.026 -0.9861  1.6808  0.5391
 1007MOL0     H38963   4.005   8.528   0.502 -0.5521  1.9620  0.4325
 1007MOL0     H38964   3.941   8.285   0.783  0.1371 -0.3380  0.7757
 1007MOL0     H38965   4.048   8.397   0.692  0.9342  2.2540  2.3667
 1007MOL0     H38966   3.969   8.456   0.822  2.9983  0.9079 -1.6183
 1008MOL0     O38967   9.750   2.239  10.610  0.3862  0.1359  0.8262
 1008MOL0     C38968   9.761   2.173  10.712  0.6944  0.1004  0.6357
 1008MOL0     O38969   9.878   2.155  10.777  0.7431 -0.3978 -0.1935
 1008MOL0     C38970   9.992   2.212  10.736 -1.1742  0.3325  1.2265
 1008MOL0     C38971  10.069   2.146  10.637 -0.1325  0.2420  0.4823
 1008MOL0     C38972  10.199   2.190  10.609  0.8721 -0.2365  0.0896
 1008MOL0     C38973  10.250   2.301  10.671 -1.0811  0.0280  0.2651
 1008MOL0     O38974  10.378   2.335  10.641  0.7457  0.7478  0.3200
 1008MOL0     C38975  10.441   2.455  10.686 -0.1514 -0.3159  0.6495
 1008MOL0     C38976  10.586   2.471  10.640 -0.1812 -0.0776 -0.3964
 1008MOL0     C38977  10.613   2.429  10.501  0.3130  0.2872  0.2161
 1008MOL0     C38978  10.761   2.465  10.471 -0.2980 -0.4973 -0.5898
 1008MOL0     C38979  10.802   2.389  10.348 -0.6912 -0.6988 -0.4924
 1008MOL0     C38980  10.953   2.380  10.326 -0.2282  0.2433  0.7618
 1008MOL0     C38981  11.025   2.516  10.341  0.8983  0.5398  0.9143
 1008MOL0     C38982  11.174   2.536  10.308 -0.2707  0.3247 -0.5873
 1008MOL0     N38983  11.204   2.508  10.170 -0.4888  0.3108 -0.1613
 1008MOL0     C38984  11.130   2.541  10.062  0.2178  0.7068 -0.9038
 1008MOL0     C38985  11.198   2.495   9.957  0.2780  0.3450 -0.2222
 1008MOL0     C38986  11.169   2.533   9.818  0.0042 -0.1294  0.3639
 1008MOL0     C38987  11.200   2.427   9.717 -0.3734  0.4225  0.7469
 1008MOL0     C38988  11.351   2.434   9.686 -0.5032  0.0901 -0.2145
 1008MOL0     C38989  11.424   2.301   9.656  0.6207  0.0110 -0.5808
 1008MOL0     O38990  11.382   2.258   9.525  0.2878 -0.2375  0.2036
 1008MOL0     C38991  11.452   2.149   9.469  0.3369  0.5639 -0.0586
 1008MOL0     C38992  11.412   2.118   9.341  0.0644 -0.3659 -0.8196
 1008MOL0     C38993  11.452   2.003   9.272  0.5642 -0.5332  0.1627
 1008MOL0     C38994  11.406   1.985   9.129 -0.7985  0.3931  0.2147
 1008MOL0     C38995  11.550   1.916   9.330 -0.0610  0.6714 -0.0802
 1008MOL0     C38996  11.610   1.792   9.270 -0.0726 -0.6173  0.8698
 1008MOL0     O38997  11.710   1.729   9.344 -0.4275  0.7228  0.0401
 1008MOL0     C38998  11.801   1.630   9.299 -0.5654  0.9090  0.1752
 1008MOL0     C38999  11.881   1.564   9.391 -0.9497 -0.0305  0.0700
 1008MOL0     C39000  11.982   1.475   9.353  0.9961  0.4577  0.2464
 1008MOL0     C39001  11.984   1.430   9.220 -1.0265 -0.2810 -0.1631
 1008MOL0     O39002  12.067   1.324   9.170 -0.3692 -0.3648 -0.8682
 1008MOL0     C39003  12.167   1.386   9.083 -0.5289  0.1528  0.2062
 1008MOL0     C39004  12.298   1.313   9.109  0.6124 -0.3780 -0.4823
 1008MOL0     C39005  12.362   1.364   9.232 -0.3584  0.0897 -0.3698
 1008MOL0     C39006  12.459   1.258   9.282 -1.0699  0.4584 -0.5799
 1008MOL0     C39007  12.553   1.306   9.404 -0.3089  0.3749  0.2833
 1008MOL0     C39008  12.476   1.363   9.524 -0.2091  0.0542  0.6891
 1008MOL0     C39009  12.581   1.438   9.608  0.4215  0.2752 -0.0086
 1008MOL0     C39010  12.519   1.491   9.730 -0.0676 -1.2182  1.2704
 1008MOL0    Cl39011  12.469   1.360   9.846  0.1456 -0.3395  0.1943
 1008MOL0     C39012  11.907   1.496   9.121  0.8561 -1.0347 -0.2740
 1008MOL0     C39013  11.826   1.603   9.161 -0.3213 -0.0590 -0.6937
 1008MOL0     O39014  11.559   1.749   9.165 -0.3041  0.4022 -0.2401
 1008MOL0     C39015  11.594   1.953   9.462 -0.1749 -0.0381  0.1119
 1008MOL0     C39016  11.540   2.064   9.533 -0.6171 -0.4370  0.6386
 1008MOL0     N39017  11.312   2.427  10.000 -0.4059 -0.0904  0.2122
 1008MOL0     N39018  11.316   2.438  10.124  0.4885 -0.1687  0.5824
 1008MOL0     C39019  10.179   2.370  10.772 -0.2107 -0.4572  0.1558
 1008MOL0     C39020  10.050   2.324  10.801  0.6212 -0.1997 -0.5612
 1008MOL0     C39021   9.646   2.111  10.787  1.3004  0.4003 -0.1042
 1008MOL0     C39022   9.680   2.020  10.884  0.0822  0.5662  0.3391
 1008MOL0     C39023   9.589   1.931  10.940 -0.0181  0.1282  0.2857
 1008MOL0     C39024   9.450   1.952  10.919 -0.1628 -0.0227  0.2783
 1008MOL0     O39025   9.369   1.870  10.989 -0.0593 -0.7681  0.1547
 1008MOL0     C39026   9.250   1.826  10.928 -0.4323 -0.0118  0.5471
 1008MOL0     C39027   9.205   1.686  10.977 -0.0472 -1.4281  0.7237
 1008MOL0     C39028   9.181   1.674  11.122 -0.6513  0.5793 -0.6909
 1008MOL0     C39029   9.314   1.680  11.211 -0.0623  0.7655 -0.2834
 1008MOL0     C39030   9.299   1.797  11.304 -0.6436 -0.1007  0.0971
 1008MOL0     C39031   9.275   1.901  11.355 -0.4351 -0.0138 -0.2493
 1008MOL0     C39032   9.412   2.045  10.823 -1.0709 -0.4140  0.9045
 1008MOL0     C39033   9.506   2.135  10.760  0.8560  0.2938 -0.4379
 1008MOL0     C39034   9.459   2.256  10.682 -0.3115  0.2153 -0.3558
 1008MOL0     H39035  10.028   2.066  10.576 -2.0658  0.5509  1.3086
 1008MOL0     H39036  10.261   2.134  10.540  1.7674  0.3367  0.4151
 1008MOL0     H39037  10.436   2.457  10.795 -0.9708 -3.2657  0.7671
 1008MOL0     H39038  10.391   2.544  10.647 -0.1949  0.9594  3.4268
 1008MOL0     H39039  10.617   2.575  10.645 -1.0590  0.1162  2.0469
 1008MOL0     H39040  10.654   2.405  10.694  0.3699  1.0061  0.2581
 1008MOL0     H39041  10.586   2.324  10.493  2.1765 -0.1802 -0.3755
 1008MOL0     H39042  10.544   2.484  10.436  0.3593 -1.4184 -1.3527
 1008MOL0     H39043  10.771   2.573  10.460  4.6464 -0.5511  0.8079
 1008MOL0     H39044  10.824   2.446  10.559 -0.1832  1.0552 -0.3121
 1008MOL0     H39045  10.747   2.435  10.266  0.8820  2.0064 -0.1422
 1008MOL0     H39046  10.774   2.283  10.355 -2.4326 -0.2269  0.2186
 1008MOL0     H39047  10.992   2.293  10.381 -3.1654 -0.3833  2.0628
 1008MOL0     H39048  10.974   2.342  10.225 -2.4227  2.8936 -0.8355
 1008MOL0     H39049  11.016   2.559  10.441  1.1387  2.6153  0.1109
 1008MOL0     H39050  10.960   2.576  10.276  0.5125 -0.8557 -0.0382
 1008MOL0     H39051  11.200   2.635  10.345  0.7140 -0.4929  1.0444
 1008MOL0     H39052  11.228   2.466  10.373  0.6100  1.2814 -0.2710
 1008MOL0     H39053  11.040   2.603  10.069 -2.1550 -2.6295  3.6298
 1008MOL0     H39054  11.216   2.628   9.788 -2.1884  0.8536 -0.1587
 1008MOL0     H39055  11.061   2.549   9.823 -0.2262 -1.5825  0.3735
 1008MOL0     H39056  11.191   2.333   9.772  1.2127  0.2001  0.6663
 1008MOL0     H39057  11.141   2.428   9.625 -1.8137 -0.6667  1.6215
 1008MOL0     H39058  11.368   2.491   9.594  0.1295 -3.3817 -2.4446
 1008MOL0     H39059  11.392   2.473   9.780  1.0559 -1.9480  0.0370
 1008MOL0     H39060  11.530   2.326   9.644  0.6142 -0.1699 -1.0172
 1008MOL0     H39061  11.413   2.243   9.749  0.2240  0.3563 -0.4078
 1008MOL0     H39062  11.346   2.190   9.294 -0.7294 -0.8689 -0.4944
 1008MOL0     H39063  11.358   2.078   9.097 -3.1327 -1.1418 -1.0253
 1008MOL0     H39064  11.343   1.896   9.124  1.5625 -1.3051 -0.7483
 1008MOL0     H39065  11.489   1.968   9.061  0.6149  2.3741  1.3263
 1008MOL0     H39066  11.874   1.589   9.496 -2.5631  2.6029 -0.5764
 1008MOL0     H39067  12.058   1.446   9.425  0.6103  1.5435  1.1128
 1008MOL0     H39068  12.140   1.352   8.982  1.4407  1.1438 -0.7017
 1008MOL0     H39069  12.171   1.494   9.097 -1.7114  0.5818 -2.2535
 1008MOL0     H39070  12.268   1.208   9.116 -1.6712  0.3443  2.0702
 1008MOL0     H39071  12.349   1.309   9.012  0.3294 -1.9258 -0.6027
 1008MOL0     H39072  12.284   1.398   9.300 -0.1474  2.0455 -1.0372
 1008MOL0     H39073  12.410   1.459   9.204 -0.5038  1.1179  2.5621
 1008MOL0     H39074  12.520   1.222   9.198 -1.6211 -2.2426  0.0811
 1008MOL0     H39075  12.394   1.174   9.308 -0.5654 -0.9943 -3.5654
 1008MOL0     H39076  12.607   1.212   9.418  1.3766  0.0757 -5.4426
 1008MOL0     H39077  12.628   1.377   9.368 -1.2925 -0.3187 -3.6230
 1008MOL0     H39078  12.414   1.285   9.571 -4.1346  2.1879 -0.5194
 1008MOL0     H39079  12.406   1.437   9.485 -0.1050 -1.4027 -2.6526
 1008MOL0     H39080  12.629   1.519   9.552  3.7283 -1.5515 -0.0487
 1008MOL0     H39081  12.662   1.375   9.647  1.3893  1.6238  0.2584
 1008MOL0     H39082  12.435   1.560   9.721  0.6261 -0.6022 -1.0835
 1008MOL0     H39083  12.590   1.562   9.774 -3.2512  3.7340 -0.7163
 1008MOL0     H39084  11.912   1.474   9.015  1.8210 -0.6829 -0.3102
 1008MOL0     H39085  11.789   1.667   9.082  2.1089  2.5685  0.1231
 1008MOL0     H39086  11.667   1.893   9.516 -1.5401 -2.1077 -0.2188
 1008MOL0     H39087  11.557   2.079   9.639  0.6853  1.0460  0.2616
 1008MOL0     H39088  10.229   2.445  10.831  1.2226 -2.9901  2.3597
 1008MOL0     H39089   9.997   2.382  10.876  4.8755  4.7636 -0.7872
 1008MOL0     H39090   9.781   2.018  10.923  0.5256 -0.8504 -0.8013
 1008MOL0     H39091   9.625   1.846  10.998 -0.3250 -2.0282 -2.4601
 1008MOL0     H39092   9.162   1.890  10.943 -0.0094  1.6298 -2.9953
 1008MOL0     H39093   9.271   1.811  10.821  0.0119 -3.1688  0.9864
 1008MOL0     H39094   9.266   1.598  10.953  0.6268 -1.2922  1.8693
 1008MOL0     H39095   9.111   1.661  10.926  0.7819  0.8046 -2.2048
 1008MOL0     H39096   9.100   1.743  11.147  1.4991  2.7215  0.7923
 1008MOL0     H39097   9.144   1.571  11.134  0.3136  0.3090  0.1085
 1008MOL0     H39098   9.411   1.676  11.162 -0.0761 -2.3701 -0.2513
 1008MOL0     H39099   9.327   1.586  11.266  1.8254  1.4881  0.5638
 1008MOL0     H39100   9.266   1.992  11.410  0.3882  1.4869 -2.4675
 1008MOL0     H39101   9.310   2.056  10.787 -0.1838 -0.6867 -1.9924
 1008MOL0     H39102   9.462   2.245  10.573 -0.8314 -0.7472 -0.2786
 1008MOL0     H39103   9.357   2.288  10.708  0.0156  1.1414 -0.1605
 1008MOL0     H39104   9.520   2.344  10.706  0.1292 -0.1287 -0.2162
 1009MOL0     O39105   4.779   9.337   1.493  0.4422 -0.5065 -0.7815
 1009MOL0     C39106   4.714   9.231   1.492 -0.8263 -0.5047 -0.0364
 1009MOL0     O39107   4.756   9.119   1.568 -0.2856 -0.8819 -0.3143
 1009MOL0     C39108   4.824   9.164   1.679 -0.5315 -0.6123  0.6213
 1009MOL0     C39109   4.961   9.143   1.682 -0.1369 -0.3466 -0.6337
 1009MOL0     C39110   5.033   9.204   1.787 -0.0566 -0.2890 -0.2722
 1009MOL0     C39111   4.961   9.262   1.894  0.0364 -0.8924 -0.4402
 1009MOL0     O39112   5.018   9.338   1.986 -0.5165 -0.0238 -0.4440
 1009MOL0     C39113   5.132   9.289   2.059  0.3231 -1.1063 -0.3460
 1009MOL0     C39114   5.110   9.321   2.197 -0.0619 -0.2028 -0.6166
 1009MOL0     C39115   5.204   9.230   2.285 -0.7295  0.1683 -0.0654
 1009MOL0     C39116   5.209   9.289   2.424  0.6893 -0.2606 -0.1644
 1009MOL0     C39117   5.070   9.286   2.497 -0.5102 -0.6656  1.0263
 1009MOL0     C39118   5.075   9.241   2.638  0.8398  0.7156  0.5537
 1009MOL0     C39119   4.934   9.243   2.704  0.4466 -0.1574 -0.0083
 1009MOL0     C39120   4.917   9.356   2.801 -0.6896  0.2504  0.4929
 1009MOL0     N39121   4.785   9.374   2.860  0.1350 -0.3791  0.5500
 1009MOL0     C39122   4.709   9.481   2.821 -0.2991 -0.2377 -0.1630
 1009MOL0     C39123   4.622   9.496   2.924 -0.8920  1.1120  1.1336
 1009MOL0     C39124   4.502   9.590   2.928 -0.3035  0.1659 -0.1333
 1009MOL0     C39125   4.492   9.685   3.037 -0.2891 -0.7841  0.0478
 1009MOL0     C39126   4.366   9.774   3.023 -0.0132  0.3729  0.4174
 1009MOL0     C39127   4.358   9.863   3.145 -0.0794  0.3555  0.5827
 1009MOL0     O39128   4.228   9.921   3.162 -0.3129 -0.1554 -0.0701
 1009MOL0     C39129   4.197  10.005   3.265  0.2845  0.3686  0.7114
 1009MOL0     C39130   4.072  10.070   3.264  0.5806 -0.0139 -0.5176
 1009MOL0     C39131   4.041  10.164   3.353 -0.1323 -0.4168 -0.4676
 1009MOL0     C39132   3.908  10.238   3.338  0.0616 -0.4434 -0.1347
 1009MOL0     C39133   4.129  10.187   3.470  0.3509  0.7029 -0.0152
 1009MOL0     C39134   4.083  10.259   3.588  0.6847 -0.3854  0.6867
 1009MOL0     O39135   4.182  10.265   3.685 -0.2841 -0.6904  0.5252
 1009MOL0     C39136   4.138  10.318   3.805 -1.0604 -0.8842 -0.3125
 1009MOL0     C39137   4.079  10.445   3.834 -0.2402 -1.1407 -0.1399
 1009MOL0     C39138   4.076  10.507   3.963  0.0841  0.1470 -0.2930
 1009MOL0     C39139   4.123  10.440   4.073 -0.4457 -0.0735  0.1129
 1009MOL0     O39140   4.115  10.479   4.207  1.0204 -0.0955  0.7373
 1009MOL0     C39141   4.082  10.618   4.231 -1.0291  0.2606  0.1976
 1009MOL0     C39142   4.095  10.649   4.385  0.5429 -0.5223 -0.3685
 1009MOL0     C39143   4.003  10.562   4.475  0.4650  0.1581  0.2264
 1009MOL0     C39144   3.930  10.647   4.582 -0.3779  1.0139  0.1387
 1009MOL0     C39145   3.874  10.560   4.695  0.1747 -0.0944 -0.0078
 1009MOL0     C39146   3.968  10.493   4.783 -0.3768  0.2124 -0.8613
 1009MOL0     C39147   3.880  10.395   4.864  0.1433  0.2348  0.1396
 1009MOL0     C39148   3.973  10.320   4.963  0.1296  0.5831 -1.0006
 1009MOL0    Cl39149   3.897  10.225   5.095  0.0735 -0.4225  0.3762
 1009MOL0     C39150   4.178  10.307   4.049  0.5806 -0.3453  0.3680
 1009MOL0     C39151   4.184  10.252   3.921  0.2540  0.3904 -0.0361
 1009MOL0     O39152   3.971  10.295   3.598  0.4491  0.3027 -0.3213
 1009MOL0     C39153   4.253  10.120   3.473  0.7951 -0.1403 -0.2063
 1009MOL0     C39154   4.284  10.035   3.372 -1.0457  0.4021  1.4353
 1009MOL0     N39155   4.640   9.393   3.017  0.7129 -0.1918  0.6002
 1009MOL0     N39156   4.744   9.321   2.981 -0.7522  0.3159 -0.2617
 1009MOL0     C39157   4.822   9.270   1.892 -0.5558  0.2426 -0.1156
 1009MOL0     C39158   4.759   9.230   1.776 -0.2182  0.2488 -0.1782
 1009MOL0     C39159   4.590   9.207   1.406  0.1763 -0.3164 -0.4839
 1009MOL0     C39160   4.551   9.075   1.392 -0.2821  0.4983 -0.9331
 1009MOL0     C39161   4.432   9.048   1.325  0.1805  0.0657  0.7002
 1009MOL0     C39162   4.359   9.150   1.254 -0.1469  0.8597 -0.7389
 1009MOL0     O39163   4.246   9.099   1.188  0.1059 -0.7339  0.0776
 1009MOL0     C39164   4.217   9.156   1.057 -0.2606  0.0086  0.4288
 1009MOL0     C39165   4.243   9.049   0.943 -0.1731  0.1263  0.4157
 1009MOL0     C39166   4.223   9.107   0.803  0.6584 -0.1251  0.1590
 1009MOL0     C39167   4.227   9.004   0.681  0.2290  0.0375 -0.1377
 1009MOL0     C39168   4.123   8.902   0.681 -0.1273 -0.6341 -0.2144
 1009MOL0     C39169   4.035   8.829   0.663  0.8279 -1.0139  0.0616
 1009MOL0     C39170   4.396   9.283   1.271 -1.1576  0.5774  0.7195
 1009MOL0     C39171   4.510   9.310   1.348  0.2074  0.4415  0.8905
 1009MOL0     C39172   4.531   9.455   1.372  1.2558  0.2065  0.7029
 1009MOL0     H39173   5.010   9.081   1.608  0.8154  1.3410 -1.4801
 1009MOL0     H39174   5.141   9.192   1.790  0.1273 -0.4449 -3.5233
 1009MOL0     H39175   5.216   9.344   2.014 -2.5460  5.3144  1.0079
 1009MOL0     H39176   5.137   9.180   2.046  2.0511 -1.2134  0.9147
 1009MOL0     H39177   5.121   9.429   2.206 -0.6863 -0.2398  0.7145
 1009MOL0     H39178   5.008   9.288   2.217 -0.0638 -3.2939 -4.3073
 1009MOL0     H39179   5.169   9.127   2.300 -0.0652  0.2965  3.0747
 1009MOL0     H39180   5.309   9.239   2.254  0.1407  0.6658  2.7912
 1009MOL0     H39181   5.274   9.224   2.484  1.0770 -0.9361 -1.2820
 1009MOL0     H39182   5.245   9.392   2.423 -1.5312  0.5748 -1.1219
 1009MOL0     H39183   5.004   9.217   2.443 -1.5842 -0.3718  1.9064
 1009MOL0     H39184   5.023   9.385   2.488  0.3416  0.1687  4.4302
 1009MOL0     H39185   5.115   9.139   2.640  0.8468  0.6210 -1.6165
 1009MOL0     H39186   5.146   9.308   2.688  2.0293  1.7165 -2.2562
 1009MOL0     H39187   4.938   9.157   2.771  0.8903  1.0321  1.5576
 1009MOL0     H39188   4.849   9.232   2.635 -0.5480 -1.0799  1.3302
 1009MOL0     H39189   4.993   9.356   2.881  1.1874 -0.4159 -1.2092
 1009MOL0     H39190   4.934   9.442   2.736  0.4449  1.5357  2.3848
 1009MOL0     H39191   4.713   9.548   2.736  0.8646  0.1111  0.1454
 1009MOL0     H39192   4.412   9.530   2.947  0.9846 -2.5752 -1.9992
 1009MOL0     H39193   4.499   9.633   2.827 -0.8916  0.2690 -0.0793
 1009MOL0     H39194   4.494   9.630   3.131  2.4717 -1.6772 -0.4380
 1009MOL0     H39195   4.584   9.743   3.046 -0.3785 -0.9630  3.0816
 1009MOL0     H39196   4.365   9.838   2.934 -2.4707  1.2323  0.9834
 1009MOL0     H39197   4.270   9.723   3.035 -1.2186  2.2989 -0.5545
 1009MOL0     H39198   4.362   9.811   3.241  1.3852  0.5991  0.6794
 1009MOL0     H39199   4.444   9.931   3.139  1.2143 -1.2454  0.2370
 1009MOL0     H39200   3.995  10.052   3.189 -1.7114 -1.1106  1.9303
 1009MOL0     H39201   3.904  10.243   3.228 -0.0528 -0.1776 -0.1205
 1009MOL0     H39202   3.898  10.339   3.379 -1.1898 -1.7454  3.0300
 1009MOL0     H39203   3.832  10.175   3.386  0.9916  0.5753  2.8749
 1009MOL0     H39204   4.057  10.509   3.749  0.6985 -1.2129 -0.4524
 1009MOL0     H39205   4.041  10.610   3.971 -1.2503  0.0895 -3.6715
 1009MOL0     H39206   4.158  10.668   4.172 -1.1825  0.3725  0.0940
 1009MOL0     H39207   3.987  10.665   4.204 -2.4742 -1.5610  1.7692
 1009MOL0     H39208   4.199  10.641   4.419 -0.7784 -3.6819  3.7471
 1009MOL0     H39209   4.070  10.756   4.390  1.9422 -0.2058  0.7011
 1009MOL0     H39210   4.070  10.491   4.522  2.0146  3.1324  2.9127
 1009MOL0     H39211   3.926  10.508   4.419 -1.5173  2.7922  0.1981
 1009MOL0     H39212   3.847  10.701   4.536 -2.4897 -2.0682  0.0232
 1009MOL0     H39213   4.003  10.706   4.639  1.8344 -2.5936  1.4041
 1009MOL0     H39214   3.806  10.627   4.749 -0.9488 -1.6762  0.6316
 1009MOL0     H39215   3.814  10.486   4.641  2.0864 -1.5912 -0.1716
 1009MOL0     H39216   4.015  10.571   4.843 -0.2325 -0.0603 -0.6187
 1009MOL0     H39217   4.051  10.436   4.739 -1.6599 -3.0147  0.5322
 1009MOL0     H39218   3.828  10.312   4.813  2.6169 -0.3983 -1.5615
 1009MOL0     H39219   3.804  10.459   4.908 -0.4776  1.0098 -1.9475
 1009MOL0     H39220   4.046  10.391   5.002  2.4303 -1.3409 -1.5838
 1009MOL0     H39221   4.037  10.252   4.907  0.9143  0.9449 -0.5534
 1009MOL0     H39222   4.207  10.239   4.129  3.4182 -1.1551 -1.1928
 1009MOL0     H39223   4.236  10.159   3.901  1.7403  1.4202 -1.1576
 1009MOL0     H39224   4.319  10.131   3.558  1.6277  0.4175 -0.9020
 1009MOL0     H39225   4.389  10.007   3.369 -0.8178  1.2370 -1.6084
 1009MOL0     H39226   4.761   9.309   1.973  0.7413 -2.6277  2.5038
 1009MOL0     H39227   4.652   9.246   1.769 -0.4049  1.1727  3.2241
 1009MOL0     H39228   4.575   8.988   1.452 -1.8725 -0.5990 -1.8199
 1009MOL0     H39229   4.401   8.944   1.328 -0.0421  0.0791 -0.7567
 1009MOL0     H39230   4.113   9.187   1.061 -0.3990 -0.3473 -0.1722
 1009MOL0     H39231   4.280   9.244   1.045  1.2322 -0.8096  1.8771
 1009MOL0     H39232   4.186   8.958   0.963  0.2132 -0.7115 -1.9908
 1009MOL0     H39233   4.345   9.010   0.955  0.4169  0.5469 -2.4781
 1009MOL0     H39234   4.141   9.179   0.791  2.5203  1.7230 -2.3022
 1009MOL0     H39235   4.310   9.167   0.778  0.1334  1.1666  1.3234
 1009MOL0     H39236   4.326   8.957   0.675  0.6165  0.9119 -0.8568
 1009MOL0     H39237   4.215   9.054   0.585 -4.5411  1.1146  0.8030
 1009MOL0     H39238   3.949   8.771   0.638 -0.7801  0.5080  1.7558
 1009MOL0     H39239   4.342   9.362   1.220  1.9647  2.2310 -0.2818
 1009MOL0     H39240   4.441   9.510   1.344  2.1281  2.3877  1.9454
 1009MOL0     H39241   4.550   9.464   1.479  3.7795  3.2260  0.1283
 1009MOL0     H39242   4.610   9.502   1.313  1.2892  0.6806  1.1197
 1010MOL0     O39243   3.108   1.264   9.383  0.4442 -0.1329  0.4467
 1010MOL0     C39244   3.194   1.277   9.300 -0.4071  0.5115  0.4649
 1010MOL0     O39245   3.328   1.247   9.309  0.3386 -0.3484 -0.4940
 1010MOL0     C39246   3.368   1.164   9.412  0.8767 -0.1803  0.6430
 1010MOL0     C39247   3.339   1.182   9.545  0.3186  0.1789 -0.4198
 1010MOL0     C39248   3.396   1.106   9.638 -1.2515 -0.2699  0.8704
 1010MOL0     C39249   3.464   0.991   9.603 -0.1806  0.3302 -0.0871
 1010MOL0     O39250   3.527   0.904   9.695  0.3397 -0.0828 -0.6511
 1010MOL0     C39251   3.454   0.862   9.812  0.3848  0.5014 -0.3718
 1010MOL0     C39252   3.514   0.924   9.928  0.5818  1.2334 -0.7060
 1010MOL0     C39253   3.429   0.898  10.054  0.9895  0.0157 -0.4319
 1010MOL0     C39254   3.496   0.794  10.155 -0.2106 -0.5102  0.1522
 1010MOL0     C39255   3.416   0.760  10.271  0.6967 -0.1162 -0.5572
 1010MOL0     C39256   3.379   0.872  10.375 -0.7328 -0.8873 -0.4660
 1010MOL0     C39257   3.471   0.890  10.501  0.1724 -0.6373  1.2436
 1010MOL0     C39258   3.430   1.014  10.588  0.1799  0.1940 -0.1044
 1010MOL0     N39259   3.291   1.006  10.635 -0.3346  0.2067 -0.1865
 1010MOL0     C39260   3.173   1.063  10.574  0.2573 -0.0135 -0.1001
 1010MOL0     C39261   3.062   1.007  10.637  0.0876 -1.0538  0.5406
 1010MOL0     C39262   2.917   1.044  10.612  0.2613  0.3487 -0.0442
 1010MOL0     C39263   2.894   1.075  10.463  0.0917 -0.1595 -0.3467
 1010MOL0     C39264   2.737   1.092  10.429  0.2629 -0.8089  0.4761
 1010MOL0     C39265   2.682   1.221  10.488 -0.2263 -0.8638  0.3247
 1010MOL0     O39266   2.547   1.237  10.451 -0.2024 -0.2655  0.3756
 1010MOL0     C39267   2.470   1.333  10.510  0.7333 -0.0708  0.5991
 1010MOL0     C39268   2.326   1.311  10.524  0.3815 -0.6233  0.1525
 1010MOL0     C39269   2.237   1.395  10.593 -0.7356  0.3589  0.3885
 1010MOL0     C39270   2.097   1.345  10.586  0.1403 -0.4441  0.2959
 1010MOL0     C39271   2.289   1.503  10.665 -0.2293 -0.7344 -0.4671
 1010MOL0     C39272   2.214   1.581  10.772  0.3935  0.5247  0.0411
 1010MOL0     O39273   2.266   1.680  10.833  0.0960  0.6930 -0.6998
 1010MOL0     C39274   2.221   1.732  10.951 -0.1160  0.8158 -0.1897
 1010MOL0     C39275   2.271   1.851  10.976 -0.1299  0.0905  0.2034
 1010MOL0     C39276   2.264   1.922  11.101  1.0935  0.5807  0.2439
 1010MOL0     C39277   2.189   1.866  11.198 -0.0415 -0.8938  0.3315
 1010MOL0     O39278   2.168   1.932  11.323 -0.9086  0.2043  0.0942
 1010MOL0     C39279   2.231   2.064  11.339 -0.0928 -0.3259 -0.2336
 1010MOL0     C39280   2.228   2.093  11.491 -0.2205  0.7230  0.2334
 1010MOL0     C39281   2.337   2.006  11.568 -0.2496 -0.2155 -0.0614
 1010MOL0     C39282   2.325   2.039  11.714  0.0919 -0.2894 -0.6034
 1010MOL0     C39283   2.397   1.952  11.807  0.6806 -0.5250 -0.5083
 1010MOL0     C39284   2.390   2.011  11.953 -0.0565  0.2418  0.2442
 1010MOL0     C39285   2.477   1.932  12.061 -0.6835  0.1123  0.3380
 1010MOL0     C39286   2.408   1.797  12.094 -0.3359  0.5167 -0.4649
 1010MOL0    Cl39287   2.492   1.710  12.225  0.3677 -0.0295  0.0808
 1010MOL0     C39288   2.136   1.738  11.176  0.6892 -0.5652 -0.1898
 1010MOL0     C39289   2.147   1.686  11.054 -0.0156  1.0088  0.3595
 1010MOL0     O39290   2.116   1.526  10.812 -0.2279  1.4668  0.2547
 1010MOL0     C39291   2.421   1.542  10.633 -1.1944  0.6786 -0.0043
 1010MOL0     C39292   2.511   1.460  10.558 -0.9463 -0.1919  0.4217
 1010MOL0     N39293   3.114   0.926  10.723 -0.5487 -0.0580 -0.5465
 1010MOL0     N39294   3.242   0.925  10.737 -0.7323  0.1185 -0.3923
 1010MOL0     C39295   3.488   0.969   9.466  0.2252  0.4529  0.6165
 1010MOL0     C39296   3.439   1.052   9.372 -0.3804 -0.4103 -0.9962
 1010MOL0     C39297   3.143   1.312   9.163  0.4040  0.1325  0.1039
 1010MOL0     C39298   3.240   1.368   9.070  0.0126 -0.2277  0.0340
 1010MOL0     C39299   3.202   1.416   8.942  0.7564  0.1253  0.4413
 1010MOL0     C39300   3.066   1.411   8.902  0.5890  0.1203 -0.0639
 1010MOL0     O39301   3.045   1.466   8.775  0.8607 -1.0458 -0.2450
 1010MOL0     C39302   2.934   1.401   8.702 -0.5466  0.1440 -0.9704
 1010MOL0     C39303   2.939   1.412   8.558  1.3165  0.8083  0.0127
 1010MOL0     C39304   3.076   1.362   8.508  0.3039  0.2418 -0.1327
 1010MOL0     C39305   3.063   1.357   8.353  0.2853 -0.1736 -1.1776
 1010MOL0     C39306   3.185   1.288   8.298 -0.2141  0.0922 -0.3858
 1010MOL0     C39307   3.278   1.234   8.249  0.5231  0.7839  0.1207
 1010MOL0     C39308   2.966   1.365   8.993 -0.2627  0.9609 -0.2070
 1010MOL0     C39309   3.007   1.311   9.118 -0.2600 -0.4718  0.0900
 1010MOL0     C39310   2.906   1.248   9.206 -0.3084  0.0198 -0.0255
 1010MOL0     H39311   3.268   1.259   9.573  0.5187  0.9098 -1.7861
 1010MOL0     H39312   3.386   1.138   9.741 -2.0583  1.3995  0.2988
 1010MOL0     H39313   3.460   0.753   9.817 -0.5526  0.4741  1.0557
 1010MOL0     H39314   3.346   0.878   9.807  0.4615  1.3061  0.2380
 1010MOL0     H39315   3.614   0.881   9.941  0.0226 -0.1580 -0.8437
 1010MOL0     H39316   3.524   1.033   9.924 -1.3282  1.6458  2.2219
 1010MOL0     H39317   3.391   0.993  10.093  0.4959  0.0685 -1.0356
 1010MOL0     H39318   3.334   0.854  10.023  0.3195  1.2843 -0.2790
 1010MOL0     H39319   3.520   0.705  10.096 -3.1328 -0.2163 -1.6446
 1010MOL0     H39320   3.587   0.835  10.202 -1.2795 -0.8768  2.7201
 1010MOL0     H39321   3.470   0.685  10.329  0.4021 -1.2241 -1.6854
 1010MOL0     H39322   3.323   0.709  10.244  1.5725 -3.4662  2.0424
 1010MOL0     H39323   3.398   0.967  10.326 -1.5882  0.3089  1.4187
 1010MOL0     H39324   3.277   0.874  10.416 -1.0292  2.7902 -1.0387
 1010MOL0     H39325   3.579   0.896  10.487 -0.1455  1.5583 -1.1846
 1010MOL0     H39326   3.449   0.792  10.543  0.2003 -0.4770  1.6356
 1010MOL0     H39327   3.501   0.997  10.670  2.0727  3.2673 -0.9634
 1010MOL0     H39328   3.443   1.111  10.539 -0.6500  0.0479 -0.6365
 1010MOL0     H39329   3.163   1.136  10.494 -2.4095 -0.5404 -0.3388
 1010MOL0     H39330   2.889   1.136  10.664  1.2962  0.9264 -0.4885
 1010MOL0     H39331   2.857   0.959  10.644 -1.5974  1.3056 -0.7822
 1010MOL0     H39332   2.955   1.159  10.428  0.8869 -1.0472 -1.1468
 1010MOL0     H39333   2.923   0.990  10.400  4.6551  2.4317 -2.2570
 1010MOL0     H39334   2.720   1.103  10.321 -3.5113  0.5073  1.0572
 1010MOL0     H39335   2.680   1.010  10.472 -0.0850 -0.9119 -0.1685
 1010MOL0     H39336   2.696   1.207  10.596 -0.3539  2.9148  0.9743
 1010MOL0     H39337   2.733   1.316  10.469 -0.1937 -1.1431 -1.0415
 1010MOL0     H39338   2.282   1.221  10.484 -2.4873  0.0759  1.4225
 1010MOL0     H39339   2.068   1.278  10.667  0.2990 -2.4181 -1.1889
 1010MOL0     H39340   2.079   1.285  10.496 -0.3256  0.1973 -0.0518
 1010MOL0     H39341   2.026   1.428  10.578 -0.5066 -1.0965 -1.2558
 1010MOL0     H39342   2.341   1.897  10.907  2.0971  1.1260  2.9813
 1010MOL0     H39343   2.292   2.027  11.103 -1.6641  1.3925  1.9393
 1010MOL0     H39344   2.337   2.059  11.311  0.5009  2.9452  1.0494
 1010MOL0     H39345   2.175   2.140  11.285  1.1558  1.0065  0.2869
 1010MOL0     H39346   2.263   2.196  11.504 -1.0661  0.9196  1.0278
 1010MOL0     H39347   2.128   2.072  11.529  0.3702 -3.1147  0.0063
 1010MOL0     H39348   2.436   2.022  11.524  0.1377 -1.0721  0.4760
 1010MOL0     H39349   2.331   1.900  11.544 -3.0174 -0.2239  0.2846
 1010MOL0     H39350   2.222   2.045  11.752  0.3891  0.0512  0.1782
 1010MOL0     H39351   2.363   2.140  11.731 -1.3015  0.1906 -0.1781
 1010MOL0     H39352   2.346   1.856  11.805 -4.0357  1.6281  1.2524
 1010MOL0     H39353   2.503   1.948  11.778  0.6572  2.8168 -1.4330
 1010MOL0     H39354   2.283   2.002  11.978  0.1491 -1.4677  0.6289
 1010MOL0     H39355   2.426   2.114  11.955  0.7970 -0.0389  2.5027
 1010MOL0     H39356   2.480   1.997  12.149  1.3820 -0.1531  0.5170
 1010MOL0     H39357   2.578   1.918  12.021 -0.4298 -1.6335  1.4957
 1010MOL0     H39358   2.418   1.735  12.005 -1.8623 -0.2354 -0.1413
 1010MOL0     H39359   2.304   1.818  12.123  0.3261  0.3159  2.3034
 1010MOL0     H39360   2.067   1.704  11.253  0.7682 -1.2698 -0.4260
 1010MOL0     H39361   2.093   1.592  11.056 -1.2816  1.6938  3.2056
 1010MOL0     H39362   2.455   1.635  10.676  2.7145 -0.8341  0.6169
 1010MOL0     H39363   2.617   1.481  10.549 -1.0975  0.4649  0.1373
 1010MOL0     H39364   3.550   0.885   9.434 -0.1170  0.3098  0.3229
 1010MOL0     H39365   3.456   1.031   9.267  4.3224  0.0463 -0.5363
 1010MOL0     H39366   3.343   1.377   9.101 -0.4215 -3.2219  2.8643
 1010MOL0     H39367   3.288   1.451   8.886  1.3706 -3.4216 -1.1227
 1010MOL0     H39368   2.921   1.295   8.725 -3.3741  0.4566 -0.7880
 1010MOL0     H39369   2.842   1.447   8.740  1.1203  1.7783  1.3158
 1010MOL0     H39370   2.930   1.521   8.547 -1.2859  0.6158 -0.2978
 1010MOL0     H39371   2.859   1.358   8.509  2.0483  1.0510 -1.5085
 1010MOL0     H39372   3.158   1.428   8.536  2.3357 -3.2828  3.1317
 1010MOL0     H39373   3.101   1.264   8.548 -0.1549 -0.5834 -1.7550
 1010MOL0     H39374   3.055   1.456   8.307 -2.7826  0.5520  0.6413
 1010MOL0     H39375   2.973   1.306   8.318 -0.1564  1.0448 -1.8856
 1010MOL0     H39376   3.369   1.185   8.224  1.4946  2.0476  1.0168
 1010MOL0     H39377   2.862   1.378   8.963 -0.3084  1.5224  0.1693
 1010MOL0     H39378   2.822   1.222   9.142  0.0716 -2.1414  0.2833
 1010MOL0     H39379   2.949   1.154   9.242  1.5870  1.2405  1.1167
 1010MOL0     H39380   2.874   1.317   9.285 -1.2761  0.8322 -1.0938
 1011MOL0     O39381  10.743   2.888   2.539  0.1880  1.0825  0.1188
 1011MOL0     C39382  10.643   2.953   2.559  0.7294  0.2056 -0.4623
 1011MOL0     O39383  10.532   2.944   2.484  0.6748 -0.2156 -0.6666
 1011MOL0     C39384  10.520   2.832   2.411 -0.8430 -0.6606  0.4158
 1011MOL0     C39385  10.501   2.703   2.469 -0.0750  0.1934 -0.0165
 1011MOL0     C39386  10.476   2.599   2.376 -0.0648  0.2582  0.0099
 1011MOL0     C39387  10.445   2.619   2.242  0.7712  0.2144  0.8628
 1011MOL0     O39388  10.419   2.510   2.167  0.2953 -0.1404  0.6667
 1011MOL0     C39389  10.280   2.471   2.159 -0.1841  0.5808 -0.3103
 1011MOL0     C39390  10.166   2.553   2.098  0.9092 -1.0747 -0.3041
 1011MOL0     C39391  10.031   2.479   2.129  0.3430 -1.6585  0.5367
 1011MOL0     C39392   9.963   2.438   1.997 -0.2190 -0.4924  0.2938
 1011MOL0     C39393   9.823   2.379   2.022  0.7220 -0.2468  0.6765
 1011MOL0     C39394   9.712   2.446   1.941 -0.3851 -0.0307  0.8640
 1011MOL0     C39395   9.578   2.372   1.981 -0.2036 -0.2218  0.2900
 1011MOL0     C39396   9.465   2.416   1.884 -0.0963  0.2818 -0.4414
 1011MOL0     N39397   9.335   2.363   1.935 -0.2005  0.4602 -0.4862
 1011MOL0     C39398   9.287   2.374   2.064  0.2447  0.3522 -0.4907
 1011MOL0     C39399   9.177   2.292   2.068  0.1314 -0.2480  0.1159
 1011MOL0     C39400   9.099   2.262   2.190 -0.1833 -0.0168  0.0597
 1011MOL0     C39401   9.103   2.121   2.247  0.5208  0.8682 -0.0430
 1011MOL0     C39402   9.239   2.094   2.327  0.1334 -0.9111 -0.0691
 1011MOL0     C39403   9.340   2.056   2.235 -0.4022 -0.2692  0.5433
 1011MOL0     O39404   9.434   1.969   2.301 -0.4127 -0.2003  0.1880
 1011MOL0     C39405   9.553   1.947   2.234 -1.0597 -0.4295  0.1252
 1011MOL0     C39406   9.566   1.972   2.100  0.3244  0.0132  0.5310
 1011MOL0     C39407   9.691   1.983   2.041 -0.1197  0.6765  0.2060
 1011MOL0     C39408   9.689   2.004   1.891 -0.0958  0.0260  0.0292
 1011MOL0     C39409   9.812   1.957   2.118  0.3304  0.8638 -0.3546
 1011MOL0     C39410   9.948   1.946   2.076 -0.1187  0.3036 -0.7376
 1011MOL0     O39411  10.053   1.949   2.176  0.1555  0.4240  0.3019
 1011MOL0     C39412  10.178   1.951   2.129  0.0568  0.4247 -0.3217
 1011MOL0     C39413  10.246   1.843   2.071 -0.1985  0.3144  0.1845
 1011MOL0     C39414  10.387   1.851   2.045 -0.3336 -0.6506 -0.3274
 1011MOL0     C39415  10.441   1.980   2.047  0.1135 -0.6322 -1.0063
 1011MOL0     O39416  10.565   1.985   2.006  0.0760  0.4715  0.5546
 1011MOL0     C39417  10.647   2.106   2.004  0.0734 -0.1937  0.4794
 1011MOL0     C39418  10.795   2.089   1.945  0.4140 -0.1184  0.3484
 1011MOL0     C39419  10.881   2.008   2.043 -0.2348 -0.5128 -0.1766
 1011MOL0     C39420  11.035   2.029   2.019  0.2239 -0.1660  0.1080
 1011MOL0     C39421  11.111   2.149   2.071  0.5848  0.1780  0.5689
 1011MOL0     C39422  11.139   2.246   1.952 -0.0548  0.4833  0.8381
 1011MOL0     C39423  11.269   2.336   1.957  0.1143 -0.1217 -0.3922
 1011MOL0     C39424  11.285   2.425   2.083  0.5407  0.7047  0.2523
 1011MOL0    Cl39425  11.373   2.334   2.208 -0.0125 -0.2337 -0.1434
 1011MOL0     C39426  10.372   2.083   2.104 -0.3421 -0.9445 -0.3306
 1011MOL0     C39427  10.242   2.072   2.158  0.3079 -0.4309  0.0513
 1011MOL0     O39428   9.971   1.936   1.958 -0.0288  0.2346 -0.1216
 1011MOL0     C39429   9.797   1.949   2.257 -0.0449 -0.1582 -0.0185
 1011MOL0     C39430   9.671   1.944   2.313 -1.2397 -0.8037  0.6451
 1011MOL0     N39431   9.160   2.236   1.947 -0.6180  0.1067 -0.7547
 1011MOL0     N39432   9.258   2.273   1.874 -0.0575 -0.3749 -0.8183
 1011MOL0     C39433  10.445   2.751   2.192 -0.6191 -0.5244 -0.2314
 1011MOL0     C39434  10.485   2.852   2.276 -0.4505 -0.3908 -0.1615
 1011MOL0     C39435  10.633   3.033   2.688 -0.1074 -1.2394 -0.0111
 1011MOL0     C39436  10.597   3.166   2.666  0.0938 -0.7687  0.2073
 1011MOL0     C39437  10.580   3.260   2.776 -0.3511 -0.3757  0.2910
 1011MOL0     C39438  10.615   3.219   2.899 -0.5691 -1.0739  0.1162
 1011MOL0     O39439  10.611   3.294   3.016 -0.7122  0.6536  0.6721
 1011MOL0     C39440  10.569   3.436   3.019  0.0699 -0.1939 -0.1210
 1011MOL0     C39441  10.551   3.477   3.162 -0.8682  0.2346  0.1963
 1011MOL0     C39442  10.682   3.482   3.245  0.2308 -0.4102  0.2762
 1011MOL0     C39443  10.667   3.497   3.390 -1.2782 -0.0930  0.2117
 1011MOL0     C39444  10.595   3.627   3.423 -0.3029  0.1216 -0.1308
 1011MOL0     C39445  10.546   3.724   3.471 -0.6159 -0.8762 -0.9292
 1011MOL0     C39446  10.655   3.088   2.922  0.0524 -0.5550  0.6713
 1011MOL0     C39447  10.665   2.989   2.816  0.4261 -0.4740 -0.4837
 1011MOL0     C39448  10.705   2.842   2.839  0.0111  0.4662 -0.7765
 1011MOL0     H39449  10.516   2.675   2.573  0.2731  1.0844  0.1839
 1011MOL0     H39450  10.462   2.494   2.401 -5.2502  0.9697  1.4514
 1011MOL0     H39451  10.252   2.434   2.258 -4.5591  3.1112 -0.3499
 1011MOL0     H39452  10.283   2.385   2.091 -0.3583 -1.9710  2.6899
 1011MOL0     H39453  10.180   2.651   2.145  4.2755 -0.9811 -1.2164
 1011MOL0     H39454  10.188   2.562   1.991 -1.4743  1.4757 -0.6866
 1011MOL0     H39455  10.055   2.382   2.175  4.0175 -1.5490 -0.8402
 1011MOL0     H39456   9.972   2.536   2.201  0.9730  0.3118 -0.4483
 1011MOL0     H39457   9.961   2.521   1.926  0.1929  1.5872  2.6017
 1011MOL0     H39458  10.035   2.364   1.957  1.6199  1.0697  0.5773
 1011MOL0     H39459   9.790   2.407   2.123  5.2485  2.9750  1.5922
 1011MOL0     H39460   9.835   2.271   2.015 -0.3995 -0.5429  2.5846
 1011MOL0     H39461   9.709   2.555   1.955 -0.4410 -0.0529  1.0250
 1011MOL0     H39462   9.720   2.444   1.832 -2.6855 -1.9598  0.6495
 1011MOL0     H39463   9.550   2.410   2.079 -3.8011 -1.1041 -0.2431
 1011MOL0     H39464   9.593   2.264   1.975  2.1954  0.1389 -3.0688
 1011MOL0     H39465   9.454   2.524   1.883 -0.7161  0.3181  2.2861
 1011MOL0     H39466   9.486   2.390   1.780 -0.0048  0.8611 -0.5701
 1011MOL0     H39467   9.315   2.439   2.147 -0.7815 -1.6918  1.5891
 1011MOL0     H39468   8.990   2.269   2.181 -0.4746 -2.2520  1.0562
 1011MOL0     H39469   9.126   2.332   2.269 -1.1534  0.0212  0.3657
 1011MOL0     H39470   9.009   2.103   2.301 -0.5208  0.3707 -1.9298
 1011MOL0     H39471   9.089   2.047   2.167 -1.3640 -1.0892  1.9563
 1011MOL0     H39472   9.280   2.184   2.374  0.4700 -1.6921  1.1719
 1011MOL0     H39473   9.214   2.019   2.403  1.0871  0.7916  2.0295
 1011MOL0     H39474   9.289   2.005   2.153 -0.7842  0.7890  0.1092
 1011MOL0     H39475   9.384   2.142   2.184  0.0833 -1.6035 -1.3885
 1011MOL0     H39476   9.478   1.976   2.035  1.6542 -0.0003 -1.3580
 1011MOL0     H39477   9.742   2.091   1.850 -0.6860  1.2731  1.8193
 1011MOL0     H39478   9.592   2.020   1.842  1.0927 -0.3475 -2.6479
 1011MOL0     H39479   9.729   1.909   1.853  0.5889 -0.5576  2.0844
 1011MOL0     H39480  10.190   1.751   2.053 -3.3422  2.2279 -0.7591
 1011MOL0     H39481  10.448   1.765   2.019  1.9262  0.5119  0.8063
 1011MOL0     H39482  10.593   2.180   1.944  1.1984 -0.8474 -1.4500
 1011MOL0     H39483  10.651   2.137   2.109 -1.7838  1.0777  0.2152
 1011MOL0     H39484  10.787   2.040   1.848  1.5282  2.9527 -1.4458
 1011MOL0     H39485  10.832   2.190   1.928 -1.4089  1.1286  3.0028
 1011MOL0     H39486  10.850   1.903   2.033 -1.5087  0.0054 -2.3973
 1011MOL0     H39487  10.867   2.041   2.146 -2.9501 -1.1462 -0.2631
 1011MOL0     H39488  11.060   2.014   1.913 -0.1876  1.0540 -0.1757
 1011MOL0     H39489  11.085   1.951   2.077  1.1371 -0.3923 -0.9441
 1011MOL0     H39490  11.047   2.220   2.124 -1.0927  2.1132 -3.5741
 1011MOL0     H39491  11.198   2.124   2.133  1.3415  0.2823 -0.4270
 1011MOL0     H39492  11.051   2.309   1.939 -2.0012 -2.4532 -1.5554
 1011MOL0     H39493  11.154   2.187   1.861  1.5664  0.3029  1.1880
 1011MOL0     H39494  11.284   2.390   1.863  3.6803  0.0041  0.1053
 1011MOL0     H39495  11.356   2.270   1.955 -1.2838 -2.1350  1.0944
 1011MOL0     H39496  11.191   2.464   2.124  0.7594 -0.7376  2.2464
 1011MOL0     H39497  11.346   2.508   2.048  0.1020 -0.1746 -2.8722
 1011MOL0     H39498  10.414   2.183   2.114 -1.9041 -0.4505  2.3151
 1011MOL0     H39499  10.197   2.148   2.221 -2.3951 -3.7057  2.4312
 1011MOL0     H39500   9.877   1.951   2.330  0.3867 -0.0899 -0.4868
 1011MOL0     H39501   9.666   1.940   2.422  1.9013  3.5498  1.2396
 1011MOL0     H39502  10.431   2.749   2.084  2.9919 -2.1167 -0.8090
 1011MOL0     H39503  10.506   2.946   2.228  0.4971  1.0235  2.7594
 1011MOL0     H39504  10.567   3.197   2.567 -3.0737 -2.3668  0.5224
 1011MOL0     H39505  10.542   3.361   2.765 -1.2312 -0.3887  2.7403
 1011MOL0     H39506  10.637   3.505   2.969 -2.5511  0.8854 -2.4690
 1011MOL0     H39507  10.472   3.439   2.969  1.0439 -3.1189 -2.5655
 1011MOL0     H39508  10.486   3.399   3.203 -1.1502 -0.7167 -1.9388
 1011MOL0     H39509  10.513   3.580   3.157 -0.2014  0.4489 -1.1230
 1011MOL0     H39510  10.737   3.389   3.225 -0.9516 -0.9004 -0.8840
 1011MOL0     H39511  10.754   3.556   3.209 -0.1244 -1.1211 -2.0816
 1011MOL0     H39512  10.768   3.482   3.429 -1.2249 -1.3106 -0.3575
 1011MOL0     H39513  10.601   3.418   3.428  2.4090 -3.3482  0.3810
 1011MOL0     H39514  10.511   3.812   3.521 -2.0128 -0.0481 -3.2387
 1011MOL0     H39515  10.682   3.055   3.022  1.9624  0.1183  0.4215
 1011MOL0     H39516  10.704   2.820   2.946  2.3629 -1.9856 -1.1622
 1011MOL0     H39517  10.649   2.762   2.789  0.2540  1.2906 -2.4497
 1011MOL0     H39518  10.808   2.846   2.804 -0.2159  1.0416 -1.4161
 1012MOL0     O39519   8.393   2.995  10.707  0.9797 -0.0673 -0.4998
 1012MOL0     C39520   8.478   3.073  10.747 -0.2495 -0.1157  0.0358
 1012MOL0     O39521   8.490   3.202  10.701 -0.2727  0.1358 -0.0608
 1012MOL0     C39522   8.415   3.239  10.595 -0.1798  0.0448 -0.4579
 1012MOL0     C39523   8.481   3.267  10.475 -0.6205  0.8942  0.0155
 1012MOL0     C39524   8.423   3.319  10.366 -0.3823  0.3869  0.5803
 1012MOL0     C39525   8.287   3.340  10.372  1.0073  0.3309  0.2246
 1012MOL0     O39526   8.224   3.403  10.259  0.1027 -0.0705 -0.3882
 1012MOL0     C39527   8.132   3.319  10.196 -0.6578  0.7642  1.4121
 1012MOL0     C39528   8.068   3.404  10.080  0.0001  0.5765  0.1339
 1012MOL0     C39529   8.023   3.542  10.131 -0.1448  0.3558  0.5573
 1012MOL0     C39530   7.965   3.623  10.018 -0.0711  0.2062 -0.2329
 1012MOL0     C39531   7.934   3.771  10.055 -0.7000 -0.1887 -0.7667
 1012MOL0     C39532   7.841   3.779  10.172 -0.4549  0.0910 -0.1065
 1012MOL0     C39533   7.805   3.922  10.184  0.2313 -0.3804  0.2957
 1012MOL0     C39534   7.702   3.934  10.297  0.6898 -0.0718 -0.2084
 1012MOL0     N39535   7.630   4.071  10.294 -0.1388  0.3852  0.0290
 1012MOL0     C39536   7.683   4.194  10.336 -0.3933 -0.3345 -0.2796
 1012MOL0     C39537   7.589   4.284  10.301  0.3648  0.3498 -0.5246
 1012MOL0     C39538   7.602   4.432  10.319 -0.1387 -0.2466  0.6497
 1012MOL0     C39539   7.669   4.499  10.198 -0.3033 -0.1752  0.1730
 1012MOL0     C39540   7.725   4.643  10.219  0.4872 -0.1630 -0.4374
 1012MOL0     C39541   7.817   4.673  10.107 -0.6868 -0.6356  0.6268
 1012MOL0     O39542   7.735   4.674   9.986 -0.5712 -0.6371 -0.1706
 1012MOL0     C39543   7.806   4.698   9.876 -0.9585 -0.4008 -0.1272
 1012MOL0     C39544   7.780   4.819   9.821 -0.3649 -1.3456 -0.5031
 1012MOL0     C39545   7.842   4.858   9.701 -0.4211  0.2561  0.6778
 1012MOL0     C39546   7.783   4.984   9.642  0.1820  0.3446 -0.5692
 1012MOL0     C39547   7.924   4.771   9.633 -0.4711  0.4109  0.1827
 1012MOL0     C39548   7.982   4.796   9.501 -1.2590  0.5520 -0.8090
 1012MOL0     O39549   8.019   4.689   9.427 -0.4231  0.1991 -0.2930
 1012MOL0     C39550   8.061   4.717   9.291  1.1408 -0.2986 -0.0830
 1012MOL0     C39551   7.956   4.701   9.197  0.4289  0.0768  0.1184
 1012MOL0     C39552   7.982   4.739   9.067  0.3520  0.6687 -0.3630
 1012MOL0     C39553   8.099   4.799   9.026  0.0530  1.1367  0.5840
 1012MOL0     O39554   8.119   4.835   8.889  0.2204 -1.0995  0.5141
 1012MOL0     C39555   8.014   4.876   8.799  0.2938 -0.2033  0.2493
 1012MOL0     C39556   8.067   4.886   8.662  0.2013  0.2471  0.4341
 1012MOL0     C39557   8.094   4.747   8.601 -0.3789 -0.7890  0.4497
 1012MOL0     C39558   8.198   4.764   8.485  0.5203 -0.4512  0.4208
 1012MOL0     C39559   8.331   4.830   8.514 -0.5077  0.7276 -0.0176
 1012MOL0     C39560   8.395   4.775   8.644  1.0073  0.6287 -0.8372
 1012MOL0     C39561   8.544   4.826   8.664 -0.0177 -0.9096 -1.2145
 1012MOL0     C39562   8.616   4.745   8.765 -0.5113 -0.2341  0.5675
 1012MOL0    Cl39563   8.570   4.780   8.933  0.3959 -0.3037 -0.4141
 1012MOL0     C39564   8.207   4.798   9.113  0.6860  0.2455 -0.0157
 1012MOL0     C39565   8.187   4.764   9.247  0.1538 -0.4159  1.2551
 1012MOL0     O39566   7.985   4.908   9.461 -0.4064  0.9036 -0.0463
 1012MOL0     C39567   7.956   4.650   9.693  0.4112  0.8127 -0.8166
 1012MOL0     C39568   7.892   4.610   9.820 -0.1249  0.1886 -0.2122
 1012MOL0     N39569   7.481   4.211  10.240 -0.4098 -0.2277 -0.2829
 1012MOL0     N39570   7.510   4.084  10.233  0.0868  0.6983 -0.2075
 1012MOL0     C39571   8.212   3.323  10.493  0.5960 -0.0138  0.0633
 1012MOL0     C39572   8.280   3.266  10.602  0.1173 -0.7195 -0.4096
 1012MOL0     C39573   8.555   3.038  10.875 -0.6096 -0.1000 -0.8147
 1012MOL0     C39574   8.508   2.931  10.953  0.6758 -0.4297 -0.8730
 1012MOL0     C39575   8.581   2.871  11.059 -0.3868  0.1885 -0.4635
 1012MOL0     C39576   8.699   2.936  11.097  0.4542 -0.3885 -1.1376
 1012MOL0     O39577   8.751   2.892  11.213 -0.3098  0.0105 -0.1041
 1012MOL0     C39578   8.804   2.998  11.300 -0.9074  0.2679  0.8342
 1012MOL0     C39579   8.787   2.959  11.452  0.2699 -0.5493  0.1724
 1012MOL0     C39580   8.831   2.816  11.485  0.2198  0.5891  0.6169
 1012MOL0     C39581   8.976   2.795  11.489  0.1650  0.4085 -0.3810
 1012MOL0     C39582   9.029   2.718  11.599  1.5363  1.2946 -0.9500
 1012MOL0     C39583   9.050   2.633  11.684 -0.2974 -0.2071  0.4087
 1012MOL0     C39584   8.746   3.047  11.027 -0.0369 -0.2509  0.8989
 1012MOL0     C39585   8.674   3.100  10.917 -0.4035 -0.9170 -0.1127
 1012MOL0     C39586   8.750   3.212  10.847 -0.9425  0.6418  0.1472
 1012MOL0     H39587   8.586   3.241  10.462 -0.4341  1.6656 -0.0603
 1012MOL0     H39588   8.477   3.332  10.273  2.5379  2.5995  2.3951
 1012MOL0     H39589   8.051   3.296  10.266 -1.8390  1.2028  0.2291
 1012MOL0     H39590   8.160   3.227  10.144  0.5162  0.7048  2.1142
 1012MOL0     H39591   8.141   3.399   9.998  2.6333  0.7777  2.3456
 1012MOL0     H39592   7.980   3.355  10.038  2.2578 -1.8307 -2.1782
 1012MOL0     H39593   7.961   3.525  10.220  0.2294 -2.5981  0.3257
 1012MOL0     H39594   8.109   3.597  10.170 -1.8322  1.9313  2.2671
 1012MOL0     H39595   8.047   3.621   9.945  1.1169 -0.8409  1.0813
 1012MOL0     H39596   7.890   3.565   9.963  2.2527 -0.5232 -2.9333
 1012MOL0     H39597   7.889   3.826   9.972 -1.2065  1.2893  0.4362
 1012MOL0     H39598   8.030   3.820  10.071 -0.3026 -0.9092 -0.9132
 1012MOL0     H39599   7.747   3.734  10.138 -0.1856  0.0781 -0.8664
 1012MOL0     H39600   7.876   3.732  10.263 -1.3809  0.6730  0.5775
 1012MOL0     H39601   7.779   3.960  10.085  2.0559 -2.9086 -1.3057
 1012MOL0     H39602   7.897   3.976  10.207 -1.6830  3.1062  0.4698
 1012MOL0     H39603   7.630   3.854  10.275  3.0038 -1.8599 -1.9251
 1012MOL0     H39604   7.753   3.921  10.392 -0.0056  0.7292  0.2780
 1012MOL0     H39605   7.769   4.227  10.393 -0.8048  0.4192 -0.0747
 1012MOL0     H39606   7.655   4.444  10.414  0.7784 -3.3732  0.6476
 1012MOL0     H39607   7.501   4.475  10.325 -0.4911 -0.4253 -2.5615
 1012MOL0     H39608   7.753   4.441  10.161  0.3247  1.4100 -0.9425
 1012MOL0     H39609   7.591   4.500  10.121  0.9315  1.0984 -1.0946
 1012MOL0     H39610   7.637   4.708  10.221  0.3783 -0.2547  2.0639
 1012MOL0     H39611   7.778   4.655  10.314  0.0088  2.3472 -0.4344
 1012MOL0     H39612   7.855   4.774  10.125 -0.2919 -0.4827 -0.9288
 1012MOL0     H39613   7.907   4.612  10.093  0.5118  1.2501 -0.3336
 1012MOL0     H39614   7.714   4.888   9.871  0.8821  0.3483 -1.1035
 1012MOL0     H39615   7.730   5.054   9.708 -0.7855  2.0361 -2.9822
 1012MOL0     H39616   7.719   4.972   9.554  0.8219 -0.7667 -0.8964
 1012MOL0     H39617   7.868   5.047   9.614  0.0008  1.0652  0.4559
 1012MOL0     H39618   7.862   4.652   9.220 -0.6234  1.4580 -1.0464
 1012MOL0     H39619   7.899   4.708   9.004  1.0752 -0.3037 -0.8615
 1012MOL0     H39620   7.933   4.803   8.807 -0.5273  0.7329  0.6789
 1012MOL0     H39621   7.981   4.976   8.829 -1.1273  0.4207 -2.9823
 1012MOL0     H39622   8.006   4.944   8.593 -1.3816 -1.7047  0.0746
 1012MOL0     H39623   8.163   4.936   8.672  1.6472 -2.3183  0.2935
 1012MOL0     H39624   8.003   4.702   8.559 -0.7329 -1.4103  1.8219
 1012MOL0     H39625   8.138   4.679   8.674  1.5623  0.1661  0.2366
 1012MOL0     H39626   8.151   4.813   8.399 -0.9866  0.1741  1.5529
 1012MOL0     H39627   8.214   4.664   8.444 -1.1120 -0.1675 -1.0567
 1012MOL0     H39628   8.396   4.803   8.431 -0.7987 -1.5746  0.4333
 1012MOL0     H39629   8.326   4.939   8.526 -2.9230  0.5617  0.9930
 1012MOL0     H39630   8.393   4.665   8.641  1.9061  0.3140  3.3441
 1012MOL0     H39631   8.335   4.811   8.728  1.3518 -0.8818  0.1078
 1012MOL0     H39632   8.544   4.931   8.692 -0.0756 -0.7537 -1.7950
 1012MOL0     H39633   8.598   4.819   8.569  0.9336  1.2161 -0.8719
 1012MOL0     H39634   8.721   4.771   8.749 -1.1934  1.9411 -0.7917
 1012MOL0     H39635   8.600   4.638   8.747  0.0716 -0.0327 -1.4389
 1012MOL0     H39636   8.297   4.833   9.064  0.7411  2.5571  1.5835
 1012MOL0     H39637   8.274   4.745   9.308  1.5507 -2.0120 -1.0861
 1012MOL0     H39638   8.026   4.582   9.647 -0.9461 -1.7382  0.6122
 1012MOL0     H39639   7.921   4.523   9.879  0.9133  0.8764  0.3131
 1012MOL0     H39640   8.104   3.338  10.487  0.6670  1.9244  2.2786
 1012MOL0     H39641   8.233   3.245  10.698 -1.0843 -1.5591 -1.1626
 1012MOL0     H39642   8.413   2.892  10.919  0.4640 -0.8654  0.1684
 1012MOL0     H39643   8.533   2.799  11.125  1.8422 -0.9595 -0.0043
 1012MOL0     H39644   8.911   2.999  11.276 -1.1723 -0.2495 -0.4983
 1012MOL0     H39645   8.758   3.095  11.281  1.6544  1.3820 -0.2209
 1012MOL0     H39646   8.692   2.973  11.503  1.0634 -2.6876  2.4380
 1012MOL0     H39647   8.851   3.033  11.500  0.6440 -1.4471  1.0812
 1012MOL0     H39648   8.777   2.803  11.580 -2.4506 -0.9124 -1.0071
 1012MOL0     H39649   8.784   2.748  11.414  0.3272  1.7039 -0.5547
 1012MOL0     H39650   9.036   2.886  11.488  2.4250 -0.9510 -2.5616
 1012MOL0     H39651   9.004   2.745  11.395  0.3333 -2.5240  1.0994
 1012MOL0     H39652   9.049   2.566  11.767 -0.5266 -1.5857 -0.6808
 1012MOL0     H39653   8.832   3.102  11.065 -1.2312  0.7594  2.2823
 1012MOL0     H39654   8.701   3.303  10.884 -0.8001  0.5889  0.4722
 1012MOL0     H39655   8.857   3.210  10.868 -0.1571  0.4969 -3.3690
 1012MOL0     H39656   8.757   3.206  10.738 -1.9308  0.8167  0.0614
 1013MOL0     O39657   5.149   1.439   3.801  0.2670 -0.4073 -0.9296
 1013MOL0     C39658   5.155   1.492   3.910 -0.3720 -0.0591  0.6877
 1013MOL0     O39659   5.240   1.579   3.949  0.4277 -0.9071  0.2624
 1013MOL0     C39660   5.339   1.639   3.877  0.2483 -0.3012  0.4697
 1013MOL0     C39661   5.417   1.581   3.778 -0.0261  0.4984 -0.2697
 1013MOL0     C39662   5.522   1.658   3.720  0.3715  0.8435  1.9375
 1013MOL0     C39663   5.560   1.789   3.762  0.2922  0.2347  0.5520
 1013MOL0     O39664   5.671   1.849   3.703  0.2940  0.2165  0.1001
 1013MOL0     C39665   5.779   1.854   3.794 -0.3832  0.2066  0.3216
 1013MOL0     C39666   5.906   1.933   3.748 -0.3600  0.9015 -1.4374
 1013MOL0     C39667   5.993   1.829   3.659 -0.6119 -1.1960  0.8072
 1013MOL0     C39668   5.920   1.812   3.517  0.2397  0.0126 -0.6282
 1013MOL0     C39669   5.987   1.704   3.434  1.2891 -0.3381  0.1125
 1013MOL0     C39670   6.113   1.743   3.359 -0.6861 -0.0428  0.3198
 1013MOL0     C39671   6.165   1.644   3.261  0.1353 -0.1477 -0.1938
 1013MOL0     C39672   6.112   1.662   3.123 -0.4662 -0.0979 -0.3857
 1013MOL0     N39673   6.152   1.564   3.029 -1.3406  0.0028  0.2286
 1013MOL0     C39674   6.072   1.458   2.997 -0.4048  0.7514  0.2264
 1013MOL0     C39675   6.139   1.385   2.908  0.3901  0.2388 -0.4146
 1013MOL0     C39676   6.116   1.240   2.876 -0.2128 -0.3036 -0.1841
 1013MOL0     C39677   6.035   1.222   2.751  1.3057  0.1695 -0.4176
 1013MOL0     C39678   6.021   1.074   2.711 -0.3708 -0.3292  0.0670
 1013MOL0     C39679   5.949   1.071   2.573 -0.5310  0.1057  0.8701
 1013MOL0     O39680   5.928   0.931   2.529  0.5377 -0.3585  0.2797
 1013MOL0     C39681   5.857   0.913   2.410  0.4876 -0.2907 -0.1403
 1013MOL0     C39682   5.896   0.814   2.332  0.1751  0.4888  0.8195
 1013MOL0     C39683   5.842   0.783   2.205  0.1165 -1.6606  0.6661
 1013MOL0     C39684   5.893   0.656   2.142  0.6316  0.3018  0.7370
 1013MOL0     C39685   5.743   0.872   2.157  0.0312 -0.8305  0.7145
 1013MOL0     C39686   5.698   0.864   2.013 -0.7036  0.0478 -1.1427
 1013MOL0     O39687   5.598   0.946   1.975 -0.0889 -0.6308 -1.0452
 1013MOL0     C39688   5.562   0.940   1.844  0.4803  0.1416  0.0354
 1013MOL0     C39689   5.499   0.830   1.789 -0.2438  0.3300 -0.1861
 1013MOL0     C39690   5.472   0.825   1.654 -0.5151 -0.2347  0.5981
 1013MOL0     C39691   5.501   0.937   1.570 -1.7344  0.8187  0.8047
 1013MOL0     O39692   5.468   0.954   1.441  0.3141  0.1509 -0.8191
 1013MOL0     C39693   5.404   0.846   1.374 -0.6642  1.2204 -0.5956
 1013MOL0     C39694   5.494   0.735   1.314 -0.3792 -0.4166  0.5130
 1013MOL0     C39695   5.619   0.802   1.259 -0.7841  0.0780  0.1539
 1013MOL0     C39696   5.727   0.717   1.196 -1.5662  0.0689 -0.8215
 1013MOL0     C39697   5.854   0.803   1.181 -0.4180 -0.3884 -0.8463
 1013MOL0     C39698   5.973   0.744   1.101  0.1423  0.1980  0.2144
 1013MOL0     C39699   5.939   0.675   0.966  0.0414 -0.3638 -0.1249
 1013MOL0     C39700   6.064   0.613   0.897  0.0366 -0.4453 -0.1673
 1013MOL0    Cl39701   6.185   0.747   0.877  0.2486  0.2080  0.0406
 1013MOL0     C39702   5.561   1.048   1.636  0.3977 -0.5162  0.7931
 1013MOL0     C39703   5.586   1.051   1.773 -0.7932 -0.8288  0.6497
 1013MOL0     O39704   5.758   0.788   1.939  0.3095 -0.6095  0.4901
 1013MOL0     C39705   5.694   0.981   2.232  0.3888 -0.0780 -0.9459
 1013MOL0     C39706   5.754   1.002   2.362 -0.5480  0.2807  0.4298
 1013MOL0     N39707   6.263   1.438   2.895  0.6772 -0.3826  0.5063
 1013MOL0     N39708   6.270   1.538   2.970 -0.2406 -0.3707 -0.3085
 1013MOL0     C39709   5.479   1.846   3.859  0.0053  0.1824  0.6191
 1013MOL0     C39710   5.366   1.773   3.917 -0.9051 -0.4829 -0.2901
 1013MOL0     C39711   5.043   1.468   4.002  0.2955  0.0415 -0.1642
 1013MOL0     C39712   5.019   1.570   4.107  0.4418  1.0673  0.2525
 1013MOL0     C39713   4.898   1.565   4.186  0.0031 -0.0805  0.7270
 1013MOL0     C39714   4.810   1.457   4.169  0.1849 -0.3993 -0.4105
 1013MOL0     O39715   4.688   1.467   4.238 -0.0439 -0.1020 -0.6623
 1013MOL0     C39716   4.583   1.436   4.149 -0.0057 -0.2248  0.4221
 1013MOL0     C39717   4.525   1.307   4.193  0.0398  0.5913  0.0124
 1013MOL0     C39718   4.409   1.267   4.105 -0.2731 -0.4385 -0.3707
 1013MOL0     C39719   4.335   1.165   4.182  0.1620  0.1279  0.3558
 1013MOL0     C39720   4.389   1.028   4.169  0.9630  0.3815  0.0076
 1013MOL0     C39721   4.434   0.923   4.138 -0.4797 -0.8778 -0.6861
 1013MOL0     C39722   4.843   1.345   4.087  0.8654 -0.9526  0.6205
 1013MOL0     C39723   4.942   1.359   3.994  0.4501 -0.1745  0.2182
 1013MOL0     C39724   4.949   1.260   3.879  0.2813  0.9237 -0.5929
 1013MOL0     H39725   5.395   1.482   3.741 -1.1243 -0.3312  2.3847
 1013MOL0     H39726   5.584   1.622   3.639  1.0183  2.6266  1.5937
 1013MOL0     H39727   5.795   1.753   3.834 -2.4238 -0.5307 -0.5556
 1013MOL0     H39728   5.750   1.915   3.880 -1.4779  0.3569 -0.1364
 1013MOL0     H39729   5.896   2.016   3.677  0.0421  1.0279 -1.3497
 1013MOL0     H39730   5.957   1.972   3.836  1.0723 -2.9996 -0.3199
 1013MOL0     H39731   6.093   1.871   3.647 -0.2907 -2.3285 -0.8219
 1013MOL0     H39732   5.999   1.730   3.705 -1.3047 -1.6367 -0.0200
 1013MOL0     H39733   5.816   1.783   3.533 -0.3696  2.9171  1.3806
 1013MOL0     H39734   5.911   1.902   3.456  1.2106 -0.8958 -2.2065
 1013MOL0     H39735   5.909   1.683   3.360  1.3077  2.8056 -0.9396
 1013MOL0     H39736   6.001   1.615   3.496 -1.8579 -0.7589  0.3858
 1013MOL0     H39737   6.082   1.831   3.300  1.4598  1.5339  1.3960
 1013MOL0     H39738   6.187   1.768   3.435 -1.4317 -0.6507  1.2697
 1013MOL0     H39739   6.118   1.552   3.298  1.8744 -0.1617  2.2168
 1013MOL0     H39740   6.272   1.637   3.281 -0.1765  2.3727  3.1085
 1013MOL0     H39741   6.004   1.674   3.111 -0.2749  1.9136 -0.4469
 1013MOL0     H39742   6.156   1.754   3.084 -1.0616  0.5287  0.3806
 1013MOL0     H39743   5.972   1.445   3.039 -1.0655 -1.8493 -1.8701
 1013MOL0     H39744   6.056   1.190   2.952 -0.7385 -1.3694 -1.2523
 1013MOL0     H39745   6.206   1.179   2.865  0.7475  0.7328  1.4638
 1013MOL0     H39746   5.936   1.268   2.750 -0.1685 -2.8092  0.4102
 1013MOL0     H39747   6.097   1.282   2.683  1.1304 -0.0383 -0.7623
 1013MOL0     H39748   6.123   1.036   2.695 -0.7192 -0.3204 -2.6968
 1013MOL0     H39749   5.964   1.014   2.782  1.0532 -0.1925  1.3658
 1013MOL0     H39750   5.858   1.131   2.581  0.6156  1.9658  0.4483
 1013MOL0     H39751   6.013   1.122   2.501 -2.5669  3.1343  1.0422
 1013MOL0     H39752   5.974   0.743   2.360  2.7879  1.7021 -2.6206
 1013MOL0     H39753   5.954   0.595   2.209 -0.0897 -0.9390  0.3202
 1013MOL0     H39754   5.954   0.675   2.053 -1.6064 -0.8108 -1.1418
 1013MOL0     H39755   5.803   0.604   2.107  0.4836  0.8606  0.2803
 1013MOL0     H39756   5.505   0.740   1.849  1.9159 -1.5306 -2.9099
 1013MOL0     H39757   5.437   0.729   1.617  0.7764 -0.9896  1.2691
 1013MOL0     H39758   5.327   0.799   1.437 -1.2964  2.4197 -0.4447
 1013MOL0     H39759   5.340   0.900   1.303 -0.8415 -0.7200 -1.9855
 1013MOL0     H39760   5.515   0.660   1.392  4.9722  0.6813  0.4948
 1013MOL0     H39761   5.440   0.694   1.228 -2.6669  1.1940  1.0770
 1013MOL0     H39762   5.664   0.864   1.336 -0.9636  0.2008  0.1608
 1013MOL0     H39763   5.591   0.871   1.179  1.7598  1.3708  0.2791
 1013MOL0     H39764   5.683   0.673   1.106 -3.6232 -1.0474  0.6638
 1013MOL0     H39765   5.756   0.638   1.265  0.1038  1.0308 -0.3510
 1013MOL0     H39766   5.828   0.894   1.126  3.7764  2.5098  1.3803
 1013MOL0     H39767   5.892   0.841   1.276 -2.1157 -0.0879 -0.2615
 1013MOL0     H39768   6.021   0.665   1.161 -0.8832 -0.8553 -0.3265
 1013MOL0     H39769   6.041   0.829   1.092  1.9572 -0.9473  2.0013
 1013MOL0     H39770   5.898   0.759   0.910  2.4891  2.9631  2.5451
 1013MOL0     H39771   5.877   0.586   0.975  4.1149 -3.5420 -0.4774
 1013MOL0     H39772   6.032   0.585   0.796 -0.4219 -0.4144 -0.0306
 1013MOL0     H39773   6.110   0.527   0.944  1.7619  0.7303  0.4075
 1013MOL0     H39774   5.573   1.126   1.561  0.2506  0.6212  1.9217
 1013MOL0     H39775   5.630   1.135   1.825  1.8203 -1.1386 -0.9264
 1013MOL0     H39776   5.617   1.048   2.195 -0.6579 -0.1467  0.9798
 1013MOL0     H39777   5.712   1.081   2.423  2.4947  1.1243  1.5965
 1013MOL0     H39778   5.501   1.951   3.877  1.7477  0.0969 -0.7085
 1013MOL0     H39779   5.302   1.828   3.986  0.3668  0.3045  0.3086
 1013MOL0     H39780   5.091   1.651   4.118  1.8394 -0.0980  0.0649
 1013MOL0     H39781   4.872   1.650   4.248  1.6561  1.1799 -0.2277
 1013MOL0     H39782   4.507   1.515   4.158  1.5131  1.9505 -3.4684
 1013MOL0     H39783   4.612   1.435   4.044  2.3740  1.4507  0.9816
 1013MOL0     H39784   4.500   1.309   4.299  0.0205 -0.0744  0.0288
 1013MOL0     H39785   4.604   1.231   4.186  0.1651  0.8526 -2.1528
 1013MOL0     H39786   4.340   1.350   4.089  0.0324  0.3111  1.9286
 1013MOL0     H39787   4.441   1.237   4.004 -0.0744 -2.6627  0.3029
 1013MOL0     H39788   4.231   1.164   4.149  0.2621 -1.1165  0.0183
 1013MOL0     H39789   4.327   1.186   4.288 -1.4005 -2.3545  0.8214
 1013MOL0     H39790   4.482   0.831   4.115 -0.1009 -1.3440  1.6661
 1013MOL0     H39791   4.783   1.255   4.083  0.0112 -0.4645 -4.8319
 1013MOL0     H39792   4.936   1.317   3.786 -1.5348  0.7798 -0.4704
 1013MOL0     H39793   5.049   1.215   3.876  1.1663  2.8045 -0.5611
 1013MOL0     H39794   4.866   1.189   3.873  0.6750  0.5473 -2.1859
 1014MOL0     O39795  10.533   5.638   6.281  0.0569  0.1092 -0.8760
 1014MOL0     C39796  10.479   5.638   6.392  1.0935 -0.5707  0.1690
 1014MOL0     O39797  10.499   5.548   6.489 -0.6781 -0.0771  0.1942
 1014MOL0     C39798  10.622   5.483   6.479 -0.1490 -0.3000  0.0720
 1014MOL0     C39799  10.755   5.541   6.450 -0.4783 -0.8318  1.0080
 1014MOL0     C39800  10.880   5.479   6.435  0.6305  0.6936 -0.5400
 1014MOL0     C39801  10.872   5.337   6.453 -0.6004 -0.1404 -0.6640
 1014MOL0     O39802  10.980   5.254   6.452 -0.2543 -0.5720  0.4826
 1014MOL0     C39803  11.110   5.292   6.403  0.4693 -0.1961  0.1484
 1014MOL0     C39804  11.215   5.184   6.416 -0.5052  1.0461  0.2336
 1014MOL0     C39805  11.230   5.142   6.563 -0.6243  0.4203  0.0100
 1014MOL0     C39806  11.202   4.993   6.589 -0.5593  0.1362  0.5970
 1014MOL0     C39807  11.185   4.981   6.743 -0.0613  0.3019  0.3601
 1014MOL0     C39808  11.170   4.830   6.780  0.2527  0.0255 -0.6140
 1014MOL0     C39809  11.249   4.809   6.917  0.4378  0.2133  0.1999
 1014MOL0     C39810  11.174   4.861   7.038 -0.7026  0.0903  0.1330
 1014MOL0     N39811  11.032   4.807   7.052  0.5225 -0.8730  1.1473
 1014MOL0     C39812  10.995   4.689   7.111  0.7819 -1.4099 -0.0489
 1014MOL0     C39813  10.859   4.673   7.091 -0.4813 -0.4570 -0.0159
 1014MOL0     C39814  10.784   4.544   7.116 -0.4012  0.6502  0.0986
 1014MOL0     C39815  10.831   4.438   7.016 -0.7658 -0.2824 -0.1809
 1014MOL0     C39816  10.825   4.454   6.864 -0.3050  0.9666  0.2168
 1014MOL0     C39817  10.695   4.395   6.803  0.4913  0.0743 -0.1965
 1014MOL0     O39818  10.578   4.455   6.846  0.8158  0.5231 -1.0319
 1014MOL0     C39819  10.463   4.435   6.773 -0.4889  0.8183 -0.4325
 1014MOL0     C39820  10.431   4.305   6.709  0.5172 -0.9208  1.0650
 1014MOL0     C39821  10.305   4.291   6.656  0.1624  0.0553 -0.4560
 1014MOL0     C39822  10.284   4.171   6.581 -0.2779  0.1999  0.6560
 1014MOL0     C39823  10.200   4.392   6.686  0.2520  0.5913  0.4733
 1014MOL0     C39824  10.056   4.368   6.660 -0.1821  0.0863  0.0392
 1014MOL0     O39825   9.978   4.411   6.766  0.0847 -0.1698 -0.1927
 1014MOL0     C39826   9.840   4.412   6.773 -0.3660 -0.6238  0.8776
 1014MOL0     C39827   9.753   4.325   6.707 -0.3432 -0.9340  0.4295
 1014MOL0     C39828   9.627   4.314   6.735  0.2750 -0.5106  0.2623
 1014MOL0     C39829   9.566   4.392   6.836 -0.3003 -0.0458  0.9314
 1014MOL0     O39830   9.439   4.380   6.870 -0.4595  0.2789 -0.7657
 1014MOL0     C39831   9.378   4.249   6.867  0.0678 -0.6889 -0.7959
 1014MOL0     C39832   9.256   4.252   6.771  0.2455  0.6312 -0.2291
 1014MOL0     C39833   9.157   4.351   6.812 -0.5952 -0.0929  0.4751
 1014MOL0     C39834   9.041   4.339   6.714 -0.0847 -0.1683  0.6852
 1014MOL0     C39835   8.939   4.452   6.733 -0.6632  0.4538 -0.7317
 1014MOL0     C39836   8.986   4.591   6.763 -0.4029  0.3250  0.1891
 1014MOL0     C39837   9.085   4.654   6.650 -0.0142  0.8968 -0.8462
 1014MOL0     C39838   9.046   4.776   6.575  0.5153  0.8633 -0.6643
 1014MOL0    Cl39839   9.081   4.939   6.662 -0.1468  0.3585  0.2113
 1014MOL0     C39840   9.655   4.474   6.905 -0.2496  0.5293  0.5877
 1014MOL0     C39841   9.788   4.485   6.866 -0.7631 -0.1240  0.1536
 1014MOL0     O39842  10.014   4.297   6.569  0.2511  0.6568 -0.1088
 1014MOL0     C39843  10.239   4.509   6.754  0.8093  0.4537 -0.7109
 1014MOL0     C39844  10.371   4.532   6.797  0.6909  0.0776 -0.3005
 1014MOL0     N39845  10.805   4.798   7.046  0.3503  0.4146  0.1002
 1014MOL0     N39846  10.913   4.868   7.019 -1.5856 -0.7983  0.1187
 1014MOL0     C39847  10.750   5.273   6.486  0.1430  1.1162  0.5596
 1014MOL0     C39848  10.629   5.342   6.487 -0.7321 -0.2485 -0.1528
 1014MOL0     C39849  10.364   5.731   6.411  0.2334 -1.0646 -0.3537
 1014MOL0     C39850  10.255   5.679   6.466 -0.1690 -0.5013 -0.2033
 1014MOL0     C39851  10.144   5.753   6.505  0.2932  0.0016  1.1275
 1014MOL0     C39852  10.154   5.890   6.516  0.0687 -0.2755  0.2593
 1014MOL0     O39853  10.046   5.960   6.572 -0.5164 -0.5238 -0.0959
 1014MOL0     C39854  10.053   6.103   6.598  0.9392  0.8741 -0.3462
 1014MOL0     C39855   9.920   6.142   6.660  0.7280  0.5849  0.4643
 1014MOL0     C39856   9.907   6.294   6.698 -0.5129  0.3190  0.1038
 1014MOL0     C39857   9.962   6.332   6.835  0.4991 -0.3151 -0.3659
 1014MOL0     C39858   9.863   6.296   6.937 -0.3620 -0.0780 -0.1843
 1014MOL0     C39859   9.790   6.278   7.024  0.0159  0.4117  0.1571
 1014MOL0     C39860  10.260   5.950   6.448 -0.2524 -0.8899 -0.5381
 1014MOL0     C39861  10.366   5.873   6.387 -0.4353  0.2541 -0.3254
 1014MOL0     C39862  10.490   5.943   6.339  0.4243  0.2734 -0.4554
 1014MOL0     H39863  10.767   5.644   6.420  1.6726 -2.1295 -3.5887
 1014MOL0     H39864  10.973   5.531   6.412  1.3612 -0.7628 -1.0367
 1014MOL0     H39865  11.136   5.381   6.461 -0.0332 -0.4295  0.7497
 1014MOL0     H39866  11.097   5.320   6.298  2.8176 -1.4578 -0.5409
 1014MOL0     H39867  11.171   5.099   6.363 -2.4222  0.3414  2.7944
 1014MOL0     H39868  11.313   5.216   6.378  0.3418  1.5686  2.7022
 1014MOL0     H39869  11.335   5.156   6.593  0.1262 -1.6110 -1.4490
 1014MOL0     H39870  11.171   5.194   6.639 -0.5785  1.9361 -0.9558
 1014MOL0     H39871  11.111   4.970   6.532  1.2454 -1.1108 -1.9824
 1014MOL0     H39872  11.281   4.930   6.548 -1.6674 -0.4715 -0.7009
 1014MOL0     H39873  11.089   5.025   6.770  0.2513  3.3057 -2.7038
 1014MOL0     H39874  11.268   5.023   6.800 -0.2693  0.8062  0.2929
 1014MOL0     H39875  11.065   4.800   6.774 -0.1861  1.4999 -0.7345
 1014MOL0     H39876  11.231   4.770   6.712  2.7288  1.3651  0.2920
 1014MOL0     H39877  11.354   4.837   6.907  1.3030 -2.0714  2.0352
 1014MOL0     H39878  11.266   4.702   6.930  1.8708  0.6095  1.9180
 1014MOL0     H39879  11.227   4.858   7.133 -1.6676  2.3588  0.8152
 1014MOL0     H39880  11.161   4.968   7.017  5.1595  1.0625 -0.0178
 1014MOL0     H39881  11.059   4.612   7.152 -1.1419 -4.7154 -2.7810
 1014MOL0     H39882  10.676   4.559   7.118 -0.0831  3.2235  1.7476
 1014MOL0     H39883  10.821   4.505   7.211 -4.6458 -1.2663  1.2156
 1014MOL0     H39884  10.937   4.421   7.039  0.2593  1.1954 -3.2851
 1014MOL0     H39885  10.770   4.356   7.055 -0.2140 -2.2183 -3.0683
 1014MOL0     H39886  10.840   4.556   6.828 -1.5982  0.3044 -2.4686
 1014MOL0     H39887  10.905   4.397   6.815 -3.5875 -0.6373 -3.8940
 1014MOL0     H39888  10.712   4.404   6.695 -0.6851  0.6648 -0.3581
 1014MOL0     H39889  10.696   4.288   6.824  2.3849 -0.3349 -2.0437
 1014MOL0     H39890  10.511   4.234   6.691  2.1231  1.0894 -0.2477
 1014MOL0     H39891  10.203   4.107   6.618 -1.0336 -0.3053 -1.6803
 1014MOL0     H39892  10.373   4.108   6.571 -2.0668 -2.1928 -1.4820
 1014MOL0     H39893  10.254   4.191   6.477 -1.0645  2.0470  1.2007
 1014MOL0     H39894   9.792   4.240   6.652  3.0408 -1.8618  3.8248
 1014MOL0     H39895   9.572   4.243   6.674 -1.2005 -0.0643  1.0323
 1014MOL0     H39896   9.445   4.167   6.841  1.6690 -0.1160  1.2044
 1014MOL0     H39897   9.350   4.228   6.971  2.0586  1.1747  0.1856
 1014MOL0     H39898   9.289   4.291   6.674 -0.6912  2.3927  0.1215
 1014MOL0     H39899   9.210   4.155   6.751 -0.7038  0.4035  2.6750
 1014MOL0     H39900   9.211   4.446   6.802 -1.7401  0.5153 -0.0087
 1014MOL0     H39901   9.128   4.337   6.916  0.9153 -0.0562  0.9358
 1014MOL0     H39902   8.996   4.240   6.710  0.4090 -0.3833  0.3924
 1014MOL0     H39903   9.081   4.353   6.613 -0.3086 -0.9588  0.4793
 1014MOL0     H39904   8.862   4.458   6.656 -1.6678 -1.5188  0.0134
 1014MOL0     H39905   8.893   4.426   6.829  0.9593 -1.3645 -0.3733
 1014MOL0     H39906   9.027   4.588   6.864 -0.7202  1.5654  0.3623
 1014MOL0     H39907   8.895   4.649   6.776 -1.7212 -1.8768  1.3934
 1014MOL0     H39908   9.118   4.576   6.581 -1.9703  0.4791 -1.3975
 1014MOL0     H39909   9.166   4.685   6.716 -1.2424 -1.1868  1.8672
 1014MOL0     H39910   8.940   4.770   6.547  0.9197 -0.4400 -2.0111
 1014MOL0     H39911   9.111   4.796   6.490  4.5231  0.4238  2.0319
 1014MOL0     H39912   9.617   4.542   6.981  0.8229  0.3299  1.3130
 1014MOL0     H39913   9.852   4.555   6.918 -2.2218 -0.1046  2.0385
 1014MOL0     H39914  10.160   4.576   6.785 -2.0913 -2.1141 -2.0592
 1014MOL0     H39915  10.393   4.622   6.855  0.7992  0.4630 -0.9380
 1014MOL0     H39916  10.752   5.170   6.520 -2.0658  1.3799  1.6436
 1014MOL0     H39917  10.536   5.293   6.513 -1.5787  1.0229 -0.6729
 1014MOL0     H39918  10.245   5.571   6.462 -0.4466 -0.4682 -0.4249
 1014MOL0     H39919  10.062   5.697   6.548 -0.3305 -0.6737 -0.8482
 1014MOL0     H39920  10.143   6.132   6.653  3.4562  0.0117 -3.6843
 1014MOL0     H39921  10.069   6.148   6.499  3.2038  0.1168 -0.4026
 1014MOL0     H39922   9.891   6.072   6.739  1.6976 -1.1617 -0.6627
 1014MOL0     H39923   9.838   6.134   6.587 -1.4144  2.1298  2.5598
 1014MOL0     H39924   9.949   6.355   6.619 -0.7424 -0.3399 -0.5431
 1014MOL0     H39925   9.802   6.323   6.688 -0.1297  1.1617 -1.8499
 1014MOL0     H39926   9.988   6.438   6.837  0.5958 -0.3173 -1.1245
 1014MOL0     H39927  10.056   6.284   6.864  0.6649  0.4345  0.3763
 1014MOL0     H39928   9.716   6.261   7.100 -1.4034 -0.8204 -1.4315
 1014MOL0     H39929  10.268   6.058   6.462  0.1684 -1.0321  0.3931
 1014MOL0     H39930  10.578   5.912   6.396  0.9237  3.7739  0.8916
 1014MOL0     H39931  10.504   5.934   6.231 -0.5204  0.1435 -0.5777
 1014MOL0     H39932  10.475   6.047   6.368  1.5090  0.3054  0.0453
 1015MOL0     O39933  11.031  10.452   4.724 -0.7866 -0.8474 -0.0666
 1015MOL0     C39934  10.981  10.347   4.735  0.7817 -0.1448  0.2394
 1015MOL0     O39935  10.854  10.322   4.678 -0.1933 -0.0654 -0.4777
 1015MOL0     C39936  10.796  10.200   4.679  0.3200 -0.1187  0.2519
 1015MOL0     C39937  10.843  10.089   4.609  0.0410  0.2740  0.3014
 1015MOL0     C39938  10.773   9.969   4.602 -0.2790  0.3243  0.5232
 1015MOL0     C39939  10.649   9.956   4.656 -0.1946  0.0101  0.5589
 1015MOL0     O39940  10.575   9.843   4.655  0.6160  0.6314  0.3381
 1015MOL0     C39941  10.519   9.825   4.520  0.2640 -0.5186 -0.1326
 1015MOL0     C39942  10.577   9.711   4.445 -0.2033 -0.4087  0.2590
 1015MOL0     C39943  10.496   9.669   4.315  0.1974 -0.3023 -0.7512
 1015MOL0     C39944  10.548   9.562   4.220 -0.1267 -0.2585  1.1891
 1015MOL0     C39945  10.436   9.542   4.111 -0.0384  0.1948 -0.7665
 1015MOL0     C39946  10.406   9.654   4.016  0.0231 -0.2714  0.1792
 1015MOL0     C39947  10.334   9.616   3.883  0.7623  0.6841 -0.1314
 1015MOL0     C39948  10.359   9.706   3.772 -0.0099  0.8065  0.2459
 1015MOL0     N39949  10.475   9.680   3.686  0.4970 -0.1293 -0.0330
 1015MOL0     C39950  10.458   9.651   3.552 -0.4332 -0.8814  0.9143
 1015MOL0     C39951  10.581   9.666   3.509 -0.3779  0.7871 -0.1755
 1015MOL0     C39952  10.629   9.639   3.372  0.0407  0.6133 -0.6728
 1015MOL0     C39953  10.516   9.620   3.267  0.8821 -0.2439  0.4922
 1015MOL0     C39954  10.575   9.577   3.139  0.0897  0.0298  0.4936
 1015MOL0     C39955  10.470   9.602   3.019 -0.9994  0.4344  0.4324
 1015MOL0     O39956  10.520   9.530   2.903  0.1278 -0.0989 -0.9881
 1015MOL0     C39957  10.484   9.579   2.778 -0.3710  0.0161  0.9870
 1015MOL0     C39958  10.557   9.549   2.656 -0.8889  0.0002 -0.0401
 1015MOL0     C39959  10.527   9.611   2.541 -0.5057 -0.5542 -0.0212
 1015MOL0     C39960  10.612   9.580   2.421 -0.3776 -0.5016  0.5015
 1015MOL0     C39961  10.420   9.702   2.540  0.2601 -0.1217 -0.0715
 1015MOL0     C39962  10.385   9.792   2.433 -0.8320  0.4013  2.2701
 1015MOL0     O39963  10.346   9.736   2.322  0.6735  0.4021  0.2366
 1015MOL0     C39964  10.250   9.799   2.246 -0.5889 -0.6963  0.2360
 1015MOL0     C39965  10.303   9.885   2.144  0.6370  0.0532  0.1694
 1015MOL0     C39966  10.217   9.963   2.064  0.0660  0.5354 -0.5571
 1015MOL0     C39967  10.085   9.962   2.087  0.9548  0.4179 -0.1493
 1015MOL0     O39968   9.982  10.009   2.010 -0.0058  0.5858 -0.2297
 1015MOL0     C39969  10.023  10.042   1.883  0.4326 -0.0859  0.3405
 1015MOL0     C39970   9.894  10.055   1.790  0.2193  0.7891 -0.0985
 1015MOL0     C39971   9.791   9.943   1.799  0.4817  0.6507  0.1008
 1015MOL0     C39972   9.843   9.799   1.816 -1.2153 -0.1867  0.2264
 1015MOL0     C39973   9.753   9.692   1.755  0.9705  0.1463  0.3037
 1015MOL0     C39974   9.615   9.677   1.820  0.1765  0.0457  0.2159
 1015MOL0     C39975   9.607   9.626   1.970 -0.4600 -0.5303  0.3523
 1015MOL0     C39976   9.499   9.676   2.061  0.1178  0.7828 -0.1566
 1015MOL0    Cl39977   9.332   9.622   1.997  0.2232 -0.5818  0.2781
 1015MOL0     C39978  10.033   9.886   2.188 -0.0670 -0.0928 -0.5787
 1015MOL0     C39979  10.115   9.808   2.273  1.0581  0.0563  0.1069
 1015MOL0     O39980  10.392   9.913   2.456  0.1137  0.0153 -0.2774
 1015MOL0     C39981  10.344   9.722   2.652 -0.4921 -1.1533 -1.1740
 1015MOL0     C39982  10.373   9.655   2.771  0.0978 -0.5671  0.2992
 1015MOL0     N39983  10.669   9.701   3.613 -0.3188 -0.2586 -0.7174
 1015MOL0     N39984  10.605   9.703   3.722 -0.0109  0.3711 -0.3337
 1015MOL0     C39985  10.606  10.060   4.739 -0.4155 -0.7755 -0.1451
 1015MOL0     C39986  10.671  10.190   4.741 -0.1844  0.6532 -0.5436
 1015MOL0     C39987  11.072  10.244   4.801 -0.6783  0.8434  0.7086
 1015MOL0     C39988  11.177  10.181   4.725  0.3890 -0.7894  0.2664
 1015MOL0     C39989  11.269  10.104   4.792  0.0405 -0.0326  0.4392
 1015MOL0     C39990  11.261  10.090   4.934  0.1520 -0.9244 -1.1233
 1015MOL0     O39991  11.348  10.007   5.001 -0.0428 -0.8766  0.1992
 1015MOL0     C39992  11.300   9.869   5.015  0.4601 -0.5258  0.1812
 1015MOL0     C39993  11.371   9.806   5.132 -0.1519  0.4817 -0.5919
 1015MOL0     C39994  11.525   9.828   5.134  0.1301  0.3364  0.0775
 1015MOL0     C39995  11.594   9.718   5.216 -0.3248 -1.1013  0.2289
 1015MOL0     C39996  11.733   9.749   5.245 -0.4981 -0.4617 -0.1932
 1015MOL0     C39997  11.853   9.772   5.264  0.2114  0.0751 -0.6274
 1015MOL0     C39998  11.148  10.139   5.004  1.0034  0.4220 -0.2417
 1015MOL0     C39999  11.064  10.228   4.935  1.3304  0.3901 -0.7716
 1015MOL0     C40000  10.969  10.303   5.022  0.0499  0.4995  0.1127
 1015MOL0     H40001  10.937  10.102   4.556  1.0468 -4.1012  0.5526
 1015MOL0     H40002  10.822   9.888   4.549  0.7697  0.4853  1.2096
 1015MOL0     H40003  10.528   9.916   4.460  0.5062 -1.1842 -1.1324
 1015MOL0     H40004  10.413   9.803   4.537  0.9395 -1.7767  3.2881
 1015MOL0     H40005  10.679   9.744   4.421  0.2591  0.0321  2.5490
 1015MOL0     H40006  10.573   9.621   4.507 -3.1350 -0.4058  0.1687
 1015MOL0     H40007  10.399   9.653   4.363 -0.9364  3.2764 -1.5162
 1015MOL0     H40008  10.491   9.758   4.251  4.0993  0.6266  0.0060
 1015MOL0     H40009  10.631   9.608   4.165 -2.8778  1.8655 -1.4705
 1015MOL0     H40010  10.566   9.464   4.267  1.9631 -1.8420 -2.4467
 1015MOL0     H40011  10.340   9.510   4.151  1.0959 -3.8694 -0.8039
 1015MOL0     H40012  10.464   9.452   4.055 -2.0235  0.1366 -1.7687
 1015MOL0     H40013  10.352   9.733   4.069  1.2687  0.0362  1.0350
 1015MOL0     H40014  10.503   9.696   3.988  1.5016 -0.2388  4.5266
 1015MOL0     H40015  10.227   9.628   3.907  1.3392  0.8959  2.7626
 1015MOL0     H40016  10.350   9.515   3.846  1.1874 -0.0092  1.8265
 1015MOL0     H40017  10.266   9.707   3.714  0.0800 -3.0728 -0.2313
 1015MOL0     H40018  10.383   9.796   3.830  3.5003 -1.4024  2.6179
 1015MOL0     H40019  10.367   9.626   3.497 -0.8372  3.7757 -0.9681
 1015MOL0     H40020  10.705   9.560   3.376  2.3024  2.6983  0.7512
 1015MOL0     H40021  10.693   9.722   3.337 -0.4078 -0.4942 -4.6014
 1015MOL0     H40022  10.452   9.537   3.298 -0.9015 -0.2500 -2.6971
 1015MOL0     H40023  10.444   9.701   3.250 -0.8000 -2.2372 -2.7701
 1015MOL0     H40024  10.675   9.616   3.120  1.5686 -3.2356  0.8797
 1015MOL0     H40025  10.587   9.469   3.158 -1.7201 -0.7870 -2.3260
 1015MOL0     H40026  10.367   9.575   3.044  0.1940 -4.1382  1.2741
 1015MOL0     H40027  10.461   9.708   2.995 -0.0271 -0.0600 -2.3722
 1015MOL0     H40028  10.643   9.485   2.670 -3.6803 -4.0595  0.2963
 1015MOL0     H40029  10.549   9.591   2.333 -1.1345 -0.2106  1.0697
 1015MOL0     H40030  10.643   9.476   2.412  0.8121 -0.1371  0.1041
 1015MOL0     H40031  10.693   9.654   2.415  0.4248 -1.2704  1.4833
 1015MOL0     H40032  10.410   9.897   2.131  0.2446  0.2396 -4.8862
 1015MOL0     H40033  10.267  10.039   2.004  2.6220  0.8190  1.6932
 1015MOL0     H40034  10.079  10.135   1.898 -2.7120  1.6907  2.0412
 1015MOL0     H40035  10.090   9.967   1.840  2.6317  1.3510  1.0848
 1015MOL0     H40036   9.841  10.149   1.806 -1.9920 -0.5821  1.2402
 1015MOL0     H40037   9.936  10.053   1.689  0.3113 -3.3153 -0.1563
 1015MOL0     H40038   9.732   9.940   1.706  3.8746 -0.9775 -2.2062
 1015MOL0     H40039   9.724   9.973   1.880 -3.3689  4.0938 -3.8440
 1015MOL0     H40040   9.879   9.777   1.918 -1.9904  2.6096  1.1795
 1015MOL0     H40041   9.936   9.796   1.759 -2.2673  4.3338 -2.1714
 1015MOL0     H40042   9.734   9.712   1.649  1.9946  1.2121  0.3009
 1015MOL0     H40043   9.799   9.593   1.771 -1.7157 -0.8447  2.6055
 1015MOL0     H40044   9.559   9.608   1.756  3.2133 -1.7157 -0.7842
 1015MOL0     H40045   9.565   9.774   1.821  0.9830  0.4742  1.1255
 1015MOL0     H40046   9.698   9.660   2.019 -1.4632  1.9388  0.6242
 1015MOL0     H40047   9.622   9.518   1.978  1.3007 -0.8081 -3.9847
 1015MOL0     H40048   9.501   9.786   2.066 -2.2681  0.8409  2.0600
 1015MOL0     H40049   9.512   9.644   2.165 -0.4241  1.2788  0.0735
 1015MOL0     H40050   9.925   9.892   2.186 -0.1342 -1.2495 -1.4168
 1015MOL0     H40051  10.067   9.749   2.350 -0.0783  0.7634 -0.0485
 1015MOL0     H40052  10.249   9.775   2.657 -0.0472 -0.4316  0.1476
 1015MOL0     H40053  10.295   9.670   2.845  0.6337  0.7240  0.6319
 1015MOL0     H40054  10.509  10.048   4.787 -1.5624 -3.5098 -2.8219
 1015MOL0     H40055  10.620  10.280   4.775 -1.4777 -0.8628  1.8694
 1015MOL0     H40056  11.190  10.191   4.618  0.1484 -1.2391  0.1954
 1015MOL0     H40057  11.348  10.057   4.734  1.2103  0.5252  1.5254
 1015MOL0     H40058  11.193   9.857   5.035  0.6397 -0.4637  1.2136
 1015MOL0     H40059  11.334   9.815   4.926  0.2042 -0.6772  0.1725
 1015MOL0     H40060  11.358   9.698   5.119 -1.5386  0.4587  0.7312
 1015MOL0     H40061  11.334   9.849   5.225  4.2335  0.9050  1.1698
 1015MOL0     H40062  11.564   9.811   5.034 -3.6231  1.9320 -1.8697
 1015MOL0     H40063  11.562   9.925   5.168 -0.7932  0.9879 -0.7358
 1015MOL0     H40064  11.589   9.629   5.152 -1.4398  0.4064 -1.8969
 1015MOL0     H40065  11.541   9.699   5.310 -1.4423  0.7588  0.0311
 1015MOL0     H40066  11.954   9.804   5.283  0.6088 -1.0090 -0.8404
 1015MOL0     H40067  11.136  10.103   5.106  0.4046  3.2157  0.7565
 1015MOL0     H40068  10.867  10.303   4.982 -0.8982 -0.8166  2.4025
 1015MOL0     H40069  10.949  10.247   5.113 -2.4958  0.5735 -0.3358
 1015MOL0     H40070  11.007  10.404   5.043 -2.3423  0.5944  5.2894
 1016MOL0     O40071  11.077   7.774   9.054 -0.7213 -0.1009 -0.0987
 1016MOL0     C40072  10.986   7.849   9.090  0.3147 -0.2966  0.1299
 1016MOL0     O40073  10.945   7.865   9.222 -0.1120  0.1780  0.5738
 1016MOL0     C40074  10.949   7.768   9.318 -0.8128  0.3655  0.1009
 1016MOL0     C40075  10.942   7.629   9.282  0.2143 -0.5333  0.2599
 1016MOL0     C40076  10.949   7.532   9.386 -0.2800  0.0786  0.4946
 1016MOL0     C40077  10.978   7.566   9.512 -0.0202  0.1595  0.1600
 1016MOL0     O40078  10.978   7.470   9.621 -0.2907 -1.0272  0.5821
 1016MOL0     C40079  10.991   7.340   9.586  0.6852 -0.4506 -0.3927
 1016MOL0     C40080  11.134   7.304   9.615  0.6300 -1.3519 -0.0423
 1016MOL0     C40081  11.191   7.313   9.762  1.0376  0.6790  0.5779
 1016MOL0     C40082  11.096   7.242   9.869 -0.3625  0.2442  0.1249
 1016MOL0     C40083  11.179   7.190  10.000 -0.1616 -0.8175  0.6327
 1016MOL0     C40084  11.246   7.309  10.079  0.1902  0.5408 -0.3664
 1016MOL0     C40085  11.157   7.424  10.110 -0.6463 -0.2432 -0.4059
 1016MOL0     C40086  11.228   7.535  10.196  0.3129  0.5704 -1.6486
 1016MOL0     N40087  11.350   7.591  10.141 -0.6641 -0.4379 -0.2950
 1016MOL0     C40088  11.483   7.572  10.165  0.6684 -0.5944 -0.5043
 1016MOL0     C40089  11.535   7.621  10.053  0.4126 -0.7701 -0.1003
 1016MOL0     C40090  11.680   7.626  10.026 -0.1526 -0.3889 -0.8657
 1016MOL0     C40091  11.695   7.523   9.913  0.9302  0.1149 -0.0452
 1016MOL0     C40092  11.690   7.380   9.979 -0.0322 -0.1598  0.4322
 1016MOL0     C40093  11.713   7.273   9.867 -0.2651  0.1787 -1.0104
 1016MOL0     O40094  11.633   7.298   9.744  0.7522 -0.6765 -0.1929
 1016MOL0     C40095  11.639   7.190   9.648  0.8798  0.2870 -0.2987
 1016MOL0     C40096  11.564   7.214   9.531  0.1100 -0.1747 -0.2491
 1016MOL0     C40097  11.562   7.123   9.421  0.3967 -0.4307 -0.3658
 1016MOL0     C40098  11.514   7.174   9.290  0.4632 -0.2140 -0.6562
 1016MOL0     C40099  11.619   6.993   9.448 -0.6529 -0.3640 -0.2768
 1016MOL0     C40100  11.618   6.891   9.341 -0.4511  0.2308  0.9400
 1016MOL0     O40101  11.733   6.818   9.319 -0.1060  0.0703 -0.1315
 1016MOL0     C40102  11.718   6.718   9.228  0.1024  0.5782  0.3620
 1016MOL0     C40103  11.743   6.742   9.087 -0.1597  0.4223  0.1258
 1016MOL0     C40104  11.704   6.641   8.998  0.6557 -0.5031  0.0478
 1016MOL0     C40105  11.647   6.517   9.037  0.2328  0.0439  0.7320
 1016MOL0     O40106  11.622   6.425   8.945 -0.3640 -0.2628  0.9510
 1016MOL0     C40107  11.522   6.329   8.957  0.3096  0.0333 -0.1650
 1016MOL0     C40108  11.383   6.381   8.898 -0.0358 -0.2134 -0.0850
 1016MOL0     C40109  11.378   6.360   8.750  0.3367  0.3954  0.2966
 1016MOL0     C40110  11.303   6.476   8.688  0.0438  0.5772 -0.4516
 1016MOL0     C40111  11.266   6.451   8.538  1.4481  0.4309  0.2201
 1016MOL0     C40112  11.396   6.464   8.461  0.5827 -1.2734  0.0998
 1016MOL0     C40113  11.371   6.411   8.323  0.4283 -0.4411 -0.4460
 1016MOL0     C40114  11.459   6.473   8.217 -0.2553  0.3404 -0.0831
 1016MOL0    Cl40115  11.427   6.649   8.190 -0.1915  0.4281 -0.6299
 1016MOL0     C40116  11.640   6.492   9.172 -0.2194 -0.4224  0.0939
 1016MOL0     C40117  11.671   6.590   9.267 -0.8203  0.9267 -0.5028
 1016MOL0     O40118  11.514   6.885   9.273 -0.1047  1.2833  0.2153
 1016MOL0     C40119  11.675   6.964   9.570 -0.6290  0.6176 -1.0457
 1016MOL0     C40120  11.690   7.057   9.671  0.5705  0.1909 -0.4612
 1016MOL0     N40121  11.444   7.669   9.962  0.4703 -0.4817 -0.1064
 1016MOL0     N40122  11.333   7.635  10.010 -0.3747 -0.3837  0.3010
 1016MOL0     C40123  11.004   7.694   9.542  0.0682  0.2390  0.0484
 1016MOL0     C40124  10.988   7.798   9.447 -0.8509  0.2331 -0.7586
 1016MOL0     C40125  10.917   7.934   8.991 -0.6124  0.3010 -0.6071
 1016MOL0     C40126  10.821   8.022   9.043 -0.5039  0.5099 -0.6448
 1016MOL0     C40127  10.744   8.089   8.952  0.0266 -0.5557 -0.7083
 1016MOL0     C40128  10.738   8.066   8.813 -0.3749  0.0964 -0.7114
 1016MOL0     O40129  10.648   8.136   8.734  0.3471  0.0147 -0.0694
 1016MOL0     C40130  10.686   8.170   8.596  0.0883  0.9206 -0.0685
 1016MOL0     C40131  10.668   8.309   8.550  0.0797 -0.5590  0.9522
 1016MOL0     C40132  10.704   8.420   8.649 -0.7684  0.0757 -0.4531
 1016MOL0     C40133  10.638   8.553   8.609  0.0432 -0.0440 -1.1073
 1016MOL0     C40134  10.497   8.552   8.649  0.3411  0.3329  0.9947
 1016MOL0     C40135  10.373   8.553   8.643 -0.8787  0.2594 -0.5078
 1016MOL0     C40136  10.829   7.975   8.770 -0.5951 -1.1622  1.0868
 1016MOL0     C40137  10.925   7.912   8.851 -0.2392  0.0475  0.1804
 1016MOL0     C40138  11.042   7.829   8.787  0.8244  0.4762  0.0061
 1016MOL0     H40139  10.917   7.604   9.179 -2.2242  0.4234  0.5539
 1016MOL0     H40140  10.921   7.434   9.349 -0.7970  1.0033 -1.7270
 1016MOL0     H40141  10.969   7.310   9.483  2.1514  0.1806 -0.9231
 1016MOL0     H40142  10.911   7.295   9.646  0.8348  0.4601  0.5215
 1016MOL0     H40143  11.142   7.199   9.588 -4.2080 -1.2877 -2.7357
 1016MOL0     H40144  11.205   7.355   9.549 -0.8678  1.9489  0.6596
 1016MOL0     H40145  11.284   7.258   9.753 -1.1413 -3.1791 -0.7128
 1016MOL0     H40146  11.200   7.418   9.791  2.3827  0.7469 -0.0542
 1016MOL0     H40147  11.013   7.307   9.895  1.1914  1.0984  3.5375
 1016MOL0     H40148  11.055   7.152   9.823  0.1286  0.6868 -1.2306
 1016MOL0     H40149  11.248   7.109   9.973  1.0244 -0.3914  2.2218
 1016MOL0     H40150  11.103   7.147  10.066  0.6477  0.3419  2.4169
 1016MOL0     H40151  11.292   7.288  10.177  0.6892  3.2803  0.0669
 1016MOL0     H40152  11.323   7.340  10.008 -1.4069 -1.2313 -3.0103
 1016MOL0     H40153  11.066   7.386  10.156 -1.8150 -0.5202 -2.7883
 1016MOL0     H40154  11.133   7.478  10.018  1.3792 -0.1534 -0.9471
 1016MOL0     H40155  11.151   7.609  10.219 -0.2135 -0.7156  1.1424
 1016MOL0     H40156  11.259   7.496  10.294 -0.6199 -0.6872 -1.8304
 1016MOL0     H40157  11.538   7.537  10.252 -1.5476 -1.0164  0.8088
 1016MOL0     H40158  11.736   7.612  10.118  0.2862  0.8807 -0.9236
 1016MOL0     H40159  11.698   7.728   9.991 -1.6362 -0.6273 -2.4872
 1016MOL0     H40160  11.617   7.546   9.839 -1.4491  1.4777  2.6883
 1016MOL0     H40161  11.794   7.539   9.870  0.6686 -0.9081 -1.1020
 1016MOL0     H40162  11.767   7.370  10.055  0.4211 -1.3217 -0.1463
 1016MOL0     H40163  11.592   7.369  10.026 -0.5300  1.1517 -0.2394
 1016MOL0     H40164  11.818   7.259   9.842 -0.4861  0.2025 -2.0338
 1016MOL0     H40165  11.677   7.174   9.897  2.6343 -0.6554 -0.0394
 1016MOL0     H40166  11.515   7.311   9.531  1.4860  0.6523  3.3172
 1016MOL0     H40167  11.560   7.124   9.204  2.0901 -0.4450  0.3165
 1016MOL0     H40168  11.529   7.282   9.284 -0.7311 -0.0541 -1.1681
 1016MOL0     H40169  11.412   7.135   9.300  0.7876 -0.8407  0.3674
 1016MOL0     H40170  11.776   6.842   9.063 -0.7289  0.3212 -1.1575
 1016MOL0     H40171  11.707   6.658   8.891  2.1650 -2.3892 -0.2505
 1016MOL0     H40172  11.560   6.239   8.906  1.7092  0.2817  0.4027
 1016MOL0     H40173  11.501   6.290   9.057 -1.7207 -1.2928 -1.0193
 1016MOL0     H40174  11.296   6.330   8.942  1.4478 -0.6680  2.5084
 1016MOL0     H40175  11.370   6.488   8.918 -1.0001  0.1586 -2.4030
 1016MOL0     H40176  11.319   6.268   8.744 -2.0219  1.9415 -2.8948
 1016MOL0     H40177  11.471   6.340   8.695 -0.6766 -2.3094 -0.6151
 1016MOL0     H40178  11.373   6.560   8.693  0.7149 -0.0207  0.5652
 1016MOL0     H40179  11.212   6.504   8.743  1.2492  0.9659  1.4340
 1016MOL0     H40180  11.212   6.357   8.522  1.0657 -0.1432  3.9190
 1016MOL0     H40181  11.207   6.537   8.507  0.8546 -0.4936 -1.3211
 1016MOL0     H40182  11.486   6.408   8.490  0.4044 -1.2068  0.7916
 1016MOL0     H40183  11.434   6.566   8.458 -1.9444 -0.1560 -4.8136
 1016MOL0     H40184  11.268   6.422   8.288 -0.2060  1.4031  1.7393
 1016MOL0     H40185  11.388   6.303   8.320  0.6842 -0.3995 -0.4874
 1016MOL0     H40186  11.439   6.415   8.127  1.2130 -3.7953  1.9940
 1016MOL0     H40187  11.566   6.455   8.230 -1.0575 -4.2181  2.3561
 1016MOL0     H40188  11.614   6.394   9.212  0.0613 -0.1104  1.0844
 1016MOL0     H40189  11.661   6.560   9.371 -0.5197  0.5265 -0.5863
 1016MOL0     H40190  11.715   6.863   9.578  0.5055  0.8838 -2.6918
 1016MOL0     H40191  11.740   7.022   9.760 -1.5781 -2.6119 -0.2524
 1016MOL0     H40192  11.039   7.710   9.643  2.5421  1.1146 -0.8738
 1016MOL0     H40193  11.012   7.900   9.475  1.0399 -0.1577 -0.7564
 1016MOL0     H40194  10.807   8.029   9.151 -1.0272 -2.7335 -0.3823
 1016MOL0     H40195  10.681   8.167   8.992  2.1182  1.5077 -1.2266
 1016MOL0     H40196  10.787   8.129   8.582 -0.3692 -0.2638 -0.0096
 1016MOL0     H40197  10.634   8.104   8.526 -0.1457 -0.0408  0.9929
 1016MOL0     H40198  10.566   8.312   8.511  0.0404 -0.2977  1.0645
 1016MOL0     H40199  10.730   8.316   8.461 -1.9979 -1.6791 -0.6614
 1016MOL0     H40200  10.677   8.392   8.751  1.8364 -1.8802 -0.2067
 1016MOL0     H40201  10.811   8.438   8.644 -0.7711  0.5577  0.9241
 1016MOL0     H40202  10.659   8.572   8.503 -1.4160  0.6938 -1.3003
 1016MOL0     H40203  10.699   8.628   8.660  1.9320 -0.9994 -1.8630
 1016MOL0     H40204  10.270   8.523   8.637 -0.5077 -0.7736 -2.4719
 1016MOL0     H40205  10.838   7.962   8.662 -1.5198  3.3219  0.2678
 1016MOL0     H40206  11.037   7.820   8.678 -1.1114 -1.0128  0.1416
 1016MOL0     H40207  11.140   7.865   8.818  0.6147 -1.1649  2.9197
 1016MOL0     H40208  11.025   7.725   8.816  2.4685  0.5847  1.5071
 1017MOL0     O40209  10.149   3.071   4.399 -0.1099  0.2411 -0.0195
 1017MOL0     C40210  10.225   3.163   4.377  0.3246 -0.4579 -1.1085
 1017MOL0     O40211  10.201   3.292   4.413  0.7122 -0.1419 -0.1889
 1017MOL0     C40212  10.083   3.328   4.464  0.6400  0.0248 -0.0720
 1017MOL0     C40213  10.014   3.256   4.560 -0.4215 -0.3162 -0.2152
 1017MOL0     C40214   9.913   3.319   4.638 -0.7061  0.0768 -0.0241
 1017MOL0     C40215   9.880   3.449   4.608 -0.3141 -0.7092  0.3942
 1017MOL0     O40216   9.795   3.528   4.686 -0.7522  0.6844 -0.4927
 1017MOL0     C40217   9.687   3.448   4.755  0.3647  0.4582  0.0747
 1017MOL0     C40218   9.578   3.548   4.766 -0.7004 -1.0279  0.1576
 1017MOL0     C40219   9.466   3.485   4.847  0.3900 -1.1850 -0.3836
 1017MOL0     C40220   9.334   3.502   4.784  0.4899 -0.7825 -0.2035
 1017MOL0     C40221   9.271   3.639   4.775 -0.5995 -0.2656 -0.7477
 1017MOL0     C40222   9.180   3.675   4.894 -0.1030 -0.5986 -0.1677
 1017MOL0     C40223   9.180   3.828   4.909  0.1372  0.2677  0.7588
 1017MOL0     C40224   9.091   3.896   4.801 -0.2004 -0.1048  0.5247
 1017MOL0     N40225   8.947   3.914   4.827 -0.4734 -0.3445  0.4045
 1017MOL0     C40226   8.854   3.819   4.816 -0.2817 -1.2934 -0.2102
 1017MOL0     C40227   8.743   3.875   4.878  0.2719  0.4414 -0.6438
 1017MOL0     C40228   8.623   3.789   4.909  0.1807 -0.9009 -1.3704
 1017MOL0     C40229   8.514   3.770   4.803 -0.8116 -0.0999  1.1715
 1017MOL0     C40230   8.398   3.690   4.877  0.5317  0.3695 -0.3295
 1017MOL0     C40231   8.257   3.684   4.804  0.1373  0.2923 -0.2063
 1017MOL0     O40232   8.195   3.815   4.791 -0.6305  0.7661 -0.6601
 1017MOL0     C40233   8.107   3.858   4.892 -0.0848 -0.8376  1.2157
 1017MOL0     C40234   8.115   3.815   5.027 -0.7032  0.2213 -0.0945
 1017MOL0     C40235   8.034   3.855   5.129 -0.0751 -0.9533  0.0637
 1017MOL0     C40236   8.061   3.801   5.269  0.4182 -0.3866  0.2691
 1017MOL0     C40237   7.940   3.954   5.088  0.4377  0.0032 -1.2800
 1017MOL0     C40238   7.844   4.011   5.195  0.9383  0.2873 -0.4714
 1017MOL0     O40239   7.739   4.074   5.145  0.1289 -0.0013  0.0710
 1017MOL0     C40240   7.626   4.061   5.220  0.2622 -0.2826  0.0063
 1017MOL0     C40241   7.584   4.165   5.309 -0.6151  0.7346 -0.2859
 1017MOL0     C40242   7.469   4.134   5.384 -0.8152 -0.5337  0.0100
 1017MOL0     C40243   7.401   4.012   5.384  0.0538  0.5030 -0.9245
 1017MOL0     O40244   7.280   3.990   5.441  0.5850  0.2757 -0.7111
 1017MOL0     C40245   7.254   4.056   5.568  1.0665  0.0471  1.2674
 1017MOL0     C40246   7.172   3.961   5.653  0.7199  0.2828  0.5208
 1017MOL0     C40247   7.243   3.821   5.686  0.7694  0.1304 -0.4015
 1017MOL0     C40248   7.358   3.849   5.782 -0.0129  0.2495  1.1305
 1017MOL0     C40249   7.408   3.720   5.833 -1.6605  1.1967 -0.4351
 1017MOL0     C40250   7.478   3.605   5.749 -0.0133 -0.5461 -1.0630
 1017MOL0     C40251   7.483   3.476   5.846 -1.2093  1.1714 -0.1241
 1017MOL0     C40252   7.605   3.394   5.815 -0.1544  0.6788  1.1389
 1017MOL0    Cl40253   7.755   3.499   5.851  0.6498  0.7108  0.2574
 1017MOL0     C40254   7.445   3.921   5.288  1.3287 -0.1953 -0.2263
 1017MOL0     C40255   7.556   3.946   5.207 -0.5911 -0.1272 -0.5628
 1017MOL0     O40256   7.866   4.000   5.318 -0.3979 -0.3544  0.4786
 1017MOL0     C40257   7.929   3.994   4.959  0.7532  0.1876  0.2636
 1017MOL0     C40258   8.011   3.956   4.856 -0.0921  0.8161 -0.0327
 1017MOL0     N40259   8.764   4.005   4.920  0.2297  0.5238 -0.1092
 1017MOL0     N40260   8.896   4.023   4.900 -0.0983  0.1054  0.0213
 1017MOL0     C40261   9.939   3.519   4.504  0.6846 -0.4318  0.0051
 1017MOL0     C40262  10.047   3.462   4.432  0.5169 -0.3946  0.5012
 1017MOL0     C40263  10.346   3.124   4.306  0.8459 -0.2859 -0.1295
 1017MOL0     C40264  10.421   3.030   4.366  0.4557  0.9381  0.9085
 1017MOL0     C40265  10.528   2.966   4.300 -0.1448  0.5767 -0.9489
 1017MOL0     C40266  10.576   3.030   4.186  0.9226  0.2201  0.0117
 1017MOL0     O40267  10.695   2.989   4.140 -1.0728 -0.2063  0.2897
 1017MOL0     C40268  10.727   2.985   3.995 -0.9503 -0.8095  0.5514
 1017MOL0     C40269  10.801   3.112   3.939 -0.4346 -0.0851  0.2822
 1017MOL0     C40270  10.809   3.104   3.783  0.4798  0.1869 -0.5027
 1017MOL0     C40271  10.838   3.240   3.727 -0.1781 -0.1102 -0.9704
 1017MOL0     C40272  10.823   3.238   3.582 -0.2962  0.2467  0.1301
 1017MOL0     C40273  10.804   3.225   3.463 -0.4723 -0.0811 -0.4335
 1017MOL0     C40274  10.491   3.119   4.117  0.9026 -0.1627  1.0475
 1017MOL0     C40275  10.374   3.176   4.178 -0.3198  0.5918  0.5296
 1017MOL0     C40276  10.290   3.277   4.103 -0.4585  1.0424  0.3148
 1017MOL0     H40277  10.050   3.163   4.603 -1.5207  0.3462  2.3240
 1017MOL0     H40278   9.872   3.283   4.732  0.3216 -0.6885  0.1430
 1017MOL0     H40279   9.704   3.397   4.851  1.4350 -1.6935 -1.1977
 1017MOL0     H40280   9.660   3.360   4.696 -3.3421 -1.0802  3.5717
 1017MOL0     H40281   9.609   3.634   4.826 -0.8763 -2.6156  2.6908
 1017MOL0     H40282   9.548   3.576   4.665  2.3891 -1.3870 -0.9756
 1017MOL0     H40283   9.480   3.376   4.851 -2.2351 -1.6144 -0.8561
 1017MOL0     H40284   9.463   3.520   4.951  0.1155  0.8918 -1.0425
 1017MOL0     H40285   9.348   3.465   4.682 -1.5720  1.0705 -1.2298
 1017MOL0     H40286   9.253   3.448   4.833  0.0678  1.2872  1.5351
 1017MOL0     H40287   9.210   3.640   4.684  1.8959  3.6871 -2.6627
 1017MOL0     H40288   9.346   3.717   4.760 -1.0361  2.0112  5.6833
 1017MOL0     H40289   9.085   3.622   4.886  0.6177 -2.1006  0.8911
 1017MOL0     H40290   9.223   3.626   4.982  3.7608  0.3428 -1.3396
 1017MOL0     H40291   9.285   3.853   4.892  0.6392 -2.3566 -0.5868
 1017MOL0     H40292   9.155   3.859   5.011 -0.2847 -3.1760  1.8271
 1017MOL0     H40293   9.138   3.995   4.793 -1.1618  0.2673 -0.9505
 1017MOL0     H40294   9.114   3.836   4.712  2.4826 -1.9852  2.3198
 1017MOL0     H40295   8.883   3.718   4.790  2.2303 -0.6432 -0.1940
 1017MOL0     H40296   8.579   3.846   4.992  3.0196 -1.1355  0.4548
 1017MOL0     H40297   8.665   3.695   4.946  1.2813  0.2024  0.3468
 1017MOL0     H40298   8.487   3.870   4.769 -0.2780 -0.8003 -1.5646
 1017MOL0     H40299   8.555   3.731   4.709 -0.2930  1.1993  0.8393
 1017MOL0     H40300   8.443   3.592   4.894 -4.7979 -2.0689  1.9663
 1017MOL0     H40301   8.380   3.732   4.976  0.3104  0.0071 -0.2179
 1017MOL0     H40302   8.273   3.632   4.709  1.6242 -1.3595  0.8824
 1017MOL0     H40303   8.186   3.616   4.851  1.4331  0.3367  1.9330
 1017MOL0     H40304   8.186   3.736   5.049 -1.3941 -0.5393 -0.5641
 1017MOL0     H40305   8.143   3.851   5.321  2.5326  0.3321 -3.4087
 1017MOL0     H40306   8.089   3.695   5.260 -0.0587 -0.5300  0.4245
 1017MOL0     H40307   7.970   3.802   5.331  0.4112  1.5746  0.2728
 1017MOL0     H40308   7.619   4.268   5.307  2.1225 -0.0963  0.4205
 1017MOL0     H40309   7.427   4.219   5.438 -2.6516 -1.9489  0.9329
 1017MOL0     H40310   7.347   4.089   5.616  1.7243  2.0413 -1.2009
 1017MOL0     H40311   7.199   4.150   5.574  1.9781  0.5417  2.3249
 1017MOL0     H40312   7.150   4.023   5.741  1.0385  1.0231  0.0867
 1017MOL0     H40313   7.077   3.952   5.598  1.2968  0.9272 -0.6179
 1017MOL0     H40314   7.287   3.774   5.598  0.6424 -0.7453 -0.0100
 1017MOL0     H40315   7.180   3.737   5.716  0.9710  0.1725  0.1443
 1017MOL0     H40316   7.313   3.907   5.863 -3.0548  4.2666 -2.9573
 1017MOL0     H40317   7.438   3.906   5.734 -0.1315 -1.8428 -1.8316
 1017MOL0     H40318   7.489   3.745   5.902 -0.2258 -0.7695 -1.3042
 1017MOL0     H40319   7.325   3.674   5.888  1.0373  0.3219  3.3037
 1017MOL0     H40320   7.580   3.641   5.732  0.4170 -0.5322  1.2260
 1017MOL0     H40321   7.425   3.585   5.656  0.6344 -0.4787 -1.4516
 1017MOL0     H40322   7.393   3.418   5.827 -0.9245  1.2267 -1.9073
 1017MOL0     H40323   7.479   3.509   5.950 -0.3670 -2.8036  1.3183
 1017MOL0     H40324   7.599   3.375   5.707 -4.2025  0.4992  1.2429
 1017MOL0     H40325   7.614   3.301   5.872  0.4306 -2.3777 -3.3955
 1017MOL0     H40326   7.385   3.833   5.273  0.1369  0.7767 -1.4110
 1017MOL0     H40327   7.600   3.872   5.141 -0.2468 -2.6610  2.2830
 1017MOL0     H40328   7.842   4.057   4.944  1.8125  1.1790 -2.2993
 1017MOL0     H40329   7.995   3.987   4.753 -0.8132  1.0756  0.1505
 1017MOL0     H40330   9.895   3.616   4.482 -1.3727 -1.4270 -0.5314
 1017MOL0     H40331  10.100   3.511   4.351 -1.7472  0.0698 -0.7941
 1017MOL0     H40332  10.388   2.986   4.459  0.9705 -1.5599 -0.0129
 1017MOL0     H40333  10.583   2.896   4.362  1.8851  2.4928 -0.4578
 1017MOL0     H40334  10.794   2.902   3.970  0.0770  0.3174 -0.5627
 1017MOL0     H40335  10.628   2.975   3.949 -1.7045  1.3435  1.5671
 1017MOL0     H40336  10.898   3.116   3.988 -0.7572  0.8695  0.8896
 1017MOL0     H40337  10.749   3.207   3.957 -0.8929 -0.1821 -0.4738
 1017MOL0     H40338  10.891   3.041   3.748 -0.0962 -1.1729  0.4746
 1017MOL0     H40339  10.721   3.062   3.733  2.6859 -0.9795 -3.7083
 1017MOL0     H40340  10.942   3.260   3.754  0.5944 -1.5044 -2.7519
 1017MOL0     H40341  10.779   3.327   3.759 -1.0903 -0.9467 -0.3397
 1017MOL0     H40342  10.810   3.217   3.357  0.3229  0.1423 -0.4101
 1017MOL0     H40343  10.521   3.161   4.022 -2.0623 -2.8239 -1.2896
 1017MOL0     H40344  10.300   3.279   3.994  0.7087 -0.6672  0.3361
 1017MOL0     H40345  10.183   3.266   4.119 -0.6857 -0.8596 -1.9553
 1017MOL0     H40346  10.302   3.371   4.157  1.0031  0.6464  0.7465
 1018MOL0     O40347   6.497  10.545   7.275 -0.1497 -0.4230 -0.4387
 1018MOL0     C40348   6.602  10.486   7.251  0.6279  0.5213 -0.4975
 1018MOL0     O40349   6.626  10.349   7.257 -0.1114  0.1882  0.4424
 1018MOL0     C40350   6.538  10.268   7.320  0.0320 -0.8030  0.5964
 1018MOL0     C40351   6.515  10.277   7.459 -0.1305  0.5644  0.5898
 1018MOL0     C40352   6.426  10.184   7.520 -0.2361 -0.0414  0.8831
 1018MOL0     C40353   6.339  10.107   7.438 -0.0756  0.1605  0.1567
 1018MOL0     O40354   6.247  10.009   7.482 -0.6133 -0.0845  0.5613
 1018MOL0     C40355   6.150  10.069   7.564 -0.4885  0.2978 -0.2710
 1018MOL0     C40356   6.019   9.994   7.544 -0.3500  0.5227  0.2007
 1018MOL0     C40357   6.033   9.841   7.584  0.2873  0.1265  0.0390
 1018MOL0     C40358   6.089   9.806   7.721  0.4298 -0.0158  0.7791
 1018MOL0     C40359   6.013   9.859   7.848 -0.7411 -1.0032 -0.0956
 1018MOL0     C40360   6.084   9.826   7.982 -1.3905  0.5092 -0.6825
 1018MOL0     C40361   6.024   9.896   8.107  0.4784 -0.6957 -0.0774
 1018MOL0     C40362   5.898   9.819   8.163 -0.2964  0.1590 -0.1926
 1018MOL0     N40363   5.826   9.897   8.263 -0.2691  0.4598 -0.3059
 1018MOL0     C40364   5.762  10.019   8.247 -0.1222  0.8209 -0.2845
 1018MOL0     C40365   5.742  10.074   8.372 -0.5206 -0.0748  0.7345
 1018MOL0     C40366   5.688  10.208   8.400 -0.2451 -0.3579 -0.9031
 1018MOL0     C40367   5.541  10.188   8.451 -0.1610  0.5711  0.6016
 1018MOL0     C40368   5.449  10.145   8.335 -0.8662 -0.4407 -0.6620
 1018MOL0     C40369   5.310  10.210   8.328  0.0608 -0.6872  0.2918
 1018MOL0     O40370   5.258  10.212   8.456  0.1814 -0.3464 -0.6773
 1018MOL0     C40371   5.139  10.150   8.471  0.2324  0.1518  0.2616
 1018MOL0     C40372   5.029  10.139   8.389 -0.2364 -0.0232  0.2353
 1018MOL0     C40373   4.903  10.083   8.422  0.8017 -0.5917 -0.1818
 1018MOL0     C40374   4.794  10.073   8.312 -0.7592 -0.5789  0.4932
 1018MOL0     C40375   4.889  10.022   8.550 -0.5400 -0.8011 -0.7394
 1018MOL0     C40376   4.785   9.921   8.595  0.3622 -0.4739 -0.0384
 1018MOL0     O40377   4.677   9.908   8.503 -0.0401 -0.2927 -0.1091
 1018MOL0     C40378   4.576   9.822   8.532 -0.3992 -0.1953 -0.6641
 1018MOL0     C40379   4.442   9.853   8.507  0.0388  0.2554 -0.6338
 1018MOL0     C40380   4.324   9.772   8.527 -0.4757  0.6374  0.1664
 1018MOL0     C40381   4.347   9.646   8.587 -0.0482 -0.2875 -0.2951
 1018MOL0     O40382   4.258   9.554   8.633  0.2114 -0.7584 -0.2350
 1018MOL0     C40383   4.122   9.576   8.650  0.7660  0.3051  0.2242
 1018MOL0     C40384   4.055   9.440   8.652  0.1643  0.5723  0.7077
 1018MOL0     C40385   4.102   9.349   8.770 -0.1782  0.3163 -1.1665
 1018MOL0     C40386   4.054   9.208   8.746  0.8025  0.2774 -0.2536
 1018MOL0     C40387   4.134   9.128   8.642 -0.0835 -0.5486  0.8777
 1018MOL0     C40388   4.104   8.980   8.650  0.3478 -0.8567  0.4586
 1018MOL0     C40389   4.172   8.896   8.545  0.0621 -0.3263  0.3672
 1018MOL0     C40390   4.102   8.901   8.406 -0.4158  0.1936  0.4191
 1018MOL0    Cl40391   4.223   8.845   8.275  0.1924  0.3635  0.2029
 1018MOL0     C40392   4.482   9.609   8.615  0.2487  0.1527 -1.0614
 1018MOL0     C40393   4.588   9.699   8.589  0.1627  0.4504 -0.8325
 1018MOL0     O40394   4.805   9.850   8.692 -0.0603  0.3325  0.3976
 1018MOL0     C40395   4.998  10.034   8.650  0.3866  0.1674  0.0492
 1018MOL0     C40396   5.121  10.093   8.600  1.0072  0.9913 -1.1666
 1018MOL0     N40397   5.790   9.988   8.464  0.7799  0.4063  0.6137
 1018MOL0     N40398   5.836   9.878   8.403 -0.0914  0.2002 -0.0051
 1018MOL0     C40399   6.355  10.108   7.300  0.8079  0.5493  0.5854
 1018MOL0     C40400   6.454  10.190   7.243  0.2446  0.7177 -0.3938
 1018MOL0     C40401   6.708  10.558   7.197  0.3768  0.2775 -0.1207
 1018MOL0     C40402   6.773  10.512   7.085 -0.1440 -0.0080 -0.5929
 1018MOL0     C40403   6.880  10.585   7.033  0.2448 -0.2741 -0.1051
 1018MOL0     C40404   6.915  10.711   7.081 -0.0390  0.2247  0.0381
 1018MOL0     O40405   7.021  10.780   7.040  0.2507  0.1980 -0.2088
 1018MOL0     C40406   7.047  10.780   6.903  1.5431 -0.1882  0.6494
 1018MOL0     C40407   7.119  10.915   6.881 -0.1789 -0.2462  0.5421
 1018MOL0     C40408   7.028  11.035   6.892 -0.1793  0.3747 -0.6519
 1018MOL0     C40409   7.089  11.175   6.905 -0.9704 -0.6283  0.0542
 1018MOL0     C40410   6.982  11.281   6.899 -0.3549  0.8407 -0.3704
 1018MOL0     C40411   6.889  11.365   6.902 -0.3476  0.3424 -0.7227
 1018MOL0     C40412   6.854  10.745   7.198 -0.3354  0.3376 -0.0894
 1018MOL0     C40413   6.754  10.673   7.260 -0.0870  0.6009  0.2697
 1018MOL0     C40414   6.725  10.714   7.403  1.0859 -0.0823 -0.5009
 1018MOL0     H40415   6.561  10.353   7.521 -1.3493  1.7128  0.1386
 1018MOL0     H40416   6.418  10.177   7.628 -1.5258 -2.6857  0.7199
 1018MOL0     H40417   6.122  10.172   7.544 -1.2740  0.4581  1.4743
 1018MOL0     H40418   6.176  10.082   7.670 -0.1906  0.3093 -0.3449
 1018MOL0     H40419   5.936  10.028   7.605 -0.6837 -0.9981  0.6360
 1018MOL0     H40420   5.988  10.011   7.440  0.4196  1.6883  0.1406
 1018MOL0     H40421   5.939   9.788   7.571 -1.3247  2.4618  1.3832
 1018MOL0     H40422   6.104   9.819   7.504 -0.0092  0.1432 -0.2288
 1018MOL0     H40423   6.092   9.697   7.725  0.9181  0.0007  1.0448
 1018MOL0     H40424   6.192   9.840   7.741 -0.0126  2.1591 -0.3052
 1018MOL0     H40425   5.909   9.824   7.850 -1.6165  1.4652  1.6195
 1018MOL0     H40426   6.004   9.967   7.838 -3.4062 -1.3124 -2.2970
 1018MOL0     H40427   6.076   9.720   8.006 -0.0833  0.7102  0.8141
 1018MOL0     H40428   6.187   9.864   7.972 -1.3708  0.0415 -2.4134
 1018MOL0     H40429   5.996  10.000   8.089 -0.9100 -0.9271  0.6453
 1018MOL0     H40430   6.098   9.904   8.187 -0.1994  2.7238  0.3852
 1018MOL0     H40431   5.816   9.814   8.090 -1.3904  3.6242  0.6100
 1018MOL0     H40432   5.925   9.717   8.190  0.1300 -0.8923 -3.9641
 1018MOL0     H40433   5.715  10.049   8.153 -4.3426  2.4173  2.0605
 1018MOL0     H40434   5.695  10.267   8.308 -0.9088  0.5198 -0.4021
 1018MOL0     H40435   5.759  10.256   8.468 -0.6648 -1.1089  0.0739
 1018MOL0     H40436   5.538  10.116   8.533 -0.0531 -1.5710 -1.1924
 1018MOL0     H40437   5.509  10.284   8.493  1.4947  1.7558 -0.6692
 1018MOL0     H40438   5.503  10.152   8.240 -1.1284 -1.9937 -0.9566
 1018MOL0     H40439   5.440  10.038   8.359  1.4979 -0.9200 -1.6522
 1018MOL0     H40440   5.310  10.305   8.274  0.8143 -0.3732  0.8258
 1018MOL0     H40441   5.264  10.136   8.263  0.3872 -0.2579 -0.4339
 1018MOL0     H40442   5.051  10.174   8.289  0.8248 -0.3453  0.3403
 1018MOL0     H40443   4.691  10.089   8.345 -1.3159 -0.1772 -1.3331
 1018MOL0     H40444   4.795   9.975   8.265 -0.1161  0.0135 -0.7710
 1018MOL0     H40445   4.810  10.155   8.241 -2.7377 -1.4557 -1.0363
 1018MOL0     H40446   4.407   9.954   8.487 -1.4741  0.8091  3.6278
 1018MOL0     H40447   4.223   9.806   8.506 -2.5658 -4.2854  0.9535
 1018MOL0     H40448   4.106   9.645   8.733  0.3100 -1.9420  2.1265
 1018MOL0     H40449   4.067   9.624   8.568 -0.9516 -0.8724  0.6154
 1018MOL0     H40450   3.947   9.448   8.666 -0.3792  0.1357 -2.4535
 1018MOL0     H40451   4.052   9.395   8.552  1.5543  2.3617 -0.2005
 1018MOL0     H40452   4.054   9.392   8.858  2.7958 -1.1604  1.3824
 1018MOL0     H40453   4.210   9.352   8.786  0.0142 -0.6042 -2.1299
 1018MOL0     H40454   3.953   9.216   8.706  1.6139  2.2914 -2.1343
 1018MOL0     H40455   4.045   9.150   8.838  1.2204  0.3877 -0.1419
 1018MOL0     H40456   4.110   9.164   8.541 -0.5077  0.8689  1.4653
 1018MOL0     H40457   4.240   9.153   8.650  0.2793 -0.0187 -3.3008
 1018MOL0     H40458   3.995   8.978   8.652  0.3370 -0.1837  2.4533
 1018MOL0     H40459   4.147   8.941   8.743 -0.4595 -2.8486  0.0441
 1018MOL0     H40460   4.175   8.792   8.578  1.8034 -0.3071  0.3754
 1018MOL0     H40461   4.276   8.928   8.542 -0.1977  0.9597  2.8460
 1018MOL0     H40462   4.044   8.991   8.386 -0.2815  0.1981  0.0478
 1018MOL0     H40463   4.024   8.827   8.425  0.5165 -0.7671  0.6194
 1018MOL0     H40464   4.495   9.526   8.684  2.5897  3.2229  2.6892
 1018MOL0     H40465   4.686   9.665   8.624  1.0445  2.9801 -0.6275
 1018MOL0     H40466   4.994   9.984   8.747 -0.8069 -0.4370 -0.2915
 1018MOL0     H40467   5.206  10.083   8.667 -1.1578 -0.9641  1.5195
 1018MOL0     H40468   6.279  10.057   7.241 -1.4300  3.8868  0.2661
 1018MOL0     H40469   6.445  10.184   7.135  1.1604 -3.3959 -0.4135
 1018MOL0     H40470   6.751  10.414   7.045  0.2324  0.0197 -0.8814
 1018MOL0     H40471   6.943  10.559   6.949  1.3658  4.2832 -0.9527
 1018MOL0     H40472   7.112  10.699   6.869  3.8993  0.2761  3.6612
 1018MOL0     H40473   6.956  10.770   6.842  0.9784 -2.0339  1.7217
 1018MOL0     H40474   7.171  10.911   6.785 -1.5921  0.8923 -0.2992
 1018MOL0     H40475   7.205  10.927   6.948 -1.5457  0.4451  2.2527
 1018MOL0     H40476   6.969  11.033   6.799 -3.0281  0.8852  1.0174
 1018MOL0     H40477   6.957  11.013   6.973  0.3650  0.4266 -0.1606
 1018MOL0     H40478   7.144  11.192   6.812 -3.1302 -3.7446 -2.0084
 1018MOL0     H40479   7.156  11.184   6.991 -0.3633 -1.3348 -0.3387
 1018MOL0     H40480   6.808  11.436   6.902 -0.2362  0.4727 -1.1133
 1018MOL0     H40481   6.888  10.819   7.269  2.1572 -1.9064  1.2748
 1018MOL0     H40482   6.659  10.799   7.419 -2.1869 -2.8509  2.7568
 1018MOL0     H40483   6.665  10.645   7.463  0.2038  0.6958 -0.4626
 1018MOL0     H40484   6.816  10.725   7.463 -0.1665  4.9307  0.9307
 1019MOL0     O40485   8.101   7.699   4.695 -0.3068  0.6909  0.2904
 1019MOL0     C40486   8.151   7.796   4.751  1.0917  0.4844 -0.4845
 1019MOL0     O40487   8.253   7.787   4.842  0.4756 -0.4771  0.0238
 1019MOL0     C40488   8.323   7.665   4.880  0.3982 -0.5874 -0.1478
 1019MOL0     C40489   8.327   7.547   4.809  0.3469 -0.1294 -0.3416
 1019MOL0     C40490   8.412   7.437   4.850 -0.4019  0.2538  0.3874
 1019MOL0     C40491   8.486   7.442   4.963 -0.3120  0.4400  0.2318
 1019MOL0     O40492   8.554   7.328   5.007  0.7034 -0.2412  0.5648
 1019MOL0     C40493   8.635   7.328   5.129  0.3966  0.4398  0.7691
 1019MOL0     C40494   8.784   7.335   5.106 -0.3471  1.0825 -0.8653
 1019MOL0     C40495   8.866   7.308   5.232  1.0264  0.3660  0.2118
 1019MOL0     C40496   9.017   7.303   5.196  0.0266 -1.0838  0.3528
 1019MOL0     C40497   9.102   7.279   5.311  0.3682 -0.0450  0.0958
 1019MOL0     C40498   9.249   7.263   5.266 -0.5861 -0.0034  1.1505
 1019MOL0     C40499   9.282   7.136   5.180  0.3758  0.5535 -0.3034
 1019MOL0     C40500   9.428   7.089   5.179  0.2609 -0.1536 -0.3165
 1019MOL0     N40501   9.495   7.180   5.089 -0.6527 -0.3776  0.2656
 1019MOL0     C40502   9.563   7.294   5.121  0.1170 -0.6189 -0.2080
 1019MOL0     C40503   9.646   7.327   5.021  0.0335 -0.2323 -0.4012
 1019MOL0     C40504   9.744   7.433   5.011 -1.0698  0.5175 -0.2923
 1019MOL0     C40505   9.863   7.410   5.100 -0.7299  0.6559  0.6452
 1019MOL0     C40506   9.996   7.463   5.051  0.6703  1.0622 -0.1031
 1019MOL0     C40507  10.084   7.524   5.158  0.3936  0.2307 -0.4162
 1019MOL0     O40508  10.071   7.443   5.286 -0.4224 -1.0932 -0.2532
 1019MOL0     C40509  10.180   7.438   5.370  0.7910  0.0305 -1.0153
 1019MOL0     C40510  10.263   7.330   5.385 -0.1541 -0.0609  0.6140
 1019MOL0     C40511  10.350   7.325   5.496 -0.2001 -0.3058  0.2152
 1019MOL0     C40512  10.435   7.198   5.509 -0.1000 -0.5248  0.5816
 1019MOL0     C40513  10.371   7.433   5.588  0.6102  0.0595 -0.9585
 1019MOL0     C40514  10.485   7.444   5.684 -0.0146 -0.2742  0.0118
 1019MOL0     O40515  10.476   7.544   5.774  0.0702  0.5651  0.4044
 1019MOL0     C40516  10.588   7.569   5.850 -1.0813  0.8387 -0.3495
 1019MOL0     C40517  10.665   7.690   5.838  0.2372 -0.2961 -0.9501
 1019MOL0     C40518  10.785   7.706   5.910 -0.6586  1.0583  0.1868
 1019MOL0     C40519  10.823   7.612   6.012  0.1124  0.1601  1.0194
 1019MOL0     O40520  10.929   7.624   6.097  0.4489  0.4641  0.9233
 1019MOL0     C40521  10.984   7.762   6.111 -0.1001 -0.0758  0.2766
 1019MOL0     C40522  11.091   7.768   6.212  0.4408  0.0267  0.0653
 1019MOL0     C40523  11.212   7.676   6.163  0.7451 -0.8511  0.1890
 1019MOL0     C40524  11.298   7.608   6.266  0.7384  0.7584 -0.9032
 1019MOL0     C40525  11.219   7.504   6.337  0.4330 -0.3235 -0.0552
 1019MOL0     C40526  11.209   7.521   6.485  0.3078  0.2891 -0.7812
 1019MOL0     C40527  11.091   7.445   6.549 -0.4297 -0.9330  0.4148
 1019MOL0     C40528  11.076   7.480   6.693  0.4150  0.1143 -0.8491
 1019MOL0    Cl40529  11.224   7.466   6.788 -0.0734  0.1165  0.4856
 1019MOL0     C40530  10.743   7.495   6.019 -0.0027  0.5018 -0.8304
 1019MOL0     C40531  10.628   7.468   5.943  0.3763  0.7853  0.6977
 1019MOL0     O40532  10.590   7.379   5.657 -0.2772 -0.3048  0.6489
 1019MOL0     C40533  10.285   7.541   5.567  0.5831 -0.5473  0.0372
 1019MOL0     C40534  10.186   7.547   5.457  0.4826 -0.0410 -0.6302
 1019MOL0     N40535   9.638   7.229   4.924  0.0435  0.2818 -0.0550
 1019MOL0     N40536   9.549   7.143   4.966  0.1868 -0.1271  0.3242
 1019MOL0     C40537   8.481   7.566   5.034 -0.3272 -0.4346  0.1472
 1019MOL0     C40538   8.401   7.668   4.989 -0.2472 -0.7018  0.1172
 1019MOL0     C40539   8.072   7.922   4.745  0.1491 -0.8094  0.7286
 1019MOL0     C40540   7.947   7.929   4.677 -0.1104  0.6511 -0.2351
 1019MOL0     C40541   7.880   8.050   4.656  0.0949 -0.6651 -0.0309
 1019MOL0     C40542   7.917   8.169   4.716 -0.3195  0.6354 -0.0173
 1019MOL0     O40543   7.848   8.283   4.688  0.8252  0.4175 -0.3148
 1019MOL0     C40544   7.861   8.401   4.764 -0.2358 -0.3797  0.5788
 1019MOL0     C40545   7.792   8.393   4.905 -0.4906 -0.2476  0.5418
 1019MOL0     C40546   7.791   8.529   4.974 -0.1821  0.0812  0.2042
 1019MOL0     C40547   7.700   8.639   4.906  0.2488 -0.6736 -0.0243
 1019MOL0     C40548   7.653   8.726   5.012 -0.5477  0.9382 -0.3134
 1019MOL0     C40549   7.599   8.780   5.113 -0.3545  0.3563  0.8469
 1019MOL0     C40550   8.026   8.158   4.799 -0.6137 -0.2101 -0.0144
 1019MOL0     C40551   8.108   8.043   4.813  0.3324  0.3691 -0.4829
 1019MOL0     C40552   8.224   8.059   4.911  0.1236 -0.3647  0.7304
 1019MOL0     H40553   8.268   7.516   4.723  1.3599 -3.1397 -0.0624
 1019MOL0     H40554   8.418   7.347   4.789  0.7774  0.6998 -0.2007
 1019MOL0     H40555   8.610   7.231   5.173 -4.9574  0.0680 -2.3081
 1019MOL0     H40556   8.603   7.406   5.199 -2.2951 -0.1368  0.2738
 1019MOL0     H40557   8.799   7.254   5.034 -3.6351  1.2400 -1.9093
 1019MOL0     H40558   8.811   7.430   5.060  1.9581  0.7215 -0.3469
 1019MOL0     H40559   8.842   7.379   5.311 -0.6787 -1.2885  1.2778
 1019MOL0     H40560   8.842   7.216   5.285  2.1295  0.1527  0.3693
 1019MOL0     H40561   9.034   7.222   5.124  3.4746 -0.4450  0.2908
 1019MOL0     H40562   9.043   7.396   5.145 -1.3486  0.6920  2.6826
 1019MOL0     H40563   9.079   7.183   5.360  3.7865  0.2158  2.6079
 1019MOL0     H40564   9.097   7.360   5.384 -0.3314  0.7357 -0.8075
 1019MOL0     H40565   9.292   7.347   5.210  0.7826 -2.4941 -1.8387
 1019MOL0     H40566   9.304   7.270   5.360  1.4843  1.4830 -0.0972
 1019MOL0     H40567   9.247   7.149   5.076 -0.8615  0.0611  0.0288
 1019MOL0     H40568   9.224   7.052   5.221  0.3453  0.9303  0.4289
 1019MOL0     H40569   9.479   7.091   5.276 -1.4136 -3.5900  0.7878
 1019MOL0     H40570   9.425   6.987   5.141  0.7141  0.4610 -2.0888
 1019MOL0     H40571   9.550   7.352   5.211  0.1366  2.4461 -2.0097
 1019MOL0     H40572   9.694   7.530   5.023 -2.2853 -0.2009  0.8729
 1019MOL0     H40573   9.776   7.414   4.908 -3.0379  0.4600 -0.9485
 1019MOL0     H40574   9.859   7.479   5.186  1.9264  2.6308 -0.6560
 1019MOL0     H40575   9.863   7.304   5.128 -2.0763 -1.1488 -4.8913
 1019MOL0     H40576  10.045   7.371   5.018  1.5672  1.0321  1.2375
 1019MOL0     H40577   9.979   7.534   4.970 -2.4261 -0.2668 -0.7644
 1019MOL0     H40578  10.188   7.534   5.126  0.3908  0.5680 -0.3284
 1019MOL0     H40579  10.055   7.627   5.182  1.6626  0.6585 -0.6592
 1019MOL0     H40580  10.248   7.252   5.311 -0.8717  1.1321 -0.5481
 1019MOL0     H40581  10.375   7.115   5.469 -0.4729 -0.1603  0.3730
 1019MOL0     H40582  10.473   7.176   5.609  1.4276  1.5529  0.5176
 1019MOL0     H40583  10.520   7.196   5.440 -1.8202 -3.1217 -1.7151
 1019MOL0     H40584  10.631   7.762   5.765 -1.2191 -0.8693 -0.8738
 1019MOL0     H40585  10.844   7.792   5.880  0.6576  1.0595  2.6118
 1019MOL0     H40586  11.017   7.810   6.019 -0.8750  3.5518  1.7449
 1019MOL0     H40587  10.897   7.816   6.150 -2.3123 -4.7083  2.5956
 1019MOL0     H40588  11.133   7.869   6.221  1.2452 -0.2638 -0.3208
 1019MOL0     H40589  11.058   7.719   6.304 -1.5519  0.9200 -0.1295
 1019MOL0     H40590  11.280   7.747   6.115  0.6903  0.5358  2.0683
 1019MOL0     H40591  11.170   7.599   6.098  0.0974 -1.8465  1.7224
 1019MOL0     H40592  11.318   7.680   6.345 -2.2601  1.2412 -0.4349
 1019MOL0     H40593  11.392   7.569   6.228  0.3608  1.5009 -2.7001
 1019MOL0     H40594  11.123   7.483   6.288 -1.0193  0.4990  2.2910
 1019MOL0     H40595  11.275   7.410   6.334 -0.6575 -0.9829 -0.7840
 1019MOL0     H40596  11.176   7.624   6.502 -0.6584 -0.3499  1.5797
 1019MOL0     H40597  11.298   7.497   6.543 -2.7407 -3.1079  3.1256
 1019MOL0     H40598  11.105   7.338   6.530 -1.6293 -1.1171  0.5306
 1019MOL0     H40599  11.001   7.469   6.492  0.5966  0.4209 -0.7223
 1019MOL0     H40600  11.002   7.415   6.739  2.0538 -1.4048 -0.2315
 1019MOL0     H40601  11.033   7.580   6.702 -0.5797 -0.4015  0.5727
 1019MOL0     H40602  10.785   7.419   6.083  0.8718  1.5077 -0.1929
 1019MOL0     H40603  10.565   7.383   5.963 -3.5984  2.7044 -2.3387
 1019MOL0     H40604  10.287   7.621   5.641 -0.4884 -0.4228 -0.0657
 1019MOL0     H40605  10.113   7.626   5.449 -0.5296 -1.0221 -1.3888
 1019MOL0     H40606   8.547   7.578   5.119 -0.5236 -0.6500  0.3297
 1019MOL0     H40607   8.399   7.768   5.032 -1.5050 -0.2071 -1.0031
 1019MOL0     H40608   7.911   7.840   4.627 -1.0540  0.5972  0.5021
 1019MOL0     H40609   7.803   8.046   4.580 -1.8106  2.8911  1.4675
 1019MOL0     H40610   7.969   8.416   4.778  0.2219 -0.5356 -2.3069
 1019MOL0     H40611   7.818   8.486   4.710 -0.0523  1.0591  2.5498
 1019MOL0     H40612   7.842   8.325   4.973  0.2113  2.2722  2.7201
 1019MOL0     H40613   7.690   8.358   4.885 -1.5209  1.6520  2.0223
 1019MOL0     H40614   7.765   8.511   5.079  2.7408  2.7283  1.5325
 1019MOL0     H40615   7.892   8.571   4.975  0.1267 -0.4975 -1.8494
 1019MOL0     H40616   7.618   8.598   4.846 -0.3470  0.4261  0.0247
 1019MOL0     H40617   7.753   8.702   4.834 -1.7108  0.7106 -0.3317
 1019MOL0     H40618   7.558   8.818   5.204  2.5652  0.0089  2.4437
 1019MOL0     H40619   8.056   8.252   4.844  1.5103 -2.1155  2.9065
 1019MOL0     H40620   8.209   8.158   4.956 -0.9329 -0.1901  0.0228
 1019MOL0     H40621   8.201   7.995   4.996 -1.0946  1.9971  2.3045
 1019MOL0     H40622   8.324   8.043   4.870 -1.2144 -2.6910 -1.9612
 1020MOL0     O40623  11.343   5.960   0.542 -0.3496  0.3599  0.6805
 1020MOL0     C40624  11.259   6.037   0.593  0.2377 -0.7319  0.0637
 1020MOL0     O40625  11.291   6.165   0.630 -0.3993 -0.0881  0.1610
 1020MOL0     C40626  11.429   6.192   0.648  0.6967  0.2992 -0.3468
 1020MOL0     C40627  11.528   6.251   0.569  0.1317 -1.2801 -0.2280
 1020MOL0     C40628  11.651   6.292   0.626  0.5044 -0.0093 -0.7049
 1020MOL0     C40629  11.688   6.257   0.760  0.0517 -0.8230 -0.6971
 1020MOL0     O40630  11.812   6.275   0.813  0.0083  0.3331 -0.0508
 1020MOL0     C40631  11.904   6.356   0.742  0.3796 -1.0133 -0.1281
 1020MOL0     C40632  12.031   6.371   0.823  0.2438 -0.4104 -0.1242
 1020MOL0     C40633  12.005   6.438   0.958  0.2414 -0.2131 -0.2797
 1020MOL0     C40634  12.139   6.424   1.037 -0.3525 -0.3856  0.3771
 1020MOL0     C40635  12.130   6.511   1.163 -0.0499  0.5912 -0.0552
 1020MOL0     C40636  12.252   6.496   1.258  0.0911  0.4575 -0.6682
 1020MOL0     C40637  12.265   6.604   1.361 -0.4754 -0.7807  0.2810
 1020MOL0     C40638  12.343   6.555   1.488 -0.8017 -0.3235 -0.7737
 1020MOL0     N40639  12.489   6.538   1.491  0.4253  0.9496 -0.4616
 1020MOL0     C40640  12.575   6.638   1.497 -0.2009 -0.2387 -0.4782
 1020MOL0     C40641  12.689   6.572   1.474 -0.8021  0.1382 -1.0049
 1020MOL0     C40642  12.821   6.639   1.454 -1.1328 -0.3342 -0.4580
 1020MOL0     C40643  12.917   6.632   1.576  0.4087 -0.2546  0.4234
 1020MOL0     C40644  12.851   6.666   1.717 -0.3592  0.1792 -0.0699
 1020MOL0     C40645  12.965   6.680   1.812 -0.6362 -0.5841  0.0490
 1020MOL0     O40646  13.011   6.823   1.813  0.2788  0.1147 -0.8371
 1020MOL0     C40647  12.949   6.907   1.899 -0.1299 -0.5978  0.2679
 1020MOL0     C40648  12.828   6.897   1.958  0.5710  0.3652 -0.0330
 1020MOL0     C40649  12.781   6.990   2.053 -0.3975 -0.0103 -0.1752
 1020MOL0     C40650  12.638   6.967   2.115  0.5060 -0.1973 -0.8427
 1020MOL0     C40651  12.874   7.092   2.099  0.9815  0.8920 -0.3230
 1020MOL0     C40652  12.841   7.188   2.221 -0.9004 -0.3769  1.3381
 1020MOL0     O40653  12.950   7.270   2.253  0.6318 -0.6751 -0.6578
 1020MOL0     C40654  12.945   7.372   2.347  0.1441  0.1386  1.3624
 1020MOL0     C40655  12.862   7.369   2.467 -0.5135 -0.2847 -0.3187
 1020MOL0     C40656  12.861   7.475   2.549 -0.3321  0.4541 -0.3151
 1020MOL0     C40657  12.936   7.592   2.523  0.7879  0.1313  0.4844
 1020MOL0     O40658  12.928   7.697   2.603  0.2319 -0.4500 -0.3333
 1020MOL0     C40659  13.058   7.750   2.643  0.1038  1.3659 -0.4484
 1020MOL0     C40660  13.024   7.831   2.774 -0.6205 -0.0561  0.1714
 1020MOL0     C40661  13.152   7.882   2.838 -0.0382  0.2434  0.5535
 1020MOL0     C40662  13.096   7.978   2.949 -0.1088 -0.1621  0.9662
 1020MOL0     C40663  13.188   8.044   3.047 -0.0434 -0.3249  0.2747
 1020MOL0     C40664  13.122   8.160   3.120 -0.4633 -0.4163 -0.7763
 1020MOL0     C40665  13.128   8.294   3.046 -0.0450 -0.3623 -0.7726
 1020MOL0     C40666  13.066   8.406   3.119 -1.3730 -0.1031  0.0440
 1020MOL0    Cl40667  12.890   8.377   3.141 -0.0584 -0.2028  0.3435
 1020MOL0     C40668  13.023   7.592   2.410 -0.1572 -0.0520 -0.1534
 1020MOL0     C40669  13.032   7.482   2.327 -0.1016  0.5608  0.4210
 1020MOL0     O40670  12.732   7.194   2.271 -0.7343 -0.3570 -0.0636
 1020MOL0     C40671  13.002   7.100   2.041 -0.1107 -0.3241 -0.3170
 1020MOL0     C40672  13.036   7.005   1.941 -0.5498  0.7327 -0.2493
 1020MOL0     N40673  12.673   6.445   1.438  0.3193 -1.0180 -0.4060
 1020MOL0     N40674  12.549   6.418   1.444  0.8208 -1.1277 -0.5154
 1020MOL0     C40675  11.588   6.198   0.840  0.1085  0.2787 -0.6256
 1020MOL0     C40676  11.461   6.172   0.786  0.5836 -0.2609 -0.1420
 1020MOL0     C40677  11.120   5.992   0.625 -0.7044 -0.0667 -0.6884
 1020MOL0     C40678  11.046   6.054   0.726  0.6261 -0.4983  0.5342
 1020MOL0     C40679  10.928   6.004   0.771 -0.0655 -0.9233  0.7043
 1020MOL0     C40680  10.871   5.895   0.701 -0.7265 -0.0992  0.4562
 1020MOL0     O40681  10.738   5.860   0.725 -0.1515  0.1762 -0.0631
 1020MOL0     C40682  10.657   5.917   0.620 -0.5793 -0.8191  0.3942
 1020MOL0     C40683  10.513   5.941   0.681  0.0686  0.1133  0.4490
 1020MOL0     C40684  10.499   6.011   0.816 -0.1197 -0.2507  0.3591
 1020MOL0     C40685  10.537   6.161   0.791  0.4403  0.0209  0.1753
 1020MOL0     C40686  10.436   6.238   0.705  0.1587  0.6120 -0.3112
 1020MOL0     C40687  10.338   6.283   0.648 -0.4744  0.3919  0.9793
 1020MOL0     C40688  10.943   5.824   0.603  0.3536 -0.2404 -0.7093
 1020MOL0     C40689  11.067   5.873   0.565 -0.1825  0.4636  0.0261
 1020MOL0     C40690  11.135   5.794   0.458 -0.4699  0.1556 -0.2327
 1020MOL0     H40691  11.507   6.293   0.471  1.8182 -3.0659 -1.4244
 1020MOL0     H40692  11.720   6.348   0.563 -0.0011  1.4662  0.0202
 1020MOL0     H40693  11.855   6.454   0.737 -1.8498 -1.9801  0.9548
 1020MOL0     H40694  11.932   6.319   0.643  0.4626 -2.6601  0.4778
 1020MOL0     H40695  12.060   6.266   0.819 -1.4375 -0.8832 -3.7029
 1020MOL0     H40696  12.093   6.434   0.758 -0.2855  0.4879  0.2203
 1020MOL0     H40697  11.977   6.541   0.932 -1.1165 -0.9226 -1.7231
 1020MOL0     H40698  11.930   6.396   1.026  1.7401 -2.0537  0.3039
 1020MOL0     H40699  12.148   6.321   1.074 -2.5216 -0.4661  0.8070
 1020MOL0     H40700  12.220   6.462   0.974 -0.5294 -1.2705 -0.3975
 1020MOL0     H40701  12.052   6.480   1.232  1.0193 -0.8122  0.5839
 1020MOL0     H40702  12.120   6.619   1.149 -0.6097  0.6229  0.5519
 1020MOL0     H40703  12.255   6.395   1.301 -2.2677  0.4338 -0.4538
 1020MOL0     H40704  12.331   6.519   1.186  1.4178 -2.1294 -0.1946
 1020MOL0     H40705  12.169   6.632   1.405 -0.0799  0.9450  0.1215
 1020MOL0     H40706  12.299   6.698   1.316  3.5616 -1.2658  1.8456
 1020MOL0     H40707  12.322   6.622   1.572  1.4388  1.2181 -1.3665
 1020MOL0     H40708  12.292   6.465   1.523  0.9733 -0.5921  1.3191
 1020MOL0     H40709  12.552   6.738   1.531  0.8586 -0.0586 -0.2383
 1020MOL0     H40710  12.795   6.745   1.442  2.4184  0.6608 -0.4270
 1020MOL0     H40711  12.876   6.590   1.374 -1.5141 -4.5007  1.5499
 1020MOL0     H40712  12.965   6.534   1.567  0.7556  0.0304 -6.8716
 1020MOL0     H40713  12.996   6.700   1.544 -0.7632  0.9696  0.0431
 1020MOL0     H40714  12.809   6.767   1.713  0.9879  0.7538 -0.0415
 1020MOL0     H40715  12.782   6.589   1.754 -1.7679  1.6625  0.5653
 1020MOL0     H40716  12.926   6.665   1.913 -2.2164  0.1028 -0.4355
 1020MOL0     H40717  13.041   6.604   1.789  0.8711  1.0907 -0.6945
 1020MOL0     H40718  12.762   6.815   1.933  3.2963 -2.3458  0.9707
 1020MOL0     H40719  12.581   6.908   2.043 -2.5350  1.0395  0.3427
 1020MOL0     H40720  12.587   7.064   2.122  2.4554  1.3103 -4.6592
 1020MOL0     H40721  12.632   6.908   2.207 -2.9882 -0.2272 -0.9454
 1020MOL0     H40722  12.797   7.287   2.495 -0.3196  0.0966  1.3358
 1020MOL0     H40723  12.810   7.465   2.644  2.3479 -3.2174  0.9848
 1020MOL0     H40724  13.126   7.665   2.651 -0.9189  0.4832 -0.9447
 1020MOL0     H40725  13.111   7.811   2.570  0.4843  2.3590  0.6233
 1020MOL0     H40726  12.950   7.910   2.755 -1.0523 -0.1016  1.5648
 1020MOL0     H40727  12.988   7.756   2.845  3.4494 -1.2007  1.2792
 1020MOL0     H40728  13.222   7.934   2.771 -0.0226 -0.5183 -0.0386
 1020MOL0     H40729  13.212   7.796   2.870  0.0582  0.4368  0.8937
 1020MOL0     H40730  13.015   7.924   3.000 -4.0545  1.5783 -2.8694
 1020MOL0     H40731  13.033   8.056   2.906  0.1297  0.1238  1.1323
 1020MOL0     H40732  13.219   7.959   3.108  0.4223 -1.5704 -1.6229
 1020MOL0     H40733  13.278   8.066   2.988 -0.3156 -1.4389 -0.5873
 1020MOL0     H40734  13.169   8.181   3.217  0.4271  0.8364 -1.4525
 1020MOL0     H40735  13.017   8.133   3.136 -0.2547 -0.1681  1.3079
 1020MOL0     H40736  13.087   8.282   2.946  1.3492  1.3663 -1.6028
 1020MOL0     H40737  13.237   8.307   3.045  0.0537 -1.1489 -0.9002
 1020MOL0     H40738  13.076   8.496   3.057  0.4665 -1.6843 -2.1322
 1020MOL0     H40739  13.110   8.417   3.218  0.2903  2.2712 -0.8684
 1020MOL0     H40740  13.082   7.678   2.380 -1.5304  0.9330 -0.1434
 1020MOL0     H40741  13.090   7.485   2.236 -1.6407 -1.4762 -0.7240
 1020MOL0     H40742  13.068   7.181   2.069 -0.0171 -1.6309  4.1429
 1020MOL0     H40743  13.129   7.019   1.887 -0.3565  3.1406  0.5760
 1020MOL0     H40744  11.604   6.152   0.937 -2.0235 -3.7182 -1.9042
 1020MOL0     H40745  11.393   6.120   0.853  0.5105 -1.6948 -1.2696
 1020MOL0     H40746  11.077   6.144   0.778  1.7623  0.2263 -1.2863
 1020MOL0     H40747  10.864   6.042   0.851 -0.7797  1.2523 -0.8115
 1020MOL0     H40748  10.691   6.013   0.580 -0.4913 -0.6410  0.8873
 1020MOL0     H40749  10.646   5.845   0.538 -0.6210  1.5434 -1.8195
 1020MOL0     H40750  10.471   5.841   0.696 -0.8389  0.3156 -0.6183
 1020MOL0     H40751  10.446   5.988   0.609 -1.0392 -2.2478 -0.1914
 1020MOL0     H40752  10.395   6.008   0.850  0.3669 -0.9222  1.8676
 1020MOL0     H40753  10.558   5.978   0.902  0.4687  0.4518  0.2336
 1020MOL0     H40754  10.634   6.173   0.742  0.1051  1.3901 -0.2238
 1020MOL0     H40755  10.532   6.209   0.889 -2.7905 -2.3616  1.3468
 1020MOL0     H40756  10.251   6.328   0.606 -0.1296  1.2646  1.1752
 1020MOL0     H40757  10.903   5.743   0.543  1.5262  0.1358 -2.0498
 1020MOL0     H40758  11.175   5.863   0.382 -0.0593  0.7004  0.4633
 1020MOL0     H40759  11.213   5.725   0.493 -3.1850 -1.9342  2.1458
 1020MOL0     H40760  11.073   5.719   0.409 -1.2398  0.1847  0.6787
 1021MOL0     O40761  11.365   9.346   9.325 -0.3961 -0.3256  0.0633
 1021MOL0     C40762  11.373   9.294   9.212 -0.4570 -0.8383 -0.8679
 1021MOL0     O40763  11.290   9.324   9.112 -0.2173 -0.1287  0.3522
 1021MOL0     C40764  11.203   9.434   9.106 -0.5023  0.4778  0.0790
 1021MOL0     C40765  11.106   9.469   9.204 -0.0513  0.2519 -0.1846
 1021MOL0     C40766  11.007   9.565   9.170  0.3489  0.0291  0.3715
 1021MOL0     C40767  10.996   9.621   9.039  0.8216  0.6297  0.6371
 1021MOL0     O40768  10.901   9.711   9.008 -1.0249 -0.6691  0.1823
 1021MOL0     C40769  10.917   9.786   8.884  0.8807 -0.4281 -0.6251
 1021MOL0     C40770  10.833   9.906   8.875  0.4545 -0.6732  0.0809
 1021MOL0     C40771  10.841  10.017   8.987  0.2492 -0.1027 -0.2831
 1021MOL0     C40772  10.738  10.134   8.958  0.4050 -0.0113  0.1518
 1021MOL0     C40773  10.591  10.098   8.952 -0.1123 -0.2590 -0.0321
 1021MOL0     C40774  10.493  10.215   9.003 -1.6151  1.1911 -0.1767
 1021MOL0     C40775  10.358  10.183   8.970 -0.0979 -0.6732  0.1494
 1021MOL0     C40776  10.267  10.276   9.052 -0.0714 -0.5697  0.2123
 1021MOL0     N40777  10.290  10.420   9.024 -0.7510  1.2487  0.0926
 1021MOL0     C40778  10.234  10.486   8.918  0.1217 -0.2394  0.4025
 1021MOL0     C40779  10.286  10.611   8.913  0.9129  0.0614  0.0837
 1021MOL0     C40780  10.239  10.710   8.817 -0.1820 -0.0594  0.1279
 1021MOL0     C40781  10.312  10.692   8.679  0.8557  0.6486 -0.5588
 1021MOL0     C40782  10.260  10.803   8.574  0.1305  0.0758  0.0809
 1021MOL0     C40783  10.307  10.947   8.606 -0.3850  0.0508 -0.4941
 1021MOL0     O40784  10.446  10.959   8.600  0.0615 -0.6532 -0.1607
 1021MOL0     C40785  10.509  10.930   8.485  0.4024  0.1424 -0.0506
 1021MOL0     C40786  10.461  10.954   8.361  0.2030  0.7682 -1.1165
 1021MOL0     C40787  10.529  10.943   8.240 -0.0198  0.0122  0.1176
 1021MOL0     C40788  10.460  10.989   8.112 -0.5061  0.6280 -0.7065
 1021MOL0     C40789  10.667  10.905   8.246 -0.6311  0.1313 -0.0913
 1021MOL0     C40790  10.753  10.877   8.130 -0.2508  0.4474 -0.1305
 1021MOL0     O40791  10.889  10.881   8.127  0.4171  0.6757  0.1821
 1021MOL0     C40792  10.958  10.833   8.023 -0.5231  0.6516  0.2188
 1021MOL0     C40793  10.924  10.845   7.880 -1.2103 -0.8305  0.5665
 1021MOL0     C40794  11.008  10.787   7.788 -0.0136  0.5188  0.0045
 1021MOL0     C40795  11.129  10.721   7.825  0.9112 -0.9229  0.1703
 1021MOL0     O40796  11.215  10.666   7.744 -1.0085 -0.6319 -0.7346
 1021MOL0     C40797  11.190  10.645   7.604 -0.0680  1.2256  0.9465
 1021MOL0     C40798  11.308  10.684   7.513 -0.0692 -0.3127  0.0565
 1021MOL0     C40799  11.440  10.609   7.549  0.9272 -0.0058  0.4460
 1021MOL0     C40800  11.551  10.645   7.452 -0.2174  0.3279 -0.1978
 1021MOL0     C40801  11.685  10.657   7.528 -1.1066 -0.3236  0.6513
 1021MOL0     C40802  11.800  10.675   7.433 -0.7151 -0.0650 -0.3447
 1021MOL0     C40803  11.932  10.667   7.500  0.1257  0.3258  0.8023
 1021MOL0     C40804  12.051  10.675   7.399 -0.4296  0.4630  0.9845
 1021MOL0    Cl40805  12.016  10.576   7.244 -0.0704 -0.1674  0.0594
 1021MOL0     C40806  11.166  10.724   7.949 -0.9449  0.8366 -0.3793
 1021MOL0     C40807  11.084  10.772   8.052 -0.3115 -0.7914  0.5878
 1021MOL0     O40808  10.692  10.835   8.042  0.0326 -0.0921  0.2590
 1021MOL0     C40809  10.714  10.888   8.377  0.0835  0.4662  0.6949
 1021MOL0     C40810  10.643  10.905   8.498 -0.0630  0.3779 -0.6240
 1021MOL0     N40811  10.367  10.620   9.030 -0.3723 -0.2220 -0.4903
 1021MOL0     N40812  10.372  10.505   9.096  0.3846  0.8479  0.3232
 1021MOL0     C40813  11.105   9.581   8.951  0.2289  0.2220 -0.8051
 1021MOL0     C40814  11.203   9.498   8.980 -0.0995 -0.9895 -0.3656
 1021MOL0     C40815  11.480   9.212   9.167 -0.1408  0.0510 -0.7151
 1021MOL0     C40816  11.512   9.214   9.036  0.4309  0.4307  0.6527
 1021MOL0     C40817  11.633   9.152   8.984  0.3359  0.3669 -0.2120
 1021MOL0     C40818  11.719   9.087   9.073 -0.0992 -0.4650  0.3508
 1021MOL0     O40819  11.838   9.030   9.038  0.4188  0.5404  0.1402
 1021MOL0     C40820  11.889   9.043   8.903 -0.5557 -0.4056  0.5089
 1021MOL0     C40821  12.032   8.991   8.889 -0.9563 -0.6540 -0.5598
 1021MOL0     C40822  12.129   9.038   9.004 -0.4116 -0.4467  0.3397
 1021MOL0     C40823  12.126   9.185   9.032 -0.6919 -0.4609  0.1802
 1021MOL0     C40824  12.226   9.226   9.123  0.0698  1.3191  0.0278
 1021MOL0     C40825  12.328   9.251   9.190  0.5563  0.3832  0.1310
 1021MOL0     C40826  11.681   9.076   9.207 -0.4716  0.3306  0.1696
 1021MOL0     C40827  11.557   9.131   9.251 -0.4914  0.4915 -0.2138
 1021MOL0     C40828  11.500   9.081   9.383 -0.1556  0.3698 -0.4280
 1021MOL0     H40829  11.108   9.406   9.292 -2.5883 -3.0771 -2.2427
 1021MOL0     H40830  10.926   9.597   9.236 -1.1663  0.4216 -1.5965
 1021MOL0     H40831  10.901   9.724   8.796  0.6388 -0.2750 -0.6895
 1021MOL0     H40832  11.023   9.809   8.870  1.6355 -1.1327  2.8123
 1021MOL0     H40833  10.839   9.951   8.776 -1.5628 -0.3961  0.0296
 1021MOL0     H40834  10.729   9.871   8.876  0.2540 -0.0868  1.1890
 1021MOL0     H40835  10.834   9.960   9.080 -1.7388 -1.0832 -0.9632
 1021MOL0     H40836  10.942  10.051   8.964 -0.6924  1.6016 -2.2569
 1021MOL0     H40837  10.755  10.204   9.040 -0.6351 -0.5396  0.8350
 1021MOL0     H40838  10.759  10.181   8.861  1.7551  0.1370  0.4892
 1021MOL0     H40839  10.578  10.007   9.013 -0.7856  1.8638  3.2365
 1021MOL0     H40840  10.567  10.068   8.850 -4.6636  2.4343 -0.0030
 1021MOL0     H40841  10.511  10.231   9.110 -2.4087 -0.5986  0.2587
 1021MOL0     H40842  10.517  10.311   8.955  1.3994  1.7961  2.2296
 1021MOL0     H40843  10.336  10.084   9.012  1.1694 -0.0357  2.5081
 1021MOL0     H40844  10.342  10.182   8.862  3.5334  0.0018 -0.5179
 1021MOL0     H40845  10.163  10.254   9.028  0.1522  0.8976 -2.5858
 1021MOL0     H40846  10.283  10.264   9.160 -2.1605  0.0005  0.6309
 1021MOL0     H40847  10.154  10.446   8.856 -0.1518 -1.3700  1.4138
 1021MOL0     H40848  10.252  10.807   8.866 -3.8786 -0.2023  1.6836
 1021MOL0     H40849  10.131  10.702   8.805 -0.1471 -0.9519  0.3592
 1021MOL0     H40850  10.421  10.702   8.688  0.6968  0.4465  4.3241
 1021MOL0     H40851  10.276  10.600   8.634  0.1391 -0.0070  1.2755
 1021MOL0     H40852  10.283  10.777   8.471  1.4335 -0.4505  0.4800
 1021MOL0     H40853  10.151  10.802   8.579  0.1048  2.3276  2.2739
 1021MOL0     H40854  10.246  11.015   8.545 -1.8495 -0.5828  0.2374
 1021MOL0     H40855  10.291  10.983   8.708 -3.9899  2.9545 -1.8262
 1021MOL0     H40856  10.361  10.994   8.351  0.7088  2.8453  1.0568
 1021MOL0     H40857  10.426  10.907   8.048  1.0791 -1.0652  0.5046
 1021MOL0     H40858  10.545  11.036   8.061 -0.4136  1.2556  0.0143
 1021MOL0     H40859  10.388  11.069   8.132  1.0993  1.7953  0.7272
 1021MOL0     H40860  10.837  10.909   7.867 -0.9113 -0.0415  2.1321
 1021MOL0     H40861  10.976  10.797   7.684 -1.7705 -1.2058  0.3241
 1021MOL0     H40862  11.167  10.539   7.598 -1.3950  1.4749  1.2611
 1021MOL0     H40863  11.096  10.694   7.577 -0.4877 -0.3828 -0.6839
 1021MOL0     H40864  11.285  10.690   7.406 -0.1158 -0.8463  0.0351
 1021MOL0     H40865  11.336  10.788   7.532  0.1726 -0.0563 -1.5611
 1021MOL0     H40866  11.424  10.502   7.538  2.1604 -0.5097  2.9022
 1021MOL0     H40867  11.472  10.619   7.653 -2.0351  0.6810  1.3722
 1021MOL0     H40868  11.536  10.748   7.416  0.5274  1.0204  1.3637
 1021MOL0     H40869  11.558  10.580   7.365  1.3300 -0.6544  0.6072
 1021MOL0     H40870  11.668  10.732   7.605 -2.2501 -1.3468  1.4346
 1021MOL0     H40871  11.703  10.566   7.585  3.2630 -0.2470 -0.2795
 1021MOL0     H40872  11.772  10.774   7.395 -1.4142 -0.2981 -0.4460
 1021MOL0     H40873  11.788  10.604   7.351 -0.4125 -0.7140  0.1644
 1021MOL0     H40874  11.948  10.576   7.557  0.8033 -0.0456  0.0354
 1021MOL0     H40875  11.936  10.749   7.573  3.6541  0.4557  0.6332
 1021MOL0     H40876  12.144  10.646   7.449  0.7536  0.4500 -1.1102
 1021MOL0     H40877  12.056  10.778   7.362 -1.6798 -0.7804 -3.2972
 1021MOL0     H40878  11.260  10.692   7.994 -0.2312  6.9312  3.7588
 1021MOL0     H40879  11.120  10.780   8.155 -0.4649 -3.3746  0.9034
 1021MOL0     H40880  10.818  10.859   8.383 -0.0785 -0.2688  0.1258
 1021MOL0     H40881  10.705  10.895   8.586  1.1121 -0.8980 -1.5545
 1021MOL0     H40882  11.112   9.613   8.848 -0.0618 -1.6299 -1.4269
 1021MOL0     H40883  11.275   9.460   8.909 -0.6250 -2.4271 -0.1637
 1021MOL0     H40884  11.462   9.285   8.971  0.0187  0.4729  1.0102
 1021MOL0     H40885  11.658   9.177   8.881  2.5366  1.9114  0.6134
 1021MOL0     H40886  11.820   8.994   8.834 -1.5530  3.7740 -1.7810
 1021MOL0     H40887  11.889   9.148   8.871  1.6348 -0.7129 -0.7411
 1021MOL0     H40888  12.075   9.035   8.799  0.0440 -0.4873 -0.0190
 1021MOL0     H40889  12.039   8.884   8.869 -0.9875 -0.6003 -0.8592
 1021MOL0     H40890  12.087   8.972   9.080  4.0265 -0.8840  2.6980
 1021MOL0     H40891  12.231   9.003   8.987  0.9131  2.8981  0.7361
 1021MOL0     H40892  12.031   9.224   9.068  0.9315  2.3502  1.8704
 1021MOL0     H40893  12.141   9.243   8.940  2.2658 -1.1957  0.0833
 1021MOL0     H40894  12.412   9.261   9.255  0.0103  1.8099  0.6578
 1021MOL0     H40895  11.746   9.022   9.275 -0.8922  1.0328  1.1461
 1021MOL0     H40896  11.564   9.113   9.466 -2.7917  0.8749  1.5173
 1021MOL0     H40897  11.396   9.110   9.396 -0.1922  0.7129 -1.4053
 1021MOL0     H40898  11.491   8.974   9.404 -3.3358  1.3919  5.3968
 1022MOL0     O40899   7.065   4.119   4.060 -1.0491  0.7574 -0.6591
 1022MOL0     C40900   7.156   4.146   4.142  0.2406 -0.2282 -0.4537
 1022MOL0     O40901   7.182   4.066   4.248  0.2500  0.2643 -0.0576
 1022MOL0     C40902   7.105   3.961   4.279 -0.1403 -0.2058 -0.8355
 1022MOL0     C40903   6.982   3.984   4.340 -0.3511 -0.7542 -0.1066
 1022MOL0     C40904   6.885   3.891   4.353 -0.2197 -0.0741  0.0080
 1022MOL0     C40905   6.908   3.763   4.301 -0.3830 -0.1801  0.1748
 1022MOL0     O40906   6.807   3.666   4.313 -0.3248 -1.0434 -0.0676
 1022MOL0     C40907   6.834   3.548   4.247  0.2742  0.2616  0.5807
 1022MOL0     C40908   6.726   3.454   4.284  0.7133  0.4131 -0.9412
 1022MOL0     C40909   6.749   3.406   4.422 -0.7398 -0.3260 -0.2345
 1022MOL0     C40910   6.624   3.337   4.471 -0.0199  0.1921 -0.5694
 1022MOL0     C40911   6.655   3.258   4.602 -1.1846 -0.3338  0.2728
 1022MOL0     C40912   6.523   3.233   4.668 -0.8614  0.2755 -0.0212
 1022MOL0     C40913   6.559   3.162   4.811 -0.3390 -0.2441  0.4828
 1022MOL0     C40914   6.582   3.252   4.932 -0.1516  0.2591  0.7537
 1022MOL0     N40915   6.630   3.180   5.054 -0.1216  0.2252 -1.1981
 1022MOL0     C40916   6.546   3.099   5.139 -0.9176 -0.0721 -0.0766
 1022MOL0     C40917   6.627   3.012   5.198  0.5679  0.0357 -0.2648
 1022MOL0     C40918   6.569   2.920   5.316 -0.5087 -0.2018 -0.9651
 1022MOL0     C40919   6.595   2.774   5.290 -0.3846  0.2757  0.3387
 1022MOL0     C40920   6.744   2.729   5.275  0.8653  0.2542  0.1413
 1022MOL0     C40921   6.771   2.592   5.326  0.4367  0.2610 -0.3086
 1022MOL0     O40922   6.692   2.506   5.244 -0.3531  0.3191 -0.3975
 1022MOL0     C40923   6.611   2.418   5.299  0.3465  0.4370 -0.8366
 1022MOL0     C40924   6.475   2.442   5.297  0.4167  0.1665 -0.9820
 1022MOL0     C40925   6.380   2.352   5.360  0.5127  1.0214  1.2551
 1022MOL0     C40926   6.239   2.399   5.363 -0.5742  1.0636 -0.5198
 1022MOL0     C40927   6.424   2.220   5.408  0.5302 -0.0744  0.4418
 1022MOL0     C40928   6.337   2.122   5.476  0.2362  0.1004  0.0616
 1022MOL0     O40929   6.402   2.025   5.545  1.2054 -0.4074  0.4251
 1022MOL0     C40930   6.337   1.906   5.562  0.7382 -0.3494  0.2194
 1022MOL0     C40931   6.306   1.869   5.701 -0.1905 -0.5188 -0.2964
 1022MOL0     C40932   6.242   1.746   5.737 -0.8233 -0.1235 -0.1956
 1022MOL0     C40933   6.199   1.665   5.637  0.4349  0.1673 -0.4133
 1022MOL0     O40934   6.131   1.551   5.673 -0.3303  0.4534  0.1581
 1022MOL0     C40935   6.104   1.437   5.581  0.1008 -0.1380 -0.6645
 1022MOL0     C40936   6.034   1.329   5.660  1.0954  1.2246  0.9667
 1022MOL0     C40937   6.118   1.294   5.785  0.2753 -0.0103 -1.1487
 1022MOL0     C40938   6.107   1.146   5.834  0.2091  0.3490  1.0821
 1022MOL0     C40939   5.961   1.103   5.879  0.1494  0.4223  0.3247
 1022MOL0     C40940   5.942   0.962   5.910 -0.1634 -0.0860 -0.4981
 1022MOL0     C40941   5.803   0.919   5.961 -0.7141  0.2778  0.0122
 1022MOL0     C40942   5.811   0.770   6.018  0.0073  0.2095  0.2472
 1022MOL0    Cl40943   5.859   0.664   5.881  0.0064  0.2869  0.1187
 1022MOL0     C40944   6.212   1.710   5.501 -0.4717  0.9453  0.0027
 1022MOL0     C40945   6.281   1.820   5.466  0.8086 -0.2914  0.7351
 1022MOL0     O40946   6.211   2.120   5.453  0.2848 -0.8563  0.3537
 1022MOL0     C40947   6.566   2.198   5.399  0.6555  0.2511 -0.4286
 1022MOL0     C40948   6.650   2.291   5.346 -0.5287 -0.5689  1.2543
 1022MOL0     N40949   6.753   3.048   5.156  0.0823  0.9930 -0.1692
 1022MOL0     N40950   6.754   3.141   5.065  0.0393 -0.1821  0.1650
 1022MOL0     C40951   7.033   3.734   4.228  0.4071 -1.4279 -0.1177
 1022MOL0     C40952   7.131   3.840   4.227 -0.8585 -0.0844  0.3467
 1022MOL0     C40953   7.269   4.242   4.098  1.2120 -0.5766 -0.1206
 1022MOL0     C40954   7.227   4.348   4.016  0.0479 -0.2600 -0.2112
 1022MOL0     C40955   7.321   4.449   3.966  0.9472  1.3012 -0.2198
 1022MOL0     C40956   7.458   4.438   3.984 -1.0503  0.5374 -0.2340
 1022MOL0     O40957   7.538   4.527   3.915  0.6165 -0.5912  0.4647
 1022MOL0     C40958   7.680   4.504   3.908 -0.0222 -0.3481  0.4235
 1022MOL0     C40959   7.747   4.548   3.767 -0.3766 -0.5458 -0.0995
 1022MOL0     C40960   7.726   4.455   3.647 -0.3721  1.2959  0.7504
 1022MOL0     C40961   7.575   4.424   3.637  0.0335 -0.2301  0.3990
 1022MOL0     C40962   7.530   4.402   3.496 -0.0218  0.2104  0.1655
 1022MOL0     C40963   7.478   4.357   3.400  0.1775  0.0115  0.6364
 1022MOL0     C40964   7.497   4.337   4.081 -0.6175  0.2226 -0.9756
 1022MOL0     C40965   7.406   4.246   4.141  0.3633  1.3308 -0.2095
 1022MOL0     C40966   7.454   4.153   4.249 -0.3296  0.1499 -0.4811
 1022MOL0     H40967   6.957   4.083   4.376  1.4111 -0.4209  0.2453
 1022MOL0     H40968   6.789   3.905   4.403 -0.8173 -3.0665 -0.1235
 1022MOL0     H40969   6.924   3.490   4.267 -0.4257 -0.3546  2.0490
 1022MOL0     H40970   6.845   3.570   4.140  1.3587  2.5091  1.0870
 1022MOL0     H40971   6.630   3.506   4.283 -1.1780 -2.8303 -1.2176
 1022MOL0     H40972   6.719   3.375   4.209  2.0826 -1.0642  0.3944
 1022MOL0     H40973   6.833   3.336   4.424  0.8500  1.5263  0.4749
 1022MOL0     H40974   6.768   3.492   4.487  0.1934 -0.9325  0.3177
 1022MOL0     H40975   6.537   3.401   4.488 -0.7572 -0.9617  0.1421
 1022MOL0     H40976   6.594   3.264   4.394 -1.0351  1.4510 -1.4180
 1022MOL0     H40977   6.730   3.311   4.662  0.0271 -2.4546  0.7568
 1022MOL0     H40978   6.686   3.158   4.571 -1.2790 -1.7710  4.2356
 1022MOL0     H40979   6.471   3.329   4.666  1.1172  1.4177 -1.9640
 1022MOL0     H40980   6.463   3.165   4.607 -0.9356  2.5727 -2.7308
 1022MOL0     H40981   6.652   3.105   4.803  0.1578  0.6902 -0.7017
 1022MOL0     H40982   6.476   3.095   4.833 -1.5785  1.2181  0.4614
 1022MOL0     H40983   6.668   3.317   4.914 -0.5732  0.1754 -2.0504
 1022MOL0     H40984   6.492   3.308   4.958 -0.5304 -1.1922  2.7950
 1022MOL0     H40985   6.440   3.096   5.161 -0.9105 -2.8374 -0.0497
 1022MOL0     H40986   6.462   2.941   5.319 -0.2862  2.0728 -3.9716
 1022MOL0     H40987   6.618   2.955   5.407 -0.1629  1.8516 -1.8699
 1022MOL0     H40988   6.550   2.720   5.374  0.0664  0.7746  0.9086
 1022MOL0     H40989   6.541   2.755   5.197 -2.4414  0.4526  1.4352
 1022MOL0     H40990   6.771   2.724   5.170  2.3915 -2.2576  0.5929
 1022MOL0     H40991   6.808   2.791   5.338  0.0711  2.5181 -1.1593
 1022MOL0     H40992   6.876   2.565   5.317  0.4170  0.2666 -0.5615
 1022MOL0     H40993   6.736   2.589   5.430  1.7035 -1.6849  0.1043
 1022MOL0     H40994   6.429   2.528   5.248  1.6905  1.1011 -0.5627
 1022MOL0     H40995   6.182   2.343   5.287 -2.3056  0.4938  1.1257
 1022MOL0     H40996   6.229   2.504   5.334 -2.4542  0.1592 -3.7498
 1022MOL0     H40997   6.191   2.380   5.459 -2.4886  0.1898 -1.5853
 1022MOL0     H40998   6.337   1.943   5.774 -0.9639 -1.2223  0.7705
 1022MOL0     H40999   6.209   1.712   5.835 -0.5041 -1.1242 -0.4243
 1022MOL0     H41000   6.040   1.463   5.496 -2.6481 -2.4002  0.5244
 1022MOL0     H41001   6.195   1.392   5.542  0.6805 -0.5475  1.0926
 1022MOL0     H41002   5.927   1.346   5.677  0.7002  3.2583 -2.5287
 1022MOL0     H41003   6.032   1.240   5.597  2.2321  1.8844 -0.0236
 1022MOL0     H41004   6.086   1.358   5.867 -1.6269 -2.9578  0.6072
 1022MOL0     H41005   6.226   1.299   5.766  1.0811 -1.1413  2.4373
 1022MOL0     H41006   6.175   1.128   5.918  0.1027  1.4780  1.4293
 1022MOL0     H41007   6.129   1.074   5.755 -3.8944 -0.6793  0.6075
 1022MOL0     H41008   5.940   1.166   5.966  0.1613  1.5878 -0.4846
 1022MOL0     H41009   5.883   1.117   5.804  1.1776  1.2096 -0.6315
 1022MOL0     H41010   6.016   0.935   5.986 -0.0801  1.4805  0.0027
 1022MOL0     H41011   5.965   0.916   5.813 -2.5177  0.1653 -1.2495
 1022MOL0     H41012   5.730   0.911   5.879  1.1360  1.1558 -1.8137
 1022MOL0     H41013   5.759   0.996   6.025  1.8000  2.4099 -0.6137
 1022MOL0     H41014   5.713   0.742   6.057 -0.1745  2.3558  1.4937
 1022MOL0     H41015   5.886   0.761   6.097 -0.3482  2.0729  0.8684
 1022MOL0     H41016   6.156   1.654   5.428  1.3674  0.1485 -0.8540
 1022MOL0     H41017   6.301   1.857   5.366 -1.3330  1.9436  1.0291
 1022MOL0     H41018   6.607   2.100   5.424  0.7254 -0.1407 -1.9596
 1022MOL0     H41019   6.758   2.286   5.340 -0.4893 -0.5047 -4.6959
 1022MOL0     H41020   7.051   3.643   4.173 -0.1775 -1.6782  0.1055
 1022MOL0     H41021   7.224   3.831   4.173  1.2276 -0.0502  3.6737
 1022MOL0     H41022   7.122   4.360   3.993 -0.4041  1.4625  2.3379
 1022MOL0     H41023   7.283   4.530   3.904  2.9664  1.2255 -1.6348
 1022MOL0     H41024   7.726   4.565   3.986  0.0317  1.2530 -0.8142
 1022MOL0     H41025   7.698   4.398   3.929 -2.6623 -0.7356  1.2073
 1022MOL0     H41026   7.855   4.558   3.783 -0.3720  2.4979 -1.3314
 1022MOL0     H41027   7.705   4.646   3.739 -1.5327 -1.4949 -1.9322
 1022MOL0     H41028   7.767   4.496   3.554  1.5530 -0.8694  0.5577
 1022MOL0     H41029   7.787   4.365   3.663 -0.2315  1.5748  1.8277
 1022MOL0     H41030   7.507   4.503   3.670 -2.8834 -2.2338 -0.3201
 1022MOL0     H41031   7.562   4.326   3.685 -2.8074  0.1032  0.5029
 1022MOL0     H41032   7.438   4.313   3.311  0.9501  0.1495  0.2123
 1022MOL0     H41033   7.604   4.339   4.103 -0.3168 -2.3183 -1.8250
 1022MOL0     H41034   7.440   4.046   4.233  0.8564 -0.7820  3.4070
 1022MOL0     H41035   7.561   4.177   4.259 -0.8696  2.7522 -0.2491
 1022MOL0     H41036   7.416   4.185   4.347  2.6631 -0.4717  1.0221
 1023MOL0     O41037   2.398   7.332   7.065 -0.3759 -0.1890 -0.1455
 1023MOL0     C41038   2.324   7.280   6.977 -0.1796 -0.1122 -0.0258
 1023MOL0     O41039   2.206   7.220   6.997 -0.5724  0.6476  0.2757
 1023MOL0     C41040   2.144   7.215   7.117 -0.0980 -0.3740 -0.1609
 1023MOL0     C41041   2.007   7.193   7.114 -0.5565 -0.1118 -0.8072
 1023MOL0     C41042   1.927   7.164   7.225  0.2310 -0.2520 -0.1993
 1023MOL0     C41043   1.986   7.164   7.351  0.6638  0.7654 -0.2260
 1023MOL0     O41044   1.916   7.154   7.471  0.6977  1.3671 -0.2805
 1023MOL0     C41045   1.896   7.281   7.541  0.0834 -0.2087 -0.3032
 1023MOL0     C41046   1.831   7.268   7.680 -0.4228  0.3231 -0.5817
 1023MOL0     C41047   1.769   7.403   7.729 -0.1147  0.4545  0.2303
 1023MOL0     C41048   1.699   7.390   7.867  0.6472 -0.4203  0.0413
 1023MOL0     C41049   1.662   7.529   7.934  0.1449  1.3624  0.1240
 1023MOL0     C41050   1.581   7.525   8.066  0.4328  0.4788 -0.5411
 1023MOL0     C41051   1.535   7.671   8.099  0.7770 -0.0811 -0.0168
 1023MOL0     C41052   1.411   7.658   8.209  0.0520  0.0749  1.1440
 1023MOL0     N41053   1.460   7.622   8.338 -0.2955  0.6719 -0.3139
 1023MOL0     C41054   1.428   7.702   8.448  0.5943  0.1983 -0.5866
 1023MOL0     C41055   1.409   7.617   8.551 -0.1968  0.2520 -0.3495
 1023MOL0     C41056   1.379   7.656   8.697  0.3238  0.6547  0.8271
 1023MOL0     C41057   1.319   7.528   8.777  0.0526  0.3336 -0.8836
 1023MOL0     C41058   1.248   7.569   8.909  0.1927 -0.4431 -0.6363
 1023MOL0     C41059   1.322   7.667   9.009 -0.0185  0.0070 -0.7268
 1023MOL0     O41060   1.228   7.743   9.091  0.9490 -0.1022 -0.5539
 1023MOL0     C41061   1.170   7.696   9.207  0.6944  0.5555  0.3194
 1023MOL0     C41062   1.095   7.781   9.285  1.0899 -0.5118 -0.6917
 1023MOL0     C41063   1.032   7.740   9.404  0.1234  0.8733  0.1682
 1023MOL0     C41064   0.978   7.856   9.488  0.2478  0.0855  0.1242
 1023MOL0     C41065   1.046   7.604   9.438  1.6136 -0.3368  0.5411
 1023MOL0     C41066   0.983   7.554   9.563  0.3188  0.5715  0.4423
 1023MOL0     O41067   1.024   7.434   9.610 -0.9256  0.0118  0.6676
 1023MOL0     C41068   0.948   7.355   9.687  0.8283  0.0580 -0.3157
 1023MOL0     C41069   0.981   7.332   9.820 -0.4884 -0.7255  0.0927
 1023MOL0     C41070   0.910   7.240   9.891 -0.0497 -0.2055  0.0892
 1023MOL0     C41071   0.805   7.163   9.836 -0.4813  0.4904  0.5405
 1023MOL0     O41072   0.728   7.067   9.886 -0.1798  0.2528  0.2111
 1023MOL0     C41073   0.779   7.002  10.000  0.2975 -0.4881 -0.5112
 1023MOL0     C41074   0.677   6.894  10.052 -0.1938  0.1468  0.3944
 1023MOL0     C41075   0.535   6.954  10.067 -0.0169 -0.1625 -0.1960
 1023MOL0     C41076   0.500   7.020  10.206 -0.8906 -0.1008  0.1162
 1023MOL0     C41077   0.366   7.098  10.200  0.0741  0.0881  0.7278
 1023MOL0     C41078   0.353   7.177  10.323  0.4021  0.1607  0.2320
 1023MOL0     C41079   0.224   7.258  10.355  0.3660  0.5460  0.0436
 1023MOL0     C41080   0.101   7.160  10.361  0.1808 -1.1044 -0.6718
 1023MOL0    Cl41081   0.035   7.115  10.212  0.2111  0.2354  0.1979
 1023MOL0     C41082   0.772   7.189   9.700 -0.4207  0.3708  0.4447
 1023MOL0     C41083   0.844   7.283   9.631 -0.9087  0.3778 -0.1948
 1023MOL0     O41084   0.891   7.621   9.613 -0.6265  0.0616  0.0794
 1023MOL0     C41085   1.110   7.522   9.359 -0.1987  0.8392  1.0607
 1023MOL0     C41086   1.177   7.562   9.246  0.3616  0.9105  0.0342
 1023MOL0     N41087   1.458   7.497   8.514 -0.1539  0.0387  0.2480
 1023MOL0     N41088   1.470   7.490   8.386 -0.2429  0.4461 -0.4672
 1023MOL0     C41089   2.123   7.190   7.361 -0.4887  0.2082 -0.0288
 1023MOL0     C41090   2.199   7.220   7.248  0.4166  0.1789  0.0853
 1023MOL0     C41091   2.370   7.296   6.834 -0.7849  1.0138 -0.1730
 1023MOL0     C41092   2.317   7.199   6.748 -0.4653  0.2291  0.6699
 1023MOL0     C41093   2.352   7.204   6.612  0.4031 -0.5520  0.3352
 1023MOL0     C41094   2.447   7.296   6.564  0.4669 -1.5072  0.4884
 1023MOL0     O41095   2.495   7.310   6.444  0.7100  0.0551  0.1138
 1023MOL0     C41096   2.462   7.215   6.342 -0.3414  0.0499 -0.6569
 1023MOL0     C41097   2.512   7.249   6.199 -0.0993 -0.1234  0.4114
 1023MOL0     C41098   2.458   7.384   6.150  0.1689 -0.1294  0.1037
 1023MOL0     C41099   2.314   7.423   6.172 -0.6338  0.7908 -0.5320
 1023MOL0     C41100   2.223   7.323   6.119 -0.4755 -1.1178 -0.3083
 1023MOL0     C41101   2.151   7.241   6.081  0.4053  0.2566 -1.2343
 1023MOL0     C41102   2.502   7.384   6.651 -0.2854  0.0786 -0.0975
 1023MOL0     C41103   2.463   7.388   6.790 -0.5675  0.2966 -0.9979
 1023MOL0     C41104   2.508   7.515   6.866 -0.8079 -0.2406  0.8534
 1023MOL0     H41105   1.965   7.188   7.014  0.2363 -2.5934 -1.0795
 1023MOL0     H41106   1.822   7.139   7.210 -0.4286 -0.2351  3.5142
 1023MOL0     H41107   1.821   7.348   7.498 -0.9342 -0.5175  0.9304
 1023MOL0     H41108   1.989   7.337   7.555 -0.7094  0.6777  1.8227
 1023MOL0     H41109   1.759   7.187   7.672 -0.4242  0.1407  1.0516
 1023MOL0     H41110   1.904   7.231   7.752  0.2532 -1.7421 -2.2180
 1023MOL0     H41111   1.854   7.471   7.737  1.0494 -0.9104 -0.2193
 1023MOL0     H41112   1.687   7.433   7.662  0.6516  1.2969 -0.3582
 1023MOL0     H41113   1.606   7.335   7.848 -0.9824  1.8612  0.8028
 1023MOL0     H41114   1.760   7.337   7.941  0.6467 -3.5397 -2.0149
 1023MOL0     H41115   1.592   7.584   7.871 -0.6687  0.7206  0.4468
 1023MOL0     H41116   1.752   7.589   7.953 -1.3141  3.5556  0.3500
 1023MOL0     H41117   1.497   7.455   8.063 -0.2848  1.2613  0.6101
 1023MOL0     H41118   1.653   7.500   8.145  0.1754  1.0154 -0.1316
 1023MOL0     H41119   1.505   7.731   8.012 -1.0731 -0.0467  0.5969
 1023MOL0     H41120   1.619   7.728   8.140  2.0023 -0.7066 -1.5573
 1023MOL0     H41121   1.366   7.758   8.218 -3.7678 -1.5162  1.5256
 1023MOL0     H41122   1.334   7.589   8.174  2.5662 -1.9602 -0.7721
 1023MOL0     H41123   1.412   7.809   8.438 -0.0215  0.1134 -0.5682
 1023MOL0     H41124   1.308   7.738   8.711  2.3485  2.4663  0.8641
 1023MOL0     H41125   1.474   7.690   8.738  3.0272 -1.6325 -2.9458
 1023MOL0     H41126   1.244   7.485   8.711  0.1271  3.3084 -3.0954
 1023MOL0     H41127   1.404   7.462   8.795  1.4734  2.7317  2.3031
 1023MOL0     H41128   1.167   7.631   8.871  0.7833 -0.0734 -1.3058
 1023MOL0     H41129   1.196   7.490   8.964 -1.5735  0.0654 -1.5271
 1023MOL0     H41130   1.397   7.615   9.069  3.4167  1.7188 -3.1480
 1023MOL0     H41131   1.386   7.742   8.961 -1.9816  2.7165  0.5993
 1023MOL0     H41132   1.091   7.887   9.263 -0.2231 -0.3174  0.3264
 1023MOL0     H41133   1.029   7.948   9.456  1.7949 -0.9596 -0.5289
 1023MOL0     H41134   0.989   7.847   9.596  1.1932 -1.5121 -0.0848
 1023MOL0     H41135   0.876   7.878   9.456  0.9839  0.2046 -2.4138
 1023MOL0     H41136   1.064   7.386   9.865  1.7864 -2.0373 -2.2714
 1023MOL0     H41137   0.931   7.215   9.994 -1.8836 -0.7217  0.3820
 1023MOL0     H41138   0.879   6.957   9.997 -0.1332 -1.5407  0.1063
 1023MOL0     H41139   0.784   7.074  10.083  5.7051  1.3105 -1.9990
 1023MOL0     H41140   0.670   6.814   9.978  2.2495  0.0476  0.1737
 1023MOL0     H41141   0.726   6.849  10.139 -0.0954  1.4601  1.0592
 1023MOL0     H41142   0.467   6.870  10.049  1.0047 -1.6222  2.2922
 1023MOL0     H41143   0.520   7.033   9.993  1.2616  0.6159  0.3347
 1023MOL0     H41144   0.590   7.082  10.219  0.0537 -1.4269  0.1095
 1023MOL0     H41145   0.485   6.946  10.285 -1.5641 -1.2118 -1.0194
 1023MOL0     H41146   0.361   7.165  10.115  1.2560  1.1773  1.4746
 1023MOL0     H41147   0.278   7.033  10.193 -0.5269  1.0572 -1.7613
 1023MOL0     H41148   0.437   7.244  10.305  3.1990 -3.6159 -2.1057
 1023MOL0     H41149   0.367   7.101  10.401  0.4800 -1.2360 -1.1128
 1023MOL0     H41150   0.208   7.340  10.284  2.0051 -1.1870 -2.4853
 1023MOL0     H41151   0.239   7.308  10.451  0.4878  2.3822 -0.8763
 1023MOL0     H41152   0.013   7.211  10.401  1.3140  1.3101 -1.0511
 1023MOL0     H41153   0.123   7.077  10.430 -1.0114  1.6784  3.4811
 1023MOL0     H41154   0.695   7.139   9.642 -0.3168  1.2131 -0.4316
 1023MOL0     H41155   0.822   7.289   9.524 -2.3904  0.5588  0.0906
 1023MOL0     H41156   1.110   7.417   9.384 -1.7501 -0.3605 -3.2035
 1023MOL0     H41157   1.241   7.496   9.189 -1.9467 -0.4810 -1.0605
 1023MOL0     H41158   2.176   7.201   7.455  1.7876  2.4379 -1.4344
 1023MOL0     H41159   2.297   7.249   7.284  0.3448  0.0826  0.3617
 1023MOL0     H41160   2.266   7.109   6.783 -1.8714  0.9014  0.4120
 1023MOL0     H41161   2.294   7.144   6.543 -0.9737  1.3564 -0.2597
 1023MOL0     H41162   2.487   7.113   6.373 -0.6458  0.2775  0.3699
 1023MOL0     H41163   2.353   7.220   6.336 -0.7230 -0.0868  3.3256
 1023MOL0     H41164   2.472   7.171   6.134 -1.1294 -0.0020  0.8763
 1023MOL0     H41165   2.620   7.235   6.193 -0.2582 -1.3831  0.1918
 1023MOL0     H41166   2.511   7.467   6.197 -1.1506 -0.5646  2.5413
 1023MOL0     H41167   2.469   7.399   6.042  1.4138  0.2130  0.2648
 1023MOL0     H41168   2.303   7.521   6.124  2.8127  2.3630  1.5645
 1023MOL0     H41169   2.291   7.430   6.278  0.4452 -1.8577 -0.0707
 1023MOL0     H41170   2.084   7.165   6.044 -1.9535  1.2922  0.6048
 1023MOL0     H41171   2.570   7.456   6.605 -0.3453  0.2598  0.1000
 1023MOL0     H41172   2.535   7.591   6.792  1.0212  0.7443  2.4375
 1023MOL0     H41173   2.430   7.567   6.922 -0.2262  0.2197  1.2475
 1023MOL0     H41174   2.593   7.512   6.934 -0.0204 -0.6365 -0.1321
 1024MOL0     O41175   1.705   4.805   8.625  0.1089  0.3427  0.2616
 1024MOL0     C41176   1.582   4.799   8.659  0.4860 -0.5341 -0.2683
 1024MOL0     O41177   1.478   4.824   8.573 -0.1890 -0.2449  1.6339
 1024MOL0     C41178   1.498   4.808   8.429  0.7929  0.0917 -0.5423
 1024MOL0     C41179   1.594   4.887   8.357  0.5243 -0.1424  0.7396
 1024MOL0     C41180   1.592   4.888   8.213 -0.4454  0.3115 -0.4358
 1024MOL0     C41181   1.498   4.810   8.147 -0.4940  0.0945 -0.6094
 1024MOL0     O41182   1.495   4.810   8.012  1.2883  0.2662 -1.0432
 1024MOL0     C41183   1.448   4.925   7.950 -1.0986  0.0770  0.1970
 1024MOL0     C41184   1.433   4.906   7.802 -0.4425 -0.0903 -0.2011
 1024MOL0     C41185   1.298   4.829   7.784 -1.0244  0.8232  0.8479
 1024MOL0     C41186   1.258   4.807   7.637  0.8835 -0.2322 -0.1896
 1024MOL0     C41187   1.367   4.758   7.539 -0.6722  0.6680  0.5720
 1024MOL0     C41188   1.307   4.715   7.406 -0.0133 -0.9225 -0.5380
 1024MOL0     C41189   1.407   4.675   7.298 -0.2946 -0.2810  0.6436
 1024MOL0     C41190   1.528   4.771   7.283 -0.8722  0.3204 -0.5137
 1024MOL0     N41191   1.497   4.899   7.219  0.6216  1.0520  0.0401
 1024MOL0     C41192   1.555   5.024   7.238 -0.8320  0.4364 -0.0215
 1024MOL0     C41193   1.495   5.104   7.149  0.8549 -0.1465  0.9798
 1024MOL0     C41194   1.514   5.256   7.130  0.5333 -0.4970 -0.5738
 1024MOL0     C41195   1.501   5.324   7.262 -0.8776 -0.3909  0.1324
 1024MOL0     C41196   1.521   5.477   7.239  0.1657 -0.9443 -0.6198
 1024MOL0     C41197   1.506   5.560   7.369 -1.6655  0.6054  0.0993
 1024MOL0     O41198   1.369   5.571   7.391  0.0530  1.0557 -0.3677
 1024MOL0     C41199   1.334   5.638   7.498  1.0557  0.1913  0.9765
 1024MOL0     C41200   1.416   5.699   7.591 -0.5495 -0.3735 -0.1404
 1024MOL0     C41201   1.375   5.737   7.718 -0.4280 -0.9112  0.1567
 1024MOL0     C41202   1.483   5.780   7.820  0.4238 -0.2424  0.1836
 1024MOL0     C41203   1.241   5.724   7.750  0.4840 -0.1186 -0.4509
 1024MOL0     C41204   1.179   5.759   7.881  0.3979  0.4331 -0.4907
 1024MOL0     O41205   1.261   5.735   7.984  0.4913 -0.5160  0.5502
 1024MOL0     C41206   1.214   5.724   8.115  0.3588 -1.2362 -0.2396
 1024MOL0     C41207   1.163   5.610   8.184  0.0453  0.6059 -0.2889
 1024MOL0     C41208   1.122   5.618   8.317  0.0515  0.6335 -0.3729
 1024MOL0     C41209   1.127   5.737   8.387  0.2416  0.1746  0.2495
 1024MOL0     O41210   1.082   5.750   8.516 -0.0998 -0.6015  0.0393
 1024MOL0     C41211   1.046   5.874   8.572 -0.8358 -0.5549  0.0787
 1024MOL0     C41212   0.946   5.847   8.681  0.1123  0.3491  0.5651
 1024MOL0     C41213   1.009   5.784   8.812 -1.4534 -0.3159 -0.2029
 1024MOL0     C41214   0.911   5.721   8.912 -0.8815 -0.3620  0.9733
 1024MOL0     C41215   0.976   5.695   9.050 -0.0637  1.0222  0.1872
 1024MOL0     C41216   0.876   5.690   9.161  0.2973 -0.5907 -0.3977
 1024MOL0     C41217   0.769   5.582   9.145  0.3997 -0.4837  0.1320
 1024MOL0     C41218   0.654   5.587   9.244  0.1763 -0.0648  0.6486
 1024MOL0    Cl41219   0.551   5.452   9.200 -0.2744 -0.2821  0.0332
 1024MOL0     C41220   1.173   5.850   8.317 -0.9498 -0.0447  0.3475
 1024MOL0     C41221   1.226   5.838   8.189  0.2398  0.7317  0.0138
 1024MOL0     O41222   1.066   5.804   7.888 -0.6025  0.8152  0.5113
 1024MOL0     C41223   1.152   5.674   7.650 -0.0605  1.3125  1.0004
 1024MOL0     C41224   1.200   5.630   7.525 -0.2979  0.3378  0.2413
 1024MOL0     N41225   1.395   5.031   7.077 -0.4351 -0.2728 -0.3850
 1024MOL0     N41226   1.409   4.914   7.121  0.6609  0.0024 -0.2435
 1024MOL0     C41227   1.401   4.748   8.220  0.5710 -0.7085  0.1429
 1024MOL0     C41228   1.400   4.737   8.363 -0.1096  0.0350  0.2843
 1024MOL0     C41229   1.530   4.805   8.804 -0.3808  0.1250 -0.4101
 1024MOL0     C41230   1.408   4.882   8.832  0.4095  0.6215  0.0094
 1024MOL0     C41231   1.346   4.887   8.959 -0.0121  0.2560  0.1755
 1024MOL0     C41232   1.417   4.830   9.060  0.2593  0.3106 -0.2830
 1024MOL0     O41233   1.383   4.830   9.193 -0.5193  0.1773 -0.2746
 1024MOL0     C41234   1.259   4.878   9.237  0.3451  0.0365 -1.4282
 1024MOL0     C41235   1.238   4.853   9.390 -0.6398  0.2235 -0.4750
 1024MOL0     C41236   1.123   4.938   9.446 -0.1072  0.4045 -0.8961
 1024MOL0     C41237   1.096   4.904   9.590 -0.7156 -0.2386  0.1015
 1024MOL0     C41238   0.977   4.968   9.640  0.2967 -0.1928 -0.2881
 1024MOL0     C41239   0.866   5.015   9.668 -0.6433  0.0521 -0.1124
 1024MOL0     C41240   1.539   4.765   9.037 -0.2696  0.5534  1.1761
 1024MOL0     C41241   1.597   4.742   8.910 -0.4863  0.0286  0.2353
 1024MOL0     C41242   1.726   4.659   8.902  0.7096 -0.0011 -1.1157
 1024MOL0     H41243   1.686   4.928   8.397  3.0835 -4.6905  0.1438
 1024MOL0     H41244   1.669   4.945   8.161  1.9438 -0.6362  1.8380
 1024MOL0     H41245   1.528   4.999   7.959  1.5157 -2.7104  1.3636
 1024MOL0     H41246   1.359   4.970   7.994 -2.8250 -0.8493 -2.1008
 1024MOL0     H41247   1.422   5.000   7.747 -1.3580 -0.2351 -0.2770
 1024MOL0     H41248   1.515   4.847   7.759 -1.6672 -1.1208 -1.1937
 1024MOL0     H41249   1.308   4.730   7.829  0.7227 -0.4184 -1.9535
 1024MOL0     H41250   1.222   4.890   7.834 -1.8217  0.2462  0.3721
 1024MOL0     H41251   1.185   4.726   7.635  1.4174 -0.7698  1.0572
 1024MOL0     H41252   1.213   4.898   7.598  0.5179 -1.1084 -1.9532
 1024MOL0     H41253   1.411   4.679   7.600 -0.5815  0.6814  0.5233
 1024MOL0     H41254   1.431   4.845   7.522 -0.3792  0.5568  1.0942
 1024MOL0     H41255   1.263   4.622   7.445  0.4309 -0.0551  2.2334
 1024MOL0     H41256   1.231   4.786   7.372 -0.1170 -0.9606 -0.3874
 1024MOL0     H41257   1.349   4.666   7.205 -0.6054 -0.2311  0.8312
 1024MOL0     H41258   1.439   4.572   7.317 -1.9209 -1.6587 -3.1254
 1024MOL0     H41259   1.592   4.780   7.372 -0.0993  1.2649 -1.1381
 1024MOL0     H41260   1.594   4.711   7.220  0.6997  0.1475  1.2192
 1024MOL0     H41261   1.624   5.060   7.314 -0.3453  0.1273 -0.3142
 1024MOL0     H41262   1.437   5.283   7.058  1.4735  4.1723 -0.1265
 1024MOL0     H41263   1.613   5.276   7.087  1.0579 -1.1580  0.2797
 1024MOL0     H41264   1.404   5.303   7.308 -0.0936 -0.4196  1.8702
 1024MOL0     H41265   1.576   5.295   7.337  0.9593 -2.3308 -2.2454
 1024MOL0     H41266   1.626   5.487   7.209  0.0837 -2.5940 -1.5723
 1024MOL0     H41267   1.463   5.511   7.153  2.4931  0.7879 -1.6316
 1024MOL0     H41268   1.548   5.512   7.458 -4.3741 -0.2360  1.0489
 1024MOL0     H41269   1.553   5.655   7.344 -0.2752 -0.4787 -1.6521
 1024MOL0     H41270   1.523   5.695   7.574 -0.2207  3.3254  0.3655
 1024MOL0     H41271   1.448   5.863   7.882 -3.0626  1.7713 -3.9736
 1024MOL0     H41272   1.568   5.810   7.758 -0.0667  0.9025  0.0219
 1024MOL0     H41273   1.503   5.694   7.885 -3.9677 -1.0910  0.7362
 1024MOL0     H41274   1.146   5.525   8.120  0.2881  0.7548 -0.5510
 1024MOL0     H41275   1.091   5.525   8.363  0.3944  0.4685 -0.4684
 1024MOL0     H41276   1.134   5.930   8.606 -0.1307  0.3614 -2.9663
 1024MOL0     H41277   0.992   5.941   8.505 -0.6861  0.4684  0.9468
 1024MOL0     H41278   0.901   5.944   8.703 -0.8193 -0.2126  1.2164
 1024MOL0     H41279   0.868   5.781   8.641  0.3576 -0.3620  1.2230
 1024MOL0     H41280   1.072   5.852   8.870 -0.0279 -0.5988 -1.3573
 1024MOL0     H41281   1.078   5.705   8.780  2.6566  1.6035  3.0510
 1024MOL0     H41282   0.888   5.623   8.870  0.3211  0.7324 -2.6115
 1024MOL0     H41283   0.817   5.776   8.923  0.8668  3.2953 -0.5905
 1024MOL0     H41284   1.037   5.604   9.053 -1.4110  0.1058  1.0469
 1024MOL0     H41285   1.053   5.769   9.071 -1.5705  2.2872  1.5178
 1024MOL0     H41286   0.825   5.786   9.150  0.4774 -0.6995 -2.8050
 1024MOL0     H41287   0.922   5.685   9.260  0.9436  0.8792 -0.6020
 1024MOL0     H41288   0.806   5.480   9.157 -2.1722 -1.4782  0.1102
 1024MOL0     H41289   0.727   5.590   9.044  2.4782  1.3696 -0.6774
 1024MOL0     H41290   0.590   5.676   9.236  2.7396  2.3531  4.0554
 1024MOL0     H41291   0.677   5.570   9.349 -2.9499 -0.9894  1.3061
 1024MOL0     H41292   1.151   5.942   8.372 -1.8403 -3.4964  6.7336
 1024MOL0     H41293   1.243   5.931   8.134 -4.0758 -0.7032 -4.3678
 1024MOL0     H41294   1.044   5.670   7.659 -0.1638 -0.5192 -0.4107
 1024MOL0     H41295   1.135   5.599   7.444 -1.1011  0.3914  0.8548
 1024MOL0     H41296   1.334   4.693   8.154  1.7451 -2.0942  0.0414
 1024MOL0     H41297   1.327   4.680   8.420  0.3655  1.2445  2.2340
 1024MOL0     H41298   1.349   4.940   8.761 -4.4771 -1.3785  1.9816
 1024MOL0     H41299   1.257   4.946   8.980 -1.5332 -1.4778 -1.1380
 1024MOL0     H41300   1.255   4.985   9.220 -6.1916  1.0414  2.6328
 1024MOL0     H41301   1.182   4.829   9.177 -3.0344  1.4482  1.3803
 1024MOL0     H41302   1.330   4.885   9.441  0.2928 -1.6532 -0.8897
 1024MOL0     H41303   1.234   4.746   9.414 -0.0019 -0.2343 -2.2463
 1024MOL0     H41304   1.134   5.045   9.428  1.1155  0.7242  1.3463
 1024MOL0     H41305   1.031   4.915   9.392 -0.3359 -2.5186  0.5495
 1024MOL0     H41306   1.177   4.950   9.647  0.7960 -0.6721 -1.5709
 1024MOL0     H41307   1.094   4.795   9.599 -1.8105 -0.1837  0.6028
 1024MOL0     H41308   0.765   5.049   9.676  0.0363  1.8966  1.4160
 1024MOL0     H41309   1.588   4.720   9.122  1.2597  1.0026  0.5571
 1024MOL0     H41310   1.762   4.662   9.005  0.2241  1.5802 -0.9567
 1024MOL0     H41311   1.681   4.563   8.874 -2.0057  0.6830  0.4890
 1024MOL0     H41312   1.795   4.697   8.826  0.4335  1.0537 -0.8545
  11.54730  11.54730  11.54730
